       N       E                     dE             d eps       ncg     rms          rms(c)
DAV:   1     0.652274765288E+04    0.65227E+04   -0.26962E+05 35456   0.155E+03
DAV:   2     0.408939810560E+03   -0.61138E+04   -0.58684E+04 35752   0.476E+02
DAV:   3    -0.366916962237E+03   -0.77586E+03   -0.75826E+03 38160   0.178E+02
DAV:   4    -0.409403493935E+03   -0.42487E+02   -0.41247E+02 50312   0.432E+01
DAV:   5    -0.412775036497E+03   -0.33715E+01   -0.33077E+01 63776   0.854E+00    0.664E+01
DAV:   6    -0.340183092528E+03    0.72592E+02   -0.32482E+02 46056   0.409E+01    0.390E+01
DAV:   7    -0.368827432824E+03   -0.28644E+02   -0.90854E+01 48480   0.217E+01    0.729E+01
DAV:   8    -0.361078281794E+03    0.77492E+01   -0.51972E+01 48504   0.154E+01    0.315E+01
DAV:   9    -0.360010080154E+03    0.10682E+01   -0.12954E+01 47872   0.845E+00    0.336E+01
DAV:  10    -0.363114221530E+03   -0.31041E+01   -0.24024E+01 48112   0.104E+01    0.305E+01
DAV:  11    -0.365954100785E+03   -0.28399E+01   -0.19412E+01 45632   0.646E+00    0.248E+01
DAV:  12    -0.367062234405E+03   -0.11081E+01   -0.98684E+00 48000   0.474E+00    0.161E+01
DAV:  13    -0.370143729885E+03   -0.30815E+01   -0.25135E+00 44968   0.363E+00    0.108E+01
DAV:  14    -0.374707006526E+03   -0.45633E+01   -0.58711E+00 46088   0.452E+00    0.114E+01
DAV:  15    -0.378447720183E+03   -0.37407E+01   -0.59702E+00 44760   0.390E+00    0.115E+01
DAV:  16    -0.379901676976E+03   -0.14540E+01   -0.45884E+00 46632   0.313E+00    0.874E+00
DAV:  17    -0.380677015915E+03   -0.77534E+00   -0.57625E-01 44936   0.167E+00    0.598E+00
DAV:  18    -0.381434553044E+03   -0.75754E+00   -0.53113E-01 45512   0.169E+00    0.466E+00
DAV:  19    -0.382366445124E+03   -0.93189E+00   -0.50329E-01 44288   0.152E+00    0.489E+00
DAV:  20    -0.383192743208E+03   -0.82630E+00   -0.52953E-01 43864   0.140E+00    0.352E+00
DAV:  21    -0.383627843180E+03   -0.43510E+00   -0.25365E-01 45888   0.106E+00    0.258E+00
DAV:  22    -0.384163544217E+03   -0.53570E+00   -0.45319E-01 41952   0.105E+00    0.219E+00
DAV:  23    -0.384244107017E+03   -0.80563E-01   -0.59486E-02 43152   0.479E-01    0.216E+00
DAV:  24    -0.384244532343E+03   -0.42533E-03   -0.67411E-03 45176   0.190E-01    0.250E+00
DAV:  25    -0.384308193110E+03   -0.63661E-01   -0.34435E-02 45648   0.388E-01    0.274E+00
DAV:  26    -0.384401803855E+03   -0.93611E-01   -0.34283E-01 44320   0.908E-01    0.313E+00
DAV:  27    -0.384426176029E+03   -0.24372E-01   -0.11080E-01 44424   0.654E-01    0.165E+00
DAV:  28    -0.384430163194E+03   -0.39872E-02   -0.23948E-02 43328   0.341E-01    0.105E+00
DAV:  29    -0.384429837309E+03    0.32588E-03   -0.55088E-03 48672   0.206E-01    0.702E-01
DAV:  30    -0.384430979191E+03   -0.11419E-02   -0.14737E-02 47960   0.232E-01    0.794E-01
DAV:  31    -0.384431355671E+03   -0.37648E-03   -0.49347E-03 47008   0.188E-01    0.677E-01
DAV:  32    -0.384430795225E+03    0.56045E-03   -0.17719E-03 47480   0.109E-01    0.277E-01
DAV:  33    -0.384431093760E+03   -0.29853E-03   -0.38866E-04 40240   0.588E-02    0.167E-01
DAV:  34    -0.384431156359E+03   -0.62599E-04   -0.31849E-04 45752   0.442E-02    0.117E-01
DAV:  35    -0.384431150098E+03    0.62609E-05   -0.20802E-04 38048   0.315E-02    0.602E-02
DAV:  36    -0.384431156304E+03   -0.62065E-05   -0.58423E-05 31768   0.230E-02
   1 F= -.38443116E+03 E0= -.38441885E+03  d E =-.384431E+03  mag=    34.0037
       N       E                     dE             d eps       ncg     rms          rms(c)
DAV:   1    -0.384465220379E+03   -0.34070E-01   -0.37779E-02 38312   0.376E-01    0.571E-02
DAV:   2    -0.384465365603E+03   -0.14522E-03   -0.15728E-03 38960   0.734E-02    0.156E-01
DAV:   3    -0.384465346403E+03    0.19200E-04   -0.37561E-04 45808   0.328E-02    0.105E-01
DAV:   4    -0.384465341649E+03    0.47549E-05   -0.11765E-04 32088   0.218E-02    0.546E-02
DAV:   5    -0.384465341801E+03   -0.15203E-06   -0.79578E-05 28480   0.184E-02
   2 F= -.38446534E+03 E0= -.38445303E+03  d E =-.341855E-01  mag=    34.0023
       N       E                     dE             d eps       ncg     rms          rms(c)
DAV:   1    -0.385184034925E+03   -0.71869E+00   -0.40950E+01 37608   0.124E+01    0.155E+00
DAV:   2    -0.385342471580E+03   -0.15844E+00   -0.17786E+00 38776   0.233E+00    0.314E+00
DAV:   3    -0.385346678068E+03   -0.42065E-02   -0.33849E-01 57152   0.842E-01    0.321E+00
DAV:   4    -0.385338932757E+03    0.77453E-02   -0.18924E-01 48928   0.580E-01    0.224E+00
DAV:   5    -0.385331217189E+03    0.77156E-02   -0.52294E-02 48904   0.421E-01    0.924E-01
DAV:   6    -0.385332811322E+03   -0.15941E-02   -0.25363E-02 49936   0.422E-01    0.114E+00
DAV:   7    -0.385330725088E+03    0.20862E-02   -0.18007E-02 47488   0.291E-01    0.111E+00
DAV:   8    -0.385329521351E+03    0.12037E-02   -0.49684E-03 50408   0.225E-01    0.792E-01
DAV:   9    -0.385329024681E+03    0.49667E-03   -0.73548E-03 50928   0.152E-01    0.316E-01
DAV:  10    -0.385329473886E+03   -0.44920E-03   -0.23097E-03 47632   0.118E-01    0.333E-01
DAV:  11    -0.385329442776E+03    0.31111E-04   -0.89829E-04 46664   0.701E-02    0.308E-01
DAV:  12    -0.385329322528E+03    0.12025E-03   -0.58254E-04 43576   0.574E-02    0.121E-01
DAV:  13    -0.385329432906E+03   -0.11038E-03   -0.78851E-04 41792   0.444E-02    0.188E-01
DAV:  14    -0.385329447938E+03   -0.15031E-04   -0.31823E-04 35704   0.364E-02    0.115E-01
DAV:  15    -0.385329446271E+03    0.16666E-05   -0.32753E-05 29848   0.163E-02
   3 F= -.38532945E+03 E0= -.38531685E+03  d E =-.864104E+00  mag=    34.0005
       N       E                     dE             d eps       ncg     rms          rms(c)
DAV:   1    -0.385531063111E+03   -0.20162E+00   -0.12726E+02 37968   0.255E+01    0.298E+00
DAV:   2    -0.386216733007E+03   -0.68567E+00   -0.72536E+00 37040   0.500E+00    0.724E+00
DAV:   3    -0.386158208528E+03    0.58524E-01   -0.17114E+00 56016   0.194E+00    0.343E+00
DAV:   4    -0.386172203148E+03   -0.13995E-01   -0.37644E-01 51440   0.954E-01    0.412E+00
DAV:   5    -0.386139272773E+03    0.32930E-01   -0.11448E-01 47816   0.575E-01    0.161E+00
DAV:   6    -0.386141293843E+03   -0.20211E-02   -0.53992E-02 50864   0.638E-01    0.187E+00
DAV:   7    -0.386145869686E+03   -0.45758E-02   -0.10498E-01 49920   0.584E-01    0.269E+00
DAV:   8    -0.386133692640E+03    0.12177E-01   -0.38029E-02 48424   0.422E-01    0.152E+00
DAV:   9    -0.386136562621E+03   -0.28700E-02   -0.25526E-02 50752   0.332E-01    0.178E+00
DAV:  10    -0.386133257377E+03    0.33052E-02   -0.21990E-02 49120   0.248E-01    0.645E-01
DAV:  11    -0.386135157185E+03   -0.18998E-02   -0.47484E-03 45624   0.155E-01    0.465E-01
DAV:  12    -0.386135413145E+03   -0.25596E-03   -0.16479E-03 49752   0.113E-01    0.493E-01
DAV:  13    -0.386135027708E+03    0.38544E-03   -0.23880E-03 49576   0.135E-01    0.407E-01
DAV:  14    -0.386135574674E+03   -0.54697E-03   -0.37181E-03 48984   0.957E-02    0.589E-01
DAV:  15    -0.386135274211E+03    0.30046E-03   -0.19001E-03 49504   0.697E-02    0.251E-01
DAV:  16    -0.386135413566E+03   -0.13936E-03   -0.33735E-04 43960   0.546E-02    0.163E-01
DAV:  17    -0.386135427759E+03   -0.14192E-04   -0.94231E-05 40888   0.306E-02    0.903E-02
DAV:  18    -0.386135442602E+03   -0.14844E-04   -0.14200E-04 36808   0.289E-02    0.101E-01
DAV:  19    -0.386135428404E+03    0.14198E-04   -0.54742E-05 32152   0.228E-02    0.450E-02
DAV:  20    -0.386135434032E+03   -0.56276E-05   -0.16762E-05 22296   0.120E-02
   4 F= -.38613543E+03 E0= -.38612258E+03  d E =-.805988E+00  mag=    34.0001
       N       E                     dE             d eps       ncg     rms          rms(c)
DAV:   1    -0.385661769566E+03    0.47366E+00   -0.15092E+02 36800   0.318E+01    0.377E+00
DAV:   2    -0.386647514326E+03   -0.98574E+00   -0.99817E+00 35920   0.585E+00    0.845E+00
DAV:   3    -0.386590579628E+03    0.56935E-01   -0.28634E+00 55464   0.246E+00    0.458E+00
DAV:   4    -0.386677538434E+03   -0.86959E-01   -0.13890E+00 51856   0.137E+00    0.739E+00
DAV:   5    -0.386569541524E+03    0.10800E+00   -0.40808E-01 48176   0.992E-01    0.251E+00
DAV:   6    -0.386573576004E+03   -0.40345E-02   -0.50034E-02 50184   0.608E-01    0.186E+00
DAV:   7    -0.386573587327E+03   -0.11322E-04   -0.69684E-02 50448   0.634E-01    0.207E+00
DAV:   8    -0.386574776766E+03   -0.11894E-02   -0.59114E-02 50984   0.518E-01    0.197E+00
DAV:   9    -0.386570152765E+03    0.46240E-02   -0.40622E-02 47576   0.461E-01    0.158E+00
DAV:  10    -0.386572643446E+03   -0.24907E-02   -0.18365E-02 49184   0.331E-01    0.144E+00
DAV:  11    -0.386570152102E+03    0.24913E-02   -0.18636E-02 50424   0.241E-01    0.563E-01
DAV:  12    -0.386571718095E+03   -0.15660E-02   -0.55809E-03 48504   0.152E-01    0.747E-01
DAV:  13    -0.386571343077E+03    0.37502E-03   -0.18270E-03 46736   0.139E-01    0.523E-01
DAV:  14    -0.386571184414E+03    0.15866E-03   -0.45940E-03 50040   0.116E-01    0.289E-01
DAV:  15    -0.386571898220E+03   -0.71381E-03   -0.25693E-03 44896   0.789E-02    0.584E-01
DAV:  16    -0.386571548655E+03    0.34957E-03   -0.81705E-04 43992   0.623E-02    0.279E-01
DAV:  17    -0.386571613436E+03   -0.64781E-04   -0.32245E-04 40088   0.312E-02    0.165E-01
DAV:  18    -0.386571653522E+03   -0.40087E-04   -0.66191E-05 35080   0.263E-02    0.113E-01
DAV:  19    -0.386571659256E+03   -0.57337E-05   -0.11202E-04 37464   0.256E-02    0.473E-02
DAV:  20    -0.386571664949E+03   -0.56927E-05   -0.49086E-05 30600   0.206E-02
   5 F= -.38657166E+03 E0= -.38655871E+03  d E =-.436231E+00  mag=    34.0000
       N       E                     dE             d eps       ncg     rms          rms(c)
DAV:   1    -0.386150237538E+03    0.42142E+00   -0.10518E+02 36008   0.273E+01    0.299E+00
DAV:   2    -0.386738441176E+03   -0.58820E+00   -0.58970E+00 36080   0.478E+00    0.482E+00
DAV:   3    -0.386808019314E+03   -0.69578E-01   -0.17761E+00 55320   0.172E+00    0.621E+00
DAV:   4    -0.386751469749E+03    0.56550E-01   -0.58760E-01 50800   0.127E+00    0.357E+00
DAV:   5    -0.386736258648E+03    0.15211E-01   -0.15491E-01 50104   0.755E-01    0.175E+00
DAV:   6    -0.386738812270E+03   -0.25536E-02   -0.31756E-02 49208   0.444E-01    0.109E+00
DAV:   7    -0.386748117954E+03   -0.93057E-02   -0.63816E-02 48456   0.398E-01    0.270E+00
DAV:   8    -0.386739457304E+03    0.86606E-02   -0.12451E-02 45472   0.317E-01    0.191E+00
DAV:   9    -0.386738208557E+03    0.12487E-02   -0.33727E-02 50912   0.279E-01    0.790E-01
DAV:  10    -0.386741525371E+03   -0.33168E-02   -0.11795E-02 44648   0.241E-01    0.969E-01
DAV:  11    -0.386740611630E+03    0.91374E-03   -0.20684E-03 45512   0.131E-01    0.594E-01
DAV:  12    -0.386740441278E+03    0.17035E-03   -0.66092E-04 47048   0.544E-02    0.381E-01
DAV:  13    -0.386740568818E+03   -0.12754E-03   -0.32771E-04 42824   0.493E-02    0.335E-01
DAV:  14    -0.386740860570E+03   -0.29175E-03   -0.11668E-03 46744   0.810E-02    0.478E-01
DAV:  15    -0.386740527304E+03    0.33327E-03   -0.19332E-03 46432   0.813E-02    0.203E-01
DAV:  16    -0.386740748279E+03   -0.22098E-03   -0.67729E-04 43408   0.471E-02    0.167E-01
DAV:  17    -0.386740777760E+03   -0.29480E-04   -0.10642E-04 35256   0.288E-02    0.182E-01
DAV:  18    -0.386740747040E+03    0.30720E-04   -0.89634E-05 30200   0.208E-02    0.963E-02
DAV:  19    -0.386740759378E+03   -0.12338E-04   -0.10014E-04 34536   0.247E-02    0.446E-02
DAV:  20    -0.386740765363E+03   -0.59848E-05   -0.27751E-05 26616   0.129E-02
   6 F= -.38674077E+03 E0= -.38672775E+03  d E =-.169100E+00  mag=    34.0000
       N       E                     dE             d eps       ncg     rms          rms(c)
DAV:   1    -0.386424682810E+03    0.31608E+00   -0.11630E+02 36448   0.270E+01    0.232E+00
DAV:   2    -0.386855821047E+03   -0.43114E+00   -0.44751E+00 36072   0.479E+00    0.262E+00
DAV:   3    -0.386883729133E+03   -0.27908E-01   -0.40996E-01 54936   0.134E+00    0.465E+00
DAV:   4    -0.386857995991E+03    0.25733E-01   -0.36583E-01 52000   0.878E-01    0.287E+00
DAV:   5    -0.386854888907E+03    0.31071E-02   -0.90000E-02 49632   0.483E-01    0.134E+00
DAV:   6    -0.386855553038E+03   -0.66413E-03   -0.19216E-02 49568   0.409E-01    0.100E+00
DAV:   7    -0.386857313500E+03   -0.17605E-02   -0.45496E-02 50088   0.367E-01    0.163E+00
DAV:   8    -0.386852259813E+03    0.50537E-02   -0.27957E-02 48768   0.319E-01    0.841E-01
DAV:   9    -0.386854056218E+03   -0.17964E-02   -0.11944E-02 49528   0.224E-01    0.618E-01
DAV:  10    -0.386854611397E+03   -0.55518E-03   -0.47292E-03 47040   0.143E-01    0.449E-01
DAV:  11    -0.386854666401E+03   -0.55003E-04   -0.64155E-04 45528   0.482E-02    0.480E-01
DAV:  12    -0.386854398275E+03    0.26813E-03   -0.98952E-05 36824   0.310E-02    0.421E-01
DAV:  13    -0.386854267506E+03    0.13077E-03   -0.21486E-03 48984   0.960E-02    0.373E-01
DAV:  14    -0.386854485530E+03   -0.21802E-03   -0.22261E-03 49160   0.106E-01    0.456E-01
DAV:  15    -0.386854415758E+03    0.69772E-04   -0.11805E-03 48504   0.718E-02    0.227E-01
DAV:  16    -0.386854463009E+03   -0.47251E-04   -0.28289E-04 43880   0.431E-02    0.811E-02
DAV:  17    -0.386854490150E+03   -0.27142E-04   -0.14098E-04 42256   0.316E-02    0.555E-02
DAV:  18    -0.386854495625E+03   -0.54744E-05   -0.27921E-05 29664   0.167E-02
   7 F= -.38685450E+03 E0= -.38684112E+03  d E =-.113730E+00  mag=    34.0000
       N       E                     dE             d eps       ncg     rms          rms(c)
DAV:   1    -0.385561211395E+03    0.12933E+01   -0.30291E+02 36688   0.474E+01    0.445E+00
DAV:   2    -0.386999629079E+03   -0.14384E+01   -0.14935E+01 35096   0.863E+00    0.734E+00
DAV:   3    -0.387103780749E+03   -0.10415E+00   -0.37734E+00 49704   0.255E+00    0.706E+00
DAV:   4    -0.387016102819E+03    0.87678E-01   -0.69529E-01 50552   0.168E+00    0.551E+00
DAV:   5    -0.386972129760E+03    0.43973E-01   -0.41277E-01 50264   0.101E+00    0.341E+00
DAV:   6    -0.386968018142E+03    0.41116E-02   -0.12492E-01 51096   0.731E-01    0.192E+00
DAV:   7    -0.386981015085E+03   -0.12997E-01   -0.11534E-01 48952   0.611E-01    0.360E+00
DAV:   8    -0.386966241269E+03    0.14774E-01   -0.39706E-02 48064   0.548E-01    0.212E+00
DAV:   9    -0.386976721693E+03   -0.10480E-01   -0.87951E-02 51080   0.560E-01    0.331E+00
DAV:  10    -0.386965880368E+03    0.10841E-01   -0.12438E-01 47896   0.466E-01    0.153E+00
DAV:  11    -0.386971383713E+03   -0.55033E-02   -0.94962E-03 42176   0.268E-01    0.100E+00
DAV:  12    -0.386970349549E+03    0.10342E-02   -0.38745E-03 49832   0.109E-01    0.658E-01
DAV:  13    -0.386970624370E+03   -0.27482E-03   -0.42854E-04 39104   0.536E-02    0.648E-01
DAV:  14    -0.386970557289E+03    0.67081E-04   -0.62394E-04 43880   0.445E-02    0.604E-01
DAV:  15    -0.386970153836E+03    0.40345E-03   -0.55573E-03 48840   0.157E-01    0.389E-01
DAV:  16    -0.386970752593E+03   -0.59876E-03   -0.21977E-03 47200   0.121E-01    0.411E-01
DAV:  17    -0.386970741879E+03    0.10713E-04   -0.11890E-03 46704   0.707E-02    0.375E-01
DAV:  18    -0.386970807535E+03   -0.65655E-04   -0.50935E-04 46624   0.701E-02    0.207E-01
DAV:  19    -0.386970828664E+03   -0.21130E-04   -0.54082E-04 48656   0.542E-02    0.125E-01
DAV:  20    -0.386970819882E+03    0.87822E-05   -0.11930E-04 37032   0.342E-02    0.566E-02
DAV:  21    -0.386970836087E+03   -0.16205E-04   -0.85698E-05 36384   0.237E-02    0.973E-02
DAV:  22    -0.386970822578E+03    0.13509E-04   -0.82991E-05 28384   0.193E-02    0.272E-02
DAV:  23    -0.386970828805E+03   -0.62265E-05   -0.11742E-05 21968   0.107E-02
   8 F= -.38697083E+03 E0= -.38695695E+03  d E =-.116333E+00  mag=    34.0000
       N       E                     dE             d eps       ncg     rms          rms(c)
DAV:   1    -0.383453629459E+03    0.35172E+01   -0.30801E+02 36568   0.545E+01    0.112E+01
DAV:   2    -0.392968601960E+03   -0.95150E+01   -0.68817E+01 43800   0.151E+01    0.499E+01
DAV:   3    -0.386003700318E+03    0.69649E+01   -0.99452E+00 46744   0.953E+00    0.105E+01
DAV:   4    -0.386820591616E+03   -0.81689E+00   -0.52279E+00 48992   0.367E+00    0.159E+01
DAV:   5    -0.386945280015E+03   -0.12469E+00   -0.82416E+00 48728   0.239E+00    0.164E+01
DAV:   6    -0.386657110557E+03    0.28817E+00   -0.35533E-01 48264   0.138E+00    0.993E+00
DAV:   7    -0.386714889872E+03   -0.57779E-01   -0.15697E-01 49696   0.110E+00    0.801E+00
DAV:   8    -0.386795610428E+03   -0.80721E-01   -0.16038E-01 48680   0.630E-01    0.617E+00
DAV:   9    -0.386838588391E+03   -0.42978E-01   -0.13947E-01 48704   0.850E-01    0.688E+00
DAV:  10    -0.386819347300E+03    0.19241E-01   -0.18974E-02 48048   0.382E-01    0.651E+00
DAV:  11    -0.386821611468E+03   -0.22642E-02   -0.51049E-02 48440   0.508E-01    0.577E+00
DAV:  12    -0.386832443368E+03   -0.10832E-01   -0.17293E-01 49544   0.639E-01    0.467E+00
DAV:  13    -0.386845787542E+03   -0.13344E-01   -0.13209E-01 48528   0.651E-01    0.360E+00
DAV:  14    -0.386843658094E+03    0.21294E-02   -0.39539E-02 48624   0.490E-01    0.292E+00
DAV:  15    -0.386838014778E+03    0.56433E-02   -0.32214E-02 50152   0.490E-01    0.248E+00
DAV:  16    -0.386837183165E+03    0.83161E-03   -0.43720E-02 50256   0.474E-01    0.239E+00
DAV:  17    -0.386841437605E+03   -0.42544E-02   -0.99566E-02 49144   0.595E-01    0.211E+00
DAV:  18    -0.386847483548E+03   -0.60459E-02   -0.93508E-02 48992   0.562E-01    0.209E+00
DAV:  19    -0.386845221079E+03    0.22625E-02   -0.34225E-02 47232   0.388E-01    0.151E+00
DAV:  20    -0.386845825759E+03   -0.60468E-03   -0.64906E-03 47272   0.268E-01    0.897E-01
DAV:  21    -0.386846409415E+03   -0.58366E-03   -0.16312E-02 50032   0.247E-01    0.823E-01
DAV:  22    -0.386846913258E+03   -0.50384E-03   -0.78188E-03 44648   0.192E-01    0.113E+00
DAV:  23    -0.386846174348E+03    0.73891E-03   -0.63946E-04 36856   0.779E-02    0.996E-01
DAV:  24    -0.386845919695E+03    0.25465E-03   -0.32661E-03 47976   0.975E-02    0.471E-01
DAV:  25    -0.386846683091E+03   -0.76340E-03   -0.16000E-03 42040   0.104E-01    0.329E-01
DAV:  26    -0.386846759810E+03   -0.76718E-04   -0.67007E-04 46512   0.757E-02    0.128E-01
DAV:  27    -0.386846831279E+03   -0.71469E-04   -0.20696E-04 43528   0.367E-02    0.118E-01
DAV:  28    -0.386846835584E+03   -0.43044E-05   -0.58198E-05 34904   0.227E-02
   9 F= -.38684684E+03 E0= -.38683221E+03  d E =0.123993E+00  mag=    34.0005
       N       E                     dE             d eps       ncg     rms          rms(c)
DAV:   1    -0.386287559886E+03    0.55927E+00   -0.50204E+01 37976   0.241E+01    0.386E+00
DAV:   2    -0.387206764619E+03   -0.91920E+00   -0.85901E+00 36256   0.516E+00    0.149E+01
DAV:   3    -0.386998925703E+03    0.20784E+00   -0.56291E+00 49400   0.212E+00    0.726E+00
DAV:   4    -0.387079247015E+03   -0.80321E-01   -0.16442E+00 48920   0.165E+00    0.612E+00
DAV:   5    -0.387035487014E+03    0.43760E-01   -0.74544E-01 49256   0.125E+00    0.537E+00
DAV:   6    -0.387013665763E+03    0.21821E-01   -0.37674E-01 48544   0.864E-01    0.233E+00
DAV:   7    -0.387028531731E+03   -0.14866E-01   -0.69161E-02 49552   0.614E-01    0.220E+00
DAV:   8    -0.387034609037E+03   -0.60773E-02   -0.82792E-02 49104   0.455E-01    0.227E+00
DAV:   9    -0.387033751006E+03    0.85803E-03   -0.17440E-02 46984   0.347E-01    0.182E+00
DAV:  10    -0.387032215404E+03    0.15356E-02   -0.59674E-03 48472   0.172E-01    0.117E+00
DAV:  11    -0.387034373884E+03   -0.21585E-02   -0.18523E-02 49176   0.299E-01    0.962E-01
DAV:  12    -0.387035033764E+03   -0.65988E-03   -0.12287E-02 49440   0.234E-01    0.893E-01
DAV:  13    -0.387036490956E+03   -0.14572E-02   -0.10903E-02 49368   0.195E-01    0.167E+00
DAV:  14    -0.387035183938E+03    0.13070E-02   -0.96955E-04 37408   0.879E-02    0.184E+00
DAV:  15    -0.387033947771E+03    0.12362E-02   -0.38786E-03 50992   0.156E-01    0.163E+00
DAV:  16    -0.387032916025E+03    0.10317E-02   -0.11213E-02 47344   0.171E-01    0.692E-01
DAV:  17    -0.387034758748E+03   -0.18427E-02   -0.44397E-03 44736   0.150E-01    0.647E-01
DAV:  18    -0.387034804727E+03   -0.45979E-04   -0.76967E-04 41624   0.910E-02    0.477E-01
DAV:  19    -0.387034696701E+03    0.10803E-03   -0.10920E-03 49080   0.656E-02    0.155E-01
DAV:  20    -0.387034869978E+03   -0.17328E-03   -0.26583E-04 39776   0.386E-02    0.144E-01
DAV:  21    -0.387034869137E+03    0.84046E-06   -0.11637E-04 34784   0.276E-02    0.843E-02
DAV:  22    -0.387034865784E+03    0.33530E-05   -0.72637E-05 30448   0.185E-02
  10 F= -.38703487E+03 E0= -.38702087E+03  d E =-.188030E+00  mag=    34.0001
       N       E                     dE             d eps       ncg     rms          rms(c)
DAV:   1    -0.386969888079E+03    0.64981E-01   -0.67057E+00 37024   0.850E+00    0.131E+00
DAV:   2    -0.387059915264E+03   -0.90027E-01   -0.87192E-01 35440   0.167E+00    0.220E+00
DAV:   3    -0.387078785913E+03   -0.18871E-01   -0.32305E-01 51296   0.726E-01    0.419E+00
DAV:   4    -0.387058875356E+03    0.19911E-01   -0.14155E-01 49512   0.599E-01    0.148E+00
DAV:   5    -0.387060547304E+03   -0.16719E-02   -0.23950E-02 45400   0.325E-01    0.555E-01
DAV:   6    -0.387062725585E+03   -0.21783E-02   -0.77066E-03 48400   0.187E-01    0.579E-01
DAV:   7    -0.387063244267E+03   -0.51868E-03   -0.62061E-03 49760   0.173E-01    0.621E-01
DAV:   8    -0.387062938042E+03    0.30622E-03   -0.47633E-03 49024   0.156E-01    0.493E-01
DAV:   9    -0.387062943180E+03   -0.51379E-05   -0.19829E-03 47664   0.115E-01    0.203E-01
DAV:  10    -0.387063052299E+03   -0.10912E-03   -0.53912E-04 48432   0.697E-02    0.177E-01
DAV:  11    -0.387063034461E+03    0.17838E-04   -0.37476E-04 39432   0.348E-02    0.110E-01
DAV:  12    -0.387063034180E+03    0.28039E-06   -0.34317E-05 29472   0.172E-02
  11 F= -.38706303E+03 E0= -.38704916E+03  d E =-.281684E-01  mag=    34.0000
       N       E                     dE             d eps       ncg     rms          rms(c)
DAV:   1    -0.387054739040E+03    0.82954E-02   -0.27063E+00 36568   0.479E+00    0.642E-01
DAV:   2    -0.387076536972E+03   -0.21798E-01   -0.22134E-01 35496   0.900E-01    0.109E+00
DAV:   3    -0.387081998767E+03   -0.54618E-02   -0.69335E-02 52576   0.355E-01    0.245E+00
DAV:   4    -0.387074459062E+03    0.75397E-02   -0.26012E-02 47744   0.274E-01    0.467E-01
DAV:   5    -0.387076839156E+03   -0.23801E-02   -0.46432E-03 45288   0.133E-01    0.364E-01
DAV:   6    -0.387077026012E+03   -0.18686E-03   -0.16424E-03 47280   0.106E-01    0.270E-01
DAV:   7    -0.387077085479E+03   -0.59467E-04   -0.17944E-03 49712   0.907E-02    0.223E-01
DAV:   8    -0.387077178071E+03   -0.92592E-04   -0.72352E-04 45360   0.534E-02    0.220E-01
DAV:   9    -0.387077151709E+03    0.26362E-04   -0.10579E-04 33032   0.244E-02    0.224E-01
DAV:  10    -0.387077102964E+03    0.48744E-04   -0.64496E-05 30800   0.220E-02    0.267E-01
DAV:  11    -0.387077091159E+03    0.11805E-04   -0.89547E-05 31928   0.256E-02    0.216E-01
DAV:  12    -0.387077082272E+03    0.88869E-05   -0.52815E-04 44736   0.509E-02    0.106E-01
DAV:  13    -0.387077121647E+03   -0.39375E-04   -0.28393E-04 38776   0.377E-02    0.815E-02
DAV:  14    -0.387077128346E+03   -0.66989E-05   -0.35292E-05 29400   0.228E-02
  12 F= -.38707713E+03 E0= -.38706327E+03  d E =-.140942E-01  mag=    34.0000
       N       E                     dE             d eps       ncg     rms          rms(c)
DAV:   1    -0.387063682157E+03    0.13439E-01   -0.80899E+00 35776   0.730E+00    0.781E-01
DAV:   2    -0.387101245006E+03   -0.37563E-01   -0.40008E-01 35528   0.134E+00    0.131E+00
DAV:   3    -0.387108263065E+03   -0.70181E-02   -0.12303E-01 53784   0.425E-01    0.287E+00
DAV:   4    -0.387098449477E+03    0.98136E-02   -0.50951E-02 47760   0.354E-01    0.903E-01
DAV:   5    -0.387099838989E+03   -0.13895E-02   -0.86112E-03 47856   0.186E-01    0.370E-01
DAV:   6    -0.387101053358E+03   -0.12144E-02   -0.48422E-03 46768   0.158E-01    0.591E-01
DAV:   7    -0.387100836425E+03    0.21693E-03   -0.54860E-03 49992   0.161E-01    0.611E-01
DAV:   8    -0.387100505294E+03    0.33113E-03   -0.12771E-03 47320   0.104E-01    0.394E-01
DAV:   9    -0.387100459062E+03    0.46232E-04   -0.89935E-04 48848   0.631E-02    0.116E-01
DAV:  10    -0.387100577623E+03   -0.11856E-03   -0.24257E-04 41240   0.455E-02    0.101E-01
DAV:  11    -0.387100581150E+03   -0.35266E-05   -0.15192E-04 31344   0.218E-02    0.686E-02
DAV:  12    -0.387100582749E+03   -0.15991E-05   -0.46370E-05 27304   0.160E-02
  13 F= -.38710058E+03 E0= -.38708672E+03  d E =-.234544E-01  mag=    34.0000
       N       E                     dE             d eps       ncg     rms          rms(c)
DAV:   1    -0.386965369749E+03    0.13521E+00   -0.46821E+01 36400   0.168E+01    0.167E+00
DAV:   2    -0.387151092969E+03   -0.18572E+00   -0.20258E+00 35176   0.305E+00    0.201E+00
DAV:   3    -0.387190560859E+03   -0.39468E-01   -0.46570E-01 52576   0.979E-01    0.567E+00
DAV:   4    -0.387142391446E+03    0.48169E-01   -0.42382E-01 49792   0.761E-01    0.223E+00
DAV:   5    -0.387146956246E+03   -0.45648E-02   -0.45729E-02 47784   0.478E-01    0.108E+00
DAV:   6    -0.387150888058E+03   -0.39318E-02   -0.33047E-02 49688   0.362E-01    0.156E+00
DAV:   7    -0.387148224313E+03    0.26637E-02   -0.35520E-02 49352   0.315E-01    0.135E+00
DAV:   8    -0.387148715169E+03   -0.49086E-03   -0.25084E-03 46240   0.173E-01    0.135E+00
DAV:   9    -0.387146947569E+03    0.17676E-02   -0.21730E-03 50864   0.953E-02    0.715E-01
DAV:  10    -0.387147508924E+03   -0.56136E-03   -0.69708E-03 49064   0.130E-01    0.390E-01
DAV:  11    -0.387147948678E+03   -0.43975E-03   -0.13632E-03 43920   0.107E-01    0.400E-01
DAV:  12    -0.387147835327E+03    0.11335E-03   -0.19835E-03 46320   0.703E-02    0.214E-01
DAV:  13    -0.387147959774E+03   -0.12445E-03   -0.46638E-04 41216   0.487E-02    0.235E-01
DAV:  14    -0.387147927198E+03    0.32576E-04   -0.10701E-04 30544   0.208E-02    0.171E-01
DAV:  15    -0.387147924242E+03    0.29555E-05   -0.18153E-05 28408   0.154E-02
  14 F= -.38714792E+03 E0= -.38713411E+03  d E =-.473415E-01  mag=    34.0000
       N       E                     dE             d eps       ncg     rms          rms(c)
DAV:   1    -0.383934889466E+03    0.32130E+01   -0.26013E+02 37296   0.510E+01    0.889E+00
DAV:   2    -0.388277024081E+03   -0.43421E+01   -0.45387E+01 40608   0.129E+01    0.213E+01
DAV:   3    -0.387298584959E+03    0.97844E+00   -0.21266E+00 47024   0.482E+00    0.156E+01
DAV:   4    -0.387023182245E+03    0.27540E+00   -0.85481E+00 51864   0.289E+00    0.106E+01
DAV:   5    -0.386964580304E+03    0.58602E-01   -0.37007E+00 48512   0.234E+00    0.767E+00
DAV:   6    -0.386822845824E+03    0.14173E+00   -0.89117E-01 49160   0.187E+00    0.409E+00
DAV:   7    -0.386841031213E+03   -0.18185E-01   -0.38587E-01 50552   0.144E+00    0.413E+00
DAV:   8    -0.386851169425E+03   -0.10138E-01   -0.24472E-01 50648   0.104E+00    0.311E+00
DAV:   9    -0.386873362810E+03   -0.22193E-01   -0.61523E-01 49088   0.106E+00    0.357E+00
DAV:  10    -0.386880621506E+03   -0.72587E-02   -0.66983E-02 49840   0.695E-01    0.371E+00
DAV:  11    -0.386859119861E+03    0.21502E-01   -0.30564E-02 49056   0.508E-01    0.286E+00
DAV:  12    -0.386850847803E+03    0.82721E-02   -0.72585E-02 50600   0.488E-01    0.149E+00
DAV:  13    -0.386860164756E+03   -0.93170E-02   -0.15477E-02 48000   0.417E-01    0.155E+00
DAV:  14    -0.386861300989E+03   -0.11362E-02   -0.54750E-02 50760   0.418E-01    0.202E+00
DAV:  15    -0.386861715037E+03   -0.41405E-03   -0.14482E-02 44328   0.265E-01    0.169E+00
DAV:  16    -0.386859014354E+03    0.27007E-02   -0.14506E-02 49624   0.256E-01    0.758E-01
DAV:  17    -0.386860022280E+03   -0.10079E-02   -0.41027E-03 47248   0.196E-01    0.522E-01
DAV:  18    -0.386860741991E+03   -0.71971E-03   -0.54632E-03 47568   0.124E-01    0.651E-01
DAV:  19    -0.386860300246E+03    0.44175E-03   -0.10162E-03 44240   0.800E-02    0.465E-01
DAV:  20    -0.386860288410E+03    0.11836E-04   -0.15465E-03 47704   0.778E-02    0.399E-01
DAV:  21    -0.386860189262E+03    0.99148E-04   -0.16205E-03 46736   0.816E-02    0.259E-01
DAV:  22    -0.386860291983E+03   -0.10272E-03   -0.31384E-04 43912   0.545E-02    0.158E-01
DAV:  23    -0.386860295787E+03   -0.38042E-05   -0.19108E-04 41088   0.326E-02    0.727E-02
DAV:  24    -0.386860307005E+03   -0.11217E-04   -0.79826E-05 31104   0.221E-02    0.518E-02
DAV:  25    -0.386860306351E+03    0.65359E-06   -0.18133E-05 25456   0.140E-02
  15 F= -.38686031E+03 E0= -.38684610E+03  d E =0.287618E+00  mag=    34.0000
       N       E                     dE             d eps       ncg     rms          rms(c)
DAV:   1    -0.386252199096E+03    0.60811E+00   -0.68491E+01 37128   0.277E+01    0.498E+00
DAV:   2    -0.387450312073E+03   -0.11981E+01   -0.13417E+01 39504   0.642E+00    0.103E+01
DAV:   3    -0.387175992559E+03    0.27432E+00   -0.15001E+00 48880   0.323E+00    0.764E+00
DAV:   4    -0.387103920582E+03    0.72072E-01   -0.99480E-01 49624   0.151E+00    0.304E+00
DAV:   5    -0.387132282999E+03   -0.28362E-01   -0.32913E-01 50496   0.119E+00    0.336E+00
DAV:   6    -0.387125745091E+03    0.65379E-02   -0.25964E-01 49776   0.843E-01    0.265E+00
DAV:   7    -0.387128624029E+03   -0.28789E-02   -0.18449E-01 48936   0.588E-01    0.269E+00
DAV:   8    -0.387125475303E+03    0.31487E-02   -0.70099E-02 48440   0.468E-01    0.171E+00
DAV:   9    -0.387128414401E+03   -0.29391E-02   -0.53870E-02 50224   0.419E-01    0.205E+00
DAV:  10    -0.387128862484E+03   -0.44808E-03   -0.97857E-02 48696   0.436E-01    0.198E+00
DAV:  11    -0.387126082976E+03    0.27795E-02   -0.31125E-02 45784   0.313E-01    0.648E-01
DAV:  12    -0.387128407059E+03   -0.23241E-02   -0.71742E-03 44568   0.149E-01    0.118E+00
DAV:  13    -0.387127686402E+03    0.72066E-03   -0.51609E-04 37232   0.676E-02    0.115E+00
DAV:  14    -0.387127434610E+03    0.25179E-03   -0.48372E-05 36624   0.215E-02    0.116E+00
DAV:  15    -0.387126065945E+03    0.13687E-02   -0.75301E-03 50640   0.160E-01    0.263E-01
DAV:  16    -0.387127330851E+03   -0.12649E-02   -0.35682E-03 42312   0.115E-01    0.409E-01
DAV:  17    -0.387127438466E+03   -0.10762E-03   -0.85166E-04 43968   0.905E-02    0.291E-01
DAV:  18    -0.387127427260E+03    0.11206E-04   -0.10947E-03 48648   0.581E-02    0.233E-01
DAV:  19    -0.387127547728E+03   -0.12047E-03   -0.22586E-04 36928   0.280E-02    0.377E-01
DAV:  20    -0.387127436298E+03    0.11143E-03   -0.44774E-05 30608   0.207E-02    0.305E-01
DAV:  21    -0.387127358575E+03    0.77723E-04   -0.34168E-04 38888   0.308E-02    0.101E-01
DAV:  22    -0.387127425570E+03   -0.66995E-04   -0.18362E-04 35048   0.215E-02    0.950E-02
DAV:  23    -0.387127432186E+03   -0.66167E-05   -0.35354E-05 27464   0.184E-02
  16 F= -.38712743E+03 E0= -.38711360E+03  d E =-.267126E+00  mag=    34.0000
       N       E                     dE             d eps       ncg     rms          rms(c)
DAV:   1    -0.386966843124E+03    0.16058E+00   -0.17196E+01 37016   0.133E+01    0.231E+00
DAV:   2    -0.387278279014E+03   -0.31144E+00   -0.33385E+00 38640   0.293E+00    0.714E+00
DAV:   3    -0.387154851688E+03    0.12343E+00   -0.69031E-01 48880   0.167E+00    0.260E+00
DAV:   4    -0.387173798973E+03   -0.18947E-01   -0.22375E-01 49176   0.870E-01    0.275E+00
DAV:   5    -0.387167281486E+03    0.65175E-02   -0.68459E-02 49672   0.568E-01    0.982E-01
DAV:   6    -0.387171330553E+03   -0.40491E-02   -0.29200E-02 48976   0.327E-01    0.124E+00
DAV:   7    -0.387169641069E+03    0.16895E-02   -0.19848E-02 48208   0.292E-01    0.768E-01
DAV:   8    -0.387170736243E+03   -0.10952E-02   -0.14130E-02 50080   0.255E-01    0.777E-01
DAV:   9    -0.387170409621E+03    0.32662E-03   -0.82501E-03 49504   0.179E-01    0.382E-01
DAV:  10    -0.387170704775E+03   -0.29515E-03   -0.17801E-03 45360   0.703E-02    0.369E-01
DAV:  11    -0.387170594795E+03    0.10998E-03   -0.12363E-04 37880   0.288E-02    0.368E-01
DAV:  12    -0.387170625070E+03   -0.30275E-04   -0.16112E-03 48456   0.724E-02    0.657E-01
DAV:  13    -0.387170420335E+03    0.20473E-03   -0.18068E-04 39488   0.376E-02    0.679E-01
DAV:  14    -0.387170531494E+03   -0.11116E-03   -0.14593E-04 36240   0.321E-02    0.706E-01
DAV:  15    -0.387170320008E+03    0.21149E-03   -0.48536E-03 48048   0.106E-01    0.457E-01
DAV:  16    -0.387170583154E+03   -0.26315E-03   -0.25468E-03 43648   0.103E-01    0.495E-01
DAV:  17    -0.387170496084E+03    0.87069E-04   -0.14926E-03 44856   0.698E-02    0.161E-01
DAV:  18    -0.387170584232E+03   -0.88147E-04   -0.26886E-04 39672   0.469E-02    0.526E-02
DAV:  19    -0.387170601298E+03   -0.17066E-04   -0.45611E-05 34072   0.189E-02    0.387E-02
DAV:  20    -0.387170599626E+03    0.16719E-05   -0.16100E-05 22952   0.112E-02
  17 F= -.38717060E+03 E0= -.38715681E+03  d E =-.431674E-01  mag=    34.0000
       N       E                     dE             d eps       ncg     rms          rms(c)
DAV:   1    -0.387173496787E+03   -0.28955E-02   -0.67259E-01 36608   0.258E+00    0.447E-01
DAV:   2    -0.387190862609E+03   -0.17366E-01   -0.12668E-01 41152   0.607E-01    0.354E+00
DAV:   3    -0.387172721484E+03    0.18141E-01   -0.78828E-02 44312   0.398E-01    0.264E-01
DAV:   4    -0.387179003236E+03   -0.62818E-02   -0.28167E-03 40144   0.134E-01    0.416E-01
DAV:   5    -0.387179008831E+03   -0.55950E-05   -0.13782E-03 46568   0.868E-02    0.332E-01
DAV:   6    -0.387178958171E+03    0.50660E-04   -0.12217E-03 46360   0.663E-02    0.208E-01
DAV:   7    -0.387179000122E+03   -0.41952E-04   -0.73120E-04 45496   0.623E-02    0.270E-01
DAV:   8    -0.387179058388E+03   -0.58265E-04   -0.36690E-04 40144   0.431E-02    0.331E-01
DAV:   9    -0.387179004526E+03    0.53862E-04   -0.10831E-04 32432   0.285E-02    0.308E-01
DAV:  10    -0.387178938017E+03    0.66508E-04   -0.10299E-04 30312   0.171E-02    0.166E-01
DAV:  11    -0.387178951246E+03   -0.13229E-04   -0.11623E-04 27144   0.179E-02    0.310E-02
DAV:  12    -0.387178980303E+03   -0.29057E-04   -0.24909E-05 25848   0.145E-02    0.250E-02
DAV:  13    -0.387178982491E+03   -0.21878E-05   -0.81765E-06 20408   0.953E-03
  18 F= -.38717898E+03 E0= -.38716517E+03  d E =-.838287E-02  mag=    34.0000
       N       E                     dE             d eps       ncg     rms          rms(c)
DAV:   1    -0.387170260590E+03    0.87197E-02   -0.46230E+00 36864   0.627E+00    0.827E-01
DAV:   2    -0.387217947537E+03   -0.47687E-01   -0.43455E-01 38552   0.128E+00    0.458E+00
DAV:   3    -0.387188125035E+03    0.29823E-01   -0.21637E-01 48408   0.606E-01    0.991E-01
DAV:   4    -0.387198112075E+03   -0.99870E-02   -0.71037E-03 41368   0.252E-01    0.824E-01
DAV:   5    -0.387197379893E+03    0.73218E-03   -0.64828E-03 50160   0.178E-01    0.585E-01
DAV:   6    -0.387197790521E+03   -0.41063E-03   -0.61503E-03 50416   0.165E-01    0.739E-01
DAV:   7    -0.387197973912E+03   -0.18339E-03   -0.59694E-03 47080   0.125E-01    0.977E-01
DAV:   8    -0.387197689682E+03    0.28423E-03   -0.48410E-04 42088   0.678E-02    0.928E-01
DAV:   9    -0.387197184618E+03    0.50506E-03   -0.55254E-04 42064   0.419E-02    0.658E-01
DAV:  10    -0.387197043071E+03    0.14155E-03   -0.22681E-03 41856   0.637E-02    0.149E-01
DAV:  11    -0.387197370151E+03   -0.32708E-03   -0.46400E-04 38504   0.546E-02    0.952E-02
DAV:  12    -0.387197396878E+03   -0.26727E-04   -0.81681E-05 34200   0.233E-02    0.955E-02
DAV:  13    -0.387197391839E+03    0.50393E-05   -0.58731E-06 22896   0.739E-03
  19 F= -.38719739E+03 E0= -.38718360E+03  d E =-.184093E-01  mag=    34.0000
       N       E                     dE             d eps       ncg     rms          rms(c)
DAV:   1    -0.387196965559E+03    0.43132E-03   -0.25312E+00 36248   0.435E+00    0.454E-01
DAV:   2    -0.387208078655E+03   -0.11113E-01   -0.12159E-01 35008   0.792E-01    0.356E-01
DAV:   3    -0.387210162785E+03   -0.20841E-02   -0.15137E-02 50408   0.216E-01    0.143E+00
DAV:   4    -0.387207299491E+03    0.28633E-02   -0.12829E-02 46832   0.177E-01    0.400E-01
DAV:   5    -0.387208207794E+03   -0.90830E-03   -0.36087E-03 44440   0.118E-01    0.278E-01
DAV:   6    -0.387208386708E+03   -0.17891E-03   -0.21666E-03 49240   0.971E-02    0.368E-01
DAV:   7    -0.387208246798E+03    0.13991E-03   -0.14153E-03 49776   0.896E-02    0.237E-01
DAV:   8    -0.387208281699E+03   -0.34901E-04   -0.40616E-04 43184   0.449E-02    0.205E-01
DAV:   9    -0.387208265664E+03    0.16035E-04   -0.21954E-05 27144   0.131E-02    0.212E-01
DAV:  10    -0.387208203265E+03    0.62398E-04   -0.14214E-04 34448   0.332E-02    0.250E-01
DAV:  11    -0.387208165086E+03    0.38179E-04   -0.87841E-05 34680   0.250E-02    0.252E-01
DAV:  12    -0.387208158711E+03    0.63750E-05   -0.14767E-05 26976   0.126E-02
  20 F= -.38720816E+03 E0= -.38719428E+03  d E =-.107669E-01  mag=    34.0000
       N       E                     dE             d eps       ncg     rms          rms(c)
DAV:   1    -0.386577811733E+03    0.63035E+00   -0.13180E+02 36064   0.322E+01    0.321E+00
DAV:   2    -0.387287303684E+03   -0.70949E+00   -0.73800E+00 35088   0.598E+00    0.780E+00
DAV:   3    -0.387291220215E+03   -0.39165E-02   -0.28731E+00 49472   0.177E+00    0.562E+00
DAV:   4    -0.387286660469E+03    0.45597E-02   -0.40589E-01 49808   0.118E+00    0.532E+00
DAV:   5    -0.387252452719E+03    0.34208E-01   -0.30335E-01 50256   0.838E-01    0.353E+00
DAV:   6    -0.387242201434E+03    0.10251E-01   -0.93517E-02 51592   0.582E-01    0.201E+00
DAV:   7    -0.387255375292E+03   -0.13174E-01   -0.16161E-01 49712   0.561E-01    0.322E+00
DAV:   8    -0.387256672250E+03   -0.12970E-02   -0.22804E-02 46160   0.405E-01    0.352E+00
DAV:   9    -0.387247866389E+03    0.88059E-02   -0.54589E-03 47032   0.185E-01    0.275E+00
DAV:  10    -0.387244461433E+03    0.34050E-02   -0.16364E-02 48592   0.217E-01    0.149E+00
DAV:  11    -0.387247600781E+03   -0.31393E-02   -0.12750E-02 46752   0.222E-01    0.773E-01
DAV:  12    -0.387249539044E+03   -0.19383E-02   -0.42142E-03 45992   0.167E-01    0.708E-01
DAV:  13    -0.387249936369E+03   -0.39732E-03   -0.22838E-03 49496   0.106E-01    0.104E+00
DAV:  14    -0.387249152123E+03    0.78425E-03   -0.34320E-04 43608   0.555E-02    0.958E-01
DAV:  15    -0.387248405174E+03    0.74695E-03   -0.10535E-02 50832   0.206E-01    0.753E-01
DAV:  16    -0.387250286114E+03   -0.18809E-02   -0.65962E-03 45688   0.162E-01    0.997E-01
DAV:  17    -0.387249423328E+03    0.86279E-03   -0.32225E-03 48472   0.123E-01    0.338E-01
DAV:  18    -0.387249622256E+03   -0.19893E-03   -0.14707E-03 45624   0.806E-02    0.126E-01
DAV:  19    -0.387249747745E+03   -0.12549E-03   -0.41199E-04 39736   0.437E-02    0.207E-01
DAV:  20    -0.387249721208E+03    0.26537E-04   -0.28927E-04 37744   0.368E-02    0.137E-01
DAV:  21    -0.387249716886E+03    0.43222E-05   -0.10018E-04 31776   0.287E-02    0.586E-02
DAV:  22    -0.387249730036E+03   -0.13150E-04   -0.23564E-05 24936   0.165E-02    0.285E-02
DAV:  23    -0.387249732574E+03   -0.25382E-05   -0.68317E-06 19664   0.678E-03
  21 F= -.38724973E+03 E0= -.38723567E+03  d E =-.415739E-01  mag=    34.0000
       N       E                     dE             d eps       ncg     rms          rms(c)
DAV:   1    -0.385150080519E+03    0.20996E+01   -0.16791E+02 36768   0.448E+01    0.812E+00
DAV:   2    -0.388676068556E+03   -0.35260E+01   -0.34769E+01 42320   0.109E+01    0.271E+01
DAV:   3    -0.386975732678E+03    0.17003E+01   -0.81581E+00 47448   0.686E+00    0.759E+00
DAV:   4    -0.387059333707E+03   -0.83601E-01   -0.60402E-01 47552   0.204E+00    0.606E+00
DAV:   5    -0.386963169548E+03    0.96164E-01   -0.30320E-01 50592   0.151E+00    0.453E+00
DAV:   6    -0.386956182254E+03    0.69873E-02   -0.60338E-01 49736   0.128E+00    0.700E+00
DAV:   7    -0.386999392497E+03   -0.43210E-01   -0.65649E-02 41712   0.561E-01    0.713E+00
DAV:   8    -0.387001640699E+03   -0.22482E-02   -0.17220E-02 47288   0.315E-01    0.697E+00
DAV:   9    -0.387001922403E+03   -0.28170E-03   -0.25191E-02 51072   0.412E-01    0.653E+00
DAV:  10    -0.386989220100E+03    0.12702E-01   -0.64263E-02 49760   0.505E-01    0.470E+00
DAV:  11    -0.386991063299E+03   -0.18432E-02   -0.12966E-01 50384   0.641E-01    0.266E+00
DAV:  12    -0.387011998547E+03   -0.20935E-01   -0.14072E-01 47200   0.648E-01    0.193E+00
DAV:  13    -0.387012178570E+03   -0.18002E-03   -0.42245E-02 47816   0.496E-01    0.130E+00
DAV:  14    -0.387018147394E+03   -0.59688E-02   -0.43070E-02 50872   0.349E-01    0.280E+00
DAV:  15    -0.387007910340E+03    0.10237E-01   -0.27704E-02 50072   0.341E-01    0.979E-01
DAV:  16    -0.387012568650E+03   -0.46583E-02   -0.25948E-02 50136   0.295E-01    0.127E+00
DAV:  17    -0.387011657114E+03    0.91154E-03   -0.47747E-03 39768   0.165E-01    0.647E-01
DAV:  18    -0.387011737780E+03   -0.80666E-04   -0.23931E-03 48144   0.110E-01    0.515E-01
DAV:  19    -0.387011857851E+03   -0.12007E-03   -0.67788E-04 46832   0.693E-02    0.490E-01
DAV:  20    -0.387011978160E+03   -0.12031E-03   -0.55626E-04 47152   0.557E-02    0.175E-01
DAV:  21    -0.387012180739E+03   -0.20258E-03   -0.23395E-04 39064   0.350E-02    0.958E-02
DAV:  22    -0.387012211196E+03   -0.30456E-04   -0.49153E-05 31472   0.156E-02    0.889E-02
DAV:  23    -0.387012208470E+03    0.27251E-05   -0.86911E-05 29000   0.204E-02
  22 F= -.38701221E+03 E0= -.38699884E+03  d E =0.237524E+00  mag=    33.9947
       N       E                     dE             d eps       ncg     rms          rms(c)
DAV:   1    -0.386777139454E+03    0.23507E+00   -0.33453E+01 37720   0.196E+01    0.384E+00
DAV:   2    -0.387874099170E+03   -0.10970E+01   -0.90885E+00 42864   0.480E+00    0.177E+01
DAV:   3    -0.387084033270E+03    0.79007E+00   -0.35177E+00 46688   0.244E+00    0.566E+00
DAV:   4    -0.387192435235E+03   -0.10840E+00   -0.10047E+00 48752   0.156E+00    0.507E+00
DAV:   5    -0.387170890650E+03    0.21545E-01   -0.39044E-01 48648   0.955E-01    0.257E+00
DAV:   6    -0.387178448867E+03   -0.75582E-02   -0.50354E-02 43328   0.403E-01    0.188E+00
DAV:   7    -0.387184328487E+03   -0.58796E-02   -0.11175E-01 49536   0.571E-01    0.237E+00
DAV:   8    -0.387185042589E+03   -0.71410E-03   -0.35099E-02 48248   0.398E-01    0.268E+00
DAV:   9    -0.387177614004E+03    0.74286E-02   -0.66655E-02 49128   0.434E-01    0.174E+00
DAV:  10    -0.387183484588E+03   -0.58706E-02   -0.43569E-02 48392   0.367E-01    0.154E+00
DAV:  11    -0.387188502926E+03   -0.50183E-02   -0.34759E-02 47704   0.353E-01    0.148E+00
DAV:  12    -0.387194615479E+03   -0.61126E-02   -0.30984E-02 48288   0.297E-01    0.214E+00
DAV:  13    -0.387189955664E+03    0.46598E-02   -0.46849E-03 45008   0.204E-01    0.194E+00
DAV:  14    -0.387189150555E+03    0.80511E-03   -0.26801E-03 48392   0.112E-01    0.165E+00
DAV:  15    -0.387190396511E+03   -0.12460E-02   -0.10560E-02 48144   0.241E-01    0.160E+00
DAV:  16    -0.387192063949E+03   -0.16674E-02   -0.21232E-02 47568   0.238E-01    0.205E+00
DAV:  17    -0.387189085865E+03    0.29781E-02   -0.50362E-03 43072   0.193E-01    0.250E+00
DAV:  18    -0.387188447990E+03    0.63788E-03   -0.81926E-03 44872   0.172E-01    0.159E+00
DAV:  19    -0.387190778906E+03   -0.23309E-02   -0.21404E-02 48784   0.368E-01    0.113E+00
DAV:  20    -0.387190752205E+03    0.26700E-04   -0.10032E-02 43640   0.235E-01    0.521E-01
DAV:  21    -0.387191606550E+03   -0.85434E-03   -0.25924E-03 42776   0.119E-01    0.394E-01
DAV:  22    -0.387191621018E+03   -0.14468E-04   -0.31915E-04 41824   0.504E-02    0.257E-01
DAV:  23    -0.387191647241E+03   -0.26223E-04   -0.35848E-04 46752   0.383E-02    0.882E-02
DAV:  24    -0.387191704467E+03   -0.57226E-04   -0.10478E-04 35256   0.251E-02    0.992E-02
DAV:  25    -0.387191695612E+03    0.88550E-05   -0.55378E-05 27696   0.184E-02
  23 F= -.38719170E+03 E0= -.38717808E+03  d E =-.179487E+00  mag=    33.9993
       N       E                     dE             d eps       ncg     rms          rms(c)
DAV:   1    -0.387148546400E+03    0.43158E-01   -0.58428E+00 37192   0.890E+00    0.147E+00
DAV:   2    -0.387316403989E+03   -0.16786E+00   -0.15824E+00 39624   0.200E+00    0.966E+00
DAV:   3    -0.387181106648E+03    0.13530E+00   -0.12040E+00 45480   0.108E+00    0.189E+00
DAV:   4    -0.387235015503E+03   -0.53909E-01   -0.96692E-02 44888   0.635E-01    0.291E+00
DAV:   5    -0.387222368508E+03    0.12647E-01   -0.72985E-02 46880   0.449E-01    0.874E-01
DAV:   6    -0.387227079837E+03   -0.47113E-02   -0.16503E-02 48368   0.232E-01    0.812E-01
DAV:   7    -0.387228863973E+03   -0.17841E-02   -0.82218E-03 46656   0.176E-01    0.107E+00
DAV:   8    -0.387228493902E+03    0.37007E-03   -0.68766E-04 41936   0.791E-02    0.980E-01
DAV:   9    -0.387228101652E+03    0.39225E-03   -0.21866E-04 40272   0.366E-02    0.807E-01
DAV:  10    -0.387227964149E+03    0.13750E-03   -0.19141E-03 47312   0.876E-02    0.464E-01
DAV:  11    -0.387228262792E+03   -0.29864E-03   -0.11443E-03 48520   0.116E-01    0.400E-01
DAV:  12    -0.387228319947E+03   -0.57155E-04   -0.15783E-03 50192   0.940E-02    0.207E-01
DAV:  13    -0.387228437381E+03   -0.11743E-03   -0.73028E-04 48408   0.573E-02    0.190E-01
DAV:  14    -0.387228434116E+03    0.32648E-05   -0.66804E-05 32304   0.173E-02
  24 F= -.38722843E+03 E0= -.38721470E+03  d E =-.367385E-01  mag=    33.9998
       N       E                     dE             d eps       ncg     rms          rms(c)
DAV:   1    -0.387196057653E+03    0.32380E-01   -0.39405E+00 36992   0.722E+00    0.109E+00
DAV:   2    -0.387269668614E+03   -0.73611E-01   -0.69189E-01 37096   0.151E+00    0.503E+00
DAV:   3    -0.387236001263E+03    0.33667E-01   -0.38077E-01 48112   0.757E-01    0.205E+00
DAV:   4    -0.387250696792E+03   -0.14696E-01   -0.55905E-02 46256   0.476E-01    0.229E+00
DAV:   5    -0.387243057975E+03    0.76388E-02   -0.33047E-02 48304   0.360E-01    0.979E-01
DAV:   6    -0.387244366607E+03   -0.13086E-02   -0.41010E-03 48880   0.149E-01    0.613E-01
DAV:   7    -0.387244871500E+03   -0.50489E-03   -0.59863E-03 49320   0.132E-01    0.663E-01
DAV:   8    -0.387245322728E+03   -0.45123E-03   -0.37494E-03 45800   0.138E-01    0.753E-01
DAV:   9    -0.387245209073E+03    0.11365E-03   -0.50679E-03 48104   0.119E-01    0.287E-01
DAV:  10    -0.387245983066E+03   -0.77399E-03   -0.26408E-03 47656   0.104E-01    0.453E-01
DAV:  11    -0.387246065063E+03   -0.81997E-04   -0.79617E-04 42984   0.515E-02    0.625E-01
DAV:  12    -0.387245740000E+03    0.32506E-03   -0.12882E-04 37432   0.338E-02    0.641E-01
DAV:  13    -0.387245589725E+03    0.15027E-03   -0.25278E-05 29920   0.150E-02    0.645E-01
DAV:  14    -0.387245656260E+03   -0.66534E-04   -0.21421E-04 39112   0.433E-02    0.469E-01
DAV:  15    -0.387245772874E+03   -0.11661E-03   -0.80586E-04 48408   0.786E-02    0.266E-01
DAV:  16    -0.387245838624E+03   -0.65750E-04   -0.42312E-04 46768   0.503E-02    0.112E-01
DAV:  17    -0.387245878097E+03   -0.39473E-04   -0.22424E-04 40736   0.373E-02    0.883E-02
DAV:  18    -0.387245885649E+03   -0.75517E-05   -0.61459E-05 34328   0.213E-02
  25 F= -.38724589E+03 E0= -.38723199E+03  d E =-.174515E-01  mag=    34.0000
       N       E                     dE             d eps       ncg     rms          rms(c)
DAV:   1    -0.387245602803E+03    0.27529E-03   -0.83284E-01 36648   0.303E+00    0.391E-01
DAV:   2    -0.387253921699E+03   -0.83189E-02   -0.79213E-02 36304   0.596E-01    0.142E+00
DAV:   3    -0.387251800791E+03    0.21209E-02   -0.21728E-02 47432   0.244E-01    0.759E-01
DAV:   4    -0.387253019826E+03   -0.12190E-02   -0.88672E-03 45608   0.170E-01    0.611E-01
DAV:   5    -0.387252326616E+03    0.69321E-03   -0.28489E-03 49008   0.116E-01    0.174E-01
DAV:   6    -0.387252541385E+03   -0.21477E-03   -0.43746E-04 46120   0.559E-02    0.183E-01
DAV:   7    -0.387252493263E+03    0.48122E-04   -0.58552E-04 49728   0.610E-02    0.155E-01
DAV:   8    -0.387252509802E+03   -0.16539E-04   -0.78735E-04 47936   0.592E-02    0.153E-01
DAV:   9    -0.387252585289E+03   -0.75487E-04   -0.46388E-04 34272   0.393E-02    0.157E-01
DAV:  10    -0.387252576424E+03    0.88647E-05   -0.40931E-05 29376   0.170E-02
  26 F= -.38725258E+03 E0= -.38723865E+03  d E =-.669078E-02  mag=    34.0000
       N       E                     dE             d eps       ncg     rms          rms(c)
DAV:   1    -0.387254688765E+03   -0.21035E-02   -0.98640E-01 36600   0.274E+00    0.344E-01
DAV:   2    -0.387259660372E+03   -0.49716E-02   -0.54966E-02 35544   0.524E-01    0.538E-01
DAV:   3    -0.387260256531E+03   -0.59616E-03   -0.87384E-03 53104   0.163E-01    0.997E-01
DAV:   4    -0.387259196916E+03    0.10596E-02   -0.51736E-03 47864   0.112E-01    0.398E-01
DAV:   5    -0.387259257891E+03   -0.60974E-04   -0.69455E-04 45704   0.646E-02    0.286E-01
DAV:   6    -0.387259220939E+03    0.36952E-04   -0.27874E-04 39744   0.429E-02    0.259E-01
DAV:   7    -0.387258973129E+03    0.24781E-03   -0.12121E-03 50272   0.816E-02    0.263E-01
DAV:   8    -0.387259259082E+03   -0.28595E-03   -0.27684E-03 50224   0.844E-02    0.350E-01
DAV:   9    -0.387259428652E+03   -0.16957E-03   -0.55496E-04 43128   0.537E-02    0.298E-01
DAV:  10    -0.387259382408E+03    0.46244E-04   -0.29446E-04 41992   0.376E-02    0.262E-01
DAV:  11    -0.387259374559E+03    0.78499E-05   -0.24038E-04 40728   0.369E-02    0.203E-01
DAV:  12    -0.387259390912E+03   -0.16353E-04   -0.49883E-04 44744   0.464E-02    0.146E-01
DAV:  13    -0.387259418459E+03   -0.27548E-04   -0.11122E-04 37960   0.301E-02    0.164E-01
DAV:  14    -0.387259386529E+03    0.31930E-04   -0.75270E-05 28344   0.201E-02    0.495E-02
DAV:  15    -0.387259399911E+03   -0.13382E-04   -0.14994E-05 22784   0.934E-03    0.193E-02
DAV:  16    -0.387259402812E+03   -0.29010E-05   -0.33812E-06 19480   0.633E-03
  27 F= -.38725940E+03 E0= -.38724546E+03  d E =-.682639E-02  mag=    34.0000
       N       E                     dE             d eps       ncg     rms          rms(c)
DAV:   1    -0.387259335054E+03    0.64857E-04   -0.83460E-01 36400   0.253E+00    0.272E-01
DAV:   2    -0.387264272314E+03   -0.49373E-02   -0.48642E-02 36880   0.477E-01    0.125E+00
DAV:   3    -0.387262248725E+03    0.20236E-02   -0.14208E-02 46328   0.183E-01    0.369E-01
DAV:   4    -0.387263040068E+03   -0.79134E-03   -0.11870E-03 42360   0.873E-02    0.208E-01
DAV:   5    -0.387263018262E+03    0.21806E-04   -0.53316E-04 48360   0.502E-02    0.172E-01
DAV:   6    -0.387263006288E+03    0.11974E-04   -0.47814E-04 40328   0.525E-02    0.164E-01
DAV:   7    -0.387262973962E+03    0.32326E-04   -0.32997E-04 43680   0.472E-02    0.114E-01
DAV:   8    -0.387262990534E+03   -0.16572E-04   -0.16543E-04 34008   0.345E-02    0.853E-02
DAV:   9    -0.387263003099E+03   -0.12565E-04   -0.50648E-05 27816   0.172E-02    0.909E-02
DAV:  10    -0.387262995148E+03    0.79503E-05   -0.55219E-06 20312   0.678E-03
  28 F= -.38726300E+03 E0= -.38724901E+03  d E =-.359234E-02  mag=    34.0000
       N       E                     dE             d eps       ncg     rms          rms(c)
DAV:   1    -0.387227117497E+03    0.35886E-01   -0.10534E+01 36440   0.859E+00    0.910E-01
DAV:   2    -0.387302567850E+03   -0.75450E-01   -0.69231E-01 38728   0.165E+00    0.569E+00
DAV:   3    -0.387252978404E+03    0.49589E-01   -0.35555E-01 46272   0.715E-01    0.881E-01
DAV:   4    -0.387268144708E+03   -0.15166E-01   -0.10332E-02 43136   0.295E-01    0.110E+00
DAV:   5    -0.387266690723E+03    0.14540E-02   -0.60108E-03 48152   0.193E-01    0.735E-01
DAV:   6    -0.387266466325E+03    0.22440E-03   -0.56097E-03 47976   0.132E-01    0.423E-01
DAV:   7    -0.387267160806E+03   -0.69448E-03   -0.52587E-03 47960   0.120E-01    0.950E-01
DAV:   8    -0.387266951920E+03    0.20889E-03   -0.93845E-04 39456   0.745E-02    0.936E-01
DAV:   9    -0.387266612131E+03    0.33979E-03   -0.12870E-03 47976   0.730E-02    0.712E-01
DAV:  10    -0.387266832346E+03   -0.22022E-03   -0.12359E-03 46912   0.635E-02    0.615E-01
DAV:  11    -0.387267226759E+03   -0.39441E-03   -0.83647E-04 47544   0.515E-02    0.829E-01
DAV:  12    -0.387267140900E+03    0.85859E-04   -0.15627E-04 35560   0.267E-02    0.926E-01
DAV:  13    -0.387266549030E+03    0.59187E-03   -0.36697E-04 41616   0.481E-02    0.780E-01
DAV:  14    -0.387266603517E+03   -0.54487E-04   -0.71323E-05 36688   0.207E-02    0.762E-01
DAV:  15    -0.387266570891E+03    0.32626E-04   -0.78099E-04 41888   0.529E-02    0.371E-01
DAV:  16    -0.387266765992E+03   -0.19510E-03   -0.96688E-04 44896   0.681E-02    0.860E-02
DAV:  17    -0.387266897553E+03   -0.13156E-03   -0.18211E-04 38024   0.333E-02    0.946E-02
DAV:  18    -0.387266896829E+03    0.72354E-06   -0.18740E-05 28368   0.138E-02
  29 F= -.38726690E+03 E0= -.38725290E+03  d E =-.390168E-02  mag=    34.0000
       N       E                     dE             d eps       ncg     rms          rms(c)
DAV:   1    -0.386777429427E+03    0.48947E+00   -0.12045E+02 36288   0.287E+01    0.317E+00
DAV:   2    -0.387464510376E+03   -0.68708E+00   -0.78227E+00 38824   0.557E+00    0.777E+00
DAV:   3    -0.387270147531E+03    0.19436E+00   -0.65869E-01 47288   0.228E+00    0.380E+00
DAV:   4    -0.387271367458E+03   -0.12199E-02   -0.40956E-01 53144   0.108E+00    0.297E+00
DAV:   5    -0.387262995709E+03    0.83717E-02   -0.66549E-02 49144   0.656E-01    0.107E+00
DAV:   6    -0.387265321735E+03   -0.23260E-02   -0.18509E-02 49800   0.368E-01    0.109E+00
DAV:   7    -0.387265331599E+03   -0.98643E-05   -0.34923E-02 51216   0.397E-01    0.126E+00
DAV:   8    -0.387262386555E+03    0.29450E-02   -0.27294E-02 50952   0.393E-01    0.837E-01
DAV:   9    -0.387263953688E+03   -0.15671E-02   -0.17650E-02 49432   0.263E-01    0.101E+00
DAV:  10    -0.387264214153E+03   -0.26047E-03   -0.10407E-02 48000   0.144E-01    0.813E-01
DAV:  11    -0.387264471547E+03   -0.25739E-03   -0.15249E-03 39792   0.677E-02    0.118E+00
DAV:  12    -0.387265532683E+03   -0.10611E-02   -0.27844E-03 47344   0.897E-02    0.180E+00
DAV:  13    -0.387262069788E+03    0.34629E-02   -0.45627E-03 46264   0.134E-01    0.929E-01
DAV:  14    -0.387264132491E+03   -0.20627E-02   -0.24083E-03 45584   0.106E-01    0.115E+00
DAV:  15    -0.387264008943E+03    0.12355E-03   -0.47868E-04 44680   0.553E-02    0.110E+00
DAV:  16    -0.387263404159E+03    0.60478E-03   -0.71562E-04 46512   0.425E-02    0.699E-01
DAV:  17    -0.387263627665E+03   -0.22351E-03   -0.10330E-03 41064   0.410E-02    0.264E-01
DAV:  18    -0.387263988705E+03   -0.36104E-03   -0.13622E-04 36120   0.374E-02    0.251E-01
DAV:  19    -0.387263999524E+03   -0.10819E-04   -0.78918E-05 32136   0.192E-02    0.137E-01
DAV:  20    -0.387264021513E+03   -0.21990E-04   -0.61881E-05 27984   0.131E-02    0.415E-02
DAV:  21    -0.387264039014E+03   -0.17501E-04   -0.14422E-05 22680   0.875E-03    0.192E-02
DAV:  22    -0.387264042594E+03   -0.35804E-05   -0.49236E-06 19792   0.625E-03
  30 F= -.38726404E+03 E0= -.38724992E+03  d E =0.285423E-02  mag=    34.0000
       N       E                     dE             d eps       ncg     rms          rms(c)
DAV:   1    -0.387144776572E+03    0.11926E+00   -0.28466E+01 36192   0.147E+01    0.140E+00
DAV:   2    -0.387285958205E+03   -0.14118E+00   -0.14511E+00 36024   0.263E+00    0.491E+00
DAV:   3    -0.387261405446E+03    0.24553E-01   -0.43101E-01 48824   0.886E-01    0.291E+00
DAV:   4    -0.387264199594E+03   -0.27941E-02   -0.90641E-02 48544   0.509E-01    0.120E+00
DAV:   5    -0.387264385856E+03   -0.18626E-03   -0.12914E-02 49536   0.278E-01    0.732E-01
DAV:   6    -0.387264501927E+03   -0.11607E-03   -0.64143E-03 49904   0.154E-01    0.727E-01
DAV:   7    -0.387264047624E+03    0.45430E-03   -0.21612E-03 48632   0.129E-01    0.836E-01
DAV:   8    -0.387263406053E+03    0.64157E-03   -0.37797E-03 48880   0.125E-01    0.573E-01
DAV:   9    -0.387263460612E+03   -0.54559E-04   -0.11327E-02 49688   0.190E-01    0.835E-01
DAV:  10    -0.387264853574E+03   -0.13930E-02   -0.82870E-03 47536   0.175E-01    0.105E+00
DAV:  11    -0.387264474522E+03    0.37905E-03   -0.24442E-03 45376   0.103E-01    0.763E-01
DAV:  12    -0.387264449676E+03    0.24846E-04   -0.44012E-04 45560   0.561E-02    0.672E-01
DAV:  13    -0.387264561103E+03   -0.11143E-03   -0.19695E-04 43352   0.429E-02    0.595E-01
DAV:  14    -0.387264705755E+03   -0.14465E-03   -0.19499E-03 48656   0.114E-01    0.201E-01
DAV:  15    -0.387264894664E+03   -0.18891E-03   -0.62259E-04 44304   0.655E-02    0.122E-01
DAV:  16    -0.387264974882E+03   -0.80218E-04   -0.12902E-04 40768   0.311E-02    0.111E-01
DAV:  17    -0.387264961468E+03    0.13414E-04   -0.50786E-05 30280   0.162E-02    0.533E-02
DAV:  18    -0.387264963255E+03   -0.17870E-05   -0.96912E-06 23328   0.104E-02
  31 F= -.38726496E+03 E0= -.38725091E+03  d E =-.920660E-03  mag=    34.0000
       N       E                     dE             d eps       ncg     rms          rms(c)
DAV:   1    -0.387091715407E+03    0.17325E+00   -0.18011E+01 38272   0.110E+01    0.279E+00
DAV:   2    -0.387792165648E+03   -0.70045E+00   -0.55841E+00 45688   0.312E+00    0.171E+01
DAV:   3    -0.387157097895E+03    0.63507E+00   -0.29043E+00 46960   0.194E+00    0.406E+00
DAV:   4    -0.387259393448E+03   -0.10230E+00   -0.32028E-01 46640   0.989E-01    0.305E+00
DAV:   5    -0.387261822592E+03   -0.24291E-02   -0.11608E-01 47808   0.591E-01    0.222E+00
DAV:   6    -0.387261066948E+03    0.75564E-03   -0.11517E-02 45952   0.253E-01    0.229E+00
DAV:   7    -0.387258736184E+03    0.23308E-02   -0.50268E-03 45816   0.204E-01    0.277E+00
DAV:   8    -0.387254082193E+03    0.46540E-02   -0.14829E-02 46616   0.231E-01    0.201E+00
DAV:   9    -0.387261094868E+03   -0.70127E-02   -0.11875E-01 49288   0.490E-01    0.229E+00
DAV:  10    -0.387263761053E+03   -0.26662E-02   -0.48820E-02 47016   0.421E-01    0.144E+00
DAV:  11    -0.387266456235E+03   -0.26952E-02   -0.11994E-02 48360   0.226E-01    0.981E-01
DAV:  12    -0.387268332152E+03   -0.18759E-02   -0.13398E-02 49552   0.250E-01    0.164E+00
DAV:  13    -0.387264210259E+03    0.41219E-02   -0.14228E-02 46256   0.241E-01    0.106E+00
DAV:  14    -0.387264486093E+03   -0.27583E-03   -0.67831E-03 48144   0.152E-01    0.112E+00
DAV:  15    -0.387264422363E+03    0.63731E-04   -0.60507E-04 41544   0.674E-02    0.109E+00
DAV:  16    -0.387264131951E+03    0.29041E-03   -0.59236E-05 34768   0.208E-02    0.110E+00
DAV:  17    -0.387264990426E+03   -0.85848E-03   -0.20861E-03 47544   0.109E-01    0.852E-01
DAV:  18    -0.387266318754E+03   -0.13283E-02   -0.23299E-03 43600   0.978E-02    0.728E-01
DAV:  19    -0.387266611541E+03   -0.29279E-03   -0.58597E-04 44808   0.576E-02    0.618E-01
DAV:  20    -0.387266713969E+03   -0.10243E-03   -0.90390E-04 45832   0.680E-02    0.273E-01
DAV:  21    -0.387266806973E+03   -0.93004E-04   -0.18523E-04 41048   0.386E-02    0.226E-01
DAV:  22    -0.387266858708E+03   -0.51735E-04   -0.10709E-04 38088   0.286E-02    0.135E-01
DAV:  23    -0.387266890284E+03   -0.31576E-04   -0.40874E-05 32272   0.164E-02    0.864E-02
DAV:  24    -0.387266902228E+03   -0.11944E-04   -0.20108E-05 26240   0.118E-02    0.500E-02
DAV:  25    -0.387266907638E+03   -0.54092E-05   -0.13892E-05 24136   0.113E-02
  32 F= -.38726691E+03 E0= -.38725274E+03  d E =-.194438E-02  mag=    34.0000
       N       E                     dE             d eps       ncg     rms          rms(c)
DAV:   1    -0.387205049665E+03    0.61853E-01   -0.13565E+01 36416   0.101E+01    0.173E+00
DAV:   2    -0.387417415504E+03   -0.21237E+00   -0.24891E+00 43000   0.235E+00    0.686E+00
DAV:   3    -0.387271579713E+03    0.14584E+00   -0.28080E-01 46328   0.143E+00    0.315E+00
DAV:   4    -0.387271262049E+03    0.31766E-03   -0.88932E-02 50240   0.534E-01    0.114E+00
DAV:   5    -0.387279178479E+03   -0.79164E-02   -0.39990E-02 47472   0.367E-01    0.163E+00
DAV:   6    -0.387276898540E+03    0.22799E-02   -0.18958E-02 46136   0.284E-01    0.639E-01
DAV:   7    -0.387277514353E+03   -0.61581E-03   -0.55865E-03 49128   0.169E-01    0.620E-01
DAV:   8    -0.387276964806E+03    0.54955E-03   -0.40584E-03 47552   0.160E-01    0.357E-01
DAV:   9    -0.387277208350E+03   -0.24354E-03   -0.26627E-03 49624   0.128E-01    0.448E-01
DAV:  10    -0.387277624691E+03   -0.41634E-03   -0.36803E-03 48120   0.813E-02    0.445E-01
DAV:  11    -0.387277606572E+03    0.18119E-04   -0.30530E-04 37800   0.381E-02    0.476E-01
DAV:  12    -0.387277412033E+03    0.19454E-03   -0.30324E-04 37680   0.354E-02    0.655E-01
DAV:  13    -0.387277277515E+03    0.13452E-03   -0.49618E-05 31624   0.222E-02    0.609E-01
DAV:  14    -0.387277360397E+03   -0.82882E-04   -0.85169E-04 45640   0.848E-02    0.368E-01
DAV:  15    -0.387277441213E+03   -0.80816E-04   -0.15645E-03 48032   0.643E-02    0.189E-01
DAV:  16    -0.387277566236E+03   -0.12502E-03   -0.26642E-04 36920   0.390E-02    0.453E-02
DAV:  17    -0.387277571802E+03   -0.55665E-05   -0.32101E-05 31040   0.129E-02
  33 F= -.38727757E+03 E0= -.38726331E+03  d E =-.106642E-01  mag=    34.0000
       N       E                     dE             d eps       ncg     rms          rms(c)
DAV:   1    -0.386994262231E+03    0.28330E+00   -0.73301E+01 36272   0.234E+01    0.201E+00
DAV:   2    -0.387325589891E+03   -0.33133E+00   -0.33157E+00 36112   0.412E+00    0.680E+00
DAV:   3    -0.387282525881E+03    0.43064E-01   -0.12912E+00 50256   0.120E+00    0.446E+00
DAV:   4    -0.387285391080E+03   -0.28652E-02   -0.12854E-01 47664   0.708E-01    0.264E+00
DAV:   5    -0.387279713482E+03    0.56776E-02   -0.37174E-02 51664   0.407E-01    0.183E+00
DAV:   6    -0.387278762432E+03    0.95105E-03   -0.14541E-02 49528   0.301E-01    0.141E+00
DAV:   7    -0.387278941257E+03   -0.17882E-03   -0.29326E-02 49616   0.270E-01    0.132E+00
DAV:   8    -0.387280443304E+03   -0.15020E-02   -0.90433E-03 45128   0.211E-01    0.170E+00
DAV:   9    -0.387278883719E+03    0.15596E-02   -0.11544E-03 40632   0.837E-02    0.185E+00
DAV:  10    -0.387276577125E+03    0.23066E-02   -0.58456E-03 48712   0.145E-01    0.195E+00
DAV:  11    -0.387275911098E+03    0.66603E-03   -0.18655E-02 48096   0.208E-01    0.196E+00
DAV:  12    -0.387279786672E+03   -0.38756E-02   -0.39763E-03 43152   0.100E-01    0.214E+00
DAV:  13    -0.387279803322E+03   -0.16650E-04   -0.40895E-04 37496   0.511E-02    0.227E+00
DAV:  14    -0.387279920740E+03   -0.11742E-03   -0.75677E-04 45384   0.755E-02    0.211E+00
DAV:  15    -0.387279198675E+03    0.72206E-03   -0.21954E-03 47432   0.136E-01    0.183E+00
DAV:  16    -0.387280081302E+03   -0.88263E-03   -0.21670E-03 46896   0.133E-01    0.222E+00
DAV:  17    -0.387279348528E+03    0.73277E-03   -0.60957E-04 40528   0.691E-02    0.199E+00
DAV:  18    -0.387278531155E+03    0.81737E-03   -0.42122E-03 50256   0.153E-01    0.105E+00
DAV:  19    -0.387280397270E+03   -0.18661E-02   -0.60804E-03 45456   0.140E-01    0.226E-01
DAV:  20    -0.387281367315E+03   -0.97005E-03   -0.83659E-04 37736   0.770E-02    0.167E-01
DAV:  21    -0.387281399210E+03   -0.31894E-04   -0.23550E-04 46192   0.441E-02    0.140E-01
DAV:  22    -0.387281397046E+03    0.21634E-05   -0.14791E-04 41920   0.341E-02    0.977E-02
DAV:  23    -0.387281411695E+03   -0.14649E-04   -0.92761E-05 32560   0.215E-02    0.564E-02
DAV:  24    -0.387281418873E+03   -0.71783E-05   -0.46948E-05 29608   0.174E-02
  34 F= -.38728142E+03 E0= -.38726700E+03  d E =-.384707E-02  mag=    34.0000
       N       E                     dE             d eps       ncg     rms          rms(c)
DAV:   1    -0.382341660796E+03    0.49398E+01   -0.34833E+02 37808   0.565E+01    0.183E+01
DAV:   2    -0.412704953125E+03   -0.30363E+02   -0.12949E+02 47256   0.205E+01    0.781E+01
DAV:   3    -0.385704577122E+03    0.27000E+02   -0.22403E+01 46752   0.119E+01    0.254E+01
DAV:   4    -0.386773151249E+03   -0.10686E+01   -0.11651E+01 50872   0.834E+00    0.159E+01
DAV:   5    -0.386447205912E+03    0.32595E+00   -0.27800E+00 49832   0.357E+00    0.183E+01
DAV:   6    -0.386309704884E+03    0.13750E+00   -0.45542E-01 46840   0.154E+00    0.160E+01
DAV:   7    -0.386261191110E+03    0.48514E-01   -0.35400E-01 51032   0.595E-01    0.152E+01
DAV:   8    -0.386367401194E+03   -0.10621E+00   -0.25734E-01 49984   0.119E+00    0.119E+01
DAV:   9    -0.386717175021E+03   -0.34977E+00   -0.14232E+00 49920   0.217E+00    0.135E+01
DAV:  10    -0.386295369364E+03    0.42181E+00   -0.15691E+00 51440   0.284E+00    0.789E+00
DAV:  11    -0.386276853964E+03    0.18515E-01   -0.10632E+00 48088   0.162E+00    0.772E+00
DAV:  12    -0.386247788683E+03    0.29065E-01   -0.46731E-01 48760   0.106E+00    0.613E+00
DAV:  13    -0.386227853819E+03    0.19935E-01   -0.29896E-01 50856   0.118E+00    0.710E+00
DAV:  14    -0.386329264412E+03   -0.10141E+00   -0.20244E-01 47976   0.656E-01    0.837E+00
DAV:  15    -0.386299265784E+03    0.29999E-01   -0.19645E-02 39488   0.374E-01    0.922E+00
DAV:  16    -0.386288257601E+03    0.11008E-01   -0.16870E-03 40832   0.115E-01    0.933E+00
DAV:  17    -0.386322999541E+03   -0.34742E-01   -0.18106E-02 49800   0.442E-01    0.856E+00
DAV:  18    -0.386326348648E+03   -0.33491E-02   -0.12971E-02 48208   0.336E-01    0.882E+00
DAV:  19    -0.386336348283E+03   -0.99996E-02   -0.27305E-02 48272   0.467E-01    0.691E+00
DAV:  20    -0.386343956765E+03   -0.76085E-02   -0.10844E-01 51272   0.640E-01    0.501E+00
DAV:  21    -0.386352199372E+03   -0.82426E-02   -0.17894E-02 42664   0.362E-01    0.511E+00
DAV:  22    -0.386360145442E+03   -0.79461E-02   -0.60689E-02 46816   0.708E-01    0.504E+00
DAV:  23    -0.386353023278E+03    0.71222E-02   -0.40464E-02 49000   0.501E-01    0.368E+00
DAV:  24    -0.386354023093E+03   -0.99981E-03   -0.23121E-02 47440   0.383E-01    0.405E+00
DAV:  25    -0.386355681386E+03   -0.16583E-02   -0.36012E-03 46168   0.144E-01    0.442E+00
DAV:  26    -0.386368691916E+03   -0.13011E-01   -0.37940E-02 47128   0.593E-01    0.474E+00
DAV:  27    -0.386373251008E+03   -0.45591E-02   -0.38300E-02 46376   0.580E-01    0.475E+00
DAV:  28    -0.386360751489E+03    0.12500E-01   -0.22777E-02 46168   0.406E-01    0.317E+00
DAV:  29    -0.386359046452E+03    0.17050E-02   -0.13435E-02 49792   0.268E-01    0.149E+00
DAV:  30    -0.386364635209E+03   -0.55888E-02   -0.64062E-03 43344   0.173E-01    0.969E-01
DAV:  31    -0.386367206392E+03   -0.25712E-02   -0.39082E-03 44488   0.164E-01    0.952E-01
DAV:  32    -0.386368034941E+03   -0.82855E-03   -0.24631E-03 46256   0.157E-01    0.855E-01
DAV:  33    -0.386367589005E+03    0.44594E-03   -0.27704E-03 47192   0.923E-02    0.467E-01
DAV:  34    -0.386368186620E+03   -0.59762E-03   -0.77691E-04 40032   0.653E-02    0.386E-01
DAV:  35    -0.386368337942E+03   -0.15132E-03   -0.64865E-04 46320   0.755E-02    0.153E-01
DAV:  36    -0.386368498585E+03   -0.16064E-03   -0.27342E-04 39760   0.461E-02    0.181E-01
DAV:  37    -0.386368470842E+03    0.27743E-04   -0.12559E-04 35824   0.230E-02    0.772E-02
DAV:  38    -0.386368504750E+03   -0.33908E-04   -0.12103E-04 29560   0.207E-02    0.118E-01
DAV:  39    -0.386368508997E+03   -0.42471E-05   -0.23755E-05 28328   0.167E-02
  35 F= -.38636851E+03 E0= -.38635283E+03  d E =0.912910E+00  mag=    33.9962
       N       E                     dE             d eps       ncg     rms          rms(c)
DAV:   1    -0.382906334100E+03    0.34622E+01   -0.42774E+02 38208   0.525E+01    0.138E+01
DAV:   2    -0.409948795904E+03   -0.27042E+02   -0.11113E+02 47008   0.174E+01    0.689E+01
DAV:   3    -0.386365816909E+03    0.23583E+02   -0.20256E+01 48208   0.138E+01    0.222E+01
DAV:   4    -0.387144175124E+03   -0.77836E+00   -0.17331E+01 49312   0.446E+00    0.155E+01
DAV:   5    -0.387150246191E+03   -0.60711E-02   -0.36749E+00 49024   0.273E+00    0.124E+01
DAV:   6    -0.387166768022E+03   -0.16522E-01   -0.16505E+00 48952   0.191E+00    0.962E+00
DAV:   7    -0.387240187480E+03   -0.73419E-01   -0.12852E+00 49440   0.195E+00    0.908E+00
DAV:   8    -0.387258379938E+03   -0.18192E-01   -0.11839E-01 48576   0.897E-01    0.880E+00
DAV:   9    -0.387107223174E+03    0.15116E+00   -0.12006E-01 49680   0.116E+00    0.700E+00
DAV:  10    -0.386982804546E+03    0.12442E+00   -0.98985E-01 50424   0.177E+00    0.102E+01
DAV:  11    -0.387166749836E+03   -0.18395E+00   -0.15977E+00 48752   0.175E+00    0.124E+01
DAV:  12    -0.387186125419E+03   -0.19376E-01   -0.12039E-01 47640   0.103E+00    0.106E+01
DAV:  13    -0.387173574846E+03    0.12551E-01   -0.50622E-02 48760   0.489E-01    0.981E+00
DAV:  14    -0.387147128047E+03    0.26447E-01   -0.48575E-02 53320   0.461E-01    0.856E+00
DAV:  15    -0.387160413976E+03   -0.13286E-01   -0.24778E-02 49272   0.431E-01    0.783E+00
DAV:  16    -0.387216306088E+03   -0.55892E-01   -0.28801E-01 52968   0.909E-01    0.506E+00
DAV:  17    -0.387254860646E+03   -0.38555E-01   -0.12440E-01 41528   0.456E-01    0.640E+00
DAV:  18    -0.387268624052E+03   -0.13763E-01   -0.80863E-02 47104   0.510E-01    0.871E+00
DAV:  19    -0.387245715734E+03    0.22908E-01   -0.89777E-03 38864   0.250E-01    0.857E+00
DAV:  20    -0.387240949108E+03    0.47666E-02   -0.55835E-03 46888   0.115E-01    0.870E+00
DAV:  21    -0.387223565668E+03    0.17383E-01   -0.70440E-03 52832   0.239E-01    0.776E+00
DAV:  22    -0.387309680044E+03   -0.86114E-01   -0.76412E-01 51824   0.107E+00    0.108E+01
DAV:  23    -0.387259469822E+03    0.50210E-01   -0.91068E-02 39720   0.661E-01    0.794E+00
DAV:  24    -0.387250957649E+03    0.85122E-02   -0.44337E-02 48712   0.547E-01    0.642E+00
DAV:  25    -0.387239755122E+03    0.11203E-01   -0.95353E-02 48320   0.470E-01    0.695E+00
DAV:  26    -0.387216737115E+03    0.23018E-01   -0.27805E-01 48728   0.715E-01    0.578E+00
DAV:  27    -0.387239407116E+03   -0.22670E-01   -0.26253E-02 42680   0.420E-01    0.520E+00
DAV:  28    -0.387242668556E+03   -0.32614E-02   -0.77077E-03 46336   0.206E-01    0.494E+00
DAV:  29    -0.387243704581E+03   -0.10360E-02   -0.11405E-03 40912   0.105E-01    0.477E+00
DAV:  30    -0.387246935745E+03   -0.32312E-02   -0.99085E-03 50576   0.197E-01    0.361E+00
DAV:  31    -0.387253759226E+03   -0.68235E-02   -0.22440E-03 43728   0.117E-01    0.310E+00
DAV:  32    -0.387258226238E+03   -0.44670E-02   -0.18618E-03 47120   0.898E-02    0.300E+00
DAV:  33    -0.387260044209E+03   -0.18180E-02   -0.38010E-03 47088   0.142E-01    0.242E+00
DAV:  34    -0.387261864345E+03   -0.18201E-02   -0.39921E-04 38472   0.530E-02    0.245E+00
DAV:  35    -0.387261772634E+03    0.91712E-04   -0.59692E-04 46400   0.565E-02    0.225E+00
DAV:  36    -0.387262440769E+03   -0.66814E-03   -0.53499E-03 48408   0.126E-01    0.150E+00
DAV:  37    -0.387266199878E+03   -0.37591E-02   -0.48025E-03 45536   0.211E-01    0.103E+00
DAV:  38    -0.387267698363E+03   -0.14985E-02   -0.42257E-03 46176   0.146E-01    0.765E-01
DAV:  39    -0.387268747834E+03   -0.10495E-02   -0.16500E-03 41696   0.107E-01    0.539E-01
DAV:  40    -0.387269623784E+03   -0.87595E-03   -0.94873E-04 46288   0.877E-02    0.460E-01
DAV:  41    -0.387270002812E+03   -0.37903E-03   -0.38380E-04 44760   0.536E-02    0.334E-01
DAV:  42    -0.387270293526E+03   -0.29071E-03   -0.74634E-04 42768   0.544E-02    0.552E-01
DAV:  43    -0.387270038098E+03    0.25543E-03   -0.21533E-04 37024   0.425E-02    0.506E-01
DAV:  44    -0.387269885523E+03    0.15258E-03   -0.26639E-04 37752   0.342E-02    0.275E-01
DAV:  45    -0.387269977819E+03   -0.92296E-04   -0.32975E-04 38312   0.350E-02    0.104E-01
DAV:  46    -0.387270053338E+03   -0.75519E-04   -0.57021E-05 36296   0.213E-02    0.789E-02
DAV:  47    -0.387270056935E+03   -0.35972E-05   -0.11194E-05 25784   0.103E-02
  36 F= -.38727006E+03 E0= -.38725479E+03  d E =-.901548E+00  mag=    33.9947
       N       E                     dE             d eps       ncg     rms          rms(c)
DAV:   1    -0.387189413534E+03    0.80640E-01   -0.51609E+00 37928   0.830E+00    0.126E+00
DAV:   2    -0.387281015921E+03   -0.91602E-01   -0.89327E-01 37848   0.170E+00    0.455E+00
DAV:   3    -0.387267462761E+03    0.13553E-01   -0.60595E-01 47528   0.786E-01    0.364E+00
DAV:   4    -0.387267080956E+03    0.38180E-03   -0.17444E-01 47760   0.656E-01    0.269E+00
DAV:   5    -0.387260666979E+03    0.64140E-02   -0.70551E-02 48952   0.446E-01    0.104E+00
DAV:   6    -0.387262856728E+03   -0.21897E-02   -0.39438E-03 44520   0.167E-01    0.842E-01
DAV:   7    -0.387262868780E+03   -0.12052E-04   -0.32669E-03 49456   0.129E-01    0.548E-01
DAV:   8    -0.387263311220E+03   -0.44244E-03   -0.45959E-03 47992   0.126E-01    0.495E-01
DAV:   9    -0.387263960705E+03   -0.64949E-03   -0.45257E-03 47840   0.130E-01    0.676E-01
DAV:  10    -0.387263878913E+03    0.81792E-04   -0.30915E-03 47088   0.105E-01    0.640E-01
DAV:  11    -0.387263971650E+03   -0.92737E-04   -0.19424E-03 46776   0.687E-02    0.504E-01
DAV:  12    -0.387264142057E+03   -0.17041E-03   -0.69313E-04 47112   0.551E-02    0.554E-01
DAV:  13    -0.387264172498E+03   -0.30440E-04   -0.25429E-04 41976   0.464E-02    0.654E-01
DAV:  14    -0.387264135825E+03    0.36673E-04   -0.98853E-05 37600   0.264E-02    0.694E-01
DAV:  15    -0.387264061616E+03    0.74208E-04   -0.28494E-05 30840   0.149E-02    0.665E-01
DAV:  16    -0.387263897391E+03    0.16423E-03   -0.11866E-03 44640   0.641E-02    0.345E-01
DAV:  17    -0.387264007309E+03   -0.10992E-03   -0.11480E-03 44512   0.716E-02    0.164E-01
DAV:  18    -0.387264117552E+03   -0.11024E-03   -0.23529E-04 41800   0.476E-02    0.194E-01
DAV:  19    -0.387264071810E+03    0.45742E-04   -0.11240E-04 37616   0.282E-02    0.782E-02
DAV:  20    -0.387264087579E+03   -0.15769E-04   -0.97265E-05 31176   0.164E-02    0.345E-02
DAV:  21    -0.387264093717E+03   -0.61381E-05   -0.11813E-05 24248   0.117E-02
  37 F= -.38726409E+03 E0= -.38724909E+03  d E =0.596322E-02  mag=    33.9991
       N       E                     dE             d eps       ncg     rms          rms(c)
DAV:   1    -0.387204175109E+03    0.59912E-01   -0.84480E+00 37600   0.857E+00    0.254E+00
DAV:   2    -0.387559240379E+03   -0.35507E+00   -0.45410E+00 46752   0.295E+00    0.810E+00
DAV:   3    -0.387369501513E+03    0.18974E+00   -0.11848E+00 48152   0.191E+00    0.651E+00
DAV:   4    -0.387299705501E+03    0.69796E-01   -0.32711E-01 48920   0.860E-01    0.369E+00
DAV:   5    -0.387294369247E+03    0.53363E-02   -0.82311E-02 49384   0.535E-01    0.191E+00
DAV:   6    -0.387302165134E+03   -0.77959E-02   -0.91110E-02 50032   0.451E-01    0.202E+00
DAV:   7    -0.387300877086E+03    0.12880E-02   -0.30421E-02 44848   0.369E-01    0.554E-01
DAV:   8    -0.387302288623E+03   -0.14115E-02   -0.51097E-03 49368   0.184E-01    0.500E-01
DAV:   9    -0.387302362207E+03   -0.73584E-04   -0.28405E-03 49216   0.132E-01    0.294E-01
DAV:  10    -0.387302588679E+03   -0.22647E-03   -0.15089E-03 47264   0.764E-02    0.332E-01
DAV:  11    -0.387302567202E+03    0.21477E-04   -0.38341E-04 40232   0.411E-02    0.341E-01
DAV:  12    -0.387302495800E+03    0.71401E-04   -0.34059E-05 31352   0.151E-02    0.357E-01
DAV:  13    -0.387302348557E+03    0.14724E-03   -0.26706E-04 45424   0.494E-02    0.384E-01
DAV:  14    -0.387302381374E+03   -0.32817E-04   -0.32042E-04 43680   0.403E-02    0.533E-01
DAV:  15    -0.387302272119E+03    0.10926E-03   -0.19850E-04 41456   0.402E-02    0.666E-01
DAV:  16    -0.387302283720E+03   -0.11601E-04   -0.24586E-03 43328   0.922E-02    0.201E-01
DAV:  17    -0.387302837175E+03   -0.55345E-03   -0.29369E-03 44680   0.795E-02    0.587E-01
DAV:  18    -0.387302332709E+03    0.50447E-03   -0.13344E-03 41584   0.561E-02    0.127E-01
DAV:  19    -0.387302527319E+03   -0.19461E-03   -0.22373E-04 34032   0.243E-02    0.793E-02
DAV:  20    -0.387302555957E+03   -0.28638E-04   -0.53960E-05 29504   0.180E-02    0.291E-02
DAV:  21    -0.387302559633E+03   -0.36766E-05   -0.12330E-05 22000   0.812E-03
  38 F= -.38730256E+03 E0= -.38728774E+03  d E =-.384659E-01  mag=    33.9999
       N       E                     dE             d eps       ncg     rms          rms(c)
DAV:   1    -0.387268440448E+03    0.34116E-01   -0.65385E+00 37320   0.545E+00    0.247E+00
DAV:   2    -0.387589983352E+03   -0.32154E+00   -0.42700E+00 47328   0.258E+00    0.813E+00
DAV:   3    -0.387379841479E+03    0.21014E+00   -0.80586E-01 48536   0.185E+00    0.617E+00
DAV:   4    -0.387322061764E+03    0.57780E-01   -0.21129E-01 49048   0.772E-01    0.394E+00
DAV:   5    -0.387311283215E+03    0.10779E-01   -0.86283E-02 50240   0.469E-01    0.124E+00
DAV:   6    -0.387321785664E+03   -0.10502E-01   -0.35042E-02 47104   0.345E-01    0.124E+00
DAV:   7    -0.387321953605E+03   -0.16794E-03   -0.16846E-02 44792   0.283E-01    0.560E-01
DAV:   8    -0.387322144469E+03   -0.19086E-03   -0.29026E-03 48200   0.155E-01    0.504E-01
DAV:   9    -0.387321919274E+03    0.22520E-03   -0.38844E-03 50680   0.159E-01    0.482E-01
DAV:  10    -0.387322202726E+03   -0.28345E-03   -0.46246E-03 49480   0.138E-01    0.545E-01
DAV:  11    -0.387322370673E+03   -0.16795E-03   -0.28069E-03 44928   0.755E-02    0.428E-01
DAV:  12    -0.387322300109E+03    0.70563E-04   -0.17433E-04 35768   0.280E-02    0.475E-01
DAV:  13    -0.387322303282E+03   -0.31726E-05   -0.10821E-03 40272   0.412E-02    0.789E-01
DAV:  14    -0.387321540289E+03    0.76299E-03   -0.30306E-04 40672   0.543E-02    0.846E-01
DAV:  15    -0.387321481501E+03    0.58787E-04   -0.25509E-04 34568   0.266E-02    0.657E-01
DAV:  16    -0.387321971098E+03   -0.48960E-03   -0.29047E-03 46424   0.979E-02    0.342E-01
DAV:  17    -0.387322370785E+03   -0.39969E-03   -0.25445E-03 44064   0.909E-02    0.342E-01
DAV:  18    -0.387322235244E+03    0.13554E-03   -0.10577E-03 40920   0.605E-02    0.132E-01
DAV:  19    -0.387322303527E+03   -0.68283E-04   -0.11206E-04 37056   0.284E-02    0.133E-01
DAV:  20    -0.387322287670E+03    0.15857E-04   -0.45703E-05 28168   0.118E-02    0.584E-02
DAV:  21    -0.387322292237E+03   -0.45668E-05   -0.21859E-05 21072   0.746E-03
  39 F= -.38732229E+03 E0= -.38730749E+03  d E =-.197326E-01  mag=    34.0000
       N       E                     dE             d eps       ncg     rms          rms(c)
DAV:   1    -0.387269137289E+03    0.53150E-01   -0.80698E+00 36936   0.634E+00    0.215E+00
DAV:   2    -0.387538652742E+03   -0.26952E+00   -0.34704E+00 46584   0.238E+00    0.780E+00
DAV:   3    -0.387340675764E+03    0.19798E+00   -0.52927E-01 48576   0.171E+00    0.546E+00
DAV:   4    -0.387305467446E+03    0.35208E-01   -0.13934E-01 49784   0.658E-01    0.302E+00
DAV:   5    -0.387307740190E+03   -0.22727E-02   -0.68530E-02 50440   0.381E-01    0.892E-01
DAV:   6    -0.387315007940E+03   -0.72677E-02   -0.13092E-02 43104   0.275E-01    0.848E-01
DAV:   7    -0.387315475593E+03   -0.46765E-03   -0.12881E-02 48512   0.230E-01    0.945E-01
DAV:   8    -0.387314600531E+03    0.87506E-03   -0.50682E-03 48080   0.188E-01    0.678E-01
DAV:   9    -0.387314270879E+03    0.32965E-03   -0.39677E-03 50208   0.167E-01    0.378E-01
DAV:  10    -0.387314810851E+03   -0.53997E-03   -0.24584E-03 46584   0.102E-01    0.368E-01
DAV:  11    -0.387314840256E+03   -0.29405E-04   -0.46802E-04 40560   0.373E-02    0.401E-01
DAV:  12    -0.387314586423E+03    0.25383E-03   -0.11093E-04 35224   0.277E-02    0.463E-01
DAV:  13    -0.387314520021E+03    0.66402E-04   -0.25671E-05 27056   0.110E-02    0.490E-01
DAV:  14    -0.387314447399E+03    0.72622E-04   -0.30411E-05 22768   0.912E-03    0.469E-01
DAV:  15    -0.387314641575E+03   -0.19418E-03   -0.90848E-04 44280   0.742E-02    0.241E-01
[...]
       N       E                     dE             d eps       ncg     rms          rms(c)
DAV:   1    -0.387277142792E+03    0.46304E-02   -0.11653E+00 36640   0.300E+00    0.553E-01
DAV:   2    -0.387311613030E+03   -0.34470E-01   -0.34437E-01 44680   0.741E-01    0.494E+00
DAV:   3    -0.387271755267E+03    0.39858E-01   -0.15249E-01 44360   0.560E-01    0.663E-01
DAV:   4    -0.387282709127E+03   -0.10954E-01   -0.76191E-03 42112   0.191E-01    0.467E-01
DAV:   5    -0.387283368334E+03   -0.65921E-03   -0.22470E-03 41072   0.120E-01    0.304E-01
DAV:   6    -0.387283399109E+03   -0.30775E-04   -0.30971E-04 42568   0.481E-02    0.272E-01
DAV:   7    -0.387283355550E+03    0.43559E-04   -0.23086E-05 29872   0.140E-02    0.279E-01
DAV:   8    -0.387283289032E+03    0.66517E-04   -0.82342E-04 43288   0.423E-02    0.243E-01
DAV:   9    -0.387283367350E+03   -0.78318E-04   -0.66465E-04 42776   0.442E-02    0.175E-01
DAV:  10    -0.387283426723E+03   -0.59372E-04   -0.33858E-04 37728   0.405E-02    0.133E-01
DAV:  11    -0.387283425457E+03    0.12656E-05   -0.21302E-04 40560   0.342E-02    0.111E-01
DAV:  12    -0.387283437306E+03   -0.11849E-04   -0.16392E-04 33424   0.296E-02    0.159E-01
DAV:  13    -0.387283425283E+03    0.12023E-04   -0.78764E-05 30152   0.249E-02    0.174E-01
DAV:  14    -0.387283411869E+03    0.13414E-04   -0.14197E-05 24176   0.118E-02    0.171E-01
DAV:  15    -0.387283397770E+03    0.14099E-04   -0.70024E-06 19880   0.761E-03    0.164E-01
DAV:  16    -0.387283394954E+03    0.28162E-05   -0.61389E-06 21080   0.510E-03
  47 F= -.38728339E+03 E0= -.38726869E+03  d E =-.161461E-02  mag=    34.0000
       N       E                     dE             d eps       ncg     rms          rms(c)
DAV:   1    -0.387280156417E+03    0.32414E-02   -0.58057E-01 36920   0.226E+00    0.248E-01
DAV:   2    -0.387283352631E+03   -0.31962E-02   -0.30454E-02 35408   0.415E-01    0.518E-01
DAV:   3    -0.387283114699E+03    0.23793E-03   -0.29801E-03 47072   0.121E-01    0.457E-01
DAV:   4    -0.387283047708E+03    0.66990E-04   -0.91142E-04 44352   0.503E-02    0.380E-01
DAV:   5    -0.387283073434E+03   -0.25726E-04   -0.67719E-04 36696   0.342E-02    0.531E-01
DAV:   6    -0.387282586121E+03    0.48731E-03   -0.14776E-03 44344   0.778E-02    0.446E-01
DAV:   7    -0.387282816031E+03   -0.22991E-03   -0.23111E-04 39944   0.332E-02    0.409E-01
DAV:   8    -0.387282973051E+03   -0.15702E-03   -0.43384E-05 29704   0.162E-02    0.393E-01
DAV:   9    -0.387283087939E+03   -0.11489E-03   -0.84513E-04 44472   0.775E-02    0.428E-01
DAV:  10    -0.387283060507E+03    0.27432E-04   -0.64210E-04 44528   0.567E-02    0.426E-01
DAV:  11    -0.387282949506E+03    0.11100E-03   -0.90597E-04 44656   0.493E-02    0.111E-01
DAV:  12    -0.387283093014E+03   -0.14351E-03   -0.35342E-04 40104   0.391E-02    0.176E-01
DAV:  13    -0.387283084639E+03    0.83750E-05   -0.82266E-05 33952   0.232E-02
  48 F= -.38728308E+03 E0= -.38726836E+03  d E =0.310315E-03  mag=    34.0000
       N       E                     dE             d eps       ncg     rms          rms(c)
DAV:   1    -0.387218999020E+03    0.64094E-01   -0.15553E+01 36704   0.107E+01    0.919E-01
DAV:   2    -0.387277814136E+03   -0.58815E-01   -0.60359E-01 34944   0.187E+00    0.765E-01
DAV:   3    -0.387289552573E+03   -0.11738E-01   -0.10498E-01 51592   0.486E-01    0.324E+00
DAV:   4    -0.387275522551E+03    0.14030E-01   -0.88037E-02 47960   0.371E-01    0.101E+00
DAV:   5    -0.387278950674E+03   -0.34281E-02   -0.51765E-03 43304   0.178E-01    0.631E-01
DAV:   6    -0.387279105762E+03   -0.15509E-03   -0.42636E-04 40160   0.575E-02    0.618E-01
DAV:   7    -0.387279152172E+03   -0.46410E-04   -0.14447E-04 38120   0.272E-02    0.575E-01
DAV:   8    -0.387279197972E+03   -0.45800E-04   -0.33820E-03 49056   0.126E-01    0.516E-01
DAV:   9    -0.387279302638E+03   -0.10467E-03   -0.67484E-03 48240   0.153E-01    0.644E-01
DAV:  10    -0.387279340357E+03   -0.37719E-04   -0.31697E-03 45784   0.116E-01    0.719E-01
DAV:  11    -0.387279121661E+03    0.21870E-03   -0.10179E-03 49032   0.836E-02    0.643E-01
DAV:  12    -0.387279092052E+03    0.29609E-04   -0.88607E-04 48472   0.738E-02    0.351E-01
DAV:  13    -0.387279264440E+03   -0.17239E-03   -0.46942E-04 44576   0.532E-02    0.182E-01
DAV:  14    -0.387279428427E+03   -0.16399E-03   -0.26807E-04 36136   0.317E-02    0.210E-01
DAV:  15    -0.387279433597E+03   -0.51704E-05   -0.37948E-05 30312   0.172E-02
  49 F= -.38727943E+03 E0= -.38726479E+03  d E =0.365104E-02  mag=    34.0000
       N       E                     dE             d eps       ncg     rms          rms(c)
DAV:   1    -0.386486645882E+03    0.79278E+00   -0.15426E+02 36496   0.362E+01    0.374E+00
DAV:   2    -0.387426601978E+03   -0.93996E+00   -0.10106E+01 38480   0.674E+00    0.761E+00
DAV:   3    -0.387266044439E+03    0.16056E+00   -0.71533E-01 47248   0.249E+00    0.432E+00
DAV:   4    -0.387283394561E+03   -0.17350E-01   -0.64678E-01 50624   0.127E+00    0.470E+00
DAV:   5    -0.387255051281E+03    0.28343E-01   -0.26050E-01 49376   0.783E-01    0.222E+00
DAV:   6    -0.387262304225E+03   -0.72529E-02   -0.12597E-02 45128   0.281E-01    0.241E+00
DAV:   7    -0.387256645436E+03    0.56588E-02   -0.97634E-03 47544   0.253E-01    0.282E+00
DAV:   8    -0.387252344070E+03    0.43014E-02   -0.92904E-03 47040   0.227E-01    0.307E+00
DAV:   9    -0.387253461634E+03   -0.11176E-02   -0.14790E-03 43328   0.916E-02    0.305E+00
DAV:  10    -0.387264340764E+03   -0.10879E-01   -0.30702E-01 49576   0.478E-01    0.384E+00
DAV:  11    -0.387265004963E+03   -0.66420E-03   -0.30603E-01 49232   0.672E-01    0.316E+00
DAV:  12    -0.387267217757E+03   -0.22128E-02   -0.27341E-01 47720   0.579E-01    0.287E+00
DAV:  13    -0.387264497469E+03    0.27203E-02   -0.10689E-02 43400   0.294E-01    0.286E+00
DAV:  14    -0.387255313388E+03    0.91841E-02   -0.19043E-02 48344   0.204E-01    0.137E+00
DAV:  15    -0.387259860115E+03   -0.45467E-02   -0.32615E-03 43728   0.135E-01    0.130E+00
DAV:  16    -0.387262033804E+03   -0.21737E-02   -0.41453E-03 47000   0.131E-01    0.152E+00
DAV:  17    -0.387261110840E+03    0.92296E-03   -0.14513E-02 48560   0.206E-01    0.883E-01
DAV:  18    -0.387262583037E+03   -0.14722E-02   -0.26975E-03 43600   0.137E-01    0.633E-01
DAV:  19    -0.387263355190E+03   -0.77215E-03   -0.13272E-03 45080   0.915E-02    0.439E-01
DAV:  20    -0.387263760079E+03   -0.40489E-03   -0.89059E-04 46704   0.585E-02    0.445E-01
DAV:  21    -0.387263836357E+03   -0.76278E-04   -0.87109E-04 43536   0.569E-02    0.222E-01
DAV:  22    -0.387263929391E+03   -0.93034E-04   -0.53168E-04 43400   0.457E-02    0.111E-01
DAV:  23    -0.387263983751E+03   -0.54361E-04   -0.18093E-04 40232   0.330E-02    0.675E-02
DAV:  24    -0.387263985907E+03   -0.21551E-05   -0.44484E-05 34384   0.171E-02
  50 F= -.38726399E+03 E0= -.38724913E+03  d E =0.154477E-01  mag=    34.0000
       N       E                     dE             d eps       ncg     rms          rms(c)
DAV:   1    -0.387134163952E+03    0.12982E+00   -0.11960E+01 38216   0.116E+01    0.217E+00
DAV:   2    -0.387585062161E+03   -0.45090E+00   -0.38043E+00 43248   0.277E+00    0.159E+01
DAV:   3    -0.387155274286E+03    0.42979E+00   -0.23045E+00 45976   0.162E+00    0.327E+00
DAV:   4    -0.387265992337E+03   -0.11072E+00   -0.14653E-01 43272   0.772E-01    0.270E+00
DAV:   5    -0.387271760485E+03   -0.57681E-02   -0.36208E-02 45416   0.374E-01    0.243E+00
DAV:   6    -0.387265255723E+03    0.65048E-02   -0.15351E-02 45064   0.272E-01    0.286E+00
DAV:   7    -0.387257631763E+03    0.76240E-02   -0.58697E-02 48264   0.440E-01    0.298E+00
DAV:   8    -0.387259999505E+03   -0.23677E-02   -0.18512E-03 38272   0.108E-01    0.295E+00
DAV:   9    -0.387260526229E+03   -0.52672E-03   -0.92165E-04 48632   0.472E-02    0.298E+00
DAV:  10    -0.387260979473E+03   -0.45324E-03   -0.49551E-03 47824   0.103E-01    0.296E+00
DAV:  11    -0.387261203852E+03   -0.22438E-03   -0.44910E-04 36904   0.409E-02    0.297E+00
DAV:  12    -0.387263369110E+03   -0.21653E-02   -0.13594E-02 45600   0.256E-01    0.250E+00
DAV:  13    -0.387258746039E+03    0.46231E-02   -0.64604E-02 46040   0.573E-01    0.214E+00
DAV:  14    -0.387265966316E+03   -0.72203E-02   -0.30211E-02 46640   0.385E-01    0.152E+00
DAV:  15    -0.387269029205E+03   -0.30629E-02   -0.15875E-02 47424   0.255E-01    0.126E+00
DAV:  16    -0.387269178307E+03   -0.14910E-03   -0.77017E-03 44512   0.212E-01    0.825E-01
DAV:  17    -0.387269961902E+03   -0.78359E-03   -0.11211E-02 47208   0.199E-01    0.810E-01
DAV:  18    -0.387268956854E+03    0.10050E-02   -0.79705E-03 45296   0.203E-01    0.593E-01
DAV:  19    -0.387270018019E+03   -0.10612E-02   -0.23042E-03 45592   0.112E-01    0.454E-01
DAV:  20    -0.387271215177E+03   -0.11972E-02   -0.28622E-03 42608   0.939E-02    0.646E-01
DAV:  21    -0.387271090337E+03    0.12484E-03   -0.16470E-03 44464   0.991E-02    0.322E-01
DAV:  22    -0.387271057422E+03    0.32915E-04   -0.77863E-04 39664   0.503E-02    0.214E-01
DAV:  23    -0.387271059996E+03   -0.25733E-05   -0.99340E-05 35552   0.281E-02
  51 F= -.38727106E+03 E0= -.38725603E+03  d E =-.707409E-02  mag=    34.0000
       N       E                     dE             d eps       ncg     rms          rms(c)
DAV:   1    -0.387184110844E+03    0.86947E-01   -0.18922E+01 37056   0.129E+01    0.127E+00
DAV:   2    -0.387309584342E+03   -0.12547E+00   -0.12618E+00 37328   0.234E+00    0.539E+00
DAV:   3    -0.387263885290E+03    0.45699E-01   -0.32734E-01 46000   0.844E-01    0.166E+00
DAV:   4    -0.387278894625E+03   -0.15009E-01   -0.68119E-02 46152   0.413E-01    0.164E+00
DAV:   5    -0.387276927731E+03    0.19669E-02   -0.91321E-03 48504   0.219E-01    0.134E+00
DAV:   6    -0.387276527156E+03    0.40057E-03   -0.74238E-04 41560   0.641E-02    0.124E+00
DAV:   7    -0.387275842559E+03    0.68460E-03   -0.86631E-03 49912   0.151E-01    0.112E+00
DAV:   8    -0.387275631472E+03    0.21109E-03   -0.15316E-02 48104   0.189E-01    0.117E+00
DAV:   9    -0.387276634063E+03   -0.10026E-02   -0.53751E-03 47192   0.168E-01    0.137E+00
DAV:  10    -0.387276259992E+03    0.37407E-03   -0.19165E-03 47136   0.110E-01    0.119E+00
DAV:  11    -0.387276296990E+03   -0.36998E-04   -0.89638E-04 46992   0.859E-02    0.116E+00
DAV:  12    -0.387275554653E+03    0.74234E-03   -0.15489E-03 48632   0.722E-02    0.822E-01
DAV:  13    -0.387275478502E+03    0.76151E-04   -0.20472E-03 46040   0.123E-01    0.978E-01
DAV:  14    -0.387274930821E+03    0.54768E-03   -0.96256E-04 47336   0.843E-02    0.110E+00
DAV:  15    -0.387274806960E+03    0.12386E-03   -0.31371E-04 46856   0.415E-02    0.125E+00
DAV:  16    -0.387276207416E+03   -0.14005E-02   -0.87131E-03 43600   0.243E-01    0.323E-01
DAV:  17    -0.387277017450E+03   -0.81003E-03   -0.43070E-03 42520   0.105E-01    0.540E-01
DAV:  18    -0.387277085664E+03   -0.68214E-04   -0.45382E-04 40104   0.619E-02    0.378E-01
DAV:  19    -0.387276965256E+03    0.12041E-03   -0.91120E-04 44824   0.423E-02    0.970E-02
DAV:  20    -0.387277102873E+03   -0.13762E-03   -0.10546E-04 36808   0.310E-02    0.512E-02
DAV:  21    -0.387277110259E+03   -0.73856E-05   -0.24589E-05 30000   0.128E-02
  52 F= -.38727711E+03 E0= -.38726219E+03  d E =-.605026E-02  mag=    34.0000
       N       E                     dE             d eps       ncg     rms          rms(c)
DAV:   1    -0.387270231121E+03    0.68718E-02   -0.85568E-01 37184   0.300E+00    0.304E-01
DAV:   2    -0.387276449034E+03   -0.62179E-02   -0.60154E-02 35032   0.547E-01    0.103E+00
DAV:   3    -0.387275819321E+03    0.62971E-03   -0.19148E-02 46936   0.181E-01    0.820E-01
DAV:   4    -0.387275751610E+03    0.67711E-04   -0.47456E-03 42992   0.114E-01    0.158E-01
DAV:   5    -0.387275967217E+03   -0.21561E-03   -0.52351E-04 45064   0.546E-02    0.187E-01
DAV:   6    -0.387275955723E+03    0.11494E-04   -0.28081E-04 40200   0.397E-02    0.136E-01
DAV:   7    -0.387275946414E+03    0.93092E-05   -0.16497E-04 31320   0.253E-02    0.100E-01
DAV:   8    -0.387275956826E+03   -0.10412E-04   -0.35236E-05 25816   0.137E-02    0.109E-01
DAV:   9    -0.387275949682E+03    0.71442E-05   -0.30028E-05 25440   0.126E-02
  53 F= -.38727595E+03 E0= -.38726124E+03  d E =0.116058E-02  mag=    34.0000
       N       E                     dE             d eps       ncg     rms          rms(c)
DAV:   1    -0.387267716709E+03    0.82401E-02   -0.18128E+00 36936   0.382E+00    0.350E-01
DAV:   2    -0.387275709729E+03   -0.79930E-02   -0.79683E-02 34944   0.665E-01    0.825E-01
DAV:   3    -0.387276130490E+03   -0.42076E-03   -0.20544E-02 49288   0.183E-01    0.113E+00
DAV:   4    -0.387275034314E+03    0.10962E-02   -0.69800E-03 44200   0.129E-01    0.344E-01
DAV:   5    -0.387275394125E+03   -0.35981E-03   -0.37043E-04 40808   0.398E-02    0.403E-01
DAV:   6    -0.387275332690E+03    0.61435E-04   -0.45703E-05 32704   0.185E-02    0.421E-01
DAV:   7    -0.387275243302E+03    0.89388E-04   -0.14642E-03 47624   0.749E-02    0.417E-01
DAV:   8    -0.387275288386E+03   -0.45084E-04   -0.27835E-03 48608   0.945E-02    0.368E-01
DAV:   9    -0.387275451511E+03   -0.16313E-03   -0.90900E-04 44968   0.700E-02    0.362E-01
DAV:  10    -0.387275425483E+03    0.26029E-04   -0.33405E-04 41472   0.457E-02    0.321E-01
DAV:  11    -0.387275386358E+03    0.39124E-04   -0.12456E-04 35360   0.283E-02    0.252E-01
DAV:  12    -0.387275425802E+03   -0.39443E-04   -0.28149E-04 38856   0.303E-02    0.148E-01
DAV:  13    -0.387275480613E+03   -0.54811E-04   -0.11343E-04 36568   0.250E-02    0.176E-01
DAV:  14    -0.387275469043E+03    0.11569E-04   -0.30919E-05 31008   0.182E-02    0.163E-01
DAV:  15    -0.387275453234E+03    0.15809E-04   -0.18941E-04 35632   0.228E-02    0.392E-02
DAV:  16    -0.387275476466E+03   -0.23232E-04   -0.44658E-05 28560   0.187E-02    0.633E-02
DAV:  17    -0.387275473634E+03    0.28326E-05   -0.13881E-05 21456   0.106E-02
  54 F= -.38727547E+03 E0= -.38726052E+03  d E =0.476048E-03  mag=    34.0000
       N       E                     dE             d eps       ncg     rms          rms(c)
DAV:   1    -0.387017585138E+03    0.25789E+00   -0.52469E+01 36832   0.218E+01    0.204E+00
DAV:   2    -0.387298985813E+03   -0.28140E+00   -0.27990E+00 35160   0.382E+00    0.613E+00
DAV:   3    -0.387286272117E+03    0.12714E-01   -0.13609E+00 49392   0.120E+00    0.508E+00
DAV:   4    -0.387273956064E+03    0.12316E-01   -0.10886E-01 47432   0.723E-01    0.268E+00
DAV:   5    -0.387271684352E+03    0.22717E-02   -0.22041E-02 51496   0.336E-01    0.214E+00
DAV:   6    -0.387270969206E+03    0.71515E-03   -0.42306E-03 50480   0.133E-01    0.167E+00
DAV:   7    -0.387271124174E+03   -0.15497E-03   -0.24159E-03 41968   0.115E-01    0.180E+00
DAV:   8    -0.387270428681E+03    0.69549E-03   -0.23147E-03 47736   0.986E-02    0.168E+00
DAV:   9    -0.387272014962E+03   -0.15863E-02   -0.14337E-03 45504   0.816E-02    0.184E+00
DAV:  10    -0.387271574336E+03    0.44063E-03   -0.24800E-02 49064   0.329E-01    0.166E+00
DAV:  11    -0.387270828179E+03    0.74616E-03   -0.37345E-02 48288   0.313E-01    0.110E+00
DAV:  12    -0.387272511690E+03   -0.16835E-02   -0.14978E-02 47192   0.258E-01    0.109E+00
DAV:  13    -0.387272755865E+03   -0.24417E-03   -0.44370E-03 46680   0.171E-01    0.916E-01
DAV:  14    -0.387272617874E+03    0.13799E-03   -0.94160E-03 43152   0.923E-02    0.915E-01
DAV:  15    -0.387274419097E+03   -0.18012E-02   -0.70974E-03 44040   0.126E-01    0.194E+00
DAV:  16    -0.387272797842E+03    0.16213E-02   -0.60160E-04 35888   0.746E-02    0.195E+00
DAV:  17    -0.387271219872E+03    0.15780E-02   -0.51031E-03 48832   0.138E-01    0.108E+00
DAV:  18    -0.387272221020E+03   -0.10011E-02   -0.73513E-03 44336   0.118E-01    0.288E-01
DAV:  19    -0.387273196455E+03   -0.97543E-03   -0.83908E-04 42048   0.963E-02    0.129E-01
DAV:  20    -0.387273279048E+03   -0.82594E-04   -0.22959E-04 42912   0.391E-02    0.107E-01
DAV:  21    -0.387273292426E+03   -0.13378E-04   -0.28331E-05 32568   0.174E-02    0.820E-02
DAV:  22    -0.387273300360E+03   -0.79333E-05   -0.45923E-05 35752   0.183E-02
  55 F= -.38727330E+03 E0= -.38725807E+03  d E =0.217327E-02  mag=    34.0000
       N       E                     dE             d eps       ncg     rms          rms(c)
DAV:   1    -0.387257867534E+03    0.15425E-01   -0.37119E+00 37000   0.610E+00    0.787E-01
DAV:   2    -0.387313782162E+03   -0.55915E-01   -0.57111E-01 40280   0.126E+00    0.531E+00
DAV:   3    -0.387266142798E+03    0.47639E-01   -0.22849E-01 43568   0.692E-01    0.667E-01
DAV:   4    -0.387280139172E+03   -0.13996E-01   -0.16703E-02 43600   0.288E-01    0.787E-01
DAV:   5    -0.387279550366E+03    0.58881E-03   -0.59604E-03 47336   0.174E-01    0.359E-01
DAV:   6    -0.387279961972E+03   -0.41161E-03   -0.19217E-03 46080   0.880E-02    0.412E-01
DAV:   7    -0.387279792059E+03    0.16991E-03   -0.64741E-04 43528   0.562E-02    0.378E-01
DAV:   8    -0.387279658684E+03    0.13337E-03   -0.12972E-04 34352   0.253E-02    0.438E-01
DAV:   9    -0.387279641525E+03    0.17160E-04   -0.56973E-05 31120   0.201E-02    0.437E-01
DAV:  10    -0.387279531451E+03    0.11007E-03   -0.81498E-04 44248   0.568E-02    0.242E-01
DAV:  11    -0.387279963675E+03   -0.43222E-03   -0.32776E-03 48256   0.942E-02    0.439E-01
DAV:  12    -0.387279821781E+03    0.14189E-03   -0.49035E-04 43704   0.663E-02    0.346E-01
DAV:  13    -0.387279817062E+03    0.47192E-05   -0.19686E-04 45088   0.411E-02    0.278E-01
DAV:  14    -0.387279886601E+03   -0.69539E-04   -0.35360E-04 45312   0.524E-02    0.161E-01
DAV:  15    -0.387279922407E+03   -0.35806E-04   -0.21353E-04 39824   0.368E-02    0.113E-01
DAV:  16    -0.387279934151E+03   -0.11743E-04   -0.40115E-05 30728   0.193E-02    0.114E-01
DAV:  17    -0.387279926823E+03    0.73275E-05   -0.38960E-05 28600   0.139E-02
  56 F= -.38727993E+03 E0= -.38726474E+03  d E =-.662646E-02  mag=    34.0000
       N       E                     dE             d eps       ncg     rms          rms(c)
DAV:   1    -0.387235931456E+03    0.44003E-01   -0.93533E+00 36624   0.919E+00    0.823E-01
DAV:   2    -0.387278606259E+03   -0.42675E-01   -0.43502E-01 34944   0.160E+00    0.540E-01
DAV:   3    -0.387286085236E+03   -0.74790E-02   -0.49150E-02 51584   0.324E-01    0.241E+00
DAV:   4    -0.387278437256E+03    0.76480E-02   -0.23625E-02 45184   0.222E-01    0.772E-01
DAV:   5    -0.387280123649E+03   -0.16864E-02   -0.15824E-03 44200   0.785E-02    0.668E-01
DAV:   6    -0.387280182185E+03   -0.58536E-04   -0.10657E-03 46104   0.695E-02    0.575E-01
DAV:   7    -0.387280405680E+03   -0.22350E-03   -0.15186E-04 38592   0.334E-02    0.566E-01
DAV:   8    -0.387280479937E+03   -0.74257E-04   -0.27066E-05 29816   0.123E-02    0.553E-01
DAV:   9    -0.387280526364E+03   -0.46427E-04   -0.58798E-04 42600   0.548E-02    0.497E-01
DAV:  10    -0.387280762149E+03   -0.23578E-03   -0.27747E-03 47600   0.112E-01    0.727E-01
DAV:  11    -0.387281284860E+03   -0.52271E-03   -0.36132E-03 46560   0.134E-01    0.133E+00
DAV:  12    -0.387280887531E+03    0.39733E-03   -0.14922E-03 45000   0.104E-01    0.158E+00
DAV:  13    -0.387279263226E+03    0.16243E-02   -0.18923E-03 48408   0.976E-02    0.101E+00
DAV:  14    -0.387279954056E+03   -0.69083E-03   -0.61761E-03 45640   0.104E-01    0.476E-01
DAV:  15    -0.387280524760E+03   -0.57070E-03   -0.73225E-04 39608   0.731E-02    0.506E-01
DAV:  16    -0.387280538272E+03   -0.13512E-04   -0.58730E-04 43664   0.572E-02    0.280E-01
DAV:  17    -0.387280783391E+03   -0.24512E-03   -0.66083E-04 45056   0.742E-02    0.179E-01
DAV:  18    -0.387280759404E+03    0.23987E-04   -0.27644E-04 40952   0.410E-02    0.878E-02
DAV:  19    -0.387280768153E+03   -0.87491E-05   -0.55793E-05 32616   0.212E-02
  57 F= -.38728077E+03 E0= -.38726572E+03  d E =-.841330E-03  mag=    34.0000
