       N       E                     dE             d eps       ncg     rms          rms(c)
DAV:   1     0.721708479623E+04    0.72171E+04   -0.25404E+05 33280   0.165E+03
DAV:   2     0.794407572826E+03   -0.64227E+04   -0.61062E+04 33448   0.515E+02
DAV:   3    -0.366347832984E+03   -0.11608E+04   -0.11359E+04 37072   0.211E+02
DAV:   4    -0.434159435360E+03   -0.67812E+02   -0.66043E+02 43616   0.531E+01
DAV:   5    -0.439414207771E+03   -0.52548E+01   -0.51279E+01 58824   0.123E+01    0.650E+01
DAV:   6    -0.402670824992E+03    0.36743E+02   -0.37711E+02 49912   0.568E+01    0.778E+01
DAV:   7    -0.424674468454E+03   -0.22004E+02   -0.59710E+02 48720   0.467E+01    0.487E+01
DAV:   8    -0.452719690339E+03   -0.28045E+02   -0.11844E+02 47800   0.350E+01    0.786E+01
DAV:   9    -0.406287671226E+03    0.46432E+02   -0.15372E+02 45608   0.194E+01    0.439E+01
DAV:  10    -0.397345909253E+03    0.89418E+01   -0.18983E+01 47136   0.114E+01    0.327E+01
DAV:  11    -0.395567736931E+03    0.17782E+01   -0.19360E+01 48528   0.987E+00    0.407E+01
DAV:  12    -0.389240760559E+03    0.63270E+01   -0.14777E+01 48904   0.117E+01    0.303E+01
DAV:  13    -0.393469969370E+03   -0.42292E+01   -0.25188E+01 48112   0.842E+00    0.329E+01
DAV:  14    -0.389789397860E+03    0.36806E+01   -0.11840E+01 44960   0.747E+00    0.241E+01
DAV:  15    -0.388874614635E+03    0.91478E+00   -0.86409E+00 45976   0.483E+00    0.179E+01
DAV:  16    -0.387841741572E+03    0.10329E+01   -0.75848E+00 46688   0.430E+00    0.170E+01
DAV:  17    -0.388909499077E+03   -0.10678E+01   -0.40252E+00 44704   0.320E+00    0.172E+01
DAV:  18    -0.389193190279E+03   -0.28369E+00   -0.12603E+00 46544   0.229E+00    0.171E+01
DAV:  19    -0.389454025243E+03   -0.26083E+00   -0.44449E-01 42152   0.105E+00    0.179E+01
DAV:  20    -0.389500937512E+03   -0.46912E-01   -0.66303E-02 43496   0.542E-01    0.178E+01
DAV:  21    -0.389175565714E+03    0.32537E+00   -0.53869E-01 46072   0.170E+00    0.173E+01
DAV:  22    -0.389142981392E+03    0.32584E-01   -0.12125E+00 46648   0.205E+00    0.141E+01
DAV:  23    -0.389131634088E+03    0.11347E-01   -0.68077E-01 47528   0.224E+00    0.113E+01
DAV:  24    -0.389227446248E+03   -0.95812E-01   -0.14283E+00 46440   0.264E+00    0.125E+01
DAV:  25    -0.389184685016E+03    0.42761E-01   -0.58294E-01 43664   0.196E+00    0.104E+01
DAV:  26    -0.389316990755E+03   -0.13231E+00   -0.32217E-01 46056   0.107E+00    0.990E+00
DAV:  27    -0.389461111418E+03   -0.14412E+00   -0.72945E-01 46232   0.137E+00    0.106E+01
DAV:  28    -0.389295648498E+03    0.16546E+00   -0.35414E-01 42936   0.130E+00    0.951E+00
DAV:  29    -0.389012841364E+03    0.28281E+00   -0.84912E-01 44240   0.114E+00    0.991E+00
DAV:  30    -0.389013558021E+03   -0.71666E-03   -0.10783E-01 39792   0.580E-01    0.923E+00
DAV:  31    -0.389092866648E+03   -0.79309E-01   -0.41585E-02 42024   0.391E-01    0.804E+00
DAV:  32    -0.389145788438E+03   -0.52922E-01   -0.14466E-01 45280   0.590E-01    0.765E+00
DAV:  33    -0.389257828234E+03   -0.11204E+00   -0.62085E-02 41624   0.447E-01    0.691E+00
DAV:  34    -0.389498722218E+03   -0.24089E+00   -0.69008E-02 41416   0.641E-01    0.561E+00
DAV:  35    -0.389684012941E+03   -0.18529E+00   -0.19264E-01 42744   0.690E-01    0.684E+00
DAV:  36    -0.389745441755E+03   -0.61429E-01   -0.28965E-02 38808   0.407E-01    0.588E+00
DAV:  37    -0.389823971100E+03   -0.78529E-01   -0.67656E-02 41752   0.528E-01    0.407E+00
DAV:  38    -0.389841652036E+03   -0.17681E-01   -0.11979E-02 40400   0.277E-01    0.356E+00
DAV:  39    -0.389855660923E+03   -0.14009E-01   -0.78614E-02 44632   0.498E-01    0.259E+00
DAV:  40    -0.389852183770E+03    0.34772E-02   -0.15027E-02 42720   0.311E-01    0.253E+00
DAV:  41    -0.389838554472E+03    0.13629E-01   -0.75340E-03 47504   0.249E-01    0.215E+00
DAV:  42    -0.389827990577E+03    0.10564E-01   -0.70693E-03 45760   0.235E-01    0.196E+00
DAV:  43    -0.389825751023E+03    0.22396E-02   -0.12840E-02 44240   0.194E-01    0.153E+00
DAV:  44    -0.389827404406E+03   -0.16534E-02   -0.13225E-03 42048   0.970E-02    0.139E+00
DAV:  45    -0.389830528529E+03   -0.31241E-02   -0.61923E-03 44496   0.217E-01    0.101E+00
DAV:  46    -0.389832761709E+03   -0.22332E-02   -0.15766E-03 42656   0.106E-01    0.883E-01
DAV:  47    -0.389832039818E+03    0.72189E-03   -0.12009E-02 46352   0.185E-01    0.121E+00
DAV:  48    -0.389831661733E+03    0.37808E-03   -0.44665E-04 34944   0.557E-02    0.121E+00
DAV:  49    -0.389831514735E+03    0.14700E-03   -0.17149E-05 30344   0.930E-03    0.121E+00
DAV:  50    -0.389831391053E+03    0.12368E-03   -0.16806E-05 21072   0.816E-03    0.118E+00
DAV:  51    -0.389832289789E+03   -0.89874E-03   -0.26121E-03 44264   0.758E-02    0.128E+00
DAV:  52    -0.389831827813E+03    0.46198E-03   -0.10871E-03 41312   0.549E-02    0.109E+00
DAV:  53    -0.389831988660E+03   -0.16085E-03   -0.30076E-03 44864   0.112E-01    0.103E+00
DAV:  54    -0.389832710223E+03   -0.72156E-03   -0.29389E-03 44744   0.127E-01    0.125E+00
DAV:  55    -0.389832709544E+03    0.67847E-06   -0.71470E-04 40776   0.766E-02    0.136E+00
DAV:  56    -0.389831989839E+03    0.71971E-03   -0.10877E-02 42624   0.236E-01    0.126E+00
DAV:  57    -0.389832383767E+03   -0.39393E-03   -0.12868E-03 38064   0.736E-02    0.146E+00
DAV:  58    -0.389833189200E+03   -0.80543E-03   -0.13741E-03 41672   0.111E-01    0.139E+00
DAV:  59    -0.389833392197E+03   -0.20300E-03   -0.45800E-04 39960   0.505E-02    0.135E+00
DAV:  60    -0.389833347494E+03    0.44703E-04   -0.98202E-05 36400   0.230E-02    0.132E+00
DAV:  61    -0.389836222922E+03   -0.28754E-02   -0.80653E-03 43568   0.155E-01    0.184E+00
DAV:  62    -0.389834975570E+03    0.12474E-02   -0.14889E-03 39600   0.822E-02    0.162E+00
DAV:  63    -0.389835654748E+03   -0.67918E-03   -0.77433E-03 41344   0.269E-01    0.141E+00
DAV:  64    -0.389836827659E+03   -0.11729E-02   -0.81616E-03 43216   0.216E-01    0.123E+00
DAV:  65    -0.389836713649E+03    0.11401E-03   -0.13207E-03 38672   0.105E-01    0.105E+00
DAV:  66    -0.389836631905E+03    0.81745E-04   -0.21847E-03 41800   0.747E-02    0.913E-01
DAV:  67    -0.389836297442E+03    0.33446E-03   -0.48868E-04 38808   0.671E-02    0.802E-01
DAV:  68    -0.389835956250E+03    0.34119E-03   -0.56927E-04 38840   0.650E-02    0.694E-01
DAV:  69    -0.389835578276E+03    0.37797E-03   -0.11530E-03 37368   0.101E-01    0.482E-01
DAV:  70    -0.389835559523E+03    0.18753E-04   -0.37958E-04 38592   0.462E-02    0.424E-01
DAV:  71    -0.389835311709E+03    0.24781E-03   -0.12773E-03 36856   0.109E-01    0.241E-01
DAV:  72    -0.389835218996E+03    0.92713E-04   -0.73365E-04 39528   0.602E-02    0.143E-01
DAV:  73    -0.389835135082E+03    0.83914E-04   -0.37947E-04 37712   0.551E-02    0.561E-02
DAV:  74    -0.389835139241E+03   -0.41588E-05   -0.10017E-04 37224   0.247E-02    0.558E-02
DAV:  75    -0.389835138986E+03    0.25550E-06   -0.64570E-05 28624   0.184E-02
   1 F= -.38983514E+03 E0= -.38981195E+03  d E =-.389835E+03  mag=    15.9925
       N       E                     dE             d eps       ncg     rms          rms(c)
DAV:   1    -0.389928007355E+03   -0.92868E-01   -0.16134E+01 35264   0.122E+01    0.305E+00
DAV:   2    -0.389903491199E+03    0.24516E-01   -0.14899E+00 33344   0.299E+00    0.281E+00
DAV:   3    -0.390042238657E+03   -0.13875E+00   -0.10629E+00 46904   0.191E+00    0.925E+00
DAV:   4    -0.389967395914E+03    0.74843E-01   -0.19507E+00 46656   0.155E+00    0.691E+00
DAV:   5    -0.389876244558E+03    0.91151E-01   -0.44735E-01 46624   0.100E+00    0.204E+00
DAV:   6    -0.389896728813E+03   -0.20484E-01   -0.24259E-01 48152   0.747E-01    0.349E+00
DAV:   7    -0.389898840484E+03   -0.21117E-02   -0.36507E-01 47256   0.657E-01    0.361E+00
DAV:   8    -0.389876722832E+03    0.22118E-01   -0.13745E-01 46568   0.513E-01    0.128E+00
DAV:   9    -0.389877592296E+03   -0.86946E-03   -0.29211E-02 47328   0.292E-01    0.121E+00
DAV:  10    -0.389876389492E+03    0.12028E-02   -0.10637E-02 48400   0.166E-01    0.655E-01
DAV:  11    -0.389876340436E+03    0.49056E-04   -0.35571E-03 45512   0.140E-01    0.541E-01
DAV:  12    -0.389876192870E+03    0.14757E-03   -0.14201E-03 44296   0.814E-02    0.432E-01
DAV:  13    -0.389876379157E+03   -0.18629E-03   -0.20132E-03 43480   0.862E-02    0.527E-01
DAV:  14    -0.389876028573E+03    0.35058E-03   -0.15370E-03 44272   0.746E-02    0.403E-01
DAV:  15    -0.389875981769E+03    0.46803E-04   -0.13798E-03 44200   0.828E-02    0.376E-01
DAV:  16    -0.389875888341E+03    0.93428E-04   -0.13809E-03 44688   0.650E-02    0.237E-01
DAV:  17    -0.389875929269E+03   -0.40927E-04   -0.46496E-04 38792   0.565E-02    0.229E-01
DAV:  18    -0.389875880406E+03    0.48863E-04   -0.34519E-04 33760   0.439E-02    0.140E-01
DAV:  19    -0.389875881547E+03   -0.11410E-05   -0.12393E-04 30056   0.257E-02    0.130E-01
DAV:  20    -0.389875856661E+03    0.24885E-04   -0.92123E-05 28952   0.280E-02    0.852E-02
DAV:  21    -0.389875845648E+03    0.11013E-04   -0.13453E-04 28976   0.182E-02    0.477E-02
DAV:  22    -0.389875852010E+03   -0.63620E-05   -0.49228E-05 23016   0.123E-02
   2 F= -.38987585E+03 E0= -.38985239E+03  d E =-.407130E-01  mag=    15.9989
       N       E                     dE             d eps       ncg     rms          rms(c)
DAV:   1    -0.389881436620E+03   -0.55910E-02   -0.11134E+00 35336   0.320E+00    0.804E-01
DAV:   2    -0.389879595138E+03    0.18415E-02   -0.10212E-01 33784   0.780E-01    0.722E-01
DAV:   3    -0.389888904927E+03   -0.93098E-02   -0.70965E-02 46920   0.479E-01    0.263E+00
DAV:   4    -0.389882423506E+03    0.64814E-02   -0.10602E-01 46592   0.425E-01    0.182E+00
DAV:   5    -0.389878322854E+03    0.41007E-02   -0.43607E-02 46200   0.275E-01    0.729E-01
DAV:   6    -0.389878714717E+03   -0.39186E-03   -0.16551E-02 46712   0.212E-01    0.613E-01
DAV:   7    -0.389878028156E+03    0.68656E-03   -0.58019E-03 47560   0.152E-01    0.353E-01
DAV:   8    -0.389877817330E+03    0.21083E-03   -0.14219E-03 47456   0.808E-02    0.169E-01
DAV:   9    -0.389877880988E+03   -0.63658E-04   -0.93081E-04 38944   0.492E-02    0.217E-01
DAV:  10    -0.389877815314E+03    0.65673E-04   -0.69151E-04 30672   0.397E-02    0.122E-01
DAV:  11    -0.389877799913E+03    0.15401E-04   -0.24441E-04 28664   0.250E-02    0.730E-02
DAV:  12    -0.389877797722E+03    0.21909E-05   -0.78217E-05 26776   0.187E-02
   3 F= -.38987780E+03 E0= -.38985436E+03  d E =-.426587E-01  mag=    15.9996
       N       E                     dE             d eps       ncg     rms          rms(c)
DAV:   1    -0.389860806897E+03    0.16993E-01   -0.16439E+01 35056   0.103E+01    0.112E+00
DAV:   2    -0.389924704756E+03   -0.63898E-01   -0.72864E-01 33648   0.202E+00    0.318E+00
DAV:   3    -0.389920474769E+03    0.42300E-02   -0.31388E-01 47512   0.743E-01    0.292E+00
DAV:   4    -0.389924162335E+03   -0.36876E-02   -0.23713E-01 46864   0.615E-01    0.291E+00
DAV:   5    -0.389909903885E+03    0.14258E-01   -0.12642E-01 46912   0.526E-01    0.139E+00
DAV:   6    -0.389908280221E+03    0.16237E-02   -0.40448E-02 46424   0.300E-01    0.895E-01
DAV:   7    -0.389910203611E+03   -0.19234E-02   -0.39302E-02 47368   0.261E-01    0.148E+00
DAV:   8    -0.389907421505E+03    0.27821E-02   -0.21537E-02 46928   0.217E-01    0.677E-01
DAV:   9    -0.389907153013E+03    0.26849E-03   -0.39975E-03 46896   0.129E-01    0.506E-01
DAV:  10    -0.389907044547E+03    0.10847E-03   -0.18749E-03 44896   0.821E-02    0.326E-01
DAV:  11    -0.389906885717E+03    0.15883E-03   -0.94260E-04 42528   0.710E-02    0.191E-01
DAV:  12    -0.389906930275E+03   -0.44558E-04   -0.49299E-04 34256   0.501E-02    0.233E-01
DAV:  13    -0.389906866773E+03    0.63502E-04   -0.74200E-04 36760   0.621E-02    0.210E-01
DAV:  14    -0.389906983140E+03   -0.11637E-03   -0.10920E-03 38056   0.600E-02    0.281E-01
DAV:  15    -0.389906847543E+03    0.13560E-03   -0.73768E-04 33816   0.536E-02    0.984E-02
DAV:  16    -0.389906869692E+03   -0.22149E-04   -0.10750E-04 28856   0.272E-02    0.941E-02
DAV:  17    -0.389906861493E+03    0.81994E-05   -0.72441E-05 27896   0.230E-02
   4 F= -.38990686E+03 E0= -.38988327E+03  d E =-.290638E-01  mag=    15.9999
       N       E                     dE             d eps       ncg     rms          rms(c)
DAV:   1    -0.389683303074E+03    0.22357E+00   -0.86397E+01 34968   0.236E+01    0.264E+00
DAV:   2    -0.390018830165E+03   -0.33553E+00   -0.39007E+00 33912   0.468E+00    0.676E+00
DAV:   3    -0.390013247718E+03    0.55824E-02   -0.14525E+00 46976   0.170E+00    0.641E+00
DAV:   4    -0.390021853840E+03   -0.86061E-02   -0.11893E+00 47240   0.142E+00    0.684E+00
DAV:   5    -0.389955751799E+03    0.66102E-01   -0.91657E-01 46872   0.116E+00    0.383E+00
DAV:   6    -0.389944523088E+03    0.11229E-01   -0.31091E-01 46920   0.760E-01    0.294E+00
DAV:   7    -0.389940680389E+03    0.38427E-02   -0.17946E-01 47824   0.544E-01    0.257E+00
DAV:   8    -0.389939578059E+03    0.11023E-02   -0.11695E-01 47664   0.534E-01    0.202E+00
DAV:   9    -0.389936331790E+03    0.32463E-02   -0.34599E-02 47496   0.401E-01    0.158E+00
DAV:  10    -0.389934604742E+03    0.17270E-02   -0.11285E-02 46960   0.213E-01    0.919E-01
DAV:  11    -0.389933809852E+03    0.79489E-03   -0.37948E-03 45104   0.148E-01    0.743E-01
DAV:  12    -0.389933864874E+03   -0.55022E-04   -0.44215E-03 45176   0.136E-01    0.867E-01
DAV:  13    -0.389933714906E+03    0.14997E-03   -0.72218E-03 46256   0.192E-01    0.870E-01
DAV:  14    -0.389934062891E+03   -0.34799E-03   -0.19140E-02 47272   0.208E-01    0.965E-01
DAV:  15    -0.389932460895E+03    0.16020E-02   -0.62817E-03 46672   0.168E-01    0.401E-01
DAV:  16    -0.389932598525E+03   -0.13763E-03   -0.15524E-03 45000   0.921E-02    0.344E-01
DAV:  17    -0.389932547049E+03    0.51477E-04   -0.16484E-03 43608   0.732E-02    0.263E-01
DAV:  18    -0.389932529196E+03    0.17853E-04   -0.10058E-03 40712   0.576E-02    0.220E-01
DAV:  19    -0.389932491169E+03    0.38026E-04   -0.41257E-04 35112   0.519E-02    0.162E-01
DAV:  20    -0.389932475685E+03    0.15485E-04   -0.29553E-04 32984   0.384E-02    0.100E-01
DAV:  21    -0.389932501822E+03   -0.26138E-04   -0.14926E-04 29128   0.303E-02    0.110E-01
DAV:  22    -0.389932488391E+03    0.13431E-04   -0.10373E-04 28904   0.246E-02    0.655E-02
DAV:  23    -0.389932492081E+03   -0.36906E-05   -0.30433E-05 23976   0.117E-02
   5 F= -.38993249E+03 E0= -.38990888E+03  d E =-.546944E-01  mag=    16.0000
       N       E                     dE             d eps       ncg     rms          rms(c)
DAV:   1    -0.389849370001E+03    0.83118E-01   -0.19670E+01 35336   0.129E+01    0.120E+00
DAV:   2    -0.389949763597E+03   -0.10039E+00   -0.11259E+00 33328   0.252E+00    0.152E+00
DAV:   3    -0.389968430749E+03   -0.18667E-01   -0.22907E-01 48576   0.779E-01    0.339E+00
DAV:   4    -0.389958220892E+03    0.10210E-01   -0.24383E-01 47552   0.559E-01    0.282E+00
DAV:   5    -0.389947949541E+03    0.10271E-01   -0.92292E-02 48776   0.378E-01    0.108E+00
DAV:   6    -0.389949597478E+03   -0.16479E-02   -0.33603E-02 47152   0.280E-01    0.134E+00
DAV:   7    -0.389953902595E+03   -0.43051E-02   -0.72486E-02 47152   0.328E-01    0.214E+00
DAV:   8    -0.389947020585E+03    0.68820E-02   -0.56260E-02 46320   0.302E-01    0.691E-01
DAV:   9    -0.389947357273E+03   -0.33669E-03   -0.94847E-03 47312   0.188E-01    0.567E-01
DAV:  10    -0.389947062571E+03    0.29470E-03   -0.41294E-03 45088   0.118E-01    0.395E-01
DAV:  11    -0.389946908467E+03    0.15410E-03   -0.60298E-04 42512   0.579E-02    0.278E-01
DAV:  12    -0.389946897698E+03    0.10769E-04   -0.11503E-04 30112   0.239E-02    0.264E-01
DAV:  13    -0.389946972946E+03   -0.75248E-04   -0.59737E-04 34208   0.492E-02    0.356E-01
DAV:  14    -0.389947035446E+03   -0.62500E-04   -0.34907E-03 43312   0.839E-02    0.438E-01
DAV:  15    -0.389946750198E+03    0.28525E-03   -0.13555E-03 42072   0.746E-02    0.211E-01
DAV:  16    -0.389946740888E+03    0.93106E-05   -0.55752E-04 37744   0.488E-02    0.127E-01
DAV:  17    -0.389946718431E+03    0.22457E-04   -0.19602E-04 32600   0.379E-02    0.829E-02
DAV:  18    -0.389946711670E+03    0.67610E-05   -0.94610E-05 28696   0.250E-02
   6 F= -.38994671E+03 E0= -.38992288E+03  d E =-.142196E-01  mag=    16.0000
       N       E                     dE             d eps       ncg     rms          rms(c)
DAV:   1    -0.389944210894E+03    0.25075E-02   -0.55747E-01 35096   0.217E+00    0.223E-01
DAV:   2    -0.389947617936E+03   -0.34070E-02   -0.35238E-02 33896   0.439E-01    0.635E-01
DAV:   3    -0.389947498167E+03    0.11977E-03   -0.13215E-02 46608   0.178E-01    0.598E-01
DAV:   4    -0.389947464733E+03    0.33435E-04   -0.81827E-03 47120   0.114E-01    0.548E-01
DAV:   5    -0.389947172455E+03    0.29228E-03   -0.35900E-03 44240   0.863E-02    0.372E-01
DAV:   6    -0.389947026795E+03    0.14566E-03   -0.17098E-03 39000   0.598E-02    0.195E-01
DAV:   7    -0.389947084059E+03   -0.57264E-04   -0.10377E-03 33328   0.467E-02    0.256E-01
DAV:   8    -0.389946971221E+03    0.11284E-03   -0.68450E-04 37288   0.485E-02    0.995E-02
DAV:   9    -0.389946981282E+03   -0.10061E-04   -0.28544E-04 30120   0.353E-02    0.110E-01
DAV:  10    -0.389946977331E+03    0.39504E-05   -0.17094E-04 29168   0.262E-02    0.899E-02
DAV:  11    -0.389946973069E+03    0.42626E-05   -0.83140E-05 28424   0.192E-02
   7 F= -.38994697E+03 E0= -.38992317E+03  d E =-.144810E-01  mag=    16.0000
       N       E                     dE             d eps       ncg     rms          rms(c)
DAV:   1    -0.389911635036E+03    0.35342E-01   -0.10510E+01 35184   0.891E+00    0.723E-01
DAV:   2    -0.389964104590E+03   -0.52470E-01   -0.52963E-01 33328   0.169E+00    0.221E+00
DAV:   3    -0.389963161808E+03    0.94278E-03   -0.14024E-01 46312   0.520E-01    0.203E+00
DAV:   4    -0.389964345980E+03   -0.11842E-02   -0.10755E-01 49128   0.400E-01    0.188E+00
DAV:   5    -0.389957743636E+03    0.66023E-02   -0.31225E-02 46464   0.296E-01    0.435E-01
DAV:   6    -0.389958341919E+03   -0.59828E-03   -0.64834E-03 47792   0.157E-01    0.592E-01
DAV:   7    -0.389959296813E+03   -0.95489E-03   -0.17434E-02 46232   0.157E-01    0.102E+00
DAV:   8    -0.389957628115E+03    0.16687E-02   -0.11722E-02 46696   0.150E-01    0.338E-01
DAV:   9    -0.389957861431E+03   -0.23332E-03   -0.19298E-03 46568   0.908E-02    0.370E-01
DAV:  10    -0.389957622143E+03    0.23929E-03   -0.11427E-03 43536   0.706E-02    0.177E-01
DAV:  11    -0.389957627783E+03   -0.56405E-05   -0.50845E-04 33608   0.520E-02    0.162E-01
DAV:  12    -0.389957622255E+03    0.55283E-05   -0.63530E-04 33920   0.476E-02    0.161E-01
DAV:  13    -0.389957638024E+03   -0.15769E-04   -0.37878E-04 30200   0.410E-02    0.178E-01
DAV:  14    -0.389957622614E+03    0.15410E-04   -0.52690E-04 29504   0.347E-02    0.118E-01
DAV:  15    -0.389957611428E+03    0.11186E-04   -0.10181E-04 27544   0.235E-02    0.739E-02
DAV:  16    -0.389957606882E+03    0.45465E-05   -0.77683E-05 25968   0.162E-02
   8 F= -.38995761E+03 E0= -.38993379E+03  d E =-.106338E-01  mag=    16.0000
       N       E                     dE             d eps       ncg     rms          rms(c)
DAV:   1    -0.389769349635E+03    0.18826E+00   -0.43332E+01 35344   0.181E+01    0.149E+00
DAV:   2    -0.389991725138E+03   -0.22238E+00   -0.22634E+00 33336   0.346E+00    0.470E+00
DAV:   3    -0.389979996211E+03    0.11729E-01   -0.63123E-01 46136   0.103E+00    0.372E+00
DAV:   4    -0.389984284425E+03   -0.42882E-02   -0.46379E-01 48928   0.797E-01    0.331E+00
DAV:   5    -0.389962349195E+03    0.21935E-01   -0.10195E-01 47872   0.581E-01    0.125E+00
DAV:   6    -0.389962147593E+03    0.20160E-03   -0.37921E-02 49512   0.302E-01    0.109E+00
DAV:   7    -0.389966054378E+03   -0.39068E-02   -0.54408E-02 47424   0.319E-01    0.183E+00
DAV:   8    -0.389960997195E+03    0.50572E-02   -0.32631E-02 47784   0.293E-01    0.946E-01
DAV:   9    -0.389961255038E+03   -0.25784E-03   -0.14412E-02 46328   0.205E-01    0.698E-01
DAV:  10    -0.389960467279E+03    0.78776E-03   -0.46196E-03 45072   0.171E-01    0.453E-01
DAV:  11    -0.389960548467E+03   -0.81187E-04   -0.49207E-03 44592   0.134E-01    0.483E-01
DAV:  12    -0.389960847127E+03   -0.29866E-03   -0.54353E-03 45488   0.130E-01    0.772E-01
DAV:  13    -0.389960588848E+03    0.25828E-03   -0.38847E-03 44312   0.122E-01    0.590E-01
DAV:  14    -0.389960167643E+03    0.42121E-03   -0.70987E-03 44864   0.121E-01    0.337E-01
DAV:  15    -0.389960214007E+03   -0.46365E-04   -0.17175E-03 41976   0.752E-02    0.234E-01
DAV:  16    -0.389960138282E+03    0.75725E-04   -0.55899E-04 35040   0.520E-02    0.120E-01
DAV:  17    -0.389960181990E+03   -0.43708E-04   -0.28220E-04 29720   0.329E-02    0.173E-01
DAV:  18    -0.389960149801E+03    0.32189E-04   -0.29069E-04 29376   0.322E-02    0.105E-01
DAV:  19    -0.389960159869E+03   -0.10068E-04   -0.18143E-04 29200   0.283E-02    0.886E-02
DAV:  20    -0.389960144459E+03    0.15411E-04   -0.79947E-05 27992   0.220E-02    0.508E-02
DAV:  21    -0.389960146720E+03   -0.22611E-05   -0.15487E-05 21880   0.917E-03
   9 F= -.38996015E+03 E0= -.38993639E+03  d E =-.131737E-01  mag=    16.0000
       N       E                     dE             d eps       ncg     rms          rms(c)
DAV:   1    -0.389932956086E+03    0.27188E-01   -0.66714E+00 35200   0.711E+00    0.563E-01
DAV:   2    -0.389965517514E+03   -0.32561E-01   -0.32476E-01 33328   0.134E+00    0.158E+00
DAV:   3    -0.389966229979E+03   -0.71246E-03   -0.83682E-02 46936   0.402E-01    0.167E+00
DAV:   4    -0.389966537217E+03   -0.30724E-03   -0.72604E-02 49408   0.309E-01    0.182E+00
DAV:   5    -0.389962446367E+03    0.40908E-02   -0.43430E-02 46216   0.236E-01    0.579E-01
DAV:   6    -0.389962619772E+03   -0.17341E-03   -0.82824E-03 45360   0.128E-01    0.454E-01
DAV:   7    -0.389963003036E+03   -0.38326E-03   -0.67924E-03 46384   0.125E-01    0.622E-01
DAV:   8    -0.389962207399E+03    0.79564E-03   -0.49566E-03 47256   0.125E-01    0.224E-01
DAV:   9    -0.389962355225E+03   -0.14783E-03   -0.16657E-03 45376   0.808E-02    0.308E-01
DAV:  10    -0.389962229311E+03    0.12591E-03   -0.90827E-04 40648   0.563E-02    0.144E-01
DAV:  11    -0.389962214700E+03    0.14611E-04   -0.18182E-04 29104   0.342E-02    0.107E-01
DAV:  12    -0.389962209560E+03    0.51408E-05   -0.52371E-05 27216   0.184E-02
  10 F= -.38996221E+03 E0= -.38993858E+03  d E =-.152365E-01  mag=    16.0000
       N       E                     dE             d eps       ncg     rms          rms(c)
DAV:   1    -0.389902447811E+03    0.59767E-01   -0.13836E+01 34720   0.106E+01    0.901E-01
DAV:   2    -0.389974871773E+03   -0.72424E-01   -0.76811E-01 33312   0.204E+00    0.179E+00
DAV:   3    -0.389985397525E+03   -0.10526E-01   -0.21258E-01 46984   0.647E-01    0.317E+00
DAV:   4    -0.389978944868E+03    0.64527E-02   -0.19987E-01 48136   0.515E-01    0.233E+00
DAV:   5    -0.389970246304E+03    0.86986E-02   -0.52884E-02 47272   0.353E-01    0.552E-01
DAV:   6    -0.389971005463E+03   -0.75916E-03   -0.60063E-03 50456   0.197E-01    0.637E-01
DAV:   7    -0.389972061032E+03   -0.10556E-02   -0.19285E-02 47064   0.205E-01    0.108E+00
DAV:   8    -0.389970183885E+03    0.18771E-02   -0.19785E-02 47112   0.184E-01    0.471E-01
DAV:   9    -0.389970483775E+03   -0.29989E-03   -0.43634E-03 46000   0.110E-01    0.483E-01
DAV:  10    -0.389970176806E+03    0.30697E-03   -0.21864E-03 43216   0.875E-02    0.235E-01
DAV:  11    -0.389970156324E+03    0.20482E-04   -0.25575E-04 34240   0.364E-02    0.189E-01
DAV:  12    -0.389970139050E+03    0.17274E-04   -0.93379E-05 28800   0.242E-02    0.173E-01
DAV:  13    -0.389970152821E+03   -0.13771E-04   -0.39534E-04 30400   0.354E-02    0.216E-01
DAV:  14    -0.389970094084E+03    0.58737E-04   -0.71928E-04 36472   0.461E-02    0.123E-01
DAV:  15    -0.389970121478E+03   -0.27393E-04   -0.29191E-04 31512   0.411E-02    0.147E-01
DAV:  16    -0.389970090673E+03    0.30805E-04   -0.23144E-04 29480   0.327E-02    0.644E-02
DAV:  17    -0.389970103741E+03   -0.13068E-04   -0.12029E-04 27992   0.209E-02    0.872E-02
DAV:  18    -0.389970092659E+03    0.11082E-04   -0.54034E-05 25792   0.177E-02    0.420E-02
DAV:  19    -0.389970094379E+03   -0.17195E-05   -0.25620E-05 20536   0.995E-03
  11 F= -.38997009E+03 E0= -.38994649E+03  d E =-.788482E-02  mag=    16.0000
       N       E                     dE             d eps       ncg     rms          rms(c)
DAV:   1    -0.389944580498E+03    0.25512E-01   -0.54647E+00 34888   0.665E+00    0.560E-01
DAV:   2    -0.389973323511E+03   -0.28743E-01   -0.30089E-01 33416   0.128E+00    0.120E+00
DAV:   3    -0.389976553145E+03   -0.32296E-02   -0.77428E-02 47432   0.416E-01    0.190E+00
DAV:   4    -0.389975028717E+03    0.15244E-02   -0.64315E-02 48184   0.325E-01    0.161E+00
DAV:   5    -0.389971116245E+03    0.39125E-02   -0.23323E-02 48480   0.221E-01    0.409E-01
DAV:   6    -0.389971435195E+03   -0.31895E-03   -0.52173E-03 48248   0.127E-01    0.434E-01
DAV:   7    -0.389972107257E+03   -0.67206E-03   -0.10622E-02 47376   0.124E-01    0.808E-01
DAV:   8    -0.389970983004E+03    0.11243E-02   -0.60321E-03 46120   0.121E-01    0.194E-01
DAV:   9    -0.389971156472E+03   -0.17347E-03   -0.11534E-03 45552   0.789E-02    0.242E-01
DAV:  10    -0.389971057294E+03    0.99178E-04   -0.44413E-04 37632   0.538E-02    0.130E-01
DAV:  11    -0.389971056119E+03    0.11741E-05   -0.89462E-05 28520   0.220E-02
  12 F= -.38997106E+03 E0= -.38994758E+03  d E =-.884656E-02  mag=    16.0000
       N       E                     dE             d eps       ncg     rms          rms(c)
DAV:   1    -0.389920124264E+03    0.50933E-01   -0.13009E+01 35000   0.990E+00    0.763E-01
DAV:   2    -0.389979920998E+03   -0.59797E-01   -0.61756E-01 33352   0.185E+00    0.152E+00
DAV:   3    -0.389983941800E+03   -0.40208E-02   -0.14017E-01 48040   0.570E-01    0.206E+00
DAV:   4    -0.389981383464E+03    0.25583E-02   -0.93241E-02 46992   0.361E-01    0.177E+00
DAV:   5    -0.389976857146E+03    0.45263E-02   -0.41040E-02 48616   0.295E-01    0.806E-01
DAV:   6    -0.389977029216E+03   -0.17207E-03   -0.14354E-02 47912   0.187E-01    0.785E-01
DAV:   7    -0.389977334221E+03   -0.30501E-03   -0.15186E-02 46632   0.161E-01    0.880E-01
DAV:   8    -0.389976041207E+03    0.12930E-02   -0.70760E-03 47128   0.170E-01    0.445E-01
DAV:   9    -0.389975973547E+03    0.67660E-04   -0.28810E-03 47144   0.981E-02    0.334E-01
DAV:  10    -0.389975930710E+03    0.42837E-04   -0.11420E-03 43832   0.679E-02    0.234E-01
DAV:  11    -0.389975839004E+03    0.91706E-04   -0.58188E-04 35904   0.488E-02    0.125E-01
DAV:  12    -0.389975849896E+03   -0.10892E-04   -0.24711E-04 29224   0.324E-02    0.149E-01
DAV:  13    -0.389975805818E+03    0.44078E-04   -0.18993E-04 29792   0.349E-02    0.100E-01
DAV:  14    -0.389975883791E+03   -0.77973E-04   -0.32587E-04 31840   0.454E-02    0.175E-01
DAV:  15    -0.389975818775E+03    0.65015E-04   -0.36285E-04 30456   0.439E-02    0.669E-02
DAV:  16    -0.389975831644E+03   -0.12869E-04   -0.63689E-05 28584   0.211E-02    0.740E-02
DAV:  17    -0.389975823911E+03    0.77329E-05   -0.40204E-05 25480   0.182E-02
  13 F= -.38997582E+03 E0= -.38995224E+03  d E =-.476779E-02  mag=    16.0000
       N       E                     dE             d eps       ncg     rms          rms(c)
DAV:   1    -0.389972476793E+03    0.33549E-02   -0.81486E-01 34976   0.248E+00    0.195E-01
DAV:   2    -0.389976164221E+03   -0.36874E-02   -0.38108E-02 33576   0.464E-01    0.329E-01
DAV:   3    -0.389976504220E+03   -0.34000E-03   -0.56245E-03 48944   0.149E-01    0.519E-01
DAV:   4    -0.389976406471E+03    0.97749E-04   -0.54530E-03 46424   0.104E-01    0.544E-01
DAV:   5    -0.389976002570E+03    0.40390E-03   -0.27295E-03 40584   0.715E-02    0.183E-01
DAV:   6    -0.389976006203E+03   -0.36331E-05   -0.56066E-04 32528   0.416E-02    0.129E-01
DAV:   7    -0.389976133341E+03   -0.12714E-03   -0.14365E-03 35744   0.491E-02    0.319E-01
DAV:   8    -0.389975961092E+03    0.17225E-03   -0.11983E-03 37336   0.441E-02    0.580E-02
DAV:   9    -0.389975983441E+03   -0.22349E-04   -0.13704E-04 28464   0.257E-02    0.752E-02
DAV:  10    -0.389975974174E+03    0.92672E-05   -0.75190E-05 26336   0.194E-02
  14 F= -.38997597E+03 E0= -.38995243E+03  d E =-.491805E-02  mag=    16.0000
       N       E                     dE             d eps       ncg     rms          rms(c)
DAV:   1    -0.389943935143E+03    0.32048E-01   -0.81875E+00 34984   0.783E+00    0.587E-01
DAV:   2    -0.389981840421E+03   -0.37905E-01   -0.38544E-01 33280   0.146E+00    0.111E+00
DAV:   3    -0.389986433663E+03   -0.45932E-02   -0.82331E-02 47640   0.455E-01    0.196E+00
DAV:   4    -0.389984068637E+03    0.23650E-02   -0.83618E-02 47872   0.336E-01    0.173E+00
DAV:   5    -0.389979736799E+03    0.43318E-02   -0.23591E-02 49144   0.226E-01    0.395E-01
DAV:   6    -0.389980084757E+03   -0.34796E-03   -0.39871E-03 47176   0.125E-01    0.427E-01
DAV:   7    -0.389980083823E+03    0.93366E-06   -0.47167E-03 46320   0.121E-01    0.547E-01
DAV:   8    -0.389979796713E+03    0.28711E-03   -0.58400E-03 45968   0.110E-01    0.392E-01
DAV:   9    -0.389979786761E+03    0.99528E-05   -0.24986E-03 44976   0.761E-02    0.327E-01
DAV:  10    -0.389979680849E+03    0.10591E-03   -0.11647E-03 40448   0.514E-02    0.171E-01
DAV:  11    -0.389979659886E+03    0.20963E-04   -0.16181E-04 28608   0.283E-02    0.129E-01
DAV:  12    -0.389979662937E+03   -0.30514E-05   -0.12354E-04 28872   0.225E-02    0.141E-01
DAV:  13    -0.389979641832E+03    0.21106E-04   -0.18712E-04 29208   0.267E-02    0.134E-01
DAV:  14    -0.389979695468E+03   -0.53637E-04   -0.34610E-04 30832   0.415E-02    0.177E-01
DAV:  15    -0.389979625523E+03    0.69946E-04   -0.34392E-04 31808   0.442E-02    0.591E-02
DAV:  16    -0.389979639525E+03   -0.14002E-04   -0.72162E-05 27504   0.199E-02    0.661E-02
DAV:  17    -0.389979632912E+03    0.66122E-05   -0.43218E-05 26008   0.178E-02
  15 F= -.38997963E+03 E0= -.38995618E+03  d E =-.365874E-02  mag=    16.0000
       N       E                     dE             d eps       ncg     rms          rms(c)
DAV:   1    -0.389972277627E+03    0.73619E-02   -0.17041E+00 34904   0.357E+00    0.268E-01
DAV:   2    -0.389980305426E+03   -0.80278E-02   -0.81151E-02 33472   0.667E-01    0.576E-01
DAV:   3    -0.389981258804E+03   -0.95338E-03   -0.19463E-02 47104   0.202E-01    0.978E-01
DAV:   4    -0.389980513991E+03    0.74481E-03   -0.14727E-02 47680   0.153E-01    0.693E-01
DAV:   5    -0.389979785239E+03    0.72875E-03   -0.32464E-03 49024   0.102E-01    0.155E-01
DAV:   6    -0.389979881394E+03   -0.96154E-04   -0.93708E-04 38240   0.595E-02    0.225E-01
DAV:   7    -0.389979921732E+03   -0.40339E-04   -0.17583E-03 43192   0.603E-02    0.323E-01
DAV:   8    -0.389979771776E+03    0.14996E-03   -0.16227E-03 39792   0.553E-02    0.153E-01
DAV:   9    -0.389979789635E+03   -0.17859E-04   -0.37115E-04 31560   0.380E-02    0.145E-01
DAV:  10    -0.389979763245E+03    0.26390E-04   -0.15938E-04 28992   0.272E-02    0.702E-02
DAV:  11    -0.389979762516E+03    0.72930E-06   -0.25447E-05 25112   0.141E-02
  16 F= -.38997976E+03 E0= -.38995631E+03  d E =-.378834E-02  mag=    16.0000
       N       E                     dE             d eps       ncg     rms          rms(c)
DAV:   1    -0.389934332133E+03    0.45431E-01   -0.92970E+00 34816   0.865E+00    0.695E-01
DAV:   2    -0.389984893653E+03   -0.50562E-01   -0.50794E-01 33280   0.164E+00    0.147E+00
DAV:   3    -0.389986094412E+03   -0.12008E-02   -0.63821E-02 47248   0.502E-01    0.155E+00
DAV:   4    -0.389986703868E+03   -0.60946E-03   -0.67245E-02 47456   0.349E-01    0.175E+00
DAV:   5    -0.389982288613E+03    0.44153E-02   -0.41818E-02 47648   0.226E-01    0.534E-01
DAV:   6    -0.389982721642E+03   -0.43303E-03   -0.50869E-03 49904   0.135E-01    0.513E-01
DAV:   7    -0.389982918772E+03   -0.19713E-03   -0.74958E-03 46472   0.141E-01    0.699E-01
DAV:   8    -0.389982213234E+03    0.70554E-03   -0.76112E-03 46352   0.102E-01    0.304E-01
DAV:   9    -0.389982383269E+03   -0.17004E-03   -0.20004E-03 43960   0.791E-02    0.384E-01
DAV:  10    -0.389982205451E+03    0.17782E-03   -0.11654E-03 39112   0.599E-02    0.226E-01
DAV:  11    -0.389982180500E+03    0.24951E-04   -0.43556E-04 32136   0.425E-02    0.211E-01
DAV:  12    -0.389982166876E+03    0.13624E-04   -0.71190E-04 32656   0.404E-02    0.187E-01
DAV:  13    -0.389982125700E+03    0.41176E-04   -0.58554E-04 34136   0.518E-02    0.135E-01
DAV:  14    -0.389982171780E+03   -0.46080E-04   -0.40780E-04 32888   0.427E-02    0.150E-01
DAV:  15    -0.389982143426E+03    0.28355E-04   -0.15706E-04 29096   0.319E-02    0.671E-02
DAV:  16    -0.389982144118E+03   -0.69191E-06   -0.43194E-05 25680   0.175E-02
  17 F= -.38998214E+03 E0= -.38995880E+03  d E =-.238160E-02  mag=    16.0000
       N       E                     dE             d eps       ncg     rms          rms(c)
DAV:   1    -0.389980939383E+03    0.12040E-02   -0.23523E-01 34688   0.138E+00    0.125E-01
DAV:   2    -0.389982427013E+03   -0.14876E-02   -0.14049E-02 33784   0.268E-01    0.411E-01
DAV:   3    -0.389982332381E+03    0.94631E-04   -0.46361E-03 43616   0.104E-01    0.373E-01
DAV:   4    -0.389982294819E+03    0.37562E-04   -0.21265E-03 41600   0.640E-02    0.292E-01
DAV:   5    -0.389982173056E+03    0.12176E-03   -0.75444E-04 34688   0.479E-02    0.128E-01
DAV:   6    -0.389982159144E+03    0.13912E-04   -0.24178E-04 29400   0.292E-02    0.786E-02
DAV:   7    -0.389982214697E+03   -0.55554E-04   -0.50130E-04 29272   0.296E-02    0.198E-01
DAV:   8    -0.389982157522E+03    0.57175E-04   -0.43120E-04 28928   0.314E-02    0.680E-02
DAV:   9    -0.389982161690E+03   -0.41674E-05   -0.65150E-05 26416   0.178E-02
  18 F= -.38998216E+03 E0= -.38995884E+03  d E =-.239917E-02  mag=    16.0000
       N       E                     dE             d eps       ncg     rms          rms(c)
DAV:   1    -0.389962105543E+03    0.20052E-01   -0.46809E+00 35216   0.613E+00    0.489E-01
DAV:   2    -0.389987314384E+03   -0.25209E-01   -0.24905E-01 33384   0.116E+00    0.150E+00
DAV:   3    -0.389985853183E+03    0.14612E-02   -0.54632E-02 46056   0.339E-01    0.116E+00
DAV:   4    -0.389987708970E+03   -0.18558E-02   -0.45704E-02 48496   0.261E-01    0.153E+00
DAV:   5    -0.389984335517E+03    0.33735E-02   -0.28356E-02 46576   0.229E-01    0.492E-01
DAV:   6    -0.389984478957E+03   -0.14344E-03   -0.38998E-03 48600   0.114E-01    0.425E-01
DAV:   7    -0.389984918668E+03   -0.43971E-03   -0.63370E-03 46456   0.113E-01    0.677E-01
DAV:   8    -0.389984231381E+03    0.68729E-03   -0.64470E-03 46144   0.116E-01    0.345E-01
DAV:   9    -0.389984183968E+03    0.47413E-04   -0.17169E-03 44376   0.788E-02    0.220E-01
DAV:  10    -0.389984140667E+03    0.43301E-04   -0.47534E-04 32952   0.429E-02    0.137E-01
DAV:  11    -0.389984138915E+03    0.17523E-05   -0.16305E-04 28672   0.304E-02    0.132E-01
DAV:  12    -0.389984132588E+03    0.63268E-05   -0.17508E-04 29000   0.276E-02    0.134E-01
DAV:  13    -0.389984118218E+03    0.14370E-04   -0.20902E-04 28648   0.286E-02    0.965E-02
DAV:  14    -0.389984142675E+03   -0.24458E-04   -0.17242E-04 29072   0.304E-02    0.120E-01
DAV:  15    -0.389984114919E+03    0.27757E-04   -0.16319E-04 29048   0.296E-02    0.432E-02
DAV:  16    -0.389984119151E+03   -0.42323E-05   -0.25509E-05 23976   0.139E-02
  19 F= -.38998412E+03 E0= -.38996082E+03  d E =-.195746E-02  mag=    16.0000
