       N       E                     dE             d eps       ncg     rms          ort
DAV:   1     0.579217824223E+04    0.57922E+04   -0.23480E+05  7072   0.164E+03
DAV:   2     0.564983481044E+03   -0.52272E+04   -0.49000E+04  7072   0.473E+02
DAV:   3    -0.373573581071E+03   -0.93856E+03   -0.91218E+03  7072   0.205E+02
DAV:   4    -0.416444754991E+03   -0.42871E+02   -0.41863E+02  7072   0.486E+01
DAV:   5    -0.418258058751E+03   -0.18133E+01   -0.17402E+01  7072   0.949E+00
SDA:   6    -0.175149571085E+03    0.24311E+03   -0.17402E+01  7072   0.274E+04 0.000E+00
CGA:   7    -0.222114521979E+03   -0.46965E+02   -0.26410E+03  7072   0.107E+04-0.188E+02
CGA:   8    -0.226161760494E+03   -0.40472E+01   -0.70669E+02  7072   0.228E+04-0.161E+04
CGA:   9    -0.215632707586E+03    0.10529E+02   -0.18754E+03  7072   0.136E+04-0.419E+02
CGA:  10    -0.222761131787E+03   -0.71284E+01   -0.11371E+03  7072   0.289E+04 0.119E+04
CGA:  11    -0.219653690371E+03    0.31074E+01   -0.23687E+03  7072   0.778E+03-0.494E+03
CGA:  12    -0.202993287890E+03    0.16660E+02   -0.46945E+02  7072   0.128E+04 0.845E+02
CGA:  13    -0.269080748377E+03   -0.66087E+02   -0.12650E+03  7072   0.968E+03-0.151E+03
CGA:  14    -0.283962698834E+03   -0.14882E+02   -0.59071E+02  7072   0.514E+03 0.296E+03
CGA:  15    -0.304383992320E+03   -0.20421E+02   -0.24090E+02  7072   0.334E+03-0.197E+03
CGA:  16    -0.323457480766E+03   -0.19073E+02   -0.14712E+02  7072   0.236E+03 0.717E+02
CGA:  17    -0.340821843776E+03   -0.17364E+02   -0.73443E+01  7072   0.302E+02-0.782E+02
CGA:  18    -0.343202888436E+03   -0.23810E+01   -0.13944E+01  7072   0.108E+02 0.966E+01
CGA:  19    -0.344715373150E+03   -0.15125E+01   -0.14560E+01  7072   0.611E+02 0.388E+00
CGA:  20    -0.344432013326E+03    0.28336E+00   -0.16198E+01  7072   0.481E+02-0.378E+02
CGA:  21    -0.347364233265E+03   -0.29322E+01   -0.30091E+01  7072   0.553E+01-0.113E+01
CGA:  22    -0.347691210843E+03   -0.32698E+00   -0.33942E+00  7072   0.748E+01-0.272E-01
CGA:  23    -0.348108688350E+03   -0.41748E+00   -0.36130E+00  7072   0.392E+01 0.667E+00
CGA:  24    -0.348487304015E+03   -0.37862E+00   -0.36757E+00  7072   0.818E+01-0.789E-01
CGA:  25    -0.349038878904E+03   -0.55157E+00   -0.54644E+00  7072   0.690E+01 0.270E-01
CGA:  26    -0.349383393082E+03   -0.34451E+00   -0.31972E+00  7072   0.649E+01 0.391E+00
CGA:  27    -0.349675141429E+03   -0.29175E+00   -0.30461E+00  7072   0.450E+01-0.269E+00
CGA:  28    -0.349839336789E+03   -0.16420E+00   -0.22762E+00  7072   0.442E+01-0.676E+00
CGA:  29    -0.349982104424E+03   -0.14277E+00   -0.14617E+00  7072   0.265E+01-0.953E-01
CGA:  30    -0.350108719576E+03   -0.12662E+00   -0.12716E+00  7072   0.187E+01-0.698E-02
CGA:  31    -0.350213164409E+03   -0.10444E+00   -0.95439E-01  7072   0.199E+01 0.874E-01
CGA:  32    -0.350307012572E+03   -0.93848E-01   -0.79061E-01  7072   0.186E+01 0.285E+00
CGA:  33    -0.350379509421E+03   -0.72497E-01   -0.66249E-01  7072   0.163E+01 0.131E+00
CGA:  34    -0.350438462349E+03   -0.58953E-01   -0.62123E-01  7072   0.212E+01-0.681E-01
CGA:  35    -0.350510265605E+03   -0.71803E-01   -0.72703E-01  7072   0.244E+01 0.850E-02
CGA:  36    -0.350576226151E+03   -0.65961E-01   -0.72776E-01  7072   0.162E+01-0.150E+00
CGA:  37    -0.350626737196E+03   -0.50511E-01   -0.59509E-01  7072   0.133E+01-0.857E-01
CGA:  38    -0.350685922679E+03   -0.59185E-01   -0.53343E-01  7072   0.853E+00 0.605E-01
CGA:  39    -0.350720716574E+03   -0.34794E-01   -0.33554E-01  7072   0.834E+00 0.190E-01
CGA:  40    -0.350767430742E+03   -0.46714E-01   -0.45326E-01  7072   0.129E+01-0.288E-02
CGA:  41    -0.350811054603E+03   -0.43624E-01   -0.46420E-01  7072   0.105E+01-0.421E-01
CGA:  42    -0.350843403891E+03   -0.32349E-01   -0.32264E-01  7072   0.686E+00 0.124E-01
CGA:  43    -0.350873110580E+03   -0.29707E-01   -0.27816E-01  7072   0.852E+00 0.189E-01
CGA:  44    -0.350905438684E+03   -0.32328E-01   -0.31645E-01  7072   0.768E+00 0.764E-02
CGA:  45    -0.350925148823E+03   -0.19710E-01   -0.19300E-01  7072   0.458E+00 0.971E-02
CGA:  46    -0.350938867256E+03   -0.13718E-01   -0.13590E-01  7072   0.441E+00 0.188E-02
CGA:  47    -0.350954660481E+03   -0.15793E-01   -0.15940E-01  7072   0.560E+00-0.220E-02
CGA:  48    -0.350974689006E+03   -0.20029E-01   -0.19807E-01  7072   0.665E+00 0.168E-02
CGA:  49    -0.350993656726E+03   -0.18968E-01   -0.19041E-01  7072   0.496E+00-0.207E-02
CGA:  50    -0.351005962538E+03   -0.12306E-01   -0.12795E-01  7072   0.350E+00-0.130E-01
SDA:  51    -0.351018114466E+03   -0.12152E-01   -0.12153E-01  7072   0.427E+00-0.376E-03
CGA:  52    -0.351037848248E+03   -0.19734E-01   -0.19510E-01  7072   0.261E+00-0.462E-02
CGA:  53    -0.351052023946E+03   -0.14176E-01   -0.14172E-01  7072   0.190E+00-0.892E-03
CGA:  54    -0.351076052366E+03   -0.24028E-01   -0.23932E-01  7072   0.171E+00 0.126E-02
CGA:  55    -0.351099777901E+03   -0.23726E-01   -0.25111E-01  7072   0.353E+00-0.190E-01
CGA:  56    -0.351109207605E+03   -0.94297E-02   -0.95034E-02  7072   0.115E+00-0.120E-02
CGA:  57    -0.351118006932E+03   -0.87993E-02   -0.88247E-02  7072   0.143E+00-0.120E-02
CGA:  58    -0.351122791336E+03   -0.47844E-02   -0.46180E-02  7072   0.847E-01 0.249E-02
CGA:  59    -0.351128583297E+03   -0.57920E-02   -0.58062E-02  7072   0.742E-01-0.152E-02
CGA:  60    -0.351130778376E+03   -0.21951E-02   -0.21831E-02  7072   0.558E-01 0.262E-03
CGA:  61    -0.351135121876E+03   -0.43435E-02   -0.43446E-02  7072   0.550E-01-0.472E-04
CGA:  62    -0.351136491215E+03   -0.13693E-02   -0.13133E-02  7072   0.266E-01 0.165E-02
CGA:  63    -0.351138135482E+03   -0.16443E-02   -0.16447E-02  7072   0.383E-01-0.516E-03
CGA:  64    -0.351139457766E+03   -0.13223E-02   -0.13185E-02  7072   0.381E-01-0.236E-04
CGA:  65    -0.351140964597E+03   -0.15068E-02   -0.14507E-02  7072   0.269E-01 0.156E-03
CGA:  66    -0.351141751598E+03   -0.78700E-03   -0.74297E-03  7072   0.226E-01 0.890E-03
CGA:  67    -0.351142438660E+03   -0.68706E-03   -0.67307E-03  7072   0.125E-01 0.206E-03
CGA:  68    -0.351142738605E+03   -0.29994E-03   -0.29929E-03  7072   0.116E-01-0.113E-04
CGA:  69    -0.351143481067E+03   -0.74246E-03   -0.74131E-03  7072   0.264E-01 0.495E-04
CGA:  70    -0.351144032854E+03   -0.55179E-03   -0.49898E-03  7072   0.114E-01 0.210E-02
CGA:  71    -0.351144434132E+03   -0.40128E-03   -0.39052E-03  7072   0.217E-01 0.617E-04
CGA:  72    -0.351145093216E+03   -0.65908E-03   -0.63826E-03  7072   0.223E-01 0.252E-03
CGA:  73    -0.351145377229E+03   -0.28401E-03   -0.28938E-03  7072   0.574E-02-0.380E-03
CGA:  74    -0.351145481912E+03   -0.10468E-03   -0.10471E-03  7072   0.627E-02-0.400E-05
CGA:  75    -0.351145722227E+03   -0.24031E-03   -0.23946E-03  7072   0.124E-01-0.287E-04
CGA:  76    -0.351145936292E+03   -0.21407E-03   -0.20289E-03  7072   0.731E-02 0.521E-03
CGA:  77    -0.351146073581E+03   -0.13729E-03   -0.13347E-03  7072   0.727E-02 0.166E-03
CGA:  78    -0.351146244631E+03   -0.17105E-03   -0.16741E-03  7072   0.950E-02 0.986E-04
CGA:  79    -0.351146408597E+03   -0.16397E-03   -0.16400E-03  7072   0.805E-02 0.355E-04
CGA:  80    -0.351146537652E+03   -0.12905E-03   -0.12975E-03  7072   0.623E-02 0.792E-05
CGA:  81    -0.351146632579E+03   -0.94927E-04   -0.93381E-04  7072   0.470E-02 0.105E-03
SDA:  82    -0.351146716877E+03   -0.84298E-04   -0.83389E-04  7072   0.533E-02 0.557E-04
CGA:  83    -0.351146855322E+03   -0.13845E-03   -0.13845E-03  7072   0.230E-02-0.961E-06
CGA:  84    -0.351147073394E+03   -0.21807E-03   -0.21957E-03  7072   0.626E-02-0.303E-04
CGA:  85    -0.351147384696E+03   -0.31130E-03   -0.31009E-03  7072   0.678E-02 0.835E-04
CGA:  86    -0.351147958806E+03   -0.57411E-03   -0.56744E-03  7072   0.184E-02 0.152E-03
CGA:  87    -0.351148164066E+03   -0.20526E-03   -0.20657E-03  7072   0.229E-02-0.258E-04
CGA:  88    -0.351148223380E+03   -0.59314E-04   -0.59534E-04  7072   0.109E-02 0.400E-05
CGA:  89    -0.351148335803E+03   -0.11242E-03   -0.11069E-03  7072   0.214E-02 0.306E-04
CGA:  90    -0.351148423603E+03   -0.87800E-04   -0.87443E-04  7072   0.892E-03-0.652E-05
CGA:  91    -0.351148473174E+03   -0.49571E-04   -0.49618E-04  7072   0.306E-03-0.411E-05
CGA:  92    -0.351148499297E+03   -0.26123E-04   -0.25965E-04  7072   0.124E-02 0.260E-05
CGA:  93    -0.351148586352E+03   -0.87056E-04   -0.10707E-03  7072   0.103E-02-0.577E-03
CGA:  94    -0.351148599210E+03   -0.12858E-04   -0.11241E-04  7072   0.641E-03 0.499E-04
CGA:  95    -0.351148614182E+03   -0.14971E-04   -0.14403E-04  7072   0.360E-03 0.113E-04
CGA:  96    -0.351148623125E+03   -0.89437E-05   -0.87521E-05  7072   0.224E-03 0.330E-06
   1 F= -.35114862E+03 E0= -.35113072E+03  d E =-.351149E+03  mag=     8.0000
       N       E                     dE             d eps       ncg     rms          ort
SDA:   1    -0.351157110462E+03   -0.84963E-02    0.00000E+00  7072   0.914E+00 0.000E+00
CGA:   2    -0.351170190120E+03   -0.13080E-01   -0.13833E-01  7072   0.381E-01-0.385E-01
CGA:   3    -0.351171261444E+03   -0.10713E-02   -0.10724E-02  7072   0.104E-01 0.137E-06
CGA:   4    -0.351171546285E+03   -0.28484E-03   -0.28532E-03  7072   0.291E-02-0.990E-06
CGA:   5    -0.351171847767E+03   -0.30148E-03   -0.30097E-03  7072   0.436E-02 0.864E-05
CGA:   6    -0.351171990765E+03   -0.14300E-03   -0.14309E-03  7072   0.274E-02 0.351E-05
CGA:   7    -0.351172118622E+03   -0.12786E-03   -0.12786E-03  7072   0.777E-03 0.938E-06
CGA:   8    -0.351172149549E+03   -0.30927E-04   -0.30927E-04  7072   0.701E-03-0.383E-06
CGA:   9    -0.351172194807E+03   -0.45257E-04   -0.45302E-04  7072   0.497E-03-0.219E-05
CGA:  10    -0.351172217307E+03   -0.22500E-04   -0.22499E-04  7072   0.431E-03-0.187E-05
CGA:  11    -0.351172230712E+03   -0.13405E-04   -0.13378E-04  7072   0.104E-03-0.161E-05
CGA:  12    -0.351172237219E+03   -0.65064E-05   -0.65277E-05  7072   0.916E-04-0.123E-05
   2 F= -.35117224E+03 E0= -.35115419E+03  d E =-.236141E-01  mag=     8.0000
       N       E                     dE             d eps       ncg     rms          ort
SDA:   1    -0.351079136676E+03    0.93094E-01    0.00000E+00  7072   0.213E+01 0.000E+00
CGA:   2    -0.351295182604E+03   -0.21605E+00   -0.21908E+00  7072   0.735E+01-0.549E-01
CGA:   3    -0.351514541792E+03   -0.21936E+00   -0.22099E+00  7072   0.120E+01-0.129E-01
CGA:   4    -0.351570054731E+03   -0.55513E-01   -0.55457E-01  7072   0.113E+01-0.170E-01
CGA:   5    -0.351614266954E+03   -0.44212E-01   -0.44260E-01  7072   0.620E+00 0.115E-02
CGA:   6    -0.351666824690E+03   -0.52558E-01   -0.52755E-01  7072   0.471E+00-0.557E-02
CGA:   7    -0.351677939437E+03   -0.11115E-01   -0.10931E-01  7072   0.207E+00 0.398E-02
CGA:   8    -0.351689302133E+03   -0.11363E-01   -0.11348E-01  7072   0.645E-01 0.142E-02
CGA:   9    -0.351692752868E+03   -0.34507E-02   -0.34497E-02  7072   0.835E-01 0.131E-03
CGA:  10    -0.351696203662E+03   -0.34508E-02   -0.34484E-02  7072   0.440E-01-0.105E-03
CGA:  11    -0.351698418552E+03   -0.22149E-02   -0.22148E-02  7072   0.365E-01 0.300E-04
CGA:  12    -0.351699342151E+03   -0.92360E-03   -0.92364E-03  7072   0.932E-02 0.142E-04
CGA:  13    -0.351700375053E+03   -0.10329E-02   -0.10326E-02  7072   0.103E-01 0.452E-05
CGA:  14    -0.351701051555E+03   -0.67650E-03   -0.67646E-03  7072   0.178E-01 0.141E-05
CGA:  15    -0.351701635618E+03   -0.58406E-03   -0.58480E-03  7072   0.651E-02-0.435E-05
CGA:  16    -0.351702021172E+03   -0.38555E-03   -0.38537E-03  7072   0.621E-02 0.142E-04
CGA:  17    -0.351702235727E+03   -0.21455E-03   -0.21441E-03  7072   0.393E-02 0.248E-05
CGA:  18    -0.351702831066E+03   -0.59534E-03   -0.59487E-03  7072   0.421E-02 0.471E-05
CGA:  19    -0.351702956213E+03   -0.12515E-03   -0.12548E-03  7072   0.334E-02 0.318E-06
CGA:  20    -0.351703134949E+03   -0.17874E-03   -0.17874E-03  7072   0.135E-02 0.129E-04
CGA:  21    -0.351703282650E+03   -0.14770E-03   -0.14708E-03  7072   0.306E-02 0.114E-04
CGA:  22    -0.351703384833E+03   -0.10218E-03   -0.10244E-03  7072   0.118E-02 0.867E-05
CGA:  23    -0.351703449164E+03   -0.64331E-04   -0.64338E-04  7072   0.826E-03 0.932E-05
CGA:  24    -0.351703471895E+03   -0.22731E-04   -0.22836E-04  7072   0.450E-03 0.327E-05
CGA:  25    -0.351703511953E+03   -0.40058E-04   -0.39835E-04  7072   0.312E-03 0.645E-05
CGA:  26    -0.351703545073E+03   -0.33120E-04   -0.33034E-04  7072   0.278E-03 0.175E-05
CGA:  27    -0.351703552542E+03   -0.74693E-05   -0.74871E-05  7072   0.154E-03 0.515E-06
   3 F= -.35170355E+03 E0= -.35168547E+03  d E =-.531315E+00  mag=     8.0000
       N       E                     dE             d eps       ncg     rms          ort
SDA:   1    -0.348866513930E+03    0.28370E+01    0.00000E+00  7072   0.126E+02 0.000E+00
CGA:   2    -0.351043996807E+03   -0.21775E+01   -0.21024E+01  7072   0.140E+02 0.780E+00
CGA:   3    -0.351536793371E+03   -0.49280E+00   -0.52818E+00  7072   0.128E+02-0.382E+00
CGA:   4    -0.351984428331E+03   -0.44763E+00   -0.42887E+00  7072   0.316E+01 0.147E+00
CGA:   5    -0.352238475827E+03   -0.25405E+00   -0.25618E+00  7072   0.620E+01-0.787E-01
CGA:   6    -0.352418380317E+03   -0.17990E+00   -0.18305E+00  7072   0.235E+01-0.663E-01
CGA:   7    -0.352504460819E+03   -0.86081E-01   -0.86917E-01  7072   0.193E+01-0.398E-02
CGA:   8    -0.352559732140E+03   -0.55271E-01   -0.54835E-01  7072   0.404E+00 0.477E-02
CGA:   9    -0.352584311860E+03   -0.24580E-01   -0.24598E-01  7072   0.493E+00-0.248E-02
CGA:  10    -0.352598368334E+03   -0.14056E-01   -0.14039E-01  7072   0.297E+00 0.741E-04
CGA:  11    -0.352619640263E+03   -0.21272E-01   -0.21259E-01  7072   0.104E+00 0.540E-03
CGA:  12    -0.352623435627E+03   -0.37954E-02   -0.38029E-02  7072   0.122E+00-0.255E-04
CGA:  13    -0.352628533215E+03   -0.50976E-02   -0.51038E-02  7072   0.475E-01 0.778E-04
CGA:  14    -0.352633807883E+03   -0.52747E-02   -0.52648E-02  7072   0.120E+00 0.177E-03
CGA:  15    -0.352637035363E+03   -0.32275E-02   -0.32505E-02  7072   0.438E-01-0.494E-03
CGA:  16    -0.352639299316E+03   -0.22640E-02   -0.22638E-02  7072   0.343E-01-0.128E-04
CGA:  17    -0.352640456260E+03   -0.11569E-02   -0.11582E-02  7072   0.234E-01-0.609E-05
CGA:  18    -0.352643100972E+03   -0.26447E-02   -0.26444E-02  7072   0.405E-01 0.630E-05
CGA:  19    -0.352644157008E+03   -0.10560E-02   -0.10534E-02  7072   0.214E-01 0.771E-04
CGA:  20    -0.352645404448E+03   -0.12474E-02   -0.12473E-02  7072   0.748E-02 0.341E-04
CGA:  21    -0.352646003543E+03   -0.59909E-03   -0.59862E-03  7072   0.210E-01 0.196E-04
CGA:  22    -0.352646742802E+03   -0.73926E-03   -0.73996E-03  7072   0.818E-02 0.254E-04
CGA:  23    -0.352647305692E+03   -0.56289E-03   -0.56252E-03  7072   0.364E-02 0.290E-04
CGA:  24    -0.352647439498E+03   -0.13381E-03   -0.13401E-03  7072   0.446E-02 0.848E-05
CGA:  25    -0.352647670224E+03   -0.23073E-03   -0.23082E-03  7072   0.202E-02 0.189E-04
CGA:  26    -0.352647869335E+03   -0.19911E-03   -0.19909E-03  7072   0.279E-02 0.601E-06
CGA:  27    -0.352647939348E+03   -0.70013E-04   -0.70136E-04  7072   0.127E-02-0.915E-07
CGA:  28    -0.352648011630E+03   -0.72282E-04   -0.72276E-04  7072   0.733E-03 0.434E-05
CGA:  29    -0.352648039469E+03   -0.27840E-04   -0.27851E-04  7072   0.716E-03 0.755E-06
CGA:  30    -0.352648106348E+03   -0.66878E-04   -0.66905E-04  7072   0.689E-03-0.793E-06
CGA:  31    -0.352648126856E+03   -0.20508E-04   -0.20472E-04  7072   0.463E-03-0.115E-05
SDA:  32    -0.352648145987E+03   -0.19131E-04   -0.19095E-04  7072   0.144E-03-0.235E-05
CGA:  33    -0.352648154538E+03   -0.85510E-05   -0.85508E-05  7072   0.999E-04-0.984E-08
   4 F= -.35264815E+03 E0= -.35262997E+03  d E =-.944602E+00  mag=     8.0000
       N       E                     dE             d eps       ncg     rms          ort
SDA:   1    -0.348278600574E+03    0.43695E+01    0.00000E+00  7072   0.185E+02 0.000E+00
CGA:   2    -0.350471543983E+03   -0.21929E+01   -0.21201E+01  7072   0.268E+02 0.144E+01
CGA:   3    -0.351443148189E+03   -0.97160E+00   -0.10330E+01  7072   0.203E+02-0.871E+00
CGA:   4    -0.352298114219E+03   -0.85497E+00   -0.82394E+00  7072   0.837E+01-0.114E+00
CGA:   5    -0.352509392195E+03   -0.21128E+00   -0.21128E+00  7072   0.421E+01 0.128E-02
CGA:   6    -0.352877237074E+03   -0.36784E+00   -0.36769E+00  7072   0.558E+01-0.232E-02
CGA:   7    -0.353017119145E+03   -0.13988E+00   -0.13306E+00  7072   0.271E+01 0.178E+00
CGA:   8    -0.353126612186E+03   -0.10949E+00   -0.10986E+00  7072   0.106E+01-0.386E-03
CGA:   9    -0.353158734689E+03   -0.32123E-01   -0.32493E-01  7072   0.600E+00-0.577E-02
CGA:  10    -0.353186952752E+03   -0.28218E-01   -0.28238E-01  7072   0.585E+00 0.823E-03
CGA:  11    -0.353204314642E+03   -0.17362E-01   -0.17523E-01  7072   0.355E+00-0.218E-02
CGA:  12    -0.353225545000E+03   -0.21230E-01   -0.21179E-01  7072   0.167E+00 0.442E-02
CGA:  13    -0.353229957691E+03   -0.44127E-02   -0.43912E-02  7072   0.104E+00 0.396E-03
CGA:  14    -0.353235783362E+03   -0.58257E-02   -0.58244E-02  7072   0.119E+00 0.167E-03
CGA:  15    -0.353240325583E+03   -0.45422E-02   -0.45579E-02  7072   0.874E-01 0.190E-03
CGA:  16    -0.353247129100E+03   -0.68035E-02   -0.68084E-02  7072   0.953E-01-0.155E-03
CGA:  17    -0.353249106586E+03   -0.19775E-02   -0.19939E-02  7072   0.271E-01-0.526E-03
CGA:  18    -0.353251347308E+03   -0.22407E-02   -0.22377E-02  7072   0.553E-01 0.868E-04
CGA:  19    -0.353253776328E+03   -0.24290E-02   -0.24287E-02  7072   0.369E-01-0.718E-05
CGA:  20    -0.353255646064E+03   -0.18697E-02   -0.18701E-02  7072   0.441E-01 0.132E-03
CGA:  21    -0.353256919805E+03   -0.12737E-02   -0.12769E-02  7072   0.129E-01-0.234E-04
CGA:  22    -0.353257799751E+03   -0.87995E-03   -0.87886E-03  7072   0.168E-01 0.533E-04
CGA:  23    -0.353258503737E+03   -0.70399E-03   -0.70471E-03  7072   0.151E-01 0.362E-04
CGA:  24    -0.353259252909E+03   -0.74917E-03   -0.74919E-03  7072   0.141E-01 0.220E-04
CGA:  25    -0.353259653114E+03   -0.40020E-03   -0.40103E-03  7072   0.354E-02 0.125E-04
CGA:  26    -0.353259938233E+03   -0.28512E-03   -0.28441E-03  7072   0.525E-02 0.229E-04
CGA:  27    -0.353260105484E+03   -0.16725E-03   -0.16737E-03  7072   0.303E-02 0.955E-05
CGA:  28    -0.353260266808E+03   -0.16132E-03   -0.16130E-03  7072   0.360E-02 0.779E-05
CGA:  29    -0.353260403902E+03   -0.13709E-03   -0.13716E-03  7072   0.124E-02 0.598E-05
CGA:  30    -0.353260472027E+03   -0.68125E-04   -0.68119E-04  7072   0.107E-02 0.169E-05
CGA:  31    -0.353260507363E+03   -0.35335E-04   -0.35352E-04  7072   0.863E-03 0.587E-06
SDA:  32    -0.353260571081E+03   -0.63719E-04   -0.63714E-04  7072   0.120E-02 0.215E-06
CGA:  33    -0.353260593467E+03   -0.22385E-04   -0.22379E-04  7072   0.172E-03-0.538E-06
CGA:  34    -0.353260610173E+03   -0.16706E-04   -0.16767E-04  7072   0.405E-03-0.132E-05
CGA:  35    -0.353260625923E+03   -0.15750E-04   -0.15729E-04  7072   0.406E-03-0.181E-05
CGA:  36    -0.353260662325E+03   -0.36402E-04   -0.36644E-04  7072   0.145E-03-0.608E-05
CGA:  37    -0.353260673035E+03   -0.10709E-04   -0.10756E-04  7072   0.760E-04-0.209E-05
CGA:  38    -0.353260681492E+03   -0.84577E-05   -0.85389E-05  7072   0.155E-03-0.140E-05
   5 F= -.35326068E+03 E0= -.35324244E+03  d E =-.612527E+00  mag=     8.0000
       N       E                     dE             d eps       ncg     rms          ort
SDA:   1    -0.345580233442E+03    0.76804E+01    0.00000E+00  7072   0.503E+02 0.000E+00
CGA:   2    -0.347263691709E+03   -0.16835E+01   -0.16728E+01  7072   0.458E+02 0.130E+00
CGA:   3    -0.349708345224E+03   -0.24447E+01   -0.24477E+01  7072   0.290E+02 0.114E+01
CGA:   4    -0.351313469841E+03   -0.16051E+01   -0.16033E+01  7072   0.427E+02-0.140E+01
CGA:   5    -0.352330596060E+03   -0.10171E+01   -0.79767E+00  7072   0.757E+01 0.846E+01
CGA:   6    -0.352548186183E+03   -0.21759E+00   -0.23399E+00  7072   0.897E+01-0.332E+00
CGA:   7    -0.352921164038E+03   -0.37298E+00   -0.37299E+00  7072   0.116E+02 0.429E-02
CGA:   8    -0.353189612711E+03   -0.26845E+00   -0.24526E+00  7072   0.711E+01 0.665E+00
CGA:   9    -0.353380162876E+03   -0.19055E+00   -0.19173E+00  7072   0.572E+01-0.323E-01
CGA:  10    -0.353482378179E+03   -0.10222E+00   -0.10647E+00  7072   0.162E+01-0.160E+00
CGA:  11    -0.353509312180E+03   -0.26934E-01   -0.27851E-01  7072   0.992E+00-0.353E-01
CGA:  12    -0.353552732790E+03   -0.43421E-01   -0.43427E-01  7072   0.125E+01 0.476E-02
CGA:  13    -0.353574863005E+03   -0.22130E-01   -0.22724E-01  7072   0.517E+00-0.217E-01
CGA:  14    -0.353602919460E+03   -0.28056E-01   -0.27913E-01  7072   0.935E+00 0.902E-02
CGA:  15    -0.353621300252E+03   -0.18381E-01   -0.19104E-01  7072   0.159E+00-0.187E-01
CGA:  16    -0.353629425529E+03   -0.81253E-02   -0.81132E-02  7072   0.214E+00 0.929E-03
CGA:  17    -0.353634522434E+03   -0.50969E-02   -0.51234E-02  7072   0.111E+00-0.462E-03
CGA:  18    -0.353645325980E+03   -0.10804E-01   -0.10743E-01  7072   0.203E+00 0.114E-02
CGA:  19    -0.353649745837E+03   -0.44199E-02   -0.44825E-02  7072   0.773E-01-0.134E-02
CGA:  20    -0.353653458080E+03   -0.37122E-02   -0.37074E-02  7072   0.459E-01 0.716E-03
CGA:  21    -0.353655121712E+03   -0.16636E-02   -0.16656E-02  7072   0.519E-01 0.677E-04
CGA:  22    -0.353658822293E+03   -0.37006E-02   -0.36818E-02  7072   0.789E-01 0.598E-03
CGA:  23    -0.353661040925E+03   -0.22186E-02   -0.22390E-02  7072   0.306E-01-0.117E-03
CGA:  24    -0.353663080500E+03   -0.20396E-02   -0.20335E-02  7072   0.260E-01 0.231E-03
CGA:  25    -0.353663715469E+03   -0.63497E-03   -0.63351E-03  7072   0.153E-01 0.400E-04
CGA:  26    -0.353665430234E+03   -0.17148E-02   -0.17110E-02  7072   0.157E-01 0.571E-04
CGA:  27    -0.353666040934E+03   -0.61070E-03   -0.61138E-03  7072   0.176E-01 0.352E-04
CGA:  28    -0.353666652564E+03   -0.61163E-03   -0.61240E-03  7072   0.516E-02 0.284E-04
CGA:  29    -0.353667006915E+03   -0.35435E-03   -0.35422E-03  7072   0.655E-02 0.697E-05
CGA:  30    -0.353667222502E+03   -0.21559E-03   -0.21571E-03  7072   0.491E-02 0.359E-05
CGA:  31    -0.353667539893E+03   -0.31739E-03   -0.31743E-03  7072   0.585E-02-0.203E-05
SDA:  32    -0.353667704369E+03   -0.16448E-03   -0.16451E-03  7072   0.149E-02 0.108E-05
CGA:  33    -0.353667773977E+03   -0.69608E-04   -0.69609E-04  7072   0.118E-02 0.246E-05
CGA:  34    -0.353667825616E+03   -0.51639E-04   -0.51641E-04  7072   0.117E-02 0.869E-06
CGA:  35    -0.353667949831E+03   -0.12421E-03   -0.12447E-03  7072   0.255E-02-0.430E-05
CGA:  36    -0.353668014614E+03   -0.64784E-04   -0.64557E-04  7072   0.506E-03-0.140E-05
CGA:  37    -0.353668056364E+03   -0.41750E-04   -0.41889E-04  7072   0.410E-03-0.414E-05
CGA:  38    -0.353668122872E+03   -0.66507E-04   -0.66838E-04  7072   0.437E-03-0.286E-05
CGA:  39    -0.353668152177E+03   -0.29305E-04   -0.29327E-04  7072   0.578E-03-0.192E-05
CGA:  40    -0.353668165745E+03   -0.13569E-04   -0.13559E-04  7072   0.129E-03-0.524E-06
CGA:  41    -0.353668188995E+03   -0.23249E-04   -0.22865E-04  7072   0.189E-03 0.313E-05
CGA:  42    -0.353668209246E+03   -0.20252E-04   -0.20191E-04  7072   0.168E-03 0.137E-05
CGA:  43    -0.353668214035E+03   -0.47890E-05   -0.48003E-05  7072   0.112E-03 0.202E-06
   6 F= -.35366821E+03 E0= -.35365017E+03  d E =-.407533E+00  mag=     8.0000
       N       E                     dE             d eps       ncg     rms          ort
SDA:   1    -0.343072335549E+03    0.10596E+02    0.00000E+00  7072   0.534E+02 0.000E+00
CGA:   2    -0.345200363384E+03   -0.21280E+01   -0.20402E+01  7072   0.573E+02 0.505E+00
CGA:   3    -0.348580877197E+03   -0.33805E+01   -0.33822E+01  7072   0.456E+02 0.510E+00
CGA:   4    -0.351526688766E+03   -0.29458E+01   -0.30125E+01  7072   0.344E+02-0.773E+01
CGA:   5    -0.352211779538E+03   -0.68509E+00   -0.52111E+00  7072   0.138E+02 0.810E+01
CGA:   6    -0.352744248281E+03   -0.53247E+00   -0.51589E+00  7072   0.103E+02 0.776E-01
CGA:   7    -0.352969854503E+03   -0.22561E+00   -0.22302E+00  7072   0.956E+01 0.327E-01
CGA:   8    -0.353342749115E+03   -0.37289E+00   -0.37351E+00  7072   0.148E+02-0.194E-01
CGA:   9    -0.353624367157E+03   -0.28162E+00   -0.30722E+00  7072   0.503E+01-0.884E+00
CGA:  10    -0.353695862534E+03   -0.71495E-01   -0.74564E-01  7072   0.181E+01-0.153E+00
CGA:  11    -0.353751024566E+03   -0.55162E-01   -0.55229E-01  7072   0.162E+01-0.150E-02
CGA:  12    -0.353781570783E+03   -0.30546E-01   -0.31168E-01  7072   0.928E+00-0.236E-01
CGA:  13    -0.353824824675E+03   -0.43254E-01   -0.43294E-01  7072   0.125E+01 0.226E-01
CGA:  14    -0.353856687651E+03   -0.31863E-01   -0.34913E-01  7072   0.809E+00-0.291E-01
CGA:  15    -0.353883300216E+03   -0.26613E-01   -0.26696E-01  7072   0.148E+00 0.723E-03
CGA:  16    -0.353891466995E+03   -0.81668E-02   -0.81694E-02  7072   0.207E+00-0.206E-03
CGA:  17    -0.353898702732E+03   -0.72357E-02   -0.73385E-02  7072   0.158E+00 0.175E-02
CGA:  18    -0.353907043363E+03   -0.83406E-02   -0.83137E-02  7072   0.122E+00 0.279E-02
CGA:  19    -0.353912314489E+03   -0.52711E-02   -0.52705E-02  7072   0.723E-01-0.346E-04
CGA:  20    -0.353914985255E+03   -0.26708E-02   -0.26791E-02  7072   0.243E-01 0.233E-03
CGA:  21    -0.353917363948E+03   -0.23787E-02   -0.23680E-02  7072   0.342E-01 0.203E-03
CGA:  22    -0.353919584234E+03   -0.22203E-02   -0.22124E-02  7072   0.468E-01 0.371E-03
CGA:  23    -0.353920941529E+03   -0.13573E-02   -0.13649E-02  7072   0.145E-01-0.610E-04
CGA:  24    -0.353921767654E+03   -0.82613E-03   -0.82527E-03  7072   0.873E-02 0.688E-04
CGA:  25    -0.353922616299E+03   -0.84864E-03   -0.84561E-03  7072   0.187E-01 0.629E-04
CGA:  26    -0.353923520817E+03   -0.90452E-03   -0.90470E-03  7072   0.116E-01 0.353E-04
CGA:  27    -0.353924008881E+03   -0.48806E-03   -0.48844E-03  7072   0.495E-02 0.193E-04
CGA:  28    -0.353924238887E+03   -0.23001E-03   -0.23003E-03  7072   0.681E-02 0.547E-05
CGA:  29    -0.353924684029E+03   -0.44514E-03   -0.44478E-03  7072   0.472E-02 0.205E-04
CGA:  30    -0.353925079445E+03   -0.39542E-03   -0.39615E-03  7072   0.383E-02-0.203E-04
CGA:  31    -0.353925288020E+03   -0.20858E-03   -0.20857E-03  7072   0.286E-02 0.138E-05
SDA:  32    -0.353925380151E+03   -0.92131E-04   -0.92187E-04  7072   0.194E-02 0.527E-06
CGA:  33    -0.353925440907E+03   -0.60756E-04   -0.60862E-04  7072   0.152E-02 0.164E-05
CGA:  34    -0.353925522133E+03   -0.81225E-04   -0.81216E-04  7072   0.137E-02 0.290E-05
CGA:  35    -0.353925683388E+03   -0.16126E-03   -0.16123E-03  7072   0.980E-03 0.302E-06
CGA:  36    -0.353925744736E+03   -0.61348E-04   -0.61401E-04  7072   0.718E-03-0.533E-05
CGA:  37    -0.353925772758E+03   -0.28022E-04   -0.28012E-04  7072   0.537E-03-0.126E-05
CGA:  38    -0.353925833787E+03   -0.61028E-04   -0.61059E-04  7072   0.664E-03-0.585E-06
CGA:  39    -0.353925866322E+03   -0.32535E-04   -0.32531E-04  7072   0.832E-03-0.992E-06
CGA:  40    -0.353925896297E+03   -0.29975E-04   -0.29924E-04  7072   0.199E-03-0.205E-05
CGA:  41    -0.353925917701E+03   -0.21404E-04   -0.21447E-04  7072   0.254E-03-0.921E-06
CGA:  42    -0.353925947275E+03   -0.29573E-04   -0.29443E-04  7072   0.371E-03 0.216E-05
CGA:  43    -0.353925959241E+03   -0.11966E-04   -0.11990E-04  7072   0.168E-03 0.798E-06
CGA:  44    -0.353925973130E+03   -0.13889E-04   -0.13876E-04  7072   0.131E-03 0.427E-06
CGA:  45    -0.353925976605E+03   -0.34749E-05   -0.34818E-05  7072   0.791E-04 0.279E-07
CGA:  46    -0.353925992318E+03   -0.15714E-04   -0.15771E-04  7072   0.859E-04-0.482E-06
CGA:  47    -0.353925997422E+03   -0.51031E-05   -0.51043E-05  7072   0.543E-04 0.158E-06
   7 F= -.35392600E+03 E0= -.35390838E+03  d E =-.257783E+00  mag=     8.0000
       N       E                     dE             d eps       ncg     rms          ort
SDA:   1    -0.339817540154E+03    0.14108E+02    0.00000E+00  7072   0.421E+02 0.000E+00
CGA:   2    -0.344583850358E+03   -0.47663E+01   -0.54314E+01  7072   0.163E+03-0.934E+01
CGA:   3    -0.349247029378E+03   -0.46632E+01   -0.41390E+01  7072   0.703E+02 0.133E+02
CGA:   4    -0.351047046300E+03   -0.18000E+01   -0.19676E+01  7072   0.408E+02-0.456E+01
CGA:   5    -0.351659488158E+03   -0.61244E+00   -0.58862E+00  7072   0.205E+02-0.712E+00
CGA:   6    -0.352317933163E+03   -0.65845E+00   -0.64014E+00  7072   0.335E+02 0.206E+00
CGA:   7    -0.352982346442E+03   -0.66441E+00   -0.75586E+00  7072   0.170E+02-0.246E+01
CGA:   8    -0.353268365869E+03   -0.28602E+00   -0.28794E+00  7072   0.130E+02-0.158E+00
CGA:   9    -0.353622482879E+03   -0.35412E+00   -0.36034E+00  7072   0.104E+02-0.973E-01
CGA:  10    -0.353776692095E+03   -0.15421E+00   -0.15771E+00  7072   0.324E+01-0.193E+00
CGA:  11    -0.353838148646E+03   -0.61457E-01   -0.62350E-01  7072   0.206E+01-0.353E-01
CGA:  12    -0.353890686154E+03   -0.52538E-01   -0.52524E-01  7072   0.187E+01-0.378E-03
CGA:  13    -0.353929637239E+03   -0.38951E-01   -0.38273E-01  7072   0.117E+01 0.201E-01
CGA:  14    -0.353969022222E+03   -0.39385E-01   -0.39721E-01  7072   0.204E+01 0.163E-02
CGA:  15    -0.354019111652E+03   -0.50089E-01   -0.51066E-01  7072   0.812E+00-0.155E-01
CGA:  16    -0.354031671325E+03   -0.12560E-01   -0.13024E-01  7072   0.354E+00-0.212E-01
CGA:  17    -0.354042150775E+03   -0.10479E-01   -0.10559E-01  7072   0.261E+00 0.210E-03
CGA:  18    -0.354047302823E+03   -0.51520E-02   -0.52371E-02  7072   0.158E+00-0.238E-02
CGA:  19    -0.354055552059E+03   -0.82492E-02   -0.82305E-02  7072   0.308E+00 0.134E-02
CGA:  20    -0.354062791192E+03   -0.72391E-02   -0.72555E-02  7072   0.131E+00-0.337E-03
CGA:  21    -0.354066740487E+03   -0.39493E-02   -0.39680E-02  7072   0.109E+00 0.148E-03
CGA:  22    -0.354069401767E+03   -0.26613E-02   -0.26914E-02  7072   0.516E-01-0.316E-03
CGA:  23    -0.354070986681E+03   -0.15849E-02   -0.15910E-02  7072   0.449E-01 0.125E-03
CGA:  24    -0.354072461211E+03   -0.14745E-02   -0.14784E-02  7072   0.328E-01 0.145E-03
CGA:  25    -0.354073499009E+03   -0.10378E-02   -0.10376E-02  7072   0.339E-01-0.573E-05
CGA:  26    -0.354075606130E+03   -0.21071E-02   -0.20894E-02  7072   0.544E-01 0.682E-03
CGA:  27    -0.354076753886E+03   -0.11478E-02   -0.11555E-02  7072   0.104E-01-0.160E-03
CGA:  28    -0.354077232708E+03   -0.47882E-03   -0.47843E-03  7072   0.193E-01 0.431E-04
CGA:  29    -0.354078047850E+03   -0.81514E-03   -0.81493E-03  7072   0.143E-01 0.663E-04
CGA:  30    -0.354078716548E+03   -0.66870E-03   -0.66779E-03  7072   0.205E-01 0.948E-04
CGA:  31    -0.354079362521E+03   -0.64597E-03   -0.64665E-03  7072   0.891E-02 0.203E-04
SDA:  32    -0.354079713305E+03   -0.35078E-03   -0.35079E-03  7072   0.931E-02 0.259E-05
CGA:  33    -0.354079914050E+03   -0.20074E-03   -0.20051E-03  7072   0.273E-02 0.432E-05
CGA:  34    -0.354080165514E+03   -0.25146E-03   -0.25111E-03  7072   0.447E-02 0.648E-05
CGA:  35    -0.354080456635E+03   -0.29112E-03   -0.29131E-03  7072   0.617E-02-0.698E-05
CGA:  36    -0.354080689643E+03   -0.23301E-03   -0.23305E-03  7072   0.177E-02 0.276E-05
CGA:  37    -0.354080843480E+03   -0.15384E-03   -0.15360E-03  7072   0.130E-02 0.521E-05
CGA:  38    -0.354081005754E+03   -0.16227E-03   -0.16134E-03  7072   0.159E-02 0.116E-04
CGA:  39    -0.354081147633E+03   -0.14188E-03   -0.14148E-03  7072   0.900E-03 0.974E-05
CGA:  40    -0.354081218427E+03   -0.70795E-04   -0.70877E-04  7072   0.153E-02-0.276E-05
CGA:  41    -0.354081279551E+03   -0.61123E-04   -0.61143E-04  7072   0.125E-02 0.620E-06
CGA:  42    -0.354081409537E+03   -0.12999E-03   -0.12986E-03  7072   0.583E-03 0.226E-05
CGA:  43    -0.354081426769E+03   -0.17232E-04   -0.17238E-04  7072   0.339E-03 0.607E-07
CGA:  44    -0.354081469524E+03   -0.42755E-04   -0.42922E-04  7072   0.520E-03-0.236E-05
CGA:  45    -0.354081510531E+03   -0.41006E-04   -0.41038E-04  7072   0.163E-03-0.149E-05
CGA:  46    -0.354081522401E+03   -0.11871E-04   -0.11861E-04  7072   0.291E-03 0.493E-06
CGA:  47    -0.354081532635E+03   -0.10233E-04   -0.10233E-04  7072   0.119E-03-0.260E-06
CGA:  48    -0.354081543699E+03   -0.11064E-04   -0.11098E-04  7072   0.993E-04-0.101E-05
CGA:  49    -0.354081550830E+03   -0.71314E-05   -0.71338E-05  7072   0.569E-04-0.230E-06
   8 F= -.35408155E+03 E0= -.35406404E+03  d E =-.155553E+00  mag=     8.0000
       N       E                     dE             d eps       ncg     rms          ort
SDA:   1    -0.324434367836E+03    0.29647E+02    0.00000E+00  7072   0.902E+02 0.000E+00
CGA:   2    -0.332578942732E+03   -0.81446E+01   -0.80824E+01  7072   0.263E+03 0.376E+00
CGA:   3    -0.345423897829E+03   -0.12845E+02   -0.10700E+02  7072   0.695E+02 0.787E+01
CGA:   4    -0.348989668291E+03   -0.35658E+01   -0.35058E+01  7072   0.538E+02-0.232E+01
CGA:   5    -0.350443953762E+03   -0.14543E+01   -0.14197E+01  7072   0.403E+02 0.156E+00
CGA:   6    -0.352183045903E+03   -0.17391E+01   -0.17744E+01  7072   0.180E+02 0.619E+00
CGA:   7    -0.353344840509E+03   -0.11618E+01   -0.11849E+01  7072   0.105E+02-0.194E+01
CGA:   8    -0.353556773529E+03   -0.21193E+00   -0.22038E+00  7072   0.590E+01-0.238E+00
CGA:   9    -0.353784239502E+03   -0.22747E+00   -0.23256E+00  7072   0.243E+01 0.429E-01
CGA:  10    -0.353934935041E+03   -0.15070E+00   -0.14980E+00  7072   0.166E+01 0.842E-01
CGA:  11    -0.354004367334E+03   -0.69432E-01   -0.70404E-01  7072   0.220E+01 0.110E-01
CGA:  12    -0.354063225810E+03   -0.58858E-01   -0.59883E-01  7072   0.563E+00-0.197E-01
CGA:  13    -0.354091248624E+03   -0.28023E-01   -0.28131E-01  7072   0.652E+00 0.182E-01
CGA:  14    -0.354113156194E+03   -0.21908E-01   -0.22171E-01  7072   0.235E+00-0.119E-02
CGA:  15    -0.354132120543E+03   -0.18964E-01   -0.18542E-01  7072   0.351E+00 0.129E-01
CGA:  16    -0.354141646757E+03   -0.95262E-02   -0.96857E-02  7072   0.137E+00-0.317E-02
CGA:  17    -0.354147699818E+03   -0.60531E-02   -0.60850E-02  7072   0.995E-01 0.158E-02
CGA:  18    -0.354152277150E+03   -0.45773E-02   -0.45884E-02  7072   0.856E-01 0.720E-03
CGA:  19    -0.354156868804E+03   -0.45917E-02   -0.45856E-02  7072   0.477E-01 0.177E-02
CGA:  20    -0.354158971464E+03   -0.21027E-02   -0.21061E-02  7072   0.523E-01 0.163E-03
CGA:  21    -0.354161482495E+03   -0.25110E-02   -0.25180E-02  7072   0.270E-01 0.103E-02
CGA:  22    -0.354162742130E+03   -0.12596E-02   -0.12608E-02  7072   0.271E-01 0.972E-04
CGA:  23    -0.354164365356E+03   -0.16232E-02   -0.16162E-02  7072   0.169E-01 0.517E-03
CGA:  24    -0.354165376111E+03   -0.10108E-02   -0.10107E-02  7072   0.158E-01 0.166E-05
CGA:  25    -0.354165961422E+03   -0.58531E-03   -0.58937E-03  7072   0.922E-02 0.229E-04
CGA:  26    -0.354166513426E+03   -0.55200E-03   -0.55154E-03  7072   0.896E-02 0.297E-04
CGA:  27    -0.354166866317E+03   -0.35289E-03   -0.35310E-03  7072   0.550E-02-0.180E-05
CGA:  28    -0.354167221816E+03   -0.35550E-03   -0.35522E-03  7072   0.342E-02 0.146E-04
CGA:  29    -0.354167401873E+03   -0.18006E-03   -0.18006E-03  7072   0.374E-02-0.338E-05
CGA:  30    -0.354167607669E+03   -0.20580E-03   -0.20578E-03  7072   0.221E-02 0.163E-05
CGA:  31    -0.354167732138E+03   -0.12447E-03   -0.12445E-03  7072   0.274E-02 0.332E-05
SDA:  32    -0.354167850386E+03   -0.11825E-03   -0.11836E-03  7072   0.141E-02 0.761E-05
CGA:  33    -0.354167887838E+03   -0.37452E-04   -0.37391E-04  7072   0.717E-03-0.124E-05
CGA:  34    -0.354167929147E+03   -0.41309E-04   -0.41311E-04  7072   0.749E-03-0.717E-06
CGA:  35    -0.354168025914E+03   -0.96767E-04   -0.96854E-04  7072   0.169E-02-0.120E-05
CGA:  36    -0.354168083658E+03   -0.57744E-04   -0.57724E-04  7072   0.706E-03-0.422E-06
CGA:  37    -0.354168118020E+03   -0.34362E-04   -0.34353E-04  7072   0.225E-03-0.111E-05
CGA:  38    -0.354168172489E+03   -0.54469E-04   -0.54077E-04  7072   0.348E-03 0.195E-05
CGA:  39    -0.354168187323E+03   -0.14834E-04   -0.14839E-04  7072   0.301E-03 0.412E-06
CGA:  40    -0.354168198011E+03   -0.10687E-04   -0.10699E-04  7072   0.135E-03 0.385E-06
CGA:  41    -0.354168215690E+03   -0.17679E-04   -0.17912E-04  7072   0.238E-03-0.326E-05
CGA:  42    -0.354168224167E+03   -0.84777E-05   -0.84280E-05  7072   0.155E-03-0.187E-05
   9 F= -.35416822E+03 E0= -.35415009E+03  d E =-.866733E-01  mag=     8.0000
       N       E                     dE             d eps       ncg     rms          ort
SDA:   1    -0.350458187706E+03    0.37100E+01    0.00000E+00  7072   0.124E+02 0.000E+00
CGA:   2    -0.351745730705E+03   -0.12875E+01   -0.12770E+01  7072   0.366E+02 0.299E+00
CGA:   3    -0.352976077621E+03   -0.12303E+01   -0.12361E+01  7072   0.862E+01-0.669E+00
CGA:   4    -0.353508389262E+03   -0.53231E+00   -0.53253E+00  7072   0.692E+01-0.427E+00
CGA:   5    -0.353718560087E+03   -0.21017E+00   -0.21906E+00  7072   0.470E+01-0.154E+00
CGA:   6    -0.354088494482E+03   -0.36993E+00   -0.37021E+00  7072   0.130E+01-0.115E-01
CGA:   7    -0.354125279166E+03   -0.36785E-01   -0.37070E-01  7072   0.859E+00-0.731E-02
CGA:   8    -0.354180379960E+03   -0.55101E-01   -0.55104E-01  7072   0.492E+00-0.383E-03
CGA:   9    -0.354210453237E+03   -0.30073E-01   -0.30071E-01  7072   0.321E+00 0.240E-02
CGA:  10    -0.354218948517E+03   -0.84953E-02   -0.84327E-02  7072   0.122E+00 0.147E-02
CGA:  11    -0.354226936217E+03   -0.79877E-02   -0.79809E-02  7072   0.744E-01 0.694E-03
CGA:  12    -0.354232323824E+03   -0.53876E-02   -0.53889E-02  7072   0.114E+00-0.679E-04
CGA:  13    -0.354235888576E+03   -0.35648E-02   -0.35833E-02  7072   0.379E-01-0.246E-03
CGA:  14    -0.354238332776E+03   -0.24442E-02   -0.24440E-02  7072   0.211E-01 0.147E-04
CGA:  15    -0.354239340200E+03   -0.10074E-02   -0.10085E-02  7072   0.271E-01 0.295E-04
CGA:  16    -0.354240898681E+03   -0.15585E-02   -0.15585E-02  7072   0.218E-01 0.125E-04
CGA:  17    -0.354242329007E+03   -0.14303E-02   -0.14301E-02  7072   0.115E-01 0.181E-04
CGA:  18    -0.354242669149E+03   -0.34014E-03   -0.33978E-03  7072   0.745E-02 0.478E-05
CGA:  19    -0.354243759954E+03   -0.10908E-02   -0.10871E-02  7072   0.934E-02 0.445E-04
CGA:  20    -0.354244120908E+03   -0.36095E-03   -0.36132E-03  7072   0.832E-02 0.648E-05
CGA:  21    -0.354244522678E+03   -0.40177E-03   -0.40215E-03  7072   0.284E-02 0.179E-04
CGA:  22    -0.354244809383E+03   -0.28670E-03   -0.28625E-03  7072   0.634E-02 0.109E-04
CGA:  23    -0.354245004794E+03   -0.19541E-03   -0.19579E-03  7072   0.171E-02 0.351E-05
CGA:  24    -0.354245154630E+03   -0.14984E-03   -0.14971E-03  7072   0.193E-02 0.465E-05
CGA:  25    -0.354245217358E+03   -0.62728E-04   -0.62849E-04  7072   0.101E-02 0.212E-05
CGA:  26    -0.354245274490E+03   -0.57132E-04   -0.57142E-04  7072   0.618E-03 0.231E-05
CGA:  27    -0.354245322553E+03   -0.48063E-04   -0.48011E-04  7072   0.108E-02 0.296E-05
CGA:  28    -0.354245358902E+03   -0.36350E-04   -0.36380E-04  7072   0.291E-03 0.148E-05
CGA:  29    -0.354245380475E+03   -0.21573E-04   -0.21548E-04  7072   0.316E-03 0.161E-05
CGA:  30    -0.354245394897E+03   -0.14422E-04   -0.14417E-04  7072   0.349E-03-0.213E-06
CGA:  31    -0.354245416997E+03   -0.22100E-04   -0.22102E-04  7072   0.207E-03-0.599E-06
SDA:  32    -0.354245428074E+03   -0.11078E-04   -0.11072E-04  7072   0.171E-03-0.890E-06
CGA:  33    -0.354245431351E+03   -0.32769E-05   -0.32855E-05  7072   0.531E-04 0.737E-07
  10 F= -.35424543E+03 E0= -.35422706E+03  d E =-.772072E-01  mag=     8.0000
       N       E                     dE             d eps       ncg     rms          ort
SDA:   1    -0.354071185018E+03    0.17424E+00    0.00000E+00  7072   0.810E+00 0.000E+00
CGA:   2    -0.354107965663E+03   -0.36781E-01   -0.36673E-01  7072   0.116E+01-0.904E-03
CGA:   3    -0.354178772275E+03   -0.70807E-01   -0.70810E-01  7072   0.638E+00 0.172E-02
CGA:   4    -0.354210268269E+03   -0.31496E-01   -0.31329E-01  7072   0.562E+00-0.306E-02
CGA:   5    -0.354228665298E+03   -0.18397E-01   -0.18501E-01  7072   0.236E+00-0.165E-02
CGA:   6    -0.354248090842E+03   -0.19426E-01   -0.19440E-01  7072   0.136E+00-0.516E-03
CGA:   7    -0.354255364740E+03   -0.72739E-02   -0.72798E-02  7072   0.400E-01 0.314E-03
CGA:   8    -0.354256502071E+03   -0.11373E-02   -0.11334E-02  7072   0.274E-01 0.814E-04
CGA:   9    -0.354258765173E+03   -0.22631E-02   -0.22634E-02  7072   0.121E-01-0.394E-05
CGA:  10    -0.354259429700E+03   -0.66453E-03   -0.66442E-03  7072   0.138E-01-0.986E-05
CGA:  11    -0.354259892622E+03   -0.46292E-03   -0.46307E-03  7072   0.286E-02-0.263E-05
CGA:  12    -0.354260131357E+03   -0.23873E-03   -0.23854E-03  7072   0.443E-02 0.699E-05
CGA:  13    -0.354260288064E+03   -0.15671E-03   -0.15691E-03  7072   0.288E-02 0.278E-05
CGA:  14    -0.354260438982E+03   -0.15092E-03   -0.15092E-03  7072   0.572E-03 0.397E-06
CGA:  15    -0.354260478324E+03   -0.39342E-04   -0.39333E-04  7072   0.650E-03 0.703E-06
CGA:  16    -0.354260505319E+03   -0.26995E-04   -0.27000E-04  7072   0.668E-03 0.477E-06
CGA:  17    -0.354260550711E+03   -0.45392E-04   -0.45357E-04  7072   0.242E-03 0.326E-05
CGA:  18    -0.354260559536E+03   -0.88258E-05   -0.88296E-05  7072   0.180E-03 0.503E-07
  11 F= -.35426056E+03 E0= -.35424218E+03  d E =-.151282E-01  mag=     8.0000
       N       E                     dE             d eps       ncg     rms          ort
SDA:   1    -0.353352502919E+03    0.90805E+00    0.00000E+00  7072   0.243E+01 0.000E+00
CGA:   2    -0.353901674674E+03   -0.54917E+00   -0.54964E+00  7072   0.552E+01-0.221E-02
CGA:   3    -0.354053029747E+03   -0.15136E+00   -0.15449E+00  7072   0.182E+01-0.106E+00
CGA:   4    -0.354141122666E+03   -0.88093E-01   -0.87381E-01  7072   0.113E+01-0.937E-02
CGA:   5    -0.354213529836E+03   -0.72407E-01   -0.72378E-01  7072   0.143E+01 0.916E-02
CGA:   6    -0.354251385222E+03   -0.37855E-01   -0.37251E-01  7072   0.198E+00 0.146E-01
CGA:   7    -0.354264179281E+03   -0.12794E-01   -0.12792E-01  7072   0.119E+00 0.442E-03
CGA:   8    -0.354271017921E+03   -0.68386E-02   -0.68390E-02  7072   0.143E+00 0.499E-04
CGA:   9    -0.354276869165E+03   -0.58512E-02   -0.58498E-02  7072   0.316E-01 0.225E-04
CGA:  10    -0.354278929228E+03   -0.20601E-02   -0.20603E-02  7072   0.171E-01-0.229E-04
CGA:  11    -0.354279802588E+03   -0.87336E-03   -0.87346E-03  7072   0.225E-01 0.759E-05
CGA:  12    -0.354280809944E+03   -0.10074E-02   -0.10074E-02  7072   0.921E-02 0.274E-05
CGA:  13    -0.354281248792E+03   -0.43885E-03   -0.43909E-03  7072   0.840E-02 0.917E-05
CGA:  14    -0.354281524291E+03   -0.27550E-03   -0.27529E-03  7072   0.175E-02 0.454E-05
CGA:  15    -0.354281788557E+03   -0.26427E-03   -0.26432E-03  7072   0.332E-02-0.251E-06
CGA:  16    -0.354281908644E+03   -0.12009E-03   -0.12006E-03  7072   0.171E-02 0.623E-06
CGA:  17    -0.354281988398E+03   -0.79754E-04   -0.79824E-04  7072   0.766E-03 0.314E-05
CGA:  18    -0.354282039801E+03   -0.51403E-04   -0.51389E-04  7072   0.130E-02 0.187E-05
CGA:  19    -0.354282091844E+03   -0.52043E-04   -0.52094E-04  7072   0.827E-03 0.171E-05
CGA:  20    -0.354282163484E+03   -0.71640E-04   -0.71686E-04  7072   0.645E-03-0.160E-05
CGA:  21    -0.354282189540E+03   -0.26057E-04   -0.26082E-04  7072   0.496E-03 0.108E-05
CGA:  22    -0.354282216349E+03   -0.26809E-04   -0.26821E-04  7072   0.239E-03 0.200E-05
CGA:  23    -0.354282244927E+03   -0.28577E-04   -0.28504E-04  7072   0.509E-03 0.124E-05
CGA:  24    -0.354282259932E+03   -0.15005E-04   -0.15006E-04  7072   0.195E-03 0.140E-06
CGA:  25    -0.354282270642E+03   -0.10711E-04   -0.10716E-04  7072   0.127E-03 0.883E-06
CGA:  26    -0.354282276179E+03   -0.55364E-05   -0.55484E-05  7072   0.122E-03 0.747E-06
  12 F= -.35428228E+03 E0= -.35426386E+03  d E =-.217166E-01  mag=     8.0000
       N       E                     dE             d eps       ncg     rms          ort
SDA:   1    -0.350381970837E+03    0.39003E+01    0.00000E+00  7072   0.135E+02 0.000E+00
CGA:   2    -0.350997723977E+03   -0.61575E+00   -0.61343E+00  7072   0.259E+02-0.105E+00
CGA:   3    -0.353234425285E+03   -0.22367E+01   -0.22542E+01  7072   0.118E+02-0.615E+00
CGA:   4    -0.353651051244E+03   -0.41663E+00   -0.41389E+00  7072   0.504E+01 0.662E-01
CGA:   5    -0.353862061598E+03   -0.21101E+00   -0.21089E+00  7072   0.459E+01-0.620E-02
CGA:   6    -0.354176125874E+03   -0.31406E+00   -0.31414E+00  7072   0.207E+01-0.516E-02
CGA:   7    -0.354222914366E+03   -0.46788E-01   -0.47852E-01  7072   0.892E+00-0.302E-01
CGA:   8    -0.354263889364E+03   -0.40975E-01   -0.41114E-01  7072   0.310E+00 0.385E-02
CGA:   9    -0.354290198357E+03   -0.26309E-01   -0.26260E-01  7072   0.481E+00 0.148E-02
CGA:  10    -0.354304849557E+03   -0.14651E-01   -0.14788E-01  7072   0.137E+00-0.213E-02
CGA:  11    -0.354311169615E+03   -0.63201E-02   -0.63473E-02  7072   0.789E-01 0.828E-03
CGA:  12    -0.354313722328E+03   -0.25527E-02   -0.25538E-02  7072   0.544E-01 0.138E-04
CGA:  13    -0.354317664409E+03   -0.39421E-02   -0.39216E-02  7072   0.301E-01 0.860E-03
CGA:  14    -0.354319523071E+03   -0.18587E-02   -0.18584E-02  7072   0.292E-01 0.335E-04
CGA:  15    -0.354320412838E+03   -0.88977E-03   -0.89586E-03  7072   0.733E-02-0.812E-04
CGA:  16    -0.354320942784E+03   -0.52995E-03   -0.52953E-03  7072   0.112E-01 0.177E-04
CGA:  17    -0.354321339344E+03   -0.39656E-03   -0.39782E-03  7072   0.677E-02-0.127E-05
CGA:  18    -0.354321839961E+03   -0.50062E-03   -0.50022E-03  7072   0.385E-02 0.142E-04
CGA:  19    -0.354321989790E+03   -0.14983E-03   -0.14987E-03  7072   0.264E-02-0.106E-05
CGA:  20    -0.354322130678E+03   -0.14089E-03   -0.14090E-03  7072   0.211E-02 0.557E-05
CGA:  21    -0.354322295858E+03   -0.16518E-03   -0.16505E-03  7072   0.353E-02 0.497E-05
CGA:  22    -0.354322411539E+03   -0.11568E-03   -0.11596E-03  7072   0.139E-02 0.541E-06
CGA:  23    -0.354322509861E+03   -0.98322E-04   -0.98192E-04  7072   0.970E-03 0.528E-05
CGA:  24    -0.354322549500E+03   -0.39639E-04   -0.39676E-04  7072   0.835E-03 0.131E-05
CGA:  25    -0.354322608073E+03   -0.58573E-04   -0.58520E-04  7072   0.642E-03 0.312E-05
CGA:  26    -0.354322641729E+03   -0.33656E-04   -0.33667E-04  7072   0.841E-03 0.275E-05
CGA:  27    -0.354322674224E+03   -0.32495E-04   -0.32520E-04  7072   0.199E-03 0.147E-05
CGA:  28    -0.354322687931E+03   -0.13708E-04   -0.13684E-04  7072   0.314E-03 0.127E-05
CGA:  29    -0.354322704272E+03   -0.16341E-04   -0.16347E-04  7072   0.248E-03 0.170E-05
CGA:  30    -0.354322721417E+03   -0.17145E-04   -0.17095E-04  7072   0.178E-03 0.328E-05
CGA:  31    -0.354322726781E+03   -0.53637E-05   -0.53744E-05  7072   0.103E-03 0.401E-06
  13 F= -.35432273E+03 E0= -.35430420E+03  d E =-.404506E-01  mag=     8.0000
       N       E                     dE             d eps       ncg     rms          ort
SDA:   1    -0.328411101365E+03    0.25912E+02    0.00000E+00  7072   0.105E+03 0.000E+00
CGA:   2    -0.333552553486E+03   -0.51415E+01   -0.52066E+01  7072   0.167E+03 0.347E+01
CGA:   3    -0.343319071769E+03   -0.97665E+01   -0.97871E+01  7072   0.773E+02-0.102E+02
CGA:   4    -0.347317422555E+03   -0.39984E+01   -0.39048E+01  7072   0.938E+02-0.227E+02
CGA:   5    -0.348788837463E+03   -0.14714E+01   -0.14964E+01  7072   0.600E+02-0.381E+01
CGA:   6    -0.350997609038E+03   -0.22088E+01   -0.22257E+01  7072   0.507E+02-0.663E+00
CGA:   7    -0.351693447220E+03   -0.69584E+00   -0.78927E+00  7072   0.305E+02-0.648E+01
CGA:   8    -0.352608886785E+03   -0.91544E+00   -0.89225E+00  7072   0.248E+02-0.353E-01
CGA:   9    -0.352978156169E+03   -0.36927E+00   -0.46060E+00  7072   0.932E+01-0.354E+01
CGA:  10    -0.353227020244E+03   -0.24886E+00   -0.24442E+00  7072   0.456E+01-0.150E-02
CGA:  11    -0.353360716262E+03   -0.13370E+00   -0.13262E+00  7072   0.746E+01 0.473E-02
CGA:  12    -0.353552001558E+03   -0.19129E+00   -0.20812E+00  7072   0.312E+01-0.207E+00
CGA:  13    -0.353688445768E+03   -0.13644E+00   -0.13655E+00  7072   0.286E+01 0.459E-01
CGA:  14    -0.353762126926E+03   -0.73681E-01   -0.78896E-01  7072   0.147E+01-0.511E-01
CGA:  15    -0.353801250422E+03   -0.39123E-01   -0.41239E-01  7072   0.101E+01-0.829E-02
CGA:  16    -0.353831590631E+03   -0.30340E-01   -0.30751E-01  7072   0.109E+01 0.204E-02
CGA:  17    -0.353887590782E+03   -0.56000E-01   -0.54586E-01  7072   0.381E+00 0.130E+00
CGA:  18    -0.353902108124E+03   -0.14517E-01   -0.14652E-01  7072   0.425E+00 0.347E-02
CGA:  19    -0.353917893166E+03   -0.15785E-01   -0.15789E-01  7072   0.233E+00 0.174E-03
CGA:  20    -0.353926735730E+03   -0.88426E-02   -0.89611E-02  7072   0.157E+00 0.990E-02
CGA:  21    -0.353933191006E+03   -0.64553E-02   -0.64573E-02  7072   0.115E+00 0.288E-03
CGA:  22    -0.353938920389E+03   -0.57294E-02   -0.57038E-02  7072   0.122E+00 0.233E-02
CGA:  23    -0.353942560503E+03   -0.36401E-02   -0.36883E-02  7072   0.312E-01 0.264E-03
CGA:  24    -0.353944883767E+03   -0.23233E-02   -0.23209E-02  7072   0.468E-01 0.682E-04
CGA:  25    -0.353947175221E+03   -0.22915E-02   -0.22857E-02  7072   0.228E-01 0.720E-03
CGA:  26    -0.353948428741E+03   -0.12535E-02   -0.12529E-02  7072   0.171E-01 0.418E-04
CGA:  27    -0.353949373853E+03   -0.94511E-03   -0.94188E-03  7072   0.205E-01 0.220E-03
CGA:  28    -0.353950243542E+03   -0.86969E-03   -0.86999E-03  7072   0.116E-01 0.402E-04
CGA:  29    -0.353950706940E+03   -0.46340E-03   -0.46361E-03  7072   0.944E-02 0.129E-04
CGA:  30    -0.353951372504E+03   -0.66556E-03   -0.66419E-03  7072   0.719E-02 0.453E-04
CGA:  31    -0.353951776192E+03   -0.40369E-03   -0.40357E-03  7072   0.643E-02 0.974E-05
SDA:  32    -0.353952098099E+03   -0.32191E-03   -0.32181E-03  7072   0.373E-02 0.196E-04
CGA:  33    -0.353952225378E+03   -0.12728E-03   -0.12729E-03  7072   0.258E-02 0.152E-06
CGA:  34    -0.353952381060E+03   -0.15568E-03   -0.15553E-03  7072   0.199E-02 0.860E-05
CGA:  35    -0.353952689841E+03   -0.30878E-03   -0.30613E-03  7072   0.273E-02 0.249E-04
CGA:  36    -0.353952793465E+03   -0.10362E-03   -0.10380E-03  7072   0.275E-02 0.684E-05
CGA:  37    -0.353952918649E+03   -0.12518E-03   -0.12522E-03  7072   0.844E-03 0.451E-05
CGA:  38    -0.353953011540E+03   -0.92891E-04   -0.93002E-04  7072   0.955E-03-0.209E-05
CGA:  39    -0.353953139182E+03   -0.12764E-03   -0.12706E-03  7072   0.648E-03 0.721E-05
CGA:  40    -0.353953160503E+03   -0.21320E-04   -0.21382E-04  7072   0.662E-03 0.139E-05
CGA:  41    -0.353953230837E+03   -0.70334E-04   -0.70209E-04  7072   0.623E-03 0.252E-05
CGA:  42    -0.353953263630E+03   -0.32793E-04   -0.32826E-04  7072   0.492E-03 0.368E-05
CGA:  43    -0.353953280890E+03   -0.17260E-04   -0.17280E-04  7072   0.249E-03 0.120E-05
CGA:  44    -0.353953305611E+03   -0.24721E-04   -0.24664E-04  7072   0.296E-03 0.121E-05
CGA:  45    -0.353953316600E+03   -0.10989E-04   -0.10970E-04  7072   0.302E-03-0.699E-06
CGA:  46    -0.353953339614E+03   -0.23014E-04   -0.23039E-04  7072   0.172E-03-0.157E-05
CGA:  47    -0.353953357688E+03   -0.18075E-04   -0.18077E-04  7072   0.116E-03-0.120E-06
CGA:  48    -0.353953361651E+03   -0.39626E-05   -0.39791E-05  7072   0.122E-03 0.347E-06
CGA:  49    -0.353953374704E+03   -0.13053E-04   -0.12980E-04  7072   0.109E-03 0.156E-05
CGA:  50    -0.353953380092E+03   -0.53882E-05   -0.54023E-05  7072   0.118E-03 0.803E-06
  14 F= -.35395338E+03 E0= -.35393492E+03  d E =0.369347E+00  mag=     8.0000
       N       E                     dE             d eps       ncg     rms          ort
SDA:   1    -0.345415445845E+03    0.85379E+01    0.00000E+00  7072   0.373E+02 0.000E+00
CGA:   2    -0.348994250943E+03   -0.35788E+01   -0.35443E+01  7072   0.382E+02 0.161E+01
CGA:   3    -0.350461366440E+03   -0.14671E+01   -0.14337E+01  7072   0.321E+02-0.704E+00
CGA:   4    -0.352141758943E+03   -0.16804E+01   -0.16322E+01  7072   0.193E+02-0.168E+01
CGA:   5    -0.352718455255E+03   -0.57670E+00   -0.52560E+00  7072   0.158E+02 0.105E+01
CGA:   6    -0.353536797624E+03   -0.81834E+00   -0.81143E+00  7072   0.162E+02-0.228E+00
CGA:   7    -0.353872812737E+03   -0.33602E+00   -0.35088E+00  7072   0.617E+01-0.590E+00
CGA:   8    -0.354091035288E+03   -0.21822E+00   -0.22057E+00  7072   0.515E+01-0.281E-02
CGA:   9    -0.354179591138E+03   -0.88556E-01   -0.82769E-01  7072   0.107E+01 0.273E+00
CGA:  10    -0.354225614046E+03   -0.46023E-01   -0.46107E-01  7072   0.196E+01 0.141E-02
CGA:  11    -0.354276919542E+03   -0.51305E-01   -0.52132E-01  7072   0.996E+00-0.138E-01
CGA:  12    -0.354308654667E+03   -0.31735E-01   -0.32297E-01  7072   0.121E+01-0.257E-02
CGA:  13    -0.354340963270E+03   -0.32309E-01   -0.33006E-01  7072   0.395E+00-0.900E-02
CGA:  14    -0.354348530618E+03   -0.75673E-02   -0.77262E-02  7072   0.169E+00-0.536E-02
CGA:  15    -0.354357675191E+03   -0.91446E-02   -0.91317E-02  7072   0.363E+00 0.123E-02
CGA:  16    -0.354368570661E+03   -0.10895E-01   -0.10970E-01  7072   0.146E+00-0.410E-03
CGA:  17    -0.354374297528E+03   -0.57269E-02   -0.57558E-02  7072   0.173E+00 0.109E-02
CGA:  18    -0.354378511368E+03   -0.42138E-02   -0.42305E-02  7072   0.298E-01-0.219E-03
CGA:  19    -0.354379758075E+03   -0.12467E-02   -0.12477E-02  7072   0.459E-01 0.108E-03
CGA:  20    -0.354381808704E+03   -0.20506E-02   -0.20516E-02  7072   0.355E-01 0.314E-03
CGA:  21    -0.354383154004E+03   -0.13453E-02   -0.13472E-02  7072   0.312E-01 0.885E-04
CGA:  22    -0.354384317282E+03   -0.11633E-02   -0.11648E-02  7072   0.141E-01 0.644E-04
CGA:  23    -0.354384692942E+03   -0.37566E-03   -0.37638E-03  7072   0.958E-02 0.247E-05
CGA:  24    -0.354385262491E+03   -0.56955E-03   -0.56805E-03  7072   0.766E-02 0.762E-04
CGA:  25    -0.354385527712E+03   -0.26522E-03   -0.26555E-03  7072   0.893E-02 0.545E-05
CGA:  26    -0.354385996024E+03   -0.46831E-03   -0.46821E-03  7072   0.446E-02 0.364E-05
CGA:  27    -0.354386123906E+03   -0.12788E-03   -0.12785E-03  7072   0.307E-02-0.170E-05
CGA:  28    -0.354386276887E+03   -0.15298E-03   -0.15296E-03  7072   0.278E-02 0.173E-05
CGA:  29    -0.354386359588E+03   -0.82700E-04   -0.82693E-04  7072   0.163E-02-0.253E-05
CGA:  30    -0.354386491081E+03   -0.13149E-03   -0.13195E-03  7072   0.258E-02-0.126E-04
CGA:  31    -0.354386548098E+03   -0.57017E-04   -0.56983E-04  7072   0.746E-03-0.645E-05
SDA:  32    -0.354386596696E+03   -0.48598E-04   -0.48628E-04  7072   0.972E-03-0.181E-05
CGA:  33    -0.354386615295E+03   -0.18599E-04   -0.18585E-04  7072   0.249E-03 0.344E-06
CGA:  34    -0.354386643075E+03   -0.27780E-04   -0.27718E-04  7072   0.565E-03 0.715E-06
CGA:  35    -0.354386666850E+03   -0.23775E-04   -0.23771E-04  7072   0.456E-03-0.768E-06
CGA:  36    -0.354386688998E+03   -0.22149E-04   -0.22151E-04  7072   0.139E-03-0.178E-05
CGA:  37    -0.354386711121E+03   -0.22123E-04   -0.22164E-04  7072   0.144E-03-0.531E-06
CGA:  38    -0.354386718742E+03   -0.76209E-05   -0.76206E-05  7072   0.239E-03 0.393E-06
  15 F= -.35438672E+03 E0= -.35436786E+03  d E =-.433339E+00  mag=     8.0000
       N       E                     dE             d eps       ncg     rms          ort
SDA:   1    -0.354321472417E+03    0.65239E-01    0.00000E+00  7072   0.252E+00 0.000E+00
CGA:   2    -0.354343344822E+03   -0.21872E-01   -0.21752E-01  7072   0.529E+00 0.321E-02
CGA:   3    -0.354362684498E+03   -0.19340E-01   -0.19273E-01  7072   0.269E+00-0.766E-04
CGA:   4    -0.354376893358E+03   -0.14209E-01   -0.14209E-01  7072   0.138E+00 0.266E-03
CGA:   5    -0.354381260554E+03   -0.43672E-02   -0.43537E-02  7072   0.895E-01 0.773E-04
CGA:   6    -0.354388236156E+03   -0.69756E-02   -0.69757E-02  7072   0.408E-01-0.149E-04
CGA:   7    -0.354390687877E+03   -0.24517E-02   -0.24513E-02  7072   0.171E-01 0.351E-04
CGA:   8    -0.354391135774E+03   -0.44790E-03   -0.44890E-03  7072   0.926E-02-0.220E-04
CGA:   9    -0.354391993402E+03   -0.85763E-03   -0.85830E-03  7072   0.713E-02-0.157E-04
CGA:  10    -0.354392197801E+03   -0.20440E-03   -0.20455E-03  7072   0.326E-02-0.253E-05
CGA:  11    -0.354392378669E+03   -0.18087E-03   -0.18085E-03  7072   0.103E-02 0.486E-05
CGA:  12    -0.354392467477E+03   -0.88807E-04   -0.88932E-04  7072   0.272E-02-0.356E-05
CGA:  13    -0.354392563680E+03   -0.96204E-04   -0.96097E-04  7072   0.600E-03-0.604E-05
CGA:  14    -0.354392595743E+03   -0.32063E-04   -0.32062E-04  7072   0.376E-03-0.183E-05
CGA:  15    -0.354392612025E+03   -0.16282E-04   -0.16265E-04  7072   0.410E-03-0.167E-05
CGA:  16    -0.354392648858E+03   -0.36833E-04   -0.37036E-04  7072   0.271E-03-0.539E-05
CGA:  17    -0.354392660667E+03   -0.11809E-04   -0.11788E-04  7072   0.310E-03-0.197E-05
CGA:  18    -0.354392673167E+03   -0.12500E-04   -0.12481E-04  7072   0.986E-04-0.133E-05
CGA:  19    -0.354392684915E+03   -0.11748E-04   -0.11584E-04  7072   0.205E-03 0.256E-05
CGA:  20    -0.354392692936E+03   -0.80207E-05   -0.80555E-05  7072   0.144E-03 0.181E-05
CGA:  21    -0.354392702967E+03   -0.10031E-04   -0.10009E-04  7072   0.733E-04 0.178E-05
CGA:  22    -0.354392705133E+03   -0.21663E-05   -0.21840E-05  7072   0.531E-04 0.630E-06
  16 F= -.35439271E+03 E0= -.35437383E+03  d E =-.598639E-02  mag=     8.0000
       N       E                     dE             d eps       ncg     rms          ort
SDA:   1    -0.353758377934E+03    0.63433E+00    0.00000E+00  7072   0.263E+01 0.000E+00
CGA:   2    -0.353856918881E+03   -0.98541E-01   -0.98167E-01  7072   0.364E+01-0.262E-02
CGA:   3    -0.354185701006E+03   -0.32878E+00   -0.32899E+00  7072   0.224E+01-0.708E-02
CGA:   4    -0.354268206632E+03   -0.82506E-01   -0.81970E-01  7072   0.124E+01 0.123E-02
CGA:   5    -0.354314696052E+03   -0.46489E-01   -0.46458E-01  7072   0.590E+00-0.197E-03
CGA:   6    -0.354377625642E+03   -0.62930E-01   -0.63196E-01  7072   0.199E+00-0.515E-02
CGA:   7    -0.354390332539E+03   -0.12707E-01   -0.12700E-01  7072   0.134E+00 0.861E-03
CGA:   8    -0.354393706136E+03   -0.33736E-02   -0.34013E-02  7072   0.566E-01-0.702E-03
CGA:   9    -0.354398921921E+03   -0.52158E-02   -0.52154E-02  7072   0.606E-01 0.110E-04
CGA:  10    -0.354400462177E+03   -0.15403E-02   -0.15451E-02  7072   0.171E-01-0.117E-03
CGA:  11    -0.354401531726E+03   -0.10695E-02   -0.10690E-02  7072   0.912E-02 0.706E-04
CGA:  12    -0.354402421129E+03   -0.88940E-03   -0.89022E-03  7072   0.870E-02-0.207E-04
CGA:  13    -0.354402669864E+03   -0.24873E-03   -0.24823E-03  7072   0.518E-02-0.436E-05
CGA:  14    -0.354403043849E+03   -0.37398E-03   -0.37424E-03  7072   0.305E-02-0.200E-04
CGA:  15    -0.354403144367E+03   -0.10052E-03   -0.10043E-03  7072   0.220E-02-0.722E-05
CGA:  16    -0.354403321452E+03   -0.17708E-03   -0.17725E-03  7072   0.162E-02-0.827E-05
CGA:  17    -0.354403480425E+03   -0.15897E-03   -0.15917E-03  7072   0.158E-02-0.526E-05
CGA:  18    -0.354403523992E+03   -0.43566E-04   -0.43548E-04  7072   0.861E-03-0.151E-05
CGA:  19    -0.354403597348E+03   -0.73357E-04   -0.73332E-04  7072   0.103E-02 0.476E-06
CGA:  20    -0.354403646535E+03   -0.49186E-04   -0.49224E-04  7072   0.118E-02 0.231E-05
CGA:  21    -0.354403710759E+03   -0.64224E-04   -0.64264E-04  7072   0.414E-03 0.575E-05
CGA:  22    -0.354403746498E+03   -0.35739E-04   -0.35594E-04  7072   0.314E-03 0.544E-05
CGA:  23    -0.354403757947E+03   -0.11449E-04   -0.11500E-04  7072   0.330E-03 0.202E-05
CGA:  24    -0.354403787249E+03   -0.29302E-04   -0.29108E-04  7072   0.205E-03 0.682E-05
CGA:  25    -0.354403793619E+03   -0.63699E-05   -0.64350E-05  7072   0.115E-03 0.200E-05
  17 F= -.35440379E+03 E0= -.35438492E+03  d E =-.110885E-01  mag=     8.0000
       N       E                     dE             d eps       ncg     rms          ort
SDA:   1    -0.354298854965E+03    0.10493E+00    0.00000E+00  7072   0.316E+00 0.000E+00
CGA:   2    -0.354339342793E+03   -0.40488E-01   -0.40207E-01  7072   0.701E+00 0.428E-02
CGA:   3    -0.354369856771E+03   -0.30514E-01   -0.30446E-01  7072   0.500E+00-0.151E-03
CGA:   4    -0.354389770427E+03   -0.19914E-01   -0.19879E-01  7072   0.104E+00 0.116E-03
CGA:   5    -0.354396266099E+03   -0.64957E-02   -0.64965E-02  7072   0.191E+00-0.303E-03
CGA:   6    -0.354402881644E+03   -0.66155E-02   -0.66168E-02  7072   0.402E-01-0.511E-04
CGA:   7    -0.354405428280E+03   -0.25466E-02   -0.25459E-02  7072   0.877E-02 0.119E-03
CGA:   8    -0.354406386740E+03   -0.95846E-03   -0.96008E-03  7072   0.133E-01-0.312E-04
CGA:   9    -0.354406754371E+03   -0.36763E-03   -0.36683E-03  7072   0.522E-02 0.138E-04
CGA:  10    -0.354407059840E+03   -0.30547E-03   -0.30550E-03  7072   0.259E-02 0.775E-05
CGA:  11    -0.354407134209E+03   -0.74369E-04   -0.74312E-04  7072   0.148E-02 0.757E-06
CGA:  12    -0.354407257967E+03   -0.12376E-03   -0.12384E-03  7072   0.960E-03-0.355E-05
CGA:  13    -0.354407329542E+03   -0.71575E-04   -0.71630E-04  7072   0.356E-03-0.383E-05
CGA:  14    -0.354407343570E+03   -0.14028E-04   -0.14009E-04  7072   0.388E-03-0.940E-06
CGA:  15    -0.354407362687E+03   -0.19116E-04   -0.19098E-04  7072   0.180E-03-0.172E-05
CGA:  16    -0.354407378723E+03   -0.16036E-04   -0.16082E-04  7072   0.340E-03-0.152E-05
CGA:  17    -0.354407388871E+03   -0.10149E-04   -0.10124E-04  7072   0.539E-04-0.896E-06
CGA:  18    -0.354407394563E+03   -0.56918E-05   -0.56697E-05  7072   0.789E-04 0.470E-06
  18 F= -.35440739E+03 E0= -.35438850E+03  d E =-.360094E-02  mag=     8.0000
       N       E                     dE             d eps       ncg     rms          ort
SDA:   1    -0.349472204774E+03    0.49352E+01    0.00000E+00  7072   0.179E+02 0.000E+00
CGA:   2    -0.350157045416E+03   -0.68484E+00   -0.69363E+00  7072   0.280E+02-0.219E+00
CGA:   3    -0.353283104168E+03   -0.31261E+01   -0.31574E+01  7072   0.114E+02-0.106E+01
CGA:   4    -0.353611699528E+03   -0.32860E+00   -0.31926E+00  7072   0.632E+01 0.142E+00
CGA:   5    -0.353968775115E+03   -0.35708E+00   -0.35678E+00  7072   0.466E+01-0.209E-01
CGA:   6    -0.354276674679E+03   -0.30790E+00   -0.30757E+00  7072   0.122E+01 0.342E-01
CGA:   7    -0.354326824803E+03   -0.50150E-01   -0.50428E-01  7072   0.101E+01-0.161E-03
CGA:   8    -0.354358253490E+03   -0.31429E-01   -0.32462E-01  7072   0.433E+00-0.128E-01
CGA:   9    -0.354384578491E+03   -0.26325E-01   -0.26332E-01  7072   0.688E+00-0.132E-02
CGA:  10    -0.354405886571E+03   -0.21308E-01   -0.22406E-01  7072   0.111E+00-0.985E-02
CGA:  11    -0.354412579559E+03   -0.66930E-02   -0.66884E-02  7072   0.850E-01 0.717E-03
CGA:  12    -0.354416330247E+03   -0.37507E-02   -0.37679E-02  7072   0.687E-01 0.261E-03
CGA:  13    -0.354420119592E+03   -0.37893E-02   -0.37910E-02  7072   0.289E-01 0.397E-03
CGA:  14    -0.354422064779E+03   -0.19452E-02   -0.19417E-02  7072   0.253E-01 0.199E-03
CGA:  15    -0.354422819666E+03   -0.75489E-03   -0.76093E-03  7072   0.780E-02-0.989E-04
CGA:  16    -0.354423362543E+03   -0.54288E-03   -0.54285E-03  7072   0.119E-01-0.400E-05
CGA:  17    -0.354423812147E+03   -0.44960E-03   -0.45298E-03  7072   0.693E-02 0.433E-05
CGA:  18    -0.354424238529E+03   -0.42638E-03   -0.42645E-03  7072   0.390E-02-0.113E-04
CGA:  19    -0.354424365732E+03   -0.12720E-03   -0.12743E-03  7072   0.186E-02-0.501E-05
CGA:  20    -0.354424549774E+03   -0.18404E-03   -0.18330E-03  7072   0.232E-02 0.142E-04
CGA:  21    -0.354424658905E+03   -0.10913E-03   -0.10927E-03  7072   0.237E-02 0.490E-05
CGA:  22    -0.354424788706E+03   -0.12980E-03   -0.12980E-03  7072   0.129E-02 0.190E-05
CGA:  23    -0.354424831634E+03   -0.42928E-04   -0.43038E-04  7072   0.783E-03 0.108E-05
CGA:  24    -0.354424882452E+03   -0.50818E-04   -0.50754E-04  7072   0.626E-03 0.584E-05
CGA:  25    -0.354424924643E+03   -0.42192E-04   -0.42123E-04  7072   0.881E-03 0.557E-05
CGA:  26    -0.354424966375E+03   -0.41732E-04   -0.41797E-04  7072   0.255E-03 0.591E-05
CGA:  27    -0.354424979352E+03   -0.12976E-04   -0.12990E-04  7072   0.272E-03 0.203E-05
CGA:  28    -0.354424993090E+03   -0.13739E-04   -0.13757E-04  7072   0.248E-03 0.294E-05
CGA:  29    -0.354425009765E+03   -0.16675E-04   -0.16623E-04  7072   0.303E-03 0.450E-05
CGA:  30    -0.354425021035E+03   -0.11270E-04   -0.11338E-04  7072   0.100E-03 0.283E-05
CGA:  31    -0.354425028049E+03   -0.70137E-05   -0.70050E-05  7072   0.114E-03 0.370E-06
  19 F= -.35442503E+03 E0= -.35440610E+03  d E =-.176335E-01  mag=     8.0000
       N       E                     dE             d eps       ncg     rms          ort
SDA:   1    -0.336428890582E+03    0.17996E+02    0.00000E+00  7072   0.623E+02 0.000E+00
CGA:   2    -0.340651595480E+03   -0.42227E+01   -0.41525E+01  7072   0.131E+03 0.485E+01
CGA:   3    -0.347138270913E+03   -0.64867E+01   -0.60630E+01  7072   0.661E+02-0.697E+01
CGA:   4    -0.350605433999E+03   -0.34672E+01   -0.34694E+01  7072   0.516E+02-0.695E+01
CGA:   5    -0.351422100322E+03   -0.81667E+00   -0.82363E+00  7072   0.222E+02-0.140E+01
CGA:   6    -0.352750819346E+03   -0.13287E+01   -0.13178E+01  7072   0.170E+02 0.974E+00
CGA:   7    -0.353276873503E+03   -0.52605E+00   -0.50620E+00  7072   0.178E+02 0.265E+00
CGA:   8    -0.353775927606E+03   -0.49905E+00   -0.46889E+00  7072   0.340E+01 0.476E+00
CGA:   9    -0.353904362537E+03   -0.12843E+00   -0.12910E+00  7072   0.443E+01 0.481E-02
CGA:  10    -0.354040489857E+03   -0.13613E+00   -0.14110E+00  7072   0.311E+01-0.296E-01
CGA:  11    -0.354118298207E+03   -0.77808E-01   -0.78613E-01  7072   0.199E+01-0.149E-01
CGA:  12    -0.354191946382E+03   -0.73648E-01   -0.73416E-01  7072   0.722E+00-0.562E-02
CGA:  13    -0.354214866195E+03   -0.22920E-01   -0.23485E-01  7072   0.845E+00-0.197E-03
CGA:  14    -0.354240270738E+03   -0.25405E-01   -0.25768E-01  7072   0.468E+00-0.114E-03
CGA:  15    -0.354274607399E+03   -0.34337E-01   -0.34678E-01  7072   0.315E+00-0.106E-01
CGA:  16    -0.354283972678E+03   -0.93653E-02   -0.97712E-02  7072   0.245E+00 0.371E-03
CGA:  17    -0.354292924818E+03   -0.89521E-02   -0.89250E-02  7072   0.124E+00-0.399E-03
CGA:  18    -0.354298095859E+03   -0.51710E-02   -0.52043E-02  7072   0.122E+00 0.313E-02
CGA:  19    -0.354304793349E+03   -0.66975E-02   -0.67168E-02  7072   0.647E-01-0.161E-02
CGA:  20    -0.354308903837E+03   -0.41105E-02   -0.40283E-02  7072   0.496E-01 0.367E-02
CGA:  21    -0.354310805915E+03   -0.19021E-02   -0.19056E-02  7072   0.262E-01 0.892E-04
CGA:  22    -0.354312786271E+03   -0.19804E-02   -0.19500E-02  7072   0.407E-01 0.942E-03
CGA:  23    -0.354314398211E+03   -0.16119E-02   -0.16079E-02  7072   0.232E-01-0.105E-03
CGA:  24    -0.354315578500E+03   -0.11803E-02   -0.11787E-02  7072   0.187E-01 0.277E-03
CGA:  25    -0.354316483385E+03   -0.90489E-03   -0.90488E-03  7072   0.128E-01 0.185E-04
CGA:  26    -0.354317380840E+03   -0.89745E-03   -0.89713E-03  7072   0.143E-01 0.109E-04
CGA:  27    -0.354318115281E+03   -0.73444E-03   -0.73449E-03  7072   0.872E-02-0.183E-04
CGA:  28    -0.354318586161E+03   -0.47088E-03   -0.47090E-03  7072   0.613E-02-0.751E-05
CGA:  29    -0.354318926043E+03   -0.33988E-03   -0.33990E-03  7072   0.570E-02-0.447E-05
CGA:  30    -0.354319291163E+03   -0.36512E-03   -0.36524E-03  7072   0.468E-02-0.688E-05
CGA:  31    -0.354319477780E+03   -0.18662E-03   -0.18667E-03  7072   0.275E-02-0.780E-06
SDA:  32    -0.354319618953E+03   -0.14117E-03   -0.14117E-03  7072   0.255E-02-0.277E-06
CGA:  33    -0.354319666176E+03   -0.47223E-04   -0.47275E-04  7072   0.652E-03-0.149E-05
CGA:  34    -0.354319806933E+03   -0.14076E-03   -0.13925E-03  7072   0.175E-02 0.899E-05
CGA:  35    -0.354319898623E+03   -0.91690E-04   -0.91711E-04  7072   0.160E-02 0.476E-05
CGA:  36    -0.354319952039E+03   -0.53415E-04   -0.53475E-04  7072   0.342E-03 0.437E-05
CGA:  37    -0.354320009615E+03   -0.57577E-04   -0.56367E-04  7072   0.577E-03 0.110E-04
CGA:  38    -0.354320037035E+03   -0.27420E-04   -0.27481E-04  7072   0.630E-03 0.433E-05
CGA:  39    -0.354320059821E+03   -0.22786E-04   -0.22844E-04  7072   0.179E-03 0.333E-05
CGA:  40    -0.354320088503E+03   -0.28681E-04   -0.28315E-04  7072   0.175E-03 0.367E-05
CGA:  41    -0.354320107685E+03   -0.19182E-04   -0.19262E-04  7072   0.274E-03-0.186E-05
CGA:  42    -0.354320115102E+03   -0.74173E-05   -0.73852E-05  7072   0.838E-04-0.716E-06
  20 F= -.35432012E+03 E0= -.35430097E+03  d E =0.104913E+00  mag=     8.0000
       N       E                     dE             d eps       ncg     rms          ort
SDA:   1    -0.350352180913E+03    0.39679E+01    0.00000E+00  7072   0.170E+02 0.000E+00
CGA:   2    -0.351735225510E+03   -0.13830E+01   -0.13469E+01  7072   0.194E+02 0.189E+01
CGA:   3    -0.352559762484E+03   -0.82454E+00   -0.83230E+00  7072   0.174E+02-0.341E+00
CGA:   4    -0.353481437551E+03   -0.92168E+00   -0.88379E+00  7072   0.721E+01-0.421E+00
CGA:   5    -0.353729093188E+03   -0.24766E+00   -0.25371E+00  7072   0.700E+01-0.115E+00
CGA:   6    -0.354190095256E+03   -0.46100E+00   -0.46097E+00  7072   0.221E+01 0.558E-02
CGA:   7    -0.354316293017E+03   -0.12620E+00   -0.12552E+00  7072   0.974E+00-0.344E-01
CGA:   8    -0.354345013846E+03   -0.28721E-01   -0.29190E-01  7072   0.880E+00-0.869E-02
CGA:   9    -0.354399289714E+03   -0.54276E-01   -0.54274E-01  7072   0.253E+00 0.178E-02
CGA:  10    -0.354418904239E+03   -0.19615E-01   -0.19564E-01  7072   0.188E+00 0.229E-02
CGA:  11    -0.354424162916E+03   -0.52587E-02   -0.52688E-02  7072   0.103E+00-0.183E-03
CGA:  12    -0.354431511989E+03   -0.73491E-02   -0.73142E-02  7072   0.791E-01 0.214E-02
CGA:  13    -0.354435044875E+03   -0.35329E-02   -0.35392E-02  7072   0.806E-01 0.245E-04
CGA:  14    -0.354438195486E+03   -0.31506E-02   -0.31550E-02  7072   0.174E-01-0.393E-04
CGA:  15    -0.354439919852E+03   -0.17244E-02   -0.17117E-02  7072   0.158E-01 0.287E-03
CGA:  16    -0.354440697414E+03   -0.77756E-03   -0.77850E-03  7072   0.224E-01 0.992E-05
CGA:  17    -0.354441681409E+03   -0.98399E-03   -0.98577E-03  7072   0.489E-02-0.626E-05
CGA:  18    -0.354442167425E+03   -0.48602E-03   -0.48237E-03  7072   0.745E-02 0.844E-04
CGA:  19    -0.354442428721E+03   -0.26130E-03   -0.26192E-03  7072   0.437E-02 0.248E-05
CGA:  20    -0.354442759210E+03   -0.33049E-03   -0.33039E-03  7072   0.282E-02 0.662E-05
CGA:  21    -0.354442910312E+03   -0.15110E-03   -0.15120E-03  7072   0.433E-02 0.958E-05
CGA:  22    -0.354443112008E+03   -0.20170E-03   -0.20234E-03  7072   0.165E-02 0.193E-04
CGA:  23    -0.354443260181E+03   -0.14817E-03   -0.14773E-03  7072   0.177E-02 0.144E-04
CGA:  24    -0.354443324179E+03   -0.63998E-04   -0.64172E-04  7072   0.119E-02 0.489E-05
CGA:  25    -0.354443409456E+03   -0.85277E-04   -0.85183E-04  7072   0.556E-03 0.801E-05
CGA:  26    -0.354443443232E+03   -0.33776E-04   -0.33778E-04  7072   0.101E-02 0.328E-05
CGA:  27    -0.354443489598E+03   -0.46366E-04   -0.46442E-04  7072   0.278E-03 0.460E-05
CGA:  28    -0.354443509057E+03   -0.19459E-04   -0.19447E-04  7072   0.342E-03 0.118E-05
CGA:  29    -0.354443522777E+03   -0.13720E-04   -0.13735E-04  7072   0.233E-03 0.601E-06
CGA:  30    -0.354443545462E+03   -0.22684E-04   -0.22695E-04  7072   0.175E-03-0.318E-06
CGA:  31    -0.354443553979E+03   -0.85176E-05   -0.85106E-05  7072   0.221E-03-0.584E-06
  21 F= -.35444355E+03 E0= -.35442456E+03  d E =-.123439E+00  mag=     8.0000
       N       E                     dE             d eps       ncg     rms          ort
SDA:   1    -0.354327631052E+03    0.11591E+00    0.00000E+00  7072   0.496E+00 0.000E+00
CGA:   2    -0.354350048686E+03   -0.22418E-01   -0.22466E-01  7072   0.769E+00 0.535E-03
CGA:   3    -0.354404841539E+03   -0.54793E-01   -0.54737E-01  7072   0.455E+00 0.319E-02
CGA:   4    -0.354427400455E+03   -0.22559E-01   -0.22478E-01  7072   0.275E+00-0.218E-02
CGA:   5    -0.354435391127E+03   -0.79907E-02   -0.79910E-02  7072   0.114E+00-0.770E-04
CGA:   6    -0.354448168013E+03   -0.12777E-01   -0.12802E-01  7072   0.456E-01-0.451E-03
CGA:   7    -0.354450896044E+03   -0.27280E-02   -0.27281E-02  7072   0.151E-01 0.107E-03
CGA:   8    -0.354451666421E+03   -0.77038E-03   -0.77033E-03  7072   0.246E-01-0.312E-05
CGA:   9    -0.354452884176E+03   -0.12178E-02   -0.12180E-02  7072   0.348E-02-0.200E-05
CGA:  10    -0.354453078047E+03   -0.19387E-03   -0.19386E-03  7072   0.475E-02-0.430E-05
CGA:  11    -0.354453276956E+03   -0.19891E-03   -0.19876E-03  7072   0.179E-02-0.864E-05
CGA:  12    -0.354453438342E+03   -0.16139E-03   -0.16199E-03  7072   0.997E-03-0.186E-04
CGA:  13    -0.354453494132E+03   -0.55789E-04   -0.55761E-04  7072   0.116E-02-0.849E-05
CGA:  14    -0.354453529024E+03   -0.34892E-04   -0.34694E-04  7072   0.336E-03-0.617E-05
CGA:  15    -0.354453562765E+03   -0.33741E-04   -0.34013E-04  7072   0.374E-03-0.635E-05
CGA:  16    -0.354453580571E+03   -0.17806E-04   -0.17756E-04  7072   0.441E-03-0.423E-05
CGA:  17    -0.354453602785E+03   -0.22214E-04   -0.22171E-04  7072   0.957E-04-0.494E-05
CGA:  18    -0.354453613503E+03   -0.10718E-04   -0.10648E-04  7072   0.206E-03 0.130E-05
CGA:  19    -0.354453620552E+03   -0.70494E-05   -0.70862E-05  7072   0.143E-03 0.127E-05
CGA:  20    -0.354453634168E+03   -0.13616E-04   -0.13531E-04  7072   0.741E-04 0.248E-05
CGA:  21    -0.354453638768E+03   -0.45996E-05   -0.46020E-05  7072   0.889E-04 0.172E-05
  22 F= -.35445364E+03 E0= -.35443460E+03  d E =-.100848E-01  mag=     8.0000
       N       E                     dE             d eps       ncg     rms          ort
SDA:   1    -0.353343163720E+03    0.11105E+01    0.00000E+00  7072   0.315E+01 0.000E+00
CGA:   2    -0.353734511834E+03   -0.39135E+00   -0.38640E+00  7072   0.107E+02 0.881E-01
CGA:   3    -0.354149476890E+03   -0.41497E+00   -0.41451E+00  7072   0.221E+01-0.225E-01
CGA:   4    -0.354286631393E+03   -0.13715E+00   -0.13712E+00  7072   0.160E+01-0.244E-01
CGA:   5    -0.354341641135E+03   -0.55010E-01   -0.54995E-01  7072   0.134E+01-0.131E-02
CGA:   6    -0.354422646052E+03   -0.81005E-01   -0.81022E-01  7072   0.363E+00 0.925E-02
CGA:   7    -0.354437095367E+03   -0.14449E-01   -0.14480E-01  7072   0.237E+00-0.131E-03
CGA:   8    -0.354446285658E+03   -0.91903E-02   -0.92064E-02  7072   0.101E+00-0.537E-04
CGA:   9    -0.354456653146E+03   -0.10367E-01   -0.10388E-01  7072   0.559E-01-0.436E-03
CGA:  10    -0.354458202275E+03   -0.15491E-02   -0.15486E-02  7072   0.290E-01-0.410E-05
CGA:  11    -0.354459865018E+03   -0.16627E-02   -0.16631E-02  7072   0.174E-01 0.628E-04
CGA:  12    -0.354460764003E+03   -0.89898E-03   -0.89903E-03  7072   0.230E-01-0.166E-04
CGA:  13    -0.354461806819E+03   -0.10428E-02   -0.10424E-02  7072   0.396E-02-0.461E-04
CGA:  14    -0.354462155372E+03   -0.34855E-03   -0.34927E-03  7072   0.440E-02-0.238E-04
CGA:  15    -0.354462317886E+03   -0.16251E-03   -0.16221E-03  7072   0.304E-02-0.142E-04
CGA:  16    -0.354462537356E+03   -0.21947E-03   -0.21971E-03  7072   0.200E-02-0.190E-04
CGA:  17    -0.354462640375E+03   -0.10302E-03   -0.10295E-03  7072   0.213E-02-0.927E-05
CGA:  18    -0.354462707579E+03   -0.67203E-04   -0.67162E-04  7072   0.635E-03-0.524E-05
CGA:  19    -0.354462789941E+03   -0.82362E-04   -0.82079E-04  7072   0.136E-02 0.406E-05
CGA:  20    -0.354462838169E+03   -0.48228E-04   -0.48315E-04  7072   0.755E-03 0.256E-05
CGA:  21    -0.354462906342E+03   -0.68173E-04   -0.68002E-04  7072   0.356E-03 0.566E-05
CGA:  22    -0.354462930541E+03   -0.24199E-04   -0.24175E-04  7072   0.589E-03 0.397E-05
CGA:  23    -0.354462956485E+03   -0.25944E-04   -0.26048E-04  7072   0.355E-03 0.537E-05
CGA:  24    -0.354462982894E+03   -0.26409E-04   -0.26335E-04  7072   0.401E-03 0.584E-05
CGA:  25    -0.354462994724E+03   -0.11830E-04   -0.11935E-04  7072   0.142E-03 0.316E-05
CGA:  26    -0.354463005481E+03   -0.10757E-04   -0.10695E-04  7072   0.921E-04 0.421E-05
CGA:  27    -0.354463013556E+03   -0.80751E-05   -0.79929E-05  7072   0.186E-03 0.345E-05
  23 F= -.35446301E+03 E0= -.35444392E+03  d E =-.937479E-02  mag=     8.0000
       N       E                     dE             d eps       ncg     rms          ort
SDA:   1    -0.354401112603E+03    0.61893E-01    0.00000E+00  7072   0.290E+00 0.000E+00
CGA:   2    -0.354411145042E+03   -0.10032E-01   -0.10027E-01  7072   0.276E+00 0.311E-04
CGA:   3    -0.354436449930E+03   -0.25305E-01   -0.25311E-01  7072   0.275E+00-0.178E-03
CGA:   4    -0.354452657274E+03   -0.16207E-01   -0.16208E-01  7072   0.172E+00 0.137E-03
CGA:   5    -0.354456499811E+03   -0.38425E-02   -0.38531E-02  7072   0.388E-01-0.415E-03
CGA:   6    -0.354460784977E+03   -0.42852E-02   -0.42864E-02  7072   0.297E-01-0.233E-04
CGA:   7    -0.354462629027E+03   -0.18440E-02   -0.18440E-02  7072   0.589E-02 0.341E-04
CGA:   8    -0.354462839854E+03   -0.21083E-03   -0.21071E-03  7072   0.579E-02 0.438E-06
CGA:   9    -0.354463266371E+03   -0.42652E-03   -0.42668E-03  7072   0.274E-02-0.105E-04
CGA:  10    -0.354463386308E+03   -0.11994E-03   -0.11995E-03  7072   0.241E-02-0.732E-06
CGA:  11    -0.354463468143E+03   -0.81835E-04   -0.81779E-04  7072   0.492E-03-0.135E-05
CGA:  12    -0.354463534156E+03   -0.66013E-04   -0.66364E-04  7072   0.487E-03-0.462E-05
CGA:  13    -0.354463551218E+03   -0.17062E-04   -0.17020E-04  7072   0.348E-03-0.162E-05
CGA:  14    -0.354463567534E+03   -0.16315E-04   -0.16296E-04  7072   0.138E-03-0.158E-05
CGA:  15    -0.354463575854E+03   -0.83208E-05   -0.83205E-05  7072   0.147E-03-0.120E-05
  24 F= -.35446358E+03 E0= -.35444447E+03  d E =-.562298E-03  mag=     8.0000
       N       E                     dE             d eps       ncg     rms          ort
SDA:   1    -0.353871140760E+03    0.59243E+00    0.00000E+00  7072   0.178E+01 0.000E+00
CGA:   2    -0.353986583362E+03   -0.11544E+00   -0.11538E+00  7072   0.475E+01 0.810E-02
CGA:   3    -0.354300701696E+03   -0.31412E+00   -0.31461E+00  7072   0.163E+01-0.460E-01
CGA:   4    -0.354386248345E+03   -0.85547E-01   -0.85497E-01  7072   0.464E+00-0.234E-02
CGA:   5    -0.354426558799E+03   -0.40310E-01   -0.40463E-01  7072   0.772E+00-0.437E-02
CGA:   6    -0.354446866944E+03   -0.20308E-01   -0.20249E-01  7072   0.159E+00 0.101E-02
CGA:   7    -0.354456824650E+03   -0.99577E-02   -0.99572E-02  7072   0.708E-01 0.104E-03
CGA:   8    -0.354459511924E+03   -0.26873E-02   -0.26906E-02  7072   0.589E-01-0.797E-05
CGA:   9    -0.354462557408E+03   -0.30455E-02   -0.30438E-02  7072   0.191E-01-0.101E-03
CGA:  10    -0.354464778026E+03   -0.22206E-02   -0.22160E-02  7072   0.881E-02 0.801E-04
CGA:  11    -0.354465030410E+03   -0.25238E-03   -0.25231E-03  7072   0.574E-02-0.273E-06
CGA:  12    -0.354465419736E+03   -0.38933E-03   -0.38912E-03  7072   0.350E-02 0.131E-04
CGA:  13    -0.354465659395E+03   -0.23966E-03   -0.23971E-03  7072   0.297E-02-0.537E-05
CGA:  14    -0.354465751652E+03   -0.92257E-04   -0.92294E-04  7072   0.131E-02-0.231E-05
CGA:  15    -0.354465839492E+03   -0.87840E-04   -0.87840E-04  7072   0.475E-03-0.465E-06
CGA:  16    -0.354465883598E+03   -0.44106E-04   -0.44070E-04  7072   0.101E-02 0.829E-06
CGA:  17    -0.354465916529E+03   -0.32930E-04   -0.32930E-04  7072   0.410E-03-0.623E-06
CGA:  18    -0.354465948892E+03   -0.32363E-04   -0.32345E-04  7072   0.182E-03 0.439E-06
CGA:  19    -0.354465956869E+03   -0.79770E-05   -0.79730E-05  7072   0.236E-03-0.488E-06
CGA:  20    -0.354465979277E+03   -0.22408E-04   -0.22416E-04  7072   0.187E-03-0.432E-06
CGA:  21    -0.354465991571E+03   -0.12294E-04   -0.12291E-04  7072   0.111E-03 0.538E-06
CGA:  22    -0.354465994797E+03   -0.32259E-05   -0.32446E-05  7072   0.702E-04 0.392E-06
  25 F= -.35446599E+03 E0= -.35444687E+03  d E =-.241894E-02  mag=     8.0000
       N       E                     dE             d eps       ncg     rms          ort
SDA:   1    -0.352077608358E+03    0.23884E+01    0.00000E+00  7072   0.705E+01 0.000E+00
CGA:   2    -0.352616337285E+03   -0.53873E+00   -0.53618E+00  7072   0.199E+02 0.139E+00
CGA:   3    -0.353857967233E+03   -0.12416E+01   -0.12408E+01  7072   0.472E+01-0.278E+00
CGA:   4    -0.354073677645E+03   -0.21571E+00   -0.21713E+00  7072   0.457E+01 0.120E-01
CGA:   5    -0.354244583759E+03   -0.17091E+00   -0.17029E+00  7072   0.222E+01-0.385E-02
[...]
CGA:  10    -0.354541326628E+03   -0.65904E-03   -0.65913E-03  7072   0.579E-02 0.730E-05
CGA:  11    -0.354541752212E+03   -0.42558E-03   -0.42590E-03  7072   0.255E-02-0.181E-04
CGA:  12    -0.354541874201E+03   -0.12199E-03   -0.12193E-03  7072   0.257E-02-0.676E-05
CGA:  13    -0.354542000236E+03   -0.12604E-03   -0.12602E-03  7072   0.137E-02-0.690E-05
CGA:  14    -0.354542078791E+03   -0.78555E-04   -0.78576E-04  7072   0.137E-02-0.144E-04
CGA:  15    -0.354542123272E+03   -0.44481E-04   -0.44348E-04  7072   0.239E-03-0.816E-05
CGA:  16    -0.354542159105E+03   -0.35833E-04   -0.36306E-04  7072   0.286E-03-0.511E-05
CGA:  17    -0.354542178687E+03   -0.19582E-04   -0.19614E-04  7072   0.188E-03-0.337E-05
CGA:  18    -0.354542186178E+03   -0.74910E-05   -0.74763E-05  7072   0.115E-03-0.985E-06
  69 F= -.35454219E+03 E0= -.35452397E+03  d E =-.357605E-02  mag=     8.0000
       N       E                     dE             d eps       ncg     rms          ort
SDA:   1    -0.354481521736E+03    0.60657E-01    0.00000E+00  7072   0.200E+00 0.000E+00
CGA:   2    -0.354497669841E+03   -0.16148E-01   -0.16070E-01  7072   0.350E+00 0.291E-02
CGA:   3    -0.354519319563E+03   -0.21650E-01   -0.21650E-01  7072   0.278E+00-0.399E-03
CGA:   4    -0.354530821840E+03   -0.11502E-01   -0.11284E-01  7072   0.945E-01-0.491E-04
CGA:   5    -0.354534937037E+03   -0.41152E-02   -0.41197E-02  7072   0.663E-01 0.314E-04
CGA:   6    -0.354537975856E+03   -0.30388E-02   -0.30357E-02  7072   0.416E-01-0.666E-04
CGA:   7    -0.354539982051E+03   -0.20062E-02   -0.20052E-02  7072   0.150E-01-0.425E-04
CGA:   8    -0.354541123030E+03   -0.11410E-02   -0.11426E-02  7072   0.535E-02-0.717E-04
CGA:   9    -0.354541303600E+03   -0.18057E-03   -0.18088E-03  7072   0.374E-02-0.179E-05
CGA:  10    -0.354541547639E+03   -0.24404E-03   -0.24410E-03  7072   0.267E-02-0.659E-05
CGA:  11    -0.354541685175E+03   -0.13754E-03   -0.13750E-03  7072   0.178E-02-0.449E-05
CGA:  12    -0.354541742478E+03   -0.57303E-04   -0.57178E-04  7072   0.358E-03-0.438E-05
CGA:  13    -0.354541794865E+03   -0.52387E-04   -0.53258E-04  7072   0.688E-03-0.934E-05
CGA:  14    -0.354541814047E+03   -0.19182E-04   -0.19035E-04  7072   0.189E-03-0.425E-05
CGA:  15    -0.354541822763E+03   -0.87164E-05   -0.86920E-05  7072   0.125E-03-0.188E-05
  70 F= -.35454182E+03 E0= -.35452360E+03  d E =0.363415E-03  mag=     8.0000
       N       E                     dE             d eps       ncg     rms          ort
SDA:   1    -0.354373901920E+03    0.16791E+00    0.00000E+00  7072   0.595E+00 0.000E+00
CGA:   2    -0.354404185769E+03   -0.30284E-01   -0.30150E-01  7072   0.897E+00-0.472E-02
CGA:   3    -0.354490109357E+03   -0.85924E-01   -0.85910E-01  7072   0.571E+00 0.238E-03
CGA:   4    -0.354512502008E+03   -0.22393E-01   -0.22234E-01  7072   0.265E+00 0.420E-03
CGA:   5    -0.354521833952E+03   -0.93319E-02   -0.94121E-02  7072   0.144E+00-0.651E-03
CGA:   6    -0.354531392323E+03   -0.95584E-02   -0.95701E-02  7072   0.954E-01-0.957E-03
CGA:   7    -0.354536166512E+03   -0.47742E-02   -0.47760E-02  7072   0.279E-01 0.636E-04
CGA:   8    -0.354537789010E+03   -0.16225E-02   -0.16224E-02  7072   0.159E-01-0.511E-04
CGA:   9    -0.354538321620E+03   -0.53261E-03   -0.53326E-03  7072   0.974E-02-0.613E-05
CGA:  10    -0.354539047628E+03   -0.72601E-03   -0.72659E-03  7072   0.585E-02-0.292E-04
CGA:  11    -0.354539273078E+03   -0.22545E-03   -0.22551E-03  7072   0.409E-02-0.124E-05
CGA:  12    -0.354539482383E+03   -0.20931E-03   -0.20931E-03  7072   0.880E-03-0.930E-06
CGA:  13    -0.354539571215E+03   -0.88832E-04   -0.89193E-04  7072   0.125E-02-0.838E-05
CGA:  14    -0.354539618692E+03   -0.47477E-04   -0.47344E-04  7072   0.857E-03-0.628E-05
CGA:  15    -0.354539656847E+03   -0.38155E-04   -0.38165E-04  7072   0.229E-03-0.220E-05
CGA:  16    -0.354539680226E+03   -0.23379E-04   -0.23466E-04  7072   0.232E-03-0.208E-05
CGA:  17    -0.354539691548E+03   -0.11321E-04   -0.11324E-04  7072   0.198E-03 0.672E-07
CGA:  18    -0.354539703321E+03   -0.11773E-04   -0.11773E-04  7072   0.227E-03-0.786E-06
CGA:  19    -0.354539713461E+03   -0.10140E-04   -0.10133E-04  7072   0.782E-04-0.671E-06
CGA:  20    -0.354539718830E+03   -0.53694E-05   -0.53779E-05  7072   0.117E-03-0.886E-06
  71 F= -.35453972E+03 E0= -.35452151E+03  d E =0.210393E-02  mag=     8.0000
       N       E                     dE             d eps       ncg     rms          ort
SDA:   1    -0.354073393538E+03    0.46632E+00    0.00000E+00  7072   0.170E+01 0.000E+00
CGA:   2    -0.354151596940E+03   -0.78203E-01   -0.79058E-01  7072   0.250E+01 0.155E-01
CGA:   3    -0.354381646446E+03   -0.23005E+00   -0.23142E+00  7072   0.201E+01-0.362E-01
CGA:   4    -0.354457399863E+03   -0.75753E-01   -0.74755E-01  7072   0.833E+00 0.327E-02
CGA:   5    -0.354487129181E+03   -0.29729E-01   -0.29942E-01  7072   0.307E+00-0.792E-03
CGA:   6    -0.354513470697E+03   -0.26342E-01   -0.26324E-01  7072   0.338E+00 0.495E-03
CGA:   7    -0.354527695063E+03   -0.14224E-01   -0.14153E-01  7072   0.785E-01-0.365E-03
CGA:   8    -0.354529806219E+03   -0.21112E-02   -0.21152E-02  7072   0.316E-01-0.723E-04
CGA:   9    -0.354532533299E+03   -0.27271E-02   -0.27324E-02  7072   0.280E-01-0.147E-03
CGA:  10    -0.354534459127E+03   -0.19258E-02   -0.19243E-02  7072   0.146E-01 0.934E-04
CGA:  11    -0.354534831238E+03   -0.37211E-03   -0.37111E-03  7072   0.438E-02 0.972E-05
CGA:  12    -0.354535178700E+03   -0.34746E-03   -0.34735E-03  7072   0.378E-02 0.205E-05
CGA:  13    -0.354535445141E+03   -0.26644E-03   -0.26652E-03  7072   0.450E-02-0.668E-05
CGA:  14    -0.354535585339E+03   -0.14020E-03   -0.14028E-03  7072   0.628E-03-0.337E-05
CGA:  15    -0.354535638285E+03   -0.52946E-04   -0.52985E-04  7072   0.136E-02-0.205E-05
CGA:  16    -0.354535703368E+03   -0.65082E-04   -0.65112E-04  7072   0.620E-03 0.405E-06
CGA:  17    -0.354535736828E+03   -0.33460E-04   -0.33453E-04  7072   0.449E-03-0.190E-05
CGA:  18    -0.354535765504E+03   -0.28676E-04   -0.28668E-04  7072   0.303E-03 0.795E-06
CGA:  19    -0.354535778886E+03   -0.13382E-04   -0.13370E-04  7072   0.325E-03-0.110E-05
CGA:  20    -0.354535805556E+03   -0.26670E-04   -0.26696E-04  7072   0.255E-03-0.129E-05
CGA:  21    -0.354535825447E+03   -0.19891E-04   -0.19912E-04  7072   0.182E-03-0.124E-05
CGA:  22    -0.354535831056E+03   -0.56089E-05   -0.56308E-05  7072   0.102E-03 0.510E-06
CGA:  23    -0.354535841848E+03   -0.10792E-04   -0.10705E-04  7072   0.103E-03 0.173E-05
CGA:  24    -0.354535847315E+03   -0.54664E-05   -0.54741E-05  7072   0.956E-04 0.799E-06
  72 F= -.35453585E+03 E0= -.35451769E+03  d E =0.387152E-02  mag=     8.0000
       N       E                     dE             d eps       ncg     rms          ort
SDA:   1    -0.354170492887E+03    0.36535E+00    0.00000E+00  7072   0.898E+00 0.000E+00
CGA:   2    -0.354401757316E+03   -0.23126E+00   -0.23140E+00  7072   0.185E+01-0.740E-03
CGA:   3    -0.354455557860E+03   -0.53801E-01   -0.54226E-01  7072   0.747E+00-0.119E-01
CGA:   4    -0.354487777482E+03   -0.32220E-01   -0.31874E-01  7072   0.332E+00 0.126E-02
CGA:   5    -0.354513428335E+03   -0.25651E-01   -0.25611E-01  7072   0.368E+00 0.241E-02
CGA:   6    -0.354524776745E+03   -0.11348E-01   -0.11350E-01  7072   0.551E-01-0.149E-03
CGA:   7    -0.354528794642E+03   -0.40179E-02   -0.40166E-02  7072   0.275E-01 0.100E-03
CGA:   8    -0.354531237988E+03   -0.24433E-02   -0.24450E-02  7072   0.391E-01-0.469E-04
CGA:   9    -0.354532412739E+03   -0.11748E-02   -0.11771E-02  7072   0.854E-02-0.313E-04
CGA:  10    -0.354532902920E+03   -0.49018E-03   -0.49001E-03  7072   0.749E-02-0.939E-05
CGA:  11    -0.354533173253E+03   -0.27033E-03   -0.27009E-03  7072   0.352E-02 0.483E-05
CGA:  12    -0.354533483834E+03   -0.31058E-03   -0.31044E-03  7072   0.171E-02 0.536E-05
CGA:  13    -0.354533597582E+03   -0.11375E-03   -0.11374E-03  7072   0.117E-02 0.230E-05
CGA:  14    -0.354533637724E+03   -0.40142E-04   -0.40189E-04  7072   0.553E-03 0.838E-06
CGA:  15    -0.354533683033E+03   -0.45309E-04   -0.45247E-04  7072   0.757E-03 0.296E-05
CGA:  16    -0.354533716482E+03   -0.33449E-04   -0.33426E-04  7072   0.493E-03-0.939E-06
CGA:  17    -0.354533738530E+03   -0.22049E-04   -0.22049E-04  7072   0.175E-03-0.981E-07
CGA:  18    -0.354533751696E+03   -0.13166E-04   -0.13161E-04  7072   0.227E-03 0.382E-06
CGA:  19    -0.354533770818E+03   -0.19122E-04   -0.19105E-04  7072   0.201E-03 0.801E-06
CGA:  20    -0.354533779686E+03   -0.88679E-05   -0.88497E-05  7072   0.187E-03-0.888E-06
CGA:  21    -0.354533791936E+03   -0.12250E-04   -0.12252E-04  7072   0.972E-04-0.747E-06
CGA:  22    -0.354533795472E+03   -0.35365E-05   -0.35330E-05  7072   0.753E-04-0.141E-06
  73 F= -.35453380E+03 E0= -.35451562E+03  d E =0.205184E-02  mag=     8.0000
       N       E                     dE             d eps       ncg     rms          ort
SDA:   1    -0.353864028808E+03    0.66976E+00    0.00000E+00  7072   0.178E+01 0.000E+00
CGA:   2    -0.354103172520E+03   -0.23914E+00   -0.23314E+00  7072   0.581E+01 0.900E-01
CGA:   3    -0.354348083727E+03   -0.24491E+00   -0.24299E+00  7072   0.225E+01 0.170E-02
CGA:   4    -0.354437695079E+03   -0.89611E-01   -0.89953E-01  7072   0.671E+00-0.145E-02
CGA:   5    -0.354469396441E+03   -0.31701E-01   -0.30980E-01  7072   0.663E+00-0.411E-02
CGA:   6    -0.354510832552E+03   -0.41436E-01   -0.41441E-01  7072   0.294E+00 0.354E-02
CGA:   7    -0.354520493900E+03   -0.96613E-02   -0.96826E-02  7072   0.662E-01-0.377E-03
CGA:   8    -0.354524428436E+03   -0.39345E-02   -0.39358E-02  7072   0.898E-01 0.237E-03
CGA:   9    -0.354528210219E+03   -0.37818E-02   -0.37634E-02  7072   0.274E-01-0.186E-04
CGA:  10    -0.354530235871E+03   -0.20257E-02   -0.20189E-02  7072   0.162E-01 0.363E-03
CGA:  11    -0.354530930557E+03   -0.69469E-03   -0.69233E-03  7072   0.129E-01-0.343E-05
CGA:  12    -0.354531433067E+03   -0.50251E-03   -0.50332E-03  7072   0.317E-02 0.387E-05
CGA:  13    -0.354531850251E+03   -0.41718E-03   -0.41667E-03  7072   0.384E-02 0.725E-05
CGA:  14    -0.354531966012E+03   -0.11576E-03   -0.11602E-03  7072   0.158E-02 0.990E-06
CGA:  15    -0.354532041683E+03   -0.75670E-04   -0.75562E-04  7072   0.678E-03-0.189E-05
CGA:  16    -0.354532105609E+03   -0.63926E-04   -0.63752E-04  7072   0.934E-03 0.497E-05
CGA:  17    -0.354532145839E+03   -0.40230E-04   -0.40242E-04  7072   0.533E-03 0.432E-06
CGA:  18    -0.354532169249E+03   -0.23411E-04   -0.23417E-04  7072   0.348E-03 0.289E-06
CGA:  19    -0.354532191370E+03   -0.22120E-04   -0.22121E-04  7072   0.166E-03-0.590E-06
CGA:  20    -0.354532205100E+03   -0.13731E-04   -0.13709E-04  7072   0.373E-03 0.922E-06
CGA:  21    -0.354532223186E+03   -0.18086E-04   -0.18087E-04  7072   0.153E-03-0.107E-06
CGA:  22    -0.354532231915E+03   -0.87290E-05   -0.87301E-05  7072   0.779E-04 0.211E-06
  74 F= -.35453223E+03 E0= -.35451402E+03  d E =0.156356E-02  mag=     8.0000
       N       E                     dE             d eps       ncg     rms          ort
SDA:   1    -0.352769837238E+03    0.17624E+01    0.00000E+00  7072   0.449E+01 0.000E+00
CGA:   2    -0.353466166299E+03   -0.69633E+00   -0.69724E+00  7072   0.199E+02 0.117E-01
CGA:   3    -0.354132007458E+03   -0.66584E+00   -0.67753E+00  7072   0.353E+01-0.228E+00
CGA:   4    -0.354291188880E+03   -0.15918E+00   -0.15968E+00  7072   0.174E+01 0.220E-02
CGA:   5    -0.354402343149E+03   -0.11115E+00   -0.11113E+00  7072   0.166E+01 0.122E-01
CGA:   6    -0.354483211032E+03   -0.80868E-01   -0.80099E-01  7072   0.474E+00-0.940E-02
CGA:   7    -0.354500079892E+03   -0.16869E-01   -0.17029E-01  7072   0.142E+00-0.120E-02
CGA:   8    -0.354513306842E+03   -0.13227E-01   -0.13219E-01  7072   0.213E+00 0.234E-03
CGA:   9    -0.354520320752E+03   -0.70139E-02   -0.69765E-02  7072   0.847E-01 0.490E-03
CGA:  10    -0.354524269996E+03   -0.39492E-02   -0.39512E-02  7072   0.273E-01 0.387E-04
CGA:  11    -0.354525580671E+03   -0.13107E-02   -0.13105E-02  7072   0.254E-01 0.238E-06
CGA:  12    -0.354527191388E+03   -0.16107E-02   -0.16107E-02  7072   0.110E-01 0.107E-04
CGA:  13    -0.354528005654E+03   -0.81427E-03   -0.81400E-03  7072   0.728E-02 0.116E-04
CGA:  14    -0.354528294036E+03   -0.28838E-03   -0.28851E-03  7072   0.276E-02-0.179E-05
CGA:  15    -0.354528444240E+03   -0.15020E-03   -0.15022E-03  7072   0.315E-02 0.221E-05
CGA:  16    -0.354528635623E+03   -0.19138E-03   -0.19138E-03  7072   0.242E-02 0.213E-05
CGA:  17    -0.354528735455E+03   -0.99832E-04   -0.99903E-04  7072   0.135E-02 0.593E-06
CGA:  18    -0.354528794839E+03   -0.59384E-04   -0.59335E-04  7072   0.406E-03-0.310E-05
CGA:  19    -0.354528851707E+03   -0.56867E-04   -0.56681E-04  7072   0.984E-03 0.227E-05
CGA:  20    -0.354528901838E+03   -0.50131E-04   -0.50138E-04  7072   0.507E-03 0.276E-06
CGA:  21    -0.354528924318E+03   -0.22480E-04   -0.22487E-04  7072   0.168E-03 0.181E-06
CGA:  22    -0.354528939037E+03   -0.14720E-04   -0.14724E-04  7072   0.313E-03-0.221E-06
CGA:  23    -0.354528955482E+03   -0.16444E-04   -0.16448E-04  7072   0.236E-03 0.327E-06
CGA:  24    -0.354528964883E+03   -0.94016E-05   -0.93962E-05  7072   0.116E-03-0.477E-06
  75 F= -.35452896E+03 E0= -.35451079E+03  d E =0.326703E-02  mag=     8.0000
       N       E                     dE             d eps       ncg     rms          ort
SDA:   1    -0.352894017450E+03    0.16349E+01    0.00000E+00  7072   0.433E+01 0.000E+00
CGA:   2    -0.353436512859E+03   -0.54250E+00   -0.54181E+00  7072   0.163E+02 0.306E-01
CGA:   3    -0.354179103262E+03   -0.74259E+00   -0.74011E+00  7072   0.261E+01-0.481E-02
CGA:   4    -0.354291869687E+03   -0.11277E+00   -0.11369E+00  7072   0.230E+01 0.354E-02
CGA:   5    -0.354404419793E+03   -0.11255E+00   -0.11008E+00  7072   0.147E+01-0.355E-01
CGA:   6    -0.354490033277E+03   -0.85613E-01   -0.85663E-01  7072   0.239E+00 0.136E-01
CGA:   7    -0.354502566216E+03   -0.12533E-01   -0.12536E-01  7072   0.181E+00 0.102E-03
CGA:   8    -0.354515445255E+03   -0.12879E-01   -0.12866E-01  7072   0.213E+00 0.827E-03
CGA:   9    -0.354522074852E+03   -0.66296E-02   -0.65539E-02  7072   0.495E-01 0.122E-02
CGA:  10    -0.354524971022E+03   -0.28962E-02   -0.28969E-02  7072   0.225E-01 0.286E-03
CGA:  11    -0.354526678701E+03   -0.17077E-02   -0.17074E-02  7072   0.303E-01 0.104E-04
CGA:  12    -0.354527867205E+03   -0.11885E-02   -0.11885E-02  7072   0.822E-02-0.154E-04
CGA:  13    -0.354528481137E+03   -0.61393E-03   -0.61418E-03  7072   0.600E-02-0.144E-04
CGA:  14    -0.354528700052E+03   -0.21892E-03   -0.21903E-03  7072   0.328E-02-0.457E-05
CGA:  15    -0.354528871954E+03   -0.17190E-03   -0.17185E-03  7072   0.306E-02-0.648E-05
CGA:  16    -0.354529099212E+03   -0.22726E-03   -0.22719E-03  7072   0.127E-02 0.158E-05
CGA:  17    -0.354529182140E+03   -0.82929E-04   -0.82951E-04  7072   0.859E-03-0.415E-05
CGA:  18    -0.354529220656E+03   -0.38515E-04   -0.38540E-04  7072   0.866E-03 0.499E-06
CGA:  19    -0.354529284614E+03   -0.63958E-04   -0.63932E-04  7072   0.780E-03 0.112E-05
CGA:  20    -0.354529330642E+03   -0.46028E-04   -0.46030E-04  7072   0.668E-03 0.222E-05
CGA:  21    -0.354529357708E+03   -0.27066E-04   -0.27078E-04  7072   0.278E-03 0.422E-06
CGA:  22    -0.354529378493E+03   -0.20785E-04   -0.20772E-04  7072   0.256E-03 0.611E-06
CGA:  23    -0.354529398188E+03   -0.19695E-04   -0.19690E-04  7072   0.304E-03 0.137E-06
CGA:  24    -0.354529413473E+03   -0.15285E-04   -0.15308E-04  7072   0.273E-03 0.224E-05
CGA:  25    -0.354529424205E+03   -0.10733E-04   -0.10777E-04  7072   0.631E-04 0.182E-05
CGA:  26    -0.354529435432E+03   -0.11226E-04   -0.10934E-04  7072   0.158E-03 0.249E-05
CGA:  27    -0.354529443122E+03   -0.76899E-05   -0.77152E-05  7072   0.108E-03 0.115E-05
  76 F= -.35452944E+03 E0= -.35451147E+03  d E =-.478239E-03  mag=     8.0000
       N       E                     dE             d eps       ncg     rms          ort
SDA:   1    -0.354288721932E+03    0.24071E+00    0.00000E+00  7072   0.996E+00 0.000E+00
CGA:   2    -0.354329734077E+03   -0.41012E-01   -0.41655E-01  7072   0.121E+01 0.453E-04
CGA:   3    -0.354435209946E+03   -0.10548E+00   -0.10574E+00  7072   0.115E+01-0.825E-02
CGA:   4    -0.354483112583E+03   -0.47903E-01   -0.47478E-01  7072   0.315E+00-0.396E-04
CGA:   5    -0.354503408260E+03   -0.20296E-01   -0.20286E-01  7072   0.261E+00 0.224E-02
CGA:   6    -0.354515193701E+03   -0.11785E-01   -0.11784E-01  7072   0.168E+00-0.132E-04
CGA:   7    -0.354523531183E+03   -0.83375E-02   -0.83390E-02  7072   0.485E-01 0.344E-04
CGA:   8    -0.354525826580E+03   -0.22954E-02   -0.22988E-02  7072   0.431E-01 0.686E-04
CGA:   9    -0.354527516008E+03   -0.16894E-02   -0.16825E-02  7072   0.127E-01 0.147E-04
CGA:  10    -0.354528556086E+03   -0.10401E-02   -0.10392E-02  7072   0.804E-02 0.310E-04
CGA:  11    -0.354529003965E+03   -0.44788E-03   -0.44777E-03  7072   0.756E-02-0.133E-04
CGA:  12    -0.354529263477E+03   -0.25951E-03   -0.26006E-03  7072   0.188E-02-0.593E-05
CGA:  13    -0.354529420968E+03   -0.15749E-03   -0.15754E-03  7072   0.279E-02-0.212E-05
CGA:  14    -0.354529537277E+03   -0.11631E-03   -0.11630E-03  7072   0.134E-02-0.286E-05
CGA:  15    -0.354529621499E+03   -0.84222E-04   -0.84248E-04  7072   0.553E-03-0.628E-05
CGA:  16    -0.354529648297E+03   -0.26798E-04   -0.26798E-04  7072   0.478E-03-0.365E-06
CGA:  17    -0.354529678669E+03   -0.30372E-04   -0.30376E-04  7072   0.564E-03-0.102E-05
CGA:  18    -0.354529705628E+03   -0.26959E-04   -0.26967E-04  7072   0.250E-03 0.409E-06
CGA:  19    -0.354529726609E+03   -0.20980E-04   -0.20966E-04  7072   0.178E-03 0.392E-06
CGA:  20    -0.354529733396E+03   -0.67875E-05   -0.67993E-05  7072   0.129E-03 0.380E-06
CGA:  21    -0.354529746618E+03   -0.13222E-04   -0.13243E-04  7072   0.185E-03-0.573E-06
CGA:  22    -0.354529756634E+03   -0.10016E-04   -0.10019E-04  7072   0.149E-03 0.477E-06
CGA:  23    -0.354529761884E+03   -0.52507E-05   -0.52547E-05  7072   0.394E-04 0.829E-07
  77 F= -.35452976E+03 E0= -.35451188E+03  d E =-.318763E-03  mag=     8.0000
       N       E                     dE             d eps       ncg     rms          ort
SDA:   1    -0.354411811913E+03    0.11794E+00    0.00000E+00  7072   0.551E+00 0.000E+00
CGA:   2    -0.354428956509E+03   -0.17145E-01   -0.17364E-01  7072   0.479E+00-0.377E-02
CGA:   3    -0.354494451847E+03   -0.65495E-01   -0.65686E-01  7072   0.406E+00-0.267E-02
CGA:   4    -0.354511276898E+03   -0.16825E-01   -0.16898E-01  7072   0.173E+00-0.222E-03
CGA:   5    -0.354518045589E+03   -0.67687E-02   -0.67492E-02  7072   0.893E-01 0.133E-03
CGA:   6    -0.354526573179E+03   -0.85276E-02   -0.85240E-02  7072   0.266E-01 0.103E-03
CGA:   7    -0.354527945259E+03   -0.13721E-02   -0.13718E-02  7072   0.187E-01-0.729E-05
CGA:   8    -0.354528637818E+03   -0.69256E-03   -0.69506E-03  7072   0.101E-01-0.193E-04
CGA:   9    -0.354529281783E+03   -0.64396E-03   -0.64397E-03  7072   0.656E-02-0.887E-05
CGA:  10    -0.354529565677E+03   -0.28389E-03   -0.28405E-03  7072   0.331E-02 0.390E-05
CGA:  11    -0.354529732498E+03   -0.16682E-03   -0.16688E-03  7072   0.188E-02 0.266E-05
CGA:  12    -0.354529826640E+03   -0.94142E-04   -0.94135E-04  7072   0.850E-03-0.653E-06
CGA:  13    -0.354529905143E+03   -0.78504E-04   -0.78460E-04  7072   0.798E-03 0.105E-05
CGA:  14    -0.354529933282E+03   -0.28138E-04   -0.28219E-04  7072   0.442E-03 0.169E-05
CGA:  15    -0.354529954349E+03   -0.21067E-04   -0.21087E-04  7072   0.138E-03 0.137E-05
CGA:  16    -0.354529965271E+03   -0.10922E-04   -0.10911E-04  7072   0.245E-03 0.350E-06
CGA:  17    -0.354529977944E+03   -0.12674E-04   -0.12671E-04  7072   0.105E-03-0.433E-06
CGA:  18    -0.354529985591E+03   -0.76462E-05   -0.76390E-05  7072   0.530E-04 0.411E-06
  78 F= -.35452999E+03 E0= -.35451213E+03  d E =-.223706E-03  mag=     8.0000
