       N       E                     dE             d eps       ncg     rms          ort
DAV:   1     0.650006483280E+04    0.65001E+04   -0.30320E+05  9152   0.159E+03
DAV:   2     0.338248881571E+03   -0.61618E+04   -0.57938E+04  9152   0.465E+02
DAV:   3    -0.384405908297E+03   -0.72265E+03   -0.70977E+03  9152   0.170E+02
DAV:   4    -0.414016825220E+03   -0.29611E+02   -0.29098E+02  9152   0.310E+01
DAV:   5    -0.416495538188E+03   -0.24787E+01   -0.24670E+01  9152   0.667E+00
SDA:   6    -0.263221415026E+03    0.15327E+03   -0.24670E+01  9152   0.997E+03 0.000E+00
CGA:   7    -0.338873131833E+03   -0.75652E+02   -0.68947E+02  9152   0.797E+03-0.133E+03
CGA:   8    -0.368394690689E+03   -0.29522E+02   -0.25385E+02  9152   0.895E+02-0.699E+01
CGA:   9    -0.373377735088E+03   -0.49830E+01   -0.66971E+01  9152   0.108E+03-0.447E+02
CGA:  10    -0.376875799935E+03   -0.34981E+01   -0.32144E+01  9152   0.614E+02-0.565E+01
CGA:  11    -0.377545531255E+03   -0.66973E+00   -0.35406E+01  9152   0.107E+03-0.434E+02
CGA:  12    -0.378640880832E+03   -0.10953E+01   -0.49580E+01  9152   0.870E+02-0.594E+02
CGA:  13    -0.378906039645E+03   -0.26516E+00   -0.41062E+01  9152   0.136E+03-0.105E+03
CGA:  14    -0.379501579672E+03   -0.59554E+00   -0.58798E+01  9152   0.961E+02-0.857E+02
CGA:  15    -0.381164304965E+03   -0.16627E+01   -0.35393E+01  9152   0.424E+02-0.617E+02
CGA:  16    -0.382082345306E+03   -0.91804E+00   -0.13066E+01  9152   0.446E+01-0.713E+00
CGA:  17    -0.382474466811E+03   -0.39212E+00   -0.43204E+00  9152   0.103E+02 0.108E+00
CGA:  18    -0.383415570904E+03   -0.94110E+00   -0.91736E+00  9152   0.468E+01 0.729E+00
CGA:  19    -0.383758809886E+03   -0.34324E+00   -0.36678E+00  9152   0.393E+01-0.127E+00
CGA:  20    -0.384165006645E+03   -0.40620E+00   -0.39523E+00  9152   0.122E+01 0.522E-02
CGA:  21    -0.384327847197E+03   -0.16284E+00   -0.16403E+00  9152   0.638E+00-0.155E+00
CGA:  22    -0.384358962091E+03   -0.31115E-01   -0.32334E-01  9152   0.478E+00-0.175E-01
CGA:  23    -0.384398463831E+03   -0.39502E-01   -0.40906E-01  9152   0.226E+00-0.814E-04
CGA:  24    -0.384424018207E+03   -0.25554E-01   -0.25521E-01  9152   0.106E+00-0.504E-03
CGA:  25    -0.384431683088E+03   -0.76649E-02   -0.83722E-02  9152   0.106E+00-0.741E-04
CGA:  26    -0.384440772320E+03   -0.90892E-02   -0.90717E-02  9152   0.434E-01-0.358E-03
CGA:  27    -0.384446433131E+03   -0.56608E-02   -0.56422E-02  9152   0.636E-01 0.935E-03
CGA:  28    -0.384451565109E+03   -0.51320E-02   -0.48954E-02  9152   0.209E-01 0.573E-03
CGA:  29    -0.384453927010E+03   -0.23619E-02   -0.23647E-02  9152   0.253E-01 0.111E-03
CGA:  30    -0.384456402960E+03   -0.24759E-02   -0.24536E-02  9152   0.179E-01-0.419E-03
CGA:  31    -0.384458078208E+03   -0.16752E-02   -0.16721E-02  9152   0.101E-01-0.116E-03
CGA:  32    -0.384458862694E+03   -0.78449E-03   -0.78074E-03  9152   0.741E-02-0.783E-04
CGA:  33    -0.384459728547E+03   -0.86585E-03   -0.86748E-03  9152   0.551E-02-0.279E-03
CGA:  34    -0.384460109507E+03   -0.38096E-03   -0.37855E-03  9152   0.319E-02-0.524E-04
CGA:  35    -0.384460514554E+03   -0.40505E-03   -0.40573E-03  9152   0.344E-02-0.441E-04
CGA:  36    -0.384460789443E+03   -0.27489E-03   -0.26771E-03  9152   0.231E-02-0.193E-04
CGA:  37    -0.384461038539E+03   -0.24910E-03   -0.24939E-03  9152   0.168E-02 0.554E-04
CGA:  38    -0.384461191595E+03   -0.15306E-03   -0.14955E-03  9152   0.171E-02-0.136E-04
CGA:  39    -0.384461345719E+03   -0.15412E-03   -0.15577E-03  9152   0.707E-03 0.451E-04
CGA:  40    -0.384461441860E+03   -0.96142E-04   -0.96711E-04  9152   0.910E-03-0.156E-04
CGA:  41    -0.384461502984E+03   -0.61124E-04   -0.61713E-04  9152   0.620E-03-0.513E-05
CGA:  42    -0.384461566697E+03   -0.63713E-04   -0.63636E-04  9152   0.297E-03-0.102E-04
CGA:  43    -0.384461605069E+03   -0.38372E-04   -0.38213E-04  9152   0.548E-03 0.511E-05
CGA:  44    -0.384461644609E+03   -0.39539E-04   -0.39399E-04  9152   0.220E-03 0.549E-05
CGA:  45    -0.384461676413E+03   -0.31804E-04   -0.31206E-04  9152   0.215E-03 0.164E-04
SDA:  46    -0.384461693358E+03   -0.16945E-04   -0.17081E-04  9152   0.201E-03 0.650E-05
CGA:  47    -0.384461701450E+03   -0.80913E-05   -0.80653E-05  9152   0.907E-04-0.157E-05
CGA:  48    -0.384461721075E+03   -0.19625E-04   -0.20641E-04  9152   0.180E-03-0.813E-05
CGA:  49    -0.384461741102E+03   -0.20028E-04   -0.20075E-04  9152   0.536E-04-0.440E-05
CGA:  50    -0.384461748665E+03   -0.75628E-05   -0.74816E-05  9152   0.646E-04 0.258E-05
   1 F= -.38446175E+03 E0= -.38445668E+03  d E =-.384462E+03  mag=    46.0000
       N       E                     dE             d eps       ncg     rms          ort
SDA:   1    -0.384462214039E+03   -0.47294E-03    0.00000E+00  9152   0.288E-01 0.000E+00
CGA:   2    -0.384462989649E+03   -0.77561E-03   -0.79376E-03  9152   0.111E-02-0.556E-03
CGA:   3    -0.384463085195E+03   -0.95546E-04   -0.95532E-04  9152   0.310E-03-0.413E-06
CGA:   4    -0.384463123370E+03   -0.38175E-04   -0.38150E-04  9152   0.545E-03 0.121E-05
CGA:   5    -0.384463156702E+03   -0.33332E-04   -0.33389E-04  9152   0.945E-04 0.130E-05
CGA:   6    -0.384463169832E+03   -0.13130E-04   -0.13068E-04  9152   0.642E-04 0.182E-05
CGA:   7    -0.384463174099E+03   -0.42667E-05   -0.42801E-05  9152   0.413E-04 0.348E-06
   2 F= -.38446317E+03 E0= -.38445811E+03  d E =-.142543E-02  mag=    46.0000
       N       E                     dE             d eps       ncg     rms          ort
SDA:   1    -0.384310615597E+03    0.15255E+00    0.00000E+00  9152   0.565E+00 0.000E+00
CGA:   2    -0.384443320776E+03   -0.13271E+00   -0.13200E+00  9152   0.423E+00 0.513E-02
CGA:   3    -0.384479125309E+03   -0.35805E-01   -0.35092E-01  9152   0.299E+00-0.356E-02
CGA:   4    -0.384497072751E+03   -0.17947E-01   -0.18070E-01  9152   0.165E+00-0.112E-02
CGA:   5    -0.384510621770E+03   -0.13549E-01   -0.13571E-01  9152   0.252E-01 0.210E-03
CGA:   6    -0.384515035653E+03   -0.44139E-02   -0.44177E-02  9152   0.794E-02-0.466E-04
CGA:   7    -0.384515723735E+03   -0.68808E-03   -0.68818E-03  9152   0.768E-02 0.351E-06
CGA:   8    -0.384516205705E+03   -0.48197E-03   -0.48377E-03  9152   0.337E-02-0.728E-05
CGA:   9    -0.384516516641E+03   -0.31094E-03   -0.31069E-03  9152   0.947E-03-0.633E-05
CGA:  10    -0.384516684802E+03   -0.16816E-03   -0.16791E-03  9152   0.912E-03 0.332E-05
CGA:  11    -0.384516733251E+03   -0.48449E-04   -0.48454E-04  9152   0.497E-03 0.112E-05
CGA:  12    -0.384516786315E+03   -0.53064E-04   -0.53062E-04  9152   0.260E-03 0.994E-06
CGA:  13    -0.384516830116E+03   -0.43801E-04   -0.43803E-04  9152   0.222E-03-0.305E-07
CGA:  14    -0.384516845835E+03   -0.15718E-04   -0.15742E-04  9152   0.190E-03 0.639E-06
CGA:  15    -0.384516861761E+03   -0.15926E-04   -0.15944E-04  9152   0.102E-03 0.112E-05
CGA:  16    -0.384516877995E+03   -0.16234E-04   -0.16144E-04  9152   0.507E-04 0.167E-05
CGA:  17    -0.384516882686E+03   -0.46911E-05   -0.46990E-05  9152   0.675E-04 0.485E-06
   3 F= -.38451688E+03 E0= -.38451180E+03  d E =-.537086E-01  mag=    46.0000
       N       E                     dE             d eps       ncg     rms          ort
SDA:   1    -0.382912143747E+03    0.16047E+01    0.00000E+00  9152   0.475E+01 0.000E+00
CGA:   2    -0.384100733009E+03   -0.11886E+01   -0.11878E+01  9152   0.244E+01 0.490E-02
CGA:   3    -0.384432002415E+03   -0.33127E+00   -0.33237E+00  9152   0.180E+01-0.303E-01
CGA:   4    -0.384553730447E+03   -0.12173E+00   -0.12049E+00  9152   0.947E+00-0.111E-01
CGA:   5    -0.384600901434E+03   -0.47171E-01   -0.50328E-01  9152   0.279E+00-0.219E-01
CGA:   6    -0.384635553253E+03   -0.34652E-01   -0.34834E-01  9152   0.812E-01-0.627E-02
CGA:   7    -0.384641308993E+03   -0.57557E-02   -0.58127E-02  9152   0.767E-01 0.385E-05
CGA:   8    -0.384647043018E+03   -0.57340E-02   -0.57364E-02  9152   0.222E-01-0.177E-04
CGA:   9    -0.384649480576E+03   -0.24376E-02   -0.24376E-02  9152   0.137E-01 0.611E-06
CGA:  10    -0.384650390711E+03   -0.91013E-03   -0.90829E-03  9152   0.102E-01 0.832E-05
CGA:  11    -0.384651337879E+03   -0.94717E-03   -0.94848E-03  9152   0.430E-02 0.478E-04
CGA:  12    -0.384651813578E+03   -0.47570E-03   -0.47575E-03  9152   0.337E-02-0.252E-05
CGA:  13    -0.384652046247E+03   -0.23267E-03   -0.23287E-03  9152   0.283E-02 0.167E-05
CGA:  14    -0.384652396534E+03   -0.35029E-03   -0.35030E-03  9152   0.113E-02-0.735E-08
CGA:  15    -0.384652520236E+03   -0.12370E-03   -0.12368E-03  9152   0.177E-02 0.301E-05
CGA:  16    -0.384652663396E+03   -0.14316E-03   -0.14318E-03  9152   0.784E-03 0.308E-05
CGA:  17    -0.384652742339E+03   -0.78943E-04   -0.78955E-04  9152   0.445E-03 0.421E-05
CGA:  18    -0.384652785349E+03   -0.43009E-04   -0.43017E-04  9152   0.586E-03 0.156E-05
CGA:  19    -0.384652833188E+03   -0.47839E-04   -0.47890E-04  9152   0.170E-03 0.247E-05
CGA:  20    -0.384652856011E+03   -0.22824E-04   -0.22797E-04  9152   0.210E-03 0.796E-06
CGA:  21    -0.384652869762E+03   -0.13751E-04   -0.13776E-04  9152   0.126E-03 0.521E-06
CGA:  22    -0.384652885393E+03   -0.15630E-04   -0.15626E-04  9152   0.704E-04 0.256E-06
CGA:  23    -0.384652891993E+03   -0.66003E-05   -0.66003E-05  9152   0.785E-04-0.255E-07
   4 F= -.38465289E+03 E0= -.38464777E+03  d E =-.136009E+00  mag=    46.0000
       N       E                     dE             d eps       ncg     rms          ort
SDA:   1    -0.381513859229E+03    0.31390E+01    0.00000E+00  9152   0.932E+01 0.000E+00
CGA:   2    -0.383566895288E+03   -0.20530E+01   -0.20328E+01  9152   0.800E+01 0.185E+00
CGA:   3    -0.384045159400E+03   -0.47826E+00   -0.51710E+00  9152   0.601E+01-0.668E+00
CGA:   4    -0.384461657985E+03   -0.41650E+00   -0.38402E+00  9152   0.249E+01 0.263E-01
CGA:   5    -0.384670049895E+03   -0.20839E+00   -0.21053E+00  9152   0.879E+00 0.316E-01
CGA:   6    -0.384714838580E+03   -0.44789E-01   -0.45820E-01  9152   0.549E+00-0.126E-01
CGA:   7    -0.384764730527E+03   -0.49892E-01   -0.49589E-01  9152   0.136E+00-0.168E-01
CGA:   8    -0.384779175730E+03   -0.14445E-01   -0.14381E-01  9152   0.547E-01 0.373E-02
CGA:   9    -0.384786925147E+03   -0.77494E-02   -0.78033E-02  9152   0.467E-01-0.108E-02
CGA:  10    -0.384789135348E+03   -0.22102E-02   -0.22361E-02  9152   0.208E-01-0.265E-03
CGA:  11    -0.384791219263E+03   -0.20839E-02   -0.20836E-02  9152   0.107E-01 0.826E-04
CGA:  12    -0.384792899292E+03   -0.16800E-02   -0.16787E-02  9152   0.522E-02 0.199E-04
CGA:  13    -0.384793477890E+03   -0.57860E-03   -0.57851E-03  9152   0.718E-02 0.395E-05
CGA:  14    -0.384793963846E+03   -0.48596E-03   -0.48821E-03  9152   0.416E-02 0.181E-05
CGA:  15    -0.384794460336E+03   -0.49649E-03   -0.49705E-03  9152   0.178E-02-0.176E-04
CGA:  16    -0.384794757804E+03   -0.29747E-03   -0.29636E-03  9152   0.227E-02 0.155E-04
CGA:  17    -0.384794893421E+03   -0.13562E-03   -0.13565E-03  9152   0.138E-02 0.348E-05
CGA:  18    -0.384795027330E+03   -0.13391E-03   -0.13393E-03  9152   0.606E-03 0.368E-05
CGA:  19    -0.384795126229E+03   -0.98900E-04   -0.98734E-04  9152   0.490E-03 0.255E-05
CGA:  20    -0.384795163780E+03   -0.37551E-04   -0.37586E-04  9152   0.482E-03 0.112E-05
CGA:  21    -0.384795201844E+03   -0.38064E-04   -0.38056E-04  9152   0.192E-03 0.816E-06
CGA:  22    -0.384795232826E+03   -0.30982E-04   -0.30962E-04  9152   0.157E-03 0.230E-06
CGA:  23    -0.384795248272E+03   -0.15447E-04   -0.15444E-04  9152   0.176E-03-0.273E-06
CGA:  24    -0.384795259109E+03   -0.10836E-04   -0.10832E-04  9152   0.651E-04-0.113E-06
CGA:  25    -0.384795270628E+03   -0.11519E-04   -0.11575E-04  9152   0.525E-04-0.761E-06
CGA:  26    -0.384795275655E+03   -0.50276E-05   -0.50245E-05  9152   0.468E-04-0.340E-06
   5 F= -.38479528E+03 E0= -.38479008E+03  d E =-.142384E+00  mag=    46.0000
       N       E                     dE             d eps       ncg     rms          ort
SDA:   1    -0.379146283299E+03    0.56490E+01    0.00000E+00  9152   0.163E+02 0.000E+00
CGA:   2    -0.382985494914E+03   -0.38392E+01   -0.37604E+01  9152   0.856E+01 0.550E+00
CGA:   3    -0.383931802306E+03   -0.94631E+00   -0.94966E+00  9152   0.839E+01 0.574E+00
CGA:   4    -0.384448589148E+03   -0.51679E+00   -0.39479E+00  9152   0.274E+01 0.204E+01
CGA:   5    -0.384659317032E+03   -0.21073E+00   -0.21688E+00  9152   0.249E+01-0.511E-01
CGA:   6    -0.384761309781E+03   -0.10199E+00   -0.10574E+00  9152   0.104E+01-0.345E-01
CGA:   7    -0.384842839838E+03   -0.81530E-01   -0.81007E-01  9152   0.705E+00-0.422E-02
CGA:   8    -0.384863840328E+03   -0.21000E-01   -0.18527E-01  9152   0.190E+00 0.773E-01
CGA:   9    -0.384877217222E+03   -0.13377E-01   -0.13361E-01  9152   0.350E+00-0.255E-03
CGA:  10    -0.384893059460E+03   -0.15842E-01   -0.16353E-01  9152   0.166E+00-0.518E-02
CGA:  11    -0.384898002629E+03   -0.49432E-02   -0.51971E-02  9152   0.887E-01-0.596E-02
CGA:  12    -0.384902291236E+03   -0.42886E-02   -0.41766E-02  9152   0.506E-01 0.984E-03
CGA:  13    -0.384903988627E+03   -0.16974E-02   -0.16612E-02  9152   0.324E-01 0.797E-03
CGA:  14    -0.384906802553E+03   -0.28139E-02   -0.28138E-02  9152   0.654E-01 0.766E-04
CGA:  15    -0.384909041830E+03   -0.22393E-02   -0.23122E-02  9152   0.174E-01-0.126E-02
CGA:  16    -0.384909691085E+03   -0.64926E-03   -0.65901E-03  9152   0.145E-01-0.130E-03
CGA:  17    -0.384910615764E+03   -0.92468E-03   -0.92328E-03  9152   0.127E-01-0.173E-04
CGA:  18    -0.384911181925E+03   -0.56616E-03   -0.56516E-03  9152   0.125E-01 0.101E-04
CGA:  19    -0.384912101559E+03   -0.91963E-03   -0.92008E-03  9152   0.123E-01 0.498E-04
CGA:  20    -0.384912498228E+03   -0.39667E-03   -0.40279E-03  9152   0.452E-02-0.111E-03
CGA:  21    -0.384912830849E+03   -0.33262E-03   -0.33265E-03  9152   0.669E-02 0.186E-04
CGA:  22    -0.384913115346E+03   -0.28450E-03   -0.28294E-03  9152   0.281E-02 0.237E-04
CGA:  23    -0.384913299132E+03   -0.18379E-03   -0.18384E-03  9152   0.437E-02 0.507E-05
CGA:  24    -0.384913544525E+03   -0.24539E-03   -0.24613E-03  9152   0.219E-02 0.130E-04
CGA:  25    -0.384913639603E+03   -0.95078E-04   -0.95197E-04  9152   0.181E-02 0.166E-05
CGA:  26    -0.384913756967E+03   -0.11736E-03   -0.11734E-03  9152   0.127E-02-0.643E-06
CGA:  27    -0.384913811999E+03   -0.55032E-04   -0.54975E-04  9152   0.111E-02 0.735E-07
CGA:  28    -0.384913913616E+03   -0.10162E-03   -0.10163E-03  9152   0.132E-02-0.960E-06
CGA:  29    -0.384913957760E+03   -0.44144E-04   -0.44183E-04  9152   0.452E-03-0.166E-05
CGA:  30    -0.384913992017E+03   -0.34257E-04   -0.34268E-04  9152   0.643E-03-0.997E-06
CGA:  31    -0.384914021332E+03   -0.29315E-04   -0.29244E-04  9152   0.343E-03-0.668E-06
SDA:  32    -0.384914048135E+03   -0.26803E-04   -0.26819E-04  9152   0.552E-03-0.134E-05
CGA:  33    -0.384914065301E+03   -0.17166E-04   -0.17188E-04  9152   0.800E-04-0.188E-06
CGA:  34    -0.384914081743E+03   -0.16442E-04   -0.16386E-04  9152   0.116E-03 0.490E-06
CGA:  35    -0.384914099329E+03   -0.17586E-04   -0.17651E-04  9152   0.688E-04-0.848E-06
CGA:  36    -0.384914107961E+03   -0.86318E-05   -0.87269E-05  9152   0.532E-04-0.184E-05
   6 F= -.38491411E+03 E0= -.38490874E+03  d E =-.118832E+00  mag=    46.0000
       N       E                     dE             d eps       ncg     rms          ort
SDA:   1    -0.375055374842E+03    0.98587E+01    0.00000E+00  9152   0.288E+02 0.000E+00
CGA:   2    -0.381287140525E+03   -0.62318E+01   -0.53510E+01  9152   0.114E+02 0.686E+01
CGA:   3    -0.382988720160E+03   -0.17016E+01   -0.19944E+01  9152   0.368E+02-0.441E+01
CGA:   4    -0.383352316726E+03   -0.36360E+00   -0.29350E+00  9152   0.345E+02 0.242E+01
CGA:   5    -0.383890352870E+03   -0.53804E+00   -0.94320E+00  9152   0.221E+02-0.512E+01
CGA:   6    -0.384008783682E+03   -0.11843E+00   -0.46201E+00  9152   0.112E+02-0.100E+02
CGA:   7    -0.384318132302E+03   -0.30935E+00   -0.16638E+00  9152   0.595E+01 0.356E+01
CGA:   8    -0.384437883348E+03   -0.11975E+00   -0.91416E-01  9152   0.217E+01 0.213E+01
CGA:   9    -0.384496995379E+03   -0.59112E-01   -0.47617E-01  9152   0.223E+01 0.648E+00
CGA:  10    -0.384568396620E+03   -0.71401E-01   -0.57519E-01  9152   0.407E+01 0.570E+00
CGA:  11    -0.384655217880E+03   -0.86821E-01   -0.78452E-01  9152   0.573E+01 0.391E+00
CGA:  12    -0.384716976782E+03   -0.61759E-01   -0.82484E-01  9152   0.469E+01-0.146E+01
CGA:  13    -0.384740142425E+03   -0.23166E-01   -0.32647E-01  9152   0.302E+01-0.903E+00
CGA:  14    -0.384759335115E+03   -0.19193E-01   -0.25685E-01  9152   0.220E+01-0.540E+00
CGA:  15    -0.384780112317E+03   -0.20777E-01   -0.26074E-01  9152   0.196E+01-0.283E+00
CGA:  16    -0.384801948769E+03   -0.21836E-01   -0.21687E-01  9152   0.114E+01-0.174E-01
CGA:  17    -0.384815087798E+03   -0.13139E-01   -0.13421E-01  9152   0.673E+00-0.323E-01
CGA:  18    -0.384825743062E+03   -0.10655E-01   -0.10911E-01  9152   0.861E+00-0.130E-01
CGA:  19    -0.384846994510E+03   -0.21251E-01   -0.21771E-01  9152   0.174E+01-0.925E-02
CGA:  20    -0.384882940292E+03   -0.35946E-01   -0.35915E-01  9152   0.167E+01 0.328E-02
CGA:  21    -0.384903850250E+03   -0.20910E-01   -0.21414E-01  9152   0.654E+00-0.380E-01
CGA:  22    -0.384911505053E+03   -0.76548E-02   -0.81410E-02  9152   0.315E+00-0.313E-01
CGA:  23    -0.384916906820E+03   -0.54018E-02   -0.56662E-02  9152   0.332E+00-0.812E-02
CGA:  24    -0.384925593524E+03   -0.86867E-02   -0.89497E-02  9152   0.407E+00 0.598E-03
CGA:  25    -0.384934389232E+03   -0.87957E-02   -0.89243E-02  9152   0.241E+00-0.248E-02
CGA:  26    -0.384939831125E+03   -0.54419E-02   -0.54868E-02  9152   0.223E+00-0.751E-03
CGA:  27    -0.384948405351E+03   -0.85742E-02   -0.85734E-02  9152   0.393E+00-0.717E-03
CGA:  28    -0.384958394003E+03   -0.99887E-02   -0.97327E-02  9152   0.278E+00 0.187E-02
CGA:  29    -0.384962990348E+03   -0.45963E-02   -0.46375E-02  9152   0.111E+00-0.170E-02
CGA:  30    -0.384965164211E+03   -0.21739E-02   -0.21834E-02  9152   0.852E-01-0.249E-03
CGA:  31    -0.384967857912E+03   -0.26937E-02   -0.27094E-02  9152   0.122E+00 0.124E-02
SDA:  32    -0.384971508377E+03   -0.36505E-02   -0.36853E-02  9152   0.797E-01 0.169E-02
CGA:  33    -0.384975297341E+03   -0.37890E-02   -0.37970E-02  9152   0.488E-01-0.493E-03
CGA:  34    -0.384981368430E+03   -0.60711E-02   -0.61620E-02  9152   0.251E-01-0.130E-02
CGA:  35    -0.384985589781E+03   -0.42214E-02   -0.41739E-02  9152   0.670E-02 0.444E-03
CGA:  36    -0.384985995743E+03   -0.40596E-03   -0.40609E-03  9152   0.469E-02-0.909E-05
CGA:  37    -0.384986335995E+03   -0.34025E-03   -0.33998E-03  9152   0.177E-02 0.796E-05
CGA:  38    -0.384986671216E+03   -0.33522E-03   -0.33719E-03  9152   0.197E-02-0.170E-04
CGA:  39    -0.384986883949E+03   -0.21273E-03   -0.21246E-03  9152   0.691E-03 0.512E-05
CGA:  40    -0.384986935421E+03   -0.51472E-04   -0.51444E-04  9152   0.880E-03 0.166E-05
CGA:  41    -0.384987046330E+03   -0.11091E-03   -0.11111E-03  9152   0.539E-03-0.321E-05
CGA:  42    -0.384987120360E+03   -0.74029E-04   -0.73480E-04  9152   0.197E-03 0.765E-05
CGA:  43    -0.384987167753E+03   -0.47393E-04   -0.48208E-04  9152   0.846E-03-0.465E-05
CGA:  44    -0.384987214988E+03   -0.47236E-04   -0.47132E-04  9152   0.146E-03-0.491E-05
CGA:  45    -0.384987242877E+03   -0.27888E-04   -0.27818E-04  9152   0.264E-03 0.573E-06
CGA:  46    -0.384987256283E+03   -0.13406E-04   -0.13428E-04  9152   0.128E-03 0.670E-06
CGA:  47    -0.384987270034E+03   -0.13752E-04   -0.13740E-04  9152   0.848E-04 0.432E-06
CGA:  48    -0.384987279270E+03   -0.92356E-05   -0.92401E-05  9152   0.651E-04-0.137E-06
   7 F= -.38498728E+03 E0= -.38498167E+03  d E =-.731713E-01  mag=    46.0000
       N       E                     dE             d eps       ncg     rms          ort
SDA:   1    -0.371920248827E+03    0.13067E+02    0.00000E+00  9152   0.345E+02 0.000E+00
CGA:   2    -0.380922221827E+03   -0.90020E+01   -0.85681E+01  9152   0.254E+02 0.224E+01
CGA:   3    -0.382536722648E+03   -0.16145E+01   -0.14092E+01  9152   0.133E+02 0.269E+01
CGA:   4    -0.384111848029E+03   -0.15751E+01   -0.15984E+01  9152   0.819E+01-0.515E+00
CGA:   5    -0.384600285196E+03   -0.48844E+00   -0.51328E+00  9152   0.395E+01 0.270E+00
CGA:   6    -0.384763637134E+03   -0.16335E+00   -0.16073E+00  9152   0.164E+01-0.513E-01
CGA:   7    -0.384953033983E+03   -0.18940E+00   -0.18994E+00  9152   0.502E+00-0.140E-01
CGA:   8    -0.384976804122E+03   -0.23770E-01   -0.24386E-01  9152   0.406E+00-0.537E-02
CGA:   9    -0.385009099695E+03   -0.32296E-01   -0.32092E-01  9152   0.173E+00-0.215E-01
CGA:  10    -0.385023887079E+03   -0.14787E-01   -0.14751E-01  9152   0.148E+00 0.325E-02
CGA:  11    -0.385030514102E+03   -0.66270E-02   -0.67825E-02  9152   0.424E-01-0.137E-02
CGA:  12    -0.385035690320E+03   -0.51762E-02   -0.52155E-02  9152   0.373E-01-0.801E-03
CGA:  13    -0.385039584167E+03   -0.38938E-02   -0.38811E-02  9152   0.124E-01 0.408E-03
CGA:  14    -0.385040469096E+03   -0.88493E-03   -0.88553E-03  9152   0.149E-01 0.168E-04
CGA:  15    -0.385042527546E+03   -0.20584E-02   -0.20406E-02  9152   0.527E-02 0.298E-03
CGA:  16    -0.385043105767E+03   -0.57822E-03   -0.58221E-03  9152   0.504E-02-0.133E-03
CGA:  17    -0.385043506588E+03   -0.40082E-03   -0.40097E-03  9152   0.464E-02 0.895E-05
CGA:  18    -0.385043876402E+03   -0.36981E-03   -0.36998E-03  9152   0.190E-02 0.708E-05
CGA:  19    -0.385044105480E+03   -0.22908E-03   -0.22818E-03  9152   0.849E-03 0.221E-04
CGA:  20    -0.385044237646E+03   -0.13217E-03   -0.13216E-03  9152   0.151E-02 0.238E-06
CGA:  21    -0.385044320374E+03   -0.82728E-04   -0.82956E-04  9152   0.502E-03 0.922E-06
CGA:  22    -0.385044389736E+03   -0.69362E-04   -0.69130E-04  9152   0.339E-03 0.453E-05
CGA:  23    -0.385044434382E+03   -0.44647E-04   -0.44640E-04  9152   0.313E-03 0.250E-06
CGA:  24    -0.385044471540E+03   -0.37157E-04   -0.37202E-04  9152   0.417E-03-0.185E-05
CGA:  25    -0.385044494004E+03   -0.22464E-04   -0.22452E-04  9152   0.102E-03-0.147E-05
CGA:  26    -0.385044516663E+03   -0.22660E-04   -0.22666E-04  9152   0.910E-04-0.248E-07
CGA:  27    -0.385044528670E+03   -0.12006E-04   -0.12034E-04  9152   0.773E-04-0.825E-06
CGA:  28    -0.385044533211E+03   -0.45408E-05   -0.45141E-05  9152   0.493E-04-0.579E-06
   8 F= -.38504453E+03 E0= -.38503901E+03  d E =-.572539E-01  mag=    46.0000
       N       E                     dE             d eps       ncg     rms          ort
SDA:   1    -0.383738701978E+03    0.13058E+01    0.00000E+00  9152   0.395E+01 0.000E+00
CGA:   2    -0.384537007065E+03   -0.79831E+00   -0.79301E+00  9152   0.248E+01 0.475E-01
CGA:   3    -0.384817679180E+03   -0.28067E+00   -0.28031E+00  9152   0.189E+01 0.333E-01
CGA:   4    -0.384938482606E+03   -0.12080E+00   -0.11495E+00  9152   0.124E+01 0.198E-01
CGA:   5    -0.385016223281E+03   -0.77741E-01   -0.81621E-01  9152   0.275E+00-0.395E-02
CGA:   6    -0.385043883512E+03   -0.27660E-01   -0.27659E-01  9152   0.268E+00-0.104E-02
CGA:   7    -0.385056021412E+03   -0.12138E-01   -0.11817E-01  9152   0.865E-01 0.435E-02
CGA:   8    -0.385063353285E+03   -0.73319E-02   -0.74203E-02  9152   0.406E-01 0.213E-02
CGA:   9    -0.385065640623E+03   -0.22873E-02   -0.22995E-02  9152   0.340E-01-0.891E-04
CGA:  10    -0.385068707309E+03   -0.30667E-02   -0.30605E-02  9152   0.107E-01-0.505E-03
CGA:  11    -0.385069569450E+03   -0.86214E-03   -0.86200E-03  9152   0.107E-01-0.147E-05
CGA:  12    -0.385070193131E+03   -0.62368E-03   -0.62722E-03  9152   0.539E-02-0.537E-05
CGA:  13    -0.385070805274E+03   -0.61214E-03   -0.61248E-03  9152   0.230E-02-0.881E-05
CGA:  14    -0.385070982088E+03   -0.17681E-03   -0.17676E-03  9152   0.279E-02-0.129E-05
CGA:  15    -0.385071195041E+03   -0.21295E-03   -0.21329E-03  9152   0.127E-02 0.507E-05
CGA:  16    -0.385071358047E+03   -0.16301E-03   -0.16299E-03  9152   0.789E-03 0.547E-06
CGA:  17    -0.385071406381E+03   -0.48334E-04   -0.48298E-04  9152   0.735E-03-0.128E-06
CGA:  18    -0.385071482815E+03   -0.76434E-04   -0.76411E-04  9152   0.400E-03 0.977E-06
CGA:  19    -0.385071525440E+03   -0.42625E-04   -0.42638E-04  9152   0.267E-03-0.744E-06
CGA:  20    -0.385071540661E+03   -0.15222E-04   -0.15210E-04  9152   0.214E-03-0.101E-06
CGA:  21    -0.385071566906E+03   -0.26244E-04   -0.26212E-04  9152   0.102E-03 0.834E-06
CGA:  22    -0.385071578007E+03   -0.11101E-04   -0.11103E-04  9152   0.111E-03-0.539E-07
CGA:  23    -0.385071584118E+03   -0.61112E-05   -0.61069E-05  9152   0.634E-04 0.192E-08
   9 F= -.38507158E+03 E0= -.38506598E+03  d E =-.270509E-01  mag=    46.0000
       N       E                     dE             d eps       ncg     rms          ort
SDA:   1    -0.385021234536E+03    0.50343E-01    0.00000E+00  9152   0.186E+00 0.000E+00
CGA:   2    -0.385043158629E+03   -0.21924E-01   -0.21951E-01  9152   0.255E+00-0.662E-03
CGA:   3    -0.385059401396E+03   -0.16243E-01   -0.16305E-01  9152   0.122E+00-0.636E-04
CGA:   4    -0.385068454873E+03   -0.90535E-02   -0.89451E-02  9152   0.429E-01-0.109E-02
CGA:   5    -0.385074617355E+03   -0.61625E-02   -0.61410E-02  9152   0.120E-01 0.352E-03
CGA:   6    -0.385075352200E+03   -0.73485E-03   -0.73340E-03  9152   0.969E-02 0.165E-05
CGA:   7    -0.385076203519E+03   -0.85132E-03   -0.85128E-03  9152   0.224E-02-0.130E-05
CGA:   8    -0.385076455253E+03   -0.25173E-03   -0.25107E-03  9152   0.111E-02 0.244E-04
CGA:   9    -0.385076536764E+03   -0.81511E-04   -0.81531E-04  9152   0.111E-02-0.130E-06
CGA:  10    -0.385076632601E+03   -0.95837E-04   -0.95785E-04  9152   0.201E-03-0.415E-05
CGA:  11    -0.385076666044E+03   -0.33443E-04   -0.33394E-04  9152   0.343E-03 0.648E-06
CGA:  12    -0.385076684361E+03   -0.18317E-04   -0.18318E-04  9152   0.978E-04 0.311E-06
CGA:  13    -0.385076694587E+03   -0.10227E-04   -0.10227E-04  9152   0.744E-04 0.105E-07
CGA:  14    -0.385076704931E+03   -0.10344E-04   -0.10369E-04  9152   0.776E-04-0.569E-06
CGA:  15    -0.385076708912E+03   -0.39803E-05   -0.39754E-05  9152   0.289E-04-0.156E-06
  10 F= -.38507671E+03 E0= -.38507115E+03  d E =-.512479E-02  mag=    46.0000
       N       E                     dE             d eps       ncg     rms          ort
SDA:   1    -0.384771729914E+03    0.30498E+00    0.00000E+00  9152   0.867E+00 0.000E+00
CGA:   2    -0.384943369301E+03   -0.17164E+00   -0.17215E+00  9152   0.182E+01-0.358E-02
CGA:   3    -0.385020089051E+03   -0.76720E-01   -0.79639E-01  9152   0.321E+00-0.553E-01
CGA:   4    -0.385066040174E+03   -0.45951E-01   -0.46502E-01  9152   0.206E+00-0.944E-02
CGA:   5    -0.385078438611E+03   -0.12398E-01   -0.12702E-01  9152   0.722E-01-0.830E-03
CGA:   6    -0.385082492789E+03   -0.40542E-02   -0.40338E-02  9152   0.358E-01 0.876E-04
CGA:   7    -0.385086513890E+03   -0.40211E-02   -0.40205E-02  9152   0.796E-02 0.279E-04
CGA:   8    -0.385087097123E+03   -0.58323E-03   -0.58222E-03  9152   0.824E-02-0.632E-05
CGA:   9    -0.385087842006E+03   -0.74488E-03   -0.74500E-03  9152   0.192E-02 0.599E-05
CGA:  10    -0.385088043309E+03   -0.20130E-03   -0.20147E-03  9152   0.187E-02-0.131E-04
CGA:  11    -0.385088155805E+03   -0.11250E-03   -0.11263E-03  9152   0.872E-03-0.184E-06
CGA:  12    -0.385088274093E+03   -0.11829E-03   -0.11807E-03  9152   0.396E-03 0.485E-05
CGA:  13    -0.385088306461E+03   -0.32368E-04   -0.32380E-04  9152   0.505E-03 0.522E-06
CGA:  14    -0.385088368616E+03   -0.62154E-04   -0.62195E-04  9152   0.281E-03-0.126E-05
CGA:  15    -0.385088394115E+03   -0.25499E-04   -0.25499E-04  9152   0.198E-03-0.490E-06
CGA:  16    -0.385088412675E+03   -0.18560E-04   -0.18557E-04  9152   0.240E-03-0.699E-06
CGA:  17    -0.385088434310E+03   -0.21635E-04   -0.21633E-04  9152   0.701E-04-0.306E-06
CGA:  18    -0.385088443085E+03   -0.87758E-05   -0.87753E-05  9152   0.944E-04 0.300E-07
  11 F= -.38508844E+03 E0= -.38508296E+03  d E =-.117342E-01  mag=    46.0000
       N       E                     dE             d eps       ncg     rms          ort
SDA:   1    -0.381591142089E+03    0.34973E+01    0.00000E+00  9152   0.946E+01 0.000E+00
CGA:   2    -0.383990254158E+03   -0.23991E+01   -0.23737E+01  9152   0.629E+01 0.147E+00
CGA:   3    -0.384587419794E+03   -0.59717E+00   -0.60337E+00  9152   0.377E+01 0.211E+00
CGA:   4    -0.384825212243E+03   -0.23779E+00   -0.21390E+00  9152   0.267E+01 0.165E+00
CGA:   5    -0.385009686381E+03   -0.18447E+00   -0.19061E+00  9152   0.861E+00 0.714E-02
CGA:   6    -0.385047327520E+03   -0.37641E-01   -0.39255E-01  9152   0.515E+00-0.288E-01
CGA:   7    -0.385087216196E+03   -0.39889E-01   -0.39195E-01  9152   0.179E+00-0.967E-02
CGA:   8    -0.385100700346E+03   -0.13484E-01   -0.13397E-01  9152   0.147E+00-0.115E-02
CGA:   9    -0.385107369288E+03   -0.66689E-02   -0.68736E-02  9152   0.423E-01-0.222E-02
CGA:  10    -0.385112467166E+03   -0.50979E-02   -0.51000E-02  9152   0.288E-01-0.513E-04
CGA:  11    -0.385113993403E+03   -0.15262E-02   -0.15201E-02  9152   0.188E-01 0.354E-04
CGA:  12    -0.385115429588E+03   -0.14362E-02   -0.14443E-02  9152   0.686E-02 0.157E-03
CGA:  13    -0.385116269307E+03   -0.83972E-03   -0.83814E-03  9152   0.979E-02 0.416E-04
CGA:  14    -0.385116769707E+03   -0.50040E-03   -0.49904E-03  9152   0.398E-02 0.160E-04
CGA:  15    -0.385117258726E+03   -0.48902E-03   -0.48754E-03  9152   0.293E-02 0.359E-04
CGA:  16    -0.385117514059E+03   -0.25533E-03   -0.25541E-03  9152   0.421E-02 0.637E-05
CGA:  17    -0.385117824040E+03   -0.30998E-03   -0.30977E-03  9152   0.147E-02-0.225E-05
CGA:  18    -0.385118008119E+03   -0.18408E-03   -0.18411E-03  9152   0.152E-02-0.133E-05
CGA:  19    -0.385118093551E+03   -0.85432E-04   -0.85543E-04  9152   0.108E-02-0.691E-06
CGA:  20    -0.385118211776E+03   -0.11822E-03   -0.11823E-03  9152   0.458E-03 0.334E-06
CGA:  21    -0.385118257767E+03   -0.45991E-04   -0.45986E-04  9152   0.572E-03 0.677E-06
CGA:  22    -0.385118290763E+03   -0.32995E-04   -0.33074E-04  9152   0.274E-03 0.914E-06
CGA:  23    -0.385118328979E+03   -0.38216E-04   -0.38128E-04  9152   0.160E-03 0.188E-05
CGA:  24    -0.385118341997E+03   -0.13017E-04   -0.13016E-04  9152   0.205E-03-0.322E-07
CGA:  25    -0.385118358651E+03   -0.16654E-04   -0.16653E-04  9152   0.107E-03-0.327E-06
CGA:  26    -0.385118373564E+03   -0.14913E-04   -0.14942E-04  9152   0.745E-04-0.619E-06
CGA:  27    -0.385118378327E+03   -0.47631E-05   -0.47479E-05  9152   0.723E-04-0.477E-06
  12 F= -.38511838E+03 E0= -.38511310E+03  d E =-.299352E-01  mag=    46.0000
       N       E                     dE             d eps       ncg     rms          ort
SDA:   1    -0.378626094269E+03    0.64923E+01    0.00000E+00  9152   0.176E+02 0.000E+00
CGA:   2    -0.382877162834E+03   -0.42511E+01   -0.42408E+01  9152   0.131E+02 0.174E+00
CGA:   3    -0.383892516709E+03   -0.10154E+01   -0.10799E+01  9152   0.938E+01 0.810E+00
CGA:   4    -0.384586409370E+03   -0.69389E+00   -0.57361E+00  9152   0.334E+01 0.761E+00
CGA:   5    -0.384879751169E+03   -0.29334E+00   -0.29359E+00  9152   0.226E+01-0.162E-02
CGA:   6    -0.384968078299E+03   -0.88327E-01   -0.95160E-01  9152   0.105E+01-0.110E+00
CGA:   7    -0.385061171257E+03   -0.93093E-01   -0.93020E-01  9152   0.271E+00-0.410E-01
CGA:   8    -0.385090640383E+03   -0.29469E-01   -0.29507E-01  9152   0.214E+00-0.122E-02
CGA:   9    -0.385100610220E+03   -0.99698E-02   -0.10454E-01  9152   0.108E+00-0.445E-02
CGA:  10    -0.385110200968E+03   -0.95907E-02   -0.95821E-02  9152   0.358E-01-0.192E-02
CGA:  11    -0.385114964912E+03   -0.47639E-02   -0.47178E-02  9152   0.207E-01 0.891E-03
CGA:  12    -0.385116553813E+03   -0.15889E-02   -0.15863E-02  9152   0.201E-01-0.288E-04
CGA:  13    -0.385118105522E+03   -0.15517E-02   -0.15636E-02  9152   0.728E-02 0.240E-03
CGA:  14    -0.385119204725E+03   -0.10992E-02   -0.10977E-02  9152   0.473E-02 0.241E-04
CGA:  15    -0.385119896004E+03   -0.69128E-03   -0.68685E-03  9152   0.342E-02 0.757E-04
CGA:  16    -0.385120144573E+03   -0.24857E-03   -0.24834E-03  9152   0.326E-02-0.103E-05
CGA:  17    -0.385120444286E+03   -0.29971E-03   -0.29984E-03  9152   0.127E-02 0.108E-04
CGA:  18    -0.385120637464E+03   -0.19318E-03   -0.19334E-03  9152   0.743E-03-0.272E-05
CGA:  19    -0.385120755726E+03   -0.11826E-03   -0.11821E-03  9152   0.468E-03 0.503E-06
CGA:  20    -0.385120827881E+03   -0.72156E-04   -0.72182E-04  9152   0.421E-03-0.328E-06
CGA:  21    -0.385120856520E+03   -0.28639E-04   -0.28682E-04  9152   0.371E-03 0.609E-06
CGA:  22    -0.385120898037E+03   -0.41516E-04   -0.41513E-04  9152   0.194E-03 0.535E-06
CGA:  23    -0.385120929020E+03   -0.30984E-04   -0.31001E-04  9152   0.130E-03-0.267E-06
CGA:  24    -0.385120949111E+03   -0.20090E-04   -0.20151E-04  9152   0.150E-03-0.122E-05
CGA:  25    -0.385120957807E+03   -0.86963E-05   -0.86812E-05  9152   0.844E-04-0.404E-06
  13 F= -.38512096E+03 E0= -.38511552E+03  d E =-.257948E-02  mag=    46.0000
       N       E                     dE             d eps       ncg     rms          ort
SDA:   1    -0.384982761957E+03    0.13819E+00    0.00000E+00  9152   0.480E+00 0.000E+00
CGA:   2    -0.385071296602E+03   -0.88535E-01   -0.88556E-01  9152   0.247E+00-0.235E-03
CGA:   3    -0.385098474012E+03   -0.27177E-01   -0.27180E-01  9152   0.354E+00 0.286E-02
CGA:   4    -0.385120859377E+03   -0.22385E-01   -0.22066E-01  9152   0.837E-01 0.154E-02
CGA:   5    -0.385129059907E+03   -0.82005E-02   -0.82089E-02  9152   0.375E-01 0.297E-03
CGA:   6    -0.385133179540E+03   -0.41196E-02   -0.41202E-02  9152   0.183E-01-0.165E-03
CGA:   7    -0.385134077904E+03   -0.89836E-03   -0.90412E-03  9152   0.806E-02-0.652E-04
CGA:   8    -0.385135076586E+03   -0.99868E-03   -0.99901E-03  9152   0.280E-02-0.946E-05
CGA:   9    -0.385135370740E+03   -0.29415E-03   -0.29416E-03  9152   0.263E-02 0.532E-05
CGA:  10    -0.385135527945E+03   -0.15721E-03   -0.15704E-03  9152   0.112E-02 0.953E-06
CGA:  11    -0.385135660600E+03   -0.13266E-03   -0.13261E-03  9152   0.499E-03 0.215E-05
CGA:  12    -0.385135706961E+03   -0.46361E-04   -0.46340E-04  9152   0.418E-03-0.100E-05
CGA:  13    -0.385135735828E+03   -0.28867E-04   -0.28874E-04  9152   0.241E-03-0.365E-06
CGA:  14    -0.385135763986E+03   -0.28158E-04   -0.28166E-04  9152   0.865E-04-0.447E-06
CGA:  15    -0.385135772776E+03   -0.87905E-05   -0.87903E-05  9152   0.125E-03-0.210E-06
CGA:  16    -0.385135783305E+03   -0.10529E-04   -0.10520E-04  9152   0.420E-04-0.453E-06
CGA:  17    -0.385135788159E+03   -0.48533E-05   -0.48516E-05  9152   0.328E-04 0.115E-06
  14 F= -.38513579E+03 E0= -.38513047E+03  d E =-.148304E-01  mag=    46.0000
       N       E                     dE             d eps       ncg     rms          ort
SDA:   1    -0.385121579067E+03    0.14204E-01    0.00000E+00  9152   0.884E-01 0.000E+00
CGA:   2    -0.385126294721E+03   -0.47157E-02   -0.46614E-02  9152   0.646E-01 0.447E-03
CGA:   3    -0.385133659785E+03   -0.73651E-02   -0.73627E-02  9152   0.195E-01 0.108E-03
CGA:   4    -0.385137349048E+03   -0.36893E-02   -0.36904E-02  9152   0.123E-01-0.127E-04
CGA:   5    -0.385138251215E+03   -0.90217E-03   -0.90556E-03  9152   0.683E-02 0.694E-05
CGA:   6    -0.385138657042E+03   -0.40583E-03   -0.40499E-03  9152   0.321E-02 0.369E-05
CGA:   7    -0.385138967034E+03   -0.30999E-03   -0.31005E-03  9152   0.769E-03 0.634E-05
CGA:   8    -0.385139070646E+03   -0.10361E-03   -0.10358E-03  9152   0.541E-03 0.102E-05
CGA:   9    -0.385139103090E+03   -0.32444E-04   -0.32477E-04  9152   0.357E-03 0.261E-07
CGA:  10    -0.385139137483E+03   -0.34393E-04   -0.34389E-04  9152   0.101E-03-0.784E-06
CGA:  11    -0.385139153695E+03   -0.16212E-04   -0.16192E-04  9152   0.100E-03 0.312E-06
CGA:  12    -0.385139159683E+03   -0.59883E-05   -0.59818E-05  9152   0.499E-04-0.691E-07
  15 F= -.38513916E+03 E0= -.38513389E+03  d E =-.337152E-02  mag=    46.0000
       N       E                     dE             d eps       ncg     rms          ort
SDA:   1    -0.384827408649E+03    0.31175E+00    0.00000E+00  9152   0.999E+00 0.000E+00
CGA:   2    -0.384998208586E+03   -0.17080E+00   -0.16864E+00  9152   0.788E+00 0.270E-01
CGA:   3    -0.385055861092E+03   -0.57653E-01   -0.56067E-01  9152   0.629E+00 0.109E-02
CGA:   4    -0.385103175480E+03   -0.47314E-01   -0.47952E-01  9152   0.298E+00 0.306E-02
CGA:   5    -0.385131909700E+03   -0.28734E-01   -0.28760E-01  9152   0.742E-01 0.275E-02
CGA:   6    -0.385137335676E+03   -0.54260E-02   -0.54017E-02  9152   0.807E-01-0.103E-03
CGA:   7    -0.385143025505E+03   -0.56898E-02   -0.57143E-02  9152   0.148E-01 0.847E-04
CGA:   8    -0.385144591204E+03   -0.15657E-02   -0.15641E-02  9152   0.112E-01 0.110E-03
CGA:   9    -0.385145277971E+03   -0.68677E-03   -0.68490E-03  9152   0.803E-02 0.577E-05
CGA:  10    -0.385145922603E+03   -0.64463E-03   -0.64514E-03  9152   0.214E-02 0.116E-04
CGA:  11    -0.385146200850E+03   -0.27825E-03   -0.27785E-03  9152   0.244E-02 0.866E-05
CGA:  12    -0.385146327772E+03   -0.12692E-03   -0.12671E-03  9152   0.114E-02 0.151E-05
CGA:  13    -0.385146445278E+03   -0.11751E-03   -0.11749E-03  9152   0.402E-03 0.177E-05
CGA:  14    -0.385146499328E+03   -0.54050E-04   -0.54040E-04  9152   0.601E-03-0.118E-08
CGA:  15    -0.385146532739E+03   -0.33411E-04   -0.33357E-04  9152   0.251E-03-0.632E-06
CGA:  16    -0.385146557896E+03   -0.25157E-04   -0.25157E-04  9152   0.102E-03-0.361E-07
CGA:  17    -0.385146575107E+03   -0.17211E-04   -0.17234E-04  9152   0.184E-03-0.323E-06
CGA:  18    -0.385146583826E+03   -0.87194E-05   -0.87107E-05  9152   0.490E-04 0.971E-08
  16 F= -.38514658E+03 E0= -.38514144E+03  d E =-.742414E-02  mag=    46.0000
       N       E                     dE             d eps       ncg     rms          ort
SDA:   1    -0.385096782535E+03    0.49793E-01    0.00000E+00  9152   0.149E+00 0.000E+00
CGA:   2    -0.385119695959E+03   -0.22913E-01   -0.23060E-01  9152   0.293E+00-0.223E-02
CGA:   3    -0.385134851499E+03   -0.15156E-01   -0.15366E-01  9152   0.727E-01-0.190E-02
CGA:   4    -0.385142984029E+03   -0.81325E-02   -0.81361E-02  9152   0.377E-01-0.158E-03
CGA:   5    -0.385146732944E+03   -0.37489E-02   -0.37490E-02  9152   0.681E-02-0.847E-04
CGA:   6    -0.385147670007E+03   -0.93706E-03   -0.93760E-03  9152   0.761E-02-0.105E-04
CGA:   7    -0.385147992354E+03   -0.32235E-03   -0.32378E-03  9152   0.130E-02-0.203E-04
CGA:   8    -0.385148208066E+03   -0.21571E-03   -0.21583E-03  9152   0.693E-03-0.153E-05
CGA:   9    -0.385148276596E+03   -0.68530E-04   -0.68531E-04  9152   0.404E-03-0.432E-06
CGA:  10    -0.385148303029E+03   -0.26433E-04   -0.26414E-04  9152   0.293E-03-0.346E-06
CGA:  11    -0.385148330322E+03   -0.27293E-04   -0.27297E-04  9152   0.114E-03 0.442E-06
CGA:  12    -0.385148346035E+03   -0.15712E-04   -0.15713E-04  9152   0.627E-04 0.141E-07
CGA:  13    -0.385148352445E+03   -0.64101E-05   -0.64100E-05  9152   0.988E-04 0.177E-06
  17 F= -.38514835E+03 E0= -.38514323E+03  d E =-.176862E-02  mag=    46.0000
       N       E                     dE             d eps       ncg     rms          ort
SDA:   1    -0.384872336662E+03    0.27601E+00    0.00000E+00  9152   0.740E+00 0.000E+00
CGA:   2    -0.385018513033E+03   -0.14618E+00   -0.14755E+00  9152   0.177E+01-0.128E-01
CGA:   3    -0.385095929457E+03   -0.77416E-01   -0.81323E-01  9152   0.287E+00-0.606E-01
CGA:   4    -0.385136882444E+03   -0.40953E-01   -0.41107E-01  9152   0.111E+00-0.276E-02
CGA:   5    -0.385145283682E+03   -0.84012E-02   -0.85023E-02  9152   0.570E-01 0.599E-03
CGA:   6    -0.385148745126E+03   -0.34614E-02   -0.34443E-02  9152   0.291E-01 0.772E-04
CGA:   7    -0.385151210972E+03   -0.24658E-02   -0.24699E-02  9152   0.687E-02 0.767E-04
CGA:   8    -0.385152119035E+03   -0.90806E-03   -0.90946E-03  9152   0.501E-02-0.328E-04
CGA:   9    -0.385152386022E+03   -0.26699E-03   -0.26769E-03  9152   0.246E-02-0.697E-05
CGA:  10    -0.385152644070E+03   -0.25805E-03   -0.25805E-03  9152   0.657E-03-0.183E-06
CGA:  11    -0.385152736860E+03   -0.92790E-04   -0.92739E-04  9152   0.886E-03 0.103E-05
CGA:  12    -0.385152788078E+03   -0.51218E-04   -0.51184E-04  9152   0.318E-03 0.766E-06
CGA:  13    -0.385152822388E+03   -0.34310E-04   -0.34299E-04  9152   0.223E-03 0.126E-05
CGA:  14    -0.385152858706E+03   -0.36318E-04   -0.36342E-04  9152   0.245E-03-0.363E-06
CGA:  15    -0.385152871758E+03   -0.13052E-04   -0.13050E-04  9152   0.113E-03-0.367E-06
CGA:  16    -0.385152891460E+03   -0.19703E-04   -0.19767E-04  9152   0.761E-04-0.854E-06
CGA:  17    -0.385152899476E+03   -0.80160E-05   -0.80162E-05  9152   0.870E-04-0.261E-06
  18 F= -.38515290E+03 E0= -.38514780E+03  d E =-.454703E-02  mag=    46.0000
       N       E                     dE             d eps       ncg     rms          ort
SDA:   1    -0.380796529764E+03    0.43564E+01    0.00000E+00  9152   0.122E+02 0.000E+00
CGA:   2    -0.383301603604E+03   -0.25051E+01   -0.25224E+01  9152   0.129E+02-0.207E-01
CGA:   3    -0.384065436907E+03   -0.76383E+00   -0.88251E+00  9152   0.827E+01-0.373E+00
CGA:   4    -0.384662267199E+03   -0.59683E+00   -0.49613E+00  9152   0.275E+01 0.626E+00
CGA:   5    -0.384955449504E+03   -0.29318E+00   -0.29267E+00  9152   0.175E+01-0.536E-01
CGA:   6    -0.385021243091E+03   -0.65794E-01   -0.75688E-01  9152   0.752E+00-0.152E+00
CGA:   7    -0.385085126530E+03   -0.63883E-01   -0.63464E-01  9152   0.247E+00-0.216E-01
CGA:   8    -0.385112285307E+03   -0.27159E-01   -0.26997E-01  9152   0.859E-01 0.784E-02
CGA:   9    -0.385121710385E+03   -0.94251E-02   -0.94433E-02  9152   0.983E-01-0.170E-02
CGA:  10    -0.385126887735E+03   -0.51774E-02   -0.53749E-02  9152   0.316E-01-0.125E-02
CGA:  11    -0.385130306307E+03   -0.34186E-02   -0.34019E-02  9152   0.133E-01 0.939E-03
CGA:  12    -0.385132443792E+03   -0.21375E-02   -0.21459E-02  9152   0.121E-01-0.125E-03
CGA:  13    -0.385133125331E+03   -0.68154E-03   -0.68988E-03  9152   0.690E-02-0.434E-04
CGA:  14    -0.385133794165E+03   -0.66883E-03   -0.66873E-03  9152   0.395E-02-0.195E-04
CGA:  15    -0.385134445854E+03   -0.65169E-03   -0.64979E-03  9152   0.163E-02 0.260E-04
CGA:  16    -0.385134746691E+03   -0.30084E-03   -0.30042E-03  9152   0.138E-02 0.467E-05
CGA:  17    -0.385134926065E+03   -0.17937E-03   -0.17914E-03  9152   0.937E-03 0.719E-05
CGA:  18    -0.385134986032E+03   -0.59967E-04   -0.59852E-04  9152   0.715E-03 0.252E-06
CGA:  19    -0.385135071222E+03   -0.85190E-04   -0.85173E-04  9152   0.373E-03 0.410E-06
CGA:  20    -0.385135121558E+03   -0.50337E-04   -0.50417E-04  9152   0.186E-03-0.212E-05
CGA:  21    -0.385135160018E+03   -0.38460E-04   -0.38352E-04  9152   0.130E-03 0.106E-05
CGA:  22    -0.385135181252E+03   -0.21234E-04   -0.21242E-04  9152   0.106E-03-0.533E-07
CGA:  23    -0.385135193140E+03   -0.11888E-04   -0.11888E-04  9152   0.123E-03 0.428E-07
CGA:  24    -0.385135200975E+03   -0.78342E-05   -0.78174E-05  9152   0.553E-04-0.401E-07
  19 F= -.38513520E+03 E0= -.38512979E+03  d E =0.176985E-01  mag=    46.0000
       N       E                     dE             d eps       ncg     rms          ort
SDA:   1    -0.383630886074E+03    0.15043E+01    0.00000E+00  9152   0.495E+01 0.000E+00
CGA:   2    -0.384470953261E+03   -0.84007E+00   -0.83509E+00  9152   0.334E+01 0.713E-01
CGA:   3    -0.384696872935E+03   -0.22592E+00   -0.20686E+00  9152   0.258E+01 0.162E+00
CGA:   4    -0.384990424705E+03   -0.29355E+00   -0.29415E+00  9152   0.112E+01 0.430E-01
CGA:   5    -0.385089057067E+03   -0.98632E-01   -0.10076E+00  9152   0.431E+00 0.183E-01
CGA:   6    -0.385121082959E+03   -0.32026E-01   -0.31700E-01  9152   0.420E+00 0.424E-03
CGA:   7    -0.385146731733E+03   -0.25649E-01   -0.26484E-01  9152   0.823E-01-0.544E-02
CGA:   8    -0.385155541066E+03   -0.88093E-02   -0.88098E-02  9152   0.788E-01 0.526E-03
CGA:   9    -0.385159393469E+03   -0.38524E-02   -0.37681E-02  9152   0.311E-01 0.104E-02
CGA:  10    -0.385162912376E+03   -0.35189E-02   -0.35177E-02  9152   0.147E-01 0.121E-03
CGA:  11    -0.385163959164E+03   -0.10468E-02   -0.10532E-02  9152   0.138E-01 0.581E-05
CGA:  12    -0.385164940399E+03   -0.98123E-03   -0.97700E-03  9152   0.567E-02-0.425E-05
CGA:  13    -0.385165585729E+03   -0.64533E-03   -0.64545E-03  9152   0.239E-02-0.515E-05
CGA:  14    -0.385165759564E+03   -0.17383E-03   -0.17412E-03  9152   0.279E-02 0.327E-06
CGA:  15    -0.385166039241E+03   -0.27968E-03   -0.27967E-03  9152   0.820E-03-0.429E-05
CGA:  16    -0.385166141516E+03   -0.10228E-03   -0.10233E-03  9152   0.665E-03-0.151E-05
CGA:  17    -0.385166197086E+03   -0.55569E-04   -0.55586E-04  9152   0.739E-03 0.131E-06
CGA:  18    -0.385166252398E+03   -0.55312E-04   -0.55256E-04  9152   0.216E-03-0.609E-06
CGA:  19    -0.385166286779E+03   -0.34381E-04   -0.34297E-04  9152   0.156E-03 0.142E-05
CGA:  20    -0.385166302086E+03   -0.15307E-04   -0.15310E-04  9152   0.212E-03 0.363E-06
CGA:  21    -0.385166316628E+03   -0.14543E-04   -0.14538E-04  9152   0.595E-04 0.141E-06
CGA:  22    -0.385166325043E+03   -0.84146E-05   -0.83975E-05  9152   0.494E-04 0.437E-06
  20 F= -.38516633E+03 E0= -.38516125E+03  d E =-.311241E-01  mag=    46.0000
       N       E                     dE             d eps       ncg     rms          ort
SDA:   1    -0.385148175794E+03    0.18141E-01    0.00000E+00  9152   0.135E+00 0.000E+00
CGA:   2    -0.385153185666E+03   -0.50099E-02   -0.52573E-02  9152   0.489E-01-0.465E-02
CGA:   3    -0.385162174701E+03   -0.89890E-02   -0.89973E-02  9152   0.208E-01-0.907E-04
CGA:   4    -0.385164362521E+03   -0.21878E-02   -0.21880E-02  9152   0.209E-01 0.139E-03
CGA:   5    -0.385165599591E+03   -0.12371E-02   -0.12299E-02  9152   0.573E-02 0.520E-04
CGA:   6    -0.385166058360E+03   -0.45877E-03   -0.46011E-03  9152   0.188E-02 0.115E-04
CGA:   7    -0.385166283776E+03   -0.22542E-03   -0.22549E-03  9152   0.144E-02-0.255E-05
CGA:   8    -0.385166353971E+03   -0.70195E-04   -0.70440E-04  9152   0.406E-03-0.249E-05
CGA:   9    -0.385166408984E+03   -0.55013E-04   -0.55052E-04  9152   0.209E-03-0.929E-06
CGA:  10    -0.385166428027E+03   -0.19043E-04   -0.19049E-04  9152   0.194E-03 0.327E-06
CGA:  11    -0.385166440645E+03   -0.12618E-04   -0.12615E-04  9152   0.567E-04-0.169E-07
CGA:  12    -0.385166448662E+03   -0.80169E-05   -0.80285E-05  9152   0.494E-04-0.289E-06
  21 F= -.38516645E+03 E0= -.38516137E+03  d E =-.123619E-03  mag=    46.0000
       N       E                     dE             d eps       ncg     rms          ort
SDA:   1    -0.385033137817E+03    0.13330E+00    0.00000E+00  9152   0.423E+00 0.000E+00
CGA:   2    -0.385069476324E+03   -0.36339E-01   -0.35855E-01  9152   0.682E+00-0.969E-02
CGA:   3    -0.385139765337E+03   -0.70289E-01   -0.70249E-01  9152   0.166E+00 0.409E-02
CGA:   4    -0.385153803730E+03   -0.14038E-01   -0.14059E-01  9152   0.798E-01 0.347E-03
CGA:   5    -0.385159777337E+03   -0.59736E-02   -0.59438E-02  9152   0.684E-01-0.196E-03
CGA:   6    -0.385163703508E+03   -0.39262E-02   -0.39731E-02  9152   0.863E-02-0.206E-03
CGA:   7    -0.385164889842E+03   -0.11863E-02   -0.11837E-02  9152   0.964E-02 0.518E-04
CGA:   8    -0.385165299688E+03   -0.40985E-03   -0.40740E-03  9152   0.197E-02 0.386E-04
CGA:   9    -0.385165551130E+03   -0.25144E-03   -0.25138E-03  9152   0.124E-02 0.803E-06
CGA:  10    -0.385165655203E+03   -0.10407E-03   -0.10414E-03  9152   0.821E-03 0.162E-05
CGA:  11    -0.385165695803E+03   -0.40600E-04   -0.40494E-04  9152   0.266E-03 0.866E-06
CGA:  12    -0.385165736350E+03   -0.40547E-04   -0.40526E-04  9152   0.123E-03 0.221E-06
CGA:  13    -0.385165747909E+03   -0.11560E-04   -0.11561E-04  9152   0.164E-03 0.205E-06
CGA:  14    -0.385165759615E+03   -0.11705E-04   -0.11699E-04  9152   0.584E-04 0.512E-07
CGA:  15    -0.385165767636E+03   -0.80209E-05   -0.80109E-05  9152   0.434E-04 0.218E-06
  22 F= -.38516577E+03 E0= -.38516068E+03  d E =0.681026E-03  mag=    46.0000
       N       E                     dE             d eps       ncg     rms          ort
SDA:   1    -0.385080741000E+03    0.85019E-01    0.00000E+00  9152   0.268E+00 0.000E+00
CGA:   2    -0.385105427837E+03   -0.24687E-01   -0.24757E-01  9152   0.426E+00 0.471E-02
CGA:   3    -0.385148925891E+03   -0.43498E-01   -0.43518E-01  9152   0.102E+00-0.531E-02
CGA:   4    -0.385158308561E+03   -0.93827E-02   -0.93959E-02  9152   0.495E-01 0.121E-02
CGA:   5    -0.385162525213E+03   -0.42167E-02   -0.42045E-02  9152   0.320E-01-0.280E-03
CGA:   6    -0.385164185567E+03   -0.16604E-02   -0.16766E-02  9152   0.595E-02-0.125E-03
CGA:   7    -0.385165101716E+03   -0.91615E-03   -0.91748E-03  9152   0.257E-02-0.193E-04
CGA:   8    -0.385165260709E+03   -0.15899E-03   -0.15938E-03  9152   0.168E-02-0.934E-06
CGA:   9    -0.385165411291E+03   -0.15058E-03   -0.15054E-03  9152   0.617E-03-0.291E-05
CGA:  10    -0.385165477068E+03   -0.65778E-04   -0.65753E-04  9152   0.296E-03 0.172E-05
CGA:  11    -0.385165499240E+03   -0.22172E-04   -0.22156E-04  9152   0.224E-03-0.288E-06
CGA:  12    -0.385165517275E+03   -0.18035E-04   -0.18034E-04  9152   0.865E-04-0.278E-06
CGA:  13    -0.385165530191E+03   -0.12916E-04   -0.12932E-04  9152   0.657E-04-0.274E-06
CGA:  14    -0.385165534489E+03   -0.42980E-05   -0.43014E-05  9152   0.485E-04 0.490E-07
  23 F= -.38516553E+03 E0= -.38516044E+03  d E =0.233147E-03  mag=    46.0000
       N       E                     dE             d eps       ncg     rms          ort
SDA:   1    -0.383001796202E+03    0.21637E+01    0.00000E+00  9152   0.590E+01 0.000E+00
CGA:   2    -0.384083697160E+03   -0.10819E+01   -0.11405E+01  9152   0.120E+02-0.388E+00
CGA:   3    -0.384621290511E+03   -0.53759E+00   -0.57813E+00  9152   0.369E+01-0.857E+00
CGA:   4    -0.384930484669E+03   -0.30919E+00   -0.29998E+00  9152   0.167E+01-0.240E+00
CGA:   5    -0.385090680732E+03   -0.16020E+00   -0.16003E+00  9152   0.403E+00 0.295E-01
CGA:   6    -0.385119044147E+03   -0.28363E-01   -0.27412E-01  9152   0.318E+00-0.983E-03
CGA:   7    -0.385145899686E+03   -0.26856E-01   -0.26900E-01  9152   0.809E-01 0.115E-02
CGA:   8    -0.385154515903E+03   -0.86162E-02   -0.86210E-02  9152   0.453E-01-0.315E-03
CGA:   9    -0.385158084884E+03   -0.35690E-02   -0.35856E-02  9152   0.296E-01 0.249E-03
CGA:  10    -0.385160253494E+03   -0.21686E-02   -0.21508E-02  9152   0.140E-01-0.118E-03
CGA:  11    -0.385161593702E+03   -0.13402E-02   -0.13401E-02  9152   0.493E-02 0.699E-04
CGA:  12    -0.385162160266E+03   -0.56656E-03   -0.56668E-03  9152   0.675E-02-0.352E-05
CGA:  13    -0.385162630753E+03   -0.47049E-03   -0.47155E-03  9152   0.165E-02 0.536E-05
CGA:  14    -0.385162877765E+03   -0.24701E-03   -0.24766E-03  9152   0.221E-02-0.105E-04
CGA:  15    -0.385163061555E+03   -0.18379E-03   -0.18395E-03  9152   0.136E-02 0.430E-05
CGA:  16    -0.385163166213E+03   -0.10466E-03   -0.10456E-03  9152   0.735E-03-0.369E-06
CGA:  17    -0.385163273423E+03   -0.10721E-03   -0.10711E-03  9152   0.543E-03 0.174E-05
CGA:  18    -0.385163315066E+03   -0.41642E-04   -0.41605E-04  9152   0.471E-03-0.523E-06
CGA:  19    -0.385163363622E+03   -0.48556E-04   -0.48550E-04  9152   0.167E-03 0.869E-06
CGA:  20    -0.385163384253E+03   -0.20632E-04   -0.20611E-04  9152   0.198E-03 0.894E-06
CGA:  21    -0.385163399763E+03   -0.15510E-04   -0.15527E-04  9152   0.105E-03 0.691E-06
CGA:  22    -0.385163409278E+03   -0.95154E-05   -0.95132E-05  9152   0.607E-04-0.175E-06
  24 F= -.38516341E+03 E0= -.38515842E+03  d E =0.212521E-02  mag=    46.0000
       N       E                     dE             d eps       ncg     rms          ort
SDA:   1    -0.384645950865E+03    0.51745E+00    0.00000E+00  9152   0.186E+01 0.000E+00
CGA:   2    -0.384849875376E+03   -0.20392E+00   -0.20269E+00  9152   0.216E+01 0.791E-01
CGA:   3    -0.385001551963E+03   -0.15168E+00   -0.14338E+00  9152   0.674E+00 0.102E-01
CGA:   4    -0.385108847756E+03   -0.10730E+00   -0.10503E+00  9152   0.378E+00 0.350E-01
CGA:   5    -0.385140942486E+03   -0.32095E-01   -0.30791E-01  9152   0.227E+00-0.109E-01
CGA:   6    -0.385155750067E+03   -0.14808E-01   -0.14968E-01  9152   0.859E-01 0.165E-03
CGA:   7    -0.385164471805E+03   -0.87217E-02   -0.87303E-02  9152   0.273E-01-0.146E-02
CGA:   8    -0.385167565227E+03   -0.30934E-02   -0.30890E-02  9152   0.213E-01 0.169E-03
CGA:   9    -0.385168756415E+03   -0.11912E-02   -0.11776E-02  9152   0.788E-02 0.861E-04
CGA:  10    -0.385169854347E+03   -0.10979E-02   -0.10953E-02  9152   0.348E-02 0.518E-04
CGA:  11    -0.385170215342E+03   -0.36100E-03   -0.36112E-03  9152   0.311E-02-0.181E-04
CGA:  12    -0.385170422941E+03   -0.20760E-03   -0.20807E-03  9152   0.141E-02 0.101E-05
CGA:  13    -0.385170572939E+03   -0.15000E-03   -0.15003E-03  9152   0.601E-03-0.144E-05
CGA:  14    -0.385170653572E+03   -0.80634E-04   -0.80570E-04  9152   0.654E-03 0.155E-05
CGA:  15    -0.385170692516E+03   -0.38944E-04   -0.38886E-04  9152   0.244E-03 0.661E-06
CGA:  16    -0.385170729496E+03   -0.36980E-04   -0.36856E-04  9152   0.159E-03 0.219E-05
CGA:  17    -0.385170746032E+03   -0.16536E-04   -0.16537E-04  9152   0.165E-03-0.242E-06
CGA:  18    -0.385170758385E+03   -0.12353E-04   -0.12353E-04  9152   0.778E-04-0.138E-06
CGA:  19    -0.385170768544E+03   -0.10158E-04   -0.10169E-04  9152   0.477E-04-0.304E-06
CGA:  20    -0.385170774062E+03   -0.55187E-05   -0.55259E-05  9152   0.555E-04-0.476E-06
  25 F= -.38517077E+03 E0= -.38516571E+03  d E =-.736478E-02  mag=    46.0000
       N       E                     dE             d eps       ncg     rms          ort
SDA:   1    -0.385152374734E+03    0.18394E-01    0.00000E+00  9152   0.595E-01 0.000E+00
CGA:   2    -0.385158609547E+03   -0.62348E-02   -0.62472E-02  9152   0.924E-01-0.135E-02
CGA:   3    -0.385165502411E+03   -0.68929E-02   -0.69121E-02  9152   0.315E-01 0.157E-03
CGA:   4    -0.385168435168E+03   -0.29328E-02   -0.29297E-02  9152   0.120E-01-0.211E-03
CGA:   5    -0.385169962420E+03   -0.15273E-02   -0.15286E-02  9152   0.337E-02-0.362E-04
CGA:   6    -0.385170184653E+03   -0.22223E-03   -0.22294E-03  9152   0.268E-02 0.935E-06
CGA:   7    -0.385170407214E+03   -0.22256E-03   -0.22256E-03  9152   0.549E-03 0.216E-05
CGA:   8    -0.385170487400E+03   -0.80186E-04   -0.80172E-04  9152   0.216E-03 0.388E-06
CGA:   9    -0.385170513562E+03   -0.26162E-04   -0.26164E-04  9152   0.203E-03 0.625E-07
CGA:  10    -0.385170525747E+03   -0.12185E-04   -0.12191E-04  9152   0.842E-04-0.129E-06
CGA:  11    -0.385170533662E+03   -0.79159E-05   -0.79129E-05  9152   0.374E-04-0.546E-06
  26 F= -.38517053E+03 E0= -.38516548E+03  d E =0.240400E-03  mag=    46.0000
       N       E                     dE             d eps       ncg     rms          ort
SDA:   1    -0.384593191198E+03    0.57733E+00    0.00000E+00  9152   0.144E+01 0.000E+00
CGA:   2    -0.384997368136E+03   -0.40418E+00   -0.38867E+00  9152   0.127E+01 0.898E-01
CGA:   3    -0.385069764401E+03   -0.72396E-01   -0.66359E-01  9152   0.583E+00 0.690E-01
CGA:   4    -0.385135424238E+03   -0.65660E-01   -0.65611E-01  9152   0.218E+00-0.250E-01
CGA:   5    -0.385155220000E+03   -0.19796E-01   -0.19865E-01  9152   0.100E+00 0.206E-02
CGA:   6    -0.385160816498E+03   -0.55965E-02   -0.54540E-02  9152   0.497E-01 0.128E-02
CGA:   7    -0.385164740774E+03   -0.39243E-02   -0.39488E-02  9152   0.148E-01 0.168E-03
CGA:   8    -0.385166515126E+03   -0.17744E-02   -0.17731E-02  9152   0.111E-01 0.509E-04
CGA:   9    -0.385167030788E+03   -0.51566E-03   -0.50926E-03  9152   0.368E-02 0.843E-04
CGA:  10    -0.385167531331E+03   -0.50054E-03   -0.50012E-03  9152   0.141E-02 0.978E-05
CGA:  11    -0.385167637928E+03   -0.10660E-03   -0.10671E-03  9152   0.140E-02-0.458E-06
CGA:  12    -0.385167745472E+03   -0.10754E-03   -0.10746E-03  9152   0.502E-03-0.225E-05
CGA:  13    -0.385167810876E+03   -0.65404E-04   -0.65409E-04  9152   0.392E-03 0.123E-06
CGA:  14    -0.385167846703E+03   -0.35827E-04   -0.35838E-04  9152   0.425E-03 0.838E-06
CGA:  15    -0.385167876156E+03   -0.29453E-04   -0.29418E-04  9152   0.156E-03 0.298E-06
CGA:  16    -0.385167905812E+03   -0.29656E-04   -0.29616E-04  9152   0.122E-03 0.427E-06
CGA:  17    -0.385167914744E+03   -0.89321E-05   -0.89406E-05  9152   0.121E-03 0.177E-06
CGA:  18    -0.385167925801E+03   -0.11058E-04   -0.11059E-04  9152   0.410E-04 0.238E-06
CGA:  19    -0.385167932341E+03   -0.65400E-05   -0.65089E-05  9152   0.414E-04 0.548E-06
  27 F= -.38516793E+03 E0= -.38516284E+03  d E =0.260132E-02  mag=    46.0000
       N       E                     dE             d eps       ncg     rms          ort
SDA:   1    -0.382078215098E+03    0.30897E+01    0.00000E+00  9152   0.860E+01 0.000E+00
CGA:   2    -0.383957339018E+03   -0.18791E+01   -0.17967E+01  9152   0.533E+01 0.645E+00
CGA:   3    -0.384641329089E+03   -0.68399E+00   -0.70629E+00  9152   0.524E+01-0.956E+00
CGA:   4    -0.384931183292E+03   -0.28985E+00   -0.29947E+00  9152   0.161E+01-0.117E-01
CGA:   5    -0.385062343444E+03   -0.13116E+00   -0.11304E+00  9152   0.408E+00 0.143E-01
CGA:   6    -0.385122685004E+03   -0.60342E-01   -0.59599E-01  9152   0.167E+00 0.138E-01
CGA:   7    -0.385138099203E+03   -0.15414E-01   -0.15048E-01  9152   0.114E+00-0.467E-02
CGA:   8    -0.385145410413E+03   -0.73112E-02   -0.73812E-02  9152   0.599E-01-0.153E-03
CGA:   9    -0.385150803379E+03   -0.53930E-02   -0.53899E-02  9152   0.237E-01-0.742E-04
CGA:  10    -0.385153171975E+03   -0.23686E-02   -0.23692E-02  9152   0.163E-01 0.102E-03
CGA:  11    -0.385154145162E+03   -0.97319E-03   -0.99010E-03  9152   0.978E-02-0.816E-04
CGA:  12    -0.385155343686E+03   -0.11985E-02   -0.12005E-02  9152   0.257E-02-0.618E-04
CGA:  13    -0.385155870037E+03   -0.52635E-03   -0.52156E-03  9152   0.358E-02 0.454E-04
CGA:  14    -0.385156085449E+03   -0.21541E-03   -0.21747E-03  9152   0.176E-02-0.950E-05
CGA:  15    -0.385156264007E+03   -0.17856E-03   -0.17854E-03  9152   0.944E-03-0.266E-05
CGA:  16    -0.385156399429E+03   -0.13542E-03   -0.13527E-03  9152   0.638E-03 0.273E-05
CGA:  17    -0.385156479898E+03   -0.80469E-04   -0.80417E-04  9152   0.509E-03 0.245E-05
CGA:  18    -0.385156508902E+03   -0.29004E-04   -0.29159E-04  9152   0.240E-03 0.146E-06
CGA:  19    -0.385156554620E+03   -0.45718E-04   -0.45673E-04  9152   0.114E-03 0.526E-06
CGA:  20    -0.385156570210E+03   -0.15589E-04   -0.15589E-04  9152   0.125E-03 0.174E-07
CGA:  21    -0.385156578742E+03   -0.85324E-05   -0.85330E-05  9152   0.756E-04 0.165E-06
CGA:  22    -0.385156589731E+03   -0.10989E-04   -0.10968E-04  9152   0.483E-04 0.521E-06
CGA:  23    -0.385156595260E+03   -0.55299E-05   -0.55309E-05  9152   0.312E-04-0.349E-06
  28 F= -.38515660E+03 E0= -.38515159E+03  d E =0.113371E-01  mag=    46.0000
       N       E                     dE             d eps       ncg     rms          ort
SDA:   1    -0.373617142475E+03    0.11539E+02    0.00000E+00  9152   0.533E+02 0.000E+00
CGA:   2    -0.377583567902E+03   -0.39664E+01   -0.41618E+01  9152   0.343E+02 0.406E+01
CGA:   3    -0.381073738318E+03   -0.34902E+01   -0.27383E+01  9152   0.166E+02 0.179E+01
CGA:   4    -0.383436577182E+03   -0.23628E+01   -0.22788E+01  9152   0.648E+01 0.210E+01
CGA:   5    -0.384330040510E+03   -0.89346E+00   -0.92030E+00  9152   0.796E+01-0.110E+01
CGA:   6    -0.384509779547E+03   -0.17974E+00   -0.17548E+00  9152   0.564E+01 0.112E+00
CGA:   7    -0.384728269396E+03   -0.21849E+00   -0.25724E+00  9152   0.372E+01-0.541E+00
CGA:   8    -0.384809229846E+03   -0.80960E-01   -0.90294E-01  9152   0.104E+01-0.229E+00
CGA:   9    -0.384890955292E+03   -0.81725E-01   -0.81781E-01  9152   0.144E+01-0.666E-03
CGA:  10    -0.384932803385E+03   -0.41848E-01   -0.41129E-01  9152   0.521E+00 0.256E-01
CGA:  11    -0.384961724526E+03   -0.28921E-01   -0.30757E-01  9152   0.484E+00-0.440E-02
CGA:  12    -0.384978199612E+03   -0.16475E-01   -0.18543E-01  9152   0.209E+00-0.335E-01
CGA:  13    -0.384999096463E+03   -0.20897E-01   -0.21256E-01  9152   0.145E+00-0.127E-01
CGA:  14    -0.385005926464E+03   -0.68300E-02   -0.68981E-02  9152   0.994E-01-0.380E-03
CGA:  15    -0.385012263932E+03   -0.63375E-02   -0.65794E-02  9152   0.391E-01 0.194E-02
CGA:  16    -0.385017002711E+03   -0.47388E-02   -0.46695E-02  9152   0.351E-01 0.175E-02
CGA:  17    -0.385018749319E+03   -0.17466E-02   -0.17492E-02  9152   0.178E-01-0.593E-05
CGA:  18    -0.385020471644E+03   -0.17223E-02   -0.17168E-02  9152   0.104E-01 0.347E-03
CGA:  19    -0.385021275416E+03   -0.80377E-03   -0.81127E-03  9152   0.103E-01 0.253E-03
CGA:  20    -0.385021986742E+03   -0.71133E-03   -0.70030E-03  9152   0.414E-02-0.954E-04
CGA:  21    -0.385022487694E+03   -0.50095E-03   -0.49813E-03  9152   0.319E-02 0.638E-04
CGA:  22    -0.385022715680E+03   -0.22799E-03   -0.22951E-03  9152   0.259E-02 0.232E-04
CGA:  23    -0.385022950250E+03   -0.23457E-03   -0.23483E-03  9152   0.130E-02-0.465E-04
CGA:  24    -0.385023125687E+03   -0.17544E-03   -0.17482E-03  9152   0.892E-03 0.104E-04
CGA:  25    -0.385023204117E+03   -0.78430E-04   -0.78448E-04  9152   0.929E-03 0.290E-05
CGA:  26    -0.385023285881E+03   -0.81764E-04   -0.81744E-04  9152   0.493E-03-0.695E-05
CGA:  27    -0.385023353484E+03   -0.67603E-04   -0.67453E-04  9152   0.322E-03 0.272E-05
CGA:  28    -0.385023387748E+03   -0.34264E-04   -0.34242E-04  9152   0.359E-03 0.122E-05
CGA:  29    -0.385023415572E+03   -0.27825E-04   -0.27808E-04  9152   0.210E-03 0.173E-07
CGA:  30    -0.385023441552E+03   -0.25980E-04   -0.25924E-04  9152   0.106E-03 0.152E-05
CGA:  31    -0.385023456212E+03   -0.14661E-04   -0.14674E-04  9152   0.141E-03-0.411E-06
SDA:  32    -0.385023466278E+03   -0.10065E-04   -0.10046E-04  9152   0.817E-04-0.545E-06
CGA:  33    -0.385023470770E+03   -0.44921E-05   -0.45094E-05  9152   0.377E-04-0.946E-07
  29 F= -.38502347E+03 E0= -.38501801E+03  d E =0.133124E+00  mag=    46.0000
       N       E                     dE             d eps       ncg     rms          ort
SDA:   1    -0.380529240440E+03    0.44942E+01    0.00000E+00  9152   0.173E+02 0.000E+00
CGA:   2    -0.382601782289E+03   -0.20725E+01   -0.20145E+01  9152   0.130E+02 0.161E+01
CGA:   3    -0.383615895483E+03   -0.10141E+01   -0.87398E+00  9152   0.693E+01 0.825E+00
CGA:   4    -0.384326608322E+03   -0.71071E+00   -0.70960E+00  9152   0.747E+01 0.313E+00
CGA:   5    -0.384703984598E+03   -0.37738E+00   -0.38052E+00  9152   0.330E+01-0.230E-01
CGA:   6    -0.384981953019E+03   -0.27797E+00   -0.25840E+00  9152   0.972E+00-0.380E+00
CGA:   7    -0.385089224875E+03   -0.10727E+00   -0.10552E+00  9152   0.610E+00 0.420E-01
CGA:   8    -0.385119220528E+03   -0.29996E-01   -0.28825E-01  9152   0.215E+00 0.123E-01
CGA:   9    -0.385147658390E+03   -0.28438E-01   -0.27925E-01  9152   0.103E+00 0.108E-01
CGA:  10    -0.385155367678E+03   -0.77093E-02   -0.76841E-02  9152   0.900E-01-0.257E-03
CGA:  11    -0.385162332411E+03   -0.69647E-02   -0.70033E-02  9152   0.281E-01 0.997E-03
CGA:  12    -0.385166797688E+03   -0.44653E-02   -0.44110E-02  9152   0.117E-01 0.751E-03
CGA:  13    -0.385168539518E+03   -0.17418E-02   -0.17391E-02  9152   0.788E-02 0.441E-04
CGA:  14    -0.385169305045E+03   -0.76553E-03   -0.76546E-03  9152   0.699E-02 0.195E-03
CGA:  15    -0.385169783259E+03   -0.47821E-03   -0.47433E-03  9152   0.278E-02-0.789E-05
CGA:  16    -0.385170179763E+03   -0.39650E-03   -0.39444E-03  9152   0.168E-02 0.364E-04
CGA:  17    -0.385170413126E+03   -0.23336E-03   -0.23377E-03  9152   0.161E-02-0.827E-05
CGA:  18    -0.385170513233E+03   -0.10011E-03   -0.10102E-03  9152   0.778E-03-0.113E-05
CGA:  19    -0.385170648403E+03   -0.13517E-03   -0.13468E-03  9152   0.401E-03 0.630E-05
CGA:  20    -0.385170702641E+03   -0.54238E-04   -0.54125E-04  9152   0.499E-03 0.273E-05
CGA:  21    -0.385170737343E+03   -0.34702E-04   -0.34679E-04  9152   0.218E-03 0.122E-07
CGA:  22    -0.385170774057E+03   -0.36714E-04   -0.36587E-04  9152   0.130E-03 0.178E-05
CGA:  23    -0.385170791833E+03   -0.17775E-04   -0.17791E-04  9152   0.178E-03-0.437E-06
CGA:  24    -0.385170805378E+03   -0.13545E-04   -0.13543E-04  9152   0.875E-04-0.296E-06
CGA:  25    -0.385170817737E+03   -0.12359E-04   -0.12375E-04  9152   0.522E-04-0.388E-06
CGA:  26    -0.385170825058E+03   -0.73211E-05   -0.73143E-05  9152   0.511E-04 0.174E-06
  30 F= -.38517083E+03 E0= -.38516575E+03  d E =-.147354E+00  mag=    46.0000
       N       E                     dE             d eps       ncg     rms          ort
SDA:   1    -0.384391896940E+03    0.77892E+00    0.00000E+00  9152   0.248E+01 0.000E+00
CGA:   2    -0.384844566246E+03   -0.45267E+00   -0.45242E+00  9152   0.114E+01 0.339E-02
CGA:   3    -0.385036971649E+03   -0.19241E+00   -0.19075E+00  9152   0.769E+00 0.243E-01
CGA:   4    -0.385122500542E+03   -0.85529E-01   -0.85486E-01  9152   0.217E+00-0.422E-02
CGA:   5    -0.385147640567E+03   -0.25140E-01   -0.25162E-01  9152   0.223E+00-0.313E-02
CGA:   6    -0.385158385774E+03   -0.10745E-01   -0.11449E-01  9152   0.432E-01-0.771E-02
CGA:   7    -0.385164323136E+03   -0.59374E-02   -0.59661E-02  9152   0.203E-01-0.636E-03
CGA:   8    -0.385166657783E+03   -0.23346E-02   -0.23331E-02  9152   0.753E-02 0.180E-03
CGA:   9    -0.385167728459E+03   -0.10707E-02   -0.10737E-02  9152   0.831E-02-0.730E-04
CGA:  10    -0.385168162555E+03   -0.43410E-03   -0.43718E-03  9152   0.228E-02-0.326E-04
CGA:  11    -0.385168487139E+03   -0.32458E-03   -0.32494E-03  9152   0.135E-02-0.755E-05
CGA:  12    -0.385168678903E+03   -0.19176E-03   -0.19172E-03  9152   0.598E-03 0.651E-06
CGA:  13    -0.385168746082E+03   -0.67179E-04   -0.67178E-04  9152   0.726E-03-0.468E-06
CGA:  14    -0.385168798980E+03   -0.52898E-04   -0.53047E-04  9152   0.316E-03 0.331E-07
CGA:  15    -0.385168843755E+03   -0.44775E-04   -0.44817E-04  9152   0.147E-03-0.115E-05
CGA:  16    -0.385168870549E+03   -0.26794E-04   -0.26665E-04  9152   0.151E-03 0.183E-05
CGA:  17    -0.385168882951E+03   -0.12402E-04   -0.12409E-04  9152   0.118E-03 0.462E-06
CGA:  18    -0.385168892385E+03   -0.94341E-05   -0.94470E-05  9152   0.479E-04 0.221E-06
  31 F= -.38516889E+03 E0= -.38516392E+03  d E =0.193267E-02  mag=    46.0000
       N       E                     dE             d eps       ncg     rms          ort
SDA:   1    -0.385091751970E+03    0.77131E-01    0.00000E+00  9152   0.246E+00 0.000E+00
CGA:   2    -0.385134021602E+03   -0.42270E-01   -0.42415E-01  9152   0.273E+00-0.219E-02
CGA:   3    -0.385148678381E+03   -0.14657E-01   -0.15319E-01  9152   0.124E+00-0.662E-02
CGA:   4    -0.385164475487E+03   -0.15797E-01   -0.15836E-01  9152   0.543E-01-0.168E-02
CGA:   5    -0.385169002383E+03   -0.45269E-02   -0.46037E-02  9152   0.200E-01 0.328E-03
CGA:   6    -0.385170549869E+03   -0.15475E-02   -0.15381E-02  9152   0.140E-01 0.742E-05
CGA:   7    -0.385171661854E+03   -0.11120E-02   -0.11154E-02  9152   0.270E-02 0.471E-05
CGA:   8    -0.385172069401E+03   -0.40755E-03   -0.40774E-03  9152   0.222E-02-0.415E-05
CGA:   9    -0.385172203044E+03   -0.13364E-03   -0.13401E-03  9152   0.101E-02-0.346E-05
CGA:  10    -0.385172316607E+03   -0.11356E-03   -0.11357E-03  9152   0.417E-03-0.379E-05
CGA:  11    -0.385172368921E+03   -0.52314E-04   -0.52278E-04  9152   0.350E-03 0.187E-05
CGA:  12    -0.385172391692E+03   -0.22772E-04   -0.22766E-04  9152   0.147E-03 0.293E-06
CGA:  13    -0.385172408771E+03   -0.17079E-04   -0.17077E-04  9152   0.886E-04 0.258E-06
CGA:  14    -0.385172419975E+03   -0.11204E-04   -0.11196E-04  9152   0.694E-04 0.558E-06
CGA:  15    -0.385172424295E+03   -0.43201E-05   -0.43370E-05  9152   0.295E-04 0.225E-06
  32 F= -.38517242E+03 E0= -.38516741E+03  d E =-.353191E-02  mag=    46.0000
       N       E                     dE             d eps       ncg     rms          ort
SDA:   1    -0.383934547284E+03    0.12379E+01    0.00000E+00  9152   0.344E+01 0.000E+00
CGA:   2    -0.384681888613E+03   -0.74734E+00   -0.75471E+00  9152   0.250E+01-0.648E-01
CGA:   3    -0.384934830939E+03   -0.25294E+00   -0.26032E+00  9152   0.149E+01 0.265E+00
CGA:   4    -0.385053958625E+03   -0.11913E+00   -0.11131E+00  9152   0.826E+00 0.406E-01
CGA:   5    -0.385119655580E+03   -0.65697E-01   -0.66649E-01  9152   0.192E+00 0.168E-02
CGA:   6    -0.385140477364E+03   -0.20822E-01   -0.20881E-01  9152   0.164E+00 0.603E-02
CGA:   7    -0.385149453392E+03   -0.89760E-02   -0.87096E-02  9152   0.458E-01 0.293E-02
CGA:   8    -0.385154989808E+03   -0.55364E-02   -0.55398E-02  9152   0.219E-01-0.223E-03
CGA:   9    -0.385157082990E+03   -0.20932E-02   -0.21017E-02  9152   0.207E-01 0.222E-03
CGA:  10    -0.385158361404E+03   -0.12784E-02   -0.12667E-02  9152   0.585E-02 0.759E-04
CGA:  11    -0.385159241222E+03   -0.87982E-03   -0.88141E-03  9152   0.346E-02-0.287E-04
CGA:  12    -0.385159574155E+03   -0.33293E-03   -0.33377E-03  9152   0.308E-02 0.280E-04
CGA:  13    -0.385159777041E+03   -0.20289E-03   -0.20239E-03  9152   0.122E-02 0.486E-05
CGA:  14    -0.385159996065E+03   -0.21902E-03   -0.21898E-03  9152   0.647E-03 0.683E-06
CGA:  15    -0.385160083442E+03   -0.87377E-04   -0.87198E-04  9152   0.522E-03 0.541E-05
CGA:  16    -0.385160127733E+03   -0.44291E-04   -0.44276E-04  9152   0.504E-03 0.241E-06
CGA:  17    -0.385160175994E+03   -0.48261E-04   -0.48288E-04  9152   0.142E-03 0.672E-06
CGA:  18    -0.385160203228E+03   -0.27233E-04   -0.27301E-04  9152   0.123E-03-0.818E-06
CGA:  19    -0.385160216324E+03   -0.13097E-04   -0.13091E-04  9152   0.118E-03-0.628E-06
CGA:  20    -0.385160223974E+03   -0.76499E-05   -0.76488E-05  9152   0.478E-04-0.262E-06
  33 F= -.38516022E+03 E0= -.38515508E+03  d E =0.122003E-01  mag=    46.0000
       N       E                     dE             d eps       ncg     rms          ort
SDA:   1    -0.384965239732E+03    0.19498E+00    0.00000E+00  9152   0.590E+00 0.000E+00
CGA:   2    -0.385086958809E+03   -0.12172E+00   -0.12119E+00  9152   0.358E+00 0.536E-02
CGA:   3    -0.385121076396E+03   -0.34118E-01   -0.33485E-01  9152   0.409E+00-0.508E-02
CGA:   4    -0.385151533547E+03   -0.30457E-01   -0.30825E-01  9152   0.813E-01-0.336E-03
CGA:   5    -0.385161013840E+03   -0.94803E-02   -0.94766E-02  9152   0.293E-01 0.238E-02
CGA:   6    -0.385164334439E+03   -0.33206E-02   -0.33160E-02  9152   0.223E-01-0.352E-03
CGA:   7    -0.385165453795E+03   -0.11194E-02   -0.11396E-02  9152   0.615E-02-0.227E-03
CGA:   8    -0.385166385019E+03   -0.93122E-03   -0.93091E-03  9152   0.246E-02 0.694E-05
CGA:   9    -0.385166649149E+03   -0.26413E-03   -0.26395E-03  9152   0.216E-02-0.113E-04
CGA:  10    -0.385166790308E+03   -0.14116E-03   -0.14158E-03  9152   0.106E-02-0.303E-05
CGA:  11    -0.385166906854E+03   -0.11655E-03   -0.11654E-03  9152   0.359E-03 0.654E-07
CGA:  12    -0.385166964276E+03   -0.57422E-04   -0.57523E-04  9152   0.279E-03-0.174E-05
CGA:  13    -0.385166990436E+03   -0.26160E-04   -0.26173E-04  9152   0.263E-03 0.104E-07
CGA:  14    -0.385167009257E+03   -0.18820E-04   -0.18790E-04  9152   0.871E-04-0.121E-06
CGA:  15    -0.385167026534E+03   -0.17277E-04   -0.17255E-04  9152   0.519E-04 0.244E-06
CGA:  16    -0.385167034504E+03   -0.79709E-05   -0.79726E-05  9152   0.379E-04-0.177E-07
  34 F= -.38516703E+03 E0= -.38516194E+03  d E =-.681053E-02  mag=    46.0000
       N       E                     dE             d eps       ncg     rms          ort
SDA:   1    -0.383022044883E+03    0.21450E+01    0.00000E+00  9152   0.590E+01 0.000E+00
CGA:   2    -0.384339767431E+03   -0.13177E+01   -0.13104E+01  9152   0.584E+01 0.299E-01
CGA:   3    -0.384697623158E+03   -0.35786E+00   -0.43863E+00  9152   0.362E+01 0.149E-01
CGA:   4    -0.384960435086E+03   -0.26281E+00   -0.19130E+00  9152   0.821E+00 0.111E+01
CGA:   5    -0.385059149048E+03   -0.98714E-01   -0.94314E-01  9152   0.117E+01-0.296E-01
CGA:   6    -0.385108512009E+03   -0.49363E-01   -0.50272E-01  9152   0.431E+00-0.127E-01
CGA:   7    -0.385125226773E+03   -0.16715E-01   -0.19894E-01  9152   0.319E+00-0.422E-01
CGA:   8    -0.385140908297E+03   -0.15682E-01   -0.14951E-01  9152   0.141E+00 0.812E-02
CGA:   9    -0.385149527413E+03   -0.86191E-02   -0.84783E-02  9152   0.145E+00 0.857E-03
CGA:  10    -0.385157389481E+03   -0.78621E-02   -0.79796E-02  9152   0.522E-01-0.797E-03
CGA:  11    -0.385159261905E+03   -0.18724E-02   -0.19353E-02  9152   0.248E-01-0.117E-02
CGA:  12    -0.385161703286E+03   -0.24414E-02   -0.24381E-02  9152   0.267E-01 0.453E-03
CGA:  13    -0.385162842757E+03   -0.11395E-02   -0.11212E-02  9152   0.975E-02 0.272E-03
CGA:  14    -0.385163677641E+03   -0.83488E-03   -0.83315E-03  9152   0.915E-02-0.752E-04
CGA:  15    -0.385164083608E+03   -0.40597E-03   -0.41155E-03  9152   0.400E-02-0.655E-04
CGA:  16    -0.385164510576E+03   -0.42697E-03   -0.42460E-03  9152   0.569E-02 0.976E-04
CGA:  17    -0.385164788005E+03   -0.27743E-03   -0.27571E-03  9152   0.156E-02 0.217E-04
CGA:  18    -0.385164966904E+03   -0.17890E-03   -0.17947E-03  9152   0.239E-02-0.168E-04
CGA:  19    -0.385165091102E+03   -0.12420E-03   -0.12458E-03  9152   0.902E-03-0.317E-05
CGA:  20    -0.385165186553E+03   -0.95450E-04   -0.95129E-04  9152   0.121E-02 0.128E-04
CGA:  21    -0.385165248547E+03   -0.61995E-04   -0.61943E-04  9152   0.372E-03 0.842E-06
CGA:  22    -0.385165297431E+03   -0.48883E-04   -0.48943E-04  9152   0.632E-03-0.113E-05
CGA:  23    -0.385165331490E+03   -0.34059E-04   -0.34139E-04  9152   0.251E-03 0.541E-06
CGA:  24    -0.385165362854E+03   -0.31364E-04   -0.31233E-04  9152   0.326E-03 0.333E-05
CGA:  25    -0.385165379060E+03   -0.16206E-04   -0.16227E-04  9152   0.117E-03 0.127E-05
CGA:  26    -0.385165398900E+03   -0.19841E-04   -0.19887E-04  9152   0.210E-03-0.562E-06
CGA:  27    -0.385165409304E+03   -0.10404E-04   -0.10410E-04  9152   0.731E-04-0.250E-06
CGA:  28    -0.385165418381E+03   -0.90763E-05   -0.90708E-05  9152   0.766E-04 0.995E-07
  35 F= -.38516542E+03 E0= -.38516040E+03  d E =0.161612E-02  mag=    46.0000
       N       E                     dE             d eps       ncg     rms          ort
SDA:   1    -0.373040253143E+03    0.12125E+02    0.00000E+00  9152   0.383E+02 0.000E+00
CGA:   2    -0.378474468920E+03   -0.54342E+01   -0.52392E+01  9152   0.460E+02 0.778E+00
CGA:   3    -0.381659252501E+03   -0.31848E+01   -0.25944E+01  9152   0.124E+02 0.845E+01
CGA:   4    -0.383340868369E+03   -0.16816E+01   -0.16432E+01  9152   0.212E+02 0.118E+01
CGA:   5    -0.384244397103E+03   -0.90353E+00   -0.84485E+00  9152   0.401E+01 0.153E+01
CGA:   6    -0.384706095989E+03   -0.46170E+00   -0.48352E+00  9152   0.370E+01-0.859E+00
CGA:   7    -0.384766291115E+03   -0.60195E-01   -0.48536E-01  9152   0.220E+01 0.629E+00
CGA:   8    -0.384838817470E+03   -0.72526E-01   -0.74919E-01  9152   0.234E+01-0.511E-01
CGA:   9    -0.384902910232E+03   -0.64093E-01   -0.83539E-01  9152   0.197E+01-0.242E+00
CGA:  10    -0.384943604095E+03   -0.40694E-01   -0.45084E-01  9152   0.615E+00-0.116E+00
CGA:  11    -0.384970178635E+03   -0.26575E-01   -0.27558E-01  9152   0.682E+00-0.556E-02
CGA:  12    -0.384994698340E+03   -0.24520E-01   -0.20362E-01  9152   0.259E+00 0.115E+00
CGA:  13    -0.385003411455E+03   -0.87131E-02   -0.82301E-02  9152   0.166E+00 0.143E-01
CGA:  14    -0.385013267554E+03   -0.98561E-02   -0.99711E-02  9152   0.264E+00 0.188E-02
CGA:  15    -0.385022502487E+03   -0.92349E-02   -0.97252E-02  9152   0.144E+00-0.577E-02
CGA:  16    -0.385028095512E+03   -0.55930E-02   -0.58539E-02  9152   0.998E-01-0.148E-02
CGA:  17    -0.385031672568E+03   -0.35771E-02   -0.34249E-02  9152   0.457E-01 0.217E-02
CGA:  18    -0.385033772672E+03   -0.21001E-02   -0.21055E-02  9152   0.445E-01 0.392E-05
CGA:  19    -0.385035932986E+03   -0.21603E-02   -0.21930E-02  9152   0.328E-01 0.362E-03
CGA:  20    -0.385037402574E+03   -0.14696E-02   -0.14904E-02  9152   0.272E-01 0.770E-04
CGA:  21    -0.385039228906E+03   -0.18263E-02   -0.18240E-02  9152   0.186E-01 0.408E-03
CGA:  22    -0.385039829190E+03   -0.60028E-03   -0.58025E-03  9152   0.556E-02 0.365E-03
CGA:  23    -0.385040239699E+03   -0.41051E-03   -0.41090E-03  9152   0.110E-01-0.225E-04
CGA:  24    -0.385040945221E+03   -0.70552E-03   -0.70530E-03  9152   0.784E-02 0.691E-04
CGA:  25    -0.385041224866E+03   -0.27964E-03   -0.28301E-03  9152   0.381E-02-0.232E-04
CGA:  26    -0.385041461278E+03   -0.23641E-03   -0.23637E-03  9152   0.321E-02 0.298E-04
CGA:  27    -0.385041588531E+03   -0.12725E-03   -0.12681E-03  9152   0.139E-02 0.345E-06
CGA:  28    -0.385041694734E+03   -0.10620E-03   -0.10660E-03  9152   0.254E-02-0.192E-04
CGA:  29    -0.385041852690E+03   -0.15796E-03   -0.15795E-03  9152   0.175E-02-0.443E-05
CGA:  30    -0.385041923759E+03   -0.71069E-04   -0.71338E-04  9152   0.103E-02-0.252E-05
CGA:  31    -0.385041983010E+03   -0.59251E-04   -0.59260E-04  9152   0.841E-03 0.181E-05
SDA:  32    -0.385042027820E+03   -0.44810E-04   -0.44801E-04  9152   0.833E-03 0.220E-07
CGA:  33    -0.385042075500E+03   -0.47680E-04   -0.47680E-04  9152   0.281E-03-0.311E-06
CGA:  34    -0.385042108754E+03   -0.33255E-04   -0.33247E-04  9152   0.442E-03 0.115E-06
CGA:  35    -0.385042158109E+03   -0.49355E-04   -0.49062E-04  9152   0.113E-03 0.591E-05
CGA:  36    -0.385042181403E+03   -0.23294E-04   -0.23437E-04  9152   0.105E-03-0.978E-06
CGA:  37    -0.385042203864E+03   -0.22460E-04   -0.23077E-04  9152   0.148E-03-0.425E-05
CGA:  38    -0.385042212943E+03   -0.90789E-05   -0.90677E-05  9152   0.106E-03-0.865E-06
CGA:  39    -0.385042236830E+03   -0.23888E-04   -0.23956E-04  9152   0.809E-04-0.476E-06
CGA:  40    -0.385042246054E+03   -0.92232E-05   -0.92401E-05  9152   0.711E-04-0.584E-06
  36 F= -.38504225E+03 E0= -.38503692E+03  d E =0.123172E+00  mag=    46.0000
       N       E                     dE             d eps       ncg     rms          ort
SDA:   1    -0.377044504231E+03    0.79977E+01    0.00000E+00  9152   0.385E+02 0.000E+00
CGA:   2    -0.379895015361E+03   -0.28505E+01   -0.29164E+01  9152   0.251E+02 0.306E+01
CGA:   3    -0.382270066324E+03   -0.23751E+01   -0.24349E+01  9152   0.269E+02-0.929E+01
CGA:   4    -0.383203673731E+03   -0.93361E+00   -0.99440E+00  9152   0.252E+02 0.223E-01
CGA:   5    -0.383741116890E+03   -0.53744E+00   -0.70182E+00  9152   0.108E+02-0.607E+01
CGA:   6    -0.384632789888E+03   -0.89167E+00   -0.89932E+00  9152   0.261E+01-0.210E+00
CGA:   7    -0.384791884816E+03   -0.15909E+00   -0.16285E+00  9152   0.378E+01 0.321E-01
CGA:   8    -0.384969939964E+03   -0.17806E+00   -0.16321E+00  9152   0.954E+00 0.195E+00
CGA:   9    -0.385060953591E+03   -0.91014E-01   -0.89533E-01  9152   0.334E+00 0.989E-01
CGA:  10    -0.385106431079E+03   -0.45477E-01   -0.47297E-01  9152   0.567E+00-0.347E-01
CGA:  11    -0.385122772526E+03   -0.16341E-01   -0.19980E-01  9152   0.197E+00-0.465E-01
CGA:  12    -0.385140025903E+03   -0.17253E-01   -0.17175E-01  9152   0.719E-01 0.360E-02
CGA:  13    -0.385151979471E+03   -0.11954E-01   -0.12083E-01  9152   0.110E+00-0.138E-02
CGA:  14    -0.385156671222E+03   -0.46918E-02   -0.51991E-02  9152   0.307E-01-0.310E-02
CGA:  15    -0.385159939950E+03   -0.32687E-02   -0.32476E-02  9152   0.142E-01 0.619E-03
CGA:  16    -0.385162395045E+03   -0.24551E-02   -0.23709E-02  9152   0.159E-01 0.101E-02
CGA:  17    -0.385163323435E+03   -0.92839E-03   -0.92834E-03  9152   0.458E-02-0.841E-05
CGA:  18    -0.385164002227E+03   -0.67879E-03   -0.67385E-03  9152   0.384E-02 0.732E-04
CGA:  19    -0.385164414912E+03   -0.41269E-03   -0.41248E-03  9152   0.309E-02 0.881E-05
CGA:  20    -0.385164631937E+03   -0.21703E-03   -0.21824E-03  9152   0.911E-03 0.136E-04
CGA:  21    -0.385164841365E+03   -0.20943E-03   -0.20917E-03  9152   0.131E-02 0.168E-05
CGA:  22    -0.385164920513E+03   -0.79148E-04   -0.79507E-04  9152   0.427E-03-0.175E-06
CGA:  23    -0.385165000940E+03   -0.80427E-04   -0.80416E-04  9152   0.489E-03 0.874E-07
[...]
CGA:   9    -0.385070182044E+03   -0.24809E-02   -0.24836E-02  9152   0.187E-01-0.669E-05
CGA:  10    -0.385071620981E+03   -0.14389E-02   -0.14444E-02  9152   0.860E-02 0.265E-04
CGA:  11    -0.385072583194E+03   -0.96221E-03   -0.96219E-03  9152   0.371E-02-0.817E-08
CGA:  12    -0.385073059192E+03   -0.47600E-03   -0.47526E-03  9152   0.304E-02 0.225E-04
CGA:  13    -0.385073308297E+03   -0.24911E-03   -0.24906E-03  9152   0.205E-02 0.274E-06
CGA:  14    -0.385073486000E+03   -0.17770E-03   -0.17770E-03  9152   0.139E-02 0.215E-05
CGA:  15    -0.385073673543E+03   -0.18754E-03   -0.18717E-03  9152   0.730E-03 0.971E-05
CGA:  16    -0.385073761717E+03   -0.88174E-04   -0.88177E-04  9152   0.690E-03 0.303E-06
CGA:  17    -0.385073826242E+03   -0.64524E-04   -0.64529E-04  9152   0.546E-03 0.962E-07
CGA:  18    -0.385073867570E+03   -0.41329E-04   -0.41375E-04  9152   0.215E-03 0.686E-06
CGA:  19    -0.385073900465E+03   -0.32895E-04   -0.32954E-04  9152   0.173E-03-0.125E-05
CGA:  20    -0.385073917496E+03   -0.17031E-04   -0.17031E-04  9152   0.103E-03-0.133E-06
CGA:  21    -0.385073926300E+03   -0.88038E-05   -0.87961E-05  9152   0.924E-04-0.389E-06
 125 F= -.38507393E+03 E0= -.38506815E+03  d E =0.761825E-02  mag=    46.0000
       N       E                     dE             d eps       ncg     rms          ort
SDA:   1    -0.383912754099E+03    0.11612E+01    0.00000E+00  9152   0.397E+01 0.000E+00
CGA:   2    -0.384402110899E+03   -0.48936E+00   -0.48368E+00  9152   0.376E+01 0.221E+00
CGA:   3    -0.384746766944E+03   -0.34466E+00   -0.33992E+00  9152   0.212E+01-0.687E-01
CGA:   4    -0.384891810703E+03   -0.14504E+00   -0.14294E+00  9152   0.120E+01 0.336E-02
CGA:   5    -0.385013924844E+03   -0.12211E+00   -0.12213E+00  9152   0.255E+00 0.607E-02
CGA:   6    -0.385040246541E+03   -0.26322E-01   -0.26321E-01  9152   0.191E+00-0.247E-02
CGA:   7    -0.385053444875E+03   -0.13198E-01   -0.13216E-01  9152   0.863E-01 0.208E-05
CGA:   8    -0.385058766285E+03   -0.53214E-02   -0.53280E-02  9152   0.271E-01 0.353E-05
CGA:   9    -0.385062778203E+03   -0.40119E-02   -0.40191E-02  9152   0.144E-01-0.121E-03
CGA:  10    -0.385064091860E+03   -0.13137E-02   -0.13147E-02  9152   0.809E-02 0.380E-04
CGA:  11    -0.385064764326E+03   -0.67247E-03   -0.67266E-03  9152   0.681E-02 0.446E-05
CGA:  12    -0.385065321498E+03   -0.55717E-03   -0.55705E-03  9152   0.262E-02-0.287E-05
CGA:  13    -0.385065624630E+03   -0.30313E-03   -0.30302E-03  9152   0.134E-02 0.493E-05
CGA:  14    -0.385065821784E+03   -0.19715E-03   -0.19727E-03  9152   0.111E-02-0.204E-05
CGA:  15    -0.385065924936E+03   -0.10315E-03   -0.10316E-03  9152   0.785E-03 0.319E-06
CGA:  16    -0.385065978409E+03   -0.53473E-04   -0.53539E-04  9152   0.436E-03 0.123E-05
CGA:  17    -0.385066037146E+03   -0.58737E-04   -0.58735E-04  9152   0.291E-03 0.138E-06
CGA:  18    -0.385066070313E+03   -0.33167E-04   -0.33158E-04  9152   0.124E-03 0.673E-06
CGA:  19    -0.385066088462E+03   -0.18149E-04   -0.18177E-04  9152   0.143E-03-0.635E-06
CGA:  20    -0.385066100825E+03   -0.12363E-04   -0.12352E-04  9152   0.957E-04-0.618E-06
CGA:  21    -0.385066107107E+03   -0.62815E-05   -0.62891E-05  9152   0.394E-04 0.185E-06
 126 F= -.38506611E+03 E0= -.38506028E+03  d E =0.781919E-02  mag=    46.0000
       N       E                     dE             d eps       ncg     rms          ort
SDA:   1    -0.384150522470E+03    0.91558E+00    0.00000E+00  9152   0.295E+01 0.000E+00
CGA:   2    -0.384544247335E+03   -0.39372E+00   -0.39807E+00  9152   0.369E+01-0.105E+00
CGA:   3    -0.384876977094E+03   -0.33273E+00   -0.33333E+00  9152   0.993E+00 0.163E-01
CGA:   4    -0.384986293836E+03   -0.10932E+00   -0.10932E+00  9152   0.103E+01-0.134E-02
CGA:   5    -0.385044029614E+03   -0.57736E-01   -0.57238E-01  9152   0.161E+00 0.432E-02
CGA:   6    -0.385064747262E+03   -0.20718E-01   -0.20700E-01  9152   0.862E-01 0.486E-03
CGA:   7    -0.385071452128E+03   -0.67049E-02   -0.67323E-02  9152   0.346E-01 0.139E-03
CGA:   8    -0.385074704797E+03   -0.32527E-02   -0.32535E-02  9152   0.189E-01 0.303E-04
CGA:   9    -0.385075982515E+03   -0.12777E-02   -0.12768E-02  9152   0.110E-01 0.530E-05
CGA:  10    -0.385077190606E+03   -0.12081E-02   -0.12077E-02  9152   0.302E-02 0.352E-04
CGA:  11    -0.385077666105E+03   -0.47550E-03   -0.47526E-03  9152   0.257E-02 0.409E-05
CGA:  12    -0.385077859534E+03   -0.19343E-03   -0.19360E-03  9152   0.183E-02-0.820E-06
CGA:  13    -0.385078021090E+03   -0.16156E-03   -0.16160E-03  9152   0.676E-03 0.630E-06
CGA:  14    -0.385078133726E+03   -0.11264E-03   -0.11256E-03  9152   0.867E-03 0.106E-05
CGA:  15    -0.385078207074E+03   -0.73349E-04   -0.73301E-04  9152   0.311E-03-0.350E-06
CGA:  16    -0.385078236519E+03   -0.29445E-04   -0.29442E-04  9152   0.368E-03-0.444E-06
CGA:  17    -0.385078277592E+03   -0.41073E-04   -0.41065E-04  9152   0.129E-03 0.105E-05
CGA:  18    -0.385078293603E+03   -0.16010E-04   -0.15994E-04  9152   0.891E-04 0.882E-06
CGA:  19    -0.385078302843E+03   -0.92402E-05   -0.92424E-05  9152   0.913E-04 0.746E-06
 127 F= -.38507830E+03 E0= -.38507256E+03  d E =-.121957E-01  mag=    46.0000
       N       E                     dE             d eps       ncg     rms          ort
SDA:   1    -0.384616706960E+03    0.46159E+00    0.00000E+00  9152   0.146E+01 0.000E+00
CGA:   2    -0.384821458081E+03   -0.20475E+00   -0.20705E+00  9152   0.179E+01-0.458E-01
CGA:   3    -0.384984860628E+03   -0.16340E+00   -0.16381E+00  9152   0.443E+00 0.132E-01
CGA:   4    -0.385049940915E+03   -0.65080E-01   -0.65325E-01  9152   0.257E+00-0.476E-02
CGA:   5    -0.385064192160E+03   -0.14251E-01   -0.14166E-01  9152   0.111E+00 0.677E-03
CGA:   6    -0.385074048025E+03   -0.98559E-02   -0.98665E-02  9152   0.327E-01 0.211E-03
CGA:   7    -0.385077487063E+03   -0.34390E-02   -0.34389E-02  9152   0.167E-01 0.173E-03
CGA:   8    -0.385079016904E+03   -0.15298E-02   -0.15298E-02  9152   0.574E-02-0.142E-05
CGA:   9    -0.385079687128E+03   -0.67022E-03   -0.67005E-03  9152   0.490E-02 0.800E-05
CGA:  10    -0.385080018088E+03   -0.33096E-03   -0.33150E-03  9152   0.226E-02-0.153E-05
CGA:  11    -0.385080215507E+03   -0.19742E-03   -0.19743E-03  9152   0.896E-03 0.134E-05
CGA:  12    -0.385080383133E+03   -0.16763E-03   -0.16760E-03  9152   0.537E-03 0.307E-06
CGA:  13    -0.385080436511E+03   -0.53378E-04   -0.53387E-04  9152   0.515E-03 0.914E-06
CGA:  14    -0.385080479618E+03   -0.43107E-04   -0.43113E-04  9152   0.344E-03-0.262E-06
CGA:  15    -0.385080526315E+03   -0.46697E-04   -0.46734E-04  9152   0.166E-03-0.933E-06
CGA:  16    -0.385080543921E+03   -0.17606E-04   -0.17606E-04  9152   0.142E-03 0.726E-07
CGA:  17    -0.385080561586E+03   -0.17665E-04   -0.17659E-04  9152   0.106E-03 0.335E-06
CGA:  18    -0.385080568695E+03   -0.71093E-05   -0.71115E-05  9152   0.565E-04 0.577E-07
 128 F= -.38508057E+03 E0= -.38507489E+03  d E =-.226585E-02  mag=    46.0000
       N       E                     dE             d eps       ncg     rms          ort
SDA:   1    -0.385002121640E+03    0.78440E-01    0.00000E+00  9152   0.260E+00 0.000E+00
CGA:   2    -0.385044203751E+03   -0.42082E-01   -0.42287E-01  9152   0.195E+00-0.310E-02
CGA:   3    -0.385062140733E+03   -0.17937E-01   -0.17993E-01  9152   0.129E+00 0.125E-02
CGA:   4    -0.385072930467E+03   -0.10790E-01   -0.10811E-01  9152   0.778E-01 0.184E-03
CGA:   5    -0.385078431045E+03   -0.55006E-02   -0.54612E-02  9152   0.211E-01 0.397E-04
CGA:   6    -0.385080613880E+03   -0.21828E-02   -0.21830E-02  9152   0.989E-02 0.559E-04
CGA:   7    -0.385081566699E+03   -0.95282E-03   -0.95237E-03  9152   0.420E-02-0.215E-04
CGA:   8    -0.385081861388E+03   -0.29469E-03   -0.29485E-03  9152   0.266E-02-0.272E-05
CGA:   9    -0.385082121727E+03   -0.26034E-03   -0.26036E-03  9152   0.893E-03 0.182E-05
CGA:  10    -0.385082238634E+03   -0.11691E-03   -0.11689E-03  9152   0.528E-03 0.710E-06
CGA:  11    -0.385082281300E+03   -0.42666E-04   -0.42694E-04  9152   0.407E-03 0.113E-05
CGA:  12    -0.385082319152E+03   -0.37852E-04   -0.37852E-04  9152   0.174E-03-0.978E-07
CGA:  13    -0.385082337199E+03   -0.18047E-04   -0.18048E-04  9152   0.106E-03-0.566E-07
CGA:  14    -0.385082349576E+03   -0.12377E-04   -0.12379E-04  9152   0.827E-04-0.151E-06
CGA:  15    -0.385082356425E+03   -0.68491E-05   -0.68485E-05  9152   0.539E-04-0.304E-07
 129 F= -.38508236E+03 E0= -.38507670E+03  d E =-.178773E-02  mag=    46.0000
       N       E                     dE             d eps       ncg     rms          ort
SDA:   1    -0.384802587629E+03    0.27976E+00    0.00000E+00  9152   0.924E+00 0.000E+00
CGA:   2    -0.384910987940E+03   -0.10840E+00   -0.10907E+00  9152   0.115E+01-0.262E-01
CGA:   3    -0.385014097466E+03   -0.10311E+00   -0.10316E+00  9152   0.536E+00 0.209E-02
CGA:   4    -0.385047288878E+03   -0.33191E-01   -0.33871E-01  9152   0.231E+00-0.237E-02
CGA:   5    -0.385074568666E+03   -0.27280E-01   -0.27308E-01  9152   0.503E-01-0.969E-03
CGA:   6    -0.385080165009E+03   -0.55963E-02   -0.55941E-02  9152   0.281E-01 0.117E-03
CGA:   7    -0.385082206599E+03   -0.20416E-02   -0.20430E-02  9152   0.155E-01 0.229E-05
CGA:   8    -0.385083338469E+03   -0.11319E-02   -0.11329E-02  9152   0.461E-02 0.121E-05
CGA:   9    -0.385083972683E+03   -0.63421E-03   -0.63443E-03  9152   0.210E-02-0.429E-05
CGA:  10    -0.385084208832E+03   -0.23615E-03   -0.23610E-03  9152   0.180E-02 0.286E-05
CGA:  11    -0.385084315351E+03   -0.10652E-03   -0.10666E-03  9152   0.556E-03 0.201E-05
CGA:  12    -0.385084424476E+03   -0.10913E-03   -0.10903E-03  9152   0.337E-03 0.985E-06
CGA:  13    -0.385084455549E+03   -0.31072E-04   -0.31073E-04  9152   0.295E-03 0.122E-06
CGA:  14    -0.385084486069E+03   -0.30520E-04   -0.30520E-04  9152   0.245E-03-0.512E-06
CGA:  15    -0.385084511280E+03   -0.25212E-04   -0.25212E-04  9152   0.109E-03-0.171E-06
CGA:  16    -0.385084523569E+03   -0.12289E-04   -0.12295E-04  9152   0.891E-04-0.560E-06
CGA:  17    -0.385084534314E+03   -0.10745E-04   -0.10741E-04  9152   0.755E-04 0.202E-06
CGA:  18    -0.385084539356E+03   -0.50418E-05   -0.50436E-05  9152   0.296E-04-0.270E-08
 130 F= -.38508454E+03 E0= -.38507893E+03  d E =-.218293E-02  mag=    46.0000
       N       E                     dE             d eps       ncg     rms          ort
SDA:   1    -0.384751625144E+03    0.33291E+00    0.00000E+00  9152   0.107E+01 0.000E+00
CGA:   2    -0.384887909801E+03   -0.13628E+00   -0.13812E+00  9152   0.166E+01-0.512E-01
CGA:   3    -0.385003166106E+03   -0.11526E+00   -0.11559E+00  9152   0.522E+00-0.125E-03
CGA:   4    -0.385040047122E+03   -0.36881E-01   -0.37372E-01  9152   0.262E+00 0.116E-02
CGA:   5    -0.385073694890E+03   -0.33648E-01   -0.33675E-01  9152   0.516E-01-0.745E-03
CGA:   6    -0.385079865652E+03   -0.61708E-02   -0.61619E-02  9152   0.279E-01 0.344E-03
CGA:   7    -0.385082048645E+03   -0.21830E-02   -0.21836E-02  9152   0.170E-01-0.430E-05
CGA:   8    -0.385083123311E+03   -0.10747E-02   -0.10795E-02  9152   0.429E-02-0.246E-04
CGA:   9    -0.385083833264E+03   -0.70995E-03   -0.70901E-03  9152   0.240E-02 0.131E-04
CGA:  10    -0.385084089738E+03   -0.25647E-03   -0.25648E-03  9152   0.926E-03 0.425E-06
CGA:  11    -0.385084239525E+03   -0.14979E-03   -0.14961E-03  9152   0.962E-03 0.282E-05
CGA:  12    -0.385084316655E+03   -0.77129E-04   -0.77099E-04  9152   0.504E-03 0.843E-07
CGA:  13    -0.385084361740E+03   -0.45085E-04   -0.45084E-04  9152   0.469E-03-0.282E-06
CGA:  14    -0.385084424454E+03   -0.62715E-04   -0.62668E-04  9152   0.223E-03 0.143E-05
CGA:  15    -0.385084460474E+03   -0.36020E-04   -0.36059E-04  9152   0.120E-03-0.700E-06
CGA:  16    -0.385084485116E+03   -0.24641E-04   -0.24668E-04  9152   0.109E-03-0.281E-06
CGA:  17    -0.385084492833E+03   -0.77174E-05   -0.76918E-05  9152   0.613E-04-0.597E-06
 131 F= -.38508449E+03 E0= -.38507892E+03  d E =0.465230E-04  mag=    46.0000
       N       E                     dE             d eps       ncg     rms          ort
SDA:   1    -0.384830721852E+03    0.25376E+00    0.00000E+00  9152   0.743E+00 0.000E+00
CGA:   2    -0.384961201389E+03   -0.13048E+00   -0.12900E+00  9152   0.826E+00 0.200E-01
CGA:   3    -0.385032638070E+03   -0.71437E-01   -0.71035E-01  9152   0.307E+00-0.540E-03
CGA:   4    -0.385057265824E+03   -0.24628E-01   -0.24359E-01  9152   0.237E+00-0.690E-03
CGA:   5    -0.385075172944E+03   -0.17907E-01   -0.17945E-01  9152   0.456E-01 0.179E-05
CGA:   6    -0.385080467763E+03   -0.52948E-02   -0.52987E-02  9152   0.178E-01-0.317E-03
CGA:   7    -0.385082463713E+03   -0.19959E-02   -0.19955E-02  9152   0.777E-02 0.765E-04
CGA:   8    -0.385083069141E+03   -0.60543E-03   -0.60445E-03  9152   0.452E-02-0.105E-05
CGA:   9    -0.385083423286E+03   -0.35414E-03   -0.35417E-03  9152   0.265E-02 0.118E-05
CGA:  10    -0.385083674066E+03   -0.25078E-03   -0.25090E-03  9152   0.794E-03 0.269E-05
CGA:  11    -0.385083786270E+03   -0.11220E-03   -0.11235E-03  9152   0.511E-03-0.370E-05
CGA:  12    -0.385083854924E+03   -0.68655E-04   -0.68623E-04  9152   0.275E-03 0.927E-06
CGA:  13    -0.385083891009E+03   -0.36085E-04   -0.36097E-04  9152   0.197E-03-0.435E-06
CGA:  14    -0.385083914718E+03   -0.23708E-04   -0.23700E-04  9152   0.225E-03 0.877E-06
CGA:  15    -0.385083931335E+03   -0.16617E-04   -0.16633E-04  9152   0.974E-04 0.422E-06
CGA:  16    -0.385083941329E+03   -0.99937E-05   -0.99968E-05  9152   0.613E-04 0.549E-06
CGA:  17    -0.385083952290E+03   -0.10962E-04   -0.10914E-04  9152   0.249E-04 0.687E-06
CGA:  18    -0.385083955739E+03   -0.34483E-05   -0.34477E-05  9152   0.228E-04 0.283E-07
 132 F= -.38508396E+03 E0= -.38507833E+03  d E =0.537094E-03  mag=    46.0000
       N       E                     dE             d eps       ncg     rms          ort
SDA:   1    -0.384865007772E+03    0.21894E+00    0.00000E+00  9152   0.835E+00 0.000E+00
CGA:   2    -0.384937115553E+03   -0.72108E-01   -0.73311E-01  9152   0.859E+00 0.893E-02
CGA:   3    -0.385020023178E+03   -0.82908E-01   -0.82956E-01  9152   0.430E+00 0.973E-03
CGA:   4    -0.385051634858E+03   -0.31612E-01   -0.31240E-01  9152   0.164E+00 0.973E-03
CGA:   5    -0.385074114351E+03   -0.22479E-01   -0.22470E-01  9152   0.433E-01 0.243E-03
CGA:   6    -0.385078375332E+03   -0.42610E-02   -0.42573E-02  9152   0.248E-01-0.979E-04
CGA:   7    -0.385080203262E+03   -0.18279E-02   -0.18284E-02  9152   0.138E-01 0.112E-04
CGA:   8    -0.385081193758E+03   -0.99050E-03   -0.99225E-03  9152   0.350E-02 0.333E-05
CGA:   9    -0.385081735756E+03   -0.54200E-03   -0.54212E-03  9152   0.200E-02-0.128E-05
CGA:  10    -0.385081931595E+03   -0.19584E-03   -0.19589E-03  9152   0.124E-02 0.141E-05
CGA:  11    -0.385082031269E+03   -0.99674E-04   -0.99642E-04  9152   0.754E-03-0.466E-06
CGA:  12    -0.385082098543E+03   -0.67274E-04   -0.67243E-04  9152   0.496E-03-0.137E-05
CGA:  13    -0.385082159961E+03   -0.61418E-04   -0.61405E-04  9152   0.193E-03 0.626E-06
CGA:  14    -0.385082193427E+03   -0.33466E-04   -0.33501E-04  9152   0.269E-03-0.520E-06
CGA:  15    -0.385082213531E+03   -0.20104E-04   -0.20133E-04  9152   0.152E-03 0.747E-06
CGA:  16    -0.385082227055E+03   -0.13524E-04   -0.13537E-04  9152   0.669E-04 0.638E-06
CGA:  17    -0.385082239341E+03   -0.12286E-04   -0.12247E-04  9152   0.602E-04 0.526E-06
CGA:  18    -0.385082244487E+03   -0.51457E-05   -0.51500E-05  9152   0.292E-04 0.141E-06
 133 F= -.38508224E+03 E0= -.38507659E+03  d E =0.171125E-02  mag=    46.0000
       N       E                     dE             d eps       ncg     rms          ort
SDA:   1    -0.384966807871E+03    0.11543E+00    0.00000E+00  9152   0.440E+00 0.000E+00
CGA:   2    -0.385003765240E+03   -0.36957E-01   -0.36742E-01  9152   0.495E+00-0.182E-02
CGA:   3    -0.385051325212E+03   -0.47560E-01   -0.47537E-01  9152   0.188E+00-0.767E-03
CGA:   4    -0.385067434122E+03   -0.16109E-01   -0.16187E-01  9152   0.102E+00 0.977E-03
CGA:   5    -0.385079238911E+03   -0.11805E-01   -0.11806E-01  9152   0.186E-01-0.761E-04
CGA:   6    -0.385082023176E+03   -0.27843E-02   -0.27828E-02  9152   0.978E-02 0.256E-04
CGA:   7    -0.385082693924E+03   -0.67075E-03   -0.67117E-03  9152   0.503E-02-0.679E-05
CGA:   8    -0.385083084945E+03   -0.39102E-03   -0.39096E-03  9152   0.241E-02-0.199E-05
CGA:   9    -0.385083323488E+03   -0.23854E-03   -0.23857E-03  9152   0.102E-02 0.788E-06
CGA:  10    -0.385083445252E+03   -0.12176E-03   -0.12178E-03  9152   0.464E-03-0.833E-06
CGA:  11    -0.385083499993E+03   -0.54741E-04   -0.54714E-04  9152   0.347E-03 0.174E-05
CGA:  12    -0.385083527928E+03   -0.27935E-04   -0.27958E-04  9152   0.233E-03 0.813E-06
CGA:  13    -0.385083547275E+03   -0.19347E-04   -0.19344E-04  9152   0.967E-04-0.137E-06
CGA:  14    -0.385083564738E+03   -0.17463E-04   -0.17418E-04  9152   0.711E-04 0.581E-06
CGA:  15    -0.385083571756E+03   -0.70182E-05   -0.70138E-05  9152   0.453E-04-0.448E-06
 134 F= -.38508357E+03 E0= -.38507795E+03  d E =-.132727E-02  mag=    46.0000
       N       E                     dE             d eps       ncg     rms          ort
SDA:   1    -0.384981440533E+03    0.10212E+00    0.00000E+00  9152   0.398E+00 0.000E+00
CGA:   2    -0.385014967616E+03   -0.33527E-01   -0.33521E-01  9152   0.443E+00-0.108E-03
CGA:   3    -0.385052908667E+03   -0.37941E-01   -0.37949E-01  9152   0.122E+00 0.995E-04
CGA:   4    -0.385072577875E+03   -0.19669E-01   -0.19620E-01  9152   0.695E-01 0.735E-03
CGA:   5    -0.385078342606E+03   -0.57647E-02   -0.57474E-02  9152   0.245E-01-0.130E-03
CGA:   6    -0.385080686234E+03   -0.23436E-02   -0.23443E-02  9152   0.153E-01 0.236E-04
CGA:   7    -0.385081693278E+03   -0.10070E-02   -0.10080E-02  9152   0.596E-02-0.591E-05
CGA:   8    -0.385082207204E+03   -0.51393E-03   -0.51348E-03  9152   0.212E-02-0.648E-05
CGA:   9    -0.385082522178E+03   -0.31497E-03   -0.31479E-03  9152   0.106E-02 0.370E-05
CGA:  10    -0.385082608842E+03   -0.86664E-04   -0.86694E-04  9152   0.778E-03 0.155E-05
CGA:  11    -0.385082675677E+03   -0.66835E-04   -0.66843E-04  9152   0.443E-03 0.211E-06
CGA:  12    -0.385082723381E+03   -0.47703E-04   -0.47702E-04  9152   0.134E-03 0.121E-06
CGA:  13    -0.385082742856E+03   -0.19476E-04   -0.19510E-04  9152   0.174E-03-0.816E-06
CGA:  14    -0.385082756386E+03   -0.13530E-04   -0.13534E-04  9152   0.730E-04 0.111E-06
CGA:  15    -0.385082762259E+03   -0.58735E-05   -0.58755E-05  9152   0.433E-04 0.553E-07
 135 F= -.38508276E+03 E0= -.38507713E+03  d E =0.809497E-03  mag=    46.0000
       N       E                     dE             d eps       ncg     rms          ort
SDA:   1    -0.385030397946E+03    0.52358E-01    0.00000E+00  9152   0.165E+00 0.000E+00
CGA:   2    -0.385061912299E+03   -0.31514E-01   -0.31515E-01  9152   0.823E-01-0.848E-05
CGA:   3    -0.385074980524E+03   -0.13068E-01   -0.13064E-01  9152   0.767E-01 0.678E-04
CGA:   4    -0.385079161786E+03   -0.41813E-02   -0.41791E-02  9152   0.263E-01 0.192E-04
CGA:   5    -0.385081796669E+03   -0.26349E-02   -0.26347E-02  9152   0.857E-02-0.179E-05
CGA:   6    -0.385082828194E+03   -0.10315E-02   -0.10318E-02  9152   0.379E-02-0.164E-04
CGA:   7    -0.385083108144E+03   -0.27995E-03   -0.28016E-03  9152   0.196E-02 0.978E-06
CGA:   8    -0.385083290643E+03   -0.18250E-03   -0.18247E-03  9152   0.130E-02-0.198E-05
CGA:   9    -0.385083383610E+03   -0.92967E-04   -0.92839E-04  9152   0.365E-03-0.681E-06
CGA:  10    -0.385083450623E+03   -0.67013E-04   -0.67029E-04  9152   0.219E-03-0.214E-06
CGA:  11    -0.385083465756E+03   -0.15133E-04   -0.15149E-04  9152   0.144E-03 0.454E-06
CGA:  12    -0.385083480319E+03   -0.14564E-04   -0.14564E-04  9152   0.714E-04 0.830E-07
CGA:  13    -0.385083489850E+03   -0.95307E-05   -0.95262E-05  9152   0.375E-04 0.165E-06
 136 F= -.38508349E+03 E0= -.38507786E+03  d E =-.727591E-03  mag=    46.0000
