       N       E                     dE             d eps       ncg     rms          ort
DAV:   1     0.674546296220E+04    0.67455E+04   -0.29887E+05 24420   0.170E+03
DAV:   2     0.942176921093E+02   -0.66512E+04   -0.64578E+04 24420   0.513E+02
DAV:   3    -0.730035940580E+03   -0.82425E+03   -0.80669E+03 24420   0.190E+02
DAV:   4    -0.783733747379E+03   -0.53698E+02   -0.51850E+02 24420   0.490E+01
DAV:   5    -0.788943623726E+03   -0.52099E+01   -0.50285E+01 24420   0.103E+01
SDA:   6    -0.461129118297E+03    0.32781E+03   -0.50285E+01 24420   0.185E+04 0.000E+00
CGA:   7    -0.616285273428E+03   -0.15516E+03   -0.20388E+03 24420   0.169E+03-0.321E+02
CGA:   8    -0.634349398639E+03   -0.18064E+02   -0.21272E+02 24420   0.877E+02 0.505E+01
CGA:   9    -0.642162084806E+03   -0.78127E+01   -0.10407E+02 24420   0.228E+02 0.246E+00
CGA:  10    -0.646377841405E+03   -0.42158E+01   -0.42343E+01 24420   0.422E+01 0.277E+01
CGA:  11    -0.647617468526E+03   -0.12396E+01   -0.12308E+01 24420   0.189E+01 0.574E-01
CGA:  12    -0.648201441433E+03   -0.58397E+00   -0.58827E+00 24420   0.858E+00-0.389E-01
CGA:  13    -0.648463611466E+03   -0.26217E+00   -0.26430E+00 24420   0.289E+00-0.189E-01
CGA:  14    -0.648548940246E+03   -0.85329E-01   -0.87028E-01 24420   0.118E+00-0.156E-01
CGA:  15    -0.648583841251E+03   -0.34901E-01   -0.35777E-01 24420   0.520E-01-0.757E-02
CGA:  16    -0.648601591908E+03   -0.17751E-01   -0.18227E-01 24420   0.252E-01-0.286E-02
CGA:  17    -0.648611029919E+03   -0.94380E-02   -0.97685E-02 24420   0.145E-01-0.167E-02
CGA:  18    -0.648616245919E+03   -0.52160E-02   -0.55932E-02 24420   0.819E-02-0.203E-02
CGA:  19    -0.648618943058E+03   -0.26971E-02   -0.30551E-02 24420   0.448E-02-0.183E-02
CGA:  20    -0.648620226306E+03   -0.12832E-02   -0.15377E-02 24420   0.250E-02-0.132E-02
CGA:  21    -0.648620862456E+03   -0.63615E-03   -0.70094E-03 24420   0.101E-02-0.464E-03
CGA:  22    -0.648621200186E+03   -0.33773E-03   -0.42215E-03 24420   0.740E-03-0.345E-03
CGA:  23    -0.648621315712E+03   -0.11553E-03   -0.11951E-03 24420   0.316E-03 0.117E-03
CGA:  24    -0.648621379808E+03   -0.64096E-04   -0.74539E-04 24420   0.167E-03 0.141E-03
CGA:  25    -0.648621426636E+03   -0.46828E-04   -0.52102E-04 24420   0.880E-04 0.921E-04
CGA:  26    -0.648621465389E+03   -0.38753E-04   -0.35102E-04 24420   0.517E-04 0.285E-04
CGA:  27    -0.648621473696E+03   -0.83070E-05   -0.12985E-04 24420   0.350E-04 0.536E-04
   1 F= -.64862147E+03 E0= -.64862147E+03  d E =-.648621E+03  mag=    36.0000
