       N       E                     dE             d eps       ncg     rms          rms(c)
DAV:   1     0.580776696268E+04    0.58078E+04   -0.21662E+05 28656   0.158E+03
DAV:   2     0.569182655050E+03   -0.52386E+04   -0.49018E+04 28928   0.474E+02
DAV:   3    -0.375079547726E+03   -0.94426E+03   -0.92655E+03 30424   0.205E+02
DAV:   4    -0.417272585502E+03   -0.42193E+02   -0.41194E+02 34856   0.484E+01
DAV:   5    -0.419180607864E+03   -0.19080E+01   -0.18174E+01 40688   0.960E+00    0.865E+01
DAV:   6    -0.313018993459E+03    0.10616E+03   -0.44867E+02 38352   0.720E+01    0.409E+01
DAV:   7    -0.342696322571E+03   -0.29677E+02   -0.35649E+02 39496   0.480E+01    0.417E+01
DAV:   8    -0.341880110721E+03    0.81621E+00   -0.10386E+02 37128   0.260E+01    0.447E+01
DAV:   9    -0.337402826274E+03    0.44773E+01   -0.19844E+02 36560   0.156E+01    0.361E+01
DAV:  10    -0.335405731918E+03    0.19971E+01   -0.39107E+01 37744   0.997E+00    0.323E+01
DAV:  11    -0.337447919614E+03   -0.20422E+01   -0.60858E+01 37176   0.943E+00    0.390E+01
DAV:  12    -0.332614001606E+03    0.48339E+01   -0.76538E+01 37624   0.112E+01    0.295E+01
DAV:  13    -0.332144439965E+03    0.46956E+00   -0.36891E+01 38128   0.851E+00    0.285E+01
DAV:  14    -0.337148875650E+03   -0.50044E+01   -0.63707E+00 39880   0.956E+00    0.318E+01
DAV:  15    -0.342231821331E+03   -0.50829E+01   -0.50170E+01 37336   0.105E+01    0.168E+01
DAV:  16    -0.344915136514E+03   -0.26833E+01   -0.24729E+00 35240   0.514E+00    0.149E+01
DAV:  17    -0.347410717929E+03   -0.24956E+01   -0.17416E+00 34928   0.356E+00    0.178E+01
DAV:  18    -0.347681540091E+03   -0.27082E+00   -0.29926E-01 34136   0.166E+00    0.134E+01
DAV:  19    -0.350456274624E+03   -0.27747E+01   -0.15820E+00 35672   0.312E+00    0.132E+01
DAV:  20    -0.351095635696E+03   -0.63936E+00   -0.11684E+00 35448   0.257E+00    0.106E+01
DAV:  21    -0.351742708527E+03   -0.64707E+00   -0.28423E-01 33576   0.155E+00    0.953E+00
DAV:  22    -0.352194499698E+03   -0.45179E+00   -0.29519E-01 36176   0.146E+00    0.935E+00
DAV:  23    -0.353104477357E+03   -0.90998E+00   -0.78766E-01 35984   0.181E+00    0.111E+01
DAV:  24    -0.353143855743E+03   -0.39378E-01   -0.35434E-01 34608   0.157E+00    0.791E+00
DAV:  25    -0.353217907866E+03   -0.74052E-01   -0.33356E-02 31568   0.591E-01    0.762E+00
DAV:  26    -0.353489406538E+03   -0.27150E+00   -0.19401E-01 35944   0.127E+00    0.586E+00
DAV:  27    -0.353863854249E+03   -0.37445E+00   -0.21648E-01 35232   0.144E+00    0.388E+00
DAV:  28    -0.354201674696E+03   -0.33782E+00   -0.22475E-01 35040   0.114E+00    0.440E+00
DAV:  29    -0.354318997377E+03   -0.11732E+00   -0.24882E-01 37224   0.127E+00    0.401E+00
DAV:  30    -0.354389611859E+03   -0.70614E-01   -0.14983E-01 35736   0.105E+00    0.318E+00
DAV:  31    -0.354493134701E+03   -0.10352E+00   -0.47108E-02 32104   0.683E-01    0.236E+00
DAV:  32    -0.354614038301E+03   -0.12090E+00   -0.72104E-02 34480   0.709E-01    0.256E+00
DAV:  33    -0.354653675083E+03   -0.39637E-01   -0.59285E-02 37304   0.760E-01    0.175E+00
DAV:  34    -0.354675064888E+03   -0.21390E-01   -0.20178E-02 32256   0.349E-01    0.202E+00
DAV:  35    -0.354671591588E+03    0.34733E-02   -0.14735E-03 29568   0.121E-01    0.203E+00
DAV:  36    -0.354685252045E+03   -0.13660E-01   -0.12245E-02 35352   0.326E-01    0.127E+00
DAV:  37    -0.354707138483E+03   -0.21886E-01   -0.27519E-02 34912   0.539E-01    0.905E-01
DAV:  38    -0.354708810694E+03   -0.16722E-02   -0.66221E-03 32328   0.264E-01    0.707E-01
DAV:  39    -0.354709678349E+03   -0.86766E-03   -0.61547E-03 36712   0.189E-01    0.593E-01
DAV:  40    -0.354711150139E+03   -0.14718E-02   -0.24978E-03 37120   0.106E-01    0.861E-01
DAV:  41    -0.354709883653E+03    0.12665E-02   -0.23742E-03 34752   0.131E-01    0.575E-01
DAV:  42    -0.354709855630E+03    0.28023E-04   -0.54332E-04 33904   0.782E-02    0.510E-01
DAV:  43    -0.354709506568E+03    0.34906E-03   -0.54846E-04 38424   0.838E-02    0.398E-01
DAV:  44    -0.354708982404E+03    0.52416E-03   -0.73735E-04 35416   0.927E-02    0.261E-01
DAV:  45    -0.354709440460E+03   -0.45806E-03   -0.36408E-03 38432   0.102E-01    0.577E-01
DAV:  46    -0.354709337260E+03    0.10320E-03   -0.17666E-04 29048   0.496E-02    0.542E-01
DAV:  47    -0.354708971440E+03    0.36582E-03   -0.50973E-04 31272   0.486E-02    0.319E-01
DAV:  48    -0.354708857717E+03    0.11372E-03   -0.10187E-03 37496   0.642E-02    0.100E-01
DAV:  49    -0.354708887604E+03   -0.29887E-04   -0.10674E-04 29216   0.327E-02    0.871E-02
DAV:  50    -0.354708871880E+03    0.15724E-04   -0.63962E-05 26408   0.254E-02    0.811E-02
DAV:  51    -0.354708855432E+03    0.16449E-04   -0.57823E-05 22408   0.220E-02    0.789E-02
DAV:  52    -0.354708845948E+03    0.94832E-05   -0.25396E-05 20816   0.185E-02
   1 F= -.35470885E+03 E0= -.35469246E+03  d E =-.354709E+03  mag=     8.0120
       N       E                     dE             d eps       ncg     rms          rms(c)
DAV:   1    -0.354710138272E+03   -0.12828E-02   -0.62926E-04 30568   0.767E-02    0.440E-02
DAV:   2    -0.354710350255E+03   -0.21198E-03   -0.54452E-04 31160   0.592E-02    0.340E-01
DAV:   3    -0.354710116094E+03    0.23416E-03   -0.43715E-04 25088   0.528E-02    0.535E-02
DAV:   4    -0.354710144903E+03   -0.28809E-04   -0.25479E-05 18576   0.155E-02    0.450E-02
DAV:   5    -0.354710145530E+03   -0.62690E-06   -0.37350E-06 15400   0.671E-03
   2 F= -.35471015E+03 E0= -.35469373E+03  d E =-.129958E-02  mag=     8.0093
       N       E                     dE             d eps       ncg     rms          rms(c)
DAV:   1    -0.354765490346E+03   -0.55345E-01   -0.20559E+00 31904   0.430E+00    0.348E-01
DAV:   2    -0.354780761580E+03   -0.15271E-01   -0.16005E-01 28336   0.811E-01    0.475E-01
DAV:   3    -0.354782190780E+03   -0.14292E-02   -0.13561E-02 40760   0.257E-01    0.939E-01
DAV:   4    -0.354780544180E+03    0.16466E-02   -0.72703E-03 39024   0.175E-01    0.355E-01
DAV:   5    -0.354780565728E+03   -0.21548E-04   -0.99333E-04 38752   0.114E-01    0.298E-01
DAV:   6    -0.354780482778E+03    0.82950E-04   -0.54158E-04 39000   0.883E-02    0.259E-01
DAV:   7    -0.354780431786E+03    0.50992E-04   -0.62681E-04 38320   0.836E-02    0.287E-01
DAV:   8    -0.354780260474E+03    0.17131E-03   -0.73899E-04 38952   0.798E-02    0.180E-01
DAV:   9    -0.354780349646E+03   -0.89172E-04   -0.96240E-04 36192   0.776E-02    0.302E-01
DAV:  10    -0.354780169526E+03    0.18012E-03   -0.56577E-04 34696   0.704E-02    0.125E-01
DAV:  11    -0.354780226202E+03   -0.56677E-04   -0.26240E-04 35920   0.615E-02    0.172E-01
DAV:  12    -0.354780250887E+03   -0.24685E-04   -0.20850E-04 27856   0.489E-02    0.177E-01
DAV:  13    -0.354780229796E+03    0.21091E-04   -0.13020E-04 24856   0.413E-02    0.921E-02
DAV:  14    -0.354780257698E+03   -0.27902E-04   -0.72544E-05 28760   0.274E-02    0.845E-02
DAV:  15    -0.354780260534E+03   -0.28357E-05   -0.37263E-05 23752   0.218E-02
   3 F= -.35478026E+03 E0= -.35476390E+03  d E =-.701150E-01  mag=     8.0024
       N       E                     dE             d eps       ncg     rms          rms(c)
DAV:   1    -0.354836373881E+03   -0.56116E-01   -0.13915E+01 31976   0.108E+01    0.838E-01
DAV:   2    -0.354929513323E+03   -0.93139E-01   -0.94802E-01 28352   0.203E+00    0.165E+00
DAV:   3    -0.354930391493E+03   -0.87817E-03   -0.64473E-02 41136   0.654E-01    0.168E+00
DAV:   4    -0.354927810735E+03    0.25808E-02   -0.35024E-02 39936   0.427E-01    0.128E+00
DAV:   5    -0.354924951819E+03    0.28589E-02   -0.16193E-02 39472   0.277E-01    0.578E-01
DAV:   6    -0.354925521821E+03   -0.57000E-03   -0.46881E-03 38920   0.208E-01    0.796E-01
DAV:   7    -0.354924555125E+03    0.96670E-03   -0.40168E-03 38376   0.221E-01    0.548E-01
DAV:   8    -0.354924110989E+03    0.44414E-03   -0.37928E-03 38352   0.184E-01    0.416E-01
DAV:   9    -0.354924130884E+03   -0.19895E-04   -0.23101E-03 38544   0.128E-01    0.451E-01
DAV:  10    -0.354923819108E+03    0.31178E-03   -0.74447E-04 37960   0.879E-02    0.209E-01
DAV:  11    -0.354923808481E+03    0.10628E-04   -0.13282E-04 32888   0.409E-02    0.188E-01
DAV:  12    -0.354923790776E+03    0.17705E-04   -0.34785E-05 21200   0.200E-02    0.186E-01
DAV:  13    -0.354923773587E+03    0.17189E-04   -0.20501E-05 19832   0.172E-02    0.179E-01
DAV:  14    -0.354923751564E+03    0.22022E-04   -0.20659E-04 35120   0.631E-02    0.183E-01
DAV:  15    -0.354923703718E+03    0.47846E-04   -0.46827E-04 38728   0.907E-02    0.208E-01
DAV:  16    -0.354923773934E+03   -0.70216E-04   -0.41120E-04 33544   0.806E-02    0.259E-01
DAV:  17    -0.354923695662E+03    0.78272E-04   -0.21912E-04 31736   0.562E-02    0.113E-01
DAV:  18    -0.354923740135E+03   -0.44473E-04   -0.91356E-05 28048   0.301E-02    0.914E-02
DAV:  19    -0.354923756889E+03   -0.16754E-04   -0.62200E-05 26704   0.278E-02    0.660E-02
DAV:  20    -0.354923766029E+03   -0.91393E-05   -0.60122E-05 27648   0.262E-02
   4 F= -.35492377E+03 E0= -.35490756E+03  d E =-.143505E+00  mag=     8.0004
       N       E                     dE             d eps       ncg     rms          rms(c)
DAV:   1    -0.354943670193E+03   -0.19913E-01   -0.19872E+01 31216   0.120E+01    0.914E-01
DAV:   2    -0.355049648021E+03   -0.10598E+00   -0.10686E+00 28520   0.223E+00    0.200E+00
DAV:   3    -0.355050648702E+03   -0.10007E-02   -0.10769E-01 41936   0.739E-01    0.201E+00
DAV:   4    -0.355046336815E+03    0.43119E-02   -0.46707E-02 40416   0.464E-01    0.144E+00
DAV:   5    -0.355042478896E+03    0.38579E-02   -0.13659E-02 39016   0.286E-01    0.493E-01
DAV:   6    -0.355043524802E+03   -0.10459E-02   -0.48160E-03 38704   0.217E-01    0.842E-01
DAV:   7    -0.355042010650E+03    0.15142E-02   -0.43401E-03 37816   0.228E-01    0.534E-01
DAV:   8    -0.355041928776E+03    0.81874E-04   -0.34914E-03 38352   0.177E-01    0.548E-01
DAV:   9    -0.355041551686E+03    0.37709E-03   -0.19326E-03 38872   0.131E-01    0.304E-01
DAV:  10    -0.355041489929E+03    0.61757E-04   -0.54903E-04 38392   0.755E-02    0.215E-01
DAV:  11    -0.355041456736E+03    0.33193E-04   -0.18777E-04 31464   0.444E-02    0.187E-01
DAV:  12    -0.355041436181E+03    0.20555E-04   -0.70101E-05 23248   0.296E-02    0.169E-01
DAV:  13    -0.355041416153E+03    0.20027E-04   -0.70396E-05 25840   0.300E-02    0.160E-01
DAV:  14    -0.355041383252E+03    0.32901E-04   -0.18037E-04 35512   0.545E-02    0.174E-01
DAV:  15    -0.355041445975E+03   -0.62723E-04   -0.40051E-04 34736   0.756E-02    0.285E-01
DAV:  16    -0.355041323389E+03    0.12259E-03   -0.38293E-04 32600   0.678E-02    0.123E-01
DAV:  17    -0.355041355642E+03   -0.32253E-04   -0.13832E-04 30216   0.450E-02    0.863E-02
DAV:  18    -0.355041378265E+03   -0.22623E-04   -0.61353E-05 24752   0.244E-02    0.763E-02
DAV:  19    -0.355041386779E+03   -0.85135E-05   -0.30065E-05 23472   0.199E-02
   5 F= -.35504139E+03 E0= -.35502519E+03  d E =-.117621E+00  mag=     8.0001
       N       E                     dE             d eps       ncg     rms          rms(c)
DAV:   1    -0.354987674112E+03    0.53704E-01   -0.42325E+01 30832   0.161E+01    0.122E+00
DAV:   2    -0.355151765981E+03   -0.16409E+00   -0.16678E+00 28376   0.290E+00    0.260E+00
DAV:   3    -0.355153490219E+03   -0.17242E-02   -0.18644E-01 43032   0.972E-01    0.266E+00
DAV:   4    -0.355142922933E+03    0.10567E-01   -0.64482E-02 40008   0.592E-01    0.157E+00
DAV:   5    -0.355139861387E+03    0.30615E-02   -0.20907E-02 40216   0.390E-01    0.976E-01
DAV:   6    -0.355139380516E+03    0.48087E-03   -0.97094E-03 38384   0.300E-01    0.866E-01
DAV:   7    -0.355140840599E+03   -0.14601E-02   -0.14718E-02 38720   0.348E-01    0.138E+00
DAV:   8    -0.355137201053E+03    0.36395E-02   -0.12780E-02 38904   0.305E-01    0.747E-01
DAV:   9    -0.355136947557E+03    0.25350E-03   -0.43201E-03 38768   0.194E-01    0.512E-01
DAV:  10    -0.355136842774E+03    0.10478E-03   -0.16203E-03 38792   0.137E-01    0.363E-01
DAV:  11    -0.355136712768E+03    0.13001E-03   -0.81222E-04 38296   0.100E-01    0.273E-01
DAV:  12    -0.355136685386E+03    0.27383E-04   -0.39928E-04 34264   0.686E-02    0.227E-01
DAV:  13    -0.355136639799E+03    0.45587E-04   -0.24681E-04 34536   0.555E-02    0.183E-01
DAV:  14    -0.355136679826E+03   -0.40027E-04   -0.33705E-04 38664   0.809E-02    0.224E-01
DAV:  15    -0.355136767528E+03   -0.87702E-04   -0.57466E-04 36616   0.882E-02    0.327E-01
DAV:  16    -0.355136615241E+03    0.15229E-03   -0.47493E-04 33600   0.740E-02    0.135E-01
DAV:  17    -0.355136649293E+03   -0.34052E-04   -0.15996E-04 30752   0.440E-02    0.812E-02
DAV:  18    -0.355136678139E+03   -0.28846E-04   -0.69311E-05 24296   0.234E-02    0.803E-02
DAV:  19    -0.355136685484E+03   -0.73449E-05   -0.23699E-05 21704   0.153E-02
   6 F= -.35513669E+03 E0= -.35512044E+03  d E =-.952987E-01  mag=     8.0000
       N       E                     dE             d eps       ncg     rms          rms(c)
DAV:   1    -0.354989269888E+03    0.14741E+00   -0.55181E+01 30936   0.183E+01    0.132E+00
DAV:   2    -0.355192732420E+03   -0.20346E+00   -0.20850E+00 28360   0.325E+00    0.238E+00
DAV:   3    -0.355204056208E+03   -0.11324E-01   -0.25576E-01 42568   0.109E+00    0.321E+00
DAV:   4    -0.355184347035E+03    0.19709E-01   -0.82802E-02 38952   0.670E-01    0.152E+00
DAV:   5    -0.355183018468E+03    0.13286E-02   -0.16973E-02 39560   0.417E-01    0.110E+00
DAV:   6    -0.355181980850E+03    0.10376E-02   -0.91591E-03 39616   0.294E-01    0.846E-01
DAV:   7    -0.355183129763E+03   -0.11489E-02   -0.13961E-02 37792   0.342E-01    0.137E+00
DAV:   8    -0.355179294720E+03    0.38350E-02   -0.10736E-02 38712   0.286E-01    0.604E-01
DAV:   9    -0.355179940837E+03   -0.64612E-03   -0.50247E-03 39224   0.239E-01    0.803E-01
DAV:  10    -0.355179049416E+03    0.89142E-03   -0.32670E-03 39512   0.205E-01    0.445E-01
DAV:  11    -0.355179189017E+03   -0.13960E-03   -0.19201E-03 37872   0.165E-01    0.450E-01
DAV:  12    -0.355179053903E+03    0.13511E-03   -0.14477E-03 38296   0.126E-01    0.297E-01
DAV:  13    -0.355179041905E+03    0.11998E-04   -0.47089E-04 37608   0.805E-02    0.179E-01
DAV:  14    -0.355179107809E+03   -0.65904E-04   -0.27901E-04 38416   0.676E-02    0.199E-01
DAV:  15    -0.355179141134E+03   -0.33325E-04   -0.36242E-04 38488   0.762E-02    0.240E-01
DAV:  16    -0.355179091071E+03    0.50063E-04   -0.29739E-04 31104   0.555E-02    0.155E-01
DAV:  17    -0.355179074384E+03    0.16687E-04   -0.15011E-04 32088   0.480E-02    0.795E-02
DAV:  18    -0.355179095400E+03   -0.21016E-04   -0.77153E-05 25080   0.285E-02    0.743E-02
DAV:  19    -0.355179099210E+03   -0.38103E-05   -0.28149E-05 20912   0.216E-02
   7 F= -.35517910E+03 E0= -.35516270E+03  d E =-.424137E-01  mag=     8.0000
       N       E                     dE             d eps       ncg     rms          rms(c)
DAV:   1    -0.355050719075E+03    0.12838E+00   -0.40161E+01 30704   0.161E+01    0.109E+00
DAV:   2    -0.355193959749E+03   -0.14324E+00   -0.14655E+00 28376   0.282E+00    0.181E+00
DAV:   3    -0.355202937845E+03   -0.89781E-02   -0.15205E-01 41912   0.898E-01    0.271E+00
DAV:   4    -0.355189802837E+03    0.13135E-01   -0.60348E-02 39648   0.553E-01    0.133E+00
DAV:   5    -0.355188694977E+03    0.11079E-02   -0.14589E-02 38888   0.357E-01    0.913E-01
DAV:   6    -0.355187935333E+03    0.75964E-03   -0.50280E-03 39896   0.228E-01    0.645E-01
DAV:   7    -0.355187918091E+03    0.17242E-04   -0.51194E-03 38656   0.241E-01    0.819E-01
DAV:   8    -0.355186688103E+03    0.12300E-02   -0.60290E-03 38776   0.222E-01    0.624E-01
DAV:   9    -0.355186562636E+03    0.12547E-03   -0.33833E-03 39968   0.202E-01    0.667E-01
DAV:  10    -0.355186405142E+03    0.15749E-03   -0.35550E-03 39096   0.196E-01    0.586E-01
DAV:  11    -0.355186296782E+03    0.10836E-03   -0.31149E-03 39424   0.181E-01    0.425E-01
DAV:  12    -0.355186376491E+03   -0.79708E-04   -0.18894E-03 38320   0.123E-01    0.374E-01
DAV:  13    -0.355186320377E+03    0.56114E-04   -0.44199E-04 37880   0.758E-02    0.220E-01
DAV:  14    -0.355186356249E+03   -0.35872E-04   -0.15815E-04 36288   0.521E-02    0.205E-01
DAV:  15    -0.355186400867E+03   -0.44618E-04   -0.32665E-04 36136   0.704E-02    0.205E-01
DAV:  16    -0.355186375520E+03    0.25348E-04   -0.22230E-04 32288   0.499E-02    0.147E-01
DAV:  17    -0.355186350637E+03    0.24883E-04   -0.10808E-04 30160   0.406E-02    0.698E-02
DAV:  18    -0.355186354934E+03   -0.42967E-05   -0.50014E-05 25952   0.294E-02
   8 F= -.35518635E+03 E0= -.35516987E+03  d E =-.725572E-02  mag=     8.0000
       N       E                     dE             d eps       ncg     rms          rms(c)
DAV:   1    -0.355028245683E+03    0.15810E+00   -0.51847E+01 31136   0.186E+01    0.117E+00
DAV:   2    -0.355200473339E+03   -0.17223E+00   -0.18017E+00 28288   0.321E+00    0.144E+00
DAV:   3    -0.355215963612E+03   -0.15490E-01   -0.12353E-01 39984   0.890E-01    0.310E+00
DAV:   4    -0.355196229522E+03    0.19734E-01   -0.56049E-02 39256   0.604E-01    0.106E+00
DAV:   5    -0.355197027930E+03   -0.79841E-03   -0.11074E-02 39872   0.283E-01    0.849E-01
DAV:   6    -0.355196877100E+03    0.15083E-03   -0.99604E-03 39824   0.259E-01    0.852E-01
DAV:   7    -0.355196388883E+03    0.48822E-03   -0.11778E-02 38064   0.281E-01    0.962E-01
DAV:   8    -0.355194710130E+03    0.16788E-02   -0.62371E-03 39104   0.217E-01    0.569E-01
DAV:   9    -0.355194775033E+03   -0.64903E-04   -0.23924E-03 39368   0.188E-01    0.665E-01
DAV:  10    -0.355194099682E+03    0.67535E-03   -0.21500E-03 39304   0.171E-01    0.428E-01
DAV:  11    -0.355194128257E+03   -0.28575E-04   -0.18455E-03 39848   0.169E-01    0.408E-01
DAV:  12    -0.355194474499E+03   -0.34624E-03   -0.17583E-03 39512   0.135E-01    0.516E-01
DAV:  13    -0.355194239964E+03    0.23454E-03   -0.11121E-03 38712   0.117E-01    0.319E-01
DAV:  14    -0.355194425891E+03   -0.18593E-03   -0.12831E-03 39144   0.134E-01    0.287E-01
DAV:  15    -0.355194328381E+03    0.97511E-04   -0.84225E-04 39312   0.114E-01    0.145E-01
DAV:  16    -0.355194529260E+03   -0.20088E-03   -0.41221E-04 36504   0.687E-02    0.295E-01
DAV:  17    -0.355194378033E+03    0.15123E-03   -0.22261E-04 33008   0.552E-02    0.581E-02
DAV:  18    -0.355194407067E+03   -0.29034E-04   -0.42486E-05 22976   0.259E-02    0.593E-02
DAV:  19    -0.355194409512E+03   -0.24453E-05   -0.29191E-05 22856   0.231E-02
   9 F= -.35519441E+03 E0= -.35517815E+03  d E =-.805458E-02  mag=     8.0000
       N       E                     dE             d eps       ncg     rms          rms(c)
DAV:   1    -0.354868363180E+03    0.32604E+00   -0.43171E+01 32040   0.197E+01    0.175E+00
DAV:   2    -0.355233825379E+03   -0.36546E+00   -0.34090E+00 28560   0.423E+00    0.707E+00
DAV:   3    -0.355156630402E+03    0.77195E-01   -0.51405E-01 35552   0.151E+00    0.280E+00
DAV:   4    -0.355155710148E+03    0.92025E-03   -0.75892E-02 38888   0.743E-01    0.194E+00
DAV:   5    -0.355158778627E+03   -0.30685E-02   -0.45879E-02 38288   0.557E-01    0.232E+00
DAV:   6    -0.355152140224E+03    0.66384E-02   -0.20986E-02 39720   0.474E-01    0.159E+00
DAV:   7    -0.355158854440E+03   -0.67142E-02   -0.23005E-02 39712   0.484E-01    0.241E+00
DAV:   8    -0.355151557392E+03    0.72970E-02   -0.51834E-02 37904   0.562E-01    0.178E+00
DAV:   9    -0.355148097605E+03    0.34598E-02   -0.25581E-02 39352   0.512E-01    0.140E+00
DAV:  10    -0.355147346841E+03    0.75076E-03   -0.16283E-02 38776   0.358E-01    0.133E+00
DAV:  11    -0.355144825159E+03    0.25217E-02   -0.94164E-03 39088   0.329E-01    0.547E-01
DAV:  12    -0.355145476813E+03   -0.65165E-03   -0.33429E-03 38480   0.239E-01    0.535E-01
DAV:  13    -0.355146295945E+03   -0.81913E-03   -0.28289E-03 38072   0.229E-01    0.798E-01
DAV:  14    -0.355145662235E+03    0.63371E-03   -0.18561E-03 36696   0.181E-01    0.463E-01
DAV:  15    -0.355145680589E+03   -0.18354E-04   -0.21056E-03 39560   0.160E-01    0.258E-01
DAV:  16    -0.355145795025E+03   -0.11444E-03   -0.33891E-04 33272   0.599E-02    0.240E-01
DAV:  17    -0.355145760713E+03    0.34312E-04   -0.79542E-05 25992   0.336E-02    0.204E-01
DAV:  18    -0.355145750339E+03    0.10374E-04   -0.10831E-05 18440   0.111E-02    0.206E-01
DAV:  19    -0.355145712572E+03    0.37767E-04   -0.27693E-05 20696   0.194E-02    0.205E-01
DAV:  20    -0.355145624542E+03    0.88030E-04   -0.19460E-04 33848   0.399E-02    0.221E-01
DAV:  21    -0.355145607630E+03    0.16912E-04   -0.21874E-04 33472   0.428E-02    0.271E-01
DAV:  22    -0.355145586874E+03    0.20756E-04   -0.93265E-05 27848   0.318E-02    0.300E-01
DAV:  23    -0.355145528155E+03    0.58719E-04   -0.65724E-05 26912   0.243E-02    0.337E-01
DAV:  24    -0.355145530362E+03   -0.22071E-05   -0.16488E-05 20864   0.987E-03
  10 F= -.35514553E+03 E0= -.35512923E+03  d E =0.488792E-01  mag=     8.0000
       N       E                     dE             d eps       ncg     rms          rms(c)
DAV:   1    -0.355175008547E+03   -0.29480E-01   -0.35132E+00 32208   0.587E+00    0.692E-01
DAV:   2    -0.355215942631E+03   -0.40934E-01   -0.39734E-01 28432   0.136E+00    0.200E+00
DAV:   3    -0.355208986274E+03    0.69564E-02   -0.25818E-02 36120   0.536E-01    0.816E-01
DAV:   4    -0.355209444177E+03   -0.45790E-03   -0.55410E-03 37840   0.205E-01    0.765E-01
DAV:   5    -0.355209289494E+03    0.15468E-03   -0.37085E-03 37280   0.153E-01    0.779E-01
DAV:   6    -0.355208928319E+03    0.36118E-03   -0.17227E-03 39368   0.121E-01    0.691E-01
DAV:   7    -0.355208911782E+03    0.16537E-04   -0.21303E-03 37072   0.118E-01    0.767E-01
DAV:   8    -0.355208382716E+03    0.52907E-03   -0.40297E-03 38456   0.137E-01    0.703E-01
DAV:   9    -0.355208765618E+03   -0.38290E-03   -0.60837E-03 39736   0.213E-01    0.956E-01
DAV:  10    -0.355207714873E+03    0.10507E-02   -0.70172E-03 38864   0.277E-01    0.817E-01
DAV:  11    -0.355207413091E+03    0.30178E-03   -0.34263E-03 39408   0.261E-01    0.740E-01
DAV:  12    -0.355207121925E+03    0.29117E-03   -0.31651E-03 37960   0.193E-01    0.606E-01
DAV:  13    -0.355206824865E+03    0.29706E-03   -0.11884E-03 37552   0.135E-01    0.413E-01
DAV:  14    -0.355207137296E+03   -0.31243E-03   -0.67175E-04 38040   0.961E-02    0.486E-01
DAV:  15    -0.355207293457E+03   -0.15616E-03   -0.11532E-03 36680   0.127E-01    0.294E-01
DAV:  16    -0.355207322783E+03   -0.29326E-04   -0.71675E-04 38304   0.993E-02    0.165E-01
DAV:  17    -0.355207392118E+03   -0.69335E-04   -0.60317E-04 36120   0.784E-02    0.985E-02
DAV:  18    -0.355207453716E+03   -0.61598E-04   -0.17557E-04 32384   0.384E-02    0.796E-02
DAV:  19    -0.355207468347E+03   -0.14631E-04   -0.32725E-05 23544   0.219E-02    0.738E-02
DAV:  20    -0.355207469528E+03   -0.11812E-05   -0.12170E-05 17744   0.138E-02
  11 F= -.35520747E+03 E0= -.35519119E+03  d E =-.619392E-01  mag=     8.0000
       N       E                     dE             d eps       ncg     rms          rms(c)
DAV:   1    -0.355215255784E+03   -0.77874E-02   -0.99986E-01 31880   0.311E+00    0.323E-01
DAV:   2    -0.355225138597E+03   -0.98828E-02   -0.10751E-01 28432   0.675E-01    0.734E-01
DAV:   3    -0.355224766389E+03    0.37221E-03   -0.92217E-03 36152   0.239E-01    0.535E-01
DAV:   4    -0.355224507334E+03    0.25905E-03   -0.37851E-03 37968   0.128E-01    0.374E-01
DAV:   5    -0.355224401202E+03    0.10613E-03   -0.11056E-03 37512   0.986E-02    0.314E-01
DAV:   6    -0.355224484683E+03   -0.83481E-04   -0.12568E-03 37504   0.962E-02    0.388E-01
DAV:   7    -0.355224700002E+03   -0.21532E-03   -0.21379E-03 38416   0.134E-01    0.580E-01
DAV:   8    -0.355224074409E+03    0.62559E-03   -0.13776E-03 38104   0.121E-01    0.253E-01
DAV:   9    -0.355224091926E+03   -0.17518E-04   -0.57168E-04 39048   0.964E-02    0.232E-01
DAV:  10    -0.355224079954E+03    0.11972E-04   -0.49824E-04 35984   0.777E-02    0.201E-01
DAV:  11    -0.355224020480E+03    0.59474E-04   -0.28776E-04 33408   0.646E-02    0.884E-02
DAV:  12    -0.355224056766E+03   -0.36286E-04   -0.87874E-05 26848   0.352E-02    0.941E-02
DAV:  13    -0.355224057752E+03   -0.98559E-06   -0.38023E-05 22352   0.285E-02
  12 F= -.35522406E+03 E0= -.35520785E+03  d E =-.165882E-01  mag=     8.0000
       N       E                     dE             d eps       ncg     rms          rms(c)
DAV:   1    -0.355224718961E+03   -0.66219E-03   -0.81199E-01 31680   0.277E+00    0.264E-01
DAV:   2    -0.355231462410E+03   -0.67434E-02   -0.72596E-02 28464   0.573E-01    0.553E-01
DAV:   3    -0.355231217619E+03    0.24479E-03   -0.40478E-03 36056   0.178E-01    0.376E-01
DAV:   4    -0.355231150276E+03    0.67343E-04   -0.15541E-03 38184   0.980E-02    0.315E-01
DAV:   5    -0.355231136512E+03    0.13764E-04   -0.10428E-03 36408   0.857E-02    0.338E-01
DAV:   6    -0.355231054994E+03    0.81518E-04   -0.87462E-04 35656   0.793E-02    0.293E-01
DAV:   7    -0.355231233690E+03   -0.17870E-03   -0.16512E-03 38352   0.102E-01    0.468E-01
DAV:   8    -0.355230826725E+03    0.40696E-03   -0.15162E-03 37680   0.108E-01    0.252E-01
DAV:   9    -0.355230788848E+03    0.37877E-04   -0.55219E-04 39496   0.904E-02    0.206E-01
DAV:  10    -0.355230826990E+03   -0.38142E-04   -0.44201E-04 37192   0.716E-02    0.218E-01
DAV:  11    -0.355230795562E+03    0.31429E-04   -0.23353E-04 35192   0.562E-02    0.115E-01
DAV:  12    -0.355230823439E+03   -0.27877E-04   -0.11790E-04 24768   0.338E-02    0.118E-01
DAV:  13    -0.355230818774E+03    0.46649E-05   -0.30063E-05 20688   0.217E-02
  13 F= -.35523082E+03 E0= -.35521461E+03  d E =-.676102E-02  mag=     8.0000
       N       E                     dE             d eps       ncg     rms          rms(c)
DAV:   1    -0.355231529663E+03   -0.70622E-03   -0.52356E-01 30832   0.204E+00    0.179E-01
DAV:   2    -0.355234131013E+03   -0.26013E-02   -0.26244E-02 28384   0.385E-01    0.359E-01
DAV:   3    -0.355234070523E+03    0.60490E-04   -0.17696E-03 37152   0.119E-01    0.307E-01
DAV:   4    -0.355233964719E+03    0.10580E-03   -0.34162E-04 35864   0.497E-02    0.209E-01
DAV:   5    -0.355233956531E+03    0.81878E-05   -0.84583E-05 24192   0.251E-02
  14 F= -.35523396E+03 E0= -.35521781E+03  d E =-.313776E-02  mag=     8.0000
       N       E                     dE             d eps       ncg     rms          rms(c)
DAV:   1    -0.355220416837E+03    0.13548E-01   -0.76738E+00 31168   0.709E+00    0.530E-01
DAV:   2    -0.355245523726E+03   -0.25107E-01   -0.25615E-01 28336   0.122E+00    0.104E+00
DAV:   3    -0.355245189585E+03    0.33414E-03   -0.21534E-02 40408   0.347E-01    0.972E-01
DAV:   4    -0.355243872244E+03    0.13173E-02   -0.99308E-03 39872   0.214E-01    0.615E-01
DAV:   5    -0.355243653812E+03    0.21843E-03   -0.43323E-03 40072   0.172E-01    0.559E-01
DAV:   6    -0.355243311775E+03    0.34204E-03   -0.22509E-03 39592   0.152E-01    0.477E-01
DAV:   7    -0.355243476210E+03   -0.16444E-03   -0.26365E-03 38408   0.190E-01    0.695E-01
DAV:   8    -0.355242566641E+03    0.90957E-03   -0.33900E-03 39016   0.195E-01    0.371E-01
DAV:   9    -0.355242929625E+03   -0.36298E-03   -0.25681E-03 38424   0.141E-01    0.417E-01
DAV:  10    -0.355242807123E+03    0.12250E-03   -0.12950E-03 37872   0.998E-02    0.200E-01
DAV:  11    -0.355242876954E+03   -0.69831E-04   -0.23304E-04 35496   0.550E-02    0.189E-01
DAV:  12    -0.355242879066E+03   -0.21121E-05   -0.52026E-05 25176   0.275E-02
  15 F= -.35524288E+03 E0= -.35522694E+03  d E =-.892253E-02  mag=     8.0000
       N       E                     dE             d eps       ncg     rms          rms(c)
DAV:   1    -0.355079332278E+03    0.16354E+00   -0.58331E+01 29984   0.195E+01    0.139E+00
DAV:   2    -0.355311474702E+03   -0.23214E+00   -0.22262E+00 28408   0.353E+00    0.446E+00
DAV:   3    -0.355281408525E+03    0.30066E-01   -0.35423E-01 36952   0.120E+00    0.205E+00
DAV:   4    -0.355287314707E+03   -0.59062E-02   -0.95110E-02 40624   0.674E-01    0.249E+00
DAV:   5    -0.355274601427E+03    0.12713E-01   -0.35668E-02 38464   0.543E-01    0.971E-01
DAV:   6    -0.355275276584E+03   -0.67516E-03   -0.81934E-03 38696   0.309E-01    0.905E-01
DAV:   7    -0.355275769323E+03   -0.49274E-03   -0.14942E-02 39200   0.343E-01    0.105E+00
DAV:   8    -0.355273877249E+03    0.18921E-02   -0.10597E-02 39408   0.296E-01    0.873E-01
DAV:   9    -0.355273731294E+03    0.14595E-03   -0.48655E-03 38664   0.208E-01    0.858E-01
DAV:  10    -0.355272681344E+03    0.10500E-02   -0.17091E-03 38648   0.163E-01    0.422E-01
DAV:  11    -0.355272863523E+03   -0.18218E-03   -0.12476E-03 39144   0.123E-01    0.394E-01
DAV:  12    -0.355272933570E+03   -0.70048E-04   -0.94502E-04 37040   0.104E-01    0.361E-01
DAV:  13    -0.355272977833E+03   -0.44262E-04   -0.64026E-04 37856   0.929E-02    0.312E-01
DAV:  14    -0.355273068650E+03   -0.90817E-04   -0.29428E-04 38208   0.705E-02    0.354E-01
DAV:  15    -0.355272986637E+03    0.82013E-04   -0.24241E-04 37560   0.686E-02    0.326E-01
DAV:  16    -0.355272981422E+03    0.52153E-05   -0.23212E-04 33600   0.625E-02    0.335E-01
DAV:  17    -0.355272723638E+03    0.25778E-03   -0.44699E-04 37104   0.855E-02    0.107E-01
DAV:  18    -0.355272855771E+03   -0.13213E-03   -0.27499E-04 33416   0.487E-02    0.900E-02
DAV:  19    -0.355272882882E+03   -0.27111E-04   -0.10702E-04 32696   0.415E-02    0.708E-02
DAV:  20    -0.355272886076E+03   -0.31935E-05   -0.49174E-05 27560   0.275E-02
  16 F= -.35527289E+03 E0= -.35525685E+03  d E =-.300070E-01  mag=     8.0000
       N       E                     dE             d eps       ncg     rms          rms(c)
DAV:   1    -0.355058519959E+03    0.21436E+00   -0.21542E+01 32040   0.161E+01    0.146E+00
DAV:   2    -0.355244612664E+03   -0.18609E+00   -0.19874E+00 28288   0.335E+00    0.325E+00
DAV:   3    -0.355236115938E+03    0.84967E-02   -0.12013E-01 35752   0.989E-01    0.197E+00
DAV:   4    -0.355235115151E+03    0.10008E-02   -0.34647E-02 38864   0.523E-01    0.168E+00
DAV:   5    -0.355232936221E+03    0.21789E-02   -0.17992E-02 39144   0.385E-01    0.151E+00
DAV:   6    -0.355233191679E+03   -0.25546E-03   -0.24063E-02 39864   0.393E-01    0.166E+00
DAV:   7    -0.355236924962E+03   -0.37333E-02   -0.72828E-02 37752   0.558E-01    0.237E+00
DAV:   8    -0.355223841678E+03    0.13083E-01   -0.45031E-02 39456   0.566E-01    0.115E+00
DAV:   9    -0.355227112229E+03   -0.32706E-02   -0.17510E-02 39368   0.495E-01    0.163E+00
DAV:  10    -0.355223745710E+03    0.33665E-02   -0.17390E-02 38984   0.428E-01    0.769E-01
DAV:  11    -0.355225271783E+03   -0.15261E-02   -0.48709E-03 39360   0.252E-01    0.601E-01
DAV:  12    -0.355225831921E+03   -0.56014E-03   -0.94969E-04 35992   0.111E-01    0.600E-01
DAV:  13    -0.355225847121E+03   -0.15200E-04   -0.48462E-04 37920   0.834E-02    0.631E-01
DAV:  14    -0.355225916174E+03   -0.69053E-04   -0.38280E-04 39680   0.816E-02    0.543E-01
DAV:  15    -0.355226102931E+03   -0.18676E-03   -0.11427E-03 37192   0.144E-01    0.400E-01
DAV:  16    -0.355226259486E+03   -0.15655E-03   -0.11790E-03 38992   0.126E-01    0.461E-01
DAV:  17    -0.355225873692E+03    0.38579E-03   -0.88141E-04 39120   0.135E-01    0.127E-01
DAV:  18    -0.355225932144E+03   -0.58451E-04   -0.40251E-04 37776   0.701E-02    0.114E-01
DAV:  19    -0.355225918864E+03    0.13280E-04   -0.15612E-04 34416   0.554E-02    0.963E-02
DAV:  20    -0.355225904591E+03    0.14273E-04   -0.58776E-05 28616   0.276E-02    0.633E-02
DAV:  21    -0.355225903438E+03    0.11535E-05   -0.25951E-05 22128   0.185E-02
  17 F= -.35522590E+03 E0= -.35520995E+03  d E =0.469826E-01  mag=     8.0000
       N       E                     dE             d eps       ncg     rms          rms(c)
DAV:   1    -0.355247915946E+03   -0.22011E-01   -0.36227E+00 32776   0.655E+00    0.657E-01
DAV:   2    -0.355284284913E+03   -0.36369E-01   -0.39721E-01 28496   0.144E+00    0.172E+00
DAV:   3    -0.355280753446E+03    0.35315E-02   -0.35885E-02 35112   0.477E-01    0.991E-01
DAV:   4    -0.355280300431E+03    0.45301E-03   -0.72453E-03 39528   0.198E-01    0.813E-01
DAV:   5    -0.355280454606E+03   -0.15417E-03   -0.32564E-03 37760   0.166E-01    0.856E-01
DAV:   6    -0.355280221637E+03    0.23297E-03   -0.45655E-03 38792   0.206E-01    0.806E-01
DAV:   7    -0.355283333171E+03   -0.31115E-02   -0.12763E-02 37688   0.345E-01    0.158E+00
DAV:   8    -0.355278429268E+03    0.49039E-02   -0.98346E-03 37896   0.326E-01    0.523E-01
DAV:   9    -0.355279198023E+03   -0.76875E-03   -0.33481E-03 37872   0.216E-01    0.631E-01
DAV:  10    -0.355278570282E+03    0.62774E-03   -0.15292E-03 37384   0.141E-01    0.214E-01
DAV:  11    -0.355278610626E+03   -0.40344E-04   -0.36436E-04 37200   0.754E-02    0.134E-01
DAV:  12    -0.355278633028E+03   -0.22402E-04   -0.64933E-05 29312   0.264E-02    0.132E-01
DAV:  13    -0.355278630928E+03    0.21000E-05   -0.71565E-06 17224   0.914E-03
  18 F= -.35527863E+03 E0= -.35526262E+03  d E =-.527275E-01  mag=     8.0000
       N       E                     dE             d eps       ncg     rms          rms(c)
DAV:   1    -0.355275548032E+03    0.30850E-02   -0.14645E+00 32672   0.424E+00    0.413E-01
DAV:   2    -0.355291930129E+03   -0.16382E-01   -0.16464E-01 28512   0.938E-01    0.134E+00
DAV:   3    -0.355289027948E+03    0.29022E-02   -0.18600E-02 34800   0.347E-01    0.554E-01
DAV:   4    -0.355289238082E+03   -0.21013E-03   -0.31847E-03 38160   0.137E-01    0.512E-01
DAV:   5    -0.355289212439E+03    0.25643E-04   -0.22511E-03 36368   0.119E-01    0.511E-01
DAV:   6    -0.355289027497E+03    0.18494E-03   -0.13628E-03 38936   0.123E-01    0.442E-01
DAV:   7    -0.355289918269E+03   -0.89077E-03   -0.30201E-03 39184   0.187E-01    0.837E-01
DAV:   8    -0.355288698921E+03    0.12193E-02   -0.28706E-03 37792   0.189E-01    0.426E-01
DAV:   9    -0.355288748573E+03   -0.49652E-04   -0.18738E-03 38544   0.127E-01    0.381E-01
DAV:  10    -0.355288558272E+03    0.19030E-03   -0.64240E-04 39216   0.873E-02    0.173E-01
DAV:  11    -0.355288563332E+03   -0.50606E-05   -0.11980E-04 29904   0.422E-02    0.122E-01
DAV:  12    -0.355288556746E+03    0.65867E-05   -0.15408E-05 19672   0.131E-02
  19 F= -.35528856E+03 E0= -.35527246E+03  d E =-.992582E-02  mag=     8.0000
       N       E                     dE             d eps       ncg     rms          rms(c)
DAV:   1    -0.355288202097E+03    0.36123E-03   -0.19246E-01 32112   0.140E+00    0.185E-01
DAV:   2    -0.355290079294E+03   -0.18772E-02   -0.16999E-02 28672   0.301E-01    0.440E-01
DAV:   3    -0.355289804937E+03    0.27436E-03   -0.16898E-03 36856   0.120E-01    0.265E-01
DAV:   4    -0.355289765965E+03    0.38972E-04   -0.12197E-04 31008   0.387E-02    0.218E-01
DAV:   5    -0.355289759435E+03    0.65302E-05   -0.12035E-05 20336   0.106E-02
  20 F= -.35528976E+03 E0= -.35527372E+03  d E =-.120269E-02  mag=     8.0000
       N       E                     dE             d eps       ncg     rms          rms(c)
DAV:   1    -0.355289521541E+03    0.24442E-03   -0.24215E-01 31432   0.150E+00    0.306E-01
DAV:   2    -0.355294571967E+03   -0.50504E-02   -0.26975E-02 30224   0.415E-01    0.138E+00
DAV:   3    -0.355290476772E+03    0.40952E-02   -0.11111E-02 34888   0.272E-01    0.382E-01
DAV:   4    -0.355290692015E+03   -0.21524E-03   -0.82957E-04 37408   0.949E-02    0.270E-01
DAV:   5    -0.355290666748E+03    0.25267E-04   -0.85706E-04 31976   0.659E-02    0.303E-01
DAV:   6    -0.355290397256E+03    0.26949E-03   -0.79961E-04 36304   0.812E-02    0.207E-01
DAV:   7    -0.355290929511E+03   -0.53226E-03   -0.13530E-03 39024   0.130E-01    0.561E-01
DAV:   8    -0.355290517489E+03    0.41202E-03   -0.10260E-03 37688   0.122E-01    0.221E-01
DAV:   9    -0.355290645445E+03   -0.12796E-03   -0.33286E-04 31536   0.622E-02    0.202E-01
DAV:  10    -0.355290640565E+03    0.48801E-05   -0.12967E-04 29280   0.420E-02    0.136E-01
DAV:  11    -0.355290655404E+03   -0.14838E-04   -0.56145E-05 26584   0.276E-02    0.127E-01
DAV:  12    -0.355290659191E+03   -0.37877E-05   -0.28088E-05 22552   0.200E-02
  21 F= -.35529066E+03 E0= -.35527449E+03  d E =-.899756E-03  mag=     8.0000
       N       E                     dE             d eps       ncg     rms          rms(c)
DAV:   1    -0.355289186362E+03    0.14690E-02   -0.96691E-01 31344   0.260E+00    0.197E-01
DAV:   2    -0.355293060833E+03   -0.38745E-02   -0.36885E-02 28408   0.464E-01    0.600E-01
DAV:   3    -0.355292482841E+03    0.57799E-03   -0.56307E-03 39208   0.164E-01    0.322E-01
DAV:   4    -0.355292485976E+03   -0.31358E-05   -0.97406E-04 38792   0.865E-02    0.282E-01
DAV:   5    -0.355292357737E+03    0.12824E-03   -0.48481E-04 33776   0.661E-02    0.171E-01
DAV:   6    -0.355292328154E+03    0.29583E-04   -0.17897E-04 27328   0.466E-02    0.126E-01
DAV:   7    -0.355292376092E+03   -0.47937E-04   -0.25860E-04 35832   0.573E-02    0.225E-01
DAV:   8    -0.355292289459E+03    0.86633E-04   -0.35922E-04 37920   0.599E-02    0.140E-01
DAV:   9    -0.355292287446E+03    0.20127E-05   -0.19445E-04 28256   0.423E-02    0.103E-01
DAV:  10    -0.355292291905E+03   -0.44590E-05   -0.84277E-05 22656   0.312E-02
  22 F= -.35529229E+03 E0= -.35527613E+03  d E =-.163271E-02  mag=     8.0000
       N       E                     dE             d eps       ncg     rms          rms(c)
DAV:   1    -0.355292052695E+03    0.23475E-03   -0.61822E-01 30592   0.204E+00    0.142E-01
DAV:   2    -0.355294228592E+03   -0.21759E-02   -0.21242E-02 28352   0.360E-01    0.338E-01
DAV:   3    -0.355294101982E+03    0.12661E-03   -0.14976E-03 39704   0.120E-01    0.234E-01
DAV:   4    -0.355294066221E+03    0.35761E-04   -0.46693E-04 34448   0.603E-02    0.210E-01
DAV:   5    -0.355293985829E+03    0.80392E-04   -0.25260E-04 26968   0.427E-02    0.909E-02
DAV:   6    -0.355293997317E+03   -0.11487E-04   -0.12992E-04 22760   0.301E-02    0.107E-01
DAV:   7    -0.355293998168E+03   -0.85149E-06   -0.23043E-04 27024   0.390E-02    0.135E-01
DAV:   8    -0.355293961773E+03    0.36395E-04   -0.12896E-04 29984   0.381E-02    0.764E-02
DAV:   9    -0.355293974996E+03   -0.13223E-04   -0.72149E-05 23512   0.320E-02    0.935E-02
DAV:  10    -0.355293974929E+03    0.67143E-07   -0.39973E-05 21992   0.246E-02
  23 F= -.35529397E+03 E0= -.35527780E+03  d E =-.168302E-02  mag=     8.0000
       N       E                     dE             d eps       ncg     rms          rms(c)
DAV:   1    -0.355143371318E+03    0.15060E+00   -0.47476E+01 30672   0.182E+01    0.118E+00
DAV:   2    -0.355316417475E+03   -0.17305E+00   -0.17597E+00 28296   0.318E+00    0.235E+00
DAV:   3    -0.355320766058E+03   -0.43486E-02   -0.18852E-01 40288   0.933E-01    0.266E+00
DAV:   4    -0.355311202363E+03    0.95637E-02   -0.72488E-02 39296   0.573E-01    0.185E+00
DAV:   5    -0.355305740961E+03    0.54614E-02   -0.17856E-02 39488   0.387E-01    0.667E-01
DAV:   6    -0.355307165917E+03   -0.14250E-02   -0.81726E-03 39864   0.279E-01    0.951E-01
DAV:   7    -0.355305622713E+03    0.15432E-02   -0.69508E-03 39016   0.296E-01    0.739E-01
DAV:   8    -0.355305117446E+03    0.50527E-03   -0.42968E-03 40080   0.229E-01    0.642E-01
DAV:   9    -0.355305112730E+03    0.47159E-05   -0.32387E-03 38832   0.172E-01    0.596E-01
DAV:  10    -0.355304545683E+03    0.56705E-03   -0.16278E-03 38680   0.126E-01    0.210E-01
DAV:  11    -0.355304730623E+03   -0.18494E-03   -0.54663E-04 37072   0.813E-02    0.252E-01
DAV:  12    -0.355304709147E+03    0.21476E-04   -0.28059E-04 30512   0.567E-02    0.179E-01
DAV:  13    -0.355304735269E+03   -0.26123E-04   -0.98444E-05 26256   0.428E-02    0.172E-01
DAV:  14    -0.355304753650E+03   -0.18381E-04   -0.14005E-04 35136   0.464E-02    0.183E-01
DAV:  15    -0.355304713476E+03    0.40174E-04   -0.14308E-04 33408   0.511E-02    0.151E-01
DAV:  16    -0.355304738389E+03   -0.24913E-04   -0.15991E-04 28120   0.451E-02    0.193E-01
DAV:  17    -0.355304668148E+03    0.70240E-04   -0.10673E-04 26584   0.449E-02    0.534E-02
DAV:  18    -0.355304696009E+03   -0.27861E-04   -0.44798E-05 23272   0.232E-02    0.514E-02
DAV:  19    -0.355304699545E+03   -0.35355E-05   -0.19197E-05 20576   0.198E-02
  24 F= -.35530470E+03 E0= -.35528841E+03  d E =-.107246E-01  mag=     8.0000
       N       E                     dE             d eps       ncg     rms          rms(c)
DAV:   1    -0.354840160313E+03    0.46454E+00   -0.44061E+01 32568   0.214E+01    0.209E+00
DAV:   2    -0.355181283360E+03   -0.34112E+00   -0.37325E+00 28448   0.461E+00    0.405E+00
DAV:   3    -0.355163723788E+03    0.17560E-01   -0.16080E-01 35696   0.120E+00    0.260E+00
DAV:   4    -0.355166781388E+03   -0.30576E-02   -0.58489E-02 37712   0.663E-01    0.294E+00
DAV:   5    -0.355159434497E+03    0.73469E-02   -0.43030E-02 38296   0.638E-01    0.246E+00
DAV:   6    -0.355164777502E+03   -0.53430E-02   -0.62409E-02 39088   0.634E-01    0.295E+00
DAV:   7    -0.355175496084E+03   -0.10719E-01   -0.21354E-01 39128   0.913E-01    0.388E+00
DAV:   8    -0.355153364505E+03    0.22132E-01   -0.20467E-01 37056   0.900E-01    0.257E+00
DAV:   9    -0.355147413703E+03    0.59508E-02   -0.37391E-02 38592   0.731E-01    0.179E+00
DAV:  10    -0.355145236613E+03    0.21771E-02   -0.16495E-02 37432   0.487E-01    0.120E+00
DAV:  11    -0.355144645354E+03    0.59126E-03   -0.97720E-03 39888   0.384E-01    0.643E-01
DAV:  12    -0.355145375156E+03   -0.72980E-03   -0.27532E-03 37840   0.183E-01    0.572E-01
DAV:  13    -0.355145572199E+03   -0.19704E-03   -0.10776E-03 37216   0.121E-01    0.572E-01
DAV:  14    -0.355145707442E+03   -0.13524E-03   -0.64635E-04 38120   0.101E-01    0.516E-01
DAV:  15    -0.355146148181E+03   -0.44074E-03   -0.13474E-03 39784   0.145E-01    0.498E-01
DAV:  16    -0.355146080101E+03    0.68080E-04   -0.63499E-04 36320   0.817E-02    0.447E-01
DAV:  17    -0.355145992511E+03    0.87590E-04   -0.14949E-04 33096   0.487E-02    0.400E-01
DAV:  18    -0.355145822361E+03    0.17015E-03   -0.31234E-04 36496   0.756E-02    0.329E-01
DAV:  19    -0.355145558156E+03    0.26421E-03   -0.83566E-04 38264   0.135E-01    0.192E-01
DAV:  20    -0.355145611161E+03   -0.53005E-04   -0.41028E-04 34408   0.631E-02    0.166E-01
DAV:  21    -0.355145566623E+03    0.44538E-04   -0.14171E-04 33392   0.488E-02    0.122E-01
DAV:  22    -0.355145528401E+03    0.38222E-04   -0.18780E-04 38472   0.509E-02    0.645E-02
DAV:  23    -0.355145533876E+03   -0.54755E-05   -0.82301E-05 32984   0.282E-02
  25 F= -.35514553E+03 E0= -.35512984E+03  d E =0.159166E+00  mag=     8.0000
       N       E                     dE             d eps       ncg     rms          rms(c)
DAV:   1    -0.355210931677E+03   -0.65403E-01   -0.80883E+00 32808   0.948E+00    0.105E+00
DAV:   2    -0.355291358432E+03   -0.80427E-01   -0.86879E-01 28424   0.212E+00    0.226E+00
DAV:   3    -0.355284360241E+03    0.69982E-02   -0.37047E-02 36696   0.604E-01    0.129E+00
DAV:   4    -0.355286390059E+03   -0.20298E-02   -0.12591E-02 37856   0.305E-01    0.161E+00
DAV:   5    -0.355283388916E+03    0.30011E-02   -0.87476E-03 37432   0.272E-01    0.115E+00
DAV:   6    -0.355289163791E+03   -0.57749E-02   -0.28037E-02 38304   0.371E-01    0.210E+00
DAV:   7    -0.355287736666E+03    0.14271E-02   -0.73445E-02 38288   0.531E-01    0.200E+00
DAV:   8    -0.355282353840E+03    0.53828E-02   -0.36644E-02 37648   0.476E-01    0.122E+00
DAV:   9    -0.355281152751E+03    0.12011E-02   -0.85371E-03 37832   0.341E-01    0.720E-01
DAV:  10    -0.355281071050E+03    0.81702E-04   -0.46122E-03 37648   0.215E-01    0.544E-01
DAV:  11    -0.355280681310E+03    0.38974E-03   -0.16002E-03 37960   0.155E-01    0.266E-01
DAV:  12    -0.355280743445E+03   -0.62135E-04   -0.24959E-04 35096   0.541E-02    0.258E-01
DAV:  13    -0.355280744103E+03   -0.65762E-06   -0.69694E-05 24024   0.306E-02
  26 F= -.35528074E+03 E0= -.35526455E+03  d E =-.135210E+00  mag=     8.0000
       N       E                     dE             d eps       ncg     rms          rms(c)
DAV:   1    -0.355295801756E+03   -0.15058E-01   -0.11441E+00 32992   0.353E+00    0.426E-01
DAV:   2    -0.355310578662E+03   -0.14777E-01   -0.12840E-01 28824   0.840E-01    0.171E+00
DAV:   3    -0.355305409228E+03    0.51694E-02   -0.19246E-02 34416   0.362E-01    0.563E-01
DAV:   4    -0.355305700785E+03   -0.29156E-03   -0.27867E-03 37192   0.140E-01    0.443E-01
DAV:   5    -0.355305768814E+03   -0.68030E-04   -0.18002E-03 35568   0.101E-01    0.463E-01
DAV:   6    -0.355305646517E+03    0.12230E-03   -0.18932E-03 38128   0.114E-01    0.425E-01
DAV:   7    -0.355306149305E+03   -0.50279E-03   -0.23226E-03 39112   0.168E-01    0.686E-01
DAV:   8    -0.355305463801E+03    0.68550E-03   -0.23447E-03 37616   0.182E-01    0.438E-01
DAV:   9    -0.355305441922E+03    0.21879E-04   -0.12175E-03 38960   0.129E-01    0.367E-01
DAV:  10    -0.355305324052E+03    0.11787E-03   -0.69057E-04 36408   0.820E-02    0.239E-01
DAV:  11    -0.355305297992E+03    0.26061E-04   -0.15413E-04 27968   0.447E-02    0.154E-01
DAV:  12    -0.355305302453E+03   -0.44617E-05   -0.14520E-05 19200   0.115E-02
  27 F= -.35530530E+03 E0= -.35528909E+03  d E =-.245584E-01  mag=     8.0000
       N       E                     dE             d eps       ncg     rms          rms(c)
DAV:   1    -0.355292080276E+03    0.13218E-01   -0.29688E+00 33072   0.566E+00    0.605E-01
DAV:   2    -0.355318413630E+03   -0.26333E-01   -0.29620E-01 28496   0.121E+00    0.118E+00
DAV:   3    -0.355317706876E+03    0.70675E-03   -0.21492E-02 36080   0.370E-01    0.958E-01
DAV:   4    -0.355316770501E+03    0.93637E-03   -0.39167E-03 36552   0.159E-01    0.617E-01
DAV:   5    -0.355317302594E+03   -0.53209E-03   -0.23165E-03 38680   0.162E-01    0.818E-01
DAV:   6    -0.355316999049E+03    0.30355E-03   -0.30941E-03 39888   0.185E-01    0.764E-01
DAV:   7    -0.355316971462E+03    0.27587E-04   -0.65171E-03 38000   0.253E-01    0.792E-01
DAV:   8    -0.355316450042E+03    0.52142E-03   -0.84512E-03 38856   0.257E-01    0.725E-01
DAV:   9    -0.355315782352E+03    0.66769E-03   -0.34618E-03 38944   0.184E-01    0.393E-01
DAV:  10    -0.355315811239E+03   -0.28886E-04   -0.85183E-04 39192   0.108E-01    0.316E-01
DAV:  11    -0.355315758261E+03    0.52977E-04   -0.34280E-04 36488   0.600E-02    0.234E-01
DAV:  12    -0.355315775886E+03   -0.17625E-04   -0.40511E-05 22288   0.242E-02    0.224E-01
DAV:  13    -0.355315817454E+03   -0.41567E-04   -0.53269E-05 22304   0.278E-02    0.247E-01
DAV:  14    -0.355315862166E+03   -0.44713E-04   -0.10439E-04 29808   0.454E-02    0.247E-01
DAV:  15    -0.355315858294E+03    0.38722E-05   -0.31843E-04 38632   0.663E-02    0.241E-01
DAV:  16    -0.355315833692E+03    0.24602E-04   -0.20432E-04 30256   0.526E-02    0.194E-01
DAV:  17    -0.355315744275E+03    0.89417E-04   -0.17500E-04 32664   0.500E-02    0.930E-02
DAV:  18    -0.355315747740E+03   -0.34655E-05   -0.11892E-04 33432   0.324E-02    0.716E-02
DAV:  19    -0.355315747834E+03   -0.93984E-07   -0.24347E-05 21384   0.219E-02
  28 F= -.35531575E+03 E0= -.35529935E+03  d E =-.104454E-01  mag=     8.0000
       N       E                     dE             d eps       ncg     rms          rms(c)
DAV:   1    -0.355314718214E+03    0.10295E-02   -0.10868E-01 31688   0.101E+00    0.927E-02
DAV:   2    -0.355315590301E+03   -0.87209E-03   -0.69576E-03 28800   0.212E-01    0.432E-01
DAV:   3    -0.355315220241E+03    0.37006E-03   -0.13450E-03 34696   0.884E-02    0.109E-01
DAV:   4    -0.355315263487E+03   -0.43247E-04   -0.10574E-04 27208   0.358E-02    0.112E-01
DAV:   5    -0.355315255177E+03    0.83105E-05   -0.68950E-05 22496   0.267E-02
  29 F= -.35531526E+03 E0= -.35529890E+03  d E =0.492657E-03  mag=     8.0000
       N       E                     dE             d eps       ncg     rms          rms(c)
DAV:   1    -0.355313513325E+03    0.17502E-02   -0.69716E-01 30224   0.235E+00    0.176E-01
DAV:   2    -0.355316509013E+03   -0.29957E-02   -0.29683E-02 28304   0.437E-01    0.416E-01
DAV:   3    -0.355316335905E+03    0.17311E-03   -0.22460E-03 37312   0.136E-01    0.276E-01
DAV:   4    -0.355316297795E+03    0.38110E-04   -0.85888E-04 34920   0.660E-02    0.248E-01
DAV:   5    -0.355316196375E+03    0.10142E-03   -0.36044E-04 27152   0.471E-02    0.141E-01
DAV:   6    -0.355316229749E+03   -0.33374E-04   -0.27371E-04 26336   0.452E-02    0.205E-01
DAV:   7    -0.355316128755E+03    0.10099E-03   -0.44371E-04 37056   0.644E-02    0.160E-01
DAV:   8    -0.355316122180E+03    0.65744E-05   -0.32765E-04 37408   0.612E-02    0.173E-01
DAV:   9    -0.355316124659E+03   -0.24784E-05   -0.30653E-04 29808   0.549E-02    0.148E-01
DAV:  10    -0.355316129586E+03   -0.49267E-05   -0.10010E-04 24872   0.380E-02    0.792E-02
DAV:  11    -0.355316140713E+03   -0.11128E-04   -0.22093E-05 21552   0.169E-02    0.764E-02
DAV:  12    -0.355316145385E+03   -0.46719E-05   -0.12976E-05 18424   0.158E-02
  30 F= -.35531615E+03 E0= -.35529975E+03  d E =-.890208E-03  mag=     8.0000
       N       E                     dE             d eps       ncg     rms          rms(c)
DAV:   1    -0.355315959997E+03    0.18072E-03   -0.10094E-01 31960   0.109E+00    0.129E-01
DAV:   2    -0.355317243491E+03   -0.12835E-02   -0.97713E-03 28624   0.257E-01    0.523E-01
DAV:   3    -0.355316702257E+03    0.54123E-03   -0.15521E-03 34408   0.124E-01    0.158E-01
DAV:   4    -0.355316748988E+03   -0.46731E-04   -0.81169E-05 29712   0.274E-02    0.141E-01
DAV:   5    -0.355316749405E+03   -0.41666E-06   -0.21462E-05 19032   0.146E-02
  31 F= -.35531675E+03 E0= -.35530034E+03  d E =-.604020E-03  mag=     8.0000
       N       E                     dE             d eps       ncg     rms          rms(c)
DAV:   1    -0.355316148266E+03    0.60072E-03   -0.13967E-01 31296   0.117E+00    0.190E-01
DAV:   2    -0.355317103379E+03   -0.95511E-03   -0.89309E-03 28768   0.236E-01    0.415E-01
DAV:   3    -0.355316823533E+03    0.27985E-03   -0.15180E-03 37304   0.110E-01    0.227E-01
DAV:   4    -0.355316768154E+03    0.55379E-04   -0.18457E-04 33944   0.515E-02    0.172E-01
DAV:   5    -0.355316707021E+03    0.61133E-04   -0.19423E-04 36024   0.609E-02    0.180E-01
DAV:   6    -0.355316882516E+03   -0.17550E-03   -0.64848E-04 37408   0.810E-02    0.372E-01
DAV:   7    -0.355316693949E+03    0.18857E-03   -0.59282E-04 36048   0.771E-02    0.150E-01
DAV:   8    -0.355316756885E+03   -0.62937E-04   -0.20058E-04 27440   0.445E-02    0.138E-01
DAV:   9    -0.355316743070E+03    0.13816E-04   -0.78057E-05 22696   0.226E-02    0.114E-01
DAV:  10    -0.355316742028E+03    0.10418E-05   -0.69835E-06 15872   0.901E-03
  32 F= -.35531674E+03 E0= -.35530042E+03  d E =0.737714E-05  mag=     8.0000
       N       E                     dE             d eps       ncg     rms          rms(c)
DAV:   1    -0.355313877414E+03    0.28657E-02   -0.11520E+00 30768   0.281E+00    0.193E-01
DAV:   2    -0.355317831580E+03   -0.39542E-02   -0.38601E-02 28288   0.485E-01    0.393E-01
DAV:   3    -0.355317768345E+03    0.63235E-04   -0.21900E-03 39504   0.139E-01    0.359E-01
DAV:   4    -0.355317574383E+03    0.19396E-03   -0.70001E-04 35576   0.736E-02    0.220E-01
DAV:   5    -0.355317519597E+03    0.54786E-04   -0.32231E-04 29776   0.462E-02    0.168E-01
DAV:   6    -0.355317505438E+03    0.14159E-04   -0.17428E-04 24552   0.345E-02    0.173E-01
DAV:   7    -0.355317430150E+03    0.75288E-04   -0.46049E-04 33352   0.600E-02    0.189E-01
DAV:   8    -0.355317376354E+03    0.53796E-04   -0.43314E-04 37304   0.705E-02    0.177E-01
DAV:   9    -0.355317471016E+03   -0.94662E-04   -0.37330E-04 31992   0.637E-02    0.202E-01
DAV:  10    -0.355317451335E+03    0.19680E-04   -0.18895E-04 30072   0.517E-02    0.770E-02
DAV:  11    -0.355317471875E+03   -0.20540E-04   -0.47940E-05 24680   0.259E-02    0.763E-02
DAV:  12    -0.355317476226E+03   -0.43507E-05   -0.32730E-05 23048   0.216E-02
  33 F= -.35531748E+03 E0= -.35530108E+03  d E =-.734198E-03  mag=     8.0000
       N       E                     dE             d eps       ncg     rms          rms(c)
DAV:   1    -0.355205716270E+03    0.11176E+00   -0.31080E+01 31584   0.153E+01    0.921E-01
DAV:   2    -0.355317351595E+03   -0.11164E+00   -0.11339E+00 28288   0.267E+00    0.175E+00
DAV:   3    -0.355319470916E+03   -0.21193E-02   -0.70263E-02 38904   0.679E-01    0.198E+00
DAV:   4    -0.355314098061E+03    0.53729E-02   -0.42315E-02 38904   0.438E-01    0.117E+00
DAV:   5    -0.355312986786E+03    0.11113E-02   -0.17975E-02 38992   0.314E-01    0.899E-01
DAV:   6    -0.355312296238E+03    0.69055E-03   -0.81216E-03 38984   0.237E-01    0.731E-01
DAV:   7    -0.355313108809E+03   -0.81257E-03   -0.75887E-03 38248   0.280E-01    0.112E+00
DAV:   8    -0.355310790905E+03    0.23179E-02   -0.68689E-03 38568   0.275E-01    0.598E-01
DAV:   9    -0.355311170820E+03   -0.37992E-03   -0.44578E-03 38704   0.219E-01    0.682E-01
DAV:  10    -0.355310545979E+03    0.62484E-03   -0.24299E-03 38408   0.173E-01    0.309E-01
DAV:  11    -0.355310715438E+03   -0.16946E-03   -0.76206E-04 38448   0.106E-01    0.214E-01
DAV:  12    -0.355310789956E+03   -0.74518E-04   -0.19290E-04 31512   0.485E-02    0.218E-01
DAV:  13    -0.355310782268E+03    0.76881E-05   -0.49832E-05 24144   0.274E-02
  34 F= -.35531078E+03 E0= -.35529436E+03  d E =0.669396E-02  mag=     8.0000
       N       E                     dE             d eps       ncg     rms          rms(c)
DAV:   1    -0.355090462271E+03    0.22033E+00   -0.55623E+01 31216   0.211E+01    0.125E+00
DAV:   2    -0.355331330514E+03   -0.24087E+00   -0.23886E+00 28288   0.371E+00    0.318E+00
DAV:   3    -0.355326089752E+03    0.52408E-02   -0.27056E-01 39304   0.107E+00    0.264E+00
DAV:   4    -0.355321789869E+03    0.42999E-02   -0.80393E-02 39768   0.631E-01    0.215E+00
DAV:   5    -0.355313694092E+03    0.80958E-02   -0.21764E-02 38752   0.460E-01    0.805E-01
DAV:   6    -0.355314614245E+03   -0.92015E-03   -0.78208E-03 37216   0.267E-01    0.820E-01
DAV:   7    -0.355314777013E+03   -0.16277E-03   -0.11813E-02 38528   0.304E-01    0.101E+00
DAV:   8    -0.355313239201E+03    0.15378E-02   -0.60601E-03 39240   0.268E-01    0.716E-01
DAV:   9    -0.355313395167E+03   -0.15597E-03   -0.31256E-03 38160   0.209E-01    0.743E-01
DAV:  10    -0.355312358247E+03    0.10369E-02   -0.22291E-03 38376   0.167E-01    0.281E-01
DAV:  11    -0.355312509846E+03   -0.15160E-03   -0.75190E-04 38128   0.118E-01    0.235E-01
DAV:  12    -0.355312787318E+03   -0.27747E-03   -0.90326E-04 37256   0.818E-02    0.395E-01
DAV:  13    -0.355312545734E+03    0.24158E-03   -0.45451E-04 36856   0.821E-02    0.134E-01
DAV:  14    -0.355312630008E+03   -0.84274E-04   -0.24174E-04 35536   0.513E-02    0.166E-01
DAV:  15    -0.355312623907E+03    0.61015E-05   -0.10216E-04 28656   0.410E-02    0.174E-01
DAV:  16    -0.355312589393E+03    0.34514E-04   -0.81447E-05 22856   0.335E-02    0.130E-01
DAV:  17    -0.355312562379E+03    0.27013E-04   -0.62329E-05 25208   0.388E-02    0.737E-02
DAV:  18    -0.355312582694E+03   -0.20315E-04   -0.86799E-05 25856   0.281E-02    0.791E-02
DAV:  19    -0.355312587114E+03   -0.44200E-05   -0.30136E-05 22000   0.258E-02
  35 F= -.35531259E+03 E0= -.35529594E+03  d E =-.180485E-02  mag=     8.0000
       N       E                     dE             d eps       ncg     rms          rms(c)
DAV:   1    -0.355158484086E+03    0.15410E+00   -0.16135E+01 32120   0.147E+01    0.137E+00
DAV:   2    -0.355323317511E+03   -0.16483E+00   -0.16991E+00 28312   0.313E+00    0.330E+00
DAV:   3    -0.355310380124E+03    0.12937E-01   -0.12380E-01 36984   0.101E+00    0.183E+00
DAV:   4    -0.355308717454E+03    0.16627E-02   -0.26957E-02 38944   0.438E-01    0.130E+00
DAV:   5    -0.355309156836E+03   -0.43938E-03   -0.17945E-02 38960   0.421E-01    0.147E+00
DAV:   6    -0.355310375475E+03   -0.12186E-02   -0.29334E-02 39392   0.432E-01    0.178E+00
DAV:   7    -0.355318212461E+03   -0.78370E-02   -0.87208E-02 38528   0.598E-01    0.288E+00
DAV:   8    -0.355302294610E+03    0.15918E-01   -0.51715E-02 38624   0.593E-01    0.122E+00
DAV:   9    -0.355304209624E+03   -0.19150E-02   -0.12032E-02 37928   0.364E-01    0.115E+00
DAV:  10    -0.355303434711E+03    0.77491E-03   -0.70618E-03 37952   0.272E-01    0.598E-01
DAV:  11    -0.355303742551E+03   -0.30784E-03   -0.15353E-03 38664   0.143E-01    0.493E-01
DAV:  12    -0.355303760660E+03   -0.18109E-04   -0.18364E-04 28880   0.400E-02    0.500E-01
DAV:  13    -0.355303560935E+03    0.19972E-03   -0.11430E-04 29456   0.397E-02    0.500E-01
DAV:  14    -0.355303413079E+03    0.14786E-03   -0.21081E-04 38184   0.525E-02    0.503E-01
DAV:  15    -0.355303182735E+03    0.23034E-03   -0.30977E-04 38280   0.622E-02    0.571E-01
DAV:  16    -0.355303248761E+03   -0.66027E-04   -0.47574E-05 27304   0.186E-02    0.569E-01
DAV:  17    -0.355303212406E+03    0.36355E-04   -0.13285E-05 18656   0.140E-02    0.580E-01
DAV:  18    -0.355303236094E+03   -0.23688E-04   -0.30115E-06 15528   0.547E-03    0.579E-01
DAV:  19    -0.355303259572E+03   -0.23478E-04   -0.21465E-06 14680   0.554E-03    0.584E-01
DAV:  20    -0.355303172721E+03    0.86851E-04   -0.44522E-05 24624   0.261E-02    0.622E-01
DAV:  21    -0.355303280896E+03   -0.10817E-03   -0.10689E-04 31064   0.486E-02    0.553E-01
DAV:  22    -0.355303288606E+03   -0.77108E-05   -0.32514E-03 38280   0.239E-01    0.403E-01
DAV:  23    -0.355302942701E+03    0.34591E-03   -0.17069E-03 32368   0.118E-01    0.524E-01
DAV:  24    -0.355302849545E+03    0.93156E-04   -0.19766E-04 31872   0.378E-02    0.543E-01
DAV:  25    -0.355302910883E+03   -0.61338E-04   -0.32349E-05 24528   0.183E-02    0.536E-01
DAV:  26    -0.355303406395E+03   -0.49551E-03   -0.57200E-04 33168   0.819E-02    0.441E-01
DAV:  27    -0.355303630390E+03   -0.22400E-03   -0.12902E-03 35472   0.118E-01    0.314E-01
DAV:  28    -0.355303518972E+03    0.11142E-03   -0.14769E-03 35160   0.112E-01    0.262E-01
DAV:  29    -0.355303469251E+03    0.49721E-04   -0.59455E-04 34200   0.563E-02    0.228E-01
DAV:  30    -0.355303593092E+03   -0.12384E-03   -0.12583E-04 28552   0.334E-02    0.191E-01
DAV:  31    -0.355303666791E+03   -0.73699E-04   -0.38347E-04 33736   0.674E-02    0.923E-02
DAV:  32    -0.355303678996E+03   -0.12206E-04   -0.92922E-05 30184   0.288E-02    0.534E-02
DAV:  33    -0.355303669951E+03    0.90457E-05   -0.21694E-05 20624   0.167E-02
  36 F= -.35530367E+03 E0= -.35528702E+03  d E =0.891716E-02  mag=     8.0000
       N       E                     dE             d eps       ncg     rms          rms(c)
DAV:   1    -0.355277706684E+03    0.25972E-01   -0.68750E+00 33216   0.913E+00    0.780E-01
DAV:   2    -0.355331730339E+03   -0.54024E-01   -0.59149E-01 28408   0.182E+00    0.128E+00
DAV:   3    -0.355331556917E+03    0.17342E-03   -0.23943E-02 36416   0.445E-01    0.106E+00
DAV:   4    -0.355331572482E+03   -0.15565E-04   -0.12998E-02 37928   0.266E-01    0.106E+00
DAV:   5    -0.355331261418E+03    0.31106E-03   -0.13203E-02 36776   0.262E-01    0.103E+00
DAV:   6    -0.355331397198E+03   -0.13578E-03   -0.17603E-02 38000   0.266E-01    0.106E+00
DAV:   7    -0.355332426672E+03   -0.10295E-02   -0.15774E-02 37608   0.349E-01    0.133E+00
DAV:   8    -0.355329394555E+03    0.30321E-02   -0.93641E-03 38576   0.317E-01    0.650E-01
DAV:   9    -0.355329330698E+03    0.63857E-04   -0.35546E-03 38344   0.209E-01    0.502E-01
DAV:  10    -0.355329013313E+03    0.31738E-03   -0.14897E-03 37624   0.144E-01    0.251E-01
DAV:  11    -0.355328970962E+03    0.42351E-04   -0.43136E-04 38480   0.768E-02    0.142E-01
DAV:  12    -0.355329011393E+03   -0.40431E-04   -0.11253E-04 29880   0.336E-02    0.151E-01
DAV:  13    -0.355329007499E+03    0.38943E-05   -0.40844E-05 21720   0.241E-02
  37 F= -.35532901E+03 E0= -.35531242E+03  d E =-.253375E-01  mag=     8.0000
       N       E                     dE             d eps       ncg     rms          rms(c)
DAV:   1    -0.355328138110E+03    0.87328E-03   -0.64001E-01 31608   0.211E+00    0.192E-01
DAV:   2    -0.355330733957E+03   -0.25958E-02   -0.23348E-02 28888   0.386E-01    0.614E-01
DAV:   3    -0.355330061763E+03    0.67219E-03   -0.47371E-03 34288   0.141E-01    0.270E-01
DAV:   4    -0.355330051620E+03    0.10143E-04   -0.26083E-04 34280   0.551E-02    0.214E-01
DAV:   5    -0.355330018624E+03    0.32996E-04   -0.55085E-05 24336   0.232E-02    0.193E-01
DAV:   6    -0.355329998370E+03    0.20253E-04   -0.40095E-05 21384   0.231E-02    0.196E-01
DAV:   7    -0.355329975352E+03    0.23018E-04   -0.30422E-04 34544   0.603E-02    0.273E-01
DAV:   8    -0.355329836362E+03    0.13899E-03   -0.63668E-04 37536   0.904E-02    0.245E-01
DAV:   9    -0.355329909571E+03   -0.73209E-04   -0.57130E-04 36248   0.770E-02    0.224E-01
DAV:  10    -0.355329910423E+03   -0.85217E-06   -0.40272E-04 31472   0.615E-02    0.112E-01
DAV:  11    -0.355329927636E+03   -0.17213E-04   -0.74467E-05 25816   0.318E-02    0.942E-02
DAV:  12    -0.355329934886E+03   -0.72503E-05   -0.36401E-05 23464   0.221E-02
  38 F= -.35532993E+03 E0= -.35531334E+03  d E =-.927388E-03  mag=     8.0000
       N       E                     dE             d eps       ncg     rms          rms(c)
DAV:   1    -0.355295732045E+03    0.34196E-01   -0.11293E+01 31296   0.899E+00    0.498E-01
DAV:   2    -0.355333454102E+03   -0.37722E-01   -0.37761E-01 28288   0.153E+00    0.928E-01
DAV:   3    -0.355335397026E+03   -0.19429E-02   -0.25039E-02 39128   0.405E-01    0.143E+00
DAV:   4    -0.355332166284E+03    0.32307E-02   -0.14000E-02 38080   0.253E-01    0.601E-01
DAV:   5    -0.355331975488E+03    0.19080E-03   -0.33867E-03 38720   0.147E-01    0.409E-01
DAV:   6    -0.355331872696E+03    0.10279E-03   -0.10072E-03 39096   0.102E-01    0.352E-01
DAV:   7    -0.355331837691E+03    0.35005E-04   -0.13346E-03 37216   0.108E-01    0.429E-01
DAV:   8    -0.355331406948E+03    0.43074E-03   -0.13151E-03 38696   0.114E-01    0.282E-01
DAV:   9    -0.355331435481E+03   -0.28533E-04   -0.10061E-03 38992   0.106E-01    0.322E-01
DAV:  10    -0.355331379644E+03    0.55837E-04   -0.12045E-03 38832   0.109E-01    0.255E-01
DAV:  11    -0.355331365564E+03    0.14080E-04   -0.57893E-04 39320   0.865E-02    0.168E-01
DAV:  12    -0.355331444069E+03   -0.78505E-04   -0.21725E-04 29280   0.510E-02    0.191E-01
DAV:  13    -0.355331418380E+03    0.25689E-04   -0.13629E-04 26144   0.382E-02    0.129E-01
DAV:  14    -0.355331433931E+03   -0.15551E-04   -0.42512E-05 25152   0.298E-02    0.117E-01
DAV:  15    -0.355331456216E+03   -0.22285E-04   -0.10070E-04 31224   0.401E-02    0.106E-01
DAV:  16    -0.355331448002E+03    0.82143E-05   -0.59951E-05 24272   0.279E-02
  39 F= -.35533145E+03 E0= -.35531476E+03  d E =-.151312E-02  mag=     8.0000
       N       E                     dE             d eps       ncg     rms          rms(c)
DAV:   1    -0.349931941734E+03    0.53995E+01   -0.34312E+02 32032   0.642E+01    0.119E+01
DAV:   2    -0.353454299870E+03   -0.35224E+01   -0.38244E+01 28704   0.141E+01    0.177E+01
DAV:   3    -0.353353745563E+03    0.10055E+00   -0.40826E+00 36944   0.475E+00    0.128E+01
DAV:   4    -0.353250501500E+03    0.10324E+00   -0.97085E-01 38336   0.332E+00    0.109E+01
DAV:   5    -0.353440171191E+03   -0.18967E+00   -0.21334E+00 38544   0.436E+00    0.139E+01
DAV:   6    -0.353595763964E+03   -0.15559E+00   -0.21336E+00 38808   0.497E+00    0.191E+01
DAV:   7    -0.353460882145E+03    0.13488E+00   -0.31039E+00 37952   0.432E+00    0.148E+01
DAV:   8    -0.353136618483E+03    0.32426E+00   -0.16402E+00 37744   0.300E+00    0.112E+01
DAV:   9    -0.353165343546E+03   -0.28725E-01   -0.74960E-01 38240   0.195E+00    0.107E+01
DAV:  10    -0.352973456856E+03    0.19189E+00   -0.64238E-01 37640   0.166E+00    0.409E+00
DAV:  11    -0.352986500444E+03   -0.13044E-01   -0.16698E-01 37464   0.119E+00    0.339E+00
DAV:  12    -0.352988561809E+03   -0.20614E-02   -0.98307E-02 38288   0.882E-01    0.295E+00
DAV:  13    -0.352996736271E+03   -0.81745E-02   -0.64079E-02 38712   0.775E-01    0.175E+00
DAV:  14    -0.353004035104E+03   -0.72988E-02   -0.11296E-02 37856   0.377E-01    0.185E+00
DAV:  15    -0.353003301992E+03    0.73311E-03   -0.29164E-03 36352   0.190E-01    0.173E+00
DAV:  16    -0.353002884531E+03    0.41746E-03   -0.44089E-04 32040   0.745E-02    0.168E+00
DAV:  17    -0.353003454637E+03   -0.57011E-03   -0.50724E-04 38088   0.793E-02    0.164E+00
DAV:  18    -0.353003331825E+03    0.12281E-03   -0.26751E-03 36720   0.165E-01    0.137E+00
DAV:  19    -0.353002925595E+03    0.40623E-03   -0.23446E-03 38392   0.188E-01    0.123E+00
DAV:  20    -0.353001495870E+03    0.14297E-02   -0.39508E-03 38752   0.200E-01    0.841E-01
DAV:  21    -0.353002243800E+03   -0.74793E-03   -0.33008E-03 36064   0.158E-01    0.692E-01
DAV:  22    -0.353002250227E+03   -0.64269E-05   -0.17120E-03 38128   0.171E-01    0.516E-01
DAV:  23    -0.353002206674E+03    0.43553E-04   -0.20850E-03 39328   0.157E-01    0.483E-01
DAV:  24    -0.353002176648E+03    0.30026E-04   -0.74848E-04 33664   0.885E-02    0.463E-01
DAV:  25    -0.353001879993E+03    0.29665E-03   -0.66963E-04 38944   0.807E-02    0.235E-01
DAV:  26    -0.353001828766E+03    0.51227E-04   -0.49268E-04 35896   0.740E-02    0.194E-01
DAV:  27    -0.353001934808E+03   -0.10604E-03   -0.17718E-04 31904   0.462E-02    0.178E-01
DAV:  28    -0.353001928151E+03    0.66566E-05   -0.55756E-05 24616   0.248E-02
  40 F= -.35300193E+03 E0= -.35298404E+03  d E =0.232952E+01  mag=     8.0000
       N       E                     dE             d eps       ncg     rms          rms(c)
DAV:   1    -0.353396691772E+03   -0.39476E+00   -0.25895E+02 31528   0.491E+01    0.901E+00
DAV:   2    -0.356559238784E+03   -0.31625E+01   -0.24548E+01 30056   0.132E+01    0.275E+01
DAV:   3    -0.355462406730E+03    0.10968E+01   -0.11554E+01 37352   0.548E+00    0.134E+01
DAV:   4    -0.355421652262E+03    0.40754E-01   -0.17790E-01 31872   0.112E+00    0.121E+01
DAV:   5    -0.355428145991E+03   -0.64937E-02   -0.12389E-02 32896   0.296E-01    0.121E+01
DAV:   6    -0.355627966277E+03   -0.19982E+00   -0.41479E-01 39952   0.158E+00    0.152E+01
DAV:   7    -0.355648280660E+03   -0.20314E-01   -0.18893E+00 38952   0.266E+00    0.152E+01
DAV:   8    -0.355654234198E+03   -0.59535E-02   -0.13866E+00 38880   0.308E+00    0.156E+01
DAV:   9    -0.355414410106E+03    0.23982E+00   -0.12233E+00 38688   0.260E+00    0.119E+01
DAV:  10    -0.355254515725E+03    0.15989E+00   -0.37302E-01 37864   0.214E+00    0.957E+00
DAV:  11    -0.355210916776E+03    0.43599E-01   -0.25388E-01 38928   0.169E+00    0.976E+00
DAV:  12    -0.355400879492E+03   -0.18996E+00   -0.13814E+00 38656   0.280E+00    0.122E+01
DAV:  13    -0.355184285476E+03    0.21659E+00   -0.30691E-01 38424   0.256E+00    0.731E+00
DAV:  14    -0.355282510275E+03   -0.98225E-01   -0.32982E-01 38520   0.203E+00    0.866E+00
DAV:  15    -0.355251036699E+03    0.31474E-01   -0.25062E-01 38440   0.123E+00    0.756E+00
DAV:  16    -0.355254421543E+03   -0.33848E-02   -0.75994E-02 37712   0.922E-01    0.667E+00
DAV:  17    -0.355256254542E+03   -0.18330E-02   -0.53491E-02 38056   0.786E-01    0.639E+00
DAV:  18    -0.355259257252E+03   -0.30027E-02   -0.14982E-02 37352   0.377E-01    0.624E+00
DAV:  19    -0.355257408254E+03    0.18490E-02   -0.14942E-03 29504   0.106E-01    0.629E+00
DAV:  20    -0.355244614453E+03    0.12794E-01   -0.26117E-02 40080   0.652E-01    0.547E+00
DAV:  21    -0.355235152612E+03    0.94618E-02   -0.57171E-02 39648   0.759E-01    0.457E+00
DAV:  22    -0.355239057923E+03   -0.39053E-02   -0.22485E-02 36864   0.433E-01    0.452E+00
DAV:  23    -0.355242282264E+03   -0.32243E-02   -0.51027E-03 36344   0.203E-01    0.451E+00
DAV:  24    -0.355243073947E+03   -0.79168E-03   -0.61146E-04 32160   0.738E-02    0.457E+00
DAV:  25    -0.355240816043E+03    0.22579E-02   -0.11667E-04 32224   0.422E-02    0.452E+00
DAV:  26    -0.355231484632E+03    0.93314E-02   -0.19936E-03 41320   0.195E-01    0.442E+00
DAV:  27    -0.355215945643E+03    0.15539E-01   -0.70174E-03 36912   0.289E-01    0.444E+00
DAV:  28    -0.355235315407E+03   -0.19370E-01   -0.17601E-02 35176   0.477E-01    0.412E+00
DAV:  29    -0.355244349715E+03   -0.90343E-02   -0.29049E-02 37792   0.538E-01    0.364E+00
DAV:  30    -0.355247339342E+03   -0.29896E-02   -0.77806E-03 32840   0.217E-01    0.339E+00
DAV:  31    -0.355241848350E+03    0.54910E-02   -0.37426E-03 39144   0.247E-01    0.316E+00
DAV:  32    -0.355240441607E+03    0.14067E-02   -0.15588E-03 34144   0.122E-01    0.303E+00
DAV:  33    -0.355240937226E+03   -0.49562E-03   -0.35005E-03 39448   0.222E-01    0.272E+00
DAV:  34    -0.355236290604E+03    0.46466E-02   -0.51050E-03 40736   0.251E-01    0.227E+00
DAV:  35    -0.355234200000E+03    0.20906E-02   -0.51238E-03 39392   0.240E-01    0.175E+00
DAV:  36    -0.355234779321E+03   -0.57932E-03   -0.13137E-03 30824   0.110E-01    0.164E+00
DAV:  37    -0.355235550410E+03   -0.77109E-03   -0.54003E-04 38000   0.974E-02    0.168E+00
DAV:  38    -0.355234152835E+03    0.13976E-02   -0.12067E-03 38176   0.128E-01    0.148E+00
DAV:  39    -0.355232040714E+03    0.21121E-02   -0.49451E-03 40552   0.247E-01    0.110E+00
DAV:  40    -0.355232951224E+03   -0.91051E-03   -0.12790E-03 31168   0.104E-01    0.102E+00
DAV:  41    -0.355233099796E+03   -0.14857E-03   -0.28625E-04 34544   0.548E-02    0.982E-01
DAV:  42    -0.355233143478E+03   -0.43682E-04   -0.34787E-04 34424   0.616E-02    0.913E-01
DAV:  43    -0.355233277265E+03   -0.13379E-03   -0.31247E-04 36352   0.623E-02    0.896E-01
DAV:  44    -0.355233207471E+03    0.69794E-04   -0.21652E-04 35096   0.457E-02    0.904E-01
DAV:  45    -0.355233068678E+03    0.13879E-03   -0.60764E-05 29936   0.271E-02    0.937E-01
DAV:  46    -0.355232975196E+03    0.93482E-04   -0.16680E-05 22432   0.120E-02    0.948E-01
DAV:  47    -0.355231514262E+03    0.14609E-02   -0.90113E-04 37120   0.116E-01    0.102E+00
DAV:  48    -0.355231278848E+03    0.23541E-03   -0.33626E-04 34728   0.517E-02    0.108E+00
DAV:  49    -0.355230718962E+03    0.55989E-03   -0.14281E-04 31408   0.352E-02    0.113E+00
DAV:  50    -0.355230398755E+03    0.32021E-03   -0.72895E-05 29752   0.257E-02    0.117E+00
DAV:  51    -0.355230240194E+03    0.15856E-03   -0.22549E-05 23640   0.129E-02    0.119E+00
DAV:  52    -0.355230430043E+03   -0.18985E-03   -0.20541E-05 21792   0.181E-02    0.117E+00
DAV:  53    -0.355231597824E+03   -0.11678E-02   -0.34217E-04 34752   0.674E-02    0.106E+00
DAV:  54    -0.355233879937E+03   -0.22821E-02   -0.22175E-03 36368   0.169E-01    0.788E-01
DAV:  55    -0.355234560817E+03   -0.68088E-03   -0.96922E-04 36584   0.801E-02    0.680E-01
DAV:  56    -0.355235378247E+03   -0.81743E-03   -0.49691E-04 35544   0.738E-02    0.547E-01
DAV:  57    -0.355236046925E+03   -0.66868E-03   -0.83600E-04 35944   0.932E-02    0.400E-01
DAV:  58    -0.355236609467E+03   -0.56254E-03   -0.18653E-03 36184   0.152E-01    0.136E-01
DAV:  59    -0.355236801393E+03   -0.19193E-03   -0.64076E-04 32328   0.595E-02    0.723E-02
DAV:  60    -0.355236839220E+03   -0.37827E-04   -0.43805E-05 25888   0.173E-02    0.662E-02
DAV:  61    -0.355236852503E+03   -0.13282E-04   -0.23271E-05 22200   0.143E-02    0.479E-02
DAV:  62    -0.355236857787E+03   -0.52840E-05   -0.84395E-05 29432   0.295E-02
  41 F= -.35523686E+03 E0= -.35521968E+03  d E =-.223493E+01  mag=     8.0041
       N       E                     dE             d eps       ncg     rms          rms(c)
DAV:   1    -0.355208543323E+03    0.28309E-01   -0.95597E+00 32752   0.112E+01    0.106E+00
DAV:   2    -0.355305009802E+03   -0.96466E-01   -0.10465E+00 28392   0.252E+00    0.229E+00
DAV:   3    -0.355298892993E+03    0.61168E-02   -0.49455E-02 35952   0.670E-01    0.143E+00
DAV:   4    -0.355299571408E+03   -0.67841E-03   -0.14704E-02 36560   0.286E-01    0.150E+00
DAV:   5    -0.355298870062E+03    0.70135E-03   -0.12857E-02 37088   0.261E-01    0.143E+00
DAV:   6    -0.355299386621E+03   -0.51656E-03   -0.20000E-02 37784   0.275E-01    0.153E+00
DAV:   7    -0.355299720640E+03   -0.33402E-03   -0.34563E-02 38336   0.505E-01    0.172E+00
DAV:   8    -0.355298022129E+03    0.16985E-02   -0.32575E-02 38840   0.523E-01    0.151E+00
DAV:   9    -0.355294054809E+03    0.39673E-02   -0.90552E-03 37704   0.384E-01    0.553E-01
DAV:  10    -0.355294568636E+03   -0.51383E-03   -0.35523E-03 38320   0.196E-01    0.562E-01
DAV:  11    -0.355294180299E+03    0.38834E-03   -0.12174E-03 38520   0.130E-01    0.271E-01
DAV:  12    -0.355294288451E+03   -0.10815E-03   -0.19689E-04 33824   0.446E-02    0.276E-01
DAV:  13    -0.355294304983E+03   -0.16532E-04   -0.70304E-05 23216   0.328E-02    0.285E-01
DAV:  14    -0.355294371532E+03   -0.66549E-04   -0.16145E-04 34688   0.504E-02    0.283E-01
DAV:  15    -0.355294328589E+03    0.42943E-04   -0.20306E-04 39616   0.525E-02    0.234E-01
DAV:  16    -0.355294264570E+03    0.64019E-04   -0.76154E-05 30960   0.342E-02    0.191E-01
DAV:  17    -0.355294225375E+03    0.39195E-04   -0.19694E-04 38672   0.637E-02    0.210E-01
DAV:  18    -0.355294179948E+03    0.45428E-04   -0.29856E-04 37440   0.657E-02    0.193E-01
DAV:  19    -0.355294116208E+03    0.63740E-04   -0.14370E-04 33368   0.535E-02    0.857E-02
DAV:  20    -0.355294141058E+03   -0.24850E-04   -0.56102E-05 22752   0.278E-02    0.830E-02
DAV:  21    -0.355294134392E+03    0.66662E-05   -0.22501E-05 22136   0.181E-02
  42 F= -.35529413E+03 E0= -.35527713E+03  d E =-.572766E-01  mag=     8.0005
       N       E                     dE             d eps       ncg     rms          rms(c)
DAV:   1    -0.355271767925E+03    0.22373E-01   -0.29064E+00 33768   0.695E+00    0.535E-01
DAV:   2    -0.355304679965E+03   -0.32912E-01   -0.35551E-01 28288   0.145E+00    0.873E-01
DAV:   3    -0.355306550645E+03   -0.18707E-02   -0.21949E-02 38272   0.411E-01    0.125E+00
DAV:   4    -0.355304517728E+03    0.20329E-02   -0.10312E-02 36992   0.225E-01    0.648E-01
DAV:   5    -0.355304367201E+03    0.15053E-03   -0.38482E-03 37664   0.153E-01    0.547E-01
DAV:   6    -0.355304388573E+03   -0.21372E-04   -0.20048E-03 39368   0.146E-01    0.612E-01
DAV:   7    -0.355304250047E+03    0.13853E-03   -0.37187E-03 38576   0.183E-01    0.697E-01
DAV:   8    -0.355303173840E+03    0.10762E-02   -0.34543E-03 39424   0.177E-01    0.333E-01
DAV:   9    -0.355303901483E+03   -0.72764E-03   -0.40193E-03 38912   0.173E-01    0.621E-01
DAV:  10    -0.355303129217E+03    0.77227E-03   -0.31534E-03 38672   0.152E-01    0.211E-01
DAV:  11    -0.355303414262E+03   -0.28505E-03   -0.64243E-04 38496   0.885E-02    0.251E-01
DAV:  12    -0.355303456714E+03   -0.42452E-04   -0.22451E-04 32608   0.516E-02    0.244E-01
DAV:  13    -0.355303434846E+03    0.21867E-04   -0.76538E-05 26064   0.325E-02    0.208E-01
DAV:  14    -0.355303464657E+03   -0.29811E-04   -0.11511E-04 33464   0.418E-02    0.170E-01
DAV:  15    -0.355303467226E+03   -0.25683E-05   -0.10882E-04 33112   0.417E-02    0.138E-01
DAV:  16    -0.355303484605E+03   -0.17380E-04   -0.12287E-04 29432   0.394E-02    0.163E-01
DAV:  17    -0.355303441081E+03    0.43524E-04   -0.86844E-05 29888   0.403E-02    0.662E-02
DAV:  18    -0.355303439863E+03    0.12184E-05   -0.53374E-05 28640   0.261E-02
  43 F= -.35530344E+03 E0= -.35528649E+03  d E =-.930547E-02  mag=     8.0001
       N       E                     dE             d eps       ncg     rms          rms(c)
DAV:   1    -0.355306843969E+03   -0.34029E-02   -0.19051E+00 32968   0.477E+00    0.374E-01
DAV:   2    -0.355322062918E+03   -0.15219E-01   -0.15521E-01 28304   0.985E-01    0.801E-01
DAV:   3    -0.355321378636E+03    0.68428E-03   -0.76883E-03 36608   0.277E-01    0.523E-01
DAV:   4    -0.355321322868E+03    0.55768E-04   -0.23596E-03 38184   0.141E-01    0.447E-01
DAV:   5    -0.355321390563E+03   -0.67695E-04   -0.25793E-03 38024   0.111E-01    0.490E-01
DAV:   6    -0.355321196268E+03    0.19430E-03   -0.23735E-03 37288   0.105E-01    0.383E-01
DAV:   7    -0.355321157038E+03    0.39230E-04   -0.13186E-03 38344   0.122E-01    0.396E-01
DAV:   8    -0.355320915709E+03    0.24133E-03   -0.17729E-03 38856   0.127E-01    0.365E-01
DAV:   9    -0.355320737273E+03    0.17844E-03   -0.82100E-04 38552   0.124E-01    0.272E-01
DAV:  10    -0.355320980182E+03   -0.24291E-03   -0.11458E-03 39096   0.102E-01    0.418E-01
DAV:  11    -0.355320746008E+03    0.23417E-03   -0.71879E-04 37224   0.858E-02    0.143E-01
DAV:  12    -0.355320837546E+03   -0.91538E-04   -0.21222E-04 27168   0.428E-02    0.184E-01
DAV:  13    -0.355320811180E+03    0.26366E-04   -0.66970E-05 23480   0.302E-02    0.125E-01
DAV:  14    -0.355320829709E+03   -0.18529E-04   -0.37503E-05 25544   0.257E-02    0.113E-01
DAV:  15    -0.355320843112E+03   -0.13404E-04   -0.95000E-05 33152   0.405E-02    0.941E-02
DAV:  16    -0.355320844473E+03   -0.13614E-05   -0.65954E-05 26904   0.291E-02
  44 F= -.35532084E+03 E0= -.35530378E+03  d E =-.174046E-01  mag=     8.0000
       N       E                     dE             d eps       ncg     rms          rms(c)
DAV:   1    -0.355316761362E+03    0.40818E-02   -0.27109E+00 32496   0.500E+00    0.439E-01
DAV:   2    -0.355332387640E+03   -0.15626E-01   -0.16067E-01 28480   0.104E+00    0.947E-01
DAV:   3    -0.355331162008E+03    0.12256E-02   -0.87688E-03 36528   0.278E-01    0.573E-01
DAV:   4    -0.355331445451E+03   -0.28344E-03   -0.41150E-03 38992   0.151E-01    0.650E-01
DAV:   5    -0.355331225572E+03    0.21988E-03   -0.31065E-03 37320   0.122E-01    0.562E-01
DAV:   6    -0.355331252386E+03   -0.26815E-04   -0.33873E-03 37808   0.135E-01    0.556E-01
DAV:   7    -0.355331329157E+03   -0.76770E-04   -0.27665E-03 37720   0.166E-01    0.594E-01
DAV:   8    -0.355331240223E+03    0.88934E-04   -0.36712E-03 38592   0.171E-01    0.669E-01
DAV:   9    -0.355330493267E+03    0.74696E-03   -0.12329E-03 38000   0.145E-01    0.256E-01
DAV:  10    -0.355330668519E+03   -0.17525E-03   -0.10202E-03 38992   0.108E-01    0.341E-01
DAV:  11    -0.355330517380E+03    0.15114E-03   -0.71196E-04 38368   0.928E-02    0.149E-01
DAV:  12    -0.355330621987E+03   -0.10461E-03   -0.26481E-04 30864   0.514E-02    0.194E-01
DAV:  13    -0.355330581719E+03    0.40268E-04   -0.10473E-04 25928   0.360E-02    0.114E-01
DAV:  14    -0.355330618295E+03   -0.36576E-04   -0.96792E-05 32552   0.393E-02    0.962E-02
DAV:  15    -0.355330622099E+03   -0.38038E-05   -0.76338E-05 30640   0.333E-02
  45 F= -.35533062E+03 E0= -.35531350E+03  d E =-.977763E-02  mag=     8.0000
       N       E                     dE             d eps       ncg     rms          rms(c)
DAV:   1    -0.355330209337E+03    0.40896E-03   -0.69126E-01 31832   0.219E+00    0.208E-01
DAV:   2    -0.355333337431E+03   -0.31281E-02   -0.28871E-02 28496   0.447E-01    0.603E-01
DAV:   3    -0.355332715996E+03    0.62143E-03   -0.18929E-03 38184   0.157E-01    0.241E-01
DAV:   4    -0.355332762370E+03   -0.46374E-04   -0.38219E-04 38288   0.760E-02    0.205E-01
DAV:   5    -0.355332785927E+03   -0.23557E-04   -0.66376E-04 35432   0.667E-02    0.242E-01
DAV:   6    -0.355332739573E+03    0.46354E-04   -0.88915E-04 25672   0.529E-02    0.191E-01
DAV:   7    -0.355332766740E+03   -0.27167E-04   -0.33724E-04 33728   0.583E-02    0.192E-01
DAV:   8    -0.355332748726E+03    0.18014E-04   -0.41998E-04 31024   0.546E-02    0.198E-01
DAV:   9    -0.355332688919E+03    0.59806E-04   -0.13807E-04 25712   0.394E-02    0.118E-01
DAV:  10    -0.355332675738E+03    0.13182E-04   -0.73044E-05 23896   0.305E-02    0.971E-02
DAV:  11    -0.355332665065E+03    0.10673E-04   -0.73417E-05 25008   0.351E-02    0.781E-02
[...]
DAV:   7    -0.355339293186E+03    0.96827E-05   -0.27579E-04 33288   0.536E-02    0.219E-01
DAV:   8    -0.355339171660E+03    0.12153E-03   -0.32652E-04 37672   0.671E-02    0.140E-01
DAV:   9    -0.355339252526E+03   -0.80866E-04   -0.50674E-04 31592   0.659E-02    0.209E-01
DAV:  10    -0.355339227480E+03    0.25046E-04   -0.34892E-04 27672   0.581E-02    0.105E-01
DAV:  11    -0.355339247168E+03   -0.19688E-04   -0.69181E-05 24560   0.336E-02    0.830E-02
DAV:  12    -0.355339256027E+03   -0.88596E-05   -0.33374E-05 23344   0.225E-02
  52 F= -.35533926E+03 E0= -.35532249E+03  d E =0.524985E-03  mag=     8.0000
       N       E                     dE             d eps       ncg     rms          rms(c)
DAV:   1    -0.355333427881E+03    0.58193E-02   -0.20301E+00 31288   0.372E+00    0.208E-01
DAV:   2    -0.355339581623E+03   -0.61537E-02   -0.61944E-02 28288   0.627E-01    0.390E-01
DAV:   3    -0.355339782801E+03   -0.20118E-03   -0.34718E-03 39416   0.183E-01    0.502E-01
DAV:   4    -0.355339317680E+03    0.46512E-03   -0.12151E-03 38192   0.103E-01    0.206E-01
DAV:   5    -0.355339320838E+03   -0.31584E-05   -0.44777E-04 34232   0.535E-02    0.173E-01
DAV:   6    -0.355339281758E+03    0.39080E-04   -0.26787E-04 23008   0.383E-02    0.131E-01
DAV:   7    -0.355339322282E+03   -0.40524E-04   -0.34660E-04 32336   0.503E-02    0.238E-01
DAV:   8    -0.355339206449E+03    0.11583E-03   -0.25284E-04 35176   0.523E-02    0.971E-02
DAV:   9    -0.355339217653E+03   -0.11204E-04   -0.83409E-05 26296   0.382E-02    0.933E-02
DAV:  10    -0.355339231434E+03   -0.13781E-04   -0.86795E-05 24200   0.329E-02    0.985E-02
DAV:  11    -0.355339226823E+03    0.46110E-05   -0.52056E-05 21616   0.260E-02
  53 F= -.35533923E+03 E0= -.35532244E+03  d E =0.292044E-04  mag=     8.0000
       N       E                     dE             d eps       ncg     rms          rms(c)
DAV:   1    -0.355308457001E+03    0.30774E-01   -0.10016E+01 31416   0.850E+00    0.445E-01
DAV:   2    -0.355340060410E+03   -0.31603E-01   -0.32046E-01 28288   0.142E+00    0.825E-01
DAV:   3    -0.355341460697E+03   -0.14003E-02   -0.27295E-02 39760   0.391E-01    0.117E+00
DAV:   4    -0.355339106498E+03    0.23542E-02   -0.11558E-02 39408   0.235E-01    0.590E-01
DAV:   5    -0.355338748442E+03    0.35806E-03   -0.27208E-03 38464   0.132E-01    0.287E-01
DAV:   6    -0.355338760783E+03   -0.12340E-04   -0.97514E-04 39176   0.102E-01    0.317E-01
DAV:   7    -0.355338735705E+03    0.25078E-04   -0.82468E-04 36904   0.999E-02    0.399E-01
DAV:   8    -0.355338362431E+03    0.37327E-03   -0.75120E-04 38560   0.982E-02    0.180E-01
DAV:   9    -0.355338412573E+03   -0.50142E-04   -0.54335E-04 39408   0.740E-02    0.226E-01
DAV:  10    -0.355338292427E+03    0.12015E-03   -0.35317E-04 38312   0.703E-02    0.892E-02
DAV:  11    -0.355338433981E+03   -0.14155E-03   -0.25294E-04 31512   0.538E-02    0.236E-01
DAV:  12    -0.355338354620E+03    0.79361E-04   -0.15931E-04 26416   0.461E-02    0.943E-02
DAV:  13    -0.355338374267E+03   -0.19647E-04   -0.29998E-05 23096   0.223E-02    0.906E-02
DAV:  14    -0.355338377825E+03   -0.35578E-05   -0.23832E-05 21568   0.190E-02
  54 F= -.35533838E+03 E0= -.35532172E+03  d E =0.848998E-03  mag=     8.0000
       N       E                     dE             d eps       ncg     rms          rms(c)
DAV:   1    -0.355227209015E+03    0.11117E+00   -0.31871E+01 31200   0.149E+01    0.829E-01
DAV:   2    -0.355331388532E+03   -0.10418E+00   -0.10590E+00 28288   0.254E+00    0.139E+00
DAV:   3    -0.355335556086E+03   -0.41676E-02   -0.57444E-02 39136   0.678E-01    0.195E+00
DAV:   4    -0.355327832529E+03    0.77236E-02   -0.16621E-02 38408   0.396E-01    0.679E-01
DAV:   5    -0.355328562843E+03   -0.73031E-03   -0.58176E-03 40208   0.254E-01    0.826E-01
DAV:   6    -0.355328381716E+03    0.18113E-03   -0.80377E-03 38808   0.237E-01    0.860E-01
DAV:   7    -0.355328711134E+03   -0.32942E-03   -0.14726E-02 37328   0.262E-01    0.102E+00
DAV:   8    -0.355326445671E+03    0.22655E-02   -0.85976E-03 37760   0.231E-01    0.439E-01
DAV:   9    -0.355326761912E+03   -0.31624E-03   -0.24234E-03 39048   0.174E-01    0.502E-01
DAV:  10    -0.355326471624E+03    0.29029E-03   -0.13239E-03 38576   0.135E-01    0.238E-01
DAV:  11    -0.355326550490E+03   -0.78866E-04   -0.34412E-04 37864   0.733E-02    0.188E-01
DAV:  12    -0.355326558603E+03   -0.81128E-05   -0.74795E-05 25536   0.320E-02
  55 F= -.35532656E+03 E0= -.35530987E+03  d E =0.118192E-01  mag=     8.0000
       N       E                     dE             d eps       ncg     rms          rms(c)
DAV:   1    -0.355281014652E+03    0.45536E-01   -0.12933E+01 31432   0.106E+01    0.662E-01
DAV:   2    -0.355336482333E+03   -0.55468E-01   -0.56893E-01 28288   0.191E+00    0.127E+00
DAV:   3    -0.355336112591E+03    0.36974E-03   -0.33115E-02 38408   0.512E-01    0.115E+00
DAV:   4    -0.355334760901E+03    0.13517E-02   -0.13931E-02 39104   0.291E-01    0.814E-01
DAV:   5    -0.355334512403E+03    0.24850E-03   -0.86764E-03 38256   0.208E-01    0.739E-01
DAV:   6    -0.355334306470E+03    0.20593E-03   -0.58153E-03 39040   0.193E-01    0.683E-01
DAV:   7    -0.355335251230E+03   -0.94476E-03   -0.89284E-03 38576   0.247E-01    0.981E-01
DAV:   8    -0.355333313975E+03    0.19373E-02   -0.53289E-03 38208   0.230E-01    0.522E-01
DAV:   9    -0.355333348919E+03   -0.34944E-04   -0.23493E-03 38736   0.179E-01    0.478E-01
DAV:  10    -0.355333031248E+03    0.31767E-03   -0.11446E-03 38648   0.130E-01    0.267E-01
DAV:  11    -0.355332954613E+03    0.76635E-04   -0.42484E-04 38936   0.893E-02    0.160E-01
DAV:  12    -0.355332977326E+03   -0.22713E-04   -0.30301E-04 39648   0.644E-02    0.188E-01
DAV:  13    -0.355333029879E+03   -0.52553E-04   -0.34961E-04 33176   0.725E-02    0.257E-01
DAV:  14    -0.355333000385E+03    0.29494E-04   -0.30030E-04 37480   0.738E-02    0.164E-01
DAV:  15    -0.355333025494E+03   -0.25109E-04   -0.25394E-04 37312   0.619E-02    0.128E-01
DAV:  16    -0.355333044665E+03   -0.19171E-04   -0.99674E-05 26480   0.393E-02    0.125E-01
DAV:  17    -0.355333031342E+03    0.13323E-04   -0.55680E-05 23712   0.306E-02    0.697E-02
DAV:  18    -0.355333034459E+03   -0.31168E-05   -0.28633E-05 22552   0.176E-02
  56 F= -.35533303E+03 E0= -.35531633E+03  d E =-.647586E-02  mag=     8.0000
       N       E                     dE             d eps       ncg     rms          rms(c)
DAV:   1    -0.355317362628E+03    0.15669E-01   -0.34048E+00 31592   0.594E+00    0.445E-01
DAV:   2    -0.355340100754E+03   -0.22738E-01   -0.21929E-01 28288   0.117E+00    0.130E+00
DAV:   3    -0.355337428731E+03    0.26720E-02   -0.17596E-02 35912   0.370E-01    0.600E-01
DAV:   4    -0.355337371650E+03    0.57081E-04   -0.18894E-03 38120   0.133E-01    0.430E-01
DAV:   5    -0.355337599193E+03   -0.22754E-03   -0.19249E-03 38848   0.121E-01    0.572E-01
DAV:   6    -0.355337581558E+03    0.17635E-04   -0.36611E-03 38024   0.134E-01    0.636E-01
DAV:   7    -0.355337384906E+03    0.19665E-03   -0.35312E-03 38736   0.158E-01    0.586E-01
DAV:   8    -0.355336553667E+03    0.83124E-03   -0.21481E-03 38304   0.175E-01    0.359E-01
DAV:   9    -0.355336738737E+03   -0.18507E-03   -0.13959E-03 39120   0.138E-01    0.452E-01
DAV:  10    -0.355336679137E+03    0.59600E-04   -0.13754E-03 38152   0.117E-01    0.286E-01
DAV:  11    -0.355336740524E+03   -0.61387E-04   -0.40456E-04 38264   0.805E-02    0.201E-01
DAV:  12    -0.355336773310E+03   -0.32786E-04   -0.65490E-05 26296   0.273E-02    0.210E-01
DAV:  13    -0.355336757308E+03    0.16002E-04   -0.16466E-05 18952   0.154E-02    0.211E-01
DAV:  14    -0.355336776258E+03   -0.18950E-04   -0.22466E-05 21552   0.196E-02    0.194E-01
DAV:  15    -0.355336804145E+03   -0.27888E-04   -0.17886E-04 34072   0.583E-02    0.151E-01
DAV:  16    -0.355336800711E+03    0.34348E-05   -0.18293E-04 34240   0.482E-02    0.135E-01
DAV:  17    -0.355336769668E+03    0.31042E-04   -0.87929E-05 30416   0.381E-02    0.463E-02
DAV:  18    -0.355336773272E+03   -0.36036E-05   -0.42354E-05 25576   0.256E-02
  57 F= -.35533677E+03 E0= -.35532014E+03  d E =-.373881E-02  mag=     8.0000
       N       E                     dE             d eps       ncg     rms          rms(c)
DAV:   1    -0.355332001856E+03    0.47678E-02   -0.14752E+00 31152   0.336E+00    0.189E-01
DAV:   2    -0.355337179422E+03   -0.51776E-02   -0.52415E-02 28288   0.584E-01    0.364E-01
DAV:   3    -0.355337163772E+03    0.15651E-04   -0.29974E-03 37976   0.153E-01    0.358E-01
DAV:   4    -0.355336946375E+03    0.21740E-03   -0.76371E-04 39464   0.817E-02    0.195E-01
DAV:   5    -0.355337002617E+03   -0.56242E-04   -0.56013E-04 33152   0.641E-02    0.264E-01
DAV:   6    -0.355336917503E+03    0.85114E-04   -0.59088E-04 28432   0.595E-02    0.186E-01
DAV:   7    -0.355337007110E+03   -0.89607E-04   -0.66438E-04 36056   0.683E-02    0.290E-01
DAV:   8    -0.355336849659E+03    0.15745E-03   -0.48882E-04 36696   0.667E-02    0.147E-01
DAV:   9    -0.355336842171E+03    0.74876E-05   -0.16750E-04 32792   0.478E-02    0.113E-01
DAV:  10    -0.355336830263E+03    0.11908E-04   -0.79861E-05 23304   0.339E-02    0.778E-02
DAV:  11    -0.355336827408E+03    0.28547E-05   -0.49631E-05 23520   0.278E-02
  58 F= -.35533683E+03 E0= -.35532012E+03  d E =-.541363E-04  mag=     8.0000
       N       E                     dE             d eps       ncg     rms          rms(c)
DAV:   1    -0.355334990611E+03    0.18397E-02   -0.40906E-01 31664   0.176E+00    0.126E-01
DAV:   2    -0.355336576771E+03   -0.15862E-02   -0.14362E-02 28592   0.318E-01    0.406E-01
DAV:   3    -0.355336298649E+03    0.27812E-03   -0.14151E-03 36008   0.108E-01    0.165E-01
DAV:   4    -0.355336360222E+03   -0.61573E-04   -0.46096E-04 29096   0.486E-02    0.206E-01
DAV:   5    -0.355336288001E+03    0.72221E-04   -0.21020E-04 21960   0.388E-02    0.104E-01
DAV:   6    -0.355336296282E+03   -0.82814E-05   -0.73372E-05 22672   0.310E-02
  59 F= -.35533630E+03 E0= -.35531951E+03  d E =0.531126E-03  mag=     8.0000
       N       E                     dE             d eps       ncg     rms          rms(c)
DAV:   1    -0.355024792829E+03    0.31150E+00   -0.10047E+02 31512   0.262E+01    0.143E+00
DAV:   2    -0.355328035635E+03   -0.30324E+00   -0.30976E+00 28408   0.448E+00    0.187E+00
DAV:   3    -0.355351317714E+03   -0.23282E-01   -0.13791E-01 39592   0.109E+00    0.407E+00
DAV:   4    -0.355321957181E+03    0.29361E-01   -0.83928E-02 38280   0.742E-01    0.161E+00
DAV:   5    -0.355321464733E+03    0.49245E-03   -0.24268E-02 38032   0.345E-01    0.107E+00
DAV:   6    -0.355321142783E+03    0.32195E-03   -0.89376E-03 39816   0.264E-01    0.981E-01
DAV:   7    -0.355319998461E+03    0.11443E-02   -0.61432E-03 38072   0.227E-01    0.983E-01
DAV:   8    -0.355318549412E+03    0.14490E-02   -0.27495E-03 39528   0.190E-01    0.753E-01
DAV:   9    -0.355319768420E+03   -0.12190E-02   -0.72171E-03 39680   0.239E-01    0.129E+00
DAV:  10    -0.355316620857E+03    0.31476E-02   -0.77054E-03 38840   0.291E-01    0.582E-01
DAV:  11    -0.355318771899E+03   -0.21510E-02   -0.11195E-02 39440   0.318E-01    0.112E+00
DAV:  12    -0.355316809585E+03    0.19623E-02   -0.75330E-03 37432   0.271E-01    0.498E-01
DAV:  13    -0.355317158975E+03   -0.34939E-03   -0.15337E-03 38992   0.161E-01    0.393E-01
DAV:  14    -0.355317711142E+03   -0.55217E-03   -0.13306E-03 39120   0.138E-01    0.555E-01
DAV:  15    -0.355317322975E+03    0.38817E-03   -0.10408E-03 39648   0.120E-01    0.244E-01
DAV:  16    -0.355317442571E+03   -0.11960E-03   -0.59864E-04 37336   0.882E-02    0.206E-01
DAV:  17    -0.355317433102E+03    0.94689E-05   -0.30446E-04 38056   0.657E-02    0.148E-01
DAV:  18    -0.355317443591E+03   -0.10489E-04   -0.13956E-04 29760   0.442E-02    0.112E-01
DAV:  19    -0.355317464544E+03   -0.20953E-04   -0.92964E-05 26304   0.348E-02    0.115E-01
DAV:  20    -0.355317470262E+03   -0.57177E-05   -0.51903E-05 23712   0.282E-02
  60 F= -.35531747E+03 E0= -.35530029E+03  d E =0.188260E-01  mag=     8.0000
       N       E                     dE             d eps       ncg     rms          rms(c)
DAV:   1    -0.355174951429E+03    0.14251E+00   -0.21476E+01 33056   0.159E+01    0.110E+00
DAV:   2    -0.355334275829E+03   -0.15932E+00   -0.15020E+00 28288   0.310E+00    0.382E+00
DAV:   3    -0.355310884369E+03    0.23391E-01   -0.17069E-01 34432   0.100E+00    0.172E+00
DAV:   4    -0.355312910041E+03   -0.20257E-02   -0.28858E-02 37224   0.419E-01    0.153E+00
DAV:   5    -0.355309986578E+03    0.29235E-02   -0.14271E-02 35648   0.304E-01    0.981E-01
DAV:   6    -0.355311830273E+03   -0.18437E-02   -0.10764E-02 37904   0.357E-01    0.130E+00
DAV:   7    -0.355312654756E+03   -0.82448E-03   -0.20402E-02 38752   0.374E-01    0.161E+00
DAV:   8    -0.355307625546E+03    0.50292E-02   -0.12886E-02 39256   0.367E-01    0.871E-01
DAV:   9    -0.355308157774E+03   -0.53223E-03   -0.81008E-03 39040   0.322E-01    0.981E-01
DAV:  10    -0.355306886294E+03    0.12715E-02   -0.63338E-03 39368   0.283E-01    0.595E-01
DAV:  11    -0.355307015743E+03   -0.12945E-03   -0.28509E-03 39496   0.222E-01    0.495E-01
DAV:  12    -0.355307340010E+03   -0.32427E-03   -0.19628E-03 38128   0.156E-01    0.525E-01
DAV:  13    -0.355307175305E+03    0.16470E-03   -0.93702E-04 37760   0.115E-01    0.297E-01
DAV:  14    -0.355307325593E+03   -0.15029E-03   -0.29599E-04 38296   0.636E-02    0.336E-01
DAV:  15    -0.355307426818E+03   -0.10123E-03   -0.27317E-04 33696   0.648E-02    0.360E-01
DAV:  16    -0.355307390701E+03    0.36118E-04   -0.22019E-04 33752   0.544E-02    0.282E-01
DAV:  17    -0.355307327609E+03    0.63092E-04   -0.38796E-04 37736   0.697E-02    0.162E-01
DAV:  18    -0.355307334176E+03   -0.65668E-05   -0.32835E-04 39312   0.666E-02    0.118E-01
DAV:  19    -0.355307352377E+03   -0.18201E-04   -0.20653E-04 33672   0.528E-02    0.723E-02
DAV:  20    -0.355307374661E+03   -0.22284E-04   -0.73173E-05 26856   0.287E-02    0.550E-02
DAV:  21    -0.355307376181E+03   -0.15203E-05   -0.20744E-05 20992   0.149E-02
  61 F= -.35530738E+03 E0= -.35529040E+03  d E =0.100941E-01  mag=     8.0000
       N       E                     dE             d eps       ncg     rms          rms(c)
DAV:   1    -0.355065836242E+03    0.24154E+00   -0.82506E+01 31664   0.251E+01    0.136E+00
DAV:   2    -0.355342048888E+03   -0.27621E+00   -0.28513E+00 28408   0.431E+00    0.164E+00
DAV:   3    -0.355358929232E+03   -0.16880E-01   -0.13913E-01 39712   0.101E+00    0.345E+00
DAV:   4    -0.355335541978E+03    0.23387E-01   -0.79882E-02 38912   0.710E-01    0.118E+00
DAV:   5    -0.355337135230E+03   -0.15933E-02   -0.20598E-02 38688   0.375E-01    0.109E+00
DAV:   6    -0.355337261928E+03   -0.12670E-03   -0.13357E-02 39384   0.302E-01    0.126E+00
DAV:   7    -0.355336445589E+03    0.81634E-03   -0.19027E-02 36792   0.352E-01    0.131E+00
DAV:   8    -0.355333155845E+03    0.32897E-02   -0.11363E-02 38456   0.322E-01    0.725E-01
DAV:   9    -0.355333778891E+03   -0.62305E-03   -0.63840E-03 39584   0.279E-01    0.951E-01
DAV:  10    -0.355332564548E+03    0.12143E-02   -0.53239E-03 38704   0.245E-01    0.556E-01
DAV:  11    -0.355332639833E+03   -0.75285E-04   -0.19781E-03 39352   0.192E-01    0.351E-01
DAV:  12    -0.355333041293E+03   -0.40146E-03   -0.10734E-03 38328   0.113E-01    0.355E-01
DAV:  13    -0.355333113882E+03   -0.72589E-04   -0.63521E-04 36904   0.847E-02    0.356E-01
DAV:  14    -0.355333117961E+03   -0.40791E-05   -0.38166E-04 38424   0.738E-02    0.269E-01
DAV:  15    -0.355333183799E+03   -0.65839E-04   -0.55864E-04 38744   0.955E-02    0.257E-01
DAV:  16    -0.355333271860E+03   -0.88061E-04   -0.72199E-04 38672   0.101E-01    0.354E-01
DAV:  17    -0.355333017265E+03    0.25460E-03   -0.50407E-04 38016   0.992E-02    0.100E-01
DAV:  18    -0.355333086852E+03   -0.69587E-04   -0.15543E-04 32240   0.510E-02    0.861E-02
DAV:  19    -0.355333106331E+03   -0.19480E-04   -0.59749E-05 25832   0.345E-02    0.791E-02
DAV:  20    -0.355333113092E+03   -0.67604E-05   -0.30660E-05 24776   0.236E-02
  62 F= -.35533311E+03 E0= -.35531641E+03  d E =-.257369E-01  mag=     8.0000
       N       E                     dE             d eps       ncg     rms          rms(c)
DAV:   1    -0.355256926062E+03    0.76180E-01   -0.82942E+00 32576   0.103E+01    0.735E-01
DAV:   2    -0.355329208145E+03   -0.72282E-01   -0.70197E-01 28288   0.206E+00    0.199E+00
DAV:   3    -0.355323758523E+03    0.54496E-02   -0.32481E-02 36160   0.569E-01    0.110E+00
DAV:   4    -0.355323911975E+03   -0.15345E-03   -0.87857E-03 37344   0.266E-01    0.878E-01
DAV:   5    -0.355323577255E+03    0.33472E-03   -0.99119E-03 36288   0.231E-01    0.838E-01
DAV:   6    -0.355323409697E+03    0.16756E-03   -0.60195E-03 38952   0.171E-01    0.806E-01
DAV:   7    -0.355323165388E+03    0.24431E-03   -0.84971E-03 38912   0.210E-01    0.791E-01
DAV:   8    -0.355321972075E+03    0.11933E-02   -0.64739E-03 39968   0.244E-01    0.675E-01
DAV:   9    -0.355322169934E+03   -0.19786E-03   -0.61282E-03 38688   0.223E-01    0.776E-01
DAV:  10    -0.355321474187E+03    0.69575E-03   -0.22464E-03 37960   0.186E-01    0.318E-01
DAV:  11    -0.355321840955E+03   -0.36677E-03   -0.10797E-03 38232   0.134E-01    0.376E-01
DAV:  12    -0.355321820849E+03    0.20106E-04   -0.49902E-04 35056   0.796E-02    0.293E-01
DAV:  13    -0.355321817916E+03    0.29322E-05   -0.16015E-04 30416   0.482E-02    0.272E-01
DAV:  14    -0.355321837514E+03   -0.19597E-04   -0.10377E-04 32008   0.435E-02    0.256E-01
DAV:  15    -0.355321763440E+03    0.74073E-04   -0.55325E-04 37784   0.876E-02    0.106E-01
DAV:  16    -0.355321799008E+03   -0.35568E-04   -0.28982E-04 38328   0.563E-02    0.787E-02
DAV:  17    -0.355321840424E+03   -0.41415E-04   -0.11858E-04 31424   0.405E-02    0.880E-02
DAV:  18    -0.355321850323E+03   -0.98993E-05   -0.47677E-05 22592   0.279E-02
  63 F= -.35532185E+03 E0= -.35530489E+03  d E =0.112628E-01  mag=     8.0000
       N       E                     dE             d eps       ncg     rms          rms(c)
DAV:   1    -0.355281997803E+03    0.39843E-01   -0.78419E+00 32368   0.954E+00    0.657E-01
DAV:   2    -0.355343131560E+03   -0.61134E-01   -0.57549E-01 28288   0.185E+00    0.247E+00
DAV:   3    -0.355334118493E+03    0.90131E-02   -0.78410E-02 34888   0.629E-01    0.109E+00
DAV:   4    -0.355334745576E+03   -0.62708E-03   -0.93506E-03 37184   0.268E-01    0.895E-01
DAV:   5    -0.355333768231E+03    0.97735E-03   -0.36299E-03 35104   0.194E-01    0.586E-01
DAV:   6    -0.355333879827E+03   -0.11160E-03   -0.22358E-03 38936   0.150E-01    0.611E-01
DAV:   7    -0.355333988306E+03   -0.10848E-03   -0.43836E-03 38440   0.186E-01    0.746E-01
DAV:   8    -0.355332967920E+03    0.10204E-02   -0.44330E-03 39072   0.207E-01    0.588E-01
DAV:   9    -0.355332812803E+03    0.15512E-03   -0.32321E-03 38792   0.178E-01    0.547E-01
DAV:  10    -0.355332589501E+03    0.22330E-03   -0.22882E-03 38504   0.173E-01    0.351E-01
DAV:  11    -0.355332643521E+03   -0.54020E-04   -0.95590E-04 38736   0.135E-01    0.248E-01
DAV:  12    -0.355332809264E+03   -0.16574E-03   -0.49858E-04 34656   0.826E-02    0.310E-01
DAV:  13    -0.355332741821E+03    0.67443E-04   -0.26954E-04 30752   0.590E-02    0.208E-01
DAV:  14    -0.355332786367E+03   -0.44545E-04   -0.83659E-05 27896   0.374E-02    0.217E-01
DAV:  15    -0.355332876390E+03   -0.90023E-04   -0.28543E-04 36368   0.641E-02    0.259E-01
DAV:  16    -0.355332815276E+03    0.61113E-04   -0.19207E-04 30896   0.460E-02    0.166E-01
DAV:  17    -0.355332781041E+03    0.34235E-04   -0.14174E-04 33424   0.475E-02    0.652E-02
DAV:  18    -0.355332804109E+03   -0.23067E-04   -0.92931E-05 27216   0.286E-02    0.609E-02
DAV:  19    -0.355332811463E+03   -0.73544E-05   -0.22334E-05 20480   0.197E-02
  64 F= -.35533281E+03 E0= -.35531607E+03  d E =-.109611E-01  mag=     8.0000
