       N       E                     dE             d eps       ncg     rms          ort
DAV:   1     0.562131465530E+04    0.56213E+04   -0.26887E+05  7696   0.164E+03
DAV:   2     0.237837738015E+03   -0.53835E+04   -0.49788E+04  7696   0.462E+02
DAV:   3    -0.377132234001E+03   -0.61497E+03   -0.60462E+03  7696   0.173E+02
DAV:   4    -0.393519352086E+03   -0.16387E+02   -0.16278E+02  7696   0.292E+01
DAV:   5    -0.393939239645E+03   -0.41989E+00   -0.41905E+00  7696   0.399E+00
SDA:   6    -0.158164158519E+03    0.23578E+03   -0.41905E+00  7696   0.107E+04 0.000E+00
CGA:   7    -0.243158975882E+03   -0.84995E+02   -0.11151E+03  7696   0.146E+04 0.156E+02
CGA:   8    -0.277484976213E+03   -0.34326E+02   -0.38919E+02  7696   0.716E+03-0.912E+02
CGA:   9    -0.287028264646E+03   -0.95433E+01   -0.16300E+02  7696   0.722E+03-0.234E+03
CGA:  10    -0.264268896668E+03    0.22759E+02   -0.10125E+02  7696   0.301E+04-0.118E+04
CGA:  11    -0.279274124916E+03   -0.15005E+02   -0.12146E+03  7696   0.229E+04-0.646E+03
CGA:  12    -0.289654446916E+03   -0.10380E+02   -0.67534E+02  7696   0.159E+04-0.623E+02
CGA:  13    -0.286264030416E+03    0.33904E+01   -0.67157E+02  7696   0.187E+04 0.511E+03
CGA:  14    -0.285760082842E+03    0.50395E+00   -0.97411E+02  7696   0.529E+03-0.724E+02
CGA:  15    -0.310469371696E+03   -0.24709E+02   -0.84826E+01  7696   0.104E+04-0.114E+04
CGA:  16    -0.280000507593E+03    0.30469E+02   -0.62431E+02  7696   0.334E+03-0.972E+02
CGA:  17    -0.286656384582E+03   -0.66559E+01   -0.23279E+01  7696   0.660E+03 0.689E+03
CGA:  18    -0.318824825062E+03   -0.32168E+02   -0.89692E+01  7696   0.498E+03-0.134E+04
CGA:  19    -0.291662102132E+03    0.27163E+02   -0.20773E+02  7696   0.132E+04-0.552E+03
CGA:  20    -0.303006317090E+03   -0.11344E+02   -0.28856E+02  7696   0.130E+04-0.124E+04
CGA:  21    -0.291549193862E+03    0.11457E+02   -0.47591E+02  7696   0.348E+03-0.208E+03
CGA:  22    -0.297703697506E+03   -0.61545E+01   -0.24845E+01  7696   0.604E+03 0.561E+03
CGA:  23    -0.323206942913E+03   -0.25503E+02   -0.92725E+01  7696   0.731E+03-0.117E+04
CGA:  24    -0.303404222414E+03    0.19803E+02   -0.29923E+02  7696   0.129E+04-0.447E+03
CGA:  25    -0.293479258762E+03    0.99250E+01   -0.38393E+02  7696   0.548E+03-0.312E+03
CGA:  26    -0.326754522660E+03   -0.33275E+02   -0.68496E+01  7696   0.244E+03-0.735E+03
CGA:  27    -0.323422284351E+03    0.33322E+01   -0.53113E+01  7696   0.906E+03-0.336E+03
CGA:  28    -0.305462528689E+03    0.17960E+02   -0.32430E+02  7696   0.110E+04-0.355E+03
CGA:  29    -0.312772993824E+03   -0.73105E+01   -0.18537E+02  7696   0.160E+04-0.133E+04
CGA:  30    -0.296832916802E+03    0.15940E+02   -0.53262E+02  7696   0.303E+03-0.179E+03
CGA:  31    -0.321784655041E+03   -0.24952E+02   -0.33065E+01  7696   0.247E+03 0.633E+03
CGA:  32    -0.328335615503E+03   -0.65510E+01   -0.34953E+01  7696   0.210E+03-0.156E+03
CGA:  33    -0.327491452175E+03    0.84416E+00   -0.50513E+01  7696   0.259E+03-0.120E+03
CGA:  34    -0.328835825288E+03   -0.13444E+01   -0.39438E+01  7696   0.212E+03-0.212E+03
CGA:  35    -0.325870420187E+03    0.29654E+01   -0.39072E+01  7696   0.707E+03-0.418E+03
CGA:  36    -0.314991458179E+03    0.10879E+02   -0.14717E+02  7696   0.153E+04-0.817E+03
CGA:  37    -0.306334048385E+03    0.86574E+01   -0.42066E+02  7696   0.868E+03-0.414E+03
CGA:  38    -0.321081562863E+03   -0.14748E+02   -0.16211E+02  7696   0.421E+03-0.591E+03
CGA:  39    -0.317042310909E+03    0.40393E+01   -0.75306E+01  7696   0.775E+03-0.632E+03
CGA:  40    -0.314033877918E+03    0.30084E+01   -0.14266E+02  7696   0.943E+03-0.787E+03
CGA:  41    -0.312323432629E+03    0.17104E+01   -0.21112E+02  7696   0.495E+03-0.383E+03
CGA:  42    -0.328407792018E+03   -0.16084E+02   -0.40591E+01  7696   0.357E+03 0.731E+03
CGA:  43    -0.328542012535E+03   -0.13422E+00   -0.43445E+01  7696   0.430E+03-0.372E+03
CGA:  44    -0.322746960705E+03    0.57951E+01   -0.70045E+01  7696   0.108E+04-0.599E+03
CGA:  45    -0.315693505555E+03    0.70535E+01   -0.18599E+02  7696   0.948E+03-0.604E+03
CGA:  46    -0.313908624111E+03    0.17849E+01   -0.17855E+02  7696   0.438E+03-0.360E+03
CGA:  47    -0.326434023346E+03   -0.12525E+02   -0.29187E+01  7696   0.707E+03 0.897E+03
CGA:  48    -0.323634255621E+03    0.27998E+01   -0.90313E+01  7696   0.109E+04-0.862E+03
CGA:  49    -0.315934284520E+03    0.77000E+01   -0.18727E+02  7696   0.623E+03-0.400E+03
CGA:  50    -0.329321091892E+03   -0.13387E+02   -0.40770E+01  7696   0.352E+03 0.566E+03
CGA:  51    -0.329080952221E+03    0.24014E+00   -0.35444E+01  7696   0.527E+03-0.491E+03
CGA:  52    -0.325506063844E+03    0.35749E+01   -0.72275E+01  7696   0.724E+03-0.436E+03
CGA:  53    -0.323403310323E+03    0.21028E+01   -0.83338E+01  7696   0.138E+04-0.118E+04
CGA:  54    -0.318253518049E+03    0.51498E+01   -0.21147E+02  7696   0.680E+03-0.461E+03
CGA:  55    -0.329865451204E+03   -0.11612E+02   -0.47488E+01  7696   0.253E+03 0.310E+03
CGA:  56    -0.327794828089E+03    0.20706E+01   -0.27805E+01  7696   0.792E+03-0.785E+03
CGA:  57    -0.324757997429E+03    0.30368E+01   -0.99116E+01  7696   0.765E+03-0.557E+03
CGA:  58    -0.327408998261E+03   -0.26510E+01   -0.73231E+01  7696   0.845E+03-0.108E+04
CGA:  59    -0.325096592282E+03    0.23124E+01   -0.99870E+01  7696   0.792E+03-0.635E+03
CGA:  60    -0.328348697024E+03   -0.32521E+01   -0.71688E+01  7696   0.687E+03-0.960E+03
CGA:  61    -0.327649132465E+03    0.69956E+00   -0.72063E+01  7696   0.614E+03-0.559E+03
CGA:  62    -0.330438252935E+03   -0.27891E+01   -0.48396E+01  7696   0.285E+03-0.502E+03
CGA:  63    -0.331150045005E+03   -0.71179E+00   -0.22195E+01  7696   0.122E+03-0.177E+03
CGA:  64    -0.331759553945E+03   -0.60951E+00   -0.58391E+00  7696   0.719E+00-0.529E+00
CGA:  65    -0.331887432225E+03   -0.12788E+00   -0.14360E-01  7696   0.834E+01 0.940E-01
CGA:  66    -0.331949321535E+03   -0.61889E-01   -0.33309E-01  7696   0.572E+01 0.808E+01
CGA:  67    -0.332001188597E+03   -0.51867E-01   -0.56241E-01  7696   0.136E+01-0.382E+00
CGA:  68    -0.332017545073E+03   -0.16356E-01   -0.18363E-01  7696   0.108E+01-0.979E-01
CGA:  69    -0.332038471094E+03   -0.20926E-01   -0.20914E-01  7696   0.244E+01 0.873E-03
CGA:  70    -0.331948874206E+03    0.89597E-01   -0.20100E+00  7696   0.355E+02-0.117E+02
CGA:  71    -0.332197084870E+03   -0.24821E+00   -0.25675E+00  7696   0.342E+01-0.122E+01
CGA:  72    -0.332229677586E+03   -0.32593E-01   -0.33497E-01  7696   0.176E+01-0.798E-01
CGA:  73    -0.332253570411E+03   -0.23893E-01   -0.24636E-01  7696   0.968E+00-0.261E-01
CGA:  74    -0.332281766211E+03   -0.28196E-01   -0.28998E-01  7696   0.629E+00 0.446E-01
CGA:  75    -0.332297450784E+03   -0.15685E-01   -0.15552E-01  7696   0.593E+00 0.506E-03
CGA:  76    -0.332316201145E+03   -0.18750E-01   -0.19116E-01  7696   0.944E+00 0.497E-01
CGA:  77    -0.332338984371E+03   -0.22783E-01   -0.22668E-01  7696   0.994E+00 0.678E-03
CGA:  78    -0.332348770049E+03   -0.97857E-02   -0.10250E-01  7696   0.349E+00-0.351E-01
CGA:  79    -0.332355339986E+03   -0.65699E-02   -0.67207E-02  7696   0.236E+00-0.119E-02
CGA:  80    -0.332361872909E+03   -0.65329E-02   -0.65397E-02  7696   0.290E+00 0.506E-03
CGA:  81    -0.332373193054E+03   -0.11320E-01   -0.11216E-01  7696   0.460E+00 0.112E-01
CGA:  82    -0.332377987149E+03   -0.47941E-02   -0.46938E-02  7696   0.164E+00 0.887E-02
CGA:  83    -0.332380884757E+03   -0.28976E-02   -0.29660E-02  7696   0.964E-01-0.119E-02
CGA:  84    -0.332383653648E+03   -0.27689E-02   -0.27719E-02  7696   0.106E+00 0.614E-03
CGA:  85    -0.332388008473E+03   -0.43548E-02   -0.43499E-02  7696   0.955E-01 0.232E-03
CGA:  86    -0.332389868389E+03   -0.18599E-02   -0.18702E-02  7696   0.648E-01-0.125E-03
CGA:  87    -0.332390875928E+03   -0.10075E-02   -0.10312E-02  7696   0.582E-01-0.769E-03
CGA:  88    -0.332391879693E+03   -0.10038E-02   -0.10058E-02  7696   0.459E-01-0.198E-03
CGA:  89    -0.332393798375E+03   -0.19187E-02   -0.19079E-02  7696   0.510E-01 0.560E-03
CGA:  90    -0.332395091214E+03   -0.12928E-02   -0.12950E-02  7696   0.385E-01 0.571E-05
CGA:  91    -0.332395701959E+03   -0.61074E-03   -0.61732E-03  7696   0.272E-01-0.286E-03
CGA:  92    -0.332396125297E+03   -0.42334E-03   -0.42290E-03  7696   0.215E-01-0.982E-04
CGA:  93    -0.332397106399E+03   -0.98110E-03   -0.96531E-03  7696   0.266E-01 0.739E-03
CGA:  94    -0.332397859541E+03   -0.75314E-03   -0.75290E-03  7696   0.243E-01-0.140E-03
CGA:  95    -0.332398261600E+03   -0.40206E-03   -0.41012E-03  7696   0.185E-01-0.233E-03
CGA:  96    -0.332398557793E+03   -0.29619E-03   -0.29542E-03  7696   0.128E-01-0.752E-04
CGA:  97    -0.332399000424E+03   -0.44263E-03   -0.44268E-03  7696   0.118E-01-0.458E-04
CGA:  98    -0.332399422631E+03   -0.42221E-03   -0.42254E-03  7696   0.174E-01-0.685E-04
CGA:  99    -0.332399703587E+03   -0.28096E-03   -0.28448E-03  7696   0.124E-01-0.158E-03
CGA: 100    -0.332399938729E+03   -0.23514E-03   -0.23401E-03  7696   0.841E-02-0.755E-04
SDA: 101    -0.332400181851E+03   -0.24312E-03   -0.24292E-03  7696   0.694E-02 0.308E-04
CGA: 102    -0.332400256355E+03   -0.74505E-04   -0.74736E-04  7696   0.222E-02-0.202E-04
CGA: 103    -0.332400295725E+03   -0.39370E-04   -0.39393E-04  7696   0.245E-02-0.684E-05
CGA: 104    -0.332400418161E+03   -0.12244E-03   -0.12262E-03  7696   0.697E-02-0.109E-04
CGA: 105    -0.332400675477E+03   -0.25732E-03   -0.25814E-03  7696   0.439E-02-0.772E-04
CGA: 106    -0.332400980109E+03   -0.30463E-03   -0.30660E-03  7696   0.722E-02-0.533E-04
CGA: 107    -0.332401191119E+03   -0.21101E-03   -0.21116E-03  7696   0.156E-01 0.144E-03
CGA: 108    -0.332401478981E+03   -0.28786E-03   -0.28305E-03  7696   0.501E-02 0.105E-03
CGA: 109    -0.332401637518E+03   -0.15854E-03   -0.15834E-03  7696   0.411E-02 0.607E-04
CGA: 110    -0.332401708863E+03   -0.71346E-04   -0.71027E-04  7696   0.304E-02 0.111E-04
CGA: 111    -0.332401821048E+03   -0.11218E-03   -0.11185E-03  7696   0.810E-02 0.330E-04
CGA: 112    -0.332402036632E+03   -0.21558E-03   -0.21574E-03  7696   0.148E-02 0.261E-04
CGA: 113    -0.332402076493E+03   -0.39862E-04   -0.39891E-04  7696   0.384E-02 0.242E-05
CGA: 114    -0.332402352043E+03   -0.27555E-03   -0.28544E-03  7696   0.823E-02-0.242E-03
CGA: 115    -0.332402537952E+03   -0.18591E-03   -0.18813E-03  7696   0.458E-02 0.406E-04
CGA: 116    -0.332402594414E+03   -0.56462E-04   -0.55864E-04  7696   0.141E-02 0.109E-04
CGA: 117    -0.332402658514E+03   -0.64101E-04   -0.63923E-04  7696   0.280E-02 0.969E-05
CGA: 118    -0.332402740529E+03   -0.82015E-04   -0.82039E-04  7696   0.396E-02 0.862E-05
CGA: 119    -0.332402846465E+03   -0.10594E-03   -0.10648E-03  7696   0.340E-02 0.564E-04
CGA: 120    -0.332402937748E+03   -0.91283E-04   -0.91133E-04  7696   0.297E-02-0.541E-05
CGA: 121    -0.332403004871E+03   -0.67123E-04   -0.67601E-04  7696   0.228E-02 0.205E-04
CGA: 122    -0.332403081291E+03   -0.76420E-04   -0.76292E-04  7696   0.394E-02 0.328E-04
CGA: 123    -0.332403182054E+03   -0.10076E-03   -0.10110E-03  7696   0.122E-02 0.516E-04
CGA: 124    -0.332403210341E+03   -0.28287E-04   -0.28496E-04  7696   0.142E-02 0.219E-04
CGA: 125    -0.332403262770E+03   -0.52429E-04   -0.52042E-04  7696   0.254E-02 0.560E-04
CGA: 126    -0.332403418990E+03   -0.15622E-03   -0.15235E-03  7696   0.271E-02 0.140E-03
CGA: 127    -0.332403456336E+03   -0.37347E-04   -0.38390E-04  7696   0.933E-03 0.594E-05
CGA: 128    -0.332403508938E+03   -0.52602E-04   -0.51547E-04  7696   0.279E-02 0.421E-04
CGA: 129    -0.332403616263E+03   -0.10733E-03   -0.10696E-03  7696   0.264E-02 0.704E-04
CGA: 130    -0.332403670233E+03   -0.53969E-04   -0.55160E-04  7696   0.118E-02 0.245E-04
CGA: 131    -0.332403702108E+03   -0.31876E-04   -0.31927E-04  7696   0.160E-02 0.987E-05
SDA: 132    -0.332403843509E+03   -0.14140E-03   -0.13779E-03  7696   0.299E-02 0.734E-04
CGA: 133    -0.332403873399E+03   -0.29890E-04   -0.29848E-04  7696   0.614E-03-0.425E-05
CGA: 134    -0.332403904412E+03   -0.31013E-04   -0.31371E-04  7696   0.107E-02-0.190E-04
CGA: 135    -0.332403964021E+03   -0.59609E-04   -0.60654E-04  7696   0.244E-02-0.415E-04
CGA: 136    -0.332404025108E+03   -0.61087E-04   -0.60796E-04  7696   0.855E-03-0.452E-04
CGA: 137    -0.332404070855E+03   -0.45747E-04   -0.46976E-04  7696   0.905E-03-0.555E-04
CGA: 138    -0.332404111822E+03   -0.40968E-04   -0.41581E-04  7696   0.156E-02-0.431E-04
CGA: 139    -0.332404155137E+03   -0.43314E-04   -0.43239E-04  7696   0.137E-02-0.274E-04
CGA: 140    -0.332404177954E+03   -0.22818E-04   -0.22464E-04  7696   0.419E-03-0.990E-05
CGA: 141    -0.332404215306E+03   -0.37351E-04   -0.37553E-04  7696   0.191E-02-0.411E-05
CGA: 142    -0.332404260983E+03   -0.45678E-04   -0.45932E-04  7696   0.338E-03 0.117E-06
CGA: 143    -0.332404276965E+03   -0.15982E-04   -0.15907E-04  7696   0.757E-03 0.695E-05
CGA: 144    -0.332404302387E+03   -0.25423E-04   -0.25444E-04  7696   0.113E-02 0.103E-04
CGA: 145    -0.332404335467E+03   -0.33079E-04   -0.33311E-04  7696   0.321E-03 0.234E-04
CGA: 146    -0.332404344717E+03   -0.92497E-05   -0.93298E-05  7696   0.259E-03 0.937E-05
CGA: 147    -0.332404362587E+03   -0.17870E-04   -0.17253E-04  7696   0.733E-03 0.217E-04
CGA: 148    -0.332404387312E+03   -0.24726E-04   -0.24893E-04  7696   0.469E-03 0.263E-04
CGA: 149    -0.332404406755E+03   -0.19443E-04   -0.19391E-04  7696   0.354E-03 0.208E-04
CGA: 150    -0.332404412733E+03   -0.59781E-05   -0.61005E-05  7696   0.247E-03 0.475E-05
CGA: 151    -0.332404451989E+03   -0.39255E-04   -0.36786E-04  7696   0.518E-03 0.223E-04
CGA: 152    -0.332404461552E+03   -0.95637E-05   -0.96934E-05  7696   0.162E-03 0.436E-05
   1 F= -.33240446E+03 E0= -.33237734E+03  d E =-.332404E+03  mag=    32.0000
       N       E                     dE             d eps       ncg     rms          ort
SDA:   1    -0.332427932196E+03   -0.23480E-01    0.00000E+00  7696   0.120E+01 0.000E+00
CGA:   2    -0.332439855439E+03   -0.11923E-01   -0.11647E-01  7696   0.951E-01 0.242E-01
CGA:   3    -0.332441618378E+03   -0.17629E-02   -0.16759E-02  7696   0.214E-01 0.306E-02
CGA:   4    -0.332442107955E+03   -0.48958E-03   -0.49193E-03  7696   0.194E-01-0.325E-04
CGA:   5    -0.332443324080E+03   -0.12161E-02   -0.12132E-02  7696   0.357E-01 0.102E-03
CGA:   6    -0.332444144785E+03   -0.82071E-03   -0.81958E-03  7696   0.204E-01-0.521E-05
CGA:   7    -0.332444514002E+03   -0.36922E-03   -0.36963E-03  7696   0.869E-02-0.177E-04
CGA:   8    -0.332444779303E+03   -0.26530E-03   -0.26442E-03  7696   0.369E-02-0.377E-04
CGA:   9    -0.332445001474E+03   -0.22217E-03   -0.22130E-03  7696   0.949E-02 0.355E-04
CGA:  10    -0.332445141263E+03   -0.13979E-03   -0.14070E-03  7696   0.994E-03-0.443E-05
CGA:  11    -0.332445258657E+03   -0.11739E-03   -0.11719E-03  7696   0.256E-02 0.239E-05
CGA:  12    -0.332445304149E+03   -0.45492E-04   -0.45394E-04  7696   0.409E-03 0.194E-05
CGA:  13    -0.332445311410E+03   -0.72606E-05   -0.72607E-05  7696   0.229E-03-0.116E-05
CGA:  14    -0.332445327626E+03   -0.16216E-04   -0.16433E-04  7696   0.689E-03-0.646E-05
CGA:  15    -0.332445340894E+03   -0.13269E-04   -0.13152E-04  7696   0.252E-03-0.607E-05
CGA:  16    -0.332445349518E+03   -0.86237E-05   -0.86093E-05  7696   0.760E-04-0.303E-05
   2 F= -.33244535E+03 E0= -.33241845E+03  d E =-.408880E-01  mag=    32.0000
       N       E                     dE             d eps       ncg     rms          ort
SDA:   1    -0.329015302782E+03    0.34300E+01    0.00000E+00  7696   0.262E+03 0.000E+00
CGA:   2    -0.329896733263E+03   -0.88143E+00   -0.46517E+01  7696   0.725E+02-0.592E+02
CGA:   3    -0.331018009892E+03   -0.11213E+01   -0.85423E+00  7696   0.141E+02 0.131E+02
CGA:   4    -0.331233127064E+03   -0.21512E+00   -0.13036E+00  7696   0.751E+01 0.957E+01
CGA:   5    -0.331513287701E+03   -0.28016E+00   -0.27839E+00  7696   0.107E+02 0.586E+00
CGA:   6    -0.332592781094E+03   -0.10795E+01   -0.11624E+01  7696   0.275E+02-0.141E+01
CGA:   7    -0.332880554535E+03   -0.28777E+00   -0.35952E+00  7696   0.568E+01-0.304E+01
CGA:   8    -0.332969764233E+03   -0.89210E-01   -0.99552E-01  7696   0.140E+01-0.184E+00
CGA:   9    -0.333036584912E+03   -0.66821E-01   -0.66112E-01  7696   0.351E+01 0.425E-01
CGA:  10    -0.333155611941E+03   -0.11903E+00   -0.12005E+00  7696   0.201E+01 0.944E-01
CGA:  11    -0.333211516795E+03   -0.55905E-01   -0.52804E-01  7696   0.632E+00-0.115E-01
CGA:  12    -0.333228591630E+03   -0.17075E-01   -0.15829E-01  7696   0.239E+00-0.213E-02
CGA:  13    -0.333233526304E+03   -0.49347E-02   -0.49418E-02  7696   0.241E+00-0.174E-03
CGA:  14    -0.333254661958E+03   -0.21136E-01   -0.21261E-01  7696   0.320E+00-0.257E-02
CGA:  15    -0.333258921264E+03   -0.42593E-02   -0.45026E-02  7696   0.585E-01-0.118E-01
CGA:  16    -0.333260443319E+03   -0.15221E-02   -0.15224E-02  7696   0.480E-01 0.234E-04
CGA:  17    -0.333264120656E+03   -0.36773E-02   -0.36631E-02  7696   0.129E+00 0.360E-03
CGA:  18    -0.333266842683E+03   -0.27220E-02   -0.27232E-02  7696   0.534E-01 0.504E-04
CGA:  19    -0.333267848418E+03   -0.10057E-02   -0.99478E-03  7696   0.190E-01 0.316E-03
CGA:  20    -0.333269115753E+03   -0.12673E-02   -0.12645E-02  7696   0.564E-01 0.938E-04
CGA:  21    -0.333270383770E+03   -0.12680E-02   -0.12630E-02  7696   0.101E-01 0.876E-04
CGA:  22    -0.333270776038E+03   -0.39227E-03   -0.39204E-03  7696   0.168E-01 0.856E-04
CGA:  23    -0.333271638764E+03   -0.86273E-03   -0.86129E-03  7696   0.340E-01 0.884E-04
CGA:  24    -0.333272339263E+03   -0.70050E-03   -0.70121E-03  7696   0.105E-01 0.150E-04
CGA:  25    -0.333272676482E+03   -0.33722E-03   -0.33685E-03  7696   0.778E-02-0.186E-04
CGA:  26    -0.333272852091E+03   -0.17561E-03   -0.17504E-03  7696   0.590E-02 0.391E-05
CGA:  27    -0.333273343192E+03   -0.49110E-03   -0.49039E-03  7696   0.104E-01 0.155E-04
CGA:  28    -0.333273560809E+03   -0.21762E-03   -0.21784E-03  7696   0.321E-02 0.159E-05
CGA:  29    -0.333273621737E+03   -0.60928E-04   -0.60968E-04  7696   0.249E-02 0.268E-05
CGA:  30    -0.333273834221E+03   -0.21248E-03   -0.21132E-03  7696   0.608E-02 0.250E-04
CGA:  31    -0.333273986171E+03   -0.15195E-03   -0.15178E-03  7696   0.254E-02 0.585E-05
CGA:  32    -0.333274029506E+03   -0.43336E-04   -0.43557E-04  7696   0.586E-03-0.201E-05
CGA:  33    -0.333274081558E+03   -0.52052E-04   -0.51848E-04  7696   0.251E-02 0.385E-05
CGA:  34    -0.333274164632E+03   -0.83073E-04   -0.83152E-04  7696   0.191E-02 0.101E-04
SDA:  35    -0.333274193523E+03   -0.28891E-04   -0.29017E-04  7696   0.252E-03 0.161E-05
CGA:  36    -0.333274200409E+03   -0.68859E-05   -0.68585E-05  7696   0.379E-03-0.231E-05
CGA:  37    -0.333274223875E+03   -0.23466E-04   -0.23662E-04  7696   0.877E-03-0.777E-05
CGA:  38    -0.333274246594E+03   -0.22719E-04   -0.22642E-04  7696   0.308E-03-0.644E-05
CGA:  39    -0.333274253916E+03   -0.73223E-05   -0.73133E-05  7696   0.216E-03-0.111E-05
   3 F= -.33327425E+03 E0= -.33324679E+03  d E =-.828904E+00  mag=    32.0000
       N       E                     dE             d eps       ncg     rms          ort
SDA:   1    -0.307524628856E+03    0.25750E+02    0.00000E+00  7696   0.239E+04 0.000E+00
CGA:   2    -0.320359357034E+03   -0.12835E+02   -0.45713E+02  7696   0.274E+03-0.166E+03
CGA:   3    -0.325312069613E+03   -0.49527E+01   -0.37775E+01  7696   0.640E+02 0.107E+03
CGA:   4    -0.325938441240E+03   -0.62637E+00   -0.36109E+00  7696   0.399E+02 0.640E+02
CGA:   5    -0.326437283348E+03   -0.49884E+00   -0.22981E+00  7696   0.421E+02 0.483E+02
CGA:   6    -0.326991144638E+03   -0.55386E+00   -0.24262E+00  7696   0.426E+02 0.525E+02
CGA:   7    -0.327630269073E+03   -0.63912E+00   -0.34101E+00  7696   0.222E+02 0.318E+02
CGA:   8    -0.328264589902E+03   -0.63432E+00   -0.61593E+00  7696   0.551E+02-0.401E+01
CGA:   9    -0.329108904108E+03   -0.84431E+00   -0.70639E+00  7696   0.926E+02 0.280E+01
CGA:  10    -0.330000643599E+03   -0.89174E+00   -0.10718E+01  7696   0.124E+03-0.119E+02
CGA:  11    -0.331863050753E+03   -0.18624E+01   -0.20065E+01  7696   0.105E+03 0.161E+01
CGA:  12    -0.332865947954E+03   -0.10029E+01   -0.11361E+01  7696   0.275E+02-0.536E+01
CGA:  13    -0.333108980704E+03   -0.24303E+00   -0.20909E+00  7696   0.788E+01 0.333E+01
CGA:  14    -0.333194520012E+03   -0.85539E-01   -0.95767E-01  7696   0.424E+01-0.671E+00
CGA:  15    -0.333293935125E+03   -0.99415E-01   -0.99250E-01  7696   0.983E+01 0.143E+00
CGA:  16    -0.333695641689E+03   -0.40171E+00   -0.40716E+00  7696   0.138E+02-0.328E+00
CGA:  17    -0.333840451738E+03   -0.14481E+00   -0.13766E+00  7696   0.397E+01 0.445E+00
CGA:  18    -0.333887337989E+03   -0.46886E-01   -0.51522E-01  7696   0.154E+01-0.174E+00
CGA:  19    -0.333904664180E+03   -0.17326E-01   -0.18447E-01  7696   0.604E+00-0.414E-01
CGA:  20    -0.333936755974E+03   -0.32092E-01   -0.31841E-01  7696   0.233E+01 0.822E-02
CGA:  21    -0.333980101401E+03   -0.43345E-01   -0.43117E-01  7696   0.671E+00-0.210E-02
CGA:  22    -0.333993617590E+03   -0.13516E-01   -0.13511E-01  7696   0.680E+00 0.226E-03
CGA:  23    -0.334006420790E+03   -0.12803E-01   -0.12723E-01  7696   0.281E+00-0.179E-02
CGA:  24    -0.334014623865E+03   -0.82031E-02   -0.82247E-02  7696   0.622E+00-0.287E-02
CGA:  25    -0.334029888787E+03   -0.15265E-01   -0.15265E-01  7696   0.332E+00 0.147E-02
CGA:  26    -0.334034701147E+03   -0.48124E-02   -0.48748E-02  7696   0.206E+00-0.941E-03
CGA:  27    -0.334038989164E+03   -0.42880E-02   -0.43037E-02  7696   0.121E+00 0.177E-02
CGA:  28    -0.334042781284E+03   -0.37921E-02   -0.38022E-02  7696   0.272E+00-0.103E-02
CGA:  29    -0.334050399810E+03   -0.76185E-02   -0.76205E-02  7696   0.187E+00-0.322E-03
CGA:  30    -0.334052935890E+03   -0.25361E-02   -0.25576E-02  7696   0.654E-01-0.600E-03
CGA:  31    -0.334054020393E+03   -0.10845E-02   -0.10826E-02  7696   0.504E-01-0.162E-04
CGA:  32    -0.334056262233E+03   -0.22418E-02   -0.22322E-02  7696   0.124E+00 0.449E-03
CGA:  33    -0.334058632718E+03   -0.23705E-02   -0.23827E-02  7696   0.856E-01 0.438E-03
CGA:  34    -0.334061586425E+03   -0.29537E-02   -0.29686E-02  7696   0.748E-01-0.117E-02
CGA:  35    -0.334062402443E+03   -0.81602E-03   -0.80778E-03  7696   0.195E-01 0.451E-03
CGA:  36    -0.334063105994E+03   -0.70355E-03   -0.70035E-03  7696   0.402E-01 0.229E-03
CGA:  37    -0.334063977799E+03   -0.87181E-03   -0.87265E-03  7696   0.411E-01 0.956E-04
SDA:  38    -0.334065592365E+03   -0.16146E-02   -0.16193E-02  7696   0.398E-01-0.282E-03
CGA:  39    -0.334065985945E+03   -0.39358E-03   -0.39424E-03  7696   0.510E-02-0.417E-04
CGA:  40    -0.334066280820E+03   -0.29487E-03   -0.29509E-03  7696   0.133E-01-0.758E-05
CGA:  41    -0.334067014815E+03   -0.73400E-03   -0.73382E-03  7696   0.112E-01 0.546E-05
CGA:  42    -0.334067340712E+03   -0.32590E-03   -0.32568E-03  7696   0.468E-02 0.959E-04
CGA:  43    -0.334067446713E+03   -0.10600E-03   -0.10601E-03  7696   0.512E-02 0.195E-05
CGA:  44    -0.334067722706E+03   -0.27599E-03   -0.27583E-03  7696   0.597E-02 0.587E-05
CGA:  45    -0.334068024489E+03   -0.30178E-03   -0.30226E-03  7696   0.205E-02-0.208E-04
CGA:  46    -0.334068077400E+03   -0.52911E-04   -0.52894E-04  7696   0.357E-02-0.353E-05
CGA:  47    -0.334068400726E+03   -0.32333E-03   -0.32328E-03  7696   0.401E-02 0.393E-05
CGA:  48    -0.334068476990E+03   -0.76265E-04   -0.76261E-04  7696   0.119E-02-0.666E-05
CGA:  49    -0.334068613308E+03   -0.13632E-03   -0.13715E-03  7696   0.289E-02-0.982E-05
CGA:  50    -0.334068687137E+03   -0.73829E-04   -0.73796E-04  7696   0.194E-02-0.681E-05
CGA:  51    -0.334068720178E+03   -0.33041E-04   -0.32859E-04  7696   0.607E-03-0.765E-06
CGA:  52    -0.334068779778E+03   -0.59600E-04   -0.59322E-04  7696   0.114E-02 0.416E-05
CGA:  53    -0.334068821841E+03   -0.42064E-04   -0.42075E-04  7696   0.132E-02 0.850E-05
CGA:  54    -0.334068841888E+03   -0.20047E-04   -0.20158E-04  7696   0.210E-03 0.156E-05
CGA:  55    -0.334068881974E+03   -0.40086E-04   -0.25740E-06  7696   0.104E-02-0.407E-04
CGA:  56    -0.334068893672E+03   -0.11699E-04   -0.11789E-04  7696   0.165E-03 0.143E-05
CGA:  57    -0.334068897109E+03   -0.34369E-05   -0.34465E-05  7696   0.190E-03 0.255E-06
CGA:  58    -0.334068909002E+03   -0.11893E-04   -0.11893E-04  7696   0.341E-03 0.313E-06
CGA:  59    -0.334068913536E+03   -0.45342E-05   -0.45454E-05  7696   0.594E-04-0.284E-06
   4 F= -.33406891E+03 E0= -.33404030E+03  d E =-.794660E+00  mag=    32.0000
       N       E                     dE             d eps       ncg     rms          ort
SDA:   1    -0.316852045039E+03    0.17217E+02    0.00000E+00  7696   0.147E+04 0.000E+00
CGA:   2    -0.319229760571E+03   -0.23777E+01   -0.41920E+02  7696   0.373E+03-0.173E+03
CGA:   3    -0.324409269471E+03   -0.51795E+01   -0.65703E+01  7696   0.350E+03-0.112E+03
CGA:   4    -0.321778787841E+03    0.26305E+01   -0.26570E+01  7696   0.627E+03-0.761E+03
CGA:   5    -0.319835689127E+03    0.19431E+01   -0.14508E+02  7696   0.465E+03-0.281E+03
CGA:   6    -0.326476377868E+03   -0.66407E+01   -0.40615E+01  7696   0.203E+03 0.567E+02
CGA:   7    -0.329441828619E+03   -0.29655E+01   -0.21118E+01  7696   0.170E+03-0.122E+03
CGA:   8    -0.329655549279E+03   -0.21372E+00   -0.24225E+01  7696   0.201E+03-0.181E+03
CGA:   9    -0.330239274618E+03   -0.58373E+00   -0.24801E+01  7696   0.130E+03-0.143E+03
CGA:  10    -0.330864635283E+03   -0.62536E+00   -0.14674E+01  7696   0.692E+02-0.880E+02
CGA:  11    -0.331297707874E+03   -0.43307E+00   -0.66101E+00  7696   0.189E+02-0.229E+02
CGA:  12    -0.331733903473E+03   -0.43620E+00   -0.43277E+00  7696   0.239E+02-0.187E+00
CGA:  13    -0.332293630042E+03   -0.55973E+00   -0.56429E+00  7696   0.253E+02-0.185E+00
CGA:  14    -0.333060766422E+03   -0.76714E+00   -0.76686E+00  7696   0.299E+02-0.144E+00
CGA:  15    -0.333652727516E+03   -0.59196E+00   -0.59941E+00  7696   0.139E+02-0.358E+00
CGA:  16    -0.333861218328E+03   -0.20849E+00   -0.21016E+00  7696   0.465E+01-0.188E+00
CGA:  17    -0.333948980427E+03   -0.87762E-01   -0.88441E-01  7696   0.333E+01-0.208E-01
CGA:  18    -0.334048457820E+03   -0.99477E-01   -0.99609E-01  7696   0.464E+01 0.427E-02
CGA:  19    -0.334169130089E+03   -0.12067E+00   -0.12070E+00  7696   0.370E+01-0.201E-02
CGA:  20    -0.334232915168E+03   -0.63785E-01   -0.65234E-01  7696   0.144E+01-0.487E-01
CGA:  21    -0.334257253762E+03   -0.24339E-01   -0.24218E-01  7696   0.665E+00 0.311E-02
CGA:  22    -0.334273575787E+03   -0.16322E-01   -0.16395E-01  7696   0.740E+00 0.936E-03
CGA:  23    -0.334296820139E+03   -0.23244E-01   -0.23231E-01  7696   0.943E+00-0.325E-02
CGA:  24    -0.334317324114E+03   -0.20504E-01   -0.20745E-01  7696   0.495E+00-0.239E-03
CGA:  25    -0.334325413007E+03   -0.80889E-02   -0.80649E-02  7696   0.187E+00 0.714E-03
CGA:  26    -0.334329550765E+03   -0.41378E-02   -0.41593E-02  7696   0.177E+00 0.181E-03
CGA:  27    -0.334335550508E+03   -0.59997E-02   -0.60051E-02  7696   0.274E+00-0.112E-02
CGA:  28    -0.334342623074E+03   -0.70726E-02   -0.71336E-02  7696   0.179E+00 0.370E-02
CGA:  29    -0.334345550021E+03   -0.29269E-02   -0.29127E-02  7696   0.626E-01 0.435E-03
CGA:  30    -0.334346936559E+03   -0.13865E-02   -0.13928E-02  7696   0.586E-01 0.117E-03
CGA:  31    -0.334349040102E+03   -0.21035E-02   -0.21065E-02  7696   0.950E-01-0.318E-03
CGA:  32    -0.334351493391E+03   -0.24533E-02   -0.24670E-02  7696   0.582E-01 0.118E-02
CGA:  33    -0.334352457819E+03   -0.96443E-03   -0.96224E-03  7696   0.216E-01 0.714E-04
CGA:  34    -0.334352990649E+03   -0.53283E-03   -0.53418E-03  7696   0.238E-01 0.937E-04
CGA:  35    -0.334353881763E+03   -0.89111E-03   -0.89276E-03  7696   0.368E-01-0.144E-03
CGA:  36    -0.334354745657E+03   -0.86389E-03   -0.87101E-03  7696   0.180E-01 0.326E-03
CGA:  37    -0.334355046516E+03   -0.30086E-03   -0.30083E-03  7696   0.743E-02 0.115E-05
CGA:  38    -0.334355265217E+03   -0.21870E-03   -0.21863E-03  7696   0.106E-01 0.463E-04
CGA:  39    -0.334355676950E+03   -0.41173E-03   -0.41191E-03  7696   0.149E-01-0.921E-05
CGA:  40    -0.334355991497E+03   -0.31455E-03   -0.31699E-03  7696   0.606E-02 0.543E-04
SDA:  41    -0.334356100972E+03   -0.10947E-03   -0.10963E-03  7696   0.318E-02 0.449E-05
CGA:  42    -0.334356131185E+03   -0.30214E-04   -0.30263E-04  7696   0.108E-02-0.354E-05
CGA:  43    -0.334356413919E+03   -0.28273E-03   -0.13262E-03  7696   0.941E-03 0.518E-03
CGA:  44    -0.334356470390E+03   -0.56471E-04   -0.56479E-04  7696   0.372E-02 0.204E-05
CGA:  45    -0.334356610707E+03   -0.14032E-03   -0.14050E-03  7696   0.107E-01 0.162E-04
CGA:  46    -0.334356742151E+03   -0.13144E-03   -0.13444E-03  7696   0.495E-02-0.138E-03
CGA:  47    -0.334356787372E+03   -0.45221E-04   -0.45371E-04  7696   0.145E-02 0.937E-05
CGA:  48    -0.334356803513E+03   -0.16141E-04   -0.16146E-04  7696   0.109E-02 0.352E-06
CGA:  49    -0.334356830130E+03   -0.26618E-04   -0.26568E-04  7696   0.224E-02-0.286E-05
CGA:  50    -0.334356864312E+03   -0.34181E-04   -0.34021E-04  7696   0.180E-02-0.346E-05
CGA:  51    -0.334356891002E+03   -0.26691E-04   -0.26574E-04  7696   0.175E-02-0.437E-05
CGA:  52    -0.334356913639E+03   -0.22637E-04   -0.22446E-04  7696   0.906E-03 0.138E-05
CGA:  53    -0.334356925133E+03   -0.11495E-04   -0.11500E-04  7696   0.984E-03-0.236E-05
CGA:  54    -0.334356955517E+03   -0.30383E-04   -0.30411E-04  7696   0.265E-02 0.245E-05
CGA:  55    -0.334356991755E+03   -0.36239E-04   -0.36570E-04  7696   0.179E-02-0.972E-05
CGA:  56    -0.334357020055E+03   -0.28300E-04   -0.28313E-04  7696   0.191E-02 0.275E-05
CGA:  57    -0.334357042392E+03   -0.22337E-04   -0.22288E-04  7696   0.633E-03 0.503E-05
CGA:  58    -0.334357048590E+03   -0.61975E-05   -0.62148E-05  7696   0.370E-03-0.240E-06
   5 F= -.33435705E+03 E0= -.33432645E+03  d E =-.288135E+00  mag=    32.0000
       N       E                     dE             d eps       ncg     rms          ort
SDA:   1    -0.323150942477E+03    0.11206E+02    0.00000E+00  7696   0.217E+03 0.000E+00
CGA:   2    -0.324500568111E+03   -0.13496E+01   -0.27485E+01  7696   0.100E+03-0.849E+02
CGA:   3    -0.326852906075E+03   -0.23523E+01   -0.24581E+01  7696   0.113E+03-0.803E+01
CGA:   4    -0.329229673014E+03   -0.23768E+01   -0.25551E+01  7696   0.544E+02 0.563E+01
CGA:   5    -0.330486532425E+03   -0.12569E+01   -0.11503E+01  7696   0.374E+02 0.224E+00
CGA:   6    -0.331952957031E+03   -0.14664E+01   -0.14162E+01  7696   0.315E+02 0.497E+01
CGA:   7    -0.332967492317E+03   -0.10145E+01   -0.98047E+00  7696   0.321E+02-0.406E+01
CGA:   8    -0.333649312806E+03   -0.68182E+00   -0.69515E+00  7696   0.183E+02 0.613E+00
CGA:   9    -0.334025820575E+03   -0.37651E+00   -0.37578E+00  7696   0.430E+01-0.836E-01
CGA:  10    -0.334135882845E+03   -0.11006E+00   -0.10997E+00  7696   0.433E+01-0.103E-01
CGA:  11    -0.334233903594E+03   -0.98021E-01   -0.97603E-01  7696   0.325E+01-0.730E-02
CGA:  12    -0.334368602153E+03   -0.13470E+00   -0.13469E+00  7696   0.301E+01 0.401E-02
CGA:  13    -0.334447452528E+03   -0.78850E-01   -0.79112E-01  7696   0.128E+01 0.248E-01
CGA:  14    -0.334464365659E+03   -0.16913E-01   -0.16876E-01  7696   0.431E+00 0.129E-02
CGA:  15    -0.334477779089E+03   -0.13413E-01   -0.13404E-01  7696   0.372E+00 0.260E-02
CGA:  16    -0.334494494223E+03   -0.16715E-01   -0.16846E-01  7696   0.533E+00-0.691E-02
CGA:  17    -0.334507605416E+03   -0.13111E-01   -0.13154E-01  7696   0.499E+00 0.301E-02
CGA:  18    -0.334518153822E+03   -0.10548E-01   -0.10598E-01  7696   0.112E+00 0.782E-03
CGA:  19    -0.334520887157E+03   -0.27333E-02   -0.27277E-02  7696   0.688E-01-0.312E-03
CGA:  20    -0.334523121541E+03   -0.22344E-02   -0.22328E-02  7696   0.134E+00 0.285E-03
CGA:  21    -0.334527474955E+03   -0.43534E-02   -0.43584E-02  7696   0.103E+00-0.919E-03
CGA:  22    -0.334530885571E+03   -0.34106E-02   -0.34090E-02  7696   0.461E-01 0.269E-03
CGA:  23    -0.334532094081E+03   -0.12085E-02   -0.12100E-02  7696   0.207E-01 0.186E-03
CGA:  24    -0.334532622095E+03   -0.52801E-03   -0.52786E-03  7696   0.292E-01-0.986E-05
CGA:  25    -0.334533856000E+03   -0.12339E-02   -0.12306E-02  7696   0.393E-01 0.208E-03
CGA:  26    -0.334535045824E+03   -0.11898E-02   -0.11898E-02  7696   0.177E-01 0.385E-04
CGA:  27    -0.334535363544E+03   -0.31772E-03   -0.31823E-03  7696   0.102E-01 0.192E-05
CGA:  28    -0.334535598860E+03   -0.23532E-03   -0.23567E-03  7696   0.546E-02 0.230E-04
CGA:  29    -0.334535870487E+03   -0.27163E-03   -0.27142E-03  7696   0.807E-02 0.101E-04
CGA:  30    -0.334536240455E+03   -0.36997E-03   -0.36966E-03  7696   0.723E-02 0.175E-04
CGA:  31    -0.334536348985E+03   -0.10853E-03   -0.10865E-03  7696   0.279E-02 0.218E-05
SDA:  32    -0.334536412377E+03   -0.63391E-04   -0.63449E-04  7696   0.154E-02 0.438E-05
CGA:  33    -0.334536436108E+03   -0.23731E-04   -0.23729E-04  7696   0.580E-03 0.167E-05
CGA:  34    -0.334536478549E+03   -0.42441E-04   -0.42157E-04  7696   0.336E-02 0.656E-05
CGA:  35    -0.334536597081E+03   -0.11853E-03   -0.11846E-03  7696   0.844E-03 0.161E-04
CGA:  36    -0.334536636359E+03   -0.39278E-04   -0.39299E-04  7696   0.592E-03-0.426E-06
CGA:  37    -0.334536669086E+03   -0.32727E-04   -0.32575E-04  7696   0.176E-02 0.662E-05
CGA:  38    -0.334536702962E+03   -0.33876E-04   -0.34029E-04  7696   0.375E-03 0.632E-05
CGA:  39    -0.334536714704E+03   -0.11742E-04   -0.11746E-04  7696   0.277E-03 0.288E-05
CGA:  40    -0.334536737869E+03   -0.23165E-04   -0.23240E-04  7696   0.116E-02-0.150E-05
CGA:  41    -0.334536761096E+03   -0.23227E-04   -0.23204E-04  7696   0.309E-03-0.322E-05
CGA:  42    -0.334536767325E+03   -0.62290E-05   -0.62396E-05  7696   0.217E-03 0.204E-06
CGA:  43    -0.334536797941E+03   -0.30616E-04   -0.29882E-04  7696   0.249E-03 0.719E-05
CGA:  44    -0.334536802211E+03   -0.42698E-05   -0.42852E-05  7696   0.183E-03 0.556E-06
   6 F= -.33453680E+03 E0= -.33450665E+03  d E =-.179754E+00  mag=    32.0000
       N       E                     dE             d eps       ncg     rms          ort
SDA:   1    -0.309826084819E+03    0.24711E+02    0.00000E+00  7696   0.153E+04 0.000E+00
CGA:   2    -0.315135597791E+03   -0.53095E+01   -0.28639E+02  7696   0.274E+03-0.169E+03
CGA:   3    -0.319837396631E+03   -0.47018E+01   -0.24951E+01  7696   0.135E+03 0.205E+03
CGA:   4    -0.321376882059E+03   -0.15395E+01   -0.78707E+00  7696   0.856E+02 0.123E+03
CGA:   5    -0.322463761378E+03   -0.10869E+01   -0.58815E+00  7696   0.420E+02 0.623E+02
CGA:   6    -0.323391278452E+03   -0.92752E+00   -0.76828E+00  7696   0.551E+02 0.264E+01
CGA:   7    -0.326818918277E+03   -0.34276E+01   -0.37673E+01  7696   0.267E+03-0.891E+01
CGA:   8    -0.330202331385E+03   -0.33834E+01   -0.36494E+01  7696   0.258E+03-0.890E+01
CGA:   9    -0.332442481905E+03   -0.22402E+01   -0.29328E+01  7696   0.423E+02-0.523E+02
CGA:  10    -0.332700463445E+03   -0.25798E+00   -0.24304E+00  7696   0.105E+02 0.198E+01
CGA:  11    -0.332837469565E+03   -0.13701E+00   -0.13290E+00  7696   0.120E+02 0.226E+00
CGA:  12    -0.333182556587E+03   -0.34509E+00   -0.34702E+00  7696   0.298E+02 0.781E+00
CGA:  13    -0.333768484784E+03   -0.58593E+00   -0.59247E+00  7696   0.213E+02 0.269E-01
CGA:  14    -0.334112042394E+03   -0.34356E+00   -0.28465E+00  7696   0.549E+01 0.214E+01
CGA:  15    -0.334187934817E+03   -0.75892E-01   -0.70610E-01  7696   0.446E+01 0.344E+00
CGA:  16    -0.334266992897E+03   -0.79058E-01   -0.51367E-01  7696   0.446E+01 0.213E+01
CGA:  17    -0.334311566709E+03   -0.44574E-01   -0.29143E-01  7696   0.261E+01 0.326E+01
CGA:  18    -0.334347891481E+03   -0.36325E-01   -0.36386E-01  7696   0.146E+01-0.275E-02
CGA:  19    -0.334427470290E+03   -0.79579E-01   -0.76302E-01  7696   0.257E+01 0.120E+00
CGA:  20    -0.334545461083E+03   -0.11799E+00   -0.11730E+00  7696   0.253E+01 0.372E-01
CGA:  21    -0.334583290458E+03   -0.37829E-01   -0.35993E-01  7696   0.438E+00 0.619E-01
CGA:  22    -0.334593591954E+03   -0.10301E-01   -0.10340E-01  7696   0.406E+00 0.413E-02
CGA:  23    -0.334622190088E+03   -0.28598E-01   -0.28272E-01  7696   0.485E+00 0.842E-02
CGA:  24    -0.334634149148E+03   -0.11959E-01   -0.11938E-01  7696   0.346E+00-0.165E-02
CGA:  25    -0.334639481612E+03   -0.53325E-02   -0.52292E-02  7696   0.779E-01 0.279E-02
CGA:  26    -0.334644544003E+03   -0.50624E-02   -0.50051E-02  7696   0.144E+00 0.168E-02
CGA:  27    -0.334647700460E+03   -0.31565E-02   -0.31672E-02  7696   0.122E+00 0.255E-03
CGA:  28    -0.334650637035E+03   -0.29366E-02   -0.29202E-02  7696   0.316E-01-0.901E-03
CGA:  29    -0.334652468824E+03   -0.18318E-02   -0.18289E-02  7696   0.963E-01 0.943E-04
CGA:  30    -0.334655478797E+03   -0.30100E-02   -0.30095E-02  7696   0.757E-01 0.291E-03
CGA:  31    -0.334656744761E+03   -0.12660E-02   -0.12617E-02  7696   0.245E-01 0.156E-03
CGA:  32    -0.334657510437E+03   -0.76568E-03   -0.76585E-03  7696   0.179E-01-0.472E-04
CGA:  33    -0.334659295900E+03   -0.17855E-02   -0.17688E-02  7696   0.709E-01 0.266E-03
CGA:  34    -0.334660639588E+03   -0.13437E-02   -0.13513E-02  7696   0.353E-01-0.346E-04
CGA:  35    -0.334661641359E+03   -0.10018E-02   -0.10002E-02  7696   0.760E-02-0.125E-03
CGA:  36    -0.334661901307E+03   -0.25995E-03   -0.25996E-03  7696   0.172E-01-0.378E-05
CGA:  37    -0.334662615542E+03   -0.71423E-03   -0.71307E-03  7696   0.152E-01 0.912E-04
CGA:  38    -0.334663048868E+03   -0.43333E-03   -0.43274E-03  7696   0.647E-02-0.551E-04
CGA:  39    -0.334663209888E+03   -0.16102E-03   -0.16097E-03  7696   0.473E-02-0.697E-05
CGA:  40    -0.334663433757E+03   -0.22387E-03   -0.22405E-03  7696   0.103E-01-0.850E-05
CGA:  41    -0.334663657352E+03   -0.22359E-03   -0.22394E-03  7696   0.386E-02-0.146E-05
CGA:  42    -0.334663782653E+03   -0.12530E-03   -0.12530E-03  7696   0.157E-02 0.691E-06
CGA:  43    -0.334663818999E+03   -0.36347E-04   -0.36348E-04  7696   0.214E-02-0.220E-06
CGA:  44    -0.334663949807E+03   -0.13081E-03   -0.13040E-03  7696   0.207E-02 0.139E-04
CGA:  45    -0.334664013308E+03   -0.63501E-04   -0.63467E-04  7696   0.918E-03-0.634E-05
CGA:  46    -0.334664032368E+03   -0.19060E-04   -0.19053E-04  7696   0.733E-03-0.672E-06
CGA:  47    -0.334664066294E+03   -0.33926E-04   -0.33961E-04  7696   0.127E-02-0.245E-05
SDA:  48    -0.334664100586E+03   -0.34292E-04   -0.34275E-04  7696   0.611E-03-0.343E-05
CGA:  49    -0.334664111375E+03   -0.10789E-04   -0.10750E-04  7696   0.254E-03-0.186E-05
CGA:  50    -0.334664117389E+03   -0.60143E-05   -0.59948E-05  7696   0.271E-03-0.196E-05
CGA:  51    -0.334664133144E+03   -0.15754E-04   -0.15888E-04  7696   0.578E-03-0.489E-05
CGA:  52    -0.334664151527E+03   -0.18383E-04   -0.18380E-04  7696   0.246E-03-0.513E-05
CGA:  53    -0.334664160292E+03   -0.87654E-05   -0.87714E-05  7696   0.195E-03-0.228E-05
   7 F= -.33466416E+03 E0= -.33463407E+03  d E =-.127358E+00  mag=    32.0000
       N       E                     dE             d eps       ncg     rms          ort
SDA:   1    -0.300251058742E+03    0.34413E+02    0.00000E+00  7696   0.531E+03 0.000E+00
CGA:   2    -0.304543817273E+03   -0.42928E+01   -0.76661E+01  7696   0.324E+03-0.252E+03
CGA:   3    -0.312495203855E+03   -0.79514E+01   -0.86877E+01  7696   0.444E+03-0.300E+02
CGA:   4    -0.320142124220E+03   -0.76469E+01   -0.96107E+01  7696   0.240E+03 0.101E+02
CGA:   5    -0.324782228206E+03   -0.46401E+01   -0.51683E+01  7696   0.626E+02 0.191E+02
CGA:   6    -0.327010614907E+03   -0.22284E+01   -0.19870E+01  7696   0.105E+03-0.340E+02
CGA:   7    -0.327931979584E+03   -0.92136E+00   -0.97708E+00  7696   0.250E+02-0.837E+01
CGA:   8    -0.328657737332E+03   -0.72576E+00   -0.72494E+00  7696   0.501E+02 0.853E+00
CGA:   9    -0.332161832873E+03   -0.35041E+01   -0.33398E+01  7696   0.924E+02 0.574E+01
CGA:  10    -0.333660222240E+03   -0.14984E+01   -0.14023E+01  7696   0.146E+02 0.421E+01
CGA:  11    -0.333903193506E+03   -0.24297E+00   -0.25897E+00  7696   0.860E+01-0.468E+00
CGA:  12    -0.334095954327E+03   -0.19276E+00   -0.18000E+00  7696   0.525E+01 0.286E-01
CGA:  13    -0.334233159590E+03   -0.13721E+00   -0.13423E+00  7696   0.506E+01-0.179E+00
CGA:  14    -0.334369410047E+03   -0.13625E+00   -0.13716E+00  7696   0.760E+01 0.172E+00
CGA:  15    -0.334507235850E+03   -0.13783E+00   -0.14691E+00  7696   0.184E+01-0.921E-01
CGA:  16    -0.334534884148E+03   -0.27648E-01   -0.26726E-01  7696   0.769E+00 0.317E-01
CGA:  17    -0.334558929773E+03   -0.24046E-01   -0.24036E-01  7696   0.104E+01 0.272E-02
CGA:  18    -0.334583192502E+03   -0.24263E-01   -0.23950E-01  7696   0.105E+01-0.116E-01
CGA:  19    -0.334607493229E+03   -0.24301E-01   -0.24270E-01  7696   0.835E+00-0.182E-02
CGA:  20    -0.334627418579E+03   -0.19925E-01   -0.20161E-01  7696   0.648E+00 0.189E-01
CGA:  21    -0.334637119561E+03   -0.97010E-02   -0.96616E-02  7696   0.226E+00 0.103E-02
CGA:  22    -0.334643868214E+03   -0.67487E-02   -0.67616E-02  7696   0.323E+00-0.307E-02
CGA:  23    -0.334653552041E+03   -0.96838E-02   -0.96768E-02  7696   0.376E+00 0.158E-02
CGA:  24    -0.334661628524E+03   -0.80765E-02   -0.80731E-02  7696   0.183E+00 0.524E-04
CGA:  25    -0.334664495736E+03   -0.28672E-02   -0.28649E-02  7696   0.959E-01 0.131E-03
CGA:  26    -0.334668690958E+03   -0.41952E-02   -0.41445E-02  7696   0.172E+00 0.272E-02
CGA:  27    -0.334672603131E+03   -0.39122E-02   -0.39118E-02  7696   0.130E+00 0.583E-04
CGA:  28    -0.334675622382E+03   -0.30193E-02   -0.30133E-02  7696   0.916E-01-0.400E-03
CGA:  29    -0.334677850806E+03   -0.22284E-02   -0.22275E-02  7696   0.582E-01-0.979E-04
CGA:  30    -0.334678904808E+03   -0.10540E-02   -0.10498E-02  7696   0.355E-01 0.853E-06
CGA:  31    -0.334680545057E+03   -0.16402E-02   -0.16391E-02  7696   0.998E-01 0.493E-04
CGA:  32    -0.334683020190E+03   -0.24751E-02   -0.24764E-02  7696   0.404E-01 0.164E-03
CGA:  33    -0.334683678172E+03   -0.65798E-03   -0.65610E-03  7696   0.133E-01 0.302E-04
CGA:  34    -0.334683930160E+03   -0.25199E-03   -0.25237E-03  7696   0.102E-01 0.418E-05
CGA:  35    -0.334684310071E+03   -0.37991E-03   -0.38026E-03  7696   0.155E-01-0.260E-04
CGA:  36    -0.334684733031E+03   -0.42296E-03   -0.42298E-03  7696   0.154E-01-0.293E-04
SDA:  37    -0.334685093421E+03   -0.36039E-03   -0.36073E-03  7696   0.887E-02 0.420E-04
CGA:  38    -0.334685191446E+03   -0.98025E-04   -0.97982E-04  7696   0.190E-02 0.691E-05
CGA:  39    -0.334685245530E+03   -0.54084E-04   -0.54039E-04  7696   0.159E-02 0.131E-04
CGA:  40    -0.334685333777E+03   -0.88247E-04   -0.87749E-04  7696   0.293E-02 0.169E-04
CGA:  41    -0.334685506426E+03   -0.17265E-03   -0.17249E-03  7696   0.325E-02 0.467E-05
CGA:  42    -0.334685623365E+03   -0.11694E-03   -0.11696E-03  7696   0.141E-02-0.341E-07
CGA:  43    -0.334685665691E+03   -0.42325E-04   -0.42324E-04  7696   0.285E-02 0.357E-06
CGA:  44    -0.334685806680E+03   -0.14099E-03   -0.14125E-03  7696   0.395E-03-0.129E-04
CGA:  45    -0.334685821412E+03   -0.14733E-04   -0.14749E-04  7696   0.107E-02-0.260E-05
CGA:  46    -0.334685873260E+03   -0.51847E-04   -0.52008E-04  7696   0.651E-03-0.910E-05
CGA:  47    -0.334685885397E+03   -0.12137E-04   -0.12090E-04  7696   0.216E-03-0.311E-05
CGA:  48    -0.334685910213E+03   -0.24816E-04   -0.25093E-04  7696   0.740E-03-0.335E-05
CGA:  49    -0.334685937608E+03   -0.27395E-04   -0.27394E-04  7696   0.355E-03-0.145E-06
CGA:  50    -0.334685942460E+03   -0.48518E-05   -0.48578E-05  7696   0.149E-03 0.912E-07
CGA:  51    -0.334685955202E+03   -0.12742E-04   -0.12705E-04  7696   0.255E-03 0.608E-06
CGA:  52    -0.334685972609E+03   -0.17407E-04   -0.17270E-04  7696   0.546E-03 0.440E-05
CGA:  53    -0.334685981423E+03   -0.88139E-05   -0.89082E-05  7696   0.100E-03 0.228E-05
   8 F= -.33468598E+03 E0= -.33465662E+03  d E =-.218211E-01  mag=    32.0000
       N       E                     dE             d eps       ncg     rms          ort
SDA:   1    -0.313894598887E+03    0.20791E+02    0.00000E+00  7696   0.141E+04 0.000E+00
CGA:   2    -0.320185535681E+03   -0.62909E+01   -0.25587E+02  7696   0.313E+03-0.194E+03
CGA:   3    -0.324803732208E+03   -0.46182E+01   -0.45275E+01  7696   0.738E+02-0.152E+02
CGA:   4    -0.325710751461E+03   -0.90702E+00   -0.45205E+00  7696   0.539E+02 0.663E+02
CGA:   5    -0.326804919661E+03   -0.10942E+01   -0.10274E+01  7696   0.294E+02-0.227E+00
CGA:   6    -0.328194166337E+03   -0.13892E+01   -0.17673E+01  7696   0.184E+03-0.124E+02
CGA:   7    -0.329043197325E+03   -0.84903E+00   -0.11345E+01  7696   0.264E+03-0.234E+02
CGA:   8    -0.330944770946E+03   -0.19016E+01   -0.26793E+01  7696   0.212E+03-0.458E+02
CGA:   9    -0.332136841676E+03   -0.11921E+01   -0.18924E+01  7696   0.566E+02-0.479E+02
CGA:  10    -0.332425460559E+03   -0.28862E+00   -0.25501E+00  7696   0.156E+02 0.550E+01
CGA:  11    -0.332559287590E+03   -0.13383E+00   -0.11599E+00  7696   0.103E+02 0.225E+01
CGA:  12    -0.332745759488E+03   -0.18647E+00   -0.17336E+00  7696   0.262E+02 0.412E+00
CGA:  13    -0.333070402498E+03   -0.32464E+00   -0.30365E+00  7696   0.547E+02 0.118E+01
CGA:  14    -0.333512118955E+03   -0.44172E+00   -0.45910E+00  7696   0.516E+02-0.135E+01
CGA:  15    -0.333781382669E+03   -0.26926E+00   -0.31417E+00  7696   0.283E+02-0.606E+01
CGA:  16    -0.333925009169E+03   -0.14363E+00   -0.16658E+00  7696   0.137E+02-0.281E+01
CGA:  17    -0.333990904987E+03   -0.65896E-01   -0.62081E-01  7696   0.599E+01 0.616E+00
CGA:  18    -0.334031898179E+03   -0.40993E-01   -0.36626E-01  7696   0.465E+01 0.653E+00
CGA:  19    -0.334076768577E+03   -0.44870E-01   -0.36150E-01  7696   0.591E+01 0.102E+01
CGA:  20    -0.334122594571E+03   -0.45826E-01   -0.34195E-01  7696   0.616E+01 0.215E+01
CGA:  21    -0.334167782752E+03   -0.45188E-01   -0.38776E-01  7696   0.586E+01 0.118E+01
CGA:  22    -0.334202451658E+03   -0.34669E-01   -0.34103E-01  7696   0.735E+01 0.957E-01
CGA:  23    -0.334239227064E+03   -0.36775E-01   -0.36811E-01  7696   0.115E+02-0.457E-03
CGA:  24    -0.334295219872E+03   -0.55993E-01   -0.55083E-01  7696   0.166E+02 0.177E+00
CGA:  25    -0.334362456844E+03   -0.67237E-01   -0.62775E-01  7696   0.156E+02 0.109E+01
CGA:  26    -0.334414712848E+03   -0.52256E-01   -0.49978E-01  7696   0.954E+01 0.661E+00
CGA:  27    -0.334443267802E+03   -0.28555E-01   -0.28065E-01  7696   0.566E+01 0.165E+00
CGA:  28    -0.334461130753E+03   -0.17863E-01   -0.17223E-01  7696   0.432E+01 0.199E+00
CGA:  29    -0.334476439592E+03   -0.15309E-01   -0.15072E-01  7696   0.402E+01 0.649E-01
CGA:  30    -0.334490450673E+03   -0.14011E-01   -0.15558E-01  7696   0.382E+01-0.330E+00
CGA:  31    -0.334501984721E+03   -0.11534E-01   -0.14755E-01  7696   0.315E+01-0.588E+00
CGA:  32    -0.334511938702E+03   -0.99540E-02   -0.11356E-01  7696   0.251E+01-0.248E+00
CGA:  33    -0.334523690727E+03   -0.11752E-01   -0.12005E-01  7696   0.283E+01-0.322E-01
CGA:  34    -0.334543316744E+03   -0.19626E-01   -0.19922E-01  7696   0.445E+01-0.115E-01
SDA:  35    -0.334574934829E+03   -0.31618E-01   -0.31763E-01  7696   0.487E+01 0.179E-01
CGA:  36    -0.334624583696E+03   -0.49649E-01   -0.49361E-01  7696   0.689E+00-0.470E-01
CGA:  37    -0.334652627770E+03   -0.28044E-01   -0.28819E-01  7696   0.134E+01-0.311E-01
CGA:  38    -0.334699584485E+03   -0.46957E-01   -0.46996E-01  7696   0.125E+01-0.294E-02
CGA:  39    -0.334721104786E+03   -0.21520E-01   -0.21482E-01  7696   0.481E+00 0.920E-02
CGA:  40    -0.334731437621E+03   -0.10333E-01   -0.10195E-01  7696   0.200E+00 0.175E-01
CGA:  41    -0.334746174312E+03   -0.14737E-01   -0.14170E-01  7696   0.265E+00 0.129E-01
CGA:  42    -0.334752258137E+03   -0.60838E-02   -0.60807E-02  7696   0.265E+00 0.538E-03
CGA:  43    -0.334758708900E+03   -0.64508E-02   -0.66049E-02  7696   0.875E-01-0.176E-01
CGA:  44    -0.334764236069E+03   -0.55272E-02   -0.54969E-02  7696   0.256E+00 0.765E-03
CGA:  45    -0.334770557438E+03   -0.63214E-02   -0.63173E-02  7696   0.802E-01 0.716E-03
CGA:  46    -0.334771667120E+03   -0.11097E-02   -0.11165E-02  7696   0.238E-01 0.183E-05
CGA:  47    -0.334773007746E+03   -0.13406E-02   -0.13488E-02  7696   0.358E-01-0.255E-03
CGA:  48    -0.334774093705E+03   -0.10860E-02   -0.10868E-02  7696   0.610E-01-0.893E-04
CGA:  49    -0.334775869995E+03   -0.17763E-02   -0.17744E-02  7696   0.227E-01 0.198E-03
CGA:  50    -0.334776775524E+03   -0.90553E-03   -0.90170E-03  7696   0.179E-01 0.205E-03
CGA:  51    -0.334777384958E+03   -0.60943E-03   -0.60904E-03  7696   0.257E-01 0.262E-04
CGA:  52    -0.334777917867E+03   -0.53291E-03   -0.53297E-03  7696   0.956E-02-0.250E-05
CGA:  53    -0.334778107049E+03   -0.18918E-03   -0.18913E-03  7696   0.460E-02-0.632E-05
CGA:  54    -0.334778596584E+03   -0.48953E-03   -0.48685E-03  7696   0.794E-02 0.372E-04
CGA:  55    -0.334778721597E+03   -0.12501E-03   -0.12505E-03  7696   0.449E-02-0.767E-06
CGA:  56    -0.334778855490E+03   -0.13389E-03   -0.13401E-03  7696   0.170E-02-0.283E-04
CGA:  57    -0.334778954594E+03   -0.99104E-04   -0.98562E-04  7696   0.401E-02 0.177E-04
CGA:  58    -0.334779066698E+03   -0.11210E-03   -0.11212E-03  7696   0.323E-02 0.119E-04
CGA:  59    -0.334779140418E+03   -0.73720E-04   -0.73773E-04  7696   0.183E-02 0.757E-05
CGA:  60    -0.334779203189E+03   -0.62771E-04   -0.62737E-04  7696   0.181E-02 0.577E-05
CGA:  61    -0.334779273129E+03   -0.69940E-04   -0.69858E-04  7696   0.214E-02 0.852E-05
CGA:  62    -0.334779305128E+03   -0.32000E-04   -0.32098E-04  7696   0.508E-03 0.314E-05
CGA:  63    -0.334779347591E+03   -0.42463E-04   -0.42179E-04  7696   0.895E-03 0.533E-05
CGA:  64    -0.334779396897E+03   -0.49306E-04   -0.49306E-04  7696   0.235E-02-0.303E-06
CGA:  65    -0.334779448664E+03   -0.51767E-04   -0.51757E-04  7696   0.918E-03-0.138E-05
SDA:  66    -0.334779466134E+03   -0.17470E-04   -0.17472E-04  7696   0.427E-03-0.274E-06
CGA:  67    -0.334779476095E+03   -0.99616E-05   -0.99655E-05  7696   0.388E-03-0.372E-07
CGA:  68    -0.334779494017E+03   -0.17922E-04   -0.17898E-04  7696   0.717E-03 0.137E-05
CGA:  69    -0.334779509762E+03   -0.15745E-04   -0.15759E-04  7696   0.380E-03 0.142E-05
CGA:  70    -0.334779523986E+03   -0.14224E-04   -0.14227E-04  7696   0.202E-03-0.383E-06
CGA:  71    -0.334779535164E+03   -0.11178E-04   -0.11185E-04  7696   0.630E-03-0.337E-06
CGA:  72    -0.334779551358E+03   -0.16194E-04   -0.16207E-04  7696   0.301E-03 0.153E-05
CGA:  73    -0.334779560565E+03   -0.92067E-05   -0.92093E-05  7696   0.896E-04 0.990E-06
   9 F= -.33477956E+03 E0= -.33474978E+03  d E =-.935791E-01  mag=    32.0000
       N       E                     dE             d eps       ncg     rms          ort
SDA:   1    -0.322747650519E+03    0.12032E+02    0.00000E+00  7696   0.663E+03 0.000E+00
CGA:   2    -0.324625456130E+03   -0.18778E+01   -0.17641E+02  7696   0.413E+03-0.104E+03
CGA:   3    -0.326799403285E+03   -0.21739E+01   -0.85847E+01  7696   0.155E+03-0.242E+02
CGA:   4    -0.329513392318E+03   -0.27140E+01   -0.16787E+01  7696   0.887E+02 0.315E+02
CGA:   5    -0.330063083659E+03   -0.54969E+00   -0.94643E+00  7696   0.711E+02-0.722E+02
CGA:   6    -0.330741076094E+03   -0.67799E+00   -0.10845E+01  7696   0.330E+02-0.207E+02
CGA:   7    -0.331220157486E+03   -0.47908E+00   -0.33319E+00  7696   0.164E+02 0.826E+01
CGA:   8    -0.331627499092E+03   -0.40734E+00   -0.36633E+00  7696   0.207E+02 0.143E+01
CGA:   9    -0.332288506180E+03   -0.66101E+00   -0.73271E+00  7696   0.599E+02 0.368E+00
CGA:  10    -0.333692455410E+03   -0.14039E+01   -0.14661E+01  7696   0.464E+02-0.135E+01
CGA:  11    -0.334354013279E+03   -0.66156E+00   -0.48596E+00  7696   0.544E+01 0.662E+01
CGA:  12    -0.334402918117E+03   -0.48905E-01   -0.44953E-01  7696   0.159E+01 0.429E+00
CGA:  13    -0.334446080099E+03   -0.43162E-01   -0.42056E-01  7696   0.491E+01 0.120E-01
CGA:  14    -0.334547916893E+03   -0.10184E+00   -0.97188E-01  7696   0.763E+01 0.130E+00
CGA:  15    -0.334620915933E+03   -0.72999E-01   -0.72801E-01  7696   0.484E+01 0.896E-02
CGA:  16    -0.334677717465E+03   -0.56802E-01   -0.61996E-01  7696   0.377E+01-0.295E+00
CGA:  17    -0.334703352796E+03   -0.25635E-01   -0.28334E-01  7696   0.787E+00-0.278E+00
CGA:  18    -0.334709791668E+03   -0.64389E-02   -0.67138E-02  7696   0.552E+00-0.245E-01
CGA:  19    -0.334721923648E+03   -0.12132E-01   -0.12111E-01  7696   0.107E+01 0.583E-04
CGA:  20    -0.334738182641E+03   -0.16259E-01   -0.16381E-01  7696   0.105E+01-0.456E-02
CGA:  21    -0.334754612820E+03   -0.16430E-01   -0.16470E-01  7696   0.906E+00-0.141E-02
CGA:  22    -0.334763739327E+03   -0.91265E-02   -0.89600E-02  7696   0.358E+00 0.132E-01
CGA:  23    -0.334767914900E+03   -0.41756E-02   -0.42905E-02  7696   0.215E+00-0.647E-02
CGA:  24    -0.334770411008E+03   -0.24961E-02   -0.25507E-02  7696   0.161E+00-0.287E-02
CGA:  25    -0.334774699095E+03   -0.42881E-02   -0.42927E-02  7696   0.441E+00 0.136E-02
CGA:  26    -0.334782572506E+03   -0.78734E-02   -0.79005E-02  7696   0.167E+00 0.173E-03
CGA:  27    -0.334784055584E+03   -0.14831E-02   -0.14746E-02  7696   0.731E-01 0.741E-03
CGA:  28    -0.334786354719E+03   -0.22991E-02   -0.22956E-02  7696   0.185E+00 0.533E-03
CGA:  29    -0.334789308768E+03   -0.29540E-02   -0.29987E-02  7696   0.136E+00-0.728E-03
CGA:  30    -0.334792341252E+03   -0.30325E-02   -0.30330E-02  7696   0.160E+00 0.183E-04
CGA:  31    -0.334794004315E+03   -0.16631E-02   -0.16106E-02  7696   0.252E-01 0.359E-02
CGA:  32    -0.334794278862E+03   -0.27455E-03   -0.27425E-03  7696   0.173E-01 0.234E-04
CGA:  33    -0.334794903266E+03   -0.62440E-03   -0.62329E-03  7696   0.510E-01 0.881E-04
CGA:  34    -0.334795846912E+03   -0.94365E-03   -0.94853E-03  7696   0.484E-01 0.149E-03
CGA:  35    -0.334796835341E+03   -0.98843E-03   -0.98951E-03  7696   0.572E-01 0.922E-04
SDA:  36    -0.334797615261E+03   -0.77992E-03   -0.77208E-03  7696   0.192E-01 0.278E-03
CGA:  37    -0.334797865544E+03   -0.25028E-03   -0.25037E-03  7696   0.586E-02-0.411E-05
CGA:  38    -0.334798084662E+03   -0.21912E-03   -0.21916E-03  7696   0.126E-01-0.358E-05
CGA:  39    -0.334798485075E+03   -0.40041E-03   -0.40044E-03  7696   0.299E-02-0.102E-04
CGA:  40    -0.334798591990E+03   -0.10691E-03   -0.10683E-03  7696   0.292E-02 0.468E-05
CGA:  41    -0.334798667594E+03   -0.75604E-04   -0.75602E-04  7696   0.416E-02-0.632E-06
CGA:  42    -0.334798968421E+03   -0.30083E-03   -0.30195E-03  7696   0.285E-02-0.235E-04
CGA:  43    -0.334799046409E+03   -0.77989E-04   -0.77984E-04  7696   0.837E-03-0.140E-04
CGA:  44    -0.334799097173E+03   -0.50764E-04   -0.50539E-04  7696   0.358E-02 0.693E-05
CGA:  45    -0.334799232002E+03   -0.13483E-03   -0.13457E-03  7696   0.279E-02 0.328E-04
CGA:  46    -0.334799273380E+03   -0.41377E-04   -0.41582E-04  7696   0.405E-03 0.840E-05
CGA:  47    -0.334799337136E+03   -0.63756E-04   -0.70831E-06  7696   0.178E-02-0.657E-04
CGA:  48    -0.334799362870E+03   -0.25734E-04   -0.25802E-04  7696   0.102E-02-0.971E-07
CGA:  49    -0.334799386236E+03   -0.23365E-04   -0.23175E-04  7696   0.394E-03 0.415E-05
CGA:  50    -0.334799403357E+03   -0.17121E-04   -0.17115E-04  7696   0.778E-03-0.808E-06
CGA:  51    -0.334799428987E+03   -0.25630E-04   -0.25657E-04  7696   0.631E-03 0.437E-06
CGA:  52    -0.334799438095E+03   -0.91076E-05   -0.91139E-05  7696   0.166E-03-0.558E-06
  10 F= -.33479944E+03 E0= -.33476897E+03  d E =-.198775E-01  mag=    32.0000
       N       E                     dE             d eps       ncg     rms          ort
SDA:   1    -0.332709748128E+03    0.20897E+01    0.00000E+00  7696   0.137E+02 0.000E+00
CGA:   2    -0.332910986740E+03   -0.20124E+00   -0.16716E+00  7696   0.613E+01 0.225E+01
CGA:   3    -0.333472965296E+03   -0.56198E+00   -0.58606E+00  7696   0.378E+02-0.595E+00
CGA:   4    -0.333989353613E+03   -0.51639E+00   -0.51717E+00  7696   0.271E+02-0.404E-02
CGA:   5    -0.334266527190E+03   -0.27717E+00   -0.34316E+00  7696   0.917E+01-0.447E+01
CGA:   6    -0.334344334000E+03   -0.77807E-01   -0.84649E-01  7696   0.426E+01-0.479E+00
CGA:   7    -0.334421021806E+03   -0.76688E-01   -0.79429E-01  7696   0.481E+01-0.521E-01
CGA:   8    -0.334524529343E+03   -0.10351E+00   -0.10974E+00  7696   0.582E+01-0.996E-01
CGA:   9    -0.334680153163E+03   -0.15562E+00   -0.15607E+00  7696   0.413E+01 0.144E-02
CGA:  10    -0.334725423376E+03   -0.45270E-01   -0.40590E-01  7696   0.976E+00 0.403E+00
CGA:  11    -0.334745181971E+03   -0.19759E-01   -0.17226E-01  7696   0.867E+00 0.107E+00
CGA:  12    -0.334758816305E+03   -0.13634E-01   -0.12517E-01  7696   0.611E+00 0.650E-01
CGA:  13    -0.334771160661E+03   -0.12344E-01   -0.12398E-01  7696   0.119E+01-0.109E-02
CGA:  14    -0.334798683892E+03   -0.27523E-01   -0.27500E-01  7696   0.190E+01-0.100E-03
CGA:  15    -0.334818253381E+03   -0.19569E-01   -0.19564E-01  7696   0.777E+00 0.128E-02
CGA:  16    -0.334825166486E+03   -0.69131E-02   -0.70122E-02  7696   0.229E+00-0.875E-02
CGA:  17    -0.334827014264E+03   -0.18478E-02   -0.19183E-02  7696   0.827E-01-0.680E-02
CGA:  18    -0.334828749879E+03   -0.17356E-02   -0.17422E-02  7696   0.218E+00 0.876E-04
CGA:  19    -0.334836969496E+03   -0.82196E-02   -0.82023E-02  7696   0.459E+00 0.162E-02
CGA:  20    -0.334841558763E+03   -0.45893E-02   -0.45644E-02  7696   0.138E+00 0.203E-02
CGA:  21    -0.334843542823E+03   -0.19841E-02   -0.19455E-02  7696   0.111E+00 0.152E-02
CGA:  22    -0.334844979606E+03   -0.14368E-02   -0.14049E-02  7696   0.601E-01 0.148E-02
CGA:  23    -0.334845813058E+03   -0.83345E-03   -0.83210E-03  7696   0.568E-01 0.261E-04
CGA:  24    -0.334846818543E+03   -0.10055E-02   -0.10071E-02  7696   0.673E-01-0.549E-05
CGA:  25    -0.334847930945E+03   -0.11124E-02   -0.11197E-02  7696   0.688E-01-0.712E-04
CGA:  26    -0.334848767586E+03   -0.83664E-03   -0.84444E-03  7696   0.246E-01-0.362E-03
CGA:  27    -0.334849021520E+03   -0.25393E-03   -0.25521E-03  7696   0.159E-01-0.888E-04
CGA:  28    -0.334849624676E+03   -0.60316E-03   -0.60326E-03  7696   0.666E-01-0.109E-04
CGA:  29    -0.334850964874E+03   -0.13402E-02   -0.13391E-02  7696   0.355E-01-0.107E-03
CGA:  30    -0.334851236687E+03   -0.27181E-03   -0.27018E-03  7696   0.605E-02 0.123E-03
CGA:  31    -0.334851315989E+03   -0.79302E-04   -0.79128E-04  7696   0.526E-02 0.548E-05
SDA:  32    -0.334851426941E+03   -0.11095E-03   -0.11103E-03  7696   0.852E-02 0.185E-04
CGA:  33    -0.334851566196E+03   -0.13925E-03   -0.13927E-03  7696   0.278E-02 0.401E-05
CGA:  34    -0.334851740613E+03   -0.17442E-03   -0.17410E-03  7696   0.946E-02 0.678E-05
CGA:  35    -0.334851996038E+03   -0.25542E-03   -0.25537E-03  7696   0.775E-02 0.308E-04
CGA:  36    -0.334852178710E+03   -0.18267E-03   -0.18279E-03  7696   0.123E-02 0.418E-04
CGA:  37    -0.334852275950E+03   -0.97240E-04   -0.97709E-04  7696   0.495E-02-0.915E-05
CGA:  38    -0.334852361709E+03   -0.85759E-04   -0.85615E-04  7696   0.537E-03-0.104E-04
CGA:  39    -0.334852391909E+03   -0.30199E-04   -0.30180E-04  7696   0.569E-03 0.525E-06
CGA:  40    -0.334852426203E+03   -0.34294E-04   -0.34545E-04  7696   0.177E-02-0.815E-05
CGA:  41    -0.334852459933E+03   -0.33730E-04   -0.33613E-04  7696   0.258E-03-0.922E-05
CGA:  42    -0.334852466336E+03   -0.64027E-05   -0.64049E-05  7696   0.247E-03 0.309E-06
CGA:  43    -0.334852487533E+03   -0.21197E-04   -0.20957E-04  7696   0.791E-03 0.425E-05
CGA:  44    -0.334852504530E+03   -0.16997E-04   -0.17015E-04  7696   0.421E-03 0.203E-05
CGA:  45    -0.334852512211E+03   -0.76813E-05   -0.76951E-05  7696   0.669E-04 0.125E-05
  11 F= -.33485251E+03 E0= -.33482240E+03  d E =-.530741E-01  mag=    32.0000
       N       E                     dE             d eps       ncg     rms          ort
SDA:   1    -0.333657205564E+03    0.11953E+01    0.00000E+00  7696   0.143E+02 0.000E+00
CGA:   2    -0.333829340033E+03   -0.17213E+00   -0.21196E+00  7696   0.579E+01-0.216E+01
CGA:   3    -0.334012184665E+03   -0.18284E+00   -0.18353E+00  7696   0.109E+02-0.180E+00
CGA:   4    -0.334423523574E+03   -0.41134E+00   -0.41035E+00  7696   0.640E+01 0.161E+00
CGA:   5    -0.334598159270E+03   -0.17464E+00   -0.17809E+00  7696   0.211E+01 0.890E-01
CGA:   6    -0.334652266655E+03   -0.54107E-01   -0.53202E-01  7696   0.207E+01-0.110E-01
CGA:   7    -0.334721755457E+03   -0.69489E-01   -0.69570E-01  7696   0.260E+01 0.532E-01
CGA:   8    -0.334807015407E+03   -0.85260E-01   -0.84951E-01  7696   0.787E+00-0.488E-01
CGA:   9    -0.334824455274E+03   -0.17440E-01   -0.17415E-01  7696   0.272E+00-0.948E-04
CGA:  10    -0.334831304103E+03   -0.68488E-02   -0.68467E-02  7696   0.357E+00-0.550E-04
CGA:  11    -0.334844307005E+03   -0.13003E-01   -0.13016E-01  7696   0.357E+00-0.256E-02
CGA:  12    -0.334854423823E+03   -0.10117E-01   -0.10135E-01  7696   0.815E-01 0.121E-02
CGA:  13    -0.334856806228E+03   -0.23824E-02   -0.23810E-02  7696   0.432E-01-0.123E-03
CGA:  14    -0.334858746777E+03   -0.19405E-02   -0.19458E-02  7696   0.628E-01-0.330E-03
CGA:  15    -0.334860542826E+03   -0.17960E-02   -0.17974E-02  7696   0.637E-01 0.107E-03
CGA:  16    -0.334861916113E+03   -0.13733E-02   -0.13720E-02  7696   0.191E-01 0.210E-04
CGA:  17    -0.334862516084E+03   -0.59997E-03   -0.59998E-03  7696   0.176E-01 0.518E-05
CGA:  18    -0.334863154340E+03   -0.63826E-03   -0.63828E-03  7696   0.285E-01-0.437E-05
CGA:  19    -0.334863787997E+03   -0.63366E-03   -0.63144E-03  7696   0.981E-02-0.123E-04
CGA:  20    -0.334864044650E+03   -0.25665E-03   -0.25692E-03  7696   0.444E-02 0.146E-04
CGA:  21    -0.334864351443E+03   -0.30679E-03   -0.30663E-03  7696   0.923E-02 0.444E-05
CGA:  22    -0.334864725693E+03   -0.37425E-03   -0.37403E-03  7696   0.574E-02 0.254E-04
CGA:  23    -0.334864827378E+03   -0.10169E-03   -0.10153E-03  7696   0.301E-02 0.714E-05
CGA:  24    -0.334864894740E+03   -0.67362E-04   -0.67333E-04  7696   0.170E-02 0.125E-05
CGA:  25    -0.334864991522E+03   -0.96781E-04   -0.96670E-04  7696   0.294E-02 0.472E-05
CGA:  26    -0.334865130737E+03   -0.13921E-03   -0.13920E-03  7696   0.194E-02 0.199E-05
CGA:  27    -0.334865165485E+03   -0.34749E-04   -0.34825E-04  7696   0.805E-03 0.217E-05
CGA:  28    -0.334865183957E+03   -0.18472E-04   -0.18478E-04  7696   0.625E-03 0.109E-05
CGA:  29    -0.334865224500E+03   -0.40543E-04   -0.40516E-04  7696   0.117E-02 0.102E-05
CGA:  30    -0.334865257575E+03   -0.33075E-04   -0.33102E-04  7696   0.768E-03 0.302E-05
CGA:  31    -0.334865269487E+03   -0.11912E-04   -0.11919E-04  7696   0.244E-03 0.363E-06
SDA:  32    -0.334865277651E+03   -0.81636E-05   -0.81637E-05  7696   0.201E-03 0.358E-06
  12 F= -.33486528E+03 E0= -.33483547E+03  d E =-.127654E-01  mag=    32.0000
       N       E                     dE             d eps       ncg     rms          ort
SDA:   1    -0.333703715036E+03    0.11616E+01    0.00000E+00  7696   0.403E+01 0.000E+00
CGA:   2    -0.333801726787E+03   -0.98012E-01   -0.98987E-01  7696   0.771E+01 0.175E-01
CGA:   3    -0.334605572589E+03   -0.80385E+00   -0.79673E+00  7696   0.541E+01 0.122E+00
CGA:   4    -0.334691470621E+03   -0.85898E-01   -0.76548E-01  7696   0.765E+00 0.430E+00
CGA:   5    -0.334762646682E+03   -0.71176E-01   -0.71123E-01  7696   0.313E+01 0.947E-03
CGA:   6    -0.334830154083E+03   -0.67507E-01   -0.66340E-01  7696   0.982E+00 0.155E-01
CGA:   7    -0.334848391298E+03   -0.18237E-01   -0.19529E-01  7696   0.303E+00-0.256E-01
CGA:   8    -0.334854460882E+03   -0.60696E-02   -0.62102E-02  7696   0.160E+00-0.168E-02
CGA:   9    -0.334862530849E+03   -0.80700E-02   -0.81443E-02  7696   0.383E+00-0.374E-02
CGA:  10    -0.334870010943E+03   -0.74801E-02   -0.75439E-02  7696   0.157E+00-0.989E-03
CGA:  11    -0.334873884350E+03   -0.38734E-02   -0.39031E-02  7696   0.337E-01 0.372E-03
CGA:  12    -0.334874478700E+03   -0.59435E-03   -0.59040E-03  7696   0.272E-01 0.103E-03
CGA:  13    -0.334876293263E+03   -0.18146E-02   -0.18143E-02  7696   0.687E-01 0.112E-04
CGA:  14    -0.334877709741E+03   -0.14165E-02   -0.14150E-02  7696   0.137E-01 0.290E-05
CGA:  15    -0.334877978138E+03   -0.26840E-03   -0.26874E-03  7696   0.810E-02-0.369E-05
CGA:  16    -0.334878145605E+03   -0.16747E-03   -0.16820E-03  7696   0.580E-02-0.361E-05
CGA:  17    -0.334878615720E+03   -0.47011E-03   -0.47229E-03  7696   0.577E-02-0.491E-04
CGA:  18    -0.334878713538E+03   -0.97818E-04   -0.97553E-04  7696   0.292E-02 0.102E-04
CGA:  19    -0.334878807316E+03   -0.93779E-04   -0.93821E-04  7696   0.344E-02 0.950E-05
CGA:  20    -0.334878916293E+03   -0.10898E-03   -0.10899E-03  7696   0.343E-02 0.602E-05
CGA:  21    -0.334879030762E+03   -0.11447E-03   -0.11447E-03  7696   0.141E-02 0.496E-05
CGA:  22    -0.334879050127E+03   -0.19365E-04   -0.19469E-04  7696   0.603E-03 0.149E-06
CGA:  23    -0.334879084562E+03   -0.34435E-04   -0.34323E-04  7696   0.101E-02 0.451E-05
CGA:  24    -0.334879141172E+03   -0.56610E-04   -0.56695E-04  7696   0.157E-02-0.384E-05
CGA:  25    -0.334879168917E+03   -0.27745E-04   -0.27745E-04  7696   0.369E-03-0.875E-06
CGA:  26    -0.334879177297E+03   -0.83804E-05   -0.83882E-05  7696   0.426E-03 0.768E-06
CGA:  27    -0.334879206057E+03   -0.28759E-04   -0.28511E-04  7696   0.446E-03 0.752E-05
CGA:  28    -0.334879216179E+03   -0.10122E-04   -0.10148E-04  7696   0.284E-03 0.199E-05
CGA:  29    -0.334879221180E+03   -0.50006E-05   -0.50084E-05  7696   0.128E-03 0.106E-05
CGA:  30    -0.334879231465E+03   -0.10285E-04   -0.10117E-04  7696   0.432E-03 0.377E-05
CGA:  31    -0.334879243551E+03   -0.12086E-04   -0.12119E-04  7696   0.116E-03 0.332E-05
SDA:  32    -0.334879245801E+03   -0.22500E-05   -0.22461E-05  7696   0.820E-04-0.150E-06
  13 F= -.33487925E+03 E0= -.33484938E+03  d E =-.139682E-01  mag=    32.0000
       N       E                     dE             d eps       ncg     rms          ort
SDA:   1    -0.264948095349E+03    0.69931E+02    0.00000E+00  7696   0.534E+03 0.000E+00
CGA:   2    -0.283745669407E+03   -0.18798E+02   -0.19606E+02  7696   0.143E+04-0.585E+03
CGA:   3    -0.297055676599E+03   -0.13310E+02   -0.26453E+02  7696   0.244E+03-0.134E+03
CGA:   4    -0.303474540442E+03   -0.64189E+01   -0.27286E+01  7696   0.160E+03 0.224E+03
CGA:   5    -0.306282135885E+03   -0.28076E+01   -0.13490E+01  7696   0.893E+02 0.121E+03
CGA:   6    -0.309131944383E+03   -0.28498E+01   -0.28800E+01  7696   0.212E+03-0.144E+02
CGA:   7    -0.315496396126E+03   -0.63645E+01   -0.60486E+01  7696   0.281E+03 0.636E+02
CGA:   8    -0.325716471800E+03   -0.10220E+02   -0.10230E+02  7696   0.224E+03-0.111E+02
CGA:   9    -0.328280167776E+03   -0.25637E+01   -0.25781E+01  7696   0.117E+03-0.243E+00
CGA:  10    -0.329417881035E+03   -0.11377E+01   -0.68501E+00  7696   0.740E+02 0.638E+02
CGA:  11    -0.330330065745E+03   -0.91218E+00   -0.10166E+01  7696   0.220E+02-0.541E+01
CGA:  12    -0.330709178426E+03   -0.37911E+00   -0.36804E+00  7696   0.201E+02 0.284E-01
CGA:  13    -0.331778629150E+03   -0.10695E+01   -0.10516E+01  7696   0.392E+02 0.905E+00
CGA:  14    -0.332633634011E+03   -0.85500E+00   -0.87661E+00  7696   0.147E+02-0.887E-01
CGA:  15    -0.332857168748E+03   -0.22353E+00   -0.20882E+00  7696   0.705E+01 0.556E+00
CGA:  16    -0.333071322097E+03   -0.21415E+00   -0.21541E+00  7696   0.108E+02-0.431E+00
CGA:  17    -0.333324988926E+03   -0.25367E+00   -0.25412E+00  7696   0.175E+02 0.631E-01
CGA:  18    -0.333712059084E+03   -0.38707E+00   -0.37920E+00  7696   0.481E+01-0.698E-01
CGA:  19    -0.333766867813E+03   -0.54809E-01   -0.52677E-01  7696   0.239E+01 0.123E+00
CGA:  20    -0.333840043746E+03   -0.73176E-01   -0.73012E-01  7696   0.400E+01 0.315E-01
CGA:  21    -0.333932708372E+03   -0.92665E-01   -0.92884E-01  7696   0.490E+01 0.188E-01
CGA:  22    -0.334020802382E+03   -0.88094E-01   -0.87730E-01  7696   0.173E+01-0.217E-03
CGA:  23    -0.334045114066E+03   -0.24312E-01   -0.23670E-01  7696   0.779E+00 0.194E-01
CGA:  24    -0.334059326189E+03   -0.14212E-01   -0.14295E-01  7696   0.707E+00 0.905E-03
CGA:  25    -0.334089400977E+03   -0.30075E-01   -0.30046E-01  7696   0.178E+01 0.119E-02
CGA:  26    -0.334116210544E+03   -0.26810E-01   -0.26802E-01  7696   0.632E+00 0.461E-04
CGA:  27    -0.334126560557E+03   -0.10350E-01   -0.10404E-01  7696   0.279E+00-0.348E-03
CGA:  28    -0.334130073327E+03   -0.35128E-02   -0.35567E-02  7696   0.151E+00-0.166E-02
CGA:  29    -0.334138447786E+03   -0.83745E-02   -0.83033E-02  7696   0.563E+00 0.244E-02
CGA:  30    -0.334153128183E+03   -0.14680E-01   -0.14679E-01  7696   0.620E+00-0.194E-02
CGA:  31    -0.334163197421E+03   -0.10069E-01   -0.10109E-01  7696   0.175E+00-0.230E-03
CGA:  32    -0.334165590143E+03   -0.23927E-02   -0.24246E-02  7696   0.928E-01-0.880E-03
CGA:  33    -0.334167678287E+03   -0.20881E-02   -0.20881E-02  7696   0.864E-01-0.225E-04
CGA:  34    -0.334171127377E+03   -0.34491E-02   -0.34588E-02  7696   0.224E+00-0.570E-03
CGA:  35    -0.334175015171E+03   -0.38878E-02   -0.38915E-02  7696   0.638E-01 0.114E-05
CGA:  36    -0.334176066443E+03   -0.10513E-02   -0.10544E-02  7696   0.363E-01-0.147E-04
CGA:  37    -0.334176732996E+03   -0.66655E-03   -0.66611E-03  7696   0.363E-01-0.111E-04
CGA:  38    -0.334178244919E+03   -0.15119E-02   -0.15097E-02  7696   0.674E-01 0.119E-03
CGA:  39    -0.334179508863E+03   -0.12639E-02   -0.12673E-02  7696   0.438E-01 0.109E-03
CGA:  40    -0.334180155151E+03   -0.64629E-03   -0.64420E-03  7696   0.104E-01 0.531E-04
SDA:  41    -0.334180363357E+03   -0.20821E-03   -0.20817E-03  7696   0.138E-01 0.109E-05
CGA:  42    -0.334180522058E+03   -0.15870E-03   -0.15904E-03  7696   0.505E-02-0.903E-05
CGA:  43    -0.334181147112E+03   -0.62505E-03   -0.45956E-05  7696   0.210E-01-0.956E-03
CGA:  44    -0.334181461870E+03   -0.31476E-03   -0.31433E-03  7696   0.671E-02 0.187E-04
CGA:  45    -0.334181668134E+03   -0.20626E-03   -0.20592E-03  7696   0.953E-02-0.333E-05
CGA:  46    -0.334182126873E+03   -0.45874E-03   -0.45843E-03  7696   0.207E-01 0.330E-04
CGA:  47    -0.334182555992E+03   -0.42912E-03   -0.43303E-03  7696   0.474E-02-0.685E-04
CGA:  48    -0.334182629436E+03   -0.73444E-04   -0.73714E-04  7696   0.236E-02-0.113E-04
CGA:  49    -0.334182754114E+03   -0.12468E-03   -0.12455E-03  7696   0.594E-02 0.443E-05
CGA:  50    -0.334182982198E+03   -0.22808E-03   -0.22805E-03  7696   0.851E-02-0.246E-04
CGA:  51    -0.334183139815E+03   -0.15762E-03   -0.15598E-03  7696   0.154E-02 0.174E-04
CGA:  52    -0.334183172276E+03   -0.32460E-04   -0.32428E-04  7696   0.161E-02-0.132E-05
CGA:  53    -0.334183295740E+03   -0.12346E-03   -0.12287E-03  7696   0.432E-02 0.153E-04
CGA:  54    -0.334183378734E+03   -0.82994E-04   -0.83053E-04  7696   0.131E-02 0.412E-05
CGA:  55    -0.334183401952E+03   -0.23218E-04   -0.23193E-04  7696   0.663E-03 0.110E-05
CGA:  56    -0.334183449014E+03   -0.47062E-04   -0.47154E-04  7696   0.294E-02-0.277E-05
CGA:  57    -0.334183531706E+03   -0.82692E-04   -0.82709E-04  7696   0.732E-03-0.223E-05
CGA:  58    -0.334183541761E+03   -0.10056E-04   -0.10070E-04  7696   0.318E-03-0.967E-06
CGA:  59    -0.334183564989E+03   -0.23228E-04   -0.23267E-04  7696   0.119E-02-0.115E-05
CGA:  60    -0.334183601118E+03   -0.36129E-04   -0.36081E-04  7696   0.671E-03-0.520E-05
CGA:  61    -0.334183611320E+03   -0.10202E-04   -0.10169E-04  7696   0.145E-03-0.171E-05
CGA:  62    -0.334183616011E+03   -0.46915E-05   -0.46903E-05  7696   0.322E-03-0.227E-06
CGA:  63    -0.334183636760E+03   -0.20749E-04   -0.20724E-04  7696   0.373E-03 0.905E-06
CGA:  64    -0.334183642032E+03   -0.52720E-05   -0.52848E-05  7696   0.995E-04 0.541E-06
  14 F= -.33418364E+03 E0= -.33415161E+03  d E =0.695604E+00  mag=    32.0000
       N       E                     dE             d eps       ncg     rms          ort
SDA:   1    -0.229938369994E+03    0.10425E+03    0.00000E+00  7696   0.229E+04 0.000E+00
CGA:   2    -0.295235469688E+03   -0.65297E+02   -0.64731E+02  7696   0.291E+03 0.774E+03
CGA:   3    -0.300425929203E+03   -0.51905E+01   -0.96822E+01  7696   0.179E+03 0.755E+02
CGA:   4    -0.306184052075E+03   -0.57581E+01   -0.29740E+01  7696   0.181E+03 0.484E+02
CGA:   5    -0.307929763831E+03   -0.17457E+01   -0.15023E+01  7696   0.342E+03-0.247E+03
CGA:   6    -0.310818632623E+03   -0.28889E+01   -0.54962E+01  7696   0.238E+03-0.116E+03
CGA:   7    -0.314493994139E+03   -0.36754E+01   -0.21361E+01  7696   0.686E+02 0.619E+02
CGA:   8    -0.316451359707E+03   -0.19574E+01   -0.16063E+01  7696   0.209E+03 0.468E+01
CGA:   9    -0.320876313418E+03   -0.44250E+01   -0.57372E+01  7696   0.139E+03 0.101E+03
CGA:  10    -0.327533295914E+03   -0.66570E+01   -0.89346E+01  7696   0.146E+03-0.181E+02
CGA:  11    -0.329148195903E+03   -0.16149E+01   -0.13269E+01  7696   0.468E+02 0.488E+02
CGA:  12    -0.329506554971E+03   -0.35836E+00   -0.14140E+00  7696   0.695E+02 0.989E+02
CGA:  13    -0.330224540713E+03   -0.71799E+00   -0.28474E+00  7696   0.811E+02 0.102E+03
CGA:  14    -0.331163503849E+03   -0.93896E+00   -0.47338E+00  7696   0.432E+02 0.693E+02
CGA:  15    -0.331858801297E+03   -0.69530E+00   -0.41514E+00  7696   0.174E+02 0.218E+02
CGA:  16    -0.332187332769E+03   -0.32853E+00   -0.30241E+00  7696   0.979E+01-0.153E+00
CGA:  17    -0.332570139638E+03   -0.38281E+00   -0.38374E+00  7696   0.247E+02-0.400E-01
CGA:  18    -0.333333557698E+03   -0.76342E+00   -0.76734E+00  7696   0.195E+02-0.451E+00
CGA:  19    -0.333698855353E+03   -0.36530E+00   -0.36163E+00  7696   0.622E+01 0.673E-01
CGA:  20    -0.333811624246E+03   -0.11277E+00   -0.11684E+00  7696   0.548E+01 0.667E-01
CGA:  21    -0.333975122090E+03   -0.16350E+00   -0.16245E+00  7696   0.805E+01 0.176E+00
CGA:  22    -0.334166586333E+03   -0.19146E+00   -0.18582E+00  7696   0.213E+01-0.512E+00
CGA:  23    -0.334237994209E+03   -0.71408E-01   -0.73179E-01  7696   0.334E+01-0.134E+00
CGA:  24    -0.334315023739E+03   -0.77030E-01   -0.77119E-01  7696   0.459E+01 0.237E-01
CGA:  25    -0.334451983708E+03   -0.13696E+00   -0.13672E+00  7696   0.442E+01 0.366E-01
CGA:  26    -0.334514609107E+03   -0.62625E-01   -0.61913E-01  7696   0.933E+00 0.334E-01
CGA:  27    -0.334535860166E+03   -0.21251E-01   -0.21466E-01  7696   0.822E+00 0.279E-01
CGA:  28    -0.334572936420E+03   -0.37076E-01   -0.36554E-01  7696   0.211E+01 0.264E-01
CGA:  29    -0.334619152933E+03   -0.46217E-01   -0.46112E-01  7696   0.606E+00-0.336E-02
CGA:  30    -0.334632940295E+03   -0.13787E-01   -0.13748E-01  7696   0.211E+00-0.392E-02
CGA:  31    -0.334636492449E+03   -0.35522E-02   -0.35609E-02  7696   0.203E+00-0.138E-03
CGA:  32    -0.334649914093E+03   -0.13422E-01   -0.13342E-01  7696   0.519E+00 0.207E-02
CGA:  33    -0.334661773345E+03   -0.11859E-01   -0.11841E-01  7696   0.221E+00-0.104E-02
CGA:  34    -0.334665173939E+03   -0.34006E-02   -0.34440E-02  7696   0.766E-01-0.868E-03
CGA:  35    -0.334667289993E+03   -0.21161E-02   -0.21158E-02  7696   0.980E-01 0.104E-03
CGA:  36    -0.334669614641E+03   -0.23246E-02   -0.23247E-02  7696   0.853E-01-0.159E-04
CGA:  37    -0.334674027933E+03   -0.44133E-02   -0.43687E-02  7696   0.726E-01 0.176E-02
CGA:  38    -0.334675422267E+03   -0.13943E-02   -0.13902E-02  7696   0.522E-01-0.475E-04
CGA:  39    -0.334676480815E+03   -0.10585E-02   -0.10529E-02  7696   0.333E-01-0.157E-03
CGA:  40    -0.334677940904E+03   -0.14601E-02   -0.14620E-02  7696   0.348E-01-0.109E-03
CGA:  41    -0.334678892323E+03   -0.95142E-03   -0.95142E-03  7696   0.317E-01-0.230E-04
CGA:  42    -0.334679330859E+03   -0.43854E-03   -0.44081E-03  7696   0.956E-02-0.102E-03
CGA:  43    -0.334680048588E+03   -0.71773E-03   -0.71461E-03  7696   0.257E-01 0.739E-04
CGA:  44    -0.334680771867E+03   -0.72328E-03   -0.72323E-03  7696   0.199E-01-0.159E-04
CGA:  45    -0.334681042499E+03   -0.27063E-03   -0.27068E-03  7696   0.532E-02-0.392E-05
SDA:  46    -0.334681229008E+03   -0.18651E-03   -0.18653E-03  7696   0.515E-02-0.444E-06
CGA:  47    -0.334681319935E+03   -0.90927E-04   -0.91037E-04  7696   0.307E-02-0.168E-05
CGA:  48    -0.334681473406E+03   -0.15347E-03   -0.15370E-03  7696   0.706E-02-0.102E-04
CGA:  49    -0.334681739874E+03   -0.26647E-03   -0.26612E-03  7696   0.685E-02 0.341E-04
CGA:  50    -0.334681898874E+03   -0.15900E-03   -0.15931E-03  7696   0.464E-02 0.157E-04
CGA:  51    -0.334681997750E+03   -0.98876E-04   -0.98717E-04  7696   0.343E-02 0.877E-06
CGA:  52    -0.334682218097E+03   -0.22035E-03   -0.22067E-03  7696   0.396E-02-0.105E-04
CGA:  53    -0.334682520839E+03   -0.30274E-03   -0.29905E-03  7696   0.189E-02 0.863E-04
CGA:  54    -0.334682554979E+03   -0.34141E-04   -0.34189E-04  7696   0.194E-02 0.125E-05
CGA:  55    -0.334682719539E+03   -0.16456E-03   -0.16405E-03  7696   0.229E-02 0.109E-04
CGA:  56    -0.334682756430E+03   -0.36891E-04   -0.36734E-04  7696   0.103E-02 0.770E-06
CGA:  57    -0.334682812123E+03   -0.55693E-04   -0.55789E-04  7696   0.255E-02-0.460E-05
CGA:  58    -0.334682937250E+03   -0.12513E-03   -0.12476E-03  7696   0.201E-02 0.200E-04
CGA:  59    -0.334682978794E+03   -0.41544E-04   -0.41532E-04  7696   0.604E-03 0.149E-05
CGA:  60    -0.334682988167E+03   -0.93732E-05   -0.93921E-05  7696   0.386E-03-0.756E-06
CGA:  61    -0.334683045828E+03   -0.57661E-04   -0.58062E-04  7696   0.516E-03-0.331E-05
CGA:  62    -0.334683069277E+03   -0.23449E-04   -0.23486E-04  7696   0.406E-03-0.497E-05
CGA:  63    -0.334683075569E+03   -0.62924E-05   -0.62984E-05  7696   0.207E-03-0.120E-05
CGA:  64    -0.334683087223E+03   -0.11654E-04   -0.11634E-04  7696   0.587E-03 0.109E-05
CGA:  65    -0.334683110041E+03   -0.22817E-04   -0.22820E-04  7696   0.182E-03 0.181E-05
CGA:  66    -0.334683112931E+03   -0.28909E-05   -0.28835E-05  7696   0.985E-04-0.818E-07
  15 F= -.33468311E+03 E0= -.33465419E+03  d E =-.499471E+00  mag=    32.0000
       N       E                     dE             d eps       ncg     rms          ort
SDA:   1    -0.331205856866E+03    0.34773E+01    0.00000E+00  7696   0.300E+03 0.000E+00
CGA:   2    -0.332433525318E+03   -0.12277E+01   -0.51155E+01  7696   0.129E+03-0.895E+02
CGA:   3    -0.333446107270E+03   -0.10126E+01   -0.15600E+01  7696   0.423E+02-0.218E+02
CGA:   4    -0.333874825832E+03   -0.42872E+00   -0.25006E+00  7696   0.175E+02 0.229E+02
CGA:   5    -0.334097625685E+03   -0.22280E+00   -0.21376E+00  7696   0.247E+01 0.361E+00
CGA:   6    -0.334166190381E+03   -0.68565E-01   -0.66696E-01  7696   0.515E+01-0.368E-01
CGA:   7    -0.334404481646E+03   -0.23829E+00   -0.26185E+00  7696   0.906E+01-0.120E+01
CGA:   8    -0.334558774736E+03   -0.15429E+00   -0.16128E+00  7696   0.713E+01-0.514E-02
CGA:   9    -0.334644290453E+03   -0.85516E-01   -0.11440E+00  7696   0.118E+01-0.849E+00
CGA:  10    -0.334665992234E+03   -0.21702E-01   -0.21733E-01  7696   0.106E+01-0.255E-03
CGA:  11    -0.334740749765E+03   -0.74758E-01   -0.73477E-01  7696   0.146E+01 0.345E-01
CGA:  12    -0.334764554526E+03   -0.23805E-01   -0.24211E-01  7696   0.514E+00-0.141E-01
CGA:  13    -0.334781069187E+03   -0.16515E-01   -0.16385E-01  7696   0.247E+00-0.269E-01
CGA:  14    -0.334785579754E+03   -0.45106E-02   -0.44296E-02  7696   0.189E+00 0.168E-02
CGA:  15    -0.334797928419E+03   -0.12349E-01   -0.12329E-01  7696   0.386E+00 0.589E-03
CGA:  16    -0.334805653163E+03   -0.77247E-02   -0.78924E-02  7696   0.749E-01-0.230E-02
CGA:  17    -0.334807408012E+03   -0.17548E-02   -0.17188E-02  7696   0.347E-01-0.564E-04
CGA:  18    -0.334808534864E+03   -0.11269E-02   -0.11267E-02  7696   0.671E-01-0.508E-04
CGA:  19    -0.334811747943E+03   -0.32131E-02   -0.32132E-02  7696   0.439E-01-0.132E-04
CGA:  20    -0.334812528743E+03   -0.78080E-03   -0.78397E-03  7696   0.200E-01-0.829E-04
CGA:  21    -0.334813502801E+03   -0.97406E-03   -0.96311E-03  7696   0.255E-01 0.596E-03
CGA:  22    -0.334814049904E+03   -0.54710E-03   -0.54619E-03  7696   0.155E-01 0.296E-05
[...]
CGA:  25    -0.335093773580E+03   -0.18443E-03   -0.18425E-03  7696   0.627E-02 0.237E-04
CGA:  26    -0.335093847165E+03   -0.73585E-04   -0.73581E-04  7696   0.389E-02-0.115E-05
CGA:  27    -0.335093946151E+03   -0.98986E-04   -0.99089E-04  7696   0.391E-02-0.183E-04
CGA:  28    -0.335093990278E+03   -0.44127E-04   -0.44103E-04  7696   0.198E-02 0.214E-06
CGA:  29    -0.335094039572E+03   -0.49294E-04   -0.49262E-04  7696   0.298E-02 0.730E-05
CGA:  30    -0.335094093960E+03   -0.54388E-04   -0.54433E-04  7696   0.315E-02 0.126E-04
CGA:  31    -0.335094150246E+03   -0.56286E-04   -0.56331E-04  7696   0.163E-02 0.114E-04
SDA:  32    -0.335094169415E+03   -0.19169E-04   -0.19172E-04  7696   0.857E-03 0.248E-05
CGA:  33    -0.335094180805E+03   -0.11390E-04   -0.11386E-04  7696   0.307E-03-0.959E-06
CGA:  34    -0.335094188716E+03   -0.79116E-05   -0.79264E-05  7696   0.384E-03-0.238E-05
CGA:  35    -0.335094206576E+03   -0.17860E-04   -0.18006E-04  7696   0.714E-03-0.543E-05
CGA:  36    -0.335094238376E+03   -0.31799E-04   -0.31785E-04  7696   0.189E-03 0.702E-06
CGA:  37    -0.335094241788E+03   -0.34122E-05   -0.34174E-05  7696   0.181E-03 0.110E-05
CGA:  38    -0.335094256492E+03   -0.14704E-04   -0.14078E-04  7696   0.116E-03 0.114E-04
CGA:  39    -0.335094260652E+03   -0.41605E-05   -0.41406E-05  7696   0.140E-03 0.239E-05
  75 F= -.33509426E+03 E0= -.33506365E+03  d E =-.616253E-02  mag=    32.0000
       N       E                     dE             d eps       ncg     rms          ort
SDA:   1    -0.334892707485E+03    0.20155E+00    0.00000E+00  7696   0.956E+01 0.000E+00
CGA:   2    -0.334969299114E+03   -0.76592E-01   -0.82342E-01  7696   0.467E+00-0.484E+00
CGA:   3    -0.334989336719E+03   -0.20038E-01   -0.20273E-01  7696   0.163E+01-0.106E-01
CGA:   4    -0.335047848819E+03   -0.58512E-01   -0.58690E-01  7696   0.695E+00-0.126E-01
CGA:   5    -0.335060899085E+03   -0.13050E-01   -0.13269E-01  7696   0.320E+00 0.517E-02
CGA:   6    -0.335067837663E+03   -0.69386E-02   -0.69443E-02  7696   0.180E+00 0.482E-03
CGA:   7    -0.335078485442E+03   -0.10648E-01   -0.10641E-01  7696   0.446E+00 0.214E-03
CGA:   8    -0.335086797367E+03   -0.83119E-02   -0.82935E-02  7696   0.107E+00-0.342E-04
CGA:   9    -0.335088791444E+03   -0.19941E-02   -0.19694E-02  7696   0.602E-01-0.142E-03
CGA:  10    -0.335090032147E+03   -0.12407E-02   -0.12404E-02  7696   0.210E-01-0.129E-04
CGA:  11    -0.335091061776E+03   -0.10296E-02   -0.10312E-02  7696   0.563E-01-0.681E-04
CGA:  12    -0.335092622691E+03   -0.15609E-02   -0.15607E-02  7696   0.734E-02 0.160E-03
CGA:  13    -0.335092741712E+03   -0.11902E-03   -0.11890E-03  7696   0.469E-02 0.170E-05
CGA:  14    -0.335092995030E+03   -0.25332E-03   -0.25309E-03  7696   0.929E-02 0.904E-05
CGA:  15    -0.335093166304E+03   -0.17127E-03   -0.17130E-03  7696   0.433E-02 0.105E-04
CGA:  16    -0.335093296359E+03   -0.13006E-03   -0.12997E-03  7696   0.240E-02 0.249E-04
CGA:  17    -0.335093341868E+03   -0.45510E-04   -0.45594E-04  7696   0.130E-02 0.527E-05
CGA:  18    -0.335093411392E+03   -0.69524E-04   -0.69608E-04  7696   0.191E-02-0.312E-05
CGA:  19    -0.335093446089E+03   -0.34696E-04   -0.34693E-04  7696   0.763E-03 0.763E-06
CGA:  20    -0.335093463157E+03   -0.17069E-04   -0.17084E-04  7696   0.408E-03 0.170E-05
CGA:  21    -0.335093471696E+03   -0.85388E-05   -0.85436E-05  7696   0.385E-03 0.670E-06
CGA:  22    -0.335093504079E+03   -0.32383E-04   -0.32203E-04  7696   0.769E-03 0.316E-05
CGA:  23    -0.335093514850E+03   -0.10771E-04   -0.10767E-04  7696   0.886E-04 0.381E-07
CGA:  24    -0.335093518059E+03   -0.32089E-05   -0.32092E-05  7696   0.141E-03-0.462E-07
  76 F= -.33509352E+03 E0= -.33506300E+03  d E =0.742593E-03  mag=    32.0000
       N       E                     dE             d eps       ncg     rms          ort
SDA:   1    -0.333561497527E+03    0.15320E+01    0.00000E+00  7696   0.152E+02 0.000E+00
CGA:   2    -0.333742328558E+03   -0.18083E+00   -0.20895E+00  7696   0.664E+01-0.132E+01
CGA:   3    -0.334143103299E+03   -0.40077E+00   -0.43460E+00  7696   0.244E+02-0.880E+00
CGA:   4    -0.334682520761E+03   -0.53942E+00   -0.54240E+00  7696   0.427E+01 0.168E+00
CGA:   5    -0.334783525486E+03   -0.10100E+00   -0.10518E+00  7696   0.277E+01 0.180E+00
CGA:   6    -0.334842735617E+03   -0.59210E-01   -0.58684E-01  7696   0.263E+01-0.101E-02
CGA:   7    -0.334949943892E+03   -0.10721E+00   -0.11285E+00  7696   0.306E+01-0.358E+00
CGA:   8    -0.335020939993E+03   -0.70996E-01   -0.70997E-01  7696   0.134E+01 0.764E-03
CGA:   9    -0.335042384846E+03   -0.21445E-01   -0.21798E-01  7696   0.500E+00-0.768E-02
CGA:  10    -0.335052468299E+03   -0.10083E-01   -0.10365E-01  7696   0.262E+00 0.292E-02
CGA:  11    -0.335065630989E+03   -0.13163E-01   -0.13163E-01  7696   0.571E+00 0.129E-04
CGA:  12    -0.335076043561E+03   -0.10413E-01   -0.10356E-01  7696   0.111E+00 0.770E-03
CGA:  13    -0.335078720572E+03   -0.26770E-02   -0.26557E-02  7696   0.782E-01-0.978E-03
CGA:  14    -0.335080833763E+03   -0.21132E-02   -0.21122E-02  7696   0.979E-01-0.191E-03
CGA:  15    -0.335084476481E+03   -0.36427E-02   -0.36296E-02  7696   0.523E-01 0.120E-02
CGA:  16    -0.335085285039E+03   -0.80856E-03   -0.80735E-03  7696   0.150E-01 0.747E-04
CGA:  17    -0.335085813555E+03   -0.52852E-03   -0.52800E-03  7696   0.299E-01 0.570E-04
CGA:  18    -0.335086994890E+03   -0.11813E-02   -0.11806E-02  7696   0.241E-01 0.627E-04
CGA:  19    -0.335087508831E+03   -0.51394E-03   -0.51251E-03  7696   0.925E-02-0.180E-04
CGA:  20    -0.335087639540E+03   -0.13071E-03   -0.13068E-03  7696   0.259E-02 0.102E-05
CGA:  21    -0.335087813035E+03   -0.17350E-03   -0.17273E-03  7696   0.664E-02 0.210E-04
CGA:  22    -0.335087976014E+03   -0.16298E-03   -0.16307E-03  7696   0.653E-02 0.578E-05
CGA:  23    -0.335088178642E+03   -0.20263E-03   -0.20266E-03  7696   0.233E-02-0.202E-04
CGA:  24    -0.335088219055E+03   -0.40413E-04   -0.40384E-04  7696   0.115E-02-0.182E-05
CGA:  25    -0.335088253090E+03   -0.34035E-04   -0.34036E-04  7696   0.133E-02-0.326E-05
CGA:  26    -0.335088306350E+03   -0.53259E-04   -0.53284E-04  7696   0.174E-02-0.191E-05
CGA:  27    -0.335088345018E+03   -0.38669E-04   -0.38714E-04  7696   0.648E-03 0.371E-05
CGA:  28    -0.335088357342E+03   -0.12324E-04   -0.12360E-04  7696   0.508E-03 0.239E-05
CGA:  29    -0.335088397481E+03   -0.40139E-04   -0.39745E-04  7696   0.105E-02 0.811E-05
CGA:  30    -0.335088416064E+03   -0.18583E-04   -0.18610E-04  7696   0.426E-03 0.215E-05
CGA:  31    -0.335088424196E+03   -0.81322E-05   -0.81255E-05  7696   0.122E-03 0.720E-07
  77 F= -.33508842E+03 E0= -.33505804E+03  d E =0.509386E-02  mag=    32.0000
       N       E                     dE             d eps       ncg     rms          ort
SDA:   1    -0.334705548930E+03    0.38287E+00    0.00000E+00  7696   0.158E+02 0.000E+00
CGA:   2    -0.334830959062E+03   -0.12541E+00   -0.13747E+00  7696   0.132E+01-0.128E+01
CGA:   3    -0.334874931910E+03   -0.43973E-01   -0.44900E-01  7696   0.207E+01-0.928E-01
CGA:   4    -0.334931072648E+03   -0.56141E-01   -0.56225E-01  7696   0.236E+01 0.278E-01
CGA:   5    -0.335017715838E+03   -0.86643E-01   -0.85848E-01  7696   0.958E+00 0.949E-01
CGA:   6    -0.335034803206E+03   -0.17087E-01   -0.16694E-01  7696   0.490E+00 0.881E-02
CGA:   7    -0.335048930154E+03   -0.14127E-01   -0.14024E-01  7696   0.477E+00-0.267E-01
CGA:   8    -0.335060586065E+03   -0.11656E-01   -0.11645E-01  7696   0.399E+00-0.929E-03
CGA:   9    -0.335083244134E+03   -0.22658E-01   -0.22176E-01  7696   0.798E-01 0.177E-01
CGA:  10    -0.335084586782E+03   -0.13426E-02   -0.13270E-02  7696   0.453E-01 0.443E-03
CGA:  11    -0.335086422476E+03   -0.18357E-02   -0.18552E-02  7696   0.739E-01-0.143E-02
CGA:  12    -0.335087985958E+03   -0.15635E-02   -0.15643E-02  7696   0.459E-01 0.399E-05
CGA:  13    -0.335089789892E+03   -0.18039E-02   -0.17982E-02  7696   0.345E-01 0.470E-03
CGA:  14    -0.335090220728E+03   -0.43084E-03   -0.43528E-03  7696   0.440E-02-0.232E-03
CGA:  15    -0.335090512648E+03   -0.29192E-03   -0.29466E-03  7696   0.110E-01-0.760E-04
CGA:  16    -0.335090781861E+03   -0.26921E-03   -0.26921E-03  7696   0.786E-02-0.415E-05
CGA:  17    -0.335091036370E+03   -0.25451E-03   -0.25447E-03  7696   0.652E-02 0.238E-04
CGA:  18    -0.335091127569E+03   -0.91198E-04   -0.91131E-04  7696   0.128E-02 0.209E-05
CGA:  19    -0.335091160663E+03   -0.33094E-04   -0.33079E-04  7696   0.139E-02-0.203E-05
CGA:  20    -0.335091201329E+03   -0.40667E-04   -0.40658E-04  7696   0.131E-02-0.479E-05
CGA:  21    -0.335091291483E+03   -0.90154E-04   -0.89916E-04  7696   0.176E-02 0.635E-05
CGA:  22    -0.335091319884E+03   -0.28401E-04   -0.28372E-04  7696   0.493E-03 0.104E-05
CGA:  23    -0.335091336192E+03   -0.16308E-04   -0.16306E-04  7696   0.452E-03 0.103E-05
CGA:  24    -0.335091345070E+03   -0.88773E-05   -0.88799E-05  7696   0.305E-03 0.935E-07
CGA:  25    -0.335091363571E+03   -0.18501E-04   -0.18537E-04  7696   0.996E-03-0.121E-05
CGA:  26    -0.335091382127E+03   -0.18556E-04   -0.18546E-04  7696   0.162E-03-0.565E-06
CGA:  27    -0.335091387953E+03   -0.58257E-05   -0.58244E-05  7696   0.208E-03 0.296E-06
  78 F= -.33509139E+03 E0= -.33506100E+03  d E =-.296376E-02  mag=    32.0000
       N       E                     dE             d eps       ncg     rms          ort
SDA:   1    -0.333560897682E+03    0.15305E+01    0.00000E+00  7696   0.212E+02 0.000E+00
CGA:   2    -0.333759593657E+03   -0.19870E+00   -0.24066E+00  7696   0.768E+01-0.272E+01
CGA:   3    -0.334075554634E+03   -0.31596E+00   -0.30949E+00  7696   0.123E+02 0.328E+00
CGA:   4    -0.334419646178E+03   -0.34409E+00   -0.34610E+00  7696   0.918E+01 0.160E+00
CGA:   5    -0.334659421577E+03   -0.23978E+00   -0.23653E+00  7696   0.633E+01-0.153E+00
CGA:   6    -0.334832105429E+03   -0.17268E+00   -0.17335E+00  7696   0.330E+01 0.961E-01
CGA:   7    -0.334896184362E+03   -0.64079E-01   -0.57648E-01  7696   0.131E+01 0.156E+00
CGA:   8    -0.334939893705E+03   -0.43709E-01   -0.43805E-01  7696   0.245E+01-0.283E-01
CGA:   9    -0.335033359640E+03   -0.93466E-01   -0.92991E-01  7696   0.157E+01 0.398E-01
CGA:  10    -0.335058982244E+03   -0.25623E-01   -0.25502E-01  7696   0.463E+00 0.310E-02
CGA:  11    -0.335068911948E+03   -0.99297E-02   -0.10189E-01  7696   0.133E+00 0.502E-02
CGA:  12    -0.335074385308E+03   -0.54734E-02   -0.55456E-02  7696   0.243E+00-0.484E-02
CGA:  13    -0.335080648631E+03   -0.62633E-02   -0.62667E-02  7696   0.172E+00 0.379E-03
CGA:  14    -0.335087238744E+03   -0.65901E-02   -0.65525E-02  7696   0.675E-01 0.324E-02
CGA:  15    -0.335088206507E+03   -0.96776E-03   -0.97807E-03  7696   0.275E-01-0.392E-03
CGA:  16    -0.335089010588E+03   -0.80408E-03   -0.80408E-03  7696   0.344E-01 0.640E-04
CGA:  17    -0.335090179669E+03   -0.11691E-02   -0.11708E-02  7696   0.265E-01-0.255E-03
CGA:  18    -0.335091018280E+03   -0.83861E-03   -0.83869E-03  7696   0.217E-01-0.250E-04
CGA:  19    -0.335091384867E+03   -0.36659E-03   -0.36640E-03  7696   0.762E-02-0.222E-05
CGA:  20    -0.335091694382E+03   -0.30952E-03   -0.30876E-03  7696   0.722E-02 0.518E-04
CGA:  21    -0.335091893945E+03   -0.19956E-03   -0.19958E-03  7696   0.100E-01-0.286E-06
CGA:  22    -0.335092143435E+03   -0.24949E-03   -0.24906E-03  7696   0.397E-02-0.365E-04
CGA:  23    -0.335092227716E+03   -0.84281E-04   -0.84252E-04  7696   0.235E-02-0.383E-05
CGA:  24    -0.335092350102E+03   -0.12239E-03   -0.12226E-03  7696   0.442E-02 0.530E-05
CGA:  25    -0.335092445001E+03   -0.94899E-04   -0.95030E-04  7696   0.259E-02 0.725E-05
CGA:  26    -0.335092537976E+03   -0.92975E-04   -0.92996E-04  7696   0.127E-02-0.147E-05
CGA:  27    -0.335092560530E+03   -0.22554E-04   -0.22566E-04  7696   0.961E-03 0.199E-06
CGA:  28    -0.335092593681E+03   -0.33152E-04   -0.33158E-04  7696   0.116E-02-0.894E-06
CGA:  29    -0.335092643891E+03   -0.50210E-04   -0.50196E-04  7696   0.161E-02 0.139E-05
CGA:  30    -0.335092684048E+03   -0.40157E-04   -0.40213E-04  7696   0.628E-03 0.739E-05
CGA:  31    -0.335092694552E+03   -0.10505E-04   -0.10525E-04  7696   0.281E-03 0.144E-05
SDA:  32    -0.335092707764E+03   -0.13211E-04   -0.13189E-04  7696   0.341E-03 0.135E-05
CGA:  33    -0.335092712336E+03   -0.45722E-05   -0.45921E-05  7696   0.183E-03 0.553E-06
  79 F= -.33509271E+03 E0= -.33506214E+03  d E =-.132438E-02  mag=    32.0000
       N       E                     dE             d eps       ncg     rms          ort
SDA:   1    -0.334850114076E+03    0.24259E+00    0.00000E+00  7696   0.426E+01 0.000E+00
CGA:   2    -0.334891185379E+03   -0.41071E-01   -0.40580E-01  7696   0.810E+00 0.313E-01
CGA:   3    -0.334930070051E+03   -0.38885E-01   -0.38539E-01  7696   0.227E+01 0.167E-01
CGA:   4    -0.335018025309E+03   -0.87955E-01   -0.87677E-01  7696   0.126E+01 0.240E-01
CGA:   5    -0.335037935319E+03   -0.19910E-01   -0.19159E-01  7696   0.481E+00 0.250E-01
CGA:   6    -0.335052591476E+03   -0.14656E-01   -0.14679E-01  7696   0.292E+00-0.127E-01
CGA:   7    -0.335071411813E+03   -0.18820E-01   -0.18701E-01  7696   0.100E+01 0.344E-02
CGA:   8    -0.335086241746E+03   -0.14830E-01   -0.14942E-01  7696   0.826E-01-0.401E-02
CGA:   9    -0.335088921335E+03   -0.26796E-02   -0.26837E-02  7696   0.780E-01-0.929E-03
CGA:  10    -0.335090505494E+03   -0.15842E-02   -0.15888E-02  7696   0.678E-01 0.293E-04
CGA:  11    -0.335093974484E+03   -0.34690E-02   -0.34672E-02  7696   0.691E-01 0.825E-04
CGA:  12    -0.335095036295E+03   -0.10618E-02   -0.10643E-02  7696   0.991E-02-0.628E-04
CGA:  13    -0.335095274073E+03   -0.23778E-03   -0.23789E-03  7696   0.149E-01 0.463E-05
CGA:  14    -0.335095946441E+03   -0.67237E-03   -0.67457E-03  7696   0.100E-01-0.120E-03
CGA:  15    -0.335096276159E+03   -0.32972E-03   -0.32944E-03  7696   0.582E-02 0.656E-04
CGA:  16    -0.335096357912E+03   -0.81753E-04   -0.81988E-04  7696   0.284E-02-0.343E-05
CGA:  17    -0.335096600273E+03   -0.24236E-03   -0.24192E-03  7696   0.366E-02 0.787E-05
CGA:  18    -0.335096650555E+03   -0.50282E-04   -0.50394E-04  7696   0.121E-02 0.622E-06
CGA:  19    -0.335096683924E+03   -0.33369E-04   -0.33401E-04  7696   0.927E-03 0.533E-05
CGA:  20    -0.335096713738E+03   -0.29813E-04   -0.29812E-04  7696   0.113E-02 0.124E-05
CGA:  21    -0.335096777184E+03   -0.63447E-04   -0.63546E-04  7696   0.205E-02-0.394E-05
CGA:  22    -0.335096802358E+03   -0.25174E-04   -0.25200E-04  7696   0.157E-03-0.232E-05
CGA:  23    -0.335096812308E+03   -0.99500E-05   -0.98917E-05  7696   0.354E-03 0.185E-05
CGA:  24    -0.335096822509E+03   -0.10201E-04   -0.10206E-04  7696   0.548E-03 0.103E-05
CGA:  25    -0.335096839574E+03   -0.17064E-04   -0.17064E-04  7696   0.179E-03-0.788E-07
CGA:  26    -0.335096842907E+03   -0.33335E-05   -0.33243E-05  7696   0.859E-04-0.591E-06
  80 F= -.33509684E+03 E0= -.33506628E+03  d E =-.413057E-02  mag=    32.0000
       N       E                     dE             d eps       ncg     rms          ort
SDA:   1    -0.334858232092E+03    0.23861E+00    0.00000E+00  7696   0.102E+02 0.000E+00
CGA:   2    -0.334946821421E+03   -0.88589E-01   -0.74601E-01  7696   0.700E+00 0.160E+01
CGA:   3    -0.334959675697E+03   -0.12854E-01   -0.12539E-01  7696   0.838E+00 0.110E-01
CGA:   4    -0.334981246668E+03   -0.21571E-01   -0.21294E-01  7696   0.156E+01-0.975E-02
CGA:   5    -0.335011407256E+03   -0.30161E-01   -0.30230E-01  7696   0.217E+01-0.488E-03
CGA:   6    -0.335040496398E+03   -0.29089E-01   -0.29722E-01  7696   0.147E+01-0.292E-01
CGA:   7    -0.335060081074E+03   -0.19585E-01   -0.20207E-01  7696   0.906E+00-0.227E-01
CGA:   8    -0.335068760089E+03   -0.86790E-02   -0.91940E-02  7696   0.157E+00-0.340E-01
CGA:   9    -0.335071202531E+03   -0.24424E-02   -0.24386E-02  7696   0.244E+00 0.632E-04
CGA:  10    -0.335086295022E+03   -0.15092E-01   -0.15113E-01  7696   0.482E+00-0.619E-03
CGA:  11    -0.335090079149E+03   -0.37841E-02   -0.37963E-02  7696   0.373E-01-0.137E-02
CGA:  12    -0.335090780093E+03   -0.70094E-03   -0.70260E-03  7696   0.550E-01 0.149E-04
CGA:  13    -0.335092275898E+03   -0.14958E-02   -0.14966E-02  7696   0.605E-01 0.822E-03
CGA:  14    -0.335093451623E+03   -0.11757E-02   -0.11765E-02  7696   0.445E-01 0.292E-04
CGA:  15    -0.335094205325E+03   -0.75370E-03   -0.74874E-03  7696   0.335E-01 0.731E-04
CGA:  16    -0.335094792641E+03   -0.58732E-03   -0.58046E-03  7696   0.107E-01 0.470E-04
CGA:  17    -0.335094927746E+03   -0.13511E-03   -0.13546E-03  7696   0.854E-02-0.963E-05
CGA:  18    -0.335095413082E+03   -0.48534E-03   -0.48674E-03  7696   0.218E-01-0.477E-04
CGA:  19    -0.335095633754E+03   -0.22067E-03   -0.22038E-03  7696   0.313E-02 0.249E-04
CGA:  20    -0.335095687340E+03   -0.53586E-04   -0.53567E-04  7696   0.404E-02 0.126E-05
CGA:  21    -0.335095851674E+03   -0.16433E-03   -0.16418E-03  7696   0.746E-02 0.101E-04
CGA:  22    -0.335095949621E+03   -0.97947E-04   -0.98121E-04  7696   0.372E-02 0.440E-05
CGA:  23    -0.335096037130E+03   -0.87509E-04   -0.87497E-04  7696   0.277E-02 0.296E-06
CGA:  24    -0.335096064176E+03   -0.27046E-04   -0.27056E-04  7696   0.595E-03 0.147E-05
CGA:  25    -0.335096079626E+03   -0.15451E-04   -0.15450E-04  7696   0.109E-02 0.175E-06
CGA:  26    -0.335096107754E+03   -0.28128E-04   -0.28127E-04  7696   0.165E-02 0.203E-06
CGA:  27    -0.335096146014E+03   -0.38260E-04   -0.38253E-04  7696   0.128E-02-0.365E-05
CGA:  28    -0.335096166341E+03   -0.20327E-04   -0.20279E-04  7696   0.852E-03-0.483E-05
CGA:  29    -0.335096177511E+03   -0.11169E-04   -0.11112E-04  7696   0.141E-03-0.339E-05
CGA:  30    -0.335096179913E+03   -0.24024E-05   -0.24003E-05  7696   0.217E-03-0.315E-06
CGA:  31    -0.335096194573E+03   -0.14660E-04   -0.14579E-04  7696   0.418E-03 0.184E-05
SDA:  32    -0.335096198641E+03   -0.40683E-05   -0.40701E-05  7696   0.120E-03-0.147E-06
  81 F= -.33509620E+03 E0= -.33506576E+03  d E =0.644266E-03  mag=    32.0000
       N       E                     dE             d eps       ncg     rms          ort
SDA:   1    -0.335033784351E+03    0.62410E-01    0.00000E+00  7696   0.161E+01 0.000E+00
CGA:   2    -0.335047666859E+03   -0.13883E-01   -0.13488E-01  7696   0.167E+00 0.335E-01
CGA:   3    -0.335060368263E+03   -0.12701E-01   -0.12905E-01  7696   0.560E+00-0.473E-02
CGA:   4    -0.335075070732E+03   -0.14702E-01   -0.14703E-01  7696   0.452E+00-0.314E-02
CGA:   5    -0.335083003510E+03   -0.79328E-02   -0.81266E-02  7696   0.163E+00 0.447E-03
CGA:   6    -0.335085827001E+03   -0.28235E-02   -0.28284E-02  7696   0.640E-01-0.995E-05
CGA:   7    -0.335088248338E+03   -0.24213E-02   -0.24385E-02  7696   0.154E+00-0.117E-02
CGA:   8    -0.335092685668E+03   -0.44373E-02   -0.44378E-02  7696   0.631E-01-0.125E-03
CGA:   9    -0.335094448515E+03   -0.17628E-02   -0.17595E-02  7696   0.317E-01 0.159E-02
CGA:  10    -0.335094809809E+03   -0.36129E-03   -0.36015E-03  7696   0.645E-02 0.717E-04
CGA:  11    -0.335095445321E+03   -0.63551E-03   -0.63527E-03  7696   0.258E-01 0.570E-05
CGA:  12    -0.335095841625E+03   -0.39630E-03   -0.39653E-03  7696   0.651E-02-0.130E-04
CGA:  13    -0.335095998283E+03   -0.15666E-03   -0.15612E-03  7696   0.102E-02-0.385E-04
CGA:  14    -0.335096079205E+03   -0.80922E-04   -0.81033E-04  7696   0.437E-02-0.245E-05
CGA:  15    -0.335096192385E+03   -0.11318E-03   -0.11320E-03  7696   0.175E-02 0.415E-05
CGA:  16    -0.335096218527E+03   -0.26142E-04   -0.26141E-04  7696   0.589E-03 0.128E-05
CGA:  17    -0.335096237398E+03   -0.18871E-04   -0.18872E-04  7696   0.448E-03-0.280E-06
CGA:  18    -0.335096247544E+03   -0.10146E-04   -0.10154E-04  7696   0.524E-03 0.104E-05
CGA:  19    -0.335096267763E+03   -0.20219E-04   -0.20192E-04  7696   0.147E-03 0.318E-05
CGA:  20    -0.335096274823E+03   -0.70606E-05   -0.70277E-05  7696   0.166E-03 0.188E-05
  82 F= -.33509627E+03 E0= -.33506591E+03  d E =-.761820E-04  mag=    32.0000
