       N       E                     dE             d eps       ncg     rms          ort
DAV:   1     0.639669718749E+04    0.63967E+04   -0.31665E+05  8320   0.178E+03
DAV:   2     0.350971345929E+03   -0.60457E+04   -0.56582E+04  8320   0.513E+02
DAV:   3    -0.299637802285E+03   -0.65061E+03   -0.63017E+03  8320   0.188E+02
DAV:   4    -0.318197420339E+03   -0.18560E+02   -0.18410E+02  8320   0.350E+01
DAV:   5    -0.318736710162E+03   -0.53929E+00   -0.53595E+00  8320   0.532E+00
SDA:   6     0.805448855837E+02    0.39928E+03   -0.53595E+00  8320   0.247E+04 0.000E+00
CGA:   7     0.773290464240E+01   -0.72812E+02   -0.12714E+03  8320   0.103E+05-0.154E+04
CGA:   8     0.630925981442E+03    0.62319E+03   -0.55420E+03  8320   0.552E+05-0.864E+04
CGA:   9     0.265617797579E+04    0.20253E+04   -0.40349E+04  8320   0.239E+05-0.858E+04
CGA:  10     0.923016246800E+03   -0.17332E+04   -0.45686E+03  8320   0.107E+05 0.502E+03
CGA:  11     0.798673953880E+02   -0.84315E+03   -0.24368E+03  8320   0.879E+04-0.797E+04
CGA:  12     0.493815812882E+03    0.41395E+03   -0.42045E+03  8320   0.593E+05-0.256E+05
CGA:  13     0.213505736940E+04    0.16412E+04   -0.34621E+04  8320   0.139E+06-0.536E+05
CGA:  14     0.219898209353E+04    0.63925E+02   -0.86274E+04  8320   0.449E+05-0.131E+05
CGA:  15     0.724197787660E+03   -0.14748E+04   -0.17446E+04  8320   0.495E+05 0.294E+05
CGA:  16     0.145304439326E+04    0.72885E+03   -0.26482E+04  8320   0.128E+05-0.700E+04
CGA:  17     0.107053527143E+03   -0.13460E+04   -0.26490E+03  8320   0.118E+05 0.227E+05
CGA:  18    -0.163633911517E+02   -0.12342E+03   -0.34832E+03  8320   0.183E+05-0.191E+05
CGA:  19     0.607927426182E+03    0.62429E+03   -0.80717E+03  8320   0.437E+05-0.177E+05
CGA:  20     0.232217581680E+04    0.17142E+04   -0.19285E+04  8320   0.791E+05-0.375E+05
CGA:  21     0.161721772699E+04   -0.70496E+03   -0.32044E+04  8320   0.369E+05-0.347E+05
CGA:  22     0.335163722813E+03   -0.12821E+04   -0.64897E+03  8320   0.181E+05-0.870E+03
CGA:  23     0.605423890748E+03    0.27026E+03   -0.74211E+03  8320   0.386E+05-0.188E+05
CGA:  24     0.146206481391E+04    0.85664E+03   -0.14179E+04  8320   0.106E+06-0.643E+05
CGA:  25     0.186672369669E+04    0.40466E+03   -0.47601E+04  8320   0.313E+05-0.190E+05
CGA:  26     0.274277082757E+03   -0.15924E+04   -0.81792E+03  8320   0.193E+05-0.743E+03
CGA:  27     0.280135124611E+03    0.58580E+01   -0.72046E+03  8320   0.183E+05-0.926E+04
CGA:  28    -0.657771193587E+02   -0.34591E+03   -0.18943E+03  8320   0.683E+04-0.678E+04
CGA:  29    -0.155120205627E+03   -0.89343E+02   -0.80095E+02  8320   0.190E+04-0.225E+03
CGA:  30    -0.166741241517E+03   -0.11621E+02   -0.22388E+02  8320   0.419E+04-0.833E+03
CGA:  31    -0.448827735952E+02    0.12186E+03   -0.49487E+02  8320   0.780E+04-0.277E+04
CGA:  32    -0.155210083884E+03   -0.11033E+03   -0.12650E+03  8320   0.277E+04-0.110E+04
CGA:  33    -0.187379646894E+03   -0.32170E+02   -0.41404E+02  8320   0.212E+04-0.168E+04
CGA:  34    -0.153014166279E+03    0.34365E+02   -0.52306E+02  8320   0.439E+04-0.160E+04
CGA:  35    -0.150134737431E+03    0.28794E+01   -0.63240E+02  8320   0.738E+04-0.670E+04
CGA:  36    -0.682901908997E+02    0.81845E+02   -0.14988E+03  8320   0.104E+05-0.594E+04
CGA:  37    -0.648837424605E+02    0.34064E+01   -0.17563E+03  8320   0.119E+05-0.115E+05
CGA:  38    -0.527534464257E+02    0.12130E+02   -0.21460E+03  8320   0.110E+05-0.103E+05
CGA:  39    -0.109350428151E+03   -0.56597E+02   -0.17197E+03  8320   0.106E+05-0.131E+05
CGA:  40    -0.795168840025E+02    0.29834E+02   -0.19073E+03  8320   0.941E+04-0.858E+04
CGA:  41    -0.141962291348E+03   -0.62445E+02   -0.13506E+03  8320   0.825E+04-0.113E+05
CGA:  42    -0.106377797252E+03    0.35584E+02   -0.14390E+03  8320   0.834E+04-0.698E+04
CGA:  43    -0.147001284653E+03   -0.40623E+02   -0.11607E+03  8320   0.777E+04-0.978E+04
CGA:  44    -0.108685263888E+03    0.38316E+02   -0.13506E+03  8320   0.866E+04-0.683E+04
CGA:  45    -0.150053195423E+03   -0.41368E+02   -0.11946E+03  8320   0.758E+04-0.961E+04
CGA:  46    -0.124157952698E+03    0.25895E+02   -0.12562E+03  8320   0.774E+04-0.660E+04
CGA:  47    -0.166685815306E+03   -0.42528E+02   -0.10111E+03  8320   0.613E+04-0.834E+04
CGA:  48    -0.154513276318E+03    0.12173E+02   -0.92096E+02  8320   0.619E+04-0.563E+04
CGA:  49    -0.179344385904E+03   -0.24831E+02   -0.76890E+02  8320   0.479E+04-0.615E+04
CGA:  50    -0.180837001395E+03   -0.14926E+01   -0.63532E+02  8320   0.500E+04-0.511E+04
CGA:  51    -0.194229313618E+03   -0.13392E+02   -0.58928E+02  8320   0.298E+04-0.372E+04
CGA:  52    -0.208553041069E+03   -0.14324E+02   -0.32288E+02  8320   0.156E+04-0.250E+04
CGA:  53    -0.214869267375E+03   -0.63162E+01   -0.14684E+02  8320   0.393E+03-0.667E+03
CGA:  54    -0.217526303586E+03   -0.26570E+01   -0.17626E+01  8320   0.665E+02 0.102E+03
CGA:  55    -0.217995009748E+03   -0.46871E+00   -0.37447E+00  8320   0.121E+02 0.191E+02
CGA:  56    -0.218261892917E+03   -0.26688E+00   -0.25740E+00  8320   0.472E+02 0.286E+00
CGA:  57    -0.219185052797E+03   -0.92316E+00   -0.10221E+01  8320   0.317E+03-0.371E+01
CGA:  58    -0.222885250380E+03   -0.37002E+01   -0.22525E+01  8320   0.566E+02-0.885E+02
CGA:  59    -0.223763661260E+03   -0.87841E+00   -0.86537E+00  8320   0.459E+02-0.228E+00
CGA:  60    -0.224258720372E+03   -0.49506E+00   -0.56991E+00  8320   0.269E+02-0.388E+01
CGA:  61    -0.225122637119E+03   -0.86392E+00   -0.85093E+00  8320   0.248E+02 0.158E+01
CGA:  62    -0.226408812432E+03   -0.12862E+01   -0.13015E+01  8320   0.320E+02 0.327E+00
CGA:  63    -0.227010537006E+03   -0.60172E+00   -0.54700E+00  8320   0.146E+02 0.157E+01
CGA:  64    -0.227628406306E+03   -0.61787E+00   -0.60109E+00  8320   0.195E+02 0.129E+01
CGA:  65    -0.228212698804E+03   -0.58429E+00   -0.59277E+00  8320   0.170E+02 0.151E+01
CGA:  66    -0.229016595864E+03   -0.80390E+00   -0.75947E+00  8320   0.983E+01 0.278E+01
CGA:  67    -0.229767683586E+03   -0.75109E+00   -0.73108E+00  8320   0.443E+01 0.606E+00
CGA:  68    -0.230354208357E+03   -0.58652E+00   -0.60376E+00  8320   0.737E+01-0.397E+00
CGA:  69    -0.230760584119E+03   -0.40638E+00   -0.37803E+00  8320   0.372E+01 0.112E+01
CGA:  70    -0.231108611680E+03   -0.34803E+00   -0.32980E+00  8320   0.282E+01 0.442E+00
CGA:  71    -0.231402852145E+03   -0.29424E+00   -0.27975E+00  8320   0.277E+01 0.355E+00
CGA:  72    -0.231559043235E+03   -0.15619E+00   -0.15793E+00  8320   0.239E+01-0.146E+00
CGA:  73    -0.231722809434E+03   -0.16377E+00   -0.16379E+00  8320   0.245E+01-0.108E-01
CGA:  74    -0.231820714363E+03   -0.97905E-01   -0.97951E-01  8320   0.169E+01 0.385E-02
CGA:  75    -0.231939271347E+03   -0.11856E+00   -0.11782E+00  8320   0.118E+01 0.242E-01
CGA:  76    -0.232002662017E+03   -0.63391E-01   -0.63646E-01  8320   0.144E+01-0.192E-01
CGA:  77    -0.232092764893E+03   -0.90103E-01   -0.90334E-01  8320   0.984E+00-0.961E-02
CGA:  78    -0.232135309204E+03   -0.42544E-01   -0.42428E-01  8320   0.105E+01-0.148E-01
CGA:  79    -0.232195576417E+03   -0.60267E-01   -0.60197E-01  8320   0.713E+00 0.455E-02
CGA:  80    -0.232223057093E+03   -0.27481E-01   -0.27963E-01  8320   0.550E+00 0.178E-01
CGA:  81    -0.232270532178E+03   -0.47475E-01   -0.47242E-01  8320   0.524E+00 0.533E-02
CGA:  82    -0.232296876608E+03   -0.26344E-01   -0.26376E-01  8320   0.442E+00-0.138E-01
SDA:  83    -0.232321571647E+03   -0.24695E-01   -0.24569E-01  8320   0.316E+00 0.974E-02
CGA:  84    -0.232341562161E+03   -0.19991E-01   -0.19857E-01  8320   0.253E+00 0.704E-02
CGA:  85    -0.232366590203E+03   -0.25028E-01   -0.25673E-01  8320   0.313E+00-0.135E-01
CGA:  86    -0.232397638126E+03   -0.31048E-01   -0.30343E-01  8320   0.187E+00 0.123E-01
CGA:  87    -0.232429976675E+03   -0.32339E-01   -0.31615E-01  8320   0.250E+00-0.227E-02
CGA:  88    -0.232453251334E+03   -0.23275E-01   -0.22077E-01  8320   0.307E+00 0.328E-01
CGA:  89    -0.232471287494E+03   -0.18036E-01   -0.17181E-01  8320   0.257E+00-0.214E-01
CGA:  90    -0.232483523505E+03   -0.12236E-01   -0.11999E-01  8320   0.128E+00-0.556E-02
CGA:  91    -0.232489086471E+03   -0.55630E-02   -0.54460E-02  8320   0.202E+00-0.913E-03
CGA:  92    -0.232502852194E+03   -0.13766E-01   -0.14362E-01  8320   0.223E+00-0.356E-01
CGA:  93    -0.232506057346E+03   -0.32052E-02   -0.27743E-02  8320   0.150E+00 0.228E-01
CGA:  94    -0.232509657860E+03   -0.36005E-02   -0.34879E-02  8320   0.172E+00 0.343E-02
CGA:  95    -0.232513737057E+03   -0.40792E-02   -0.44451E-02  8320   0.204E+00-0.684E-02
CGA:  96    -0.232517389038E+03   -0.36520E-02   -0.38034E-02  8320   0.114E+00-0.347E-02
CGA:  97    -0.232519796042E+03   -0.24070E-02   -0.23409E-02  8320   0.112E+00 0.225E-02
CGA:  98    -0.232523231317E+03   -0.34353E-02   -0.33836E-02  8320   0.142E+00 0.576E-03
CGA:  99    -0.232525839169E+03   -0.26079E-02   -0.25397E-02  8320   0.828E-01 0.236E-02
CGA: 100    -0.232527520901E+03   -0.16817E-02   -0.16816E-02  8320   0.908E-01-0.132E-03
CGA: 101    -0.232530322460E+03   -0.28016E-02   -0.28297E-02  8320   0.145E+00-0.104E-03
CGA: 102    -0.232532929025E+03   -0.26066E-02   -0.24560E-02  8320   0.731E-01 0.643E-02
CGA: 103    -0.232534141553E+03   -0.12125E-02   -0.11670E-02  8320   0.540E-01 0.214E-02
CGA: 104    -0.232535601289E+03   -0.14597E-02   -0.14397E-02  8320   0.899E-01 0.159E-03
CGA: 105    -0.232537362096E+03   -0.17608E-02   -0.17705E-02  8320   0.728E-01-0.355E-03
CGA: 106    -0.232538367920E+03   -0.10058E-02   -0.10530E-02  8320   0.393E-01-0.243E-02
CGA: 107    -0.232539196779E+03   -0.82886E-03   -0.84393E-03  8320   0.531E-01-0.299E-03
CGA: 108    -0.232540706221E+03   -0.15094E-02   -0.15182E-02  8320   0.581E-01 0.622E-04
CGA: 109    -0.232541628614E+03   -0.92239E-03   -0.90000E-03  8320   0.258E-01 0.836E-03
CGA: 110    -0.232542151109E+03   -0.52249E-03   -0.51652E-03  8320   0.273E-01 0.864E-04
CGA: 111    -0.232542882238E+03   -0.73113E-03   -0.72671E-03  8320   0.348E-01-0.927E-04
CGA: 112    -0.232543443829E+03   -0.56159E-03   -0.56707E-03  8320   0.185E-01-0.239E-03
CGA: 113    -0.232543757780E+03   -0.31395E-03   -0.31772E-03  8320   0.170E-01-0.127E-03
SDA: 114    -0.232544291428E+03   -0.53365E-03   -0.53480E-03  8320   0.326E-01 0.195E-03
CGA: 115    -0.232545025583E+03   -0.73415E-03   -0.73305E-03  8320   0.700E-02 0.535E-05
CGA: 116    -0.232545822111E+03   -0.79653E-03   -0.79143E-03  8320   0.575E-02 0.676E-04
CGA: 117    -0.232546654018E+03   -0.83191E-03   -0.83342E-03  8320   0.762E-02-0.325E-04
CGA: 118    -0.232547240467E+03   -0.58645E-03   -0.59331E-03  8320   0.107E-01-0.184E-03
CGA: 119    -0.232547630028E+03   -0.38956E-03   -0.39154E-03  8320   0.307E-02 0.979E-04
CGA: 120    -0.232547949599E+03   -0.31957E-03   -0.32098E-03  8320   0.198E-02-0.272E-04
CGA: 121    -0.232548067996E+03   -0.11840E-03   -0.11858E-03  8320   0.210E-02-0.995E-05
CGA: 122    -0.232548149321E+03   -0.81325E-04   -0.81452E-04  8320   0.862E-03 0.410E-05
CGA: 123    -0.232548251463E+03   -0.10214E-03   -0.10253E-03  8320   0.536E-03-0.645E-05
CGA: 124    -0.232548277115E+03   -0.25651E-04   -0.25640E-04  8320   0.610E-03-0.366E-05
CGA: 125    -0.232548311691E+03   -0.34577E-04   -0.34606E-04  8320   0.245E-03-0.505E-05
CGA: 126    -0.232548334153E+03   -0.22462E-04   -0.22677E-04  8320   0.206E-03-0.539E-05
CGA: 127    -0.232548341067E+03   -0.69136E-05   -0.68854E-05  8320   0.131E-03-0.169E-05
CGA: 128    -0.232548353081E+03   -0.12014E-04   -0.12090E-04  8320   0.114E-03-0.211E-05
CGA: 129    -0.232548365110E+03   -0.12029E-04   -0.12121E-04  8320   0.216E-03-0.180E-05
CGA: 130    -0.232548371743E+03   -0.66328E-05   -0.66132E-05  8320   0.592E-04-0.524E-06
   1 F= -.23254837E+03 E0= -.23253392E+03  d E =-.232548E+03  mag=     9.0659
       N       E                     dE             d eps       ncg     rms          ort
SDA:   1    -0.232545614021E+03    0.27511E-02    0.00000E+00  8320   0.140E+00 0.000E+00
CGA:   2    -0.232548176059E+03   -0.25620E-02   -0.25607E-02  8320   0.486E-02 0.255E-04
CGA:   3    -0.232548395414E+03   -0.21935E-03   -0.21955E-03  8320   0.707E-03 0.676E-05
CGA:   4    -0.232548465571E+03   -0.70157E-04   -0.70073E-04  8320   0.516E-03 0.196E-05
CGA:   5    -0.232548527091E+03   -0.61520E-04   -0.61337E-04  8320   0.202E-03 0.304E-05
CGA:   6    -0.232548550434E+03   -0.23344E-04   -0.23342E-04  8320   0.188E-03 0.322E-07
CGA:   7    -0.232548556866E+03   -0.64323E-05   -0.64253E-05  8320   0.101E-03-0.250E-06
   2 F= -.23254856E+03 E0= -.23253411E+03  d E =-.185123E-03  mag=     9.0654
       N       E                     dE             d eps       ncg     rms          ort
SDA:   1    -0.232548189236E+03    0.36120E-03    0.00000E+00  8320   0.126E-01 0.000E+00
CGA:   2    -0.232548524801E+03   -0.33557E-03   -0.33467E-03  8320   0.249E-02 0.214E-04
CGA:   3    -0.232548598225E+03   -0.73423E-04   -0.73542E-04  8320   0.207E-03-0.692E-06
CGA:   4    -0.232548621357E+03   -0.23132E-04   -0.23201E-04  8320   0.163E-03-0.131E-05
CGA:   5    -0.232548639871E+03   -0.18514E-04   -0.18656E-04  8320   0.891E-04-0.267E-05
CGA:   6    -0.232548646924E+03   -0.70532E-05   -0.70777E-05  8320   0.550E-04-0.151E-05
   3 F= -.23254865E+03 E0= -.23253421E+03  d E =-.900576E-04  mag=     9.0650
       N       E                     dE             d eps       ncg     rms          ort
SDA:   1    -0.232343791538E+03    0.20485E+00    0.00000E+00  8320   0.858E+00 0.000E+00
CGA:   2    -0.232396370169E+03   -0.52579E-01   -0.52628E-01  8320   0.129E+01 0.621E-02
CGA:   3    -0.232467263978E+03   -0.70894E-01   -0.70832E-01  8320   0.455E+00-0.184E-02
CGA:   4    -0.232515156663E+03   -0.47893E-01   -0.48075E-01  8320   0.230E+00-0.430E-02
CGA:   5    -0.232530344527E+03   -0.15188E-01   -0.15189E-01  8320   0.268E+00-0.110E-02
CGA:   6    -0.232541432562E+03   -0.11088E-01   -0.11144E-01  8320   0.895E-01-0.199E-03
CGA:   7    -0.232547066974E+03   -0.56344E-02   -0.56336E-02  8320   0.230E-01-0.165E-03
CGA:   8    -0.232548981296E+03   -0.19143E-02   -0.19152E-02  8320   0.281E-01-0.345E-04
CGA:   9    -0.232549973434E+03   -0.99214E-03   -0.99090E-03  8320   0.791E-02 0.122E-04
CGA:  10    -0.232550512707E+03   -0.53927E-03   -0.53918E-03  8320   0.352E-02 0.143E-04
CGA:  11    -0.232550859234E+03   -0.34653E-03   -0.34650E-03  8320   0.411E-02 0.440E-06
CGA:  12    -0.232550997657E+03   -0.13842E-03   -0.13847E-03  8320   0.144E-02-0.287E-06
CGA:  13    -0.232551126231E+03   -0.12857E-03   -0.12861E-03  8320   0.710E-03-0.127E-05
CGA:  14    -0.232551186085E+03   -0.59854E-04   -0.59825E-04  8320   0.951E-03 0.120E-05
CGA:  15    -0.232551222870E+03   -0.36785E-04   -0.36821E-04  8320   0.334E-03 0.299E-06
CGA:  16    -0.232551252956E+03   -0.30087E-04   -0.30050E-04  8320   0.204E-03 0.142E-05
CGA:  17    -0.232551268971E+03   -0.16014E-04   -0.16013E-04  8320   0.276E-03 0.113E-06
CGA:  18    -0.232551281238E+03   -0.12267E-04   -0.12278E-04  8320   0.125E-03 0.340E-06
CGA:  19    -0.232551290735E+03   -0.94976E-05   -0.94908E-05  8320   0.502E-04 0.642E-06
   4 F= -.23255129E+03 E0= -.23253698E+03  d E =-.264381E-02  mag=     9.0651
       N       E                     dE             d eps       ncg     rms          ort
SDA:   1    -0.232402534114E+03    0.14875E+00    0.00000E+00  8320   0.798E+00 0.000E+00
CGA:   2    -0.232432928998E+03   -0.30395E-01   -0.30803E-01  8320   0.694E+00-0.381E-02
CGA:   3    -0.232490535174E+03   -0.57606E-01   -0.57473E-01  8320   0.367E+00 0.555E-02
CGA:   4    -0.232531986346E+03   -0.41451E-01   -0.41715E-01  8320   0.115E+00-0.545E-02
CGA:   5    -0.232541335960E+03   -0.93496E-02   -0.93615E-02  8320   0.154E+00-0.609E-03
CGA:   6    -0.232547539855E+03   -0.62039E-02   -0.62340E-02  8320   0.620E-01-0.231E-03
CGA:   7    -0.232550758797E+03   -0.32189E-02   -0.32132E-02  8320   0.121E-01-0.557E-04
CGA:   8    -0.232552011232E+03   -0.12524E-02   -0.12548E-02  8320   0.971E-02-0.574E-04
CGA:   9    -0.232552385140E+03   -0.37391E-03   -0.37405E-03  8320   0.573E-02-0.170E-05
CGA:  10    -0.232552708834E+03   -0.32369E-03   -0.32382E-03  8320   0.156E-02 0.528E-05
CGA:  11    -0.232552922393E+03   -0.21356E-03   -0.21349E-03  8320   0.173E-02 0.928E-06
CGA:  12    -0.232552987174E+03   -0.64781E-04   -0.64820E-04  8320   0.940E-03 0.374E-06
CGA:  13    -0.232553047907E+03   -0.60733E-04   -0.60734E-04  8320   0.408E-03 0.253E-06
CGA:  14    -0.232553086107E+03   -0.38200E-04   -0.38173E-04  8320   0.322E-03 0.902E-06
CGA:  15    -0.232553104529E+03   -0.18422E-04   -0.18428E-04  8320   0.360E-03 0.381E-06
CGA:  16    -0.232553123584E+03   -0.19055E-04   -0.19069E-04  8320   0.104E-03 0.843E-06
CGA:  17    -0.232553137650E+03   -0.14066E-04   -0.14033E-04  8320   0.136E-03 0.482E-06
CGA:  18    -0.232553144649E+03   -0.69988E-05   -0.70094E-05  8320   0.114E-03 0.458E-06
   5 F= -.23255314E+03 E0= -.23253892E+03  d E =-.185391E-02  mag=     9.0645
       N       E                     dE             d eps       ncg     rms          ort
SDA:   1    -0.232334698203E+03    0.21844E+00    0.00000E+00  8320   0.802E+00 0.000E+00
CGA:   2    -0.232396632622E+03   -0.61934E-01   -0.61848E-01  8320   0.132E+01 0.702E-02
CGA:   3    -0.232459775216E+03   -0.63143E-01   -0.63438E-01  8320   0.673E+00 0.359E-03
CGA:   4    -0.232521415529E+03   -0.61640E-01   -0.61874E-01  8320   0.212E+00-0.774E-02
CGA:   5    -0.232535016126E+03   -0.13601E-01   -0.13617E-01  8320   0.185E+00 0.136E-02
CGA:   6    -0.232543497493E+03   -0.84814E-02   -0.84606E-02  8320   0.117E+00 0.221E-04
CGA:   7    -0.232550379196E+03   -0.68817E-02   -0.68964E-02  8320   0.179E-01 0.492E-03
CGA:   8    -0.232551860416E+03   -0.14812E-02   -0.14825E-02  8320   0.170E-01-0.609E-04
CGA:   9    -0.232552538272E+03   -0.67786E-03   -0.67836E-03  8320   0.942E-02-0.219E-05
CGA:  10    -0.232553162214E+03   -0.62394E-03   -0.62399E-03  8320   0.230E-02 0.169E-04
CGA:  11    -0.232553406332E+03   -0.24412E-03   -0.24396E-03  8320   0.315E-02 0.387E-05
CGA:  12    -0.232553534318E+03   -0.12799E-03   -0.12802E-03  8320   0.169E-02 0.846E-06
CGA:  13    -0.232553651051E+03   -0.11673E-03   -0.11673E-03  8320   0.489E-03 0.106E-05
CGA:  14    -0.232553701105E+03   -0.50054E-04   -0.50017E-04  8320   0.679E-03 0.946E-06
CGA:  15    -0.232553727849E+03   -0.26744E-04   -0.26781E-04  8320   0.356E-03 0.612E-06
CGA:  16    -0.232553766235E+03   -0.38386E-04   -0.38327E-04  8320   0.144E-03 0.142E-05
CGA:  17    -0.232553777965E+03   -0.11730E-04   -0.11720E-04  8320   0.264E-03 0.839E-06
CGA:  18    -0.232553793332E+03   -0.15367E-04   -0.15382E-04  8320   0.145E-03 0.110E-05
CGA:  19    -0.232553803455E+03   -0.10123E-04   -0.10124E-04  8320   0.599E-04 0.117E-05
CGA:  20    -0.232553808689E+03   -0.52347E-05   -0.52218E-05  8320   0.927E-04 0.774E-06
   6 F= -.23255381E+03 E0= -.23253963E+03  d E =-.664040E-03  mag=     9.0634
       N       E                     dE             d eps       ncg     rms          ort
SDA:   1    -0.232532158918E+03    0.21645E-01    0.00000E+00  8320   0.135E+00 0.000E+00
CGA:   2    -0.232536618212E+03   -0.44593E-02   -0.44869E-02  8320   0.888E-01-0.465E-03
CGA:   3    -0.232544857010E+03   -0.82388E-02   -0.82496E-02  8320   0.623E-01-0.331E-03
CGA:   4    -0.232550086741E+03   -0.52297E-02   -0.52234E-02  8320   0.230E-01 0.287E-03
CGA:   5    -0.232552138817E+03   -0.20521E-02   -0.20552E-02  8320   0.198E-01-0.114E-03
CGA:   6    -0.232552960594E+03   -0.82178E-03   -0.82233E-03  8320   0.125E-01-0.261E-05
CGA:   7    -0.232553625466E+03   -0.66487E-03   -0.66410E-03  8320   0.237E-02-0.135E-04
CGA:   8    -0.232553869614E+03   -0.24415E-03   -0.24421E-03  8320   0.147E-02-0.208E-05
CGA:   9    -0.232553945906E+03   -0.76292E-04   -0.76253E-04  8320   0.128E-02-0.123E-05
CGA:  10    -0.232554000936E+03   -0.55029E-04   -0.55026E-04  8320   0.310E-03 0.344E-08
CGA:  11    -0.232554035516E+03   -0.34580E-04   -0.34586E-04  8320   0.218E-03-0.123E-06
CGA:  12    -0.232554050404E+03   -0.14888E-04   -0.14889E-04  8320   0.218E-03 0.440E-06
CGA:  13    -0.232554058468E+03   -0.80646E-05   -0.80677E-05  8320   0.636E-04 0.103E-06
   7 F= -.23255406E+03 E0= -.23253988E+03  d E =-.249779E-03  mag=     9.0653
       N       E                     dE             d eps       ncg     rms          ort
SDA:   1    -0.232549250375E+03    0.48000E-02    0.00000E+00  8320   0.663E-01 0.000E+00
CGA:   2    -0.232550948347E+03   -0.16980E-02   -0.17189E-02  8320   0.177E-01-0.569E-03
CGA:   3    -0.232551977540E+03   -0.10292E-02   -0.10273E-02  8320   0.113E-01-0.612E-04
CGA:   4    -0.232553202169E+03   -0.12246E-02   -0.12239E-02  8320   0.487E-02 0.149E-04
CGA:   5    -0.232553649093E+03   -0.44692E-03   -0.44690E-03  8320   0.629E-02 0.747E-06
CGA:   6    -0.232553867619E+03   -0.21853E-03   -0.21892E-03  8320   0.211E-02-0.516E-05
CGA:   7    -0.232554060268E+03   -0.19265E-03   -0.19269E-03  8320   0.560E-03-0.151E-05
CGA:   8    -0.232554103474E+03   -0.43206E-04   -0.43206E-04  8320   0.527E-03-0.929E-07
CGA:   9    -0.232554122228E+03   -0.18754E-04   -0.18732E-04  8320   0.202E-03-0.589E-06
CGA:  10    -0.232554139159E+03   -0.16930E-04   -0.16938E-04  8320   0.810E-04-0.536E-06
CGA:  11    -0.232554145171E+03   -0.60122E-05   -0.60117E-05  8320   0.603E-04 0.112E-06
   8 F= -.23255415E+03 E0= -.23253996E+03  d E =-.867024E-04  mag=     9.0652
       N       E                     dE             d eps       ncg     rms          ort
SDA:   1    -0.232548548405E+03    0.55908E-02    0.00000E+00  8320   0.109E+00 0.000E+00
CGA:   2    -0.232550751973E+03   -0.22036E-02   -0.22374E-02  8320   0.121E-01-0.129E-02
CGA:   3    -0.232551927540E+03   -0.11756E-02   -0.11791E-02  8320   0.153E-01-0.905E-04
CGA:   4    -0.232553586799E+03   -0.16593E-02   -0.16580E-02  8320   0.589E-02 0.254E-04
CGA:   5    -0.232553799668E+03   -0.21287E-03   -0.21276E-03  8320   0.367E-02 0.695E-06
CGA:   6    -0.232554063515E+03   -0.26385E-03   -0.26383E-03  8320   0.127E-02 0.274E-05
CGA:   7    -0.232554171644E+03   -0.10813E-03   -0.10816E-03  8320   0.698E-03-0.168E-05
CGA:   8    -0.232554194512E+03   -0.22868E-04   -0.22867E-04  8320   0.296E-03-0.360E-06
CGA:   9    -0.232554219031E+03   -0.24520E-04   -0.24534E-04  8320   0.135E-03-0.947E-06
CGA:  10    -0.232554229183E+03   -0.10151E-04   -0.10154E-04  8320   0.106E-03-0.450E-06
CGA:  11    -0.232554232851E+03   -0.36681E-05   -0.36606E-05  8320   0.388E-04-0.183E-06
   9 F= -.23255423E+03 E0= -.23254005E+03  d E =-.876799E-04  mag=     9.0661
       N       E                     dE             d eps       ncg     rms          ort
SDA:   1    -0.232546238746E+03    0.79904E-02    0.00000E+00  8320   0.492E-01 0.000E+00
CGA:   2    -0.232547900576E+03   -0.16618E-02   -0.16671E-02  8320   0.327E-01-0.733E-04
CGA:   3    -0.232550740480E+03   -0.28399E-02   -0.28429E-02  8320   0.228E-01-0.107E-03
CGA:   4    -0.232552686392E+03   -0.19459E-02   -0.19449E-02  8320   0.861E-02 0.394E-04
CGA:   5    -0.232553552730E+03   -0.86634E-03   -0.86671E-03  8320   0.944E-02-0.100E-04
CGA:   6    -0.232553863743E+03   -0.31101E-03   -0.31151E-03  8320   0.325E-02-0.820E-05
CGA:   7    -0.232554081139E+03   -0.21740E-03   -0.21739E-03  8320   0.101E-02-0.320E-05
CGA:   8    -0.232554163796E+03   -0.82656E-04   -0.82641E-04  8320   0.530E-03 0.797E-06
CGA:   9    -0.232554191388E+03   -0.27593E-04   -0.27586E-04  8320   0.493E-03-0.402E-06
CGA:  10    -0.232554214697E+03   -0.23309E-04   -0.23314E-04  8320   0.125E-03-0.268E-07
CGA:  11    -0.232554227363E+03   -0.12666E-04   -0.12666E-04  8320   0.719E-04 0.167E-08
CGA:  12    -0.232554232470E+03   -0.51069E-05   -0.51059E-05  8320   0.908E-04 0.442E-06
  10 F= -.23255423E+03 E0= -.23254004E+03  d E =0.381013E-06  mag=     9.0664
       N       E                     dE             d eps       ncg     rms          ort
SDA:   1    -0.232532765917E+03    0.21461E-01    0.00000E+00  8320   0.882E-01 0.000E+00
CGA:   2    -0.232539129888E+03   -0.63640E-02   -0.63641E-02  8320   0.133E+00-0.168E-04
CGA:   3    -0.232545206483E+03   -0.60766E-02   -0.60962E-02  8320   0.560E-01 0.224E-04
CGA:   4    -0.232549349361E+03   -0.41429E-02   -0.41448E-02  8320   0.268E-01-0.160E-03
CGA:   5    -0.232552554054E+03   -0.32047E-02   -0.32035E-02  8320   0.152E-01 0.215E-04
CGA:   6    -0.232553392841E+03   -0.83879E-03   -0.83874E-03  8320   0.107E-01-0.495E-06
CGA:   7    -0.232553769863E+03   -0.37702E-03   -0.37822E-03  8320   0.321E-02-0.149E-04
CGA:   8    -0.232554093742E+03   -0.32388E-03   -0.32411E-03  8320   0.106E-02-0.597E-05
CGA:   9    -0.232554170967E+03   -0.77225E-04   -0.77222E-04  8320   0.101E-02 0.348E-06
CGA:  10    -0.232554210713E+03   -0.39747E-04   -0.39729E-04  8320   0.498E-03-0.194E-06
CGA:  11    -0.232554249633E+03   -0.38919E-04   -0.38913E-04  8320   0.161E-03 0.535E-06
CGA:  12    -0.232554264545E+03   -0.14912E-04   -0.14927E-04  8320   0.154E-03-0.575E-06
CGA:  13    -0.232554270728E+03   -0.61831E-05   -0.61833E-05  8320   0.977E-04-0.268E-07
  11 F= -.23255427E+03 E0= -.23254008E+03  d E =-.382585E-04  mag=     9.0682
       N       E                     dE             d eps       ncg     rms          ort
SDA:   1    -0.232506721049E+03    0.47543E-01    0.00000E+00  8320   0.195E+00 0.000E+00
CGA:   2    -0.232518516498E+03   -0.11795E-01   -0.11779E-01  8320   0.291E+00-0.754E-03
CGA:   3    -0.232535107431E+03   -0.16591E-01   -0.16609E-01  8320   0.116E+00 0.543E-03
CGA:   4    -0.232543671641E+03   -0.85642E-02   -0.85663E-02  8320   0.589E-01-0.194E-03
CGA:   5    -0.232550922731E+03   -0.72511E-02   -0.72510E-02  8320   0.225E-01 0.846E-06
CGA:   6    -0.232552658073E+03   -0.17353E-02   -0.17355E-02  8320   0.139E-01-0.141E-04
CGA:   7    -0.232553166850E+03   -0.50878E-03   -0.50966E-03  8320   0.778E-02-0.111E-04
CGA:   8    -0.232553676764E+03   -0.50991E-03   -0.50984E-03  8320   0.215E-02-0.101E-04
CGA:   9    -0.232553891117E+03   -0.21435E-03   -0.21430E-03  8320   0.122E-02 0.153E-05
CGA:  10    -0.232553963567E+03   -0.72450E-04   -0.72455E-04  8320   0.126E-02 0.555E-06
CGA:  11    -0.232554017411E+03   -0.53843E-04   -0.53912E-04  8320   0.384E-03 0.923E-06
CGA:  12    -0.232554053875E+03   -0.36464E-04   -0.36463E-04  8320   0.194E-03 0.970E-07
CGA:  13    -0.232554071461E+03   -0.17586E-04   -0.17568E-04  8320   0.231E-03 0.843E-06
CGA:  14    -0.232554080062E+03   -0.86006E-05   -0.86071E-05  8320   0.922E-04 0.186E-06
  12 F= -.23255408E+03 E0= -.23253987E+03  d E =0.190667E-03  mag=     9.0665
       N       E                     dE             d eps       ncg     rms          ort
SDA:   1    -0.232493060598E+03    0.61011E-01    0.00000E+00  8320   0.223E+00 0.000E+00
CGA:   2    -0.232515407610E+03   -0.22347E-01   -0.22238E-01  8320   0.368E+00 0.291E-02
CGA:   3    -0.232529772578E+03   -0.14365E-01   -0.14320E-01  8320   0.148E+00 0.434E-03
CGA:   4    -0.232541326687E+03   -0.11554E-01   -0.11557E-01  8320   0.771E-01-0.207E-03
CGA:   5    -0.232549371376E+03   -0.80447E-02   -0.80599E-02  8320   0.457E-01-0.362E-03
CGA:   6    -0.232551658063E+03   -0.22867E-02   -0.22962E-02  8320   0.299E-01 0.428E-04
CGA:   7    -0.232552761458E+03   -0.11034E-02   -0.11000E-02  8320   0.851E-02 0.428E-04
CGA:   8    -0.232553652910E+03   -0.89145E-03   -0.89198E-03  8320   0.313E-02-0.127E-04
CGA:   9    -0.232553835907E+03   -0.18300E-03   -0.18296E-03  8320   0.336E-02-0.107E-05
CGA:  10    -0.232553989576E+03   -0.15367E-03   -0.15381E-03  8320   0.112E-02 0.580E-06
CGA:  11    -0.232554094029E+03   -0.10445E-03   -0.10448E-03  8320   0.555E-03-0.106E-05
CGA:  12    -0.232554125582E+03   -0.31553E-04   -0.31558E-04  8320   0.534E-03 0.824E-07
CGA:  13    -0.232554151089E+03   -0.25507E-04   -0.25492E-04  8320   0.241E-03-0.377E-06
CGA:  14    -0.232554173947E+03   -0.22858E-04   -0.22852E-04  8320   0.113E-03 0.166E-06
CGA:  15    -0.232554180326E+03   -0.63795E-05   -0.63809E-05  8320   0.120E-03 0.148E-06
  13 F= -.23255418E+03 E0= -.23253996E+03  d E =-.100264E-03  mag=     9.0687
       N       E                     dE             d eps       ncg     rms          ort
SDA:   1    -0.232545509704E+03    0.86642E-02    0.00000E+00  8320   0.997E-01 0.000E+00
CGA:   2    -0.232548141821E+03   -0.26321E-02   -0.26775E-02  8320   0.301E-01-0.114E-02
CGA:   3    -0.232549897262E+03   -0.17554E-02   -0.17531E-02  8320   0.222E-01-0.122E-03
CGA:   4    -0.232552667230E+03   -0.27700E-02   -0.27686E-02  8320   0.955E-02 0.218E-04
CGA:   5    -0.232553466056E+03   -0.79883E-03   -0.79875E-03  8320   0.661E-02 0.329E-05
CGA:   6    -0.232553717546E+03   -0.25149E-03   -0.25184E-03  8320   0.406E-02-0.241E-05
CGA:   7    -0.232553988921E+03   -0.27138E-03   -0.27137E-03  8320   0.935E-03-0.226E-05
CGA:   8    -0.232554062580E+03   -0.73658E-04   -0.73654E-04  8320   0.471E-03 0.199E-06
CGA:   9    -0.232554089253E+03   -0.26673E-04   -0.26661E-04  8320   0.520E-03-0.834E-06
CGA:  10    -0.232554113549E+03   -0.24297E-04   -0.24289E-04  8320   0.942E-04-0.476E-06
CGA:  11    -0.232554125374E+03   -0.11824E-04   -0.11824E-04  8320   0.792E-04 0.383E-08
CGA:  12    -0.232554129292E+03   -0.39179E-05   -0.39203E-05  8320   0.646E-04 0.106E-06
  14 F= -.23255413E+03 E0= -.23253991E+03  d E =0.510345E-04  mag=     9.0699
       N       E                     dE             d eps       ncg     rms          ort
SDA:   1    -0.232526778112E+03    0.27347E-01    0.00000E+00  8320   0.114E+00 0.000E+00
CGA:   2    -0.232532783715E+03   -0.60056E-02   -0.59789E-02  8320   0.138E+00-0.381E-03
CGA:   3    -0.232541923218E+03   -0.91395E-02   -0.91400E-02  8320   0.108E+00 0.625E-03
CGA:   4    -0.232549137135E+03   -0.72139E-02   -0.72134E-02  8320   0.262E-01-0.656E-03
CGA:   5    -0.232552500314E+03   -0.33632E-02   -0.33671E-02  8320   0.113E-01-0.619E-04
CGA:   6    -0.232553513555E+03   -0.10132E-02   -0.10126E-02  8320   0.315E-02 0.232E-04
CGA:   7    -0.232553761202E+03   -0.24765E-03   -0.24765E-03  8320   0.384E-02-0.755E-06
CGA:   8    -0.232553900809E+03   -0.13961E-03   -0.13938E-03  8320   0.122E-02 0.153E-05
CGA:   9    -0.232553984957E+03   -0.84147E-04   -0.84148E-04  8320   0.448E-03 0.104E-05
CGA:  10    -0.232554037632E+03   -0.52675E-04   -0.52646E-04  8320   0.253E-03 0.601E-06
CGA:  11    -0.232554055474E+03   -0.17843E-04   -0.17844E-04  8320   0.188E-03 0.468E-06
CGA:  12    -0.232554062398E+03   -0.69240E-05   -0.69215E-05  8320   0.100E-03 0.741E-07
  15 F= -.23255406E+03 E0= -.23253984E+03  d E =0.668933E-04  mag=     9.0687
       N       E                     dE             d eps       ncg     rms          ort
SDA:   1    -0.232519418142E+03    0.34637E-01    0.00000E+00  8320   0.155E+00 0.000E+00
CGA:   2    -0.232530784071E+03   -0.11366E-01   -0.11362E-01  8320   0.140E+00 0.139E-02
CGA:   3    -0.232538438188E+03   -0.76541E-02   -0.76334E-02  8320   0.138E+00-0.209E-03
CGA:   4    -0.232545096128E+03   -0.66579E-02   -0.66893E-02  8320   0.382E-01 0.636E-04
CGA:   5    -0.232550367606E+03   -0.52715E-02   -0.52709E-02  8320   0.218E-01 0.807E-05
CGA:   6    -0.232551957205E+03   -0.15896E-02   -0.15896E-02  8320   0.128E-01-0.406E-04
CGA:   7    -0.232552404904E+03   -0.44770E-03   -0.44814E-03  8320   0.666E-02-0.679E-05
CGA:   8    -0.232552857466E+03   -0.45256E-03   -0.45252E-03  8320   0.209E-02-0.694E-05
CGA:   9    -0.232553058410E+03   -0.20094E-03   -0.20087E-03  8320   0.836E-03 0.246E-05
CGA:  10    -0.232553131298E+03   -0.72889E-04   -0.72907E-04  8320   0.932E-03-0.868E-06
CGA:  11    -0.232553166010E+03   -0.34712E-04   -0.34741E-04  8320   0.423E-03 0.535E-06
CGA:  12    -0.232553194121E+03   -0.28111E-04   -0.28115E-04  8320   0.146E-03 0.820E-06
CGA:  13    -0.232553211629E+03   -0.17508E-04   -0.17482E-04  8320   0.108E-03 0.521E-06
CGA:  14    -0.232553219065E+03   -0.74358E-05   -0.74353E-05  8320   0.106E-03-0.709E-07
  16 F= -.23255322E+03 E0= -.23253898E+03  d E =0.843333E-03  mag=     9.0668
       N       E                     dE             d eps       ncg     rms          ort
SDA:   1    -0.232367982021E+03    0.18523E+00    0.00000E+00  8320   0.643E+00 0.000E+00
CGA:   2    -0.232433037267E+03   -0.65055E-01   -0.64463E-01  8320   0.109E+01 0.161E-01
CGA:   3    -0.232480656120E+03   -0.47619E-01   -0.47164E-01  8320   0.558E+00 0.280E-02
CGA:   4    -0.232513763361E+03   -0.33107E-01   -0.33331E-01  8320   0.224E+00 0.588E-02
CGA:   5    -0.232541899239E+03   -0.28136E-01   -0.28194E-01  8320   0.809E-01-0.102E-02
CGA:   6    -0.232549013439E+03   -0.71142E-02   -0.71142E-02  8320   0.294E-01-0.137E-05
CGA:   7    -0.232551716942E+03   -0.27035E-02   -0.27031E-02  8320   0.122E-01 0.165E-04
CGA:   8    -0.232552767134E+03   -0.10502E-02   -0.10504E-02  8320   0.760E-02-0.143E-04
CGA:   9    -0.232553058097E+03   -0.29096E-03   -0.29135E-03  8320   0.523E-02-0.386E-05
CGA:  10    -0.232553449465E+03   -0.39137E-03   -0.39138E-03  8320   0.180E-02-0.604E-05
CGA:  11    -0.232553599027E+03   -0.14956E-03   -0.14953E-03  8320   0.909E-03 0.150E-05
CGA:  12    -0.232553693749E+03   -0.94722E-04   -0.94737E-04  8320   0.104E-02-0.295E-06
CGA:  13    -0.232553727744E+03   -0.33995E-04   -0.34031E-04  8320   0.378E-03-0.134E-07
CGA:  14    -0.232553760757E+03   -0.33013E-04   -0.33019E-04  8320   0.197E-03-0.313E-06
CGA:  15    -0.232553784796E+03   -0.24039E-04   -0.23990E-04  8320   0.159E-03 0.102E-05
CGA:  16    -0.232553792852E+03   -0.80561E-05   -0.80597E-05  8320   0.137E-03 0.183E-06
  17 F= -.23255379E+03 E0= -.23253958E+03  d E =-.573787E-03  mag=     9.0702
       N       E                     dE             d eps       ncg     rms          ort
SDA:   1    -0.232502195259E+03    0.51590E-01    0.00000E+00  8320   0.192E+00 0.000E+00
CGA:   2    -0.232516927303E+03   -0.14732E-01   -0.14718E-01  8320   0.248E+00 0.268E-02
CGA:   3    -0.232531464924E+03   -0.14538E-01   -0.14505E-01  8320   0.258E+00-0.443E-03
CGA:   4    -0.232544859182E+03   -0.13394E-01   -0.13450E-01  8320   0.496E-01 0.250E-03
CGA:   5    -0.232550838005E+03   -0.59788E-02   -0.59844E-02  8320   0.249E-01-0.107E-03
CGA:   6    -0.232552637655E+03   -0.17996E-02   -0.17996E-02  8320   0.208E-01-0.151E-04
CGA:   7    -0.232553244960E+03   -0.60730E-03   -0.60940E-03  8320   0.440E-02-0.460E-04
CGA:   8    -0.232553717791E+03   -0.47283E-03   -0.47303E-03  8320   0.255E-02-0.471E-05
CGA:   9    -0.232553900504E+03   -0.18271E-03   -0.18272E-03  8320   0.771E-03 0.109E-05
CGA:  10    -0.232553971736E+03   -0.71233E-04   -0.71237E-04  8320   0.130E-02-0.887E-07
CGA:  11    -0.232554019355E+03   -0.47618E-04   -0.47671E-04  8320   0.295E-03 0.283E-06
CGA:  12    -0.232554042348E+03   -0.22994E-04   -0.22993E-04  8320   0.148E-03 0.279E-06
CGA:  13    -0.232554060173E+03   -0.17825E-04   -0.17813E-04  8320   0.108E-03 0.229E-06
CGA:  14    -0.232554065064E+03   -0.48905E-05   -0.48890E-05  8320   0.908E-04-0.464E-07
  18 F= -.23255407E+03 E0= -.23253985E+03  d E =-.272211E-03  mag=     9.0692
       N       E                     dE             d eps       ncg     rms          ort
SDA:   1    -0.232543788229E+03    0.10272E-01    0.00000E+00  8320   0.413E-01 0.000E+00
CGA:   2    -0.232546439353E+03   -0.26511E-02   -0.26565E-02  8320   0.506E-01 0.224E-03
CGA:   3    -0.232549173646E+03   -0.27343E-02   -0.27328E-02  8320   0.425E-01-0.117E-04
CGA:   4    -0.232552239206E+03   -0.30656E-02   -0.30655E-02  8320   0.123E-01 0.121E-03
CGA:   5    -0.232553224836E+03   -0.98563E-03   -0.98574E-03  8320   0.446E-02-0.932E-05
CGA:   6    -0.232553782967E+03   -0.55813E-03   -0.55816E-03  8320   0.111E-02-0.705E-06
CGA:   7    -0.232553848165E+03   -0.65198E-04   -0.65153E-04  8320   0.138E-02-0.138E-05
CGA:   8    -0.232553914594E+03   -0.66429E-04   -0.66413E-04  8320   0.452E-03-0.396E-06
CGA:   9    -0.232553951123E+03   -0.36529E-04   -0.36528E-04  8320   0.130E-03 0.637E-07
CGA:  10    -0.232553964583E+03   -0.13460E-04   -0.13444E-04  8320   0.153E-03 0.510E-06
CGA:  11    -0.232553971223E+03   -0.66404E-05   -0.66377E-05  8320   0.929E-04-0.231E-07
  19 F= -.23255397E+03 E0= -.23253975E+03  d E =0.938404E-04  mag=     9.0688
       N       E                     dE             d eps       ncg     rms          ort
SDA:   1    -0.232447102253E+03    0.10686E+00    0.00000E+00  8320   0.269E+00 0.000E+00
CGA:   2    -0.232504062111E+03   -0.56960E-01   -0.56734E-01  8320   0.559E+00 0.185E-02
CGA:   3    -0.232526010466E+03   -0.21948E-01   -0.22212E-01  8320   0.323E+00-0.345E-02
CGA:   4    -0.232541456200E+03   -0.15446E-01   -0.15361E-01  8320   0.672E-01 0.292E-03
CGA:   5    -0.232548968275E+03   -0.75121E-02   -0.75101E-02  8320   0.325E-01 0.430E-04
CGA:   6    -0.232551525332E+03   -0.25571E-02   -0.25571E-02  8320   0.145E-01-0.153E-04
CGA:   7    -0.232552016630E+03   -0.49130E-03   -0.49303E-03  8320   0.816E-02-0.304E-04
CGA:   8    -0.232552746335E+03   -0.72970E-03   -0.72997E-03  8320   0.297E-02-0.125E-04
CGA:   9    -0.232552944842E+03   -0.19851E-03   -0.19860E-03  8320   0.150E-02 0.375E-05
CGA:  10    -0.232553051130E+03   -0.10629E-03   -0.10629E-03  8320   0.198E-02-0.173E-06
CGA:  11    -0.232553131636E+03   -0.80505E-04   -0.80624E-04  8320   0.366E-03-0.201E-06
CGA:  12    -0.232553171951E+03   -0.40316E-04   -0.40321E-04  8320   0.226E-03-0.945E-07
CGA:  13    -0.232553187938E+03   -0.15987E-04   -0.15989E-04  8320   0.315E-03 0.541E-06
CGA:  14    -0.232553201873E+03   -0.13935E-04   -0.13944E-04  8320   0.853E-04 0.283E-06
CGA:  15    -0.232553210760E+03   -0.88870E-05   -0.88795E-05  8320   0.612E-04 0.248E-06
  20 F= -.23255321E+03 E0= -.23253898E+03  d E =0.760463E-03  mag=     9.0695
       N       E                     dE             d eps       ncg     rms          ort
SDA:   1    -0.232442350719E+03    0.11085E+00    0.00000E+00  8320   0.833E+00 0.000E+00
CGA:   2    -0.232465192356E+03   -0.22842E-01   -0.22169E-01  8320   0.352E+00 0.174E-01
CGA:   3    -0.232510957629E+03   -0.45765E-01   -0.45657E-01  8320   0.273E+00 0.186E-02
CGA:   4    -0.232531092654E+03   -0.20135E-01   -0.20135E-01  8320   0.128E+00 0.457E-04
CGA:   5    -0.232542260174E+03   -0.11168E-01   -0.11176E-01  8320   0.180E+00-0.442E-03
CGA:   6    -0.232548054900E+03   -0.57947E-02   -0.58372E-02  8320   0.358E-01-0.826E-03
CGA:   7    -0.232550731991E+03   -0.26771E-02   -0.26771E-02  8320   0.136E-01-0.220E-04
CGA:   8    -0.232552104752E+03   -0.13728E-02   -0.13728E-02  8320   0.517E-02-0.153E-05
CGA:   9    -0.232552504285E+03   -0.39953E-03   -0.39953E-03  8320   0.421E-02 0.182E-05
CGA:  10    -0.232552651728E+03   -0.14744E-03   -0.14715E-03  8320   0.213E-02 0.368E-05
CGA:  11    -0.232552859140E+03   -0.20741E-03   -0.20734E-03  8320   0.662E-03 0.226E-05
CGA:  12    -0.232552919564E+03   -0.60423E-04   -0.60440E-04  8320   0.450E-03-0.830E-06
CGA:  13    -0.232552966709E+03   -0.47145E-04   -0.47135E-04  8320   0.255E-03 0.265E-06
CGA:  14    -0.232552979311E+03   -0.12602E-04   -0.12605E-04  8320   0.247E-03 0.161E-06
CGA:  15    -0.232552992400E+03   -0.13089E-04   -0.13104E-04  8320   0.940E-04 0.603E-06
CGA:  16    -0.232553004941E+03   -0.12541E-04   -0.12500E-04  8320   0.554E-04 0.708E-06
CGA:  17    -0.232553010172E+03   -0.52312E-05   -0.52223E-05  8320   0.515E-04 0.555E-06
  21 F= -.23255301E+03 E0= -.23253877E+03  d E =0.200587E-03  mag=     9.0715
       N       E                     dE             d eps       ncg     rms          ort
SDA:   1    -0.232547567059E+03    0.54379E-02    0.00000E+00  8320   0.957E-01 0.000E+00
CGA:   2    -0.232549624140E+03   -0.20571E-02   -0.20246E-02  8320   0.142E-01 0.122E-02
CGA:   3    -0.232550840115E+03   -0.12160E-02   -0.12157E-02  8320   0.115E-01 0.190E-04
CGA:   4    -0.232552149467E+03   -0.13094E-02   -0.13091E-02  8320   0.681E-02 0.691E-05
CGA:   5    -0.232552482459E+03   -0.33299E-03   -0.33253E-03  8320   0.582E-02 0.172E-06
CGA:   6    -0.232552742921E+03   -0.26046E-03   -0.26051E-03  8320   0.223E-02 0.114E-06
CGA:   7    -0.232552955367E+03   -0.21245E-03   -0.21244E-03  8320   0.648E-03 0.222E-06
CGA:   8    -0.232553003261E+03   -0.47894E-04   -0.47894E-04  8320   0.245E-03 0.203E-06
CGA:   9    -0.232553023838E+03   -0.20578E-04   -0.20571E-04  8320   0.344E-03 0.677E-06
CGA:  10    -0.232553035123E+03   -0.11285E-04   -0.11290E-04  8320   0.559E-04 0.288E-06
CGA:  11    -0.232553041934E+03   -0.68106E-05   -0.68036E-05  8320   0.381E-04 0.144E-06
  22 F= -.23255304E+03 E0= -.23253880E+03  d E =-.317613E-04  mag=     9.0710
       N       E                     dE             d eps       ncg     rms          ort
SDA:   1    -0.232550250525E+03    0.27846E-02    0.00000E+00  8320   0.273E-01 0.000E+00
CGA:   2    -0.232551109057E+03   -0.85853E-03   -0.85136E-03  8320   0.103E-01 0.150E-03
CGA:   3    -0.232551630300E+03   -0.52124E-03   -0.52202E-03  8320   0.748E-02 0.268E-05
CGA:   4    -0.232552538249E+03   -0.90795E-03   -0.90820E-03  8320   0.315E-02-0.477E-05
CGA:   5    -0.232552819953E+03   -0.28170E-03   -0.28159E-03  8320   0.103E-02 0.632E-05
CGA:   6    -0.232552969834E+03   -0.14988E-03   -0.14986E-03  8320   0.277E-03 0.377E-06
CGA:   7    -0.232552991973E+03   -0.22139E-04   -0.22139E-04  8320   0.272E-03-0.214E-06
CGA:   8    -0.232553003006E+03   -0.11033E-04   -0.11043E-04  8320   0.148E-03 0.143E-06
CGA:   9    -0.232553010835E+03   -0.78290E-05   -0.78295E-05  8320   0.370E-04 0.882E-07
  23 F= -.23255301E+03 E0= -.23253877E+03  d E =0.310990E-04  mag=     9.0712
       N       E                     dE             d eps       ncg     rms          ort
SDA:   1    -0.232540742154E+03    0.12261E-01    0.00000E+00  8320   0.372E-01 0.000E+00
CGA:   2    -0.232544604223E+03   -0.38621E-02   -0.38559E-02  8320   0.706E-01 0.182E-03
CGA:   3    -0.232548177276E+03   -0.35731E-02   -0.35628E-02  8320   0.530E-01 0.225E-04
CGA:   4    -0.232550954256E+03   -0.27770E-02   -0.27848E-02  8320   0.111E-01 0.638E-05
CGA:   5    -0.232552090097E+03   -0.11358E-02   -0.11356E-02  8320   0.526E-02 0.826E-05
CGA:   6    -0.232552565896E+03   -0.47580E-03   -0.47593E-03  8320   0.124E-02-0.726E-05
CGA:   7    -0.232552689588E+03   -0.12369E-03   -0.12364E-03  8320   0.100E-02 0.179E-05
CGA:   8    -0.232552726269E+03   -0.36681E-04   -0.36643E-04  8320   0.565E-03-0.168E-06
CGA:   9    -0.232552762120E+03   -0.35850E-04   -0.35847E-04  8320   0.190E-03-0.388E-06
CGA:  10    -0.232552778282E+03   -0.16163E-04   -0.16163E-04  8320   0.991E-04 0.652E-08
CGA:  11    -0.232552788321E+03   -0.10038E-04   -0.10033E-04  8320   0.486E-04 0.231E-06
CGA:  12    -0.232552790164E+03   -0.18432E-05   -0.18409E-05  8320   0.355E-04-0.487E-07
  24 F= -.23255279E+03 E0= -.23253855E+03  d E =0.220671E-03  mag=     9.0712
       N       E                     dE             d eps       ncg     rms          ort
SDA:   1    -0.226800018123E+03    0.57528E+01    0.00000E+00  8320   0.190E+02 0.000E+00
CGA:   2    -0.229415589242E+03   -0.26156E+01   -0.26040E+01  8320   0.222E+02 0.164E+00
CGA:   3    -0.230418720322E+03   -0.10031E+01   -0.10711E+01  8320   0.180E+02-0.510E+00
CGA:   4    -0.231353774756E+03   -0.93505E+00   -0.91128E+00  8320   0.760E+01-0.379E-01
CGA:   5    -0.232058165534E+03   -0.70439E+00   -0.70020E+00  8320   0.304E+01 0.172E+00
CGA:   6    -0.232273710100E+03   -0.21554E+00   -0.21268E+00  8320   0.270E+01-0.113E+00
CGA:   7    -0.232359751413E+03   -0.86041E-01   -0.88669E-01  8320   0.730E+00-0.488E-01
CGA:   8    -0.232414619697E+03   -0.54868E-01   -0.54879E-01  8320   0.323E+00-0.369E-02
CGA:   9    -0.232446071605E+03   -0.31452E-01   -0.31399E-01  8320   0.129E+00 0.170E-02
CGA:  10    -0.232452937544E+03   -0.68659E-02   -0.68310E-02  8320   0.152E+00-0.677E-04
CGA:  11    -0.232461636409E+03   -0.86989E-02   -0.87220E-02  8320   0.425E-01 0.286E-03
CGA:  12    -0.232465683388E+03   -0.40470E-02   -0.40461E-02  8320   0.228E-01 0.405E-04
CGA:  13    -0.232467747465E+03   -0.20641E-02   -0.20612E-02  8320   0.182E-01 0.135E-03
CGA:  14    -0.232468599385E+03   -0.85192E-03   -0.85026E-03  8320   0.153E-01 0.122E-04
CGA:  15    -0.232469491996E+03   -0.89261E-03   -0.89382E-03  8320   0.537E-02 0.211E-04
CGA:  16    -0.232470118951E+03   -0.62696E-03   -0.62598E-03  8320   0.350E-02 0.208E-04
CGA:  17    -0.232470463624E+03   -0.34467E-03   -0.34450E-03  8320   0.361E-02 0.692E-05
CGA:  18    -0.232470595905E+03   -0.13228E-03   -0.13210E-03  8320   0.191E-02 0.552E-05
CGA:  19    -0.232470770472E+03   -0.17457E-03   -0.17445E-03  8320   0.103E-02 0.613E-05
CGA:  20    -0.232470870963E+03   -0.10049E-03   -0.10043E-03  8320   0.642E-03 0.273E-05
CGA:  21    -0.232470918180E+03   -0.47217E-04   -0.47227E-04  8320   0.729E-03 0.253E-05
CGA:  22    -0.232470946499E+03   -0.28319E-04   -0.28336E-04  8320   0.271E-03 0.150E-05
CGA:  23    -0.232470977302E+03   -0.30803E-04   -0.30763E-04  8320   0.152E-03 0.967E-06
CGA:  24    -0.232470990970E+03   -0.13668E-04   -0.13657E-04  8320   0.140E-03 0.813E-06
CGA:  25    -0.232470997228E+03   -0.62588E-05   -0.62745E-05  8320   0.116E-03 0.363E-06
  25 F= -.23247100E+03 E0= -.23245681E+03  d E =0.817929E-01  mag=     9.0512
       N       E                     dE             d eps       ncg     rms          ort
SDA:   1    -0.219010212180E+03    0.13461E+02    0.00000E+00  8320   0.550E+02 0.000E+00
CGA:   2    -0.225499689191E+03   -0.64895E+01   -0.63999E+01  8320   0.339E+02 0.162E+01
CGA:   3    -0.228054762648E+03   -0.25551E+01   -0.25754E+01  8320   0.382E+02 0.220E+01
CGA:   4    -0.229728614556E+03   -0.16739E+01   -0.16041E+01  8320   0.214E+02-0.643E+00
CGA:   5    -0.231086334811E+03   -0.13577E+01   -0.13548E+01  8320   0.120E+02-0.999E-01
CGA:   6    -0.231631419142E+03   -0.54508E+00   -0.53814E+00  8320   0.127E+02 0.703E-01
CGA:   7    -0.232137693582E+03   -0.50627E+00   -0.47503E+00  8320   0.177E+01 0.553E+00
CGA:   8    -0.232290360564E+03   -0.15267E+00   -0.15287E+00  8320   0.250E+01-0.122E-01
CGA:   9    -0.232372130838E+03   -0.81770E-01   -0.85310E-01  8320   0.116E+01-0.544E-01
CGA:  10    -0.232428948638E+03   -0.56818E-01   -0.56397E-01  8320   0.314E+00-0.879E-03
CGA:  11    -0.232459459180E+03   -0.30511E-01   -0.30481E-01  8320   0.223E+00 0.793E-03
CGA:  12    -0.232470926329E+03   -0.11467E-01   -0.11604E-01  8320   0.252E+00 0.105E-02
CGA:  13    -0.232482336132E+03   -0.11410E-01   -0.11462E-01  8320   0.567E-01 0.115E-03
CGA:  14    -0.232488566153E+03   -0.62300E-02   -0.62200E-02  8320   0.377E-01 0.219E-03
CGA:  15    -0.232492210037E+03   -0.36439E-02   -0.36331E-02  8320   0.208E-01 0.326E-03
CGA:  16    -0.232493823158E+03   -0.16131E-02   -0.16118E-02  8320   0.178E-01 0.166E-03
CGA:  17    -0.232494535380E+03   -0.71222E-03   -0.71132E-03  8320   0.119E-01 0.158E-04
CGA:  18    -0.232495558292E+03   -0.10229E-02   -0.10213E-02  8320   0.422E-02 0.714E-04
CGA:  19    -0.232496085870E+03   -0.52758E-03   -0.52682E-03  8320   0.344E-02 0.133E-04
CGA:  20    -0.232496282512E+03   -0.19664E-03   -0.19709E-03  8320   0.309E-02 0.683E-05
CGA:  21    -0.232496417242E+03   -0.13473E-03   -0.13459E-03  8320   0.147E-02 0.158E-05
CGA:  22    -0.232496556355E+03   -0.13911E-03   -0.13904E-03  8320   0.786E-03 0.205E-05
CGA:  23    -0.232496640393E+03   -0.84038E-04   -0.84088E-04  8320   0.610E-03-0.158E-05
CGA:  24    -0.232496660732E+03   -0.20339E-04   -0.20374E-04  8320   0.320E-03-0.774E-06
CGA:  25    -0.232496696443E+03   -0.35712E-04   -0.35683E-04  8320   0.217E-03 0.664E-06
CGA:  26    -0.232496714313E+03   -0.17870E-04   -0.17859E-04  8320   0.113E-03 0.124E-05
CGA:  27    -0.232496720662E+03   -0.63485E-05   -0.63530E-05  8320   0.133E-03 0.204E-06
  26 F= -.23249672E+03 E0= -.23248248E+03  d E =-.257234E-01  mag=     9.0851
       N       E                     dE             d eps       ncg     rms          ort
SDA:   1    -0.230913645016E+03    0.15831E+01    0.00000E+00  8320   0.593E+01 0.000E+00
CGA:   2    -0.231703269875E+03   -0.78962E+00   -0.79065E+00  8320   0.599E+01-0.201E-01
CGA:   3    -0.231946439886E+03   -0.24317E+00   -0.23753E+00  8320   0.401E+01 0.572E-01
CGA:   4    -0.232197753970E+03   -0.25131E+00   -0.25357E+00  8320   0.235E+01 0.570E-01
CGA:   5    -0.232415784156E+03   -0.21803E+00   -0.22016E+00  8320   0.949E+00-0.799E-01
CGA:   6    -0.232480692023E+03   -0.64908E-01   -0.64939E-01  8320   0.884E+00 0.346E-02
CGA:   7    -0.232510172393E+03   -0.29480E-01   -0.28603E-01  8320   0.192E+00 0.166E-01
CGA:   8    -0.232530740172E+03   -0.20568E-01   -0.20523E-01  8320   0.101E+00 0.114E-02
CGA:   9    -0.232536693725E+03   -0.59536E-02   -0.59339E-02  8320   0.866E-01-0.298E-03
CGA:  10    -0.232540191354E+03   -0.34976E-02   -0.35050E-02  8320   0.325E-01-0.589E-04
CGA:  11    -0.232543039420E+03   -0.28481E-02   -0.28493E-02  8320   0.167E-01-0.499E-04
CGA:  12    -0.232544174405E+03   -0.11350E-02   -0.11354E-02  8320   0.145E-01 0.496E-04
CGA:  13    -0.232544745923E+03   -0.57152E-03   -0.57088E-03  8320   0.683E-02 0.147E-04
CGA:  14    -0.232545429078E+03   -0.68315E-03   -0.68288E-03  8320   0.336E-02 0.874E-05
CGA:  15    -0.232545645788E+03   -0.21671E-03   -0.21672E-03  8320   0.361E-02 0.122E-05
CGA:  16    -0.232545810402E+03   -0.16461E-03   -0.16486E-03  8320   0.164E-02 0.118E-05
CGA:  17    -0.232545971414E+03   -0.16101E-03   -0.16105E-03  8320   0.109E-02-0.107E-05
CGA:  18    -0.232546033529E+03   -0.62114E-04   -0.62143E-04  8320   0.949E-03 0.926E-06
CGA:  19    -0.232546078148E+03   -0.44620E-04   -0.44605E-04  8320   0.464E-03 0.336E-06
CGA:  20    -0.232546128259E+03   -0.50111E-04   -0.50052E-04  8320   0.293E-03 0.143E-05
CGA:  21    -0.232546142172E+03   -0.13913E-04   -0.13912E-04  8320   0.257E-03 0.298E-07
CGA:  22    -0.232546158713E+03   -0.16540E-04   -0.16543E-04  8320   0.110E-03 0.331E-06
CGA:  23    -0.232546168997E+03   -0.10285E-04   -0.10277E-04  8320   0.106E-03 0.324E-06
CGA:  24    -0.232546173493E+03   -0.44960E-05   -0.45043E-05  8320   0.618E-04 0.221E-06
  27 F= -.23254617E+03 E0= -.23253193E+03  d E =-.494528E-01  mag=     9.0728
       N       E                     dE             d eps       ncg     rms          ort
SDA:   1    -0.232466549299E+03    0.79620E-01    0.00000E+00  8320   0.319E+00 0.000E+00
CGA:   2    -0.232492357832E+03   -0.25809E-01   -0.25857E-01  8320   0.569E+00-0.267E-02
CGA:   3    -0.232516680851E+03   -0.24323E-01   -0.24462E-01  8320   0.189E+00-0.628E-03
CGA:   4    -0.232530583196E+03   -0.13902E-01   -0.13902E-01  8320   0.108E+00-0.676E-05
CGA:   5    -0.232543499550E+03   -0.12916E-01   -0.12928E-01  8320   0.332E-01-0.219E-03
CGA:   6    -0.232547089276E+03   -0.35897E-02   -0.35876E-02  8320   0.130E-01 0.487E-04
CGA:   7    -0.232548198478E+03   -0.11092E-02   -0.11095E-02  8320   0.783E-02-0.158E-04
CGA:   8    -0.232548536755E+03   -0.33828E-03   -0.33786E-03  8320   0.596E-02 0.263E-05
CGA:   9    -0.232548856660E+03   -0.31991E-03   -0.32013E-03  8320   0.181E-02 0.356E-05
CGA:  10    -0.232549043165E+03   -0.18650E-03   -0.18653E-03  8320   0.850E-03-0.661E-06
CGA:  11    -0.232549120137E+03   -0.76972E-04   -0.76924E-04  8320   0.686E-03 0.253E-05
CGA:  12    -0.232549149714E+03   -0.29577E-04   -0.29577E-04  8320   0.511E-03 0.415E-06
CGA:  13    -0.232549180874E+03   -0.31160E-04   -0.31166E-04  8320   0.191E-03 0.436E-06
CGA:  14    -0.232549201375E+03   -0.20501E-04   -0.20489E-04  8320   0.942E-04 0.329E-06
CGA:  15    -0.232549209576E+03   -0.82008E-05   -0.82006E-05  8320   0.163E-03 0.171E-07
  28 F= -.23254921E+03 E0= -.23253496E+03  d E =-.303608E-02  mag=     9.0697
       N       E                     dE             d eps       ncg     rms          ort
SDA:   1    -0.232448673566E+03    0.10053E+00    0.00000E+00  8320   0.438E+00 0.000E+00
CGA:   2    -0.232477739758E+03   -0.29066E-01   -0.28993E-01  8320   0.556E+00-0.465E-02
CGA:   3    -0.232504892243E+03   -0.27152E-01   -0.27283E-01  8320   0.346E+00 0.254E-03
CGA:   4    -0.232526094669E+03   -0.21202E-01   -0.21159E-01  8320   0.112E+00-0.140E-02
CGA:   5    -0.232541906406E+03   -0.15812E-01   -0.15819E-01  8320   0.498E-01-0.989E-04
CGA:   6    -0.232545428198E+03   -0.35218E-02   -0.35210E-02  8320   0.491E-01-0.114E-03
CGA:   7    -0.232547104851E+03   -0.16767E-02   -0.16817E-02  8320   0.144E-01-0.874E-04
CGA:   8    -0.232548205745E+03   -0.11009E-02   -0.11011E-02  8320   0.576E-02-0.257E-04
CGA:   9    -0.232548767669E+03   -0.56192E-03   -0.56161E-03  8320   0.349E-02 0.975E-05
CGA:  10    -0.232548895787E+03   -0.12812E-03   -0.12789E-03  8320   0.215E-02 0.279E-05
CGA:  11    -0.232549063820E+03   -0.16803E-03   -0.16801E-03  8320   0.114E-02 0.279E-05
CGA:  12    -0.232549149168E+03   -0.85348E-04   -0.85347E-04  8320   0.470E-03 0.941E-06
CGA:  13    -0.232549183752E+03   -0.34585E-04   -0.34583E-04  8320   0.714E-03 0.119E-05
CGA:  14    -0.232549215935E+03   -0.32183E-04   -0.32184E-04  8320   0.191E-03 0.518E-06
CGA:  15    -0.232549236963E+03   -0.21028E-04   -0.21032E-04  8320   0.120E-03-0.981E-07
CGA:  16    -0.232549244633E+03   -0.76703E-05   -0.76699E-05  8320   0.162E-03-0.516E-09
  29 F= -.23254924E+03 E0= -.23253497E+03  d E =-.350575E-04  mag=     9.0660
       N       E                     dE             d eps       ncg     rms          ort
SDA:   1    -0.232526695389E+03    0.22542E-01    0.00000E+00  8320   0.140E+00 0.000E+00
CGA:   2    -0.232532627538E+03   -0.59321E-02   -0.59938E-02  8320   0.114E+00-0.366E-03
CGA:   3    -0.232539014823E+03   -0.63873E-02   -0.63775E-02  8320   0.703E-01-0.189E-03
CGA:   4    -0.232544329630E+03   -0.53148E-02   -0.53130E-02  8320   0.247E-01 0.165E-03
CGA:   5    -0.232547428456E+03   -0.30988E-02   -0.31076E-02  8320   0.276E-01-0.148E-03
CGA:   6    -0.232548516314E+03   -0.10879E-02   -0.10922E-02  8320   0.153E-01-0.398E-04
CGA:   7    -0.232549239447E+03   -0.72313E-03   -0.72244E-03  8320   0.372E-02-0.208E-06
CGA:   8    -0.232549624615E+03   -0.38517E-03   -0.38518E-03  8320   0.182E-02-0.740E-06
CGA:   9    -0.232549707532E+03   -0.82917E-04   -0.82828E-04  8320   0.151E-02-0.638E-06
CGA:  10    -0.232549786472E+03   -0.78940E-04   -0.78954E-04  8320   0.448E-03 0.115E-06
CGA:  11    -0.232549829724E+03   -0.43252E-04   -0.43264E-04  8320   0.304E-03-0.406E-06
CGA:  12    -0.232549846546E+03   -0.16822E-04   -0.16824E-04  8320   0.270E-03 0.941E-07
CGA:  13    -0.232549858254E+03   -0.11708E-04   -0.11697E-04  8320   0.880E-04-0.183E-06
CGA:  14    -0.232549867343E+03   -0.90895E-05   -0.90928E-05  8320   0.695E-04-0.936E-07
  30 F= -.23254987E+03 E0= -.23253559E+03  d E =-.622710E-03  mag=     9.0687
       N       E                     dE             d eps       ncg     rms          ort
SDA:   1    -0.232156240359E+03    0.39362E+00    0.00000E+00  8320   0.172E+01 0.000E+00
CGA:   2    -0.232239942724E+03   -0.83702E-01   -0.82880E-01  8320   0.213E+01-0.374E-02
CGA:   3    -0.232386480202E+03   -0.14654E+00   -0.14653E+00  8320   0.102E+01 0.148E-01
CGA:   4    -0.232467867678E+03   -0.81387E-01   -0.81253E-01  8320   0.419E+00 0.827E-02
CGA:   5    -0.232514598567E+03   -0.46731E-01   -0.46904E-01  8320   0.546E+00-0.360E-02
CGA:   6    -0.232530499452E+03   -0.15901E-01   -0.16232E-01  8320   0.142E+00-0.724E-02
CGA:   7    -0.232539329009E+03   -0.88296E-02   -0.88227E-02  8320   0.571E-01-0.428E-03
CGA:   8    -0.232544480377E+03   -0.51514E-02   -0.51520E-02  8320   0.176E-01-0.261E-04
CGA:   9    -0.232546298391E+03   -0.18180E-02   -0.18187E-02  8320   0.992E-02-0.177E-04
CGA:  10    -0.232546773414E+03   -0.47502E-03   -0.47569E-03  8320   0.101E-01 0.197E-05
CGA:  11    -0.232547367019E+03   -0.59360E-03   -0.59351E-03  8320   0.321E-02-0.110E-05
CGA:  12    -0.232547668976E+03   -0.30196E-03   -0.30189E-03  8320   0.151E-02 0.231E-05
CGA:  13    -0.232547807845E+03   -0.13887E-03   -0.13893E-03  8320   0.199E-02-0.224E-05
CGA:  14    -0.232547884903E+03   -0.77058E-04   -0.77165E-04  8320   0.892E-03 0.399E-06
CGA:  15    -0.232547944005E+03   -0.59102E-04   -0.59105E-04  8320   0.396E-03 0.114E-05
CGA:  16    -0.232547996133E+03   -0.52129E-04   -0.52025E-04  8320   0.330E-03 0.171E-05
CGA:  17    -0.232548015659E+03   -0.19526E-04   -0.19535E-04  8320   0.380E-03 0.732E-06
CGA:  18    -0.232548033062E+03   -0.17403E-04   -0.17442E-04  8320   0.106E-03 0.119E-05
CGA:  19    -0.232548047417E+03   -0.14354E-04   -0.14250E-04  8320   0.910E-04 0.166E-05
CGA:  20    -0.232548054635E+03   -0.72186E-05   -0.72151E-05  8320   0.987E-04 0.943E-06
  31 F= -.23254805E+03 E0= -.23253376E+03  d E =0.181271E-02  mag=     9.0757
       N       E                     dE             d eps       ncg     rms          ort
SDA:   1    -0.232362287523E+03    0.18576E+00    0.00000E+00  8320   0.652E+00 0.000E+00
CGA:   2    -0.232441253037E+03   -0.78966E-01   -0.78759E-01  8320   0.624E+00 0.382E-02
CGA:   3    -0.232501136367E+03   -0.59883E-01   -0.59843E-01  8320   0.252E+00 0.140E-02
CGA:   4    -0.232523413783E+03   -0.22277E-01   -0.22325E-01  8320   0.368E+00-0.247E-02
CGA:   5    -0.232537152174E+03   -0.13738E-01   -0.13870E-01  8320   0.128E+00-0.178E-02
CGA:   6    -0.232544257636E+03   -0.71055E-02   -0.70708E-02  8320   0.321E-01-0.270E-03
CGA:   7    -0.232547902133E+03   -0.36445E-02   -0.36426E-02  8320   0.119E-01 0.425E-04
CGA:   8    -0.232548636039E+03   -0.73391E-03   -0.73396E-03  8320   0.134E-01 0.251E-05
CGA:   9    -0.232549174350E+03   -0.53831E-03   -0.53966E-03  8320   0.367E-02-0.102E-04
CGA:  10    -0.232549557253E+03   -0.38290E-03   -0.38300E-03  8320   0.188E-02-0.244E-05
CGA:  11    -0.232549717582E+03   -0.16033E-03   -0.16027E-03  8320   0.166E-02 0.379E-05
CGA:  12    -0.232549777937E+03   -0.60356E-04   -0.60352E-04  8320   0.837E-03 0.365E-06
CGA:  13    -0.232549845175E+03   -0.67238E-04   -0.67225E-04  8320   0.459E-03 0.138E-05
CGA:  14    -0.232549883205E+03   -0.38030E-04   -0.38036E-04  8320   0.222E-03-0.661E-06
CGA:  15    -0.232549897107E+03   -0.13902E-04   -0.13903E-04  8320   0.321E-03 0.155E-07
CGA:  16    -0.232549915540E+03   -0.18433E-04   -0.18430E-04  8320   0.111E-03-0.232E-06
CGA:  17    -0.232549926977E+03   -0.11437E-04   -0.11447E-04  8320   0.646E-04-0.342E-06
CGA:  18    -0.232549931029E+03   -0.40515E-05   -0.40479E-05  8320   0.868E-04-0.297E-06
  32 F= -.23254993E+03 E0= -.23253564E+03  d E =-.187639E-02  mag=     9.0720
       N       E                     dE             d eps       ncg     rms          ort
SDA:   1    -0.232543592463E+03    0.63345E-02    0.00000E+00  8320   0.640E-01 0.000E+00
CGA:   2    -0.232545446073E+03   -0.18536E-02   -0.18799E-02  8320   0.234E-01-0.589E-03
CGA:   3    -0.232546688904E+03   -0.12428E-02   -0.12399E-02  8320   0.164E-01-0.304E-04
CGA:   4    -0.232548772354E+03   -0.20834E-02   -0.20825E-02  8320   0.696E-02 0.163E-04
CGA:   5    -0.232549328544E+03   -0.55619E-03   -0.55616E-03  8320   0.328E-02 0.286E-05
CGA:   6    -0.232549579630E+03   -0.25109E-03   -0.25106E-03  8320   0.362E-02 0.413E-05
CGA:   7    -0.232549698991E+03   -0.11936E-03   -0.11912E-03  8320   0.841E-03 0.502E-05
CGA:   8    -0.232549767766E+03   -0.68775E-04   -0.68756E-04  8320   0.230E-03 0.161E-05
CGA:   9    -0.232549795781E+03   -0.28015E-04   -0.28014E-04  8320   0.215E-03 0.252E-07
CGA:  10    -0.232549802687E+03   -0.69066E-05   -0.69122E-05  8320   0.889E-04 0.763E-08
  33 F= -.23254980E+03 E0= -.23253552E+03  d E =0.128341E-03  mag=     9.0726
       N       E                     dE             d eps       ncg     rms          ort
SDA:   1    -0.232547231004E+03    0.25648E-02    0.00000E+00  8320   0.452E-01 0.000E+00
CGA:   2    -0.232548501314E+03   -0.12703E-02   -0.12446E-02  8320   0.981E-02 0.643E-03
CGA:   3    -0.232548865295E+03   -0.36398E-03   -0.36548E-03  8320   0.367E-02-0.171E-04
CGA:   4    -0.232549433799E+03   -0.56850E-03   -0.56878E-03  8320   0.207E-02-0.320E-05
CGA:   5    -0.232549636155E+03   -0.20236E-03   -0.20231E-03  8320   0.102E-02 0.165E-05
CGA:   6    -0.232549751867E+03   -0.11571E-03   -0.11577E-03  8320   0.392E-03-0.138E-05
CGA:   7    -0.232549779576E+03   -0.27709E-04   -0.27710E-04  8320   0.330E-03 0.214E-06
CGA:   8    -0.232549790128E+03   -0.10552E-04   -0.10542E-04  8320   0.102E-03-0.866E-07
CGA:   9    -0.232549799940E+03   -0.98124E-05   -0.98173E-05  8320   0.452E-04-0.226E-06
  34 F= -.23254980E+03 E0= -.23253552E+03  d E =0.274723E-05  mag=     9.0723
       N       E                     dE             d eps       ncg     rms          ort
SDA:   1    -0.232545911143E+03    0.38790E-02    0.00000E+00  8320   0.484E-01 0.000E+00
CGA:   2    -0.232547021489E+03   -0.11103E-02   -0.10939E-02  8320   0.102E-01 0.568E-03
CGA:   3    -0.232547992827E+03   -0.97134E-03   -0.97069E-03  8320   0.112E-01 0.231E-04
CGA:   4    -0.232549069349E+03   -0.10765E-02   -0.10765E-02  8320   0.339E-02 0.145E-05
CGA:   5    -0.232549367883E+03   -0.29853E-03   -0.29864E-03  8320   0.567E-02-0.586E-05
CGA:   6    -0.232549565131E+03   -0.19725E-03   -0.19745E-03  8320   0.110E-02-0.466E-05
CGA:   7    -0.232549659757E+03   -0.94626E-04   -0.94639E-04  8320   0.347E-03-0.952E-06
CGA:   8    -0.232549693800E+03   -0.34044E-04   -0.34028E-04  8320   0.153E-03 0.649E-06
CGA:   9    -0.232549707799E+03   -0.13998E-04   -0.13994E-04  8320   0.995E-04 0.257E-06
CGA:  10    -0.232549711104E+03   -0.33053E-05   -0.33003E-05  8320   0.528E-04-0.531E-07
  35 F= -.23254971E+03 E0= -.23253543E+03  d E =0.888364E-04  mag=     9.0721
       N       E                     dE             d eps       ncg     rms          ort
SDA:   1    -0.232281747459E+03    0.26796E+00    0.00000E+00  8320   0.815E+00 0.000E+00
CGA:   2    -0.232402057421E+03   -0.12031E+00   -0.11994E+00  8320   0.141E+01 0.504E-02
CGA:   3    -0.232453826605E+03   -0.51769E-01   -0.50588E-01  8320   0.673E+00 0.178E-01
CGA:   4    -0.232494586909E+03   -0.40760E-01   -0.41309E-01  8320   0.355E+00 0.819E-02
CGA:   5    -0.232530989572E+03   -0.36403E-01   -0.36366E-01  8320   0.119E+00 0.108E-02
CGA:   6    -0.232537713466E+03   -0.67239E-02   -0.66898E-02  8320   0.116E+00-0.223E-03
CGA:   7    -0.232542079342E+03   -0.43659E-02   -0.43798E-02  8320   0.315E-01-0.173E-03
CGA:   8    -0.232544860449E+03   -0.27811E-02   -0.27799E-02  8320   0.109E-01 0.563E-04
CGA:   9    -0.232545804478E+03   -0.94403E-03   -0.94446E-03  8320   0.812E-02-0.230E-04
CGA:  10    -0.232546182950E+03   -0.37847E-03   -0.37858E-03  8320   0.681E-02 0.336E-06
CGA:  11    -0.232546518885E+03   -0.33593E-03   -0.33542E-03  8320   0.180E-02 0.427E-06
CGA:  12    -0.232546707420E+03   -0.18854E-03   -0.18839E-03  8320   0.106E-02 0.429E-05
CGA:  13    -0.232546825553E+03   -0.11813E-03   -0.11816E-03  8320   0.472E-03-0.761E-06
CGA:  14    -0.232546859871E+03   -0.34318E-04   -0.34318E-04  8320   0.543E-03 0.240E-06
CGA:  15    -0.232546883572E+03   -0.23701E-04   -0.23729E-04  8320   0.343E-03 0.448E-06
CGA:  16    -0.232546911944E+03   -0.28371E-04   -0.28372E-04  8320   0.128E-03-0.664E-07
CGA:  17    -0.232546926305E+03   -0.14362E-04   -0.14355E-04  8320   0.832E-04 0.163E-06
CGA:  18    -0.232546935697E+03   -0.93915E-05   -0.93872E-05  8320   0.104E-03 0.114E-06
  36 F= -.23254694E+03 E0= -.23253264E+03  d E =0.277541E-02  mag=     9.0747
       N       E                     dE             d eps       ncg     rms          ort
SDA:   1    -0.232402500599E+03    0.14443E+00    0.00000E+00  8320   0.648E+00 0.000E+00
CGA:   2    -0.232435094619E+03   -0.32594E-01   -0.32995E-01  8320   0.844E+00-0.647E-04
CGA:   3    -0.232493266061E+03   -0.58171E-01   -0.58113E-01  8320   0.301E+00-0.390E-02
CGA:   4    -0.232518002218E+03   -0.24736E-01   -0.24691E-01  8320   0.195E+00 0.346E-02
CGA:   5    -0.232534833317E+03   -0.16831E-01   -0.16853E-01  8320   0.204E+00-0.129E-02
CGA:   6    -0.232541116317E+03   -0.62830E-02   -0.63460E-02  8320   0.465E-01-0.131E-02
CGA:   7    -0.232545073474E+03   -0.39572E-02   -0.39581E-02  8320   0.230E-01-0.499E-04
CGA:   8    -0.232546718923E+03   -0.16454E-02   -0.16456E-02  8320   0.140E-01 0.255E-04
CGA:   9    -0.232547208268E+03   -0.48935E-03   -0.48818E-03  8320   0.673E-02 0.172E-04
CGA:  10    -0.232547809135E+03   -0.60087E-03   -0.60064E-03  8320   0.251E-02 0.101E-04
CGA:  11    -0.232548023493E+03   -0.21436E-03   -0.21443E-03  8320   0.265E-02-0.410E-05
CGA:  12    -0.232548119345E+03   -0.95853E-04   -0.95951E-04  8320   0.105E-02-0.147E-05
CGA:  13    -0.232548204672E+03   -0.85327E-04   -0.85336E-04  8320   0.664E-03-0.420E-06
CGA:  14    -0.232548260930E+03   -0.56258E-04   -0.56246E-04  8320   0.477E-03 0.701E-06
CGA:  15    -0.232548278296E+03   -0.17366E-04   -0.17351E-04  8320   0.254E-03-0.709E-08
CGA:  16    -0.232548302574E+03   -0.24278E-04   -0.24269E-04  8320   0.160E-03 0.343E-06
CGA:  17    -0.232548316073E+03   -0.13499E-04   -0.13496E-04  8320   0.149E-03 0.348E-06
CGA:  18    -0.232548321544E+03   -0.54701E-05   -0.54833E-05  8320   0.680E-04 0.299E-06
  37 F= -.23254832E+03 E0= -.23253405E+03  d E =-.138585E-02  mag=     9.0738
       N       E                     dE             d eps       ncg     rms          ort
SDA:   1    -0.232524559508E+03    0.23757E-01    0.00000E+00  8320   0.153E+00 0.000E+00
CGA:   2    -0.232530462621E+03   -0.59031E-02   -0.58248E-02  8320   0.111E+00 0.889E-03
CGA:   3    -0.232537686347E+03   -0.72237E-02   -0.72337E-02  8320   0.712E-01 0.762E-03
CGA:   4    -0.232543022476E+03   -0.53361E-02   -0.53397E-02  8320   0.258E-01-0.477E-03
CGA:   5    -0.232546650309E+03   -0.36278E-02   -0.36251E-02  8320   0.180E-01 0.393E-04
CGA:   6    -0.232547479922E+03   -0.82961E-03   -0.82802E-03  8320   0.142E-01 0.341E-05
CGA:   7    -0.232548133767E+03   -0.65384E-03   -0.65452E-03  8320   0.391E-02-0.134E-05
CGA:   8    -0.232548468602E+03   -0.33483E-03   -0.33487E-03  8320   0.160E-02-0.140E-05
CGA:   9    -0.232548591148E+03   -0.12255E-03   -0.12254E-03  8320   0.140E-02 0.111E-05
CGA:  10    -0.232548638835E+03   -0.47687E-04   -0.47643E-04  8320   0.526E-03 0.691E-06
CGA:  11    -0.232548687276E+03   -0.48440E-04   -0.48401E-04  8320   0.286E-03 0.172E-05
CGA:  12    -0.232548708315E+03   -0.21039E-04   -0.21040E-04  8320   0.141E-03-0.122E-07
CGA:  13    -0.232548715455E+03   -0.71400E-05   -0.71441E-05  8320   0.160E-03 0.157E-06
CGA:  14    -0.232548726852E+03   -0.11397E-04   -0.11397E-04  8320   0.387E-04 0.121E-06
CGA:  15    -0.232548730821E+03   -0.39691E-05   -0.39625E-05  8320   0.391E-04 0.206E-06
  38 F= -.23254873E+03 E0= -.23253447E+03  d E =-.409277E-03  mag=     9.0720
       N       E                     dE             d eps       ncg     rms          ort
SDA:   1    -0.232544470213E+03    0.42566E-02    0.00000E+00  8320   0.898E-01 0.000E+00
CGA:   2    -0.232546252328E+03   -0.17821E-02   -0.17551E-02  8320   0.830E-02 0.110E-02
CGA:   3    -0.232547262155E+03   -0.10098E-02   -0.10097E-02  8320   0.882E-02 0.310E-05
CGA:   4    -0.232547997528E+03   -0.73537E-03   -0.73519E-03  8320   0.513E-02 0.998E-05
CGA:   5    -0.232548205193E+03   -0.20766E-03   -0.20733E-03  8320   0.384E-02 0.235E-06
CGA:   6    -0.232548445227E+03   -0.24003E-03   -0.24004E-03  8320   0.156E-02-0.110E-05
CGA:   7    -0.232548582754E+03   -0.13753E-03   -0.13748E-03  8320   0.363E-03 0.221E-05
CGA:   8    -0.232548616209E+03   -0.33455E-04   -0.33461E-04  8320   0.223E-03-0.245E-06
CGA:   9    -0.232548628756E+03   -0.12547E-04   -0.12548E-04  8320   0.233E-03 0.459E-07
CGA:  10    -0.232548638284E+03   -0.95281E-05   -0.95238E-05  8320   0.407E-04-0.133E-06
  39 F= -.23254864E+03 E0= -.23253437E+03  d E =0.925370E-04  mag=     9.0715
       N       E                     dE             d eps       ncg     rms          ort
SDA:   1    -0.232424480087E+03    0.12415E+00    0.00000E+00  8320   0.366E+00 0.000E+00
CGA:   2    -0.232475491050E+03   -0.51011E-01   -0.50607E-01  8320   0.516E+00 0.596E-02
CGA:   3    -0.232521229854E+03   -0.45739E-01   -0.45871E-01  8320   0.164E+00-0.688E-02
CGA:   4    -0.232532780457E+03   -0.11551E-01   -0.11549E-01  8320   0.207E+00-0.128E-03
CGA:   5    -0.232540787097E+03   -0.80066E-02   -0.79334E-02  8320   0.571E-01 0.905E-03
CGA:   6    -0.232544983798E+03   -0.41967E-02   -0.41969E-02  8320   0.139E-01 0.225E-03
CGA:   7    -0.232546406528E+03   -0.14227E-02   -0.14256E-02  8320   0.156E-01-0.787E-04
CGA:   8    -0.232546892763E+03   -0.48623E-03   -0.48666E-03  8320   0.461E-02-0.884E-05
CGA:   9    -0.232547231007E+03   -0.33824E-03   -0.33825E-03  8320   0.228E-02-0.484E-05
CGA:  10    -0.232547442700E+03   -0.21169E-03   -0.21158E-03  8320   0.130E-02 0.409E-05
CGA:  11    -0.232547505342E+03   -0.62642E-04   -0.62601E-04  8320   0.109E-02 0.118E-06
CGA:  12    -0.232547558657E+03   -0.53315E-04   -0.53332E-04  8320   0.353E-03 0.645E-06
CGA:  13    -0.232547599550E+03   -0.40893E-04   -0.40888E-04  8320   0.217E-03 0.113E-06
CGA:  14    -0.232547611862E+03   -0.12312E-04   -0.12321E-04  8320   0.208E-03 0.441E-06
CGA:  15    -0.232547621338E+03   -0.94754E-05   -0.94807E-05  8320   0.917E-04 0.256E-06
CGA:  16    -0.232547632241E+03   -0.10904E-04   -0.10881E-04  8320   0.624E-04 0.494E-06
CGA:  17    -0.232547636405E+03   -0.41632E-05   -0.41655E-05  8320   0.643E-04 0.337E-06
  40 F= -.23254764E+03 E0= -.23253336E+03  d E =0.100188E-02  mag=     9.0715
       N       E                     dE             d eps       ncg     rms          ort
SDA:   1    -0.232519605005E+03    0.28027E-01    0.00000E+00  8320   0.140E+00 0.000E+00
CGA:   2    -0.232525465278E+03   -0.58603E-02   -0.59220E-02  8320   0.141E+00-0.415E-03
CGA:   3    -0.232536418470E+03   -0.10953E-01   -0.10961E-01  8320   0.798E-01-0.585E-03
CGA:   4    -0.232541552981E+03   -0.51345E-02   -0.51399E-02  8320   0.325E-01 0.365E-03
CGA:   5    -0.232545669430E+03   -0.41164E-02   -0.41201E-02  8320   0.380E-01-0.608E-04
CGA:   6    -0.232546666054E+03   -0.99662E-03   -0.10039E-02  8320   0.689E-02-0.196E-03
CGA:   7    -0.232547467509E+03   -0.80146E-03   -0.80218E-03  8320   0.348E-02-0.148E-04
CGA:   8    -0.232547650627E+03   -0.18312E-03   -0.18326E-03  8320   0.238E-02 0.238E-06
CGA:   9    -0.232547749634E+03   -0.99007E-04   -0.98898E-04  8320   0.117E-02 0.195E-06
CGA:  10    -0.232547845473E+03   -0.95839E-04   -0.95821E-04  8320   0.464E-03 0.119E-05
CGA:  11    -0.232547879212E+03   -0.33739E-04   -0.33738E-04  8320   0.453E-03 0.682E-06
CGA:  12    -0.232547896013E+03   -0.16801E-04   -0.16831E-04  8320   0.177E-03 0.569E-06
CGA:  13    -0.232547914553E+03   -0.18540E-04   -0.18532E-04  8320   0.112E-03 0.210E-06
CGA:  14    -0.232547921303E+03   -0.67502E-05   -0.67541E-05  8320   0.922E-04 0.303E-06
  41 F= -.23254792E+03 E0= -.23253361E+03  d E =-.284898E-03  mag=     9.0717
       N       E                     dE             d eps       ncg     rms          ort
SDA:   1    -0.232533331407E+03    0.14583E-01    0.00000E+00  8320   0.113E+00 0.000E+00
CGA:   2    -0.232536889164E+03   -0.35578E-02   -0.35126E-02  8320   0.604E-01 0.852E-03
CGA:   3    -0.232541673755E+03   -0.47846E-02   -0.47811E-02  8320   0.431E-01 0.202E-03
CGA:   4    -0.232544811509E+03   -0.31378E-02   -0.31378E-02  8320   0.146E-01-0.112E-04
CGA:   5    -0.232547013202E+03   -0.22017E-02   -0.22005E-02  8320   0.129E-01 0.152E-04
CGA:   6    -0.232547526348E+03   -0.51315E-03   -0.51170E-03  8320   0.792E-02 0.123E-04
CGA:   7    -0.232547905542E+03   -0.37919E-03   -0.37939E-03  8320   0.233E-02 0.706E-06
CGA:   8    -0.232548132514E+03   -0.22697E-03   -0.22693E-03  8320   0.878E-03 0.167E-05
CGA:   9    -0.232548192014E+03   -0.59500E-04   -0.59507E-04  8320   0.938E-03 0.161E-05
CGA:  10    -0.232548226975E+03   -0.34961E-04   -0.34945E-04  8320   0.283E-03 0.528E-06
CGA:  11    -0.232548253987E+03   -0.27013E-04   -0.27014E-04  8320   0.161E-03-0.529E-07
CGA:  12    -0.232548265256E+03   -0.11269E-04   -0.11269E-04  8320   0.107E-03-0.341E-06
CGA:  13    -0.232548269737E+03   -0.44811E-05   -0.44839E-05  8320   0.799E-04 0.635E-07
  42 F= -.23254827E+03 E0= -.23253398E+03  d E =-.348435E-03  mag=     9.0711
       N       E                     dE             d eps       ncg     rms          ort
SDA:   1    -0.232539134170E+03    0.91311E-02    0.00000E+00  8320   0.514E-01 0.000E+00
CGA:   2    -0.232541374742E+03   -0.22406E-02   -0.22273E-02  8320   0.409E-01 0.546E-04
CGA:   3    -0.232543808730E+03   -0.24340E-02   -0.24366E-02  8320   0.357E-01 0.106E-03
CGA:   4    -0.232546687565E+03   -0.28788E-02   -0.28801E-02  8320   0.940E-02-0.650E-04
CGA:   5    -0.232547763404E+03   -0.10758E-02   -0.10758E-02  8320   0.584E-02 0.119E-05
CGA:   6    -0.232548244068E+03   -0.48066E-03   -0.48071E-03  8320   0.157E-02-0.239E-05
CGA:   7    -0.232548353533E+03   -0.10947E-03   -0.10947E-03  8320   0.181E-02 0.197E-05
CGA:   8    -0.232548419152E+03   -0.65619E-04   -0.65587E-04  8320   0.488E-03 0.106E-05
CGA:   9    -0.232548464452E+03   -0.45300E-04   -0.45292E-04  8320   0.172E-03 0.337E-06
CGA:  10    -0.232548481154E+03   -0.16701E-04   -0.16693E-04  8320   0.155E-03 0.309E-06
CGA:  11    -0.232548488340E+03   -0.71860E-05   -0.71884E-05  8320   0.114E-03 0.462E-07
  43 F= -.23254849E+03 E0= -.23253421E+03  d E =-.218602E-03  mag=     9.0706
       N       E                     dE             d eps       ncg     rms          ort
SDA:   1    -0.232541159707E+03    0.73214E-02    0.00000E+00  8320   0.439E-01 0.000E+00
CGA:   2    -0.232543071889E+03   -0.19122E-02   -0.19028E-02  8320   0.332E-01 0.297E-04
CGA:   3    -0.232544921340E+03   -0.18495E-02   -0.18505E-02  8320   0.259E-01 0.222E-04
CGA:   4    -0.232546883927E+03   -0.19626E-02   -0.19631E-02  8320   0.780E-02-0.371E-04
CGA:   5    -0.232547963955E+03   -0.10800E-02   -0.10795E-02  8320   0.503E-02 0.733E-05
CGA:   6    -0.232548280801E+03   -0.31685E-03   -0.31678E-03  8320   0.428E-02-0.305E-05
CGA:   7    -0.232548417765E+03   -0.13696E-03   -0.13709E-03  8320   0.872E-03-0.185E-05
CGA:   8    -0.232548507641E+03   -0.89876E-04   -0.89933E-04  8320   0.490E-03-0.161E-05
CGA:   9    -0.232548541534E+03   -0.33893E-04   -0.33893E-04  8320   0.216E-03-0.139E-06
CGA:  10    -0.232548550598E+03   -0.90647E-05   -0.90565E-05  8320   0.176E-03-0.183E-06
CGA:  11    -0.232548563523E+03   -0.12925E-04   -0.12924E-04  8320   0.674E-04 0.116E-06
CGA:  12    -0.232548568850E+03   -0.53275E-05   -0.53256E-05  8320   0.320E-04 0.191E-06
  44 F= -.23254857E+03 E0= -.23253429E+03  d E =-.805106E-04  mag=     9.0695
       N       E                     dE             d eps       ncg     rms          ort
SDA:   1    -0.232524847709E+03    0.23716E-01    0.00000E+00  8320   0.250E+00 0.000E+00
CGA:   2    -0.232530340914E+03   -0.54932E-02   -0.56332E-02  8320   0.596E-01-0.480E-02
CGA:   3    -0.232541609604E+03   -0.11269E-01   -0.11286E-01  8320   0.668E-01-0.159E-03
CGA:   4    -0.232545386383E+03   -0.37768E-02   -0.37851E-02  8320   0.305E-01 0.999E-04
CGA:   5    -0.232546644271E+03   -0.12579E-02   -0.12562E-02  8320   0.214E-01 0.169E-04
CGA:   6    -0.232548179282E+03   -0.15350E-02   -0.15350E-02  8320   0.514E-02 0.511E-04
CGA:   7    -0.232548541992E+03   -0.36271E-03   -0.36268E-03  8320   0.322E-02-0.161E-04
CGA:   8    -0.232548668253E+03   -0.12626E-03   -0.12634E-03  8320   0.192E-02-0.139E-05
CGA:   9    -0.232548801082E+03   -0.13283E-03   -0.13283E-03  8320   0.568E-03-0.162E-05
CGA:  10    -0.232548847983E+03   -0.46901E-04   -0.46896E-04  8320   0.511E-03 0.281E-06
CGA:  11    -0.232548867331E+03   -0.19348E-04   -0.19335E-04  8320   0.259E-03 0.303E-07
CGA:  12    -0.232548888798E+03   -0.21467E-04   -0.21460E-04  8320   0.109E-03 0.445E-06
CGA:  13    -0.232548896057E+03   -0.72593E-05   -0.72595E-05  8320   0.841E-04 0.892E-07
  45 F= -.23254890E+03 E0= -.23253462E+03  d E =-.327207E-03  mag=     9.0694
       N       E                     dE             d eps       ncg     rms          ort
SDA:   1    -0.232533108703E+03    0.15780E-01    0.00000E+00  8320   0.158E+00 0.000E+00
CGA:   2    -0.232536880271E+03   -0.37716E-02   -0.38501E-02  8320   0.465E-01-0.234E-02
CGA:   3    -0.232542129452E+03   -0.52492E-02   -0.52629E-02  8320   0.615E-01-0.260E-03
CGA:   4    -0.232546852431E+03   -0.47230E-02   -0.47216E-02  8320   0.161E-01 0.100E-03
CGA:   5    -0.232547745767E+03   -0.89334E-03   -0.89274E-03  8320   0.193E-01-0.129E-04
CGA:   6    -0.232548734554E+03   -0.98879E-03   -0.98918E-03  8320   0.380E-02 0.351E-05
CGA:   7    -0.232549098574E+03   -0.36402E-03   -0.36411E-03  8320   0.175E-02-0.286E-05
CGA:   8    -0.232549161506E+03   -0.62933E-04   -0.62991E-04  8320   0.111E-02-0.408E-06
CGA:   9    -0.232549259092E+03   -0.97586E-04   -0.97597E-04  8320   0.407E-03-0.420E-06
CGA:  10    -0.232549283784E+03   -0.24692E-04   -0.24699E-04  8320   0.248E-03 0.573E-06
CGA:  11    -0.232549295780E+03   -0.11996E-04   -0.11995E-04  8320   0.211E-03-0.340E-09
CGA:  12    -0.232549310072E+03   -0.14292E-04   -0.14292E-04  8320   0.607E-04 0.286E-06
CGA:  13    -0.232549314882E+03   -0.48095E-05   -0.48081E-05  8320   0.550E-04 0.118E-06
  46 F= -.23254931E+03 E0= -.23253504E+03  d E =-.418825E-03  mag=     9.0685
       N       E                     dE             d eps       ncg     rms          ort
SDA:   1    -0.232529042979E+03    0.20267E-01    0.00000E+00  8320   0.138E+00 0.000E+00
CGA:   2    -0.232533034725E+03   -0.39917E-02   -0.40321E-02  8320   0.738E-01-0.831E-03
CGA:   3    -0.232541899602E+03   -0.88649E-02   -0.88801E-02  8320   0.521E-01-0.259E-03
CGA:   4    -0.232545892324E+03   -0.39927E-02   -0.39909E-02  8320   0.234E-01 0.121E-03
CGA:   5    -0.232547661661E+03   -0.17693E-02   -0.17697E-02  8320   0.282E-01-0.292E-04
CGA:   6    -0.232548685767E+03   -0.10241E-02   -0.10280E-02  8320   0.730E-02-0.424E-04
CGA:   7    -0.232549183095E+03   -0.49733E-03   -0.49737E-03  8320   0.226E-02-0.126E-04
CGA:   8    -0.232549403691E+03   -0.22060E-03   -0.22044E-03  8320   0.220E-02 0.419E-05
CGA:   9    -0.232549474074E+03   -0.70383E-04   -0.70330E-04  8320   0.733E-03 0.474E-07
CGA:  10    -0.232549531075E+03   -0.57001E-04   -0.57008E-04  8320   0.320E-03-0.645E-06
CGA:  11    -0.232549563709E+03   -0.32633E-04   -0.32639E-04  8320   0.307E-03-0.117E-06
CGA:  12    -0.232549573998E+03   -0.10289E-04   -0.10304E-04  8320   0.121E-03 0.235E-06
CGA:  13    -0.232549583141E+03   -0.91432E-05   -0.91423E-05  8320   0.682E-04 0.130E-06
  47 F= -.23254958E+03 E0= -.23253531E+03  d E =-.268259E-03  mag=     9.0681
       N       E                     dE             d eps       ncg     rms          ort
SDA:   1    -0.232541559267E+03    0.80147E-02    0.00000E+00  8320   0.183E+00 0.000E+00
CGA:   2    -0.232545154333E+03   -0.35951E-02   -0.37004E-02  8320   0.176E-01-0.418E-02
CGA:   3    -0.232546871534E+03   -0.17172E-02   -0.17205E-02  8320   0.191E-01-0.821E-04
CGA:   4    -0.232548326226E+03   -0.14547E-02   -0.14540E-02  8320   0.128E-01 0.474E-04
CGA:   5    -0.232548768770E+03   -0.44254E-03   -0.44086E-03  8320   0.567E-02 0.224E-04
CGA:   6    -0.232549395937E+03   -0.62717E-03   -0.62674E-03  8320   0.298E-02 0.910E-05
CGA:   7    -0.232549542086E+03   -0.14615E-03   -0.14608E-03  8320   0.174E-02 0.255E-06
CGA:   8    -0.232549611178E+03   -0.69092E-04   -0.69178E-04  8320   0.656E-03 0.876E-06
CGA:   9    -0.232549672328E+03   -0.61150E-04   -0.61129E-04  8320   0.277E-03 0.861E-06
CGA:  10    -0.232549683831E+03   -0.11504E-04   -0.11508E-04  8320   0.206E-03 0.423E-07
CGA:  11    -0.232549698633E+03   -0.14802E-04   -0.14805E-04  8320   0.824E-04-0.576E-06
CGA:  12    -0.232549704716E+03   -0.60828E-05   -0.60820E-05  8320   0.768E-04 0.130E-06
  48 F= -.23254970E+03 E0= -.23253544E+03  d E =-.121574E-03  mag=     9.0689
       N       E                     dE             d eps       ncg     rms          ort
[...]
  90 F= -.23254327E+03 E0= -.23252894E+03  d E =0.981949E-03  mag=     9.0708
       N       E                     dE             d eps       ncg     rms          ort
SDA:   1    -0.232492511055E+03    0.50749E-01    0.00000E+00  8320   0.331E+00 0.000E+00
CGA:   2    -0.232502125915E+03   -0.96149E-02   -0.94495E-02  8320   0.176E+00 0.376E-02
CGA:   3    -0.232526104407E+03   -0.23978E-01   -0.23946E-01  8320   0.108E+00 0.499E-03
CGA:   4    -0.232534678889E+03   -0.85745E-02   -0.85703E-02  8320   0.608E-01 0.437E-03
CGA:   5    -0.232541134076E+03   -0.64552E-02   -0.64619E-02  8320   0.216E-01-0.167E-03
CGA:   6    -0.232542579410E+03   -0.14453E-02   -0.14459E-02  8320   0.196E-01 0.274E-04
CGA:   7    -0.232543224136E+03   -0.64473E-03   -0.64323E-03  8320   0.543E-02 0.294E-04
CGA:   8    -0.232543742633E+03   -0.51850E-03   -0.51868E-03  8320   0.189E-02-0.580E-05
CGA:   9    -0.232543911663E+03   -0.16903E-03   -0.16898E-03  8320   0.132E-02 0.282E-05
CGA:  10    -0.232543978042E+03   -0.66379E-04   -0.66425E-04  8320   0.123E-02 0.134E-06
CGA:  11    -0.232544038984E+03   -0.60942E-04   -0.60896E-04  8320   0.331E-03-0.929E-06
CGA:  12    -0.232544070261E+03   -0.31277E-04   -0.31271E-04  8320   0.217E-03 0.253E-06
CGA:  13    -0.232544089301E+03   -0.19040E-04   -0.19040E-04  8320   0.225E-03 0.121E-07
CGA:  14    -0.232544096674E+03   -0.73733E-05   -0.73837E-05  8320   0.766E-04 0.616E-07
  91 F= -.23254410E+03 E0= -.23252976E+03  d E =-.830103E-03  mag=     9.0707
       N       E                     dE             d eps       ncg     rms          ort
SDA:   1    -0.231943039431E+03    0.60105E+00    0.00000E+00  8320   0.155E+01 0.000E+00
CGA:   2    -0.232309177555E+03   -0.36614E+00   -0.36649E+00  8320   0.195E+01-0.262E-02
CGA:   3    -0.232383508843E+03   -0.74331E-01   -0.75978E-01  8320   0.144E+01-0.246E-01
CGA:   4    -0.232479028975E+03   -0.95520E-01   -0.95067E-01  8320   0.527E+00-0.112E-01
CGA:   5    -0.232517821138E+03   -0.38792E-01   -0.38850E-01  8320   0.191E+00 0.559E-02
CGA:   6    -0.232526311497E+03   -0.84904E-02   -0.84032E-02  8320   0.146E+00 0.769E-03
CGA:   7    -0.232534385255E+03   -0.80738E-02   -0.80997E-02  8320   0.463E-01 0.133E-03
CGA:   8    -0.232537735403E+03   -0.33501E-02   -0.33486E-02  8320   0.216E-01-0.197E-03
CGA:   9    -0.232539057492E+03   -0.13221E-02   -0.13232E-02  8320   0.235E-01 0.233E-04
CGA:  10    -0.232540069770E+03   -0.10123E-02   -0.10100E-02  8320   0.645E-02 0.173E-04
CGA:  11    -0.232540631124E+03   -0.56135E-03   -0.56126E-03  8320   0.331E-02 0.479E-05
CGA:  12    -0.232540810334E+03   -0.17921E-03   -0.17907E-03  8320   0.363E-02-0.102E-05
CGA:  13    -0.232541010730E+03   -0.20040E-03   -0.20043E-03  8320   0.108E-02 0.156E-05
CGA:  14    -0.232541104531E+03   -0.93801E-04   -0.93768E-04  8320   0.748E-03 0.216E-05
CGA:  15    -0.232541137904E+03   -0.33373E-04   -0.33414E-04  8320   0.650E-03 0.872E-06
CGA:  16    -0.232541193536E+03   -0.55632E-04   -0.55626E-04  8320   0.312E-03 0.661E-06
CGA:  17    -0.232541215272E+03   -0.21736E-04   -0.21740E-04  8320   0.264E-03 0.133E-05
CGA:  18    -0.232541227877E+03   -0.12605E-04   -0.12620E-04  8320   0.207E-03 0.666E-06
CGA:  19    -0.232541244650E+03   -0.16773E-04   -0.16761E-04  8320   0.114E-03 0.116E-05
CGA:  20    -0.232541253732E+03   -0.90816E-05   -0.90787E-05  8320   0.106E-03 0.404E-06
  92 F= -.23254125E+03 E0= -.23252687E+03  d E =0.284294E-02  mag=     9.0697
       N       E                     dE             d eps       ncg     rms          ort
SDA:   1    -0.232044737972E+03    0.49651E+00    0.00000E+00  8320   0.151E+01 0.000E+00
CGA:   2    -0.232255856151E+03   -0.21112E+00   -0.20660E+00  8320   0.298E+01 0.666E-01
CGA:   3    -0.232363697746E+03   -0.10784E+00   -0.10426E+00  8320   0.103E+01 0.571E-01
CGA:   4    -0.232461590133E+03   -0.97892E-01   -0.97690E-01  8320   0.552E+00 0.670E-02
CGA:   5    -0.232511000681E+03   -0.49411E-01   -0.49487E-01  8320   0.263E+00-0.317E-02
CGA:   6    -0.232522910204E+03   -0.11910E-01   -0.12011E-01  8320   0.192E+00-0.362E-03
CGA:   7    -0.232531337390E+03   -0.84272E-02   -0.83598E-02  8320   0.559E-01 0.358E-03
CGA:   8    -0.232535893937E+03   -0.45565E-02   -0.45542E-02  8320   0.271E-01 0.143E-03
CGA:   9    -0.232537634213E+03   -0.17403E-02   -0.17393E-02  8320   0.242E-01-0.539E-04
CGA:  10    -0.232538505167E+03   -0.87095E-03   -0.87447E-03  8320   0.798E-02-0.413E-04
CGA:  11    -0.232539383982E+03   -0.87881E-03   -0.87872E-03  8320   0.356E-02 0.242E-05
CGA:  12    -0.232539597902E+03   -0.21392E-03   -0.21393E-03  8320   0.413E-02 0.552E-06
CGA:  13    -0.232539793605E+03   -0.19570E-03   -0.19556E-03  8320   0.165E-02-0.175E-06
CGA:  14    -0.232539947123E+03   -0.15352E-03   -0.15343E-03  8320   0.834E-03 0.345E-05
CGA:  15    -0.232539994993E+03   -0.47870E-04   -0.47858E-04  8320   0.886E-03-0.340E-06
CGA:  16    -0.232540041719E+03   -0.46726E-04   -0.46735E-04  8320   0.510E-03 0.217E-06
CGA:  17    -0.232540085411E+03   -0.43692E-04   -0.43693E-04  8320   0.250E-03 0.758E-07
CGA:  18    -0.232540102379E+03   -0.16968E-04   -0.16969E-04  8320   0.299E-03 0.393E-06
CGA:  19    -0.232540115471E+03   -0.13092E-04   -0.13087E-04  8320   0.124E-03-0.579E-08
CGA:  20    -0.232540130319E+03   -0.14848E-04   -0.14855E-04  8320   0.802E-04-0.137E-06
CGA:  21    -0.232540134006E+03   -0.36864E-05   -0.36830E-05  8320   0.698E-04-0.111E-06
  93 F= -.23254013E+03 E0= -.23252575E+03  d E =0.111973E-02  mag=     9.0701
       N       E                     dE             d eps       ncg     rms          ort
SDA:   1    -0.232180101766E+03    0.36003E+00    0.00000E+00  8320   0.121E+01 0.000E+00
CGA:   2    -0.232321188546E+03   -0.14109E+00   -0.14049E+00  8320   0.133E+01 0.123E-01
CGA:   3    -0.232456099103E+03   -0.13491E+00   -0.13505E+00  8320   0.558E+00-0.367E-02
CGA:   4    -0.232490982299E+03   -0.34883E-01   -0.34942E-01  8320   0.598E+00 0.198E-02
CGA:   5    -0.232515103211E+03   -0.24121E-01   -0.24488E-01  8320   0.245E+00-0.341E-02
CGA:   6    -0.232532196920E+03   -0.17094E-01   -0.17091E-01  8320   0.529E-01-0.132E-02
CGA:   7    -0.232537402321E+03   -0.52054E-02   -0.51958E-02  8320   0.451E-01 0.269E-03
CGA:   8    -0.232538991694E+03   -0.15894E-02   -0.15866E-02  8320   0.216E-01 0.347E-04
CGA:   9    -0.232540360325E+03   -0.13686E-02   -0.13693E-02  8320   0.743E-02 0.383E-04
CGA:  10    -0.232541059760E+03   -0.69943E-03   -0.69990E-03  8320   0.478E-02-0.144E-04
CGA:  11    -0.232541322171E+03   -0.26241E-03   -0.26252E-03  8320   0.463E-02 0.320E-05
CGA:  12    -0.232541532940E+03   -0.21077E-03   -0.21055E-03  8320   0.143E-02 0.219E-05
CGA:  13    -0.232541664723E+03   -0.13178E-03   -0.13168E-03  8320   0.877E-03 0.378E-05
CGA:  14    -0.232541736392E+03   -0.71669E-04   -0.71662E-04  8320   0.119E-02 0.799E-06
CGA:  15    -0.232541780004E+03   -0.43613E-04   -0.43681E-04  8320   0.305E-03 0.743E-06
CGA:  16    -0.232541818197E+03   -0.38192E-04   -0.38118E-04  8320   0.257E-03 0.133E-05
CGA:  17    -0.232541837153E+03   -0.18956E-04   -0.18955E-04  8320   0.340E-03 0.119E-05
CGA:  18    -0.232541851289E+03   -0.14135E-04   -0.14160E-04  8320   0.102E-03 0.887E-06
CGA:  19    -0.232541861115E+03   -0.98263E-05   -0.97919E-05  8320   0.830E-04 0.130E-05
  94 F= -.23254186E+03 E0= -.23252754E+03  d E =-.172711E-02  mag=     9.0716
       N       E                     dE             d eps       ncg     rms          ort
SDA:   1    -0.232426061400E+03    0.11579E+00    0.00000E+00  8320   0.478E+00 0.000E+00
CGA:   2    -0.232450627269E+03   -0.24566E-01   -0.24474E-01  8320   0.631E+00-0.514E-03
CGA:   3    -0.232494639558E+03   -0.44012E-01   -0.44032E-01  8320   0.359E+00 0.670E-02
CGA:   4    -0.232521097046E+03   -0.26457E-01   -0.26460E-01  8320   0.126E+00-0.828E-03
CGA:   5    -0.232533345876E+03   -0.12249E-01   -0.12270E-01  8320   0.111E+00-0.625E-03
CGA:   6    -0.232537363312E+03   -0.40174E-02   -0.40491E-02  8320   0.592E-01-0.414E-03
CGA:   7    -0.232540246498E+03   -0.28832E-02   -0.28910E-02  8320   0.121E-01 0.319E-04
CGA:   8    -0.232541683841E+03   -0.14373E-02   -0.14386E-02  8320   0.475E-02-0.237E-04
CGA:   9    -0.232542094108E+03   -0.41027E-03   -0.41009E-03  8320   0.463E-02 0.888E-05
CGA:  10    -0.232542249099E+03   -0.15499E-03   -0.15483E-03  8320   0.186E-02 0.284E-05
CGA:  11    -0.232542389613E+03   -0.14051E-03   -0.14050E-03  8320   0.104E-02 0.191E-05
CGA:  12    -0.232542487423E+03   -0.97810E-04   -0.97816E-04  8320   0.331E-03-0.189E-06
CGA:  13    -0.232542524259E+03   -0.36836E-04   -0.36839E-04  8320   0.271E-03-0.107E-06
CGA:  14    -0.232542546917E+03   -0.22658E-04   -0.22660E-04  8320   0.291E-03-0.248E-06
CGA:  15    -0.232542556246E+03   -0.93296E-05   -0.93356E-05  8320   0.901E-04 0.243E-07
CGA:  16    -0.232542567558E+03   -0.11311E-04   -0.11315E-04  8320   0.720E-04-0.620E-07
CGA:  17    -0.232542574769E+03   -0.72116E-05   -0.72118E-05  8320   0.376E-04-0.106E-07
  95 F= -.23254257E+03 E0= -.23252823E+03  d E =-.713654E-03  mag=     9.0723
       N       E                     dE             d eps       ncg     rms          ort
SDA:   1    -0.232525710010E+03    0.16858E-01    0.00000E+00  8320   0.190E+00 0.000E+00
CGA:   2    -0.232529975000E+03   -0.42650E-02   -0.41436E-02  8320   0.409E-01 0.441E-02
CGA:   3    -0.232536099523E+03   -0.61245E-02   -0.61127E-02  8320   0.554E-01 0.165E-03
CGA:   4    -0.232539806868E+03   -0.37073E-02   -0.37084E-02  8320   0.269E-01 0.314E-04
CGA:   5    -0.232540706298E+03   -0.89943E-03   -0.89637E-03  8320   0.155E-01 0.516E-04
CGA:   6    -0.232542086562E+03   -0.13803E-02   -0.13801E-02  8320   0.502E-02 0.772E-05
CGA:   7    -0.232542434353E+03   -0.34779E-03   -0.34773E-03  8320   0.196E-02-0.525E-05
CGA:   8    -0.232542537808E+03   -0.10346E-03   -0.10340E-03  8320   0.224E-02-0.859E-06
CGA:   9    -0.232542645539E+03   -0.10773E-03   -0.10779E-03  8320   0.395E-03 0.463E-06
CGA:  10    -0.232542687822E+03   -0.42283E-04   -0.42262E-04  8320   0.209E-03 0.610E-06
CGA:  11    -0.232542708844E+03   -0.21022E-04   -0.21024E-04  8320   0.209E-03-0.502E-07
CGA:  12    -0.232542715680E+03   -0.68367E-05   -0.68389E-05  8320   0.845E-04 0.147E-07
  96 F= -.23254272E+03 E0= -.23252838E+03  d E =-.140911E-03  mag=     9.0723
       N       E                     dE             d eps       ncg     rms          ort
SDA:   1    -0.232524973390E+03    0.17735E-01    0.00000E+00  8320   0.629E-01 0.000E+00
CGA:   2    -0.232530030660E+03   -0.50573E-02   -0.50615E-02  8320   0.844E-01-0.358E-03
CGA:   3    -0.232535512822E+03   -0.54822E-02   -0.54844E-02  8320   0.103E+00 0.991E-04
CGA:   4    -0.232540159303E+03   -0.46465E-02   -0.46278E-02  8320   0.149E-01 0.965E-04
CGA:   5    -0.232541992636E+03   -0.18333E-02   -0.18328E-02  8320   0.659E-02 0.914E-05
CGA:   6    -0.232542490405E+03   -0.49777E-03   -0.49778E-03  8320   0.601E-02-0.831E-05
CGA:   7    -0.232542669677E+03   -0.17927E-03   -0.17948E-03  8320   0.131E-02-0.358E-05
CGA:   8    -0.232542809446E+03   -0.13977E-03   -0.13972E-03  8320   0.667E-03 0.128E-05
CGA:   9    -0.232542861416E+03   -0.51970E-04   -0.51969E-04  8320   0.406E-03 0.138E-06
CGA:  10    -0.232542877504E+03   -0.16087E-04   -0.16072E-04  8320   0.262E-03-0.991E-07
CGA:  11    -0.232542894450E+03   -0.16946E-04   -0.16948E-04  8320   0.116E-03 0.198E-06
CGA:  12    -0.232542904369E+03   -0.99193E-05   -0.99171E-05  8320   0.426E-04 0.180E-06
  97 F= -.23254290E+03 E0= -.23252857E+03  d E =-.188689E-03  mag=     9.0714
       N       E                     dE             d eps       ncg     rms          ort
SDA:   1    -0.232520654032E+03    0.22240E-01    0.00000E+00  8320   0.367E+00 0.000E+00
CGA:   2    -0.232528009205E+03   -0.73552E-02   -0.76664E-02  8320   0.531E-01-0.120E-01
CGA:   3    -0.232535715437E+03   -0.77062E-02   -0.77091E-02  8320   0.530E-01-0.365E-04
CGA:   4    -0.232538127669E+03   -0.24122E-02   -0.24188E-02  8320   0.360E-01-0.232E-04
CGA:   5    -0.232540030297E+03   -0.19026E-02   -0.18952E-02  8320   0.203E-01-0.447E-04
CGA:   6    -0.232541767980E+03   -0.17377E-02   -0.17369E-02  8320   0.995E-02 0.400E-04
CGA:   7    -0.232542153436E+03   -0.38546E-03   -0.38549E-03  8320   0.524E-02 0.821E-06
CGA:   8    -0.232542442899E+03   -0.28946E-03   -0.28958E-03  8320   0.204E-02 0.286E-05
CGA:   9    -0.232542609113E+03   -0.16621E-03   -0.16627E-03  8320   0.158E-02-0.409E-05
CGA:  10    -0.232542659788E+03   -0.50676E-04   -0.50679E-04  8320   0.458E-03-0.773E-06
CGA:  11    -0.232542708416E+03   -0.48627E-04   -0.48606E-04  8320   0.345E-03 0.530E-06
CGA:  12    -0.232542723303E+03   -0.14888E-04   -0.14896E-04  8320   0.241E-03 0.128E-06
CGA:  13    -0.232542738923E+03   -0.15620E-04   -0.15618E-04  8320   0.927E-04-0.310E-06
CGA:  14    -0.232542745433E+03   -0.65105E-05   -0.65100E-05  8320   0.988E-04 0.185E-06
  98 F= -.23254275E+03 E0= -.23252840E+03  d E =0.158936E-03  mag=     9.0732
       N       E                     dE             d eps       ncg     rms          ort
SDA:   1    -0.232528469480E+03    0.14269E-01    0.00000E+00  8320   0.177E+00 0.000E+00
CGA:   2    -0.232532643400E+03   -0.41739E-02   -0.40900E-02  8320   0.420E-01 0.268E-02
CGA:   3    -0.232536653202E+03   -0.40098E-02   -0.40010E-02  8320   0.425E-01 0.254E-03
CGA:   4    -0.232540231777E+03   -0.35786E-02   -0.35812E-02  8320   0.124E-01-0.109E-03
CGA:   5    -0.232541713897E+03   -0.14821E-02   -0.14833E-02  8320   0.256E-01-0.214E-04
CGA:   6    -0.232542472639E+03   -0.75874E-03   -0.76068E-03  8320   0.308E-02-0.413E-04
CGA:   7    -0.232542809182E+03   -0.33654E-03   -0.33662E-03  8320   0.154E-02-0.165E-05
CGA:   8    -0.232542926504E+03   -0.11732E-03   -0.11731E-03  8320   0.603E-03 0.153E-05
CGA:   9    -0.232542981783E+03   -0.55279E-04   -0.55267E-04  8320   0.353E-03 0.611E-06
CGA:  10    -0.232542997168E+03   -0.15385E-04   -0.15398E-04  8320   0.302E-03 0.198E-06
CGA:  11    -0.232543015202E+03   -0.18034E-04   -0.18031E-04  8320   0.984E-04-0.226E-06
CGA:  12    -0.232543024013E+03   -0.88105E-05   -0.88151E-05  8320   0.478E-04-0.229E-06
  99 F= -.23254302E+03 E0= -.23252868E+03  d E =-.278579E-03  mag=     9.0730
       N       E                     dE             d eps       ncg     rms          ort
SDA:   1    -0.232423866468E+03    0.11915E+00    0.00000E+00  8320   0.534E+00 0.000E+00
CGA:   2    -0.232449233102E+03   -0.25367E-01   -0.25113E-01  8320   0.656E+00 0.350E-03
CGA:   3    -0.232498402287E+03   -0.49169E-01   -0.49157E-01  8320   0.222E+00 0.222E-02
CGA:   4    -0.232517361869E+03   -0.18960E-01   -0.18948E-01  8320   0.168E+00 0.552E-03
CGA:   5    -0.232534704079E+03   -0.17342E-01   -0.17325E-01  8320   0.560E-01 0.450E-03
CGA:   6    -0.232537296157E+03   -0.25921E-02   -0.25786E-02  8320   0.542E-01 0.492E-04
CGA:   7    -0.232540347732E+03   -0.30516E-02   -0.30536E-02  8320   0.126E-01 0.268E-04
CGA:   8    -0.232541385620E+03   -0.10379E-02   -0.10379E-02  8320   0.573E-02 0.128E-05
CGA:   9    -0.232541795996E+03   -0.41038E-03   -0.41039E-03  8320   0.648E-02 0.716E-05
CGA:  10    -0.232542038065E+03   -0.24207E-03   -0.24156E-03  8320   0.193E-02 0.712E-05
CGA:  11    -0.232542197261E+03   -0.15920E-03   -0.15917E-03  8320   0.896E-03 0.195E-05
CGA:  12    -0.232542279267E+03   -0.82007E-04   -0.82026E-04  8320   0.951E-03-0.762E-06
CGA:  13    -0.232542315719E+03   -0.36451E-04   -0.36480E-04  8320   0.482E-03-0.923E-07
CGA:  14    -0.232542347141E+03   -0.31423E-04   -0.31421E-04  8320   0.175E-03-0.849E-07
CGA:  15    -0.232542368991E+03   -0.21850E-04   -0.21815E-04  8320   0.201E-03 0.627E-06
CGA:  16    -0.232542376599E+03   -0.76075E-05   -0.76124E-05  8320   0.117E-03 0.188E-06
 100 F= -.23254238E+03 E0= -.23252808E+03  d E =0.647414E-03  mag=     9.0708
       N       E                     dE             d eps       ncg     rms          ort
SDA:   1    -0.232487577717E+03    0.54791E-01    0.00000E+00  8320   0.221E+00 0.000E+00
CGA:   2    -0.232504013912E+03   -0.16436E-01   -0.16420E-01  8320   0.371E+00 0.299E-02
CGA:   3    -0.232521295043E+03   -0.17281E-01   -0.17225E-01  8320   0.120E+00 0.995E-04
CGA:   4    -0.232530352417E+03   -0.90574E-02   -0.90571E-02  8320   0.764E-01 0.374E-04
CGA:   5    -0.232538530619E+03   -0.81782E-02   -0.81918E-02  8320   0.555E-01-0.311E-03
CGA:   6    -0.232540232484E+03   -0.17019E-02   -0.17200E-02  8320   0.218E-01-0.360E-03
CGA:   7    -0.232541918879E+03   -0.16864E-02   -0.16863E-02  8320   0.859E-02 0.655E-05
CGA:   8    -0.232542557408E+03   -0.63853E-03   -0.63855E-03  8320   0.571E-02-0.385E-05
CGA:   9    -0.232542745479E+03   -0.18807E-03   -0.18759E-03  8320   0.220E-02 0.624E-05
CGA:  10    -0.232542963200E+03   -0.21772E-03   -0.21757E-03  8320   0.123E-02 0.434E-05
CGA:  11    -0.232543033432E+03   -0.70232E-04   -0.70219E-04  8320   0.769E-03 0.576E-07
CGA:  12    -0.232543064699E+03   -0.31267E-04   -0.31301E-04  8320   0.435E-03 0.401E-06
CGA:  13    -0.232543106283E+03   -0.41583E-04   -0.41586E-04  8320   0.219E-03-0.349E-07
CGA:  14    -0.232543119840E+03   -0.13558E-04   -0.13562E-04  8320   0.200E-03 0.516E-06
CGA:  15    -0.232543128118E+03   -0.82779E-05   -0.82802E-05  8320   0.822E-04 0.735E-07
 101 F= -.23254313E+03 E0= -.23252880E+03  d E =-.751520E-03  mag=     9.0702
       N       E                     dE             d eps       ncg     rms          ort
SDA:   1    -0.232528007837E+03    0.15112E-01    0.00000E+00  8320   0.241E+00 0.000E+00
CGA:   2    -0.232533198448E+03   -0.51906E-02   -0.53291E-02  8320   0.428E-01-0.487E-02
CGA:   3    -0.232536719442E+03   -0.35210E-02   -0.35249E-02  8320   0.412E-01-0.168E-03
CGA:   4    -0.232540532582E+03   -0.38131E-02   -0.38101E-02  8320   0.193E-01 0.965E-04
CGA:   5    -0.232541362174E+03   -0.82959E-03   -0.82798E-03  8320   0.175E-01 0.918E-05
CGA:   6    -0.232542759362E+03   -0.13972E-02   -0.13969E-02  8320   0.512E-02 0.188E-04
CGA:   7    -0.232543081199E+03   -0.32184E-03   -0.32177E-03  8320   0.279E-02-0.424E-05
CGA:   8    -0.232543191669E+03   -0.11047E-03   -0.11056E-03  8320   0.170E-02-0.815E-06
CGA:   9    -0.232543315129E+03   -0.12346E-03   -0.12347E-03  8320   0.455E-03-0.228E-05
CGA:  10    -0.232543347748E+03   -0.32620E-04   -0.32618E-04  8320   0.521E-03 0.220E-06
CGA:  11    -0.232543369108E+03   -0.21359E-04   -0.21347E-04  8320   0.189E-03-0.160E-06
CGA:  12    -0.232543384735E+03   -0.15627E-04   -0.15624E-04  8320   0.121E-03 0.209E-06
CGA:  13    -0.232543392098E+03   -0.73634E-05   -0.73648E-05  8320   0.977E-04 0.196E-06
 102 F= -.23254339E+03 E0= -.23252905E+03  d E =-.263980E-03  mag=     9.0707
       N       E                     dE             d eps       ncg     rms          ort
SDA:   1    -0.232528151748E+03    0.15233E-01    0.00000E+00  8320   0.820E-01 0.000E+00
CGA:   2    -0.232530783149E+03   -0.26314E-02   -0.26614E-02  8320   0.563E-01-0.471E-03
CGA:   3    -0.232537372768E+03   -0.65896E-02   -0.66125E-02  8320   0.645E-01-0.405E-03
CGA:   4    -0.232541544217E+03   -0.41714E-02   -0.41721E-02  8320   0.119E-01 0.202E-03
CGA:   5    -0.232542742250E+03   -0.11980E-02   -0.11982E-02  8320   0.989E-02-0.279E-05
CGA:   6    -0.232543099183E+03   -0.35693E-03   -0.35733E-03  8320   0.528E-02-0.269E-05
CGA:   7    -0.232543400109E+03   -0.30093E-03   -0.30086E-03  8320   0.119E-02-0.300E-05
CGA:   8    -0.232543512355E+03   -0.11225E-03   -0.11222E-03  8320   0.613E-03 0.648E-06
CGA:   9    -0.232543551366E+03   -0.39011E-04   -0.39009E-04  8320   0.756E-03-0.399E-06
CGA:  10    -0.232543581937E+03   -0.30571E-04   -0.30577E-04  8320   0.127E-03 0.966E-07
CGA:  11    -0.232543596315E+03   -0.14378E-04   -0.14390E-04  8320   0.912E-04-0.244E-06
CGA:  12    -0.232543602374E+03   -0.60590E-05   -0.60593E-05  8320   0.861E-04 0.512E-07
 103 F= -.23254360E+03 E0= -.23252927E+03  d E =-.210276E-03  mag=     9.0718
