       N       E                     dE             d eps       ncg     rms          ort
DAV:   1     0.601549649636E+04    0.60155E+04   -0.27059E+05  8112   0.166E+03
DAV:   2     0.344558871524E+03   -0.56709E+04   -0.51836E+04  8112   0.463E+02
DAV:   3    -0.367348089633E+03   -0.71191E+03   -0.69737E+03  8112   0.183E+02
DAV:   4    -0.388979696191E+03   -0.21632E+02   -0.21504E+02  8112   0.332E+01
DAV:   5    -0.389380821588E+03   -0.40113E+00   -0.39838E+00  8112   0.408E+00
SDA:   6    -0.125439734264E+03    0.26394E+03   -0.39838E+00  8112   0.116E+04 0.000E+00
CGA:   7    -0.265046530154E+03   -0.13961E+03   -0.13993E+03  8112   0.359E+03 0.175E+01
CGA:   8    -0.282518686957E+03   -0.17472E+02   -0.26216E+02  8112   0.178E+03-0.319E+02
CGA:   9    -0.292668153945E+03   -0.10149E+02   -0.92645E+01  8112   0.235E+03-0.619E+02
CGA:  10    -0.302472723867E+03   -0.98046E+01   -0.92462E+01  8112   0.720E+02-0.173E+02
CGA:  11    -0.308171679723E+03   -0.56990E+01   -0.38051E+01  8112   0.482E+02 0.183E+00
CGA:  12    -0.310044158291E+03   -0.18725E+01   -0.40762E+01  8112   0.173E+03-0.659E+01
CGA:  13    -0.312321789440E+03   -0.22776E+01   -0.43326E+01  8112   0.660E+02-0.977E+02
CGA:  14    -0.315536686565E+03   -0.32149E+01   -0.42875E+01  8112   0.505E+02-0.155E+02
CGA:  15    -0.317096199194E+03   -0.15595E+01   -0.15733E+01  8112   0.133E+02-0.584E+01
CGA:  16    -0.318215601992E+03   -0.11194E+01   -0.95951E+00  8112   0.822E+01-0.286E+00
CGA:  17    -0.318501608988E+03   -0.28601E+00   -0.33771E+00  8112   0.640E+01-0.166E+01
CGA:  18    -0.318852261521E+03   -0.35065E+00   -0.32917E+00  8112   0.601E+01 0.305E+00
CGA:  19    -0.319022666934E+03   -0.17041E+00   -0.28188E+00  8112   0.398E+01-0.173E+01
CGA:  20    -0.319151873466E+03   -0.12921E+00   -0.12857E+00  8112   0.207E+01 0.122E+00
CGA:  21    -0.319255748651E+03   -0.10388E+00   -0.11244E+00  8112   0.870E+00-0.360E-01
CGA:  22    -0.319322821671E+03   -0.67073E-01   -0.75457E-01  8112   0.702E+00 0.378E-01
CGA:  23    -0.319397479926E+03   -0.74658E-01   -0.75369E-01  8112   0.342E+00 0.230E-01
CGA:  24    -0.319424003658E+03   -0.26524E-01   -0.26596E-01  8112   0.175E+00 0.177E-02
CGA:  25    -0.319447018108E+03   -0.23014E-01   -0.22626E-01  8112   0.110E+00 0.227E-01
CGA:  26    -0.319458432437E+03   -0.11414E-01   -0.11750E-01  8112   0.632E-01 0.375E-02
CGA:  27    -0.319468848123E+03   -0.10416E-01   -0.10319E-01  8112   0.434E-01 0.180E-02
CGA:  28    -0.319476548574E+03   -0.77005E-02   -0.76847E-02  8112   0.435E-01 0.212E-03
CGA:  29    -0.319485066646E+03   -0.85181E-02   -0.84138E-02  8112   0.255E-01 0.121E-02
CGA:  30    -0.319489292378E+03   -0.42257E-02   -0.44184E-02  8112   0.255E-01-0.357E-02
CGA:  31    -0.319492231508E+03   -0.29391E-02   -0.29395E-02  8112   0.178E-01-0.108E-03
CGA:  32    -0.319494398745E+03   -0.21672E-02   -0.21619E-02  8112   0.111E-01-0.391E-03
CGA:  33    -0.319496238656E+03   -0.18399E-02   -0.18415E-02  8112   0.153E-01-0.186E-04
CGA:  34    -0.319498135738E+03   -0.18971E-02   -0.18829E-02  8112   0.722E-02-0.838E-03
CGA:  35    -0.319499148593E+03   -0.10129E-02   -0.10169E-02  8112   0.710E-02-0.123E-03
CGA:  36    -0.319500039749E+03   -0.89116E-03   -0.89096E-03  8112   0.660E-02-0.817E-05
CGA:  37    -0.319500875527E+03   -0.83578E-03   -0.83676E-03  8112   0.370E-02 0.139E-03
CGA:  38    -0.319501336892E+03   -0.46137E-03   -0.46134E-03  8112   0.356E-02 0.172E-04
CGA:  39    -0.319501865233E+03   -0.52834E-03   -0.53121E-03  8112   0.343E-02-0.853E-04
CGA:  40    -0.319502269865E+03   -0.40463E-03   -0.40428E-03  8112   0.239E-02 0.475E-06
CGA:  41    -0.319502509104E+03   -0.23924E-03   -0.23954E-03  8112   0.174E-02 0.725E-05
CGA:  42    -0.319502772704E+03   -0.26360E-03   -0.26578E-03  8112   0.167E-02-0.625E-04
CGA:  43    -0.319502927867E+03   -0.15516E-03   -0.15444E-03  8112   0.112E-02-0.999E-05
SDA:  44    -0.319503046777E+03   -0.11891E-03   -0.11878E-03  8112   0.986E-03-0.572E-05
CGA:  45    -0.319503208524E+03   -0.16175E-03   -0.16198E-03  8112   0.113E-02-0.512E-05
CGA:  46    -0.319503517620E+03   -0.30910E-03   -0.30877E-03  8112   0.115E-02 0.290E-05
CGA:  47    -0.319503670594E+03   -0.15297E-03   -0.15286E-03  8112   0.342E-03-0.203E-04
CGA:  48    -0.319503731423E+03   -0.60829E-04   -0.61190E-04  8112   0.121E-03-0.780E-05
CGA:  49    -0.319503748242E+03   -0.16819E-04   -0.16823E-04  8112   0.632E-04-0.105E-05
CGA:  50    -0.319503755383E+03   -0.71409E-05   -0.71496E-05  8112   0.302E-04 0.434E-06
   1 F= -.31950376E+03 E0= -.31949934E+03  d E =-.319504E+03  mag=    44.0000
       N       E                     dE             d eps       ncg     rms          ort
SDA:   1    -0.319504564915E+03   -0.81667E-03    0.00000E+00  8112   0.176E-02 0.000E+00
CGA:   2    -0.319504665841E+03   -0.10093E-03   -0.10119E-03  8112   0.140E-03-0.257E-06
CGA:   3    -0.319504683557E+03   -0.17717E-04   -0.17726E-04  8112   0.994E-04 0.153E-05
CGA:   4    -0.319504696668E+03   -0.13110E-04   -0.13111E-04  8112   0.349E-04 0.484E-06
CGA:   5    -0.319504701513E+03   -0.48450E-05   -0.48537E-05  8112   0.135E-04-0.147E-05
   2 F= -.31950470E+03 E0= -.31950028E+03  d E =-.946130E-03  mag=    44.0000
       N       E                     dE             d eps       ncg     rms          ort
SDA:   1    -0.319500598634E+03    0.40980E-02    0.00000E+00  8112   0.744E-01 0.000E+00
CGA:   2    -0.319520065981E+03   -0.19467E-01   -0.19475E-01  8112   0.431E-01-0.587E-04
CGA:   3    -0.319525436972E+03   -0.53710E-02   -0.53736E-02  8112   0.207E-01 0.694E-04
CGA:   4    -0.319527820484E+03   -0.23835E-02   -0.23837E-02  8112   0.547E-02 0.500E-05
CGA:   5    -0.319528479368E+03   -0.65888E-03   -0.65872E-03  8112   0.242E-02-0.339E-05
CGA:   6    -0.319528715941E+03   -0.23657E-03   -0.23670E-03  8112   0.762E-03-0.819E-07
CGA:   7    -0.319528825499E+03   -0.10956E-03   -0.10956E-03  8112   0.305E-03-0.331E-06
CGA:   8    -0.319528862483E+03   -0.36983E-04   -0.36980E-04  8112   0.129E-03-0.231E-06
CGA:   9    -0.319528883565E+03   -0.21082E-04   -0.21070E-04  8112   0.499E-04 0.418E-06
CGA:  10    -0.319528890523E+03   -0.69575E-05   -0.69567E-05  8112   0.373E-04 0.276E-06
   3 F= -.31952889E+03 E0= -.31952448E+03  d E =-.241890E-01  mag=    44.0000
       N       E                     dE             d eps       ncg     rms          ort
SDA:   1    -0.319354629438E+03    0.17425E+00    0.00000E+00  8112   0.630E+00 0.000E+00
CGA:   2    -0.319517138705E+03   -0.16251E+00   -0.16271E+00  8112   0.438E+00-0.156E-02
CGA:   3    -0.319558038607E+03   -0.40900E-01   -0.41336E-01  8112   0.209E+00 0.331E-04
CGA:   4    -0.319583692846E+03   -0.25654E-01   -0.25638E-01  8112   0.476E-01-0.363E-03
CGA:   5    -0.319590366242E+03   -0.66734E-02   -0.66733E-02  8112   0.174E-01 0.311E-04
CGA:   6    -0.319592282875E+03   -0.19166E-02   -0.19157E-02  8112   0.668E-02-0.821E-05
CGA:   7    -0.319593143037E+03   -0.86016E-03   -0.86023E-03  8112   0.283E-02 0.295E-05
CGA:   8    -0.319593448522E+03   -0.30548E-03   -0.30531E-03  8112   0.118E-02-0.149E-05
CGA:   9    -0.319593638678E+03   -0.19016E-03   -0.19010E-03  8112   0.451E-03 0.184E-05
CGA:  10    -0.319593701481E+03   -0.62804E-04   -0.62802E-04  8112   0.328E-03 0.754E-06
CGA:  11    -0.319593744439E+03   -0.42958E-04   -0.42963E-04  8112   0.131E-03 0.829E-06
CGA:  12    -0.319593764647E+03   -0.20207E-04   -0.20205E-04  8112   0.927E-04 0.150E-06
CGA:  13    -0.319593777484E+03   -0.12837E-04   -0.12837E-04  8112   0.414E-04 0.267E-06
CGA:  14    -0.319593783021E+03   -0.55371E-05   -0.55393E-05  8112   0.232E-04 0.606E-06
   4 F= -.31959378E+03 E0= -.31958941E+03  d E =-.648925E-01  mag=    44.0000
       N       E                     dE             d eps       ncg     rms          ort
SDA:   1    -0.319123043699E+03    0.47073E+00    0.00000E+00  8112   0.144E+01 0.000E+00
CGA:   2    -0.319525620141E+03   -0.40258E+00   -0.40263E+00  8112   0.633E+00-0.435E-03
CGA:   3    -0.319635121652E+03   -0.10950E+00   -0.10950E+00  8112   0.232E+00-0.302E-04
CGA:   4    -0.319662075029E+03   -0.26953E-01   -0.26901E-01  8112   0.102E+00-0.420E-03
CGA:   5    -0.319671595479E+03   -0.95205E-02   -0.95454E-02  8112   0.280E-01-0.272E-04
CGA:   6    -0.319675529151E+03   -0.39337E-02   -0.39336E-02  8112   0.119E-01-0.148E-04
CGA:   7    -0.319676816573E+03   -0.12874E-02   -0.12875E-02  8112   0.449E-02 0.350E-06
CGA:   8    -0.319677509624E+03   -0.69305E-03   -0.69314E-03  8112   0.176E-02-0.378E-05
CGA:   9    -0.319677755697E+03   -0.24607E-03   -0.24608E-03  8112   0.105E-02 0.340E-05
CGA:  10    -0.319677888745E+03   -0.13305E-03   -0.13306E-03  8112   0.545E-03 0.101E-05
CGA:  11    -0.319677959027E+03   -0.70282E-04   -0.70288E-04  8112   0.276E-03 0.386E-06
CGA:  12    -0.319678007798E+03   -0.48770E-04   -0.48744E-04  8112   0.143E-03 0.726E-06
CGA:  13    -0.319678026571E+03   -0.18773E-04   -0.18780E-04  8112   0.821E-04 0.606E-06
CGA:  14    -0.319678039069E+03   -0.12498E-04   -0.12488E-04  8112   0.383E-04 0.998E-06
CGA:  15    -0.319678043305E+03   -0.42355E-05   -0.42564E-05  8112   0.189E-04 0.653E-06
   5 F= -.31967804E+03 E0= -.31967373E+03  d E =-.842603E-01  mag=    44.0000
       N       E                     dE             d eps       ncg     rms          ort
SDA:   1    -0.318235338225E+03    0.14427E+01    0.00000E+00  8112   0.403E+01 0.000E+00
CGA:   2    -0.319336484893E+03   -0.11011E+01   -0.11015E+01  8112   0.237E+01-0.147E-02
CGA:   3    -0.319574940611E+03   -0.23846E+00   -0.24199E+00  8112   0.130E+01 0.236E-02
CGA:   4    -0.319721890046E+03   -0.14695E+00   -0.14614E+00  8112   0.270E+00-0.522E-02
CGA:   5    -0.319762381776E+03   -0.40492E-01   -0.40489E-01  8112   0.824E-01 0.218E-03
CGA:   6    -0.319772084109E+03   -0.97023E-02   -0.96966E-02  8112   0.454E-01-0.604E-04
CGA:   7    -0.319776996798E+03   -0.49127E-02   -0.49176E-02  8112   0.127E-01 0.277E-04
CGA:   8    -0.319778884757E+03   -0.18880E-02   -0.18882E-02  8112   0.689E-02-0.146E-04
CGA:   9    -0.319779736815E+03   -0.85206E-03   -0.85254E-03  8112   0.277E-02 0.120E-04
CGA:  10    -0.319780141136E+03   -0.40432E-03   -0.40431E-03  8112   0.187E-02 0.217E-05
CGA:  11    -0.319780369810E+03   -0.22867E-03   -0.22875E-03  8112   0.788E-03 0.266E-05
CGA:  12    -0.319780505877E+03   -0.13607E-03   -0.13603E-03  8112   0.518E-03 0.113E-05
CGA:  13    -0.319780575339E+03   -0.69462E-04   -0.69475E-04  8112   0.251E-03 0.152E-05
CGA:  14    -0.319780607896E+03   -0.32556E-04   -0.32571E-04  8112   0.148E-03 0.134E-05
CGA:  15    -0.319780628444E+03   -0.20548E-04   -0.20551E-04  8112   0.504E-04 0.148E-05
CGA:  16    -0.319780636158E+03   -0.77146E-05   -0.77022E-05  8112   0.303E-04 0.112E-05
   6 F= -.31978064E+03 E0= -.31977641E+03  d E =-.102593E+00  mag=    44.0000
       N       E                     dE             d eps       ncg     rms          ort
SDA:   1    -0.316052534795E+03    0.37281E+01    0.00000E+00  8112   0.969E+01 0.000E+00
CGA:   2    -0.318863352416E+03   -0.28108E+01   -0.28063E+01  8112   0.486E+01 0.353E-01
CGA:   3    -0.319462064485E+03   -0.59871E+00   -0.59933E+00  8112   0.278E+01 0.306E-02
CGA:   4    -0.319726385309E+03   -0.26432E+00   -0.25816E+00  8112   0.668E+00 0.523E-02
CGA:   5    -0.319819284160E+03   -0.92899E-01   -0.92927E-01  8112   0.178E+00 0.307E-02
CGA:   6    -0.319846089117E+03   -0.26805E-01   -0.26818E-01  8112   0.860E-01-0.103E-02
CGA:   7    -0.319854508529E+03   -0.84194E-02   -0.84482E-02  8112   0.347E-01 0.489E-04
CGA:   8    -0.319858971303E+03   -0.44628E-02   -0.44627E-02  8112   0.135E-01-0.156E-05
CGA:   9    -0.319861001676E+03   -0.20304E-02   -0.20299E-02  8112   0.594E-02 0.269E-04
CGA:  10    -0.319861814533E+03   -0.81286E-03   -0.81286E-03  8112   0.411E-02 0.255E-05
CGA:  11    -0.319862329174E+03   -0.51464E-03   -0.51481E-03  8112   0.167E-02 0.642E-05
CGA:  12    -0.319862619976E+03   -0.29080E-03   -0.29068E-03  8112   0.124E-02 0.359E-05
CGA:  13    -0.319862764432E+03   -0.14446E-03   -0.14460E-03  8112   0.518E-03 0.337E-05
CGA:  14    -0.319862848443E+03   -0.84011E-04   -0.83967E-04  8112   0.274E-03 0.214E-05
CGA:  15    -0.319862882321E+03   -0.33878E-04   -0.33921E-04  8112   0.134E-03 0.226E-05
CGA:  16    -0.319862899034E+03   -0.16713E-04   -0.16742E-04  8112   0.553E-04 0.172E-05
CGA:  17    -0.319862907080E+03   -0.80462E-05   -0.80432E-05  8112   0.282E-04 0.790E-06
   7 F= -.31986291E+03 E0= -.31985872E+03  d E =-.822709E-01  mag=    44.0000
       N       E                     dE             d eps       ncg     rms          ort
SDA:   1    -0.314454816169E+03    0.54081E+01    0.00000E+00  8112   0.132E+02 0.000E+00
CGA:   2    -0.318526537007E+03   -0.40717E+01   -0.40777E+01  8112   0.802E+01-0.348E-01
CGA:   3    -0.319338437833E+03   -0.81190E+00   -0.82682E+00  8112   0.347E+01 0.511E-01
CGA:   4    -0.319707518383E+03   -0.36908E+00   -0.36111E+00  8112   0.104E+01-0.122E-01
CGA:   5    -0.319825738840E+03   -0.11822E+00   -0.11873E+00  8112   0.322E+00 0.409E-02
CGA:   6    -0.319867277283E+03   -0.41538E-01   -0.41494E-01  8112   0.138E+00-0.116E-02
CGA:   7    -0.319882772479E+03   -0.15495E-01   -0.15515E-01  8112   0.503E-01 0.186E-03
CGA:   8    -0.319889268656E+03   -0.64962E-02   -0.64962E-02  8112   0.223E-01-0.520E-05
CGA:   9    -0.319891738987E+03   -0.24703E-02   -0.24748E-02  8112   0.105E-01 0.372E-04
CGA:  10    -0.319893206179E+03   -0.14672E-02   -0.14672E-02  8112   0.441E-02 0.288E-05
CGA:  11    -0.319893885793E+03   -0.67961E-03   -0.67911E-03  8112   0.284E-02 0.223E-04
CGA:  12    -0.319894255562E+03   -0.36977E-03   -0.36981E-03  8112   0.160E-02 0.513E-05
CGA:  13    -0.319894478627E+03   -0.22306E-03   -0.22306E-03  8112   0.883E-03 0.649E-05
CGA:  14    -0.319894594685E+03   -0.11606E-03   -0.11609E-03  8112   0.416E-03 0.322E-05
CGA:  15    -0.319894658750E+03   -0.64065E-04   -0.64019E-04  8112   0.183E-03 0.299E-05
CGA:  16    -0.319894680226E+03   -0.21476E-04   -0.21518E-04  8112   0.983E-04 0.191E-05
CGA:  17    -0.319894692483E+03   -0.12258E-04   -0.12278E-04  8112   0.338E-04 0.135E-05
CGA:  18    -0.319894697502E+03   -0.50186E-05   -0.50150E-05  8112   0.169E-04 0.370E-06
   8 F= -.31989470E+03 E0= -.31989040E+03  d E =-.317904E-01  mag=    44.0000
       N       E                     dE             d eps       ncg     rms          ort
SDA:   1    -0.309855896289E+03    0.10039E+02    0.00000E+00  8112   0.241E+02 0.000E+00
CGA:   2    -0.317492482938E+03   -0.76366E+01   -0.76626E+01  8112   0.139E+02-0.147E+00
CGA:   3    -0.319030144587E+03   -0.15377E+01   -0.15676E+01  8112   0.476E+01 0.419E+00
CGA:   4    -0.319622289994E+03   -0.59215E+00   -0.58832E+00  8112   0.145E+01-0.289E-01
CGA:   5    -0.319787553632E+03   -0.16526E+00   -0.16576E+00  8112   0.541E+00 0.520E-02
CGA:   6    -0.319849332336E+03   -0.61779E-01   -0.61567E-01  8112   0.267E+00-0.197E-02
CGA:   7    -0.319875676080E+03   -0.26344E-01   -0.26428E-01  8112   0.821E-01 0.195E-03
CGA:   8    -0.319888258445E+03   -0.12582E-01   -0.12583E-01  8112   0.272E-01-0.342E-04
CGA:   9    -0.319892512377E+03   -0.42539E-02   -0.42516E-02  8112   0.148E-01 0.800E-04
CGA:  10    -0.319894449767E+03   -0.19374E-02   -0.19380E-02  8112   0.688E-02 0.329E-04
CGA:  11    -0.319895485616E+03   -0.10358E-02   -0.10355E-02  8112   0.484E-02 0.226E-04
CGA:  12    -0.319896031122E+03   -0.54551E-03   -0.54566E-03  8112   0.255E-02 0.834E-05
CGA:  13    -0.319896409991E+03   -0.37887E-03   -0.37866E-03  8112   0.112E-02 0.162E-04
CGA:  14    -0.319896602081E+03   -0.19209E-03   -0.19192E-03  8112   0.559E-03 0.519E-05
CGA:  15    -0.319896674684E+03   -0.72603E-04   -0.72662E-04  8112   0.254E-03 0.457E-05
CGA:  16    -0.319896707484E+03   -0.32800E-04   -0.32833E-04  8112   0.123E-03 0.284E-05
CGA:  17    -0.319896720377E+03   -0.12893E-04   -0.12932E-04  8112   0.504E-04 0.104E-05
CGA:  18    -0.319896727523E+03   -0.71459E-05   -0.71444E-05  8112   0.191E-04 0.528E-06
   9 F= -.31989673E+03 E0= -.31989228E+03  d E =-.203002E-02  mag=    44.0000
       N       E                     dE             d eps       ncg     rms          ort
SDA:   1    -0.318327215524E+03    0.15695E+01    0.00000E+00  8112   0.393E+01 0.000E+00
CGA:   2    -0.319450384306E+03   -0.11232E+01   -0.11264E+01  8112   0.296E+01-0.255E-01
CGA:   3    -0.319743027051E+03   -0.29264E+00   -0.29067E+00  8112   0.944E+00 0.266E-01
CGA:   4    -0.319864910407E+03   -0.12188E+00   -0.12195E+00  8112   0.338E+00 0.142E-02
CGA:   5    -0.319896097049E+03   -0.31187E-01   -0.31056E-01  8112   0.122E+00 0.802E-04
CGA:   6    -0.319910742668E+03   -0.14646E-01   -0.14658E-01  8112   0.392E-01 0.234E-03
CGA:   7    -0.319916025415E+03   -0.52827E-02   -0.52819E-02  8112   0.140E-01-0.660E-04
CGA:   8    -0.319917956317E+03   -0.19309E-02   -0.19310E-02  8112   0.593E-02 0.174E-04
CGA:   9    -0.319918636067E+03   -0.67975E-03   -0.67943E-03  8112   0.312E-02-0.458E-05
CGA:  10    -0.319919009267E+03   -0.37320E-03   -0.37326E-03  8112   0.137E-02 0.208E-05
CGA:  11    -0.319919210973E+03   -0.20171E-03   -0.20166E-03  8112   0.668E-03 0.383E-05
CGA:  12    -0.319919322351E+03   -0.11138E-03   -0.11132E-03  8112   0.402E-03 0.183E-05
CGA:  13    -0.319919375597E+03   -0.53247E-04   -0.53254E-04  8112   0.254E-03 0.991E-06
CGA:  14    -0.319919406025E+03   -0.30427E-04   -0.30442E-04  8112   0.114E-03 0.641E-06
CGA:  15    -0.319919422884E+03   -0.16860E-04   -0.16856E-04  8112   0.539E-04 0.453E-06
CGA:  16    -0.319919429685E+03   -0.68008E-05   -0.68055E-05  8112   0.212E-04 0.367E-06
  10 F= -.31991943E+03 E0= -.31991497E+03  d E =-.227022E-01  mag=    44.0000
       N       E                     dE             d eps       ncg     rms          ort
SDA:   1    -0.311020340561E+03    0.88991E+01    0.00000E+00  8112   0.222E+02 0.000E+00
CGA:   2    -0.317443497723E+03   -0.64232E+01   -0.64840E+01  8112   0.157E+02-0.430E+00
CGA:   3    -0.318984177813E+03   -0.15407E+01   -0.15529E+01  8112   0.494E+01 0.520E+00
CGA:   4    -0.319683112025E+03   -0.69893E+00   -0.69932E+00  8112   0.137E+01 0.275E-01
CGA:   5    -0.319848801466E+03   -0.16569E+00   -0.16507E+00  8112   0.618E+00-0.846E-02
CGA:   6    -0.319908125669E+03   -0.59324E-01   -0.59482E-01  8112   0.233E+00-0.336E-03
CGA:   7    -0.319935453466E+03   -0.27328E-01   -0.27290E-01  8112   0.815E-01-0.435E-03
CGA:   8    -0.319946737682E+03   -0.11284E-01   -0.11284E-01  8112   0.309E-01 0.272E-03
CGA:   9    -0.319951088908E+03   -0.43512E-02   -0.43514E-02  8112   0.150E-01-0.403E-04
CGA:  10    -0.319953075365E+03   -0.19865E-02   -0.19873E-02  8112   0.807E-02 0.689E-04
CGA:  11    -0.319954025047E+03   -0.94968E-03   -0.95026E-03  8112   0.464E-02 0.169E-04
CGA:  12    -0.319954702016E+03   -0.67697E-03   -0.67669E-03  8112   0.213E-02 0.229E-04
CGA:  13    -0.319955062770E+03   -0.36075E-03   -0.36042E-03  8112   0.119E-02 0.934E-05
CGA:  14    -0.319955223820E+03   -0.16105E-03   -0.16108E-03  8112   0.678E-03 0.455E-05
CGA:  15    -0.319955305033E+03   -0.81213E-04   -0.81276E-04  8112   0.316E-03 0.292E-05
CGA:  16    -0.319955343232E+03   -0.38199E-04   -0.38246E-04  8112   0.128E-03 0.247E-05
CGA:  17    -0.319955362254E+03   -0.19022E-04   -0.19006E-04  8112   0.456E-04 0.160E-05
CGA:  18    -0.319955368719E+03   -0.64646E-05   -0.64631E-05  8112   0.278E-04 0.577E-06
  11 F= -.31995537E+03 E0= -.31995086E+03  d E =-.359390E-01  mag=    44.0000
       N       E                     dE             d eps       ncg     rms          ort
SDA:   1    -0.318219322613E+03    0.17360E+01    0.00000E+00  8112   0.430E+01 0.000E+00
CGA:   2    -0.319422280519E+03   -0.12030E+01   -0.12108E+01  8112   0.371E+01-0.598E-01
CGA:   3    -0.319761384294E+03   -0.33910E+00   -0.34402E+00  8112   0.107E+01 0.384E-01
CGA:   4    -0.319894287946E+03   -0.13290E+00   -0.13253E+00  8112   0.461E+00-0.687E-02
CGA:   5    -0.319934945860E+03   -0.40658E-01   -0.41036E-01  8112   0.125E+00-0.793E-03
CGA:   6    -0.319951993069E+03   -0.17047E-01   -0.17047E-01  8112   0.426E-01-0.192E-03
CGA:   7    -0.319957875967E+03   -0.58829E-02   -0.58828E-02  8112   0.144E-01 0.984E-04
CGA:   8    -0.319959886800E+03   -0.20108E-02   -0.20108E-02  8112   0.684E-02-0.389E-05
CGA:   9    -0.319960618827E+03   -0.73203E-03   -0.73225E-03  8112   0.313E-02-0.126E-05
CGA:  10    -0.319961011347E+03   -0.39252E-03   -0.39248E-03  8112   0.149E-02-0.630E-06
CGA:  11    -0.319961232259E+03   -0.22091E-03   -0.22082E-03  8112   0.637E-03 0.594E-05
CGA:  12    -0.319961345540E+03   -0.11328E-03   -0.11321E-03  8112   0.429E-03 0.157E-05
CGA:  13    -0.319961401277E+03   -0.55737E-04   -0.55749E-04  8112   0.245E-03 0.899E-06
CGA:  14    -0.319961430906E+03   -0.29629E-04   -0.29640E-04  8112   0.123E-03 0.660E-06
CGA:  15    -0.319961448704E+03   -0.17798E-04   -0.17791E-04  8112   0.527E-04 0.896E-06
CGA:  16    -0.319961455751E+03   -0.70465E-05   -0.70500E-05  8112   0.198E-04 0.759E-06
  12 F= -.31996146E+03 E0= -.31995694E+03  d E =-.608703E-02  mag=    44.0000
       N       E                     dE             d eps       ncg     rms          ort
SDA:   1    -0.319206681049E+03    0.75477E+00    0.00000E+00  8112   0.192E+01 0.000E+00
CGA:   2    -0.319713597188E+03   -0.50692E+00   -0.50856E+00  8112   0.166E+01-0.146E-01
CGA:   3    -0.319879541758E+03   -0.16594E+00   -0.16522E+00  8112   0.430E+00 0.935E-02
CGA:   4    -0.319940994367E+03   -0.61453E-01   -0.61454E-01  8112   0.154E+00 0.161E-02
CGA:   5    -0.319955341635E+03   -0.14347E-01   -0.14286E-01  8112   0.585E-01 0.357E-04
CGA:   6    -0.319961979866E+03   -0.66382E-02   -0.66463E-02  8112   0.181E-01 0.994E-04
CGA:   7    -0.319964633386E+03   -0.26535E-02   -0.26538E-02  8112   0.554E-02-0.163E-04
CGA:   8    -0.319965467375E+03   -0.83399E-03   -0.83391E-03  8112   0.261E-02 0.268E-05
CGA:   9    -0.319965775286E+03   -0.30791E-03   -0.30777E-03  8112   0.120E-02-0.289E-05
CGA:  10    -0.319965917813E+03   -0.14253E-03   -0.14256E-03  8112   0.657E-03 0.118E-05
CGA:  11    -0.319966011293E+03   -0.93480E-04   -0.93471E-04  8112   0.255E-03 0.174E-05
CGA:  12    -0.319966058832E+03   -0.47540E-04   -0.47518E-04  8112   0.175E-03 0.408E-06
CGA:  13    -0.319966082834E+03   -0.24002E-04   -0.24003E-04  8112   0.937E-04 0.375E-06
CGA:  14    -0.319966094453E+03   -0.11619E-04   -0.11624E-04  8112   0.510E-04 0.248E-06
CGA:  15    -0.319966101223E+03   -0.67698E-05   -0.67712E-05  8112   0.226E-04 0.209E-06
  13 F= -.31996610E+03 E0= -.31996160E+03  d E =-.464547E-02  mag=    44.0000
       N       E                     dE             d eps       ncg     rms          ort
SDA:   1    -0.316265641256E+03    0.37005E+01    0.00000E+00  8112   0.946E+01 0.000E+00
CGA:   2    -0.318731139291E+03   -0.24655E+01   -0.24994E+01  8112   0.880E+01-0.284E+00
CGA:   3    -0.319541184936E+03   -0.81005E+00   -0.81656E+00  8112   0.200E+01 0.220E+00
CGA:   4    -0.319869521863E+03   -0.32834E+00   -0.32851E+00  8112   0.518E+00-0.600E-02
CGA:   5    -0.319944319539E+03   -0.74798E-01   -0.74797E-01  8112   0.152E+00 0.337E-03
CGA:   6    -0.319964695709E+03   -0.20376E-01   -0.20371E-01  8112   0.870E-01-0.200E-03
CGA:   7    -0.319972287483E+03   -0.75918E-02   -0.76467E-02  8112   0.242E-01-0.121E-03
CGA:   8    -0.319976440770E+03   -0.41533E-02   -0.41547E-02  8112   0.778E-02-0.355E-04
CGA:   9    -0.319977686418E+03   -0.12456E-02   -0.12453E-02  8112   0.446E-02 0.124E-04
CGA:  10    -0.319978274585E+03   -0.58817E-03   -0.58829E-03  8112   0.223E-02 0.876E-05
CGA:  11    -0.319978558053E+03   -0.28347E-03   -0.28365E-03  8112   0.138E-02 0.665E-05
CGA:  12    -0.319978762158E+03   -0.20411E-03   -0.20410E-03  8112   0.685E-03 0.120E-05
CGA:  13    -0.319978868861E+03   -0.10670E-03   -0.10666E-03  8112   0.326E-03 0.257E-05
CGA:  14    -0.319978919641E+03   -0.50780E-04   -0.50756E-04  8112   0.190E-03 0.168E-05
CGA:  15    -0.319978942330E+03   -0.22688E-04   -0.22722E-04  8112   0.750E-04 0.138E-05
CGA:  16    -0.319978951585E+03   -0.92554E-05   -0.92730E-05  8112   0.381E-04 0.921E-06
  14 F= -.31997895E+03 E0= -.31997452E+03  d E =-.128504E-01  mag=    44.0000
       N       E                     dE             d eps       ncg     rms          ort
SDA:   1    -0.310145314767E+03    0.98336E+01    0.00000E+00  8112   0.253E+02 0.000E+00
CGA:   2    -0.316456542486E+03   -0.63112E+01   -0.64657E+01  8112   0.279E+02-0.132E+01
CGA:   3    -0.318756306433E+03   -0.22998E+01   -0.22639E+01  8112   0.524E+01 0.164E+01
CGA:   4    -0.319662273231E+03   -0.90597E+00   -0.90488E+00  8112   0.188E+01 0.338E-01
CGA:   5    -0.319857772495E+03   -0.19550E+00   -0.19723E+00  8112   0.752E+00 0.628E-02
CGA:   6    -0.319939631228E+03   -0.81859E-01   -0.81782E-01  8112   0.243E+00-0.744E-04
CGA:   7    -0.319975738772E+03   -0.36108E-01   -0.36090E-01  8112   0.731E-01 0.125E-02
CGA:   8    -0.319985848885E+03   -0.10110E-01   -0.10112E-01  8112   0.414E-01 0.307E-03
CGA:   9    -0.319990688760E+03   -0.48399E-02   -0.48446E-02  8112   0.136E-01 0.492E-04
CGA:  10    -0.319993031022E+03   -0.23423E-02   -0.23387E-02  8112   0.795E-02 0.811E-04
CGA:  11    -0.319994094495E+03   -0.10635E-02   -0.10637E-02  8112   0.420E-02 0.194E-04
CGA:  12    -0.319994700224E+03   -0.60573E-03   -0.60564E-03  8112   0.289E-02 0.196E-04
CGA:  13    -0.319995100876E+03   -0.40065E-03   -0.40070E-03  8112   0.126E-02 0.842E-05
CGA:  14    -0.319995289066E+03   -0.18819E-03   -0.18816E-03  8112   0.649E-03 0.335E-05
CGA:  15    -0.319995384317E+03   -0.95251E-04   -0.95218E-04  8112   0.310E-03 0.582E-05
CGA:  16    -0.319995423524E+03   -0.39207E-04   -0.39274E-04  8112   0.961E-04 0.362E-05
CGA:  17    -0.319995441123E+03   -0.17599E-04   -0.17532E-04  8112   0.613E-04 0.167E-05
CGA:  18    -0.319995447413E+03   -0.62897E-05   -0.63175E-05  8112   0.226E-04 0.619E-06
  15 F= -.31999545E+03 E0= -.31999115E+03  d E =-.164958E-01  mag=    44.0000
       N       E                     dE             d eps       ncg     rms          ort
SDA:   1    -0.317586249401E+03    0.24092E+01    0.00000E+00  8112   0.634E+01 0.000E+00
CGA:   2    -0.319136644007E+03   -0.15504E+01   -0.15534E+01  8112   0.455E+01-0.267E-01
CGA:   3    -0.319685610600E+03   -0.54897E+00   -0.54887E+00  8112   0.171E+01 0.304E-02
CGA:   4    -0.319905611365E+03   -0.22000E+00   -0.22021E+00  8112   0.461E+00 0.495E-02
CGA:   5    -0.319958495469E+03   -0.52884E-01   -0.52674E-01  8112   0.206E+00-0.136E-02
CGA:   6    -0.319979764205E+03   -0.21269E-01   -0.21380E-01  8112   0.614E-01 0.413E-03
CGA:   7    -0.319988749797E+03   -0.89856E-02   -0.89858E-02  8112   0.214E-01-0.288E-04
CGA:   8    -0.319991810532E+03   -0.30607E-02   -0.30607E-02  8112   0.888E-02 0.510E-05
CGA:   9    -0.319993095612E+03   -0.12851E-02   -0.12850E-02  8112   0.409E-02 0.701E-05
CGA:  10    -0.319993608036E+03   -0.51242E-03   -0.51266E-03  8112   0.232E-02 0.701E-05
CGA:  11    -0.319993925845E+03   -0.31781E-03   -0.31783E-03  8112   0.104E-02 0.416E-05
CGA:  12    -0.319994097325E+03   -0.17148E-03   -0.17139E-03  8112   0.546E-03 0.309E-05
CGA:  13    -0.319994187971E+03   -0.90645E-04   -0.90598E-04  8112   0.306E-03 0.189E-05
CGA:  14    -0.319994229874E+03   -0.41904E-04   -0.41910E-04  8112   0.163E-03 0.815E-06
CGA:  15    -0.319994251292E+03   -0.21418E-04   -0.21424E-04  8112   0.792E-04 0.467E-06
CGA:  16    -0.319994261936E+03   -0.10644E-04   -0.10648E-04  8112   0.306E-04 0.437E-06
CGA:  17    -0.319994266774E+03   -0.48376E-05   -0.48338E-05  8112   0.127E-04 0.238E-06
  16 F= -.31999427E+03 E0= -.31999003E+03  d E =0.118064E-02  mag=    44.0000
       N       E                     dE             d eps       ncg     rms          ort
SDA:   1    -0.318197582507E+03    0.17967E+01    0.00000E+00  8112   0.475E+01 0.000E+00
CGA:   2    -0.319356576548E+03   -0.11590E+01   -0.11598E+01  8112   0.388E+01-0.139E-01
CGA:   3    -0.319780615937E+03   -0.42404E+00   -0.42737E+00  8112   0.114E+01 0.339E-01
CGA:   4    -0.319953528196E+03   -0.17291E+00   -0.17294E+00  8112   0.252E+00-0.369E-02
CGA:   5    -0.319993278229E+03   -0.39750E-01   -0.39747E-01  8112   0.705E-01 0.161E-03
CGA:   6    -0.320004575272E+03   -0.11297E-01   -0.11300E-01  8112   0.253E-01-0.127E-03
CGA:   7    -0.320007773727E+03   -0.31985E-02   -0.32014E-02  8112   0.119E-01 0.465E-04
CGA:   8    -0.320009221456E+03   -0.14477E-02   -0.14481E-02  8112   0.491E-02 0.621E-05
CGA:   9    -0.320009810949E+03   -0.58949E-03   -0.58969E-03  8112   0.247E-02 0.389E-05
CGA:  10    -0.320010169736E+03   -0.35879E-03   -0.35878E-03  8112   0.100E-02 0.227E-05
CGA:  11    -0.320010352258E+03   -0.18252E-03   -0.18231E-03  8112   0.524E-03 0.496E-05
CGA:  12    -0.320010441632E+03   -0.89374E-04   -0.89355E-04  8112   0.317E-03 0.101E-05
CGA:  13    -0.320010483078E+03   -0.41446E-04   -0.41473E-04  8112   0.180E-03 0.140E-05
CGA:  14    -0.320010505698E+03   -0.22619E-04   -0.22646E-04  8112   0.790E-04 0.128E-05
CGA:  15    -0.320010517082E+03   -0.11384E-04   -0.11386E-04  8112   0.307E-04 0.852E-06
CGA:  16    -0.320010521896E+03   -0.48145E-05   -0.48097E-05  8112   0.118E-04 0.500E-06
  17 F= -.32001052E+03 E0= -.32000624E+03  d E =-.162551E-01  mag=    44.0000
       N       E                     dE             d eps       ncg     rms          ort
SDA:   1    -0.319686605472E+03    0.32391E+00    0.00000E+00  8112   0.872E+00 0.000E+00
CGA:   2    -0.319870515822E+03   -0.18391E+00   -0.18397E+00  8112   0.953E+00-0.993E-03
CGA:   3    -0.319968379328E+03   -0.97864E-01   -0.97484E-01  8112   0.232E+00 0.299E-03
CGA:   4    -0.319997063400E+03   -0.28684E-01   -0.28715E-01  8112   0.105E+00 0.430E-03
CGA:   5    -0.320007629984E+03   -0.10567E-01   -0.10525E-01  8112   0.224E-01-0.255E-04
CGA:   6    -0.320011061273E+03   -0.34313E-02   -0.34304E-02  8112   0.726E-02 0.575E-04
CGA:   7    -0.320012165733E+03   -0.11045E-02   -0.11045E-02  8112   0.296E-02-0.571E-05
CGA:   8    -0.320012480535E+03   -0.31480E-03   -0.31492E-03  8112   0.145E-02-0.195E-05
CGA:   9    -0.320012668060E+03   -0.18753E-03   -0.18749E-03  8112   0.422E-03-0.244E-05
CGA:  10    -0.320012740117E+03   -0.72058E-04   -0.72011E-04  8112   0.263E-03 0.151E-05
CGA:  11    -0.320012775254E+03   -0.35137E-04   -0.35147E-04  8112   0.111E-03 0.962E-06
CGA:  12    -0.320012793931E+03   -0.18677E-04   -0.18688E-04  8112   0.891E-04-0.495E-06
CGA:  13    -0.320012804643E+03   -0.10712E-04   -0.10703E-04  8112   0.376E-04-0.398E-06
CGA:  14    -0.320012810487E+03   -0.58438E-05   -0.58404E-05  8112   0.188E-04 0.250E-06
  18 F= -.32001281E+03 E0= -.32000855E+03  d E =-.228859E-02  mag=    44.0000
       N       E                     dE             d eps       ncg     rms          ort
SDA:   1    -0.306751736509E+03    0.13261E+02    0.00000E+00  8112   0.346E+02 0.000E+00
CGA:   2    -0.314374065710E+03   -0.76223E+01   -0.77643E+01  8112   0.436E+02-0.155E+01
CGA:   3    -0.318218765467E+03   -0.38447E+01   -0.37952E+01  8112   0.899E+01-0.947E+00
CGA:   4    -0.319441149022E+03   -0.12224E+01   -0.12236E+01  8112   0.381E+01 0.904E-01
CGA:   5    -0.319791697125E+03   -0.35055E+00   -0.33063E+00  8112   0.103E+01 0.978E-01
CGA:   6    -0.319929686489E+03   -0.13799E+00   -0.13818E+00  8112   0.422E+00 0.756E-02
CGA:   7    -0.319979589993E+03   -0.49904E-01   -0.49968E-01  8112   0.186E+00 0.913E-03
CGA:   8    -0.319998498509E+03   -0.18909E-01   -0.19292E-01  8112   0.845E-01 0.162E-02
CGA:   9    -0.320008447312E+03   -0.99488E-02   -0.99622E-02  8112   0.304E-01 0.185E-03
CGA:  10    -0.320012825775E+03   -0.43785E-02   -0.43741E-02  8112   0.151E-01 0.379E-03
CGA:  11    -0.320014947910E+03   -0.21221E-02   -0.21221E-02  8112   0.940E-02 0.355E-04
CGA:  12    -0.320016042512E+03   -0.10946E-02   -0.10982E-02  8112   0.437E-02 0.650E-04
CGA:  13    -0.320016850543E+03   -0.80803E-03   -0.80679E-03  8112   0.259E-02 0.230E-04
CGA:  14    -0.320017187105E+03   -0.33656E-03   -0.33716E-03  8112   0.129E-02 0.300E-04
CGA:  15    -0.320017388133E+03   -0.20103E-03   -0.20089E-03  8112   0.639E-03 0.791E-05
CGA:  16    -0.320017467651E+03   -0.79518E-04   -0.79632E-04  8112   0.293E-03 0.577E-05
CGA:  17    -0.320017502461E+03   -0.34810E-04   -0.34882E-04  8112   0.115E-03 0.320E-05
CGA:  18    -0.320017521730E+03   -0.19269E-04   -0.19213E-04  8112   0.374E-04 0.197E-05
CGA:  19    -0.320017527411E+03   -0.56814E-05   -0.56749E-05  8112   0.259E-04 0.623E-06
  19 F= -.32001753E+03 E0= -.32001339E+03  d E =-.471692E-02  mag=    44.0000
       N       E                     dE             d eps       ncg     rms          ort
SDA:   1    -0.313575696542E+03    0.64418E+01    0.00000E+00  8112   0.178E+02 0.000E+00
CGA:   2    -0.317480740691E+03   -0.39050E+01   -0.38794E+01  8112   0.108E+02 0.263E+00
CGA:   3    -0.318968613684E+03   -0.14879E+01   -0.14823E+01  8112   0.611E+01-0.375E+00
CGA:   4    -0.319558469773E+03   -0.58986E+00   -0.59133E+00  8112   0.186E+01-0.121E-01
CGA:   5    -0.319767311590E+03   -0.20884E+00   -0.20831E+00  8112   0.557E+00-0.389E-02
CGA:   6    -0.319848810852E+03   -0.81499E-01   -0.81496E-01  8112   0.170E+00 0.302E-03
CGA:   7    -0.319871464416E+03   -0.22654E-01   -0.22653E-01  8112   0.901E-01 0.313E-06
CGA:   8    -0.319880433223E+03   -0.89688E-02   -0.90093E-02  8112   0.342E-01 0.128E-03
CGA:   9    -0.319885442712E+03   -0.50095E-02   -0.50101E-02  8112   0.145E-01-0.271E-04
CGA:  10    -0.319887446423E+03   -0.20037E-02   -0.20035E-02  8112   0.698E-02 0.733E-04
CGA:  11    -0.319888472592E+03   -0.10262E-02   -0.10261E-02  8112   0.405E-02 0.115E-04
CGA:  12    -0.319888980808E+03   -0.50822E-03   -0.50837E-03  8112   0.204E-02 0.662E-05
CGA:  13    -0.319889255224E+03   -0.27442E-03   -0.27442E-03  8112   0.112E-02 0.175E-05
CGA:  14    -0.319889427687E+03   -0.17246E-03   -0.17240E-03  8112   0.467E-03 0.262E-05
CGA:  15    -0.319889502234E+03   -0.74547E-04   -0.74480E-04  8112   0.283E-03 0.304E-05
CGA:  16    -0.319889534278E+03   -0.32044E-04   -0.32096E-04  8112   0.132E-03 0.174E-05
CGA:  17    -0.319889551757E+03   -0.17479E-04   -0.17485E-04  8112   0.488E-04 0.940E-06
CGA:  18    -0.319889560026E+03   -0.82685E-05   -0.82586E-05  8112   0.250E-04 0.310E-06
  20 F= -.31988956E+03 E0= -.31988528E+03  d E =0.127967E+00  mag=    44.0000
       N       E                     dE             d eps       ncg     rms          ort
SDA:   1    -0.318905043296E+03    0.98451E+00    0.00000E+00  8112   0.321E+01 0.000E+00
CGA:   2    -0.319561336432E+03   -0.65629E+00   -0.65623E+00  8112   0.175E+01 0.112E-02
CGA:   3    -0.319856190622E+03   -0.29485E+00   -0.29509E+00  8112   0.849E+00-0.594E-02
CGA:   4    -0.319943706414E+03   -0.87516E-01   -0.88466E-01  8112   0.331E+00 0.342E-02
CGA:   5    -0.319978717881E+03   -0.35011E-01   -0.34868E-01  8112   0.968E-01-0.544E-03
CGA:   6    -0.319991269387E+03   -0.12552E-01   -0.12552E-01  8112   0.407E-01 0.188E-04
CGA:   7    -0.319996258387E+03   -0.49890E-02   -0.49889E-02  8112   0.117E-01 0.137E-05
CGA:   8    -0.319998176832E+03   -0.19184E-02   -0.19179E-02  8112   0.607E-02 0.174E-04
CGA:   9    -0.319998809330E+03   -0.63250E-03   -0.63206E-03  8112   0.279E-02-0.204E-06
CGA:  10    -0.319999198314E+03   -0.38898E-03   -0.38898E-03  8112   0.121E-02 0.563E-06
CGA:  11    -0.319999389074E+03   -0.19076E-03   -0.19080E-03  8112   0.553E-03-0.180E-05
CGA:  12    -0.319999471483E+03   -0.82409E-04   -0.82382E-04  8112   0.342E-03 0.253E-05
CGA:  13    -0.319999512867E+03   -0.41384E-04   -0.41423E-04  8112   0.159E-03 0.214E-05
CGA:  14    -0.319999535672E+03   -0.22805E-04   -0.22802E-04  8112   0.899E-04 0.575E-06
CGA:  15    -0.319999549391E+03   -0.13719E-04   -0.13727E-04  8112   0.347E-04-0.601E-06
CGA:  16    -0.319999554779E+03   -0.53878E-05   -0.54006E-05  8112   0.237E-04-0.719E-06
  21 F= -.31999955E+03 E0= -.31999529E+03  d E =-.109995E+00  mag=    44.0000
       N       E                     dE             d eps       ncg     rms          ort
SDA:   1    -0.319767932184E+03    0.23162E+00    0.00000E+00  8112   0.739E+00 0.000E+00
CGA:   2    -0.319921065282E+03   -0.15313E+00   -0.15313E+00  8112   0.380E+00 0.438E-04
CGA:   3    -0.319989918446E+03   -0.68853E-01   -0.68867E-01  8112   0.161E+00-0.259E-03
CGA:   4    -0.320009852668E+03   -0.19934E-01   -0.19960E-01  8112   0.610E-01 0.463E-03
CGA:   5    -0.320016130490E+03   -0.62778E-02   -0.62544E-02  8112   0.214E-01-0.571E-04
CGA:   6    -0.320018717309E+03   -0.25868E-02   -0.25872E-02  8112   0.890E-02 0.289E-05
CGA:   7    -0.320019716743E+03   -0.99943E-03   -0.99938E-03  8112   0.264E-02 0.183E-05
CGA:   8    -0.320020184230E+03   -0.46749E-03   -0.46730E-03  8112   0.940E-03 0.475E-05
CGA:   9    -0.320020319224E+03   -0.13499E-03   -0.13500E-03  8112   0.621E-03-0.851E-06
CGA:  10    -0.320020388748E+03   -0.69524E-04   -0.69491E-04  8112   0.252E-03-0.139E-05
CGA:  11    -0.320020425419E+03   -0.36670E-04   -0.36673E-04  8112   0.128E-03-0.354E-06
CGA:  12    -0.320020444594E+03   -0.19175E-04   -0.19163E-04  8112   0.561E-04 0.115E-05
CGA:  13    -0.320020453233E+03   -0.86398E-05   -0.86312E-05  8112   0.338E-04 0.705E-06
  22 F= -.32002045E+03 E0= -.32001620E+03  d E =-.208985E-01  mag=    44.0000
       N       E                     dE             d eps       ncg     rms          ort
SDA:   1    -0.319916649452E+03    0.10380E+00    0.00000E+00  8112   0.335E+00 0.000E+00
CGA:   2    -0.319974878518E+03   -0.58229E-01   -0.58218E-01  8112   0.258E+00 0.229E-03
CGA:   3    -0.320001024300E+03   -0.26146E-01   -0.26043E-01  8112   0.121E+00-0.238E-03
CGA:   4    -0.320018168571E+03   -0.17144E-01   -0.17144E-01  8112   0.314E-01 0.182E-03
CGA:   5    -0.320022796476E+03   -0.46279E-02   -0.46283E-02  8112   0.108E-01-0.327E-04
CGA:   6    -0.320024026153E+03   -0.12297E-02   -0.12301E-02  8112   0.497E-02 0.225E-06
CGA:   7    -0.320024591654E+03   -0.56550E-03   -0.56551E-03  8112   0.159E-02-0.277E-06
CGA:   8    -0.320024795716E+03   -0.20406E-03   -0.20409E-03  8112   0.771E-03 0.254E-05
CGA:   9    -0.320024898725E+03   -0.10301E-03   -0.10301E-03  8112   0.264E-03 0.523E-06
CGA:  10    -0.320024939997E+03   -0.41271E-04   -0.41280E-04  8112   0.161E-03-0.550E-06
CGA:  11    -0.320024958555E+03   -0.18558E-04   -0.18548E-04  8112   0.752E-04-0.427E-06
CGA:  12    -0.320024969260E+03   -0.10705E-04   -0.10704E-04  8112   0.343E-04 0.128E-06
CGA:  13    -0.320024974654E+03   -0.53949E-05   -0.53834E-05  8112   0.173E-04 0.594E-06
  23 F= -.32002497E+03 E0= -.32002073E+03  d E =-.452142E-02  mag=    44.0000
       N       E                     dE             d eps       ncg     rms          ort
SDA:   1    -0.320016777391E+03    0.81919E-02    0.00000E+00  8112   0.310E-01 0.000E+00
CGA:   2    -0.320020951399E+03   -0.41740E-02   -0.41743E-02  8112   0.321E-01 0.356E-04
CGA:   3    -0.320024709075E+03   -0.37577E-02   -0.37560E-02  8112   0.740E-02-0.252E-04
CGA:   4    -0.320025999416E+03   -0.12903E-02   -0.12903E-02  8112   0.229E-02 0.475E-06
CGA:   5    -0.320026287637E+03   -0.28822E-03   -0.28814E-03  8112   0.824E-03-0.445E-05
CGA:   6    -0.320026382449E+03   -0.94812E-04   -0.94749E-04  8112   0.312E-03-0.300E-05
CGA:   7    -0.320026417626E+03   -0.35177E-04   -0.35157E-04  8112   0.138E-03-0.825E-06
CGA:   8    -0.320026434303E+03   -0.16678E-04   -0.16683E-04  8112   0.444E-04 0.289E-06
CGA:   9    -0.320026441458E+03   -0.71544E-05   -0.71468E-05  8112   0.216E-04 0.303E-06
  24 F= -.32002644E+03 E0= -.32002220E+03  d E =-.146680E-02  mag=    44.0000
       N       E                     dE             d eps       ncg     rms          ort
SDA:   1    -0.319952067080E+03    0.74367E-01    0.00000E+00  8112   0.200E+00 0.000E+00
CGA:   2    -0.319999579677E+03   -0.47513E-01   -0.47429E-01  8112   0.236E+00 0.775E-03
CGA:   3    -0.320018690261E+03   -0.19111E-01   -0.18935E-01  8112   0.495E-01 0.720E-03
CGA:   4    -0.320027049094E+03   -0.83588E-02   -0.83599E-02  8112   0.140E-01-0.320E-04
CGA:   5    -0.320028772961E+03   -0.17239E-02   -0.17239E-02  8112   0.506E-02-0.417E-05
CGA:   6    -0.320029385588E+03   -0.61263E-03   -0.61259E-03  8112   0.187E-02-0.328E-05
CGA:   7    -0.320029605066E+03   -0.21948E-03   -0.21945E-03  8112   0.795E-03-0.125E-05
CGA:   8    -0.320029694635E+03   -0.89569E-04   -0.89587E-04  8112   0.314E-03 0.153E-07
CGA:   9    -0.320029739453E+03   -0.44818E-04   -0.44817E-04  8112   0.117E-03 0.222E-06
CGA:  10    -0.320029759884E+03   -0.20431E-04   -0.20411E-04  8112   0.624E-04 0.517E-06
CGA:  11    -0.320029767638E+03   -0.77542E-05   -0.77521E-05  8112   0.424E-04-0.136E-06
  25 F= -.32002977E+03 E0= -.32002554E+03  d E =-.332618E-02  mag=    44.0000
       N       E                     dE             d eps       ncg     rms          ort
SDA:   1    -0.320015925202E+03    0.13835E-01    0.00000E+00  8112   0.429E-01 0.000E+00
CGA:   2    -0.320021972602E+03   -0.60474E-02   -0.60468E-02  8112   0.437E-01 0.937E-04
CGA:   3    -0.320027364075E+03   -0.53915E-02   -0.53905E-02  8112   0.128E-01-0.246E-04
CGA:   4    -0.320028832239E+03   -0.14682E-02   -0.14682E-02  8112   0.500E-02-0.175E-05
CGA:   5    -0.320029448566E+03   -0.61633E-03   -0.61621E-03  8112   0.115E-02-0.570E-05
CGA:   6    -0.320029608608E+03   -0.16004E-03   -0.16004E-03  8112   0.417E-03 0.138E-05
CGA:   7    -0.320029664751E+03   -0.56143E-04   -0.56143E-04  8112   0.175E-03 0.229E-06
CGA:   8    -0.320029682942E+03   -0.18191E-04   -0.18178E-04  8112   0.802E-04-0.451E-06
CGA:   9    -0.320029693625E+03   -0.10684E-04   -0.10683E-04  8112   0.264E-04-0.404E-06
CGA:  10    -0.320029697542E+03   -0.39166E-05   -0.39151E-05  8112   0.129E-04 0.977E-07
  26 F= -.32002970E+03 E0= -.32002548E+03  d E =0.700962E-04  mag=    44.0000
       N       E                     dE             d eps       ncg     rms          ort
SDA:   1    -0.319960885296E+03    0.68808E-01    0.00000E+00  8112   0.169E+00 0.000E+00
CGA:   2    -0.320008603006E+03   -0.47718E-01   -0.47706E-01  8112   0.112E+00 0.805E-04
CGA:   3    -0.320021460969E+03   -0.12858E-01   -0.12852E-01  8112   0.397E-01-0.492E-04
CGA:   4    -0.320026583810E+03   -0.51228E-02   -0.51205E-02  8112   0.116E-01-0.764E-04
CGA:   5    -0.320027797701E+03   -0.12139E-02   -0.12157E-02  8112   0.503E-02 0.114E-04
CGA:   6    -0.320028333101E+03   -0.53540E-03   -0.53543E-03  8112   0.151E-02 0.366E-05
CGA:   7    -0.320028551731E+03   -0.21863E-03   -0.21864E-03  8112   0.523E-03-0.799E-06
CGA:   8    -0.320028625735E+03   -0.74004E-04   -0.74008E-04  8112   0.214E-03-0.118E-05
CGA:   9    -0.320028655653E+03   -0.29918E-04   -0.29919E-04  8112   0.102E-03-0.264E-06
CGA:  10    -0.320028667369E+03   -0.11716E-04   -0.11720E-04  8112   0.577E-04 0.203E-06
CGA:  11    -0.320028675507E+03   -0.81376E-05   -0.81372E-05  8112   0.232E-04 0.122E-06
  27 F= -.32002868E+03 E0= -.32002446E+03  d E =0.102203E-02  mag=    44.0000
       N       E                     dE             d eps       ncg     rms          ort
SDA:   1    -0.319831621572E+03    0.19705E+00    0.00000E+00  8112   0.519E+00 0.000E+00
CGA:   2    -0.319948635720E+03   -0.11701E+00   -0.11712E+00  8112   0.471E+00-0.121E-02
CGA:   3    -0.320001048463E+03   -0.52413E-01   -0.52486E-01  8112   0.119E+00 0.720E-03
CGA:   4    -0.320020121137E+03   -0.19073E-01   -0.19074E-01  8112   0.291E-01-0.566E-04
CGA:   5    -0.320024254432E+03   -0.41333E-02   -0.41332E-02  8112   0.934E-02-0.106E-04
CGA:   6    -0.320025472691E+03   -0.12183E-02   -0.12183E-02  8112   0.418E-02 0.544E-05
CGA:   7    -0.320025911672E+03   -0.43898E-03   -0.43886E-03  8112   0.175E-02-0.855E-06
CGA:   8    -0.320026123052E+03   -0.21138E-03   -0.21141E-03  8112   0.641E-03-0.870E-06
CGA:   9    -0.320026218346E+03   -0.95294E-04   -0.95300E-04  8112   0.233E-03-0.489E-06
CGA:  10    -0.320026259838E+03   -0.41492E-04   -0.41461E-04  8112   0.123E-03 0.784E-06
CGA:  11    -0.320026276230E+03   -0.16392E-04   -0.16391E-04  8112   0.776E-04-0.676E-07
CGA:  12    -0.320026287078E+03   -0.10848E-04   -0.10848E-04  8112   0.439E-04-0.126E-06
CGA:  13    -0.320026292616E+03   -0.55380E-05   -0.55409E-05  8112   0.212E-04 0.191E-06
  28 F= -.32002629E+03 E0= -.32002209E+03  d E =0.238289E-02  mag=    44.0000
       N       E                     dE             d eps       ncg     rms          ort
SDA:   1    -0.314538293890E+03    0.54880E+01    0.00000E+00  8112   0.138E+02 0.000E+00
CGA:   2    -0.318147935212E+03   -0.36096E+01   -0.35889E+01  8112   0.122E+02 0.118E+00
CGA:   3    -0.319325669639E+03   -0.11777E+01   -0.11244E+01  8112   0.326E+01 0.465E+00
CGA:   4    -0.319789629356E+03   -0.46396E+00   -0.46345E+00  8112   0.149E+01-0.268E-01
CGA:   5    -0.319923493049E+03   -0.13386E+00   -0.13478E+00  8112   0.392E+00-0.723E-03
CGA:   6    -0.319977633640E+03   -0.54141E-01   -0.54151E-01  8112   0.151E+00 0.139E-02
CGA:   7    -0.319994031425E+03   -0.16398E-01   -0.16412E-01  8112   0.739E-01 0.991E-04
CGA:   8    -0.320001759530E+03   -0.77281E-02   -0.77114E-02  8112   0.281E-01-0.872E-04
CGA:   9    -0.320005234908E+03   -0.34754E-02   -0.34792E-02  8112   0.109E-01 0.926E-04
CGA:  10    -0.320006962117E+03   -0.17272E-02   -0.17270E-02  8112   0.467E-02 0.921E-05
CGA:  11    -0.320007712772E+03   -0.75065E-03   -0.75037E-03  8112   0.323E-02 0.116E-04
CGA:  12    -0.320008053302E+03   -0.34053E-03   -0.34131E-03  8112   0.174E-02 0.796E-05
CGA:  13    -0.320008328118E+03   -0.27482E-03   -0.27476E-03  8112   0.847E-03 0.343E-05
CGA:  14    -0.320008450873E+03   -0.12276E-03   -0.12273E-03  8112   0.412E-03 0.361E-05
CGA:  15    -0.320008519814E+03   -0.68941E-04   -0.68833E-04  8112   0.170E-03 0.355E-05
CGA:  16    -0.320008544252E+03   -0.24438E-04   -0.24434E-04  8112   0.824E-04 0.237E-05
CGA:  17    -0.320008553788E+03   -0.95365E-05   -0.95622E-05  8112   0.440E-04 0.912E-06
  29 F= -.32000855E+03 E0= -.32000445E+03  d E =0.177388E-01  mag=    44.0000
       N       E                     dE             d eps       ncg     rms          ort
SDA:   1    -0.318455746502E+03    0.15528E+01    0.00000E+00  8112   0.411E+01 0.000E+00
CGA:   2    -0.319422184872E+03   -0.96644E+00   -0.96218E+00  8112   0.324E+01 0.403E-01
CGA:   3    -0.319784206575E+03   -0.36202E+00   -0.35605E+00  8112   0.138E+01-0.270E-01
CGA:   4    -0.319933519341E+03   -0.14931E+00   -0.14919E+00  8112   0.459E+00-0.215E-02
CGA:   5    -0.319982290162E+03   -0.48771E-01   -0.48830E-01  8112   0.130E+00 0.453E-03
CGA:   6    -0.320000830002E+03   -0.18540E-01   -0.18538E-01  8112   0.400E-01 0.262E-03
CGA:   7    -0.320006537735E+03   -0.57077E-02   -0.57086E-02  8112   0.163E-01-0.103E-03
CGA:   8    -0.320008800081E+03   -0.22623E-02   -0.22623E-02  8112   0.562E-02 0.299E-04
CGA:   9    -0.320009688617E+03   -0.88854E-03   -0.88872E-03  8112   0.240E-02-0.535E-05
CGA:  10    -0.320010009176E+03   -0.32056E-03   -0.32061E-03  8112   0.155E-02 0.590E-05
CGA:  11    -0.320010181615E+03   -0.17244E-03   -0.17253E-03  8112   0.694E-03 0.256E-05
CGA:  12    -0.320010294250E+03   -0.11264E-03   -0.11262E-03  8112   0.325E-03 0.739E-06
CGA:  13    -0.320010349342E+03   -0.55091E-04   -0.55089E-04  8112   0.179E-03 0.873E-07
CGA:  14    -0.320010378040E+03   -0.28698E-04   -0.28683E-04  8112   0.841E-04 0.697E-06
CGA:  15    -0.320010388771E+03   -0.10731E-04   -0.10743E-04  8112   0.508E-04 0.835E-06
CGA:  16    -0.320010394925E+03   -0.61548E-05   -0.61647E-05  8112   0.201E-04 0.455E-06
  30 F= -.32001039E+03 E0= -.32000626E+03  d E =-.184114E-02  mag=    44.0000
       N       E                     dE             d eps       ncg     rms          ort
SDA:   1    -0.319182527879E+03    0.82786E+00    0.00000E+00  8112   0.223E+01 0.000E+00
CGA:   2    -0.319680868836E+03   -0.49834E+00   -0.50016E+00  8112   0.237E+01-0.180E-01
CGA:   3    -0.319890390223E+03   -0.20952E+00   -0.21136E+00  8112   0.676E+00-0.896E-02
CGA:   4    -0.319978927613E+03   -0.88537E-01   -0.88524E-01  8112   0.273E+00-0.573E-03
CGA:   5    -0.320006498492E+03   -0.27571E-01   -0.27635E-01  8112   0.655E-01 0.229E-03
CGA:   6    -0.320016274673E+03   -0.97762E-02   -0.97807E-02  8112   0.229E-01-0.241E-03
CGA:   7    -0.320019010305E+03   -0.27356E-02   -0.27377E-02  8112   0.115E-01 0.374E-04
CGA:   8    -0.320020295836E+03   -0.12855E-02   -0.12853E-02  8112   0.414E-02 0.828E-06
CGA:   9    -0.320020834096E+03   -0.53826E-03   -0.53832E-03  8112   0.179E-02 0.595E-05
CGA:  10    -0.320021095425E+03   -0.26133E-03   -0.26131E-03  8112   0.780E-03 0.201E-05
CGA:  11    -0.320021216448E+03   -0.12102E-03   -0.12101E-03  8112   0.495E-03 0.599E-06
CGA:  12    -0.320021273967E+03   -0.57520E-04   -0.57538E-04  8112   0.274E-03 0.917E-06
CGA:  13    -0.320021318603E+03   -0.44636E-04   -0.44604E-04  8112   0.115E-03 0.120E-05
CGA:  14    -0.320021338696E+03   -0.20092E-04   -0.20080E-04  8112   0.779E-04 0.352E-06
CGA:  15    -0.320021347742E+03   -0.90460E-05   -0.90485E-05  8112   0.345E-04 0.817E-07
  31 F= -.32002135E+03 E0= -.32001720E+03  d E =-.109528E-01  mag=    44.0000
       N       E                     dE             d eps       ncg     rms          ort
SDA:   1    -0.319803378734E+03    0.21796E+00    0.00000E+00  8112   0.554E+00 0.000E+00
CGA:   2    -0.319963727185E+03   -0.16035E+00   -0.16034E+00  8112   0.286E+00 0.382E-04
CGA:   3    -0.320007452463E+03   -0.43725E-01   -0.43723E-01  8112   0.110E+00 0.192E-03
CGA:   4    -0.320019028050E+03   -0.11576E-01   -0.11567E-01  8112   0.374E-01-0.267E-04
CGA:   5    -0.320022940681E+03   -0.39126E-02   -0.39143E-02  8112   0.136E-01 0.165E-05
CGA:   6    -0.320024508853E+03   -0.15682E-02   -0.15665E-02  8112   0.499E-02-0.164E-04
CGA:   7    -0.320025168729E+03   -0.65988E-03   -0.65997E-03  8112   0.159E-02 0.441E-05
CGA:   8    -0.320025407235E+03   -0.23851E-03   -0.23853E-03  8112   0.732E-03-0.153E-05
CGA:   9    -0.320025498406E+03   -0.91171E-04   -0.91188E-04  8112   0.364E-03 0.829E-06
CGA:  10    -0.320025543325E+03   -0.44918E-04   -0.44928E-04  8112   0.200E-03 0.605E-06
CGA:  11    -0.320025571863E+03   -0.28538E-04   -0.28538E-04  8112   0.914E-04-0.979E-07
CGA:  12    -0.320025587778E+03   -0.15916E-04   -0.15917E-04  8112   0.539E-04-0.329E-07
CGA:  13    -0.320025595923E+03   -0.81450E-05   -0.81455E-05  8112   0.318E-04-0.597E-07
  32 F= -.32002560E+03 E0= -.32002146E+03  d E =-.424818E-02  mag=    44.0000
       N       E                     dE             d eps       ncg     rms          ort
SDA:   1    -0.318290249474E+03    0.17353E+01    0.00000E+00  8112   0.426E+01 0.000E+00
CGA:   2    -0.319529716875E+03   -0.12395E+01   -0.12390E+01  8112   0.279E+01 0.233E-02
CGA:   3    -0.319855458070E+03   -0.32574E+00   -0.32198E+00  8112   0.100E+01-0.422E-02
CGA:   4    -0.319978123373E+03   -0.12267E+00   -0.12270E+00  8112   0.284E+00 0.550E-03
CGA:   5    -0.320008125819E+03   -0.30002E-01   -0.30026E-01  8112   0.128E+00 0.267E-05
CGA:   6    -0.320021565659E+03   -0.13440E-01   -0.13468E-01  8112   0.389E-01 0.126E-03
CGA:   7    -0.320027112874E+03   -0.55472E-02   -0.55475E-02  8112   0.144E-01-0.122E-03
CGA:   8    -0.320029012042E+03   -0.18992E-02   -0.18997E-02  8112   0.538E-02 0.228E-04
CGA:   9    -0.320029807424E+03   -0.79538E-03   -0.79543E-03  8112   0.268E-02-0.317E-05
CGA:  10    -0.320030100523E+03   -0.29310E-03   -0.29323E-03  8112   0.146E-02 0.269E-05
CGA:  11    -0.320030308296E+03   -0.20777E-03   -0.20776E-03  8112   0.629E-03 0.325E-05
CGA:  12    -0.320030422128E+03   -0.11383E-03   -0.11380E-03  8112   0.369E-03 0.707E-06
CGA:  13    -0.320030475314E+03   -0.53185E-04   -0.53184E-04  8112   0.217E-03 0.612E-06
CGA:  14    -0.320030503952E+03   -0.28638E-04   -0.28645E-04  8112   0.116E-03 0.656E-06
CGA:  15    -0.320030517443E+03   -0.13492E-04   -0.13515E-04  8112   0.499E-04 0.936E-06
CGA:  16    -0.320030524907E+03   -0.74636E-05   -0.74559E-05  8112   0.179E-04 0.914E-06
  33 F= -.32003052E+03 E0= -.32002642E+03  d E =-.492898E-02  mag=    44.0000
       N       E                     dE             d eps       ncg     rms          ort
SDA:   1    -0.308324912532E+03    0.11706E+02    0.00000E+00  8112   0.326E+02 0.000E+00
CGA:   2    -0.315522523233E+03   -0.71976E+01   -0.71662E+01  8112   0.179E+02 0.360E+00
CGA:   3    -0.318483944681E+03   -0.29614E+01   -0.29696E+01  8112   0.733E+01-0.264E+00
CGA:   4    -0.319303321201E+03   -0.81938E+00   -0.81846E+00  8112   0.324E+01-0.241E-01
CGA:   5    -0.319599765480E+03   -0.29644E+00   -0.29893E+00  8112   0.972E+00-0.179E-01
CGA:   6    -0.319724706470E+03   -0.12494E+00   -0.12462E+00  8112   0.348E+00-0.105E-01
CGA:   7    -0.319769818040E+03   -0.45112E-01   -0.45156E-01  8112   0.117E+00 0.203E-02
CGA:   8    -0.319786570701E+03   -0.16753E-01   -0.16754E-01  8112   0.726E-01-0.230E-03
CGA:   9    -0.319793397111E+03   -0.68264E-02   -0.68563E-02  8112   0.260E-01 0.260E-04
CGA:  10    -0.319797880933E+03   -0.44838E-02   -0.44849E-02  8112   0.115E-01-0.175E-04
CGA:  11    -0.319799711082E+03   -0.18301E-02   -0.18289E-02  8112   0.720E-02 0.452E-04
CGA:  12    -0.319800518614E+03   -0.80753E-03   -0.80804E-03  8112   0.406E-02 0.115E-04
CGA:  13    -0.319801120748E+03   -0.60213E-03   -0.60195E-03  8112   0.162E-02 0.149E-04
CGA:  14    -0.319801378734E+03   -0.25799E-03   -0.25799E-03  8112   0.102E-02 0.441E-06
CGA:  15    -0.319801514194E+03   -0.13546E-03   -0.13546E-03  8112   0.505E-03-0.833E-06
CGA:  16    -0.319801569488E+03   -0.55295E-04   -0.55282E-04  8112   0.225E-03-0.794E-06
CGA:  17    -0.319801605644E+03   -0.36156E-04   -0.36156E-04  8112   0.906E-04-0.932E-07
CGA:  18    -0.319801618281E+03   -0.12637E-04   -0.12637E-04  8112   0.521E-04 0.568E-06
CGA:  19    -0.319801624615E+03   -0.63341E-05   -0.63426E-05  8112   0.284E-04 0.431E-06
  34 F= -.31980162E+03 E0= -.31979719E+03  d E =0.228900E+00  mag=    44.0000
       N       E                     dE             d eps       ncg     rms          ort
SDA:   1    -0.316619054924E+03    0.31826E+01    0.00000E+00  8112   0.107E+02 0.000E+00
CGA:   2    -0.318535218154E+03   -0.19162E+01   -0.19116E+01  8112   0.638E+01 0.880E-01
CGA:   3    -0.319341542683E+03   -0.80632E+00   -0.80582E+00  8112   0.425E+01-0.157E-01
CGA:   4    -0.319799793335E+03   -0.45825E+00   -0.45186E+00  8112   0.112E+01-0.324E-01
CGA:   5    -0.319947636410E+03   -0.14784E+00   -0.14792E+00  8112   0.351E+00 0.635E-02
CGA:   6    -0.319993306549E+03   -0.45670E-01   -0.45621E-01  8112   0.140E+00-0.229E-02
CGA:   7    -0.320010064774E+03   -0.16758E-01   -0.16801E-01  8112   0.591E-01 0.912E-03
CGA:   8    -0.320016015387E+03   -0.59506E-02   -0.59542E-02  8112   0.255E-01 0.163E-04
CGA:   9    -0.320019852406E+03   -0.38370E-02   -0.38341E-02  8112   0.799E-02 0.123E-03
CGA:  10    -0.320021075737E+03   -0.12233E-02   -0.12230E-02  8112   0.543E-02 0.162E-04
CGA:  11    -0.320021743173E+03   -0.66744E-03   -0.66779E-03  8112   0.235E-02 0.133E-04
CGA:  12    -0.320022041983E+03   -0.29881E-03   -0.29883E-03  8112   0.131E-02 0.210E-05
CGA:  13    -0.320022232329E+03   -0.19035E-03   -0.19029E-03  8112   0.605E-03 0.363E-05
CGA:  14    -0.320022320235E+03   -0.87906E-04   -0.87901E-04  8112   0.319E-03 0.631E-06
CGA:  15    -0.320022368865E+03   -0.48630E-04   -0.48599E-04  8112   0.207E-03 0.177E-05
CGA:  16    -0.320022390877E+03   -0.22012E-04   -0.22052E-04  8112   0.762E-04 0.117E-05
CGA:  17    -0.320022404265E+03   -0.13388E-04   -0.13361E-04  8112   0.402E-04 0.693E-06
CGA:  18    -0.320022409507E+03   -0.52417E-05   -0.52450E-05  8112   0.187E-04 0.399E-06
  35 F= -.32002241E+03 E0= -.32001814E+03  d E =-.220785E+00  mag=    44.0000
       N       E                     dE             d eps       ncg     rms          ort
SDA:   1    -0.319614151555E+03    0.40825E+00    0.00000E+00  8112   0.126E+01 0.000E+00
CGA:   2    -0.319874476892E+03   -0.26033E+00   -0.26015E+00  8112   0.698E+00 0.222E-02
CGA:   3    -0.319977653746E+03   -0.10318E+00   -0.10318E+00  8112   0.477E+00 0.120E-03
CGA:   4    -0.320021478612E+03   -0.43825E-01   -0.43675E-01  8112   0.125E+00-0.299E-03
CGA:   5    -0.320038227348E+03   -0.16749E-01   -0.16751E-01  8112   0.391E-01 0.268E-03
CGA:   6    -0.320043084500E+03   -0.48572E-02   -0.48520E-02  8112   0.166E-01-0.136E-03
CGA:   7    -0.320045147766E+03   -0.20633E-02   -0.20642E-02  8112   0.517E-02 0.279E-04
CGA:   8    -0.320045800972E+03   -0.65321E-03   -0.65320E-03  8112   0.337E-02-0.191E-06
CGA:   9    -0.320046177927E+03   -0.37695E-03   -0.37701E-03  8112   0.877E-03 0.146E-05
CGA:  10    -0.320046345170E+03   -0.16724E-03   -0.16702E-03  8112   0.536E-03 0.401E-05
CGA:  11    -0.320046407206E+03   -0.62035E-04   -0.62057E-04  8112   0.248E-03 0.738E-06
CGA:  12    -0.320046444390E+03   -0.37184E-04   -0.37188E-04  8112   0.159E-03-0.288E-06
CGA:  13    -0.320046462709E+03   -0.18319E-04   -0.18313E-04  8112   0.585E-04-0.313E-06
CGA:  14    -0.320046474374E+03   -0.11665E-04   -0.11642E-04  8112   0.348E-04 0.362E-06
CGA:  15    -0.320046478352E+03   -0.39783E-05   -0.39932E-05  8112   0.177E-04 0.579E-06
  36 F= -.32004648E+03 E0= -.32004228E+03  d E =-.240688E-01  mag=    44.0000
       N       E                     dE             d eps       ncg     rms          ort
SDA:   1    -0.319869198064E+03    0.17728E+00    0.00000E+00  8112   0.514E+00 0.000E+00
CGA:   2    -0.319974268785E+03   -0.10507E+00   -0.10499E+00  8112   0.424E+00 0.112E-02
CGA:   3    -0.320015094309E+03   -0.40826E-01   -0.40864E-01  8112   0.194E+00-0.414E-03
CGA:   4    -0.320040731682E+03   -0.25637E-01   -0.25632E-01  8112   0.478E-01-0.377E-03
CGA:   5    -0.320047261851E+03   -0.65302E-02   -0.65306E-02  8112   0.184E-01 0.105E-03
CGA:   6    -0.320049269813E+03   -0.20080E-02   -0.20045E-02  8112   0.642E-02-0.267E-04
CGA:   7    -0.320050105894E+03   -0.83608E-03   -0.83610E-03  8112   0.280E-02-0.247E-06
CGA:   8    -0.320050392228E+03   -0.28633E-03   -0.28628E-03  8112   0.112E-02-0.121E-05
CGA:   9    -0.320050569802E+03   -0.17757E-03   -0.17758E-03  8112   0.388E-03-0.216E-06
CGA:  10    -0.320050628078E+03   -0.58276E-04   -0.58248E-04  8112   0.259E-03 0.205E-05
CGA:  11    -0.320050659133E+03   -0.31055E-04   -0.31069E-04  8112   0.119E-03 0.734E-06
CGA:  12    -0.320050675436E+03   -0.16302E-04   -0.16303E-04  8112   0.597E-04-0.439E-06
CGA:  13    -0.320050684782E+03   -0.93467E-05   -0.93568E-05  8112   0.311E-04-0.487E-06
  37 F= -.32005068E+03 E0= -.32004652E+03  d E =-.420643E-02  mag=    44.0000
       N       E                     dE             d eps       ncg     rms          ort
SDA:   1    -0.320020226817E+03    0.30449E-01    0.00000E+00  8112   0.896E-01 0.000E+00
CGA:   2    -0.320036939023E+03   -0.16712E-01   -0.16718E-01  8112   0.990E-01-0.864E-04
CGA:   3    -0.320045824005E+03   -0.88850E-02   -0.89014E-02  8112   0.277E-01-0.397E-04
CGA:   4    -0.320050175393E+03   -0.43514E-02   -0.43518E-02  8112   0.712E-02-0.179E-04
CGA:   5    -0.320051195673E+03   -0.10203E-02   -0.10203E-02  8112   0.273E-02-0.563E-05
CGA:   6    -0.320051486692E+03   -0.29102E-03   -0.29092E-03  8112   0.102E-02-0.192E-05
CGA:   7    -0.320051609556E+03   -0.12286E-03   -0.12285E-03  8112   0.426E-03-0.112E-05
CGA:   8    -0.320051656518E+03   -0.46962E-04   -0.46949E-04  8112   0.173E-03-0.364E-06
CGA:   9    -0.320051682867E+03   -0.26349E-04   -0.26344E-04  8112   0.579E-04 0.293E-06
CGA:  10    -0.320051692141E+03   -0.92737E-05   -0.92689E-05  8112   0.401E-04 0.211E-06
  38 F= -.32005169E+03 E0= -.32004753E+03  d E =-.100736E-02  mag=    44.0000
       N       E                     dE             d eps       ncg     rms          ort
SDA:   1    -0.319879210557E+03    0.17247E+00    0.00000E+00  8112   0.436E+00 0.000E+00
CGA:   2    -0.320000319001E+03   -0.12111E+00   -0.12117E+00  8112   0.240E+00-0.499E-03
CGA:   3    -0.320032243031E+03   -0.31924E-01   -0.31942E-01  8112   0.112E+00 0.830E-03
CGA:   4    -0.320043486932E+03   -0.11244E-01   -0.11258E-01  8112   0.397E-01-0.149E-04
CGA:   5    -0.320047733421E+03   -0.42465E-02   -0.42444E-02  8112   0.118E-01-0.208E-04
CGA:   6    -0.320049206836E+03   -0.14734E-02   -0.14739E-02  8112   0.431E-02 0.126E-04
CGA:   7    -0.320049777521E+03   -0.57068E-03   -0.57063E-03  8112   0.139E-02-0.500E-05
CGA:   8    -0.320049978731E+03   -0.20121E-03   -0.20120E-03  8112   0.721E-03 0.814E-06
CGA:   9    -0.320050056357E+03   -0.77626E-04   -0.77623E-04  8112   0.335E-03 0.361E-06
CGA:  10    -0.320050101894E+03   -0.45537E-04   -0.45537E-04  8112   0.151E-03-0.392E-07
CGA:  11    -0.320050126965E+03   -0.25071E-04   -0.25087E-04  8112   0.769E-04-0.534E-06
CGA:  12    -0.320050138475E+03   -0.11510E-04   -0.11516E-04  8112   0.489E-04-0.440E-06
CGA:  13    -0.320050144787E+03   -0.63125E-05   -0.63140E-05  8112   0.268E-04 0.165E-06
  39 F= -.32005014E+03 E0= -.32004599E+03  d E =0.154735E-02  mag=    44.0000
       N       E                     dE             d eps       ncg     rms          ort
SDA:   1    -0.320030017674E+03    0.20121E-01    0.00000E+00  8112   0.488E-01 0.000E+00
CGA:   2    -0.320042303366E+03   -0.12286E-01   -0.12281E-01  8112   0.335E-01 0.400E-04
CGA:   3    -0.320046176383E+03   -0.38730E-02   -0.38674E-02  8112   0.138E-01-0.518E-04
CGA:   4    -0.320047790851E+03   -0.16145E-02   -0.16150E-02  8112   0.513E-02 0.796E-05
CGA:   5    -0.320048268495E+03   -0.47764E-03   -0.47779E-03  8112   0.151E-02 0.278E-05
CGA:   6    -0.320048465635E+03   -0.19714E-03   -0.19716E-03  8112   0.468E-03 0.231E-05
CGA:   7    -0.320048533996E+03   -0.68361E-04   -0.68353E-04  8112   0.193E-03 0.873E-06
CGA:   8    -0.320048557540E+03   -0.23544E-04   -0.23539E-04  8112   0.839E-04-0.325E-06
CGA:   9    -0.320048568170E+03   -0.10630E-04   -0.10629E-04  8112   0.444E-04-0.168E-06
CGA:  10    -0.320048573262E+03   -0.50921E-05   -0.50900E-05  8112   0.193E-04-0.101E-06
  40 F= -.32004857E+03 E0= -.32004442E+03  d E =0.157153E-02  mag=    44.0000
       N       E                     dE             d eps       ncg     rms          ort
SDA:   1    -0.319830983433E+03    0.21758E+00    0.00000E+00  8112   0.557E+00 0.000E+00
CGA:   2    -0.319964973491E+03   -0.13399E+00   -0.13394E+00  8112   0.523E+00 0.447E-03
CGA:   3    -0.320010166391E+03   -0.45193E-01   -0.45327E-01  8112   0.171E+00-0.660E-03
CGA:   4    -0.320033033396E+03   -0.22867E-01   -0.22856E-01  8112   0.580E-01-0.805E-03
CGA:   5    -0.320039464112E+03   -0.64307E-02   -0.64419E-02  8112   0.151E-01 0.111E-03
CGA:   6    -0.320041607016E+03   -0.21429E-02   -0.21429E-02  8112   0.592E-02 0.769E-05
CGA:   7    -0.320042261678E+03   -0.65466E-03   -0.65460E-03  8112   0.276E-02 0.819E-06
CGA:   8    -0.320042578234E+03   -0.31656E-03   -0.31652E-03  8112   0.987E-03-0.987E-06
CGA:   9    -0.320042714436E+03   -0.13620E-03   -0.13620E-03  8112   0.431E-03-0.438E-06
CGA:  10    -0.320042778106E+03   -0.63670E-04   -0.63675E-04  8112   0.228E-03-0.304E-06
CGA:  11    -0.320042808480E+03   -0.30373E-04   -0.30375E-04  8112   0.128E-03 0.263E-06
CGA:  12    -0.320042826034E+03   -0.17554E-04   -0.17554E-04  8112   0.821E-04 0.455E-06
CGA:  13    -0.320042837438E+03   -0.11404E-04   -0.11404E-04  8112   0.353E-04 0.326E-06
CGA:  14    -0.320042843620E+03   -0.61818E-05   -0.61694E-05  8112   0.194E-04 0.329E-06
  41 F= -.32004284E+03 E0= -.32003871E+03  d E =0.572964E-02  mag=    44.0000
       N       E                     dE             d eps       ncg     rms          ort
SDA:   1    -0.319876117580E+03    0.16672E+00    0.00000E+00  8112   0.422E+00 0.000E+00
CGA:   2    -0.319979287220E+03   -0.10317E+00   -0.10294E+00  8112   0.366E+00 0.206E-02
CGA:   3    -0.320011767851E+03   -0.32481E-01   -0.32174E-01  8112   0.141E+00 0.166E-03
CGA:   4    -0.320030755058E+03   -0.18987E-01   -0.18986E-01  8112   0.338E-01-0.630E-04
CGA:   5    -0.320035253676E+03   -0.44986E-02   -0.44986E-02  8112   0.115E-01 0.583E-05
CGA:   6    -0.320036630874E+03   -0.13772E-02   -0.13773E-02  8112   0.454E-02 0.516E-05
CGA:   7    -0.320037143395E+03   -0.51252E-03   -0.51241E-03  8112   0.215E-02 0.183E-06
CGA:   8    -0.320037387746E+03   -0.24435E-03   -0.24439E-03  8112   0.653E-03-0.749E-07
CGA:   9    -0.320037500683E+03   -0.11294E-03   -0.11295E-03  8112   0.290E-03-0.357E-06
CGA:  10    -0.320037537526E+03   -0.36843E-04   -0.36841E-04  8112   0.191E-03-0.222E-06
CGA:  11    -0.320037561702E+03   -0.24176E-04   -0.24178E-04  8112   0.869E-04 0.157E-06
CGA:  12    -0.320037575267E+03   -0.13565E-04   -0.13561E-04  8112   0.483E-04 0.229E-06
CGA:  13    -0.320037582857E+03   -0.75897E-05   -0.75848E-05  8112   0.289E-04 0.261E-06
  42 F= -.32003758E+03 E0= -.32003344E+03  d E =0.526076E-02  mag=    44.0000
       N       E                     dE             d eps       ncg     rms          ort
SDA:   1    -0.319815745754E+03    0.22183E+00    0.00000E+00  8112   0.553E+00 0.000E+00
CGA:   2    -0.319959982885E+03   -0.14424E+00   -0.14390E+00  8112   0.422E+00 0.275E-02
CGA:   3    -0.320001814317E+03   -0.41831E-01   -0.41380E-01  8112   0.191E+00-0.876E-03
CGA:   4    -0.320023269088E+03   -0.21455E-01   -0.21436E-01  8112   0.493E-01-0.158E-03
CGA:   5    -0.320029261393E+03   -0.59923E-02   -0.59928E-02  8112   0.155E-01 0.152E-04
CGA:   6    -0.320031351357E+03   -0.20900E-02   -0.20900E-02  8112   0.517E-02 0.760E-05
CGA:   7    -0.320031997368E+03   -0.64601E-03   -0.64593E-03  8112   0.295E-02-0.165E-05
CGA:   8    -0.320032288446E+03   -0.29108E-03   -0.29114E-03  8112   0.844E-03-0.922E-06
CGA:   9    -0.320032436285E+03   -0.14784E-03   -0.14783E-03  8112   0.341E-03 0.105E-06
CGA:  10    -0.320032484889E+03   -0.48604E-04   -0.48605E-04  8112   0.227E-03-0.151E-06
CGA:  11    -0.320032512249E+03   -0.27359E-04   -0.27364E-04  8112   0.114E-03 0.268E-06
CGA:  12    -0.320032528621E+03   -0.16373E-04   -0.16371E-04  8112   0.585E-04 0.284E-06
CGA:  13    -0.320032538645E+03   -0.10024E-04   -0.10016E-04  8112   0.312E-04 0.243E-06
CGA:  14    -0.320032542822E+03   -0.41763E-05   -0.41774E-05  8112   0.195E-04 0.170E-06
  43 F= -.32003254E+03 E0= -.32002841E+03  d E =0.504004E-02  mag=    44.0000
       N       E                     dE             d eps       ncg     rms          ort
SDA:   1    -0.319934336564E+03    0.98202E-01    0.00000E+00  8112   0.236E+00 0.000E+00
CGA:   2    -0.320003747970E+03   -0.69411E-01   -0.69403E-01  8112   0.151E+00 0.527E-04
CGA:   3    -0.320022175070E+03   -0.18427E-01   -0.18429E-01  8112   0.621E-01 0.247E-04
CGA:   4    -0.320028402655E+03   -0.62276E-02   -0.62241E-02  8112   0.186E-01-0.116E-04
CGA:   5    -0.320030361004E+03   -0.19583E-02   -0.19592E-02  8112   0.719E-02 0.373E-05
CGA:   6    -0.320031192752E+03   -0.83175E-03   -0.83126E-03  8112   0.211E-02-0.534E-05
CGA:   7    -0.320031523393E+03   -0.33064E-03   -0.33061E-03  8112   0.717E-03 0.912E-06
CGA:   8    -0.320031617164E+03   -0.93770E-04   -0.93763E-04  8112   0.385E-03-0.262E-06
CGA:   9    -0.320031659540E+03   -0.42376E-04   -0.42381E-04  8112   0.158E-03 0.896E-07
CGA:  10    -0.320031679601E+03   -0.20062E-04   -0.20064E-04  8112   0.760E-04 0.272E-06
CGA:  11    -0.320031691653E+03   -0.12052E-04   -0.12049E-04  8112   0.342E-04 0.131E-06
CGA:  12    -0.320031697443E+03   -0.57893E-05   -0.57851E-05  8112   0.235E-04 0.137E-06
  44 F= -.32003170E+03 E0= -.32002757E+03  d E =0.845379E-03  mag=    44.0000
       N       E                     dE             d eps       ncg     rms          ort
SDA:   1    -0.319990541828E+03    0.41150E-01    0.00000E+00  8112   0.113E+00 0.000E+00
CGA:   2    -0.320016400212E+03   -0.25858E-01   -0.25816E-01  8112   0.119E+00 0.425E-03
CGA:   3    -0.320026974340E+03   -0.10574E-01   -0.10511E-01  8112   0.357E-01 0.134E-03
CGA:   4    -0.320031499189E+03   -0.45248E-02   -0.45240E-02  8112   0.125E-01-0.195E-04
CGA:   5    -0.320032868490E+03   -0.13693E-02   -0.13694E-02  8112   0.335E-02 0.102E-05
CGA:   6    -0.320033310022E+03   -0.44153E-03   -0.44151E-03  8112   0.117E-02-0.352E-05
CGA:   7    -0.320033480707E+03   -0.17069E-03   -0.17070E-03  8112   0.510E-03-0.151E-05
CGA:   8    -0.320033527847E+03   -0.47139E-04   -0.47160E-04  8112   0.219E-03 0.343E-06
CGA:   9    -0.320033560358E+03   -0.32512E-04   -0.32500E-04  8112   0.667E-04 0.102E-05
CGA:  10    -0.320033571788E+03   -0.11430E-04   -0.11428E-04  8112   0.448E-04 0.694E-07
CGA:  11    -0.320033577576E+03   -0.57880E-05   -0.57880E-05  8112   0.209E-04 0.304E-07
  45 F= -.32003358E+03 E0= -.32002944E+03  d E =-.188013E-02  mag=    44.0000
       N       E                     dE             d eps       ncg     rms          ort
SDA:   1    -0.319568137266E+03    0.46543E+00    0.00000E+00  8112   0.115E+01 0.000E+00
CGA:   2    -0.319899831779E+03   -0.33169E+00   -0.33142E+00  8112   0.763E+00 0.182E-02
CGA:   3    -0.319985994484E+03   -0.86163E-01   -0.85912E-01  8112   0.340E+00-0.161E-02
CGA:   4    -0.320019222403E+03   -0.33228E-01   -0.33316E-01  8112   0.104E+00-0.307E-04
CGA:   5    -0.320030557826E+03   -0.11335E-01   -0.11330E-01  8112   0.310E-01-0.249E-04
CGA:   6    -0.320034578362E+03   -0.40205E-02   -0.40210E-02  8112   0.115E-01 0.170E-04
CGA:   7    -0.320036176164E+03   -0.15978E-02   -0.15978E-02  8112   0.379E-02-0.734E-05
CGA:   8    -0.320036644295E+03   -0.46813E-03   -0.46817E-03  8112   0.220E-02 0.172E-05
CGA:   9    -0.320036881233E+03   -0.23694E-03   -0.23698E-03  8112   0.753E-03 0.162E-05
CGA:  10    -0.320036990729E+03   -0.10950E-03   -0.10948E-03  8112   0.412E-03 0.145E-05
CGA:  11    -0.320037051424E+03   -0.60695E-04   -0.60690E-04  8112   0.175E-03 0.627E-06
CGA:  12    -0.320037081840E+03   -0.30416E-04   -0.30395E-04  8112   0.149E-03 0.561E-06
CGA:  13    -0.320037097526E+03   -0.15686E-04   -0.15702E-04  8112   0.622E-04 0.428E-06
CGA:  14    -0.320037107983E+03   -0.10457E-04   -0.10452E-04  8112   0.295E-04 0.171E-06
CGA:  15    -0.320037112614E+03   -0.46307E-05   -0.46283E-05  8112   0.147E-04 0.134E-06
  46 F= -.32003711E+03 E0= -.32003296E+03  d E =-.353504E-02  mag=    44.0000
       N       E                     dE             d eps       ncg     rms          ort
SDA:   1    -0.312990081683E+03    0.70470E+01    0.00000E+00  8112   0.173E+02 0.000E+00
CGA:   2    -0.317967361042E+03   -0.49773E+01   -0.49793E+01  8112   0.116E+02-0.189E-01
CGA:   3    -0.319312682259E+03   -0.13453E+01   -0.13471E+01  8112   0.424E+01 0.128E+00
CGA:   4    -0.319808783050E+03   -0.49610E+00   -0.49092E+00  8112   0.136E+01-0.336E-01
CGA:   5    -0.319941821450E+03   -0.13304E+00   -0.13293E+00  8112   0.550E+00-0.585E-02
CGA:   6    -0.320002069708E+03   -0.60248E-01   -0.59988E-01  8112   0.171E+00-0.164E-02
CGA:   7    -0.320027862836E+03   -0.25793E-01   -0.25773E-01  8112   0.504E-01 0.101E-02
CGA:   8    -0.320035478284E+03   -0.76154E-02   -0.76197E-02  8112   0.267E-01-0.244E-03
CGA:   9    -0.320038446616E+03   -0.29683E-02   -0.29728E-02  8112   0.115E-01 0.399E-04
CGA:  10    -0.320039875542E+03   -0.14289E-02   -0.14291E-02  8112   0.699E-02 0.114E-04
CGA:  11    -0.320040760025E+03   -0.88448E-03   -0.88515E-03  8112   0.270E-02 0.283E-04
CGA:  12    -0.320041292506E+03   -0.53248E-03   -0.53145E-03  8112   0.158E-02 0.158E-04
CGA:  13    -0.320041521249E+03   -0.22874E-03   -0.22871E-03  8112   0.106E-02 0.691E-05
CGA:  14    -0.320041641120E+03   -0.11987E-03   -0.11995E-03  8112   0.511E-03 0.282E-05
CGA:  15    -0.320041711360E+03   -0.70240E-04   -0.70247E-04  8112   0.226E-03 0.284E-05
CGA:  16    -0.320041741297E+03   -0.29936E-04   -0.29952E-04  8112   0.826E-04 0.214E-05
CGA:  17    -0.320041754433E+03   -0.13137E-04   -0.13110E-04  8112   0.407E-04 0.145E-05
CGA:  18    -0.320041758722E+03   -0.42884E-05   -0.43046E-05  8112   0.206E-04 0.437E-06
  47 F= -.32004176E+03 E0= -.32003759E+03  d E =-.464611E-02  mag=    44.0000
       N       E                     dE             d eps       ncg     rms          ort
SDA:   1    -0.314421177735E+03    0.56206E+01    0.00000E+00  8112   0.139E+02 0.000E+00
CGA:   2    -0.318217013183E+03   -0.37958E+01   -0.37885E+01  8112   0.110E+02 0.552E-01
CGA:   3    -0.319339055736E+03   -0.11220E+01   -0.11192E+01  8112   0.437E+01 0.155E-01
CGA:   4    -0.319809905900E+03   -0.47085E+00   -0.47034E+00  8112   0.149E+01-0.321E-01
CGA:   5    -0.319951052243E+03   -0.14115E+00   -0.14222E+00  8112   0.453E+00-0.281E-02
CGA:   6    -0.320012534074E+03   -0.61482E-01   -0.61456E-01  8112   0.134E+00-0.432E-02
CGA:   7    -0.320033165228E+03   -0.20631E-01   -0.20611E-01  8112   0.515E-01 0.736E-03
CGA:   8    -0.320038807152E+03   -0.56419E-02   -0.56400E-02  8112   0.293E-01-0.145E-04
CGA:   9    -0.320041975888E+03   -0.31687E-02   -0.31703E-02  8112   0.996E-02 0.131E-04
CGA:  10    -0.320043449949E+03   -0.14741E-02   -0.14739E-02  8112   0.519E-02 0.129E-04
CGA:  11    -0.320044186333E+03   -0.73638E-03   -0.73632E-03  8112   0.244E-02 0.107E-04
CGA:  12    -0.320044578875E+03   -0.39254E-03   -0.39222E-03  8112   0.187E-02 0.110E-04
CGA:  13    -0.320044769349E+03   -0.19047E-03   -0.19065E-03  8112   0.852E-03 0.323E-05
CGA:  14    -0.320044912832E+03   -0.14348E-03   -0.14338E-03  8112   0.379E-03 0.340E-05
CGA:  15    -0.320044969703E+03   -0.56871E-04   -0.56844E-04  8112   0.203E-03 0.224E-05
CGA:  16    -0.320044994247E+03   -0.24544E-04   -0.24573E-04  8112   0.966E-04 0.155E-05
CGA:  17    -0.320045004957E+03   -0.10710E-04   -0.10733E-04  8112   0.433E-04 0.816E-06
CGA:  18    -0.320045010493E+03   -0.55361E-05   -0.55417E-05  8112   0.152E-04 0.582E-06
  48 F= -.32004501E+03 E0= -.32004078E+03  d E =-.325177E-02  mag=    44.0000
       N       E                     dE             d eps       ncg     rms          ort
SDA:   1    -0.317048410477E+03    0.29966E+01    0.00000E+00  8112   0.742E+01 0.000E+00
CGA:   2    -0.319118080868E+03   -0.20697E+01   -0.20687E+01  8112   0.516E+01 0.171E-01
CGA:   3    -0.319688198695E+03   -0.57012E+00   -0.57229E+00  8112   0.243E+01-0.285E-01
CGA:   4    -0.319920270285E+03   -0.23207E+00   -0.22979E+00  8112   0.676E+00-0.383E-02
CGA:   5    -0.319998164462E+03   -0.77894E-01   -0.77826E-01  8112   0.220E+00-0.751E-03
CGA:   6    -0.320025355328E+03   -0.27191E-01   -0.27189E-01  8112   0.775E-01-0.593E-05
CGA:   7    -0.320036194360E+03   -0.10839E-01   -0.10839E-01  8112   0.259E-01 0.168E-03
CGA:   8    -0.320039384410E+03   -0.31900E-02   -0.31897E-02  8112   0.162E-01-0.959E-05
CGA:   9    -0.320040976991E+03   -0.15926E-02   -0.15944E-02  8112   0.500E-02 0.193E-05
CGA:  10    -0.320041827523E+03   -0.85053E-03   -0.85058E-03  8112   0.232E-02-0.171E-06
CGA:  11    -0.320042173968E+03   -0.34644E-03   -0.34630E-03  8112   0.140E-02 0.901E-05
CGA:  12    -0.320042357906E+03   -0.18394E-03   -0.18396E-03  8112   0.868E-03 0.262E-05
CGA:  13    -0.320042465258E+03   -0.10735E-03   -0.10738E-03  8112   0.458E-03 0.137E-05
CGA:  14    -0.320042529308E+03   -0.64051E-04   -0.64046E-04  8112   0.204E-03 0.162E-05
CGA:  15    -0.320042562418E+03   -0.33109E-04   -0.33074E-04  8112   0.877E-04 0.144E-05
CGA:  16    -0.320042573378E+03   -0.10960E-04   -0.10970E-04  8112   0.535E-04 0.695E-06
CGA:  17    -0.320042579083E+03   -0.57053E-05   -0.57155E-05  8112   0.177E-04 0.313E-06
  49 F= -.32004258E+03 E0= -.32003835E+03  d E =0.243141E-02  mag=    44.0000
       N       E                     dE             d eps       ncg     rms          ort
SDA:   1    -0.318904399630E+03    0.11382E+01    0.00000E+00  8112   0.300E+01 0.000E+00
CGA:   2    -0.319649314413E+03   -0.74491E+00   -0.74487E+00  8112   0.194E+01 0.647E-03
CGA:   3    -0.319890421888E+03   -0.24111E+00   -0.24149E+00  8112   0.116E+01 0.653E-02
CGA:   4    -0.319993693772E+03   -0.10327E+00   -0.10254E+00  8112   0.258E+00-0.378E-02
CGA:   5    -0.320029839063E+03   -0.36145E-01   -0.36144E-01  8112   0.745E-01 0.363E-03
CGA:   6    -0.320040129790E+03   -0.10291E-01   -0.10291E-01  8112   0.351E-01-0.105E-03
CGA:   7    -0.320043741998E+03   -0.36122E-02   -0.36096E-02  8112   0.138E-01-0.129E-04
CGA:   8    -0.320045354542E+03   -0.16125E-02   -0.16123E-02  8112   0.622E-02-0.968E-06
CGA:   9    -0.320046187505E+03   -0.83296E-03   -0.83299E-03  8112   0.194E-02 0.752E-05
CGA:  10    -0.320046511155E+03   -0.32365E-03   -0.32361E-03  8112   0.142E-02 0.174E-05
CGA:  11    -0.320046655199E+03   -0.14404E-03   -0.14410E-03  8112   0.599E-03 0.124E-05
CGA:  12    -0.320046750980E+03   -0.95781E-04   -0.95743E-04  8112   0.319E-03 0.145E-05
CGA:  13    -0.320046797227E+03   -0.46247E-04   -0.46245E-04  8112   0.185E-03 0.268E-06
CGA:  14    -0.320046821615E+03   -0.24388E-04   -0.24390E-04  8112   0.998E-04 0.374E-06
CGA:  15    -0.320046834378E+03   -0.12764E-04   -0.12766E-04  8112   0.521E-04 0.242E-06
CGA:  16    -0.320046840809E+03   -0.64308E-05   -0.64356E-05  8112   0.197E-04 0.361E-06
  50 F= -.32004684E+03 E0= -.32004267E+03  d E =-.426173E-02  mag=    44.0000
       N       E                     dE             d eps       ncg     rms          ort
SDA:   1    -0.319205657139E+03    0.84118E+00    0.00000E+00  8112   0.217E+01 0.000E+00
CGA:   2    -0.319759642527E+03   -0.55399E+00   -0.55340E+00  8112   0.155E+01 0.501E-02
CGA:   3    -0.319938127711E+03   -0.17849E+00   -0.17782E+00  8112   0.786E+00-0.858E-02
CGA:   4    -0.320012885627E+03   -0.74758E-01   -0.74667E-01  8112   0.214E+00-0.107E-02
CGA:   5    -0.320036600816E+03   -0.23715E-01   -0.23709E-01  8112   0.749E-01-0.348E-04
CGA:   6    -0.320045860927E+03   -0.92601E-02   -0.92605E-02  8112   0.233E-01 0.938E-05
CGA:   7    -0.320049273967E+03   -0.34130E-02   -0.34133E-02  8112   0.965E-02-0.133E-04
CGA:   8    -0.320050268771E+03   -0.99480E-03   -0.99476E-03  8112   0.505E-02 0.526E-06
CGA:   9    -0.320050872437E+03   -0.60367E-03   -0.60366E-03  8112   0.164E-02 0.162E-05
CGA:  10    -0.320051121570E+03   -0.24913E-03   -0.24905E-03  8112   0.839E-03 0.350E-05
CGA:  11    -0.320051239840E+03   -0.11827E-03   -0.11827E-03  8112   0.464E-03 0.107E-05
CGA:  12    -0.320051298075E+03   -0.58234E-04   -0.58242E-04  8112   0.285E-03 0.677E-06
CGA:  13    -0.320051333755E+03   -0.35681E-04   -0.35691E-04  8112   0.132E-03 0.885E-06
CGA:  14    -0.320051356427E+03   -0.22672E-04   -0.22655E-04  8112   0.613E-04 0.479E-06
CGA:  15    -0.320051364932E+03   -0.85045E-05   -0.85041E-05  8112   0.413E-04 0.233E-06
  51 F= -.32005136E+03 E0= -.32004717E+03  d E =-.452412E-02  mag=    44.0000
       N       E                     dE             d eps       ncg     rms          ort
SDA:   1    -0.319785772611E+03    0.26558E+00    0.00000E+00  8112   0.696E+00 0.000E+00
CGA:   2    -0.319958676150E+03   -0.17290E+00   -0.17290E+00  8112   0.539E+00-0.160E-03
CGA:   3    -0.320019317702E+03   -0.60642E-01   -0.60714E-01  8112   0.200E+00 0.104E-02
CGA:   4    -0.320042604568E+03   -0.23287E-01   -0.23285E-01  8112   0.762E-01-0.521E-04
CGA:   5    -0.320049264194E+03   -0.66596E-02   -0.66604E-02  8112   0.237E-01-0.257E-04
CGA:   6    -0.320052367908E+03   -0.31037E-02   -0.31033E-02  8112   0.721E-02-0.428E-04
CGA:   7    -0.320053432255E+03   -0.10643E-02   -0.10642E-02  8112   0.271E-02 0.714E-05
CGA:   8    -0.320053776252E+03   -0.34400E-03   -0.34398E-03  8112   0.138E-02 0.267E-06
CGA:   9    -0.320053922223E+03   -0.14597E-03   -0.14601E-03  8112   0.587E-03 0.106E-05
CGA:  10    -0.320053995792E+03   -0.73569E-04   -0.73577E-04  8112   0.281E-03 0.997E-06
CGA:  11    -0.320054040233E+03   -0.44441E-04   -0.44429E-04  8112   0.111E-03 0.507E-06
CGA:  12    -0.320054060063E+03   -0.19830E-04   -0.19809E-04  8112   0.958E-04 0.480E-06
CGA:  13    -0.320054069850E+03   -0.97877E-05   -0.97900E-05  8112   0.412E-04 0.616E-07
[...]
CGA:   3    -0.320015448564E+03   -0.89391E-01   -0.90134E-01  8112   0.282E+00 0.463E-02
CGA:   4    -0.320048155242E+03   -0.32707E-01   -0.32703E-01  8112   0.124E+00-0.132E-03
CGA:   5    -0.320058799507E+03   -0.10644E-01   -0.10655E-01  8112   0.296E-01-0.599E-04
CGA:   6    -0.320063292129E+03   -0.44926E-02   -0.44937E-02  8112   0.965E-02-0.414E-04
CGA:   7    -0.320064611098E+03   -0.13190E-02   -0.13190E-02  8112   0.441E-02 0.108E-04
CGA:   8    -0.320065106148E+03   -0.49505E-03   -0.49491E-03  8112   0.195E-02-0.116E-05
CGA:   9    -0.320065318190E+03   -0.21204E-03   -0.21210E-03  8112   0.840E-03 0.129E-05
CGA:  10    -0.320065431069E+03   -0.11288E-03   -0.11288E-03  8112   0.355E-03 0.167E-05
CGA:  11    -0.320065489972E+03   -0.58903E-04   -0.58873E-04  8112   0.169E-03 0.964E-06
CGA:  12    -0.320065513439E+03   -0.23467E-04   -0.23466E-04  8112   0.141E-03 0.453E-06
CGA:  13    -0.320065529671E+03   -0.16231E-04   -0.16233E-04  8112   0.495E-04 0.672E-07
CGA:  14    -0.320065538781E+03   -0.91101E-05   -0.90999E-05  8112   0.309E-04 0.207E-06
  68 F= -.32006554E+03 E0= -.32006131E+03  d E =0.422171E-03  mag=    44.0000
       N       E                     dE             d eps       ncg     rms          ort
SDA:   1    -0.319925479445E+03    0.14005E+00    0.00000E+00  8112   0.370E+00 0.000E+00
CGA:   2    -0.320009965518E+03   -0.84486E-01   -0.84489E-01  8112   0.351E+00 0.279E-04
CGA:   3    -0.320044995545E+03   -0.35030E-01   -0.35003E-01  8112   0.124E+00-0.161E-03
CGA:   4    -0.320057834837E+03   -0.12839E-01   -0.12853E-01  8112   0.514E-01 0.471E-04
CGA:   5    -0.320063557803E+03   -0.57230E-02   -0.57193E-02  8112   0.104E-01-0.345E-04
CGA:   6    -0.320065216180E+03   -0.16584E-02   -0.16586E-02  8112   0.365E-02-0.116E-04
CGA:   7    -0.320065658103E+03   -0.44192E-03   -0.44194E-03  8112   0.198E-02 0.883E-06
CGA:   8    -0.320065853370E+03   -0.19527E-03   -0.19536E-03  8112   0.742E-03 0.209E-05
CGA:   9    -0.320065956114E+03   -0.10274E-03   -0.10274E-03  8112   0.248E-03 0.130E-05
CGA:  10    -0.320065999616E+03   -0.43503E-04   -0.43498E-04  8112   0.141E-03 0.939E-07
CGA:  11    -0.320066015866E+03   -0.16250E-04   -0.16250E-04  8112   0.856E-04-0.879E-10
CGA:  12    -0.320066026853E+03   -0.10987E-04   -0.10988E-04  8112   0.418E-04 0.123E-06
CGA:  13    -0.320066033241E+03   -0.63885E-05   -0.63773E-05  8112   0.193E-04 0.635E-06
  69 F= -.32006603E+03 E0= -.32006180E+03  d E =-.494461E-03  mag=    44.0000
       N       E                     dE             d eps       ncg     rms          ort
SDA:   1    -0.319918939681E+03    0.14709E+00    0.00000E+00  8112   0.395E+00 0.000E+00
CGA:   2    -0.320009376473E+03   -0.90437E-01   -0.90310E-01  8112   0.346E+00 0.113E-02
CGA:   3    -0.320048897003E+03   -0.39521E-01   -0.39437E-01  8112   0.923E-01-0.602E-03
CGA:   4    -0.320062627960E+03   -0.13731E-01   -0.13728E-01  8112   0.272E-01 0.198E-03
CGA:   5    -0.320065648574E+03   -0.30206E-02   -0.30187E-02  8112   0.116E-01-0.184E-04
CGA:   6    -0.320066710848E+03   -0.10623E-02   -0.10621E-02  8112   0.431E-02-0.575E-05
CGA:   7    -0.320067310954E+03   -0.60011E-03   -0.60012E-03  8112   0.119E-02-0.453E-05
CGA:   8    -0.320067493026E+03   -0.18207E-03   -0.18202E-03  8112   0.569E-03 0.280E-05
CGA:   9    -0.320067564221E+03   -0.71196E-04   -0.71210E-04  8112   0.225E-03 0.112E-05
CGA:  10    -0.320067593400E+03   -0.29179E-04   -0.29179E-04  8112   0.171E-03 0.651E-08
CGA:  11    -0.320067612755E+03   -0.19355E-04   -0.19360E-04  8112   0.533E-04 0.226E-06
CGA:  12    -0.320067623754E+03   -0.10999E-04   -0.10964E-04  8112   0.345E-04 0.491E-06
CGA:  13    -0.320067628694E+03   -0.49398E-05   -0.49394E-05  8112   0.203E-04 0.170E-06
  70 F= -.32006763E+03 E0= -.32006338E+03  d E =-.159545E-02  mag=    44.0000
       N       E                     dE             d eps       ncg     rms          ort
SDA:   1    -0.318874084191E+03    0.11935E+01    0.00000E+00  8112   0.313E+01 0.000E+00
CGA:   2    -0.319606561968E+03   -0.73248E+00   -0.73732E+00  8112   0.318E+01-0.529E-01
CGA:   3    -0.319905217597E+03   -0.29866E+00   -0.30439E+00  8112   0.917E+00 0.277E-01
CGA:   4    -0.320009068621E+03   -0.10385E+00   -0.10365E+00  8112   0.436E+00-0.287E-02
CGA:   5    -0.320049786807E+03   -0.40718E-01   -0.40839E-01  8112   0.971E-01-0.129E-03
CGA:   6    -0.320063164712E+03   -0.13378E-01   -0.13378E-01  8112   0.322E-01-0.224E-03
CGA:   7    -0.320068240894E+03   -0.50762E-02   -0.50753E-02  8112   0.115E-01 0.256E-04
CGA:   8    -0.320069416872E+03   -0.11760E-02   -0.11765E-02  8112   0.701E-02 0.403E-05
CGA:   9    -0.320070261404E+03   -0.84453E-03   -0.84469E-03  8112   0.169E-02 0.505E-05
CGA:  10    -0.320070566136E+03   -0.30473E-03   -0.30469E-03  8112   0.117E-02 0.140E-05
CGA:  11    -0.320070710028E+03   -0.14389E-03   -0.14393E-03  8112   0.506E-03 0.228E-05
CGA:  12    -0.320070777702E+03   -0.67673E-04   -0.67682E-04  8112   0.411E-03 0.188E-05
CGA:  13    -0.320070832558E+03   -0.54856E-04   -0.54861E-04  8112   0.143E-03 0.981E-06
CGA:  14    -0.320070858458E+03   -0.25900E-04   -0.25878E-04  8112   0.848E-04 0.499E-06
CGA:  15    -0.320070869466E+03   -0.11008E-04   -0.11011E-04  8112   0.535E-04 0.312E-06
CGA:  16    -0.320070874837E+03   -0.53711E-05   -0.53870E-05  8112   0.156E-04 0.399E-06
  71 F= -.32007087E+03 E0= -.32006661E+03  d E =-.324614E-02  mag=    44.0000
       N       E                     dE             d eps       ncg     rms          ort
SDA:   1    -0.310166148226E+03    0.99047E+01    0.00000E+00  8112   0.271E+02 0.000E+00
CGA:   2    -0.315699494033E+03   -0.55333E+01   -0.55290E+01  8112   0.267E+02 0.328E+00
CGA:   3    -0.318503122648E+03   -0.28036E+01   -0.25228E+01  8112   0.757E+01 0.138E+00
CGA:   4    -0.319567275685E+03   -0.10642E+01   -0.10641E+01  8112   0.363E+01-0.211E+00
CGA:   5    -0.319850814099E+03   -0.28354E+00   -0.27434E+00  8112   0.145E+01 0.223E-01
CGA:   6    -0.319966062757E+03   -0.11525E+00   -0.12489E+00  8112   0.638E+00-0.664E-02
CGA:   7    -0.320016499666E+03   -0.50437E-01   -0.50726E-01  8112   0.346E+00-0.462E-02
CGA:   8    -0.320047827588E+03   -0.31328E-01   -0.31492E-01  8112   0.113E+00 0.206E-03
CGA:   9    -0.320059089952E+03   -0.11262E-01   -0.11597E-01  8112   0.826E-01 0.319E-02
CGA:  10    -0.320066156279E+03   -0.70663E-02   -0.71569E-02  8112   0.295E-01-0.218E-04
CGA:  11    -0.320069523945E+03   -0.33677E-02   -0.33773E-02  8112   0.146E-01 0.349E-03
CGA:  12    -0.320071847402E+03   -0.23235E-02   -0.23040E-02  8112   0.708E-02 0.435E-03
CGA:  13    -0.320072636500E+03   -0.78910E-03   -0.79277E-03  8112   0.541E-02 0.749E-04
CGA:  14    -0.320073315258E+03   -0.67876E-03   -0.67899E-03  8112   0.245E-02 0.648E-04
CGA:  15    -0.320073669140E+03   -0.35388E-03   -0.35362E-03  8112   0.124E-02 0.120E-04
CGA:  16    -0.320073849202E+03   -0.18006E-03   -0.17976E-03  8112   0.555E-03 0.120E-04
CGA:  17    -0.320073943509E+03   -0.94307E-04   -0.94160E-04  8112   0.199E-03 0.329E-05
CGA:  18    -0.320073972147E+03   -0.28638E-04   -0.28618E-04  8112   0.139E-03 0.142E-05
CGA:  19    -0.320073985668E+03   -0.13521E-04   -0.13556E-04  8112   0.549E-04 0.921E-06
CGA:  20    -0.320073993219E+03   -0.75511E-05   -0.75445E-05  8112   0.225E-04 0.827E-06
  72 F= -.32007399E+03 E0= -.32006965E+03  d E =-.311838E-02  mag=    44.0000
       N       E                     dE             d eps       ncg     rms          ort
SDA:   1    -0.310426348396E+03    0.96476E+01    0.00000E+00  8112   0.243E+02 0.000E+00
CGA:   2    -0.316769255722E+03   -0.63429E+01   -0.64189E+01  8112   0.226E+02-0.359E+00
CGA:   3    -0.318752898662E+03   -0.19836E+01   -0.19519E+01  8112   0.699E+01 0.155E+00
CGA:   4    -0.319651748295E+03   -0.89885E+00   -0.89715E+00  8112   0.280E+01-0.102E+00
CGA:   5    -0.319892994628E+03   -0.24125E+00   -0.23834E+00  8112   0.840E+00 0.433E-02
CGA:   6    -0.319997569014E+03   -0.10457E+00   -0.10466E+00  8112   0.284E+00 0.457E-02
CGA:   7    -0.320038104185E+03   -0.40535E-01   -0.40553E-01  8112   0.118E+00-0.956E-03
CGA:   8    -0.320049055567E+03   -0.10951E-01   -0.10999E-01  8112   0.688E-01 0.690E-04
CGA:   9    -0.320056887896E+03   -0.78323E-02   -0.78359E-02  8112   0.177E-01 0.680E-04
CGA:  10    -0.320060128876E+03   -0.32410E-02   -0.32331E-02  8112   0.107E-01 0.122E-03
CGA:  11    -0.320061523789E+03   -0.13949E-02   -0.13952E-02  8112   0.458E-02 0.696E-04
CGA:  12    -0.320062458115E+03   -0.93433E-03   -0.92764E-03  8112   0.210E-02 0.828E-04
CGA:  13    -0.320062871082E+03   -0.41297E-03   -0.41240E-03  8112   0.119E-02 0.847E-05
CGA:  14    -0.320063031304E+03   -0.16022E-03   -0.16025E-03  8112   0.886E-03 0.499E-05
CGA:  15    -0.320063120165E+03   -0.88862E-04   -0.89087E-04  8112   0.293E-03 0.445E-05
CGA:  16    -0.320063166405E+03   -0.46240E-04   -0.46142E-04  8112   0.143E-03 0.450E-05
CGA:  17    -0.320063185422E+03   -0.19016E-04   -0.19030E-04  8112   0.460E-04 0.212E-05
CGA:  18    -0.320063194117E+03   -0.86950E-05   -0.86834E-05  8112   0.249E-04 0.225E-06
  73 F= -.32006319E+03 E0= -.32005865E+03  d E =0.107991E-01  mag=    44.0000
       N       E                     dE             d eps       ncg     rms          ort
SDA:   1    -0.307188006856E+03    0.12875E+02    0.00000E+00  8112   0.335E+02 0.000E+00
CGA:   2    -0.314685302134E+03   -0.74973E+01   -0.79038E+01  8112   0.483E+02-0.375E+01
CGA:   3    -0.318099615778E+03   -0.34143E+01   -0.33530E+01  8112   0.959E+01 0.234E+01
CGA:   4    -0.319330589642E+03   -0.12310E+01   -0.12315E+01  8112   0.585E+01-0.731E-02
CGA:   5    -0.319774258397E+03   -0.44367E+00   -0.44457E+00  8112   0.158E+01 0.165E-01
CGA:   6    -0.319945643000E+03   -0.17138E+00   -0.17042E+00  8112   0.668E+00-0.879E-02
CGA:   7    -0.320014117255E+03   -0.68474E-01   -0.68697E-01  8112   0.350E+00 0.146E-02
CGA:   8    -0.320048125258E+03   -0.34008E-01   -0.34130E-01  8112   0.100E+00 0.688E-03
CGA:   9    -0.320063773977E+03   -0.15649E-01   -0.15638E-01  8112   0.540E-01 0.266E-03
CGA:  10    -0.320068890794E+03   -0.51168E-02   -0.51592E-02  8112   0.212E-01 0.125E-03
CGA:  11    -0.320072447956E+03   -0.35572E-02   -0.35522E-02  8112   0.145E-01 0.101E-03
CGA:  12    -0.320073820359E+03   -0.13724E-02   -0.13767E-02  8112   0.615E-02 0.227E-04
CGA:  13    -0.320074859636E+03   -0.10393E-02   -0.10376E-02  8112   0.432E-02 0.365E-04
CGA:  14    -0.320075408646E+03   -0.54901E-03   -0.54922E-03  8112   0.182E-02 0.192E-04
CGA:  15    -0.320075697465E+03   -0.28882E-03   -0.28856E-03  8112   0.106E-02 0.844E-05
CGA:  16    -0.320075842353E+03   -0.14489E-03   -0.14486E-03  8112   0.434E-03 0.811E-05
CGA:  17    -0.320075901776E+03   -0.59423E-04   -0.59413E-04  8112   0.197E-03 0.390E-05
CGA:  18    -0.320075928654E+03   -0.26878E-04   -0.26875E-04  8112   0.115E-03 0.194E-05
CGA:  19    -0.320075940570E+03   -0.11916E-04   -0.11949E-04  8112   0.416E-04 0.977E-06
CGA:  20    -0.320075947021E+03   -0.64509E-05   -0.64437E-05  8112   0.260E-04 0.311E-06
  74 F= -.32007595E+03 E0= -.32007165E+03  d E =-.127529E-01  mag=    44.0000
       N       E                     dE             d eps       ncg     rms          ort
SDA:   1    -0.305550526828E+03    0.14525E+02    0.00000E+00  8112   0.393E+02 0.000E+00
CGA:   2    -0.313976070919E+03   -0.84255E+01   -0.85860E+01  8112   0.433E+02-0.194E+01
CGA:   3    -0.317647180160E+03   -0.36711E+01   -0.36966E+01  8112   0.125E+02-0.105E+01
CGA:   4    -0.319259781646E+03   -0.16126E+01   -0.16112E+01  8112   0.532E+01-0.241E+00
CGA:   5    -0.319708048039E+03   -0.44827E+00   -0.44012E+00  8112   0.163E+01 0.255E-01
CGA:   6    -0.319909597421E+03   -0.20155E+00   -0.20196E+00  8112   0.501E+00 0.199E-01
CGA:   7    -0.319981348464E+03   -0.71751E-01   -0.71675E-01  8112   0.227E+00 0.458E-02
CGA:   8    -0.320001521259E+03   -0.20173E-01   -0.20368E-01  8112   0.141E+00-0.232E-04
CGA:   9    -0.320016699708E+03   -0.15178E-01   -0.15243E-01  8112   0.394E-01 0.888E-03
CGA:  10    -0.320022702372E+03   -0.60027E-02   -0.60008E-02  8112   0.231E-01 0.545E-04
CGA:  11    -0.320025980743E+03   -0.32784E-02   -0.32751E-02  8112   0.970E-02 0.170E-03
CGA:  12    -0.320027371576E+03   -0.13908E-02   -0.13885E-02  8112   0.839E-02 0.124E-03
CGA:  13    -0.320028235045E+03   -0.86347E-03   -0.86592E-03  8112   0.357E-02 0.259E-04
CGA:  14    -0.320028782768E+03   -0.54772E-03   -0.54709E-03  8112   0.184E-02 0.208E-04
CGA:  15    -0.320029070517E+03   -0.28775E-03   -0.28719E-03  8112   0.809E-03 0.172E-04
CGA:  16    -0.320029201507E+03   -0.13099E-03   -0.13076E-03  8112   0.319E-03 0.736E-05
CGA:  17    -0.320029256401E+03   -0.54893E-04   -0.54787E-04  8112   0.164E-03 0.277E-05
CGA:  18    -0.320029272688E+03   -0.16287E-04   -0.16322E-04  8112   0.923E-04 0.733E-06
CGA:  19    -0.320029285100E+03   -0.12412E-04   -0.12412E-04  8112   0.332E-04 0.831E-06
CGA:  20    -0.320029291173E+03   -0.60730E-05   -0.60561E-05  8112   0.148E-04 0.348E-06
  75 F= -.32002929E+03 E0= -.32002503E+03  d E =0.466558E-01  mag=    44.0000
       N       E                     dE             d eps       ncg     rms          ort
SDA:   1    -0.307350873511E+03    0.12678E+02    0.00000E+00  8112   0.345E+02 0.000E+00
CGA:   2    -0.314813535829E+03   -0.74627E+01   -0.73411E+01  8112   0.276E+02 0.167E+01
CGA:   3    -0.318065726220E+03   -0.32522E+01   -0.29052E+01  8112   0.108E+02-0.772E+00
CGA:   4    -0.319444136421E+03   -0.13784E+01   -0.13701E+01  8112   0.460E+01-0.378E+00
CGA:   5    -0.319787668778E+03   -0.34353E+00   -0.31853E+00  8112   0.183E+01 0.151E+00
CGA:   6    -0.319929206923E+03   -0.14154E+00   -0.15486E+00  8112   0.102E+01-0.319E-01
CGA:   7    -0.320002518970E+03   -0.73312E-01   -0.73318E-01  8112   0.399E+00-0.708E-02
CGA:   8    -0.320043568850E+03   -0.41050E-01   -0.41012E-01  8112   0.178E+00-0.547E-03
CGA:   9    -0.320057428975E+03   -0.13860E-01   -0.14659E-01  8112   0.110E+00-0.356E-03
CGA:  10    -0.320067998724E+03   -0.10570E-01   -0.10623E-01  8112   0.365E-01 0.338E-03
CGA:  11    -0.320072469216E+03   -0.44705E-02   -0.44746E-02  8112   0.188E-01 0.562E-03
CGA:  12    -0.320075395611E+03   -0.29264E-02   -0.28981E-02  8112   0.965E-02 0.709E-03
CGA:  13    -0.320076365587E+03   -0.96998E-03   -0.97415E-03  8112   0.671E-02 0.369E-04
CGA:  14    -0.320077330328E+03   -0.96474E-03   -0.96200E-03  8112   0.266E-02 0.102E-03
CGA:  15    -0.320077778502E+03   -0.44817E-03   -0.44701E-03  8112   0.145E-02 0.237E-04
CGA:  16    -0.320077981684E+03   -0.20318E-03   -0.20300E-03  8112   0.709E-03 0.122E-04
CGA:  17    -0.320078093117E+03   -0.11143E-03   -0.11125E-03  8112   0.319E-03 0.574E-05
CGA:  18    -0.320078124058E+03   -0.30940E-04   -0.31014E-04  8112   0.185E-03 0.180E-05
CGA:  19    -0.320078149685E+03   -0.25628E-04   -0.25608E-04  8112   0.561E-04 0.196E-05
CGA:  20    -0.320078159874E+03   -0.10189E-04   -0.10147E-04  8112   0.252E-04 0.824E-06
CGA:  21    -0.320078164139E+03   -0.42650E-05   -0.42692E-05  8112   0.152E-04-0.129E-06
  76 F= -.32007816E+03 E0= -.32007384E+03  d E =-.488730E-01  mag=    44.0000
       N       E                     dE             d eps       ncg     rms          ort
SDA:   1    -0.318368683634E+03    0.17095E+01    0.00000E+00  8112   0.495E+01 0.000E+00
CGA:   2    -0.319391802353E+03   -0.10231E+01   -0.10223E+01  8112   0.274E+01 0.107E-01
CGA:   3    -0.319817006324E+03   -0.42520E+00   -0.42594E+00  8112   0.150E+01-0.265E-01
CGA:   4    -0.319968005271E+03   -0.15100E+00   -0.15133E+00  8112   0.528E+00-0.136E-03
CGA:   5    -0.320021648568E+03   -0.53643E-01   -0.53460E-01  8112   0.206E+00-0.156E-02
CGA:   6    -0.320045038285E+03   -0.23390E-01   -0.23422E-01  8112   0.590E-01 0.428E-03
CGA:   7    -0.320053977368E+03   -0.89391E-02   -0.89413E-02  8112   0.209E-01-0.767E-04
CGA:   8    -0.320056583636E+03   -0.26063E-02   -0.26068E-02  8112   0.127E-01 0.280E-04
CGA:   9    -0.320057955505E+03   -0.13719E-02   -0.13719E-02  8112   0.481E-02 0.465E-05
CGA:  10    -0.320058561385E+03   -0.60588E-03   -0.60592E-03  8112   0.235E-02 0.340E-05
CGA:  11    -0.320058928538E+03   -0.36715E-03   -0.36708E-03  8112   0.960E-03 0.301E-05
CGA:  12    -0.320059065688E+03   -0.13715E-03   -0.13714E-03  8112   0.684E-03 0.136E-05
CGA:  13    -0.320059140857E+03   -0.75169E-04   -0.75210E-04  8112   0.307E-03 0.154E-05
CGA:  14    -0.320059186953E+03   -0.46095E-04   -0.46075E-04  8112   0.144E-03 0.120E-05
CGA:  15    -0.320059210719E+03   -0.23766E-04   -0.23750E-04  8112   0.815E-04 0.545E-06
CGA:  16    -0.320059220164E+03   -0.94447E-05   -0.94505E-05  8112   0.432E-04 0.276E-06
  77 F= -.32005922E+03 E0= -.32005485E+03  d E =0.189440E-01  mag=    44.0000
       N       E                     dE             d eps       ncg     rms          ort
SDA:   1    -0.317924811315E+03    0.21344E+01    0.00000E+00  8112   0.591E+01 0.000E+00
CGA:   2    -0.319267836524E+03   -0.13430E+01   -0.13507E+01  8112   0.410E+01-0.794E-01
CGA:   3    -0.319789034711E+03   -0.52120E+00   -0.52036E+00  8112   0.159E+01-0.155E-01
CGA:   4    -0.319990289255E+03   -0.20125E+00   -0.20135E+00  8112   0.489E+00 0.365E-02
CGA:   5    -0.320040265411E+03   -0.49976E-01   -0.49919E-01  8112   0.225E+00-0.943E-03
CGA:   6    -0.320062948576E+03   -0.22683E-01   -0.22686E-01  8112   0.681E-01 0.528E-06
CGA:   7    -0.320072387566E+03   -0.94390E-02   -0.94411E-02  8112   0.234E-01-0.240E-03
CGA:   8    -0.320075814689E+03   -0.34271E-02   -0.34253E-02  8112   0.109E-01 0.858E-04
CGA:   9    -0.320077078831E+03   -0.12641E-02   -0.12638E-02  8112   0.527E-02-0.539E-05
CGA:  10    -0.320077698074E+03   -0.61924E-03   -0.61946E-03  8112   0.280E-02 0.596E-05
CGA:  11    -0.320078058423E+03   -0.36035E-03   -0.36038E-03  8112   0.110E-02 0.481E-05
CGA:  12    -0.320078263425E+03   -0.20500E-03   -0.20486E-03  8112   0.583E-03 0.235E-05
CGA:  13    -0.320078337602E+03   -0.74177E-04   -0.74187E-04  8112   0.425E-03 0.100E-05
CGA:  14    -0.320078390877E+03   -0.53275E-04   -0.53285E-04  8112   0.186E-03 0.886E-06
CGA:  15    -0.320078416469E+03   -0.25592E-04   -0.25590E-04  8112   0.869E-04 0.874E-06
CGA:  16    -0.320078430044E+03   -0.13575E-04   -0.13565E-04  8112   0.400E-04 0.473E-06
CGA:  17    -0.320078434988E+03   -0.49437E-05   -0.49451E-05  8112   0.225E-04 0.112E-06
  78 F= -.32007843E+03 E0= -.32007413E+03  d E =-.192148E-01  mag=    44.0000
       N       E                     dE             d eps       ncg     rms          ort
SDA:   1    -0.319756631032E+03    0.32180E+00    0.00000E+00  8112   0.802E+00 0.000E+00
CGA:   2    -0.319972001981E+03   -0.21537E+00   -0.21550E+00  8112   0.690E+00-0.159E-02
CGA:   3    -0.320040041660E+03   -0.68040E-01   -0.68435E-01  8112   0.230E+00 0.206E-02
CGA:   4    -0.320064254911E+03   -0.24213E-01   -0.24183E-01  8112   0.944E-01-0.268E-03
CGA:   5    -0.320073544474E+03   -0.92896E-02   -0.92947E-02  8112   0.226E-01 0.499E-05
CGA:   6    -0.320076611757E+03   -0.30673E-02   -0.30674E-02  8112   0.829E-02-0.425E-04
CGA:   7    -0.320077824123E+03   -0.12124E-02   -0.12122E-02  8112   0.280E-02 0.872E-05
CGA:   8    -0.320078130934E+03   -0.30681E-03   -0.30680E-03  8112   0.164E-02 0.111E-05
CGA:   9    -0.320078316313E+03   -0.18538E-03   -0.18542E-03  8112   0.501E-03 0.137E-05
CGA:  10    -0.320078386338E+03   -0.70025E-04   -0.70023E-04  8112   0.286E-03 0.447E-06
CGA:  11    -0.320078431226E+03   -0.44888E-04   -0.44880E-04  8112   0.110E-03 0.336E-06
CGA:  12    -0.320078447284E+03   -0.16058E-04   -0.16052E-04  8112   0.107E-03 0.520E-06
CGA:  13    -0.320078459934E+03   -0.12651E-04   -0.12657E-04  8112   0.361E-04 0.352E-06
CGA:  14    -0.320078466076E+03   -0.61411E-05   -0.61349E-05  8112   0.196E-04 0.180E-06
  79 F= -.32007847E+03 E0= -.32007415E+03  d E =-.310880E-04  mag=    44.0000
