       N       E                     dE             d eps       ncg     rms          ort
DAV:   1     0.737051277501E+04    0.73705E+04   -0.35071E+05  9568   0.175E+03
DAV:   2     0.487591973148E+03   -0.68829E+04   -0.64563E+04  9568   0.514E+02
DAV:   3    -0.316832549618E+03   -0.80442E+03   -0.77978E+03  9568   0.196E+02
DAV:   4    -0.350403265465E+03   -0.33571E+02   -0.33135E+02  9568   0.385E+01
DAV:   5    -0.352550491935E+03   -0.21472E+01   -0.21168E+01  9568   0.748E+00
SDA:   6    -0.174253264755E+03    0.17830E+03   -0.21168E+01  9568   0.132E+04 0.000E+00
CGA:   7    -0.268290342715E+03   -0.94037E+02   -0.11663E+03  9568   0.177E+04-0.893E+02
CGA:   8    -0.268409496616E+03   -0.11915E+00   -0.72860E+02  9568   0.405E+03-0.523E+03
CGA:   9    -0.272961755727E+03   -0.45523E+01   -0.23307E+01  9568   0.365E+03 0.308E+03
CGA:  10    -0.280658204272E+03   -0.76964E+01   -0.41068E+01  9568   0.235E+03 0.247E+03
CGA:  11    -0.274281996415E+03    0.63762E+01   -0.90039E+01  9568   0.249E+04-0.294E+03
CGA:  12    -0.186925048903E+03    0.87357E+02   -0.16853E+03  9568   0.537E+04-0.131E+04
CGA:  13    -0.290436071935E+03   -0.10351E+03   -0.17544E+03  9568   0.386E+03-0.114E+04
CGA:  14    -0.294932482163E+03   -0.44964E+01   -0.49465E+01  9568   0.173E+03-0.283E+02
CGA:  15    -0.298950517649E+03   -0.40180E+01   -0.24691E+01  9568   0.106E+03 0.127E+03
CGA:  16    -0.301842896482E+03   -0.28924E+01   -0.23536E+01  9568   0.184E+03-0.150E+03
CGA:  17    -0.295781269184E+03    0.60616E+01   -0.83295E+01  9568   0.953E+03-0.117E+03
CGA:  18    -0.293102421599E+03    0.26788E+01   -0.39466E+02  9568   0.475E+03-0.121E+03
CGA:  19    -0.299478807626E+03   -0.63764E+01   -0.56622E+01  9568   0.169E+03 0.107E+03
CGA:  20    -0.300801668139E+03   -0.13229E+01   -0.30544E+01  9568   0.343E+03-0.242E+03
CGA:  21    -0.299272018247E+03    0.15296E+01   -0.15980E+02  9568   0.491E+03-0.345E+02
CGA:  22    -0.272674723078E+03    0.26597E+02   -0.11711E+02  9568   0.108E+04-0.180E+03
CGA:  23    -0.303467537817E+03   -0.30793E+02   -0.27443E+02  9568   0.128E+03-0.952E+01
CGA:  24    -0.307079997756E+03   -0.36125E+01   -0.31033E+01  9568   0.428E+02-0.408E+02
CGA:  25    -0.307587681545E+03   -0.50768E+00   -0.48493E+00  9568   0.194E+02-0.301E+01
CGA:  26    -0.308111631621E+03   -0.52395E+00   -0.43097E+00  9568   0.971E+01-0.102E+00
CGA:  27    -0.308337800726E+03   -0.22617E+00   -0.19399E+00  9568   0.844E+01 0.231E+01
CGA:  28    -0.308568953927E+03   -0.23115E+00   -0.15633E+00  9568   0.461E+01 0.438E+01
CGA:  29    -0.308658648305E+03   -0.89694E-01   -0.64275E-01  9568   0.194E+01 0.167E+01
CGA:  30    -0.308804421256E+03   -0.14577E+00   -0.13985E+00  9568   0.903E+01 0.196E-01
CGA:  31    -0.307327511963E+03    0.14769E+01   -0.29033E+00  9568   0.220E+03 0.178E+02
CGA:  32    -0.305428757450E+03    0.18988E+01   -0.66558E+01  9568   0.370E+03-0.111E+03
CGA:  33    -0.303394519062E+03    0.20342E+01   -0.12288E+02  9568   0.169E+03-0.737E+02
CGA:  34    -0.307010240480E+03   -0.36157E+01   -0.36433E+01  9568   0.177E+03-0.176E+03
CGA:  35    -0.307102791427E+03   -0.92551E-01   -0.39807E+01  9568   0.207E+03-0.149E+03
CGA:  36    -0.302429675984E+03    0.46731E+01   -0.52464E+01  9568   0.502E+03-0.161E+03
CGA:  37    -0.303199908168E+03   -0.77023E+00   -0.15224E+02  9568   0.131E+03-0.964E+02
CGA:  38    -0.307272554433E+03   -0.40726E+01   -0.25528E+01  9568   0.164E+03-0.148E+03
CGA:  39    -0.307543657772E+03   -0.27110E+00   -0.43418E+01  9568   0.187E+03-0.752E+02
CGA:  40    -0.307370446271E+03    0.17321E+00   -0.10438E+01  9568   0.185E+03-0.172E+03
CGA:  41    -0.308654863815E+03   -0.12844E+01   -0.39309E+01  9568   0.867E+02-0.591E+01
CGA:  42    -0.307509474426E+03    0.11454E+01   -0.14317E+01  9568   0.261E+03-0.121E+03
CGA:  43    -0.306623893980E+03    0.88558E+00   -0.58179E+01  9568   0.287E+03-0.135E+03
CGA:  44    -0.302408704728E+03    0.42152E+01   -0.60786E+01  9568   0.756E+03-0.177E+03
CGA:  45    -0.304100820720E+03   -0.16921E+01   -0.18388E+02  9568   0.198E+03-0.129E+03
CGA:  46    -0.307316723548E+03   -0.32159E+01   -0.33308E+01  9568   0.212E+03-0.169E+03
CGA:  47    -0.308770382850E+03   -0.14537E+01   -0.40003E+01  9568   0.133E+03-0.805E+02
CGA:  48    -0.309245122074E+03   -0.47474E+00   -0.51697E+00  9568   0.369E+02-0.226E+02
CGA:  49    -0.309596248530E+03   -0.35113E+00   -0.23123E+00  9568   0.286E+02 0.149E+02
CGA:  50    -0.309857095950E+03   -0.26085E+00   -0.19667E+00  9568   0.583E+01 0.119E+02
CGA:  51    -0.309901956089E+03   -0.44860E-01   -0.70849E-01  9568   0.191E+01-0.246E+01
CGA:  52    -0.309937250191E+03   -0.35294E-01   -0.35175E-01  9568   0.301E+01-0.500E-02
CGA:  53    -0.310014391406E+03   -0.77141E-01   -0.80379E-01  9568   0.429E+01 0.311E-01
CGA:  54    -0.310099531637E+03   -0.85140E-01   -0.60117E-01  9568   0.193E+01 0.166E+01
CGA:  55    -0.310146762310E+03   -0.47231E-01   -0.42537E-01  9568   0.921E+00 0.211E+00
CGA:  56    -0.310183549296E+03   -0.36787E-01   -0.36792E-01  9568   0.221E+01-0.250E-01
CGA:  57    -0.310208367432E+03   -0.24818E-01   -0.16035E-01  9568   0.160E+01 0.110E+01
CGA:  58    -0.310235430465E+03   -0.27063E-01   -0.21689E-01  9568   0.114E+01 0.566E+00
CGA:  59    -0.310257677734E+03   -0.22247E-01   -0.22688E-01  9568   0.132E+01 0.184E-01
CGA:  60    -0.310271600487E+03   -0.13923E-01   -0.11039E-01  9568   0.947E+00 0.331E+00
CGA:  61    -0.310284364133E+03   -0.12764E-01   -0.11708E-01  9568   0.936E+00 0.915E-01
CGA:  62    -0.310297722352E+03   -0.13358E-01   -0.12945E-01  9568   0.125E+01 0.355E-01
CGA:  63    -0.310309237213E+03   -0.11515E-01   -0.90639E-02  9568   0.838E+00 0.360E+00
CGA:  64    -0.310318991561E+03   -0.97543E-02   -0.93752E-02  9568   0.520E+00 0.531E-01
CGA:  65    -0.310327940360E+03   -0.89488E-02   -0.88706E-02  9568   0.801E+00 0.180E-02
CGA:  66    -0.310336379762E+03   -0.84394E-02   -0.73255E-02  9568   0.560E+00 0.100E+00
CGA:  67    -0.310342602332E+03   -0.62226E-02   -0.61565E-02  9568   0.502E+00 0.711E-02
CGA:  68    -0.310349797243E+03   -0.71949E-02   -0.71956E-02  9568   0.664E+00 0.157E-02
CGA:  69    -0.310356579353E+03   -0.67821E-02   -0.67291E-02  9568   0.393E+00 0.993E-02
CGA:  70    -0.310360719093E+03   -0.41397E-02   -0.42324E-02  9568   0.330E+00-0.682E-02
CGA:  71    -0.310366060828E+03   -0.53417E-02   -0.54780E-02  9568   0.373E+00 0.148E-02
CGA:  72    -0.310370443920E+03   -0.43831E-02   -0.44854E-02  9568   0.191E+00-0.559E-02
CGA:  73    -0.310373770403E+03   -0.33265E-02   -0.33663E-02  9568   0.240E+00 0.168E-03
CGA:  74    -0.310378819060E+03   -0.50487E-02   -0.50684E-02  9568   0.185E+00 0.896E-02
CGA:  75    -0.310381866896E+03   -0.30478E-02   -0.31379E-02  9568   0.919E-01 0.631E-03
CGA:  76    -0.310384855452E+03   -0.29886E-02   -0.28911E-02  9568   0.123E+00 0.646E-02
SDA:  77    -0.310388356598E+03   -0.35011E-02   -0.34848E-02  9568   0.563E-01 0.155E-02
CGA:  78    -0.310390476499E+03   -0.21199E-02   -0.20709E-02  9568   0.547E-01 0.273E-02
CGA:  79    -0.310393448219E+03   -0.29717E-02   -0.28888E-02  9568   0.766E-01 0.302E-02
CGA:  80    -0.310403105546E+03   -0.96573E-02   -0.87244E-02  9568   0.564E-01 0.129E-01
CGA:  81    -0.310404791189E+03   -0.16856E-02   -0.16888E-02  9568   0.265E-01 0.401E-03
CGA:  82    -0.310406189834E+03   -0.13986E-02   -0.13923E-02  9568   0.389E-01 0.261E-03
CGA:  83    -0.310407167443E+03   -0.97761E-03   -0.97815E-03  9568   0.183E-01-0.204E-04
CGA:  84    -0.310407882837E+03   -0.71539E-03   -0.71225E-03  9568   0.125E-01 0.233E-03
CGA:  85    -0.310408477271E+03   -0.59443E-03   -0.59189E-03  9568   0.956E-02 0.121E-03
CGA:  86    -0.310408987619E+03   -0.51035E-03   -0.50494E-03  9568   0.108E-01 0.224E-03
CGA:  87    -0.310409337329E+03   -0.34971E-03   -0.34971E-03  9568   0.883E-02-0.256E-04
CGA:  88    -0.310409631957E+03   -0.29463E-03   -0.29458E-03  9568   0.683E-02 0.207E-05
CGA:  89    -0.310410034558E+03   -0.40260E-03   -0.40082E-03  9568   0.713E-02 0.637E-04
CGA:  90    -0.310410396088E+03   -0.36153E-03   -0.36187E-03  9568   0.704E-02-0.204E-04
CGA:  91    -0.310410703375E+03   -0.30729E-03   -0.30765E-03  9568   0.805E-02-0.310E-04
CGA:  92    -0.310410920134E+03   -0.21676E-03   -0.21801E-03  9568   0.352E-02 0.334E-04
CGA:  93    -0.310411071365E+03   -0.15123E-03   -0.15125E-03  9568   0.344E-02-0.292E-05
CGA:  94    -0.310411368797E+03   -0.29743E-03   -0.29339E-03  9568   0.530E-02 0.885E-04
CGA:  95    -0.310411533571E+03   -0.16477E-03   -0.16442E-03  9568   0.328E-02-0.106E-04
CGA:  96    -0.310411634456E+03   -0.10089E-03   -0.10102E-03  9568   0.259E-02 0.131E-04
CGA:  97    -0.310411780205E+03   -0.14575E-03   -0.14523E-03  9568   0.262E-02 0.273E-04
CGA:  98    -0.310411929376E+03   -0.14917E-03   -0.14914E-03  9568   0.273E-02 0.498E-05
CGA:  99    -0.310412034608E+03   -0.10523E-03   -0.10523E-03  9568   0.213E-02 0.187E-04
CGA: 100    -0.310412091365E+03   -0.56757E-04   -0.57135E-04  9568   0.127E-02 0.153E-04
CGA: 101    -0.310412170277E+03   -0.78912E-04   -0.79269E-04  9568   0.196E-02-0.116E-04
CGA: 102    -0.310412289822E+03   -0.11954E-03   -0.11784E-03  9568   0.135E-02 0.728E-04
CGA: 103    -0.310412334805E+03   -0.44983E-04   -0.44870E-04  9568   0.126E-02 0.348E-05
CGA: 104    -0.310412393816E+03   -0.59011E-04   -0.58976E-04  9568   0.178E-02 0.777E-05
CGA: 105    -0.310412484505E+03   -0.90689E-04   -0.90066E-04  9568   0.117E-02 0.491E-04
CGA: 106    -0.310412541773E+03   -0.57268E-04   -0.57504E-04  9568   0.101E-02-0.182E-04
CGA: 107    -0.310412586019E+03   -0.44246E-04   -0.44207E-04  9568   0.118E-02 0.902E-05
SDA: 108    -0.310412632074E+03   -0.46055E-04   -0.46104E-04  9568   0.139E-02 0.123E-04
CGA: 109    -0.310412653693E+03   -0.21619E-04   -0.21532E-04  9568   0.386E-03 0.246E-06
CGA: 110    -0.310412676046E+03   -0.22353E-04   -0.22399E-04  9568   0.637E-03-0.289E-05
CGA: 111    -0.310412707862E+03   -0.31816E-04   -0.31822E-04  9568   0.883E-03-0.213E-05
CGA: 112    -0.310412815034E+03   -0.10717E-03   -0.11262E-03  9568   0.852E-03-0.712E-04
CGA: 113    -0.310412868255E+03   -0.53221E-04   -0.53271E-04  9568   0.630E-03-0.355E-05
CGA: 114    -0.310412888637E+03   -0.20382E-04   -0.20275E-04  9568   0.629E-03-0.444E-05
CGA: 115    -0.310412911034E+03   -0.22397E-04   -0.22341E-04  9568   0.401E-03-0.530E-05
CGA: 116    -0.310412931394E+03   -0.20360E-04   -0.20264E-04  9568   0.497E-03 0.939E-05
CGA: 117    -0.310412968800E+03   -0.37405E-04   -0.34670E-04  9568   0.105E-02 0.984E-04
CGA: 118    -0.310413153415E+03   -0.18462E-03    0.52438E-04  9568   0.409E-02 0.134E-02
CGA: 119    -0.310413226930E+03   -0.73515E-04   -0.73571E-04  9568   0.626E-03 0.218E-05
CGA: 120    -0.310413265535E+03   -0.38604E-04   -0.38605E-04  9568   0.654E-03 0.421E-06
CGA: 121    -0.310413296483E+03   -0.30948E-04   -0.30940E-04  9568   0.121E-02 0.613E-05
CGA: 122    -0.310413340372E+03   -0.43889E-04   -0.44724E-04  9568   0.742E-03 0.246E-04
CGA: 123    -0.310408930247E+03    0.44101E-02   -0.84512E-03  9568   0.346E+00-0.450E-01
CGA: 124    -0.310413766137E+03   -0.48359E-02   -0.47741E-02  9568   0.880E-02 0.353E-02
CGA: 125    -0.310414037220E+03   -0.27108E-03   -0.26990E-03  9568   0.470E-02 0.243E-04
CGA: 126    -0.310414130226E+03   -0.93006E-04   -0.93525E-04  9568   0.156E-02-0.261E-04
CGA: 127    -0.310414210221E+03   -0.79995E-04   -0.79919E-04  9568   0.109E-02-0.265E-05
CGA: 128    -0.310414287829E+03   -0.77608E-04   -0.77611E-04  9568   0.151E-02 0.147E-06
CGA: 129    -0.310414321218E+03   -0.33390E-04   -0.33380E-04  9568   0.387E-03-0.340E-05
CGA: 130    -0.310414340549E+03   -0.19330E-04   -0.19328E-04  9568   0.616E-03-0.552E-06
CGA: 131    -0.310414358179E+03   -0.17630E-04   -0.17626E-04  9568   0.374E-03-0.699E-06
CGA: 132    -0.310414400559E+03   -0.42380E-04   -0.42269E-04  9568   0.350E-03 0.208E-05
CGA: 133    -0.310414416544E+03   -0.15985E-04   -0.15987E-04  9568   0.625E-03-0.399E-06
CGA: 134    -0.310414439572E+03   -0.23027E-04   -0.23100E-04  9568   0.326E-03 0.135E-06
CGA: 135    -0.310414450048E+03   -0.10477E-04   -0.10540E-04  9568   0.241E-03 0.193E-06
CGA: 136    -0.310414458491E+03   -0.84426E-05   -0.84934E-05  9568   0.152E-03 0.171E-06
CGA: 137    -0.310414470399E+03   -0.11908E-04   -0.11877E-04  9568   0.889E-04 0.201E-05
CGA: 138    -0.310414472853E+03   -0.24542E-05   -0.24820E-05  9568   0.104E-03 0.673E-06
   1 F= -.31041447E+03 E0= -.31039171E+03  d E =-.310414E+03  mag=    24.4661
       N       E                     dE             d eps       ncg     rms          ort
SDA:   1    -0.310434590287E+03   -0.20120E-01    0.00000E+00  9568   0.368E+00 0.000E+00
CGA:   2    -0.310439270984E+03   -0.46807E-02   -0.51681E-02  9568   0.374E-01-0.300E-01
CGA:   3    -0.310440037026E+03   -0.76604E-03   -0.76703E-03  9568   0.182E-01-0.201E-04
CGA:   4    -0.310440895294E+03   -0.85827E-03   -0.85796E-03  9568   0.252E-01-0.221E-05
CGA:   5    -0.310442569925E+03   -0.16746E-02   -0.16743E-02  9568   0.142E-01 0.295E-04
CGA:   6    -0.310442985837E+03   -0.41591E-03   -0.41627E-03  9568   0.661E-02-0.101E-04
CGA:   7    -0.310443166157E+03   -0.18032E-03   -0.18047E-03  9568   0.347E-02-0.468E-05
CGA:   8    -0.310443281056E+03   -0.11490E-03   -0.11498E-03  9568   0.371E-02-0.315E-05
CGA:   9    -0.310443486266E+03   -0.20521E-03   -0.20523E-03  9568   0.138E-02-0.142E-04
CGA:  10    -0.310443525297E+03   -0.39030E-04   -0.39056E-04  9568   0.684E-03-0.120E-06
CGA:  11    -0.310443553347E+03   -0.28051E-04   -0.28056E-04  9568   0.561E-03 0.476E-06
CGA:  12    -0.310443568697E+03   -0.15349E-04   -0.15366E-04  9568   0.395E-03 0.710E-06
CGA:  13    -0.310443584296E+03   -0.15599E-04   -0.15624E-04  9568   0.211E-03 0.201E-05
CGA:  14    -0.310443593360E+03   -0.90642E-05   -0.90720E-05  9568   0.154E-03 0.100E-05
   2 F= -.31044359E+03 E0= -.31042084E+03  d E =-.291205E-01  mag=    24.4491
       N       E                     dE             d eps       ncg     rms          ort
SDA:   1    -0.306705787967E+03    0.37378E+01    0.00000E+00  9568   0.121E+02 0.000E+00
CGA:   2    -0.308511911880E+03   -0.18061E+01   -0.18418E+01  9568   0.784E+02-0.180E+00
CGA:   3    -0.310082755607E+03   -0.15708E+01   -0.16688E+01  9568   0.131E+02-0.528E+01
CGA:   4    -0.310344462359E+03   -0.26171E+00   -0.27391E+00  9568   0.612E+01-0.425E+00
CGA:   5    -0.310725830819E+03   -0.38137E+00   -0.38116E+00  9568   0.530E+01 0.131E-01
CGA:   6    -0.311001606376E+03   -0.27578E+00   -0.27571E+00  9568   0.267E+01-0.142E+00
CGA:   7    -0.311048193262E+03   -0.46587E-01   -0.44029E-01  9568   0.994E+00 0.108E+00
CGA:   8    -0.311112655429E+03   -0.64462E-01   -0.63838E-01  9568   0.120E+01 0.375E-01
CGA:   9    -0.311147477750E+03   -0.34822E-01   -0.34537E-01  9568   0.532E+00 0.356E-02
CGA:  10    -0.311163815171E+03   -0.16337E-01   -0.16129E-01  9568   0.374E+00 0.149E-02
CGA:  11    -0.311172449621E+03   -0.86344E-02   -0.85804E-02  9568   0.192E+00 0.133E-02
CGA:  12    -0.311182336561E+03   -0.98869E-02   -0.98918E-02  9568   0.136E+00-0.647E-03
CGA:  13    -0.311187691854E+03   -0.53553E-02   -0.53697E-02  9568   0.188E+00 0.585E-03
CGA:  14    -0.311192233848E+03   -0.45420E-02   -0.45094E-02  9568   0.677E-01 0.775E-03
CGA:  15    -0.311194826291E+03   -0.25924E-02   -0.25974E-02  9568   0.479E-01 0.232E-03
CGA:  16    -0.311196397941E+03   -0.15717E-02   -0.15739E-02  9568   0.357E-01 0.411E-04
CGA:  17    -0.311197974902E+03   -0.15770E-02   -0.15770E-02  9568   0.585E-01 0.469E-04
CGA:  18    -0.311199571994E+03   -0.15971E-02   -0.16049E-02  9568   0.196E-01-0.229E-04
CGA:  19    -0.311200915923E+03   -0.13439E-02   -0.13425E-02  9568   0.180E-01 0.557E-04
CGA:  20    -0.311201370294E+03   -0.45437E-03   -0.45625E-03  9568   0.143E-01-0.806E-05
CGA:  21    -0.311201966082E+03   -0.59579E-03   -0.59609E-03  9568   0.164E-01 0.606E-04
CGA:  22    -0.311202602419E+03   -0.63634E-03   -0.63622E-03  9568   0.146E-01 0.260E-05
CGA:  23    -0.311203336827E+03   -0.73441E-03   -0.73440E-03  9568   0.566E-02 0.775E-05
CGA:  24    -0.311203461870E+03   -0.12504E-03   -0.12513E-03  9568   0.507E-02 0.202E-05
CGA:  25    -0.311203845063E+03   -0.38319E-03   -0.38350E-03  9568   0.672E-02-0.747E-05
CGA:  26    -0.311204081903E+03   -0.23684E-03   -0.23707E-03  9568   0.419E-02 0.154E-04
CGA:  27    -0.311204215635E+03   -0.13373E-03   -0.13390E-03  9568   0.203E-02 0.742E-05
CGA:  28    -0.311204274246E+03   -0.58611E-04   -0.58680E-04  9568   0.238E-02 0.605E-05
CGA:  29    -0.311204400351E+03   -0.12610E-03   -0.12589E-03  9568   0.132E-02 0.205E-04
CGA:  30    -0.311204480106E+03   -0.79755E-04   -0.79629E-04  9568   0.165E-02 0.796E-05
CGA:  31    -0.311204526122E+03   -0.46016E-04   -0.46121E-04  9568   0.995E-03 0.496E-05
SDA:  32    -0.311204555884E+03   -0.29762E-04   -0.29780E-04  9568   0.761E-03 0.121E-05
CGA:  33    -0.311204569330E+03   -0.13446E-04   -0.13416E-04  9568   0.308E-03-0.124E-05
CGA:  34    -0.311204589432E+03   -0.20102E-04   -0.20210E-04  9568   0.776E-03-0.447E-05
CGA:  35    -0.311204618180E+03   -0.28748E-04   -0.28723E-04  9568   0.554E-03-0.546E-05
CGA:  36    -0.311204651522E+03   -0.33342E-04   -0.33490E-04  9568   0.251E-03-0.831E-05
CGA:  37    -0.311204664397E+03   -0.12874E-04   -0.12880E-04  9568   0.911E-04-0.698E-06
CGA:  38    -0.311204678102E+03   -0.13705E-04   -0.13351E-04  9568   0.225E-03 0.339E-05
CGA:  39    -0.311204685981E+03   -0.78796E-05   -0.78978E-05  9568   0.207E-03 0.113E-05
   3 F= -.31120469E+03 E0= -.31118209E+03  d E =-.761093E+00  mag=    24.4208
       N       E                     dE             d eps       ncg     rms          ort
SDA:   1    -0.291831047471E+03    0.19374E+02    0.00000E+00  9568   0.103E+03 0.000E+00
CGA:   2    -0.295285741693E+03   -0.34547E+01   -0.38234E+01  9568   0.883E+02 0.923E+01
CGA:   3    -0.303121646412E+03   -0.78359E+01   -0.91491E+01  9568   0.180E+03-0.889E+01
CGA:   4    -0.305998166302E+03   -0.28765E+01   -0.45937E+01  9568   0.190E+03-0.421E+01
CGA:   5    -0.308056836605E+03   -0.20587E+01   -0.25479E+01  9568   0.732E+02-0.119E+03
CGA:   6    -0.308609627668E+03   -0.55279E+00   -0.17111E+01  9568   0.657E+02-0.209E+02
CGA:   7    -0.309440982654E+03   -0.83135E+00   -0.49218E+00  9568   0.352E+02 0.282E+02
CGA:   8    -0.310044513285E+03   -0.60353E+00   -0.55360E+00  9568   0.183E+02-0.139E+01
CGA:   9    -0.310284825578E+03   -0.24031E+00   -0.25602E+00  9568   0.322E+02-0.846E+00
CGA:  10    -0.310997400314E+03   -0.71257E+00   -0.80298E+00  9568   0.207E+02 0.603E+00
CGA:  11    -0.311259523352E+03   -0.26212E+00   -0.25383E+00  9568   0.108E+02 0.171E+00
CGA:  12    -0.311384530053E+03   -0.12501E+00   -0.70720E-01  9568   0.792E+01 0.793E+01
CGA:  13    -0.311518493162E+03   -0.13396E+00   -0.12140E+00  9568   0.251E+01 0.550E+00
CGA:  14    -0.311567396566E+03   -0.48903E-01   -0.46770E-01  9568   0.147E+01 0.647E-01
CGA:  15    -0.311686043145E+03   -0.11865E+00   -0.11752E+00  9568   0.696E+01 0.258E-01
CGA:  16    -0.311838992880E+03   -0.15295E+00   -0.15310E+00  9568   0.171E+01-0.245E-01
CGA:  17    -0.311865905328E+03   -0.26912E-01   -0.27530E-01  9568   0.119E+01-0.279E-01
CGA:  18    -0.311902630678E+03   -0.36725E-01   -0.36910E-01  9568   0.115E+01 0.190E-01
CGA:  19    -0.311928510073E+03   -0.25879E-01   -0.25410E-01  9568   0.103E+01 0.302E-02
CGA:  20    -0.311974968222E+03   -0.46458E-01   -0.45839E-01  9568   0.135E+01 0.429E-01
CGA:  21    -0.311998422997E+03   -0.23455E-01   -0.24152E-01  9568   0.534E+00-0.212E-01
CGA:  22    -0.312016369955E+03   -0.17947E-01   -0.17941E-01  9568   0.173E+00 0.111E-01
CGA:  23    -0.312022101727E+03   -0.57318E-02   -0.57340E-02  9568   0.254E+00 0.666E-03
CGA:  24    -0.312030238824E+03   -0.81371E-02   -0.81458E-02  9568   0.143E+00 0.212E-02
CGA:  25    -0.312036163150E+03   -0.59243E-02   -0.58476E-02  9568   0.175E+00 0.747E-02
CGA:  26    -0.312041045093E+03   -0.48819E-02   -0.48507E-02  9568   0.871E-01-0.839E-03
CGA:  27    -0.312044028215E+03   -0.29831E-02   -0.29830E-02  9568   0.786E-01 0.113E-03
CGA:  28    -0.312046614903E+03   -0.25867E-02   -0.25888E-02  9568   0.870E-01 0.129E-02
CGA:  29    -0.312051575455E+03   -0.49606E-02   -0.50108E-02  9568   0.358E-01-0.198E-02
CGA:  30    -0.312053638898E+03   -0.20634E-02   -0.20530E-02  9568   0.644E-01 0.393E-03
CGA:  31    -0.312055183438E+03   -0.15445E-02   -0.15549E-02  9568   0.238E-01 0.293E-04
CGA:  32    -0.312056289764E+03   -0.11063E-02   -0.11067E-02  9568   0.342E-01-0.199E-04
CGA:  33    -0.312057512038E+03   -0.12223E-02   -0.12224E-02  9568   0.140E-01 0.242E-03
CGA:  34    -0.312058540017E+03   -0.10280E-02   -0.10298E-02  9568   0.141E-01-0.499E-04
CGA:  35    -0.312058824677E+03   -0.28466E-03   -0.28560E-03  9568   0.709E-02-0.534E-05
CGA:  36    -0.312059292460E+03   -0.46778E-03   -0.46665E-03  9568   0.112E-01 0.381E-04
CGA:  37    -0.312059822126E+03   -0.52967E-03   -0.52989E-03  9568   0.841E-02-0.645E-05
CGA:  38    -0.312060059268E+03   -0.23714E-03   -0.23694E-03  9568   0.404E-02 0.570E-05
CGA:  39    -0.312060270403E+03   -0.21113E-03   -0.21120E-03  9568   0.864E-02-0.314E-05
CGA:  40    -0.312060598215E+03   -0.32781E-03   -0.32786E-03  9568   0.431E-02 0.210E-04
CGA:  41    -0.312060936961E+03   -0.33875E-03   -0.33804E-03  9568   0.390E-02 0.170E-04
CGA:  42    -0.312061030325E+03   -0.93364E-04   -0.93523E-04  9568   0.293E-02 0.643E-08
SDA:  43    -0.312061171641E+03   -0.14132E-03   -0.14115E-03  9568   0.220E-02 0.162E-04
CGA:  44    -0.312061236872E+03   -0.65231E-04   -0.65245E-04  9568   0.176E-02 0.112E-05
CGA:  45    -0.312061287860E+03   -0.50988E-04   -0.51029E-04  9568   0.135E-02 0.366E-05
CGA:  46    -0.312061375140E+03   -0.87281E-04   -0.86867E-04  9568   0.196E-02 0.156E-04
CGA:  47    -0.312061443252E+03   -0.68111E-04   -0.68141E-04  9568   0.105E-02 0.445E-05
CGA:  48    -0.312061517994E+03   -0.74742E-04   -0.74676E-04  9568   0.371E-03 0.187E-05
CGA:  49    -0.312061564305E+03   -0.46311E-04   -0.47090E-04  9568   0.671E-03-0.951E-05
CGA:  50    -0.312061583305E+03   -0.19000E-04   -0.18951E-04  9568   0.538E-03-0.348E-05
CGA:  51    -0.312061599424E+03   -0.16118E-04   -0.16073E-04  9568   0.399E-03-0.187E-05
CGA:  52    -0.312061641214E+03   -0.41791E-04   -0.41690E-04  9568   0.892E-03 0.159E-05
CGA:  53    -0.312061673157E+03   -0.31943E-04   -0.32032E-04  9568   0.497E-03 0.387E-05
CGA:  54    -0.312061703695E+03   -0.30538E-04   -0.30480E-04  9568   0.264E-03 0.363E-05
CGA:  55    -0.312061713761E+03   -0.10065E-04   -0.10075E-04  9568   0.457E-03 0.113E-05
CGA:  56    -0.312061731341E+03   -0.17580E-04   -0.17604E-04  9568   0.184E-03 0.233E-05
CGA:  57    -0.312061753829E+03   -0.22488E-04   -0.22205E-04  9568   0.266E-03 0.385E-05
CGA:  58    -0.312061764696E+03   -0.10867E-04   -0.10895E-04  9568   0.134E-03 0.225E-05
CGA:  59    -0.312061769041E+03   -0.43450E-05   -0.43671E-05  9568   0.832E-04 0.131E-05
   4 F= -.31206177E+03 E0= -.31203983E+03  d E =-.857083E+00  mag=    24.3568
       N       E                     dE             d eps       ncg     rms          ort
SDA:   1    -0.287845129835E+03    0.24217E+02    0.00000E+00  9568   0.168E+03 0.000E+00
CGA:   2    -0.292911555377E+03   -0.50664E+01   -0.59398E+01  9568   0.919E+02 0.107E+02
CGA:   3    -0.298976174351E+03   -0.60646E+01   -0.77284E+01  9568   0.374E+03-0.168E+02
CGA:   4    -0.301792850640E+03   -0.28167E+01   -0.66921E+01  9568   0.160E+03-0.617E+02
CGA:   5    -0.307731068337E+03   -0.59382E+01   -0.37116E+01  9568   0.329E+02 0.413E+01
CGA:   6    -0.308681476219E+03   -0.95041E+00   -0.83788E+00  9568   0.349E+02 0.206E+01
CGA:   7    -0.309483438175E+03   -0.80196E+00   -0.81290E+00  9568   0.583E+02-0.108E+01
CGA:   8    -0.310759793826E+03   -0.12764E+01   -0.12976E+01  9568   0.250E+02 0.310E+00
CGA:   9    -0.311034723191E+03   -0.27493E+00   -0.41842E+00  9568   0.191E+02-0.716E+01
CGA:  10    -0.311559421081E+03   -0.52470E+00   -0.33699E+00  9568   0.104E+02 0.548E+01
CGA:  11    -0.311685408284E+03   -0.12599E+00   -0.99683E-01  9568   0.389E+01 0.280E+01
CGA:  12    -0.311751939175E+03   -0.66531E-01   -0.66074E-01  9568   0.539E+01-0.289E-02
CGA:  13    -0.311831253960E+03   -0.79315E-01   -0.74333E-01  9568   0.982E+01 0.266E+00
CGA:  14    -0.311948146782E+03   -0.11689E+00   -0.11552E+00  9568   0.123E+02 0.609E-02
CGA:  15    -0.312056443657E+03   -0.10830E+00   -0.10781E+00  9568   0.952E+01-0.298E-01
CGA:  16    -0.312119101648E+03   -0.62658E-01   -0.56943E-01  9568   0.563E+01 0.828E+00
CGA:  17    -0.312160396133E+03   -0.41294E-01   -0.41514E-01  9568   0.375E+01-0.544E-01
CGA:  18    -0.312188973060E+03   -0.28577E-01   -0.27912E-01  9568   0.357E+01 0.445E-01
CGA:  19    -0.312216710010E+03   -0.27737E-01   -0.24154E-01  9568   0.313E+01 0.455E+00
CGA:  20    -0.312237004595E+03   -0.20295E-01   -0.16025E-01  9568   0.193E+01 0.852E+00
CGA:  21    -0.312249834008E+03   -0.12829E-01   -0.11101E-01  9568   0.118E+01 0.343E+00
CGA:  22    -0.312258415001E+03   -0.85810E-02   -0.81869E-02  9568   0.141E+01 0.564E-01
CGA:  23    -0.312269010435E+03   -0.10595E-01   -0.10403E-01  9568   0.258E+01 0.193E-01
CGA:  24    -0.312285954273E+03   -0.16944E-01   -0.16815E-01  9568   0.399E+01 0.304E-02
CGA:  25    -0.312305339211E+03   -0.19385E-01   -0.20861E-01  9568   0.401E+01-0.295E+00
CGA:  26    -0.312319708633E+03   -0.14369E-01   -0.16316E-01  9568   0.340E+01-0.433E+00
CGA:  27    -0.312332011017E+03   -0.12302E-01   -0.12677E-01  9568   0.340E+01-0.900E-01
CGA:  28    -0.312348015954E+03   -0.16005E-01   -0.16064E-01  9568   0.401E+01-0.178E-01
CGA:  29    -0.312367430462E+03   -0.19415E-01   -0.19609E-01  9568   0.412E+01-0.467E-01
CGA:  30    -0.312383446185E+03   -0.16016E-01   -0.15150E-01  9568   0.278E+01 0.182E+00
CGA:  31    -0.312393026038E+03   -0.95799E-02   -0.89692E-02  9568   0.152E+01 0.164E+00
SDA:  32    -0.312398314728E+03   -0.52887E-02   -0.52643E-02  9568   0.986E+00 0.268E-02
CGA:  33    -0.312424068919E+03   -0.25754E-01   -0.26143E-01  9568   0.336E+00-0.356E-01
CGA:  34    -0.312437195030E+03   -0.13126E-01   -0.13084E-01  9568   0.520E+00 0.203E-02
CGA:  35    -0.312459024955E+03   -0.21830E-01   -0.21532E-01  9568   0.304E+00 0.138E-01
CGA:  36    -0.312469014967E+03   -0.99900E-02   -0.10079E-01  9568   0.327E+00-0.645E-02
CGA:  37    -0.312476740922E+03   -0.77260E-02   -0.77091E-02  9568   0.666E-01 0.326E-02
CGA:  38    -0.312480324810E+03   -0.35839E-02   -0.35803E-02  9568   0.743E-01 0.108E-03
CGA:  39    -0.312481933913E+03   -0.16091E-02   -0.16101E-02  9568   0.472E-01 0.483E-03
CGA:  40    -0.312484849005E+03   -0.29151E-02   -0.27975E-02  9568   0.614E-01 0.358E-02
CGA:  41    -0.312487078504E+03   -0.22295E-02   -0.22548E-02  9568   0.562E-01-0.204E-02
CGA:  42    -0.312488904083E+03   -0.18256E-02   -0.18204E-02  9568   0.250E-01 0.424E-03
CGA:  43    -0.312490220562E+03   -0.13165E-02   -0.12517E-02  9568   0.322E-01 0.260E-02
CGA:  44    -0.312491183688E+03   -0.96313E-03   -0.96367E-03  9568   0.177E-01-0.431E-03
CGA:  45    -0.312492223426E+03   -0.10397E-02   -0.10731E-02  9568   0.325E-01-0.108E-02
CGA:  46    -0.312492950249E+03   -0.72682E-03   -0.73131E-03  9568   0.148E-01 0.370E-03
CGA:  47    -0.312493626701E+03   -0.67645E-03   -0.66160E-03  9568   0.103E-01 0.771E-03
CGA:  48    -0.312494249042E+03   -0.62234E-03   -0.63381E-03  9568   0.225E-01-0.405E-03
CGA:  49    -0.312494765190E+03   -0.51615E-03   -0.51786E-03  9568   0.941E-02 0.983E-04
CGA:  50    -0.312495020081E+03   -0.25489E-03   -0.25585E-03  9568   0.686E-02 0.135E-03
CGA:  51    -0.312495261740E+03   -0.24166E-03   -0.24169E-03  9568   0.671E-02 0.124E-05
CGA:  52    -0.312495410992E+03   -0.14925E-03   -0.14918E-03  9568   0.394E-02 0.785E-05
CGA:  53    -0.312495602707E+03   -0.19171E-03   -0.19094E-03  9568   0.378E-02 0.373E-04
CGA:  54    -0.312495686103E+03   -0.83396E-04   -0.83495E-04  9568   0.329E-02 0.507E-05
CGA:  55    -0.312495870672E+03   -0.18457E-03   -0.18354E-03  9568   0.370E-02 0.364E-04
CGA:  56    -0.312495994338E+03   -0.12367E-03   -0.12364E-03  9568   0.484E-02 0.135E-04
CGA:  57    -0.312496121587E+03   -0.12725E-03   -0.12722E-03  9568   0.192E-02 0.518E-05
CGA:  58    -0.312496182641E+03   -0.61054E-04   -0.61047E-04  9568   0.192E-02 0.108E-04
CGA:  59    -0.312496268254E+03   -0.85613E-04   -0.85382E-04  9568   0.309E-02 0.149E-04
CGA:  60    -0.312496344886E+03   -0.76632E-04   -0.76685E-04  9568   0.142E-02 0.621E-05
CGA:  61    -0.312496418668E+03   -0.73782E-04   -0.73776E-04  9568   0.169E-02-0.178E-06
CGA:  62    -0.312496450313E+03   -0.31645E-04   -0.31649E-04  9568   0.834E-03 0.401E-06
SDA:  63    -0.312496486752E+03   -0.36439E-04   -0.36400E-04  9568   0.609E-03 0.200E-05
CGA:  64    -0.312496502356E+03   -0.15604E-04   -0.15608E-04  9568   0.417E-03 0.344E-06
CGA:  65    -0.312496517005E+03   -0.14649E-04   -0.14650E-04  9568   0.450E-03-0.562E-06
CGA:  66    -0.312496539063E+03   -0.22058E-04   -0.22067E-04  9568   0.440E-03-0.105E-05
CGA:  67    -0.312496558726E+03   -0.19663E-04   -0.19675E-04  9568   0.282E-03-0.128E-05
CGA:  68    -0.312496574535E+03   -0.15810E-04   -0.15825E-04  9568   0.126E-03-0.974E-06
CGA:  69    -0.312496588955E+03   -0.14419E-04   -0.14407E-04  9568   0.166E-03-0.630E-07
CGA:  70    -0.312496594817E+03   -0.58629E-05   -0.58623E-05  9568   0.229E-03-0.453E-06
   5 F= -.31249659E+03 E0= -.31247506E+03  d E =-.434826E+00  mag=    24.3285
       N       E                     dE             d eps       ncg     rms          ort
SDA:   1    -0.295291493691E+03    0.17205E+02    0.00000E+00  9568   0.113E+03 0.000E+00
CGA:   2    -0.298102007267E+03   -0.28105E+01   -0.31796E+01  9568   0.790E+02 0.454E+00
CGA:   3    -0.302766610734E+03   -0.46646E+01   -0.43685E+01  9568   0.143E+03 0.155E+02
CGA:   4    -0.305182614202E+03   -0.24160E+01   -0.38054E+01  9568   0.254E+03-0.358E+02
CGA:   5    -0.306912566978E+03   -0.17300E+01   -0.30930E+01  9568   0.906E+02-0.357E+02
CGA:   6    -0.309398099555E+03   -0.24855E+01   -0.20350E+01  9568   0.225E+02 0.180E+01
CGA:   7    -0.309768421935E+03   -0.37032E+00   -0.31945E+00  9568   0.257E+02 0.187E+01
CGA:   8    -0.310870297436E+03   -0.11019E+01   -0.10886E+01  9568   0.334E+02 0.191E+01
CGA:   9    -0.311298280212E+03   -0.42798E+00   -0.51297E+00  9568   0.385E+02-0.450E+01
CGA:  10    -0.311643955826E+03   -0.34568E+00   -0.24578E+00  9568   0.225E+02 0.119E+02
CGA:  11    -0.311864196828E+03   -0.22024E+00   -0.25496E+00  9568   0.131E+02-0.358E+01
CGA:  12    -0.311998831816E+03   -0.13463E+00   -0.10291E+00  9568   0.942E+01 0.294E+01
CGA:  13    -0.312071705111E+03   -0.72873E-01   -0.54816E-01  9568   0.394E+01 0.341E+01
CGA:  14    -0.312111987830E+03   -0.40283E-01   -0.41014E-01  9568   0.398E+01-0.110E+00
CGA:  15    -0.312153763730E+03   -0.41776E-01   -0.43144E-01  9568   0.862E+01-0.978E-01
CGA:  16    -0.312224708445E+03   -0.70945E-01   -0.70290E-01  9568   0.106E+02 0.242E-01
CGA:  17    -0.312292147915E+03   -0.67439E-01   -0.73535E-01  9568   0.756E+01-0.763E+00
CGA:  18    -0.312333602965E+03   -0.41455E-01   -0.35455E-01  9568   0.584E+01 0.101E+01
CGA:  19    -0.312374675927E+03   -0.41073E-01   -0.33810E-01  9568   0.578E+01 0.123E+01
CGA:  20    -0.312419392439E+03   -0.44717E-01   -0.44148E-01  9568   0.649E+01 0.241E-01
CGA:  21    -0.312449976377E+03   -0.30584E-01   -0.33476E-01  9568   0.453E+01-0.537E+00
CGA:  22    -0.312464922428E+03   -0.14946E-01   -0.14702E-01  9568   0.272E+01 0.354E-01
CGA:  23    -0.312476666124E+03   -0.11744E-01   -0.13213E-01  9568   0.264E+01-0.262E+00
CGA:  24    -0.312490571572E+03   -0.13905E-01   -0.14738E-01  9568   0.324E+01-0.861E-01
CGA:  25    -0.312505092378E+03   -0.14521E-01   -0.12751E-01  9568   0.217E+01 0.382E+00
CGA:  26    -0.312514719397E+03   -0.96270E-02   -0.99329E-02  9568   0.111E+01-0.686E-01
CGA:  27    -0.312519765368E+03   -0.50460E-02   -0.52825E-02  9568   0.104E+01-0.398E-01
CGA:  28    -0.312526765965E+03   -0.70006E-02   -0.70193E-02  9568   0.179E+01-0.262E-02
CGA:  29    -0.312540956426E+03   -0.14190E-01   -0.14307E-01  9568   0.318E+01-0.108E-01
CGA:  30    -0.312560026785E+03   -0.19070E-01   -0.20321E-01  9568   0.283E+01-0.131E+00
CGA:  31    -0.312571952320E+03   -0.11926E-01   -0.12747E-01  9568   0.144E+01-0.133E+00
SDA:  32    -0.312578961741E+03   -0.70094E-02   -0.75655E-02  9568   0.115E+01-0.678E-01
CGA:  33    -0.312610657438E+03   -0.31696E-01   -0.30893E-01  9568   0.539E+00 0.634E-01
CGA:  34    -0.312620329188E+03   -0.96717E-02   -0.96845E-02  9568   0.205E+00-0.432E-02
CGA:  35    -0.312630835477E+03   -0.10506E-01   -0.10361E-01  9568   0.194E+00 0.490E-02
CGA:  36    -0.312641512065E+03   -0.10677E-01   -0.10339E-01  9568   0.271E+00 0.110E-01
CGA:  37    -0.312650068473E+03   -0.85564E-02   -0.85072E-02  9568   0.150E+00 0.395E-02
CGA:  38    -0.312653984849E+03   -0.39164E-02   -0.39114E-02  9568   0.865E-01 0.582E-03
CGA:  39    -0.312656587482E+03   -0.26026E-02   -0.25855E-02  9568   0.331E-01 0.142E-02
CGA:  40    -0.312658464404E+03   -0.18769E-02   -0.18667E-02  9568   0.280E-01 0.325E-03
CGA:  41    -0.312659470074E+03   -0.10057E-02   -0.10008E-02  9568   0.368E-01 0.307E-03
CGA:  42    -0.312660695671E+03   -0.12256E-02   -0.12309E-02  9568   0.192E-01-0.414E-03
CGA:  43    -0.312661544853E+03   -0.84918E-03   -0.85169E-03  9568   0.225E-01-0.118E-03
CGA:  44    -0.312662535937E+03   -0.99108E-03   -0.97302E-03  9568   0.133E-01 0.866E-03
CGA:  45    -0.312662958197E+03   -0.42226E-03   -0.42138E-03  9568   0.159E-01 0.115E-03
CGA:  46    -0.312663725637E+03   -0.76744E-03   -0.76789E-03  9568   0.426E-02-0.244E-04
CGA:  47    -0.312663923724E+03   -0.19809E-03   -0.19771E-03  9568   0.784E-02 0.167E-04
CGA:  48    -0.312664212305E+03   -0.28858E-03   -0.28780E-03  9568   0.587E-02 0.686E-04
CGA:  49    -0.312664582709E+03   -0.37040E-03   -0.36904E-03  9568   0.608E-02 0.401E-04
CGA:  50    -0.312664762123E+03   -0.17941E-03   -0.17943E-03  9568   0.439E-02 0.232E-04
CGA:  51    -0.312664932114E+03   -0.16999E-03   -0.16964E-03  9568   0.360E-02 0.326E-04
CGA:  52    -0.312665064354E+03   -0.13224E-03   -0.13210E-03  9568   0.195E-02 0.189E-04
CGA:  53    -0.312665130439E+03   -0.66085E-04   -0.66049E-04  9568   0.117E-02 0.863E-05
CGA:  54    -0.312665171630E+03   -0.41191E-04   -0.41170E-04  9568   0.152E-02 0.428E-05
CGA:  55    -0.312665283816E+03   -0.11219E-03   -0.11190E-03  9568   0.126E-02 0.633E-05
CGA:  56    -0.312665327440E+03   -0.43624E-04   -0.43620E-04  9568   0.124E-02 0.260E-05
CGA:  57    -0.312665362788E+03   -0.35348E-04   -0.35357E-04  9568   0.445E-03 0.218E-05
CGA:  58    -0.312665393089E+03   -0.30302E-04   -0.30196E-04  9568   0.693E-03 0.288E-05
CGA:  59    -0.312665413889E+03   -0.20800E-04   -0.20803E-04  9568   0.639E-03 0.503E-06
CGA:  60    -0.312665460081E+03   -0.46192E-04   -0.46092E-04  9568   0.730E-03 0.270E-05
CGA:  61    -0.312665476999E+03   -0.16917E-04   -0.16914E-04  9568   0.175E-03 0.344E-06
CGA:  62    -0.312665484364E+03   -0.73654E-05   -0.73686E-05  9568   0.321E-03-0.571E-06
SDA:  63    -0.312665502675E+03   -0.18311E-04   -0.18360E-04  9568   0.226E-03-0.243E-05
CGA:  64    -0.312665508398E+03   -0.57237E-05   -0.57174E-05  9568   0.178E-03-0.355E-06
   6 F= -.31266551E+03 E0= -.31264398E+03  d E =-.168914E+00  mag=    24.3220
       N       E                     dE             d eps       ncg     rms          ort
SDA:   1    -0.288200430645E+03    0.24465E+02    0.00000E+00  9568   0.144E+03 0.000E+00
CGA:   2    -0.291467153089E+03   -0.32667E+01   -0.35709E+01  9568   0.127E+03-0.104E+02
CGA:   3    -0.297645389624E+03   -0.61782E+01   -0.66998E+01  9568   0.323E+03-0.279E+01
CGA:   4    -0.302045795751E+03   -0.44004E+01   -0.62957E+01  9568   0.253E+03-0.717E+02
CGA:   5    -0.306837301542E+03   -0.47915E+01   -0.48931E+01  9568   0.491E+02 0.593E+01
CGA:   6    -0.308115296497E+03   -0.12780E+01   -0.13071E+01  9568   0.677E+02-0.220E+01
CGA:   7    -0.309155945758E+03   -0.10406E+01   -0.91594E+00  9568   0.399E+02-0.131E+00
CGA:   8    -0.310408680586E+03   -0.12527E+01   -0.12677E+01  9568   0.473E+02 0.365E+01
CGA:   9    -0.311325876615E+03   -0.91720E+00   -0.99390E+00  9568   0.283E+02-0.214E+01
CGA:  10    -0.311671542063E+03   -0.34567E+00   -0.28508E+00  9568   0.128E+02 0.354E+01
CGA:  11    -0.311878096209E+03   -0.20655E+00   -0.20780E+00  9568   0.128E+02-0.297E+00
CGA:  12    -0.312030877151E+03   -0.15278E+00   -0.13274E+00  9568   0.841E+01 0.138E+01
CGA:  13    -0.312121783115E+03   -0.90906E-01   -0.87548E-01  9568   0.727E+01 0.163E+00
CGA:  14    -0.312212208752E+03   -0.90426E-01   -0.84199E-01  9568   0.842E+01 0.330E+00
CGA:  15    -0.312282634862E+03   -0.70426E-01   -0.63915E-01  9568   0.648E+01 0.651E+00
CGA:  16    -0.312335796476E+03   -0.53162E-01   -0.52459E-01  9568   0.609E+01 0.167E-01
CGA:  17    -0.312388928834E+03   -0.53132E-01   -0.51926E-01  9568   0.857E+01 0.661E-01
CGA:  18    -0.312465867800E+03   -0.76939E-01   -0.85197E-01  9568   0.115E+02-0.696E+00
CGA:  19    -0.312531254251E+03   -0.65386E-01   -0.60636E-01  9568   0.611E+01 0.636E+00
CGA:  20    -0.312560563279E+03   -0.29309E-01   -0.27238E-01  9568   0.261E+01 0.373E+00
CGA:  21    -0.312575603225E+03   -0.15040E-01   -0.15204E-01  9568   0.211E+01-0.363E-01
CGA:  22    -0.312589483630E+03   -0.13880E-01   -0.13240E-01  9568   0.231E+01 0.745E-01
CGA:  23    -0.312603035392E+03   -0.13552E-01   -0.12581E-01  9568   0.197E+01 0.146E+00
CGA:  24    -0.312614039367E+03   -0.11004E-01   -0.11615E-01  9568   0.177E+01-0.965E-01
CGA:  25    -0.312624291723E+03   -0.10252E-01   -0.11686E-01  9568   0.228E+01-0.155E+00
CGA:  26    -0.312640313322E+03   -0.16022E-01   -0.18684E-01  9568   0.299E+01-0.162E+00
CGA:  27    -0.312662417655E+03   -0.22104E-01   -0.21843E-01  9568   0.218E+01 0.379E-01
CGA:  28    -0.312677141010E+03   -0.14723E-01   -0.12191E-01  9568   0.163E+01 0.361E+00
CGA:  29    -0.312689488456E+03   -0.12347E-01   -0.10693E-01  9568   0.167E+01 0.224E+00
CGA:  30    -0.312700978853E+03   -0.11490E-01   -0.11000E-01  9568   0.205E+01 0.631E-01
CGA:  31    -0.312711783123E+03   -0.10804E-01   -0.11458E-01  9568   0.210E+01-0.852E-01
SDA:  32    -0.312720480710E+03   -0.86976E-02   -0.10183E-01  9568   0.165E+01-0.207E+00
CGA:  33    -0.312744970014E+03   -0.24489E-01   -0.24493E-01  9568   0.187E+00 0.456E-01
CGA:  34    -0.312753335300E+03   -0.83653E-02   -0.85467E-02  9568   0.272E+00-0.708E-02
CGA:  35    -0.312761256854E+03   -0.79216E-02   -0.77728E-02  9568   0.296E+00 0.104E-01
CGA:  36    -0.312778254297E+03   -0.16997E-01   -0.16963E-01  9568   0.117E+00 0.984E-03
CGA:  37    -0.312782629302E+03   -0.43750E-02   -0.43572E-02  9568   0.720E-01 0.969E-03
CGA:  38    -0.312785084512E+03   -0.24552E-02   -0.24199E-02  9568   0.891E-01 0.235E-02
CGA:  39    -0.312788326586E+03   -0.32421E-02   -0.32701E-02  9568   0.440E-01-0.169E-02
CGA:  40    -0.312789678918E+03   -0.13523E-02   -0.13491E-02  9568   0.253E-01 0.270E-03
CGA:  41    -0.312791141211E+03   -0.14623E-02   -0.14529E-02  9568   0.267E-01 0.262E-03
CGA:  42    -0.312792378797E+03   -0.12376E-02   -0.12236E-02  9568   0.384E-01 0.624E-03
CGA:  43    -0.312793510338E+03   -0.11315E-02   -0.11341E-02  9568   0.244E-01-0.385E-03
CGA:  44    -0.312795010543E+03   -0.15002E-02   -0.14632E-02  9568   0.105E-01 0.110E-02
CGA:  45    -0.312795492822E+03   -0.48228E-03   -0.48218E-03  9568   0.146E-01 0.571E-05
CGA:  46    -0.312795897860E+03   -0.40504E-03   -0.40499E-03  9568   0.873E-02 0.102E-03
CGA:  47    -0.312796408562E+03   -0.51070E-03   -0.50970E-03  9568   0.717E-02 0.302E-04
CGA:  48    -0.312796839241E+03   -0.43068E-03   -0.42647E-03  9568   0.475E-02 0.138E-03
CGA:  49    -0.312796967921E+03   -0.12868E-03   -0.12867E-03  9568   0.450E-02 0.590E-05
CGA:  50    -0.312797205831E+03   -0.23791E-03   -0.23659E-03  9568   0.403E-02 0.561E-04
CGA:  51    -0.312797349605E+03   -0.14377E-03   -0.14381E-03  9568   0.227E-02-0.715E-06
CGA:  52    -0.312797473739E+03   -0.12413E-03   -0.12344E-03  9568   0.190E-02 0.283E-04
CGA:  53    -0.312797530221E+03   -0.56483E-04   -0.56507E-04  9568   0.159E-02 0.605E-05
CGA:  54    -0.312797585720E+03   -0.55498E-04   -0.55477E-04  9568   0.118E-02 0.855E-05
CGA:  55    -0.312797670550E+03   -0.84830E-04   -0.84364E-04  9568   0.759E-03 0.117E-04
CGA:  56    -0.312797705805E+03   -0.35255E-04   -0.35182E-04  9568   0.118E-02 0.551E-05
CGA:  57    -0.312797738281E+03   -0.32476E-04   -0.32484E-04  9568   0.547E-03 0.262E-05
CGA:  58    -0.312797775561E+03   -0.37280E-04   -0.37179E-04  9568   0.643E-03 0.277E-05
CGA:  59    -0.312797806096E+03   -0.30535E-04   -0.30576E-04  9568   0.637E-03-0.315E-05
CGA:  60    -0.312797827953E+03   -0.21857E-04   -0.21855E-04  9568   0.521E-03-0.205E-05
CGA:  61    -0.312797842684E+03   -0.14731E-04   -0.14704E-04  9568   0.296E-03-0.338E-05
CGA:  62    -0.312797856835E+03   -0.14150E-04   -0.14185E-04  9568   0.196E-03-0.318E-05
SDA:  63    -0.312797868492E+03   -0.11657E-04   -0.11747E-04  9568   0.252E-03-0.400E-05
CGA:  64    -0.312797872626E+03   -0.41344E-05   -0.41342E-05  9568   0.103E-03-0.139E-07
   7 F= -.31279787E+03 E0= -.31277611E+03  d E =-.132364E+00  mag=    24.3219
       N       E                     dE             d eps       ncg     rms          ort
SDA:   1    -0.257285917206E+03    0.55512E+02    0.00000E+00  9568   0.352E+03 0.000E+00
CGA:   2    -0.268837824193E+03   -0.11552E+02   -0.11863E+02  9568   0.231E+03 0.237E+02
CGA:   3    -0.282696331318E+03   -0.13859E+02   -0.12425E+02  9568   0.353E+03 0.107E+03
CGA:   4    -0.287464710205E+03   -0.47684E+01   -0.11326E+02  9568   0.284E+03 0.469E+02
CGA:   5    -0.300327198976E+03   -0.12862E+02   -0.13236E+02  9568   0.138E+03-0.358E+02
CGA:   6    -0.304930039294E+03   -0.46028E+01   -0.51175E+01  9568   0.951E+02-0.659E+02
CGA:   7    -0.307542171800E+03   -0.26121E+01   -0.31741E+01  9568   0.105E+03-0.188E+02
CGA:   8    -0.309239297379E+03   -0.16971E+01   -0.18816E+01  9568   0.161E+02-0.366E+01
CGA:   9    -0.310606871808E+03   -0.13676E+01   -0.13817E+01  9568   0.218E+02-0.341E+00
CGA:  10    -0.311486289726E+03   -0.87942E+00   -0.88187E+00  9568   0.149E+02-0.179E+01
CGA:  11    -0.311799426525E+03   -0.31314E+00   -0.28523E+00  9568   0.613E+01 0.648E+00
CGA:  12    -0.312042792434E+03   -0.24337E+00   -0.24432E+00  9568   0.539E+01 0.289E+00
CGA:  13    -0.312175959688E+03   -0.13317E+00   -0.11912E+00  9568   0.449E+01 0.298E+00
CGA:  14    -0.312366127360E+03   -0.19017E+00   -0.19249E+00  9568   0.773E+01-0.671E+00
CGA:  15    -0.312468735944E+03   -0.10261E+00   -0.10424E+00  9568   0.769E+01-0.116E+00
CGA:  16    -0.312557542878E+03   -0.88807E-01   -0.79342E-01  9568   0.374E+01 0.815E+00
CGA:  17    -0.312612040374E+03   -0.54497E-01   -0.58625E-01  9568   0.268E+01-0.197E+00
CGA:  18    -0.312644352974E+03   -0.32313E-01   -0.33533E-01  9568   0.164E+01-0.693E-01
CGA:  19    -0.312669962727E+03   -0.25610E-01   -0.26636E-01  9568   0.182E+01-0.342E-01
CGA:  20    -0.312711086959E+03   -0.41124E-01   -0.41671E-01  9568   0.230E+01 0.105E-02
CGA:  21    -0.312746820083E+03   -0.35733E-01   -0.34394E-01  9568   0.129E+01 0.554E-01
CGA:  22    -0.312769419576E+03   -0.22599E-01   -0.21314E-01  9568   0.131E+01 0.390E-01
CGA:  23    -0.312791373030E+03   -0.21953E-01   -0.21811E-01  9568   0.128E+01 0.766E-02
CGA:  24    -0.312808858733E+03   -0.17486E-01   -0.19542E-01  9568   0.646E+00-0.587E-01
CGA:  25    -0.312818343571E+03   -0.94848E-02   -0.97811E-02  9568   0.487E+00-0.771E-02
CGA:  26    -0.312829633178E+03   -0.11290E-01   -0.11305E-01  9568   0.400E+00 0.802E-03
CGA:  27    -0.312836805120E+03   -0.71719E-02   -0.71520E-02  9568   0.328E+00 0.186E-03
CGA:  28    -0.312845814616E+03   -0.90095E-02   -0.90061E-02  9568   0.437E+00-0.254E-02
CGA:  29    -0.312853801620E+03   -0.79870E-02   -0.82248E-02  9568   0.245E+00 0.717E-03
CGA:  30    -0.312858795539E+03   -0.49939E-02   -0.50228E-02  9568   0.219E+00 0.717E-03
CGA:  31    -0.312864078109E+03   -0.52826E-02   -0.52605E-02  9568   0.137E+00-0.241E-02
SDA:  32    -0.312866250399E+03   -0.21723E-02   -0.21799E-02  9568   0.835E-01-0.110E-03
CGA:  33    -0.312869429585E+03   -0.31792E-02   -0.31799E-02  9568   0.425E-01-0.517E-04
CGA:  34    -0.312872035191E+03   -0.26056E-02   -0.25870E-02  9568   0.881E-01 0.575E-03
CGA:  35    -0.312876417023E+03   -0.43818E-02   -0.43663E-02  9568   0.654E-01 0.668E-03
CGA:  36    -0.312878337199E+03   -0.19202E-02   -0.19213E-02  9568   0.478E-01 0.807E-03
CGA:  37    -0.312879524452E+03   -0.11873E-02   -0.11861E-02  9568   0.144E-01-0.694E-04
CGA:  38    -0.312880672009E+03   -0.11476E-02   -0.11369E-02  9568   0.110E-01 0.239E-03
CGA:  39    -0.312881092707E+03   -0.42070E-03   -0.42044E-03  9568   0.154E-01 0.307E-04
CGA:  40    -0.312881686159E+03   -0.59345E-03   -0.59236E-03  9568   0.104E-01 0.119E-03
CGA:  41    -0.312882048882E+03   -0.36272E-03   -0.36260E-03  9568   0.621E-02 0.345E-04
CGA:  42    -0.312882330218E+03   -0.28134E-03   -0.28120E-03  9568   0.830E-02 0.843E-05
CGA:  43    -0.312883031471E+03   -0.70125E-03   -0.71415E-03  9568   0.110E-01-0.284E-03
CGA:  44    -0.312883197163E+03   -0.16569E-03   -0.16778E-03  9568   0.173E-02-0.826E-04
CGA:  45    -0.312883371420E+03   -0.17426E-03   -0.17563E-03  9568   0.198E-02-0.226E-04
CGA:  46    -0.312883493211E+03   -0.12179E-03   -0.12160E-03  9568   0.425E-02 0.510E-05
CGA:  47    -0.312883633007E+03   -0.13980E-03   -0.13948E-03  9568   0.219E-02-0.217E-04
CGA:  48    -0.312883695489E+03   -0.62482E-04   -0.62512E-04  9568   0.135E-02-0.286E-05
CGA:  49    -0.312883744557E+03   -0.49068E-04   -0.49059E-04  9568   0.689E-03-0.349E-05
CGA:  50    -0.312883797789E+03   -0.53231E-04   -0.53194E-04  9568   0.910E-03 0.571E-06
CGA:  51    -0.312883836773E+03   -0.38984E-04   -0.38989E-04  9568   0.144E-02-0.124E-05
CGA:  52    -0.312883878350E+03   -0.41577E-04   -0.41638E-04  9568   0.301E-03 0.784E-06
CGA:  53    -0.312883894500E+03   -0.16150E-04   -0.16143E-04  9568   0.481E-03 0.268E-06
CGA:  54    -0.312883914201E+03   -0.19701E-04   -0.19701E-04  9568   0.163E-03-0.103E-06
CGA:  55    -0.312883923362E+03   -0.91604E-05   -0.91610E-05  9568   0.359E-03-0.227E-06
CGA:  56    -0.312883936159E+03   -0.12797E-04   -0.12803E-04  9568   0.301E-03 0.193E-06
CGA:  57    -0.312883948962E+03   -0.12803E-04   -0.12804E-04  9568   0.882E-04-0.607E-06
CGA:  58    -0.312883953278E+03   -0.43158E-05   -0.43110E-05  9568   0.117E-03 0.424E-06
   8 F= -.31288395E+03 E0= -.31286142E+03  d E =-.860807E-01  mag=    24.5236
       N       E                     dE             d eps       ncg     rms          ort
SDA:   1    -0.306623124720E+03    0.62608E+01    0.00000E+00  9568   0.243E+02 0.000E+00
CGA:   2    -0.307847477600E+03   -0.12244E+01   -0.11842E+01  9568   0.505E+02 0.360E+01
CGA:   3    -0.309968067724E+03   -0.21206E+01   -0.21286E+01  9568   0.404E+02 0.235E+00
CGA:   4    -0.311098213944E+03   -0.11301E+01   -0.12015E+01  9568   0.247E+02 0.411E-01
CGA:   5    -0.311623166440E+03   -0.52495E+00   -0.51883E+00  9568   0.888E+01-0.697E-01
CGA:   6    -0.312093238002E+03   -0.47007E+00   -0.46385E+00  9568   0.129E+02 0.393E+00
CGA:   7    -0.312559324532E+03   -0.46609E+00   -0.45241E+00  9568   0.443E+01-0.583E+00
CGA:   8    -0.312728026385E+03   -0.16870E+00   -0.16865E+00  9568   0.160E+01-0.832E-01
CGA:   9    -0.312812051212E+03   -0.84025E-01   -0.84120E-01  9568   0.200E+01-0.369E-02
CGA:  10    -0.312876988722E+03   -0.64938E-01   -0.64585E-01  9568   0.966E+00-0.114E-01
CGA:  11    -0.312902087826E+03   -0.25099E-01   -0.25225E-01  9568   0.549E+00-0.627E-03
CGA:  12    -0.312915119272E+03   -0.13031E-01   -0.12965E-01  9568   0.275E+00 0.548E-03
CGA:  13    -0.312931788553E+03   -0.16669E-01   -0.16268E-01  9568   0.199E+00 0.164E-01
CGA:  14    -0.312939758405E+03   -0.79699E-02   -0.79709E-02  9568   0.164E+00 0.272E-03
CGA:  15    -0.312947016712E+03   -0.72583E-02   -0.72411E-02  9568   0.750E-01 0.250E-02
CGA:  16    -0.312949977206E+03   -0.29605E-02   -0.29609E-02  9568   0.733E-01 0.218E-03
CGA:  17    -0.312952172066E+03   -0.21949E-02   -0.22108E-02  9568   0.689E-01 0.315E-03
CGA:  18    -0.312955291568E+03   -0.31195E-02   -0.31156E-02  9568   0.439E-01 0.460E-03
CGA:  19    -0.312956689425E+03   -0.13979E-02   -0.14006E-02  9568   0.232E-01 0.100E-03
CGA:  20    -0.312958243218E+03   -0.15538E-02   -0.15503E-02  9568   0.228E-01 0.111E-03
CGA:  21    -0.312959294501E+03   -0.10513E-02   -0.10498E-02  9568   0.282E-01 0.180E-03
CGA:  22    -0.312960120819E+03   -0.82632E-03   -0.82587E-03  9568   0.173E-01 0.155E-05
CGA:  23    -0.312960695804E+03   -0.57499E-03   -0.57596E-03  9568   0.127E-01 0.472E-04
CGA:  24    -0.312961310499E+03   -0.61470E-03   -0.61413E-03  9568   0.861E-02 0.533E-04
CGA:  25    -0.312961795358E+03   -0.48486E-03   -0.48543E-03  9568   0.866E-02-0.235E-04
CGA:  26    -0.312962093926E+03   -0.29857E-03   -0.29872E-03  9568   0.799E-02 0.146E-04
CGA:  27    -0.312962343733E+03   -0.24981E-03   -0.24995E-03  9568   0.473E-02 0.110E-04
CGA:  28    -0.312962488766E+03   -0.14503E-03   -0.14502E-03  9568   0.262E-02 0.415E-05
CGA:  29    -0.312962701046E+03   -0.21228E-03   -0.21164E-03  9568   0.307E-02 0.158E-04
CGA:  30    -0.312962799949E+03   -0.98903E-04   -0.98897E-04  9568   0.202E-02 0.227E-05
CGA:  31    -0.312962859143E+03   -0.59194E-04   -0.59176E-04  9568   0.141E-02 0.144E-05
SDA:  32    -0.312962914013E+03   -0.54869E-04   -0.54874E-04  9568   0.130E-02 0.146E-05
CGA:  33    -0.312962936783E+03   -0.22770E-04   -0.22681E-04  9568   0.385E-03 0.117E-05
CGA:  34    -0.312962957990E+03   -0.21207E-04   -0.21229E-04  9568   0.941E-03-0.173E-05
CGA:  35    -0.312963008490E+03   -0.50501E-04   -0.50555E-04  9568   0.128E-02-0.424E-05
CGA:  36    -0.312963060368E+03   -0.51877E-04   -0.51875E-04  9568   0.212E-03-0.561E-05
CGA:  37    -0.312963073025E+03   -0.12657E-04   -0.12671E-04  9568   0.155E-03-0.818E-06
CGA:  38    -0.312963092706E+03   -0.19681E-04   -0.19639E-04  9568   0.531E-03 0.398E-06
CGA:  39    -0.312963104195E+03   -0.11489E-04   -0.11483E-04  9568   0.224E-03-0.596E-07
CGA:  40    -0.312963113193E+03   -0.89985E-05   -0.89956E-05  9568   0.969E-04-0.767E-06
   9 F= -.31296311E+03 E0= -.31294055E+03  d E =-.791599E-01  mag=    24.5491
       N       E                     dE             d eps       ncg     rms          ort
SDA:   1    -0.312836212983E+03    0.12689E+00    0.00000E+00  9568   0.871E+00 0.000E+00
CGA:   2    -0.312860673816E+03   -0.24461E-01   -0.24025E-01  9568   0.763E+00 0.286E-02
CGA:   3    -0.312894080829E+03   -0.33407E-01   -0.33410E-01  9568   0.852E+00 0.246E-02
CGA:   4    -0.312923012983E+03   -0.28932E-01   -0.28759E-01  9568   0.443E+00-0.316E-02
CGA:   5    -0.312937280451E+03   -0.14267E-01   -0.13872E-01  9568   0.171E+00-0.345E-02
CGA:   6    -0.312955157847E+03   -0.17877E-01   -0.17738E-01  9568   0.146E+00 0.243E-02
CGA:   7    -0.312961474156E+03   -0.63163E-02   -0.63148E-02  9568   0.909E-01-0.169E-03
CGA:   8    -0.312964347858E+03   -0.28737E-02   -0.28786E-02  9568   0.460E-01 0.957E-05
CGA:   9    -0.312966246115E+03   -0.18983E-02   -0.18969E-02  9568   0.461E-01-0.127E-03
CGA:  10    -0.312967351016E+03   -0.11049E-02   -0.11069E-02  9568   0.215E-01-0.379E-04
CGA:  11    -0.312968238433E+03   -0.88742E-03   -0.88768E-03  9568   0.779E-02 0.440E-04
CGA:  12    -0.312968725106E+03   -0.48667E-03   -0.48711E-03  9568   0.672E-02-0.175E-04
CGA:  13    -0.312968911285E+03   -0.18618E-03   -0.18601E-03  9568   0.303E-02 0.864E-06
CGA:  14    -0.312969132266E+03   -0.22098E-03   -0.22114E-03  9568   0.561E-02-0.426E-05
CGA:  15    -0.312969237324E+03   -0.10506E-03   -0.10514E-03  9568   0.128E-02-0.153E-06
CGA:  16    -0.312969314727E+03   -0.77403E-04   -0.77397E-04  9568   0.997E-03 0.559E-06
CGA:  17    -0.312969358109E+03   -0.43382E-04   -0.43385E-04  9568   0.116E-02 0.223E-05
CGA:  18    -0.312969428979E+03   -0.70870E-04   -0.70838E-04  9568   0.654E-03 0.214E-05
CGA:  19    -0.312969448143E+03   -0.19163E-04   -0.19183E-04  9568   0.568E-03 0.608E-06
CGA:  20    -0.312969466158E+03   -0.18016E-04   -0.18011E-04  9568   0.392E-03 0.249E-06
CGA:  21    -0.312969490298E+03   -0.24139E-04   -0.24138E-04  9568   0.339E-03-0.433E-07
CGA:  22    -0.312969504700E+03   -0.14403E-04   -0.14403E-04  9568   0.335E-03 0.164E-06
CGA:  23    -0.312969520767E+03   -0.16066E-04   -0.16068E-04  9568   0.150E-03-0.550E-06
CGA:  24    -0.312969524972E+03   -0.42053E-05   -0.42031E-05  9568   0.164E-03-0.146E-06
  10 F= -.31296952E+03 E0= -.31294695E+03  d E =-.641178E-02  mag=    24.5501
       N       E                     dE             d eps       ncg     rms          ort
SDA:   1    -0.312675299460E+03    0.29422E+00    0.00000E+00  9568   0.102E+01 0.000E+00
CGA:   2    -0.312747006616E+03   -0.71707E-01   -0.74198E-01  9568   0.281E+01-0.781E-01
CGA:   3    -0.312830729072E+03   -0.83722E-01   -0.83897E-01  9568   0.219E+01-0.415E-03
CGA:   4    -0.312905496204E+03   -0.74767E-01   -0.74102E-01  9568   0.768E+00-0.102E-01
CGA:   5    -0.312925735650E+03   -0.20239E-01   -0.19292E-01  9568   0.394E+00 0.130E-01
CGA:   6    -0.312955315501E+03   -0.29580E-01   -0.29582E-01  9568   0.611E+00-0.360E-04
CGA:   7    -0.312965985765E+03   -0.10670E-01   -0.10470E-01  9568   0.156E+00 0.773E-02
CGA:   8    -0.312973307795E+03   -0.73220E-02   -0.73273E-02  9568   0.459E-01-0.113E-02
CGA:   9    -0.312976283912E+03   -0.29761E-02   -0.29674E-02  9568   0.112E+00 0.350E-03
CGA:  10    -0.312978934269E+03   -0.26504E-02   -0.26577E-02  9568   0.219E-01-0.136E-03
CGA:  11    -0.312979501763E+03   -0.56749E-03   -0.56898E-03  9568   0.131E-01-0.152E-04
CGA:  12    -0.312980142936E+03   -0.64117E-03   -0.64109E-03  9568   0.805E-02 0.107E-04
CGA:  13    -0.312980642081E+03   -0.49915E-03   -0.49953E-03  9568   0.665E-02-0.156E-04
CGA:  14    -0.312980844374E+03   -0.20229E-03   -0.20212E-03  9568   0.624E-02 0.243E-05
CGA:  15    -0.312981003942E+03   -0.15957E-03   -0.15958E-03  9568   0.161E-02 0.461E-05
CGA:  16    -0.312981119093E+03   -0.11515E-03   -0.11496E-03  9568   0.126E-02 0.654E-05
CGA:  17    -0.312981181130E+03   -0.62037E-04   -0.62013E-04  9568   0.185E-02 0.336E-05
CGA:  18    -0.312981262877E+03   -0.81747E-04   -0.81748E-04  9568   0.863E-03 0.369E-05
CGA:  19    -0.312981285918E+03   -0.23041E-04   -0.23056E-04  9568   0.618E-03 0.652E-06
CGA:  20    -0.312981303800E+03   -0.17883E-04   -0.17898E-04  9568   0.363E-03 0.274E-06
CGA:  21    -0.312981355131E+03   -0.51331E-04   -0.51297E-04  9568   0.294E-03 0.270E-06
CGA:  22    -0.312981376098E+03   -0.20967E-04   -0.20971E-04  9568   0.180E-03-0.132E-06
CGA:  23    -0.312981383006E+03   -0.69076E-05   -0.69039E-05  9568   0.212E-03-0.363E-06
CGA:  24    -0.312981398048E+03   -0.15042E-04   -0.15044E-04  9568   0.216E-03-0.827E-07
CGA:  25    -0.312981405367E+03   -0.73195E-05   -0.73268E-05  9568   0.223E-03 0.420E-06
  11 F= -.31298141E+03 E0= -.31295880E+03  d E =-.118804E-01  mag=    24.5510
       N       E                     dE             d eps       ncg     rms          ort
SDA:   1    -0.310736022789E+03    0.22454E+01    0.00000E+00  9568   0.104E+03 0.000E+00
CGA:   2    -0.311389931103E+03   -0.65391E+00   -0.20849E+01  9568   0.522E+02-0.573E+02
CGA:   3    -0.312070414432E+03   -0.68048E+00   -0.75079E+00  9568   0.706E+01-0.137E+02
CGA:   4    -0.312237634318E+03   -0.16722E+00   -0.16438E+00  9568   0.439E+01-0.368E-01
CGA:   5    -0.312497751897E+03   -0.26012E+00   -0.25583E+00  9568   0.604E+01 0.227E+00
CGA:   6    -0.312740335041E+03   -0.24258E+00   -0.23917E+00  9568   0.423E+01-0.156E+00
CGA:   7    -0.312840427179E+03   -0.10009E+00   -0.10029E+00  9568   0.156E+01-0.164E-01
CGA:   8    -0.312891407490E+03   -0.50980E-01   -0.51405E-01  9568   0.953E+00 0.712E-02
CGA:   9    -0.312938425160E+03   -0.47018E-01   -0.47210E-01  9568   0.964E+00-0.183E-01
CGA:  10    -0.312964785633E+03   -0.26360E-01   -0.26457E-01  9568   0.443E+00-0.615E-03
CGA:  11    -0.312975194137E+03   -0.10409E-01   -0.10524E-01  9568   0.148E+00-0.190E-02
CGA:  12    -0.312981626771E+03   -0.64326E-02   -0.64362E-02  9568   0.146E+00-0.823E-03
CGA:  13    -0.312987996414E+03   -0.63696E-02   -0.63656E-02  9568   0.122E+00 0.967E-03
CGA:  14    -0.312990815822E+03   -0.28194E-02   -0.28227E-02  9568   0.404E-01-0.517E-04
CGA:  15    -0.312992086282E+03   -0.12705E-02   -0.12704E-02  9568   0.239E-01 0.466E-05
CGA:  16    -0.312993388725E+03   -0.13024E-02   -0.13007E-02  9568   0.297E-01 0.104E-03
CGA:  17    -0.312994375513E+03   -0.98679E-03   -0.98665E-03  9568   0.199E-01 0.455E-05
CGA:  18    -0.312994912532E+03   -0.53702E-03   -0.53646E-03  9568   0.894E-02 0.930E-05
CGA:  19    -0.312995292444E+03   -0.37991E-03   -0.37985E-03  9568   0.773E-02 0.190E-04
CGA:  20    -0.312995643152E+03   -0.35071E-03   -0.35079E-03  9568   0.820E-02-0.467E-05
CGA:  21    -0.312995899892E+03   -0.25674E-03   -0.25682E-03  9568   0.585E-02 0.671E-05
CGA:  22    -0.312996108373E+03   -0.20848E-03   -0.20853E-03  9568   0.369E-02 0.888E-05
CGA:  23    -0.312996268619E+03   -0.16025E-03   -0.16024E-03  9568   0.306E-02 0.179E-05
CGA:  24    -0.312996379589E+03   -0.11097E-03   -0.11100E-03  9568   0.277E-02 0.464E-05
CGA:  25    -0.312996471667E+03   -0.92078E-04   -0.92112E-04  9568   0.200E-02 0.253E-05
CGA:  26    -0.312996554368E+03   -0.82701E-04   -0.82701E-04  9568   0.140E-02 0.442E-06
CGA:  27    -0.312996610078E+03   -0.55709E-04   -0.55708E-04  9568   0.115E-02 0.246E-05
CGA:  28    -0.312996646655E+03   -0.36577E-04   -0.36585E-04  9568   0.866E-03 0.105E-05
CGA:  29    -0.312996676711E+03   -0.30057E-04   -0.30058E-04  9568   0.536E-03 0.478E-06
CGA:  30    -0.312996699509E+03   -0.22798E-04   -0.22790E-04  9568   0.432E-03 0.194E-05
CGA:  31    -0.312996716582E+03   -0.17073E-04   -0.17073E-04  9568   0.424E-03 0.703E-06
CGA:  32    -0.312996729514E+03   -0.12933E-04   -0.12939E-04  9568   0.239E-03 0.846E-06
SDA:  33    -0.312996737933E+03   -0.84182E-05   -0.84215E-05  9568   0.145E-03 0.836E-06
  12 F= -.31299674E+03 E0= -.31297407E+03  d E =-.153326E-01  mag=    24.5496
       N       E                     dE             d eps       ncg     rms          ort
SDA:   1    -0.288636737074E+03    0.24360E+02    0.00000E+00  9568   0.163E+03 0.000E+00
CGA:   2    -0.292296554445E+03   -0.36598E+01   -0.43972E+01  9568   0.119E+03 0.631E+01
CGA:   3    -0.297802686649E+03   -0.55061E+01   -0.54144E+01  9568   0.217E+03 0.119E+02
CGA:   4    -0.303342804668E+03   -0.55401E+01   -0.62233E+01  9568   0.159E+03-0.225E+02
CGA:   5    -0.307638960768E+03   -0.42962E+01   -0.40953E+01  9568   0.599E+02-0.138E+02
CGA:   6    -0.309031865850E+03   -0.13929E+01   -0.12343E+01  9568   0.354E+02-0.243E+01
CGA:   7    -0.310493727665E+03   -0.14619E+01   -0.16576E+01  9568   0.552E+02-0.105E+02
CGA:   8    -0.311868244471E+03   -0.13745E+01   -0.13745E+01  9568   0.155E+02-0.474E-01
CGA:   9    -0.312249706746E+03   -0.38146E+00   -0.37338E+00  9568   0.383E+01-0.141E+00
CGA:  10    -0.312448443462E+03   -0.19874E+00   -0.19646E+00  9568   0.575E+01 0.122E+00
CGA:  11    -0.312726280631E+03   -0.27784E+00   -0.29501E+00  9568   0.544E+01-0.100E+01
CGA:  12    -0.312793330764E+03   -0.67050E-01   -0.70813E-01  9568   0.174E+01-0.172E+00
CGA:  13    -0.312839401922E+03   -0.46071E-01   -0.46502E-01  9568   0.146E+01 0.849E-02
CGA:  14    -0.312866551223E+03   -0.27149E-01   -0.26987E-01  9568   0.107E+01 0.182E-02
CGA:  15    -0.312897370413E+03   -0.30819E-01   -0.30124E-01  9568   0.147E+01-0.267E-01
CGA:  16    -0.312948168863E+03   -0.50798E-01   -0.50748E-01  9568   0.200E+01 0.248E-01
CGA:  17    -0.312975912905E+03   -0.27744E-01   -0.29158E-01  9568   0.213E+00-0.644E-01
CGA:  18    -0.312985235413E+03   -0.93225E-02   -0.93291E-02  9568   0.448E+00-0.393E-03
CGA:  19    -0.312995368320E+03   -0.10133E-01   -0.10094E-01  9568   0.329E+00 0.879E-04
CGA:  20    -0.313009891406E+03   -0.14523E-01   -0.14100E-01  9568   0.354E+00 0.318E-01
CGA:  21    -0.313016969885E+03   -0.70785E-02   -0.72500E-02  9568   0.153E+00-0.351E-02
CGA:  22    -0.313022633403E+03   -0.56635E-02   -0.56655E-02  9568   0.116E+00-0.322E-03
CGA:  23    -0.313025810621E+03   -0.31772E-02   -0.32016E-02  9568   0.545E-01 0.129E-02
CGA:  24    -0.313029319005E+03   -0.35084E-02   -0.34986E-02  9568   0.531E-01 0.311E-03
CGA:  25    -0.313031084059E+03   -0.17651E-02   -0.17661E-02  9568   0.634E-01 0.347E-03
CGA:  26    -0.313033368690E+03   -0.22846E-02   -0.22837E-02  9568   0.318E-01 0.428E-03
CGA:  27    -0.313034215076E+03   -0.84639E-03   -0.84758E-03  9568   0.166E-01 0.445E-04
CGA:  28    -0.313035396544E+03   -0.11815E-02   -0.11792E-02  9568   0.147E-01 0.600E-04
CGA:  29    -0.313035997107E+03   -0.60056E-03   -0.60075E-03  9568   0.115E-01-0.164E-04
CGA:  30    -0.313036379046E+03   -0.38194E-03   -0.38207E-03  9568   0.971E-02 0.248E-04
CGA:  31    -0.313036715789E+03   -0.33674E-03   -0.33676E-03  9568   0.760E-02 0.111E-04
SDA:  32    -0.313036980441E+03   -0.26465E-03   -0.26468E-03  9568   0.474E-02 0.140E-04
CGA:  33    -0.313037105375E+03   -0.12493E-03   -0.12503E-03  9568   0.338E-02 0.741E-06
CGA:  34    -0.313037246748E+03   -0.14137E-03   -0.14133E-03  9568   0.353E-02 0.484E-05
CGA:  35    -0.313037374402E+03   -0.12765E-03   -0.12765E-03  9568   0.362E-02 0.114E-04
CGA:  36    -0.313037535203E+03   -0.16080E-03   -0.16072E-03  9568   0.255E-02 0.667E-05
CGA:  37    -0.313037688349E+03   -0.15315E-03   -0.15296E-03  9568   0.110E-02 0.748E-05
CGA:  38    -0.313037825770E+03   -0.13742E-03   -0.13626E-03  9568   0.127E-02 0.144E-04
CGA:  39    -0.313037901689E+03   -0.75919E-04   -0.75905E-04  9568   0.136E-02 0.101E-05
CGA:  40    -0.313037934813E+03   -0.33124E-04   -0.33126E-04  9568   0.104E-02 0.404E-06
CGA:  41    -0.313038001494E+03   -0.66681E-04   -0.66569E-04  9568   0.118E-02 0.403E-05
CGA:  42    -0.313038049794E+03   -0.48300E-04   -0.48297E-04  9568   0.112E-02-0.958E-06
CGA:  43    -0.313038098989E+03   -0.49195E-04   -0.49194E-04  9568   0.458E-03-0.908E-06
CGA:  44    -0.313038147537E+03   -0.48548E-04   -0.48378E-04  9568   0.237E-03 0.288E-05
CGA:  45    -0.313038157641E+03   -0.10104E-04   -0.10106E-04  9568   0.514E-03 0.501E-06
CGA:  46    -0.313038180995E+03   -0.23354E-04   -0.23354E-04  9568   0.281E-03 0.201E-05
CGA:  47    -0.313038202118E+03   -0.21124E-04   -0.21068E-04  9568   0.161E-03 0.179E-05
CGA:  48    -0.313038209908E+03   -0.77898E-05   -0.77901E-05  9568   0.173E-03-0.243E-06
  13 F= -.31303821E+03 E0= -.31301552E+03  d E =-.414720E-01  mag=    24.5469
       N       E                     dE             d eps       ncg     rms          ort
SDA:   1    -0.233916174862E+03    0.79122E+02    0.00000E+00  9568   0.500E+03 0.000E+00
CGA:   2    -0.261381270934E+03   -0.27465E+02   -0.34892E+02  9568   0.322E+03-0.430E+02
CGA:   3    -0.283828029811E+03   -0.22447E+02   -0.20732E+02  9568   0.220E+03 0.101E+03
CGA:   4    -0.289848606903E+03   -0.60206E+01   -0.89971E+01  9568   0.117E+03 0.122E+02
CGA:   5    -0.297278773053E+03   -0.74302E+01   -0.25770E+01  9568   0.999E+02 0.193E+03
CGA:   6    -0.299639468102E+03   -0.23607E+01   -0.13094E+01  9568   0.675E+02 0.678E+02
CGA:   7    -0.301234576494E+03   -0.15951E+01   -0.13129E+01  9568   0.439E+02 0.293E+01
CGA:   8    -0.303644954911E+03   -0.24104E+01   -0.23928E+01  9568   0.187E+03 0.150E+01
CGA:   9    -0.305618412356E+03   -0.19735E+01   -0.34552E+01  9568   0.179E+03-0.761E+02
CGA:  10    -0.307014880354E+03   -0.13965E+01   -0.13996E+01  9568   0.121E+03-0.185E+01
CGA:  11    -0.307729570109E+03   -0.71469E+00   -0.20444E+01  9568   0.584E+02-0.398E+02
CGA:  12    -0.308585737543E+03   -0.85617E+00   -0.51208E+00  9568   0.380E+02 0.224E+02
CGA:  13    -0.309236353161E+03   -0.65062E+00   -0.70606E+00  9568   0.432E+02-0.101E+02
CGA:  14    -0.309529904655E+03   -0.29355E+00   -0.30864E+00  9568   0.515E+02-0.287E+01
CGA:  15    -0.309781639020E+03   -0.25173E+00   -0.42266E+00  9568   0.724E+02-0.204E+02
CGA:  16    -0.309987387435E+03   -0.20575E+00   -0.42919E+00  9568   0.127E+03-0.175E+02
CGA:  17    -0.310570671258E+03   -0.58328E+00   -0.52397E+00  9568   0.648E+02-0.129E+01
CGA:  18    -0.310555910215E+03    0.14761E-01   -0.47111E+00  9568   0.682E+02-0.673E+02
CGA:  19    -0.311173875177E+03   -0.61796E+00   -0.10711E+01  9568   0.340E+02-0.162E+02
CGA:  20    -0.311761682691E+03   -0.58781E+00   -0.52082E+00  9568   0.771E+01-0.286E+00
CGA:  21    -0.311991847754E+03   -0.23017E+00   -0.23096E+00  9568   0.103E+02-0.523E+00
CGA:  22    -0.312177904651E+03   -0.18606E+00   -0.18092E+00  9568   0.486E+01-0.167E-02
CGA:  23    -0.312350226230E+03   -0.17232E+00   -0.17499E+00  9568   0.574E+01-0.256E+00
CGA:  24    -0.312448955179E+03   -0.98729E-01   -0.98427E-01  9568   0.294E+01 0.626E-02
CGA:  25    -0.312523357725E+03   -0.74403E-01   -0.73711E-01  9568   0.344E+01-0.624E-01
CGA:  26    -0.312597819444E+03   -0.74462E-01   -0.77042E-01  9568   0.242E+01 0.114E+00
CGA:  27    -0.312663435088E+03   -0.65616E-01   -0.65830E-01  9568   0.305E+01 0.478E-01
CGA:  28    -0.312719010339E+03   -0.55575E-01   -0.50410E-01  9568   0.812E+00 0.929E-01
CGA:  29    -0.312738677185E+03   -0.19667E-01   -0.19684E-01  9568   0.715E+00 0.138E-02
CGA:  30    -0.312749833005E+03   -0.11156E-01   -0.11691E-01  9568   0.334E+00-0.834E-02
CGA:  31    -0.312760986362E+03   -0.11153E-01   -0.11085E-01  9568   0.467E+00 0.699E-02
CGA:  32    -0.312771529426E+03   -0.10543E-01   -0.10287E-01  9568   0.337E+00-0.110E-01
CGA:  33    -0.312780579801E+03   -0.90504E-02   -0.90471E-02  9568   0.400E+00 0.258E-02
CGA:  34    -0.312791509941E+03   -0.10930E-01   -0.10919E-01  9568   0.187E+00 0.325E-01
CGA:  35    -0.312795631283E+03   -0.41213E-02   -0.41475E-02  9568   0.160E+00 0.759E-03
CGA:  36    -0.312800940445E+03   -0.53092E-02   -0.52796E-02  9568   0.123E+00 0.318E-02
CGA:  37    -0.312806033512E+03   -0.50931E-02   -0.50220E-02  9568   0.191E+00 0.440E-02
CGA:  38    -0.312810505178E+03   -0.44717E-02   -0.44566E-02  9568   0.909E-01-0.862E-03
CGA:  39    -0.312813587767E+03   -0.30826E-02   -0.30758E-02  9568   0.902E-01 0.715E-03
CGA:  40    -0.312816868535E+03   -0.32808E-02   -0.32690E-02  9568   0.707E-01 0.101E-02
CGA:  41    -0.312819785725E+03   -0.29172E-02   -0.29122E-02  9568   0.994E-01 0.298E-03
CGA:  42    -0.312822158296E+03   -0.23726E-02   -0.23940E-02  9568   0.342E-01 0.146E-02
CGA:  43    -0.312824039859E+03   -0.18816E-02   -0.18854E-02  9568   0.251E-01-0.165E-03
CGA:  44    -0.312824912853E+03   -0.87299E-03   -0.87259E-03  9568   0.346E-01 0.348E-04
CGA:  45    -0.312825955351E+03   -0.10425E-02   -0.10424E-02  9568   0.153E-01 0.268E-03
CGA:  46    -0.312826649054E+03   -0.69370E-03   -0.69413E-03  9568   0.167E-01-0.291E-04
CGA:  47    -0.312827246514E+03   -0.59746E-03   -0.59787E-03  9568   0.126E-01-0.488E-04
CGA:  48    -0.312827715784E+03   -0.46927E-03   -0.46832E-03  9568   0.122E-01 0.105E-03
SDA:  49    -0.312828007606E+03   -0.29182E-03   -0.29185E-03  9568   0.600E-02 0.125E-04
CGA:  50    -0.312828151453E+03   -0.14385E-03   -0.14389E-03  9568   0.279E-02-0.460E-05
CGA:  51    -0.312828239235E+03   -0.87782E-04   -0.87785E-04  9568   0.292E-02-0.409E-05
CGA:  52    -0.312828387407E+03   -0.14817E-03   -0.14773E-03  9568   0.311E-02 0.186E-04
CGA:  53    -0.312828508505E+03   -0.12110E-03   -0.12105E-03  9568   0.271E-02 0.102E-05
CGA:  54    -0.312828650337E+03   -0.14183E-03   -0.14197E-03  9568   0.121E-02-0.780E-05
CGA:  55    -0.312828759164E+03   -0.10883E-03   -0.10871E-03  9568   0.169E-02 0.383E-05
CGA:  56    -0.312828807114E+03   -0.47950E-04   -0.47893E-04  9568   0.186E-02-0.629E-05
CGA:  57    -0.312828890581E+03   -0.83467E-04   -0.83506E-04  9568   0.878E-03-0.582E-05
CGA:  58    -0.312828928883E+03   -0.38301E-04   -0.38316E-04  9568   0.845E-03-0.143E-05
CGA:  59    -0.312828960392E+03   -0.31509E-04   -0.31507E-04  9568   0.548E-03 0.295E-05
CGA:  60    -0.312829013526E+03   -0.53134E-04   -0.52355E-04  9568   0.283E-03 0.133E-04
CGA:  61    -0.312829022472E+03   -0.89467E-05   -0.89515E-05  9568   0.451E-03 0.481E-06
CGA:  62    -0.312829052421E+03   -0.29949E-04   -0.29957E-04  9568   0.346E-03-0.377E-06
CGA:  63    -0.312829068863E+03   -0.16442E-04   -0.16463E-04  9568   0.209E-03-0.300E-05
CGA:  64    -0.312829078005E+03   -0.91416E-05   -0.91476E-05  9568   0.195E-03-0.194E-05
  14 F= -.31282908E+03 E0= -.31280613E+03  d E =0.209132E+00  mag=    24.5108
       N       E                     dE             d eps       ncg     rms          ort
SDA:   1    -0.290349253767E+03    0.22480E+02    0.00000E+00  9568   0.408E+03 0.000E+00
CGA:   2    -0.301387703508E+03   -0.11038E+02   -0.10832E+02  9568   0.857E+02-0.281E+02
CGA:   3    -0.304479498702E+03   -0.30918E+01   -0.30425E+01  9568   0.863E+02-0.153E+02
CGA:   4    -0.305453962985E+03   -0.97446E+00   -0.13149E+01  9568   0.119E+03-0.204E+02
CGA:   5    -0.307860977868E+03   -0.24070E+01   -0.22367E+01  9568   0.660E+02-0.867E+01
CGA:   6    -0.309059066287E+03   -0.11981E+01   -0.61748E+00  9568   0.433E+02 0.464E+02
CGA:   7    -0.309792904112E+03   -0.73384E+00   -0.72526E+00  9568   0.246E+02-0.233E+01
CGA:   8    -0.310235175732E+03   -0.44227E+00   -0.41371E+00  9568   0.171E+02 0.124E+00
CGA:   9    -0.310524006176E+03   -0.28883E+00   -0.29427E+00  9568   0.172E+02-0.395E+00
CGA:  10    -0.311342288584E+03   -0.81828E+00   -0.81551E+00  9568   0.534E+02 0.212E+00
CGA:  11    -0.312030833156E+03   -0.68854E+00   -0.69799E+00  9568   0.929E+01-0.140E+01
CGA:  12    -0.312265441615E+03   -0.23461E+00   -0.23925E+00  9568   0.999E+01 0.126E+00
CGA:  13    -0.312433615172E+03   -0.16817E+00   -0.15956E+00  9568   0.527E+01 0.151E+00
CGA:  14    -0.312567268593E+03   -0.13365E+00   -0.13603E+00  9568   0.677E+01 0.716E-01
CGA:  15    -0.312738038332E+03   -0.17077E+00   -0.17373E+00  9568   0.731E+01 0.996E-01
CGA:  16    -0.312861057523E+03   -0.12302E+00   -0.10686E+00  9568   0.167E+01 0.637E+00
CGA:  17    -0.312886971409E+03   -0.25914E-01   -0.26168E-01  9568   0.108E+01-0.123E-01
CGA:  18    -0.312919815539E+03   -0.32844E-01   -0.32821E-01  9568   0.138E+01 0.150E-01
CGA:  19    -0.312942260547E+03   -0.22445E-01   -0.22517E-01  9568   0.843E+00-0.283E-02
CGA:  20    -0.312975877087E+03   -0.33617E-01   -0.33406E-01  9568   0.117E+01 0.155E-01
CGA:  21    -0.312992487675E+03   -0.16611E-01   -0.16675E-01  9568   0.363E+00-0.351E-02
CGA:  22    -0.313004864837E+03   -0.12377E-01   -0.12336E-01  9568   0.527E+00 0.540E-02
CGA:  23    -0.313015789135E+03   -0.10924E-01   -0.11093E-01  9568   0.335E+00 0.192E-02
CGA:  24    -0.313026602915E+03   -0.10814E-01   -0.10794E-01  9568   0.368E+00 0.358E-02
CGA:  25    -0.313035397384E+03   -0.87945E-02   -0.87794E-02  9568   0.222E+00-0.619E-03
CGA:  26    -0.313041149766E+03   -0.57524E-02   -0.57478E-02  9568   0.160E+00-0.578E-03
CGA:  27    -0.313046225952E+03   -0.50762E-02   -0.50777E-02  9568   0.141E+00-0.267E-03
CGA:  28    -0.313049583563E+03   -0.33576E-02   -0.33584E-02  9568   0.136E+00 0.674E-04
CGA:  29    -0.313054768625E+03   -0.51851E-02   -0.51474E-02  9568   0.831E-01 0.295E-02
CGA:  30    -0.313056531977E+03   -0.17634E-02   -0.17675E-02  9568   0.703E-01 0.541E-04
CGA:  31    -0.313058743126E+03   -0.22111E-02   -0.22113E-02  9568   0.281E-01-0.368E-04
CGA:  32    -0.313059473648E+03   -0.73052E-03   -0.73047E-03  9568   0.383E-01-0.311E-05
CGA:  33    -0.313061137738E+03   -0.16641E-02   -0.16549E-02  9568   0.283E-01 0.529E-03
CGA:  34    -0.313061898247E+03   -0.76051E-03   -0.76061E-03  9568   0.258E-01 0.237E-04
CGA:  35    -0.313062610761E+03   -0.71251E-03   -0.71267E-03  9568   0.172E-01 0.512E-04
CGA:  36    -0.313063012298E+03   -0.40154E-03   -0.40178E-03  9568   0.912E-02 0.140E-04
SDA:  37    -0.313063377788E+03   -0.36549E-03   -0.36539E-03  9568   0.141E-01 0.587E-05
CGA:  38    -0.313063554936E+03   -0.17715E-03   -0.17736E-03  9568   0.227E-02-0.155E-04
CGA:  39    -0.313063752198E+03   -0.19726E-03   -0.19833E-03  9568   0.734E-02-0.192E-04
CGA:  40    -0.313064040880E+03   -0.28868E-03   -0.28869E-03  9568   0.356E-02-0.685E-05
CGA:  41    -0.313064237655E+03   -0.19677E-03   -0.19691E-03  9568   0.229E-02-0.564E-05
CGA:  42    -0.313064371191E+03   -0.13354E-03   -0.13314E-03  9568   0.141E-02 0.146E-04
CGA:  43    -0.313064470918E+03   -0.99727E-04   -0.99253E-04  9568   0.210E-02 0.130E-04
CGA:  44    -0.313064528862E+03   -0.57944E-04   -0.58005E-04  9568   0.196E-02 0.518E-05
CGA:  45    -0.313064658074E+03   -0.12921E-03   -0.12929E-03  9568   0.249E-02-0.227E-05
CGA:  46    -0.313064718950E+03   -0.60876E-04   -0.60955E-04  9568   0.101E-02-0.217E-05
CGA:  47    -0.313064849317E+03   -0.13037E-03   -0.13187E-03  9568   0.591E-03-0.160E-04
CGA:  48    -0.313064866308E+03   -0.16992E-04   -0.16973E-04  9568   0.515E-03-0.122E-05
CGA:  49    -0.313064882193E+03   -0.15885E-04   -0.15897E-04  9568   0.412E-03 0.652E-06
CGA:  50    -0.313064924129E+03   -0.41936E-04   -0.41587E-04  9568   0.333E-03 0.560E-05
CGA:  51    -0.313064932774E+03   -0.86443E-05   -0.86755E-05  9568   0.148E-03 0.124E-05
  15 F= -.31306493E+03 E0= -.31304203E+03  d E =-.235855E+00  mag=    24.5803
       N       E                     dE             d eps       ncg     rms          ort
SDA:   1    -0.309387057911E+03    0.36779E+01    0.00000E+00  9568   0.584E+02 0.000E+00
CGA:   2    -0.310238095414E+03   -0.85104E+00   -0.12378E+01  9568   0.249E+02-0.105E+02
CGA:   3    -0.311074992659E+03   -0.83690E+00   -0.83686E+00  9568   0.197E+02 0.198E+00
CGA:   4    -0.311618582225E+03   -0.54359E+00   -0.56202E+00  9568   0.153E+02-0.129E+00
CGA:   5    -0.312155694458E+03   -0.53711E+00   -0.54222E+00  9568   0.584E+01 0.392E+00
CGA:   6    -0.312427696122E+03   -0.27200E+00   -0.27175E+00  9568   0.710E+01 0.373E-01
CGA:   7    -0.312745877007E+03   -0.31818E+00   -0.31362E+00  9568   0.286E+01 0.740E+00
CGA:   8    -0.312906451324E+03   -0.16057E+00   -0.16108E+00  9568   0.219E+01-0.315E-01
CGA:   9    -0.312952733086E+03   -0.46282E-01   -0.46731E-01  9568   0.164E+01-0.134E-01
CGA:  10    -0.313031716075E+03   -0.78983E-01   -0.78112E-01  9568   0.550E+00 0.737E-01
CGA:  11    -0.313048977870E+03   -0.17262E-01   -0.17176E-01  9568   0.621E+00-0.124E-02
CGA:  12    -0.313065192335E+03   -0.16214E-01   -0.16081E-01  9568   0.323E+00 0.184E-03
CGA:  13    -0.313073987705E+03   -0.87954E-02   -0.89015E-02  9568   0.291E+00 0.727E-03
CGA:  14    -0.313083022571E+03   -0.90349E-02   -0.90542E-02  9568   0.243E+00 0.676E-03
CGA:  15    -0.313087612781E+03   -0.45902E-02   -0.46194E-02  9568   0.870E-01-0.769E-03
CGA:  16    -0.313091633853E+03   -0.40211E-02   -0.40140E-02  9568   0.107E+00 0.561E-03
CGA:  17    -0.313093608128E+03   -0.19743E-02   -0.19825E-02  9568   0.502E-01-0.211E-03
CGA:  18    -0.313096566672E+03   -0.29585E-02   -0.29574E-02  9568   0.544E-01 0.411E-04
CGA:  19    -0.313097759419E+03   -0.11927E-02   -0.11935E-02  9568   0.389E-01 0.129E-04
CGA:  20    -0.313099214873E+03   -0.14555E-02   -0.14554E-02  9568   0.329E-01 0.102E-03
CGA:  21    -0.313100065642E+03   -0.85077E-03   -0.84685E-03  9568   0.156E-01-0.206E-05
CGA:  22    -0.313100680633E+03   -0.61499E-03   -0.61493E-03  9568   0.254E-01 0.200E-04
CGA:  23    -0.313101355879E+03   -0.67525E-03   -0.67685E-03  9568   0.980E-02 0.293E-04
CGA:  24    -0.313101896281E+03   -0.54040E-03   -0.54080E-03  9568   0.122E-01-0.164E-04
CGA:  25    -0.313102111803E+03   -0.21552E-03   -0.21581E-03  9568   0.449E-02-0.942E-05
CGA:  26    -0.313102320585E+03   -0.20878E-03   -0.20836E-03  9568   0.456E-02 0.291E-04
CGA:  27    -0.313102453008E+03   -0.13242E-03   -0.13249E-03  9568   0.326E-02 0.158E-05
CGA:  28    -0.313102566386E+03   -0.11338E-03   -0.11338E-03  9568   0.388E-02 0.239E-07
CGA:  29    -0.313102669916E+03   -0.10353E-03   -0.10353E-03  9568   0.113E-02-0.173E-05
CGA:  30    -0.313102724479E+03   -0.54564E-04   -0.54552E-04  9568   0.169E-02 0.660E-06
CGA:  31    -0.313102758343E+03   -0.33864E-04   -0.33877E-04  9568   0.646E-03 0.626E-06
SDA:  32    -0.313102794424E+03   -0.36080E-04   -0.36058E-04  9568   0.800E-03 0.908E-06
CGA:  33    -0.313102806842E+03   -0.12418E-04   -0.12428E-04  9568   0.143E-03 0.513E-06
CGA:  34    -0.313102814762E+03   -0.79208E-05   -0.79140E-05  9568   0.365E-03 0.190E-06
CGA:  35    -0.313102831836E+03   -0.17074E-04   -0.17073E-04  9568   0.402E-03-0.637E-07
CGA:  36    -0.313102850136E+03   -0.18300E-04   -0.18292E-04  9568   0.132E-03 0.586E-06
CGA:  37    -0.313102858893E+03   -0.87563E-05   -0.87301E-05  9568   0.669E-04 0.778E-06
  16 F= -.31310286E+03 E0= -.31308001E+03  d E =-.379261E-01  mag=    24.5795
       N       E                     dE             d eps       ncg     rms          ort
SDA:   1    -0.312730428104E+03    0.37242E+00    0.00000E+00  9568   0.238E+01 0.000E+00
CGA:   2    -0.312782188842E+03   -0.51761E-01   -0.51676E-01  9568   0.190E+01-0.392E-02
CGA:   3    -0.312924007721E+03   -0.14182E+00   -0.14169E+00  9568   0.270E+01 0.470E-02
CGA:   4    -0.312985949178E+03   -0.61941E-01   -0.62485E-01  9568   0.886E+00-0.126E-01
CGA:   5    -0.313024343975E+03   -0.38395E-01   -0.38295E-01  9568   0.726E+00 0.224E-01
CGA:   6    -0.313053638560E+03   -0.29295E-01   -0.29290E-01  9568   0.100E+01-0.131E-02
CGA:   7    -0.313085831950E+03   -0.32193E-01   -0.32299E-01  9568   0.166E+00 0.252E-02
CGA:   8    -0.313092545746E+03   -0.67138E-02   -0.67146E-02  9568   0.182E+00 0.220E-02
CGA:   9    -0.313098882828E+03   -0.63371E-02   -0.63451E-02  9568   0.125E+00 0.428E-03
CGA:  10    -0.313103383383E+03   -0.45006E-02   -0.45093E-02  9568   0.736E-01 0.804E-03
CGA:  11    -0.313105036319E+03   -0.16529E-02   -0.16655E-02  9568   0.267E-01-0.189E-03
CGA:  12    -0.313106353503E+03   -0.13172E-02   -0.13142E-02  9568   0.166E-01 0.211E-03
CGA:  13    -0.313107053852E+03   -0.70035E-03   -0.70045E-03  9568   0.222E-01-0.184E-04
CGA:  14    -0.313107653478E+03   -0.59963E-03   -0.60045E-03  9568   0.722E-02 0.825E-05
CGA:  15    -0.313108032499E+03   -0.37902E-03   -0.37910E-03  9568   0.829E-02-0.372E-05
CGA:  16    -0.313108239532E+03   -0.20703E-03   -0.20704E-03  9568   0.249E-02 0.296E-06
CGA:  17    -0.313108381557E+03   -0.14203E-03   -0.14203E-03  9568   0.418E-02 0.691E-07
CGA:  18    -0.313108506095E+03   -0.12454E-03   -0.12459E-03  9568   0.311E-02 0.228E-05
CGA:  19    -0.313108657913E+03   -0.15182E-03   -0.15182E-03  9568   0.837E-03-0.120E-06
CGA:  20    -0.313108687001E+03   -0.29088E-04   -0.29087E-04  9568   0.120E-02-0.397E-07
CGA:  21    -0.313108754632E+03   -0.67631E-04   -0.67604E-04  9568   0.114E-02 0.174E-05
CGA:  22    -0.313108791328E+03   -0.36696E-04   -0.36727E-04  9568   0.936E-03 0.205E-05
CGA:  23    -0.313108825685E+03   -0.34357E-04   -0.34363E-04  9568   0.358E-03 0.127E-05
CGA:  24    -0.313108843551E+03   -0.17866E-04   -0.17850E-04  9568   0.526E-03 0.134E-05
CGA:  25    -0.313108857762E+03   -0.14211E-04   -0.14232E-04  9568   0.284E-03 0.141E-05
CGA:  26    -0.313108875879E+03   -0.18117E-04   -0.18047E-04  9568   0.249E-03 0.286E-05
CGA:  27    -0.313108884311E+03   -0.84323E-05   -0.84400E-05  9568   0.220E-03 0.105E-05
  17 F= -.31310888E+03 E0= -.31308606E+03  d E =-.602542E-02  mag=    24.5603
       N       E                     dE             d eps       ncg     rms          ort
SDA:   1    -0.312766766674E+03    0.34211E+00    0.00000E+00  9568   0.170E+01 0.000E+00
[...]
CGA:  11    -0.313174788684E+03   -0.51602E-03   -0.51481E-03  9568   0.511E-02 0.211E-04
CGA:  12    -0.313175124733E+03   -0.33605E-03   -0.33638E-03  9568   0.591E-02-0.108E-04
CGA:  13    -0.313175239976E+03   -0.11524E-03   -0.11529E-03  9568   0.205E-02-0.107E-05
CGA:  14    -0.313175346162E+03   -0.10619E-03   -0.10627E-03  9568   0.162E-02-0.499E-05
CGA:  15    -0.313175402180E+03   -0.56018E-04   -0.56018E-04  9568   0.171E-02 0.966E-06
CGA:  16    -0.313175469085E+03   -0.66905E-04   -0.66905E-04  9568   0.119E-02 0.255E-05
CGA:  17    -0.313175500842E+03   -0.31756E-04   -0.31736E-04  9568   0.397E-03 0.479E-06
CGA:  18    -0.313175517730E+03   -0.16888E-04   -0.16887E-04  9568   0.495E-03 0.171E-06
CGA:  19    -0.313175536390E+03   -0.18661E-04   -0.18662E-04  9568   0.506E-03 0.686E-06
CGA:  20    -0.313175556122E+03   -0.19732E-04   -0.19732E-04  9568   0.237E-03-0.130E-06
CGA:  21    -0.313175566456E+03   -0.10334E-04   -0.10334E-04  9568   0.322E-03 0.111E-07
CGA:  22    -0.313175574736E+03   -0.82798E-05   -0.82779E-05  9568   0.967E-04-0.241E-06
  53 F= -.31317557E+03 E0= -.31315386E+03  d E =-.885777E-03  mag=    24.2901
       N       E                     dE             d eps       ncg     rms          ort
SDA:   1    -0.313062252182E+03    0.11331E+00    0.00000E+00  9568   0.307E+01 0.000E+00
CGA:   2    -0.313096296908E+03   -0.34045E-01   -0.34148E-01  9568   0.233E+00-0.249E-01
CGA:   3    -0.313142071666E+03   -0.45775E-01   -0.19892E-03  9568   0.632E+00-0.497E-01
CGA:   4    -0.313151712838E+03   -0.96412E-02   -0.98035E-02  9568   0.222E+00-0.717E-02
CGA:   5    -0.313159865537E+03   -0.81527E-02   -0.82251E-02  9568   0.235E+00-0.767E-03
CGA:   6    -0.313166766633E+03   -0.69011E-02   -0.70153E-02  9568   0.982E-01-0.227E-02
CGA:   7    -0.313171712387E+03   -0.49458E-02   -0.49281E-02  9568   0.759E-01-0.277E-03
CGA:   8    -0.313173388377E+03   -0.16760E-02   -0.16487E-02  9568   0.210E-01 0.930E-03
CGA:   9    -0.313174328570E+03   -0.94019E-03   -0.93890E-03  9568   0.334E-01-0.508E-05
CGA:  10    -0.313175255403E+03   -0.92683E-03   -0.92287E-03  9568   0.114E-01 0.842E-04
CGA:  11    -0.313175700076E+03   -0.44467E-03   -0.44388E-03  9568   0.105E-01-0.338E-06
CGA:  12    -0.313176045867E+03   -0.34579E-03   -0.34541E-03  9568   0.345E-02 0.749E-05
CGA:  13    -0.313176169228E+03   -0.12336E-03   -0.12363E-03  9568   0.234E-02-0.681E-06
CGA:  14    -0.313176263621E+03   -0.94392E-04   -0.94384E-04  9568   0.315E-02-0.961E-06
CGA:  15    -0.313176380304E+03   -0.11668E-03   -0.11667E-03  9568   0.205E-02-0.175E-05
CGA:  16    -0.313176425604E+03   -0.45300E-04   -0.45347E-04  9568   0.780E-03-0.129E-06
CGA:  17    -0.313176466298E+03   -0.40694E-04   -0.40696E-04  9568   0.482E-03 0.171E-05
CGA:  18    -0.313176481132E+03   -0.14834E-04   -0.14845E-04  9568   0.368E-03-0.287E-06
CGA:  19    -0.313176504869E+03   -0.23737E-04   -0.23734E-04  9568   0.374E-03-0.784E-07
CGA:  20    -0.313176515501E+03   -0.10632E-04   -0.10630E-04  9568   0.338E-03-0.897E-07
CGA:  21    -0.313176527194E+03   -0.11693E-04   -0.11697E-04  9568   0.149E-03 0.517E-07
CGA:  22    -0.313176531054E+03   -0.38602E-05   -0.38559E-05  9568   0.861E-04-0.273E-06
  54 F= -.31317653E+03 E0= -.31315481E+03  d E =-.956318E-03  mag=    24.2894
       N       E                     dE             d eps       ncg     rms          ort
SDA:   1    -0.313111090584E+03    0.65437E-01    0.00000E+00  9568   0.436E+00 0.000E+00
CGA:   2    -0.313124525295E+03   -0.13435E-01   -0.13391E-01  9568   0.278E+00 0.636E-04
CGA:   3    -0.313145426531E+03   -0.20901E-01   -0.20860E-01  9568   0.259E+00 0.144E-02
CGA:   4    -0.313159650993E+03   -0.14224E-01   -0.14218E-01  9568   0.112E+00 0.109E-02
CGA:   5    -0.313165116283E+03   -0.54653E-02   -0.54694E-02  9568   0.162E+00 0.733E-03
CGA:   6    -0.313169133578E+03   -0.40173E-02   -0.40199E-02  9568   0.982E-01-0.470E-04
CGA:   7    -0.313173386668E+03   -0.42531E-02   -0.42663E-02  9568   0.297E-01 0.732E-03
CGA:   8    -0.313174433202E+03   -0.10465E-02   -0.10496E-02  9568   0.202E-01 0.192E-04
CGA:   9    -0.313175307373E+03   -0.87417E-03   -0.87353E-03  9568   0.136E-01-0.351E-04
CGA:  10    -0.313175622229E+03   -0.31486E-03   -0.31484E-03  9568   0.104E-01-0.158E-05
CGA:  11    -0.313176073617E+03   -0.45139E-03   -0.45163E-03  9568   0.247E-02 0.268E-04
CGA:  12    -0.313176237500E+03   -0.16388E-03   -0.16395E-03  9568   0.180E-02-0.202E-05
CGA:  13    -0.313176307167E+03   -0.69667E-04   -0.69709E-04  9568   0.241E-02 0.179E-05
CGA:  14    -0.313176371055E+03   -0.63888E-04   -0.63808E-04  9568   0.118E-02 0.126E-05
CGA:  15    -0.313176431575E+03   -0.60520E-04   -0.60528E-04  9568   0.460E-03-0.151E-05
CGA:  16    -0.313176450078E+03   -0.18503E-04   -0.18501E-04  9568   0.421E-03 0.120E-06
CGA:  17    -0.313176475401E+03   -0.25323E-04   -0.25319E-04  9568   0.280E-03 0.620E-07
CGA:  18    -0.313176485531E+03   -0.10130E-04   -0.10128E-04  9568   0.448E-03-0.138E-06
CGA:  19    -0.313176500894E+03   -0.15363E-04   -0.15372E-04  9568   0.136E-03 0.475E-06
CGA:  20    -0.313176509125E+03   -0.82313E-05   -0.82254E-05  9568   0.867E-04 0.400E-06
  55 F= -.31317651E+03 E0= -.31315478E+03  d E =0.219289E-04  mag=    24.2862
       N       E                     dE             d eps       ncg     rms          ort
SDA:   1    -0.313119402802E+03    0.57098E-01    0.00000E+00  9568   0.522E+00 0.000E+00
CGA:   2    -0.313128746696E+03   -0.93439E-02   -0.98146E-02  9568   0.310E+00-0.174E-01
CGA:   3    -0.313142177857E+03   -0.13431E-01   -0.13413E-01  9568   0.292E+00-0.326E-02
CGA:   4    -0.313158697191E+03   -0.16519E-01   -0.16440E-01  9568   0.132E+00 0.542E-02
CGA:   5    -0.313162578185E+03   -0.38810E-02   -0.39037E-02  9568   0.127E+00-0.169E-03
CGA:   6    -0.313167408828E+03   -0.48306E-02   -0.48170E-02  9568   0.109E+00-0.439E-03
CGA:   7    -0.313171303478E+03   -0.38946E-02   -0.39011E-02  9568   0.596E-01 0.167E-03
CGA:   8    -0.313173731245E+03   -0.24278E-02   -0.24242E-02  9568   0.185E-01-0.264E-03
CGA:   9    -0.313174230889E+03   -0.49964E-03   -0.49919E-03  9568   0.200E-01 0.621E-05
CGA:  10    -0.313175192640E+03   -0.96175E-03   -0.96204E-03  9568   0.745E-02-0.455E-04
CGA:  11    -0.313175532026E+03   -0.33939E-03   -0.33934E-03  9568   0.670E-02 0.289E-04
CGA:  12    -0.313175688406E+03   -0.15638E-03   -0.15657E-03  9568   0.301E-02-0.151E-05
CGA:  13    -0.313175789727E+03   -0.10132E-03   -0.10141E-03  9568   0.206E-02 0.328E-05
CGA:  14    -0.313175884350E+03   -0.94623E-04   -0.94612E-04  9568   0.148E-02 0.185E-05
CGA:  15    -0.313175944064E+03   -0.59714E-04   -0.59703E-04  9568   0.160E-02-0.172E-05
CGA:  16    -0.313175983752E+03   -0.39689E-04   -0.39697E-04  9568   0.645E-03-0.538E-06
CGA:  17    -0.313176011205E+03   -0.27452E-04   -0.27453E-04  9568   0.318E-03-0.102E-05
CGA:  18    -0.313176029011E+03   -0.17807E-04   -0.17800E-04  9568   0.742E-03 0.471E-06
CGA:  19    -0.313176051805E+03   -0.22794E-04   -0.22800E-04  9568   0.255E-03 0.863E-06
CGA:  20    -0.313176062321E+03   -0.10516E-04   -0.10516E-04  9568   0.236E-03-0.497E-07
CGA:  21    -0.313176071690E+03   -0.93693E-05   -0.93710E-05  9568   0.154E-03 0.646E-06
  56 F= -.31317607E+03 E0= -.31315435E+03  d E =0.437435E-03  mag=    24.2832
       N       E                     dE             d eps       ncg     rms          ort
SDA:   1    -0.313105251516E+03    0.70811E-01    0.00000E+00  9568   0.109E+01 0.000E+00
CGA:   2    -0.313119010383E+03   -0.13759E-01   -0.13945E-01  9568   0.217E+00-0.133E-01
CGA:   3    -0.313135456173E+03   -0.16446E-01   -0.16403E-01  9568   0.484E+00 0.129E-02
CGA:   4    -0.313155838189E+03   -0.20382E-01   -0.20382E-01  9568   0.163E+00-0.828E-03
CGA:   5    -0.313164665675E+03   -0.88275E-02   -0.87885E-02  9568   0.855E-01 0.230E-02
CGA:   6    -0.313168025054E+03   -0.33594E-02   -0.33627E-02  9568   0.133E+00 0.380E-03
CGA:   7    -0.313172039783E+03   -0.40147E-02   -0.39984E-02  9568   0.426E-01-0.114E-03
CGA:   8    -0.313173530353E+03   -0.14906E-02   -0.14947E-02  9568   0.180E-01 0.212E-03
CGA:   9    -0.313174314288E+03   -0.78393E-03   -0.78371E-03  9568   0.146E-01 0.595E-04
CGA:  10    -0.313174736503E+03   -0.42222E-03   -0.42220E-03  9568   0.100E-01-0.114E-05
CGA:  11    -0.313175005316E+03   -0.26881E-03   -0.26945E-03  9568   0.523E-02 0.289E-05
CGA:  12    -0.313175295131E+03   -0.28982E-03   -0.28995E-03  9568   0.181E-02-0.637E-05
CGA:  13    -0.313175367076E+03   -0.71944E-04   -0.71945E-04  9568   0.231E-02 0.458E-06
CGA:  14    -0.313175427405E+03   -0.60330E-04   -0.60264E-04  9568   0.104E-02-0.137E-05
CGA:  15    -0.313175482964E+03   -0.55558E-04   -0.55565E-04  9568   0.112E-02-0.609E-06
CGA:  16    -0.313175522537E+03   -0.39573E-04   -0.39575E-04  9568   0.387E-03 0.752E-06
CGA:  17    -0.313175535365E+03   -0.12828E-04   -0.12833E-04  9568   0.492E-03 0.583E-06
CGA:  18    -0.313175552161E+03   -0.16796E-04   -0.16794E-04  9568   0.171E-03-0.115E-06
CGA:  19    -0.313175566810E+03   -0.14649E-04   -0.14638E-04  9568   0.330E-03 0.239E-06
CGA:  20    -0.313175576436E+03   -0.96257E-05   -0.96179E-05  9568   0.197E-03-0.562E-06
  57 F= -.31317558E+03 E0= -.31315386E+03  d E =0.495254E-03  mag=    24.2840
       N       E                     dE             d eps       ncg     rms          ort
SDA:   1    -0.313074268198E+03    0.10130E+00    0.00000E+00  9568   0.223E+01 0.000E+00
CGA:   2    -0.313099887527E+03   -0.25619E-01   -0.26586E-01  9568   0.273E+00-0.727E-01
CGA:   3    -0.313120638166E+03   -0.20751E-01   -0.20813E-01  9568   0.531E+00-0.141E-02
CGA:   4    -0.313147104814E+03   -0.26467E-01   -0.26353E-01  9568   0.635E+00 0.876E-02
CGA:   5    -0.313160038231E+03   -0.12933E-01   -0.12803E-01  9568   0.130E+00 0.327E-02
CGA:   6    -0.313165321941E+03   -0.52837E-02   -0.52838E-02  9568   0.108E+00-0.394E-03
CGA:   7    -0.313169076692E+03   -0.37548E-02   -0.37601E-02  9568   0.830E-01 0.337E-03
CGA:   8    -0.313171749463E+03   -0.26728E-02   -0.26746E-02  9568   0.583E-01 0.536E-04
CGA:   9    -0.313173315156E+03   -0.15657E-02   -0.15690E-02  9568   0.136E-01 0.179E-04
CGA:  10    -0.313173953290E+03   -0.63813E-03   -0.63836E-03  9568   0.186E-01-0.170E-04
CGA:  11    -0.313174380714E+03   -0.42742E-03   -0.42799E-03  9568   0.518E-02-0.552E-05
CGA:  12    -0.313174799710E+03   -0.41900E-03   -0.41975E-03  9568   0.750E-02-0.177E-04
CGA:  13    -0.313174921506E+03   -0.12180E-03   -0.12200E-03  9568   0.111E-02-0.650E-05
CGA:  14    -0.313174999606E+03   -0.78100E-04   -0.78075E-04  9568   0.174E-02 0.988E-06
CGA:  15    -0.313175048296E+03   -0.48690E-04   -0.48680E-04  9568   0.128E-02-0.446E-06
CGA:  16    -0.313175098901E+03   -0.50604E-04   -0.50606E-04  9568   0.666E-03 0.141E-06
CGA:  17    -0.313175120012E+03   -0.21111E-04   -0.21118E-04  9568   0.402E-03 0.475E-06
CGA:  18    -0.313175132800E+03   -0.12788E-04   -0.12785E-04  9568   0.302E-03-0.401E-06
CGA:  19    -0.313175143779E+03   -0.10979E-04   -0.10977E-04  9568   0.255E-03-0.539E-06
CGA:  20    -0.313175155836E+03   -0.12057E-04   -0.12061E-04  9568   0.229E-03-0.509E-06
CGA:  21    -0.313175164402E+03   -0.85663E-05   -0.85675E-05  9568   0.251E-03 0.408E-06
  58 F= -.31317516E+03 E0= -.31315344E+03  d E =0.412034E-03  mag=    24.2825
       N       E                     dE             d eps       ncg     rms          ort
SDA:   1    -0.312892578817E+03    0.28258E+00    0.00000E+00  9568   0.100E+01 0.000E+00
CGA:   2    -0.312939103220E+03   -0.46524E-01   -0.46261E-01  9568   0.233E+01 0.247E-01
CGA:   3    -0.313041213785E+03   -0.10211E+00   -0.10200E+00  9568   0.168E+01 0.204E-01
CGA:   4    -0.313099951138E+03   -0.58737E-01   -0.58946E-01  9568   0.612E+00 0.153E-01
CGA:   5    -0.313126524628E+03   -0.26573E-01   -0.26503E-01  9568   0.489E+00 0.116E-01
CGA:   6    -0.313150272534E+03   -0.23748E-01   -0.23788E-01  9568   0.449E+00-0.315E-02
CGA:   7    -0.313159717923E+03   -0.94454E-02   -0.95214E-02  9568   0.210E+00-0.165E-02
CGA:   8    -0.313167051168E+03   -0.73332E-02   -0.73393E-02  9568   0.519E-01 0.608E-03
CGA:   9    -0.313170989928E+03   -0.39388E-02   -0.39156E-02  9568   0.503E-01 0.624E-03
CGA:  10    -0.313172079226E+03   -0.10893E-02   -0.10908E-02  9568   0.346E-01-0.334E-04
CGA:  11    -0.313173816225E+03   -0.17370E-02   -0.17322E-02  9568   0.107E-01 0.327E-03
CGA:  12    -0.313174127367E+03   -0.31114E-03   -0.31115E-03  9568   0.634E-02-0.237E-05
CGA:  13    -0.313174617127E+03   -0.48976E-03   -0.48835E-03  9568   0.115E-01 0.365E-04
CGA:  14    -0.313174827441E+03   -0.21031E-03   -0.21027E-03  9568   0.295E-02-0.179E-06
CGA:  15    -0.313175001152E+03   -0.17371E-03   -0.17370E-03  9568   0.135E-02 0.548E-06
CGA:  16    -0.313175068337E+03   -0.67185E-04   -0.67198E-04  9568   0.247E-02-0.921E-06
CGA:  17    -0.313175134505E+03   -0.66168E-04   -0.66187E-04  9568   0.989E-03-0.727E-07
CGA:  18    -0.313175186119E+03   -0.51614E-04   -0.51629E-04  9568   0.115E-02-0.138E-05
CGA:  19    -0.313175229653E+03   -0.43535E-04   -0.43547E-04  9568   0.440E-03 0.212E-05
CGA:  20    -0.313175244628E+03   -0.14975E-04   -0.14979E-04  9568   0.638E-03 0.264E-06
CGA:  21    -0.313175271816E+03   -0.27188E-04   -0.27186E-04  9568   0.317E-03 0.111E-05
CGA:  22    -0.313175293398E+03   -0.21582E-04   -0.21539E-04  9568   0.394E-03 0.143E-05
CGA:  23    -0.313175306403E+03   -0.13005E-04   -0.13016E-04  9568   0.398E-03 0.844E-06
CGA:  24    -0.313175317850E+03   -0.11447E-04   -0.11452E-04  9568   0.150E-03 0.394E-06
CGA:  25    -0.313175326362E+03   -0.85115E-05   -0.85053E-05  9568   0.151E-03 0.370E-06
  59 F= -.31317533E+03 E0= -.31315357E+03  d E =-.161959E-03  mag=    24.2794
       N       E                     dE             d eps       ncg     rms          ort
SDA:   1    -0.313043416124E+03    0.13190E+00    0.00000E+00  9568   0.167E+01 0.000E+00
CGA:   2    -0.313065714010E+03   -0.22298E-01   -0.22209E-01  9568   0.437E+00 0.112E-03
CGA:   3    -0.313112609163E+03   -0.46895E-01   -0.46834E-01  9568   0.663E+00 0.115E-02
CGA:   4    -0.313146498723E+03   -0.33890E-01   -0.33835E-01  9568   0.237E+00 0.501E-02
CGA:   5    -0.313157587599E+03   -0.11089E-01   -0.11082E-01  9568   0.198E+00 0.169E-02
CGA:   6    -0.313166244339E+03   -0.86567E-02   -0.86585E-02  9568   0.199E+00 0.106E-02
CGA:   7    -0.313171406089E+03   -0.51618E-02   -0.51789E-02  9568   0.119E+00-0.233E-03
CGA:   8    -0.313174437094E+03   -0.30310E-02   -0.30385E-02  9568   0.280E-01-0.872E-04
CGA:   9    -0.313176645648E+03   -0.22086E-02   -0.22098E-02  9568   0.130E-01-0.311E-04
CGA:  10    -0.313177537286E+03   -0.89164E-03   -0.89327E-03  9568   0.161E-01-0.545E-04
CGA:  11    -0.313177868303E+03   -0.33102E-03   -0.33150E-03  9568   0.581E-02-0.836E-05
CGA:  12    -0.313178032487E+03   -0.16418E-03   -0.16376E-03  9568   0.397E-02 0.180E-05
CGA:  13    -0.313178234213E+03   -0.20173E-03   -0.20177E-03  9568   0.204E-02-0.445E-05
CGA:  14    -0.313178381705E+03   -0.14749E-03   -0.14742E-03  9568   0.146E-02 0.253E-05
CGA:  15    -0.313178449187E+03   -0.67482E-04   -0.67484E-04  9568   0.674E-03-0.755E-06
CGA:  16    -0.313178478584E+03   -0.29397E-04   -0.29398E-04  9568   0.111E-02 0.823E-06
CGA:  17    -0.313178510675E+03   -0.32091E-04   -0.32128E-04  9568   0.482E-03 0.113E-05
CGA:  18    -0.313178527057E+03   -0.16382E-04   -0.16381E-04  9568   0.356E-03-0.198E-06
CGA:  19    -0.313178556622E+03   -0.29565E-04   -0.29520E-04  9568   0.203E-03 0.111E-05
CGA:  20    -0.313178568122E+03   -0.11500E-04   -0.11494E-04  9568   0.213E-03 0.617E-06
CGA:  21    -0.313178573042E+03   -0.49196E-05   -0.49359E-05  9568   0.165E-03 0.491E-06
CGA:  22    -0.313178584926E+03   -0.11884E-04   -0.11860E-04  9568   0.179E-03 0.704E-06
CGA:  23    -0.313178591165E+03   -0.62390E-05   -0.62430E-05  9568   0.788E-04 0.188E-06
  60 F= -.31317859E+03 E0= -.31315684E+03  d E =-.326480E-02  mag=    24.2750
       N       E                     dE             d eps       ncg     rms          ort
SDA:   1    -0.313142907866E+03    0.35677E-01    0.00000E+00  9568   0.436E+00 0.000E+00
CGA:   2    -0.313148866670E+03   -0.59588E-02   -0.62562E-02  9568   0.126E+00-0.163E-01
CGA:   3    -0.313155552699E+03   -0.66860E-02   -0.67369E-02  9568   0.203E+00-0.326E-02
CGA:   4    -0.313168184819E+03   -0.12632E-01   -0.12630E-01  9568   0.178E+00 0.128E-03
CGA:   5    -0.313171806024E+03   -0.36212E-02   -0.36688E-02  9568   0.531E-01-0.140E-02
CGA:   6    -0.313173301746E+03   -0.14957E-02   -0.14918E-02  9568   0.432E-01 0.239E-04
CGA:   7    -0.313176014868E+03   -0.27131E-02   -0.27118E-02  9568   0.210E-01 0.591E-04
CGA:   8    -0.313176569407E+03   -0.55454E-03   -0.55457E-03  9568   0.165E-01 0.715E-06
CGA:   9    -0.313177052504E+03   -0.48310E-03   -0.48310E-03  9568   0.394E-02 0.505E-05
CGA:  10    -0.313177279025E+03   -0.22652E-03   -0.22661E-03  9568   0.659E-02-0.378E-05
CGA:  11    -0.313177460333E+03   -0.18131E-03   -0.18133E-03  9568   0.279E-02 0.206E-05
CGA:  12    -0.313177533146E+03   -0.72813E-04   -0.72750E-04  9568   0.124E-02 0.924E-06
CGA:  13    -0.313177585849E+03   -0.52703E-04   -0.52702E-04  9568   0.639E-03-0.135E-05
CGA:  14    -0.313177604487E+03   -0.18639E-04   -0.18635E-04  9568   0.665E-03-0.396E-06
CGA:  15    -0.313177636643E+03   -0.32156E-04   -0.32157E-04  9568   0.532E-03 0.230E-09
CGA:  16    -0.313177656503E+03   -0.19860E-04   -0.19860E-04  9568   0.202E-03-0.481E-06
CGA:  17    -0.313177660535E+03   -0.40316E-05   -0.40323E-05  9568   0.103E-03-0.120E-07
  61 F= -.31317766E+03 E0= -.31315592E+03  d E =0.930630E-03  mag=    24.2739
       N       E                     dE             d eps       ncg     rms          ort
SDA:   1    -0.313039748271E+03    0.13791E+00    0.00000E+00  9568   0.168E+01 0.000E+00
CGA:   2    -0.313064336738E+03   -0.24588E-01   -0.25436E-01  9568   0.492E+00-0.445E-01
CGA:   3    -0.313088090009E+03   -0.23753E-01   -0.23741E-01  9568   0.954E+00 0.122E-02
CGA:   4    -0.313144509856E+03   -0.56420E-01   -0.56391E-01  9568   0.234E+00 0.135E-02
CGA:   5    -0.313155972445E+03   -0.11463E-01   -0.11455E-01  9568   0.311E+00 0.755E-03
CGA:   6    -0.313163893232E+03   -0.79208E-02   -0.79372E-02  9568   0.190E+00-0.237E-03
CGA:   7    -0.313171126806E+03   -0.72336E-02   -0.72431E-02  9568   0.903E-01 0.102E-02
CGA:   8    -0.313174367907E+03   -0.32411E-02   -0.32423E-02  9568   0.298E-01 0.699E-04
CGA:   9    -0.313175881771E+03   -0.15139E-02   -0.15157E-02  9568   0.206E-01-0.128E-03
CGA:  10    -0.313176997764E+03   -0.11160E-02   -0.11134E-02  9568   0.145E-01 0.157E-03
CGA:  11    -0.313177341083E+03   -0.34332E-03   -0.34314E-03  9568   0.101E-01 0.334E-05
CGA:  12    -0.313177688326E+03   -0.34724E-03   -0.34720E-03  9568   0.406E-02-0.466E-05
CGA:  13    -0.313177826575E+03   -0.13825E-03   -0.13823E-03  9568   0.217E-02-0.906E-06
CGA:  14    -0.313178014384E+03   -0.18781E-03   -0.18810E-03  9568   0.197E-02-0.650E-05
CGA:  15    -0.313178074752E+03   -0.60369E-04   -0.60395E-04  9568   0.176E-02 0.395E-06
CGA:  16    -0.313178119118E+03   -0.44365E-04   -0.44350E-04  9568   0.632E-03-0.652E-06
CGA:  17    -0.313178145611E+03   -0.26493E-04   -0.26494E-04  9568   0.589E-03-0.781E-06
CGA:  18    -0.313178188491E+03   -0.42880E-04   -0.42861E-04  9568   0.370E-03 0.462E-06
CGA:  19    -0.313178203714E+03   -0.15223E-04   -0.15223E-04  9568   0.547E-03-0.651E-08
CGA:  20    -0.313178219631E+03   -0.15917E-04   -0.15912E-04  9568   0.279E-03-0.106E-06
CGA:  21    -0.313178229973E+03   -0.10342E-04   -0.10347E-04  9568   0.172E-03 0.890E-06
CGA:  22    -0.313178242495E+03   -0.12522E-04   -0.12509E-04  9568   0.205E-03 0.391E-06
CGA:  23    -0.313178251508E+03   -0.90126E-05   -0.90125E-05  9568   0.210E-03 0.823E-06
  62 F= -.31317825E+03 E0= -.31315651E+03  d E =-.590973E-03  mag=    24.2682
