       N       E                     dE             d eps       ncg     rms          rms(c)
DAV:   1     0.738439013477E+04    0.73844E+04   -0.33176E+05 41280   0.171E+03
DAV:   2     0.501462467343E+03   -0.68829E+04   -0.64633E+04 39264   0.521E+02
DAV:   3    -0.323787103626E+03   -0.82525E+03   -0.80168E+03 41448   0.200E+02
DAV:   4    -0.358307413220E+03   -0.34520E+02   -0.34057E+02 45992   0.399E+01
DAV:   5    -0.360715971767E+03   -0.24086E+01   -0.23918E+01 66056   0.813E+00    0.609E+01
DAV:   6    -0.317687841944E+03    0.43028E+02   -0.38756E+02 48936   0.600E+01    0.935E+01
DAV:   7    -0.318511623442E+03   -0.82378E+00   -0.67890E+01 43520   0.456E+01    0.718E+01
DAV:   8    -0.321724389765E+03   -0.32128E+01   -0.66735E+01 45360   0.408E+01    0.676E+01
DAV:   9    -0.341393854071E+03   -0.19669E+02   -0.14143E+02 51472   0.367E+01    0.930E+01
DAV:  10    -0.331662681105E+03    0.97312E+01   -0.13352E+02 48416   0.260E+01    0.714E+01
DAV:  11    -0.323033326900E+03    0.86294E+01   -0.13919E+01 48032   0.237E+01    0.617E+01
DAV:  12    -0.333515114834E+03   -0.10482E+02   -0.83255E+01 50384   0.327E+01    0.871E+01
DAV:  13    -0.327799351720E+03    0.57158E+01   -0.15138E+02 46920   0.225E+01    0.651E+01
DAV:  14    -0.323583069586E+03    0.42163E+01   -0.13129E+01 48416   0.219E+01    0.714E+01
DAV:  15    -0.315517841589E+03    0.80652E+01   -0.24205E+01 49184   0.174E+01    0.510E+01
DAV:  16    -0.314308855924E+03    0.12090E+01   -0.95708E+00 47360   0.119E+01    0.464E+01
DAV:  17    -0.311231535717E+03    0.30773E+01   -0.17882E+01 49672   0.102E+01    0.371E+01
DAV:  18    -0.310600185768E+03    0.63135E+00   -0.10679E+01 48520   0.991E+00    0.379E+01
DAV:  19    -0.309700627967E+03    0.89956E+00   -0.18168E+00 47648   0.444E+00    0.195E+01
DAV:  20    -0.309797237053E+03   -0.96609E-01   -0.21112E-01 43416   0.216E+00    0.183E+01
DAV:  21    -0.310208943425E+03   -0.41171E+00   -0.23377E-01 46864   0.251E+00    0.198E+01
DAV:  22    -0.310226297669E+03   -0.17354E-01   -0.15649E-01 46688   0.193E+00    0.166E+01
DAV:  23    -0.310584159123E+03   -0.35786E+00   -0.40813E-01 48288   0.325E+00    0.162E+01
DAV:  24    -0.310899052220E+03   -0.31489E+00   -0.24196E-01 46136   0.172E+00    0.165E+01
DAV:  25    -0.310953729778E+03   -0.54678E-01   -0.29321E-01 47160   0.216E+00    0.148E+01
DAV:  26    -0.311152584154E+03   -0.19885E+00   -0.23640E-01 47872   0.209E+00    0.141E+01
DAV:  27    -0.311254555043E+03   -0.10197E+00   -0.23021E-01 47552   0.127E+00    0.145E+01
DAV:  28    -0.311486814333E+03   -0.23226E+00   -0.27339E-01 47712   0.225E+00    0.139E+01
DAV:  29    -0.312073681771E+03   -0.58687E+00   -0.15898E+00 49032   0.287E+00    0.231E+01
DAV:  30    -0.312036584464E+03    0.37097E-01   -0.11363E-01 40080   0.135E+00    0.231E+01
DAV:  31    -0.311946473313E+03    0.90111E-01   -0.64129E-02 50480   0.108E+00    0.213E+01
DAV:  32    -0.311716881780E+03    0.22959E+00   -0.80071E-01 49640   0.255E+00    0.152E+01
DAV:  33    -0.311779832803E+03   -0.62951E-01   -0.17912E-01 45024   0.174E+00    0.142E+01
DAV:  34    -0.311605541464E+03    0.17429E+00   -0.82455E-01 50192   0.212E+00    0.109E+01
DAV:  35    -0.311575290276E+03    0.30251E-01   -0.46111E-01 48736   0.272E+00    0.138E+01
DAV:  36    -0.311662120982E+03   -0.86831E-01   -0.22672E-01 45376   0.169E+00    0.134E+01
DAV:  37    -0.311670344782E+03   -0.82238E-02   -0.53774E-01 51712   0.129E+00    0.103E+01
DAV:  38    -0.311657748053E+03    0.12597E-01   -0.12158E-01 46232   0.119E+00    0.101E+01
DAV:  39    -0.311673177662E+03   -0.15430E-01   -0.38314E-02 47320   0.546E-01    0.108E+01
DAV:  40    -0.311772481205E+03   -0.99304E-01   -0.11651E-01 48928   0.174E+00    0.836E+00
DAV:  41    -0.311823361089E+03   -0.50880E-01   -0.24802E-01 51256   0.129E+00    0.624E+00
DAV:  42    -0.311861703857E+03   -0.38343E-01   -0.22039E-01 49256   0.144E+00    0.869E+00
DAV:  43    -0.311853495249E+03    0.82086E-02   -0.71224E-02 48840   0.855E-01    0.714E+00
DAV:  44    -0.311857703268E+03   -0.42080E-02   -0.10669E-02 39568   0.381E-01    0.730E+00
DAV:  45    -0.311822448427E+03    0.35255E-01   -0.36351E-02 51752   0.606E-01    0.641E+00
DAV:  46    -0.311765543231E+03    0.56905E-01   -0.15097E-01 53616   0.168E+00    0.663E+00
DAV:  47    -0.311715700590E+03    0.49843E-01   -0.81853E-02 51144   0.131E+00    0.552E+00
DAV:  48    -0.311709941785E+03    0.57588E-02   -0.20928E-02 48304   0.489E-01    0.528E+00
DAV:  49    -0.311692679352E+03    0.17262E-01   -0.43080E-02 53264   0.666E-01    0.530E+00
DAV:  50    -0.311685732779E+03    0.69466E-02   -0.87198E-03 46248   0.372E-01    0.543E+00
DAV:  51    -0.311707113805E+03   -0.21381E-01   -0.19197E-01 46688   0.875E-01    0.945E+00
DAV:  52    -0.311836164510E+03   -0.12905E+00   -0.53009E-01 47752   0.123E+00    0.199E+01
DAV:  53    -0.311775484030E+03    0.60680E-01   -0.52936E-02 39224   0.910E-01    0.220E+01
DAV:  54    -0.311740668615E+03    0.34815E-01   -0.78434E-03 47104   0.279E-01    0.225E+01
DAV:  55    -0.311708867029E+03    0.31802E-01   -0.14124E-03 50576   0.262E-01    0.225E+01
DAV:  56    -0.311649812811E+03    0.59054E-01   -0.25225E-02 56872   0.149E+00    0.215E+01
DAV:  57    -0.311672227316E+03   -0.22415E-01   -0.18573E-02 52664   0.655E-01    0.213E+01
DAV:  58    -0.311677319931E+03   -0.50926E-02   -0.44644E-03 53720   0.374E-01    0.211E+01
DAV:  59    -0.311650151337E+03    0.27169E-01   -0.84133E-03 57088   0.709E-01    0.201E+01
DAV:  60    -0.311664856573E+03   -0.14705E-01   -0.46652E-03 39320   0.189E-01    0.201E+01
DAV:  61    -0.311851671821E+03   -0.18682E+00   -0.16915E-01 49824   0.263E+00    0.226E+01
DAV:  62    -0.311741122318E+03    0.11055E+00   -0.34404E-02 50184   0.898E-01    0.221E+01
DAV:  63    -0.311734770617E+03    0.63517E-02   -0.53800E-03 52848   0.319E-01    0.221E+01
DAV:  64    -0.311696326982E+03    0.38444E-01   -0.39567E-03 52240   0.715E-01    0.221E+01
DAV:  65    -0.311656546799E+03    0.39780E-01   -0.92338E-03 57072   0.940E-01    0.219E+01
DAV:  66    -0.311590237675E+03    0.66309E-01   -0.30257E-02 50416   0.141E+00    0.201E+01
DAV:  67    -0.311560427717E+03    0.29810E-01   -0.87865E-02 52632   0.101E+00    0.145E+01
DAV:  68    -0.311626060177E+03   -0.65632E-01   -0.67066E-01 50952   0.137E+00    0.830E+00
DAV:  69    -0.311696148594E+03   -0.70088E-01   -0.80080E-02 42200   0.132E+00    0.751E+00
DAV:  70    -0.311673024117E+03    0.23124E-01   -0.61003E-02 51656   0.100E+00    0.795E+00
DAV:  71    -0.311632323805E+03    0.40700E-01   -0.21951E-01 51576   0.209E+00    0.891E+00
DAV:  72    -0.311641893434E+03   -0.95696E-02   -0.16970E-01 47864   0.106E+00    0.118E+01
DAV:  73    -0.311602163996E+03    0.39729E-01   -0.29328E-02 43488   0.768E-01    0.117E+01
DAV:  74    -0.311564900462E+03    0.37264E-01   -0.19313E-02 51712   0.565E-01    0.989E+00
DAV:  75    -0.311552831154E+03    0.12069E-01   -0.97715E-02 50704   0.834E-01    0.623E+00
DAV:  76    -0.311604391758E+03   -0.51561E-01   -0.27896E-01 48656   0.119E+00    0.623E+00
DAV:  77    -0.311602347999E+03    0.20438E-02   -0.32559E-02 40560   0.854E-01    0.546E+00
DAV:  78    -0.311598764015E+03    0.35840E-02   -0.72467E-03 49768   0.335E-01    0.521E+00
DAV:  79    -0.311580320326E+03    0.18444E-01   -0.15547E-02 51096   0.518E-01    0.411E+00
DAV:  80    -0.311576678504E+03    0.36418E-02   -0.15017E-02 50848   0.498E-01    0.333E+00
DAV:  81    -0.311575684482E+03    0.99402E-03   -0.58803E-02 51864   0.644E-01    0.222E+00
DAV:  82    -0.311580355273E+03   -0.46708E-02   -0.79648E-03 43296   0.390E-01    0.192E+00
DAV:  83    -0.311580193447E+03    0.16183E-03   -0.84481E-03 51128   0.256E-01    0.167E+00
DAV:  84    -0.311580183844E+03    0.96032E-05   -0.72521E-03 47488   0.298E-01    0.949E-01
DAV:  85    -0.311582479873E+03   -0.22960E-02   -0.94080E-03 49256   0.245E-01    0.880E-01
DAV:  86    -0.311583396247E+03   -0.91637E-03   -0.44546E-03 45864   0.314E-01    0.637E-01
DAV:  87    -0.311583596900E+03   -0.20065E-03   -0.13862E-03 44000   0.151E-01    0.410E-01
DAV:  88    -0.311583714407E+03   -0.11751E-03   -0.15146E-03 50224   0.903E-02    0.282E-01
DAV:  89    -0.311583909525E+03   -0.19512E-03   -0.44115E-04 41840   0.714E-02    0.404E-01
DAV:  90    -0.311583797015E+03    0.11251E-03   -0.67528E-04 39560   0.694E-02    0.233E-01
DAV:  91    -0.311583850355E+03   -0.53341E-04   -0.33535E-04 35384   0.550E-02    0.136E-01
DAV:  92    -0.311583883420E+03   -0.33065E-04   -0.97603E-05 32280   0.372E-02    0.123E-01
DAV:  93    -0.311583882757E+03    0.66325E-06   -0.37423E-05 25000   0.229E-02
   1 F= -.31158388E+03 E0= -.31155917E+03  d E =-.311584E+03  mag=    25.9391
       N       E                     dE             d eps       ncg     rms          rms(c)
DAV:   1    -0.311472588912E+03    0.11129E+00   -0.59038E+00 37496   0.154E+01    0.230E+00
DAV:   2    -0.311621971291E+03   -0.14938E+00   -0.20634E+00 40384   0.381E+00    0.487E+00
DAV:   3    -0.311678529062E+03   -0.56558E-01   -0.93825E-01 47032   0.294E+00    0.977E+00
DAV:   4    -0.311631224094E+03    0.47305E-01   -0.13883E+00 45216   0.236E+00    0.662E+00
DAV:   5    -0.311595330033E+03    0.35894E-01   -0.31258E-01 43088   0.218E+00    0.338E+00
DAV:   6    -0.311591088634E+03    0.42414E-02   -0.90555E-02 45080   0.133E+00    0.240E+00
DAV:   7    -0.311610124516E+03   -0.19036E-01   -0.28702E-01 46992   0.118E+00    0.426E+00
DAV:   8    -0.311591627869E+03    0.18497E-01   -0.20205E-01 42984   0.119E+00    0.259E+00
DAV:   9    -0.311592593342E+03   -0.96547E-03   -0.75602E-02 43112   0.888E-01    0.150E+00
DAV:  10    -0.311596105036E+03   -0.35117E-02   -0.30581E-02 44000   0.548E-01    0.165E+00
DAV:  11    -0.311593994664E+03    0.21104E-02   -0.26520E-02 44568   0.472E-01    0.904E-01
DAV:  12    -0.311596058017E+03   -0.20634E-02   -0.13927E-02 46536   0.427E-01    0.130E+00
DAV:  13    -0.311594667225E+03    0.13908E-02   -0.10104E-02 45832   0.457E-01    0.945E-01
DAV:  14    -0.311594872387E+03   -0.20516E-03   -0.82773E-03 45632   0.375E-01    0.737E-01
DAV:  15    -0.311595481439E+03   -0.60905E-03   -0.75823E-03 46104   0.327E-01    0.817E-01
DAV:  16    -0.311594719647E+03    0.76179E-03   -0.38006E-03 44904   0.273E-01    0.370E-01
DAV:  17    -0.311595051754E+03   -0.33211E-03   -0.11253E-03 43488   0.173E-01    0.233E-01
DAV:  18    -0.311595140083E+03   -0.88329E-04   -0.25542E-04 44120   0.870E-02    0.215E-01
DAV:  19    -0.311595096128E+03    0.43955E-04   -0.16661E-04 35944   0.407E-02    0.169E-01
DAV:  20    -0.311595107611E+03   -0.11483E-04   -0.35810E-04 31176   0.464E-02    0.896E-02
DAV:  21    -0.311595162673E+03   -0.55062E-04   -0.97998E-05 31880   0.446E-02    0.723E-02
DAV:  22    -0.311595157878E+03    0.47954E-05   -0.22911E-05 25736   0.279E-02
   2 F= -.31159516E+03 E0= -.31157063E+03  d E =-.112751E-01  mag=    25.9584
       N       E                     dE             d eps       ncg     rms          rms(c)
DAV:   1    -0.311584866602E+03    0.10296E-01   -0.54554E-01 37544   0.471E+00    0.694E-01
DAV:   2    -0.311598874705E+03   -0.14008E-01   -0.19017E-01 40344   0.114E+00    0.170E+00
DAV:   3    -0.311602911846E+03   -0.40371E-02   -0.93160E-02 44944   0.870E-01    0.309E+00
DAV:   4    -0.311596580679E+03    0.63312E-02   -0.81233E-02 43856   0.835E-01    0.206E+00
DAV:   5    -0.311593744624E+03    0.28361E-02   -0.17199E-02 42384   0.645E-01    0.540E-01
DAV:   6    -0.311597327513E+03   -0.35829E-02   -0.17884E-02 43744   0.336E-01    0.142E+00
DAV:   7    -0.311596037999E+03    0.12895E-02   -0.19860E-02 43832   0.375E-01    0.964E-01
DAV:   8    -0.311595691415E+03    0.34658E-03   -0.81467E-03 41984   0.299E-01    0.627E-01
DAV:   9    -0.311595894799E+03   -0.20338E-03   -0.32350E-03 42536   0.177E-01    0.287E-01
DAV:  10    -0.311596150002E+03   -0.25520E-03   -0.74015E-04 42992   0.127E-01    0.249E-01
DAV:  11    -0.311596132825E+03    0.17177E-04   -0.91673E-04 43968   0.121E-01    0.212E-01
DAV:  12    -0.311596138491E+03   -0.56660E-05   -0.40781E-04 38632   0.928E-02    0.119E-01
DAV:  13    -0.311596168180E+03   -0.29689E-04   -0.30233E-04 34872   0.848E-02    0.123E-01
DAV:  14    -0.311596184310E+03   -0.16130E-04   -0.31699E-04 29904   0.721E-02    0.172E-01
DAV:  15    -0.311596139319E+03    0.44990E-04   -0.20458E-04 29488   0.649E-02    0.733E-02
DAV:  16    -0.311596153547E+03   -0.14228E-04   -0.30191E-05 25640   0.313E-02    0.536E-02
DAV:  17    -0.311596155535E+03   -0.19878E-05   -0.21256E-05 22632   0.247E-02
   3 F= -.31159616E+03 E0= -.31157165E+03  d E =-.122728E-01  mag=    25.9639
       N       E                     dE             d eps       ncg     rms          rms(c)
DAV:   1    -0.311594803535E+03    0.13500E-02   -0.69865E-02 37576   0.169E+00    0.256E-01
DAV:   2    -0.311596706448E+03   -0.19029E-02   -0.24722E-02 41376   0.432E-01    0.674E-01
DAV:   3    -0.311596566383E+03    0.14007E-03   -0.10634E-02 45280   0.334E-01    0.828E-01
DAV:   4    -0.311597095026E+03   -0.52864E-03   -0.14482E-02 42592   0.307E-01    0.107E+00
DAV:   5    -0.311595759016E+03    0.13360E-02   -0.93328E-03 41640   0.283E-01    0.655E-01
DAV:   6    -0.311595915875E+03   -0.15686E-03   -0.31798E-03 39952   0.164E-01    0.155E-01
DAV:   7    -0.311596367619E+03   -0.45174E-03   -0.98009E-04 40448   0.123E-01    0.309E-01
DAV:   8    -0.311596214523E+03    0.15310E-03   -0.69265E-04 38776   0.104E-01    0.208E-01
DAV:   9    -0.311596218290E+03   -0.37663E-05   -0.36380E-04 31808   0.594E-02    0.128E-01
DAV:  10    -0.311596238382E+03   -0.20092E-04   -0.16170E-04 30024   0.550E-02    0.956E-02
DAV:  11    -0.311596238021E+03    0.36106E-06   -0.12432E-04 28744   0.458E-02    0.700E-02
DAV:  12    -0.311596240285E+03   -0.22641E-05   -0.42668E-05 26960   0.405E-02
   4 F= -.31159624E+03 E0= -.31157177E+03  d E =-.123575E-01  mag=    25.9660
       N       E                     dE             d eps       ncg     rms          rms(c)
DAV:   1    -0.311562027827E+03    0.34210E-01   -0.31102E+00 37440   0.883E+00    0.120E+00
DAV:   2    -0.311622078614E+03   -0.60051E-01   -0.68718E-01 40144   0.224E+00    0.437E+00
DAV:   3    -0.311605312649E+03    0.16766E-01   -0.48711E-01 45952   0.160E+00    0.404E+00
DAV:   4    -0.311617375554E+03   -0.12063E-01   -0.35434E-01 43320   0.142E+00    0.440E+00
DAV:   5    -0.311602175093E+03    0.15200E-01   -0.29735E-01 43400   0.126E+00    0.360E+00
DAV:   6    -0.311592995522E+03    0.91796E-02   -0.11055E-01 41944   0.932E-01    0.100E+00
DAV:   7    -0.311603956733E+03   -0.10961E-01   -0.33105E-02 42616   0.672E-01    0.211E+00
DAV:   8    -0.311600221716E+03    0.37350E-02   -0.44208E-02 43720   0.574E-01    0.132E+00
DAV:   9    -0.311601534479E+03   -0.13128E-02   -0.15109E-02 42128   0.500E-01    0.111E+00
DAV:  10    -0.311600295531E+03    0.12389E-02   -0.61782E-03 43928   0.356E-01    0.820E-01
DAV:  11    -0.311600351562E+03   -0.56031E-04   -0.29955E-03 47600   0.214E-01    0.611E-01
DAV:  12    -0.311600356914E+03   -0.53520E-05   -0.23502E-03 44928   0.188E-01    0.321E-01
DAV:  13    -0.311600735123E+03   -0.37821E-03   -0.14838E-03 44832   0.173E-01    0.294E-01
DAV:  14    -0.311600723179E+03    0.11944E-04   -0.70925E-04 44888   0.133E-01    0.208E-01
DAV:  15    -0.311600802534E+03   -0.79356E-04   -0.73526E-04 43496   0.103E-01    0.254E-01
DAV:  16    -0.311600715729E+03    0.86805E-04   -0.48490E-04 37600   0.948E-02    0.977E-02
DAV:  17    -0.311600767764E+03   -0.52034E-04   -0.10117E-04 29304   0.481E-02    0.900E-02
DAV:  18    -0.311600765129E+03    0.26349E-05   -0.57120E-05 26896   0.380E-02
   5 F= -.31160077E+03 E0= -.31157627E+03  d E =-.452484E-02  mag=    25.9664
       N       E                     dE             d eps       ncg     rms          rms(c)
DAV:   1    -0.311570277640E+03    0.30490E-01   -0.25531E+00 37440   0.800E+00    0.110E+00
DAV:   2    -0.311627141024E+03   -0.56863E-01   -0.61574E-01 40616   0.209E+00    0.524E+00
DAV:   3    -0.311597024016E+03    0.30117E-01   -0.47424E-01 45176   0.145E+00    0.314E+00
DAV:   4    -0.311622543026E+03   -0.25519E-01   -0.31903E-01 43336   0.134E+00    0.487E+00
DAV:   5    -0.311600108990E+03    0.22434E-01   -0.33457E-01 42896   0.121E+00    0.362E+00
DAV:   6    -0.311594054774E+03    0.60542E-02   -0.10795E-01 42104   0.939E-01    0.126E+00
DAV:   7    -0.311603050085E+03   -0.89953E-02   -0.25475E-02 43368   0.638E-01    0.155E+00
DAV:   8    -0.311602718373E+03    0.33171E-03   -0.36611E-02 44664   0.534E-01    0.159E+00
DAV:   9    -0.311602001421E+03    0.71695E-03   -0.20565E-02 43848   0.479E-01    0.108E+00
DAV:  10    -0.311602004688E+03   -0.32678E-05   -0.57923E-03 43288   0.348E-01    0.106E+00
DAV:  11    -0.311601301448E+03    0.70324E-03   -0.24041E-03 46304   0.190E-01    0.856E-01
DAV:  12    -0.311601103005E+03    0.19844E-03   -0.17787E-03 46560   0.151E-01    0.408E-01
DAV:  13    -0.311601763259E+03   -0.66025E-03   -0.21441E-03 46416   0.174E-01    0.294E-01
DAV:  14    -0.311601979590E+03   -0.21633E-03   -0.99033E-04 43352   0.160E-01    0.239E-01
DAV:  15    -0.311602045696E+03   -0.66106E-04   -0.80359E-04 45656   0.121E-01    0.310E-01
DAV:  16    -0.311601892375E+03    0.15332E-03   -0.67450E-04 38976   0.101E-01    0.107E-01
DAV:  17    -0.311601966785E+03   -0.74410E-04   -0.75080E-05 31640   0.558E-02    0.948E-02
DAV:  18    -0.311601964686E+03    0.20989E-05   -0.58330E-05 27488   0.410E-02
   6 F= -.31160196E+03 E0= -.31157749E+03  d E =-.572440E-02  mag=    25.9659
       N       E                     dE             d eps       ncg     rms          rms(c)
DAV:   1    -0.311572407783E+03    0.29559E-01   -0.17608E+00 38912   0.731E+00    0.701E-01
DAV:   2    -0.311615783043E+03   -0.43375E-01   -0.40524E-01 39968   0.160E+00    0.386E+00
DAV:   3    -0.311597426847E+03    0.18356E-01   -0.18562E-01 42984   0.111E+00    0.182E+00
DAV:   4    -0.311607070631E+03   -0.96438E-02   -0.57792E-02 42008   0.875E-01    0.203E+00
DAV:   5    -0.311603301909E+03    0.37687E-02   -0.54150E-02 41672   0.635E-01    0.167E+00
DAV:   6    -0.311601773999E+03    0.15279E-02   -0.20416E-02 40152   0.384E-01    0.481E-01
DAV:   7    -0.311603909870E+03   -0.21359E-02   -0.41261E-03 43048   0.254E-01    0.569E-01
DAV:   8    -0.311603830891E+03    0.78979E-04   -0.42211E-03 43600   0.219E-01    0.543E-01
DAV:   9    -0.311603629075E+03    0.20182E-03   -0.22700E-03 42160   0.158E-01    0.346E-01
DAV:  10    -0.311603726119E+03   -0.97045E-04   -0.89485E-04 39624   0.144E-01    0.265E-01
DAV:  11    -0.311603758353E+03   -0.32234E-04   -0.94224E-04 43552   0.118E-01    0.294E-01
DAV:  12    -0.311603672188E+03    0.86166E-04   -0.55862E-04 42872   0.112E-01    0.143E-01
DAV:  13    -0.311603722467E+03   -0.50279E-04   -0.22542E-04 37336   0.691E-02    0.133E-01
DAV:  14    -0.311603721784E+03    0.68285E-06   -0.12665E-04 31536   0.681E-02    0.128E-01
DAV:  15    -0.311603721075E+03    0.70877E-06   -0.13505E-04 28616   0.542E-02    0.123E-01
DAV:  16    -0.311603707505E+03    0.13570E-04   -0.72283E-05 27960   0.461E-02    0.729E-02
DAV:  17    -0.311603712162E+03   -0.46570E-05   -0.20659E-05 23592   0.248E-02
   7 F= -.31160371E+03 E0= -.31157923E+03  d E =-.174748E-02  mag=    25.9650
       N       E                     dE             d eps       ncg     rms          rms(c)
DAV:   1    -0.311595585616E+03    0.81219E-02   -0.46633E-01 38896   0.377E+00    0.358E-01
DAV:   2    -0.311606326182E+03   -0.10741E-01   -0.10083E-01 39960   0.817E-01    0.168E+00
DAV:   3    -0.311603105345E+03    0.32208E-02   -0.41714E-02 43312   0.577E-01    0.118E+00
DAV:   4    -0.311604504172E+03   -0.13988E-02   -0.24067E-02 42904   0.459E-01    0.105E+00
DAV:   5    -0.311604027226E+03    0.47695E-03   -0.14718E-02 41816   0.346E-01    0.103E+00
DAV:   6    -0.311603187768E+03    0.83946E-03   -0.68334E-03 39944   0.231E-01    0.226E-01
DAV:   7    -0.311604034600E+03   -0.84683E-03   -0.18919E-03 40256   0.139E-01    0.471E-01
DAV:   8    -0.311603791635E+03    0.24297E-03   -0.12468E-03 39392   0.120E-01    0.224E-01
DAV:   9    -0.311603852604E+03   -0.60969E-04   -0.38397E-04 35984   0.912E-02    0.133E-01
DAV:  10    -0.311603881397E+03   -0.28793E-04   -0.17801E-04 32392   0.657E-02    0.101E-01
DAV:  11    -0.311603904976E+03   -0.23579E-04   -0.30844E-04 31176   0.647E-02    0.151E-01
DAV:  12    -0.311603871880E+03    0.33096E-04   -0.12780E-04 30072   0.575E-02    0.709E-02
DAV:  13    -0.311603882078E+03   -0.10198E-04   -0.41564E-05 25448   0.300E-02    0.449E-02
DAV:  14    -0.311603889080E+03   -0.70020E-05   -0.52783E-05 23488   0.306E-02
   8 F= -.31160389E+03 E0= -.31157948E+03  d E =-.192439E-02  mag=    25.9648
       N       E                     dE             d eps       ncg     rms          rms(c)
DAV:   1    -0.311583748780E+03    0.20133E-01   -0.14391E+00 39056   0.612E+00    0.547E-01
DAV:   2    -0.311610855547E+03   -0.27107E-01   -0.27393E-01 38624   0.129E+00    0.245E+00
DAV:   3    -0.311603882320E+03    0.69732E-02   -0.97123E-02 43184   0.847E-01    0.195E+00
DAV:   4    -0.311606549257E+03   -0.26669E-02   -0.49243E-02 42336   0.704E-01    0.167E+00
DAV:   5    -0.311604529853E+03    0.20194E-02   -0.26917E-02 41456   0.529E-01    0.118E+00
DAV:   6    -0.311604301865E+03    0.22799E-03   -0.75409E-03 40680   0.298E-01    0.372E-01
DAV:   7    -0.311605449030E+03   -0.11472E-02   -0.40782E-03 43632   0.191E-01    0.712E-01
DAV:   8    -0.311604773993E+03    0.67504E-03   -0.34315E-03 40952   0.196E-01    0.282E-01
DAV:   9    -0.311605151193E+03   -0.37720E-03   -0.13921E-03 40416   0.154E-01    0.310E-01
DAV:  10    -0.311605043484E+03    0.10771E-03   -0.71215E-04 40976   0.124E-01    0.200E-01
DAV:  11    -0.311605069910E+03   -0.26426E-04   -0.43571E-04 38632   0.897E-02    0.194E-01
DAV:  12    -0.311605051766E+03    0.18144E-04   -0.34989E-04 34872   0.819E-02    0.119E-01
DAV:  13    -0.311605077044E+03   -0.25278E-04   -0.15987E-04 31600   0.633E-02    0.105E-01
DAV:  14    -0.311605070315E+03    0.67295E-05   -0.64708E-05 28080   0.475E-02
   9 F= -.31160507E+03 E0= -.31158073E+03  d E =-.118123E-02  mag=    25.9645
