       N       E                     dE             d eps       ncg     rms          ort
DAV:   1     0.560580720491E+04    0.56058E+04   -0.26854E+05  7696   0.164E+03
DAV:   2     0.231052319349E+03   -0.53748E+04   -0.49700E+04  7696   0.461E+02
DAV:   3    -0.380457288990E+03   -0.61151E+03   -0.60140E+03  7696   0.172E+02
DAV:   4    -0.396172601088E+03   -0.15715E+02   -0.15623E+02  7696   0.289E+01
DAV:   5    -0.396620491077E+03   -0.44789E+00   -0.44689E+00  7696   0.412E+00
SDA:   6    -0.163298954702E+03    0.23332E+03   -0.44689E+00  7696   0.105E+04 0.000E+00
CGA:   7    -0.252564517811E+03   -0.89266E+02   -0.10857E+03  7696   0.262E+04-0.161E+03
CGA:   8    -0.280083757394E+03   -0.27519E+02   -0.59834E+02  7696   0.347E+03-0.200E+03
CGA:   9    -0.294800896025E+03   -0.14717E+02   -0.85869E+01  7696   0.354E+03 0.805E+02
CGA:  10    -0.262486047216E+03    0.32315E+02   -0.25159E+02  7696   0.843E+03-0.354E+02
CGA:  11    -0.305129389590E+03   -0.42643E+02   -0.92603E+01  7696   0.673E+03 0.156E+04
CGA:  12    -0.286758097136E+03    0.18371E+02   -0.32374E+02  7696   0.169E+04-0.571E+03
CGA:  13    -0.289715997982E+03   -0.29579E+01   -0.52626E+02  7696   0.113E+04-0.645E+03
CGA:  14    -0.315384369629E+03   -0.25668E+02   -0.17296E+02  7696   0.576E+03-0.124E+03
CGA:  15    -0.314762487820E+03    0.62188E+00   -0.33357E+02  7696   0.410E+03 0.432E+02
CGA:  16    -0.312307593013E+03    0.24549E+01   -0.16843E+02  7696   0.781E+03-0.358E+03
CGA:  17    -0.306465770126E+03    0.58418E+01   -0.30606E+02  7696   0.959E+03-0.616E+03
CGA:  18    -0.317472724230E+03   -0.11007E+02   -0.28825E+02  7696   0.314E+03-0.392E+03
CGA:  19    -0.324372075426E+03   -0.68994E+01   -0.53360E+01  7696   0.501E+03-0.571E+03
CGA:  20    -0.301402641583E+03    0.22969E+02   -0.21622E+02  7696   0.797E+03-0.331E+03
CGA:  21    -0.307938770477E+03   -0.65361E+01   -0.25724E+02  7696   0.386E+03-0.399E+03
CGA:  22    -0.326988264723E+03   -0.19049E+02   -0.90333E+01  7696   0.551E+03-0.117E+04
CGA:  23    -0.311443207407E+03    0.15545E+02   -0.21530E+02  7696   0.495E+03-0.253E+03
CGA:  24    -0.317989921585E+03   -0.65467E+01   -0.70629E+01  7696   0.115E+04-0.110E+04
CGA:  25    -0.292250335916E+03    0.25740E+02   -0.48256E+02  7696   0.825E+03-0.360E+03
CGA:  26    -0.307472998485E+03   -0.15223E+02   -0.63544E+01  7696   0.488E+03 0.704E+03
CGA:  27    -0.315435650785E+03   -0.79627E+01   -0.10555E+02  7696   0.919E+03-0.117E+04
CGA:  28    -0.296826524252E+03    0.18609E+02   -0.32533E+02  7696   0.937E+03-0.497E+03
CGA:  29    -0.325376492530E+03   -0.28550E+02   -0.18759E+02  7696   0.172E+03-0.350E+02
CGA:  30    -0.331036449152E+03   -0.56600E+01   -0.29190E+01  7696   0.225E+03-0.307E+03
CGA:  31    -0.327122784327E+03    0.39137E+01   -0.52178E+01  7696   0.518E+03-0.287E+03
CGA:  32    -0.320668251742E+03    0.64545E+01   -0.14544E+02  7696   0.821E+03-0.305E+03
CGA:  33    -0.315123285904E+03    0.55450E+01   -0.26489E+02  7696   0.644E+03-0.440E+03
CGA:  34    -0.320463288877E+03   -0.53400E+01   -0.15872E+02  7696   0.974E+03-0.107E+04
CGA:  35    -0.310539194649E+03    0.99241E+01   -0.30155E+02  7696   0.356E+03-0.263E+03
CGA:  36    -0.332166167551E+03   -0.21627E+02   -0.43522E+01  7696   0.253E+03-0.115E+03
CGA:  37    -0.320655805838E+03    0.11510E+02   -0.19029E+01  7696   0.114E+04-0.921E+03
CGA:  38    -0.308547802588E+03    0.12108E+02   -0.31686E+02  7696   0.286E+03-0.196E+03
CGA:  39    -0.333499147128E+03   -0.24951E+02   -0.35116E+01  7696   0.115E+03 0.213E+03
CGA:  40    -0.334307201058E+03   -0.80805E+00   -0.98464E+00  7696   0.210E+02-0.418E+02
CGA:  41    -0.334442706364E+03   -0.13551E+00   -0.14608E+00  7696   0.330E+01-0.888E+00
CGA:  42    -0.334490348998E+03   -0.47643E-01   -0.55439E-01  7696   0.406E+01-0.331E+00
CGA:  43    -0.334662075415E+03   -0.17173E+00   -0.16995E+00  7696   0.123E+02-0.656E-01
CGA:  44    -0.334847831650E+03   -0.18576E+00   -0.11745E+00  7696   0.655E+01 0.699E+01
CGA:  45    -0.334902450121E+03   -0.54618E-01   -0.56227E-01  7696   0.158E+01-0.201E+00
CGA:  46    -0.334933042869E+03   -0.30593E-01   -0.28781E-01  7696   0.145E+01 0.703E-01
CGA:  47    -0.334999315269E+03   -0.66272E-01   -0.66401E-01  7696   0.495E+01 0.202E-01
CGA:  48    -0.335074321645E+03   -0.75006E-01   -0.44872E-01  7696   0.297E+01 0.334E+01
CGA:  49    -0.335107151473E+03   -0.32830E-01   -0.35044E-01  7696   0.112E+01-0.145E+00
CGA:  50    -0.335137494873E+03   -0.30343E-01   -0.31500E-01  7696   0.150E+01 0.596E-02
CGA:  51    -0.335163510922E+03   -0.26016E-01   -0.26341E-01  7696   0.157E+01-0.988E-02
CGA:  52    -0.335219976990E+03   -0.56466E-01   -0.56398E-01  7696   0.199E+01-0.174E-02
CGA:  53    -0.335279452013E+03   -0.59475E-01   -0.58957E-01  7696   0.301E+01-0.574E-02
CGA:  54    -0.335310164226E+03   -0.30712E-01   -0.17353E-01  7696   0.150E+01 0.228E+01
CGA:  55    -0.335325890507E+03   -0.15726E-01   -0.16469E-01  7696   0.624E+00-0.544E-01
CGA:  56    -0.335338254502E+03   -0.12364E-01   -0.12613E-01  7696   0.592E+00-0.447E-02
CGA:  57    -0.335345880500E+03   -0.76260E-02   -0.75501E-02  7696   0.279E+00 0.307E-02
CGA:  58    -0.335360802751E+03   -0.14922E-01   -0.14546E-01  7696   0.285E+00 0.162E-01
CGA:  59    -0.335380775333E+03   -0.19973E-01   -0.18152E-01  7696   0.114E+01 0.596E-01
CGA:  60    -0.335402410345E+03   -0.21635E-01   -0.21251E-01  7696   0.527E+00 0.217E-01
CGA:  61    -0.335411981500E+03   -0.95712E-02   -0.94334E-02  7696   0.291E+00 0.546E-02
CGA:  62    -0.335416757179E+03   -0.47757E-02   -0.47875E-02  7696   0.158E+00-0.334E-03
CGA:  63    -0.335419866430E+03   -0.31093E-02   -0.31040E-02  7696   0.125E+00-0.267E-03
CGA:  64    -0.335422300933E+03   -0.24345E-02   -0.24568E-02  7696   0.976E-01-0.611E-03
CGA:  65    -0.335424488489E+03   -0.21876E-02   -0.21928E-02  7696   0.104E+00-0.362E-03
CGA:  66    -0.335426693004E+03   -0.22045E-02   -0.22274E-02  7696   0.784E-01-0.260E-03
CGA:  67    -0.335428142034E+03   -0.14490E-02   -0.14509E-02  7696   0.661E-01-0.302E-03
CGA:  68    -0.335430015738E+03   -0.18737E-02   -0.18761E-02  7696   0.926E-01 0.153E-03
CGA:  69    -0.335431929116E+03   -0.19134E-02   -0.19075E-02  7696   0.666E-01-0.144E-03
CGA:  70    -0.335433096952E+03   -0.11678E-02   -0.11747E-02  7696   0.371E-01-0.264E-03
CGA:  71    -0.335433737278E+03   -0.64033E-03   -0.63928E-03  7696   0.247E-01-0.139E-03
CGA:  72    -0.335434343190E+03   -0.60591E-03   -0.60648E-03  7696   0.302E-01-0.848E-04
CGA:  73    -0.335435020004E+03   -0.67681E-03   -0.67611E-03  7696   0.276E-01-0.180E-03
CGA:  74    -0.335435666627E+03   -0.64662E-03   -0.64701E-03  7696   0.306E-01-0.119E-03
CGA:  75    -0.335436287756E+03   -0.62113E-03   -0.61995E-03  7696   0.185E-01-0.183E-03
CGA:  76    -0.335436590164E+03   -0.30241E-03   -0.30271E-03  7696   0.117E-01-0.116E-03
CGA:  77    -0.335436902266E+03   -0.31210E-03   -0.31206E-03  7696   0.161E-01-0.891E-04
CGA:  78    -0.335437260842E+03   -0.35858E-03   -0.35869E-03  7696   0.124E-01-0.721E-04
CGA:  79    -0.335437482699E+03   -0.22186E-03   -0.22127E-03  7696   0.756E-02-0.770E-04
CGA:  80    -0.335437632169E+03   -0.14947E-03   -0.14940E-03  7696   0.618E-02-0.474E-04
CGA:  81    -0.335437778091E+03   -0.14592E-03   -0.14576E-03  7696   0.650E-02-0.623E-04
CGA:  82    -0.335437923778E+03   -0.14569E-03   -0.14564E-03  7696   0.629E-02-0.415E-04
CGA:  83    -0.335438081822E+03   -0.15804E-03   -0.15799E-03  7696   0.773E-02-0.660E-04
CGA:  84    -0.335438251767E+03   -0.16994E-03   -0.16995E-03  7696   0.523E-02-0.464E-04
SDA:  85    -0.335438340204E+03   -0.88437E-04   -0.88106E-04  7696   0.351E-02-0.427E-04
CGA:  86    -0.335438366001E+03   -0.25797E-04   -0.25841E-04  7696   0.824E-03-0.531E-05
CGA:  87    -0.335438416806E+03   -0.50806E-04   -0.51046E-04  7696   0.153E-02-0.698E-05
CGA:  88    -0.335438517885E+03   -0.10108E-03   -0.10096E-03  7696   0.313E-02 0.349E-05
CGA:  89    -0.335438607693E+03   -0.89808E-04   -0.89801E-04  7696   0.320E-02 0.217E-04
CGA:  90    -0.335438688086E+03   -0.80394E-04   -0.80484E-04  7696   0.214E-02 0.216E-04
CGA:  91    -0.335438880532E+03   -0.19245E-03   -0.18610E-03  7696   0.933E-02 0.115E-03
CGA:  92    -0.335438990054E+03   -0.10952E-03   -0.11042E-03  7696   0.257E-02 0.262E-04
CGA:  93    -0.335439077992E+03   -0.87938E-04   -0.87740E-04  7696   0.238E-02 0.457E-04
CGA:  94    -0.335439142267E+03   -0.64275E-04   -0.64424E-04  7696   0.500E-02 0.270E-04
CGA:  95    -0.335439303772E+03   -0.16151E-03   -0.16136E-03  7696   0.325E-02 0.665E-04
CGA:  96    -0.335439342557E+03   -0.38785E-04   -0.38782E-04  7696   0.940E-03 0.945E-05
CGA:  97    -0.335439427731E+03   -0.85175E-04   -0.85883E-04  7696   0.753E-02-0.937E-05
CGA:  98    -0.335439576144E+03   -0.14841E-03   -0.14820E-03  7696   0.272E-02-0.549E-04
CGA:  99    -0.335439669511E+03   -0.93368E-04   -0.93412E-04  7696   0.336E-02-0.250E-04
CGA: 100    -0.335439742441E+03   -0.72929E-04   -0.72838E-04  7696   0.493E-02-0.355E-04
CGA: 101    -0.335439929592E+03   -0.18715E-03   -0.18729E-03  7696   0.701E-02-0.424E-04
CGA: 102    -0.335440146266E+03   -0.21667E-03   -0.21648E-03  7696   0.934E-02-0.205E-03
CGA: 103    -0.335440306375E+03   -0.16011E-03   -0.16207E-03  7696   0.227E-02-0.129E-03
CGA: 104    -0.335440353965E+03   -0.47590E-04   -0.47736E-04  7696   0.348E-02-0.627E-05
CGA: 105    -0.335440566861E+03   -0.21290E-03   -0.21149E-03  7696   0.483E-02 0.457E-04
CGA: 106    -0.335440708656E+03   -0.14179E-03   -0.14212E-03  7696   0.481E-02 0.639E-04
CGA: 107    -0.335440776145E+03   -0.67489E-04   -0.69013E-04  7696   0.190E-02-0.151E-04
CGA: 108    -0.335440934837E+03   -0.15869E-03   -0.15306E-03  7696   0.471E-02 0.116E-03
CGA: 109    -0.335441022138E+03   -0.87301E-04   -0.90096E-04  7696   0.222E-02 0.135E-04
CGA: 110    -0.335441077340E+03   -0.55202E-04   -0.55627E-04  7696   0.176E-02 0.442E-04
CGA: 111    -0.335441132559E+03   -0.55219E-04   -0.55307E-04  7696   0.284E-02 0.524E-04
CGA: 112    -0.335441220446E+03   -0.87887E-04   -0.88063E-04  7696   0.180E-02 0.770E-04
CGA: 113    -0.335441304480E+03   -0.84033E-04   -0.83080E-04  7696   0.154E-02 0.723E-04
CGA: 114    -0.335441332254E+03   -0.27774E-04   -0.28154E-04  7696   0.136E-02 0.165E-04
CGA: 115    -0.335441433467E+03   -0.10121E-03   -0.98193E-04  7696   0.243E-02 0.765E-04
SDA: 116    -0.335441493112E+03   -0.59645E-04   -0.60664E-04  7696   0.138E-02 0.415E-04
CGA: 117    -0.335441512059E+03   -0.18947E-04   -0.18967E-04  7696   0.689E-03-0.353E-06
CGA: 118    -0.335441562266E+03   -0.50207E-04   -0.50464E-04  7696   0.265E-02-0.638E-05
CGA: 119    -0.335441626043E+03   -0.63777E-04   -0.63756E-04  7696   0.184E-02-0.492E-05
CGA: 120    -0.335441678611E+03   -0.52569E-04   -0.52561E-04  7696   0.846E-03-0.514E-05
CGA: 121    -0.335441774992E+03   -0.96380E-04   -0.99494E-04  7696   0.309E-02-0.365E-04
CGA: 122    -0.335441879218E+03   -0.10423E-03   -0.10413E-03  7696   0.144E-02-0.372E-04
CGA: 123    -0.335441902532E+03   -0.23314E-04   -0.23004E-04  7696   0.130E-02-0.504E-05
CGA: 124    -0.335442039641E+03   -0.13711E-03   -0.14019E-03  7696   0.172E-02-0.429E-04
CGA: 125    -0.335442090113E+03   -0.50472E-04   -0.50410E-04  7696   0.115E-02-0.938E-05
CGA: 126    -0.335442116950E+03   -0.26838E-04   -0.26891E-04  7696   0.775E-03-0.125E-05
CGA: 127    -0.335442154026E+03   -0.37075E-04   -0.37021E-04  7696   0.147E-02 0.595E-05
CGA: 128    -0.335442205937E+03   -0.51912E-04   -0.51923E-04  7696   0.164E-02 0.708E-05
CGA: 129    -0.335442227803E+03   -0.21866E-04   -0.22140E-04  7696   0.282E-03 0.409E-05
CGA: 130    -0.335442246317E+03   -0.18514E-04   -0.18020E-04  7696   0.471E-03 0.190E-04
CGA: 131    -0.335442278650E+03   -0.32333E-04   -0.31502E-04  7696   0.297E-03 0.355E-04
CGA: 132    -0.335442283583E+03   -0.49333E-05   -0.50766E-05  7696   0.123E-03 0.605E-05
   1 F= -.33544228E+03 E0= -.33541368E+03  d E =-.335442E+03  mag=    32.0000
       N       E                     dE             d eps       ncg     rms          ort
SDA:   1    -0.335382917430E+03    0.59361E-01    0.00000E+00  7696   0.670E+01 0.000E+00
CGA:   2    -0.335438529390E+03   -0.55612E-01   -0.51765E-01  7696   0.271E+00 0.423E+00
CGA:   3    -0.335442622729E+03   -0.40933E-02   -0.38414E-02  7696   0.247E-01 0.141E-01
CGA:   4    -0.335442842945E+03   -0.22022E-03   -0.22219E-03  7696   0.196E-02-0.186E-03
CGA:   5    -0.335442894153E+03   -0.51207E-04   -0.51296E-04  7696   0.778E-03 0.344E-05
CGA:   6    -0.335442911554E+03   -0.17402E-04   -0.17451E-04  7696   0.790E-03 0.255E-05
CGA:   7    -0.335442944703E+03   -0.33148E-04   -0.33103E-04  7696   0.947E-03 0.682E-05
CGA:   8    -0.335442958554E+03   -0.13851E-04   -0.13853E-04  7696   0.339E-03 0.123E-05
CGA:   9    -0.335442969130E+03   -0.10576E-04   -0.10572E-04  7696   0.181E-03-0.691E-06
CGA:  10    -0.335442983506E+03   -0.14376E-04   -0.14412E-04  7696   0.616E-03-0.806E-06
CGA:  11    -0.335442991605E+03   -0.80999E-05   -0.80808E-05  7696   0.110E-03-0.137E-05
   2 F= -.33544299E+03 E0= -.33541452E+03  d E =-.708022E-03  mag=    32.0000
       N       E                     dE             d eps       ncg     rms          ort
SDA:   1    -0.335439671377E+03    0.33121E-02    0.00000E+00  7696   0.511E+00 0.000E+00
CGA:   2    -0.335445385692E+03   -0.57143E-02   -0.58927E-02  7696   0.612E-01-0.120E-01
CGA:   3    -0.335446212885E+03   -0.82719E-03   -0.83369E-03  7696   0.223E-01-0.289E-03
CGA:   4    -0.335447653754E+03   -0.14409E-02   -0.14423E-02  7696   0.849E-01-0.472E-04
CGA:   5    -0.335450081362E+03   -0.24276E-02   -0.24279E-02  7696   0.154E-01 0.842E-05
CGA:   6    -0.335450651768E+03   -0.57041E-03   -0.57122E-03  7696   0.155E-01-0.176E-03
CGA:   7    -0.335450932778E+03   -0.28101E-03   -0.28104E-03  7696   0.126E-01 0.527E-05
CGA:   8    -0.335451456438E+03   -0.52366E-03   -0.52315E-03  7696   0.497E-02 0.514E-04
CGA:   9    -0.335451609901E+03   -0.15346E-03   -0.15347E-03  7696   0.325E-02 0.381E-05
CGA:  10    -0.335451684385E+03   -0.74484E-04   -0.74430E-04  7696   0.279E-02-0.153E-05
CGA:  11    -0.335451803271E+03   -0.11889E-03   -0.11893E-03  7696   0.378E-02-0.395E-05
CGA:  12    -0.335451861420E+03   -0.58149E-04   -0.58059E-04  7696   0.817E-03-0.306E-05
CGA:  13    -0.335451877867E+03   -0.16446E-04   -0.16481E-04  7696   0.315E-03 0.175E-06
CGA:  14    -0.335451921278E+03   -0.43411E-04   -0.43573E-04  7696   0.769E-03-0.141E-05
CGA:  15    -0.335451930647E+03   -0.93688E-05   -0.93882E-05  7696   0.214E-03-0.394E-06
   3 F= -.33545193E+03 E0= -.33542356E+03  d E =-.893904E-02  mag=    32.0000
       N       E                     dE             d eps       ncg     rms          ort
SDA:   1    -0.335204423776E+03    0.24750E+00    0.00000E+00  7696   0.765E+01 0.000E+00
CGA:   2    -0.335277349555E+03   -0.72926E-01   -0.72765E-01  7696   0.747E+00-0.286E-01
CGA:   3    -0.335310812192E+03   -0.33463E-01   -0.33154E-01  7696   0.223E+01 0.228E-01
CGA:   4    -0.335411203811E+03   -0.10039E+00   -0.10089E+00  7696   0.207E+01-0.413E-01
CGA:   5    -0.335453479451E+03   -0.42276E-01   -0.42279E-01  7696   0.376E+00-0.203E-04
CGA:   6    -0.335461827033E+03   -0.83476E-02   -0.84336E-02  7696   0.417E+00-0.309E-03
CGA:   7    -0.335474946156E+03   -0.13119E-01   -0.13161E-01  7696   0.298E+00 0.614E-02
CGA:   8    -0.335489293540E+03   -0.14347E-01   -0.14385E-01  7696   0.432E+00-0.214E-02
CGA:   9    -0.335494967488E+03   -0.56739E-02   -0.56564E-02  7696   0.443E-01 0.102E-02
CGA:  10    -0.335496221075E+03   -0.12536E-02   -0.12533E-02  7696   0.427E-01-0.170E-04
CGA:  11    -0.335498228717E+03   -0.20076E-02   -0.20051E-02  7696   0.986E-01 0.149E-03
CGA:  12    -0.335500398234E+03   -0.21695E-02   -0.21644E-02  7696   0.146E-01 0.296E-04
CGA:  13    -0.335500623692E+03   -0.22546E-03   -0.22522E-03  7696   0.732E-02 0.545E-05
CGA:  14    -0.335501042554E+03   -0.41886E-03   -0.42004E-03  7696   0.144E-01-0.458E-04
CGA:  15    -0.335501457145E+03   -0.41459E-03   -0.41467E-03  7696   0.126E-01-0.148E-07
CGA:  16    -0.335501662084E+03   -0.20494E-03   -0.20461E-03  7696   0.251E-02 0.408E-05
CGA:  17    -0.335501793292E+03   -0.13121E-03   -0.13087E-03  7696   0.555E-02 0.170E-04
CGA:  18    -0.335501938833E+03   -0.14554E-03   -0.14558E-03  7696   0.459E-02 0.520E-05
CGA:  19    -0.335502030539E+03   -0.91706E-04   -0.91782E-04  7696   0.910E-03 0.594E-05
CGA:  20    -0.335502065254E+03   -0.34715E-04   -0.34698E-04  7696   0.209E-02 0.271E-05
CGA:  21    -0.335502145634E+03   -0.80380E-04   -0.80317E-04  7696   0.183E-02 0.109E-04
CGA:  22    -0.335502190618E+03   -0.44984E-04   -0.44977E-04  7696   0.132E-02 0.658E-06
CGA:  23    -0.335502217443E+03   -0.26825E-04   -0.26838E-04  7696   0.451E-03 0.117E-05
CGA:  24    -0.335502233310E+03   -0.15867E-04   -0.15869E-04  7696   0.671E-03-0.701E-06
CGA:  25    -0.335502256576E+03   -0.23266E-04   -0.23262E-04  7696   0.107E-02 0.173E-05
CGA:  26    -0.335502286616E+03   -0.30040E-04   -0.30046E-04  7696   0.193E-03 0.106E-05
CGA:  27    -0.335502291383E+03   -0.47670E-05   -0.47700E-05  7696   0.300E-03 0.271E-06
CGA:  28    -0.335502309817E+03   -0.18434E-04   -0.18481E-04  7696   0.432E-03-0.170E-05
CGA:  29    -0.335502318355E+03   -0.85380E-05   -0.85467E-05  7696   0.125E-03 0.386E-06
   4 F= -.33550232E+03 E0= -.33547407E+03  d E =-.503877E-01  mag=    32.0000
       N       E                     dE             d eps       ncg     rms          ort
SDA:   1    -0.335006437624E+03    0.49587E+00    0.00000E+00  7696   0.817E+01 0.000E+00
CGA:   2    -0.335087130811E+03   -0.80693E-01   -0.75315E-01  7696   0.142E+01 0.430E+00
CGA:   3    -0.335212192874E+03   -0.12506E+00   -0.11944E+00  7696   0.633E+01 0.126E+00
CGA:   4    -0.335410388509E+03   -0.19820E+00   -0.19758E+00  7696   0.325E+01-0.466E-01
CGA:   5    -0.335458437034E+03   -0.48049E-01   -0.47598E-01  7696   0.103E+01 0.146E-01
CGA:   6    -0.335475730181E+03   -0.17293E-01   -0.17794E-01  7696   0.643E+00-0.123E-01
CGA:   7    -0.335524970934E+03   -0.49241E-01   -0.48703E-01  7696   0.749E+00 0.128E-01
CGA:   8    -0.335546233366E+03   -0.21262E-01   -0.20890E-01  7696   0.387E+00-0.156E-01
CGA:   9    -0.335550787428E+03   -0.45541E-02   -0.45838E-02  7696   0.111E+00-0.178E-02
CGA:  10    -0.335555891362E+03   -0.51039E-02   -0.51337E-02  7696   0.166E+00-0.171E-02
CGA:  11    -0.335560337726E+03   -0.44464E-02   -0.44561E-02  7696   0.151E+00 0.508E-03
CGA:  12    -0.335563525093E+03   -0.31874E-02   -0.31968E-02  7696   0.735E-01-0.407E-04
CGA:  13    -0.335564677455E+03   -0.11524E-02   -0.11462E-02  7696   0.298E-01 0.192E-03
CGA:  14    -0.335565486227E+03   -0.80877E-03   -0.81057E-03  7696   0.221E-01 0.154E-03
CGA:  15    -0.335566813953E+03   -0.13277E-02   -0.13259E-02  7696   0.494E-01 0.607E-04
CGA:  16    -0.335567412015E+03   -0.59806E-03   -0.59646E-03  7696   0.728E-02 0.800E-04
CGA:  17    -0.335567755397E+03   -0.34338E-03   -0.34269E-03  7696   0.114E-01 0.358E-04
CGA:  18    -0.335568133727E+03   -0.37833E-03   -0.37832E-03  7696   0.181E-01 0.382E-05
CGA:  19    -0.335568448627E+03   -0.31490E-03   -0.31472E-03  7696   0.464E-02-0.367E-06
CGA:  20    -0.335568557845E+03   -0.10922E-03   -0.10941E-03  7696   0.301E-02 0.768E-05
CGA:  21    -0.335568637112E+03   -0.79267E-04   -0.79250E-04  7696   0.318E-02 0.191E-05
CGA:  22    -0.335568769028E+03   -0.13192E-03   -0.13194E-03  7696   0.676E-02-0.542E-06
CGA:  23    -0.335568897978E+03   -0.12895E-03   -0.12922E-03  7696   0.228E-02 0.114E-04
CGA:  24    -0.335568968716E+03   -0.70738E-04   -0.70736E-04  7696   0.999E-03 0.142E-04
CGA:  25    -0.335568988173E+03   -0.19456E-04   -0.19458E-04  7696   0.120E-02-0.221E-06
CGA:  26    -0.335569047662E+03   -0.59489E-04   -0.59511E-04  7696   0.187E-02-0.137E-05
CGA:  27    -0.335569111402E+03   -0.63740E-04   -0.63750E-04  7696   0.815E-03-0.301E-05
CGA:  28    -0.335569122270E+03   -0.10868E-04   -0.10860E-04  7696   0.407E-03-0.260E-06
CGA:  29    -0.335569142266E+03   -0.19997E-04   -0.19924E-04  7696   0.881E-03 0.386E-05
CGA:  30    -0.335569165875E+03   -0.23609E-04   -0.23618E-04  7696   0.576E-03 0.191E-05
CGA:  31    -0.335569181925E+03   -0.16050E-04   -0.16051E-04  7696   0.330E-03 0.237E-06
SDA:  32    -0.335569187237E+03   -0.53122E-05   -0.53261E-05  7696   0.230E-03 0.463E-06
   5 F= -.33556919E+03 E0= -.33554103E+03  d E =-.668689E-01  mag=    32.0000
       N       E                     dE             d eps       ncg     rms          ort
SDA:   1    -0.330832741046E+03    0.47364E+01    0.00000E+00  7696   0.405E+03 0.000E+00
CGA:   2    -0.333269161725E+03   -0.24364E+01   -0.47626E+01  7696   0.777E+02-0.143E+03
CGA:   3    -0.334026512917E+03   -0.75735E+00   -0.63912E+00  7696   0.716E+01 0.527E+01
CGA:   4    -0.334170529118E+03   -0.14402E+00   -0.13895E+00  7696   0.748E+01 0.158E-01
CGA:   5    -0.334712669458E+03   -0.54214E+00   -0.52434E+00  7696   0.334E+02 0.485E+00
CGA:   6    -0.335330968644E+03   -0.61830E+00   -0.62243E+00  7696   0.380E+01-0.126E+00
CGA:   7    -0.335385296371E+03   -0.54328E-01   -0.52780E-01  7696   0.189E+01 0.598E-01
CGA:   8    -0.335429326443E+03   -0.44030E-01   -0.44228E-01  7696   0.253E+01 0.120E-01
CGA:   9    -0.335559049346E+03   -0.12972E+00   -0.12889E+00  7696   0.338E+01 0.344E-01
CGA:  10    -0.335606160262E+03   -0.47111E-01   -0.44929E-01  7696   0.837E+00 0.998E-01
CGA:  11    -0.335619431904E+03   -0.13272E-01   -0.13015E-01  7696   0.363E+00 0.720E-02
CGA:  12    -0.335628830887E+03   -0.93990E-02   -0.93941E-02  7696   0.339E+00-0.115E-02
CGA:  13    -0.335638643067E+03   -0.98122E-02   -0.98170E-02  7696   0.657E+00-0.162E-02
CGA:  14    -0.335652711922E+03   -0.14069E-01   -0.14166E-01  7696   0.119E+00 0.401E-02
CGA:  15    -0.335654621321E+03   -0.19094E-02   -0.19162E-02  7696   0.113E+00-0.112E-03
CGA:  16    -0.335658653904E+03   -0.40326E-02   -0.40436E-02  7696   0.133E+00-0.945E-03
CGA:  17    -0.335661242871E+03   -0.25890E-02   -0.25904E-02  7696   0.785E-01 0.424E-04
CGA:  18    -0.335662963755E+03   -0.17209E-02   -0.17277E-02  7696   0.637E-01 0.446E-03
CGA:  19    -0.335663933824E+03   -0.97007E-03   -0.97959E-03  7696   0.230E-01-0.167E-03
CGA:  20    -0.335665179596E+03   -0.12458E-02   -0.12553E-02  7696   0.649E-01-0.345E-03
CGA:  21    -0.335666516994E+03   -0.13374E-02   -0.13380E-02  7696   0.475E-01 0.357E-05
CGA:  22    -0.335667355530E+03   -0.83854E-03   -0.84149E-03  7696   0.118E-01-0.738E-05
CGA:  23    -0.335667606419E+03   -0.25089E-03   -0.25093E-03  7696   0.101E-01 0.475E-05
CGA:  24    -0.335667852754E+03   -0.24634E-03   -0.24650E-03  7696   0.126E-01 0.423E-04
CGA:  25    -0.335668353700E+03   -0.50095E-03   -0.49992E-03  7696   0.212E-01 0.654E-04
CGA:  26    -0.335668847102E+03   -0.49340E-03   -0.49324E-03  7696   0.597E-02-0.396E-05
CGA:  27    -0.335668922257E+03   -0.75155E-04   -0.75274E-04  7696   0.347E-02 0.245E-05
CGA:  28    -0.335669227656E+03   -0.30540E-03   -0.30437E-03  7696   0.930E-02 0.185E-04
CGA:  29    -0.335669381470E+03   -0.15381E-03   -0.15362E-03  7696   0.460E-02-0.244E-06
CGA:  30    -0.335669471883E+03   -0.90413E-04   -0.90376E-04  7696   0.262E-02-0.268E-06
CGA:  31    -0.335669524246E+03   -0.52363E-04   -0.52378E-04  7696   0.162E-02 0.179E-05
SDA:  32    -0.335669622290E+03   -0.98044E-04   -0.97743E-04  7696   0.578E-02 0.876E-05
CGA:  33    -0.335669670996E+03   -0.48706E-04   -0.48871E-04  7696   0.524E-03-0.116E-04
CGA:  34    -0.335669702847E+03   -0.31851E-04   -0.32072E-04  7696   0.775E-03-0.710E-05
CGA:  35    -0.335669744173E+03   -0.41326E-04   -0.41204E-04  7696   0.177E-02 0.479E-05
CGA:  36    -0.335669803525E+03   -0.59352E-04   -0.59342E-04  7696   0.906E-03 0.459E-05
CGA:  37    -0.335669821391E+03   -0.17866E-04   -0.17899E-04  7696   0.314E-03 0.191E-05
CGA:  38    -0.335669838705E+03   -0.17314E-04   -0.17345E-04  7696   0.131E-02-0.156E-05
CGA:  39    -0.335669873513E+03   -0.34808E-04   -0.34807E-04  7696   0.111E-03-0.795E-06
CGA:  40    -0.335669898988E+03   -0.25475E-04   -0.26771E-05  7696   0.817E-03 0.131E-04
CGA:  41    -0.335669917239E+03   -0.18251E-04   -0.18241E-04  7696   0.173E-03 0.476E-06
CGA:  42    -0.335669922762E+03   -0.55224E-05   -0.55348E-05  7696   0.286E-03 0.344E-06
   6 F= -.33566992E+03 E0= -.33564184E+03  d E =-.100736E+00  mag=    32.0000
       N       E                     dE             d eps       ncg     rms          ort
SDA:   1    -0.329370363534E+03    0.62996E+01    0.00000E+00  7696   0.513E+03 0.000E+00
CGA:   2    -0.327745463055E+03    0.16249E+01   -0.11695E+02  7696   0.209E+03-0.142E+03
CGA:   3    -0.331168552581E+03   -0.34231E+01   -0.14405E+01  7696   0.182E+03 0.198E+03
CGA:   4    -0.333403891868E+03   -0.22353E+01   -0.16194E+01  7696   0.599E+01 0.120E+02
CGA:   5    -0.333618682946E+03   -0.21479E+00   -0.19656E+00  7696   0.190E+02 0.707E-01
CGA:   6    -0.334086259566E+03   -0.46758E+00   -0.44008E+00  7696   0.417E+02 0.457E+00
CGA:   7    -0.334670355443E+03   -0.58410E+00   -0.63465E+00  7696   0.429E+02-0.246E+01
CGA:   8    -0.335190150424E+03   -0.51979E+00   -0.66179E+00  7696   0.183E+02-0.546E+01
CGA:   9    -0.335299392873E+03   -0.10924E+00   -0.94488E-01  7696   0.519E+01 0.233E+01
CGA:  10    -0.335346458976E+03   -0.47066E-01   -0.38860E-01  7696   0.270E+01 0.113E+01
CGA:  11    -0.335379133828E+03   -0.32675E-01   -0.28871E-01  7696   0.248E+01 0.363E+00
CGA:  12    -0.335414411218E+03   -0.35277E-01   -0.37669E-01  7696   0.472E+01-0.128E+00
CGA:  13    -0.335474319610E+03   -0.59908E-01   -0.65374E-01  7696   0.894E+01-0.228E+00
CGA:  14    -0.335560614327E+03   -0.86295E-01   -0.89758E-01  7696   0.749E+01-0.241E+00
CGA:  15    -0.335615178468E+03   -0.54564E-01   -0.53110E-01  7696   0.369E+01 0.159E+00
CGA:  16    -0.335641560962E+03   -0.26382E-01   -0.22479E-01  7696   0.171E+01 0.584E+00
CGA:  17    -0.335654792905E+03   -0.13232E-01   -0.10825E-01  7696   0.963E+00 0.402E+00
CGA:  18    -0.335664659173E+03   -0.98663E-02   -0.76770E-02  7696   0.962E+00 0.309E+00
CGA:  19    -0.335673278926E+03   -0.86198E-02   -0.58678E-02  7696   0.893E+00 0.558E+00
CGA:  20    -0.335684528227E+03   -0.11249E-01   -0.11511E-01  7696   0.367E+00-0.119E-01
CGA:  21    -0.335700562042E+03   -0.16034E-01   -0.16009E-01  7696   0.669E+00 0.115E-02
CGA:  22    -0.335717187833E+03   -0.16626E-01   -0.16580E-01  7696   0.498E+00-0.538E-02
CGA:  23    -0.335729716815E+03   -0.12529E-01   -0.12570E-01  7696   0.183E+00 0.744E-02
CGA:  24    -0.335734971215E+03   -0.52544E-02   -0.52538E-02  7696   0.899E-01 0.474E-03
CGA:  25    -0.335740765916E+03   -0.57947E-02   -0.57096E-02  7696   0.229E+00 0.252E-02
CGA:  26    -0.335744187125E+03   -0.34212E-02   -0.34171E-02  7696   0.475E-01 0.132E-03
CGA:  27    -0.335745737133E+03   -0.15500E-02   -0.15529E-02  7696   0.233E-01-0.467E-03
CGA:  28    -0.335746480069E+03   -0.74294E-03   -0.74327E-03  7696   0.490E-01-0.709E-04
CGA:  29    -0.335748252582E+03   -0.17725E-02   -0.17703E-02  7696   0.205E-01 0.208E-03
CGA:  30    -0.335748643295E+03   -0.39071E-03   -0.39165E-03  7696   0.885E-02-0.654E-06
CGA:  31    -0.335748973530E+03   -0.33023E-03   -0.33004E-03  7696   0.185E-01 0.192E-04
CGA:  32    -0.335749760647E+03   -0.78712E-03   -0.78759E-03  7696   0.118E-01-0.220E-04
CGA:  33    -0.335749915702E+03   -0.15505E-03   -0.15578E-03  7696   0.316E-02-0.865E-05
CGA:  34    -0.335750042826E+03   -0.12712E-03   -0.12706E-03  7696   0.311E-02 0.635E-05
CGA:  35    -0.335750215131E+03   -0.17231E-03   -0.17173E-03  7696   0.117E-01 0.221E-04
CGA:  36    -0.335750570441E+03   -0.35531E-03   -0.35529E-03  7696   0.467E-02 0.118E-05
CGA:  37    -0.335750686473E+03   -0.11603E-03   -0.11621E-03  7696   0.213E-02 0.162E-04
CGA:  38    -0.335750747982E+03   -0.61509E-04   -0.61515E-04  7696   0.327E-02 0.242E-05
CGA:  39    -0.335750866650E+03   -0.11867E-03   -0.11858E-03  7696   0.401E-02 0.114E-04
CGA:  40    -0.335751068889E+03   -0.20224E-03   -0.20271E-03  7696   0.201E-02-0.228E-04
CGA:  41    -0.335751096690E+03   -0.27802E-04   -0.27842E-04  7696   0.108E-02-0.347E-06
CGA:  42    -0.335751186367E+03   -0.89677E-04   -0.89271E-04  7696   0.176E-02 0.815E-05
CGA:  43    -0.335751223492E+03   -0.37125E-04   -0.37187E-04  7696   0.757E-03 0.365E-05
CGA:  44    -0.335751239169E+03   -0.15677E-04   -0.15668E-04  7696   0.652E-03 0.235E-06
CGA:  45    -0.335751277636E+03   -0.38467E-04   -0.38374E-04  7696   0.120E-02 0.343E-05
CGA:  46    -0.335751308113E+03   -0.30477E-04   -0.30498E-04  7696   0.858E-03 0.239E-05
CGA:  47    -0.335751326797E+03   -0.18684E-04   -0.18717E-04  7696   0.189E-03 0.190E-05
CGA:  48    -0.335751331456E+03   -0.46588E-05   -0.46533E-05  7696   0.274E-03-0.637E-06
CGA:  49    -0.335751345380E+03   -0.13924E-04   -0.13917E-04  7696   0.335E-03 0.335E-06
SDA:  50    -0.335751357861E+03   -0.12481E-04   -0.12477E-04  7696   0.242E-03 0.971E-06
CGA:  51    -0.335751360551E+03   -0.26903E-05   -0.27028E-05  7696   0.756E-04 0.367E-06
   7 F= -.33575136E+03 E0= -.33572332E+03  d E =-.814378E-01  mag=    32.0000
       N       E                     dE             d eps       ncg     rms          ort
SDA:   1    -0.332238656117E+03    0.35127E+01    0.00000E+00  7696   0.554E+02 0.000E+00
CGA:   2    -0.332841442431E+03   -0.60279E+00   -0.47582E+00  7696   0.840E+01 0.978E+01
CGA:   3    -0.333150032775E+03   -0.30859E+00   -0.30854E+00  7696   0.284E+02 0.272E+00
CGA:   4    -0.334466755150E+03   -0.13167E+01   -0.12376E+01  7696   0.184E+02 0.479E+01
CGA:   5    -0.335060403810E+03   -0.59365E+00   -0.52985E+00  7696   0.215E+02-0.121E+01
CGA:   6    -0.335134586758E+03   -0.74183E-01   -0.45127E-01  7696   0.164E+02 0.127E+02
CGA:   7    -0.335300190039E+03   -0.16560E+00   -0.12947E+00  7696   0.270E+01 0.383E+01
CGA:   8    -0.335367652749E+03   -0.67463E-01   -0.54134E-01  7696   0.403E+01 0.360E+00
CGA:   9    -0.335404391566E+03   -0.36739E-01   -0.26570E-01  7696   0.387E+01 0.153E+01
CGA:  10    -0.335439495880E+03   -0.35104E-01   -0.33012E-01  7696   0.276E+01 0.295E+00
CGA:  11    -0.335463780974E+03   -0.24285E-01   -0.25878E-01  7696   0.488E+01-0.139E+00
CGA:  12    -0.335516224368E+03   -0.52443E-01   -0.55831E-01  7696   0.121E+02-0.146E+00
CGA:  13    -0.335611699171E+03   -0.95475E-01   -0.99164E-01  7696   0.970E+01-0.291E+00
CGA:  14    -0.335655713319E+03   -0.44014E-01   -0.41631E-01  7696   0.282E+01 0.453E+00
CGA:  15    -0.335668055370E+03   -0.12342E-01   -0.11307E-01  7696   0.930E+00 0.237E+00
CGA:  16    -0.335673443409E+03   -0.53880E-02   -0.51870E-02  7696   0.676E+00 0.322E-01
CGA:  17    -0.335679017429E+03   -0.55740E-02   -0.56510E-02  7696   0.994E+00-0.655E-02
CGA:  18    -0.335686984609E+03   -0.79672E-02   -0.81204E-02  7696   0.132E+01-0.118E-01
CGA:  19    -0.335696837509E+03   -0.98529E-02   -0.98211E-02  7696   0.173E+01 0.330E-02
CGA:  20    -0.335712779089E+03   -0.15942E-01   -0.16009E-01  7696   0.279E+01-0.517E-02
CGA:  21    -0.335732649599E+03   -0.19871E-01   -0.18961E-01  7696   0.250E+01 0.930E-01
CGA:  22    -0.335745945803E+03   -0.13296E-01   -0.13499E-01  7696   0.139E+01-0.311E-01
CGA:  23    -0.335753094173E+03   -0.71484E-02   -0.73388E-02  7696   0.888E+00-0.276E-01
CGA:  24    -0.335758058377E+03   -0.49642E-02   -0.52225E-02  7696   0.618E+00-0.306E-01
CGA:  25    -0.335761401787E+03   -0.33434E-02   -0.36392E-02  7696   0.332E+00-0.334E-01
CGA:  26    -0.335763298307E+03   -0.18965E-02   -0.19235E-02  7696   0.223E+00-0.290E-02
CGA:  27    -0.335765388513E+03   -0.20902E-02   -0.20767E-02  7696   0.343E+00 0.265E-03
CGA:  28    -0.335769533480E+03   -0.41450E-02   -0.41204E-02  7696   0.654E+00-0.220E-02
CGA:  29    -0.335774726822E+03   -0.51933E-02   -0.50182E-02  7696   0.602E+00 0.102E-01
CGA:  30    -0.335778091312E+03   -0.33645E-02   -0.32988E-02  7696   0.322E+00 0.822E-02
CGA:  31    -0.335779728620E+03   -0.16373E-02   -0.16456E-02  7696   0.160E+00-0.132E-02
CGA:  32    -0.335780608195E+03   -0.87957E-03   -0.88748E-03  7696   0.113E+00-0.957E-03
CGA:  33    -0.335781414726E+03   -0.80653E-03   -0.82080E-03  7696   0.126E+00-0.726E-03
CGA:  34    -0.335782412566E+03   -0.99784E-03   -0.10132E-02  7696   0.126E+00-0.278E-03
CGA:  35    -0.335783271040E+03   -0.85847E-03   -0.85730E-03  7696   0.101E+00 0.196E-04
CGA:  36    -0.335784149470E+03   -0.87843E-03   -0.87649E-03  7696   0.154E+00-0.937E-04
SDA:  37    -0.335786056584E+03   -0.19071E-02   -0.19077E-02  7696   0.346E+00-0.123E-02
CGA:  38    -0.335789173066E+03   -0.31165E-02   -0.31260E-02  7696   0.325E-01 0.512E-03
CGA:  39    -0.335790263095E+03   -0.10900E-02   -0.11009E-02  7696   0.352E-01-0.581E-03
CGA:  40    -0.335791395677E+03   -0.11326E-02   -0.11320E-02  7696   0.509E-01 0.256E-04
CGA:  41    -0.335793901685E+03   -0.25060E-02   -0.24757E-02  7696   0.221E-01 0.102E-02
CGA:  42    -0.335794546425E+03   -0.64474E-03   -0.64852E-03  7696   0.124E-01-0.278E-03
CGA:  43    -0.335795148668E+03   -0.60224E-03   -0.61049E-03  7696   0.158E-01-0.283E-03
CGA:  44    -0.335795784997E+03   -0.63633E-03   -0.63521E-03  7696   0.216E-01 0.542E-04
CGA:  45    -0.335796127781E+03   -0.34278E-03   -0.34263E-03  7696   0.204E-02-0.286E-04
CGA:  46    -0.335796164482E+03   -0.36701E-04   -0.36700E-04  7696   0.206E-02-0.301E-05
CGA:  47    -0.335796468576E+03   -0.30409E-03   -0.45843E-04  7696   0.946E-03 0.397E-03
CGA:  48    -0.335796507689E+03   -0.39113E-04   -0.39113E-04  7696   0.123E-02 0.600E-06
CGA:  49    -0.335796624120E+03   -0.11643E-03   -0.11583E-03  7696   0.315E-02 0.937E-05
CGA:  50    -0.335796689285E+03   -0.65166E-04   -0.65403E-04  7696   0.160E-02 0.635E-05
CGA:  51    -0.335796725070E+03   -0.35784E-04   -0.36008E-04  7696   0.855E-03 0.380E-05
CGA:  52    -0.335796752677E+03   -0.27608E-04   -0.27608E-04  7696   0.176E-02-0.397E-06
CGA:  53    -0.335796866795E+03   -0.11412E-03   -0.11413E-03  7696   0.125E-02-0.654E-06
CGA:  54    -0.335796903721E+03   -0.36926E-04   -0.36957E-04  7696   0.850E-03 0.220E-05
CGA:  55    -0.335796940848E+03   -0.37127E-04   -0.37094E-04  7696   0.761E-03 0.373E-05
CGA:  56    -0.335796975404E+03   -0.34555E-04   -0.34552E-04  7696   0.106E-02-0.407E-07
CGA:  57    -0.335796994250E+03   -0.18846E-04   -0.18777E-04  7696   0.112E-03-0.112E-06
CGA:  58    -0.335797001878E+03   -0.76284E-05   -0.76351E-05  7696   0.445E-03-0.652E-06
CGA:  59    -0.335797016626E+03   -0.14748E-04   -0.14752E-04  7696   0.471E-03 0.134E-06
CGA:  60    -0.335797024883E+03   -0.82568E-05   -0.82356E-05  7696   0.934E-04-0.107E-05
   8 F= -.33579702E+03 E0= -.33576912E+03  d E =-.456643E-01  mag=    32.0000
       N       E                     dE             d eps       ncg     rms          ort
SDA:   1    -0.335281664083E+03    0.51535E+00    0.00000E+00  7696   0.695E+01 0.000E+00
CGA:   2    -0.335361024765E+03   -0.79361E-01   -0.85064E-01  7696   0.156E+01-0.314E+00
CGA:   3    -0.335461124312E+03   -0.10010E+00   -0.11337E+00  7696   0.813E+01-0.343E+00
CGA:   4    -0.335592996471E+03   -0.13187E+00   -0.13168E+00  7696   0.623E+01-0.173E-02
CGA:   5    -0.335688301677E+03   -0.95305E-01   -0.11296E+00  7696   0.312E+01-0.476E+00
CGA:   6    -0.335716013237E+03   -0.27712E-01   -0.26458E-01  7696   0.522E+00 0.113E+00
CGA:   7    -0.335727737080E+03   -0.11724E-01   -0.11550E-01  7696   0.881E+00 0.159E-02
CGA:   8    -0.335752813143E+03   -0.25076E-01   -0.25103E-01  7696   0.147E+01 0.142E-02
CGA:   9    -0.335775744821E+03   -0.22932E-01   -0.23287E-01  7696   0.621E+00-0.125E-01
CGA:  10    -0.335781716043E+03   -0.59712E-02   -0.58428E-02  7696   0.138E+00 0.105E-01
CGA:  11    -0.335783946235E+03   -0.22302E-02   -0.22143E-02  7696   0.134E+00 0.480E-03
CGA:  12    -0.335787546435E+03   -0.36002E-02   -0.35987E-02  7696   0.268E+00-0.150E-03
CGA:  13    -0.335792356863E+03   -0.48104E-02   -0.47571E-02  7696   0.107E+00 0.982E-03
CGA:  14    -0.335793274551E+03   -0.91769E-03   -0.91121E-03  7696   0.279E-01 0.566E-03
CGA:  15    -0.335794055456E+03   -0.78091E-03   -0.78047E-03  7696   0.679E-01-0.184E-03
CGA:  16    -0.335795253407E+03   -0.11980E-02   -0.11858E-02  7696   0.478E-01 0.172E-03
CGA:  17    -0.335795980646E+03   -0.72724E-03   -0.72899E-03  7696   0.467E-01-0.140E-04
CGA:  18    -0.335796715549E+03   -0.73490E-03   -0.74095E-03  7696   0.253E-01-0.867E-04
CGA:  19    -0.335796985228E+03   -0.26968E-03   -0.26963E-03  7696   0.937E-02 0.195E-04
CGA:  20    -0.335797111414E+03   -0.12619E-03   -0.12607E-03  7696   0.731E-02 0.831E-05
CGA:  21    -0.335797301199E+03   -0.18979E-03   -0.18978E-03  7696   0.148E-01 0.698E-05
CGA:  22    -0.335797556120E+03   -0.25492E-03   -0.25462E-03  7696   0.117E-01-0.312E-05
CGA:  23    -0.335797756265E+03   -0.20015E-03   -0.20005E-03  7696   0.110E-01-0.450E-05
CGA:  24    -0.335797888560E+03   -0.13230E-03   -0.13257E-03  7696   0.343E-02-0.912E-05
CGA:  25    -0.335797929777E+03   -0.41216E-04   -0.41384E-04  7696   0.223E-02-0.194E-05
CGA:  26    -0.335797969814E+03   -0.40037E-04   -0.40071E-04  7696   0.234E-02 0.280E-05
CGA:  27    -0.335798030485E+03   -0.60671E-04   -0.60675E-04  7696   0.525E-02-0.966E-06
CGA:  28    -0.335798126867E+03   -0.96382E-04   -0.96382E-04  7696   0.225E-02 0.280E-05
CGA:  29    -0.335798146383E+03   -0.19516E-04   -0.19564E-04  7696   0.648E-03 0.853E-06
CGA:  30    -0.335798160232E+03   -0.13850E-04   -0.13850E-04  7696   0.117E-02 0.635E-06
CGA:  31    -0.335798196355E+03   -0.36123E-04   -0.36156E-04  7696   0.259E-02-0.383E-05
SDA:  32    -0.335798234424E+03   -0.38069E-04   -0.38025E-04  7696   0.983E-03-0.372E-05
CGA:  33    -0.335798247089E+03   -0.12665E-04   -0.12683E-04  7696   0.377E-03 0.100E-05
CGA:  34    -0.335798256016E+03   -0.89266E-05   -0.89287E-05  7696   0.194E-03-0.748E-06
CGA:  35    -0.335798271039E+03   -0.15023E-04   -0.14758E-04  7696   0.461E-03 0.486E-05
CGA:  36    -0.335798285172E+03   -0.14133E-04   -0.14110E-04  7696   0.274E-03 0.422E-05
CGA:  37    -0.335798293045E+03   -0.78734E-05   -0.78773E-05  7696   0.264E-03-0.102E-05
CGA:  38    -0.335798306357E+03   -0.13311E-04   -0.13403E-04  7696   0.256E-03-0.360E-05
CGA:  39    -0.335798321209E+03   -0.14852E-04   -0.14901E-04  7696   0.133E-03-0.150E-05
CGA:  40    -0.335798322982E+03   -0.17730E-05   -0.17772E-05  7696   0.786E-04 0.209E-06
   9 F= -.33579832E+03 E0= -.33577043E+03  d E =-.129810E-02  mag=    32.0000
       N       E                     dE             d eps       ncg     rms          ort
SDA:   1    -0.335001377635E+03    0.79694E+00    0.00000E+00  7696   0.897E+01 0.000E+00
CGA:   2    -0.335103285682E+03   -0.10191E+00   -0.12911E+00  7696   0.318E+01-0.149E+01
CGA:   3    -0.335372542777E+03   -0.26926E+00   -0.27795E+00  7696   0.120E+02-0.164E+00
CGA:   4    -0.335629677941E+03   -0.25714E+00   -0.26752E+00  7696   0.314E+01-0.231E+00
CGA:   5    -0.335671060315E+03   -0.41382E-01   -0.38154E-01  7696   0.776E+00 0.215E+00
CGA:   6    -0.335699960203E+03   -0.28900E-01   -0.28092E-01  7696   0.128E+01-0.422E-02
CGA:   7    -0.335743043521E+03   -0.43083E-01   -0.42595E-01  7696   0.972E+00-0.196E-02
CGA:   8    -0.335773984857E+03   -0.30941E-01   -0.31406E-01  7696   0.899E+00 0.280E-02
CGA:   9    -0.335785154361E+03   -0.11170E-01   -0.11902E-01  7696   0.159E+00-0.438E-01
CGA:  10    -0.335789141383E+03   -0.39870E-02   -0.40353E-02  7696   0.112E+00-0.432E-03
CGA:  11    -0.335797143782E+03   -0.80024E-02   -0.80856E-02  7696   0.824E-01-0.259E-02
CGA:  12    -0.335798449585E+03   -0.13058E-02   -0.13037E-02  7696   0.398E-01 0.932E-04
CGA:  13    -0.335799636329E+03   -0.11867E-02   -0.11935E-02  7696   0.370E-01 0.547E-04
CGA:  14    -0.335800688413E+03   -0.10521E-02   -0.10512E-02  7696   0.340E-01 0.142E-04
CGA:  15    -0.335801579332E+03   -0.89092E-03   -0.89216E-03  7696   0.181E-01 0.685E-05
CGA:  16    -0.335802080485E+03   -0.50115E-03   -0.49847E-03  7696   0.549E-02-0.282E-05
CGA:  17    -0.335802278654E+03   -0.19817E-03   -0.19832E-03  7696   0.107E-01 0.156E-04
CGA:  18    -0.335802562366E+03   -0.28371E-03   -0.28407E-03  7696   0.793E-02-0.297E-05
CGA:  19    -0.335802839452E+03   -0.27709E-03   -0.27709E-03  7696   0.249E-02-0.195E-05
CGA:  20    -0.335802897069E+03   -0.57617E-04   -0.57545E-04  7696   0.177E-02-0.991E-06
CGA:  21    -0.335802956566E+03   -0.59497E-04   -0.59500E-04  7696   0.304E-02 0.606E-06
CGA:  22    -0.335803081836E+03   -0.12527E-03   -0.12528E-03  7696   0.249E-02-0.108E-05
CGA:  23    -0.335803122967E+03   -0.41131E-04   -0.41249E-04  7696   0.915E-03 0.193E-05
CGA:  24    -0.335803156029E+03   -0.33063E-04   -0.33067E-04  7696   0.547E-03 0.259E-05
CGA:  25    -0.335803180408E+03   -0.24379E-04   -0.24361E-04  7696   0.128E-02 0.209E-05
CGA:  26    -0.335803220159E+03   -0.39751E-04   -0.39746E-04  7696   0.137E-02 0.161E-08
CGA:  27    -0.335803251358E+03   -0.31199E-04   -0.31208E-04  7696   0.185E-03 0.180E-05
CGA:  28    -0.335803260223E+03   -0.88649E-05   -0.88524E-05  7696   0.495E-03 0.925E-06
CGA:  29    -0.335803277541E+03   -0.17319E-04   -0.17325E-04  7696   0.495E-03 0.258E-05
CGA:  30    -0.335803290490E+03   -0.12949E-04   -0.12947E-04  7696   0.345E-03 0.160E-06
CGA:  31    -0.335803297742E+03   -0.72523E-05   -0.72574E-05  7696   0.149E-03 0.425E-06
  10 F= -.33580330E+03 E0= -.33577533E+03  d E =-.497476E-02  mag=    32.0000
       N       E                     dE             d eps       ncg     rms          ort
SDA:   1    -0.335469162449E+03    0.33413E+00    0.00000E+00  7696   0.153E+01 0.000E+00
CGA:   2    -0.335501074558E+03   -0.31912E-01   -0.32515E-01  7696   0.170E+01-0.620E-02
CGA:   3    -0.335717149937E+03   -0.21608E+00   -0.21629E+00  7696   0.163E+01-0.335E-02
CGA:   4    -0.335738722724E+03   -0.21573E-01   -0.22668E-01  7696   0.760E+00-0.566E-01
CGA:   5    -0.335758019966E+03   -0.19297E-01   -0.18133E-01  7696   0.394E+00 0.360E-02
CGA:   6    -0.335782125735E+03   -0.24106E-01   -0.24246E-01  7696   0.696E+00-0.533E-02
CGA:   7    -0.335799392898E+03   -0.17267E-01   -0.17535E-01  7696   0.210E+00 0.500E-04
CGA:   8    -0.335803146093E+03   -0.37532E-02   -0.37142E-02  7696   0.721E-01 0.124E-02
CGA:   9    -0.335805848090E+03   -0.27020E-02   -0.27016E-02  7696   0.577E-01 0.402E-03
CGA:  10    -0.335807946362E+03   -0.20983E-02   -0.20981E-02  7696   0.127E+00-0.181E-03
CGA:  11    -0.335810787158E+03   -0.28408E-02   -0.28462E-02  7696   0.802E-02-0.569E-04
CGA:  12    -0.335811393795E+03   -0.60664E-03   -0.60515E-03  7696   0.284E-01 0.385E-04
CGA:  13    -0.335812064647E+03   -0.67085E-03   -0.67173E-03  7696   0.892E-02 0.213E-05
CGA:  14    -0.335812266786E+03   -0.20214E-03   -0.20316E-03  7696   0.637E-02-0.185E-05
CGA:  15    -0.335812395591E+03   -0.12880E-03   -0.12888E-03  7696   0.439E-02-0.108E-05
CGA:  16    -0.335812601310E+03   -0.20572E-03   -0.20583E-03  7696   0.492E-02-0.763E-05
CGA:  17    -0.335812746633E+03   -0.14532E-03   -0.14523E-03  7696   0.107E-02-0.462E-05
CGA:  18    -0.335812788629E+03   -0.41997E-04   -0.41984E-04  7696   0.160E-02 0.352E-05
CGA:  19    -0.335812836773E+03   -0.48143E-04   -0.48208E-04  7696   0.157E-02 0.745E-05
CGA:  20    -0.335812917645E+03   -0.80873E-04   -0.80870E-04  7696   0.240E-02 0.695E-06
CGA:  21    -0.335812946710E+03   -0.29065E-04   -0.29087E-04  7696   0.236E-03 0.365E-05
CGA:  22    -0.335812973170E+03   -0.26460E-04   -0.26207E-04  7696   0.999E-03 0.345E-05
CGA:  23    -0.335813002806E+03   -0.29635E-04   -0.29637E-04  7696   0.524E-03 0.843E-06
CGA:  24    -0.335813014762E+03   -0.11956E-04   -0.11958E-04  7696   0.245E-03-0.273E-07
CGA:  25    -0.335813022786E+03   -0.80243E-05   -0.80177E-05  7696   0.302E-03-0.114E-05
  11 F= -.33581302E+03 E0= -.33578505E+03  d E =-.972504E-02  mag=    32.0000
       N       E                     dE             d eps       ncg     rms          ort
SDA:   1    -0.323290939581E+03    0.12522E+02    0.00000E+00  7696   0.386E+03 0.000E+00
CGA:   2    -0.328864610273E+03   -0.55737E+01   -0.50301E+01  7696   0.645E+02 0.704E+02
CGA:   3    -0.329483176991E+03   -0.61857E+00   -0.51021E+00  7696   0.316E+02 0.110E+02
CGA:   4    -0.329971286258E+03   -0.48811E+00   -0.43491E+00  7696   0.476E+02 0.309E+01
CGA:   5    -0.330429993247E+03   -0.45871E+00   -0.41153E+00  7696   0.596E+02 0.449E+01
CGA:   6    -0.331088917247E+03   -0.65892E+00   -0.81758E+00  7696   0.144E+03-0.869E+01
CGA:   7    -0.332294057851E+03   -0.12051E+01   -0.12939E+01  7696   0.182E+03-0.368E+01
CGA:   8    -0.333414567913E+03   -0.11205E+01   -0.14496E+01  7696   0.891E+02-0.401E+02
CGA:   9    -0.333747042170E+03   -0.33247E+00   -0.26653E+00  7696   0.424E+02 0.156E+02
CGA:  10    -0.333960167085E+03   -0.21312E+00   -0.16587E+00  7696   0.191E+02 0.134E+02
CGA:  11    -0.334082774786E+03   -0.12261E+00   -0.10116E+00  7696   0.131E+02 0.488E+01
CGA:  12    -0.334180105453E+03   -0.97331E-01   -0.84890E-01  7696   0.160E+02 0.211E+01
CGA:  13    -0.334290005016E+03   -0.10990E+00   -0.10478E+00  7696   0.255E+02 0.746E+00
CGA:  14    -0.334431861105E+03   -0.14186E+00   -0.16152E+00  7696   0.423E+02-0.256E+01
CGA:  15    -0.334609949303E+03   -0.17809E+00   -0.21977E+00  7696   0.521E+02-0.534E+01
CGA:  16    -0.334803635116E+03   -0.19369E+00   -0.20085E+00  7696   0.378E+02-0.109E+01
CGA:  17    -0.334949247048E+03   -0.14561E+00   -0.14530E+00  7696   0.218E+02-0.959E-01
CGA:  18    -0.335036928522E+03   -0.87681E-01   -0.87608E-01  7696   0.149E+02-0.137E-01
CGA:  19    -0.335102585991E+03   -0.65657E-01   -0.66858E-01  7696   0.118E+02-0.166E+00
CGA:  20    -0.335156292747E+03   -0.53707E-01   -0.59059E-01  7696   0.899E+01-0.662E+00
CGA:  21    -0.335202721352E+03   -0.46429E-01   -0.36756E-01  7696   0.716E+01 0.248E+01
CGA:  22    -0.335248715718E+03   -0.45994E-01   -0.27529E-01  7696   0.605E+01 0.598E+01
CGA:  23    -0.335378786226E+03   -0.13007E+00   -0.12970E+00  7696   0.437E+01 0.406E-01
CGA:  24    -0.335462760508E+03   -0.83974E-01   -0.87813E-01  7696   0.341E+01-0.789E+00
CGA:  25    -0.335553465657E+03   -0.90705E-01   -0.90891E-01  7696   0.732E+01-0.122E-01
CGA:  26    -0.335673319132E+03   -0.11985E+00   -0.12032E+00  7696   0.144E+01 0.178E+00
CGA:  27    -0.335694637332E+03   -0.21318E-01   -0.21670E-01  7696   0.516E+00 0.361E-01
CGA:  28    -0.335709454903E+03   -0.14818E-01   -0.14903E-01  7696   0.912E+00-0.698E-02
CGA:  29    -0.335759899533E+03   -0.50445E-01   -0.51048E-01  7696   0.135E+01-0.204E-01
CGA:  30    -0.335779097698E+03   -0.19198E-01   -0.19434E-01  7696   0.466E+00 0.703E-02
CGA:  31    -0.335788594921E+03   -0.94972E-02   -0.94920E-02  7696   0.107E+00 0.457E-02
CGA:  32    -0.335792052154E+03   -0.34572E-02   -0.35008E-02  7696   0.218E+00-0.310E-02
CGA:  33    -0.335799808197E+03   -0.77560E-02   -0.78139E-02  7696   0.203E+00-0.340E-02
CGA:  34    -0.335803989446E+03   -0.41812E-02   -0.41825E-02  7696   0.136E+00 0.261E-02
CGA:  35    -0.335806160029E+03   -0.21706E-02   -0.21904E-02  7696   0.267E-01 0.725E-03
CGA:  36    -0.335807058664E+03   -0.89863E-03   -0.89613E-03  7696   0.466E-01 0.179E-03
CGA:  37    -0.335809245680E+03   -0.21870E-02   -0.21830E-02  7696   0.904E-01 0.161E-03
CGA:  38    -0.335811025272E+03   -0.17796E-02   -0.17778E-02  7696   0.153E-01-0.157E-03
CGA:  39    -0.335811380903E+03   -0.35563E-03   -0.35572E-03  7696   0.194E-01-0.706E-04
CGA:  40    -0.335812153766E+03   -0.77286E-03   -0.77566E-03  7696   0.227E-01-0.151E-03
CGA:  41    -0.335812968222E+03   -0.81446E-03   -0.81122E-03  7696   0.290E-01 0.229E-03
CGA:  42    -0.335813450807E+03   -0.48258E-03   -0.48410E-03  7696   0.826E-02 0.407E-04
CGA:  43    -0.335813816563E+03   -0.36576E-03   -0.36374E-03  7696   0.156E-01 0.937E-04
CGA:  44    -0.335814222581E+03   -0.40602E-03   -0.40598E-03  7696   0.157E-01 0.215E-04
CGA:  45    -0.335814873197E+03   -0.65062E-03   -0.65182E-03  7696   0.755E-02-0.653E-04
CGA:  46    -0.335814992580E+03   -0.11938E-03   -0.11914E-03  7696   0.383E-02 0.379E-05
CGA:  47    -0.335815200705E+03   -0.20813E-03   -0.20784E-03  7696   0.105E-01 0.926E-05
CGA:  48    -0.335815604400E+03   -0.40370E-03   -0.40272E-03  7696   0.697E-02 0.706E-04
CGA:  49    -0.335815705537E+03   -0.10114E-03   -0.10125E-03  7696   0.228E-02 0.191E-05
CGA:  50    -0.335815796895E+03   -0.91358E-04   -0.90726E-04  7696   0.217E-02 0.409E-04
CGA:  51    -0.335815869196E+03   -0.72301E-04   -0.72238E-04  7696   0.404E-02 0.925E-05
CGA:  52    -0.335816029935E+03   -0.16074E-03   -0.16083E-03  7696   0.119E-02-0.579E-05
SDA:  53    -0.335816052294E+03   -0.22359E-04   -0.22304E-04  7696   0.770E-03-0.285E-05
CGA:  54    -0.335816066776E+03   -0.14482E-04   -0.14477E-04  7696   0.631E-03-0.949E-06
CGA:  55    -0.335816115360E+03   -0.48584E-04   -0.48775E-04  7696   0.839E-03-0.370E-05
CGA:  56    -0.335816128417E+03   -0.13057E-04   -0.13022E-04  7696   0.359E-03-0.182E-05
CGA:  57    -0.335816137626E+03   -0.92088E-05   -0.92144E-05  7696   0.239E-03 0.918E-06
CGA:  58    -0.335816164490E+03   -0.26864E-04   -0.27226E-04  7696   0.822E-03-0.438E-05
CGA:  59    -0.335816188879E+03   -0.24389E-04   -0.24372E-04  7696   0.145E-03-0.614E-05
CGA:  60    -0.335816193045E+03   -0.41658E-05   -0.41603E-05  7696   0.196E-03-0.126E-05
  12 F= -.33581619E+03 E0= -.33578858E+03  d E =-.317026E-02  mag=    32.0000
       N       E                     dE             d eps       ncg     rms          ort
SDA:   1    -0.333284405290E+03    0.25318E+01    0.00000E+00  7696   0.144E+03 0.000E+00
CGA:   2    -0.333984850104E+03   -0.70044E+00   -0.18962E+01  7696   0.422E+02-0.575E+02
CGA:   3    -0.334536756984E+03   -0.55191E+00   -0.46532E+00  7696   0.362E+01 0.136E+01
CGA:   4    -0.334885383553E+03   -0.34863E+00   -0.34104E+00  7696   0.201E+02 0.152E+00
CGA:   5    -0.335454824706E+03   -0.56944E+00   -0.55971E+00  7696   0.572E+01-0.348E+00
CGA:   6    -0.335545253990E+03   -0.90429E-01   -0.94174E-01  7696   0.170E+01-0.126E+00
CGA:   7    -0.335613493131E+03   -0.68239E-01   -0.68522E-01  7696   0.395E+01-0.233E-01
CGA:   8    -0.335748985839E+03   -0.13549E+00   -0.13541E+00  7696   0.116E+01 0.247E-01
CGA:   9    -0.335769325603E+03   -0.20340E-01   -0.19686E-01  7696   0.541E+00 0.189E-01
CGA:  10    -0.335784648959E+03   -0.15323E-01   -0.15159E-01  7696   0.343E+00-0.113E-01
CGA:  11    -0.335796472919E+03   -0.11824E-01   -0.11841E-01  7696   0.529E+00-0.305E-02
CGA:  12    -0.335814750626E+03   -0.18278E-01   -0.18262E-01  7696   0.345E+00 0.354E-02
CGA:  13    -0.335820366534E+03   -0.56159E-02   -0.56396E-02  7696   0.574E-01-0.684E-03
CGA:  14    -0.335821556794E+03   -0.11903E-02   -0.11949E-02  7696   0.557E-01 0.121E-04
CGA:  15    -0.335825584541E+03   -0.40277E-02   -0.40674E-02  7696   0.830E-01-0.102E-02
CGA:  16    -0.335827202718E+03   -0.16182E-02   -0.16318E-02  7696   0.514E-01-0.124E-03
CGA:  17    -0.335828388250E+03   -0.11855E-02   -0.11898E-02  7696   0.175E-01 0.629E-04
CGA:  18    -0.335829064144E+03   -0.67589E-03   -0.67591E-03  7696   0.301E-01-0.120E-05
CGA:  19    -0.335829909080E+03   -0.84494E-03   -0.84378E-03  7696   0.191E-01-0.103E-03
CGA:  20    -0.335830340520E+03   -0.43144E-03   -0.43159E-03  7696   0.851E-02 0.150E-05
CGA:  21    -0.335830575062E+03   -0.23454E-03   -0.23440E-03  7696   0.838E-02-0.141E-04
CGA:  22    -0.335830871625E+03   -0.29656E-03   -0.29636E-03  7696   0.110E-01 0.348E-04
CGA:  23    -0.335831316020E+03   -0.44439E-03   -0.44454E-03  7696   0.988E-02-0.112E-04
CGA:  24    -0.335831455757E+03   -0.13974E-03   -0.14014E-03  7696   0.151E-02-0.116E-04
CGA:  25    -0.335831553281E+03   -0.97524E-04   -0.97822E-04  7696   0.594E-02-0.893E-05
CGA:  26    -0.335831737959E+03   -0.18468E-03   -0.18468E-03  7696   0.362E-02 0.608E-06
CGA:  27    -0.335831821389E+03   -0.83430E-04   -0.83368E-04  7696   0.146E-02-0.244E-05
CGA:  28    -0.335831857083E+03   -0.35694E-04   -0.35746E-04  7696   0.107E-02 0.317E-05
CGA:  29    -0.335831885023E+03   -0.27940E-04   -0.27932E-04  7696   0.107E-02-0.728E-06
CGA:  30    -0.335831967932E+03   -0.82909E-04   -0.82794E-04  7696   0.227E-02 0.256E-05
CGA:  31    -0.335832000449E+03   -0.32517E-04   -0.32476E-04  7696   0.269E-03 0.421E-06
SDA:  32    -0.335832009959E+03   -0.95099E-05   -0.95076E-05  7696   0.533E-03 0.869E-06
  13 F= -.33583201E+03 E0= -.33580440E+03  d E =-.158169E-01  mag=    32.0000
       N       E                     dE             d eps       ncg     rms          ort
SDA:   1    -0.298916810399E+03    0.36915E+02    0.00000E+00  7696   0.108E+04 0.000E+00
CGA:   2    -0.328009524158E+03   -0.29093E+02   -0.25511E+02  7696   0.318E+03-0.228E+03
CGA:   3    -0.331209128017E+03   -0.31996E+01   -0.52891E+01  7696   0.322E+03 0.694E+02
CGA:   4    -0.332754869935E+03   -0.15457E+01   -0.25417E+01  7696   0.138E+03-0.210E+03
CGA:   5    -0.334986052265E+03   -0.22312E+01   -0.13200E+01  7696   0.306E+02 0.485E+02
CGA:   6    -0.335283165090E+03   -0.29711E+00   -0.19830E+00  7696   0.133E+02 0.186E+02
CGA:   7    -0.335480867355E+03   -0.19770E+00   -0.14775E+00  7696   0.379E+01 0.330E+01
CGA:   8    -0.335549249111E+03   -0.68382E-01   -0.55317E-01  7696   0.149E+01 0.703E+00
CGA:   9    -0.335570454751E+03   -0.21206E-01   -0.21331E-01  7696   0.122E+01-0.415E-02
CGA:  10    -0.335601756493E+03   -0.31302E-01   -0.31293E-01  7696   0.335E+01 0.103E-01
CGA:  11    -0.335684830482E+03   -0.83074E-01   -0.83095E-01  7696   0.499E+01 0.134E-01
CGA:  12    -0.335739018419E+03   -0.54188E-01   -0.54172E-01  7696   0.155E+01 0.307E-02
CGA:  13    -0.335752756449E+03   -0.13738E-01   -0.13722E-01  7696   0.532E+00 0.819E-03
CGA:  14    -0.335760493441E+03   -0.77370E-02   -0.79727E-02  7696   0.530E+00-0.230E-02
CGA:  15    -0.335773605837E+03   -0.13112E-01   -0.13086E-01  7696   0.105E+01 0.979E-02
CGA:  16    -0.335798037143E+03   -0.24431E-01   -0.24430E-01  7696   0.774E+00-0.973E-03
CGA:  17    -0.335808341094E+03   -0.10304E-01   -0.10478E-01  7696   0.491E+00-0.355E-02
CGA:  18    -0.335816958700E+03   -0.86176E-02   -0.84706E-02  7696   0.201E+00-0.440E-02
CGA:  19    -0.335819338059E+03   -0.23794E-02   -0.23744E-02  7696   0.126E+00 0.137E-03
CGA:  20    -0.335823568629E+03   -0.42306E-02   -0.42331E-02  7696   0.302E+00-0.197E-03
CGA:  21    -0.335828830578E+03   -0.52619E-02   -0.52503E-02  7696   0.151E+00-0.488E-03
CGA:  22    -0.335830563906E+03   -0.17333E-02   -0.17211E-02  7696   0.678E-01 0.509E-03
CGA:  23    -0.335831730864E+03   -0.11670E-02   -0.11753E-02  7696   0.461E-01 0.457E-03
CGA:  24    -0.335832398962E+03   -0.66810E-03   -0.67404E-03  7696   0.373E-01 0.385E-04
CGA:  25    -0.335833898824E+03   -0.14999E-02   -0.14910E-02  7696   0.803E-01 0.456E-03
CGA:  26    -0.335835015168E+03   -0.11163E-02   -0.11172E-02  7696   0.256E-01-0.778E-05
CGA:  27    -0.335835378945E+03   -0.36378E-03   -0.36234E-03  7696   0.121E-01 0.621E-05
CGA:  28    -0.335835666953E+03   -0.28801E-03   -0.28785E-03  7696   0.225E-01 0.396E-04
CGA:  29    -0.335836576896E+03   -0.90994E-03   -0.91062E-03  7696   0.389E-01-0.352E-04
CGA:  30    -0.335837032106E+03   -0.45521E-03   -0.45456E-03  7696   0.550E-02 0.225E-04
CGA:  31    -0.335837096889E+03   -0.64783E-04   -0.64783E-04  7696   0.368E-02 0.191E-05
CGA:  32    -0.335837380928E+03   -0.28404E-03   -0.28300E-03  7696   0.215E-01 0.204E-04
CGA:  33    -0.335837705113E+03   -0.32418E-03   -0.32431E-03  7696   0.430E-02 0.456E-05
CGA:  34    -0.335837755743E+03   -0.50631E-04   -0.50702E-04  7696   0.164E-02-0.241E-05
CGA:  35    -0.335837789191E+03   -0.33448E-04   -0.33451E-04  7696   0.188E-02-0.370E-07
CGA:  36    -0.335837846541E+03   -0.57350E-04   -0.57384E-04  7696   0.327E-02-0.456E-05
SDA:  37    -0.335837920370E+03   -0.73829E-04   -0.73831E-04  7696   0.282E-02-0.895E-06
CGA:  38    -0.335837964424E+03   -0.44054E-04   -0.44126E-04  7696   0.102E-02 0.248E-05
CGA:  39    -0.335837980988E+03   -0.16564E-04   -0.16550E-04  7696   0.342E-03-0.111E-05
CGA:  40    -0.335837994124E+03   -0.13136E-04   -0.13133E-04  7696   0.631E-03 0.137E-06
CGA:  41    -0.335838030932E+03   -0.36808E-04   -0.36719E-04  7696   0.111E-02 0.251E-05
CGA:  42    -0.335838055955E+03   -0.25022E-04   -0.25029E-04  7696   0.218E-03 0.277E-05
CGA:  43    -0.335838064338E+03   -0.83829E-05   -0.83469E-05  7696   0.124E-03 0.257E-05
CGA:  44    -0.335838076668E+03   -0.12331E-04   -0.12545E-04  7696   0.436E-03-0.296E-05
CGA:  45    -0.335838081583E+03   -0.49146E-05   -0.48751E-05  7696   0.373E-04-0.187E-05
  14 F= -.33583808E+03 E0= -.33581024E+03  d E =-.607162E-02  mag=    32.0000
       N       E                     dE             d eps       ncg     rms          ort
SDA:   1    -0.335669565577E+03    0.16851E+00    0.00000E+00  7696   0.728E+01 0.000E+00
CGA:   2    -0.335730837716E+03   -0.61272E-01   -0.52311E-01  7696   0.388E+00 0.111E+01
CGA:   3    -0.335738069407E+03   -0.72317E-02   -0.70789E-02  7696   0.575E+00 0.734E-02
CGA:   4    -0.335768363453E+03   -0.30294E-01   -0.30295E-01  7696   0.215E+01-0.180E-03
CGA:   5    -0.335796159804E+03   -0.27796E-01   -0.28115E-01  7696   0.945E+00-0.210E-01
CGA:   6    -0.335807662805E+03   -0.11503E-01   -0.11330E-01  7696   0.485E+00 0.123E-01
CGA:   7    -0.335814350502E+03   -0.66877E-02   -0.64395E-02  7696   0.297E+00 0.157E-01
CGA:   8    -0.335818516515E+03   -0.41660E-02   -0.42060E-02  7696   0.180E+00-0.205E-02
CGA:   9    -0.335822113378E+03   -0.35969E-02   -0.36083E-02  7696   0.306E+00-0.281E-03
CGA:  10    -0.335829472981E+03   -0.73596E-02   -0.72629E-02  7696   0.315E+00 0.121E-02
CGA:  11    -0.335833336058E+03   -0.38631E-02   -0.37803E-02  7696   0.162E+00 0.546E-02
CGA:  12    -0.335835410875E+03   -0.20748E-02   -0.22105E-02  7696   0.556E-01-0.725E-02
CGA:  13    -0.335836014707E+03   -0.60383E-03   -0.62372E-03  7696   0.327E-01-0.126E-02
CGA:  14    -0.335836688097E+03   -0.67339E-03   -0.67477E-03  7696   0.310E-01-0.817E-05
CGA:  15    -0.335837343317E+03   -0.65522E-03   -0.65485E-03  7696   0.538E-01-0.259E-05
CGA:  16    -0.335838948767E+03   -0.16054E-02   -0.16041E-02  7696   0.425E-01-0.111E-03
CGA:  17    -0.335839326523E+03   -0.37776E-03   -0.37698E-03  7696   0.837E-02 0.663E-04
CGA:  18    -0.335839470953E+03   -0.14443E-03   -0.14428E-03  7696   0.839E-02 0.217E-05
CGA:  19    -0.335839652598E+03   -0.18165E-03   -0.18234E-03  7696   0.949E-02 0.976E-06
CGA:  20    -0.335839809449E+03   -0.15685E-03   -0.15733E-03  7696   0.699E-02-0.771E-05
CGA:  21    -0.335839993904E+03   -0.18445E-03   -0.18453E-03  7696   0.118E-01 0.694E-05
CGA:  22    -0.335840161375E+03   -0.16747E-03   -0.16637E-03  7696   0.315E-02 0.389E-04
CGA:  23    -0.335840213467E+03   -0.52092E-04   -0.51963E-04  7696   0.404E-02 0.724E-06
CGA:  24    -0.335840330116E+03   -0.11665E-03   -0.11665E-03  7696   0.434E-02-0.502E-05
CGA:  25    -0.335840392396E+03   -0.62280E-04   -0.62422E-04  7696   0.341E-02 0.502E-05
CGA:  26    -0.335840455286E+03   -0.62890E-04   -0.63038E-04  7696   0.154E-02 0.741E-05
CGA:  27    -0.335840471406E+03   -0.16120E-04   -0.16151E-04  7696   0.549E-03 0.115E-05
CGA:  28    -0.335840483140E+03   -0.11734E-04   -0.11738E-04  7696   0.834E-03 0.611E-06
CGA:  29    -0.335840514079E+03   -0.30939E-04   -0.30978E-04  7696   0.208E-02-0.357E-05
CGA:  30    -0.335840547446E+03   -0.33367E-04   -0.33283E-04  7696   0.109E-02-0.503E-05
CGA:  31    -0.335840566158E+03   -0.18711E-04   -0.18702E-04  7696   0.804E-03-0.153E-05
SDA:  32    -0.335840576089E+03   -0.99316E-05   -0.99745E-05  7696   0.269E-03 0.131E-06
  15 F= -.33584058E+03 E0= -.33581267E+03  d E =-.249451E-02  mag=    32.0000
       N       E                     dE             d eps       ncg     rms          ort
SDA:   1    -0.335653879469E+03    0.18669E+00    0.00000E+00  7696   0.103E+02 0.000E+00
CGA:   2    -0.335741486053E+03   -0.87607E-01   -0.94274E-01  7696   0.465E+00-0.490E+00
CGA:   3    -0.335750440194E+03   -0.89541E-02   -0.89413E-02  7696   0.509E+00-0.954E-03
CGA:   4    -0.335796288001E+03   -0.45848E-01   -0.46293E-01  7696   0.121E+01-0.815E-02
CGA:   5    -0.335820368836E+03   -0.24081E-01   -0.24201E-01  7696   0.204E+00 0.213E-02
CGA:   6    -0.335824849344E+03   -0.44805E-02   -0.45134E-02  7696   0.150E+00 0.185E-02
CGA:   7    -0.335829031432E+03   -0.41821E-02   -0.41817E-02  7696   0.161E+00 0.250E-03
CGA:   8    -0.335834617543E+03   -0.55861E-02   -0.55789E-02  7696   0.163E+00 0.673E-03
CGA:   9    -0.335837834198E+03   -0.32167E-02   -0.31951E-02  7696   0.212E-01-0.302E-03
CGA:  10    -0.335838544553E+03   -0.71036E-03   -0.71013E-03  7696   0.354E-01 0.220E-04
CGA:  11    -0.335839565111E+03   -0.10206E-02   -0.10208E-02  7696   0.231E-01-0.103E-03
CGA:  12    -0.335840070665E+03   -0.50555E-03   -0.50574E-03  7696   0.134E-01 0.641E-05
CGA:  13    -0.335840379061E+03   -0.30840E-03   -0.30876E-03  7696   0.356E-02 0.287E-04
CGA:  14    -0.335840545395E+03   -0.16633E-03   -0.16619E-03  7696   0.983E-02 0.701E-05
CGA:  15    -0.335840836224E+03   -0.29083E-03   -0.29083E-03  7696   0.342E-02 0.279E-05
CGA:  16    -0.335840881315E+03   -0.45091E-04   -0.45187E-04  7696   0.817E-03 0.190E-05
CGA:  17    -0.335840962816E+03   -0.81501E-04   -0.81585E-04  7696   0.322E-02-0.144E-05
CGA:  18    -0.335841024756E+03   -0.61939E-04   -0.62006E-04  7696   0.786E-03 0.213E-05
CGA:  19    -0.335841038412E+03   -0.13656E-04   -0.13625E-04  7696   0.402E-03-0.109E-05
CGA:  20    -0.335841052329E+03   -0.13917E-04   -0.13922E-04  7696   0.459E-03-0.707E-06
CGA:  21    -0.335841076691E+03   -0.24362E-04   -0.24309E-04  7696   0.798E-03 0.225E-05
CGA:  22    -0.335841094204E+03   -0.17513E-04   -0.17552E-04  7696   0.283E-03 0.355E-05
CGA:  23    -0.335841098893E+03   -0.46889E-05   -0.46893E-05  7696   0.137E-03 0.178E-06
  16 F= -.33584110E+03 E0= -.33581318E+03  d E =-.522803E-03  mag=    32.0000
       N       E                     dE             d eps       ncg     rms          ort
SDA:   1    -0.329426535763E+03    0.64146E+01    0.00000E+00  7696   0.119E+03 0.000E+00
CGA:   2    -0.330223383991E+03   -0.79685E+00   -0.15735E+01  7696   0.462E+02-0.382E+02
CGA:   3    -0.331420942314E+03   -0.11976E+01   -0.13336E+01  7696   0.745E+02-0.864E+01
CGA:   4    -0.333235590142E+03   -0.18146E+01   -0.18214E+01  7696   0.320E+02 0.514E+01
CGA:   5    -0.333869455388E+03   -0.63387E+00   -0.55657E+00  7696   0.113E+02 0.165E+01
CGA:   6    -0.334432871400E+03   -0.56342E+00   -0.57685E+00  7696   0.246E+02-0.764E+00
CGA:   7    -0.335029503616E+03   -0.59663E+00   -0.58082E+00  7696   0.217E+02-0.842E+00
CGA:   8    -0.335596499315E+03   -0.56700E+00   -0.58191E+00  7696   0.245E+01 0.209E+01
CGA:   9    -0.335637619310E+03   -0.41120E-01   -0.39059E-01  7696   0.873E+00 0.744E-01
CGA:  10    -0.335678236209E+03   -0.40617E-01   -0.41070E-01  7696   0.259E+01-0.241E-01
CGA:  11    -0.335754343005E+03   -0.76107E-01   -0.76114E-01  7696   0.213E+01 0.174E-01
CGA:  12    -0.335794572860E+03   -0.40230E-01   -0.38660E-01  7696   0.302E+00 0.223E-01
CGA:  13    -0.335801261958E+03   -0.66891E-02   -0.67702E-02  7696   0.157E+00 0.177E-02
CGA:  14    -0.335803971070E+03   -0.27091E-02   -0.27322E-02  7696   0.123E+00-0.325E-03
CGA:  15    -0.335813010514E+03   -0.90394E-02   -0.90875E-02  7696   0.264E+00-0.121E-02
CGA:  16    -0.335817473752E+03   -0.44632E-02   -0.44845E-02  7696   0.420E-01-0.386E-03
CGA:  17    -0.335819455041E+03   -0.19813E-02   -0.19586E-02  7696   0.357E-01 0.118E-02
CGA:  18    -0.335820781529E+03   -0.13265E-02   -0.13267E-02  7696   0.642E-01-0.248E-04
CGA:  19    -0.335822092112E+03   -0.13106E-02   -0.13110E-02  7696   0.183E-01-0.831E-05
CGA:  20    -0.335822406862E+03   -0.31475E-03   -0.31406E-03  7696   0.117E-01 0.622E-05
CGA:  21    -0.335823650982E+03   -0.12441E-02   -0.12396E-02  7696   0.253E-01 0.685E-04
CGA:  22    -0.335824161139E+03   -0.51016E-03   -0.50961E-03  7696   0.100E-01 0.198E-04
CGA:  23    -0.335824314565E+03   -0.15343E-03   -0.15298E-03  7696   0.506E-02 0.201E-04
CGA:  24    -0.335824509029E+03   -0.19446E-03   -0.19418E-03  7696   0.545E-02 0.351E-04
CGA:  25    -0.335824800557E+03   -0.29153E-03   -0.29143E-03  7696   0.125E-01 0.609E-05
CGA:  26    -0.335825105952E+03   -0.30539E-03   -0.30565E-03  7696   0.259E-02 0.196E-04
CGA:  27    -0.335825142432E+03   -0.36480E-04   -0.36600E-04  7696   0.173E-02 0.225E-05
CGA:  28    -0.335825284170E+03   -0.14174E-03   -0.14137E-03  7696   0.285E-02 0.709E-05
CGA:  29    -0.335825375630E+03   -0.91460E-04   -0.91507E-04  7696   0.204E-02 0.130E-04
CGA:  30    -0.335825414238E+03   -0.38607E-04   -0.38771E-04  7696   0.909E-03 0.254E-05
CGA:  31    -0.335825436012E+03   -0.21775E-04   -0.21775E-04  7696   0.108E-02 0.755E-06
SDA:  32    -0.335825481851E+03   -0.45839E-04   -0.45793E-04  7696   0.164E-02 0.505E-05
CGA:  33    -0.335825502602E+03   -0.20751E-04   -0.20673E-04  7696   0.247E-03 0.391E-05
CGA:  34    -0.335825508867E+03   -0.62650E-05   -0.62789E-05  7696   0.295E-03 0.163E-05
CGA:  35    -0.335825522642E+03   -0.13775E-04   -0.13737E-04  7696   0.708E-03 0.264E-05
CGA:  36    -0.335825543465E+03   -0.20823E-04   -0.20834E-04  7696   0.514E-03 0.304E-05
CGA:  37    -0.335825560741E+03   -0.17276E-04   -0.17276E-04  7696   0.120E-03 0.272E-06
CGA:  38    -0.335825587592E+03   -0.26851E-04   -0.18641E-05  7696   0.988E-04 0.512E-05
CGA:  39    -0.335825590748E+03   -0.31560E-05   -0.31354E-05  7696   0.116E-03-0.601E-06
  17 F= -.33582559E+03 E0= -.33579749E+03  d E =0.155081E-01  mag=    32.0000
       N       E                     dE             d eps       ncg     rms          ort
SDA:   1    -0.328786769782E+03    0.70388E+01    0.00000E+00  7696   0.740E+02 0.000E+00
CGA:   2    -0.329886806293E+03   -0.11000E+01   -0.20754E+01  7696   0.414E+02-0.766E+01
CGA:   3    -0.330865193153E+03   -0.97839E+00   -0.12269E+01  7696   0.853E+02-0.263E+01
CGA:   4    -0.332554469393E+03   -0.16893E+01   -0.17757E+01  7696   0.667E+02-0.188E+02
CGA:   5    -0.333666959737E+03   -0.11125E+01   -0.95844E+00  7696   0.424E+02 0.516E+01
CGA:   6    -0.334435461847E+03   -0.76850E+00   -0.92802E+00  7696   0.196E+02-0.476E+01
CGA:   7    -0.334756205383E+03   -0.32074E+00   -0.27467E+00  7696   0.972E+01 0.236E+01
CGA:   8    -0.334991848488E+03   -0.23564E+00   -0.20714E+00  7696   0.891E+01 0.838E+00
CGA:   9    -0.335154661047E+03   -0.16281E+00   -0.18223E+00  7696   0.941E+01-0.672E+00
CGA:  10    -0.335462368154E+03   -0.30771E+00   -0.31770E+00  7696   0.127E+02 0.282E+00
CGA:  11    -0.335613472229E+03   -0.15110E+00   -0.13632E+00  7696   0.246E+01 0.124E+01
CGA:  12    -0.335659980026E+03   -0.46508E-01   -0.38258E-01  7696   0.150E+01 0.447E+00
CGA:  13    -0.335687874879E+03   -0.27895E-01   -0.25398E-01  7696   0.943E+00 0.136E+00
CGA:  14    -0.335705208433E+03   -0.17334E-01   -0.17276E-01  7696   0.115E+01 0.277E-02
CGA:  15    -0.335733503611E+03   -0.28295E-01   -0.28873E-01  7696   0.183E+01-0.315E-02
CGA:  16    -0.335758105502E+03   -0.24602E-01   -0.24993E-01  7696   0.955E+00-0.199E-01
CGA:  17    -0.335771076183E+03   -0.12971E-01   -0.12683E-01  7696   0.536E+00 0.157E-01
CGA:  18    -0.335777825183E+03   -0.67490E-02   -0.70043E-02  7696   0.284E+00-0.143E-01
CGA:  19    -0.335783676417E+03   -0.58512E-02   -0.58809E-02  7696   0.487E+00-0.259E-03
CGA:  20    -0.335796189172E+03   -0.12513E-01   -0.12591E-01  7696   0.399E+00 0.194E-02
CGA:  21    -0.335800274839E+03   -0.40857E-02   -0.40028E-02  7696   0.105E+00 0.657E-02
CGA:  22    -0.335802011067E+03   -0.17362E-02   -0.17110E-02  7696   0.977E-01 0.834E-03
CGA:  23    -0.335803972227E+03   -0.19612E-02   -0.19814E-02  7696   0.104E+00-0.122E-03
CGA:  24    -0.335806158820E+03   -0.21866E-02   -0.21954E-02  7696   0.148E+00 0.355E-04
CGA:  25    -0.335809245924E+03   -0.30871E-02   -0.30868E-02  7696   0.102E+00-0.111E-04
CGA:  26    -0.335810476518E+03   -0.12306E-02   -0.12141E-02  7696   0.458E-01 0.897E-03
CGA:  27    -0.335811220701E+03   -0.74418E-03   -0.73418E-03  7696   0.300E-01 0.251E-03
CGA:  28    -0.335811717209E+03   -0.49651E-03   -0.49811E-03  7696   0.347E-01-0.212E-04
CGA:  29    -0.335813105529E+03   -0.13883E-02   -0.13838E-02  7696   0.102E+00 0.308E-03
CGA:  30    -0.335814716379E+03   -0.16109E-02   -0.16135E-02  7696   0.345E-01-0.259E-04
CGA:  31    -0.335815084013E+03   -0.36763E-03   -0.36544E-03  7696   0.127E-01 0.152E-03
SDA:  32    -0.335815344044E+03   -0.26003E-03   -0.25950E-03  7696   0.151E-01-0.121E-04
CGA:  33    -0.335815563676E+03   -0.21963E-03   -0.22001E-03  7696   0.677E-02-0.104E-04
CGA:  34    -0.335815921649E+03   -0.35797E-03   -0.35767E-03  7696   0.175E-01 0.112E-04
CGA:  35    -0.335816321298E+03   -0.39965E-03   -0.39927E-03  7696   0.653E-02-0.230E-04
CGA:  36    -0.335816444127E+03   -0.12283E-03   -0.12295E-03  7696   0.306E-02 0.632E-05
CGA:  37    -0.335817088608E+03   -0.64448E-03   -0.10246E-03  7696   0.162E-02 0.636E-03
CGA:  38    -0.335817186378E+03   -0.97770E-04   -0.97771E-04  7696   0.522E-02-0.478E-06
CGA:  39    -0.335817339374E+03   -0.15300E-03   -0.15344E-03  7696   0.548E-02 0.139E-05
CGA:  40    -0.335817464977E+03   -0.12560E-03   -0.12617E-03  7696   0.343E-02-0.960E-05
CGA:  41    -0.335817528775E+03   -0.63797E-04   -0.63369E-04  7696   0.190E-02 0.150E-04
CGA:  42    -0.335817569080E+03   -0.40305E-04   -0.40284E-04  7696   0.193E-02 0.222E-05
CGA:  43    -0.335817640713E+03   -0.71633E-04   -0.71691E-04  7696   0.374E-02 0.471E-05
CGA:  44    -0.335817753855E+03   -0.11314E-03   -0.11312E-03  7696   0.208E-02 0.517E-05
CGA:  45    -0.335817773768E+03   -0.19913E-04   -0.20024E-04  7696   0.280E-03-0.294E-05
CGA:  46    -0.335817792791E+03   -0.19023E-04   -0.18938E-04  7696   0.140E-02 0.308E-05
CGA:  47    -0.335817829626E+03   -0.36835E-04   -0.36928E-04  7696   0.116E-02 0.335E-05
CGA:  48    -0.335817856848E+03   -0.27222E-04   -0.27265E-04  7696   0.681E-03 0.466E-06
CGA:  49    -0.335817868511E+03   -0.11663E-04   -0.11613E-04  7696   0.269E-03-0.468E-06
CGA:  50    -0.335817875552E+03   -0.70416E-05   -0.70150E-05  7696   0.419E-03-0.177E-05
CGA:  51    -0.335817890512E+03   -0.14960E-04   -0.14953E-04  7696   0.498E-03-0.225E-05
CGA:  52    -0.335817900721E+03   -0.10209E-04   -0.10186E-04  7696   0.128E-03-0.153E-05
CGA:  53    -0.335817902785E+03   -0.20636E-05   -0.20508E-05  7696   0.125E-03-0.640E-06
CGA:  54    -0.335817915544E+03   -0.12759E-04   -0.12850E-04  7696   0.241E-03-0.143E-05
CGA:  55    -0.335817918375E+03   -0.28307E-05   -0.28389E-05  7696   0.603E-04-0.967E-07
  18 F= -.33581792E+03 E0= -.33579032E+03  d E =0.767237E-02  mag=    32.0000
       N       E                     dE             d eps       ncg     rms          ort
SDA:   1    -0.310436327970E+03    0.25382E+02    0.00000E+00  7696   0.335E+03 0.000E+00
CGA:   2    -0.320648883414E+03   -0.10213E+02   -0.38869E+01  7696   0.182E+03-0.457E+02
CGA:   3    -0.321060245516E+03   -0.41136E+00   -0.99491E+00  7696   0.216E+03-0.117E+03
CGA:   4    -0.322718384436E+03   -0.16581E+01   -0.27501E+01  7696   0.948E+02-0.581E+02
CGA:   5    -0.325051928819E+03   -0.23335E+01   -0.23310E+01  7696   0.124E+03-0.143E+01
CGA:   6    -0.328560239826E+03   -0.35083E+01   -0.35201E+01  7696   0.881E+02 0.137E+01
CGA:   7    -0.330833738343E+03   -0.22735E+01   -0.22502E+01  7696   0.542E+02-0.154E+01
CGA:   8    -0.332043714276E+03   -0.12100E+01   -0.12762E+01  7696   0.444E+02 0.718E-01
CGA:   9    -0.333108861463E+03   -0.10651E+01   -0.10066E+01  7696   0.248E+02-0.333E+00
CGA:  10    -0.333932897752E+03   -0.82404E+00   -0.82215E+00  7696   0.222E+02 0.147E+01
CGA:  11    -0.334417167215E+03   -0.48427E+00   -0.45535E+00  7696   0.119E+02 0.369E+00
CGA:  12    -0.334741233121E+03   -0.32407E+00   -0.32788E+00  7696   0.104E+02 0.225E+00
CGA:  13    -0.334987885231E+03   -0.24665E+00   -0.24974E+00  7696   0.677E+01 0.444E-01
CGA:  14    -0.335164351557E+03   -0.17647E+00   -0.17339E+00  7696   0.408E+01-0.145E+00
CGA:  15    -0.335262083296E+03   -0.97732E-01   -0.99028E-01  7696   0.342E+01 0.482E-01
CGA:  16    -0.335339829356E+03   -0.77746E-01   -0.79360E-01  7696   0.211E+01 0.305E-01
CGA:  17    -0.335396424855E+03   -0.56595E-01   -0.56251E-01  7696   0.162E+01-0.306E-01
CGA:  18    -0.335435579687E+03   -0.39155E-01   -0.39343E-01  7696   0.100E+01 0.948E-02
CGA:  19    -0.335463722739E+03   -0.28143E-01   -0.28160E-01  7696   0.780E+00 0.369E-02
CGA:  20    -0.335481348262E+03   -0.17626E-01   -0.17751E-01  7696   0.556E+00 0.322E-02
CGA:  21    -0.335499492555E+03   -0.18144E-01   -0.18144E-01  7696   0.510E+00-0.624E-05
CGA:  22    -0.335513848539E+03   -0.14356E-01   -0.14351E-01  7696   0.423E+00-0.157E-02
CGA:  23    -0.335524972277E+03   -0.11124E-01   -0.11175E-01  7696   0.281E+00 0.650E-02
CGA:  24    -0.335532038015E+03   -0.70657E-02   -0.70788E-02  7696   0.221E+00 0.945E-03
CGA:  25    -0.335537900500E+03   -0.58625E-02   -0.58557E-02  7696   0.168E+00-0.926E-03
CGA:  26    -0.335543909787E+03   -0.60093E-02   -0.59978E-02  7696   0.157E+00 0.119E-02
CGA:  27    -0.335547512454E+03   -0.36027E-02   -0.35971E-02  7696   0.103E+00-0.167E-03
CGA:  28    -0.335550350321E+03   -0.28379E-02   -0.28387E-02  7696   0.778E-01 0.277E-03
CGA:  29    -0.335552505245E+03   -0.21549E-02   -0.21556E-02  7696   0.712E-01 0.225E-03
CGA:  30    -0.335554709546E+03   -0.22043E-02   -0.22036E-02  7696   0.538E-01 0.200E-03
CGA:  31    -0.335556132374E+03   -0.14228E-02   -0.14219E-02  7696   0.395E-01-0.137E-03
CGA:  32    -0.335557003309E+03   -0.87093E-03   -0.87179E-03  7696   0.234E-01 0.349E-04
CGA:  33    -0.335557772426E+03   -0.76912E-03   -0.76943E-03  7696   0.221E-01-0.476E-04
SDA:  34    -0.335558387045E+03   -0.61462E-03   -0.61467E-03  7696   0.194E-01 0.292E-04
CGA:  35    -0.335558572312E+03   -0.18527E-03   -0.18410E-03  7696   0.332E-02 0.768E-04
CGA:  36    -0.335558773301E+03   -0.20099E-03   -0.20133E-03  7696   0.112E-01-0.106E-04
CGA:  37    -0.335559531152E+03   -0.75785E-03   -0.75772E-03  7696   0.217E-01 0.403E-05
CGA:  38    -0.335559942926E+03   -0.41177E-03   -0.41111E-03  7696   0.513E-02 0.160E-05
CGA:  39    -0.335560080083E+03   -0.13716E-03   -0.13733E-03  7696   0.290E-02 0.174E-04
CGA:  40    -0.335560190636E+03   -0.11055E-03   -0.11063E-03  7696   0.743E-02-0.777E-05
CGA:  41    -0.335560412294E+03   -0.22166E-03   -0.22166E-03  7696   0.298E-02 0.882E-06
CGA:  42    -0.335560541668E+03   -0.12937E-03   -0.12868E-03  7696   0.763E-03 0.463E-04
CGA:  43    -0.335560580296E+03   -0.38628E-04   -0.38658E-04  7696   0.333E-02-0.148E-05
CGA:  44    -0.335560721609E+03   -0.14131E-03   -0.14126E-03  7696   0.132E-02 0.461E-05
CGA:  45    -0.335560743318E+03   -0.21709E-04   -0.21647E-04  7696   0.443E-03 0.101E-05
CGA:  46    -0.335560763879E+03   -0.20562E-04   -0.20575E-04  7696   0.140E-02-0.112E-05
CGA:  47    -0.335560829997E+03   -0.66118E-04   -0.66162E-04  7696   0.135E-02-0.320E-05
CGA:  48    -0.335560845645E+03   -0.15648E-04   -0.15578E-04  7696   0.223E-03-0.141E-05
CGA:  49    -0.335560892314E+03   -0.46669E-04   -0.23295E-05  7696   0.112E-02-0.277E-05
CGA:  50    -0.335560904422E+03   -0.12108E-04   -0.12127E-04  7696   0.216E-03-0.162E-05
CGA:  51    -0.335560912438E+03   -0.80159E-05   -0.80407E-05  7696   0.226E-03 0.730E-06
CGA:  52    -0.335560926853E+03   -0.14415E-04   -0.14413E-04  7696   0.858E-03 0.329E-06
CGA:  53    -0.335560942151E+03   -0.15298E-04   -0.15345E-04  7696   0.198E-03 0.813E-06
CGA:  54    -0.335560946693E+03   -0.45423E-05   -0.45312E-05  7696   0.141E-03-0.232E-06
  19 F= -.33556095E+03 E0= -.33553254E+03  d E =0.256972E+00  mag=    32.0000
       N       E                     dE             d eps       ncg     rms          ort
SDA:   1    -0.330376479715E+03    0.51845E+01    0.00000E+00  7696   0.232E+03 0.000E+00
CGA:   2    -0.331629841559E+03   -0.12534E+01   -0.37079E+01  7696   0.182E+03-0.185E+03
CGA:   3    -0.331864513102E+03   -0.23467E+00   -0.31124E+01  7696   0.142E+03-0.126E+03
CGA:   4    -0.333302329309E+03   -0.14378E+01   -0.12874E+01  7696   0.627E+01 0.501E+01
CGA:   5    -0.333864738525E+03   -0.56241E+00   -0.57428E+00  7696   0.451E+02-0.273E+00
CGA:   6    -0.334935973702E+03   -0.10712E+01   -0.10386E+01  7696   0.102E+02 0.768E+00
CGA:   7    -0.335054249141E+03   -0.11828E+00   -0.13716E+00  7696   0.476E+01-0.126E+01
CGA:   8    -0.335371582774E+03   -0.31733E+00   -0.29803E+00  7696   0.609E+01 0.622E+00
CGA:   9    -0.335513539670E+03   -0.14196E+00   -0.15513E+00  7696   0.653E+01-0.336E+00
CGA:  10    -0.335627218788E+03   -0.11368E+00   -0.75801E-01  7696   0.178E+01 0.268E+01
CGA:  11    -0.335651911448E+03   -0.24693E-01   -0.20356E-01  7696   0.613E+00 0.478E+00
CGA:  12    -0.335676552870E+03   -0.24641E-01   -0.24884E-01  7696   0.180E+01 0.314E-02
CGA:  13    -0.335709090162E+03   -0.32537E-01   -0.32993E-01  7696   0.262E+01-0.156E-01
CGA:  14    -0.335752049541E+03   -0.42959E-01   -0.43005E-01  7696   0.227E+01-0.599E-03
CGA:  15    -0.335769443872E+03   -0.17394E-01   -0.16910E-01  7696   0.376E+00 0.532E-01
CGA:  16    -0.335772449496E+03   -0.30056E-02   -0.29909E-02  7696   0.194E+00 0.163E-02
CGA:  17    -0.335778499130E+03   -0.60496E-02   -0.60584E-02  7696   0.767E+00 0.493E-03
CGA:  18    -0.335792371229E+03   -0.13872E-01   -0.13982E-01  7696   0.477E+00-0.226E-02
CGA:  19    -0.335796128107E+03   -0.37569E-02   -0.37013E-02  7696   0.144E+00 0.599E-02
CGA:  20    -0.335798073302E+03   -0.19452E-02   -0.19141E-02  7696   0.143E+00 0.158E-02
CGA:  21    -0.335800460207E+03   -0.23869E-02   -0.23564E-02  7696   0.198E+00 0.931E-03
CGA:  22    -0.335804119463E+03   -0.36593E-02   -0.36489E-02  7696   0.295E+00 0.165E-03
CGA:  23    -0.335807687796E+03   -0.35683E-02   -0.35418E-02  7696   0.186E+00 0.150E-02
CGA:  24    -0.335809707789E+03   -0.20200E-02   -0.20575E-02  7696   0.118E+00-0.246E-02
CGA:  25    -0.335810965175E+03   -0.12574E-02   -0.12457E-02  7696   0.629E-01 0.767E-03
CGA:  26    -0.335811661407E+03   -0.69623E-03   -0.68507E-03  7696   0.473E-01 0.710E-03
CGA:  27    -0.335812390180E+03   -0.72877E-03   -0.72955E-03  7696   0.623E-01-0.181E-04
CGA:  28    -0.335813469641E+03   -0.10795E-02   -0.10787E-02  7696   0.101E+00 0.122E-04
CGA:  29    -0.335814986073E+03   -0.15164E-02   -0.15137E-02  7696   0.820E-01 0.754E-04
CGA:  30    -0.335815671671E+03   -0.68560E-03   -0.68456E-03  7696   0.290E-01 0.992E-04
CGA:  31    -0.335816007636E+03   -0.33596E-03   -0.33869E-03  7696   0.248E-01-0.123E-03
CGA:  32    -0.335816303376E+03   -0.29574E-03   -0.30183E-03  7696   0.135E-01-0.232E-03
CGA:  33    -0.335816466071E+03   -0.16269E-03   -0.16353E-03  7696   0.155E-01-0.289E-04
SDA:  34    -0.335817099828E+03   -0.63376E-03   -0.63425E-03  7696   0.683E-01-0.285E-04
CGA:  35    -0.335817702863E+03   -0.60304E-03   -0.59732E-03  7696   0.504E-02 0.441E-03
CGA:  36    -0.335817865076E+03   -0.16221E-03   -0.16258E-03  7696   0.392E-02-0.352E-04
CGA:  37    -0.335818148010E+03   -0.28293E-03   -0.28410E-03  7696   0.952E-02-0.256E-04
CGA:  38    -0.335818543671E+03   -0.39566E-03   -0.39530E-03  7696   0.712E-02 0.200E-04
CGA:  39    -0.335818634560E+03   -0.90889E-04   -0.91163E-04  7696   0.163E-02-0.675E-05
CGA:  40    -0.335818695863E+03   -0.61303E-04   -0.61330E-04  7696   0.243E-02-0.186E-05
CGA:  41    -0.335818771383E+03   -0.75520E-04   -0.75488E-04  7696   0.301E-02 0.669E-05
CGA:  42    -0.335818954712E+03   -0.18333E-03   -0.18300E-03  7696   0.784E-03 0.986E-05
CGA:  43    -0.335818984677E+03   -0.29965E-04   -0.30028E-04  7696   0.245E-02-0.692E-05
CGA:  44    -0.335819093059E+03   -0.10838E-03   -0.10889E-03  7696   0.905E-03-0.312E-04
CGA:  45    -0.335819114440E+03   -0.21381E-04   -0.21372E-04  7696   0.677E-03-0.332E-05
[...]
CGA:   4    -0.335825054155E+03   -0.20090E-01   -0.20154E-01  7696   0.730E+00-0.328E-02
CGA:   5    -0.335850338305E+03   -0.25284E-01   -0.25280E-01  7696   0.462E+00-0.297E-02
CGA:   6    -0.335858305958E+03   -0.79677E-02   -0.83314E-02  7696   0.111E+00-0.929E-02
CGA:   7    -0.335860425809E+03   -0.21199E-02   -0.21349E-02  7696   0.942E-01-0.269E-03
CGA:   8    -0.335869443812E+03   -0.90180E-02   -0.90653E-02  7696   0.414E-01-0.870E-03
CGA:   9    -0.335870305036E+03   -0.86122E-03   -0.87141E-03  7696   0.240E-01-0.148E-03
CGA:  10    -0.335871175374E+03   -0.87034E-03   -0.87033E-03  7696   0.190E-01 0.263E-04
CGA:  11    -0.335872184793E+03   -0.10094E-02   -0.10103E-02  7696   0.171E-01-0.482E-04
CGA:  12    -0.335872425406E+03   -0.24061E-03   -0.23935E-03  7696   0.380E-02 0.519E-04
CGA:  13    -0.335872555754E+03   -0.13035E-03   -0.13033E-03  7696   0.561E-02-0.482E-05
CGA:  14    -0.335872812770E+03   -0.25702E-03   -0.25679E-03  7696   0.305E-02 0.173E-04
CGA:  15    -0.335872871137E+03   -0.58367E-04   -0.58147E-04  7696   0.102E-02 0.117E-05
CGA:  16    -0.335872919317E+03   -0.48181E-04   -0.48268E-04  7696   0.110E-02-0.676E-05
CGA:  17    -0.335872986608E+03   -0.67290E-04   -0.67434E-04  7696   0.208E-02-0.564E-05
CGA:  18    -0.335873018015E+03   -0.31407E-04   -0.31420E-04  7696   0.220E-03-0.417E-05
CGA:  19    -0.335873023382E+03   -0.53669E-05   -0.53793E-05  7696   0.270E-03 0.973E-06
CGA:  20    -0.335873046436E+03   -0.23054E-04   -0.22915E-04  7696   0.334E-03 0.282E-05
CGA:  21    -0.335873056696E+03   -0.10260E-04   -0.10290E-04  7696   0.144E-03 0.331E-05
CGA:  22    -0.335873059947E+03   -0.32503E-05   -0.32580E-05  7696   0.720E-04 0.525E-06
 106 F= -.33587306E+03 E0= -.33584695E+03  d E =-.255770E-02  mag=    32.0000
       N       E                     dE             d eps       ncg     rms          ort
SDA:   1    -0.335749511257E+03    0.12355E+00    0.00000E+00  7696   0.186E+01 0.000E+00
CGA:   2    -0.335775960490E+03   -0.26449E-01   -0.26437E-01  7696   0.455E+00-0.907E-03
CGA:   3    -0.335788237705E+03   -0.12277E-01   -0.12397E-01  7696   0.661E+00 0.165E-02
CGA:   4    -0.335837443061E+03   -0.49205E-01   -0.48727E-01  7696   0.512E+00 0.128E-01
CGA:   5    -0.335855042836E+03   -0.17600E-01   -0.17365E-01  7696   0.153E+00-0.148E-01
CGA:   6    -0.335857847410E+03   -0.28046E-02   -0.27959E-02  7696   0.133E+00 0.231E-03
CGA:   7    -0.335865186545E+03   -0.73391E-02   -0.73350E-02  7696   0.196E+00 0.189E-03
CGA:   8    -0.335870336308E+03   -0.51498E-02   -0.51332E-02  7696   0.243E-01-0.680E-04
CGA:   9    -0.335871283244E+03   -0.94694E-03   -0.94818E-03  7696   0.314E-01-0.453E-03
CGA:  10    -0.335872015650E+03   -0.73241E-03   -0.73152E-03  7696   0.274E-01-0.918E-05
CGA:  11    -0.335873084218E+03   -0.10686E-02   -0.10680E-02  7696   0.162E-01 0.152E-03
CGA:  12    -0.335873317079E+03   -0.23286E-03   -0.23225E-03  7696   0.306E-02 0.176E-04
CGA:  13    -0.335873493811E+03   -0.17673E-03   -0.17695E-03  7696   0.521E-02-0.965E-05
CGA:  14    -0.335873647459E+03   -0.15365E-03   -0.15366E-03  7696   0.435E-02-0.157E-05
CGA:  15    -0.335873728397E+03   -0.80938E-04   -0.80945E-04  7696   0.184E-02-0.257E-05
CGA:  16    -0.335873781576E+03   -0.53180E-04   -0.53226E-04  7696   0.851E-03 0.205E-05
CGA:  17    -0.335873861174E+03   -0.79597E-04   -0.80209E-04  7696   0.172E-02-0.106E-04
CGA:  18    -0.335873882366E+03   -0.21192E-04   -0.21104E-04  7696   0.334E-03-0.102E-05
CGA:  19    -0.335873894144E+03   -0.11778E-04   -0.11781E-04  7696   0.236E-03 0.172E-05
CGA:  20    -0.335873906127E+03   -0.11983E-04   -0.11947E-04  7696   0.517E-03 0.264E-05
CGA:  21    -0.335873922228E+03   -0.16101E-04   -0.16110E-04  7696   0.515E-03 0.135E-05
CGA:  22    -0.335873931785E+03   -0.95564E-05   -0.95732E-05  7696   0.731E-04 0.129E-05
 107 F= -.33587393E+03 E0= -.33584773E+03  d E =-.871838E-03  mag=    32.0000
       N       E                     dE             d eps       ncg     rms          ort
SDA:   1    -0.335786516739E+03    0.87405E-01    0.00000E+00  7696   0.489E+01 0.000E+00
CGA:   2    -0.335836574733E+03   -0.50058E-01   -0.46014E-01  7696   0.156E+00 0.371E+00
CGA:   3    -0.335840217901E+03   -0.36432E-02   -0.36154E-02  7696   0.203E+00 0.223E-03
CGA:   4    -0.335854113726E+03   -0.13896E-01   -0.13903E-01  7696   0.424E+00-0.278E-03
CGA:   5    -0.335862178872E+03   -0.80651E-02   -0.81835E-02  7696   0.219E+00-0.256E-02
CGA:   6    -0.335866126490E+03   -0.39476E-02   -0.39437E-02  7696   0.691E-01 0.177E-03
CGA:   7    -0.335867815550E+03   -0.16891E-02   -0.16823E-02  7696   0.598E-01-0.742E-04
CGA:   8    -0.335869913112E+03   -0.20976E-02   -0.20973E-02  7696   0.956E-01 0.768E-04
CGA:   9    -0.335872417592E+03   -0.25045E-02   -0.25041E-02  7696   0.240E-01-0.275E-04
CGA:  10    -0.335872743291E+03   -0.32570E-03   -0.32444E-03  7696   0.101E-01 0.495E-04
CGA:  11    -0.335873513630E+03   -0.77034E-03   -0.76882E-03  7696   0.203E-01 0.362E-04
CGA:  12    -0.335873789929E+03   -0.27630E-03   -0.27721E-03  7696   0.418E-02-0.194E-04
CGA:  13    -0.335873903844E+03   -0.11391E-03   -0.11418E-03  7696   0.282E-02 0.179E-04
CGA:  14    -0.335873975360E+03   -0.71517E-04   -0.71506E-04  7696   0.335E-02 0.445E-06
CGA:  15    -0.335874149887E+03   -0.17453E-03   -0.17468E-03  7696   0.293E-02-0.745E-05
CGA:  16    -0.335874192210E+03   -0.42323E-04   -0.42371E-04  7696   0.646E-03-0.417E-05
CGA:  17    -0.335874205930E+03   -0.13720E-04   -0.13705E-04  7696   0.534E-03-0.895E-06
CGA:  18    -0.335874249207E+03   -0.43277E-04   -0.43343E-04  7696   0.133E-02-0.132E-05
CGA:  19    -0.335874267975E+03   -0.18767E-04   -0.18793E-04  7696   0.149E-03-0.260E-06
CGA:  20    -0.335874272642E+03   -0.46672E-05   -0.46668E-05  7696   0.209E-03-0.164E-06
 108 F= -.33587427E+03 E0= -.33584805E+03  d E =-.340857E-03  mag=    32.0000
       N       E                     dE             d eps       ncg     rms          ort
SDA:   1    -0.334513643918E+03    0.13606E+01    0.00000E+00  7696   0.834E+01 0.000E+00
CGA:   2    -0.334659485227E+03   -0.14584E+00   -0.13306E+00  7696   0.546E+01 0.457E+00
CGA:   3    -0.334906180920E+03   -0.24670E+00   -0.28654E+00  7696   0.208E+02-0.196E+01
CGA:   4    -0.335088548266E+03   -0.18237E+00   -0.17870E+00  7696   0.284E+02 0.247E+00
CGA:   5    -0.335388873789E+03   -0.30033E+00   -0.35571E+00  7696   0.161E+02-0.307E+01
CGA:   6    -0.335553136811E+03   -0.16426E+00   -0.18981E+00  7696   0.361E+01-0.926E+00
CGA:   7    -0.335588987192E+03   -0.35850E-01   -0.34115E-01  7696   0.161E+01 0.131E+00
CGA:   8    -0.335656887064E+03   -0.67900E-01   -0.68393E-01  7696   0.656E+01-0.333E-01
CGA:   9    -0.335772757042E+03   -0.11587E+00   -0.11086E+00  7696   0.313E+01 0.134E+00
CGA:  10    -0.335796349157E+03   -0.23592E-01   -0.24485E-01  7696   0.657E+00-0.101E+00
CGA:  11    -0.335807686481E+03   -0.11337E-01   -0.11507E-01  7696   0.924E+00-0.102E-02
CGA:  12    -0.335826618726E+03   -0.18932E-01   -0.19196E-01  7696   0.798E+00 0.717E-02
CGA:  13    -0.335839464695E+03   -0.12846E-01   -0.12922E-01  7696   0.544E+00-0.903E-03
CGA:  14    -0.335848182301E+03   -0.87176E-02   -0.86732E-02  7696   0.273E+00 0.124E-02
CGA:  15    -0.335852240431E+03   -0.40581E-02   -0.40376E-02  7696   0.159E+00 0.672E-03
CGA:  16    -0.335855202864E+03   -0.29624E-02   -0.29615E-02  7696   0.166E+00 0.723E-05
CGA:  17    -0.335859815900E+03   -0.46130E-02   -0.46209E-02  7696   0.307E+00-0.183E-02
CGA:  18    -0.335866049434E+03   -0.62335E-02   -0.62220E-02  7696   0.214E+00-0.576E-03
CGA:  19    -0.335868221709E+03   -0.21723E-02   -0.22307E-02  7696   0.354E-01-0.356E-02
CGA:  20    -0.335868711820E+03   -0.49011E-03   -0.49244E-03  7696   0.329E-01-0.391E-04
CGA:  21    -0.335870094413E+03   -0.13826E-02   -0.13635E-02  7696   0.649E-01 0.100E-02
CGA:  22    -0.335871158266E+03   -0.10639E-02   -0.10599E-02  7696   0.463E-01-0.969E-06
CGA:  23    -0.335872430864E+03   -0.12726E-02   -0.12771E-02  7696   0.331E-01-0.887E-03
CGA:  24    -0.335872746462E+03   -0.31560E-03   -0.31572E-03  7696   0.694E-02-0.178E-04
CGA:  25    -0.335872920370E+03   -0.17391E-03   -0.17385E-03  7696   0.142E-01 0.260E-04
CGA:  26    -0.335873422989E+03   -0.50262E-03   -0.50184E-03  7696   0.219E-01 0.568E-04
CGA:  27    -0.335873751413E+03   -0.32842E-03   -0.32798E-03  7696   0.944E-02 0.447E-06
CGA:  28    -0.335873910078E+03   -0.15867E-03   -0.15853E-03  7696   0.568E-02-0.663E-05
CGA:  29    -0.335873989267E+03   -0.79189E-04   -0.79022E-04  7696   0.218E-02-0.834E-06
CGA:  30    -0.335874038179E+03   -0.48911E-04   -0.48911E-04  7696   0.330E-02-0.114E-05
CGA:  31    -0.335874137718E+03   -0.99539E-04   -0.99542E-04  7696   0.532E-02 0.666E-06
SDA:  32    -0.335874256710E+03   -0.11899E-03   -0.11901E-03  7696   0.350E-02 0.109E-04
CGA:  33    -0.335874295709E+03   -0.38999E-04   -0.39031E-04  7696   0.592E-03-0.310E-05
CGA:  34    -0.335874316815E+03   -0.21106E-04   -0.21134E-04  7696   0.917E-03-0.222E-05
CGA:  35    -0.335874362637E+03   -0.45822E-04   -0.46110E-04  7696   0.121E-02-0.107E-04
CGA:  36    -0.335874392267E+03   -0.29631E-04   -0.29631E-04  7696   0.545E-03-0.576E-06
CGA:  37    -0.335874409040E+03   -0.16773E-04   -0.16769E-04  7696   0.271E-03 0.326E-06
CGA:  38    -0.335874442525E+03   -0.33485E-04   -0.77783E-07  7696   0.994E-04-0.640E-04
CGA:  39    -0.335874446597E+03   -0.40723E-05   -0.40680E-05  7696   0.224E-03 0.490E-06
 109 F= -.33587445E+03 E0= -.33584822E+03  d E =-.173955E-03  mag=    32.0000
       N       E                     dE             d eps       ncg     rms          ort
SDA:   1    -0.335685813474E+03    0.18863E+00    0.00000E+00  7696   0.130E+01 0.000E+00
CGA:   2    -0.335709539280E+03   -0.23726E-01   -0.25571E-01  7696   0.979E+00-0.570E-01
CGA:   3    -0.335756862831E+03   -0.47324E-01   -0.47185E-01  7696   0.187E+01 0.138E-01
CGA:   4    -0.335812218418E+03   -0.55356E-01   -0.54759E-01  7696   0.994E+00 0.126E-02
CGA:   5    -0.335832546633E+03   -0.20328E-01   -0.20770E-01  7696   0.384E+00-0.102E-01
CGA:   6    -0.335841879986E+03   -0.93334E-02   -0.90518E-02  7696   0.208E+00 0.435E-02
CGA:   7    -0.335860597930E+03   -0.18718E-01   -0.18635E-01  7696   0.508E+00 0.182E-02
CGA:   8    -0.335867426318E+03   -0.68284E-02   -0.67132E-02  7696   0.423E-01 0.682E-02
CGA:   9    -0.335869599948E+03   -0.21736E-02   -0.21926E-02  7696   0.476E-01-0.146E-02
CGA:  10    -0.335871268865E+03   -0.16689E-02   -0.16698E-02  7696   0.817E-01 0.500E-04
CGA:  11    -0.335873416695E+03   -0.21478E-02   -0.21612E-02  7696   0.992E-02-0.593E-04
CGA:  12    -0.335873582616E+03   -0.16592E-03   -0.16516E-03  7696   0.531E-02 0.237E-04
CGA:  13    -0.335873940767E+03   -0.35815E-03   -0.35917E-03  7696   0.844E-02-0.344E-04
CGA:  14    -0.335874240726E+03   -0.29996E-03   -0.29997E-03  7696   0.102E-01 0.163E-05
CGA:  15    -0.335874415514E+03   -0.17479E-03   -0.17578E-03  7696   0.867E-03-0.280E-04
CGA:  16    -0.335874469484E+03   -0.53970E-04   -0.54000E-04  7696   0.273E-02-0.117E-05
CGA:  17    -0.335874541276E+03   -0.71792E-04   -0.71822E-04  7696   0.106E-02 0.107E-05
CGA:  18    -0.335874570636E+03   -0.29359E-04   -0.29383E-04  7696   0.729E-03 0.128E-05
CGA:  19    -0.335874588602E+03   -0.17966E-04   -0.18020E-04  7696   0.493E-03 0.159E-05
CGA:  20    -0.335874615670E+03   -0.27068E-04   -0.27109E-04  7696   0.828E-03-0.254E-05
CGA:  21    -0.335874634785E+03   -0.19115E-04   -0.19092E-04  7696   0.238E-03-0.119E-05
CGA:  22    -0.335874639047E+03   -0.42625E-05   -0.42603E-05  7696   0.134E-03-0.228E-06
CGA:  23    -0.335874652565E+03   -0.13517E-04   -0.13440E-04  7696   0.287E-03 0.125E-05
CGA:  24    -0.335874659533E+03   -0.69686E-05   -0.69573E-05  7696   0.216E-03-0.477E-06
 110 F= -.33587466E+03 E0= -.33584844E+03  d E =-.212936E-03  mag=    32.0000
       N       E                     dE             d eps       ncg     rms          ort
SDA:   1    -0.334914690335E+03    0.95996E+00    0.00000E+00  7696   0.688E+02 0.000E+00
CGA:   2    -0.335621188884E+03   -0.70650E+00   -0.44656E+00  7696   0.144E+02 0.346E+02
CGA:   3    -0.335763887520E+03   -0.14270E+00   -0.11286E+00  7696   0.103E+01 0.324E+01
CGA:   4    -0.335777009934E+03   -0.13122E-01   -0.12443E-01  7696   0.378E+00 0.555E-01
CGA:   5    -0.335787463339E+03   -0.10453E-01   -0.10480E-01  7696   0.685E+00 0.457E-03
CGA:   6    -0.335813973210E+03   -0.26510E-01   -0.26485E-01  7696   0.200E+01 0.368E-02
CGA:   7    -0.335849342202E+03   -0.35369E-01   -0.35447E-01  7696   0.618E+00-0.262E-02
CGA:   8    -0.335855095526E+03   -0.57533E-02   -0.54391E-02  7696   0.127E+00 0.294E-01
CGA:   9    -0.335857219272E+03   -0.21237E-02   -0.20945E-02  7696   0.142E+00 0.967E-03
CGA:  10    -0.335861996093E+03   -0.47768E-02   -0.47809E-02  7696   0.337E+00-0.140E-02
CGA:  11    -0.335866933685E+03   -0.49376E-02   -0.49381E-02  7696   0.190E+00 0.127E-04
CGA:  12    -0.335869735016E+03   -0.28013E-02   -0.28373E-02  7696   0.147E+00-0.126E-02
CGA:  13    -0.335871587494E+03   -0.18525E-02   -0.19380E-02  7696   0.331E-01-0.383E-02
CGA:  14    -0.335871905408E+03   -0.31791E-03   -0.31875E-03  7696   0.152E-01-0.642E-04
CGA:  15    -0.335872637789E+03   -0.73238E-03   -0.73468E-03  7696   0.655E-01-0.106E-03
CGA:  16    -0.335873804394E+03   -0.11666E-02   -0.11629E-02  7696   0.239E-01 0.113E-04
CGA:  17    -0.335874054783E+03   -0.25039E-03   -0.25166E-03  7696   0.813E-02-0.897E-04
CGA:  18    -0.335874174185E+03   -0.11940E-03   -0.11956E-03  7696   0.515E-02 0.297E-05
CGA:  19    -0.335874292632E+03   -0.11845E-03   -0.11855E-03  7696   0.856E-02 0.134E-04
CGA:  20    -0.335874493169E+03   -0.20054E-03   -0.20067E-03  7696   0.825E-02 0.202E-04
CGA:  21    -0.335874624454E+03   -0.13128E-03   -0.13147E-03  7696   0.600E-02 0.405E-05
CGA:  22    -0.335874725477E+03   -0.10102E-03   -0.10095E-03  7696   0.330E-02 0.232E-05
CGA:  23    -0.335874768998E+03   -0.43521E-04   -0.43403E-04  7696   0.170E-02 0.146E-05
CGA:  24    -0.335874810472E+03   -0.41474E-04   -0.41471E-04  7696   0.326E-02-0.329E-05
CGA:  25    -0.335874899335E+03   -0.88863E-04   -0.88866E-04  7696   0.275E-02-0.115E-05
CGA:  26    -0.335874925230E+03   -0.25895E-04   -0.25951E-04  7696   0.530E-03-0.165E-05
CGA:  27    -0.335874936171E+03   -0.10941E-04   -0.10937E-04  7696   0.780E-03-0.856E-06
CGA:  28    -0.335874952810E+03   -0.16639E-04   -0.16620E-04  7696   0.680E-03-0.465E-05
CGA:  29    -0.335874968662E+03   -0.15852E-04   -0.15850E-04  7696   0.121E-02-0.283E-05
CGA:  30    -0.335874993950E+03   -0.25288E-04   -0.25293E-04  7696   0.560E-03 0.672E-06
CGA:  31    -0.335874999502E+03   -0.55518E-05   -0.55715E-05  7696   0.168E-03 0.777E-06
 111 F= -.33587500E+03 E0= -.33584885E+03  d E =-.339969E-03  mag=    32.0000
       N       E                     dE             d eps       ncg     rms          ort
SDA:   1    -0.335200604119E+03    0.67439E+00    0.00000E+00  7696   0.423E+02 0.000E+00
CGA:   2    -0.335631077310E+03   -0.43047E+00   -0.35965E+00  7696   0.137E+01 0.590E+01
CGA:   3    -0.335651103881E+03   -0.20027E-01   -0.19699E-01  7696   0.893E+00 0.980E-02
CGA:   4    -0.335699435322E+03   -0.48331E-01   -0.48939E-01  7696   0.356E+01-0.207E-01
CGA:   5    -0.335786390532E+03   -0.86955E-01   -0.86872E-01  7696   0.267E+01 0.318E-01
CGA:   6    -0.335819709996E+03   -0.33319E-01   -0.33703E-01  7696   0.739E+00-0.149E-01
CGA:   7    -0.335830652107E+03   -0.10942E-01   -0.10441E-01  7696   0.350E+00 0.707E-02
CGA:   8    -0.335837347679E+03   -0.66956E-02   -0.66373E-02  7696   0.393E+00-0.453E-02
CGA:   9    -0.335845980238E+03   -0.86326E-02   -0.86332E-02  7696   0.470E+00 0.251E-02
CGA:  10    -0.335855767641E+03   -0.97874E-02   -0.98008E-02  7696   0.565E+00 0.332E-02
CGA:  11    -0.335865148787E+03   -0.93811E-02   -0.94169E-02  7696   0.132E+00 0.998E-03
CGA:  12    -0.335866380742E+03   -0.12320E-02   -0.12359E-02  7696   0.362E-01-0.268E-03
CGA:  13    -0.335867871691E+03   -0.14909E-02   -0.15098E-02  7696   0.115E+00-0.919E-03
CGA:  14    -0.335869960812E+03   -0.20891E-02   -0.20849E-02  7696   0.698E-01-0.333E-03
CGA:  15    -0.335871084396E+03   -0.11236E-02   -0.11274E-02  7696   0.558E-01 0.984E-04
CGA:  16    -0.335871893326E+03   -0.80893E-03   -0.81764E-03  7696   0.148E-01 0.291E-04
CGA:  17    -0.335872065715E+03   -0.17239E-03   -0.17218E-03  7696   0.722E-02 0.810E-05
CGA:  18    -0.335872332526E+03   -0.26681E-03   -0.26721E-03  7696   0.228E-01-0.239E-04
CGA:  19    -0.335872956202E+03   -0.62368E-03   -0.62351E-03  7696   0.169E-01 0.202E-04
CGA:  20    -0.335873129598E+03   -0.17340E-03   -0.17389E-03  7696   0.426E-02-0.169E-04
CGA:  21    -0.335873212153E+03   -0.82556E-04   -0.82590E-04  7696   0.380E-02 0.848E-05
CGA:  22    -0.335873277358E+03   -0.65205E-04   -0.65187E-04  7696   0.306E-02-0.110E-05
CGA:  23    -0.335873366653E+03   -0.89295E-04   -0.89298E-04  7696   0.494E-02-0.165E-06
CGA:  24    -0.335873454823E+03   -0.88170E-04   -0.88197E-04  7696   0.337E-02 0.490E-05
CGA:  25    -0.335873509775E+03   -0.54952E-04   -0.54946E-04  7696   0.119E-02 0.116E-05
CGA:  26    -0.335873522866E+03   -0.13091E-04   -0.13077E-04  7696   0.481E-03-0.419E-06
CGA:  27    -0.335873545027E+03   -0.22161E-04   -0.22176E-04  7696   0.186E-02-0.653E-06
CGA:  28    -0.335873586909E+03   -0.41882E-04   -0.41880E-04  7696   0.108E-02 0.281E-05
CGA:  29    -0.335873602034E+03   -0.15125E-04   -0.15133E-04  7696   0.568E-03 0.682E-06
CGA:  30    -0.335873612110E+03   -0.10076E-04   -0.10065E-04  7696   0.314E-03-0.205E-05
CGA:  31    -0.335873616642E+03   -0.45318E-05   -0.45219E-05  7696   0.190E-03-0.107E-05
 112 F= -.33587362E+03 E0= -.33584758E+03  d E =0.138286E-02  mag=    32.0000
       N       E                     dE             d eps       ncg     rms          ort
SDA:   1    -0.335697669753E+03    0.17594E+00    0.00000E+00  7696   0.703E+01 0.000E+00
CGA:   2    -0.335769122765E+03   -0.71453E-01   -0.68893E-01  7696   0.400E+00 0.147E+00
CGA:   3    -0.335782400121E+03   -0.13277E-01   -0.13499E-01  7696   0.825E+00-0.160E-01
CGA:   4    -0.335819808881E+03   -0.37409E-01   -0.37662E-01  7696   0.102E+01-0.106E-01
CGA:   5    -0.335844725100E+03   -0.24916E-01   -0.24830E-01  7696   0.652E+00 0.286E-01
CGA:   6    -0.335854093986E+03   -0.93689E-02   -0.93747E-02  7696   0.103E+00 0.262E-03
CGA:   7    -0.335860708833E+03   -0.66148E-02   -0.66941E-02  7696   0.289E+00-0.217E-02
CGA:   8    -0.335869014472E+03   -0.83056E-02   -0.83013E-02  7696   0.113E+00 0.615E-03
CGA:   9    -0.335870770948E+03   -0.17565E-02   -0.17472E-02  7696   0.264E-01 0.985E-04
CGA:  10    -0.335871869963E+03   -0.10990E-02   -0.11045E-02  7696   0.444E-01-0.294E-03
CGA:  11    -0.335872871230E+03   -0.10013E-02   -0.10017E-02  7696   0.263E-01 0.794E-04
CGA:  12    -0.335873757271E+03   -0.88604E-03   -0.88150E-03  7696   0.725E-02 0.421E-03
CGA:  13    -0.335873884989E+03   -0.12772E-03   -0.12760E-03  7696   0.493E-02 0.166E-06
CGA:  14    -0.335874327973E+03   -0.44298E-03   -0.44431E-03  7696   0.840E-02-0.246E-04
CGA:  15    -0.335874429586E+03   -0.10161E-03   -0.10180E-03  7696   0.125E-02-0.111E-05
CGA:  16    -0.335874493128E+03   -0.63542E-04   -0.63246E-04  7696   0.205E-02 0.126E-04
CGA:  17    -0.335874563073E+03   -0.69945E-04   -0.69936E-04  7696   0.224E-02 0.127E-05
CGA:  18    -0.335874614334E+03   -0.51261E-04   -0.51254E-04  7696   0.735E-03-0.734E-06
CGA:  19    -0.335874627611E+03   -0.13277E-04   -0.13256E-04  7696   0.293E-03-0.161E-05
CGA:  20    -0.335874638418E+03   -0.10807E-04   -0.10829E-04  7696   0.582E-03-0.248E-05
CGA:  21    -0.335874667360E+03   -0.28941E-04   -0.29033E-04  7696   0.203E-03-0.424E-05
CGA:  22    -0.335874671386E+03   -0.40263E-05   -0.40270E-05  7696   0.145E-03-0.656E-07
 113 F= -.33587467E+03 E0= -.33584862E+03  d E =-.105474E-02  mag=    32.0000
