       N       E                     dE             d eps       ncg     rms          ort
DAV:   1     0.734842167485E+04    0.73484E+04   -0.35076E+05  9568   0.175E+03
DAV:   2     0.484445422726E+03   -0.68640E+04   -0.64401E+04  9568   0.512E+02
DAV:   3    -0.315841220697E+03   -0.80029E+03   -0.77613E+03  9568   0.195E+02
DAV:   4    -0.349121788340E+03   -0.33281E+02   -0.32848E+02  9568   0.384E+01
DAV:   5    -0.351323644933E+03   -0.22019E+01   -0.21739E+01  9568   0.758E+00
SDA:   6    -0.171791458179E+03    0.17953E+03   -0.21739E+01  9568   0.139E+04 0.000E+00
CGA:   7    -0.268571293779E+03   -0.96780E+02   -0.13414E+03  9568   0.692E+03 0.218E+02
CGA:   8    -0.281635788358E+03   -0.13064E+02   -0.11720E+02  9568   0.116E+04-0.556E+03
CGA:   9    -0.282234783214E+03   -0.59899E+00   -0.75738E+02  9568   0.637E+03-0.146E+03
CGA:  10    -0.286836715863E+03   -0.46019E+01   -0.11467E+02  9568   0.695E+03-0.203E+03
CGA:  11    -0.287086664312E+03   -0.24995E+00   -0.78324E+01  9568   0.108E+04-0.677E+02
CGA:  12    -0.284954635161E+03    0.21320E+01   -0.41694E+02  9568   0.591E+03-0.279E+03
CGA:  13    -0.288450104608E+03   -0.34955E+01   -0.15238E+02  9568   0.359E+03-0.112E+03
CGA:  14    -0.292817051256E+03   -0.43669E+01   -0.56047E+01  9568   0.965E+03-0.312E+03
CGA:  15    -0.289836922520E+03    0.29801E+01   -0.33934E+02  9568   0.106E+04-0.384E+03
CGA:  16    -0.291702203874E+03   -0.18653E+01   -0.26113E+02  9568   0.300E+03-0.127E+03
CGA:  17    -0.300710935207E+03   -0.90087E+01   -0.33220E+01  9568   0.150E+03 0.283E+03
CGA:  18    -0.305102449957E+03   -0.43915E+01   -0.20990E+01  9568   0.155E+02-0.103E+02
CGA:  19    -0.305355614595E+03   -0.25316E+00   -0.39616E+00  9568   0.593E+02-0.503E+01
CGA:  20    -0.301721846161E+03    0.36338E+01   -0.81654E+00  9568   0.240E+03-0.198E+03
CGA:  21    -0.302373473624E+03   -0.65163E+00   -0.53304E+01  9568   0.471E+03-0.295E+03
CGA:  22    -0.297461585291E+03    0.49119E+01   -0.20626E+02  9568   0.210E+03-0.554E+02
CGA:  23    -0.300287956380E+03   -0.28264E+01   -0.29918E+01  9568   0.354E+03 0.151E+03
CGA:  24    -0.303391770584E+03   -0.31038E+01   -0.67177E+01  9568   0.259E+03-0.305E+03
CGA:  25    -0.297555336381E+03    0.58364E+01   -0.95126E+01  9568   0.319E+03-0.156E+03
CGA:  26    -0.303605723817E+03   -0.60504E+01   -0.47086E+01  9568   0.638E+03 0.778E+02
CGA:  27    -0.287058178598E+03    0.16548E+02   -0.15594E+02  9568   0.850E+03-0.205E+03
CGA:  28    -0.278602411042E+03    0.84558E+01   -0.15694E+02  9568   0.713E+03-0.233E+03
CGA:  29    -0.300936199828E+03   -0.22334E+02   -0.11728E+02  9568   0.205E+03 0.226E+03
CGA:  30    -0.305412563834E+03   -0.44764E+01   -0.33315E+01  9568   0.729E+02 0.361E+02
CGA:  31    -0.306079338845E+03   -0.66678E+00   -0.14596E+01  9568   0.866E+02-0.806E+02
CGA:  32    -0.306432030668E+03   -0.35269E+00   -0.20591E+01  9568   0.750E+02-0.331E+02
CGA:  33    -0.305637987533E+03    0.79404E+00   -0.14642E+01  9568   0.154E+03-0.226E+02
CGA:  34    -0.302729833643E+03    0.29082E+01   -0.23966E+01  9568   0.376E+03-0.156E+03
CGA:  35    -0.302184551565E+03    0.54528E+00   -0.97363E+01  9568   0.472E+03-0.172E+03
CGA:  36    -0.306709656125E+03   -0.45251E+01   -0.84522E+01  9568   0.431E+02 0.345E+02
CGA:  37    -0.306771072744E+03   -0.61417E-01   -0.95436E+00  9568   0.834E+02-0.246E+02
CGA:  38    -0.307564940593E+03   -0.79387E+00   -0.10340E+01  9568   0.243E+02-0.211E+02
CGA:  39    -0.307676923902E+03   -0.11198E+00   -0.58158E-01  9568   0.185E+02 0.165E+02
CGA:  40    -0.307890672365E+03   -0.21375E+00   -0.25289E+00  9568   0.399E+01-0.307E+01
CGA:  41    -0.307939622409E+03   -0.48950E-01   -0.41514E-01  9568   0.236E+01 0.495E+00
CGA:  42    -0.308015998793E+03   -0.76376E-01   -0.68980E-01  9568   0.359E+01 0.152E+00
CGA:  43    -0.308090133996E+03   -0.74135E-01   -0.46517E-01  9568   0.279E+01 0.229E+01
CGA:  44    -0.308130588074E+03   -0.40454E-01   -0.36139E-01  9568   0.784E+00 0.270E+00
CGA:  45    -0.308214081940E+03   -0.83494E-01   -0.10577E+00  9568   0.673E+01-0.360E+00
CGA:  46    -0.308228879445E+03   -0.14798E-01   -0.90169E-02  9568   0.695E+01 0.223E+01
CGA:  47    -0.308226146057E+03    0.27334E-02   -0.69738E-01  9568   0.104E+02-0.276E+02
CGA:  48    -0.308382128300E+03   -0.15598E+00   -0.17464E+00  9568   0.216E+01-0.427E+00
CGA:  49    -0.308415119160E+03   -0.32991E-01   -0.24969E-01  9568   0.715E+00 0.556E+00
CGA:  50    -0.308434219959E+03   -0.19101E-01   -0.19080E-01  9568   0.120E+01-0.616E-02
CGA:  51    -0.308470240544E+03   -0.36021E-01   -0.37143E-01  9568   0.271E+01-0.276E-02
CGA:  52    -0.308478953864E+03   -0.87133E-02   -0.45539E-02  9568   0.244E+01 0.244E+01
CGA:  53    -0.308513711842E+03   -0.34758E-01   -0.35789E-01  9568   0.803E+00-0.411E-01
CGA:  54    -0.308528105892E+03   -0.14394E-01   -0.14848E-01  9568   0.659E+00-0.139E-01
CGA:  55    -0.308548898258E+03   -0.20792E-01   -0.20491E-01  9568   0.895E+00-0.177E-01
CGA:  56    -0.308584905154E+03   -0.36007E-01   -0.36688E-01  9568   0.174E+01-0.860E-01
CGA:  57    -0.308593840793E+03   -0.89356E-02   -0.47652E-02  9568   0.168E+01 0.136E+01
CGA:  58    -0.308627500253E+03   -0.33659E-01   -0.32809E-01  9568   0.701E+00 0.174E-01
CGA:  59    -0.308640355898E+03   -0.12856E-01   -0.13344E-01  9568   0.381E+00-0.120E-01
CGA:  60    -0.308650962454E+03   -0.10607E-01   -0.10640E-01  9568   0.700E+00-0.807E-03
CGA:  61    -0.308694852036E+03   -0.43890E-01   -0.37844E-01  9568   0.136E+01 0.218E+00
CGA:  62    -0.308707436819E+03   -0.12585E-01   -0.66145E-02  9568   0.102E+01 0.157E+01
CGA:  63    -0.308725887665E+03   -0.18451E-01   -0.19573E-01  9568   0.273E+00-0.192E-01
CGA:  64    -0.308732049001E+03   -0.61613E-02   -0.61301E-02  9568   0.421E+00-0.186E-02
CGA:  65    -0.308749029305E+03   -0.16980E-01   -0.16220E-01  9568   0.359E+00 0.701E-01
CGA:  66    -0.308770866794E+03   -0.21837E-01   -0.26008E-01  9568   0.121E+01-0.169E+00
CGA:  67    -0.308773400257E+03   -0.25335E-02   -0.15015E-02  9568   0.130E+01 0.428E+00
CGA:  68    -0.308790838337E+03   -0.17438E-01   -0.12048E-01  9568   0.836E+00 0.791E+00
CGA:  69    -0.308802046643E+03   -0.11208E-01   -0.11873E-01  9568   0.183E+00-0.271E-01
CGA:  70    -0.308804644870E+03   -0.25982E-02   -0.25933E-02  9568   0.103E+00-0.113E-02
CGA:  71    -0.308808874947E+03   -0.42301E-02   -0.41392E-02  9568   0.156E+00 0.549E-02
CGA:  72    -0.308817974560E+03   -0.90996E-02   -0.86769E-02  9568   0.198E+00 0.157E-01
CGA:  73    -0.308828943277E+03   -0.10969E-01   -0.11462E-01  9568   0.590E+00-0.224E-01
CGA:  74    -0.308839224008E+03   -0.10281E-01   -0.10373E-01  9568   0.425E+00 0.138E-01
CGA:  75    -0.308847054953E+03   -0.78309E-02   -0.82045E-02  9568   0.219E+00-0.275E-02
CGA:  76    -0.308850285674E+03   -0.32307E-02   -0.31426E-02  9568   0.909E-01 0.185E-02
CGA:  77    -0.308853032624E+03   -0.27470E-02   -0.27474E-02  9568   0.856E-01 0.107E-02
CGA:  78    -0.308855622511E+03   -0.25899E-02   -0.25914E-02  9568   0.137E+00 0.427E-02
CGA:  79    -0.308860506280E+03   -0.48838E-02   -0.48874E-02  9568   0.710E-01-0.147E-02
CGA:  80    -0.308863722423E+03   -0.32161E-02   -0.31223E-02  9568   0.811E-01 0.500E-02
CGA:  81    -0.308865961060E+03   -0.22386E-02   -0.22417E-02  9568   0.767E-01-0.421E-04
CGA:  82    -0.308870642639E+03   -0.46816E-02   -0.44977E-02  9568   0.908E-01 0.608E-02
CGA:  83    -0.308873778913E+03   -0.31363E-02   -0.31363E-02  9568   0.785E-01 0.228E-03
CGA:  84    -0.308876161813E+03   -0.23829E-02   -0.23849E-02  9568   0.632E-01 0.471E-03
CGA:  85    -0.308880814211E+03   -0.46524E-02   -0.45001E-02  9568   0.847E-01 0.373E-02
CGA:  86    -0.308883262919E+03   -0.24487E-02   -0.24451E-02  9568   0.714E-01-0.204E-03
CGA:  87    -0.308887500717E+03   -0.42378E-02   -0.41216E-02  9568   0.842E-01 0.437E-02
CGA:  88    -0.308890492768E+03   -0.29921E-02   -0.29917E-02  9568   0.552E-01-0.122E-03
CGA:  89    -0.308892648481E+03   -0.21557E-02   -0.21573E-02  9568   0.521E-01-0.250E-03
CGA:  90    -0.308894517096E+03   -0.18686E-02   -0.18679E-02  9568   0.528E-01 0.348E-03
CGA:  91    -0.308898435388E+03   -0.39183E-02   -0.41879E-02  9568   0.854E-01-0.699E-02
CGA:  92    -0.308900534847E+03   -0.20995E-02   -0.21366E-02  9568   0.524E-01 0.858E-03
CGA:  93    -0.308902456772E+03   -0.19219E-02   -0.19213E-02  9568   0.263E-01-0.632E-03
CGA:  94    -0.308903999677E+03   -0.15429E-02   -0.15473E-02  9568   0.484E-01-0.169E-03
CGA:  95    -0.308905839374E+03   -0.18397E-02   -0.18413E-02  9568   0.574E-01-0.223E-02
CGA:  96    -0.308907627372E+03   -0.17880E-02   -0.18098E-02  9568   0.244E-01 0.157E-02
CGA:  97    -0.308909114490E+03   -0.14871E-02   -0.14744E-02  9568   0.358E-01 0.526E-03
CGA:  98    -0.308910091286E+03   -0.97680E-03   -0.95835E-03  9568   0.308E-01-0.864E-05
SDA:  99    -0.308911224829E+03   -0.11335E-02   -0.11341E-02  9568   0.212E-01 0.233E-03
CGA: 100    -0.308911861269E+03   -0.63644E-03   -0.63737E-03  9568   0.179E-01 0.357E-04
CGA: 101    -0.308913492118E+03   -0.16308E-02   -0.16443E-02  9568   0.381E-01-0.277E-03
CGA: 102    -0.308914502757E+03   -0.10106E-02   -0.10154E-02  9568   0.379E-01 0.335E-04
CGA: 103    -0.308917616928E+03   -0.31142E-02   -0.32261E-02  9568   0.400E-01-0.257E-02
CGA: 104    -0.308920415216E+03   -0.27983E-02   -0.27790E-02  9568   0.176E-01 0.471E-03
CGA: 105    -0.308921159860E+03   -0.74464E-03   -0.74470E-03  9568   0.174E-01 0.257E-04
CGA: 106    -0.308921859698E+03   -0.69984E-03   -0.70047E-03  9568   0.140E-01 0.924E-04
CGA: 107    -0.308922216589E+03   -0.35689E-03   -0.35369E-03  9568   0.928E-02 0.388E-04
CGA: 108    -0.308922540651E+03   -0.32406E-03   -0.32460E-03  9568   0.335E-02 0.243E-04
CGA: 109    -0.308922817018E+03   -0.27637E-03   -0.27603E-03  9568   0.238E-02 0.590E-05
CGA: 110    -0.308922990707E+03   -0.17369E-03   -0.17432E-03  9568   0.368E-02-0.228E-04
CGA: 111    -0.308923116776E+03   -0.12607E-03   -0.12625E-03  9568   0.406E-02-0.189E-06
CGA: 112    -0.308923274463E+03   -0.15769E-03   -0.15685E-03  9568   0.421E-02-0.498E-04
CGA: 113    -0.308923405594E+03   -0.13113E-03   -0.13406E-03  9568   0.185E-02 0.182E-04
CGA: 114    -0.308923245176E+03    0.16042E-03   -0.35676E-03  9568   0.368E-01-0.712E-02
CGA: 115    -0.308923862504E+03   -0.61733E-03   -0.63823E-03  9568   0.562E-02-0.883E-03
CGA: 116    -0.308923965875E+03   -0.10337E-03   -0.10332E-03  9568   0.219E-02-0.731E-05
CGA: 117    -0.308924043163E+03   -0.77288E-04   -0.77239E-04  9568   0.238E-02-0.649E-06
CGA: 118    -0.308924195397E+03   -0.15223E-03   -0.15262E-03  9568   0.112E-02-0.193E-04
CGA: 119    -0.308924340038E+03   -0.14464E-03   -0.13959E-03  9568   0.192E-02 0.722E-04
CGA: 120    -0.308924465968E+03   -0.12593E-03   -0.12681E-03  9568   0.488E-02-0.640E-04
CGA: 121    -0.308924533413E+03   -0.67445E-04   -0.46836E-04  9568   0.206E-02 0.192E-02
CGA: 122    -0.308924569839E+03   -0.36426E-04   -0.34122E-04  9568   0.168E-02 0.162E-03
CGA: 123    -0.308924619804E+03   -0.49965E-04   -0.49530E-04  9568   0.387E-02 0.912E-05
CGA: 124    -0.308924666896E+03   -0.47093E-04   -0.44685E-04  9568   0.211E-02 0.241E-03
CGA: 125    -0.308924691355E+03   -0.24459E-04   -0.24118E-04  9568   0.152E-02 0.399E-04
CGA: 126    -0.308924714676E+03   -0.23321E-04   -0.22307E-04  9568   0.137E-02 0.582E-04
CGA: 127    -0.308924728525E+03   -0.13849E-04   -0.13110E-04  9568   0.642E-03 0.670E-04
CGA: 128    -0.308924736317E+03   -0.77917E-05   -0.76528E-05  9568   0.590E-03 0.673E-05
   1 F= -.30892474E+03 E0= -.30890396E+03  d E =-.308925E+03  mag=    25.8172
       N       E                     dE             d eps       ncg     rms          ort
SDA:   1    -0.306546681321E+03    0.23780E+01    0.00000E+00  9568   0.273E+03 0.000E+00
CGA:   2    -0.307925835061E+03   -0.13792E+01   -0.48249E+01  9568   0.665E+02-0.753E+02
CGA:   3    -0.308793150877E+03   -0.86732E+00   -0.71026E+00  9568   0.910E+01 0.450E+01
CGA:   4    -0.308916068389E+03   -0.12292E+00   -0.75421E-01  9568   0.335E+01 0.534E+01
CGA:   5    -0.308966422818E+03   -0.50354E-01   -0.46587E-01  9568   0.724E-01 0.178E+00
CGA:   6    -0.308967731148E+03   -0.13083E-02   -0.12826E-02  9568   0.349E-01 0.780E-03
CGA:   7    -0.308968864474E+03   -0.11333E-02   -0.11334E-02  9568   0.228E-01 0.105E-03
CGA:   8    -0.308970097463E+03   -0.12330E-02   -0.12278E-02  9568   0.312E-01 0.221E-03
CGA:   9    -0.308971058649E+03   -0.96119E-03   -0.96042E-03  9568   0.115E-01-0.926E-04
CGA:  10    -0.308971426765E+03   -0.36812E-03   -0.36818E-03  9568   0.879E-02 0.236E-04
CGA:  11    -0.308971626870E+03   -0.20011E-03   -0.19976E-03  9568   0.656E-02-0.400E-05
CGA:  12    -0.308972031041E+03   -0.40417E-03   -0.40347E-03  9568   0.378E-02 0.230E-04
CGA:  13    -0.308972114762E+03   -0.83721E-04   -0.83587E-04  9568   0.142E-02-0.212E-05
CGA:  14    -0.308972189653E+03   -0.74891E-04   -0.75067E-04  9568   0.130E-02-0.914E-05
CGA:  15    -0.308972222752E+03   -0.33099E-04   -0.33141E-04  9568   0.126E-02 0.185E-05
CGA:  16    -0.308972264514E+03   -0.41762E-04   -0.41759E-04  9568   0.446E-03-0.248E-05
CGA:  17    -0.308972285012E+03   -0.20498E-04   -0.20513E-04  9568   0.536E-03-0.156E-05
CGA:  18    -0.308972302449E+03   -0.17437E-04   -0.17436E-04  9568   0.148E-03-0.664E-06
CGA:  19    -0.308972310397E+03   -0.79482E-05   -0.79494E-05  9568   0.163E-03-0.180E-06
   2 F= -.30897231E+03 E0= -.30895157E+03  d E =-.475741E-01  mag=    25.8169
       N       E                     dE             d eps       ncg     rms          ort
SDA:   1    -0.306361795815E+03    0.26105E+01    0.00000E+00  9568   0.173E+02 0.000E+00
CGA:   2    -0.306827589847E+03   -0.46579E+00   -0.48520E+00  9568   0.229E+02 0.506E+00
CGA:   3    -0.308141092595E+03   -0.13135E+01   -0.13112E+01  9568   0.435E+02 0.309E+00
CGA:   4    -0.309103364163E+03   -0.96227E+00   -0.10268E+01  9568   0.978E+01-0.632E+00
CGA:   5    -0.309391833839E+03   -0.28847E+00   -0.27547E+00  9568   0.653E+01-0.451E+00
CGA:   6    -0.309482675684E+03   -0.90842E-01   -0.75929E-01  9568   0.345E+01 0.926E+00
CGA:   7    -0.309614675521E+03   -0.13200E+00   -0.13194E+00  9568   0.104E+02-0.430E-01
CGA:   8    -0.309784038262E+03   -0.16936E+00   -0.18194E+00  9568   0.600E+01-0.322E+00
CGA:   9    -0.309872590620E+03   -0.88552E-01   -0.97142E-01  9568   0.529E+01-0.234E+00
CGA:  10    -0.309943047786E+03   -0.70457E-01   -0.63848E-01  9568   0.163E+01 0.339E+00
CGA:  11    -0.309961049924E+03   -0.18002E-01   -0.16492E-01  9568   0.604E+00 0.123E+00
CGA:  12    -0.309971402091E+03   -0.10352E-01   -0.10715E-01  9568   0.669E+00-0.906E-02
CGA:  13    -0.309986662270E+03   -0.15260E-01   -0.15416E-01  9568   0.116E+01 0.581E-02
CGA:  14    -0.310012946417E+03   -0.26284E-01   -0.26503E-01  9568   0.732E+00 0.729E-02
CGA:  15    -0.310021600692E+03   -0.86543E-02   -0.83900E-02  9568   0.368E+00 0.154E-01
CGA:  16    -0.310030276836E+03   -0.86761E-02   -0.87342E-02  9568   0.328E+00 0.349E-02
CGA:  17    -0.310033739360E+03   -0.34625E-02   -0.35005E-02  9568   0.868E-01-0.249E-02
CGA:  18    -0.310036553928E+03   -0.28146E-02   -0.27934E-02  9568   0.229E+00 0.261E-02
CGA:  19    -0.310042729314E+03   -0.61754E-02   -0.61709E-02  9568   0.142E+00-0.189E-02
CGA:  20    -0.310046529472E+03   -0.38002E-02   -0.37990E-02  9568   0.181E+00-0.154E-02
CGA:  21    -0.310049428075E+03   -0.28986E-02   -0.29254E-02  9568   0.590E-01-0.248E-03
CGA:  22    -0.310050950707E+03   -0.15226E-02   -0.15240E-02  9568   0.844E-01 0.806E-03
CGA:  23    -0.310052634562E+03   -0.16839E-02   -0.16768E-02  9568   0.272E-01-0.115E-03
CGA:  24    -0.310053347409E+03   -0.71285E-03   -0.71283E-03  9568   0.407E-01-0.118E-03
CGA:  25    -0.310054559660E+03   -0.12123E-02   -0.12101E-02  9568   0.445E-01 0.392E-03
CGA:  26    -0.310055764677E+03   -0.12050E-02   -0.12049E-02  9568   0.410E-01 0.132E-03
CGA:  27    -0.310056728523E+03   -0.96385E-03   -0.96304E-03  9568   0.429E-01-0.110E-03
CGA:  28    -0.310057702839E+03   -0.97432E-03   -0.97524E-03  9568   0.158E-01 0.959E-04
CGA:  29    -0.310057982324E+03   -0.27948E-03   -0.28019E-03  9568   0.150E-01 0.200E-04
CGA:  30    -0.310058587646E+03   -0.60532E-03   -0.60550E-03  9568   0.111E-01-0.806E-05
CGA:  31    -0.310058771198E+03   -0.18355E-03   -0.18349E-03  9568   0.982E-02-0.848E-06
SDA:  32    -0.310059380012E+03   -0.60881E-03   -0.60797E-03  9568   0.150E-01 0.200E-04
CGA:  33    -0.310059561916E+03   -0.18190E-03   -0.18191E-03  9568   0.353E-02 0.113E-04
CGA:  34    -0.310059758806E+03   -0.19689E-03   -0.19766E-03  9568   0.384E-02-0.275E-04
CGA:  35    -0.310059969006E+03   -0.21020E-03   -0.20945E-03  9568   0.284E-02 0.264E-04
CGA:  36    -0.310060086964E+03   -0.11796E-03   -0.11807E-03  9568   0.315E-02-0.737E-05
CGA:  37    -0.310060258967E+03   -0.17200E-03   -0.17131E-03  9568   0.156E-02 0.274E-04
CGA:  38    -0.310060353782E+03   -0.94814E-04   -0.94967E-04  9568   0.250E-02-0.601E-05
CGA:  39    -0.310060397378E+03   -0.43596E-04   -0.43700E-04  9568   0.102E-02 0.410E-05
CGA:  40    -0.310060491231E+03   -0.93853E-04   -0.93719E-04  9568   0.781E-03 0.155E-05
CGA:  41    -0.310060536743E+03   -0.45512E-04   -0.45605E-04  9568   0.903E-03-0.458E-05
CGA:  42    -0.310060569132E+03   -0.32388E-04   -0.32388E-04  9568   0.144E-02-0.130E-05
CGA:  43    -0.310060615707E+03   -0.46575E-04   -0.46545E-04  9568   0.853E-03-0.654E-05
CGA:  44    -0.310060644176E+03   -0.28469E-04   -0.28471E-04  9568   0.478E-03 0.439E-06
CGA:  45    -0.310060660219E+03   -0.16044E-04   -0.16044E-04  9568   0.239E-03-0.255E-06
CGA:  46    -0.310060676985E+03   -0.16766E-04   -0.16675E-04  9568   0.217E-03 0.216E-05
CGA:  47    -0.310060681819E+03   -0.48340E-05   -0.48666E-05  9568   0.209E-03 0.165E-05
CGA:  48    -0.310060692193E+03   -0.10374E-04   -0.10346E-04  9568   0.927E-04 0.199E-05
CGA:  49    -0.310060701185E+03   -0.89919E-05   -0.89496E-05  9568   0.802E-04 0.435E-06
   3 F= -.31006070E+03 E0= -.31003949E+03  d E =-.108839E+01  mag=    25.8219
       N       E                     dE             d eps       ncg     rms          ort
SDA:   1    -0.293949536735E+03    0.16111E+02    0.00000E+00  9568   0.537E+03 0.000E+00
CGA:   2    -0.297285377608E+03   -0.33358E+01   -0.11168E+02  9568   0.198E+03-0.602E+02
CGA:   3    -0.300148499579E+03   -0.28631E+01   -0.38426E+01  9568   0.177E+03-0.581E+02
CGA:   4    -0.301064177365E+03   -0.91568E+00   -0.16556E+01  9568   0.234E+03-0.696E+02
CGA:   5    -0.304816389872E+03   -0.37522E+01   -0.24998E+01  9568   0.443E+02 0.195E+02
CGA:   6    -0.306752384636E+03   -0.19360E+01   -0.20965E+01  9568   0.554E+02-0.191E+02
CGA:   7    -0.307019707531E+03   -0.26732E+00   -0.35283E+00  9568   0.119E+03-0.713E+01
CGA:   8    -0.308308542908E+03   -0.12888E+01   -0.11236E+01  9568   0.103E+03-0.308E+01
CGA:   9    -0.309286126636E+03   -0.97758E+00   -0.15504E+01  9568   0.661E+02-0.949E+01
CGA:  10    -0.309619028034E+03   -0.33290E+00   -0.44735E+00  9568   0.381E+02-0.150E+02
CGA:  11    -0.310180116538E+03   -0.56109E+00   -0.35824E+00  9568   0.272E+02 0.125E+02
CGA:  12    -0.310376124797E+03   -0.19601E+00   -0.19378E+00  9568   0.563E+01-0.141E+01
CGA:  13    -0.310428402781E+03   -0.52278E-01   -0.55890E-01  9568   0.592E+01-0.269E+00
CGA:  14    -0.310504374123E+03   -0.75971E-01   -0.84225E-01  9568   0.887E+01-0.243E+00
CGA:  15    -0.310624077558E+03   -0.11970E+00   -0.12803E+00  9568   0.623E+01-0.233E+00
CGA:  16    -0.310809013883E+03   -0.18494E+00   -0.19269E+00  9568   0.872E+01-0.112E+01
CGA:  17    -0.310862410453E+03   -0.53397E-01   -0.50959E-01  9568   0.551E+01 0.235E+00
CGA:  18    -0.310911891183E+03   -0.49481E-01   -0.48461E-01  9568   0.402E+01 0.757E-01
CGA:  19    -0.310943903331E+03   -0.32012E-01   -0.37922E-01  9568   0.183E+01-0.448E+00
CGA:  20    -0.310954752350E+03   -0.10849E-01   -0.11044E-01  9568   0.841E+00-0.250E-01
CGA:  21    -0.310964200442E+03   -0.94481E-02   -0.94533E-02  9568   0.886E+00-0.373E-03
CGA:  22    -0.310972634550E+03   -0.84341E-02   -0.78343E-02  9568   0.709E+00 0.467E-01
CGA:  23    -0.310981434397E+03   -0.87998E-02   -0.86960E-02  9568   0.113E+01 0.388E-02
CGA:  24    -0.310996128837E+03   -0.14694E-01   -0.14542E-01  9568   0.188E+01 0.312E-02
CGA:  25    -0.311013049503E+03   -0.16921E-01   -0.18355E-01  9568   0.148E+01-0.829E-01
CGA:  26    -0.311026694222E+03   -0.13645E-01   -0.14928E-01  9568   0.158E+01-0.585E-01
CGA:  27    -0.311045587581E+03   -0.18893E-01   -0.19744E-01  9568   0.689E+00-0.687E-02
CGA:  28    -0.311051025924E+03   -0.54383E-02   -0.55381E-02  9568   0.250E+00-0.791E-02
CGA:  29    -0.311054789586E+03   -0.37637E-02   -0.37735E-02  9568   0.254E+00 0.619E-03
CGA:  30    -0.311058060219E+03   -0.32706E-02   -0.32853E-02  9568   0.187E+00 0.984E-04
CGA:  31    -0.311062062275E+03   -0.40021E-02   -0.39831E-02  9568   0.320E+00 0.481E-02
SDA:  32    -0.311067230196E+03   -0.51679E-02   -0.51525E-02  9568   0.235E+00-0.128E-02
CGA:  33    -0.311070933247E+03   -0.37031E-02   -0.37238E-02  9568   0.563E-01 0.214E-02
CGA:  34    -0.311073426435E+03   -0.24932E-02   -0.25383E-02  9568   0.562E-01-0.190E-02
CGA:  35    -0.311074766695E+03   -0.13403E-02   -0.13403E-02  9568   0.797E-01-0.156E-04
CGA:  36    -0.311079159273E+03   -0.43926E-02   -0.43912E-02  9568   0.840E-01 0.106E-04
CGA:  37    -0.311082633030E+03   -0.34738E-02   -0.34295E-02  9568   0.178E-01 0.220E-02
CGA:  38    -0.311083275081E+03   -0.64205E-03   -0.64291E-03  9568   0.397E-01-0.599E-04
CGA:  39    -0.311084497385E+03   -0.12223E-02   -0.12177E-02  9568   0.240E-01 0.474E-03
CGA:  40    -0.311086200294E+03   -0.17029E-02   -0.16830E-02  9568   0.416E-01 0.458E-03
CGA:  41    -0.311087004437E+03   -0.80414E-03   -0.80340E-03  9568   0.268E-01 0.165E-04
CGA:  42    -0.311087831533E+03   -0.82710E-03   -0.82114E-03  9568   0.231E-01 0.830E-03
CGA:  43    -0.311088565206E+03   -0.73367E-03   -0.73229E-03  9568   0.868E-02 0.213E-03
CGA:  44    -0.311088859090E+03   -0.29388E-03   -0.29403E-03  9568   0.149E-01-0.101E-04
CGA:  45    -0.311089277761E+03   -0.41867E-03   -0.41850E-03  9568   0.115E-01 0.731E-04
CGA:  46    -0.311089765992E+03   -0.48823E-03   -0.48608E-03  9568   0.680E-02 0.122E-03
CGA:  47    -0.311089958108E+03   -0.19212E-03   -0.19211E-03  9568   0.791E-02 0.469E-05
CGA:  48    -0.311090157617E+03   -0.19951E-03   -0.19962E-03  9568   0.451E-02 0.190E-04
CGA:  49    -0.311090296485E+03   -0.13887E-03   -0.13888E-03  9568   0.328E-02-0.361E-05
CGA:  50    -0.311090475438E+03   -0.17895E-03   -0.17893E-03  9568   0.402E-02 0.543E-06
CGA:  51    -0.311090528948E+03   -0.53509E-04   -0.53481E-04  9568   0.900E-03 0.968E-06
CGA:  52    -0.311090609121E+03   -0.80173E-04   -0.79635E-04  9568   0.253E-02 0.886E-05
CGA:  53    -0.311090690433E+03   -0.81312E-04   -0.81307E-04  9568   0.170E-02 0.506E-05
CGA:  54    -0.311090723896E+03   -0.33464E-04   -0.33490E-04  9568   0.111E-02 0.456E-05
CGA:  55    -0.311090767221E+03   -0.43324E-04   -0.43324E-04  9568   0.734E-03 0.682E-06
CGA:  56    -0.311090799215E+03   -0.31994E-04   -0.31996E-04  9568   0.760E-03-0.628E-06
CGA:  57    -0.311090815487E+03   -0.16273E-04   -0.16285E-04  9568   0.602E-03 0.191E-06
CGA:  58    -0.311090836210E+03   -0.20722E-04   -0.20744E-04  9568   0.394E-03-0.574E-05
CGA:  59    -0.311090853648E+03   -0.17439E-04   -0.17516E-04  9568   0.538E-03-0.593E-05
CGA:  60    -0.311090871682E+03   -0.18033E-04   -0.18040E-04  9568   0.570E-03-0.382E-05
CGA:  61    -0.311090882220E+03   -0.10538E-04   -0.10491E-04  9568   0.206E-03-0.400E-05
CGA:  62    -0.311090893099E+03   -0.10879E-04   -0.10944E-04  9568   0.170E-03-0.319E-05
SDA:  63    -0.311090898262E+03   -0.51627E-05   -0.51641E-05  9568   0.266E-03 0.487E-06
   4 F= -.31109090E+03 E0= -.31106895E+03  d E =-.103020E+01  mag=    25.8355
       N       E                     dE             d eps       ncg     rms          ort
SDA:   1    -0.281414277801E+03    0.29677E+02    0.00000E+00  9568   0.135E+04 0.000E+00
CGA:   2    -0.293166404876E+03   -0.11752E+02   -0.23312E+02  9568   0.204E+03-0.140E+03
CGA:   3    -0.297226810716E+03   -0.40604E+01   -0.37300E+01  9568   0.148E+03-0.264E+02
CGA:   4    -0.298102297739E+03   -0.87549E+00   -0.12583E+01  9568   0.197E+03-0.435E+02
CGA:   5    -0.301713046577E+03   -0.36107E+01   -0.33918E+01  9568   0.138E+03-0.174E+02
CGA:   6    -0.305625063021E+03   -0.39120E+01   -0.38517E+01  9568   0.183E+03 0.217E+02
CGA:   7    -0.307872127017E+03   -0.22471E+01   -0.33499E+01  9568   0.497E+02-0.285E+02
CGA:   8    -0.309094314316E+03   -0.12222E+01   -0.15445E+01  9568   0.794E+02-0.273E+02
CGA:   9    -0.309867118282E+03   -0.77280E+00   -0.10429E+01  9568   0.138E+02-0.133E+02
CGA:  10    -0.310079862313E+03   -0.21274E+00   -0.21976E+00  9568   0.101E+02-0.241E-01
CGA:  11    -0.310448829099E+03   -0.36897E+00   -0.39060E+00  9568   0.197E+02-0.150E+01
CGA:  12    -0.311105477747E+03   -0.65665E+00   -0.65772E+00  9568   0.431E+01-0.190E-01
CGA:  13    -0.311210504936E+03   -0.10503E+00   -0.10585E+00  9568   0.153E+01 0.633E-01
CGA:  14    -0.311366991565E+03   -0.15649E+00   -0.15535E+00  9568   0.359E+01 0.257E-01
CGA:  15    -0.311467634655E+03   -0.10064E+00   -0.97531E-01  9568   0.234E+01-0.180E+00
CGA:  16    -0.311540678564E+03   -0.73044E-01   -0.72919E-01  9568   0.173E+01 0.669E-01
CGA:  17    -0.311562278367E+03   -0.21600E-01   -0.21342E-01  9568   0.416E+00 0.120E-01
CGA:  18    -0.311579298170E+03   -0.17020E-01   -0.16980E-01  9568   0.415E+00 0.305E-02
CGA:  19    -0.311597352233E+03   -0.18054E-01   -0.17929E-01  9568   0.771E+00 0.836E-02
CGA:  20    -0.311611403669E+03   -0.14051E-01   -0.14418E-01  9568   0.269E+00-0.626E-02
CGA:  21    -0.311620236583E+03   -0.88329E-02   -0.88390E-02  9568   0.234E+00-0.185E-02
CGA:  22    -0.311625629480E+03   -0.53929E-02   -0.54082E-02  9568   0.137E+00 0.294E-03
CGA:  23    -0.311630304134E+03   -0.46747E-02   -0.46675E-02  9568   0.255E+00 0.134E-02
CGA:  24    -0.311640321635E+03   -0.10018E-01   -0.98928E-02  9568   0.734E-01 0.117E-01
CGA:  25    -0.311642236005E+03   -0.19144E-02   -0.19170E-02  9568   0.869E-01 0.109E-03
CGA:  26    -0.311645274161E+03   -0.30382E-02   -0.30349E-02  9568   0.886E-01 0.547E-03
CGA:  27    -0.311649546442E+03   -0.42723E-02   -0.42530E-02  9568   0.651E-01 0.982E-03
CGA:  28    -0.311650732979E+03   -0.11865E-02   -0.11976E-02  9568   0.333E-01-0.176E-03
CGA:  29    -0.311651869820E+03   -0.11368E-02   -0.11376E-02  9568   0.276E-01-0.146E-03
CGA:  30    -0.311652638643E+03   -0.76882E-03   -0.76926E-03  9568   0.201E-01 0.650E-04
CGA:  31    -0.311653537962E+03   -0.89932E-03   -0.89770E-03  9568   0.284E-01 0.104E-03
CGA:  32    -0.311654078442E+03   -0.54048E-03   -0.54495E-03  9568   0.849E-02-0.202E-04
CGA:  33    -0.311654537153E+03   -0.45871E-03   -0.45917E-03  9568   0.133E-01-0.163E-04
CGA:  34    -0.311654879222E+03   -0.34207E-03   -0.34264E-03  9568   0.113E-01 0.347E-04
CGA:  35    -0.311655217868E+03   -0.33865E-03   -0.33884E-03  9568   0.454E-02 0.369E-04
CGA:  36    -0.311655404868E+03   -0.18700E-03   -0.18697E-03  9568   0.784E-02 0.303E-05
CGA:  37    -0.311655644294E+03   -0.23943E-03   -0.23945E-03  9568   0.539E-02 0.112E-05
CGA:  38    -0.311655806398E+03   -0.16210E-03   -0.16218E-03  9568   0.414E-02 0.135E-04
SDA:  39    -0.311655949553E+03   -0.14316E-03   -0.14314E-03  9568   0.276E-02-0.660E-06
CGA:  40    -0.311655988276E+03   -0.38723E-04   -0.38751E-04  9568   0.139E-02 0.482E-05
CGA:  41    -0.311656065308E+03   -0.77032E-04   -0.77048E-04  9568   0.150E-02-0.655E-06
CGA:  42    -0.311656156846E+03   -0.91538E-04   -0.91323E-04  9568   0.118E-02 0.710E-05
CGA:  43    -0.311656253978E+03   -0.97132E-04   -0.97283E-04  9568   0.145E-02-0.389E-05
CGA:  44    -0.311656310224E+03   -0.56246E-04   -0.56254E-04  9568   0.252E-02-0.375E-05
CGA:  45    -0.311656365250E+03   -0.55026E-04   -0.54938E-04  9568   0.699E-03-0.897E-05
CGA:  46    -0.311656394363E+03   -0.29113E-04   -0.29145E-04  9568   0.107E-02-0.564E-05
CGA:  47    -0.311656451458E+03   -0.57095E-04   -0.57443E-04  9568   0.434E-03-0.197E-04
CGA:  48    -0.311656482493E+03   -0.31035E-04   -0.31158E-04  9568   0.387E-03-0.384E-05
CGA:  49    -0.311656491226E+03   -0.87334E-05   -0.87404E-05  9568   0.469E-03-0.857E-06
CGA:  50    -0.311656521646E+03   -0.30420E-04   -0.30274E-04  9568   0.466E-03 0.532E-05
CGA:  51    -0.311656535560E+03   -0.13914E-04   -0.13936E-04  9568   0.144E-03 0.239E-05
CGA:  52    -0.311656540528E+03   -0.49683E-05   -0.49689E-05  9568   0.196E-03-0.948E-07
   5 F= -.31165654E+03 E0= -.31163408E+03  d E =-.565642E+00  mag=    25.8496
       N       E                     dE             d eps       ncg     rms          ort
SDA:   1    -0.268849468574E+03    0.42807E+02    0.00000E+00  9568   0.153E+04 0.000E+00
CGA:   2    -0.282795072098E+03   -0.13946E+02   -0.32661E+02  9568   0.187E+03-0.510E+02
CGA:   3    -0.289991411051E+03   -0.71963E+01   -0.52421E+01  9568   0.144E+03-0.898E+02
CGA:   4    -0.292187179546E+03   -0.21958E+01   -0.86117E+01  9568   0.657E+03-0.101E+03
CGA:   5    -0.297924906441E+03   -0.57377E+01   -0.12345E+02  9568   0.503E+03-0.443E+03
CGA:   6    -0.300434588136E+03   -0.25097E+01   -0.10344E+02  9568   0.343E+03-0.194E+03
CGA:   7    -0.305870043929E+03   -0.54355E+01   -0.45523E+01  9568   0.914E+02-0.896E+02
CGA:   8    -0.307026031964E+03   -0.11560E+01   -0.66647E+00  9568   0.524E+02 0.360E+02
CGA:   9    -0.307744767644E+03   -0.71874E+00   -0.91854E+00  9568   0.571E+02-0.196E+02
CGA:  10    -0.307892297620E+03   -0.14753E+00   -0.29817E+00  9568   0.493E+02-0.162E+02
CGA:  11    -0.308108668308E+03   -0.21637E+00   -0.31310E+00  9568   0.589E+02-0.951E+01
CGA:  12    -0.308994504103E+03   -0.88584E+00   -0.10301E+01  9568   0.981E+02-0.271E+00
CGA:  13    -0.309795493695E+03   -0.80099E+00   -0.14511E+01  9568   0.634E+02-0.299E+02
CGA:  14    -0.310243880943E+03   -0.44839E+00   -0.43840E+00  9568   0.457E+02-0.875E+00
CGA:  15    -0.310971248689E+03   -0.72737E+00   -0.62721E+00  9568   0.233E+02 0.369E+01
CGA:  16    -0.311121497739E+03   -0.15025E+00   -0.15422E+00  9568   0.598E+01-0.160E+01
CGA:  17    -0.311191124922E+03   -0.69627E-01   -0.74621E-01  9568   0.941E+01-0.222E+00
CGA:  18    -0.311361663106E+03   -0.17054E+00   -0.17764E+00  9568   0.103E+02 0.493E-01
CGA:  19    -0.311481797309E+03   -0.12013E+00   -0.11597E+00  9568   0.680E+01 0.190E+00
CGA:  20    -0.311608633538E+03   -0.12684E+00   -0.11867E+00  9568   0.100E+02 0.635E-01
CGA:  21    -0.311698179449E+03   -0.89546E-01   -0.80044E-01  9568   0.403E+01 0.847E+00
CGA:  22    -0.311726376917E+03   -0.28197E-01   -0.28670E-01  9568   0.205E+01-0.680E-01
CGA:  23    -0.311753515749E+03   -0.27139E-01   -0.27108E-01  9568   0.312E+01 0.253E-02
CGA:  24    -0.311782492269E+03   -0.28977E-01   -0.28716E-01  9568   0.192E+01 0.194E-01
CGA:  25    -0.311797669104E+03   -0.15177E-01   -0.14985E-01  9568   0.137E+01 0.150E-01
CGA:  26    -0.311816355783E+03   -0.18687E-01   -0.18211E-01  9568   0.253E+01 0.922E-02
CGA:  27    -0.311843292306E+03   -0.26937E-01   -0.26626E-01  9568   0.223E+01 0.143E-01
CGA:  28    -0.311858506731E+03   -0.15214E-01   -0.15706E-01  9568   0.142E+01-0.571E-01
CGA:  29    -0.311873003554E+03   -0.14497E-01   -0.14604E-01  9568   0.165E+01-0.622E-02
CGA:  30    -0.311886335057E+03   -0.13332E-01   -0.12896E-01  9568   0.107E+01 0.353E-01
CGA:  31    -0.311894482350E+03   -0.81473E-02   -0.83214E-02  9568   0.808E+00-0.167E-01
CGA:  32    -0.311902800102E+03   -0.83178E-02   -0.85070E-02  9568   0.102E+01-0.633E-02
CGA:  33    -0.311913407492E+03   -0.10607E-01   -0.11052E-01  9568   0.868E+00-0.113E-01
CGA:  34    -0.311922388473E+03   -0.89810E-02   -0.90393E-02  9568   0.932E+00-0.141E-02
CGA:  35    -0.311934799444E+03   -0.12411E-01   -0.12256E-01  9568   0.952E+00-0.529E-02
SDA:  36    -0.311942144674E+03   -0.73452E-02   -0.73171E-02  9568   0.512E+00 0.126E-02
CGA:  37    -0.311950485246E+03   -0.83406E-02   -0.83495E-02  9568   0.143E+00 0.595E-02
CGA:  38    -0.311954010219E+03   -0.35250E-02   -0.35072E-02  9568   0.145E+00 0.193E-02
CGA:  39    -0.311960384633E+03   -0.63744E-02   -0.63231E-02  9568   0.175E+00 0.208E-02
CGA:  40    -0.311967295102E+03   -0.69105E-02   -0.69166E-02  9568   0.145E+00-0.431E-03
CGA:  41    -0.311974390719E+03   -0.70956E-02   -0.72349E-02  9568   0.776E-01-0.606E-02
CGA:  42    -0.311977240032E+03   -0.28493E-02   -0.28897E-02  9568   0.160E+00-0.227E-02
CGA:  43    -0.311981779070E+03   -0.45390E-02   -0.43917E-02  9568   0.464E-01 0.164E-01
CGA:  44    -0.311984673720E+03   -0.28947E-02   -0.27350E-02  9568   0.103E+00 0.538E-02
CGA:  45    -0.311987053407E+03   -0.23797E-02   -0.23261E-02  9568   0.806E-01-0.458E-02
CGA:  46    -0.311990648111E+03   -0.35947E-02   -0.39386E-02  9568   0.175E+00-0.151E-01
CGA:  47    -0.311992274554E+03   -0.16264E-02   -0.17249E-02  9568   0.699E-01-0.318E-02
CGA:  48    -0.311993132852E+03   -0.85830E-03   -0.89925E-03  9568   0.531E-01-0.128E-02
CGA:  49    -0.311994902862E+03   -0.17700E-02   -0.17413E-02  9568   0.726E-01 0.222E-02
CGA:  50    -0.311996171339E+03   -0.12685E-02   -0.12383E-02  9568   0.484E-01-0.134E-05
CGA:  51    -0.311997042602E+03   -0.87126E-03   -0.87593E-03  9568   0.318E-01 0.120E-03
CGA:  52    -0.311997614292E+03   -0.57169E-03   -0.57734E-03  9568   0.256E-01 0.176E-03
CGA:  53    -0.311998130444E+03   -0.51615E-03   -0.51527E-03  9568   0.172E-01-0.916E-04
CGA:  54    -0.311998522732E+03   -0.39229E-03   -0.39208E-03  9568   0.234E-01-0.317E-03
CGA:  55    -0.311999020808E+03   -0.49808E-03   -0.49805E-03  9568   0.191E-01-0.119E-04
CGA:  56    -0.311999357128E+03   -0.33632E-03   -0.33948E-03  9568   0.181E-01 0.117E-03
CGA:  57    -0.311999782275E+03   -0.42515E-03   -0.42508E-03  9568   0.112E-01 0.745E-04
CGA:  58    -0.311999978448E+03   -0.19617E-03   -0.19443E-03  9568   0.116E-01-0.502E-04
CGA:  59    -0.312000355004E+03   -0.37656E-03   -0.37742E-03  9568   0.168E-01-0.795E-04
CGA:  60    -0.312000606347E+03   -0.25134E-03   -0.25745E-03  9568   0.106E-01-0.120E-04
CGA:  61    -0.312001000828E+03   -0.39448E-03   -0.39000E-03  9568   0.124E-01 0.263E-03
CGA:  62    -0.312001160846E+03   -0.16002E-03   -0.15241E-03  9568   0.472E-02 0.305E-03
CGA:  63    -0.312001305252E+03   -0.14441E-03   -0.14549E-03  9568   0.961E-02-0.117E-03
CGA:  64    -0.312001498870E+03   -0.19362E-03   -0.19470E-03  9568   0.900E-02 0.155E-03
CGA:  65    -0.312001687899E+03   -0.18903E-03   -0.18967E-03  9568   0.768E-02 0.946E-04
CGA:  66    -0.312001835473E+03   -0.14757E-03   -0.14526E-03  9568   0.738E-02-0.151E-03
SDA:  67    -0.312001986438E+03   -0.15097E-03   -0.15054E-03  9568   0.593E-02-0.945E-04
CGA:  68    -0.312002059147E+03   -0.72708E-04   -0.72614E-04  9568   0.185E-02-0.162E-05
CGA:  69    -0.312002192931E+03   -0.13378E-03   -0.13385E-03  9568   0.376E-02-0.545E-05
CGA:  70    -0.312002330803E+03   -0.13787E-03   -0.13737E-03  9568   0.270E-02 0.358E-04
CGA:  71    -0.312002477530E+03   -0.14673E-03   -0.14664E-03  9568   0.216E-02 0.122E-05
CGA:  72    -0.312002564684E+03   -0.87154E-04   -0.86985E-04  9568   0.396E-02 0.787E-05
CGA:  73    -0.312002665285E+03   -0.10060E-03   -0.10031E-03  9568   0.229E-02-0.615E-04
CGA:  74    -0.312002756498E+03   -0.91212E-04   -0.90952E-04  9568   0.101E-02 0.128E-04
CGA:  75    -0.312002863294E+03   -0.10680E-03   -0.11075E-03  9568   0.168E-02-0.587E-04
CGA:  76    -0.312002895962E+03   -0.32668E-04   -0.32907E-04  9568   0.147E-02-0.756E-05
CGA:  77    -0.312002954651E+03   -0.58690E-04   -0.59273E-04  9568   0.827E-03-0.484E-04
CGA:  78    -0.312002980661E+03   -0.26010E-04   -0.26003E-04  9568   0.103E-02 0.430E-05
CGA:  79    -0.312003043559E+03   -0.62898E-04   -0.67102E-04  9568   0.311E-02-0.134E-03
CGA:  80    -0.312003091866E+03   -0.48307E-04   -0.50817E-04  9568   0.629E-03-0.379E-04
CGA:  81    -0.312003107444E+03   -0.15578E-04   -0.15673E-04  9568   0.128E-02-0.136E-05
CGA:  82    -0.312003176455E+03   -0.69011E-04   -0.75554E-04  9568   0.203E-02-0.256E-03
CGA:  83    -0.312003210705E+03   -0.34249E-04   -0.32485E-04  9568   0.130E-02 0.297E-04
CGA:  84    -0.312003229575E+03   -0.18870E-04   -0.19733E-04  9568   0.767E-03-0.397E-04
CGA:  85    -0.312003254699E+03   -0.25124E-04   -0.25128E-04  9568   0.788E-03-0.502E-05
CGA:  86    -0.312003274963E+03   -0.20264E-04   -0.19903E-04  9568   0.126E-02-0.153E-04
CGA:  87    -0.312003303901E+03   -0.28938E-04   -0.28869E-04  9568   0.120E-02-0.511E-05
CGA:  88    -0.312003336748E+03   -0.32848E-04   -0.33182E-04  9568   0.207E-02 0.277E-04
CGA:  89    -0.312003376837E+03   -0.40089E-04   -0.36854E-04  9568   0.105E-02 0.785E-04
CGA:  90    -0.312003404929E+03   -0.28092E-04   -0.28004E-04  9568   0.151E-02-0.650E-05
CGA:  91    -0.312003449548E+03   -0.44620E-04   -0.44738E-04  9568   0.266E-02 0.101E-03
CGA:  92    -0.312003519959E+03   -0.70411E-04   -0.64856E-04  9568   0.138E-02-0.984E-04
CGA:  93    -0.312003555376E+03   -0.35416E-04   -0.35354E-04  9568   0.163E-02-0.586E-05
CGA:  94    -0.312003610440E+03   -0.55065E-04   -0.55311E-04  9568   0.184E-02-0.409E-04
CGA:  95    -0.312003657904E+03   -0.47463E-04   -0.46839E-04  9568   0.278E-02-0.539E-04
CGA:  96    -0.312003730228E+03   -0.72324E-04   -0.72487E-04  9568   0.372E-02 0.339E-04
CGA:  97    -0.312003813961E+03   -0.83734E-04   -0.81528E-04  9568   0.297E-02 0.285E-04
SDA:  98    -0.312003873103E+03   -0.59141E-04   -0.57215E-04  9568   0.268E-02 0.295E-04
CGA:  99    -0.312004040656E+03   -0.16755E-03   -0.16756E-03  9568   0.867E-02 0.221E-07
CGA: 100    -0.312004367647E+03   -0.32699E-03   -0.32866E-03  9568   0.149E-01-0.158E-03
CGA: 101    -0.312004669935E+03   -0.30229E-03   -0.30857E-03  9568   0.521E-02 0.256E-04
CGA: 102    -0.312004926520E+03   -0.25658E-03   -0.25745E-03  9568   0.698E-02-0.427E-04
CGA: 103    -0.312005238559E+03   -0.31204E-03   -0.31476E-03  9568   0.967E-02-0.159E-03
CGA: 104    -0.312005365295E+03   -0.12674E-03   -0.13381E-03  9568   0.264E-02-0.295E-03
CGA: 105    -0.312005497051E+03   -0.13176E-03   -0.13210E-03  9568   0.250E-02-0.153E-04
CGA: 106    -0.312005588282E+03   -0.91231E-04   -0.91036E-04  9568   0.263E-02 0.282E-04
CGA: 107    -0.312005665454E+03   -0.77172E-04   -0.77008E-04  9568   0.312E-02-0.157E-04
CGA: 108    -0.312005726838E+03   -0.61384E-04   -0.61899E-04  9568   0.105E-02-0.314E-05
CGA: 109    -0.312005852006E+03   -0.12517E-03   -0.12564E-03  9568   0.249E-02-0.868E-05
CGA: 110    -0.312005940763E+03   -0.88757E-04   -0.88757E-04  9568   0.219E-02 0.187E-04
CGA: 111    -0.312006035655E+03   -0.94892E-04   -0.95578E-04  9568   0.399E-02-0.627E-04
CGA: 112    -0.312006105111E+03   -0.69456E-04   -0.72005E-04  9568   0.187E-02-0.622E-04
CGA: 113    -0.312006289583E+03   -0.18447E-03   -0.18896E-03  9568   0.465E-02-0.878E-04
CGA: 114    -0.312006420792E+03   -0.13121E-03   -0.13028E-03  9568   0.199E-02-0.763E-05
CGA: 115    -0.312006511855E+03   -0.91063E-04   -0.89727E-04  9568   0.514E-02 0.127E-03
CGA: 116    -0.312006655937E+03   -0.14408E-03   -0.13532E-03  9568   0.343E-02 0.559E-04
CGA: 117    -0.312006812082E+03   -0.15615E-03   -0.15555E-03  9568   0.187E-02 0.549E-04
CGA: 118    -0.312006909241E+03   -0.97159E-04   -0.97644E-04  9568   0.150E-02-0.279E-04
CGA: 119    -0.312006949025E+03   -0.39784E-04   -0.40705E-04  9568   0.247E-02 0.822E-05
CGA: 120    -0.312007088458E+03   -0.13943E-03   -0.15688E-03  9568   0.373E-02-0.647E-03
CGA: 121    -0.312007139363E+03   -0.50905E-04   -0.57001E-04  9568   0.852E-03-0.120E-03
CGA: 122    -0.312007164663E+03   -0.25299E-04   -0.25327E-04  9568   0.491E-03 0.177E-05
CGA: 123    -0.312007197626E+03   -0.32964E-04   -0.32942E-04  9568   0.863E-03 0.286E-06
CGA: 124    -0.312007231803E+03   -0.34177E-04   -0.34179E-04  9568   0.910E-03 0.923E-05
CGA: 125    -0.312007266809E+03   -0.35006E-04   -0.34924E-04  9568   0.105E-02-0.195E-04
CGA: 126    -0.312007283056E+03   -0.16246E-04   -0.16933E-04  9568   0.257E-03-0.245E-04
CGA: 127    -0.312007305738E+03   -0.22683E-04   -0.22528E-04  9568   0.299E-03 0.276E-05
CGA: 128    -0.312007312903E+03   -0.71650E-05   -0.71207E-05  9568   0.297E-03 0.639E-06
   6 F= -.31200731E+03 E0= -.31198494E+03  d E =-.350772E+00  mag=    25.8706
       N       E                     dE             d eps       ncg     rms          ort
SDA:   1    -0.294288335870E+03    0.17719E+02    0.00000E+00  9568   0.113E+03 0.000E+00
CGA:   2    -0.297474741111E+03   -0.31864E+01   -0.25932E+01  9568   0.969E+02-0.896E+01
CGA:   3    -0.299731719187E+03   -0.22570E+01   -0.21188E+01  9568   0.131E+03-0.211E+01
CGA:   4    -0.303361778360E+03   -0.36301E+01   -0.37159E+01  9568   0.216E+03-0.611E-01
CGA:   5    -0.307070686520E+03   -0.37089E+01   -0.38889E+01  9568   0.451E+02-0.269E+02
CGA:   6    -0.308516300220E+03   -0.14456E+01   -0.14467E+01  9568   0.463E+02-0.897E+01
CGA:   7    -0.309277487743E+03   -0.76119E+00   -0.70737E+00  9568   0.385E+02 0.524E+00
CGA:   8    -0.310413822453E+03   -0.11363E+01   -0.11141E+01  9568   0.294E+02-0.983E+00
CGA:   9    -0.310881829741E+03   -0.46801E+00   -0.47505E+00  9568   0.239E+02-0.674E+00
CGA:  10    -0.311387161320E+03   -0.50533E+00   -0.53994E+00  9568   0.119E+02 0.700E-01
CGA:  11    -0.311522821582E+03   -0.13566E+00   -0.13944E+00  9568   0.621E+01-0.296E+00
CGA:  12    -0.311635361475E+03   -0.11254E+00   -0.11224E+00  9568   0.361E+01-0.112E-01
CGA:  13    -0.311748804383E+03   -0.11344E+00   -0.11343E+00  9568   0.807E+01-0.155E-01
CGA:  14    -0.311910019207E+03   -0.16121E+00   -0.15908E+00  9568   0.216E+01-0.153E-01
CGA:  15    -0.311950919790E+03   -0.40901E-01   -0.41371E-01  9568   0.216E+01-0.703E-02
CGA:  16    -0.311984244459E+03   -0.33325E-01   -0.33238E-01  9568   0.131E+01-0.287E-03
CGA:  17    -0.312012118128E+03   -0.27874E-01   -0.28273E-01  9568   0.101E+01 0.501E-02
CGA:  18    -0.312027643345E+03   -0.15525E-01   -0.15603E-01  9568   0.824E+00-0.316E-02
CGA:  19    -0.312065293704E+03   -0.37650E-01   -0.37162E-01  9568   0.909E+00 0.256E-01
CGA:  20    -0.312082505541E+03   -0.17212E-01   -0.17301E-01  9568   0.665E+00-0.275E-03
CGA:  21    -0.312092468463E+03   -0.99629E-02   -0.98224E-02  9568   0.264E+00 0.526E-02
CGA:  22    -0.312101128595E+03   -0.86601E-02   -0.86348E-02  9568   0.358E+00 0.387E-02
CGA:  23    -0.312106582062E+03   -0.54535E-02   -0.55526E-02  9568   0.239E+00-0.256E-02
CGA:  24    -0.312118352110E+03   -0.11770E-01   -0.12158E-01  9568   0.264E+00-0.169E-01
CGA:  25    -0.312122178565E+03   -0.38265E-02   -0.38741E-02  9568   0.176E+00-0.109E-02
CGA:  26    -0.312126086090E+03   -0.39075E-02   -0.39966E-02  9568   0.103E+00 0.430E-02
CGA:  27    -0.312128917934E+03   -0.28318E-02   -0.28314E-02  9568   0.816E-01-0.126E-03
CGA:  28    -0.312130544568E+03   -0.16266E-02   -0.16256E-02  9568   0.805E-01 0.911E-05
CGA:  29    -0.312133484317E+03   -0.29397E-02   -0.29376E-02  9568   0.668E-01 0.157E-03
CGA:  30    -0.312135277403E+03   -0.17931E-02   -0.17952E-02  9568   0.687E-01 0.700E-03
CGA:  31    -0.312136386231E+03   -0.11088E-02   -0.11136E-02  9568   0.238E-01-0.789E-04
SDA:  32    -0.312137415442E+03   -0.10292E-02   -0.10225E-02  9568   0.181E-01 0.368E-03
CGA:  33    -0.312137714968E+03   -0.29953E-03   -0.29918E-03  9568   0.119E-01-0.547E-05
CGA:  34    -0.312138077783E+03   -0.36281E-03   -0.36287E-03  9568   0.919E-02-0.124E-04
CGA:  35    -0.312138820823E+03   -0.74304E-03   -0.73998E-03  9568   0.169E-01 0.587E-04
CGA:  36    -0.312139585861E+03   -0.76504E-03   -0.76170E-03  9568   0.597E-02 0.191E-03
CGA:  37    -0.312139732741E+03   -0.14688E-03   -0.14698E-03  9568   0.439E-02 0.117E-05
CGA:  38    -0.312139893731E+03   -0.16099E-03   -0.16096E-03  9568   0.756E-02-0.108E-05
CGA:  39    -0.312140077216E+03   -0.18348E-03   -0.18333E-03  9568   0.209E-02-0.198E-04
CGA:  40    -0.312140253246E+03   -0.17603E-03   -0.17463E-03  9568   0.206E-02 0.286E-04
CGA:  41    -0.312140455595E+03   -0.20235E-03   -0.20138E-03  9568   0.854E-02 0.166E-04
CGA:  42    -0.312140605546E+03   -0.14995E-03   -0.15060E-03  9568   0.235E-02 0.467E-06
CGA:  43    -0.312140676679E+03   -0.71133E-04   -0.71160E-04  9568   0.153E-02 0.612E-05
CGA:  44    -0.312140735624E+03   -0.58945E-04   -0.58929E-04  9568   0.120E-02 0.429E-05
CGA:  45    -0.312140854395E+03   -0.11877E-03   -0.11840E-03  9568   0.389E-02 0.627E-05
CGA:  46    -0.312140906976E+03   -0.52581E-04   -0.52775E-04  9568   0.479E-03-0.403E-05
CGA:  47    -0.312140955794E+03   -0.48818E-04   -0.49376E-04  9568   0.878E-03-0.848E-05
CGA:  48    -0.312140978612E+03   -0.22818E-04   -0.22800E-04  9568   0.711E-03-0.262E-05
CGA:  49    -0.312140997651E+03   -0.19039E-04   -0.19008E-04  9568   0.553E-03-0.386E-05
CGA:  50    -0.312141009517E+03   -0.11866E-04   -0.11851E-04  9568   0.166E-03-0.130E-05
CGA:  51    -0.312141031210E+03   -0.21694E-04   -0.21440E-04  9568   0.322E-03 0.261E-05
CGA:  52    -0.312141036331E+03   -0.51203E-05   -0.51593E-05  9568   0.120E-03 0.114E-05
   7 F= -.31214104E+03 E0= -.31211828E+03  d E =-.133723E+00  mag=    25.8823
       N       E                     dE             d eps       ncg     rms          ort
SDA:   1    -0.284818211220E+03    0.27323E+02    0.00000E+00  9568   0.949E+02 0.000E+00
CGA:   2    -0.288801493717E+03   -0.39833E+01   -0.39575E+01  9568   0.216E+03 0.143E+02
CGA:   3    -0.294541567418E+03   -0.57401E+01   -0.67532E+01  9568   0.485E+03-0.206E+02
CGA:   4    -0.297761782895E+03   -0.32202E+01   -0.74221E+01  9568   0.466E+03-0.190E+03
CGA:   5    -0.302914233256E+03   -0.51525E+01   -0.44877E+01  9568   0.191E+03 0.222E+02
CGA:   6    -0.304124944785E+03   -0.12107E+01   -0.19388E+01  9568   0.947E+02-0.130E+03
CGA:   7    -0.305477694346E+03   -0.13527E+01   -0.19475E+01  9568   0.109E+03-0.128E+02
CGA:   8    -0.307362719580E+03   -0.18850E+01   -0.11806E+01  9568   0.703E+02 0.388E+02
CGA:   9    -0.308633127641E+03   -0.12704E+01   -0.12076E+01  9568   0.576E+02-0.336E+01
CGA:  10    -0.309367430857E+03   -0.73430E+00   -0.84703E+00  9568   0.136E+03-0.486E+01
CGA:  11    -0.310856981594E+03   -0.14896E+01   -0.12755E+01  9568   0.330E+02 0.173E+02
CGA:  12    -0.311093451771E+03   -0.23647E+00   -0.32291E+00  9568   0.224E+02-0.959E+01
CGA:  13    -0.311253446533E+03   -0.15999E+00   -0.98626E-01  9568   0.191E+02 0.879E+01
CGA:  14    -0.311420075803E+03   -0.16663E+00   -0.14388E+00  9568   0.547E+01 0.315E+01
CGA:  15    -0.311468643849E+03   -0.48568E-01   -0.50134E-01  9568   0.489E+01-0.193E+00
CGA:  16    -0.311541040108E+03   -0.72396E-01   -0.73347E-01  9568   0.139E+02-0.276E-01
CGA:  17    -0.311743328608E+03   -0.20229E+00   -0.20739E+00  9568   0.974E+01-0.279E-01
CGA:  18    -0.311815089257E+03   -0.71761E-01   -0.69250E-01  9568   0.715E+01 0.224E+00
CGA:  19    -0.311913265653E+03   -0.98176E-01   -0.85221E-01  9568   0.955E+01 0.615E+00
CGA:  20    -0.311978156448E+03   -0.64891E-01   -0.60231E-01  9568   0.518E+01 0.630E+00
CGA:  21    -0.312008295043E+03   -0.30139E-01   -0.32302E-01  9568   0.293E+01-0.331E+00
CGA:  22    -0.312029539210E+03   -0.21244E-01   -0.21760E-01  9568   0.325E+01-0.526E-01
CGA:  23    -0.312053077636E+03   -0.23538E-01   -0.24785E-01  9568   0.186E+01-0.118E+00
CGA:  24    -0.312064049856E+03   -0.10972E-01   -0.10772E-01  9568   0.134E+01 0.249E-01
CGA:  25    -0.312081318721E+03   -0.17269E-01   -0.17174E-01  9568   0.303E+01 0.507E-03
CGA:  26    -0.312110925287E+03   -0.29607E-01   -0.29033E-01  9568   0.351E+01 0.273E-01
CGA:  27    -0.312133530152E+03   -0.22605E-01   -0.25658E-01  9568   0.226E+01-0.298E+00
CGA:  28    -0.312151608398E+03   -0.18078E-01   -0.19058E-01  9568   0.233E+01-0.557E-01
CGA:  29    -0.312171212070E+03   -0.19604E-01   -0.18848E-01  9568   0.110E+01 0.604E-01
CGA:  30    -0.312179133949E+03   -0.79219E-02   -0.76615E-02  9568   0.789E+00 0.267E-01
CGA:  31    -0.312189683554E+03   -0.10550E-01   -0.10451E-01  9568   0.141E+01-0.422E-02
CGA:  32    -0.312201545483E+03   -0.11862E-01   -0.12231E-01  9568   0.116E+01-0.189E-01
CGA:  33    -0.312209846718E+03   -0.83012E-02   -0.89923E-02  9568   0.733E+00-0.461E-01
CGA:  34    -0.312217525284E+03   -0.76786E-02   -0.77073E-02  9568   0.709E+00 0.262E-04
CGA:  35    -0.312223411102E+03   -0.58858E-02   -0.57841E-02  9568   0.325E+00 0.550E-02
CGA:  36    -0.312226385081E+03   -0.29740E-02   -0.29731E-02  9568   0.324E+00-0.118E-03
SDA:  37    -0.312230906076E+03   -0.45210E-02   -0.45303E-02  9568   0.413E+00 0.321E-02
CGA:  38    -0.312234671643E+03   -0.37656E-02   -0.37633E-02  9568   0.914E-01 0.786E-04
CGA:  39    -0.312241479873E+03   -0.68082E-02   -0.31799E-04  9568   0.184E+00-0.184E-01
CGA:  40    -0.312246108397E+03   -0.46285E-02   -0.46166E-02  9568   0.133E+00 0.175E-02
CGA:  41    -0.312251000377E+03   -0.48920E-02   -0.49249E-02  9568   0.115E+00-0.268E-02
CGA:  42    -0.312253053904E+03   -0.20535E-02   -0.20735E-02  9568   0.923E-01 0.446E-04
CGA:  43    -0.312256094401E+03   -0.30405E-02   -0.30362E-02  9568   0.698E-01 0.476E-03
CGA:  44    -0.312258279250E+03   -0.21848E-02   -0.21804E-02  9568   0.184E-01 0.752E-03
CGA:  45    -0.312259538306E+03   -0.12591E-02   -0.12691E-02  9568   0.442E-01-0.267E-03
CGA:  46    -0.312260870071E+03   -0.13318E-02   -0.13305E-02  9568   0.391E-01 0.796E-03
CGA:  47    -0.312261726031E+03   -0.85596E-03   -0.85491E-03  9568   0.325E-01-0.202E-04
CGA:  48    -0.312262672696E+03   -0.94666E-03   -0.94696E-03  9568   0.140E-01 0.751E-03
CGA:  49    -0.312263320704E+03   -0.64801E-03   -0.65202E-03  9568   0.167E-01-0.208E-03
CGA:  50    -0.312263948693E+03   -0.62799E-03   -0.62564E-03  9568   0.134E-01 0.223E-03
CGA:  51    -0.312264210303E+03   -0.26161E-03   -0.26196E-03  9568   0.112E-01 0.948E-05
CGA:  52    -0.312264767328E+03   -0.55703E-03   -0.54964E-03  9568   0.181E-01 0.342E-03
CGA:  53    -0.312265373477E+03   -0.60615E-03   -0.60677E-03  9568   0.881E-02-0.209E-03
CGA:  54    -0.312265712146E+03   -0.33867E-03   -0.33722E-03  9568   0.890E-02 0.134E-03
CGA:  55    -0.312265876941E+03   -0.16479E-03   -0.16478E-03  9568   0.543E-02-0.457E-05
CGA:  56    -0.312266099762E+03   -0.22282E-03   -0.22216E-03  9568   0.620E-02 0.460E-04
CGA:  57    -0.312266326322E+03   -0.22656E-03   -0.22695E-03  9568   0.220E-02-0.547E-04
CGA:  58    -0.312266379389E+03   -0.53067E-04   -0.53119E-04  9568   0.285E-02 0.151E-05
CGA:  59    -0.312266516290E+03   -0.13690E-03   -0.13702E-03  9568   0.399E-02-0.578E-05
CGA:  60    -0.312266614685E+03   -0.98395E-04   -0.98635E-04  9568   0.113E-02 0.142E-04
CGA:  61    -0.312266652002E+03   -0.37317E-04   -0.37312E-04  9568   0.113E-02 0.257E-05
CGA:  62    -0.312266674831E+03   -0.22829E-04   -0.22877E-04  9568   0.627E-03 0.150E-05
CGA:  63    -0.312266699880E+03   -0.25048E-04   -0.25090E-04  9568   0.784E-03-0.428E-05
CGA:  64    -0.312266742148E+03   -0.42269E-04   -0.42239E-04  9568   0.804E-03 0.418E-06
CGA:  65    -0.312266754753E+03   -0.12605E-04   -0.12570E-04  9568   0.368E-03-0.322E-05
CGA:  66    -0.312266776013E+03   -0.21260E-04   -0.21229E-04  9568   0.534E-03 0.794E-06
CGA:  67    -0.312266793388E+03   -0.17376E-04   -0.17371E-04  9568   0.450E-03-0.476E-05
SDA:  68    -0.312266805805E+03   -0.12416E-04   -0.12410E-04  9568   0.507E-03-0.191E-05
CGA:  69    -0.312266812947E+03   -0.71429E-05   -0.71294E-05  9568   0.247E-03-0.145E-05
   8 F= -.31226681E+03 E0= -.31224326E+03  d E =-.125777E+00  mag=    25.8859
       N       E                     dE             d eps       ncg     rms          ort
SDA:   1    -0.235974479018E+03    0.76292E+02    0.00000E+00  9568   0.555E+03 0.000E+00
CGA:   2    -0.259612035423E+03   -0.23638E+02   -0.25700E+02  9568   0.456E+03-0.747E+01
CGA:   3    -0.275772130340E+03   -0.16160E+02   -0.15797E+02  9568   0.207E+03 0.841E+02
CGA:   4    -0.283497260514E+03   -0.77251E+01   -0.10056E+02  9568   0.395E+03-0.151E+03
CGA:   5    -0.293408755948E+03   -0.99115E+01   -0.76553E+01  9568   0.607E+02-0.394E+02
CGA:   6    -0.297579832818E+03   -0.41711E+01   -0.59175E+01  9568   0.185E+03-0.113E+02
CGA:   7    -0.300278422128E+03   -0.26986E+01   -0.25651E+01  9568   0.389E+03-0.649E+01
CGA:   8    -0.303201089224E+03   -0.29227E+01   -0.64952E+01  9568   0.295E+03-0.833E+02
CGA:   9    -0.307034098006E+03   -0.38330E+01   -0.43173E+01  9568   0.117E+03 0.323E+01
CGA:  10    -0.308266523374E+03   -0.12324E+01   -0.84862E+00  9568   0.486E+02 0.333E+02
CGA:  11    -0.308682295400E+03   -0.41577E+00   -0.59930E+00  9568   0.664E+02-0.256E+02
CGA:  12    -0.309307538041E+03   -0.62524E+00   -0.91684E+00  9568   0.359E+02-0.150E+02
CGA:  13    -0.310494635333E+03   -0.11871E+01   -0.11853E+01  9568   0.215E+02-0.377E+00
CGA:  14    -0.310859544643E+03   -0.36491E+00   -0.38685E+00  9568   0.210E+02-0.488E+00
CGA:  15    -0.311274883522E+03   -0.41534E+00   -0.35756E+00  9568   0.757E+01 0.130E+01
CGA:  16    -0.311561612376E+03   -0.28673E+00   -0.28538E+00  9568   0.786E+01 0.151E+00
CGA:  17    -0.311660152904E+03   -0.98541E-01   -0.94611E-01  9568   0.311E+01 0.181E+00
CGA:  18    -0.311809081244E+03   -0.14893E+00   -0.14614E+00  9568   0.445E+01 0.153E+00
CGA:  19    -0.311903155456E+03   -0.94074E-01   -0.88575E-01  9568   0.360E+01 0.375E-01
CGA:  20    -0.311961195699E+03   -0.58040E-01   -0.56941E-01  9568   0.154E+01 0.187E-01
CGA:  21    -0.312003480606E+03   -0.42285E-01   -0.42445E-01  9568   0.230E+01 0.617E-01
CGA:  22    -0.312032016268E+03   -0.28536E-01   -0.26042E-01  9568   0.826E+00 0.165E+00
CGA:  23    -0.312053155033E+03   -0.21139E-01   -0.20563E-01  9568   0.120E+01-0.387E-01
CGA:  24    -0.312069736328E+03   -0.16581E-01   -0.17187E-01  9568   0.133E+01-0.194E-01
CGA:  25    -0.312096193653E+03   -0.26457E-01   -0.26763E-01  9568   0.138E+01 0.110E-01
CGA:  26    -0.312108443071E+03   -0.12249E-01   -0.10216E-01  9568   0.588E+00 0.229E+00
CGA:  27    -0.312117769491E+03   -0.93264E-02   -0.89345E-02  9568   0.941E+00 0.146E-01
CGA:  28    -0.312129020690E+03   -0.11251E-01   -0.11714E-01  9568   0.106E+01-0.820E-02
CGA:  29    -0.312137252204E+03   -0.82315E-02   -0.10959E-01  9568   0.427E+00-0.146E+00
CGA:  30    -0.312146884438E+03   -0.96322E-02   -0.95101E-02  9568   0.849E+00 0.320E-01
CGA:  31    -0.312161164589E+03   -0.14280E-01   -0.12543E-01  9568   0.299E+00 0.425E-01
CGA:  32    -0.312168346564E+03   -0.71820E-02   -0.71852E-02  9568   0.278E+00 0.521E-02
CGA:  33    -0.312172130678E+03   -0.37841E-02   -0.40634E-02  9568   0.110E+00-0.251E-02
CGA:  34    -0.312180776991E+03   -0.86463E-02   -0.89472E-02  9568   0.178E+00-0.669E-02
CGA:  35    -0.312184192790E+03   -0.34158E-02   -0.33999E-02  9568   0.181E+00-0.723E-03
CGA:  36    -0.312188508017E+03   -0.43152E-02   -0.43339E-02  9568   0.871E-01 0.624E-02
CGA:  37    -0.312191009284E+03   -0.25013E-02   -0.24969E-02  9568   0.795E-01 0.115E-02
CGA:  38    -0.312192543562E+03   -0.15343E-02   -0.15260E-02  9568   0.665E-01-0.199E-03
CGA:  39    -0.312194926692E+03   -0.23831E-02   -0.23794E-02  9568   0.749E-01 0.277E-03
CGA:  40    -0.312196906259E+03   -0.19796E-02   -0.19788E-02  9568   0.652E-01 0.657E-03
CGA:  41    -0.312197832508E+03   -0.92625E-03   -0.92700E-03  9568   0.186E-01-0.154E-04
SDA:  42    -0.312198699191E+03   -0.86668E-03   -0.86604E-03  9568   0.232E-01 0.220E-04
CGA:  43    -0.312198977574E+03   -0.27838E-03   -0.27900E-03  9568   0.814E-02-0.155E-04
CGA:  44    -0.312199352282E+03   -0.37471E-03   -0.37320E-03  9568   0.111E-01 0.661E-04
CGA:  45    -0.312200177791E+03   -0.82551E-03   -0.82285E-03  9568   0.139E-01 0.552E-04
CGA:  46    -0.312200698482E+03   -0.52069E-03   -0.52154E-03  9568   0.109E-01-0.710E-04
CGA:  47    -0.312200929986E+03   -0.23150E-03   -0.23288E-03  9568   0.625E-02 0.224E-04
CGA:  48    -0.312201081508E+03   -0.15152E-03   -0.15134E-03  9568   0.577E-02-0.234E-04
CGA:  49    -0.312201435862E+03   -0.35435E-03   -0.35666E-03  9568   0.429E-02-0.712E-04
CGA:  50    -0.312201663420E+03   -0.22756E-03   -0.22769E-03  9568   0.355E-02-0.828E-05
CGA:  51    -0.312201721664E+03   -0.58244E-04   -0.58413E-04  9568   0.244E-02-0.341E-05
CGA:  52    -0.312201962050E+03   -0.24039E-03   -0.24089E-03  9568   0.422E-02-0.115E-04
CGA:  53    -0.312202075287E+03   -0.11324E-03   -0.11346E-03  9568   0.168E-02 0.152E-04
CGA:  54    -0.312202108614E+03   -0.33326E-04   -0.33345E-04  9568   0.124E-02-0.183E-05
CGA:  55    -0.312202161647E+03   -0.53034E-04   -0.53004E-04  9568   0.156E-02 0.218E-05
CGA:  56    -0.312202222765E+03   -0.61118E-04   -0.61143E-04  9568   0.155E-02-0.281E-05
CGA:  57    -0.312202294583E+03   -0.71817E-04   -0.71778E-04  9568   0.200E-02 0.196E-05
CGA:  58    -0.312202326810E+03   -0.32227E-04   -0.32204E-04  9568   0.683E-03-0.472E-05
CGA:  59    -0.312202381153E+03   -0.54343E-04   -0.54475E-04  9568   0.708E-03-0.291E-05
CGA:  60    -0.312202398992E+03   -0.17839E-04   -0.17830E-04  9568   0.880E-03-0.197E-05
CGA:  61    -0.312202427979E+03   -0.28987E-04   -0.28991E-04  9568   0.392E-03 0.745E-06
CGA:  62    -0.312202449675E+03   -0.21696E-04   -0.21723E-04  9568   0.770E-03-0.159E-05
CGA:  63    -0.312202475264E+03   -0.25589E-04   -0.25596E-04  9568   0.788E-03 0.188E-05
CGA:  64    -0.312202490689E+03   -0.15425E-04   -0.15447E-04  9568   0.231E-03-0.114E-05
CGA:  65    -0.312202498616E+03   -0.79275E-05   -0.79279E-05  9568   0.252E-03 0.167E-06
CGA:  66    -0.312202513975E+03   -0.15358E-04   -0.15359E-04  9568   0.393E-03-0.130E-06
CGA:  67    -0.312202521103E+03   -0.71281E-05   -0.71484E-05  9568   0.195E-03 0.882E-06
   9 F= -.31220252E+03 E0= -.31217900E+03  d E =0.642918E-01  mag=    25.8906
       N       E                     dE             d eps       ncg     rms          ort
SDA:   1    -0.271782428053E+03    0.40420E+02    0.00000E+00  9568   0.138E+04 0.000E+00
CGA:   2    -0.284794998046E+03   -0.13013E+02   -0.27351E+02  9568   0.619E+03-0.724E+02
CGA:   3    -0.296032952715E+03   -0.11238E+02   -0.14338E+02  9568   0.139E+03 0.816E+01
CGA:   4    -0.300788575271E+03   -0.47556E+01   -0.47547E+01  9568   0.177E+03-0.955E+00
CGA:   5    -0.300902487342E+03   -0.11391E+00   -0.13348E+01  9568   0.231E+03-0.184E+03
CGA:   6    -0.302433980957E+03   -0.15315E+01   -0.41082E+01  9568   0.186E+03-0.482E+02
CGA:   7    -0.303677810968E+03   -0.12438E+01   -0.19426E+01  9568   0.119E+03-0.540E+02
CGA:   8    -0.305007516055E+03   -0.13297E+01   -0.92960E+00  9568   0.708E+02 0.205E+02
CGA:   9    -0.306515103972E+03   -0.15076E+01   -0.15196E+01  9568   0.811E+02-0.139E+01
CGA:  10    -0.306999682403E+03   -0.48458E+00   -0.41222E+00  9568   0.498E+02 0.108E+02
CGA:  11    -0.307622357253E+03   -0.62267E+00   -0.86200E+00  9568   0.141E+03-0.806E+01
CGA:  12    -0.308535889545E+03   -0.91353E+00   -0.13611E+01  9568   0.129E+03-0.232E+02
CGA:  13    -0.310422322863E+03   -0.18864E+01   -0.17141E+01  9568   0.731E+02 0.586E+00
CGA:  14    -0.310968968580E+03   -0.54665E+00   -0.68197E+00  9568   0.566E+02-0.141E+02
CGA:  15    -0.311406570298E+03   -0.43760E+00   -0.34312E+00  9568   0.262E+02 0.899E+01
CGA:  16    -0.311558777087E+03   -0.15221E+00   -0.13559E+00  9568   0.699E+01 0.302E+01
CGA:  17    -0.311615012070E+03   -0.56235E-01   -0.51102E-01  9568   0.591E+01 0.598E+00
CGA:  18    -0.311664705999E+03   -0.49694E-01   -0.39988E-01  9568   0.665E+01 0.126E+01
CGA:  19    -0.311719455654E+03   -0.54750E-01   -0.52635E-01  9568   0.800E+01 0.239E+00
CGA:  20    -0.311775761759E+03   -0.56306E-01   -0.62495E-01  9568   0.124E+02-0.602E+00
CGA:  21    -0.311857974417E+03   -0.82213E-01   -0.89144E-01  9568   0.204E+02-0.630E+00
CGA:  22    -0.312002038494E+03   -0.14406E+00   -0.15448E+00  9568   0.181E+02-0.752E+00
CGA:  23    -0.312074977544E+03   -0.72939E-01   -0.62499E-01  9568   0.821E+01 0.256E+01
CGA:  24    -0.312116604664E+03   -0.41627E-01   -0.40699E-01  9568   0.527E+01 0.159E+00
CGA:  25    -0.312147128671E+03   -0.30524E-01   -0.28218E-01  9568   0.534E+01 0.337E+00
CGA:  26    -0.312173469388E+03   -0.26341E-01   -0.25540E-01  9568   0.385E+01 0.125E+00
CGA:  27    -0.312188324405E+03   -0.14855E-01   -0.16867E-01  9568   0.207E+01-0.382E+00
CGA:  28    -0.312196328927E+03   -0.80045E-02   -0.87683E-02  9568   0.164E+01-0.126E+00
CGA:  29    -0.312206873760E+03   -0.10545E-01   -0.11246E-01  9568   0.221E+01-0.507E-01
CGA:  30    -0.312223312589E+03   -0.16439E-01   -0.17018E-01  9568   0.202E+01-0.293E-01
CGA:  31    -0.312235792789E+03   -0.12480E-01   -0.12811E-01  9568   0.153E+01-0.308E-01
CGA:  32    -0.312250587733E+03   -0.14795E-01   -0.14864E-01  9568   0.246E+01 0.101E-02
CGA:  33    -0.312275874744E+03   -0.25287E-01   -0.24981E-01  9568   0.323E+01-0.989E-02
CGA:  34    -0.312296258004E+03   -0.20383E-01   -0.20638E-01  9568   0.172E+01-0.204E-01
CGA:  35    -0.312305280252E+03   -0.90222E-02   -0.89211E-02  9568   0.862E+00 0.129E-01
SDA:  36    -0.312311588109E+03   -0.63079E-02   -0.63985E-02  9568   0.853E+00-0.424E-02
CGA:  37    -0.312321573967E+03   -0.99859E-02   -0.99878E-02  9568   0.337E+00 0.771E-03
CGA:  38    -0.312333722631E+03   -0.12149E-01   -0.11914E-01  9568   0.265E+00 0.117E-01
CGA:  39    -0.312347188999E+03   -0.13466E-01   -0.13740E-01  9568   0.373E+00-0.925E-02
CGA:  40    -0.312356944330E+03   -0.97553E-02   -0.97922E-02  9568   0.173E+00-0.292E-02
CGA:  41    -0.312359608169E+03   -0.26638E-02   -0.26652E-02  9568   0.975E-01 0.967E-03
CGA:  42    -0.312363683541E+03   -0.40754E-02   -0.40710E-02  9568   0.110E+00 0.191E-03
CGA:  43    -0.312369218390E+03   -0.55348E-02   -0.55500E-02  9568   0.686E-01-0.532E-03
CGA:  44    -0.312373257292E+03   -0.40389E-02   -0.40508E-02  9568   0.350E-01-0.393E-03
CGA:  45    -0.312374425483E+03   -0.11682E-02   -0.11810E-02  9568   0.545E-01-0.875E-03
CGA:  46    -0.312376336216E+03   -0.19107E-02   -0.18923E-02  9568   0.663E-01 0.117E-02
CGA:  47    -0.312377512680E+03   -0.11765E-02   -0.11771E-02  9568   0.181E-01 0.620E-04
CGA:  48    -0.312380245115E+03   -0.27324E-02   -0.19693E-03  9568   0.370E-01 0.896E-03
CGA:  49    -0.312380960619E+03   -0.71550E-03   -0.71165E-03  9568   0.282E-01 0.132E-03
CGA:  50    -0.312381823340E+03   -0.86272E-03   -0.86397E-03  9568   0.164E-01 0.485E-04
CGA:  51    -0.312382400434E+03   -0.57709E-03   -0.57755E-03  9568   0.126E-01 0.578E-04
CGA:  52    -0.312382911241E+03   -0.51081E-03   -0.51084E-03  9568   0.110E-01-0.231E-05
CGA:  53    -0.312383245592E+03   -0.33435E-03   -0.33419E-03  9568   0.106E-01-0.285E-05
CGA:  54    -0.312383464535E+03   -0.21894E-03   -0.21955E-03  9568   0.767E-02-0.239E-05
CGA:  55    -0.312383770773E+03   -0.30624E-03   -0.30625E-03  9568   0.277E-02-0.249E-05
CGA:  56    -0.312383957419E+03   -0.18665E-03   -0.18608E-03  9568   0.368E-02 0.178E-04
CGA:  57    -0.312384039370E+03   -0.81951E-04   -0.81976E-04  9568   0.454E-02-0.435E-05
CGA:  58    -0.312384302601E+03   -0.26323E-03   -0.26314E-03  9568   0.440E-02 0.217E-05
CGA:  59    -0.312384396333E+03   -0.93732E-04   -0.93242E-04  9568   0.133E-02 0.184E-05
CGA:  60    -0.312384456895E+03   -0.60562E-04   -0.60526E-04  9568   0.118E-02 0.308E-05
CGA:  61    -0.312384481122E+03   -0.24227E-04   -0.24238E-04  9568   0.128E-02-0.153E-05
CGA:  62    -0.312384571840E+03   -0.90719E-04   -0.90556E-04  9568   0.197E-02 0.456E-05
CGA:  63    -0.312384638882E+03   -0.67041E-04   -0.67012E-04  9568   0.421E-03-0.291E-05
CGA:  64    -0.312384653690E+03   -0.14809E-04   -0.14808E-04  9568   0.921E-03-0.618E-06
CGA:  65    -0.312384684166E+03   -0.30475E-04   -0.30443E-04  9568   0.614E-03-0.580E-05
CGA:  66    -0.312384703856E+03   -0.19691E-04   -0.19663E-04  9568   0.515E-03-0.428E-05
SDA:  67    -0.312384721886E+03   -0.18030E-04   -0.18018E-04  9568   0.199E-03-0.357E-05
CGA:  68    -0.312384726604E+03   -0.47175E-05   -0.47303E-05  9568   0.261E-03 0.476E-06
  10 F= -.31238473E+03 E0= -.31236038E+03  d E =-.182206E+00  mag=    25.8983
       N       E                     dE             d eps       ncg     rms          ort
SDA:   1    -0.311731201447E+03    0.65352E+00    0.00000E+00  9568   0.476E+02 0.000E+00
CGA:   2    -0.312136136352E+03   -0.40493E+00   -0.49537E+00  9568   0.398E+01-0.102E+02
CGA:   3    -0.312182210487E+03   -0.46074E-01   -0.46601E-01  9568   0.973E+00-0.291E-01
CGA:   4    -0.312241918627E+03   -0.59708E-01   -0.59777E-01  9568   0.255E+01-0.176E-02
CGA:   5    -0.312305110475E+03   -0.63192E-01   -0.63408E-01  9568   0.120E+01 0.214E-03
CGA:   6    -0.312327821103E+03   -0.22711E-01   -0.23471E-01  9568   0.487E+00-0.154E-01
CGA:   7    -0.312347007076E+03   -0.19186E-01   -0.19280E-01  9568   0.595E+00-0.112E-01
CGA:   8    -0.312360664845E+03   -0.13658E-01   -0.13638E-01  9568   0.439E+00-0.211E-04
CGA:   9    -0.312376463240E+03   -0.15798E-01   -0.15801E-01  9568   0.284E+00-0.817E-03
CGA:  10    -0.312382603857E+03   -0.61406E-02   -0.61522E-02  9568   0.122E+00-0.651E-04
CGA:  11    -0.312385101621E+03   -0.24978E-02   -0.24892E-02  9568   0.748E-01 0.862E-04
CGA:  12    -0.312388242662E+03   -0.31410E-02   -0.31373E-02  9568   0.701E-01 0.322E-03
CGA:  13    -0.312390389158E+03   -0.21465E-02   -0.21457E-02  9568   0.698E-01-0.108E-03
CGA:  14    -0.312391788584E+03   -0.13994E-02   -0.14058E-02  9568   0.194E-01-0.651E-04
CGA:  15    -0.312392220530E+03   -0.43195E-03   -0.43226E-03  9568   0.874E-02 0.270E-05
CGA:  16    -0.312392654143E+03   -0.43361E-03   -0.43366E-03  9568   0.229E-01-0.164E-06
CGA:  17    -0.312393269539E+03   -0.61540E-03   -0.61495E-03  9568   0.817E-02-0.195E-04
CGA:  18    -0.312393475174E+03   -0.20563E-03   -0.20607E-03  9568   0.469E-02 0.177E-04
CGA:  19    -0.312393617564E+03   -0.14239E-03   -0.14239E-03  9568   0.490E-02-0.106E-05
CGA:  20    -0.312393735128E+03   -0.11756E-03   -0.11761E-03  9568   0.311E-02 0.426E-05
CGA:  21    -0.312393925624E+03   -0.19050E-03   -0.19024E-03  9568   0.507E-02 0.930E-05
CGA:  22    -0.312394027573E+03   -0.10195E-03   -0.10198E-03  9568   0.229E-02 0.659E-05
CGA:  23    -0.312394083063E+03   -0.55490E-04   -0.55434E-04  9568   0.159E-02-0.273E-05
CGA:  24    -0.312394159288E+03   -0.76225E-04   -0.76107E-04  9568   0.170E-02 0.668E-05
CGA:  25    -0.312394199018E+03   -0.39729E-04   -0.39699E-04  9568   0.146E-02-0.282E-05
CGA:  26    -0.312394246459E+03   -0.47442E-04   -0.47442E-04  9568   0.104E-02 0.989E-06
CGA:  27    -0.312394280241E+03   -0.33781E-04   -0.33781E-04  9568   0.863E-03 0.911E-06
CGA:  28    -0.312394305443E+03   -0.25203E-04   -0.25213E-04  9568   0.898E-03 0.257E-05
CGA:  29    -0.312394326682E+03   -0.21239E-04   -0.21219E-04  9568   0.321E-03-0.109E-05
CGA:  30    -0.312394338550E+03   -0.11868E-04   -0.11856E-04  9568   0.386E-03 0.226E-05
CGA:  31    -0.312394349904E+03   -0.11353E-04   -0.11353E-04  9568   0.392E-03-0.797E-07
SDA:  32    -0.312394360840E+03   -0.10936E-04   -0.10943E-04  9568   0.240E-03 0.155E-05
CGA:  33    -0.312394364116E+03   -0.32761E-05   -0.32729E-05  9568   0.852E-04-0.193E-06
  11 F= -.31239436E+03 E0= -.31237018E+03  d E =-.963751E-02  mag=    25.8965
       N       E                     dE             d eps       ncg     rms          ort
SDA:   1    -0.311611728448E+03    0.78263E+00    0.00000E+00  9568   0.903E+01 0.000E+00
CGA:   2    -0.311724002740E+03   -0.11227E+00   -0.10584E+00  9568   0.304E+01 0.294E+00
CGA:   3    -0.311892845396E+03   -0.16884E+00   -0.16865E+00  9568   0.560E+01 0.106E-01
CGA:   4    -0.312143472047E+03   -0.25063E+00   -0.25225E+00  9568   0.300E+01-0.935E-01
CGA:   5    -0.312190089282E+03   -0.46617E-01   -0.48302E-01  9568   0.173E+01-0.500E-01
CGA:   6    -0.312248881902E+03   -0.58793E-01   -0.58811E-01  9568   0.202E+01-0.294E-02
CGA:   7    -0.312311962633E+03   -0.63081E-01   -0.63092E-01  9568   0.114E+01-0.497E-01
CGA:   8    -0.312359425631E+03   -0.47463E-01   -0.46306E-01  9568   0.562E+00 0.809E-01
CGA:   9    -0.312369164985E+03   -0.97394E-02   -0.99128E-02  9568   0.251E+00-0.485E-02
CGA:  10    -0.312377299876E+03   -0.81349E-02   -0.81272E-02  9568   0.310E+00 0.242E-02
CGA:  11    -0.312388493244E+03   -0.11193E-01   -0.11196E-01  9568   0.192E+00-0.329E-03
CGA:  12    -0.312392879079E+03   -0.43858E-02   -0.43775E-02  9568   0.838E-01-0.129E-03
CGA:  13    -0.312394833783E+03   -0.19547E-02   -0.19546E-02  9568   0.589E-01 0.168E-04
CGA:  14    -0.312396235514E+03   -0.14017E-02   -0.13994E-02  9568   0.242E-01-0.737E-04
CGA:  15    -0.312397938627E+03   -0.17031E-02   -0.16999E-02  9568   0.668E-01 0.836E-04
CGA:  16    -0.312399112501E+03   -0.11739E-02   -0.11736E-02  9568   0.145E-01 0.802E-05
CGA:  17    -0.312399582215E+03   -0.46971E-03   -0.46969E-03  9568   0.905E-02 0.194E-04
CGA:  18    -0.312399784321E+03   -0.20211E-03   -0.20180E-03  9568   0.720E-02-0.389E-05
CGA:  19    -0.312400152431E+03   -0.36811E-03   -0.36788E-03  9568   0.151E-01 0.119E-04
CGA:  20    -0.312400567975E+03   -0.41554E-03   -0.41561E-03  9568   0.429E-02 0.138E-04
CGA:  21    -0.312400680982E+03   -0.11301E-03   -0.11308E-03  9568   0.418E-02 0.791E-05
CGA:  22    -0.312400794365E+03   -0.11338E-03   -0.11333E-03  9568   0.297E-02-0.557E-05
CGA:  23    -0.312400905733E+03   -0.11137E-03   -0.11136E-03  9568   0.245E-02 0.849E-06
CGA:  24    -0.312401000200E+03   -0.94467E-04   -0.94494E-04  9568   0.467E-02-0.383E-05
CGA:  25    -0.312401122956E+03   -0.12276E-03   -0.12286E-03  9568   0.125E-02 0.626E-05
CGA:  26    -0.312401177378E+03   -0.54423E-04   -0.54474E-04  9568   0.222E-02-0.349E-05
CGA:  27    -0.312401227605E+03   -0.50227E-04   -0.50346E-04  9568   0.878E-03 0.637E-05
CGA:  28    -0.312401254184E+03   -0.26579E-04   -0.26583E-04  9568   0.104E-02 0.292E-05
CGA:  29    -0.312401308802E+03   -0.54618E-04   -0.54445E-04  9568   0.111E-02 0.848E-05
CGA:  30    -0.312401331493E+03   -0.22691E-04   -0.22685E-04  9568   0.727E-03 0.660E-06
CGA:  31    -0.312401354516E+03   -0.23023E-04   -0.23024E-04  9568   0.397E-03 0.279E-05
SDA:  32    -0.312401369512E+03   -0.14996E-04   -0.15000E-04  9568   0.474E-03-0.920E-06
CGA:  33    -0.312401375062E+03   -0.55501E-05   -0.55553E-05  9568   0.161E-03 0.147E-06
  12 F= -.31240138E+03 E0= -.31237727E+03  d E =-.701095E-02  mag=    25.8944
       N       E                     dE             d eps       ncg     rms          ort
SDA:   1    -0.310161795573E+03    0.22396E+01    0.00000E+00  9568   0.929E+01 0.000E+00
CGA:   2    -0.310489362354E+03   -0.32757E+00   -0.33191E+00  9568   0.153E+02-0.707E+00
CGA:   3    -0.311045593850E+03   -0.55623E+00   -0.55662E+00  9568   0.302E+02-0.271E-01
CGA:   4    -0.311742726751E+03   -0.69713E+00   -0.71902E+00  9568   0.625E+01 0.287E+00
CGA:   5    -0.311907364998E+03   -0.16464E+00   -0.16142E+00  9568   0.392E+01-0.127E+00
CGA:   6    -0.312126021321E+03   -0.21866E+00   -0.22106E+00  9568   0.552E+01-0.928E-01
CGA:   7    -0.312218769048E+03   -0.92748E-01   -0.91774E-01  9568   0.302E+01 0.131E-01
CGA:   8    -0.312313859618E+03   -0.95091E-01   -0.95442E-01  9568   0.765E+00 0.208E+00
CGA:   9    -0.312335241025E+03   -0.21381E-01   -0.21245E-01  9568   0.575E+00-0.557E-02
CGA:  10    -0.312356044285E+03   -0.20803E-01   -0.20790E-01  9568   0.832E+00 0.190E-02
CGA:  11    -0.312372515171E+03   -0.16471E-01   -0.16274E-01  9568   0.386E+00 0.241E-02
CGA:  12    -0.312384235684E+03   -0.11721E-01   -0.11711E-01  9568   0.176E+00-0.310E-02
CGA:  13    -0.312389103403E+03   -0.48677E-02   -0.48651E-02  9568   0.632E-01-0.234E-03
CGA:  14    -0.312390492795E+03   -0.13894E-02   -0.13913E-02  9568   0.871E-01 0.219E-04
CGA:  15    -0.312396198607E+03   -0.57058E-02   -0.57015E-02  9568   0.466E-01 0.118E-03
CGA:  16    -0.312397257293E+03   -0.10587E-02   -0.10571E-02  9568   0.243E-01 0.501E-05
CGA:  17    -0.312397959308E+03   -0.70201E-03   -0.70196E-03  9568   0.217E-01-0.443E-05
CGA:  18    -0.312398372573E+03   -0.41327E-03   -0.41547E-03  9568   0.137E-01-0.102E-04
CGA:  19    -0.312399292466E+03   -0.91989E-03   -0.92067E-03  9568   0.110E-01-0.242E-04
CGA:  20    -0.312399860545E+03   -0.56808E-03   -0.56855E-03  9568   0.181E-01-0.223E-04
CGA:  21    -0.312400117263E+03   -0.25672E-03   -0.25777E-03  9568   0.457E-02-0.289E-04
CGA:  22    -0.312400299398E+03   -0.18213E-03   -0.18205E-03  9568   0.438E-02 0.894E-05
CGA:  23    -0.312400542157E+03   -0.24276E-03   -0.24317E-03  9568   0.471E-02-0.168E-04
CGA:  24    -0.312400674536E+03   -0.13238E-03   -0.13245E-03  9568   0.682E-02 0.883E-05
CGA:  25    -0.312400913756E+03   -0.23922E-03   -0.23922E-03  9568   0.631E-02 0.244E-05
CGA:  26    -0.312401041250E+03   -0.12749E-03   -0.12738E-03  9568   0.102E-02 0.652E-05
CGA:  27    -0.312401156432E+03   -0.11518E-03   -0.11405E-03  9568   0.243E-02 0.150E-04
CGA:  28    -0.312401203194E+03   -0.46761E-04   -0.46825E-04  9568   0.229E-02 0.190E-05
CGA:  29    -0.312401325276E+03   -0.12208E-03   -0.12173E-03  9568   0.687E-03 0.194E-04
CGA:  30    -0.312401353073E+03   -0.27798E-04   -0.27798E-04  9568   0.834E-03 0.108E-06
CGA:  31    -0.312401381463E+03   -0.28389E-04   -0.28384E-04  9568   0.812E-03-0.347E-06
SDA:  32    -0.312401401886E+03   -0.20423E-04   -0.20448E-04  9568   0.905E-03 0.100E-05
CGA:  33    -0.312401413676E+03   -0.11790E-04   -0.11741E-04  9568   0.291E-03-0.567E-06
CGA:  34    -0.312401421899E+03   -0.82235E-05   -0.82306E-05  9568   0.262E-03 0.392E-06
CGA:  35    -0.312401432914E+03   -0.11015E-04   -0.11012E-04  9568   0.332E-03 0.235E-06
CGA:  36    -0.312401460526E+03   -0.27612E-04   -0.27725E-04  9568   0.157E-03-0.261E-05
CGA:  37    -0.312401470027E+03   -0.95011E-05   -0.95423E-05  9568   0.764E-04-0.193E-05
  13 F= -.31240147E+03 E0= -.31237739E+03  d E =-.949657E-04  mag=    25.8924
       N       E                     dE             d eps       ncg     rms          ort
SDA:   1    -0.311427498205E+03    0.97396E+00    0.00000E+00  9568   0.760E+01 0.000E+00
CGA:   2    -0.311527420652E+03   -0.99922E-01   -0.10383E+00  9568   0.433E+01-0.300E+00
CGA:   3    -0.311870836475E+03   -0.34342E+00   -0.34248E+00  9568   0.102E+02 0.271E-01
CGA:   4    -0.312104910779E+03   -0.23407E+00   -0.24810E+00  9568   0.196E+01-0.167E+00
CGA:   5    -0.312186561175E+03   -0.81650E-01   -0.81829E-01  9568   0.367E+01-0.430E-01
CGA:   6    -0.312267081684E+03   -0.80521E-01   -0.78575E-01  9568   0.271E+01 0.309E-01
CGA:   7    -0.312343511236E+03   -0.76430E-01   -0.77426E-01  9568   0.879E+00 0.957E-02
CGA:   8    -0.312371915785E+03   -0.28405E-01   -0.28110E-01  9568   0.394E+00-0.122E-01
CGA:   9    -0.312381636777E+03   -0.97210E-02   -0.98297E-02  9568   0.434E+00-0.195E-03
CGA:  10    -0.312393790204E+03   -0.12153E-01   -0.12112E-01  9568   0.404E+00-0.395E-03
CGA:  11    -0.312405083018E+03   -0.11293E-01   -0.11276E-01  9568   0.706E-01-0.321E-03
CGA:  12    -0.312408035432E+03   -0.29524E-02   -0.29500E-02  9568   0.440E-01 0.302E-03
CGA:  13    -0.312410099318E+03   -0.20639E-02   -0.20693E-02  9568   0.561E-01-0.380E-03
CGA:  14    -0.312412723089E+03   -0.26238E-02   -0.26216E-02  9568   0.215E-01 0.175E-03
CGA:  15    -0.312413314020E+03   -0.59093E-03   -0.58957E-03  9568   0.109E-01-0.114E-04
CGA:  16    -0.312413596930E+03   -0.28291E-03   -0.28302E-03  9568   0.146E-01 0.150E-05
CGA:  17    -0.312414091876E+03   -0.49495E-03   -0.49524E-03  9568   0.105E-01 0.497E-04
CGA:  18    -0.312414595328E+03   -0.50345E-03   -0.50408E-03  9568   0.849E-02-0.392E-04
CGA:  19    -0.312414814995E+03   -0.21967E-03   -0.22012E-03  9568   0.211E-02 0.103E-04
CGA:  20    -0.312415008408E+03   -0.19341E-03   -0.19379E-03  9568   0.609E-02-0.707E-05
CGA:  21    -0.312415143270E+03   -0.13486E-03   -0.13509E-03  9568   0.435E-02 0.540E-05
CGA:  22    -0.312415244131E+03   -0.10086E-03   -0.10081E-03  9568   0.232E-02 0.296E-05
CGA:  23    -0.312415352504E+03   -0.10837E-03   -0.10842E-03  9568   0.187E-02-0.348E-05
CGA:  24    -0.312415418972E+03   -0.66467E-04   -0.66491E-04  9568   0.119E-02 0.472E-05
CGA:  25    -0.312415483578E+03   -0.64606E-04   -0.64570E-04  9568   0.165E-02 0.193E-05
CGA:  26    -0.312415513648E+03   -0.30070E-04   -0.30053E-04  9568   0.112E-02-0.152E-05
CGA:  27    -0.312415566616E+03   -0.52968E-04   -0.52925E-04  9568   0.958E-03 0.359E-05
CGA:  28    -0.312415593341E+03   -0.26725E-04   -0.26683E-04  9568   0.367E-03-0.180E-05
CGA:  29    -0.312415611710E+03   -0.18369E-04   -0.18338E-04  9568   0.402E-03 0.216E-05
CGA:  30    -0.312415623867E+03   -0.12156E-04   -0.12157E-04  9568   0.536E-03-0.197E-06
CGA:  31    -0.312415636987E+03   -0.13120E-04   -0.13144E-04  9568   0.294E-03 0.153E-05
SDA:  32    -0.312415648244E+03   -0.11258E-04   -0.11257E-04  9568   0.154E-03 0.576E-06
CGA:  33    -0.312415651441E+03   -0.31972E-05   -0.31886E-05  9568   0.762E-04-0.651E-06
  14 F= -.31241565E+03 E0= -.31239153E+03  d E =-.141814E-01  mag=    25.8946
       N       E                     dE             d eps       ncg     rms          ort
SDA:   1    -0.308443812647E+03    0.39718E+01    0.00000E+00  9568   0.156E+02 0.000E+00
CGA:   2    -0.308849026896E+03   -0.40521E+00   -0.39184E+00  9568   0.256E+02-0.182E+00
CGA:   3    -0.310462831547E+03   -0.16138E+01   -0.16025E+01  9568   0.529E+02 0.387E+00
CGA:   4    -0.311256364523E+03   -0.79353E+00   -0.10280E+01  9568   0.180E+02-0.623E+01
CGA:   5    -0.311430933613E+03   -0.17457E+00   -0.18235E+00  9568   0.863E+01-0.661E+00
CGA:   6    -0.311750089080E+03   -0.31916E+00   -0.32310E+00  9568   0.171E+02-0.717E+00
CGA:   7    -0.311981545588E+03   -0.23146E+00   -0.21938E+00  9568   0.988E+01 0.482E+00
CGA:   8    -0.312164165545E+03   -0.18262E+00   -0.20196E+00  9568   0.394E+01-0.305E+00
CGA:   9    -0.312231655971E+03   -0.67490E-01   -0.68991E-01  9568   0.377E+01-0.457E-01
CGA:  10    -0.312292507138E+03   -0.60851E-01   -0.61638E-01  9568   0.135E+01-0.171E-01
CGA:  11    -0.312317387070E+03   -0.24880E-01   -0.24807E-01  9568   0.171E+01 0.370E-03
CGA:  12    -0.312358617513E+03   -0.41230E-01   -0.41138E-01  9568   0.127E+01-0.227E-02
CGA:  13    -0.312391522097E+03   -0.32905E-01   -0.32692E-01  9568   0.109E+01-0.107E-01
CGA:  14    -0.312403767760E+03   -0.12246E-01   -0.12264E-01  9568   0.292E+00-0.148E-02
CGA:  15    -0.312411101617E+03   -0.73339E-02   -0.73716E-02  9568   0.277E+00 0.246E-02
CGA:  16    -0.312415241823E+03   -0.41402E-02   -0.42209E-02  9568   0.208E+00-0.260E-02
CGA:  17    -0.312423308750E+03   -0.80669E-02   -0.81006E-02  9568   0.292E+00-0.249E-02
CGA:  18    -0.312428329383E+03   -0.50206E-02   -0.49740E-02  9568   0.207E+00 0.790E-03
CGA:  19    -0.312431583407E+03   -0.32540E-02   -0.32874E-02  9568   0.518E-01-0.783E-03
CGA:  20    -0.312432800093E+03   -0.12167E-02   -0.12174E-02  9568   0.785E-01 0.377E-04
CGA:  21    -0.312434561432E+03   -0.17613E-02   -0.17599E-02  9568   0.487E-01-0.560E-04
CGA:  22    -0.312435791563E+03   -0.12301E-02   -0.12316E-02  9568   0.506E-01 0.250E-03
CGA:  23    -0.312436638669E+03   -0.84711E-03   -0.85541E-03  9568   0.352E-01-0.105E-03
CGA:  24    -0.312437786881E+03   -0.11482E-02   -0.11479E-02  9568   0.259E-01 0.330E-04
CGA:  25    -0.312438194800E+03   -0.40792E-03   -0.40716E-03  9568   0.190E-01 0.290E-04
CGA:  26    -0.312438704725E+03   -0.50992E-03   -0.50993E-03  9568   0.123E-01 0.913E-04
CGA:  27    -0.312439003769E+03   -0.29904E-03   -0.29903E-03  9568   0.131E-01-0.882E-07
CGA:  28    -0.312439239450E+03   -0.23568E-03   -0.23567E-03  9568   0.848E-02 0.124E-04
CGA:  29    -0.312439624383E+03   -0.38493E-03   -0.38366E-03  9568   0.138E-01 0.639E-04
CGA:  30    -0.312439832304E+03   -0.20792E-03   -0.20861E-03  9568   0.698E-02-0.139E-04
CGA:  31    -0.312440004635E+03   -0.17233E-03   -0.17231E-03  9568   0.421E-02-0.302E-05
[...]
CGA:  25    -0.312441590134E+03   -0.21361E-04   -0.21303E-04  9568   0.230E-03 0.447E-05
CGA:  26    -0.312441596016E+03   -0.58824E-05   -0.58809E-05  9568   0.121E-03 0.154E-06
 157 F= -.31244160E+03 E0= -.31242343E+03  d E =0.260034E-02  mag=    24.2083
       N       E                     dE             d eps       ncg     rms          ort
SDA:   1    -0.311643939115E+03    0.79765E+00    0.00000E+00  9568   0.553E+01 0.000E+00
CGA:   2    -0.311773300777E+03   -0.12936E+00   -0.11846E+00  9568   0.308E+01 0.220E+00
CGA:   3    -0.312035030223E+03   -0.26173E+00   -0.25914E+00  9568   0.373E+01 0.598E-01
CGA:   4    -0.312211949253E+03   -0.17692E+00   -0.17699E+00  9568   0.252E+01-0.409E-01
CGA:   5    -0.312275688667E+03   -0.63739E-01   -0.58123E-01  9568   0.106E+01 0.117E+00
CGA:   6    -0.312329682866E+03   -0.53994E-01   -0.53826E-01  9568   0.187E+01 0.254E-01
CGA:   7    -0.312388968971E+03   -0.59286E-01   -0.61510E-01  9568   0.656E+00 0.201E-01
CGA:   8    -0.312404266597E+03   -0.15298E-01   -0.15075E-01  9568   0.404E+00 0.450E-02
CGA:   9    -0.312416390712E+03   -0.12124E-01   -0.12021E-01  9568   0.163E+00-0.412E-03
CGA:  10    -0.312423191406E+03   -0.68007E-02   -0.68031E-02  9568   0.234E+00 0.173E-02
CGA:  11    -0.312429662886E+03   -0.64715E-02   -0.64078E-02  9568   0.868E-01 0.242E-03
CGA:  12    -0.312433009508E+03   -0.33466E-02   -0.33418E-02  9568   0.536E-01-0.680E-03
CGA:  13    -0.312434104660E+03   -0.10952E-02   -0.11092E-02  9568   0.202E-01-0.337E-03
CGA:  14    -0.312435362671E+03   -0.12580E-02   -0.12557E-02  9568   0.405E-01 0.896E-04
CGA:  15    -0.312436707601E+03   -0.13449E-02   -0.13422E-02  9568   0.977E-02-0.766E-04
CGA:  16    -0.312436996994E+03   -0.28939E-03   -0.29001E-03  9568   0.970E-02 0.856E-05
CGA:  17    -0.312437401815E+03   -0.40482E-03   -0.40487E-03  9568   0.528E-02-0.262E-04
CGA:  18    -0.312437642632E+03   -0.24082E-03   -0.24072E-03  9568   0.468E-02 0.152E-04
CGA:  19    -0.312437769708E+03   -0.12708E-03   -0.12743E-03  9568   0.349E-02 0.898E-05
CGA:  20    -0.312437985585E+03   -0.21588E-03   -0.21607E-03  9568   0.268E-02-0.806E-05
CGA:  21    -0.312438058538E+03   -0.72953E-04   -0.72733E-04  9568   0.154E-02-0.158E-05
CGA:  22    -0.312438128317E+03   -0.69779E-04   -0.69730E-04  9568   0.137E-02 0.781E-05
CGA:  23    -0.312438166704E+03   -0.38387E-04   -0.38368E-04  9568   0.929E-03-0.429E-06
CGA:  24    -0.312438249863E+03   -0.83159E-04   -0.83355E-04  9568   0.102E-02-0.406E-05
CGA:  25    -0.312438274010E+03   -0.24147E-04   -0.24227E-04  9568   0.539E-03 0.229E-05
CGA:  26    -0.312438293446E+03   -0.19436E-04   -0.19437E-04  9568   0.303E-03 0.921E-06
CGA:  27    -0.312438317054E+03   -0.23608E-04   -0.23729E-04  9568   0.676E-03-0.319E-05
CGA:  28    -0.312438337322E+03   -0.20268E-04   -0.20272E-04  9568   0.262E-03-0.573E-06
CGA:  29    -0.312438345940E+03   -0.86174E-05   -0.86187E-05  9568   0.206E-03 0.187E-06
 158 F= -.31243835E+03 E0= -.31242012E+03  d E =0.325008E-02  mag=    24.2194
       N       E                     dE             d eps       ncg     rms          ort
SDA:   1    -0.311920855441E+03    0.51748E+00    0.00000E+00  9568   0.239E+01 0.000E+00
CGA:   2    -0.312051934001E+03   -0.13108E+00   -0.12998E+00  9568   0.350E+01 0.666E-01
CGA:   3    -0.312216017520E+03   -0.16408E+00   -0.16343E+00  9568   0.170E+01 0.126E+00
CGA:   4    -0.312293535979E+03   -0.77518E-01   -0.77622E-01  9568   0.103E+01-0.380E-01
CGA:   5    -0.312336946263E+03   -0.43410E-01   -0.43438E-01  9568   0.156E+01-0.250E-01
CGA:   6    -0.312395680974E+03   -0.58735E-01   -0.58983E-01  9568   0.421E+00 0.251E-01
CGA:   7    -0.312415642482E+03   -0.19962E-01   -0.19916E-01  9568   0.449E+00 0.668E-02
CGA:   8    -0.312426068120E+03   -0.10426E-01   -0.10134E-01  9568   0.137E+00 0.589E-02
CGA:   9    -0.312434634948E+03   -0.85668E-02   -0.84798E-02  9568   0.173E+00 0.371E-02
CGA:  10    -0.312439354575E+03   -0.47196E-02   -0.47085E-02  9568   0.521E-01 0.802E-04
CGA:  11    -0.312440914377E+03   -0.15598E-02   -0.15500E-02  9568   0.356E-01-0.965E-04
CGA:  12    -0.312442107016E+03   -0.11926E-02   -0.11940E-02  9568   0.254E-01 0.469E-04
CGA:  13    -0.312443509478E+03   -0.14025E-02   -0.14001E-02  9568   0.214E-01 0.134E-03
CGA:  14    -0.312443950256E+03   -0.44078E-03   -0.43884E-03  9568   0.838E-02 0.477E-04
CGA:  15    -0.312444408866E+03   -0.45861E-03   -0.45890E-03  9568   0.679E-02-0.153E-04
CGA:  16    -0.312444625819E+03   -0.21695E-03   -0.21707E-03  9568   0.580E-02 0.733E-05
CGA:  17    -0.312444867536E+03   -0.24172E-03   -0.24173E-03  9568   0.459E-02-0.643E-05
CGA:  18    -0.312445000836E+03   -0.13330E-03   -0.13375E-03  9568   0.269E-02 0.748E-05
CGA:  19    -0.312445138365E+03   -0.13753E-03   -0.13741E-03  9568   0.207E-02 0.728E-05
CGA:  20    -0.312445198250E+03   -0.59886E-04   -0.59841E-04  9568   0.184E-02-0.103E-05
CGA:  21    -0.312445286419E+03   -0.88169E-04   -0.88055E-04  9568   0.110E-02 0.128E-04
CGA:  22    -0.312445334543E+03   -0.48123E-04   -0.48127E-04  9568   0.141E-02-0.400E-06
CGA:  23    -0.312445384917E+03   -0.50374E-04   -0.50337E-04  9568   0.953E-03-0.595E-05
CGA:  24    -0.312445418162E+03   -0.33245E-04   -0.33280E-04  9568   0.657E-03 0.413E-05
CGA:  25    -0.312445440579E+03   -0.22417E-04   -0.22439E-04  9568   0.362E-03 0.291E-05
CGA:  26    -0.312445461587E+03   -0.21009E-04   -0.21040E-04  9568   0.809E-03-0.169E-05
CGA:  27    -0.312445487827E+03   -0.26240E-04   -0.26247E-04  9568   0.226E-03 0.804E-06
CGA:  28    -0.312445498082E+03   -0.10255E-04   -0.10247E-04  9568   0.262E-03 0.164E-05
CGA:  29    -0.312445505912E+03   -0.78295E-05   -0.78262E-05  9568   0.152E-03-0.258E-06
 159 F= -.31244551E+03 E0= -.31242731E+03  d E =-.715997E-02  mag=    24.2190
       N       E                     dE             d eps       ncg     rms          ort
SDA:   1    -0.312007589541E+03    0.43791E+00    0.00000E+00  9568   0.424E+01 0.000E+00
CGA:   2    -0.312109545427E+03   -0.10196E+00   -0.10154E+00  9568   0.158E+01-0.155E-02
CGA:   3    -0.312202950742E+03   -0.93405E-01   -0.96295E-01  9568   0.230E+01-0.113E+00
CGA:   4    -0.312338649661E+03   -0.13570E+00   -0.13522E+00  9568   0.105E+01 0.184E-01
CGA:   5    -0.312366264016E+03   -0.27614E-01   -0.28635E-01  9568   0.670E+00-0.257E-02
CGA:   6    -0.312404815211E+03   -0.38551E-01   -0.38109E-01  9568   0.411E+00 0.213E-01
CGA:   7    -0.312422385292E+03   -0.17570E-01   -0.17571E-01  9568   0.435E+00 0.129E-02
CGA:   8    -0.312436400496E+03   -0.14015E-01   -0.14000E-01  9568   0.730E-01-0.365E-03
CGA:   9    -0.312440709960E+03   -0.43095E-02   -0.42948E-02  9568   0.535E-01 0.672E-03
CGA:  10    -0.312444398160E+03   -0.36882E-02   -0.36953E-02  9568   0.406E-01-0.240E-03
CGA:  11    -0.312445420288E+03   -0.10221E-02   -0.10079E-02  9568   0.152E-01 0.173E-03
CGA:  12    -0.312446047838E+03   -0.62755E-03   -0.62798E-03  9568   0.913E-02 0.150E-03
CGA:  13    -0.312446516288E+03   -0.46845E-03   -0.46889E-03  9568   0.142E-01-0.380E-04
CGA:  14    -0.312447074472E+03   -0.55818E-03   -0.55839E-03  9568   0.293E-02 0.224E-04
CGA:  15    -0.312447286443E+03   -0.21197E-03   -0.21190E-03  9568   0.192E-02 0.200E-05
CGA:  16    -0.312447369604E+03   -0.83162E-04   -0.83159E-04  9568   0.235E-02-0.452E-06
CGA:  17    -0.312447497542E+03   -0.12794E-03   -0.12774E-03  9568   0.143E-02 0.149E-04
CGA:  18    -0.312447561725E+03   -0.64182E-04   -0.64183E-04  9568   0.913E-03-0.787E-05
CGA:  19    -0.312447592877E+03   -0.31153E-04   -0.31169E-04  9568   0.899E-03 0.109E-05
CGA:  20    -0.312447637226E+03   -0.44349E-04   -0.44334E-04  9568   0.383E-03 0.293E-05
CGA:  21    -0.312447672810E+03   -0.35583E-04   -0.35461E-04  9568   0.649E-03 0.252E-05
CGA:  22    -0.312447692874E+03   -0.20065E-04   -0.20031E-04  9568   0.308E-03-0.159E-06
CGA:  23    -0.312447711715E+03   -0.18841E-04   -0.18825E-04  9568   0.141E-03 0.871E-06
CGA:  24    -0.312447725833E+03   -0.14118E-04   -0.14016E-04  9568   0.229E-03 0.180E-05
CGA:  25    -0.312447732873E+03   -0.70400E-05   -0.70655E-05  9568   0.163E-03 0.101E-05
 160 F= -.31244773E+03 E0= -.31242953E+03  d E =-.222696E-02  mag=    24.2022
       N       E                     dE             d eps       ncg     rms          ort
SDA:   1    -0.312298279054E+03    0.14945E+00    0.00000E+00  9568   0.942E+00 0.000E+00
CGA:   2    -0.312322661862E+03   -0.24383E-01   -0.22852E-01  9568   0.637E+00 0.311E-01
CGA:   3    -0.312385126348E+03   -0.62464E-01   -0.61795E-01  9568   0.711E+00 0.143E-01
CGA:   4    -0.312405095687E+03   -0.19969E-01   -0.19136E-01  9568   0.331E+00 0.136E-01
CGA:   5    -0.312421515745E+03   -0.16420E-01   -0.16419E-01  9568   0.225E+00 0.153E-02
CGA:   6    -0.312438873965E+03   -0.17358E-01   -0.17276E-01  9568   0.152E+00 0.256E-02
CGA:   7    -0.312442938216E+03   -0.40643E-02   -0.40208E-02  9568   0.778E-01 0.713E-03
CGA:   8    -0.312445734448E+03   -0.27962E-02   -0.27945E-02  9568   0.393E-01-0.300E-04
CGA:   9    -0.312447780782E+03   -0.20463E-02   -0.20485E-02  9568   0.468E-01-0.304E-03
CGA:  10    -0.312449098003E+03   -0.13172E-02   -0.13298E-02  9568   0.938E-02-0.106E-03
CGA:  11    -0.312449651524E+03   -0.55352E-03   -0.55276E-03  9568   0.658E-02 0.442E-04
CGA:  12    -0.312449848866E+03   -0.19734E-03   -0.19696E-03  9568   0.657E-02-0.163E-05
CGA:  13    -0.312450258145E+03   -0.40928E-03   -0.40856E-03  9568   0.181E-02 0.382E-04
CGA:  14    -0.312450352798E+03   -0.94652E-04   -0.94668E-04  9568   0.181E-02-0.322E-05
CGA:  15    -0.312450417109E+03   -0.64311E-04   -0.64222E-04  9568   0.170E-02-0.252E-05
CGA:  16    -0.312450486640E+03   -0.69531E-04   -0.69601E-04  9568   0.713E-03 0.793E-05
CGA:  17    -0.312450519689E+03   -0.33048E-04   -0.33049E-04  9568   0.929E-03 0.486E-06
CGA:  18    -0.312450560225E+03   -0.40536E-04   -0.40522E-04  9568   0.318E-03-0.275E-05
CGA:  19    -0.312450578313E+03   -0.18088E-04   -0.18056E-04  9568   0.429E-03 0.285E-05
CGA:  20    -0.312450590640E+03   -0.12327E-04   -0.12311E-04  9568   0.267E-03-0.297E-06
CGA:  21    -0.312450614316E+03   -0.23676E-04   -0.23767E-04  9568   0.150E-03-0.221E-05
CGA:  22    -0.312450622711E+03   -0.83949E-05   -0.83817E-05  9568   0.116E-03 0.157E-05
 161 F= -.31245062E+03 E0= -.31243244E+03  d E =-.288984E-02  mag=    24.2058
       N       E                     dE             d eps       ncg     rms          ort
SDA:   1    -0.312433240529E+03    0.17374E-01    0.00000E+00  9568   0.564E+00 0.000E+00
CGA:   2    -0.312441521931E+03   -0.82814E-02   -0.76317E-02  9568   0.500E-01 0.381E-01
CGA:   3    -0.312443710325E+03   -0.21884E-02   -0.21932E-02  9568   0.401E-01 0.357E-03
CGA:   4    -0.312445616631E+03   -0.19063E-02   -0.19059E-02  9568   0.658E-01 0.203E-03
CGA:   5    -0.312447721702E+03   -0.21051E-02   -0.20977E-02  9568   0.171E-01-0.547E-04
CGA:   6    -0.312448403792E+03   -0.68209E-03   -0.68265E-03  9568   0.210E-01 0.416E-04
CGA:   7    -0.312449233414E+03   -0.82962E-03   -0.83044E-03  9568   0.130E-01 0.573E-04
CGA:   8    -0.312449692622E+03   -0.45921E-03   -0.45844E-03  9568   0.131E-01-0.192E-04
CGA:   9    -0.312450140233E+03   -0.44761E-03   -0.44736E-03  9568   0.217E-02-0.617E-06
CGA:  10    -0.312450225232E+03   -0.84999E-04   -0.85046E-04  9568   0.333E-02 0.571E-05
CGA:  11    -0.312450357575E+03   -0.13234E-03   -0.13231E-03  9568   0.131E-02-0.481E-05
CGA:  12    -0.312450425102E+03   -0.67526E-04   -0.67598E-04  9568   0.636E-03-0.624E-05
CGA:  13    -0.312450437971E+03   -0.12869E-04   -0.12920E-04  9568   0.302E-03-0.654E-07
CGA:  14    -0.312450466817E+03   -0.28846E-04   -0.28965E-04  9568   0.388E-03-0.230E-05
CGA:  15    -0.312450476558E+03   -0.97412E-05   -0.97329E-05  9568   0.161E-03-0.900E-06
 162 F= -.31245048E+03 E0= -.31243228E+03  d E =0.146153E-03  mag=    24.2095
       N       E                     dE             d eps       ncg     rms          ort
SDA:   1    -0.312419163191E+03    0.31304E-01    0.00000E+00  9568   0.938E+00 0.000E+00
CGA:   2    -0.312431269728E+03   -0.12107E-01   -0.13070E-01  9568   0.708E-01-0.548E-01
CGA:   3    -0.312437644626E+03   -0.63749E-02   -0.64069E-02  9568   0.180E+00-0.619E-03
CGA:   4    -0.312442780950E+03   -0.51363E-02   -0.51912E-02  9568   0.431E-01-0.200E-03
CGA:   5    -0.312445098898E+03   -0.23179E-02   -0.23288E-02  9568   0.525E-01-0.809E-03
CGA:   6    -0.312446965276E+03   -0.18664E-02   -0.18698E-02  9568   0.316E-01 0.981E-04
CGA:   7    -0.312448468981E+03   -0.15037E-02   -0.15042E-02  9568   0.153E-01-0.104E-03
CGA:   8    -0.312448918261E+03   -0.44928E-03   -0.45134E-03  9568   0.738E-02-0.387E-06
CGA:   9    -0.312449212281E+03   -0.29402E-03   -0.29376E-03  9568   0.453E-02-0.289E-04
CGA:  10    -0.312449441036E+03   -0.22876E-03   -0.22860E-03  9568   0.397E-02 0.187E-04
CGA:  11    -0.312449552421E+03   -0.11138E-03   -0.11119E-03  9568   0.107E-02 0.203E-05
CGA:  12    -0.312449602911E+03   -0.50490E-04   -0.50468E-04  9568   0.877E-03 0.434E-05
CGA:  13    -0.312449635197E+03   -0.32286E-04   -0.32264E-04  9568   0.706E-03-0.242E-05
CGA:  14    -0.312449672757E+03   -0.37560E-04   -0.37526E-04  9568   0.317E-03 0.308E-05
CGA:  15    -0.312449681961E+03   -0.92042E-05   -0.91870E-05  9568   0.210E-03-0.903E-06
CGA:  16    -0.312449697249E+03   -0.15288E-04   -0.15263E-04  9568   0.174E-03 0.857E-06
CGA:  17    -0.312449702246E+03   -0.49969E-05   -0.49805E-05  9568   0.107E-03-0.897E-06
 163 F= -.31244970E+03 E0= -.31243150E+03  d E =0.774312E-03  mag=    24.2119
       N       E                     dE             d eps       ncg     rms          ort
SDA:   1    -0.312428208887E+03    0.21488E-01    0.00000E+00  9568   0.810E+00 0.000E+00
CGA:   2    -0.312438445161E+03   -0.10236E-01   -0.11262E-01  9568   0.514E-01-0.578E-01
CGA:   3    -0.312441162646E+03   -0.27175E-02   -0.27256E-02  9568   0.694E-01-0.442E-03
CGA:   4    -0.312444057291E+03   -0.28946E-02   -0.28961E-02  9568   0.506E-01 0.291E-03
CGA:   5    -0.312445935347E+03   -0.18781E-02   -0.18740E-02  9568   0.208E-01-0.184E-03
CGA:   6    -0.312446857947E+03   -0.92260E-03   -0.92249E-03  9568   0.222E-01 0.110E-03
CGA:   7    -0.312447791954E+03   -0.93401E-03   -0.93367E-03  9568   0.125E-01-0.712E-04
CGA:   8    -0.312448350530E+03   -0.55858E-03   -0.55850E-03  9568   0.809E-02 0.481E-04
CGA:   9    -0.312448561359E+03   -0.21083E-03   -0.21004E-03  9568   0.216E-02 0.173E-05
CGA:  10    -0.312448688820E+03   -0.12746E-03   -0.12722E-03  9568   0.290E-02 0.133E-04
CGA:  11    -0.312448788575E+03   -0.99756E-04   -0.99698E-04  9568   0.116E-02-0.232E-05
CGA:  12    -0.312448833879E+03   -0.45303E-04   -0.45316E-04  9568   0.557E-03 0.171E-05
CGA:  13    -0.312448851036E+03   -0.17157E-04   -0.17120E-04  9568   0.341E-03-0.206E-05
CGA:  14    -0.312448877138E+03   -0.26102E-04   -0.26033E-04  9568   0.417E-03 0.204E-05
CGA:  15    -0.312448888183E+03   -0.11045E-04   -0.11015E-04  9568   0.125E-03-0.130E-05
CGA:  16    -0.312448895195E+03   -0.70115E-05   -0.70139E-05  9568   0.155E-03-0.165E-06
 164 F= -.31244890E+03 E0= -.31243066E+03  d E =0.807051E-03  mag=    24.2149
       N       E                     dE             d eps       ncg     rms          ort
SDA:   1    -0.312415415572E+03    0.33473E-01    0.00000E+00  9568   0.534E+00 0.000E+00
CGA:   2    -0.312423314120E+03   -0.78985E-02   -0.74927E-02  9568   0.765E-01 0.217E-01
CGA:   3    -0.312433472570E+03   -0.10158E-01   -0.10324E-01  9568   0.185E+00-0.222E-02
CGA:   4    -0.312438636909E+03   -0.51643E-02   -0.52025E-02  9568   0.114E+00-0.217E-03
CGA:   5    -0.312441823920E+03   -0.31870E-02   -0.31929E-02  9568   0.365E-01-0.259E-04
CGA:   6    -0.312444140221E+03   -0.23163E-02   -0.23350E-02  9568   0.455E-01-0.780E-03
CGA:   7    -0.312445420939E+03   -0.12807E-02   -0.12852E-02  9568   0.256E-01-0.325E-04
CGA:   8    -0.312446459483E+03   -0.10385E-02   -0.10373E-02  9568   0.124E-01-0.114E-03
CGA:   9    -0.312446724260E+03   -0.26478E-03   -0.26388E-03  9568   0.395E-02 0.299E-04
CGA:  10    -0.312447071408E+03   -0.34715E-03   -0.34697E-03  9568   0.418E-02 0.389E-05
CGA:  11    -0.312447177981E+03   -0.10657E-03   -0.10625E-03  9568   0.251E-02 0.876E-06
CGA:  12    -0.312447264411E+03   -0.86430E-04   -0.86591E-04  9568   0.597E-03 0.474E-05
CGA:  13    -0.312447324116E+03   -0.59704E-04   -0.59362E-04  9568   0.141E-02 0.622E-05
CGA:  14    -0.312447353118E+03   -0.29002E-04   -0.28968E-04  9568   0.279E-03 0.760E-06
CGA:  15    -0.312447375563E+03   -0.22445E-04   -0.22489E-04  9568   0.296E-03-0.120E-05
CGA:  16    -0.312447385239E+03   -0.96760E-05   -0.97073E-05  9568   0.172E-03 0.167E-05
 165 F= -.31244739E+03 E0= -.31242914E+03  d E =0.150996E-02  mag=    24.2164
       N       E                     dE             d eps       ncg     rms          ort
SDA:   1    -0.312414480024E+03    0.32896E-01    0.00000E+00  9568   0.459E+00 0.000E+00
CGA:   2    -0.312423696593E+03   -0.92166E-02   -0.89083E-02  9568   0.124E+00 0.993E-02
CGA:   3    -0.312428226036E+03   -0.45294E-02   -0.45629E-02  9568   0.991E-01 0.976E-03
CGA:   4    -0.312439535158E+03   -0.11309E-01   -0.11320E-01  9568   0.462E-01-0.163E-03
CGA:   5    -0.312441101324E+03   -0.15662E-02   -0.15770E-02  9568   0.461E-01 0.934E-04
CGA:   6    -0.312444117134E+03   -0.30158E-02   -0.30165E-02  9568   0.248E-01-0.352E-04
CGA:   7    -0.312444832929E+03   -0.71579E-03   -0.72050E-03  9568   0.164E-01-0.187E-04
CGA:   8    -0.312445442974E+03   -0.61004E-03   -0.61045E-03  9568   0.514E-02 0.154E-04
CGA:   9    -0.312445737910E+03   -0.29494E-03   -0.29511E-03  9568   0.422E-02-0.115E-04
CGA:  10    -0.312445928773E+03   -0.19086E-03   -0.19085E-03  9568   0.301E-02-0.195E-05
CGA:  11    -0.312446006882E+03   -0.78110E-04   -0.78289E-04  9568   0.834E-03 0.331E-05
CGA:  12    -0.312446058215E+03   -0.51332E-04   -0.51367E-04  9568   0.144E-02-0.206E-05
CGA:  13    -0.312446103602E+03   -0.45387E-04   -0.45406E-04  9568   0.307E-03 0.960E-06
CGA:  14    -0.312446130155E+03   -0.26553E-04   -0.26648E-04  9568   0.355E-03-0.232E-05
CGA:  15    -0.312446141653E+03   -0.11498E-04   -0.11517E-04  9568   0.249E-03 0.790E-06
CGA:  16    -0.312446151141E+03   -0.94882E-05   -0.94796E-05  9568   0.102E-03-0.639E-06
 166 F= -.31244615E+03 E0= -.31242792E+03  d E =0.123410E-02  mag=    24.2193
       N       E                     dE             d eps       ncg     rms          ort
SDA:   1    -0.312418883114E+03    0.27259E-01    0.00000E+00  9568   0.979E+00 0.000E+00
CGA:   2    -0.312431527401E+03   -0.12644E-01   -0.14563E-01  9568   0.699E-01-0.100E+00
CGA:   3    -0.312433781635E+03   -0.22542E-02   -0.22473E-02  9568   0.739E-01-0.179E-03
CGA:   4    -0.312439124021E+03   -0.53424E-02   -0.53032E-02  9568   0.848E-01 0.127E-02
CGA:   5    -0.312442295567E+03   -0.31715E-02   -0.31517E-02  9568   0.327E-01-0.480E-03
CGA:   6    -0.312443320502E+03   -0.10249E-02   -0.10301E-02  9568   0.117E-01 0.256E-04
CGA:   7    -0.312443874348E+03   -0.55385E-03   -0.55399E-03  9568   0.159E-01-0.420E-04
CGA:   8    -0.312444551710E+03   -0.67736E-03   -0.67767E-03  9568   0.623E-02 0.628E-04
CGA:   9    -0.312444727802E+03   -0.17609E-03   -0.17590E-03  9568   0.249E-02 0.701E-06
CGA:  10    -0.312444862086E+03   -0.13428E-03   -0.13427E-03  9568   0.156E-02 0.312E-05
CGA:  11    -0.312444913052E+03   -0.50966E-04   -0.50911E-04  9568   0.891E-03-0.134E-05
CGA:  12    -0.312444954086E+03   -0.41034E-04   -0.41024E-04  9568   0.716E-03 0.387E-05
CGA:  13    -0.312444976931E+03   -0.22845E-04   -0.22825E-04  9568   0.349E-03-0.939E-06
CGA:  14    -0.312444995595E+03   -0.18664E-04   -0.18639E-04  9568   0.245E-03 0.247E-05
CGA:  15    -0.312445003546E+03   -0.79509E-05   -0.79388E-05  9568   0.106E-03-0.567E-06
 167 F= -.31244500E+03 E0= -.31242679E+03  d E =0.114759E-02  mag=    24.2207
