       N       E                     dE             d eps       ncg     rms          rms(c)
DAV:   1     0.669123229151E+04    0.66912E+04   -0.27338E+05 36200   0.155E+03
DAV:   2     0.425419023881E+03   -0.62658E+04   -0.60108E+04 36520   0.479E+02
DAV:   3    -0.368805262755E+03   -0.79422E+03   -0.77529E+03 39336   0.178E+02
DAV:   4    -0.413293336640E+03   -0.44488E+02   -0.43227E+02 51560   0.430E+01
DAV:   5    -0.416838314266E+03   -0.35450E+01   -0.34917E+01 65040   0.867E+00    0.633E+01
DAV:   6    -0.354660312307E+03    0.62178E+02   -0.31998E+02 48104   0.379E+01    0.348E+01
DAV:   7    -0.375229371226E+03   -0.20569E+02   -0.42811E+01 46536   0.160E+01    0.215E+01
DAV:   8    -0.379241260409E+03   -0.40119E+01   -0.49750E+00 50848   0.550E+00    0.135E+01
DAV:   9    -0.384124913975E+03   -0.48837E+01   -0.31431E+00 40512   0.368E+00    0.485E+00
DAV:  10    -0.386115116517E+03   -0.19902E+01   -0.89180E-01 45760   0.177E+00    0.334E+00
DAV:  11    -0.388174899620E+03   -0.20598E+01   -0.88466E-01 41600   0.145E+00    0.255E+00
DAV:  12    -0.391160274031E+03   -0.29854E+01   -0.27918E+00 41048   0.213E+00    0.125E+00
DAV:  13    -0.391878875836E+03   -0.71860E+00   -0.81019E-01 44264   0.132E+00    0.582E-01
DAV:  14    -0.391940484269E+03   -0.61608E-01   -0.90979E-02 42552   0.578E-01    0.332E-01
DAV:  15    -0.391940923597E+03   -0.43933E-03   -0.13952E-02 46288   0.294E-01    0.161E-01
DAV:  16    -0.391939221109E+03    0.17025E-02   -0.65087E-03 40392   0.192E-01    0.121E-01
DAV:  17    -0.391938797675E+03    0.42343E-03   -0.12014E-03 41176   0.959E-02    0.674E-02
DAV:  18    -0.391938670659E+03    0.12702E-03   -0.92462E-04 39032   0.666E-02    0.318E-02
DAV:  19    -0.391938621716E+03    0.48942E-04   -0.22696E-04 35600   0.380E-02    0.303E-02
DAV:  20    -0.391938598157E+03    0.23560E-04   -0.92792E-05 40120   0.274E-02    0.849E-03
DAV:  21    -0.391938599221E+03   -0.10649E-05   -0.26299E-05 33416   0.122E-02
   1 F= -.39193860E+03 E0= -.39193860E+03  d E =-.391939E+03  mag=    35.9998
       N       E                     dE             d eps       ncg     rms          rms(c)
DAV:   1    -0.391939672589E+03   -0.10744E-02   -0.53154E-04 37512   0.582E-02    0.800E-03
DAV:   2    -0.391939674988E+03   -0.23997E-05   -0.30481E-05 32712   0.121E-02    0.407E-03
DAV:   3    -0.391939675075E+03   -0.87166E-07   -0.17212E-06 21664   0.363E-03    0.222E-03
DAV:   4    -0.391939675057E+03    0.18379E-07   -0.51763E-07 20552   0.204E-03
   2 F= -.39193968E+03 E0= -.39193968E+03  d E =-.107584E-02  mag=    35.9999
       N       E                     dE             d eps       ncg     rms          rms(c)
DAV:   1    -0.391968128035E+03   -0.28453E-01   -0.46660E-01 38576   0.172E+00    0.206E-01
DAV:   2    -0.391970503568E+03   -0.23755E-02   -0.25365E-02 36784   0.310E-01    0.105E-01
DAV:   3    -0.391970630520E+03   -0.12695E-03   -0.69480E-04 54360   0.565E-02    0.614E-02
DAV:   4    -0.391970611324E+03    0.19195E-04   -0.78832E-05 45920   0.239E-02    0.346E-02
DAV:   5    -0.391970613040E+03   -0.17156E-05   -0.32343E-05 38608   0.203E-02
   3 F= -.39197061E+03 E0= -.39197061E+03  d E =-.309380E-01  mag=    36.0000
       N       E                     dE             d eps       ncg     rms          rms(c)
DAV:   1    -0.392031541237E+03   -0.60930E-01   -0.40922E+00 38112   0.512E+00    0.613E-01
DAV:   2    -0.392052553871E+03   -0.21013E-01   -0.22451E-01 36776   0.925E-01    0.312E-01
DAV:   3    -0.392053728486E+03   -0.11746E-02   -0.61719E-03 56296   0.167E-01    0.180E-01
DAV:   4    -0.392053574780E+03    0.15371E-03   -0.67712E-04 51200   0.709E-02    0.102E-01
DAV:   5    -0.392053588124E+03   -0.13344E-04   -0.28730E-04 46648   0.614E-02    0.248E-02
DAV:   6    -0.392053601014E+03   -0.12891E-04   -0.14674E-04 41648   0.279E-02    0.171E-02
DAV:   7    -0.392053599132E+03    0.18818E-05   -0.12817E-05 30072   0.883E-03
   4 F= -.39205360E+03 E0= -.39205360E+03  d E =-.829861E-01  mag=    36.0000
       N       E                     dE             d eps       ncg     rms          rms(c)
DAV:   1    -0.392103293223E+03   -0.49692E-01   -0.11222E+01 38384   0.862E+00    0.102E+00
DAV:   2    -0.392160973396E+03   -0.57680E-01   -0.61349E-01 36720   0.156E+00    0.518E-01
DAV:   3    -0.392164291057E+03   -0.33177E-02   -0.16816E-02 58488   0.275E-01    0.297E-01
DAV:   4    -0.392163879754E+03    0.41130E-03   -0.17619E-03 50184   0.115E-01    0.164E-01
DAV:   5    -0.392163943635E+03   -0.63881E-04   -0.79318E-04 46384   0.979E-02    0.417E-02
DAV:   6    -0.392163976535E+03   -0.32899E-04   -0.37361E-04 43496   0.434E-02    0.275E-02
DAV:   7    -0.392163972491E+03    0.40438E-05   -0.35949E-05 42760   0.138E-02
   5 F= -.39216397E+03 E0= -.39216397E+03  d E =-.110373E+00  mag=    36.0000
       N       E                     dE             d eps       ncg     rms          rms(c)
DAV:   1    -0.392122618547E+03    0.41358E-01   -0.26032E+01 37928   0.136E+01    0.160E+00
DAV:   2    -0.392267367040E+03   -0.14475E+00   -0.15139E+00 36736   0.249E+00    0.801E-01
DAV:   3    -0.392275614521E+03   -0.82475E-02   -0.39267E-02 58232   0.428E-01    0.452E-01
DAV:   4    -0.392274867460E+03    0.74706E-03   -0.40763E-03 51272   0.159E-01    0.255E-01
DAV:   5    -0.392275150267E+03   -0.28281E-03   -0.16442E-03 45752   0.127E-01    0.630E-02
DAV:   6    -0.392275219752E+03   -0.69485E-04   -0.61372E-04 45056   0.571E-02    0.377E-02
DAV:   7    -0.392275215108E+03    0.46436E-05   -0.74963E-05 47592   0.196E-02
   6 F= -.39227522E+03 E0= -.39227522E+03  d E =-.111243E+00  mag=    36.0000
       N       E                     dE             d eps       ncg     rms          rms(c)
DAV:   1    -0.392160902218E+03    0.11432E+00   -0.34355E+01 37480   0.155E+01    0.169E+00
DAV:   2    -0.392332233871E+03   -0.17133E+00   -0.17630E+00 36552   0.280E+00    0.834E-01
DAV:   3    -0.392341610361E+03   -0.93765E-02   -0.41708E-02 58696   0.453E-01    0.476E-01
DAV:   4    -0.392340805191E+03    0.80517E-03   -0.43176E-03 49296   0.159E-01    0.267E-01
DAV:   5    -0.392341240117E+03   -0.43493E-03   -0.18462E-03 45872   0.119E-01    0.727E-02
DAV:   6    -0.392341304127E+03   -0.64009E-04   -0.55901E-04 45216   0.525E-02    0.387E-02
DAV:   7    -0.392341304322E+03   -0.19516E-06   -0.73307E-05 46112   0.190E-02
   7 F= -.39234130E+03 E0= -.39234130E+03  d E =-.660892E-01  mag=    36.0000
       N       E                     dE             d eps       ncg     rms          rms(c)
DAV:   1    -0.392098842740E+03    0.24246E+00   -0.69774E+01 37080   0.210E+01    0.193E+00
DAV:   2    -0.392370821013E+03   -0.27198E+00   -0.27822E+00 36208   0.369E+00    0.971E-01
DAV:   3    -0.392381450563E+03   -0.10630E-01   -0.64344E-02 58016   0.580E-01    0.584E-01
DAV:   4    -0.392379741017E+03    0.17095E-02   -0.79547E-03 49832   0.210E-01    0.339E-01
DAV:   5    -0.392380088200E+03   -0.34718E-03   -0.27920E-03 43848   0.151E-01    0.942E-02
DAV:   6    -0.392380193782E+03   -0.10558E-03   -0.10842E-03 45416   0.745E-02    0.544E-02
DAV:   7    -0.392380204187E+03   -0.10406E-04   -0.15761E-04 45848   0.268E-02    0.306E-02
DAV:   8    -0.392380201145E+03    0.30427E-05   -0.21507E-05 30952   0.141E-02
   8 F= -.39238020E+03 E0= -.39238020E+03  d E =-.388968E-01  mag=    36.0000
       N       E                     dE             d eps       ncg     rms          rms(c)
DAV:   1    -0.392031690945E+03    0.34851E+00   -0.91111E+01 37896   0.251E+01    0.226E+00
DAV:   2    -0.392399407016E+03   -0.36772E+00   -0.37070E+00 37104   0.432E+00    0.118E+00
DAV:   3    -0.392413193469E+03   -0.13786E-01   -0.72774E-02 52040   0.680E-01    0.718E-01
DAV:   4    -0.392411258444E+03    0.19350E-02   -0.10707E-02 53112   0.259E-01    0.449E-01
DAV:   5    -0.392411451029E+03   -0.19259E-03   -0.44948E-03 46864   0.238E-01    0.116E-01
DAV:   6    -0.392411662663E+03   -0.21163E-03   -0.20732E-03 45568   0.101E-01    0.669E-02
DAV:   7    -0.392411661624E+03    0.10383E-05   -0.28479E-04 51040   0.358E-02    0.364E-02
DAV:   8    -0.392411656202E+03    0.54227E-05   -0.31117E-05 36944   0.186E-02
   9 F= -.39241166E+03 E0= -.39241166E+03  d E =-.314551E-01  mag=    36.0000
       N       E                     dE             d eps       ncg     rms          rms(c)
DAV:   1    -0.392382203182E+03    0.29458E-01   -0.51158E+00 38344   0.715E+00    0.908E-01
DAV:   2    -0.392424085761E+03   -0.41883E-01   -0.42425E-01 36680   0.132E+00    0.443E-01
DAV:   3    -0.392427689120E+03   -0.36034E-02   -0.82743E-03 44664   0.229E-01    0.242E-01
DAV:   4    -0.392427799201E+03   -0.11008E-03   -0.93953E-04 53288   0.753E-02    0.142E-01
DAV:   5    -0.392427987567E+03   -0.18837E-03   -0.36692E-04 42640   0.610E-02    0.392E-02
DAV:   6    -0.392427996837E+03   -0.92709E-05   -0.12228E-04 43328   0.282E-02    0.165E-02
DAV:   7    -0.392427996514E+03    0.32315E-06   -0.27978E-05 36416   0.129E-02
  10 F= -.39242800E+03 E0= -.39242800E+03  d E =-.163403E-01  mag=    36.0000
       N       E                     dE             d eps       ncg     rms          rms(c)
DAV:   1    -0.392429497529E+03   -0.15007E-02   -0.21786E-01 37680   0.128E+00    0.126E-01
DAV:   2    -0.392430485941E+03   -0.98841E-03   -0.10097E-02 36888   0.225E-01    0.606E-02
DAV:   3    -0.392430543967E+03   -0.58025E-04   -0.19085E-04 51088   0.354E-02    0.344E-02
DAV:   4    -0.392430540229E+03    0.37377E-05   -0.17377E-05 32096   0.119E-02
  11 F= -.39243054E+03 E0= -.39243054E+03  d E =-.254371E-02  mag=    36.0000
       N       E                     dE             d eps       ncg     rms          rms(c)
DAV:   1    -0.392428276842E+03    0.22671E-02   -0.23942E+00 37376   0.416E+00    0.387E-01
DAV:   2    -0.392438068055E+03   -0.97912E-02   -0.10038E-01 36680   0.719E-01    0.187E-01
DAV:   3    -0.392438491846E+03   -0.42379E-03   -0.18938E-03 53344   0.109E-01    0.108E-01
DAV:   4    -0.392438442001E+03    0.49845E-04   -0.23441E-04 52720   0.376E-02    0.635E-02
DAV:   5    -0.392438452714E+03   -0.10713E-04   -0.96785E-05 44448   0.320E-02    0.168E-02
DAV:   6    -0.392438457036E+03   -0.43218E-05   -0.43264E-05 39384   0.147E-02
  12 F= -.39243846E+03 E0= -.39243846E+03  d E =-.791681E-02  mag=    36.0000
       N       E                     dE             d eps       ncg     rms          rms(c)
DAV:   1    -0.392416557074E+03    0.21896E-01   -0.79952E+00 37904   0.752E+00    0.685E-01
DAV:   2    -0.392448431762E+03   -0.31875E-01   -0.32376E-01 36592   0.129E+00    0.329E-01
DAV:   3    -0.392449716794E+03   -0.12850E-02   -0.58820E-03 52568   0.192E-01    0.191E-01
DAV:   4    -0.392449560653E+03    0.15614E-03   -0.76057E-04 52832   0.659E-02    0.114E-01
DAV:   5    -0.392449591199E+03   -0.30545E-04   -0.32725E-04 45360   0.556E-02    0.306E-02
DAV:   6    -0.392449605160E+03   -0.13961E-04   -0.12750E-04 43064   0.241E-02    0.171E-02
DAV:   7    -0.392449604135E+03    0.10249E-05   -0.11969E-05 25712   0.939E-03
  13 F= -.39244960E+03 E0= -.39244960E+03  d E =-.111471E-01  mag=    36.0000
       N       E                     dE             d eps       ncg     rms          rms(c)
DAV:   1    -0.392135643341E+03    0.31396E+00   -0.65196E+01 37960   0.226E+01    0.220E+00
DAV:   2    -0.392445997928E+03   -0.31035E+00   -0.31086E+00 36168   0.395E+00    0.108E+00
DAV:   3    -0.392461404394E+03   -0.15406E-01   -0.57907E-02 48792   0.625E-01    0.614E-01
DAV:   4    -0.392460640679E+03    0.76372E-03   -0.76120E-03 53040   0.217E-01    0.376E-01
DAV:   5    -0.392461181537E+03   -0.54086E-03   -0.28081E-03 47248   0.188E-01    0.982E-02
DAV:   6    -0.392461331112E+03   -0.14957E-03   -0.12624E-03 44640   0.808E-02    0.550E-02
DAV:   7    -0.392461323165E+03    0.79470E-05   -0.16425E-04 50120   0.277E-02    0.312E-02
DAV:   8    -0.392461316974E+03    0.61909E-05   -0.17240E-05 30392   0.159E-02
  14 F= -.39246132E+03 E0= -.39246132E+03  d E =-.117128E-01  mag=    36.0000
       N       E                     dE             d eps       ncg     rms          rms(c)
DAV:   1    -0.392455851465E+03    0.54717E-02   -0.10757E+00 39096   0.354E+00    0.453E-01
DAV:   2    -0.392465366571E+03   -0.95151E-02   -0.97142E-02 36440   0.663E-01    0.235E-01
DAV:   3    -0.392466371809E+03   -0.10052E-02   -0.20583E-03 44776   0.123E-01    0.131E-01
DAV:   4    -0.392466384901E+03   -0.13092E-04   -0.19592E-04 51736   0.476E-02    0.753E-02
DAV:   5    -0.392466422550E+03   -0.37649E-04   -0.87787E-05 42432   0.494E-02    0.191E-02
DAV:   6    -0.392466426811E+03   -0.42612E-05   -0.75265E-05 41080   0.224E-02
  15 F= -.39246643E+03 E0= -.39246643E+03  d E =-.510984E-02  mag=    36.0000
       N       E                     dE             d eps       ncg     rms          rms(c)
DAV:   1    -0.392467134706E+03   -0.71216E-03   -0.77561E-02 37784   0.851E-01    0.921E-02
DAV:   2    -0.392467578700E+03   -0.44399E-03   -0.47291E-03 36840   0.159E-01    0.467E-02
DAV:   3    -0.392467609319E+03   -0.30619E-04   -0.10078E-04 47048   0.279E-02    0.276E-02
DAV:   4    -0.392467606568E+03    0.27505E-05   -0.96255E-06 28560   0.136E-02
  16 F= -.39246761E+03 E0= -.39246761E+03  d E =-.117976E-02  mag=    36.0000
       N       E                     dE             d eps       ncg     rms          rms(c)
DAV:   1    -0.392465611306E+03    0.19980E-02   -0.94613E-01 37848   0.289E+00    0.290E-01
DAV:   2    -0.392470443123E+03   -0.48318E-02   -0.50471E-02 36112   0.525E-01    0.147E-01
DAV:   3    -0.392470717429E+03   -0.27431E-03   -0.98722E-04 51072   0.834E-02    0.877E-02
DAV:   4    -0.392470696866E+03    0.20563E-04   -0.12637E-04 54200   0.320E-02    0.502E-02
DAV:   5    -0.392470702665E+03   -0.57992E-05   -0.46259E-05 40264   0.309E-02
  17 F= -.39247070E+03 E0= -.39247070E+03  d E =-.309610E-02  mag=    36.0000
       N       E                     dE             d eps       ncg     rms          rms(c)
DAV:   1    -0.392468749707E+03    0.19472E-02   -0.73296E-01 37840   0.254E+00    0.244E-01
DAV:   2    -0.392472363258E+03   -0.36136E-02   -0.36865E-02 36056   0.453E-01    0.115E-01
DAV:   3    -0.392472550742E+03   -0.18748E-03   -0.65782E-04 47568   0.689E-02    0.655E-02
DAV:   4    -0.392472544028E+03    0.67141E-05   -0.72551E-05 47840   0.224E-02
  18 F= -.39247254E+03 E0= -.39247254E+03  d E =-.184136E-02  mag=    36.0000
       N       E                     dE             d eps       ncg     rms          rms(c)
DAV:   1    -0.392405915962E+03    0.66635E-01   -0.13275E+01 37784   0.109E+01    0.105E+00
DAV:   2    -0.392473830210E+03   -0.67914E-01   -0.68579E-01 35808   0.194E+00    0.504E-01
DAV:   3    -0.392477478065E+03   -0.36479E-02   -0.11956E-02 45392   0.292E-01    0.283E-01
DAV:   4    -0.392477424638E+03    0.53427E-04   -0.13705E-03 57520   0.884E-02    0.169E-01
DAV:   5    -0.392477595314E+03   -0.17068E-03   -0.58929E-04 43200   0.695E-02    0.414E-02
DAV:   6    -0.392477616522E+03   -0.21207E-04   -0.16685E-04 42024   0.289E-02    0.219E-02
DAV:   7    -0.392477614108E+03    0.24132E-05   -0.15661E-05 28024   0.114E-02
  19 F= -.39247761E+03 E0= -.39247761E+03  d E =-.507008E-02  mag=    36.0000
       N       E                     dE             d eps       ncg     rms          rms(c)
DAV:   1    -0.392405155794E+03    0.72461E-01   -0.12862E+01 37672   0.106E+01    0.106E+00
DAV:   2    -0.392471160807E+03   -0.66005E-01   -0.68495E-01 35824   0.195E+00    0.528E-01
DAV:   3    -0.392475281123E+03   -0.41203E-02   -0.13935E-02 46344   0.323E-01    0.307E-01
DAV:   4    -0.392475152720E+03    0.12840E-03   -0.17180E-03 58328   0.121E-01    0.180E-01
DAV:   5    -0.392475303307E+03   -0.15059E-03   -0.64489E-04 44856   0.118E-01    0.453E-02
DAV:   6    -0.392475339842E+03   -0.36534E-04   -0.48264E-04 42608   0.545E-02    0.318E-02
DAV:   7    -0.392475333453E+03    0.63883E-05   -0.49928E-05 41472   0.160E-02
  20 F= -.39247533E+03 E0= -.39247533E+03  d E =0.228065E-02  mag=    36.0000
       N       E                     dE             d eps       ncg     rms          rms(c)
DAV:   1    -0.392470228785E+03    0.51111E-02   -0.10076E+00 38992   0.359E+00    0.465E-01
DAV:   2    -0.392480298114E+03   -0.10069E-01   -0.10364E-01 36088   0.688E-01    0.238E-01
DAV:   3    -0.392481388898E+03   -0.10908E-02   -0.21546E-03 43776   0.130E-01    0.131E-01
DAV:   4    -0.392481419946E+03   -0.31048E-04   -0.21887E-04 52792   0.511E-02    0.749E-02
DAV:   5    -0.392481471737E+03   -0.51791E-04   -0.83058E-05 42640   0.492E-02    0.194E-02
DAV:   6    -0.392481475944E+03   -0.42069E-05   -0.72722E-05 40048   0.225E-02
  21 F= -.39248148E+03 E0= -.39248148E+03  d E =-.614249E-02  mag=    36.0000
       N       E                     dE             d eps       ncg     rms          rms(c)
DAV:   1    -0.392481112971E+03    0.35877E-03   -0.32435E-01 38360   0.196E+00    0.236E-01
DAV:   2    -0.392483707584E+03   -0.25946E-02   -0.27452E-02 36256   0.372E-01    0.119E-01
DAV:   3    -0.392483962699E+03   -0.25511E-03   -0.57704E-04 47488   0.697E-02    0.677E-02
DAV:   4    -0.392483960841E+03    0.18576E-05   -0.63548E-05 47472   0.323E-02
  22 F= -.39248396E+03 E0= -.39248396E+03  d E =-.248490E-02  mag=    36.0000
       N       E                     dE             d eps       ncg     rms          rms(c)
DAV:   1    -0.392484678569E+03   -0.71587E-03   -0.59641E-02 37984   0.763E-01    0.825E-02
DAV:   2    -0.392485014046E+03   -0.33548E-03   -0.36301E-03 37576   0.141E-01    0.411E-02
DAV:   3    -0.392485035092E+03   -0.21045E-04   -0.82403E-05 47760   0.245E-02    0.243E-02
DAV:   4    -0.392485033365E+03    0.17267E-05   -0.85463E-06 27488   0.112E-02
  23 F= -.39248503E+03 E0= -.39248503E+03  d E =-.107252E-02  mag=    36.0000
       N       E                     dE             d eps       ncg     rms          rms(c)
DAV:   1    -0.392484120714E+03    0.91438E-03   -0.87783E-01 37880   0.281E+00    0.274E-01
DAV:   2    -0.392488389421E+03   -0.42687E-02   -0.44594E-02 36016   0.502E-01    0.134E-01
DAV:   3    -0.392488614518E+03   -0.22510E-03   -0.81045E-04 48048   0.776E-02    0.776E-02
DAV:   4    -0.392488607435E+03    0.70824E-05   -0.10302E-04 51288   0.274E-02    0.425E-02
DAV:   5    -0.392488618307E+03   -0.10872E-04   -0.37976E-05 35976   0.205E-02    0.113E-02
DAV:   6    -0.392488619366E+03   -0.10585E-05   -0.12920E-05 26624   0.965E-03
  24 F= -.39248862E+03 E0= -.39248862E+03  d E =-.358600E-02  mag=    36.0000
       N       E                     dE             d eps       ncg     rms          rms(c)
DAV:   1    -0.392488478989E+03    0.13932E-03   -0.12903E-01 37856   0.110E+00    0.108E-01
DAV:   2    -0.392489144108E+03   -0.66512E-03   -0.67759E-03 36216   0.196E-01    0.517E-02
DAV:   3    -0.392489186778E+03   -0.42669E-04   -0.12436E-04 43720   0.306E-02    0.293E-02
DAV:   4    -0.392489186592E+03    0.18588E-06   -0.92830E-06 28440   0.961E-03
  25 F= -.39248919E+03 E0= -.39248919E+03  d E =-.567226E-03  mag=    36.0000
       N       E                     dE             d eps       ncg     rms          rms(c)
DAV:   1    -0.392477378452E+03    0.11808E-01   -0.24094E+00 37632   0.459E+00    0.432E-01
DAV:   2    -0.392488754912E+03   -0.11376E-01   -0.11473E-01 35824   0.804E-01    0.207E-01
DAV:   3    -0.392489351827E+03   -0.59691E-03   -0.20633E-03 45520   0.122E-01    0.116E-01
DAV:   4    -0.392489341742E+03    0.10085E-04   -0.22564E-04 55832   0.372E-02    0.691E-02
DAV:   5    -0.392489369879E+03   -0.28137E-04   -0.99620E-05 39392   0.317E-02    0.171E-02
DAV:   6    -0.392489373926E+03   -0.40471E-05   -0.35486E-05 36288   0.137E-02
  26 F= -.39248937E+03 E0= -.39248937E+03  d E =-.187334E-03  mag=    36.0000
       N       E                     dE             d eps       ncg     rms          rms(c)
DAV:   1    -0.392354588993E+03    0.13478E+00   -0.27579E+01 37752   0.151E+01    0.138E+00
DAV:   2    -0.392476628764E+03   -0.12204E+00   -0.12279E+00 35776   0.264E+00    0.657E-01
DAV:   3    -0.392482166436E+03   -0.55377E-02   -0.20849E-02 46448   0.386E-01    0.369E-01
DAV:   4    -0.392481876936E+03    0.28950E-03   -0.24757E-03 55096   0.122E-01    0.220E-01
DAV:   5    -0.392482093609E+03   -0.21667E-03   -0.10916E-03 43264   0.100E-01    0.586E-02
DAV:   6    -0.392482138485E+03   -0.44876E-04   -0.36801E-04 43056   0.419E-02    0.318E-02
DAV:   7    -0.392482134193E+03    0.42916E-05   -0.38900E-05 37704   0.158E-02
  27 F= -.39248213E+03 E0= -.39248213E+03  d E =0.723973E-02  mag=    36.0000
       N       E                     dE             d eps       ncg     rms          rms(c)
DAV:   1    -0.392336721351E+03    0.14542E+00   -0.12616E+01 39152   0.130E+01    0.156E+00
DAV:   2    -0.392459616069E+03   -0.12289E+00   -0.12136E+00 35776   0.241E+00    0.759E-01
DAV:   3    -0.392470228872E+03   -0.10613E-01   -0.24396E-02 44288   0.427E-01    0.404E-01
DAV:   4    -0.392470576736E+03   -0.34786E-03   -0.23388E-03 57328   0.139E-01    0.248E-01
DAV:   5    -0.392471074111E+03   -0.49737E-03   -0.89635E-04 45368   0.135E-01    0.629E-02
DAV:   6    -0.392471117368E+03   -0.43257E-04   -0.48092E-04 45504   0.622E-02    0.323E-02
DAV:   7    -0.392471113265E+03    0.41028E-05   -0.10409E-04 42936   0.246E-02    0.183E-02
DAV:   8    -0.392471110410E+03    0.28553E-05   -0.11096E-05 27968   0.134E-02
  28 F= -.39247111E+03 E0= -.39247111E+03  d E =0.110238E-01  mag=    36.0000
       N       E                     dE             d eps       ncg     rms          rms(c)
DAV:   1    -0.392454611418E+03    0.16502E-01   -0.17678E+00 39712   0.523E+00    0.707E-01
DAV:   2    -0.392477430413E+03   -0.22819E-01   -0.22673E-01 35920   0.992E-01    0.347E-01
DAV:   3    -0.392479942379E+03   -0.25120E-02   -0.47347E-03 42816   0.197E-01    0.181E-01
DAV:   4    -0.392480033027E+03   -0.90649E-04   -0.40348E-04 50696   0.740E-02    0.108E-01
DAV:   5    -0.392480149941E+03   -0.11691E-03   -0.16421E-04 43416   0.809E-02    0.278E-02
DAV:   6    -0.392480157556E+03   -0.76148E-05   -0.15665E-04 43800   0.352E-02    0.162E-02
DAV:   7    -0.392480156073E+03    0.14825E-05   -0.23825E-05 32584   0.116E-02
  29 F= -.39248016E+03 E0= -.39248016E+03  d E =-.904566E-02  mag=    36.0000
       N       E                     dE             d eps       ncg     rms          rms(c)
DAV:   1    -0.392475005840E+03    0.51517E-02   -0.67322E-01 38968   0.311E+00    0.404E-01
DAV:   2    -0.392482668748E+03   -0.76629E-02   -0.77643E-02 36392   0.595E-01    0.198E-01
DAV:   3    -0.392483532621E+03   -0.86387E-03   -0.17188E-03 43008   0.117E-01    0.105E-01
DAV:   4    -0.392483559644E+03   -0.27023E-04   -0.13953E-04 51936   0.417E-02    0.636E-02
DAV:   5    -0.392483595982E+03   -0.36338E-04   -0.53320E-05 41400   0.464E-02    0.158E-02
DAV:   6    -0.392483598951E+03   -0.29689E-05   -0.55601E-05 42216   0.210E-02
  30 F= -.39248360E+03 E0= -.39248360E+03  d E =-.344288E-02  mag=    36.0000
       N       E                     dE             d eps       ncg     rms          rms(c)
DAV:   1    -0.392484662212E+03   -0.10662E-02   -0.76895E-02 37520   0.807E-01    0.901E-02
DAV:   2    -0.392485086413E+03   -0.42420E-03   -0.44928E-03 36560   0.147E-01    0.432E-02
DAV:   3    -0.392485117126E+03   -0.30712E-04   -0.87675E-05 41800   0.247E-02    0.248E-02
DAV:   4    -0.392485117086E+03    0.40163E-07   -0.75296E-06 27400   0.833E-03
  31 F= -.39248512E+03 E0= -.39248512E+03  d E =-.151813E-02  mag=    36.0000
       N       E                     dE             d eps       ncg     rms          rms(c)
DAV:   1    -0.392484846297E+03    0.27083E-03   -0.11481E+00 37440   0.302E+00    0.318E-01
DAV:   2    -0.392490387949E+03   -0.55417E-02   -0.59300E-02 35792   0.545E-01    0.155E-01
DAV:   3    -0.392490731895E+03   -0.34395E-03   -0.11596E-03 46208   0.913E-02    0.902E-02
DAV:   4    -0.392490716812E+03    0.15083E-04   -0.13547E-04 52856   0.360E-02    0.468E-02
DAV:   5    -0.392490730780E+03   -0.13968E-04   -0.50603E-05 41072   0.281E-02    0.124E-02
DAV:   6    -0.392490732342E+03   -0.15615E-05   -0.22561E-05 31648   0.125E-02
  32 F= -.39249073E+03 E0= -.39249073E+03  d E =-.561526E-02  mag=    36.0000
       N       E                     dE             d eps       ncg     rms          rms(c)
DAV:   1    -0.392491446381E+03   -0.71560E-03   -0.77615E-02 37648   0.829E-01    0.806E-02
DAV:   2    -0.392491803198E+03   -0.35682E-03   -0.37305E-03 36288   0.147E-01    0.383E-02
DAV:   3    -0.392491822419E+03   -0.19221E-04   -0.65154E-05 41608   0.227E-02    0.222E-02
DAV:   4    -0.392491822000E+03    0.41948E-06   -0.63757E-06 25192   0.852E-03
  33 F= -.39249182E+03 E0= -.39249182E+03  d E =-.108966E-02  mag=    36.0000
       N       E                     dE             d eps       ncg     rms          rms(c)
DAV:   1    -0.392490662415E+03    0.11600E-02   -0.47166E-01 37648   0.206E+00    0.191E-01
DAV:   2    -0.392492840585E+03   -0.21782E-02   -0.22067E-02 35792   0.358E-01    0.917E-02
DAV:   3    -0.392492955285E+03   -0.11470E-03   -0.41046E-04 47472   0.547E-02    0.516E-02
DAV:   4    -0.392492952820E+03    0.24642E-05   -0.40279E-05 39728   0.167E-02
  34 F= -.39249295E+03 E0= -.39249295E+03  d E =-.113082E-02  mag=    36.0000
       N       E                     dE             d eps       ncg     rms          rms(c)
DAV:   1    -0.392486346266E+03    0.66090E-02   -0.91177E-01 38040   0.291E+00    0.279E-01
DAV:   2    -0.392490957772E+03   -0.46115E-02   -0.46104E-02 35776   0.508E-01    0.132E-01
DAV:   3    -0.392491200058E+03   -0.24229E-03   -0.81846E-04 46816   0.766E-02    0.727E-02
DAV:   4    -0.392491197779E+03    0.22798E-05   -0.88084E-05 49888   0.234E-02
  35 F= -.39249120E+03 E0= -.39249120E+03  d E =0.175504E-02  mag=    36.0000
       N       E                     dE             d eps       ncg     rms          rms(c)
DAV:   1    -0.392338156650E+03    0.15304E+00   -0.26498E+01 38128   0.156E+01    0.149E+00
DAV:   2    -0.392471448179E+03   -0.13329E+00   -0.13361E+00 35776   0.273E+00    0.707E-01
DAV:   3    -0.392478232607E+03   -0.67844E-02   -0.23210E-02 46328   0.408E-01    0.390E-01
DAV:   4    -0.392478095159E+03    0.13745E-03   -0.27002E-03 54864   0.128E-01    0.230E-01
DAV:   5    -0.392478389979E+03   -0.29482E-03   -0.10602E-03 43616   0.994E-02    0.616E-02
DAV:   6    -0.392478434115E+03   -0.44136E-04   -0.33223E-04 43592   0.415E-02    0.313E-02
DAV:   7    -0.392478430011E+03    0.41042E-05   -0.39130E-05 37856   0.164E-02
  36 F= -.39247843E+03 E0= -.39247843E+03  d E =0.127678E-01  mag=    36.0000
       N       E                     dE             d eps       ncg     rms          rms(c)
DAV:   1    -0.392323488192E+03    0.15495E+00   -0.32245E+01 37800   0.164E+01    0.148E+00
DAV:   2    -0.392463463689E+03   -0.13998E+00   -0.14019E+00 35776   0.284E+00    0.702E-01
DAV:   3    -0.392469648503E+03   -0.61848E-02   -0.24098E-02 47016   0.415E-01    0.392E-01
DAV:   4    -0.392469321146E+03    0.32736E-03   -0.28406E-03 55656   0.129E-01    0.233E-01
DAV:   5    -0.392469554754E+03   -0.23361E-03   -0.12349E-03 42832   0.106E-01    0.618E-02
DAV:   6    -0.392469608594E+03   -0.53840E-04   -0.41869E-04 42856   0.445E-02    0.339E-02
DAV:   7    -0.392469603974E+03    0.46202E-05   -0.39461E-05 38064   0.160E-02
  37 F= -.39246960E+03 E0= -.39246960E+03  d E =0.882604E-02  mag=    36.0000
       N       E                     dE             d eps       ncg     rms          rms(c)
DAV:   1    -0.392418872556E+03    0.50736E-01   -0.10983E+01 37664   0.102E+01    0.107E+00
DAV:   2    -0.392478034574E+03   -0.59162E-01   -0.62511E-01 35800   0.184E+00    0.515E-01
DAV:   3    -0.392480908974E+03   -0.28744E-02   -0.11379E-02 50776   0.286E-01    0.301E-01
DAV:   4    -0.392480736168E+03    0.17281E-03   -0.14174E-03 52864   0.103E-01    0.154E-01
DAV:   5    -0.392480859179E+03   -0.12301E-03   -0.48179E-04 46544   0.679E-02    0.401E-02
DAV:   6    -0.392480868783E+03   -0.96040E-05   -0.13727E-04 42424   0.296E-02    0.207E-02
DAV:   7    -0.392480866421E+03    0.23620E-05   -0.18875E-05 31000   0.123E-02
  38 F= -.39248087E+03 E0= -.39248087E+03  d E =-.112624E-01  mag=    36.0000
       N       E                     dE             d eps       ncg     rms          rms(c)
DAV:   1    -0.392458848439E+03    0.22020E-01   -0.38709E+00 38072   0.623E+00    0.633E-01
DAV:   2    -0.392481347575E+03   -0.22499E-01   -0.22150E-01 35776   0.109E+00    0.302E-01
DAV:   3    -0.392482675496E+03   -0.13279E-02   -0.38805E-03 45808   0.167E-01    0.162E-01
DAV:   4    -0.392482672097E+03    0.33996E-05   -0.39395E-04 57016   0.494E-02    0.971E-02
DAV:   5    -0.392482727364E+03   -0.55267E-04   -0.15959E-04 43560   0.424E-02    0.252E-02
DAV:   6    -0.392482735165E+03   -0.78016E-05   -0.59641E-05 39816   0.185E-02
  39 F= -.39248274E+03 E0= -.39248274E+03  d E =-.186874E-02  mag=    36.0000
       N       E                     dE             d eps       ncg     rms          rms(c)
DAV:   1    -0.392475568065E+03    0.71593E-02   -0.14937E+00 37944   0.363E+00    0.330E-01
DAV:   2    -0.392482423658E+03   -0.68556E-02   -0.68781E-02 35776   0.631E-01    0.160E-01
DAV:   3    -0.392482744574E+03   -0.32092E-03   -0.11826E-03 45064   0.941E-02    0.898E-02
DAV:   4    -0.392482730365E+03    0.14209E-04   -0.13204E-04 51128   0.292E-02    0.528E-02
DAV:   5    -0.392482743388E+03   -0.13023E-04   -0.61755E-05 36176   0.250E-02    0.141E-02
DAV:   6    -0.392482745614E+03   -0.22261E-05   -0.20966E-05 29392   0.113E-02
  40 F= -.39248275E+03 E0= -.39248275E+03  d E =-.104487E-04  mag=    36.0000
       N       E                     dE             d eps       ncg     rms          rms(c)
DAV:   1    -0.392334195658E+03    0.14855E+00   -0.33673E+01 37600   0.172E+01    0.157E+00
DAV:   2    -0.392484290450E+03   -0.15009E+00   -0.15436E+00 35776   0.304E+00    0.750E-01
DAV:   3    -0.392490932705E+03   -0.66423E-02   -0.26959E-02 48328   0.450E-01    0.430E-01
DAV:   4    -0.392490494171E+03    0.43853E-03   -0.31667E-03 51296   0.144E-01    0.239E-01
DAV:   5    -0.392490807477E+03   -0.31331E-03   -0.13068E-03 45256   0.102E-01    0.626E-02
DAV:   6    -0.392490846152E+03   -0.38675E-04   -0.32797E-04 42960   0.413E-02    0.334E-02
DAV:   7    -0.392490843992E+03    0.21601E-05   -0.46846E-05 38344   0.165E-02
  41 F= -.39249084E+03 E0= -.39249084E+03  d E =-.809838E-02  mag=    36.0000
       N       E                     dE             d eps       ncg     rms          rms(c)
DAV:   1    -0.391884829806E+03    0.60602E+00   -0.12499E+02 37440   0.328E+01    0.312E+00
DAV:   2    -0.392482035602E+03   -0.59721E+00   -0.61758E+00 35776   0.593E+00    0.152E+00
DAV:   3    -0.392508906316E+03   -0.26871E-01   -0.11134E-01 49288   0.909E-01    0.879E-01
DAV:   4    -0.392507097007E+03    0.18093E-02   -0.14073E-02 49216   0.297E-01    0.491E-01
DAV:   5    -0.392508548311E+03   -0.14513E-02   -0.54245E-03 45752   0.200E-01    0.134E-01
DAV:   6    -0.392508677888E+03   -0.12958E-03   -0.12584E-03 44536   0.841E-02    0.691E-02
DAV:   7    -0.392508684306E+03   -0.64187E-05   -0.24856E-04 48968   0.354E-02    0.372E-02
DAV:   8    -0.392508679546E+03    0.47598E-05   -0.39513E-05 31544   0.184E-02
  42 F= -.39250868E+03 E0= -.39250868E+03  d E =-.178356E-01  mag=    36.0000
       N       E                     dE             d eps       ncg     rms          rms(c)
DAV:   1    -0.392291026216E+03    0.21766E+00   -0.41946E+01 36960   0.191E+01    0.183E+00
DAV:   2    -0.392493191753E+03   -0.20217E+00   -0.21055E+00 35776   0.348E+00    0.881E-01
DAV:   3    -0.392502418260E+03   -0.92265E-02   -0.38045E-02 47392   0.529E-01    0.509E-01
DAV:   4    -0.392501807087E+03    0.61117E-03   -0.45374E-03 49112   0.172E-01    0.278E-01
DAV:   5    -0.392502301008E+03   -0.49392E-03   -0.18096E-03 44528   0.115E-01    0.689E-02
DAV:   6    -0.392502342949E+03   -0.41940E-04   -0.39570E-04 44304   0.465E-02    0.365E-02
DAV:   7    -0.392502342022E+03    0.92612E-06   -0.69302E-05 41664   0.189E-02
  43 F= -.39250234E+03 E0= -.39250234E+03  d E =0.633752E-02  mag=    36.0000
       N       E                     dE             d eps       ncg     rms          rms(c)
DAV:   1    -0.392197823195E+03    0.30452E+00   -0.58187E+01 37672   0.224E+01    0.213E+00
DAV:   2    -0.392471730532E+03   -0.27391E+00   -0.28307E+00 35776   0.400E+00    0.103E+00
DAV:   3    -0.392484346957E+03   -0.12616E-01   -0.50011E-02 49000   0.601E-01    0.596E-01
DAV:   4    -0.392483615776E+03    0.73118E-03   -0.63057E-03 49640   0.200E-01    0.329E-01
DAV:   5    -0.392484286149E+03   -0.67037E-03   -0.24748E-03 44520   0.136E-01    0.880E-02
DAV:   6    -0.392484348216E+03   -0.62066E-04   -0.56164E-04 44872   0.550E-02    0.445E-02
DAV:   7    -0.392484346562E+03    0.16539E-05   -0.99526E-05 44848   0.224E-02
  44 F= -.39248435E+03 E0= -.39248435E+03  d E =0.179955E-01  mag=    36.0000
       N       E                     dE             d eps       ncg     rms          rms(c)
DAV:   1    -0.392380239173E+03    0.10411E+00   -0.21505E+01 37240   0.138E+01    0.138E+00
DAV:   2    -0.392491424406E+03   -0.11119E+00   -0.11501E+00 35776   0.252E+00    0.669E-01
DAV:   3    -0.392496709419E+03   -0.52850E-02   -0.20746E-02 46360   0.386E-01    0.384E-01
DAV:   4    -0.392496479577E+03    0.22984E-03   -0.23836E-03 49592   0.128E-01    0.212E-01
DAV:   5    -0.392496764872E+03   -0.28529E-03   -0.10134E-03 43800   0.886E-02    0.511E-02
DAV:   6    -0.392496785148E+03   -0.20276E-04   -0.22412E-04 42200   0.354E-02    0.270E-02
DAV:   7    -0.392496784104E+03    0.10440E-05   -0.42561E-05 36048   0.159E-02
  45 F= -.39249678E+03 E0= -.39249678E+03  d E =-.124375E-01  mag=    36.0000
       N       E                     dE             d eps       ncg     rms          rms(c)
DAV:   1    -0.392410604585E+03    0.86181E-01   -0.18946E+01 37424   0.130E+01    0.120E+00
DAV:   2    -0.392497520034E+03   -0.86915E-01   -0.89198E-01 35776   0.230E+00    0.580E-01
DAV:   3    -0.392501850706E+03   -0.43307E-02   -0.15830E-02 48080   0.346E-01    0.333E-01
DAV:   4    -0.392501621914E+03    0.22879E-03   -0.18216E-03 52384   0.112E-01    0.190E-01
DAV:   5    -0.392501802283E+03   -0.18037E-03   -0.76375E-04 44592   0.887E-02    0.491E-02
DAV:   6    -0.392501830110E+03   -0.27827E-04   -0.27878E-04 42400   0.391E-02    0.276E-02
DAV:   7    -0.392501826358E+03    0.37521E-05   -0.30834E-05 34840   0.145E-02
  46 F= -.39250183E+03 E0= -.39250183E+03  d E =-.504225E-02  mag=    36.0000
       N       E                     dE             d eps       ncg     rms          rms(c)
DAV:   1    -0.392476666298E+03    0.25164E-01   -0.38758E+00 37872   0.594E+00    0.590E-01
DAV:   2    -0.392495994802E+03   -0.19329E-01   -0.20420E-01 35776   0.107E+00    0.286E-01
DAV:   3    -0.392497109382E+03   -0.11146E-02   -0.37440E-03 45072   0.173E-01    0.166E-01
DAV:   4    -0.392497058006E+03    0.51375E-04   -0.45178E-04 52192   0.643E-02    0.891E-02
DAV:   5    -0.392497105644E+03   -0.47638E-04   -0.17750E-04 44752   0.490E-02    0.240E-02
DAV:   6    -0.392497111234E+03   -0.55897E-05   -0.78662E-05 40584   0.220E-02
  47 F= -.39249711E+03 E0= -.39249711E+03  d E =0.471512E-02  mag=    36.0000
       N       E                     dE             d eps       ncg     rms          rms(c)
DAV:   1    -0.392485550167E+03    0.11555E-01   -0.20954E+00 37616   0.441E+00    0.413E-01
DAV:   2    -0.392495612032E+03   -0.10062E-01   -0.10207E-01 35776   0.777E-01    0.198E-01
DAV:   3    -0.392496169447E+03   -0.55741E-03   -0.18447E-03 47792   0.119E-01    0.112E-01
DAV:   4    -0.392496154032E+03    0.15415E-04   -0.19207E-04 55008   0.368E-02    0.651E-02
DAV:   5    -0.392496176768E+03   -0.22736E-04   -0.78724E-05 41016   0.314E-02    0.164E-02
DAV:   6    -0.392496180592E+03   -0.38237E-05   -0.35259E-05 36664   0.144E-02
  48 F= -.39249618E+03 E0= -.39249618E+03  d E =0.930642E-03  mag=    36.0000
       N       E                     dE             d eps       ncg     rms          rms(c)
DAV:   1    -0.392494725815E+03    0.14510E-02   -0.30446E-01 37864   0.179E+00    0.185E-01
DAV:   2    -0.392496603965E+03   -0.18782E-02   -0.18930E-02 35776   0.322E-01    0.891E-02
DAV:   3    -0.392496733632E+03   -0.12967E-03   -0.33627E-04 45136   0.507E-02    0.489E-02
DAV:   4    -0.392496732290E+03    0.13420E-05   -0.25768E-05 33784   0.148E-02
  49 F= -.39249673E+03 E0= -.39249673E+03  d E =-.551698E-03  mag=    36.0000
