       N       E                     dE             d eps       ncg     rms          ort
DAV:   1     0.733496857501E+04    0.73350E+04   -0.35056E+05  9568   0.175E+03
DAV:   2     0.481792401793E+03   -0.68532E+04   -0.64300E+04  9568   0.512E+02
DAV:   3    -0.319571554142E+03   -0.80136E+03   -0.77689E+03  9568   0.195E+02
DAV:   4    -0.352447889813E+03   -0.32876E+02   -0.32461E+02  9568   0.382E+01
DAV:   5    -0.354688829745E+03   -0.22409E+01   -0.22188E+01  9568   0.763E+00
SDA:   6    -0.177280880086E+03    0.17741E+03   -0.22188E+01  9568   0.157E+04 0.000E+00
CGA:   7    -0.265841159319E+03   -0.88560E+02   -0.12317E+03  9568   0.119E+04 0.928E+02
CGA:   8    -0.273725077743E+03   -0.78839E+01   -0.32614E+02  9568   0.782E+03 0.162E+03
CGA:   9    -0.284503966653E+03   -0.10779E+02   -0.30703E+02  9568   0.118E+04-0.302E+03
CGA:  10    -0.277112863133E+03    0.73911E+01   -0.26167E+02  9568   0.503E+03-0.458E+03
CGA:  11    -0.280801810741E+03   -0.36889E+01   -0.24741E+01  9568   0.326E+03 0.160E+03
CGA:  12    -0.289109702747E+03   -0.83079E+01   -0.53650E+01  9568   0.276E+03 0.205E+03
CGA:  13    -0.295496202715E+03   -0.63865E+01   -0.96754E+01  9568   0.450E+03-0.827E+02
CGA:  14    -0.300872897708E+03   -0.53767E+01   -0.10134E+02  9568   0.318E+03-0.730E+02
CGA:  15    -0.304247053739E+03   -0.33742E+01   -0.62262E+01  9568   0.357E+03-0.133E+03
CGA:  16    -0.298528507311E+03    0.57185E+01   -0.51919E+01  9568   0.475E+03-0.159E+03
CGA:  17    -0.302247962777E+03   -0.37195E+01   -0.36611E+01  9568   0.124E+03-0.137E+03
CGA:  18    -0.300379033967E+03    0.18689E+01   -0.32197E+01  9568   0.556E+03-0.114E+03
CGA:  19    -0.304695802640E+03   -0.43168E+01   -0.21515E+02  9568   0.218E+03-0.183E+02
CGA:  20    -0.301275456171E+03    0.34203E+01   -0.80076E+01  9568   0.105E+04-0.236E+03
CGA:  21    -0.288139030728E+03    0.13136E+02   -0.34519E+02  9568   0.210E+04-0.558E+03
CGA:  22    -0.285375751586E+03    0.27633E+01   -0.85279E+02  9568   0.107E+04-0.193E+03
CGA:  23    -0.298512173845E+03   -0.13136E+02   -0.29602E+02  9568   0.432E+03-0.855E+02
CGA:  24    -0.301439704876E+03   -0.29275E+01   -0.96880E+01  9568   0.530E+03-0.651E+02
CGA:  25    -0.301526937123E+03   -0.87232E-01   -0.11161E+02  9568   0.361E+03-0.108E+03
CGA:  26    -0.291184556680E+03    0.10342E+02   -0.82835E+01  9568   0.131E+04-0.275E+03
CGA:  27    -0.303608922325E+03   -0.12424E+02   -0.38789E+02  9568   0.357E+03-0.404E+02
CGA:  28    -0.297166286282E+03    0.64426E+01   -0.12597E+02  9568   0.104E+04-0.648E+01
CGA:  29    -0.293850554269E+03    0.33157E+01   -0.28574E+02  9568   0.229E+03-0.134E+03
CGA:  30    -0.297326042645E+03   -0.34755E+01   -0.12817E+01  9568   0.351E+03 0.362E+03
CGA:  31    -0.306555474306E+03   -0.92294E+01   -0.37999E+01  9568   0.222E+03 0.403E+03
CGA:  32    -0.310755575077E+03   -0.42001E+01   -0.37053E+01  9568   0.229E+02-0.390E+02
CGA:  33    -0.310914439581E+03   -0.15886E+00   -0.80977E-01  9568   0.189E+02 0.181E+02
CGA:  34    -0.311084933679E+03   -0.17049E+00   -0.87950E-01  9568   0.150E+02 0.178E+02
CGA:  35    -0.311199520369E+03   -0.11459E+00   -0.54418E-01  9568   0.152E+02 0.168E+02
CGA:  36    -0.311322370143E+03   -0.12285E+00   -0.55496E-01  9568   0.169E+02 0.186E+02
CGA:  37    -0.311480012588E+03   -0.15764E+00   -0.70065E-01  9568   0.181E+02 0.209E+02
CGA:  38    -0.311675080157E+03   -0.19507E+00   -0.91650E-01  9568   0.151E+02 0.196E+02
CGA:  39    -0.311857710082E+03   -0.18263E+00   -0.98709E-01  9568   0.790E+01 0.119E+02
CGA:  40    -0.311989818507E+03   -0.13211E+00   -0.90176E-01  9568   0.268E+01 0.312E+01
CGA:  41    -0.312077579875E+03   -0.87761E-01   -0.83901E-01  9568   0.373E+01 0.922E-01
CGA:  42    -0.312149978867E+03   -0.72399E-01   -0.66916E-01  9568   0.449E+01 0.207E+00
CGA:  43    -0.312174092813E+03   -0.24114E-01   -0.13508E-01  9568   0.379E+01 0.369E+01
CGA:  44    -0.312253978378E+03   -0.79886E-01   -0.81518E-01  9568   0.278E+01-0.429E-02
CGA:  45    -0.312306644296E+03   -0.52666E-01   -0.50468E-01  9568   0.220E+01 0.875E-01
CGA:  46    -0.312373233924E+03   -0.66590E-01   -0.64286E-01  9568   0.303E+01 0.644E-02
CGA:  47    -0.312405787151E+03   -0.32553E-01   -0.17333E-01  9568   0.294E+01 0.267E+01
CGA:  48    -0.312467395031E+03   -0.61608E-01   -0.58629E-01  9568   0.112E+01 0.753E-01
CGA:  49    -0.312518498865E+03   -0.51104E-01   -0.51023E-01  9568   0.158E+01 0.101E-01
CGA:  50    -0.312063952286E+03    0.45455E+00   -0.98646E-01  9568   0.611E+02-0.295E+02
CGA:  51    -0.312416395026E+03   -0.35244E+00   -0.10073E+01  9568   0.225E+02-0.204E+02
CGA:  52    -0.312621662919E+03   -0.20527E+00   -0.20435E+00  9568   0.377E+01 0.325E-03
CGA:  53    -0.312684007139E+03   -0.62344E-01   -0.47687E-01  9568   0.861E+00 0.902E+00
CGA:  54    -0.312703651371E+03   -0.19644E-01   -0.20510E-01  9568   0.113E+01-0.208E-01
CGA:  55    -0.312747041370E+03   -0.43390E-01   -0.48513E-01  9568   0.381E+01-0.487E+00
CGA:  56    -0.312752672838E+03   -0.56315E-02   -0.36010E-02  9568   0.391E+01 0.117E+01
CGA:  57    -0.312775678592E+03   -0.23006E-01   -0.15110E-01  9568   0.312E+01 0.256E+01
CGA:  58    -0.312824040047E+03   -0.48361E-01   -0.52234E-01  9568   0.733E+00-0.103E+00
CGA:  59    -0.312836733413E+03   -0.12693E-01   -0.12304E-01  9568   0.502E+00 0.911E-02
CGA:  60    -0.312868552347E+03   -0.31819E-01   -0.30152E-01  9568   0.650E+00 0.495E-01
CGA:  61    -0.312853514519E+03    0.15038E-01   -0.50450E-01  9568   0.661E+01-0.323E+01
CGA:  62    -0.312908174750E+03   -0.54660E-01   -0.67657E-01  9568   0.102E+01-0.998E+00
CGA:  63    -0.312927583778E+03   -0.19409E-01   -0.19283E-01  9568   0.490E+00-0.352E-02
CGA:  64    -0.312946208772E+03   -0.18625E-01   -0.18133E-01  9568   0.479E+00 0.652E-01
CGA:  65    -0.312959248925E+03   -0.13040E-01   -0.12833E-01  9568   0.410E+00-0.684E-02
CGA:  66    -0.312973889102E+03   -0.14640E-01   -0.14465E-01  9568   0.214E+00 0.297E-01
CGA:  67    -0.312983390995E+03   -0.95019E-02   -0.95142E-02  9568   0.484E+00-0.255E-02
CGA:  68    -0.312997387240E+03   -0.13996E-01   -0.12769E-01  9568   0.224E+00-0.192E-01
CGA:  69    -0.313002068033E+03   -0.46808E-02   -0.45501E-02  9568   0.127E+00 0.130E-02
CGA:  70    -0.313005991687E+03   -0.39237E-02   -0.39307E-02  9568   0.258E+00-0.279E-03
CGA:  71    -0.313014747767E+03   -0.87561E-02   -0.90321E-02  9568   0.171E+00-0.520E-01
CGA:  72    -0.313017207930E+03   -0.24602E-02   -0.23093E-02  9568   0.129E+00 0.645E-02
CGA:  73    -0.313019823212E+03   -0.26153E-02   -0.26096E-02  9568   0.973E-01-0.168E-02
CGA:  74    -0.313022472128E+03   -0.26489E-02   -0.26846E-02  9568   0.126E+00 0.235E-02
CGA:  75    -0.313025966056E+03   -0.34939E-02   -0.35422E-02  9568   0.592E-01 0.447E-02
CGA:  76    -0.313028080534E+03   -0.21145E-02   -0.21113E-02  9568   0.497E-01-0.912E-03
CGA:  77    -0.313029575459E+03   -0.14949E-02   -0.14959E-02  9568   0.333E-01 0.419E-03
CGA:  78    -0.313031382924E+03   -0.18075E-02   -0.17149E-02  9568   0.310E-01 0.311E-02
CGA:  79    -0.313032762726E+03   -0.13798E-02   -0.13637E-02  9568   0.405E-01 0.911E-03
CGA:  80    -0.313034442110E+03   -0.16794E-02   -0.16768E-02  9568   0.523E-01-0.364E-04
CGA:  81    -0.313036112248E+03   -0.16701E-02   -0.16718E-02  9568   0.243E-01 0.113E-02
CGA:  82    -0.313038209206E+03   -0.20970E-02   -0.21060E-02  9568   0.498E-01-0.329E-03
CGA:  83    -0.313039452355E+03   -0.12431E-02   -0.12589E-02  9568   0.300E-01 0.154E-03
CGA:  84    -0.313041209424E+03   -0.17571E-02   -0.17397E-02  9568   0.362E-01 0.636E-03
CGA:  85    -0.313042506530E+03   -0.12971E-02   -0.12968E-02  9568   0.294E-01-0.206E-03
CGA:  86    -0.313043754715E+03   -0.12482E-02   -0.12469E-02  9568   0.277E-01 0.671E-04
CGA:  87    -0.313045073699E+03   -0.13190E-02   -0.13082E-02  9568   0.380E-01 0.718E-03
CGA:  88    -0.313046372802E+03   -0.12991E-02   -0.12916E-02  9568   0.212E-01-0.847E-03
CGA:  89    -0.313047748248E+03   -0.13754E-02   -0.13604E-02  9568   0.384E-01 0.457E-03
CGA:  90    -0.313048932572E+03   -0.11843E-02   -0.11695E-02  9568   0.256E-01-0.440E-03
CGA:  91    -0.313050144312E+03   -0.12117E-02   -0.12109E-02  9568   0.222E-01 0.411E-04
SDA:  92    -0.313051219416E+03   -0.10751E-02   -0.10861E-02  9568   0.355E-01-0.760E-03
CGA:  93    -0.313051721779E+03   -0.50236E-03   -0.50136E-03  9568   0.109E-01 0.659E-04
CGA:  94    -0.313052701764E+03   -0.97998E-03   -0.96657E-03  9568   0.190E-01 0.277E-03
CGA:  95    -0.313054683414E+03   -0.19816E-02   -0.20558E-02  9568   0.629E-01-0.129E-02
CGA:  96    -0.313057020138E+03   -0.23367E-02   -0.23504E-02  9568   0.311E-01 0.193E-02
CGA:  97    -0.313058382268E+03   -0.13621E-02   -0.13620E-02  9568   0.189E-01-0.476E-04
CGA:  98    -0.313058925494E+03   -0.54323E-03   -0.54377E-03  9568   0.127E-01 0.310E-04
CGA:  99    -0.313059339263E+03   -0.41377E-03   -0.41319E-03  9568   0.878E-02-0.247E-05
CGA: 100    -0.313059677606E+03   -0.33834E-03   -0.33818E-03  9568   0.114E-01-0.152E-04
CGA: 101    -0.313060098228E+03   -0.42062E-03   -0.41976E-03  9568   0.826E-02-0.551E-04
CGA: 102    -0.313060519242E+03   -0.42101E-03   -0.42096E-03  9568   0.500E-02 0.681E-05
CGA: 103    -0.313060694925E+03   -0.17568E-03   -0.17516E-03  9568   0.668E-02-0.248E-04
CGA: 104    -0.313061245525E+03   -0.55060E-03   -0.55699E-03  9568   0.892E-02-0.168E-03
CGA: 105    -0.313061585218E+03   -0.33969E-03   -0.33981E-03  9568   0.114E-01 0.943E-05
CGA: 106    -0.313061899566E+03   -0.31435E-03   -0.31164E-03  9568   0.379E-02 0.402E-05
CGA: 107    -0.313062034267E+03   -0.13470E-03   -0.13472E-03  9568   0.516E-02-0.148E-05
CGA: 108    -0.313062276886E+03   -0.24262E-03   -0.24244E-03  9568   0.499E-02 0.182E-04
CGA: 109    -0.313062493143E+03   -0.21626E-03   -0.21634E-03  9568   0.400E-02-0.654E-04
CGA: 110    -0.313062670924E+03   -0.17778E-03   -0.17806E-03  9568   0.563E-02-0.626E-04
CGA: 111    -0.313062849310E+03   -0.17839E-03   -0.17844E-03  9568   0.185E-02 0.538E-05
CGA: 112    -0.313062949972E+03   -0.10066E-03   -0.10054E-03  9568   0.403E-02 0.737E-05
CGA: 113    -0.313063122512E+03   -0.17254E-03   -0.17253E-03  9568   0.355E-02-0.589E-04
CGA: 114    -0.313063284353E+03   -0.16184E-03   -0.16218E-03  9568   0.231E-02-0.508E-04
CGA: 115    -0.313063335700E+03   -0.51347E-04   -0.51380E-04  9568   0.118E-02 0.661E-06
CGA: 116    -0.313063409359E+03   -0.73659E-04   -0.73868E-04  9568   0.229E-02-0.936E-05
CGA: 117    -0.313063520993E+03   -0.11163E-03   -0.11244E-03  9568   0.250E-02-0.825E-04
CGA: 118    -0.313063571563E+03   -0.50570E-04   -0.49570E-04  9568   0.821E-03 0.255E-04
CGA: 119    -0.313063598407E+03   -0.26844E-04   -0.26903E-04  9568   0.859E-03 0.162E-05
CGA: 120    -0.313063624250E+03   -0.25843E-04   -0.25921E-04  9568   0.740E-03 0.132E-05
CGA: 121    -0.313063672197E+03   -0.47947E-04   -0.48380E-04  9568   0.192E-02-0.178E-04
CGA: 122    -0.313063716744E+03   -0.44547E-04   -0.42710E-04  9568   0.834E-03 0.503E-04
SDA: 123    -0.313063738731E+03   -0.21988E-04   -0.21913E-04  9568   0.970E-03 0.329E-05
CGA: 124    -0.313063766785E+03   -0.28054E-04   -0.28034E-04  9568   0.787E-03-0.113E-05
CGA: 125    -0.313063819575E+03   -0.52789E-04   -0.52711E-04  9568   0.107E-02 0.215E-05
CGA: 126    -0.313063891258E+03   -0.71683E-04   -0.72372E-04  9568   0.244E-02-0.250E-04
CGA: 127    -0.313063958576E+03   -0.67318E-04   -0.65136E-04  9568   0.245E-02 0.994E-05
CGA: 128    -0.313064087943E+03   -0.12937E-03   -0.13120E-03  9568   0.202E-02-0.120E-03
CGA: 129    -0.313064127584E+03   -0.39641E-04   -0.39245E-04  9568   0.121E-02 0.150E-04
CGA: 130    -0.313064152347E+03   -0.24764E-04   -0.24431E-04  9568   0.322E-03 0.101E-04
CGA: 131    -0.313064166201E+03   -0.13854E-04   -0.13857E-04  9568   0.614E-03-0.111E-05
CGA: 132    -0.313064179830E+03   -0.13629E-04   -0.13646E-04  9568   0.288E-03-0.911E-06
CGA: 133    -0.313064191014E+03   -0.11184E-04   -0.11183E-04  9568   0.206E-03-0.248E-05
CGA: 134    -0.313064194458E+03   -0.34438E-05   -0.33999E-05  9568   0.105E-03-0.176E-05
   1 F= -.31306419E+03 E0= -.31304219E+03  d E =-.313064E+03  mag=    25.8135
       N       E                     dE             d eps       ncg     rms          ort
SDA:   1    -0.313061217919E+03    0.29731E-02    0.00000E+00  9568   0.281E+00 0.000E+00
CGA:   2    -0.313064576187E+03   -0.33583E-02   -0.33016E-02  9568   0.317E-01 0.368E-02
CGA:   3    -0.313065287334E+03   -0.71115E-03   -0.71295E-03  9568   0.276E-02-0.211E-04
CGA:   4    -0.313065366388E+03   -0.79054E-04   -0.78964E-04  9568   0.659E-03-0.391E-05
CGA:   5    -0.313065388043E+03   -0.21655E-04   -0.21644E-04  9568   0.996E-03-0.283E-05
CGA:   6    -0.313065435369E+03   -0.47326E-04   -0.47409E-04  9568   0.882E-03-0.717E-05
CGA:   7    -0.313065454621E+03   -0.19252E-04   -0.19161E-04  9568   0.323E-03-0.402E-05
CGA:   8    -0.313065467731E+03   -0.13110E-04   -0.13117E-04  9568   0.137E-03-0.149E-05
CGA:   9    -0.313065479715E+03   -0.11984E-04   -0.12099E-04  9568   0.284E-03-0.220E-05
CGA:  10    -0.313065484256E+03   -0.45409E-05   -0.45158E-05  9568   0.774E-04-0.115E-05
   2 F= -.31306548E+03 E0= -.31304346E+03  d E =-.128980E-02  mag=    25.8130
       N       E                     dE             d eps       ncg     rms          ort
SDA:   1    -0.312996597437E+03    0.68882E-01    0.00000E+00  9568   0.425E+00 0.000E+00
CGA:   2    -0.313015443155E+03   -0.18846E-01   -0.18846E-01  9568   0.765E+00 0.589E-04
CGA:   3    -0.313045484672E+03   -0.30042E-01   -0.30033E-01  9568   0.845E+00 0.670E-02
CGA:   4    -0.313069417398E+03   -0.23933E-01   -0.23833E-01  9568   0.237E+00-0.111E-02
CGA:   5    -0.313076607374E+03   -0.71900E-02   -0.71657E-02  9568   0.207E+00-0.725E-03
CGA:   6    -0.313088368196E+03   -0.11761E-01   -0.11789E-01  9568   0.139E+00-0.119E-02
CGA:   7    -0.313093887177E+03   -0.55190E-02   -0.55185E-02  9568   0.133E+00 0.210E-03
CGA:   8    -0.313096139195E+03   -0.22520E-02   -0.22516E-02  9568   0.224E-01-0.825E-05
CGA:   9    -0.313098113148E+03   -0.19740E-02   -0.19838E-02  9568   0.289E-01-0.204E-03
CGA:  10    -0.313098868945E+03   -0.75580E-03   -0.75343E-03  9568   0.190E-01 0.574E-05
CGA:  11    -0.313099324431E+03   -0.45549E-03   -0.45381E-03  9568   0.472E-02 0.277E-04
CGA:  12    -0.313099486229E+03   -0.16180E-03   -0.16184E-03  9568   0.514E-02 0.503E-05
CGA:  13    -0.313099739427E+03   -0.25320E-03   -0.25321E-03  9568   0.401E-02 0.783E-06
CGA:  14    -0.313099860027E+03   -0.12060E-03   -0.12059E-03  9568   0.237E-02-0.154E-06
CGA:  15    -0.313099917377E+03   -0.57350E-04   -0.57430E-04  9568   0.148E-02 0.285E-05
CGA:  16    -0.313099984350E+03   -0.66973E-04   -0.66968E-04  9568   0.781E-03 0.130E-05
CGA:  17    -0.313100027011E+03   -0.42662E-04   -0.42578E-04  9568   0.126E-02 0.486E-05
CGA:  18    -0.313100055450E+03   -0.28439E-04   -0.28434E-04  9568   0.527E-03 0.426E-06
CGA:  19    -0.313100087927E+03   -0.32477E-04   -0.32418E-04  9568   0.743E-03 0.264E-05
CGA:  20    -0.313100104788E+03   -0.16861E-04   -0.16886E-04  9568   0.180E-03 0.124E-05
CGA:  21    -0.313100115385E+03   -0.10597E-04   -0.10574E-04  9568   0.451E-03 0.111E-05
CGA:  22    -0.313100130146E+03   -0.14761E-04   -0.14756E-04  9568   0.292E-03-0.306E-06
CGA:  23    -0.313100143506E+03   -0.13360E-04   -0.13353E-04  9568   0.181E-03 0.111E-05
CGA:  24    -0.313100149033E+03   -0.55270E-05   -0.55216E-05  9568   0.131E-03-0.386E-06
   3 F= -.31310015E+03 E0= -.31307810E+03  d E =-.346648E-01  mag=    25.8130
       N       E                     dE             d eps       ncg     rms          ort
SDA:   1    -0.312424711838E+03    0.67543E+00    0.00000E+00  9568   0.384E+01 0.000E+00
CGA:   2    -0.312526497372E+03   -0.10179E+00   -0.10339E+00  9568   0.435E+01 0.998E-02
CGA:   3    -0.312818187576E+03   -0.29169E+00   -0.29316E+00  9568   0.660E+01-0.504E-01
CGA:   4    -0.312932781271E+03   -0.11459E+00   -0.12714E+00  9568   0.212E+01-0.339E+00
CGA:   5    -0.313030572466E+03   -0.97791E-01   -0.98493E-01  9568   0.105E+01-0.497E-01
CGA:   6    -0.313088599730E+03   -0.58027E-01   -0.57464E-01  9568   0.175E+01 0.264E-01
CGA:   7    -0.313137149978E+03   -0.48550E-01   -0.48021E-01  9568   0.664E+00-0.147E-02
CGA:   8    -0.313151051650E+03   -0.13902E-01   -0.13798E-01  9568   0.224E+00 0.195E-02
CGA:   9    -0.313159858457E+03   -0.88068E-02   -0.88081E-02  9568   0.254E+00-0.664E-03
CGA:  10    -0.313171550127E+03   -0.11692E-01   -0.11659E-01  9568   0.126E+00 0.280E-02
CGA:  11    -0.313174372328E+03   -0.28222E-02   -0.28364E-02  9568   0.609E-01-0.197E-03
CGA:  12    -0.313175918937E+03   -0.15466E-02   -0.15415E-02  9568   0.270E-01 0.112E-05
CGA:  13    -0.313177480347E+03   -0.15614E-02   -0.15659E-02  9568   0.522E-01-0.183E-03
CGA:  14    -0.313179147541E+03   -0.16672E-02   -0.16698E-02  9568   0.124E-01 0.149E-03
CGA:  15    -0.313179438314E+03   -0.29077E-03   -0.29083E-03  9568   0.984E-02 0.260E-06
CGA:  16    -0.313179905244E+03   -0.46693E-03   -0.46653E-03  9568   0.836E-02 0.306E-04
CGA:  17    -0.313180279528E+03   -0.37428E-03   -0.37424E-03  9568   0.101E-01 0.646E-05
CGA:  18    -0.313180588212E+03   -0.30868E-03   -0.30884E-03  9568   0.455E-02 0.906E-05
CGA:  19    -0.313180708432E+03   -0.12022E-03   -0.12014E-03  9568   0.347E-02-0.309E-06
CGA:  20    -0.313180862468E+03   -0.15404E-03   -0.15385E-03  9568   0.303E-02 0.185E-04
CGA:  21    -0.313180981144E+03   -0.11868E-03   -0.11868E-03  9568   0.246E-02 0.489E-06
CGA:  22    -0.313181077023E+03   -0.95879E-04   -0.95865E-04  9568   0.342E-02 0.772E-05
CGA:  23    -0.313181195204E+03   -0.11818E-03   -0.11817E-03  9568   0.155E-02-0.203E-05
CGA:  24    -0.313181240354E+03   -0.45150E-04   -0.45181E-04  9568   0.109E-02 0.179E-05
CGA:  25    -0.313181290367E+03   -0.50013E-04   -0.49983E-04  9568   0.104E-02 0.280E-05
CGA:  26    -0.313181328965E+03   -0.38597E-04   -0.38599E-04  9568   0.150E-02 0.302E-05
CGA:  27    -0.313181387531E+03   -0.58566E-04   -0.58567E-04  9568   0.486E-03-0.149E-06
CGA:  28    -0.313181400961E+03   -0.13430E-04   -0.13458E-04  9568   0.373E-03 0.195E-05
CGA:  29    -0.313181420004E+03   -0.19044E-04   -0.19023E-04  9568   0.476E-03 0.115E-05
CGA:  30    -0.313181433318E+03   -0.13314E-04   -0.13335E-04  9568   0.318E-03 0.187E-05
CGA:  31    -0.313181446247E+03   -0.12929E-04   -0.12925E-04  9568   0.227E-03 0.961E-06
SDA:  32    -0.313181455141E+03   -0.88934E-05   -0.88919E-05  9568   0.206E-03 0.732E-06
   4 F= -.31318146E+03 E0= -.31315937E+03  d E =-.813061E-01  mag=    25.8142
       N       E                     dE             d eps       ncg     rms          ort
SDA:   1    -0.310004576806E+03    0.31769E+01    0.00000E+00  9568   0.146E+03 0.000E+00
CGA:   2    -0.311221870418E+03   -0.12173E+01   -0.22289E+01  9568   0.349E+02-0.496E+02
CGA:   3    -0.311800289493E+03   -0.57842E+00   -0.57356E+00  9568   0.867E+01-0.288E+00
CGA:   4    -0.312051359453E+03   -0.25107E+00   -0.25005E+00  9568   0.863E+01-0.595E-01
CGA:   5    -0.312721710815E+03   -0.67035E+00   -0.68298E+00  9568   0.105E+02-0.366E+00
CGA:   6    -0.312919672007E+03   -0.19796E+00   -0.20278E+00  9568   0.267E+01-0.110E+00
CGA:   7    -0.312994305081E+03   -0.74633E-01   -0.75145E-01  9568   0.269E+01 0.137E-01
CGA:   8    -0.313128809514E+03   -0.13450E+00   -0.13092E+00  9568   0.192E+01 0.210E+00
CGA:   9    -0.313195857205E+03   -0.67048E-01   -0.65933E-01  9568   0.112E+01-0.963E-01
CGA:  10    -0.313224622028E+03   -0.28765E-01   -0.29070E-01  9568   0.418E+00 0.628E-02
CGA:  11    -0.313235791247E+03   -0.11169E-01   -0.11234E-01  9568   0.387E+00 0.123E-02
CGA:  12    -0.313252676832E+03   -0.16886E-01   -0.16911E-01  9568   0.243E+00-0.205E-02
CGA:  13    -0.313260257993E+03   -0.75812E-02   -0.75784E-02  9568   0.149E+00-0.196E-03
CGA:  14    -0.313264311345E+03   -0.40534E-02   -0.40590E-02  9568   0.694E-01 0.162E-03
CGA:  15    -0.313266253220E+03   -0.19419E-02   -0.19409E-02  9568   0.586E-01-0.325E-04
CGA:  16    -0.313269227769E+03   -0.29745E-02   -0.29598E-02  9568   0.619E-01 0.762E-03
CGA:  17    -0.313271159768E+03   -0.19320E-02   -0.19298E-02  9568   0.309E-01-0.163E-03
CGA:  18    -0.313272167592E+03   -0.10078E-02   -0.10081E-02  9568   0.286E-01 0.644E-04
CGA:  19    -0.313273030779E+03   -0.86319E-03   -0.86373E-03  9568   0.164E-01 0.479E-04
CGA:  20    -0.313273770660E+03   -0.73988E-03   -0.73848E-03  9568   0.219E-01 0.110E-03
CGA:  21    -0.313274612872E+03   -0.84221E-03   -0.84236E-03  9568   0.115E-01-0.202E-04
CGA:  22    -0.313274932988E+03   -0.32012E-03   -0.32021E-03  9568   0.108E-01 0.825E-05
CGA:  23    -0.313275407300E+03   -0.47431E-03   -0.47457E-03  9568   0.741E-02-0.180E-04
CGA:  24    -0.313275636238E+03   -0.22894E-03   -0.22924E-03  9568   0.594E-02 0.297E-04
CGA:  25    -0.313275918167E+03   -0.28193E-03   -0.28197E-03  9568   0.560E-02-0.315E-05
CGA:  26    -0.313276057737E+03   -0.13957E-03   -0.13963E-03  9568   0.372E-02 0.453E-05
CGA:  27    -0.313276237078E+03   -0.17934E-03   -0.17915E-03  9568   0.276E-02 0.138E-04
CGA:  28    -0.313276310798E+03   -0.73720E-04   -0.73770E-04  9568   0.158E-02 0.332E-05
CGA:  29    -0.313276383512E+03   -0.72714E-04   -0.72676E-04  9568   0.197E-02 0.277E-05
CGA:  30    -0.313276437942E+03   -0.54430E-04   -0.54487E-04  9568   0.123E-02 0.462E-05
CGA:  31    -0.313276496610E+03   -0.58668E-04   -0.58668E-04  9568   0.936E-03 0.794E-06
SDA:  32    -0.313276520126E+03   -0.23516E-04   -0.23556E-04  9568   0.486E-03 0.263E-05
CGA:  33    -0.313276527910E+03   -0.77838E-05   -0.77613E-05  9568   0.238E-03-0.150E-05
CGA:  34    -0.313276542792E+03   -0.14882E-04   -0.14939E-04  9568   0.369E-03-0.236E-05
CGA:  35    -0.313276571672E+03   -0.28881E-04   -0.28918E-04  9568   0.887E-03-0.122E-05
CGA:  36    -0.313276595405E+03   -0.23732E-04   -0.23709E-04  9568   0.139E-03-0.163E-05
CGA:  37    -0.313276608673E+03   -0.13268E-04   -0.13197E-04  9568   0.199E-03 0.904E-06
CGA:  38    -0.313276617976E+03   -0.93035E-05   -0.92940E-05  9568   0.199E-03 0.135E-05
   5 F= -.31327662E+03 E0= -.31325449E+03  d E =-.951628E-01  mag=    25.8142
       N       E                     dE             d eps       ncg     rms          ort
SDA:   1    -0.307879238469E+03    0.53974E+01    0.00000E+00  9568   0.764E+02 0.000E+00
CGA:   2    -0.308756125071E+03   -0.87689E+00   -0.11895E+01  9568   0.334E+02-0.160E+02
CGA:   3    -0.310291423151E+03   -0.15353E+01   -0.15824E+01  9568   0.388E+02-0.238E+01
CGA:   4    -0.311304458114E+03   -0.10130E+01   -0.98784E+00  9568   0.201E+02-0.519E+00
CGA:   5    -0.311918685662E+03   -0.61423E+00   -0.52869E+00  9568   0.111E+02 0.118E-01
CGA:   6    -0.312320914239E+03   -0.40223E+00   -0.40363E+00  9568   0.117E+02 0.226E+00
CGA:   7    -0.312745160331E+03   -0.42425E+00   -0.42384E+00  9568   0.110E+02-0.534E-01
CGA:   8    -0.313093442145E+03   -0.34828E+00   -0.35652E+00  9568   0.333E+01 0.439E+00
CGA:   9    -0.313151632361E+03   -0.58190E-01   -0.58052E-01  9568   0.142E+01-0.149E-02
CGA:  10    -0.313225932673E+03   -0.74300E-01   -0.73938E-01  9568   0.197E+01 0.196E-01
CGA:  11    -0.313287603358E+03   -0.61671E-01   -0.61049E-01  9568   0.120E+01-0.224E-01
CGA:  12    -0.313320497703E+03   -0.32894E-01   -0.32841E-01  9568   0.428E+00-0.957E-03
CGA:  13    -0.313328616929E+03   -0.81192E-02   -0.81254E-02  9568   0.176E+00-0.167E-03
CGA:  14    -0.313340896144E+03   -0.12279E-01   -0.11897E-01  9568   0.294E+00 0.113E-01
CGA:  15    -0.313349354578E+03   -0.84584E-02   -0.83917E-02  9568   0.156E+00-0.541E-03
CGA:  16    -0.313354400507E+03   -0.50459E-02   -0.50494E-02  9568   0.105E+00 0.306E-03
CGA:  17    -0.313356944709E+03   -0.25442E-02   -0.25322E-02  9568   0.481E-01 0.337E-04
CGA:  18    -0.313359749018E+03   -0.28043E-02   -0.27756E-02  9568   0.871E-01 0.116E-02
CGA:  19    -0.313362832007E+03   -0.30830E-02   -0.30832E-02  9568   0.490E-01 0.224E-04
CGA:  20    -0.313363996682E+03   -0.11647E-02   -0.11668E-02  9568   0.257E-01 0.182E-04
CGA:  21    -0.313365122593E+03   -0.11259E-02   -0.11258E-02  9568   0.264E-01 0.171E-04
CGA:  22    -0.313366079995E+03   -0.95740E-03   -0.95766E-03  9568   0.221E-01 0.171E-03
CGA:  23    -0.313367021138E+03   -0.94114E-03   -0.94074E-03  9568   0.250E-01 0.509E-04
CGA:  24    -0.313367659544E+03   -0.63841E-03   -0.63989E-03  9568   0.885E-02 0.159E-04
CGA:  25    -0.313367980688E+03   -0.32114E-03   -0.32113E-03  9568   0.905E-02-0.202E-04
CGA:  26    -0.313368391325E+03   -0.41064E-03   -0.41017E-03  9568   0.781E-02 0.430E-04
CGA:  27    -0.313368610490E+03   -0.21916E-03   -0.21922E-03  9568   0.550E-02 0.500E-05
CGA:  28    -0.313368813401E+03   -0.20291E-03   -0.20291E-03  9568   0.400E-02 0.100E-04
CGA:  29    -0.313368936464E+03   -0.12306E-03   -0.12313E-03  9568   0.217E-02 0.667E-05
CGA:  30    -0.313369024466E+03   -0.88003E-04   -0.87973E-04  9568   0.248E-02 0.530E-05
CGA:  31    -0.313369106181E+03   -0.81714E-04   -0.81708E-04  9568   0.169E-02-0.388E-07
SDA:  32    -0.313369161334E+03   -0.55153E-04   -0.55172E-04  9568   0.132E-02 0.325E-05
CGA:  33    -0.313369179608E+03   -0.18274E-04   -0.18223E-04  9568   0.350E-03-0.657E-06
CGA:  34    -0.313369201119E+03   -0.21510E-04   -0.21522E-04  9568   0.748E-03-0.707E-06
CGA:  35    -0.313369232133E+03   -0.31015E-04   -0.31010E-04  9568   0.932E-03 0.327E-06
CGA:  36    -0.313369284793E+03   -0.52660E-04   -0.52690E-04  9568   0.596E-03-0.206E-05
CGA:  37    -0.313369307166E+03   -0.22373E-04   -0.22372E-04  9568   0.290E-03-0.702E-07
CGA:  38    -0.313369332157E+03   -0.24991E-04   -0.25084E-04  9568   0.193E-03-0.222E-05
CGA:  39    -0.313369342085E+03   -0.99284E-05   -0.99260E-05  9568   0.543E-03-0.306E-07
CGA:  40    -0.313369362814E+03   -0.20729E-04   -0.20728E-04  9568   0.301E-03-0.361E-06
CGA:  41    -0.313369376958E+03   -0.14144E-04   -0.14140E-04  9568   0.155E-03 0.100E-06
CGA:  42    -0.313369380397E+03   -0.34392E-05   -0.34317E-05  9568   0.754E-04-0.534E-06
   6 F= -.31336938E+03 E0= -.31334729E+03  d E =-.927624E-01  mag=    25.8135
       N       E                     dE             d eps       ncg     rms          ort
SDA:   1    -0.308454304676E+03    0.49151E+01    0.00000E+00  9568   0.265E+02 0.000E+00
CGA:   2    -0.309076360850E+03   -0.62206E+00   -0.60885E+00  9568   0.232E+02 0.122E+00
CGA:   3    -0.310888524111E+03   -0.18122E+01   -0.20620E+01  9568   0.720E+02-0.689E+01
CGA:   4    -0.311674426803E+03   -0.78590E+00   -0.91138E+00  9568   0.269E+02-0.553E+01
CGA:   5    -0.311975736806E+03   -0.30131E+00   -0.47813E+00  9568   0.213E+02-0.411E+01
CGA:   6    -0.312255987032E+03   -0.28025E+00   -0.29736E+00  9568   0.911E+01-0.118E+01
CGA:   7    -0.312988297021E+03   -0.73231E+00   -0.72577E+00  9568   0.440E+01 0.142E+00
CGA:   8    -0.313087371608E+03   -0.99075E-01   -0.10675E+00  9568   0.379E+01-0.114E+00
CGA:   9    -0.313195925312E+03   -0.10855E+00   -0.10407E+00  9568   0.176E+01 0.466E-02
CGA:  10    -0.313248345718E+03   -0.52420E-01   -0.52187E-01  9568   0.249E+01-0.284E-02
CGA:  11    -0.313328260985E+03   -0.79915E-01   -0.79967E-01  9568   0.109E+01 0.228E-02
CGA:  12    -0.313349574203E+03   -0.21313E-01   -0.22049E-01  9568   0.440E+00-0.184E-01
CGA:  13    -0.313363966579E+03   -0.14392E-01   -0.14399E-01  9568   0.501E+00 0.424E-03
CGA:  14    -0.313380468699E+03   -0.16502E-01   -0.16535E-01  9568   0.367E+00 0.195E-02
CGA:  15    -0.313396985672E+03   -0.16517E-01   -0.16553E-01  9568   0.298E+00-0.391E-02
CGA:  16    -0.313402779080E+03   -0.57934E-02   -0.60713E-02  9568   0.104E+00-0.523E-02
CGA:  17    -0.313409056167E+03   -0.62771E-02   -0.62605E-02  9568   0.717E-01 0.526E-03
CGA:  18    -0.313414405065E+03   -0.53489E-02   -0.53235E-02  9568   0.657E-01 0.574E-03
CGA:  19    -0.313416306884E+03   -0.19018E-02   -0.19030E-02  9568   0.601E-01-0.861E-05
CGA:  20    -0.313417901032E+03   -0.15941E-02   -0.16187E-02  9568   0.277E-01 0.870E-04
CGA:  21    -0.313419048332E+03   -0.11473E-02   -0.11471E-02  9568   0.201E-01 0.660E-04
CGA:  22    -0.313420224807E+03   -0.11765E-02   -0.11773E-02  9568   0.127E-01-0.460E-04
CGA:  23    -0.313420683756E+03   -0.45895E-03   -0.45889E-03  9568   0.168E-01-0.961E-05
CGA:  24    -0.313421240918E+03   -0.55716E-03   -0.55820E-03  9568   0.617E-02 0.454E-04
CGA:  25    -0.313421421942E+03   -0.18102E-03   -0.18102E-03  9568   0.648E-02 0.217E-05
CGA:  26    -0.313421721927E+03   -0.29998E-03   -0.29960E-03  9568   0.346E-02 0.350E-04
CGA:  27    -0.313421949652E+03   -0.22773E-03   -0.22730E-03  9568   0.396E-02 0.126E-04
CGA:  28    -0.313422045327E+03   -0.95675E-04   -0.95813E-04  9568   0.263E-02 0.299E-06
CGA:  29    -0.313422137287E+03   -0.91959E-04   -0.92025E-04  9568   0.167E-02 0.478E-05
CGA:  30    -0.313422225263E+03   -0.87977E-04   -0.87812E-04  9568   0.156E-02 0.968E-05
CGA:  31    -0.313422312484E+03   -0.87221E-04   -0.87219E-04  9568   0.198E-02-0.118E-05
SDA:  32    -0.313422353123E+03   -0.40639E-04   -0.40721E-04  9568   0.862E-03-0.927E-06
CGA:  33    -0.313422374719E+03   -0.21595E-04   -0.21608E-04  9568   0.775E-03-0.785E-06
CGA:  34    -0.313422400022E+03   -0.25303E-04   -0.25315E-04  9568   0.568E-03 0.323E-06
CGA:  35    -0.313422463234E+03   -0.63212E-04   -0.63361E-04  9568   0.942E-03-0.279E-05
CGA:  36    -0.313422496539E+03   -0.33305E-04   -0.33314E-04  9568   0.291E-03-0.566E-07
CGA:  37    -0.313422511984E+03   -0.15444E-04   -0.15433E-04  9568   0.325E-03 0.512E-06
CGA:  38    -0.313422520712E+03   -0.87284E-05   -0.87519E-05  9568   0.201E-03 0.814E-06
CGA:  39    -0.313422533317E+03   -0.12605E-04   -0.12576E-04  9568   0.373E-03 0.917E-06
CGA:  40    -0.313422544033E+03   -0.10716E-04   -0.10717E-04  9568   0.366E-03-0.100E-06
CGA:  41    -0.313422573403E+03   -0.29370E-04   -0.29278E-04  9568   0.943E-04 0.205E-05
CGA:  42    -0.313422582670E+03   -0.92669E-05   -0.93350E-05  9568   0.135E-03-0.161E-05
   7 F= -.31342258E+03 E0= -.31340066E+03  d E =-.532023E-01  mag=    25.8156
       N       E                     dE             d eps       ncg     rms          ort
SDA:   1    -0.302597598511E+03    0.10825E+02    0.00000E+00  9568   0.720E+02 0.000E+00
CGA:   2    -0.303630980667E+03   -0.10334E+01   -0.17639E+01  9568   0.806E+02-0.181E+02
CGA:   3    -0.308216391940E+03   -0.45854E+01   -0.45297E+01  9568   0.921E+02-0.620E+01
CGA:   4    -0.310555333368E+03   -0.23389E+01   -0.22343E+01  9568   0.243E+02-0.109E+01
CGA:   5    -0.311260781255E+03   -0.70545E+00   -0.69824E+00  9568   0.295E+02-0.863E-01
CGA:   6    -0.311813402440E+03   -0.55262E+00   -0.51138E+00  9568   0.204E+02 0.999E+00
CGA:   7    -0.312231750966E+03   -0.41835E+00   -0.49893E+00  9568   0.304E+02-0.133E+01
CGA:   8    -0.312731933017E+03   -0.50018E+00   -0.57545E+00  9568   0.153E+02-0.250E+01
CGA:   9    -0.313025294353E+03   -0.29336E+00   -0.19426E+00  9568   0.483E+01 0.559E+01
CGA:  10    -0.313099204122E+03   -0.73910E-01   -0.64009E-01  9568   0.201E+01 0.804E+00
CGA:  11    -0.313146860477E+03   -0.47656E-01   -0.41873E-01  9568   0.245E+01 0.199E+00
CGA:  12    -0.313187135545E+03   -0.40275E-01   -0.38749E-01  9568   0.344E+01 0.711E-01
CGA:  13    -0.313244128042E+03   -0.56992E-01   -0.60746E-01  9568   0.504E+01-0.135E+00
CGA:  14    -0.313306500243E+03   -0.62372E-01   -0.55908E-01  9568   0.413E+01 0.488E+00
CGA:  15    -0.313347901001E+03   -0.41401E-01   -0.37312E-01  9568   0.209E+01 0.395E+00
CGA:  16    -0.313366364671E+03   -0.18464E-01   -0.16693E-01  9568   0.968E+00 0.199E+00
CGA:  17    -0.313375130404E+03   -0.87657E-02   -0.94340E-02  9568   0.693E+00-0.620E-01
CGA:  18    -0.313381971119E+03   -0.68407E-02   -0.72300E-02  9568   0.660E+00-0.253E-01
CGA:  19    -0.313389145106E+03   -0.71740E-02   -0.75112E-02  9568   0.721E+00-0.194E-01
CGA:  20    -0.313399944258E+03   -0.10799E-01   -0.10231E-01  9568   0.111E+01 0.191E-01
CGA:  21    -0.313413210795E+03   -0.13267E-01   -0.12823E-01  9568   0.106E+01 0.298E-01
CGA:  22    -0.313422546774E+03   -0.93360E-02   -0.10221E-01  9568   0.634E+00-0.674E-01
CGA:  23    -0.313429286115E+03   -0.67393E-02   -0.73529E-02  9568   0.621E+00-0.269E-01
CGA:  24    -0.313436380353E+03   -0.70942E-02   -0.73201E-02  9568   0.291E+00-0.928E-02
CGA:  25    -0.313439253329E+03   -0.28730E-02   -0.29327E-02  9568   0.164E+00-0.386E-02
CGA:  26    -0.313442026264E+03   -0.27729E-02   -0.27871E-02  9568   0.191E+00 0.816E-04
CGA:  27    -0.313444952544E+03   -0.29263E-02   -0.29523E-02  9568   0.154E+00-0.161E-03
CGA:  28    -0.313447050346E+03   -0.20978E-02   -0.20787E-02  9568   0.118E+00 0.403E-03
CGA:  29    -0.313449308209E+03   -0.22579E-02   -0.22661E-02  9568   0.177E+00 0.574E-03
CGA:  30    -0.313452701658E+03   -0.33934E-02   -0.34040E-02  9568   0.176E+00 0.791E-03
CGA:  31    -0.313455205165E+03   -0.25035E-02   -0.25541E-02  9568   0.126E+00-0.297E-03
SDA:  32    -0.313457648753E+03   -0.24436E-02   -0.24494E-02  9568   0.108E+00 0.708E-03
CGA:  33    -0.313459127554E+03   -0.14788E-02   -0.14789E-02  9568   0.242E-01 0.183E-04
CGA:  34    -0.313460164975E+03   -0.10374E-02   -0.10313E-02  9568   0.349E-01 0.286E-03
CGA:  35    -0.313461201903E+03   -0.10369E-02   -0.10349E-02  9568   0.224E-01 0.254E-03
CGA:  36    -0.313462338708E+03   -0.11368E-02   -0.11289E-02  9568   0.896E-02 0.300E-03
CGA:  37    -0.313463320482E+03   -0.98177E-03   -0.96515E-03  9568   0.165E-01 0.251E-03
CGA:  38    -0.313463899105E+03   -0.57862E-03   -0.57985E-03  9568   0.767E-02-0.154E-03
CGA:  39    -0.313464064455E+03   -0.16535E-03   -0.16577E-03  9568   0.616E-02 0.318E-05
CGA:  40    -0.313464428533E+03   -0.36408E-03   -0.36501E-03  9568   0.565E-02-0.321E-04
CGA:  41    -0.313464810823E+03   -0.38229E-03   -0.38117E-03  9568   0.744E-02 0.289E-04
CGA:  42    -0.313465016281E+03   -0.20546E-03   -0.20555E-03  9568   0.463E-02 0.121E-04
CGA:  43    -0.313465414489E+03   -0.39821E-03   -0.38966E-03  9568   0.356E-02 0.174E-03
CGA:  44    -0.313465520553E+03   -0.10606E-03   -0.10589E-03  9568   0.194E-02-0.504E-05
CGA:  45    -0.313465579548E+03   -0.58995E-04   -0.59074E-04  9568   0.268E-02 0.101E-04
CGA:  46    -0.313465841121E+03   -0.26157E-03   -0.26335E-03  9568   0.294E-02-0.375E-04
CGA:  47    -0.313465989731E+03   -0.14861E-03   -0.14809E-03  9568   0.199E-02 0.274E-04
CGA:  48    -0.313466041067E+03   -0.51336E-04   -0.51101E-04  9568   0.151E-02-0.309E-05
CGA:  49    -0.313466100594E+03   -0.59527E-04   -0.59479E-04  9568   0.107E-02 0.835E-05
CGA:  50    -0.313466148236E+03   -0.47642E-04   -0.47754E-04  9568   0.815E-03-0.129E-04
CGA:  51    -0.313466173551E+03   -0.25315E-04   -0.25304E-04  9568   0.652E-03-0.421E-05
CGA:  52    -0.313466208761E+03   -0.35209E-04   -0.35242E-04  9568   0.354E-03-0.212E-05
CGA:  53    -0.313466219290E+03   -0.10529E-04   -0.10553E-04  9568   0.288E-03 0.132E-05
CGA:  54    -0.313466227892E+03   -0.86024E-05   -0.86076E-05  9568   0.210E-03 0.193E-05
CGA:  55    -0.313466246033E+03   -0.18141E-04   -0.17608E-04  9568   0.193E-03 0.113E-04
CGA:  56    -0.313466254455E+03   -0.84223E-05   -0.84193E-05  9568   0.112E-03 0.196E-05
   8 F= -.31346625E+03 E0= -.31344462E+03  d E =-.436718E-01  mag=    25.8246
       N       E                     dE             d eps       ncg     rms          ort
SDA:   1    -0.295916505443E+03    0.17550E+02    0.00000E+00  9568   0.209E+03 0.000E+00
CGA:   2    -0.298330814904E+03   -0.24143E+01   -0.46593E+01  9568   0.142E+03-0.439E+02
CGA:   3    -0.302498412030E+03   -0.41676E+01   -0.41800E+01  9568   0.109E+03 0.532E+01
CGA:   4    -0.304824200751E+03   -0.23258E+01   -0.24635E+01  9568   0.172E+03-0.148E+02
CGA:   5    -0.306689501567E+03   -0.18653E+01   -0.19002E+01  9568   0.816E+02-0.420E+02
CGA:   6    -0.308587425404E+03   -0.18979E+01   -0.45762E+01  9568   0.284E+03-0.617E+02
CGA:   7    -0.311121110457E+03   -0.25337E+01   -0.58516E+01  9568   0.234E+02-0.145E+02
CGA:   8    -0.311885185184E+03   -0.76407E+00   -0.49303E+00  9568   0.112E+02 0.741E+01
CGA:   9    -0.312013137012E+03   -0.12795E+00   -0.82963E-01  9568   0.646E+01 0.728E+01
CGA:  10    -0.312198726759E+03   -0.18559E+00   -0.18744E+00  9568   0.781E+01 0.808E-01
CGA:  11    -0.312684781789E+03   -0.48606E+00   -0.47353E+00  9568   0.131E+02 0.461E+00
CGA:  12    -0.313062259944E+03   -0.37748E+00   -0.35359E+00  9568   0.267E+01-0.128E+00
CGA:  13    -0.313123681975E+03   -0.61422E-01   -0.61145E-01  9568   0.189E+01-0.286E-02
CGA:  14    -0.313190165498E+03   -0.66484E-01   -0.66496E-01  9568   0.277E+01-0.138E-01
CGA:  15    -0.313344368961E+03   -0.15420E+00   -0.14442E+00  9568   0.247E+01 0.446E+00
CGA:  16    -0.313385804176E+03   -0.41435E-01   -0.36633E-01  9568   0.895E+00 0.271E+00
CGA:  17    -0.313413934529E+03   -0.28130E-01   -0.28001E-01  9568   0.726E+00-0.603E-02
CGA:  18    -0.313429701307E+03   -0.15767E-01   -0.15813E-01  9568   0.458E+00-0.841E-03
CGA:  19    -0.313463345528E+03   -0.33644E-01   -0.36277E-01  9568   0.900E+00-0.654E-01
CGA:  20    -0.313472165927E+03   -0.88204E-02   -0.99217E-02  9568   0.262E+00-0.599E-01
CGA:  21    -0.313480916165E+03   -0.87502E-02   -0.87370E-02  9568   0.175E+00 0.661E-02
CGA:  22    -0.313483795609E+03   -0.28794E-02   -0.29005E-02  9568   0.117E+00-0.730E-03
CGA:  23    -0.313489187745E+03   -0.53921E-02   -0.53277E-02  9568   0.176E+00 0.411E-02
CGA:  24    -0.313495222621E+03   -0.60349E-02   -0.60412E-02  9568   0.164E+00 0.262E-02
CGA:  25    -0.313499554042E+03   -0.43314E-02   -0.42969E-02  9568   0.145E+00-0.673E-03
CGA:  26    -0.313503283911E+03   -0.37299E-02   -0.37907E-02  9568   0.834E-01 0.183E-02
CGA:  27    -0.313505668549E+03   -0.23846E-02   -0.23971E-02  9568   0.409E-01 0.792E-03
CGA:  28    -0.313507035611E+03   -0.13671E-02   -0.13670E-02  9568   0.575E-01-0.170E-03
CGA:  29    -0.313508797367E+03   -0.17618E-02   -0.17661E-02  9568   0.338E-01 0.776E-03
CGA:  30    -0.313510464583E+03   -0.16672E-02   -0.16615E-02  9568   0.484E-01 0.301E-03
CGA:  31    -0.313511556051E+03   -0.10915E-02   -0.10892E-02  9568   0.160E-01 0.169E-05
CGA:  32    -0.313511934712E+03   -0.37866E-03   -0.38064E-03  9568   0.132E-01 0.141E-04
CGA:  33    -0.313512711893E+03   -0.77718E-03   -0.77746E-03  9568   0.110E-01-0.111E-04
CGA:  34    -0.313513035505E+03   -0.32361E-03   -0.32302E-03  9568   0.127E-01-0.462E-04
CGA:  35    -0.313513492727E+03   -0.45722E-03   -0.45648E-03  9568   0.865E-02 0.194E-03
CGA:  36    -0.313513742141E+03   -0.24941E-03   -0.24936E-03  9568   0.662E-02-0.367E-05
CGA:  37    -0.313514080367E+03   -0.33823E-03   -0.33910E-03  9568   0.846E-02-0.387E-04
CGA:  38    -0.313514277568E+03   -0.19720E-03   -0.19926E-03  9568   0.550E-02 0.225E-04
CGA:  39    -0.313514517120E+03   -0.23955E-03   -0.24069E-03  9568   0.545E-02-0.797E-04
SDA:  40    -0.313514721340E+03   -0.20422E-03   -0.20425E-03  9568   0.439E-02 0.286E-05
CGA:  41    -0.313514794970E+03   -0.73631E-04   -0.73562E-04  9568   0.178E-02-0.699E-05
CGA:  42    -0.313514886680E+03   -0.91710E-04   -0.92020E-04  9568   0.217E-02-0.169E-04
CGA:  43    -0.313515009766E+03   -0.12309E-03   -0.12343E-03  9568   0.421E-02-0.156E-04
CGA:  44    -0.313515149299E+03   -0.13953E-03   -0.13938E-03  9568   0.109E-02-0.360E-04
CGA:  45    -0.313515246309E+03   -0.97010E-04   -0.95669E-04  9568   0.233E-02 0.265E-04
CGA:  46    -0.313515344196E+03   -0.97887E-04   -0.97975E-04  9568   0.171E-02-0.138E-04
CGA:  47    -0.313515375384E+03   -0.31189E-04   -0.31374E-04  9568   0.543E-03-0.143E-05
CGA:  48    -0.313515441214E+03   -0.65829E-04   -0.65523E-04  9568   0.904E-03 0.341E-05
CGA:  49    -0.313515509201E+03   -0.67987E-04   -0.68439E-04  9568   0.886E-03-0.137E-04
CGA:  50    -0.313515547827E+03   -0.38626E-04   -0.38620E-04  9568   0.783E-03 0.858E-06
CGA:  51    -0.313515574311E+03   -0.26484E-04   -0.26434E-04  9568   0.655E-03-0.278E-05
CGA:  52    -0.313515596405E+03   -0.22094E-04   -0.22098E-04  9568   0.278E-03-0.214E-05
CGA:  53    -0.313515605617E+03   -0.92127E-05   -0.92035E-05  9568   0.421E-03-0.490E-06
CGA:  54    -0.313515641501E+03   -0.35884E-04   -0.35385E-04  9568   0.225E-03 0.114E-04
CGA:  55    -0.313515650362E+03   -0.88614E-05   -0.88644E-05  9568   0.104E-03 0.553E-06
   9 F= -.31351565E+03 E0= -.31349404E+03  d E =-.493959E-01  mag=    25.8401
       N       E                     dE             d eps       ncg     rms          ort
SDA:   1    -0.313111694174E+03    0.40395E+00    0.00000E+00  9568   0.318E+01 0.000E+00
CGA:   2    -0.313172938902E+03   -0.61245E-01   -0.55058E-01  9568   0.125E+01 0.238E+00
CGA:   3    -0.313371891671E+03   -0.19895E+00   -0.20149E+00  9568   0.314E+01-0.289E-01
CGA:   4    -0.313415069041E+03   -0.43177E-01   -0.51293E-01  9568   0.779E+00-0.355E+00
CGA:   5    -0.313461114105E+03   -0.46045E-01   -0.46542E-01  9568   0.751E+00-0.192E-01
CGA:   6    -0.313485677585E+03   -0.24563E-01   -0.24304E-01  9568   0.768E+00-0.155E-02
CGA:   7    -0.313507545062E+03   -0.21867E-01   -0.21816E-01  9568   0.129E+00 0.511E-03
CGA:   8    -0.313514567656E+03   -0.70226E-02   -0.70228E-02  9568   0.199E+00 0.337E-04
CGA:   9    -0.313520986022E+03   -0.64184E-02   -0.64234E-02  9568   0.997E-01 0.609E-04
CGA:  10    -0.313523624362E+03   -0.26383E-02   -0.26142E-02  9568   0.342E-01 0.299E-03
CGA:  11    -0.313524783229E+03   -0.11589E-02   -0.11579E-02  9568   0.283E-01-0.105E-04
CGA:  12    -0.313525837509E+03   -0.10543E-02   -0.10552E-02  9568   0.243E-01 0.571E-04
CGA:  13    -0.313526993409E+03   -0.11559E-02   -0.11559E-02  9568   0.910E-02 0.363E-05
CGA:  14    -0.313527191999E+03   -0.19859E-03   -0.19868E-03  9568   0.614E-02 0.152E-05
CGA:  15    -0.313527649873E+03   -0.45787E-03   -0.45750E-03  9568   0.529E-02 0.998E-05
CGA:  16    -0.313527798464E+03   -0.14859E-03   -0.14858E-03  9568   0.374E-02 0.163E-06
CGA:  17    -0.313527938597E+03   -0.14013E-03   -0.14009E-03  9568   0.184E-02-0.218E-05
CGA:  18    -0.313528019820E+03   -0.81222E-04   -0.81217E-04  9568   0.277E-02 0.216E-05
CGA:  19    -0.313528105636E+03   -0.85817E-04   -0.85805E-04  9568   0.825E-03-0.478E-06
CGA:  20    -0.313528149758E+03   -0.44121E-04   -0.44095E-04  9568   0.134E-02 0.168E-05
CGA:  21    -0.313528201636E+03   -0.51878E-04   -0.51879E-04  9568   0.948E-03 0.187E-06
CGA:  22    -0.313528227136E+03   -0.25500E-04   -0.25543E-04  9568   0.424E-03 0.149E-05
CGA:  23    -0.313528249614E+03   -0.22478E-04   -0.22461E-04  9568   0.658E-03 0.116E-05
CGA:  24    -0.313528271830E+03   -0.22215E-04   -0.22230E-04  9568   0.385E-03 0.983E-06
CGA:  25    -0.313528292508E+03   -0.20678E-04   -0.20650E-04  9568   0.355E-03 0.205E-05
CGA:  26    -0.313528300727E+03   -0.82190E-05   -0.82480E-05  9568   0.197E-03 0.107E-05
CGA:  27    -0.313528315520E+03   -0.14794E-04   -0.14743E-04  9568   0.216E-03 0.136E-05
CGA:  28    -0.313528321217E+03   -0.56961E-05   -0.57204E-05  9568   0.148E-03 0.998E-06
  10 F= -.31352832E+03 E0= -.31350676E+03  d E =-.126709E-01  mag=    25.8392
       N       E                     dE             d eps       ncg     rms          ort
SDA:   1    -0.313493664044E+03    0.34651E-01    0.00000E+00  9568   0.127E+01 0.000E+00
CGA:   2    -0.313508199976E+03   -0.14536E-01   -0.15859E-01  9568   0.130E+00-0.870E-01
CGA:   3    -0.313512707754E+03   -0.45078E-02   -0.45081E-02  9568   0.124E+00 0.605E-04
CGA:   4    -0.313521800177E+03   -0.90924E-02   -0.90815E-02  9568   0.192E+00 0.347E-03
CGA:   5    -0.313525858897E+03   -0.40587E-02   -0.40036E-02  9568   0.473E-01 0.142E-02
CGA:   6    -0.313527885392E+03   -0.20265E-02   -0.20263E-02  9568   0.333E-01 0.213E-03
CGA:   7    -0.313529246579E+03   -0.13612E-02   -0.13611E-02  9568   0.480E-01-0.248E-04
CGA:   8    -0.313530951993E+03   -0.17054E-02   -0.17052E-02  9568   0.105E-01-0.883E-05
CGA:   9    -0.313531247038E+03   -0.29504E-03   -0.29562E-03  9568   0.668E-02 0.473E-05
CGA:  10    -0.313531484787E+03   -0.23775E-03   -0.23777E-03  9568   0.584E-02 0.371E-05
CGA:  11    -0.313531717187E+03   -0.23240E-03   -0.23238E-03  9568   0.263E-02-0.767E-05
CGA:  12    -0.313531802832E+03   -0.85646E-04   -0.85640E-04  9568   0.214E-02-0.255E-06
CGA:  13    -0.313531862629E+03   -0.59797E-04   -0.59838E-04  9568   0.770E-03 0.150E-05
CGA:  14    -0.313531902229E+03   -0.39600E-04   -0.39615E-04  9568   0.787E-03-0.696E-06
CGA:  15    -0.313531922544E+03   -0.20314E-04   -0.20332E-04  9568   0.489E-03 0.110E-05
CGA:  16    -0.313531952525E+03   -0.29981E-04   -0.29956E-04  9568   0.518E-03 0.114E-05
CGA:  17    -0.313531967148E+03   -0.14623E-04   -0.14627E-04  9568   0.221E-03 0.408E-06
CGA:  18    -0.313531973089E+03   -0.59413E-05   -0.59405E-05  9568   0.147E-03 0.144E-07
CGA:  19    -0.313531987586E+03   -0.14497E-04   -0.14425E-04  9568   0.304E-03 0.126E-05
CGA:  20    -0.313531994839E+03   -0.72530E-05   -0.72526E-05  9568   0.133E-03 0.308E-08
  11 F= -.31353199E+03 E0= -.31351040E+03  d E =-.367362E-02  mag=    25.8403
       N       E                     dE             d eps       ncg     rms          ort
SDA:   1    -0.313319665416E+03    0.21232E+00    0.00000E+00  9568   0.212E+01 0.000E+00
CGA:   2    -0.313350132738E+03   -0.30467E-01   -0.29746E-01  9568   0.675E+00 0.343E-01
CGA:   3    -0.313472582939E+03   -0.12245E+00   -0.12259E+00  9568   0.830E+00-0.129E-02
CGA:   4    -0.313490756852E+03   -0.18174E-01   -0.18608E-01  9568   0.407E+00-0.106E-01
CGA:   5    -0.313507773754E+03   -0.17017E-01   -0.17055E-01  9568   0.402E+00 0.486E-02
CGA:   6    -0.313522104289E+03   -0.14331E-01   -0.14267E-01  9568   0.322E+00-0.122E-02
CGA:   7    -0.313530277522E+03   -0.81732E-02   -0.82590E-02  9568   0.143E+00-0.113E-02
CGA:   8    -0.313534956421E+03   -0.46789E-02   -0.46797E-02  9568   0.392E-01 0.169E-04
CGA:   9    -0.313537445405E+03   -0.24890E-02   -0.24865E-02  9568   0.918E-01 0.106E-03
CGA:  10    -0.313539469006E+03   -0.20236E-02   -0.20140E-02  9568   0.160E-01 0.244E-03
CGA:  11    -0.313540053001E+03   -0.58400E-03   -0.58396E-03  9568   0.104E-01-0.120E-05
CGA:  12    -0.313540380997E+03   -0.32800E-03   -0.32821E-03  9568   0.803E-02 0.832E-05
CGA:  13    -0.313540797439E+03   -0.41644E-03   -0.41651E-03  9568   0.745E-02-0.469E-05
CGA:  14    -0.313541016726E+03   -0.21929E-03   -0.21943E-03  9568   0.427E-02 0.227E-05
CGA:  15    -0.313541112274E+03   -0.95548E-04   -0.95807E-04  9568   0.195E-02-0.149E-05
CGA:  16    -0.313541248169E+03   -0.13589E-03   -0.13616E-03  9568   0.132E-02-0.839E-05
CGA:  17    -0.313541302721E+03   -0.54552E-04   -0.54554E-04  9568   0.158E-02 0.157E-05
CGA:  18    -0.313541355578E+03   -0.52857E-04   -0.52888E-04  9568   0.101E-02 0.385E-06
CGA:  19    -0.313541400811E+03   -0.45233E-04   -0.45236E-04  9568   0.124E-02-0.108E-05
CGA:  20    -0.313541431317E+03   -0.30506E-04   -0.30581E-04  9568   0.433E-03 0.764E-06
CGA:  21    -0.313541453627E+03   -0.22310E-04   -0.22301E-04  9568   0.504E-03 0.773E-06
CGA:  22    -0.313541493422E+03   -0.39795E-04   -0.39693E-04  9568   0.603E-03 0.264E-05
CGA:  23    -0.313541508512E+03   -0.15090E-04   -0.15105E-04  9568   0.392E-03 0.512E-06
CGA:  24    -0.313541524159E+03   -0.15647E-04   -0.15652E-04  9568   0.255E-03 0.122E-05
CGA:  25    -0.313541532012E+03   -0.78529E-05   -0.78737E-05  9568   0.270E-03 0.135E-05
CGA:  26    -0.313541550379E+03   -0.18367E-04   -0.18337E-04  9568   0.172E-03 0.114E-05
CGA:  27    -0.313541557510E+03   -0.71308E-05   -0.71332E-05  9568   0.132E-03 0.970E-06
  12 F= -.31354156E+03 E0= -.31351994E+03  d E =-.956267E-02  mag=    25.8420
       N       E                     dE             d eps       ncg     rms          ort
SDA:   1    -0.312484961255E+03    0.10566E+01    0.00000E+00  9568   0.621E+01 0.000E+00
CGA:   2    -0.312606979121E+03   -0.12202E+00   -0.12533E+00  9568   0.496E+01-0.111E+00
CGA:   3    -0.313139690879E+03   -0.53271E+00   -0.52325E+00  9568   0.518E+01 0.150E+00
CGA:   4    -0.313308312723E+03   -0.16862E+00   -0.16038E+00  9568   0.150E+01 0.278E-02
CGA:   5    -0.313380192197E+03   -0.71879E-01   -0.72138E-01  9568   0.302E+01-0.419E-01
CGA:   6    -0.313479642640E+03   -0.99450E-01   -0.99369E-01  9568   0.884E+00-0.135E-02
CGA:   7    -0.313514204733E+03   -0.34562E-01   -0.34223E-01  9568   0.613E+00-0.218E-01
CGA:   8    -0.313527378735E+03   -0.13174E-01   -0.13329E-01  9568   0.233E+00-0.328E-02
CGA:   9    -0.313542143135E+03   -0.14764E-01   -0.14702E-01  9568   0.230E+00 0.250E-02
CGA:  10    -0.313549758981E+03   -0.76158E-02   -0.76002E-02  9568   0.975E-01-0.184E-03
CGA:  11    -0.313551912009E+03   -0.21530E-02   -0.21242E-02  9568   0.397E-01 0.636E-03
CGA:  12    -0.313554018087E+03   -0.21061E-02   -0.21016E-02  9568   0.333E-01 0.308E-03
CGA:  13    -0.313555973770E+03   -0.19557E-02   -0.19577E-02  9568   0.421E-01-0.946E-04
CGA:  14    -0.313556833622E+03   -0.85985E-03   -0.86085E-03  9568   0.100E-01-0.298E-04
CGA:  15    -0.313557332603E+03   -0.49898E-03   -0.49850E-03  9568   0.922E-02 0.420E-04
CGA:  16    -0.313557637462E+03   -0.30486E-03   -0.30512E-03  9568   0.919E-02 0.930E-05
CGA:  17    -0.313557986698E+03   -0.34924E-03   -0.34912E-03  9568   0.694E-02-0.154E-04
CGA:  18    -0.313558303888E+03   -0.31719E-03   -0.31718E-03  9568   0.371E-02-0.374E-08
CGA:  19    -0.313558421650E+03   -0.11776E-03   -0.11795E-03  9568   0.383E-02 0.663E-05
CGA:  20    -0.313558583105E+03   -0.16145E-03   -0.16145E-03  9568   0.199E-02 0.182E-05
CGA:  21    -0.313558745808E+03   -0.16270E-03   -0.16243E-03  9568   0.371E-02 0.587E-05
CGA:  22    -0.313558857173E+03   -0.11137E-03   -0.11161E-03  9568   0.249E-02 0.673E-05
CGA:  23    -0.313558941347E+03   -0.84174E-04   -0.84202E-04  9568   0.138E-02 0.152E-05
CGA:  24    -0.313559004824E+03   -0.63477E-04   -0.63438E-04  9568   0.125E-02 0.784E-05
CGA:  25    -0.313559042566E+03   -0.37742E-04   -0.37794E-04  9568   0.128E-02 0.309E-05
CGA:  26    -0.313559120976E+03   -0.78410E-04   -0.78331E-04  9568   0.630E-03 0.333E-05
CGA:  27    -0.313559146420E+03   -0.25444E-04   -0.25446E-04  9568   0.703E-03 0.378E-06
CGA:  28    -0.313559168087E+03   -0.21667E-04   -0.21711E-04  9568   0.355E-03 0.214E-05
CGA:  29    -0.313559183783E+03   -0.15696E-04   -0.15696E-04  9568   0.271E-03-0.429E-06
CGA:  30    -0.313559199229E+03   -0.15446E-04   -0.15448E-04  9568   0.367E-03-0.416E-06
CGA:  31    -0.313559207789E+03   -0.85597E-05   -0.85668E-05  9568   0.165E-03 0.142E-06
  13 F= -.31355921E+03 E0= -.31353755E+03  d E =-.176503E-01  mag=    25.8461
       N       E                     dE             d eps       ncg     rms          ort
SDA:   1    -0.313204809633E+03    0.35439E+00    0.00000E+00  9568   0.146E+01 0.000E+00
CGA:   2    -0.313259788107E+03   -0.54978E-01   -0.55181E-01  9568   0.245E+01 0.156E-01
CGA:   3    -0.313412024854E+03   -0.15224E+00   -0.15246E+00  9568   0.229E+01-0.988E-02
CGA:   4    -0.313463108081E+03   -0.51083E-01   -0.52334E-01  9568   0.897E+00-0.236E-01
CGA:   5    -0.313492140160E+03   -0.29032E-01   -0.29351E-01  9568   0.697E+00 0.779E-02
CGA:   6    -0.313530269409E+03   -0.38129E-01   -0.38316E-01  9568   0.512E+00-0.105E-01
CGA:   7    -0.313549984248E+03   -0.19715E-01   -0.19739E-01  9568   0.206E+00 0.300E-02
CGA:   8    -0.313554204770E+03   -0.42205E-02   -0.41485E-02  9568   0.885E-01 0.195E-02
CGA:   9    -0.313560578069E+03   -0.63733E-02   -0.63820E-02  9568   0.161E+00-0.264E-03
CGA:  10    -0.313563786853E+03   -0.32088E-02   -0.32021E-02  9568   0.226E-01 0.201E-03
CGA:  11    -0.313564915481E+03   -0.11286E-02   -0.11279E-02  9568   0.149E-01 0.624E-04
CGA:  12    -0.313565600846E+03   -0.68537E-03   -0.68481E-03  9568   0.216E-01 0.958E-04
CGA:  13    -0.313566451572E+03   -0.85073E-03   -0.85047E-03  9568   0.400E-02-0.353E-04
CGA:  14    -0.313566702327E+03   -0.25076E-03   -0.25009E-03  9568   0.683E-02 0.295E-04
CGA:  15    -0.313566898293E+03   -0.19597E-03   -0.19534E-03  9568   0.238E-02-0.242E-06
CGA:  16    -0.313567006583E+03   -0.10829E-03   -0.10828E-03  9568   0.332E-02 0.159E-05
CGA:  17    -0.313567110980E+03   -0.10440E-03   -0.10438E-03  9568   0.224E-02 0.641E-06
CGA:  18    -0.313567198649E+03   -0.87669E-04   -0.87677E-04  9568   0.129E-02 0.884E-06
CGA:  19    -0.313567243078E+03   -0.44428E-04   -0.44442E-04  9568   0.728E-03 0.177E-05
CGA:  20    -0.313567280162E+03   -0.37084E-04   -0.37097E-04  9568   0.121E-02-0.118E-05
CGA:  21    -0.313567356196E+03   -0.76034E-04   -0.75866E-04  9568   0.501E-03 0.723E-05
CGA:  22    -0.313567375940E+03   -0.19744E-04   -0.19744E-04  9568   0.587E-03-0.304E-07
CGA:  23    -0.313567401105E+03   -0.25165E-04   -0.25164E-04  9568   0.340E-03 0.249E-05
CGA:  24    -0.313567419240E+03   -0.18135E-04   -0.18129E-04  9568   0.568E-03 0.525E-06
CGA:  25    -0.313567434962E+03   -0.15722E-04   -0.15731E-04  9568   0.303E-03-0.248E-07
CGA:  26    -0.313567450969E+03   -0.16007E-04   -0.15991E-04  9568   0.251E-03 0.137E-05
CGA:  27    -0.313567456733E+03   -0.57639E-05   -0.57487E-05  9568   0.841E-04-0.400E-06
  14 F= -.31356746E+03 E0= -.31354580E+03  d E =-.824894E-02  mag=    25.8493
       N       E                     dE             d eps       ncg     rms          ort
SDA:   1    -0.311809085341E+03    0.17584E+01    0.00000E+00  9568   0.601E+01 0.000E+00
CGA:   2    -0.312165995040E+03   -0.35691E+00   -0.34812E+00  9568   0.133E+02 0.507E+00
CGA:   3    -0.312892183316E+03   -0.72619E+00   -0.72834E+00  9568   0.107E+02-0.280E+00
CGA:   4    -0.313129252324E+03   -0.23707E+00   -0.23252E+00  9568   0.399E+01 0.855E-01
CGA:   5    -0.313244683193E+03   -0.11543E+00   -0.11734E+00  9568   0.329E+01-0.128E-01
CGA:   6    -0.313417952208E+03   -0.17327E+00   -0.17496E+00  9568   0.262E+01-0.124E+00
CGA:   7    -0.313493286588E+03   -0.75334E-01   -0.75353E-01  9568   0.112E+01-0.168E-03
CGA:   8    -0.313523063863E+03   -0.29777E-01   -0.28780E-01  9568   0.436E+00 0.117E-01
CGA:   9    -0.313540688222E+03   -0.17624E-01   -0.17622E-01  9568   0.655E+00-0.251E-03
CGA:  10    -0.313562822418E+03   -0.22134E-01   -0.22275E-01  9568   0.215E+00 0.390E-02
CGA:  11    -0.313569075752E+03   -0.62533E-02   -0.61950E-02  9568   0.999E-01-0.394E-04
CGA:  12    -0.313572428837E+03   -0.33531E-02   -0.33607E-02  9568   0.673E-01 0.264E-03
CGA:  13    -0.313575624885E+03   -0.31960E-02   -0.31960E-02  9568   0.699E-01 0.875E-05
CGA:  14    -0.313577582469E+03   -0.19576E-02   -0.19539E-02  9568   0.451E-01-0.712E-05
CGA:  15    -0.313578950038E+03   -0.13676E-02   -0.13699E-02  9568   0.224E-01 0.418E-04
CGA:  16    -0.313579856321E+03   -0.90628E-03   -0.90627E-03  9568   0.175E-01-0.173E-03
CGA:  17    -0.313580377047E+03   -0.52073E-03   -0.52244E-03  9568   0.782E-02 0.301E-04
CGA:  18    -0.313580918828E+03   -0.54178E-03   -0.54265E-03  9568   0.159E-01-0.312E-04
CGA:  19    -0.313581344997E+03   -0.42617E-03   -0.42584E-03  9568   0.745E-02-0.367E-05
CGA:  20    -0.313581561943E+03   -0.21695E-03   -0.21765E-03  9568   0.406E-02 0.128E-04
CGA:  21    -0.313581716214E+03   -0.15427E-03   -0.15426E-03  9568   0.382E-02-0.180E-05
CGA:  22    -0.313581928825E+03   -0.21261E-03   -0.21199E-03  9568   0.424E-02 0.341E-04
CGA:  23    -0.313582128654E+03   -0.19983E-03   -0.19979E-03  9568   0.360E-02 0.804E-05
CGA:  24    -0.313582220750E+03   -0.92096E-04   -0.92195E-04  9568   0.220E-02 0.453E-05
CGA:  25    -0.313582324910E+03   -0.10416E-03   -0.10402E-03  9568   0.262E-02 0.160E-04
CGA:  26    -0.313582399365E+03   -0.74455E-04   -0.74335E-04  9568   0.116E-02 0.106E-05
CGA:  27    -0.313582470276E+03   -0.70911E-04   -0.70765E-04  9568   0.159E-02 0.671E-05
CGA:  28    -0.313582544588E+03   -0.74312E-04   -0.74335E-04  9568   0.130E-02-0.260E-05
CGA:  29    -0.313582579370E+03   -0.34782E-04   -0.34781E-04  9568   0.516E-03 0.424E-06
CGA:  30    -0.313582597453E+03   -0.18083E-04   -0.18082E-04  9568   0.564E-03-0.238E-06
CGA:  31    -0.313582620740E+03   -0.23287E-04   -0.23289E-04  9568   0.622E-03-0.206E-05
SDA:  32    -0.313582651154E+03   -0.30414E-04   -0.30411E-04  9568   0.284E-03 0.497E-07
CGA:  33    -0.313582656146E+03   -0.49923E-05   -0.49794E-05  9568   0.976E-04-0.110E-06
  15 F= -.31358266E+03 E0= -.31356104E+03  d E =-.151994E-01  mag=    25.8565
       N       E                     dE             d eps       ncg     rms          ort
SDA:   1    -0.298282289157E+03    0.15300E+02    0.00000E+00  9568   0.325E+03 0.000E+00
CGA:   2    -0.301426962906E+03   -0.31447E+01   -0.68127E+01  9568   0.150E+03-0.645E+02
CGA:   3    -0.304471095459E+03   -0.30441E+01   -0.30820E+01  9568   0.930E+02 0.499E+01
CGA:   4    -0.305345206492E+03   -0.87411E+00   -0.16012E+01  9568   0.178E+03-0.337E+02
CGA:   5    -0.307279779499E+03   -0.19346E+01   -0.17078E+01  9568   0.660E+02-0.564E+01
CGA:   6    -0.309787303759E+03   -0.25075E+01   -0.21017E+01  9568   0.655E+02-0.236E+02
CGA:   7    -0.310063471361E+03   -0.27617E+00   -0.61241E+00  9568   0.127E+03-0.174E+02
CGA:   8    -0.310575171139E+03   -0.51170E+00   -0.89381E+00  9568   0.910E+02-0.474E+02
CGA:   9    -0.312011647676E+03   -0.14365E+01   -0.12181E+01  9568   0.278E+02 0.378E+01
CGA:  10    -0.312298878693E+03   -0.28723E+00   -0.29731E+00  9568   0.215E+02-0.124E+01
CGA:  11    -0.312428823275E+03   -0.12994E+00   -0.77725E-01  9568   0.152E+02 0.130E+02
CGA:  12    -0.312577741390E+03   -0.14892E+00   -0.16989E+00  9568   0.509E+01-0.156E+01
CGA:  13    -0.312839710511E+03   -0.26197E+00   -0.26566E+00  9568   0.155E+02-0.113E+00
CGA:  14    -0.313225717750E+03   -0.38601E+00   -0.39294E+00  9568   0.359E+01 0.272E+00
CGA:  15    -0.313312432064E+03   -0.86714E-01   -0.84664E-01  9568   0.151E+01-0.336E-01
CGA:  16    -0.313349939359E+03   -0.37507E-01   -0.37950E-01  9568   0.817E+00 0.182E-01
CGA:  17    -0.313375376635E+03   -0.25437E-01   -0.25449E-01  9568   0.137E+01 0.133E-01
CGA:  18    -0.313426492735E+03   -0.51116E-01   -0.51056E-01  9568   0.182E+01 0.870E-02
CGA:  19    -0.313474889052E+03   -0.48396E-01   -0.48798E-01  9568   0.606E+00 0.264E-01
CGA:  20    -0.313493130508E+03   -0.18241E-01   -0.18245E-01  9568   0.412E+00 0.927E-03
CGA:  21    -0.313505533187E+03   -0.12403E-01   -0.12428E-01  9568   0.402E+00 0.117E-01
CGA:  22    -0.313520713304E+03   -0.15180E-01   -0.14956E-01  9568   0.542E+00 0.283E-01
CGA:  23    -0.313533106905E+03   -0.12394E-01   -0.12353E-01  9568   0.186E+00-0.139E-03
CGA:  24    -0.313540192942E+03   -0.70860E-02   -0.70262E-02  9568   0.178E+00 0.588E-02
CGA:  25    -0.313545852648E+03   -0.56597E-02   -0.56587E-02  9568   0.118E+00-0.118E-02
CGA:  26    -0.313549653715E+03   -0.38011E-02   -0.37881E-02  9568   0.112E+00 0.584E-02
CGA:  27    -0.313553574229E+03   -0.39205E-02   -0.39219E-02  9568   0.853E-01-0.349E-03
CGA:  28    -0.313556398929E+03   -0.28247E-02   -0.28168E-02  9568   0.459E-01 0.245E-02
CGA:  29    -0.313558154807E+03   -0.17559E-02   -0.17568E-02  9568   0.354E-01-0.872E-04
CGA:  30    -0.313559200798E+03   -0.10460E-02   -0.10488E-02  9568   0.269E-01 0.622E-03
CGA:  31    -0.313560503707E+03   -0.13029E-02   -0.13058E-02  9568   0.380E-01-0.144E-03
CGA:  32    -0.313561707015E+03   -0.12033E-02   -0.12037E-02  9568   0.181E-01 0.367E-03
CGA:  33    -0.313562406977E+03   -0.69996E-03   -0.69942E-03  9568   0.109E-01 0.614E-04
CGA:  34    -0.313562741332E+03   -0.33436E-03   -0.33452E-03  9568   0.714E-02 0.385E-04
CGA:  35    -0.313563060939E+03   -0.31961E-03   -0.31971E-03  9568   0.807E-02-0.521E-05
CGA:  36    -0.313563318776E+03   -0.25784E-03   -0.25793E-03  9568   0.496E-02 0.387E-04
CGA:  37    -0.313563492915E+03   -0.17414E-03   -0.17410E-03  9568   0.385E-02 0.123E-04
CGA:  38    -0.313563684290E+03   -0.19138E-03   -0.19119E-03  9568   0.280E-02 0.924E-05
CGA:  39    -0.313563756762E+03   -0.72472E-04   -0.72478E-04  9568   0.139E-02 0.156E-05
CGA:  40    -0.313563827455E+03   -0.70693E-04   -0.70630E-04  9568   0.199E-02 0.341E-05
CGA:  41    -0.313563893984E+03   -0.66529E-04   -0.66528E-04  9568   0.159E-02 0.280E-06
SDA:  42    -0.313563973425E+03   -0.79441E-04   -0.79324E-04  9568   0.113E-02 0.720E-05
CGA:  43    -0.313563990469E+03   -0.17045E-04   -0.17010E-04  9568   0.314E-03 0.469E-06
CGA:  44    -0.313564016512E+03   -0.26043E-04   -0.25956E-04  9568   0.825E-03 0.166E-05
CGA:  45    -0.313564048887E+03   -0.32375E-04   -0.32376E-04  9568   0.937E-03 0.666E-06
CGA:  46    -0.313564084776E+03   -0.35889E-04   -0.35890E-04  9568   0.379E-03-0.386E-06
CGA:  47    -0.313564107329E+03   -0.22552E-04   -0.22573E-04  9568   0.423E-03-0.105E-05
CGA:  48    -0.313564138699E+03   -0.31370E-04   -0.31523E-04  9568   0.305E-03-0.426E-05
CGA:  49    -0.313564150587E+03   -0.11889E-04   -0.11888E-04  9568   0.344E-03-0.185E-05
CGA:  50    -0.313564158431E+03   -0.78432E-05   -0.78342E-05  9568   0.122E-03-0.650E-06
CGA:  51    -0.313564170604E+03   -0.12174E-04   -0.12098E-04  9568   0.142E-03 0.117E-05
CGA:  52    -0.313564174771E+03   -0.41660E-05   -0.41671E-05  9568   0.140E-03 0.971E-07
CGA:  53    -0.313564185448E+03   -0.10677E-04   -0.10609E-04  9568   0.645E-04 0.191E-05
CGA:  54    -0.313564187774E+03   -0.23259E-05   -0.23242E-05  9568   0.598E-04-0.275E-06
  16 F= -.31356419E+03 E0= -.31354204E+03  d E =0.184684E-01  mag=    25.8820
       N       E                     dE             d eps       ncg     rms          ort
SDA:   1    -0.305493056390E+03    0.80711E+01    0.00000E+00  9568   0.215E+03 0.000E+00
CGA:   2    -0.307161445649E+03   -0.16684E+01   -0.44091E+01  9568   0.101E+03-0.633E+02
CGA:   3    -0.309197661661E+03   -0.20362E+01   -0.18275E+01  9568   0.291E+02 0.353E+01
CGA:   4    -0.310118604910E+03   -0.92094E+00   -0.94345E+00  9568   0.263E+02 0.325E+00
CGA:   5    -0.310856147073E+03   -0.73754E+00   -0.73518E+00  9568   0.431E+02-0.110E+00
CGA:   6    -0.311727046489E+03   -0.87090E+00   -0.71423E+00  9568   0.287E+02 0.579E+01
CGA:   7    -0.312192863494E+03   -0.46582E+00   -0.48357E+00  9568   0.187E+02-0.139E+01
CGA:   8    -0.312597318290E+03   -0.40445E+00   -0.43893E+00  9568   0.109E+02-0.663E-01
CGA:   9    -0.312893073504E+03   -0.29576E+00   -0.28925E+00  9568   0.115E+02-0.900E-01
CGA:  10    -0.313066400041E+03   -0.17333E+00   -0.16128E+00  9568   0.606E+01 0.526E+00
CGA:  11    -0.313186592637E+03   -0.12019E+00   -0.11919E+00  9568   0.792E+01 0.662E-02
CGA:  12    -0.313315450541E+03   -0.12886E+00   -0.13566E+00  9568   0.423E+01-0.224E+00
CGA:  13    -0.313397490521E+03   -0.82040E-01   -0.83754E-01  9568   0.386E+01-0.230E-01
CGA:  14    -0.313458000314E+03   -0.60510E-01   -0.59576E-01  9568   0.217E+01 0.278E-01
CGA:  15    -0.313487891168E+03   -0.29891E-01   -0.30483E-01  9568   0.122E+01-0.293E-01
CGA:  16    -0.313506827421E+03   -0.18936E-01   -0.19615E-01  9568   0.814E+00-0.192E-01
CGA:  17    -0.313529512169E+03   -0.22685E-01   -0.22790E-01  9568   0.961E+00 0.243E-01
CGA:  18    -0.313546485022E+03   -0.16973E-01   -0.17183E-01  9568   0.564E+00-0.428E-02
CGA:  19    -0.313560914093E+03   -0.14429E-01   -0.14410E-01  9568   0.531E+00-0.167E-02
CGA:  20    -0.313568949066E+03   -0.80350E-02   -0.80324E-02  9568   0.243E+00 0.801E-04
CGA:  21    -0.313575068262E+03   -0.61192E-02   -0.61407E-02  9568   0.212E+00 0.231E-02
CGA:  22    -0.313579344827E+03   -0.42766E-02   -0.42985E-02  9568   0.163E+00 0.245E-03
CGA:  23    -0.313583971046E+03   -0.46262E-02   -0.46248E-02  9568   0.171E+00 0.274E-02
CGA:  24    -0.313588186091E+03   -0.42150E-02   -0.42313E-02  9568   0.132E+00 0.155E-02
CGA:  25    -0.313590716875E+03   -0.25308E-02   -0.25145E-02  9568   0.721E-01-0.363E-04
CGA:  26    -0.313592820002E+03   -0.21031E-02   -0.21027E-02  9568   0.725E-01 0.154E-03
CGA:  27    -0.313594248802E+03   -0.14288E-02   -0.14391E-02  9568   0.449E-01 0.180E-03
CGA:  28    -0.313595801976E+03   -0.15532E-02   -0.15513E-02  9568   0.523E-01 0.199E-03
CGA:  29    -0.313596955223E+03   -0.11532E-02   -0.11527E-02  9568   0.353E-01-0.165E-04
CGA:  30    -0.313597831299E+03   -0.87608E-03   -0.87730E-03  9568   0.231E-01 0.224E-03
CGA:  31    -0.313598387377E+03   -0.55608E-03   -0.55793E-03  9568   0.174E-01 0.219E-03
SDA:  32    -0.313598825627E+03   -0.43825E-03   -0.43804E-03  9568   0.146E-01-0.397E-04
CGA:  33    -0.313599047123E+03   -0.22150E-03   -0.22277E-03  9568   0.290E-02-0.207E-04
CGA:  34    -0.313599382529E+03   -0.33541E-03   -0.33639E-03  9568   0.121E-01-0.132E-04
CGA:  35    -0.313599893689E+03   -0.51116E-03   -0.50962E-03  9568   0.897E-02 0.104E-03
CGA:  36    -0.313600063693E+03   -0.17000E-03   -0.17034E-03  9568   0.158E-02 0.309E-06
CGA:  37    -0.313600156958E+03   -0.93265E-04   -0.92970E-04  9568   0.139E-02 0.101E-04
CGA:  38    -0.313600311086E+03   -0.15413E-03   -0.15330E-03  9568   0.261E-02 0.943E-05
CGA:  39    -0.313600366246E+03   -0.55160E-04   -0.55387E-04  9568   0.109E-02-0.192E-06
CGA:  40    -0.313600439775E+03   -0.73529E-04   -0.73396E-04  9568   0.182E-02 0.422E-05
CGA:  41    -0.313600500787E+03   -0.61012E-04   -0.61023E-04  9568   0.157E-02 0.157E-05
CGA:  42    -0.313600563947E+03   -0.63160E-04   -0.63173E-04  9568   0.339E-03-0.367E-05
CGA:  43    -0.313600581382E+03   -0.17435E-04   -0.17393E-04  9568   0.538E-03 0.264E-05
CGA:  44    -0.313600612429E+03   -0.31048E-04   -0.30978E-04  9568   0.875E-03 0.368E-05
CGA:  45    -0.313600633598E+03   -0.21169E-04   -0.21206E-04  9568   0.145E-03 0.289E-05
CGA:  46    -0.313600640588E+03   -0.69902E-05   -0.69880E-05  9568   0.182E-03 0.106E-06
  17 F= -.31360064E+03 E0= -.31357927E+03  d E =-.364528E-01  mag=    25.8600
       N       E                     dE             d eps       ncg     rms          ort
SDA:   1    -0.313342411571E+03    0.25822E+00    0.00000E+00  9568   0.452E+01 0.000E+00
CGA:   2    -0.313409191385E+03   -0.66780E-01   -0.69497E-01  9568   0.971E+00-0.125E+00
CGA:   3    -0.313466166537E+03   -0.56975E-01   -0.56244E-01  9568   0.168E+01 0.287E-01
CGA:   4    -0.313519355192E+03   -0.53189E-01   -0.53272E-01  9568   0.821E+00 0.286E-02
CGA:   5    -0.313542573006E+03   -0.23218E-01   -0.22926E-01  9568   0.353E+00-0.415E-02
CGA:   6    -0.313570718630E+03   -0.28146E-01   -0.28025E-01  9568   0.407E+00 0.304E-02
CGA:   7    -0.313586051900E+03   -0.15333E-01   -0.15311E-01  9568   0.344E+00-0.452E-02
CGA:   8    -0.313594889510E+03   -0.88376E-02   -0.88434E-02  9568   0.802E-01-0.195E-04
CGA:   9    -0.313597996863E+03   -0.31074E-02   -0.31073E-02  9568   0.112E+00 0.302E-03
CGA:  10    -0.313602277664E+03   -0.42808E-02   -0.42815E-02  9568   0.581E-01 0.613E-03
CGA:  11    -0.313604086306E+03   -0.18086E-02   -0.18029E-02  9568   0.141E-01-0.177E-03
CGA:  12    -0.313604830003E+03   -0.74370E-03   -0.74438E-03  9568   0.194E-01-0.326E-04
CGA:  13    -0.313605409869E+03   -0.57987E-03   -0.58004E-03  9568   0.118E-01 0.122E-04
CGA:  14    -0.313605877590E+03   -0.46772E-03   -0.46778E-03  9568   0.708E-02-0.231E-04
CGA:  15    -0.313606050323E+03   -0.17273E-03   -0.17239E-03  9568   0.367E-02 0.546E-05
CGA:  16    -0.313606247589E+03   -0.19727E-03   -0.19702E-03  9568   0.269E-02 0.149E-04
CGA:  17    -0.313606375896E+03   -0.12831E-03   -0.12834E-03  9568   0.244E-02-0.175E-05
CGA:  18    -0.313606455881E+03   -0.79985E-04   -0.80005E-04  9568   0.220E-02 0.378E-05
CGA:  19    -0.313606534988E+03   -0.79106E-04   -0.79123E-04  9568   0.111E-02 0.374E-05
CGA:  20    -0.313606574722E+03   -0.39735E-04   -0.39736E-04  9568   0.894E-03 0.216E-06
CGA:  21    -0.313606605105E+03   -0.30383E-04   -0.30380E-04  9568   0.598E-03 0.128E-06
CGA:  22    -0.313606655127E+03   -0.50023E-04   -0.50067E-04  9568   0.656E-03-0.104E-05
CGA:  23    -0.313606669727E+03   -0.14600E-04   -0.14589E-04  9568   0.296E-03-0.325E-06
CGA:  24    -0.313606680696E+03   -0.10968E-04   -0.10968E-04  9568   0.239E-03-0.408E-06
CGA:  25    -0.313606694109E+03   -0.13414E-04   -0.13430E-04  9568   0.276E-03-0.932E-06
CGA:  26    -0.313606702811E+03   -0.87018E-05   -0.87067E-05  9568   0.171E-03 0.427E-06
  18 F= -.31360670E+03 E0= -.31358519E+03  d E =-.606222E-02  mag=    25.8650
       N       E                     dE             d eps       ncg     rms          ort
SDA:   1    -0.313503445007E+03    0.10325E+00    0.00000E+00  9568   0.817E+00 0.000E+00
CGA:   2    -0.313521183539E+03   -0.17739E-01   -0.16984E-01  9568   0.475E+00 0.164E-01
CGA:   3    -0.313560457461E+03   -0.39274E-01   -0.39759E-01  9568   0.461E+00-0.121E-01
CGA:   4    -0.313576979452E+03   -0.16522E-01   -0.16473E-01  9568   0.348E+00-0.404E-02
CGA:   5    -0.313585068877E+03   -0.80894E-02   -0.83954E-02  9568   0.169E+00-0.287E-02
CGA:   6    -0.313596393911E+03   -0.11325E-01   -0.11287E-01  9568   0.214E+00 0.129E-02
CGA:   7    -0.313603762223E+03   -0.73683E-02   -0.73555E-02  9568   0.878E-01-0.493E-03
CGA:   8    -0.313605488951E+03   -0.17267E-02   -0.17206E-02  9568   0.327E-01 0.159E-03
CGA:   9    -0.313608090010E+03   -0.26011E-02   -0.26061E-02  9568   0.355E-01-0.120E-03
CGA:  10    -0.313609036450E+03   -0.94644E-03   -0.94806E-03  9568   0.195E-01-0.768E-06
CGA:  11    -0.313609541876E+03   -0.50543E-03   -0.50422E-03  9568   0.481E-02 0.102E-04
CGA:  12    -0.313609826167E+03   -0.28429E-03   -0.28399E-03  9568   0.930E-02 0.147E-04
CGA:  13    -0.313610125192E+03   -0.29902E-03   -0.29915E-03  9568   0.450E-02 0.977E-05
CGA:  14    -0.313610258704E+03   -0.13351E-03   -0.13359E-03  9568   0.146E-02 0.259E-05
CGA:  15    -0.313610326735E+03   -0.68031E-04   -0.67994E-04  9568   0.205E-02 0.501E-05
CGA:  16    -0.313610391510E+03   -0.64775E-04   -0.64828E-04  9568   0.132E-02 0.350E-05
CGA:  17    -0.313610459853E+03   -0.68343E-04   -0.68335E-04  9568   0.657E-03 0.836E-06
CGA:  18    -0.313610481929E+03   -0.22076E-04   -0.22081E-04  9568   0.811E-03 0.483E-06
CGA:  19    -0.313610516997E+03   -0.35068E-04   -0.35062E-04  9568   0.381E-03 0.166E-05
CGA:  20    -0.313610532133E+03   -0.15136E-04   -0.15136E-04  9568   0.325E-03-0.424E-06
CGA:  21    -0.313610546604E+03   -0.14472E-04   -0.14471E-04  9568   0.496E-03-0.159E-06
CGA:  22    -0.313610565320E+03   -0.18716E-04   -0.18715E-04  9568   0.199E-03-0.539E-06
CGA:  23    -0.313610573768E+03   -0.84483E-05   -0.84494E-05  9568   0.167E-03-0.556E-06
  19 F= -.31361057E+03 E0= -.31358899E+03  d E =-.387096E-02  mag=    25.8682
       N       E                     dE             d eps       ncg     rms          ort
SDA:   1    -0.313550819907E+03    0.59745E-01    0.00000E+00  9568   0.442E+00 0.000E+00
CGA:   2    -0.313559745070E+03   -0.89252E-02   -0.88744E-02  9568   0.314E+00 0.119E-02
CGA:   3    -0.313581929687E+03   -0.22185E-01   -0.22435E-01  9568   0.301E+00-0.742E-02
CGA:   4    -0.313594933695E+03   -0.13004E-01   -0.12992E-01  9568   0.182E+00 0.198E-02
CGA:   5    -0.313599575783E+03   -0.46421E-02   -0.46507E-02  9568   0.993E-01-0.171E-04
CGA:   6    -0.313604634753E+03   -0.50590E-02   -0.50640E-02  9568   0.134E+00-0.322E-03
CGA:   7    -0.313609566834E+03   -0.49321E-02   -0.49314E-02  9568   0.693E-01-0.595E-04
CGA:   8    -0.313610908314E+03   -0.13415E-02   -0.13381E-02  9568   0.154E-01 0.881E-04
CGA:   9    -0.313612160359E+03   -0.12520E-02   -0.12541E-02  9568   0.180E-01-0.449E-04
CGA:  10    -0.313612766344E+03   -0.60598E-03   -0.60631E-03  9568   0.146E-01 0.147E-04
CGA:  11    -0.313613083910E+03   -0.31757E-03   -0.31714E-03  9568   0.230E-02 0.159E-04
CGA:  12    -0.313613239164E+03   -0.15525E-03   -0.15520E-03  9568   0.509E-02 0.267E-05
CGA:  13    -0.313613392321E+03   -0.15316E-03   -0.15309E-03  9568   0.161E-02 0.188E-05
CGA:  14    -0.313613459790E+03   -0.67469E-04   -0.67465E-04  9568   0.137E-02 0.392E-05
CGA:  15    -0.313613504401E+03   -0.44611E-04   -0.44635E-04  9568   0.114E-02 0.241E-05
CGA:  16    -0.313613542124E+03   -0.37722E-04   -0.37722E-04  9568   0.596E-03 0.747E-06
CGA:  17    -0.313613570981E+03   -0.28858E-04   -0.28840E-04  9568   0.438E-03 0.213E-05
CGA:  18    -0.313613592450E+03   -0.21469E-04   -0.21472E-04  9568   0.783E-03-0.141E-06
CGA:  19    -0.313613618802E+03   -0.26351E-04   -0.26361E-04  9568   0.193E-03 0.102E-05
CGA:  20    -0.313613625548E+03   -0.67466E-05   -0.67491E-05  9568   0.268E-03 0.323E-06
CGA:  21    -0.313613641410E+03   -0.15862E-04   -0.15862E-04  9568   0.200E-03-0.526E-07
CGA:  22    -0.313613652177E+03   -0.10767E-04   -0.10770E-04  9568   0.224E-03-0.221E-06
CGA:  23    -0.313613657937E+03   -0.57597E-05   -0.57579E-05  9568   0.124E-03-0.128E-06
  20 F= -.31361366E+03 E0= -.31359204E+03  d E =-.308417E-02  mag=    25.8698
       N       E                     dE             d eps       ncg     rms          ort
SDA:   1    -0.313402939306E+03    0.21071E+00    0.00000E+00  9568   0.148E+01 0.000E+00
CGA:   2    -0.313436542105E+03   -0.33603E-01   -0.32624E-01  9568   0.906E+00 0.171E-01
CGA:   3    -0.313503448132E+03   -0.66906E-01   -0.66176E-01  9568   0.151E+01 0.216E-01
CGA:   4    -0.313552175404E+03   -0.48727E-01   -0.48354E-01  9568   0.631E+00-0.569E-02
CGA:   5    -0.313566219157E+03   -0.14044E-01   -0.14047E-01  9568   0.364E+00 0.261E-03
CGA:   6    -0.313593014124E+03   -0.26795E-01   -0.26708E-01  9568   0.276E+00 0.246E-02
CGA:   7    -0.313606653832E+03   -0.13640E-01   -0.13660E-01  9568   0.155E+00-0.189E-02
CGA:   8    -0.313609431400E+03   -0.27776E-02   -0.27422E-02  9568   0.568E-01 0.131E-02
CGA:   9    -0.313612901045E+03   -0.34696E-02   -0.34670E-02  9568   0.688E-01 0.115E-03
CGA:  10    -0.313615321204E+03   -0.24202E-02   -0.24162E-02  9568   0.261E-01-0.165E-03
CGA:  11    -0.313615915259E+03   -0.59406E-03   -0.59725E-03  9568   0.106E-01-0.428E-04
CGA:  12    -0.313616562955E+03   -0.64770E-03   -0.64725E-03  9568   0.778E-02 0.197E-04
CGA:  13    -0.313616997067E+03   -0.43411E-03   -0.43444E-03  9568   0.867E-02-0.152E-04
CGA:  14    -0.313617171888E+03   -0.17482E-03   -0.17489E-03  9568   0.355E-02 0.300E-05
CGA:  15    -0.313617366024E+03   -0.19414E-03   -0.19397E-03  9568   0.233E-02 0.109E-04
CGA:  16    -0.313617462879E+03   -0.96854E-04   -0.96857E-04  9568   0.136E-02 0.299E-05
CGA:  17    -0.313617538058E+03   -0.75179E-04   -0.75215E-04  9568   0.244E-02-0.177E-05
CGA:  18    -0.313617623036E+03   -0.84978E-04   -0.85039E-04  9568   0.903E-03 0.435E-05
CGA:  19    -0.313617662308E+03   -0.39272E-04   -0.39272E-04  9568   0.704E-03 0.187E-06
CGA:  20    -0.313617681154E+03   -0.18846E-04   -0.18847E-04  9568   0.662E-03-0.417E-07
CGA:  21    -0.313617731551E+03   -0.50397E-04   -0.50384E-04  9568   0.591E-03 0.300E-06
CGA:  22    -0.313617756400E+03   -0.24848E-04   -0.24847E-04  9568   0.296E-03-0.926E-06
CGA:  23    -0.313617772937E+03   -0.16537E-04   -0.16518E-04  9568   0.401E-03 0.133E-05
CGA:  24    -0.313617784269E+03   -0.11332E-04   -0.11331E-04  9568   0.262E-03 0.169E-06
CGA:  25    -0.313617796833E+03   -0.12564E-04   -0.12561E-04  9568   0.217E-03 0.672E-06
CGA:  26    -0.313617803262E+03   -0.64292E-05   -0.64447E-05  9568   0.199E-03 0.102E-05
CGA:  27    -0.313617814588E+03   -0.11326E-04   -0.11302E-04  9568   0.765E-04 0.161E-05
CGA:  28    -0.313617817684E+03   -0.30954E-05   -0.30972E-05  9568   0.572E-04 0.487E-06
  21 F= -.31361782E+03 E0= -.31359615E+03  d E =-.415975E-02  mag=    25.8719
       N       E                     dE             d eps       ncg     rms          ort
SDA:   1    -0.313491064538E+03    0.12675E+00    0.00000E+00  9568   0.161E+01 0.000E+00
CGA:   2    -0.313512585907E+03   -0.21521E-01   -0.20903E-01  9568   0.344E+00 0.355E-01
CGA:   3    -0.313554923381E+03   -0.42337E-01   -0.42652E-01  9568   0.995E+00-0.435E-02
CGA:   4    -0.313588218778E+03   -0.33295E-01   -0.33467E-01  9568   0.315E+00 0.164E-02
CGA:   5    -0.313594900766E+03   -0.66820E-02   -0.67650E-02  9568   0.197E+00-0.219E-02
CGA:   6    -0.313606332001E+03   -0.11431E-01   -0.11478E-01  9568   0.200E+00-0.249E-02
CGA:   7    -0.313611618079E+03   -0.52861E-02   -0.53505E-02  9568   0.110E+00-0.615E-03
CGA:   8    -0.313614893677E+03   -0.32756E-02   -0.33102E-02  9568   0.188E-01 0.767E-04
CGA:   9    -0.313616484152E+03   -0.15905E-02   -0.15875E-02  9568   0.398E-01 0.758E-04
CGA:  10    -0.313617382045E+03   -0.89789E-03   -0.89413E-03  9568   0.153E-01 0.934E-04
CGA:  11    -0.313617812512E+03   -0.43047E-03   -0.42869E-03  9568   0.444E-02 0.948E-05
CGA:  12    -0.313618001452E+03   -0.18894E-03   -0.18894E-03  9568   0.419E-02 0.133E-05
CGA:  13    -0.313618225259E+03   -0.22381E-03   -0.22388E-03  9568   0.593E-02-0.447E-05
CGA:  14    -0.313618395479E+03   -0.17022E-03   -0.17033E-03  9568   0.709E-03 0.763E-06
CGA:  15    -0.313618432531E+03   -0.37052E-04   -0.37064E-04  9568   0.156E-02-0.102E-05
CGA:  16    -0.313618480238E+03   -0.47707E-04   -0.47683E-04  9568   0.764E-03-0.126E-05
CGA:  17    -0.313618529630E+03   -0.49391E-04   -0.49333E-04  9568   0.403E-03 0.230E-05
CGA:  18    -0.313618541238E+03   -0.11609E-04   -0.11589E-04  9568   0.320E-03-0.517E-06
CGA:  19    -0.313618559189E+03   -0.17951E-04   -0.17939E-04  9568   0.221E-03 0.825E-06
CGA:  20    -0.313618568475E+03   -0.92861E-05   -0.92876E-05  9568   0.213E-03 0.519E-06
CGA:  21    -0.313618579647E+03   -0.11172E-04   -0.11163E-04  9568   0.379E-03 0.936E-06
CGA:  22    -0.313618589339E+03   -0.96922E-05   -0.97090E-05  9568   0.872E-04 0.789E-06
  22 F= -.31361859E+03 E0= -.31359696E+03  d E =-.771656E-03  mag=    25.8704
       N       E                     dE             d eps       ncg     rms          ort
SDA:   1    -0.311715208885E+03    0.19034E+01    0.00000E+00  9568   0.646E+01 0.000E+00
CGA:   2    -0.311974977701E+03   -0.25977E+00   -0.25638E+00  9568   0.148E+02-0.305E+00
CGA:   3    -0.312896250971E+03   -0.92127E+00   -0.93140E+00  9568   0.125E+02-0.391E+00
CGA:   4    -0.313146926349E+03   -0.25068E+00   -0.27324E+00  9568   0.474E+01-0.536E+00
CGA:   5    -0.313292890968E+03   -0.14596E+00   -0.14699E+00  9568   0.266E+01 0.658E-02
CGA:   6    -0.313477084299E+03   -0.18419E+00   -0.18414E+00  9568   0.252E+01 0.229E-02
CGA:   7    -0.313538572990E+03   -0.61489E-01   -0.64223E-01  9568   0.821E+00-0.370E-01
CGA:   8    -0.313554708559E+03   -0.16136E-01   -0.16286E-01  9568   0.467E+00-0.431E-02
CGA:   9    -0.313588455404E+03   -0.33747E-01   -0.33247E-01  9568   0.277E+00 0.153E-01
CGA:  10    -0.313599438255E+03   -0.10983E-01   -0.11028E-01  9568   0.182E+00 0.306E-02
CGA:  11    -0.313602799683E+03   -0.33614E-02   -0.33715E-02  9568   0.736E-01-0.330E-03
CGA:  12    -0.313607294543E+03   -0.44949E-02   -0.44760E-02  9568   0.107E+00 0.819E-03
CGA:  13    -0.313610040878E+03   -0.27463E-02   -0.27227E-02  9568   0.391E-01 0.284E-03
CGA:  14    -0.313611456606E+03   -0.14157E-02   -0.14172E-02  9568   0.295E-01 0.804E-04
CGA:  15    -0.313612509675E+03   -0.10531E-02   -0.10536E-02  9568   0.252E-01 0.242E-04
CGA:  16    -0.313613102783E+03   -0.59311E-03   -0.59277E-03  9568   0.113E-01 0.454E-05
CGA:  17    -0.313613705899E+03   -0.60312E-03   -0.60147E-03  9568   0.698E-02 0.940E-04
CGA:  18    -0.313614103659E+03   -0.39776E-03   -0.39754E-03  9568   0.129E-01 0.112E-04
CGA:  19    -0.313614401394E+03   -0.29773E-03   -0.29865E-03  9568   0.311E-02-0.144E-04
CGA:  20    -0.313614517749E+03   -0.11636E-03   -0.11642E-03  9568   0.395E-02 0.827E-05
CGA:  21    -0.313614692466E+03   -0.17472E-03   -0.17469E-03  9568   0.329E-02 0.675E-05
CGA:  22    -0.313614857847E+03   -0.16538E-03   -0.16527E-03  9568   0.223E-02 0.925E-05
CGA:  23    -0.313614928092E+03   -0.70245E-04   -0.70425E-04  9568   0.196E-02 0.423E-05
CGA:  24    -0.313614991174E+03   -0.63082E-04   -0.63144E-04  9568   0.174E-02 0.370E-05
CGA:  25    -0.313615087241E+03   -0.96067E-04   -0.95862E-04  9568   0.107E-02 0.117E-04
CGA:  26    -0.313615124110E+03   -0.36869E-04   -0.36865E-04  9568   0.115E-02 0.374E-06
[...]
CGA:  13    -0.313648074354E+03   -0.23615E-02   -0.23539E-02  9568   0.448E-01 0.152E-03
CGA:  14    -0.313649936214E+03   -0.18619E-02   -0.18615E-02  9568   0.219E-01 0.637E-04
CGA:  15    -0.313650915199E+03   -0.97899E-03   -0.97797E-03  9568   0.293E-01 0.110E-03
CGA:  16    -0.313651506632E+03   -0.59143E-03   -0.58744E-03  9568   0.991E-02 0.101E-03
CGA:  17    -0.313652124256E+03   -0.61762E-03   -0.61624E-03  9568   0.896E-02 0.526E-04
CGA:  18    -0.313652505421E+03   -0.38116E-03   -0.38125E-03  9568   0.136E-01-0.101E-04
CGA:  19    -0.313652838155E+03   -0.33273E-03   -0.33264E-03  9568   0.409E-02 0.609E-05
CGA:  20    -0.313652967791E+03   -0.12964E-03   -0.12975E-03  9568   0.250E-02 0.756E-05
CGA:  21    -0.313653086092E+03   -0.11830E-03   -0.11838E-03  9568   0.505E-02-0.585E-05
CGA:  22    -0.313653312974E+03   -0.22688E-03   -0.22683E-03  9568   0.237E-02 0.445E-05
CGA:  23    -0.313653367899E+03   -0.54924E-04   -0.54938E-04  9568   0.166E-02 0.110E-05
CGA:  24    -0.313653422588E+03   -0.54689E-04   -0.54687E-04  9568   0.786E-03-0.504E-06
CGA:  25    -0.313653491542E+03   -0.68955E-04   -0.68975E-04  9568   0.154E-02-0.445E-06
CGA:  26    -0.313653529846E+03   -0.38304E-04   -0.38361E-04  9568   0.104E-02 0.535E-06
CGA:  27    -0.313653559979E+03   -0.30133E-04   -0.30168E-04  9568   0.481E-03 0.167E-05
CGA:  28    -0.313653589561E+03   -0.29581E-04   -0.29548E-04  9568   0.349E-03 0.149E-05
CGA:  29    -0.313653600531E+03   -0.10970E-04   -0.10976E-04  9568   0.449E-03 0.541E-06
CGA:  30    -0.313653615451E+03   -0.14920E-04   -0.14924E-04  9568   0.204E-03 0.743E-06
CGA:  31    -0.313653631878E+03   -0.16428E-04   -0.16363E-04  9568   0.266E-03 0.153E-05
SDA:  32    -0.313653638066E+03   -0.61874E-05   -0.61958E-05  9568   0.131E-03 0.410E-06
 158 F= -.31365364E+03 E0= -.31363105E+03  d E =0.450066E-02  mag=    25.8321
       N       E                     dE             d eps       ncg     rms          ort
SDA:   1    -0.312586484064E+03    0.10671E+01    0.00000E+00  9568   0.222E+02 0.000E+00
CGA:   2    -0.312944359430E+03   -0.35788E+00   -0.22753E+00  9568   0.554E+01 0.105E+02
CGA:   3    -0.313028147087E+03   -0.83788E-01   -0.58270E-01  9568   0.234E+01 0.313E+01
CGA:   4    -0.313158411278E+03   -0.13026E+00   -0.13207E+00  9568   0.652E+01-0.745E-01
CGA:   5    -0.313366970133E+03   -0.20856E+00   -0.20849E+00  9568   0.327E+01-0.732E-02
CGA:   6    -0.313438462619E+03   -0.71492E-01   -0.77584E-01  9568   0.214E+01-0.196E-01
CGA:   7    -0.313501671266E+03   -0.63209E-01   -0.60993E-01  9568   0.103E+01-0.666E-01
CGA:   8    -0.313541649595E+03   -0.39978E-01   -0.39969E-01  9568   0.197E+01 0.157E-02
CGA:   9    -0.313606900517E+03   -0.65251E-01   -0.65212E-01  9568   0.754E+00-0.541E-02
CGA:  10    -0.313623592328E+03   -0.16692E-01   -0.16311E-01  9568   0.290E+00 0.440E-02
CGA:  11    -0.313631754925E+03   -0.81626E-02   -0.82200E-02  9568   0.244E+00 0.207E-02
CGA:  12    -0.313639615398E+03   -0.78605E-02   -0.78706E-02  9568   0.232E+00 0.153E-02
CGA:  13    -0.313648207496E+03   -0.85921E-02   -0.86041E-02  9568   0.125E+00-0.325E-02
CGA:  14    -0.313650937212E+03   -0.27297E-02   -0.27424E-02  9568   0.571E-01-0.440E-04
CGA:  15    -0.313652447520E+03   -0.15103E-02   -0.15132E-02  9568   0.469E-01 0.847E-04
CGA:  16    -0.313654383555E+03   -0.19360E-02   -0.19459E-02  9568   0.364E-01-0.890E-03
CGA:  17    -0.313655279981E+03   -0.89643E-03   -0.89701E-03  9568   0.198E-01 0.152E-04
CGA:  18    -0.313656045747E+03   -0.76577E-03   -0.76572E-03  9568   0.297E-01 0.875E-05
CGA:  19    -0.313656929975E+03   -0.88423E-03   -0.88327E-03  9568   0.135E-01-0.795E-04
CGA:  20    -0.313657370714E+03   -0.44074E-03   -0.44079E-03  9568   0.845E-02 0.292E-04
CGA:  21    -0.313657576627E+03   -0.20591E-03   -0.20571E-03  9568   0.546E-02-0.279E-05
CGA:  22    -0.313657851337E+03   -0.27471E-03   -0.27490E-03  9568   0.126E-01-0.771E-05
CGA:  23    -0.313658329349E+03   -0.47801E-03   -0.47770E-03  9568   0.355E-02 0.546E-04
CGA:  24    -0.313658412669E+03   -0.83320E-04   -0.83360E-04  9568   0.257E-02-0.748E-07
CGA:  25    -0.313658516647E+03   -0.10398E-03   -0.10395E-03  9568   0.300E-02 0.285E-05
CGA:  26    -0.313658610438E+03   -0.93791E-04   -0.93831E-04  9568   0.243E-02 0.701E-05
CGA:  27    -0.313658714131E+03   -0.10369E-03   -0.10371E-03  9568   0.165E-02-0.187E-05
CGA:  28    -0.313658756375E+03   -0.42244E-04   -0.42236E-04  9568   0.138E-02 0.813E-06
CGA:  29    -0.313658808936E+03   -0.52561E-04   -0.52548E-04  9568   0.111E-02 0.242E-05
CGA:  30    -0.313658836651E+03   -0.27714E-04   -0.27696E-04  9568   0.472E-03-0.142E-06
CGA:  31    -0.313658856317E+03   -0.19666E-04   -0.19642E-04  9568   0.548E-03 0.297E-05
CGA:  32    -0.313658874208E+03   -0.17891E-04   -0.17892E-04  9568   0.610E-03 0.895E-06
CGA:  33    -0.313658897171E+03   -0.22963E-04   -0.22969E-04  9568   0.440E-03-0.132E-05
SDA:  34    -0.313658908386E+03   -0.11215E-04   -0.11215E-04  9568   0.140E-03-0.271E-06
CGA:  35    -0.313658911054E+03   -0.26680E-05   -0.26557E-05  9568   0.784E-04-0.913E-06
 159 F= -.31365891E+03 E0= -.31363636E+03  d E =-.527299E-02  mag=    25.8305
       N       E                     dE             d eps       ncg     rms          ort
SDA:   1    -0.313426160636E+03    0.23275E+00    0.00000E+00  9568   0.299E+01 0.000E+00
CGA:   2    -0.313466301634E+03   -0.40141E-01   -0.42564E-01  9568   0.911E+00-0.119E+00
CGA:   3    -0.313538363817E+03   -0.72062E-01   -0.70169E-01  9568   0.122E+01 0.440E-01
CGA:   4    -0.313583411366E+03   -0.45048E-01   -0.44970E-01  9568   0.592E+00-0.186E-01
CGA:   5    -0.313598262751E+03   -0.14851E-01   -0.14769E-01  9568   0.493E+00-0.361E-03
CGA:   6    -0.313627387739E+03   -0.29125E-01   -0.29078E-01  9568   0.346E+00 0.189E-02
CGA:   7    -0.313642720957E+03   -0.15333E-01   -0.15382E-01  9568   0.223E+00-0.459E-02
CGA:   8    -0.313647246031E+03   -0.45251E-02   -0.45367E-02  9568   0.902E-01-0.198E-03
CGA:   9    -0.313651152988E+03   -0.39070E-02   -0.39032E-02  9568   0.749E-01 0.395E-03
CGA:  10    -0.313654292055E+03   -0.31391E-02   -0.31437E-02  9568   0.667E-01-0.607E-03
CGA:  11    -0.313655657665E+03   -0.13656E-02   -0.13632E-02  9568   0.128E-01 0.538E-04
CGA:  12    -0.313656290401E+03   -0.63274E-03   -0.63180E-03  9568   0.123E-01 0.573E-04
CGA:  13    -0.313656776357E+03   -0.48596E-03   -0.48597E-03  9568   0.158E-01-0.484E-05
CGA:  14    -0.313657216813E+03   -0.44046E-03   -0.43981E-03  9568   0.414E-02-0.133E-04
CGA:  15    -0.313657400155E+03   -0.18334E-03   -0.18339E-03  9568   0.291E-02-0.421E-05
CGA:  16    -0.313657504482E+03   -0.10433E-03   -0.10432E-03  9568   0.369E-02-0.360E-05
CGA:  17    -0.313657641632E+03   -0.13715E-03   -0.13715E-03  9568   0.210E-02-0.278E-05
CGA:  18    -0.313657730592E+03   -0.88960E-04   -0.88910E-04  9568   0.134E-02 0.558E-05
CGA:  19    -0.313657766116E+03   -0.35523E-04   -0.35517E-04  9568   0.104E-02-0.995E-06
CGA:  20    -0.313657822824E+03   -0.56708E-04   -0.56702E-04  9568   0.838E-03 0.489E-06
CGA:  21    -0.313657854669E+03   -0.31846E-04   -0.31845E-04  9568   0.831E-03 0.186E-05
CGA:  22    -0.313657878408E+03   -0.23739E-04   -0.23750E-04  9568   0.531E-03 0.719E-06
CGA:  23    -0.313657906196E+03   -0.27788E-04   -0.27769E-04  9568   0.328E-03 0.133E-05
CGA:  24    -0.313657918657E+03   -0.12461E-04   -0.12461E-04  9568   0.337E-03 0.145E-05
CGA:  25    -0.313657927592E+03   -0.89346E-05   -0.89449E-05  9568   0.186E-03 0.861E-06
CGA:  26    -0.313657941010E+03   -0.13418E-04   -0.13392E-04  9568   0.187E-03 0.775E-06
CGA:  27    -0.313657946756E+03   -0.57455E-05   -0.57518E-05  9568   0.127E-03 0.656E-06
 160 F= -.31365795E+03 E0= -.31363546E+03  d E =0.964298E-03  mag=    25.8277
       N       E                     dE             d eps       ncg     rms          ort
SDA:   1    -0.313551942425E+03    0.10600E+00    0.00000E+00  9568   0.651E+00 0.000E+00
CGA:   2    -0.313568508191E+03   -0.16566E-01   -0.16135E-01  9568   0.588E+00 0.113E-02
CGA:   3    -0.313611374049E+03   -0.42866E-01   -0.42597E-01  9568   0.381E+00 0.753E-02
CGA:   4    -0.313622614017E+03   -0.11240E-01   -0.11133E-01  9568   0.245E+00-0.147E-02
CGA:   5    -0.313630981306E+03   -0.83673E-02   -0.83624E-02  9568   0.333E+00-0.373E-03
CGA:   6    -0.313646369467E+03   -0.15388E-01   -0.15366E-01  9568   0.118E+00 0.188E-02
CGA:   7    -0.313652289859E+03   -0.59204E-02   -0.59192E-02  9568   0.468E-01 0.868E-04
CGA:   8    -0.313654256199E+03   -0.19663E-02   -0.19671E-02  9568   0.708E-01-0.158E-03
CGA:   9    -0.313656730843E+03   -0.24746E-02   -0.24758E-02  9568   0.234E-01 0.102E-03
CGA:  10    -0.313657461724E+03   -0.73088E-03   -0.72892E-03  9568   0.112E-01-0.577E-04
CGA:  11    -0.313657727797E+03   -0.26607E-03   -0.26593E-03  9568   0.779E-02 0.272E-05
CGA:  12    -0.313658133527E+03   -0.40573E-03   -0.40544E-03  9568   0.660E-02 0.175E-04
CGA:  13    -0.313658425033E+03   -0.29151E-03   -0.29159E-03  9568   0.173E-02-0.895E-05
CGA:  14    -0.313658500147E+03   -0.75114E-04   -0.75107E-04  9568   0.246E-02 0.181E-05
CGA:  15    -0.313658570976E+03   -0.70829E-04   -0.70928E-04  9568   0.143E-02 0.464E-05
CGA:  16    -0.313658645370E+03   -0.74394E-04   -0.74365E-04  9568   0.121E-02 0.211E-05
CGA:  17    -0.313658672812E+03   -0.27443E-04   -0.27412E-04  9568   0.619E-03 0.329E-06
CGA:  18    -0.313658706655E+03   -0.33842E-04   -0.33794E-04  9568   0.452E-03 0.280E-05
CGA:  19    -0.313658725349E+03   -0.18694E-04   -0.18694E-04  9568   0.305E-03-0.458E-07
CGA:  20    -0.313658736687E+03   -0.11339E-04   -0.11338E-04  9568   0.454E-03-0.353E-06
CGA:  21    -0.313658753275E+03   -0.16588E-04   -0.16588E-04  9568   0.205E-03-0.200E-06
CGA:  22    -0.313658765778E+03   -0.12503E-04   -0.12519E-04  9568   0.912E-04-0.812E-06
CGA:  23    -0.313658768778E+03   -0.30004E-05   -0.29968E-05  9568   0.124E-03-0.564E-06
 161 F= -.31365877E+03 E0= -.31363623E+03  d E =-.822022E-03  mag=    25.8302
       N       E                     dE             d eps       ncg     rms          ort
SDA:   1    -0.313637652088E+03    0.21114E-01    0.00000E+00  9568   0.844E+00 0.000E+00
CGA:   2    -0.313648334326E+03   -0.10682E-01   -0.10915E-01  9568   0.104E+00-0.142E-01
CGA:   3    -0.313650674266E+03   -0.23399E-02   -0.23830E-02  9568   0.393E-01-0.477E-03
CGA:   4    -0.313654545478E+03   -0.38712E-02   -0.38744E-02  9568   0.385E-01-0.548E-04
CGA:   5    -0.313655791429E+03   -0.12460E-02   -0.12492E-02  9568   0.285E-01 0.926E-04
CGA:   6    -0.313656463184E+03   -0.67175E-03   -0.67201E-03  9568   0.156E-01 0.545E-06
CGA:   7    -0.313657839642E+03   -0.13765E-02   -0.13789E-02  9568   0.180E-01-0.528E-04
CGA:   8    -0.313658229051E+03   -0.38941E-03   -0.39241E-03  9568   0.753E-02-0.588E-04
CGA:   9    -0.313658495685E+03   -0.26663E-03   -0.26648E-03  9568   0.359E-02-0.825E-05
CGA:  10    -0.313658646540E+03   -0.15086E-03   -0.15087E-03  9568   0.421E-02-0.693E-05
CGA:  11    -0.313658769212E+03   -0.12267E-03   -0.12261E-03  9568   0.248E-02 0.113E-05
CGA:  12    -0.313658843023E+03   -0.73811E-04   -0.73829E-04  9568   0.503E-03 0.103E-05
CGA:  13    -0.313658879031E+03   -0.36008E-04   -0.36002E-04  9568   0.101E-02 0.390E-06
CGA:  14    -0.313658900200E+03   -0.21170E-04   -0.21163E-04  9568   0.298E-03-0.972E-07
CGA:  15    -0.313658916482E+03   -0.16282E-04   -0.16281E-04  9568   0.304E-03-0.814E-07
CGA:  16    -0.313658926555E+03   -0.10073E-04   -0.10079E-04  9568   0.231E-03 0.395E-06
CGA:  17    -0.313658933273E+03   -0.67175E-05   -0.67138E-05  9568   0.948E-04-0.237E-06
 162 F= -.31365893E+03 E0= -.31363640E+03  d E =-.164495E-03  mag=    25.8294
       N       E                     dE             d eps       ncg     rms          ort
SDA:   1    -0.313624427473E+03    0.34499E-01    0.00000E+00  9568   0.135E+01 0.000E+00
CGA:   2    -0.313639164245E+03   -0.14737E-01   -0.15071E-01  9568   0.817E-01-0.256E-01
CGA:   3    -0.313645510646E+03   -0.63464E-02   -0.63425E-02  9568   0.167E+00 0.110E-03
CGA:   4    -0.313650097401E+03   -0.45868E-02   -0.46049E-02  9568   0.810E-01 0.169E-04
CGA:   5    -0.313652507882E+03   -0.24105E-02   -0.24062E-02  9568   0.382E-01-0.577E-04
CGA:   6    -0.313654479383E+03   -0.19715E-02   -0.19725E-02  9568   0.636E-01-0.580E-04
CGA:   7    -0.313656467461E+03   -0.19881E-02   -0.19901E-02  9568   0.380E-01 0.547E-04
CGA:   8    -0.313657677360E+03   -0.12099E-02   -0.12057E-02  9568   0.926E-02-0.118E-03
CGA:   9    -0.313658104415E+03   -0.42706E-03   -0.42695E-03  9568   0.139E-01 0.109E-04
CGA:  10    -0.313658464967E+03   -0.36055E-03   -0.36073E-03  9568   0.545E-02-0.620E-06
CGA:  11    -0.313658735296E+03   -0.27033E-03   -0.27071E-03  9568   0.256E-02-0.258E-04
CGA:  12    -0.313658790936E+03   -0.55639E-04   -0.55709E-04  9568   0.154E-02-0.187E-07
CGA:  13    -0.313658878901E+03   -0.87966E-04   -0.87991E-04  9568   0.116E-02-0.106E-05
CGA:  14    -0.313658908889E+03   -0.29988E-04   -0.29966E-04  9568   0.686E-03-0.134E-06
CGA:  15    -0.313658935161E+03   -0.26272E-04   -0.26272E-04  9568   0.650E-03 0.931E-06
CGA:  16    -0.313658962987E+03   -0.27827E-04   -0.27821E-04  9568   0.254E-03 0.143E-05
CGA:  17    -0.313658969744E+03   -0.67560E-05   -0.67590E-05  9568   0.228E-03 0.186E-06
CGA:  18    -0.313658980827E+03   -0.11084E-04   -0.11081E-04  9568   0.197E-03 0.339E-06
CGA:  19    -0.313658991531E+03   -0.10704E-04   -0.10695E-04  9568   0.199E-03 0.614E-06
CGA:  20    -0.313658995504E+03   -0.39726E-05   -0.39813E-05  9568   0.592E-04 0.421E-06
 163 F= -.31365900E+03 E0= -.31363644E+03  d E =-.622307E-04  mag=    25.8295
       N       E                     dE             d eps       ncg     rms          ort
SDA:   1    -0.313640452137E+03    0.18539E-01    0.00000E+00  9568   0.848E+00 0.000E+00
CGA:   2    -0.313650048493E+03   -0.95964E-02   -0.93469E-02  9568   0.467E-01 0.178E-01
CGA:   3    -0.313652099691E+03   -0.20512E-02   -0.20510E-02  9568   0.570E-01 0.307E-04
CGA:   4    -0.313654485887E+03   -0.23862E-02   -0.23880E-02  9568   0.572E-01-0.329E-03
CGA:   5    -0.313655984016E+03   -0.14981E-02   -0.15029E-02  9568   0.206E-01 0.144E-04
CGA:   6    -0.313656730001E+03   -0.74598E-03   -0.74599E-03  9568   0.230E-01 0.288E-05
CGA:   7    -0.313657381519E+03   -0.65152E-03   -0.64972E-03  9568   0.162E-01-0.287E-04
CGA:   8    -0.313658491797E+03   -0.11103E-02   -0.11116E-02  9568   0.548E-02-0.400E-04
CGA:   9    -0.313658659329E+03   -0.16753E-03   -0.16732E-03  9568   0.539E-02-0.414E-05
CGA:  10    -0.313658799293E+03   -0.13996E-03   -0.14014E-03  9568   0.280E-02 0.226E-05
CGA:  11    -0.313658991920E+03   -0.19263E-03   -0.19258E-03  9568   0.104E-02 0.164E-05
CGA:  12    -0.313659028408E+03   -0.36489E-04   -0.36485E-04  9568   0.679E-03-0.304E-06
CGA:  13    -0.313659051591E+03   -0.23183E-04   -0.23184E-04  9568   0.848E-03 0.339E-06
CGA:  14    -0.313659078519E+03   -0.26929E-04   -0.26940E-04  9568   0.314E-03 0.105E-05
CGA:  15    -0.313659095324E+03   -0.16804E-04   -0.16808E-04  9568   0.205E-03-0.137E-06
CGA:  16    -0.313659101892E+03   -0.65680E-05   -0.65614E-05  9568   0.206E-03-0.628E-06
 164 F= -.31365910E+03 E0= -.31363657E+03  d E =-.106388E-03  mag=    25.8291
       N       E                     dE             d eps       ncg     rms          ort
SDA:   1    -0.313650642271E+03    0.84531E-02    0.00000E+00  9568   0.180E+00 0.000E+00
CGA:   2    -0.313652982677E+03   -0.23404E-02   -0.23773E-02  9568   0.314E-01-0.209E-02
CGA:   3    -0.313654318469E+03   -0.13358E-02   -0.13343E-02  9568   0.332E-01 0.191E-03
CGA:   4    -0.313656143240E+03   -0.18248E-02   -0.18287E-02  9568   0.479E-01-0.189E-03
CGA:   5    -0.313657506175E+03   -0.13629E-02   -0.13607E-02  9568   0.187E-01-0.231E-04
CGA:   6    -0.313658165264E+03   -0.65909E-03   -0.65892E-03  9568   0.819E-02-0.194E-04
CGA:   7    -0.313658649780E+03   -0.48452E-03   -0.48454E-03  9568   0.125E-01 0.154E-05
CGA:   8    -0.313658890339E+03   -0.24056E-03   -0.24058E-03  9568   0.328E-02 0.162E-05
CGA:   9    -0.313659068744E+03   -0.17840E-03   -0.17832E-03  9568   0.164E-02 0.441E-05
CGA:  10    -0.313659156764E+03   -0.88020E-04   -0.88022E-04  9568   0.120E-02 0.211E-06
CGA:  11    -0.313659178804E+03   -0.22040E-04   -0.22037E-04  9568   0.477E-03 0.396E-06
CGA:  12    -0.313659206907E+03   -0.28103E-04   -0.28095E-04  9568   0.525E-03 0.437E-06
CGA:  13    -0.313659227408E+03   -0.20501E-04   -0.20501E-04  9568   0.226E-03-0.860E-08
CGA:  14    -0.313659232737E+03   -0.53285E-05   -0.53214E-05  9568   0.123E-03-0.258E-06
 165 F= -.31365923E+03 E0= -.31363670E+03  d E =-.130845E-03  mag=    25.8287
       N       E                     dE             d eps       ncg     rms          ort
SDA:   1    -0.313638618893E+03    0.20609E-01    0.00000E+00  9568   0.455E+00 0.000E+00
CGA:   2    -0.313644297769E+03   -0.56789E-02   -0.57547E-02  9568   0.765E-01-0.481E-02
CGA:   3    -0.313648269192E+03   -0.39714E-02   -0.39641E-02  9568   0.769E-01 0.403E-03
CGA:   4    -0.313652538197E+03   -0.42690E-02   -0.42772E-02  9568   0.798E-01-0.375E-03
CGA:   5    -0.313654619619E+03   -0.20814E-02   -0.20737E-02  9568   0.387E-01 0.414E-05
CGA:   6    -0.313655923340E+03   -0.13037E-02   -0.13057E-02  9568   0.254E-01 0.148E-03
CGA:   7    -0.313657315663E+03   -0.13923E-02   -0.13953E-02  9568   0.421E-01-0.142E-03
CGA:   8    -0.313658272004E+03   -0.95634E-03   -0.95345E-03  9568   0.914E-02 0.324E-04
CGA:   9    -0.313658648661E+03   -0.37666E-03   -0.37662E-03  9568   0.320E-02 0.642E-05
CGA:  10    -0.313658859863E+03   -0.21120E-03   -0.21122E-03  9568   0.756E-02 0.125E-06
CGA:  11    -0.313659025682E+03   -0.16582E-03   -0.16573E-03  9568   0.136E-02 0.168E-05
CGA:  12    -0.313659081795E+03   -0.56112E-04   -0.56108E-04  9568   0.755E-03 0.162E-05
CGA:  13    -0.313659118560E+03   -0.36766E-04   -0.36770E-04  9568   0.823E-03-0.265E-06
CGA:  14    -0.313659141461E+03   -0.22901E-04   -0.22912E-04  9568   0.614E-03 0.106E-05
CGA:  15    -0.313659163279E+03   -0.21817E-04   -0.21824E-04  9568   0.245E-03 0.160E-05
CGA:  16    -0.313659175507E+03   -0.12229E-04   -0.12234E-04  9568   0.340E-03-0.313E-06
CGA:  17    -0.313659183561E+03   -0.80536E-05   -0.80713E-05  9568   0.807E-04 0.653E-06
 166 F= -.31365918E+03 E0= -.31363663E+03  d E =0.491756E-04  mag=    25.8295
       N       E                     dE             d eps       ncg     rms          ort
SDA:   1    -0.313632862129E+03    0.26313E-01    0.00000E+00  9568   0.194E+01 0.000E+00
CGA:   2    -0.313653294869E+03   -0.20433E-01   -0.21405E-01  9568   0.540E-01-0.746E-01
CGA:   3    -0.313654546201E+03   -0.12513E-02   -0.12597E-02  9568   0.227E-01-0.589E-04
CGA:   4    -0.313655625904E+03   -0.10797E-02   -0.10809E-02  9568   0.410E-01-0.847E-04
CGA:   5    -0.313657427484E+03   -0.18016E-02   -0.18016E-02  9568   0.243E-01 0.331E-05
CGA:   6    -0.313658180027E+03   -0.75254E-03   -0.75466E-03  9568   0.121E-01 0.589E-04
CGA:   7    -0.313658468289E+03   -0.28826E-03   -0.28815E-03  9568   0.713E-02 0.208E-05
CGA:   8    -0.313658946819E+03   -0.47853E-03   -0.47832E-03  9568   0.505E-02 0.889E-05
CGA:   9    -0.313659081972E+03   -0.13515E-03   -0.13518E-03  9568   0.344E-02 0.658E-06
CGA:  10    -0.313659173129E+03   -0.91157E-04   -0.91165E-04  9568   0.819E-03 0.101E-06
CGA:  11    -0.313659219510E+03   -0.46381E-04   -0.46322E-04  9568   0.145E-02 0.296E-05
CGA:  12    -0.313659256463E+03   -0.36953E-04   -0.36893E-04  9568   0.345E-03-0.109E-06
CGA:  13    -0.313659273473E+03   -0.17011E-04   -0.17016E-04  9568   0.498E-03-0.492E-06
CGA:  14    -0.313659287123E+03   -0.13650E-04   -0.13645E-04  9568   0.169E-03-0.266E-06
CGA:  15    -0.313659291309E+03   -0.41854E-05   -0.41834E-05  9568   0.629E-04-0.175E-06
 167 F= -.31365929E+03 E0= -.31363672E+03  d E =-.107748E-03  mag=    25.8295
