       N       E                     dE             d eps       ncg     rms          ort
DAV:   1     0.734319205757E+04    0.73432E+04   -0.35101E+05  9568   0.175E+03
DAV:   2     0.482211319991E+03   -0.68610E+04   -0.64358E+04  9568   0.512E+02
DAV:   3    -0.319534779374E+03   -0.80175E+03   -0.77758E+03  9568   0.195E+02
DAV:   4    -0.352408414318E+03   -0.32874E+02   -0.32457E+02  9568   0.383E+01
DAV:   5    -0.354648948454E+03   -0.22405E+01   -0.22139E+01  9568   0.761E+00
SDA:   6    -0.176047878780E+03    0.17860E+03   -0.22139E+01  9568   0.157E+04 0.000E+00
CGA:   7    -0.259252606503E+03   -0.83205E+02   -0.98072E+02  9568   0.583E+03 0.307E+03
CGA:   8    -0.276521339581E+03   -0.17269E+02   -0.95522E+01  9568   0.333E+03 0.338E+03
CGA:   9    -0.286166282469E+03   -0.96449E+01   -0.84723E+01  9568   0.187E+03 0.100E+02
CGA:  10    -0.291528987716E+03   -0.53627E+01   -0.86076E+01  9568   0.417E+03-0.827E+02
CGA:  11    -0.300399200050E+03   -0.88702E+01   -0.23045E+01  9568   0.118E+03-0.104E+02
CGA:  12    -0.294676093269E+03    0.57231E+01   -0.41938E+01  9568   0.120E+04-0.240E+03
CGA:  13    -0.289610360878E+03    0.50657E+01   -0.49234E+02  9568   0.108E+04-0.289E+03
CGA:  14    -0.278657174181E+03    0.10953E+02   -0.16279E+02  9568   0.277E+04-0.778E+03
CGA:  15    -0.218293271735E+03    0.60364E+02   -0.14905E+03  9568   0.196E+05-0.741E+04
CGA:  16     0.461362952132E+02    0.26443E+03   -0.10876E+04  9568   0.239E+05-0.866E+04
CGA:  17    -0.230108939266E+02   -0.69147E+02   -0.44132E+03  9568   0.232E+05-0.278E+05
CGA:  18     0.242634302782E+03    0.26565E+03   -0.10059E+04  9568   0.947E+04-0.562E+04
CGA:  19    -0.223202158501E+03   -0.46584E+03   -0.11302E+03  9568   0.300E+04 0.605E+04
CGA:  20    -0.288885092859E+03   -0.65683E+02   -0.63544E+02  9568   0.148E+04-0.128E+04
CGA:  21    -0.294493807695E+03   -0.56087E+01   -0.27788E+02  9568   0.184E+04-0.180E+03
CGA:  22    -0.270777188967E+03    0.23717E+02   -0.60274E+02  9568   0.130E+04-0.374E+03
CGA:  23    -0.271977785919E+03   -0.12006E+01   -0.27358E+02  9568   0.248E+04-0.179E+04
CGA:  24    -0.260595203346E+03    0.11383E+02   -0.69087E+02  9568   0.241E+04-0.168E+04
CGA:  25    -0.268911814005E+03   -0.83166E+01   -0.57684E+02  9568   0.332E+04-0.274E+04
CGA:  26    -0.281208068582E+03   -0.12296E+02   -0.92018E+02  9568   0.134E+04-0.149E+04
CGA:  27    -0.291165011878E+03   -0.99569E+01   -0.14307E+02  9568   0.132E+04-0.843E+03
CGA:  28    -0.292022792054E+03   -0.85778E+00   -0.29426E+02  9568   0.341E+04-0.204E+04
CGA:  29    -0.281942390885E+03    0.10080E+02   -0.10152E+03  9568   0.104E+04-0.335E+03
CGA:  30    -0.291123805406E+03   -0.91814E+01   -0.17190E+02  9568   0.143E+04-0.208E+03
CGA:  31    -0.262266968686E+03    0.28857E+02   -0.20710E+02  9568   0.160E+04-0.782E+03
CGA:  32    -0.308065118103E+03   -0.45798E+02   -0.19525E+02  9568   0.465E+02 0.111E+02
CGA:  33    -0.308594543464E+03   -0.52943E+00   -0.26372E+00  9568   0.401E+02 0.455E+02
CGA:  34    -0.309097854113E+03   -0.50331E+00   -0.26691E+00  9568   0.266E+02 0.348E+02
CGA:  35    -0.309490876185E+03   -0.39302E+00   -0.22042E+00  9568   0.143E+02 0.200E+02
CGA:  36    -0.309839789256E+03   -0.34891E+00   -0.23290E+00  9568   0.625E+01 0.626E+01
CGA:  37    -0.310240967616E+03   -0.40118E+00   -0.33471E+00  9568   0.187E+02 0.937E+00
CGA:  38    -0.310470802431E+03   -0.22983E+00   -0.33389E+00  9568   0.682E+02-0.283E+01
CGA:  39    -0.309351478968E+03    0.11193E+01   -0.66738E+00  9568   0.110E+03 0.100E+02
CGA:  40    -0.308938953826E+03    0.41253E+00   -0.11959E+01  9568   0.160E+03-0.664E+02
CGA:  41    -0.310776926850E+03   -0.18380E+01   -0.17868E+01  9568   0.335E+02-0.761E+01
CGA:  42    -0.311253779963E+03   -0.47685E+00   -0.34240E+00  9568   0.932E+01 0.104E+02
CGA:  43    -0.311428394204E+03   -0.17461E+00   -0.22893E+00  9568   0.152E+02-0.186E+01
CGA:  44    -0.311616058637E+03   -0.18766E+00   -0.16357E+00  9568   0.155E+02 0.120E+01
CGA:  45    -0.311939969461E+03   -0.32391E+00   -0.28494E+00  9568   0.238E+02 0.185E+01
CGA:  46    -0.312144858679E+03   -0.20489E+00   -0.20426E+00  9568   0.156E+02-0.618E+01
CGA:  47    -0.312164746487E+03   -0.19888E-01   -0.68929E-01  9568   0.178E+02-0.816E+01
CGA:  48    -0.312354871638E+03   -0.19013E+00   -0.27462E+00  9568   0.432E+01-0.335E+01
CGA:  49    -0.312405263069E+03   -0.50391E-01   -0.50187E-01  9568   0.244E+01-0.991E-02
CGA:  50    -0.312459777772E+03   -0.54515E-01   -0.51249E-01  9568   0.240E+01 0.704E-01
CGA:  51    -0.312579061445E+03   -0.11928E+00   -0.11789E+00  9568   0.562E+01 0.935E-01
CGA:  52    -0.312655160052E+03   -0.76099E-01   -0.49895E-01  9568   0.222E+01 0.300E+01
CGA:  53    -0.312693315443E+03   -0.38155E-01   -0.36617E-01  9568   0.722E+00 0.567E-01
CGA:  54    -0.312708257874E+03   -0.14942E-01   -0.15253E-01  9568   0.110E+01-0.537E-02
CGA:  55    -0.312770326140E+03   -0.62068E-01   -0.66404E-01  9568   0.222E+01-0.234E+00
CGA:  56    -0.312793367928E+03   -0.23042E-01   -0.16468E-01  9568   0.139E+01 0.651E+00
CGA:  57    -0.312813957460E+03   -0.20590E-01   -0.22687E-01  9568   0.629E+00-0.107E+00
CGA:  58    -0.312829352286E+03   -0.15395E-01   -0.14743E-01  9568   0.823E+00-0.102E-01
CGA:  59    -0.312851616570E+03   -0.22264E-01   -0.21768E-01  9568   0.147E+01-0.180E-01
CGA:  60    -0.312874038086E+03   -0.22422E-01   -0.19466E-01  9568   0.117E+01 0.215E+00
CGA:  61    -0.312893348828E+03   -0.19311E-01   -0.18746E-01  9568   0.515E+00 0.935E-01
CGA:  62    -0.312902835760E+03   -0.94869E-02   -0.97327E-02  9568   0.359E+00-0.196E-02
CGA:  63    -0.312912814113E+03   -0.99784E-02   -0.99911E-02  9568   0.619E+00 0.102E-02
CGA:  64    -0.312929463863E+03   -0.16650E-01   -0.16376E-01  9568   0.549E+00-0.134E-01
CGA:  65    -0.312936988351E+03   -0.75245E-02   -0.73004E-02  9568   0.270E+00 0.184E-01
CGA:  66    -0.312942654485E+03   -0.56661E-02   -0.59783E-02  9568   0.250E+00 0.625E-02
CGA:  67    -0.312949328768E+03   -0.66743E-02   -0.66744E-02  9568   0.176E+00-0.166E-02
CGA:  68    -0.312956179510E+03   -0.68507E-02   -0.66527E-02  9568   0.221E+00 0.122E-01
CGA:  69    -0.312962888365E+03   -0.67089E-02   -0.67334E-02  9568   0.117E+00 0.173E-01
CGA:  70    -0.312967363071E+03   -0.44747E-02   -0.44744E-02  9568   0.114E+00-0.145E-02
CGA:  71    -0.312970128065E+03   -0.27650E-02   -0.27964E-02  9568   0.913E-01 0.112E-02
CGA:  72    -0.312974337773E+03   -0.42097E-02   -0.40659E-02  9568   0.733E-01 0.734E-02
CGA:  73    -0.312977554224E+03   -0.32165E-02   -0.31829E-02  9568   0.643E-01 0.222E-02
CGA:  74    -0.312979857340E+03   -0.23031E-02   -0.22967E-02  9568   0.752E-01 0.813E-03
CGA:  75    -0.312982596922E+03   -0.27396E-02   -0.27129E-02  9568   0.816E-01 0.332E-02
CGA:  76    -0.312986141300E+03   -0.35444E-02   -0.35661E-02  9568   0.635E-01-0.155E-02
CGA:  77    -0.312988260094E+03   -0.21188E-02   -0.21119E-02  9568   0.470E-01 0.157E-02
CGA:  78    -0.312989800519E+03   -0.15404E-02   -0.15403E-02  9568   0.513E-01 0.115E-03
CGA:  79    -0.312992087220E+03   -0.22867E-02   -0.22641E-02  9568   0.343E-01 0.138E-02
CGA:  80    -0.312993473197E+03   -0.13860E-02   -0.13824E-02  9568   0.439E-01 0.333E-03
CGA:  81    -0.312995368728E+03   -0.18955E-02   -0.18829E-02  9568   0.464E-01 0.904E-03
CGA:  82    -0.312996711970E+03   -0.13432E-02   -0.13406E-02  9568   0.280E-01-0.240E-03
SDA:  83    -0.312998531135E+03   -0.18192E-02   -0.17951E-02  9568   0.447E-01 0.738E-03
CGA:  84    -0.312999058859E+03   -0.52772E-03   -0.52831E-03  9568   0.701E-02-0.462E-04
CGA:  85    -0.312999665620E+03   -0.60676E-03   -0.60893E-03  9568   0.215E-01-0.484E-04
CGA:  86    -0.313000604335E+03   -0.93872E-03   -0.93479E-03  9568   0.163E-01 0.357E-03
CGA:  87    -0.313002294516E+03   -0.16902E-02   -0.17183E-02  9568   0.204E-01-0.508E-03
CGA:  88    -0.313003946782E+03   -0.16523E-02   -0.16626E-02  9568   0.216E-01-0.265E-03
CGA:  89    -0.313004633140E+03   -0.68636E-03   -0.68576E-03  9568   0.157E-01 0.168E-04
CGA:  90    -0.313005207752E+03   -0.57461E-03   -0.57379E-03  9568   0.160E-01-0.473E-04
CGA:  91    -0.313005674350E+03   -0.46660E-03   -0.46322E-03  9568   0.126E-01-0.647E-05
CGA:  92    -0.313006073706E+03   -0.39936E-03   -0.40094E-03  9568   0.399E-02 0.610E-04
CGA:  93    -0.313006854429E+03   -0.78072E-03   -0.76338E-03  9568   0.124E-01 0.130E-03
CGA:  94    -0.313007215579E+03   -0.36115E-03   -0.35589E-03  9568   0.151E-01 0.639E-04
CGA:  95    -0.313007683487E+03   -0.46791E-03   -0.46410E-03  9568   0.460E-02 0.180E-04
CGA:  96    -0.313007921623E+03   -0.23814E-03   -0.23774E-03  9568   0.110E-01 0.413E-04
CGA:  97    -0.313008192793E+03   -0.27117E-03   -0.28044E-03  9568   0.602E-02-0.241E-03
CGA:  98    -0.313005013289E+03    0.31795E-02   -0.27847E-02  9568   0.721E+00-0.374E-01
CGA:  99    -0.313016169488E+03   -0.11156E-01   -0.16006E-01  9568   0.288E+00-0.173E+00
CGA: 100    -0.313019714641E+03   -0.35452E-02   -0.36490E-02  9568   0.547E-01-0.538E-02
CGA: 101    -0.313020671296E+03   -0.95666E-03   -0.93783E-03  9568   0.179E-01 0.915E-03
CGA: 102    -0.313021379734E+03   -0.70844E-03   -0.70287E-03  9568   0.243E-01 0.648E-04
CGA: 103    -0.313021852854E+03   -0.47312E-03   -0.46695E-03  9568   0.116E-01 0.268E-03
CGA: 104    -0.313022378149E+03   -0.52530E-03   -0.52594E-03  9568   0.843E-02-0.234E-05
CGA: 105    -0.313022507681E+03   -0.12953E-03   -0.12851E-03  9568   0.455E-02 0.579E-04
CGA: 106    -0.313022821548E+03   -0.31387E-03   -0.31384E-03  9568   0.672E-02-0.411E-06
CGA: 107    -0.313022949111E+03   -0.12756E-03   -0.12897E-03  9568   0.570E-02-0.775E-04
CGA: 108    -0.313023238608E+03   -0.28950E-03   -0.28812E-03  9568   0.510E-02-0.409E-04
CGA: 109    -0.313023367340E+03   -0.12873E-03   -0.12680E-03  9568   0.537E-02 0.417E-04
CGA: 110    -0.313023554138E+03   -0.18680E-03   -0.18858E-03  9568   0.620E-02-0.291E-04
CGA: 111    -0.313023699215E+03   -0.14508E-03   -0.13979E-03  9568   0.205E-02 0.164E-03
CGA: 112    -0.313023770761E+03   -0.71546E-04   -0.71067E-04  9568   0.357E-02 0.905E-05
CGA: 113    -0.313023861107E+03   -0.90346E-04   -0.91353E-04  9568   0.184E-02-0.122E-04
CGA: 114    -0.313023933006E+03   -0.71899E-04   -0.71919E-04  9568   0.270E-02 0.754E-05
CGA: 115    -0.313023978559E+03   -0.45553E-04   -0.44811E-04  9568   0.764E-03 0.543E-04
CGA: 116    -0.313024002059E+03   -0.23500E-04   -0.23628E-04  9568   0.104E-02 0.324E-05
CGA: 117    -0.313024045410E+03   -0.43352E-04   -0.43560E-04  9568   0.170E-02 0.783E-05
CGA: 118    -0.313024079635E+03   -0.34225E-04   -0.33736E-04  9568   0.706E-03 0.265E-04
CGA: 119    -0.313024108611E+03   -0.28976E-04   -0.28613E-04  9568   0.840E-03-0.109E-04
CGA: 120    -0.313024121858E+03   -0.13248E-04   -0.12830E-04  9568   0.423E-03 0.194E-04
CGA: 121    -0.313024144754E+03   -0.22896E-04   -0.22859E-04  9568   0.105E-02 0.239E-05
CGA: 122    -0.313024162417E+03   -0.17663E-04   -0.17505E-04  9568   0.316E-03 0.507E-05
CGA: 123    -0.313024169905E+03   -0.74879E-05   -0.73571E-05  9568   0.261E-03 0.213E-06
   1 F= -.31302417E+03 E0= -.31300359E+03  d E =-.313024E+03  mag=    25.8753
       N       E                     dE             d eps       ncg     rms          ort
SDA:   1    -0.311075819249E+03    0.19483E+01    0.00000E+00  9568   0.175E+03 0.000E+00
CGA:   2    -0.312392594605E+03   -0.13168E+01   -0.29617E+01  9568   0.536E+02-0.811E+02
CGA:   3    -0.312913841430E+03   -0.52125E+00   -0.51467E+00  9568   0.632E+01-0.599E+00
CGA:   4    -0.313007739749E+03   -0.93898E-01   -0.63801E-01  9568   0.103E+01 0.247E+01
CGA:   5    -0.313022151230E+03   -0.14411E-01   -0.12883E-01  9568   0.662E-01 0.144E+00
CGA:   6    -0.313023578249E+03   -0.14270E-02   -0.13981E-02  9568   0.350E-01 0.821E-03
CGA:   7    -0.313024191319E+03   -0.61307E-03   -0.61580E-03  9568   0.113E-01-0.961E-04
CGA:   8    -0.313024513879E+03   -0.32256E-03   -0.32299E-03  9568   0.154E-01 0.170E-04
CGA:   9    -0.313024922160E+03   -0.40828E-03   -0.40849E-03  9568   0.982E-02 0.938E-06
CGA:  10    -0.313025108750E+03   -0.18659E-03   -0.18527E-03  9568   0.508E-02 0.251E-04
CGA:  11    -0.313025242553E+03   -0.13380E-03   -0.13374E-03  9568   0.307E-02-0.753E-05
CGA:  12    -0.313025289166E+03   -0.46612E-04   -0.46832E-04  9568   0.132E-02-0.866E-05
CGA:  13    -0.313025352602E+03   -0.63437E-04   -0.63313E-04  9568   0.260E-02 0.669E-05
CGA:  14    -0.313025404455E+03   -0.51853E-04   -0.51755E-04  9568   0.950E-03-0.275E-05
CGA:  15    -0.313025423330E+03   -0.18875E-04   -0.18837E-04  9568   0.631E-03-0.189E-05
CGA:  16    -0.313025440804E+03   -0.17473E-04   -0.17464E-04  9568   0.314E-03-0.267E-05
CGA:  17    -0.313025446684E+03   -0.58804E-05   -0.58730E-05  9568   0.240E-03-0.992E-06
   2 F= -.31302545E+03 E0= -.31300462E+03  d E =-.127678E-02  mag=    25.8726
       N       E                     dE             d eps       ncg     rms          ort
SDA:   1    -0.312923995227E+03    0.10145E+00    0.00000E+00  9568   0.108E+02 0.000E+00
CGA:   2    -0.313020348642E+03   -0.96353E-01   -0.10673E+00  9568   0.204E+00-0.926E+00
CGA:   3    -0.313023661837E+03   -0.33132E-02   -0.33352E-02  9568   0.895E-01-0.336E-03
CGA:   4    -0.313027817243E+03   -0.41554E-02   -0.41596E-02  9568   0.115E+00-0.210E-03
CGA:   5    -0.313032222081E+03   -0.44048E-02   -0.44020E-02  9568   0.127E+00 0.289E-03
CGA:   6    -0.313035748837E+03   -0.35268E-02   -0.35236E-02  9568   0.477E-01-0.331E-03
CGA:   7    -0.313036932849E+03   -0.11840E-02   -0.11855E-02  9568   0.286E-01 0.646E-04
CGA:   8    -0.313037870384E+03   -0.93753E-03   -0.93709E-03  9568   0.199E-01 0.137E-03
CGA:   9    -0.313038643415E+03   -0.77303E-03   -0.77264E-03  9568   0.274E-01 0.389E-04
CGA:  10    -0.313039464906E+03   -0.82149E-03   -0.82112E-03  9568   0.571E-02-0.116E-03
CGA:  11    -0.313039580836E+03   -0.11593E-03   -0.11587E-03  9568   0.347E-02 0.229E-05
CGA:  12    -0.313039745642E+03   -0.16481E-03   -0.16523E-03  9568   0.308E-02-0.216E-04
CGA:  13    -0.313039831889E+03   -0.86246E-04   -0.86258E-04  9568   0.252E-02 0.221E-05
CGA:  14    -0.313039910065E+03   -0.78176E-04   -0.78176E-04  9568   0.105E-02-0.861E-06
CGA:  15    -0.313039936844E+03   -0.26779E-04   -0.26787E-04  9568   0.672E-03 0.109E-05
CGA:  16    -0.313039958459E+03   -0.21615E-04   -0.21617E-04  9568   0.466E-03-0.165E-05
CGA:  17    -0.313039975725E+03   -0.17266E-04   -0.17260E-04  9568   0.573E-03 0.106E-05
CGA:  18    -0.313039995639E+03   -0.19913E-04   -0.19911E-04  9568   0.295E-03 0.831E-06
CGA:  19    -0.313040003278E+03   -0.76397E-05   -0.76488E-05  9568   0.235E-03 0.164E-05
CGA:  20    -0.313040013774E+03   -0.10496E-04   -0.10482E-04  9568   0.212E-03 0.111E-05
CGA:  21    -0.313040019856E+03   -0.60820E-05   -0.60875E-05  9568   0.154E-03 0.162E-05
   3 F= -.31304002E+03 E0= -.31301921E+03  d E =-.145732E-01  mag=    25.8730
       N       E                     dE             d eps       ncg     rms          ort
SDA:   1    -0.312375130732E+03    0.66488E+00    0.00000E+00  9568   0.278E+01 0.000E+00
CGA:   2    -0.312528594348E+03   -0.15346E+00   -0.14751E+00  9568   0.569E+01 0.245E+00
CGA:   3    -0.312819631846E+03   -0.29104E+00   -0.29428E+00  9568   0.380E+01-0.180E+00
CGA:   4    -0.312893729327E+03   -0.74097E-01   -0.73213E-01  9568   0.219E+01 0.884E-02
CGA:   5    -0.312972330580E+03   -0.78601E-01   -0.79598E-01  9568   0.154E+01-0.173E+00
CGA:   6    -0.313025696014E+03   -0.53365E-01   -0.53128E-01  9568   0.124E+01 0.329E-01
CGA:   7    -0.313071753806E+03   -0.46058E-01   -0.46043E-01  9568   0.759E+00 0.283E-02
CGA:   8    -0.313087258233E+03   -0.15504E-01   -0.15753E-01  9568   0.364E+00-0.195E-02
CGA:   9    -0.313098989215E+03   -0.11731E-01   -0.11728E-01  9568   0.206E+00-0.294E-02
CGA:  10    -0.313106500081E+03   -0.75109E-02   -0.75066E-02  9568   0.230E+00 0.654E-03
CGA:  11    -0.313113013022E+03   -0.65129E-02   -0.65102E-02  9568   0.111E+00-0.194E-03
CGA:  12    -0.313115289107E+03   -0.22761E-02   -0.22819E-02  9568   0.325E-01-0.246E-04
CGA:  13    -0.313116728423E+03   -0.14393E-02   -0.14425E-02  9568   0.440E-01-0.197E-03
CGA:  14    -0.313117954829E+03   -0.12264E-02   -0.12273E-02  9568   0.315E-01 0.780E-04
CGA:  15    -0.313119022581E+03   -0.10678E-02   -0.10679E-02  9568   0.181E-01-0.396E-04
CGA:  16    -0.313119500987E+03   -0.47841E-03   -0.47891E-03  9568   0.971E-02 0.291E-04
CGA:  17    -0.313119788888E+03   -0.28790E-03   -0.28785E-03  9568   0.873E-02-0.474E-05
CGA:  18    -0.313120105756E+03   -0.31687E-03   -0.31681E-03  9568   0.768E-02 0.136E-04
CGA:  19    -0.313120452390E+03   -0.34663E-03   -0.34673E-03  9568   0.760E-02-0.420E-05
CGA:  20    -0.313120600057E+03   -0.14767E-03   -0.14813E-03  9568   0.251E-02 0.238E-05
CGA:  21    -0.313120709395E+03   -0.10934E-03   -0.10931E-03  9568   0.362E-02 0.332E-05
CGA:  22    -0.313120850493E+03   -0.14110E-03   -0.14096E-03  9568   0.287E-02 0.168E-04
CGA:  23    -0.313120930424E+03   -0.79931E-04   -0.79926E-04  9568   0.265E-02 0.850E-07
CGA:  24    -0.313121041095E+03   -0.11067E-03   -0.11056E-03  9568   0.156E-02 0.101E-04
CGA:  25    -0.313121086603E+03   -0.45508E-04   -0.45505E-04  9568   0.154E-02-0.353E-06
CGA:  26    -0.313121145910E+03   -0.59307E-04   -0.59262E-04  9568   0.139E-02 0.659E-05
CGA:  27    -0.313121189293E+03   -0.43383E-04   -0.43384E-04  9568   0.101E-02 0.104E-05
CGA:  28    -0.313121231227E+03   -0.41934E-04   -0.41904E-04  9568   0.109E-02 0.315E-05
CGA:  29    -0.313121258275E+03   -0.27049E-04   -0.27051E-04  9568   0.633E-03 0.219E-06
CGA:  30    -0.313121284601E+03   -0.26325E-04   -0.26288E-04  9568   0.486E-03 0.402E-05
CGA:  31    -0.313121298067E+03   -0.13467E-04   -0.13470E-04  9568   0.397E-03 0.548E-06
SDA:  32    -0.313121313180E+03   -0.15112E-04   -0.15101E-04  9568   0.399E-03 0.241E-05
CGA:  33    -0.313121318606E+03   -0.54262E-05   -0.54195E-05  9568   0.128E-03-0.238E-06
   4 F= -.31312132E+03 E0= -.31310045E+03  d E =-.812987E-01  mag=    25.8730
       N       E                     dE             d eps       ncg     rms          ort
SDA:   1    -0.312062173101E+03    0.10591E+01    0.00000E+00  9568   0.541E+01 0.000E+00
CGA:   2    -0.312222316618E+03   -0.16014E+00   -0.16292E+00  9568   0.728E+01 0.376E+00
CGA:   3    -0.312593847025E+03   -0.37153E+00   -0.37347E+00  9568   0.109E+02-0.108E+00
CGA:   4    -0.312822211526E+03   -0.22836E+00   -0.23720E+00  9568   0.309E+01-0.483E-01
CGA:   5    -0.312957531909E+03   -0.13532E+00   -0.13816E+00  9568   0.193E+01-0.185E+00
CGA:   6    -0.313044792753E+03   -0.87261E-01   -0.86208E-01  9568   0.220E+01 0.617E-01
CGA:   7    -0.313128209696E+03   -0.83417E-01   -0.83409E-01  9568   0.735E+00 0.211E-02
CGA:   8    -0.313155324142E+03   -0.27114E-01   -0.27057E-01  9568   0.508E+00 0.146E-01
CGA:   9    -0.313166787450E+03   -0.11463E-01   -0.11507E-01  9568   0.339E+00-0.355E-03
CGA:  10    -0.313177798569E+03   -0.11011E-01   -0.11017E-01  9568   0.322E+00 0.186E-02
CGA:  11    -0.313188908877E+03   -0.11110E-01   -0.11111E-01  9568   0.724E-01-0.550E-03
CGA:  12    -0.313191547552E+03   -0.26387E-02   -0.26402E-02  9568   0.531E-01-0.327E-03
CGA:  13    -0.313193774362E+03   -0.22268E-02   -0.22262E-02  9568   0.438E-01 0.674E-04
CGA:  14    -0.313195491648E+03   -0.17173E-02   -0.17143E-02  9568   0.615E-01 0.402E-03
CGA:  15    -0.313196781882E+03   -0.12902E-02   -0.12896E-02  9568   0.170E-01 0.121E-04
CGA:  16    -0.313197318707E+03   -0.53682E-03   -0.53699E-03  9568   0.106E-01 0.372E-04
CGA:  17    -0.313197871096E+03   -0.55239E-03   -0.55337E-03  9568   0.130E-01-0.418E-04
CGA:  18    -0.313198452371E+03   -0.58127E-03   -0.58004E-03  9568   0.153E-01 0.938E-04
CGA:  19    -0.313198737522E+03   -0.28515E-03   -0.28476E-03  9568   0.522E-02 0.156E-04
CGA:  20    -0.313198921446E+03   -0.18392E-03   -0.18388E-03  9568   0.409E-02 0.337E-04
CGA:  21    -0.313199127698E+03   -0.20625E-03   -0.20621E-03  9568   0.457E-02 0.585E-05
CGA:  22    -0.313199368816E+03   -0.24112E-03   -0.24017E-03  9568   0.612E-02 0.472E-04
CGA:  23    -0.313199488077E+03   -0.11926E-03   -0.11927E-03  9568   0.245E-02 0.139E-05
CGA:  24    -0.313199570452E+03   -0.82375E-04   -0.82397E-04  9568   0.203E-02 0.824E-05
CGA:  25    -0.313199669143E+03   -0.98691E-04   -0.98749E-04  9568   0.175E-02-0.224E-05
CGA:  26    -0.313199752059E+03   -0.82917E-04   -0.82820E-04  9568   0.277E-02 0.788E-05
CGA:  27    -0.313199818552E+03   -0.66493E-04   -0.66489E-04  9568   0.133E-02 0.122E-05
CGA:  28    -0.313199853090E+03   -0.34537E-04   -0.34557E-04  9568   0.638E-03 0.112E-05
CGA:  29    -0.313199889335E+03   -0.36245E-04   -0.36209E-04  9568   0.770E-03 0.164E-05
CGA:  30    -0.313199917299E+03   -0.27964E-04   -0.27965E-04  9568   0.826E-03 0.284E-05
CGA:  31    -0.313199937558E+03   -0.20260E-04   -0.20271E-04  9568   0.496E-03 0.908E-06
SDA:  32    -0.313199954972E+03   -0.17413E-04   -0.17416E-04  9568   0.341E-03 0.234E-05
CGA:  33    -0.313199960815E+03   -0.58436E-05   -0.58194E-05  9568   0.126E-03-0.907E-06
   5 F= -.31319996E+03 E0= -.31317898E+03  d E =-.786422E-01  mag=    25.8736
       N       E                     dE             d eps       ncg     rms          ort
SDA:   1    -0.309176661972E+03    0.40233E+01    0.00000E+00  9568   0.870E+02 0.000E+00
CGA:   2    -0.309838350700E+03   -0.66169E+00   -0.13189E+01  9568   0.372E+02-0.248E+02
CGA:   3    -0.310609365698E+03   -0.77101E+00   -0.77230E+00  9568   0.252E+02 0.383E-02
CGA:   4    -0.311410074507E+03   -0.80071E+00   -0.81324E+00  9568   0.114E+02 0.345E+01
CGA:   5    -0.311948540707E+03   -0.53847E+00   -0.67072E+00  9568   0.303E+02-0.597E+01
CGA:   6    -0.312267105282E+03   -0.31856E+00   -0.47351E+00  9568   0.617E+01-0.633E+01
CGA:   7    -0.312402562730E+03   -0.13546E+00   -0.13550E+00  9568   0.655E+01-0.236E-02
CGA:   8    -0.312617968858E+03   -0.21541E+00   -0.21568E+00  9568   0.714E+01 0.263E+00
CGA:   9    -0.313003899187E+03   -0.38593E+00   -0.36750E+00  9568   0.384E+01 0.946E+00
CGA:  10    -0.313114202641E+03   -0.11030E+00   -0.10490E+00  9568   0.196E+01-0.527E-01
CGA:  11    -0.313154558078E+03   -0.40355E-01   -0.40586E-01  9568   0.150E+01-0.258E-02
CGA:  12    -0.313206328171E+03   -0.51770E-01   -0.51693E-01  9568   0.101E+01 0.311E-01
CGA:  13    -0.313235028017E+03   -0.28700E-01   -0.28533E-01  9568   0.851E+00-0.916E-02
CGA:  14    -0.313249264730E+03   -0.14237E-01   -0.14761E-01  9568   0.378E+00-0.126E-01
CGA:  15    -0.313259502339E+03   -0.10238E-01   -0.10319E-01  9568   0.224E+00 0.634E-02
CGA:  16    -0.313264340430E+03   -0.48381E-02   -0.48445E-02  9568   0.219E+00-0.384E-04
CGA:  17    -0.313270162838E+03   -0.58224E-02   -0.58136E-02  9568   0.168E+00-0.565E-03
CGA:  18    -0.313275225969E+03   -0.50631E-02   -0.50648E-02  9568   0.201E+00 0.997E-03
CGA:  19    -0.313278837600E+03   -0.36116E-02   -0.35917E-02  9568   0.931E-01 0.392E-03
CGA:  20    -0.313281489329E+03   -0.26517E-02   -0.26484E-02  9568   0.619E-01-0.705E-03
CGA:  21    -0.313282824429E+03   -0.13351E-02   -0.13342E-02  9568   0.600E-01 0.688E-05
CGA:  22    -0.313284579564E+03   -0.17551E-02   -0.17551E-02  9568   0.458E-01-0.401E-05
CGA:  23    -0.313286198918E+03   -0.16194E-02   -0.16223E-02  9568   0.569E-01-0.330E-03
CGA:  24    -0.313287270291E+03   -0.10714E-02   -0.10767E-02  9568   0.331E-01-0.148E-04
CGA:  25    -0.313288195501E+03   -0.92521E-03   -0.92597E-03  9568   0.184E-01 0.225E-03
CGA:  26    -0.313288645527E+03   -0.45003E-03   -0.45008E-03  9568   0.201E-01 0.442E-05
CGA:  27    -0.313289148535E+03   -0.50301E-03   -0.50337E-03  9568   0.147E-01 0.337E-04
CGA:  28    -0.313289666442E+03   -0.51791E-03   -0.51713E-03  9568   0.159E-01 0.922E-04
CGA:  29    -0.313289958193E+03   -0.29175E-03   -0.29184E-03  9568   0.968E-02 0.113E-05
CGA:  30    -0.313290211980E+03   -0.25379E-03   -0.25373E-03  9568   0.494E-02-0.537E-05
CGA:  31    -0.313290334921E+03   -0.12294E-03   -0.12297E-03  9568   0.527E-02 0.752E-05
CGA:  32    -0.313290456957E+03   -0.12204E-03   -0.12199E-03  9568   0.362E-02 0.934E-06
CGA:  33    -0.313290589112E+03   -0.13216E-03   -0.13228E-03  9568   0.369E-02-0.980E-05
CGA:  34    -0.313290660792E+03   -0.71680E-04   -0.71731E-04  9568   0.260E-02 0.500E-05
CGA:  35    -0.313290725793E+03   -0.65001E-04   -0.65033E-04  9568   0.123E-02 0.680E-05
SDA:  36    -0.313290760305E+03   -0.34513E-04   -0.34513E-04  9568   0.136E-02-0.854E-06
CGA:  37    -0.313290774420E+03   -0.14115E-04   -0.14115E-04  9568   0.212E-03 0.142E-05
CGA:  38    -0.313290819883E+03   -0.45463E-04   -0.75195E-05  9568   0.813E-03 0.457E-04
CGA:  39    -0.313290868162E+03   -0.48280E-04   -0.48280E-04  9568   0.941E-03 0.758E-06
CGA:  40    -0.313290894778E+03   -0.26616E-04   -0.26683E-04  9568   0.291E-03 0.131E-05
CGA:  41    -0.313290907298E+03   -0.12520E-04   -0.12520E-04  9568   0.493E-03 0.109E-06
CGA:  42    -0.313290918531E+03   -0.11233E-04   -0.11232E-04  9568   0.298E-03 0.118E-05
CGA:  43    -0.313290942107E+03   -0.23576E-04   -0.23470E-04  9568   0.174E-03 0.319E-05
CGA:  44    -0.313290949626E+03   -0.75195E-05   -0.75157E-05  9568   0.179E-03-0.674E-06
   6 F= -.31329095E+03 E0= -.31326991E+03  d E =-.909888E-01  mag=    25.8754
       N       E                     dE             d eps       ncg     rms          ort
SDA:   1    -0.307489355566E+03    0.58016E+01    0.00000E+00  9568   0.442E+02 0.000E+00
CGA:   2    -0.308173479924E+03   -0.68412E+00   -0.95072E+00  9568   0.409E+02-0.701E+01
CGA:   3    -0.309542441063E+03   -0.13690E+01   -0.13438E+01  9568   0.600E+02-0.120E+01
CGA:   4    -0.310897399875E+03   -0.13550E+01   -0.17179E+01  9568   0.421E+02 0.174E+00
CGA:   5    -0.311641423754E+03   -0.74402E+00   -0.82842E+00  9568   0.329E+02-0.301E+01
CGA:   6    -0.312140007970E+03   -0.49858E+00   -0.57690E+00  9568   0.112E+02-0.323E+01
CGA:   7    -0.312441491056E+03   -0.30148E+00   -0.29134E+00  9568   0.174E+02-0.237E-01
CGA:   8    -0.312769175885E+03   -0.32768E+00   -0.23977E+00  9568   0.419E+01 0.499E+01
CGA:   9    -0.312891150803E+03   -0.12197E+00   -0.13471E+00  9568   0.929E+01-0.728E-01
CGA:  10    -0.313088168665E+03   -0.19702E+00   -0.20466E+00  9568   0.532E+01-0.930E-01
CGA:  11    -0.313161421652E+03   -0.73253E-01   -0.64638E-01  9568   0.282E+01 0.536E+00
CGA:  12    -0.313215604145E+03   -0.54182E-01   -0.47559E-01  9568   0.224E+01 0.294E+00
CGA:  13    -0.313244473395E+03   -0.28869E-01   -0.28831E-01  9568   0.113E+01 0.868E-02
CGA:  14    -0.313261690144E+03   -0.17217E-01   -0.16450E-01  9568   0.938E+00 0.336E-01
CGA:  15    -0.313274391546E+03   -0.12701E-01   -0.12755E-01  9568   0.844E+00-0.386E-02
CGA:  16    -0.313290220647E+03   -0.15829E-01   -0.16155E-01  9568   0.115E+01-0.508E-02
CGA:  17    -0.313306616674E+03   -0.16396E-01   -0.17663E-01  9568   0.695E+00-0.433E-01
CGA:  18    -0.313316637235E+03   -0.10021E-01   -0.99570E-02  9568   0.633E+00 0.220E-02
CGA:  19    -0.313327021703E+03   -0.10384E-01   -0.10477E-01  9568   0.255E+00-0.224E-02
CGA:  20    -0.313329407522E+03   -0.23858E-02   -0.23512E-02  9568   0.933E-01 0.288E-02
CGA:  21    -0.313332017473E+03   -0.26100E-02   -0.26091E-02  9568   0.206E+00-0.311E-03
CGA:  22    -0.313335276800E+03   -0.32593E-02   -0.33296E-02  9568   0.110E+00-0.143E-02
CGA:  23    -0.313337279212E+03   -0.20024E-02   -0.20297E-02  9568   0.173E+00-0.143E-04
CGA:  24    -0.313342857732E+03   -0.55785E-02   -0.55572E-02  9568   0.152E+00 0.303E-02
CGA:  25    -0.313344445450E+03   -0.15877E-02   -0.15643E-02  9568   0.408E-01 0.164E-02
CGA:  26    -0.313345301603E+03   -0.85615E-03   -0.86017E-03  9568   0.442E-01 0.153E-03
CGA:  27    -0.313346172643E+03   -0.87104E-03   -0.87431E-03  9568   0.402E-01 0.820E-04
CGA:  28    -0.313346979569E+03   -0.80693E-03   -0.80690E-03  9568   0.303E-01 0.142E-04
CGA:  29    -0.313347671881E+03   -0.69231E-03   -0.69226E-03  9568   0.495E-01 0.779E-05
CGA:  30    -0.313349199594E+03   -0.15277E-02   -0.15269E-02  9568   0.449E-01 0.108E-03
CGA:  31    -0.313349767919E+03   -0.56832E-03   -0.57240E-03  9568   0.239E-01-0.129E-03
SDA:  32    -0.313350434878E+03   -0.66696E-03   -0.66635E-03  9568   0.216E-01 0.148E-03
CGA:  33    -0.313350691640E+03   -0.25676E-03   -0.25582E-03  9568   0.573E-02 0.365E-04
CGA:  34    -0.313351067328E+03   -0.37569E-03   -0.37562E-03  9568   0.554E-02 0.353E-05
CGA:  35    -0.313351509566E+03   -0.44224E-03   -0.44179E-03  9568   0.749E-02 0.126E-04
CGA:  36    -0.313351723808E+03   -0.21424E-03   -0.21426E-03  9568   0.525E-02 0.839E-05
CGA:  37    -0.313351908519E+03   -0.18471E-03   -0.18479E-03  9568   0.522E-02-0.875E-05
CGA:  38    -0.313352039092E+03   -0.13057E-03   -0.13061E-03  9568   0.450E-02 0.750E-05
CGA:  39    -0.313352310410E+03   -0.27132E-03   -0.26967E-03  9568   0.164E-02 0.548E-04
CGA:  40    -0.313352475526E+03   -0.16512E-03   -0.16457E-03  9568   0.217E-02 0.774E-05
CGA:  41    -0.313352682551E+03   -0.20702E-03   -0.20704E-03  9568   0.374E-02-0.288E-08
CGA:  42    -0.313352775492E+03   -0.92941E-04   -0.93065E-04  9568   0.173E-02 0.318E-06
CGA:  43    -0.313352876807E+03   -0.10132E-03   -0.10131E-03  9568   0.306E-02-0.401E-06
CGA:  44    -0.313352934285E+03   -0.57478E-04   -0.57479E-04  9568   0.126E-02-0.259E-06
CGA:  45    -0.313352992845E+03   -0.58560E-04   -0.58545E-04  9568   0.449E-03 0.184E-05
CGA:  46    -0.313353055256E+03   -0.62411E-04   -0.61621E-04  9568   0.630E-03 0.799E-05
CGA:  47    -0.313353077909E+03   -0.22653E-04   -0.22675E-04  9568   0.725E-03 0.271E-05
CGA:  48    -0.313353093909E+03   -0.16000E-04   -0.16001E-04  9568   0.276E-03 0.179E-05
CGA:  49    -0.313353103006E+03   -0.90978E-05   -0.90872E-05  9568   0.337E-03-0.131E-05
CGA:  50    -0.313353120989E+03   -0.17982E-04   -0.18024E-04  9568   0.765E-04-0.334E-05
CGA:  51    -0.313353133656E+03   -0.12667E-04   -0.13063E-04  9568   0.158E-03-0.319E-05
CGA:  52    -0.313353136441E+03   -0.27848E-05   -0.27835E-05  9568   0.121E-03-0.823E-06
   7 F= -.31335314E+03 E0= -.31333251E+03  d E =-.621868E-01  mag=    25.8783
       N       E                     dE             d eps       ncg     rms          ort
SDA:   1    -0.312914566757E+03    0.43857E+00    0.00000E+00  9568   0.169E+01 0.000E+00
CGA:   2    -0.312976995464E+03   -0.62429E-01   -0.63122E-01  9568   0.352E+01 0.132E-01
CGA:   3    -0.313145481808E+03   -0.16849E+00   -0.16851E+00  9568   0.319E+01 0.643E-01
CGA:   4    -0.313227431634E+03   -0.81950E-01   -0.85720E-01  9568   0.149E+01-0.550E-01
CGA:   5    -0.313280016802E+03   -0.52585E-01   -0.51808E-01  9568   0.592E+00-0.128E-01
CGA:   6    -0.313331786519E+03   -0.51770E-01   -0.52669E-01  9568   0.679E+00-0.205E-01
CGA:   7    -0.313342398430E+03   -0.10612E-01   -0.11118E-01  9568   0.349E+00-0.217E-01
CGA:   8    -0.313353052244E+03   -0.10654E-01   -0.10657E-01  9568   0.820E-01-0.134E-04
CGA:   9    -0.313357367402E+03   -0.43152E-02   -0.43118E-02  9568   0.140E+00 0.316E-03
CGA:  10    -0.313362222938E+03   -0.48555E-02   -0.48355E-02  9568   0.482E-01-0.268E-03
CGA:  11    -0.313363216392E+03   -0.99345E-03   -0.10032E-02  9568   0.316E-01-0.265E-03
CGA:  12    -0.313364097288E+03   -0.88090E-03   -0.88395E-03  9568   0.115E-01-0.978E-05
CGA:  13    -0.313365093460E+03   -0.99617E-03   -0.10004E-02  9568   0.159E-01-0.953E-04
CGA:  14    -0.313365470216E+03   -0.37676E-03   -0.37630E-03  9568   0.818E-02 0.108E-04
CGA:  15    -0.313365680708E+03   -0.21049E-03   -0.21091E-03  9568   0.463E-02-0.223E-05
CGA:  16    -0.313365794597E+03   -0.11389E-03   -0.11379E-03  9568   0.277E-02 0.134E-05
CGA:  17    -0.313366010911E+03   -0.21631E-03   -0.21618E-03  9568   0.198E-02 0.357E-05
CGA:  18    -0.313366077904E+03   -0.66993E-04   -0.67048E-04  9568   0.271E-02 0.154E-05
CGA:  19    -0.313366149549E+03   -0.71645E-04   -0.71833E-04  9568   0.109E-02 0.162E-05
CGA:  20    -0.313366192847E+03   -0.43298E-04   -0.43313E-04  9568   0.105E-02 0.326E-05
CGA:  21    -0.313366227480E+03   -0.34632E-04   -0.34626E-04  9568   0.541E-03 0.966E-06
CGA:  22    -0.313366258437E+03   -0.30957E-04   -0.30897E-04  9568   0.134E-02 0.339E-05
CGA:  23    -0.313366290867E+03   -0.32431E-04   -0.32491E-04  9568   0.496E-03 0.332E-05
CGA:  24    -0.313366316019E+03   -0.25151E-04   -0.25141E-04  9568   0.282E-03 0.108E-05
CGA:  25    -0.313366324049E+03   -0.80298E-05   -0.80340E-05  9568   0.298E-03 0.288E-06
CGA:  26    -0.313366341103E+03   -0.17054E-04   -0.17053E-04  9568   0.590E-03-0.364E-06
CGA:  27    -0.313366355175E+03   -0.14072E-04   -0.14047E-04  9568   0.194E-03-0.106E-05
CGA:  28    -0.313366366595E+03   -0.11420E-04   -0.11432E-04  9568   0.162E-03-0.733E-06
CGA:  29    -0.313366370912E+03   -0.43169E-05   -0.43138E-05  9568   0.184E-03-0.193E-06
   8 F= -.31336637E+03 E0= -.31334591E+03  d E =-.132345E-01  mag=    25.8804
       N       E                     dE             d eps       ncg     rms          ort
SDA:   1    -0.312221643397E+03    0.11447E+01    0.00000E+00  9568   0.384E+01 0.000E+00
CGA:   2    -0.312394824616E+03   -0.17318E+00   -0.17556E+00  9568   0.960E+01-0.359E+00
CGA:   3    -0.313016245539E+03   -0.62142E+00   -0.62150E+00  9568   0.502E+01-0.583E-02
CGA:   4    -0.313111440831E+03   -0.95195E-01   -0.96794E-01  9568   0.219E+01-0.727E-01
CGA:   5    -0.313225264697E+03   -0.11382E+00   -0.11334E+00  9568   0.218E+01 0.314E-01
CGA:   6    -0.313286640843E+03   -0.61376E-01   -0.61157E-01  9568   0.183E+01 0.345E-03
CGA:   7    -0.313335216471E+03   -0.48576E-01   -0.49753E-01  9568   0.429E+00-0.324E-02
CGA:   8    -0.313349277636E+03   -0.14061E-01   -0.14079E-01  9568   0.416E+00 0.502E-03
CGA:   9    -0.313360925368E+03   -0.11648E-01   -0.11649E-01  9568   0.256E+00-0.147E-04
CGA:  10    -0.313370504114E+03   -0.95787E-02   -0.95895E-02  9568   0.304E+00 0.165E-02
CGA:  11    -0.313376779555E+03   -0.62754E-02   -0.63640E-02  9568   0.378E-01-0.193E-02
CGA:  12    -0.313378960095E+03   -0.21805E-02   -0.21746E-02  9568   0.586E-01 0.257E-03
CGA:  13    -0.313380722787E+03   -0.17627E-02   -0.17550E-02  9568   0.359E-01-0.113E-03
CGA:  14    -0.313382670212E+03   -0.19474E-02   -0.19504E-02  9568   0.139E-01-0.152E-03
CGA:  15    -0.313382952936E+03   -0.28272E-03   -0.28025E-03  9568   0.950E-02 0.624E-04
CGA:  16    -0.313383331589E+03   -0.37865E-03   -0.37864E-03  9568   0.876E-02 0.114E-04
CGA:  17    -0.313383640340E+03   -0.30875E-03   -0.30856E-03  9568   0.968E-02-0.164E-04
CGA:  18    -0.313384013418E+03   -0.37308E-03   -0.37309E-03  9568   0.240E-02 0.179E-04
CGA:  19    -0.313384136555E+03   -0.12314E-03   -0.12310E-03  9568   0.212E-02 0.268E-05
CGA:  20    -0.313384205373E+03   -0.68818E-04   -0.68782E-04  9568   0.205E-02 0.629E-07
CGA:  21    -0.313384338780E+03   -0.13341E-03   -0.13287E-03  9568   0.114E-02 0.199E-04
CGA:  22    -0.313384393614E+03   -0.54834E-04   -0.54801E-04  9568   0.212E-02 0.409E-05
CGA:  23    -0.313384442712E+03   -0.49098E-04   -0.49190E-04  9568   0.665E-03 0.898E-06
CGA:  24    -0.313384464929E+03   -0.22218E-04   -0.22221E-04  9568   0.825E-03 0.602E-06
CGA:  25    -0.313384502840E+03   -0.37911E-04   -0.37878E-04  9568   0.475E-03 0.416E-05
CGA:  26    -0.313384543898E+03   -0.41058E-04   -0.41149E-04  9568   0.564E-03-0.236E-05
CGA:  27    -0.313384560232E+03   -0.16334E-04   -0.16329E-04  9568   0.348E-03-0.651E-06
CGA:  28    -0.313384572887E+03   -0.12655E-04   -0.12662E-04  9568   0.184E-03 0.877E-06
CGA:  29    -0.313384592416E+03   -0.19529E-04   -0.19513E-04  9568   0.421E-03-0.101E-07
CGA:  30    -0.313384600330E+03   -0.79140E-05   -0.79319E-05  9568   0.201E-03-0.106E-05
   9 F= -.31338460E+03 E0= -.31336433E+03  d E =-.182294E-01  mag=    25.8819
       N       E                     dE             d eps       ncg     rms          ort
SDA:   1    -0.310276382566E+03    0.31082E+01    0.00000E+00  9568   0.895E+01 0.000E+00
CGA:   2    -0.311037766588E+03   -0.76138E+00   -0.80078E+00  9568   0.446E+02-0.782E+00
CGA:   3    -0.312419118759E+03   -0.13814E+01   -0.13855E+01  9568   0.899E+01 0.794E-01
CGA:   4    -0.312657415236E+03   -0.23830E+00   -0.25704E+00  9568   0.701E+01-0.171E+00
CGA:   5    -0.313046460584E+03   -0.38905E+00   -0.40396E+00  9568   0.585E+01-0.797E+00
CGA:   6    -0.313183524914E+03   -0.13706E+00   -0.14985E+00  9568   0.454E+01-0.164E-01
CGA:   7    -0.313263330427E+03   -0.79806E-01   -0.81907E-01  9568   0.117E+01-0.629E-01
CGA:   8    -0.313318194314E+03   -0.54864E-01   -0.54899E-01  9568   0.836E+00-0.461E-02
CGA:   9    -0.313344818811E+03   -0.26624E-01   -0.26573E-01  9568   0.941E+00-0.673E-03
CGA:  10    -0.313377282509E+03   -0.32464E-01   -0.32377E-01  9568   0.357E+00-0.261E-02
CGA:  11    -0.313383710860E+03   -0.64284E-02   -0.65742E-02  9568   0.126E+00-0.481E-02
CGA:  12    -0.313390683964E+03   -0.69731E-02   -0.69008E-02  9568   0.134E+00 0.380E-02
CGA:  13    -0.313396631712E+03   -0.59477E-02   -0.59478E-02  9568   0.188E+00-0.404E-04
CGA:  14    -0.313400381753E+03   -0.37500E-02   -0.37366E-02  9568   0.310E-01 0.393E-03
CGA:  15    -0.313401973977E+03   -0.15922E-02   -0.15848E-02  9568   0.193E-01 0.514E-03
CGA:  16    -0.313402874991E+03   -0.90101E-03   -0.90048E-03  9568   0.417E-01 0.724E-04
CGA:  17    -0.313404333336E+03   -0.14583E-02   -0.14572E-02  9568   0.181E-01-0.540E-04
CGA:  18    -0.313404692282E+03   -0.35895E-03   -0.36147E-03  9568   0.681E-02-0.586E-04
CGA:  19    -0.313405015714E+03   -0.32343E-03   -0.32306E-03  9568   0.484E-02 0.362E-04
CGA:  20    -0.313405348313E+03   -0.33260E-03   -0.33213E-03  9568   0.891E-02 0.160E-04
CGA:  21    -0.313405518684E+03   -0.17037E-03   -0.17050E-03  9568   0.383E-02 0.102E-04
CGA:  22    -0.313405752985E+03   -0.23430E-03   -0.23365E-03  9568   0.189E-02 0.281E-04
CGA:  23    -0.313405858073E+03   -0.10509E-03   -0.10501E-03  9568   0.290E-02 0.522E-05
CGA:  24    -0.313405918411E+03   -0.60338E-04   -0.60458E-04  9568   0.132E-02 0.836E-06
CGA:  25    -0.313406000831E+03   -0.82420E-04   -0.82370E-04  9568   0.242E-02 0.254E-05
CGA:  26    -0.313406073561E+03   -0.72730E-04   -0.72774E-04  9568   0.105E-02 0.566E-06
CGA:  27    -0.313406129162E+03   -0.55601E-04   -0.55566E-04  9568   0.882E-03 0.283E-05
CGA:  28    -0.313406146006E+03   -0.16844E-04   -0.16861E-04  9568   0.517E-03 0.605E-06
CGA:  29    -0.313406181763E+03   -0.35757E-04   -0.35733E-04  9568   0.579E-03 0.866E-06
CGA:  30    -0.313406220285E+03   -0.38522E-04   -0.38401E-04  9568   0.491E-03 0.468E-05
CGA:  31    -0.313406229015E+03   -0.87305E-05   -0.87508E-05  9568   0.272E-03 0.388E-06
SDA:  32    -0.313406250432E+03   -0.21417E-04   -0.21401E-04  9568   0.162E-03 0.349E-06
CGA:  33    -0.313406256637E+03   -0.62055E-05   -0.62076E-05  9568   0.210E-03 0.277E-06
  10 F= -.31340626E+03 E0= -.31338627E+03  d E =-.216563E-01  mag=    25.8843
       N       E                     dE             d eps       ncg     rms          ort
SDA:   1    -0.306304685953E+03    0.71016E+01    0.00000E+00  9568   0.769E+02 0.000E+00
CGA:   2    -0.307044371141E+03   -0.73969E+00   -0.16829E+01  9568   0.548E+02-0.162E+02
CGA:   3    -0.308990170123E+03   -0.19458E+01   -0.19343E+01  9568   0.527E+02 0.203E+01
CGA:   4    -0.310684226849E+03   -0.16941E+01   -0.18579E+01  9568   0.177E+02 0.607E+01
CGA:   5    -0.311504770356E+03   -0.82054E+00   -0.74671E+00  9568   0.273E+02-0.797E+01
CGA:   6    -0.311700573972E+03   -0.19580E+00   -0.19522E+00  9568   0.491E+02-0.136E+00
CGA:   7    -0.312314418545E+03   -0.61384E+00   -0.58613E+00  9568   0.396E+02-0.347E+00
CGA:   8    -0.312808747460E+03   -0.49433E+00   -0.67627E+00  9568   0.133E+02-0.568E+01
CGA:   9    -0.313070978713E+03   -0.26223E+00   -0.22958E+00  9568   0.759E+01 0.543E+00
CGA:  10    -0.313143400269E+03   -0.72422E-01   -0.80679E-01  9568   0.186E+01-0.639E+00
CGA:  11    -0.313179254939E+03   -0.35855E-01   -0.34584E-01  9568   0.273E+01 0.197E-01
CGA:  12    -0.313248402653E+03   -0.69148E-01   -0.68729E-01  9568   0.218E+01-0.411E-02
CGA:  13    -0.313312276471E+03   -0.63874E-01   -0.63938E-01  9568   0.306E+01 0.303E-02
CGA:  14    -0.313352545513E+03   -0.40269E-01   -0.43008E-01  9568   0.109E+01-0.126E+00
CGA:  15    -0.313368319308E+03   -0.15774E-01   -0.15963E-01  9568   0.523E+00-0.715E-02
CGA:  16    -0.313374533745E+03   -0.62144E-02   -0.62957E-02  9568   0.212E+00-0.472E-02
CGA:  17    -0.313383020137E+03   -0.84864E-02   -0.84784E-02  9568   0.450E+00 0.714E-03
CGA:  18    -0.313390932714E+03   -0.79126E-02   -0.76621E-02  9568   0.324E+00 0.654E-02
CGA:  19    -0.313399004741E+03   -0.80720E-02   -0.80687E-02  9568   0.311E+00-0.129E-03
CGA:  20    -0.313403484967E+03   -0.44802E-02   -0.47836E-02  9568   0.201E+00-0.925E-02
CGA:  21    -0.313407397487E+03   -0.39125E-02   -0.39379E-02  9568   0.749E-01 0.114E-03
CGA:  22    -0.313408804242E+03   -0.14068E-02   -0.13822E-02  9568   0.855E-01 0.203E-03
CGA:  23    -0.313411479327E+03   -0.26751E-02   -0.26744E-02  9568   0.873E-01 0.131E-03
CGA:  24    -0.313413258371E+03   -0.17790E-02   -0.18377E-02  9568   0.855E-01 0.106E-02
CGA:  25    -0.313415052477E+03   -0.17941E-02   -0.17924E-02  9568   0.500E-01 0.296E-04
CGA:  26    -0.313416596636E+03   -0.15442E-02   -0.15492E-02  9568   0.468E-01-0.100E-02
CGA:  27    -0.313417328294E+03   -0.73166E-03   -0.75628E-03  9568   0.278E-01-0.393E-03
CGA:  28    -0.313418243649E+03   -0.91535E-03   -0.91381E-03  9568   0.185E-01 0.187E-03
CGA:  29    -0.313418659091E+03   -0.41544E-03   -0.41321E-03  9568   0.164E-01-0.893E-04
CGA:  30    -0.313419049854E+03   -0.39076E-03   -0.39174E-03  9568   0.150E-01 0.107E-03
CGA:  31    -0.313419764421E+03   -0.71457E-03   -0.70050E-03  9568   0.154E-01 0.669E-03
SDA:  32    -0.313420032621E+03   -0.26820E-03   -0.26539E-03  9568   0.843E-02 0.657E-04
CGA:  33    -0.313420144684E+03   -0.11206E-03   -0.11190E-03  9568   0.277E-02 0.853E-05
CGA:  34    -0.313420252210E+03   -0.10753E-03   -0.10737E-03  9568   0.290E-02 0.106E-04
CGA:  35    -0.313420370905E+03   -0.11870E-03   -0.11880E-03  9568   0.379E-02-0.740E-05
CGA:  36    -0.313420624457E+03   -0.25355E-03   -0.25356E-03  9568   0.181E-02-0.897E-06
CGA:  37    -0.313420754768E+03   -0.13031E-03   -0.12991E-03  9568   0.122E-02 0.974E-05
CGA:  38    -0.313420844351E+03   -0.89584E-04   -0.89333E-04  9568   0.218E-02 0.572E-05
CGA:  39    -0.313420880581E+03   -0.36230E-04   -0.36482E-04  9568   0.941E-03-0.309E-05
CGA:  40    -0.313420953037E+03   -0.72455E-04   -0.71892E-04  9568   0.155E-02 0.132E-04
CGA:  41    -0.313421002468E+03   -0.49431E-04   -0.49467E-04  9568   0.991E-03 0.645E-05
CGA:  42    -0.313421045660E+03   -0.43192E-04   -0.43213E-04  9568   0.523E-03-0.124E-05
CGA:  43    -0.313421076320E+03   -0.30660E-04   -0.30507E-04  9568   0.147E-02 0.617E-05
CGA:  44    -0.313421112627E+03   -0.36307E-04   -0.36309E-04  9568   0.582E-03 0.244E-05
CGA:  45    -0.313421143751E+03   -0.31124E-04   -0.31110E-04  9568   0.275E-03 0.619E-06
CGA:  46    -0.313421154711E+03   -0.10959E-04   -0.10957E-04  9568   0.514E-03 0.529E-06
CGA:  47    -0.313421176622E+03   -0.21911E-04   -0.21892E-04  9568   0.450E-03 0.234E-05
CGA:  48    -0.313421185764E+03   -0.91420E-05   -0.91392E-05  9568   0.201E-03-0.539E-06
CGA:  49    -0.313421204958E+03   -0.19195E-04   -0.19269E-04  9568   0.135E-03-0.129E-05
CGA:  50    -0.313421208311E+03   -0.33525E-05   -0.33415E-05  9568   0.159E-03-0.805E-06
  11 F= -.31342121E+03 E0= -.31340060E+03  d E =-.149517E-01  mag=    25.8850
       N       E                     dE             d eps       ncg     rms          ort
SDA:   1    -0.313170421811E+03    0.25078E+00    0.00000E+00  9568   0.116E+01 0.000E+00
CGA:   2    -0.313217938282E+03   -0.47516E-01   -0.47479E-01  9568   0.226E+01 0.113E-01
CGA:   3    -0.313296991168E+03   -0.79053E-01   -0.79003E-01  9568   0.156E+01-0.426E-02
CGA:   4    -0.313327213239E+03   -0.30222E-01   -0.31405E-01  9568   0.631E+00-0.286E-01
CGA:   5    -0.313361167135E+03   -0.33954E-01   -0.33785E-01  9568   0.462E+00 0.835E-02
CGA:   6    -0.313393304206E+03   -0.32137E-01   -0.32354E-01  9568   0.690E+00-0.674E-02
CGA:   7    -0.313404331539E+03   -0.11027E-01   -0.11272E-01  9568   0.225E+00-0.978E-02
CGA:   8    -0.313412484513E+03   -0.81530E-02   -0.81343E-02  9568   0.143E+00-0.325E-02
CGA:   9    -0.313416324920E+03   -0.38404E-02   -0.38512E-02  9568   0.726E-01 0.833E-04
CGA:  10    -0.313421238295E+03   -0.49134E-02   -0.49278E-02  9568   0.517E-01-0.458E-03
CGA:  11    -0.313422137125E+03   -0.89883E-03   -0.90842E-03  9568   0.252E-01-0.322E-03
CGA:  12    -0.313422938876E+03   -0.80175E-03   -0.80308E-03  9568   0.110E-01 0.609E-04
CGA:  13    -0.313423628441E+03   -0.68956E-03   -0.69233E-03  9568   0.188E-01-0.982E-04
CGA:  14    -0.313424144415E+03   -0.51597E-03   -0.51560E-03  9568   0.552E-02-0.163E-05
CGA:  15    -0.313424301014E+03   -0.15660E-03   -0.15686E-03  9568   0.566E-02 0.483E-05
CGA:  16    -0.313424448115E+03   -0.14710E-03   -0.14716E-03  9568   0.209E-02 0.103E-05
CGA:  17    -0.313424636660E+03   -0.18854E-03   -0.18856E-03  9568   0.242E-02-0.449E-06
CGA:  18    -0.313424695728E+03   -0.59068E-04   -0.59089E-04  9568   0.194E-02-0.184E-06
CGA:  19    -0.313424761925E+03   -0.66197E-04   -0.66226E-04  9568   0.133E-02 0.285E-05
CGA:  20    -0.313424795755E+03   -0.33829E-04   -0.33901E-04  9568   0.764E-03 0.146E-05
CGA:  21    -0.313424846516E+03   -0.50761E-04   -0.50825E-04  9568   0.613E-03-0.217E-05
CGA:  22    -0.313424868880E+03   -0.22364E-04   -0.22368E-04  9568   0.104E-02 0.870E-06
CGA:  23    -0.313424900311E+03   -0.31431E-04   -0.31465E-04  9568   0.329E-03 0.201E-05
CGA:  24    -0.313424913299E+03   -0.12988E-04   -0.12987E-04  9568   0.321E-03-0.395E-06
CGA:  25    -0.313424924343E+03   -0.11044E-04   -0.11045E-04  9568   0.222E-03 0.364E-06
CGA:  26    -0.313424935330E+03   -0.10987E-04   -0.10982E-04  9568   0.489E-03 0.425E-06
CGA:  27    -0.313424948139E+03   -0.12809E-04   -0.12834E-04  9568   0.118E-03 0.352E-06
CGA:  28    -0.313424954292E+03   -0.61529E-05   -0.61568E-05  9568   0.101E-03-0.293E-06
  12 F= -.31342495E+03 E0= -.31340458E+03  d E =-.374598E-02  mag=    25.8862
       N       E                     dE             d eps       ncg     rms          ort
SDA:   1    -0.313386541911E+03    0.38406E-01    0.00000E+00  9568   0.101E+01 0.000E+00
CGA:   2    -0.313397041227E+03   -0.10499E-01   -0.10983E-01  9568   0.123E+00-0.364E-01
CGA:   3    -0.313404999200E+03   -0.79580E-02   -0.81197E-02  9568   0.222E+00-0.498E-02
CGA:   4    -0.313412350099E+03   -0.73509E-02   -0.73489E-02  9568   0.200E+00-0.135E-03
CGA:   5    -0.313417533362E+03   -0.51833E-02   -0.52143E-02  9568   0.756E-01 0.246E-04
CGA:   6    -0.313419410356E+03   -0.18770E-02   -0.18896E-02  9568   0.590E-01-0.293E-04
CGA:   7    -0.313423214871E+03   -0.38045E-02   -0.37993E-02  9568   0.455E-01 0.183E-03
CGA:   8    -0.313424163125E+03   -0.94825E-03   -0.94993E-03  9568   0.290E-01-0.302E-04
CGA:   9    -0.313425164004E+03   -0.10009E-02   -0.10006E-02  9568   0.589E-02-0.313E-04
CGA:  10    -0.313425396773E+03   -0.23277E-03   -0.23276E-03  9568   0.114E-01 0.492E-05
CGA:  11    -0.313425814269E+03   -0.41750E-03   -0.41752E-03  9568   0.351E-02 0.715E-05
CGA:  12    -0.313425894456E+03   -0.80187E-04   -0.80296E-04  9568   0.188E-02-0.168E-05
CGA:  13    -0.313425963289E+03   -0.68833E-04   -0.68835E-04  9568   0.130E-02 0.235E-05
CGA:  14    -0.313426001194E+03   -0.37906E-04   -0.37906E-04  9568   0.136E-02 0.774E-08
CGA:  15    -0.313426061457E+03   -0.60263E-04   -0.60284E-04  9568   0.627E-03-0.256E-05
CGA:  16    -0.313426080265E+03   -0.18808E-04   -0.18813E-04  9568   0.606E-03 0.140E-06
CGA:  17    -0.313426096324E+03   -0.16059E-04   -0.16060E-04  9568   0.246E-03-0.394E-07
CGA:  18    -0.313426110004E+03   -0.13681E-04   -0.13688E-04  9568   0.369E-03-0.345E-06
CGA:  19    -0.313426118909E+03   -0.89043E-05   -0.89009E-05  9568   0.203E-03 0.190E-06
CGA:  20    -0.313426129187E+03   -0.10279E-04   -0.10265E-04  9568   0.294E-03 0.917E-06
CGA:  21    -0.313426136810E+03   -0.76226E-05   -0.76264E-05  9568   0.102E-03 0.197E-06
  13 F= -.31342614E+03 E0= -.31340588E+03  d E =-.118252E-02  mag=    25.8863
       N       E                     dE             d eps       ncg     rms          ort
SDA:   1    -0.313268743941E+03    0.15739E+00    0.00000E+00  9568   0.158E+01 0.000E+00
CGA:   2    -0.313288309247E+03   -0.19565E-01   -0.20786E-01  9568   0.570E+00-0.679E-01
CGA:   3    -0.313365256053E+03   -0.76947E-01   -0.77367E-01  9568   0.923E+00-0.500E-02
CGA:   4    -0.313381516940E+03   -0.16261E-01   -0.16395E-01  9568   0.326E+00-0.467E-02
CGA:   5    -0.313396508892E+03   -0.14992E-01   -0.14984E-01  9568   0.515E+00 0.789E-03
CGA:   6    -0.313412306451E+03   -0.15798E-01   -0.15919E-01  9568   0.237E+00 0.252E-02
CGA:   7    -0.313420208283E+03   -0.79018E-02   -0.78172E-02  9568   0.933E-01-0.345E-02
CGA:   8    -0.313422061566E+03   -0.18533E-02   -0.18602E-02  9568   0.567E-01-0.158E-03
CGA:   9    -0.313425369831E+03   -0.33083E-02   -0.32993E-02  9568   0.401E-01 0.387E-03
CGA:  10    -0.313426388662E+03   -0.10188E-02   -0.10169E-02  9568   0.265E-01 0.149E-04
CGA:  11    -0.313427178145E+03   -0.78948E-03   -0.78952E-03  9568   0.110E-01 0.533E-07
CGA:  12    -0.313427435282E+03   -0.25714E-03   -0.25711E-03  9568   0.656E-02-0.170E-05
CGA:  13    -0.313427862922E+03   -0.42764E-03   -0.42747E-03  9568   0.744E-02 0.587E-05
CGA:  14    -0.313428012212E+03   -0.14929E-03   -0.14942E-03  9568   0.366E-02-0.418E-05
CGA:  15    -0.313428161509E+03   -0.14930E-03   -0.14932E-03  9568   0.169E-02-0.444E-05
CGA:  16    -0.313428211710E+03   -0.50202E-04   -0.50220E-04  9568   0.174E-02 0.116E-05
CGA:  17    -0.313428282300E+03   -0.70589E-04   -0.70577E-04  9568   0.143E-02 0.263E-05
CGA:  18    -0.313428321445E+03   -0.39145E-04   -0.39136E-04  9568   0.978E-03-0.502E-06
CGA:  19    -0.313428366057E+03   -0.44612E-04   -0.44638E-04  9568   0.772E-03-0.225E-05
CGA:  20    -0.313428386474E+03   -0.20416E-04   -0.20431E-04  9568   0.634E-03 0.715E-06
CGA:  21    -0.313428408070E+03   -0.21596E-04   -0.21599E-04  9568   0.281E-03 0.106E-05
CGA:  22    -0.313428422742E+03   -0.14673E-04   -0.14649E-04  9568   0.657E-03 0.153E-05
CGA:  23    -0.313428447821E+03   -0.25079E-04   -0.25079E-04  9568   0.325E-03 0.147E-05
CGA:  24    -0.313428454904E+03   -0.70823E-05   -0.70918E-05  9568   0.154E-03 0.261E-06
  14 F= -.31342845E+03 E0= -.31340832E+03  d E =-.231809E-02  mag=    25.8868
       N       E                     dE             d eps       ncg     rms          ort
SDA:   1    -0.313048189660E+03    0.38026E+00    0.00000E+00  9568   0.342E+01 0.000E+00
CGA:   2    -0.313094859148E+03   -0.46669E-01   -0.44259E-01  9568   0.127E+01 0.131E+00
CGA:   3    -0.313249425245E+03   -0.15457E+00   -0.15276E+00  9568   0.196E+01 0.271E-01
CGA:   4    -0.313314943844E+03   -0.65519E-01   -0.64650E-01  9568   0.150E+01-0.270E-01
CGA:   5    -0.313346623277E+03   -0.31679E-01   -0.29145E-01  9568   0.618E+00 0.701E-01
CGA:   6    -0.313374209384E+03   -0.27586E-01   -0.27470E-01  9568   0.925E+00 0.199E-01
CGA:   7    -0.313410470070E+03   -0.36261E-01   -0.36255E-01  9568   0.256E+00-0.231E-02
CGA:   8    -0.313415517147E+03   -0.50471E-02   -0.50229E-02  9568   0.183E+00 0.585E-03
CGA:   9    -0.313421266731E+03   -0.57496E-02   -0.57399E-02  9568   0.696E-01-0.385E-03
CGA:  10    -0.313427155259E+03   -0.58885E-02   -0.58935E-02  9568   0.901E-01-0.111E-03
CGA:  11    -0.313428487840E+03   -0.13326E-02   -0.13180E-02  9568   0.207E-01 0.706E-03
CGA:  12    -0.313429220372E+03   -0.73253E-03   -0.73227E-03  9568   0.191E-01-0.260E-04
CGA:  13    -0.313429905449E+03   -0.68508E-03   -0.68459E-03  9568   0.149E-01-0.728E-04
CGA:  14    -0.313430732515E+03   -0.82707E-03   -0.82522E-03  9568   0.103E-01 0.878E-04
CGA:  15    -0.313430896202E+03   -0.16369E-03   -0.16392E-03  9568   0.436E-02-0.966E-05
CGA:  16    -0.313431118480E+03   -0.22228E-03   -0.22286E-03  9568   0.245E-02-0.346E-04
CGA:  17    -0.313431333200E+03   -0.21472E-03   -0.21400E-03  9568   0.298E-02 0.156E-04
CGA:  18    -0.313431389897E+03   -0.56697E-04   -0.56813E-04  9568   0.164E-02-0.349E-05
CGA:  19    -0.313431468358E+03   -0.78461E-04   -0.78478E-04  9568   0.226E-02-0.174E-05
CGA:  20    -0.313431527229E+03   -0.58871E-04   -0.59016E-04  9568   0.701E-03 0.174E-05
CGA:  21    -0.313431570817E+03   -0.43588E-04   -0.43515E-04  9568   0.578E-03 0.309E-05
CGA:  22    -0.313431611017E+03   -0.40199E-04   -0.40147E-04  9568   0.136E-02 0.190E-05
CGA:  23    -0.313431636855E+03   -0.25838E-04   -0.25866E-04  9568   0.412E-03 0.142E-05
CGA:  24    -0.313431659047E+03   -0.22192E-04   -0.22180E-04  9568   0.364E-03 0.910E-06
CGA:  25    -0.313431670562E+03   -0.11514E-04   -0.11535E-04  9568   0.286E-03 0.140E-05
CGA:  26    -0.313431690594E+03   -0.20032E-04   -0.20022E-04  9568   0.165E-03 0.349E-06
CGA:  27    -0.313431696848E+03   -0.62544E-05   -0.62540E-05  9568   0.323E-03-0.128E-06
CGA:  28    -0.313431707411E+03   -0.10563E-04   -0.10562E-04  9568   0.991E-04-0.253E-06
CGA:  29    -0.313431712531E+03   -0.51200E-05   -0.51287E-05  9568   0.916E-04-0.879E-06
  15 F= -.31343171E+03 E0= -.31341166E+03  d E =-.325763E-02  mag=    25.8868
       N       E                     dE             d eps       ncg     rms          ort
SDA:   1    -0.302426494672E+03    0.11005E+02    0.00000E+00  9568   0.396E+02 0.000E+00
CGA:   2    -0.304141980140E+03   -0.17155E+01   -0.17497E+01  9568   0.966E+02-0.884E+01
CGA:   3    -0.307695849290E+03   -0.35539E+01   -0.35402E+01  9568   0.170E+03 0.153E+01
CGA:   4    -0.308536849452E+03   -0.84100E+00   -0.25307E+01  9568   0.136E+03-0.745E+02
CGA:   5    -0.309090435080E+03   -0.55359E+00   -0.99813E+00  9568   0.340E+02-0.265E+02
CGA:   6    -0.310274394524E+03   -0.11840E+01   -0.13526E+01  9568   0.476E+02-0.125E+02
CGA:   7    -0.310697889172E+03   -0.42349E+00   -0.34083E+00  9568   0.595E+02 0.583E+01
CGA:   8    -0.311816963726E+03   -0.11191E+01   -0.10259E+01  9568   0.243E+02 0.245E+01
CGA:   9    -0.312205038307E+03   -0.38807E+00   -0.56177E+00  9568   0.156E+02-0.832E+00
CGA:  10    -0.312531800812E+03   -0.32676E+00   -0.34448E+00  9568   0.761E+01-0.148E+00
CGA:  11    -0.312662850749E+03   -0.13105E+00   -0.91925E-01  9568   0.409E+01 0.246E+01
CGA:  12    -0.312780885263E+03   -0.11803E+00   -0.11207E+00  9568   0.947E+01 0.653E-01
CGA:  13    -0.312934761671E+03   -0.15388E+00   -0.14473E+00  9568   0.117E+02 0.432E+00
CGA:  14    -0.313023407106E+03   -0.88645E-01   -0.10479E+00  9568   0.751E+01-0.167E+01
CGA:  15    -0.313083542104E+03   -0.60135E-01   -0.71783E-01  9568   0.648E+01-0.757E+00
CGA:  16    -0.313145033651E+03   -0.61492E-01   -0.69579E-01  9568   0.412E+01-0.456E+00
CGA:  17    -0.313183106381E+03   -0.38073E-01   -0.38702E-01  9568   0.201E+01-0.724E-01
CGA:  18    -0.313207078701E+03   -0.23972E-01   -0.25417E-01  9568   0.149E+01-0.684E-01
CGA:  19    -0.313226054135E+03   -0.18975E-01   -0.18226E-01  9568   0.105E+01 0.352E-01
CGA:  20    -0.313245907950E+03   -0.19854E-01   -0.19947E-01  9568   0.191E+01-0.553E-03
CGA:  21    -0.313295745163E+03   -0.49837E-01   -0.49848E-01  9568   0.365E+01 0.633E-02
CGA:  22    -0.313343053834E+03   -0.47309E-01   -0.48600E-01  9568   0.169E+01-0.545E-01
CGA:  23    -0.313358025046E+03   -0.14971E-01   -0.14418E-01  9568   0.528E+00 0.412E-01
CGA:  24    -0.313364661862E+03   -0.66368E-02   -0.65883E-02  9568   0.466E+00 0.206E-02
CGA:  25    -0.313372634871E+03   -0.79730E-02   -0.79465E-02  9568   0.501E+00 0.344E-05
CGA:  26    -0.313378644323E+03   -0.60095E-02   -0.60680E-02  9568   0.373E+00-0.255E-02
CGA:  27    -0.313385608511E+03   -0.69642E-02   -0.70392E-02  9568   0.643E+00 0.398E-02
CGA:  28    -0.313401171482E+03   -0.15563E-01   -0.15558E-01  9568   0.904E+00 0.574E-02
CGA:  29    -0.313412559829E+03   -0.11388E-01   -0.11356E-01  9568   0.291E+00 0.913E-03
CGA:  30    -0.313415601753E+03   -0.30419E-02   -0.29270E-02  9568   0.132E+00 0.689E-02
CGA:  31    -0.313417929415E+03   -0.23277E-02   -0.23177E-02  9568   0.164E+00-0.349E-03
SDA:  32    -0.313420495497E+03   -0.25661E-02   -0.25653E-02  9568   0.139E+00-0.191E-04
CGA:  33    -0.313423634490E+03   -0.31390E-02   -0.31356E-02  9568   0.571E-01 0.212E-02
CGA:  34    -0.313426428979E+03   -0.27945E-02   -0.27841E-02  9568   0.760E-01 0.411E-03
CGA:  35    -0.313433448423E+03   -0.70194E-02   -0.70080E-02  9568   0.411E-01 0.179E-03
CGA:  36    -0.313434087176E+03   -0.63875E-03   -0.63646E-03  9568   0.211E-01 0.476E-04
CGA:  37    -0.313435176470E+03   -0.10893E-02   -0.10855E-02  9568   0.130E-01 0.147E-03
CGA:  38    -0.313436083442E+03   -0.90697E-03   -0.90591E-03  9568   0.143E-01 0.323E-04
CGA:  39    -0.313436432261E+03   -0.34882E-03   -0.34855E-03  9568   0.513E-02-0.274E-04
CGA:  40    -0.313436713832E+03   -0.28157E-03   -0.28038E-03  9568   0.386E-02 0.449E-04
CGA:  41    -0.313436857635E+03   -0.14380E-03   -0.14379E-03  9568   0.718E-02 0.247E-06
CGA:  42    -0.313437067235E+03   -0.20960E-03   -0.20961E-03  9568   0.195E-02-0.268E-06
CGA:  43    -0.313437251732E+03   -0.18450E-03   -0.18457E-03  9568   0.275E-02-0.127E-05
CGA:  44    -0.313437345333E+03   -0.93601E-04   -0.93603E-04  9568   0.231E-02-0.378E-05
CGA:  45    -0.313437433093E+03   -0.87761E-04   -0.87738E-04  9568   0.113E-02 0.314E-05
CGA:  46    -0.313437463292E+03   -0.30198E-04   -0.30207E-04  9568   0.168E-02-0.176E-06
CGA:  47    -0.313437624225E+03   -0.16093E-03   -0.16058E-03  9568   0.582E-03 0.692E-05
CGA:  48    -0.313437649487E+03   -0.25262E-04   -0.25248E-04  9568   0.826E-03 0.175E-05
CGA:  49    -0.313437692109E+03   -0.42621E-04   -0.42577E-04  9568   0.964E-03 0.240E-05
CGA:  50    -0.313437733461E+03   -0.41352E-04   -0.41343E-04  9568   0.144E-02 0.140E-05
CGA:  51    -0.313437761072E+03   -0.27611E-04   -0.27609E-04  9568   0.193E-03 0.658E-06
CGA:  52    -0.313437778570E+03   -0.17498E-04   -0.17634E-04  9568   0.308E-03-0.249E-05
CGA:  53    -0.313437795833E+03   -0.17263E-04   -0.17302E-04  9568   0.342E-03-0.229E-05
CGA:  54    -0.313437803729E+03   -0.78964E-05   -0.78889E-05  9568   0.961E-04-0.121E-05
  16 F= -.31343780E+03 E0= -.31341755E+03  d E =-.609120E-02  mag=    25.8923
       N       E                     dE             d eps       ncg     rms          ort
SDA:   1    -0.306848297258E+03    0.65895E+01    0.00000E+00  9568   0.255E+02 0.000E+00
CGA:   2    -0.307710639461E+03   -0.86234E+00   -0.85235E+00  9568   0.531E+02-0.596E+00
CGA:   3    -0.310050157006E+03   -0.23395E+01   -0.23569E+01  9568   0.771E+02-0.174E+01
CGA:   4    -0.311021733137E+03   -0.97158E+00   -0.10919E+01  9568   0.323E+02-0.816E+01
CGA:   5    -0.311514955138E+03   -0.49322E+00   -0.53359E+00  9568   0.180E+02-0.137E+01
CGA:   6    -0.312230018131E+03   -0.71506E+00   -0.71150E+00  9568   0.128E+02 0.562E+00
CGA:   7    -0.312862028199E+03   -0.63201E+00   -0.66494E+00  9568   0.174E+02-0.201E+01
CGA:   8    -0.313043835330E+03   -0.18181E+00   -0.17165E+00  9568   0.415E+01 0.616E+00
CGA:   9    -0.313134438891E+03   -0.90604E-01   -0.90979E-01  9568   0.316E+01-0.290E-01
CGA:  10    -0.313217907479E+03   -0.83469E-01   -0.86916E-01  9568   0.276E+01 0.844E-01
CGA:  11    -0.313301680455E+03   -0.83773E-01   -0.84105E-01  9568   0.231E+01 0.170E-01
CGA:  12    -0.313365514720E+03   -0.63834E-01   -0.65282E-01  9568   0.393E+00 0.506E-01
CGA:  13    -0.313379175683E+03   -0.13661E-01   -0.13673E-01  9568   0.504E+00 0.554E-02
CGA:  14    -0.313395084044E+03   -0.15908E-01   -0.15876E-01  9568   0.412E+00-0.315E-02
CGA:  15    -0.313407608421E+03   -0.12524E-01   -0.12568E-01  9568   0.495E+00 0.388E-02
CGA:  16    -0.313418676210E+03   -0.11068E-01   -0.11115E-01  9568   0.789E-01-0.351E-03
CGA:  17    -0.313421962790E+03   -0.32866E-02   -0.32625E-02  9568   0.101E+00 0.219E-02
CGA:  18    -0.313425212683E+03   -0.32499E-02   -0.32491E-02  9568   0.703E-01-0.101E-03
CGA:  19    -0.313428728372E+03   -0.35157E-02   -0.34788E-02  9568   0.992E-01 0.190E-02
CGA:  20    -0.313430521958E+03   -0.17936E-02   -0.17948E-02  9568   0.251E-01-0.588E-04
CGA:  21    -0.313431938455E+03   -0.14165E-02   -0.14042E-02  9568   0.260E-01 0.500E-03
CGA:  22    -0.313432578772E+03   -0.64032E-03   -0.64062E-03  9568   0.179E-01 0.169E-04
CGA:  23    -0.313433504846E+03   -0.92607E-03   -0.92354E-03  9568   0.235E-01 0.124E-03
CGA:  24    -0.313434029130E+03   -0.52428E-03   -0.52400E-03  9568   0.115E-01 0.141E-04
CGA:  25    -0.313434692476E+03   -0.66335E-03   -0.66157E-03  9568   0.856E-02 0.706E-04
CGA:  26    -0.313434891412E+03   -0.19894E-03   -0.19914E-03  9568   0.657E-02 0.120E-04
CGA:  27    -0.313435158017E+03   -0.26660E-03   -0.26627E-03  9568   0.510E-02 0.435E-04
CGA:  28    -0.313435380412E+03   -0.22240E-03   -0.22253E-03  9568   0.807E-02-0.620E-05
CGA:  29    -0.313435668003E+03   -0.28759E-03   -0.28759E-03  9568   0.305E-02 0.804E-05
CGA:  30    -0.313435747632E+03   -0.79629E-04   -0.79727E-04  9568   0.301E-02 0.623E-05
CGA:  31    -0.313435870830E+03   -0.12320E-03   -0.12311E-03  9568   0.188E-02 0.115E-04
SDA:  32    -0.313435974844E+03   -0.10401E-03   -0.10417E-03  9568   0.326E-02-0.677E-05
CGA:  33    -0.313436014687E+03   -0.39843E-04   -0.39741E-04  9568   0.622E-03 0.703E-05
CGA:  34    -0.313436048028E+03   -0.33341E-04   -0.33330E-04  9568   0.156E-02-0.168E-07
CGA:  35    -0.313436122496E+03   -0.74468E-04   -0.74525E-04  9568   0.749E-03-0.467E-05
CGA:  36    -0.313436180494E+03   -0.57998E-04   -0.58054E-04  9568   0.613E-03-0.149E-05
CGA:  37    -0.313436214302E+03   -0.33808E-04   -0.33865E-04  9568   0.427E-03-0.357E-05
CGA:  38    -0.313436221234E+03   -0.69321E-05   -0.69146E-05  9568   0.210E-03-0.595E-06
CGA:  39    -0.313436236988E+03   -0.15754E-04   -0.15771E-04  9568   0.334E-03-0.581E-06
CGA:  40    -0.313436259721E+03   -0.22732E-04   -0.22726E-04  9568   0.633E-03 0.856E-07
CGA:  41    -0.313436279542E+03   -0.19821E-04   -0.19808E-04  9568   0.171E-03-0.131E-05
CGA:  42    -0.313436294857E+03   -0.15315E-04   -0.15302E-04  9568   0.877E-04 0.205E-06
CGA:  43    -0.313436306718E+03   -0.11861E-04   -0.11815E-04  9568   0.201E-03 0.452E-06
CGA:  44    -0.313436311457E+03   -0.47384E-05   -0.47371E-05  9568   0.202E-03-0.245E-06
  17 F= -.31343631E+03 E0= -.31341624E+03  d E =0.149227E-02  mag=    25.8851
       N       E                     dE             d eps       ncg     rms          ort
SDA:   1    -0.312223557228E+03    0.12127E+01    0.00000E+00  9568   0.613E+01 0.000E+00
CGA:   2    -0.312395589466E+03   -0.17203E+00   -0.16283E+00  9568   0.595E+01 0.956E-01
CGA:   3    -0.312882556095E+03   -0.48697E+00   -0.47725E+00  9568   0.727E+01 0.256E+00
CGA:   4    -0.313049874709E+03   -0.16732E+00   -0.13892E+00  9568   0.268E+01 0.106E+01
CGA:   5    -0.313174957949E+03   -0.12508E+00   -0.12532E+00  9568   0.244E+01 0.152E-01
CGA:   6    -0.313255587223E+03   -0.80629E-01   -0.80695E-01  9568   0.426E+01-0.196E-02
CGA:   7    -0.313370034821E+03   -0.11445E+00   -0.11490E+00  9568   0.124E+01-0.624E-02
CGA:   8    -0.313389763034E+03   -0.19728E-01   -0.22346E-01  9568   0.445E+00-0.954E-01
CGA:   9    -0.313407531437E+03   -0.17768E-01   -0.17769E-01  9568   0.686E+00-0.123E-02
CGA:  10    -0.313420908400E+03   -0.13377E-01   -0.13386E-01  9568   0.286E+00-0.132E-03
CGA:  11    -0.313434918435E+03   -0.14010E-01   -0.13979E-01  9568   0.696E-01 0.283E-02
CGA:  12    -0.313436976370E+03   -0.20579E-02   -0.20589E-02  9568   0.107E+00 0.125E-04
CGA:  13    -0.313440422227E+03   -0.34459E-02   -0.34260E-02  9568   0.536E-01-0.395E-03
CGA:  14    -0.313443012428E+03   -0.25902E-02   -0.25832E-02  9568   0.594E-01 0.631E-03
CGA:  15    -0.313444265937E+03   -0.12535E-02   -0.12652E-02  9568   0.204E-01-0.257E-03
CGA:  16    -0.313444679627E+03   -0.41369E-03   -0.41369E-03  9568   0.143E-01 0.300E-05
CGA:  17    -0.313445369776E+03   -0.69015E-03   -0.69055E-03  9568   0.107E-01-0.278E-04
CGA:  18    -0.313445982552E+03   -0.61278E-03   -0.61218E-03  9568   0.193E-01 0.279E-04
CGA:  19    -0.313446294137E+03   -0.31158E-03   -0.31344E-03  9568   0.412E-02-0.702E-04
CGA:  20    -0.313446467979E+03   -0.17384E-03   -0.17381E-03  9568   0.509E-02 0.726E-05
CGA:  21    -0.313446659210E+03   -0.19123E-03   -0.19119E-03  9568   0.259E-02-0.891E-05
CGA:  22    -0.313446772379E+03   -0.11317E-03   -0.11317E-03  9568   0.525E-02 0.426E-06
CGA:  23    -0.313446897811E+03   -0.12543E-03   -0.12545E-03  9568   0.185E-02 0.868E-06
CGA:  24    -0.313446999731E+03   -0.10192E-03   -0.10207E-03  9568   0.166E-02-0.753E-05
CGA:  25    -0.313447040971E+03   -0.41239E-04   -0.41333E-04  9568   0.793E-03 0.367E-06
CGA:  26    -0.313447076852E+03   -0.35881E-04   -0.35861E-04  9568   0.188E-02 0.221E-05
CGA:  27    -0.313447136258E+03   -0.59406E-04   -0.59447E-04  9568   0.840E-03 0.257E-05
CGA:  28    -0.313447175158E+03   -0.38900E-04   -0.38891E-04  9568   0.438E-03 0.118E-05
CGA:  29    -0.313447189820E+03   -0.14662E-04   -0.14663E-04  9568   0.469E-03 0.392E-06
CGA:  30    -0.313447206104E+03   -0.16283E-04   -0.16293E-04  9568   0.517E-03 0.196E-05
CGA:  31    -0.313447219627E+03   -0.13523E-04   -0.13558E-04  9568   0.348E-03 0.233E-05
SDA:  32    -0.313447241191E+03   -0.21564E-04   -0.21511E-04  9568   0.158E-03 0.218E-05
CGA:  33    -0.313447245739E+03   -0.45484E-05   -0.45493E-05  9568   0.132E-03-0.215E-06
  18 F= -.31344725E+03 E0= -.31342700E+03  d E =-.109343E-01  mag=    25.8895
       N       E                     dE             d eps       ncg     rms          ort
SDA:   1    -0.313140585376E+03    0.30666E+00    0.00000E+00  9568   0.229E+01 0.000E+00
CGA:   2    -0.313175635905E+03   -0.35051E-01   -0.38250E-01  9568   0.164E+01-0.118E+00
CGA:   3    -0.313310545326E+03   -0.13491E+00   -0.13729E+00  9568   0.117E+01-0.514E-01
CGA:   4    -0.313347001185E+03   -0.36456E-01   -0.36676E-01  9568   0.118E+01 0.733E-02
CGA:   5    -0.313376709521E+03   -0.29708E-01   -0.28244E-01  9568   0.527E+00 0.160E-01
CGA:   6    -0.313408224921E+03   -0.31515E-01   -0.31528E-01  9568   0.980E+00-0.412E-03
CGA:   7    -0.313430943347E+03   -0.22718E-01   -0.22613E-01  9568   0.179E+00 0.130E-02
CGA:   8    -0.313434723347E+03   -0.37800E-02   -0.38528E-02  9568   0.126E+00-0.132E-02
CGA:   9    -0.313442595043E+03   -0.78717E-02   -0.78679E-02  9568   0.119E+00 0.155E-03
CGA:  10    -0.313445007637E+03   -0.24126E-02   -0.24240E-02  9568   0.544E-01-0.265E-03
CGA:  11    -0.313446583485E+03   -0.15758E-02   -0.15703E-02  9568   0.192E-01-0.945E-04
CGA:  12    -0.313447176546E+03   -0.59306E-03   -0.59319E-03  9568   0.215E-01 0.104E-04
CGA:  13    -0.313448131651E+03   -0.95510E-03   -0.95535E-03  9568   0.203E-01-0.215E-04
CGA:  14    -0.313448587537E+03   -0.45589E-03   -0.45699E-03  9568   0.770E-02-0.151E-04
CGA:  15    -0.313448847622E+03   -0.26009E-03   -0.25991E-03  9568   0.486E-02-0.195E-04
CGA:  16    -0.313448962978E+03   -0.11536E-03   -0.11550E-03  9568   0.345E-02 0.993E-06
CGA:  17    -0.313449167739E+03   -0.20476E-03   -0.20467E-03  9568   0.455E-02 0.411E-05
CGA:  18    -0.313449283756E+03   -0.11602E-03   -0.11609E-03  9568   0.276E-02 0.204E-05
CGA:  19    -0.313449373066E+03   -0.89310E-04   -0.89301E-04  9568   0.175E-02-0.627E-06
CGA:  20    -0.313449419846E+03   -0.46780E-04   -0.46774E-04  9568   0.112E-02-0.436E-06
CGA:  21    -0.313449475905E+03   -0.56059E-04   -0.56035E-04  9568   0.172E-02 0.144E-05
CGA:  22    -0.313449520740E+03   -0.44836E-04   -0.44868E-04  9568   0.953E-03 0.153E-05
CGA:  23    -0.313449567244E+03   -0.46503E-04   -0.46499E-04  9568   0.110E-02 0.280E-06
CGA:  24    -0.313449592731E+03   -0.25488E-04   -0.25500E-04  9568   0.519E-03 0.505E-06
CGA:  25    -0.313449611936E+03   -0.19205E-04   -0.19204E-04  9568   0.467E-03 0.108E-05
CGA:  26    -0.313449625684E+03   -0.13747E-04   -0.13753E-04  9568   0.331E-03 0.377E-06
CGA:  27    -0.313449642733E+03   -0.17049E-04   -0.17047E-04  9568   0.658E-03 0.341E-07
CGA:  28    -0.313449660989E+03   -0.18257E-04   -0.18261E-04  9568   0.136E-03 0.587E-06
CGA:  29    -0.313449664483E+03   -0.34940E-05   -0.34934E-05  9568   0.120E-03-0.131E-06
  19 F= -.31344966E+03 E0= -.31342939E+03  d E =-.241874E-02  mag=    25.8908
       N       E                     dE             d eps       ncg     rms          ort
SDA:   1    -0.313176094960E+03    0.27357E+00    0.00000E+00  9568   0.291E+01 0.000E+00
CGA:   2    -0.313210736625E+03   -0.34642E-01   -0.39491E-01  9568   0.111E+01-0.253E+00
CGA:   3    -0.313305125499E+03   -0.94389E-01   -0.94596E-01  9568   0.266E+01-0.289E-02
CGA:   4    -0.313368364933E+03   -0.63239E-01   -0.63133E-01  9568   0.781E+00-0.392E-04
CGA:   5    -0.313393773718E+03   -0.25409E-01   -0.25171E-01  9568   0.780E+00-0.157E-01
CGA:   6    -0.313413298065E+03   -0.19524E-01   -0.19448E-01  9568   0.411E+00-0.310E-03
CGA:   7    -0.313437702583E+03   -0.24405E-01   -0.24282E-01  9568   0.332E+00 0.487E-02
CGA:   8    -0.313443798405E+03   -0.60958E-02   -0.61914E-02  9568   0.972E-01-0.276E-02
CGA:   9    -0.313446430028E+03   -0.26316E-02   -0.26255E-02  9568   0.829E-01-0.986E-04
CGA:  10    -0.313449577154E+03   -0.31471E-02   -0.31479E-02  9568   0.489E-01-0.214E-03
CGA:  11    -0.313451714633E+03   -0.21375E-02   -0.21340E-02  9568   0.469E-01 0.313E-03
CGA:  12    -0.313452537730E+03   -0.82310E-03   -0.82716E-03  9568   0.107E-01-0.120E-03
CGA:  13    -0.313452851319E+03   -0.31359E-03   -0.31382E-03  9568   0.911E-02 0.140E-04
CGA:  14    -0.313453356527E+03   -0.50521E-03   -0.50527E-03  9568   0.926E-02-0.128E-05
CGA:  15    -0.313453596835E+03   -0.24031E-03   -0.24016E-03  9568   0.733E-02-0.254E-06
CGA:  16    -0.313453793091E+03   -0.19626E-03   -0.19629E-03  9568   0.208E-02 0.344E-05
CGA:  17    -0.313453854823E+03   -0.61732E-04   -0.61729E-04  9568   0.174E-02-0.667E-06
CGA:  18    -0.313453960096E+03   -0.10527E-03   -0.10530E-03  9568   0.342E-02-0.578E-06
CGA:  19    -0.313454034315E+03   -0.74219E-04   -0.74201E-04  9568   0.123E-02 0.131E-05
CGA:  20    -0.313454085597E+03   -0.51282E-04   -0.51277E-04  9568   0.979E-03 0.838E-06
CGA:  21    -0.313454115044E+03   -0.29447E-04   -0.29459E-04  9568   0.749E-03 0.138E-05
CGA:  22    -0.313454140384E+03   -0.25340E-04   -0.25341E-04  9568   0.878E-03 0.103E-06
CGA:  23    -0.313454172472E+03   -0.32088E-04   -0.32089E-04  9568   0.611E-03-0.961E-06
CGA:  24    -0.313454199818E+03   -0.27346E-04   -0.27323E-04  9568   0.568E-03 0.232E-05
CGA:  25    -0.313454212953E+03   -0.13135E-04   -0.13141E-04  9568   0.334E-03 0.291E-06
CGA:  26    -0.313454224492E+03   -0.11539E-04   -0.11539E-04  9568   0.270E-03-0.554E-07
CGA:  27    -0.313454233832E+03   -0.93396E-05   -0.93402E-05  9568   0.184E-03 0.687E-06
  20 F= -.31345423E+03 E0= -.31343392E+03  d E =-.456935E-02  mag=    25.8907
       N       E                     dE             d eps       ncg     rms          ort
SDA:   1    -0.312598655792E+03    0.85557E+00    0.00000E+00  9568   0.990E+01 0.000E+00
CGA:   2    -0.312707822040E+03   -0.10917E+00   -0.13221E+00  9568   0.345E+01-0.125E+01
CGA:   3    -0.313017594009E+03   -0.30977E+00   -0.33669E+00  9568   0.124E+02-0.430E+00
CGA:   4    -0.313213782649E+03   -0.19619E+00   -0.21034E+00  9568   0.291E+01-0.363E+00
CGA:   5    -0.313294228157E+03   -0.80446E-01   -0.81444E-01  9568   0.150E+01 0.201E-01
CGA:   6    -0.313339149432E+03   -0.44921E-01   -0.45492E-01  9568   0.152E+01 0.209E-01
CGA:   7    -0.313408294662E+03   -0.69145E-01   -0.70076E-01  9568   0.121E+01-0.759E-01
CGA:   8    -0.313428100445E+03   -0.19806E-01   -0.19805E-01  9568   0.222E+00-0.190E-03
CGA:   9    -0.313437889383E+03   -0.97889E-02   -0.98097E-02  9568   0.296E+00-0.173E-02
CGA:  10    -0.313444855367E+03   -0.69660E-02   -0.71059E-02  9568   0.154E+00-0.145E-03
CGA:  11    -0.313452558296E+03   -0.77029E-02   -0.77718E-02  9568   0.107E+00-0.377E-02
CGA:  12    -0.313454127616E+03   -0.15693E-02   -0.15779E-02  9568   0.228E-01-0.372E-03
CGA:  13    -0.313455565755E+03   -0.14381E-02   -0.14388E-02  9568   0.418E-01-0.168E-04
CGA:  14    -0.313456588045E+03   -0.10223E-02   -0.10263E-02  9568   0.233E-01-0.117E-05
CGA:  15    -0.313457495019E+03   -0.90697E-03   -0.90732E-03  9568   0.169E-01-0.794E-04
CGA:  16    -0.313457829857E+03   -0.33484E-03   -0.33399E-03  9568   0.523E-02 0.155E-04
CGA:  17    -0.313458077186E+03   -0.24733E-03   -0.24726E-03  9568   0.833E-02 0.471E-05
CGA:  18    -0.313458292290E+03   -0.21510E-03   -0.21543E-03  9568   0.398E-02 0.482E-05
CGA:  19    -0.313458501882E+03   -0.20959E-03   -0.20980E-03  9568   0.584E-02-0.109E-04
CGA:  20    -0.313458636840E+03   -0.13496E-03   -0.13508E-03  9568   0.307E-02-0.785E-07
CGA:  21    -0.313458771198E+03   -0.13436E-03   -0.13425E-03  9568   0.184E-02 0.107E-04
CGA:  22    -0.313458810561E+03   -0.39363E-04   -0.39438E-04  9568   0.132E-02 0.639E-06
CGA:  23    -0.313458916643E+03   -0.10608E-03   -0.10597E-03  9568   0.260E-02 0.235E-05
CGA:  24    -0.313458986555E+03   -0.69912E-04   -0.69978E-04  9568   0.188E-02 0.372E-05
CGA:  25    -0.313459045665E+03   -0.59110E-04   -0.59119E-04  9568   0.766E-03 0.238E-05
CGA:  26    -0.313459064602E+03   -0.18938E-04   -0.18952E-04  9568   0.606E-03 0.364E-06
CGA:  27    -0.313459099212E+03   -0.34610E-04   -0.34593E-04  9568   0.870E-03 0.663E-06
CGA:  28    -0.313459123069E+03   -0.23857E-04   -0.23869E-04  9568   0.689E-03 0.936E-06
CGA:  29    -0.313459150609E+03   -0.27540E-04   -0.27538E-04  9568   0.327E-03 0.490E-06
CGA:  30    -0.313459157242E+03   -0.66331E-05   -0.66382E-05  9568   0.200E-03-0.248E-06
CGA:  31    -0.313459169257E+03   -0.12015E-04   -0.12016E-04  9568   0.194E-03-0.190E-06
SDA:  32    -0.313459173574E+03   -0.43169E-05   -0.43189E-05  9568   0.136E-03-0.160E-06
  21 F= -.31345917E+03 E0= -.31343886E+03  d E =-.493974E-02  mag=    25.8910
       N       E                     dE             d eps       ncg     rms          ort
SDA:   1    -0.222097587036E+03    0.91362E+02    0.00000E+00  9568   0.750E+03 0.000E+00
CGA:   2    -0.258856512897E+03   -0.36759E+02   -0.38717E+02  9568   0.264E+03 0.217E+02
CGA:   3    -0.274205805705E+03   -0.15349E+02   -0.15550E+02  9568   0.368E+03 0.818E+02
CGA:   4    -0.285239241576E+03   -0.11033E+02   -0.11044E+02  9568   0.294E+03-0.107E+03
CGA:   5    -0.291552116690E+03   -0.63129E+01   -0.40522E+01  9568   0.151E+03 0.888E+02
CGA:   6    -0.295807650468E+03   -0.42555E+01   -0.26100E+01  9568   0.491E+03 0.992E+02
CGA:   7    -0.297840471669E+03   -0.20328E+01   -0.91289E+01  9568   0.125E+03-0.805E+01
CGA:   8    -0.301155869063E+03   -0.33154E+01   -0.21419E+01  9568   0.513E+02 0.432E+02
CGA:   9    -0.301750847343E+03   -0.59498E+00   -0.44905E+00  9568   0.454E+02 0.172E+02
CGA:  10    -0.302607786679E+03   -0.85694E+00   -0.90369E+00  9568   0.153E+03-0.410E+01
CGA:  11    -0.303134397392E+03   -0.52661E+00   -0.74542E+00  9568   0.263E+03-0.520E+02
CGA:  12    -0.303141108557E+03   -0.67112E-02   -0.11644E+01  9568   0.780E+03-0.125E+03
CGA:  13    -0.304732917850E+03   -0.15918E+01   -0.10020E+01  9568   0.691E+03 0.235E+03
CGA:  14    -0.306345310641E+03   -0.16124E+01   -0.44980E+01  9568   0.651E+02-0.491E+03
CGA:  15    -0.309600058627E+03   -0.32547E+01   -0.35419E+01  9568   0.633E+02-0.151E+02
CGA:  16    -0.310368336752E+03   -0.76828E+00   -0.87203E+00  9568   0.857E+02-0.221E+00
CGA:  17    -0.311252276114E+03   -0.88394E+00   -0.60989E+00  9568   0.325E+02 0.323E+02
CGA:  18    -0.311776503723E+03   -0.52423E+00   -0.59832E+00  9568   0.418E+02-0.264E+01
CGA:  19    -0.312035503376E+03   -0.25900E+00   -0.18912E+00  9568   0.248E+02 0.116E+02
CGA:  20    -0.312227747409E+03   -0.19224E+00   -0.21727E+00  9568   0.243E+02-0.395E+01
CGA:  21    -0.312322205630E+03   -0.94458E-01   -0.83247E-01  9568   0.211E+02 0.223E+01
CGA:  22    -0.312408801562E+03   -0.86596E-01   -0.12057E+00  9568   0.156E+02-0.545E+01
CGA:  23    -0.312464948121E+03   -0.56147E-01   -0.96941E-01  9568   0.164E+02-0.301E+01
CGA:  24    -0.312565167502E+03   -0.10022E+00   -0.10475E+00  9568   0.123E+02-0.453E+00
CGA:  25    -0.312665772459E+03   -0.10060E+00   -0.98374E-01  9568   0.947E+01 0.989E-01
CGA:  26    -0.312757617504E+03   -0.91845E-01   -0.81607E-01  9568   0.922E+01 0.771E+00
CGA:  27    -0.312826491057E+03   -0.68874E-01   -0.60146E-01  9568   0.737E+01 0.114E+01
CGA:  28    -0.312878466995E+03   -0.51976E-01   -0.56732E-01  9568   0.465E+01-0.435E+00
CGA:  29    -0.312904880764E+03   -0.26414E-01   -0.26279E-01  9568   0.347E+01 0.158E-01
CGA:  30    -0.312937727905E+03   -0.32847E-01   -0.34170E-01  9568   0.537E+01-0.460E-01
CGA:  31    -0.312987052971E+03   -0.49325E-01   -0.46727E-01  9568   0.441E+01 0.173E+00
CGA:  32    -0.313012111790E+03   -0.25059E-01   -0.24907E-01  9568   0.210E+01 0.210E-01
CGA:  33    -0.313026287844E+03   -0.14176E-01   -0.14703E-01  9568   0.187E+01-0.472E-01
CGA:  34    -0.313045410929E+03   -0.19123E-01   -0.19476E-01  9568   0.293E+01 0.280E-02
CGA:  35    -0.313078148569E+03   -0.32738E-01   -0.33344E-01  9568   0.352E+01 0.255E-01
CGA:  36    -0.313113689575E+03   -0.35541E-01   -0.34896E-01  9568   0.301E+01 0.811E-02
CGA:  37    -0.313135917807E+03   -0.22228E-01   -0.20501E-01  9568   0.192E+01 0.144E+00
CGA:  38    -0.313150838432E+03   -0.14921E-01   -0.15015E-01  9568   0.191E+01-0.767E-02
CGA:  39    -0.313170003137E+03   -0.19165E-01   -0.19352E-01  9568   0.274E+01 0.523E-02
CGA:  40    -0.313194442067E+03   -0.24439E-01   -0.25368E-01  9568   0.228E+01 0.180E-02
CGA:  41    -0.313211381147E+03   -0.16939E-01   -0.17100E-01  9568   0.117E+01-0.803E-02
CGA:  42    -0.313223722444E+03   -0.12341E-01   -0.12283E-01  9568   0.158E+01-0.542E-02
CGA:  43    -0.313244325771E+03   -0.20603E-01   -0.20591E-01  9568   0.183E+01-0.460E-01
CGA:  44    -0.313254856319E+03   -0.10531E-01   -0.10115E-01  9568   0.849E+00 0.453E-01
SDA:  45    -0.313260686243E+03   -0.58299E-02   -0.59008E-02  9568   0.733E+00-0.496E-02
CGA:  46    -0.313273920962E+03   -0.13235E-01   -0.13001E-01  9568   0.293E+00 0.354E-01
CGA:  47    -0.313278630855E+03   -0.47099E-02   -0.46937E-02  9568   0.998E-01 0.425E-02
CGA:  48    -0.313287480528E+03   -0.88497E-02   -0.65898E-03  9568   0.160E+00 0.564E-02
CGA:  49    -0.313291456053E+03   -0.39755E-02   -0.39756E-02  9568   0.189E+00 0.518E-03
CGA:  50    -0.313299278249E+03   -0.78222E-02   -0.77670E-02  9568   0.628E-01 0.287E-02
CGA:  51    -0.313301285073E+03   -0.20068E-02   -0.20039E-02  9568   0.631E-01 0.298E-03
CGA:  52    -0.313302961366E+03   -0.16763E-02   -0.16747E-02  9568   0.635E-01 0.574E-03
CGA:  53    -0.313306343317E+03   -0.33820E-02   -0.33618E-02  9568   0.819E-01 0.749E-03
CGA:  54    -0.313308434263E+03   -0.20909E-02   -0.20912E-02  9568   0.481E-01 0.184E-03
CGA:  55    -0.313310121889E+03   -0.16876E-02   -0.16860E-02  9568   0.683E-01 0.133E-03
CGA:  56    -0.313311933487E+03   -0.18116E-02   -0.18120E-02  9568   0.266E-01 0.115E-02
CGA:  57    -0.313313412950E+03   -0.14795E-02   -0.14801E-02  9568   0.532E-01-0.255E-04
CGA:  58    -0.313314501722E+03   -0.10888E-02   -0.10884E-02  9568   0.235E-01-0.201E-04
CGA:  59    -0.313315576353E+03   -0.10746E-02   -0.10734E-02  9568   0.160E-01 0.589E-04
CGA:  60    -0.313315940823E+03   -0.36447E-03   -0.36483E-03  9568   0.151E-01 0.178E-04
CGA:  61    -0.313316570583E+03   -0.62976E-03   -0.62738E-03  9568   0.109E-01 0.149E-03
CGA:  62    -0.313317025447E+03   -0.45486E-03   -0.45414E-03  9568   0.190E-01 0.503E-04
CGA:  63    -0.313317510949E+03   -0.48550E-03   -0.48563E-03  9568   0.655E-02 0.280E-04
[...]
CGA:  14    -0.313494030540E+03   -0.44953E-04   -0.44963E-04  9568   0.768E-03-0.204E-05
CGA:  15    -0.313494061306E+03   -0.30766E-04   -0.30756E-04  9568   0.512E-03 0.143E-05
CGA:  16    -0.313494074890E+03   -0.13584E-04   -0.13579E-04  9568   0.440E-03-0.384E-06
CGA:  17    -0.313494088223E+03   -0.13332E-04   -0.13331E-04  9568   0.281E-03-0.253E-06
CGA:  18    -0.313494098411E+03   -0.10189E-04   -0.10186E-04  9568   0.170E-03 0.102E-05
CGA:  19    -0.313494107292E+03   -0.88810E-05   -0.88910E-05  9568   0.180E-03-0.482E-06
  77 F= -.31349411E+03 E0= -.31347396E+03  d E =0.117432E-03  mag=    25.8838
       N       E                     dE             d eps       ncg     rms          ort
SDA:   1    -0.313438170752E+03    0.55928E-01    0.00000E+00  9568   0.114E+01 0.000E+00
CGA:   2    -0.313450600074E+03   -0.12429E-01   -0.11822E-01  9568   0.138E+00 0.454E-01
CGA:   3    -0.313464175790E+03   -0.13576E-01   -0.13791E-01  9568   0.513E+00-0.393E-02
CGA:   4    -0.313476555305E+03   -0.12380E-01   -0.12361E-01  9568   0.218E+00-0.840E-04
CGA:   5    -0.313480958710E+03   -0.44034E-02   -0.44612E-02  9568   0.136E+00-0.900E-03
CGA:   6    -0.313485148640E+03   -0.41899E-02   -0.41919E-02  9568   0.692E-01 0.193E-03
CGA:   7    -0.313489763569E+03   -0.46149E-02   -0.46280E-02  9568   0.108E+00-0.396E-03
CGA:   8    -0.313491498125E+03   -0.17346E-02   -0.17296E-02  9568   0.262E-01 0.177E-03
CGA:   9    -0.313492210064E+03   -0.71194E-03   -0.71253E-03  9568   0.174E-01 0.211E-04
CGA:  10    -0.313492728520E+03   -0.51846E-03   -0.51830E-03  9568   0.984E-02-0.991E-05
CGA:  11    -0.313493378223E+03   -0.64970E-03   -0.65081E-03  9568   0.940E-02-0.344E-04
CGA:  12    -0.313493513559E+03   -0.13534E-03   -0.13536E-03  9568   0.267E-02 0.637E-06
CGA:  13    -0.313493640861E+03   -0.12730E-03   -0.12714E-03  9568   0.314E-02 0.105E-04
CGA:  14    -0.313493720273E+03   -0.79413E-04   -0.79250E-04  9568   0.125E-02-0.230E-05
CGA:  15    -0.313493795869E+03   -0.75595E-04   -0.75499E-04  9568   0.133E-02 0.367E-05
CGA:  16    -0.313493820682E+03   -0.24814E-04   -0.24798E-04  9568   0.805E-03 0.114E-05
CGA:  17    -0.313493858129E+03   -0.37447E-04   -0.37437E-04  9568   0.526E-03 0.760E-06
CGA:  18    -0.313493871279E+03   -0.13150E-04   -0.13132E-04  9568   0.288E-03-0.505E-06
CGA:  19    -0.313493884837E+03   -0.13558E-04   -0.13551E-04  9568   0.196E-03 0.608E-06
CGA:  20    -0.313493891630E+03   -0.67925E-05   -0.67933E-05  9568   0.346E-03 0.565E-06
CGA:  21    -0.313493903703E+03   -0.12073E-04   -0.12074E-04  9568   0.142E-03 0.308E-06
CGA:  22    -0.313493908697E+03   -0.49936E-05   -0.49930E-05  9568   0.106E-03-0.564E-06
  78 F= -.31349391E+03 E0= -.31347380E+03  d E =0.198596E-03  mag=    25.8832
       N       E                     dE             d eps       ncg     rms          ort
SDA:   1    -0.313135142446E+03    0.35876E+00    0.00000E+00  9568   0.129E+01 0.000E+00
CGA:   2    -0.313177403783E+03   -0.42261E-01   -0.42316E-01  9568   0.256E+01 0.827E-02
CGA:   3    -0.313324943857E+03   -0.14754E+00   -0.15190E+00  9568   0.273E+01-0.169E+00
CGA:   4    -0.313418453448E+03   -0.93510E-01   -0.93498E-01  9568   0.811E+00 0.627E-01
CGA:   5    -0.313438825044E+03   -0.20372E-01   -0.20293E-01  9568   0.463E+00-0.519E-04
CGA:   6    -0.313458101404E+03   -0.19276E-01   -0.19214E-01  9568   0.624E+00 0.727E-02
CGA:   7    -0.313474019272E+03   -0.15918E-01   -0.15853E-01  9568   0.277E+00-0.420E-03
CGA:   8    -0.313483472839E+03   -0.94536E-02   -0.94566E-02  9568   0.672E-01 0.854E-03
CGA:   9    -0.313485928861E+03   -0.24560E-02   -0.24560E-02  9568   0.937E-01 0.261E-04
CGA:  10    -0.313488564774E+03   -0.26359E-02   -0.26409E-02  9568   0.542E-01 0.150E-03
CGA:  11    -0.313490453948E+03   -0.18892E-02   -0.18890E-02  9568   0.269E-01-0.136E-03
CGA:  12    -0.313491220314E+03   -0.76637E-03   -0.76590E-03  9568   0.129E-01-0.114E-04
CGA:  13    -0.313491682058E+03   -0.46174E-03   -0.46177E-03  9568   0.128E-01-0.103E-04
CGA:  14    -0.313491978993E+03   -0.29693E-03   -0.29829E-03  9568   0.736E-02 0.166E-05
CGA:  15    -0.313492409876E+03   -0.43088E-03   -0.43043E-03  9568   0.394E-02 0.169E-04
CGA:  16    -0.313492510349E+03   -0.10047E-03   -0.10038E-03  9568   0.275E-02-0.836E-06
CGA:  17    -0.313492604734E+03   -0.94384E-04   -0.94378E-04  9568   0.281E-02-0.391E-05
CGA:  18    -0.313492689978E+03   -0.85245E-04   -0.85282E-04  9568   0.136E-02 0.410E-05
CGA:  19    -0.313492734198E+03   -0.44220E-04   -0.44217E-04  9568   0.625E-03-0.895E-06
CGA:  20    -0.313492763814E+03   -0.29616E-04   -0.29608E-04  9568   0.139E-02 0.258E-06
CGA:  21    -0.313492807613E+03   -0.43798E-04   -0.43791E-04  9568   0.579E-03-0.127E-05
CGA:  22    -0.313492827116E+03   -0.19503E-04   -0.19502E-04  9568   0.352E-03-0.662E-06
CGA:  23    -0.313492838192E+03   -0.11076E-04   -0.11080E-04  9568   0.263E-03 0.736E-06
CGA:  24    -0.313492848314E+03   -0.10122E-04   -0.10119E-04  9568   0.417E-03 0.477E-06
CGA:  25    -0.313492863913E+03   -0.15599E-04   -0.15600E-04  9568   0.215E-03-0.411E-06
CGA:  26    -0.313492873585E+03   -0.96714E-05   -0.96663E-05  9568   0.201E-03 0.307E-06
  79 F= -.31349287E+03 E0= -.31347285E+03  d E =0.103511E-02  mag=    25.8818
       N       E                     dE             d eps       ncg     rms          ort
SDA:   1    -0.313017680364E+03    0.47518E+00    0.00000E+00  9568   0.157E+01 0.000E+00
CGA:   2    -0.313105843267E+03   -0.88163E-01   -0.87227E-01  9568   0.513E+01 0.413E-01
CGA:   3    -0.313293728985E+03   -0.18789E+00   -0.18796E+00  9568   0.225E+01 0.654E-01
CGA:   4    -0.313344965940E+03   -0.51237E-01   -0.49759E-01  9568   0.106E+01 0.176E-01
CGA:   5    -0.313411744488E+03   -0.66779E-01   -0.69258E-01  9568   0.153E+01-0.861E-01
CGA:   6    -0.313439847628E+03   -0.28103E-01   -0.28092E-01  9568   0.679E+00-0.927E-03
CGA:   7    -0.313468536377E+03   -0.28689E-01   -0.28525E-01  9568   0.264E+00 0.177E-01
CGA:   8    -0.313474243552E+03   -0.57072E-02   -0.56148E-02  9568   0.138E+00 0.153E-02
CGA:   9    -0.313481145002E+03   -0.69014E-02   -0.68730E-02  9568   0.158E+00 0.161E-02
CGA:  10    -0.313485120641E+03   -0.39756E-02   -0.39955E-02  9568   0.105E+00 0.792E-04
CGA:  11    -0.313488105359E+03   -0.29847E-02   -0.29914E-02  9568   0.194E-01 0.224E-03
CGA:  12    -0.313488774173E+03   -0.66881E-03   -0.66873E-03  9568   0.290E-01-0.424E-04
CGA:  13    -0.313489994084E+03   -0.12199E-02   -0.12202E-02  9568   0.196E-01-0.327E-04
CGA:  14    -0.313490485462E+03   -0.49138E-03   -0.49206E-03  9568   0.131E-01 0.945E-05
CGA:  15    -0.313490916691E+03   -0.43123E-03   -0.43128E-03  9568   0.374E-02 0.982E-05
CGA:  16    -0.313491055106E+03   -0.13842E-03   -0.13844E-03  9568   0.583E-02-0.684E-05
CGA:  17    -0.313491245639E+03   -0.19053E-03   -0.19051E-03  9568   0.305E-02-0.518E-05
CGA:  18    -0.313491368263E+03   -0.12262E-03   -0.12253E-03  9568   0.375E-02 0.123E-04
CGA:  19    -0.313491474981E+03   -0.10672E-03   -0.10664E-03  9568   0.110E-02-0.263E-05
CGA:  20    -0.313491519202E+03   -0.44221E-04   -0.44230E-04  9568   0.183E-02-0.110E-05
CGA:  21    -0.313491569665E+03   -0.50463E-04   -0.50481E-04  9568   0.578E-03 0.140E-05
CGA:  22    -0.313491602351E+03   -0.32686E-04   -0.32593E-04  9568   0.114E-02 0.422E-05
CGA:  23    -0.313491639177E+03   -0.36826E-04   -0.36837E-04  9568   0.732E-03 0.230E-05
CGA:  24    -0.313491663477E+03   -0.24300E-04   -0.24300E-04  9568   0.570E-03 0.777E-06
CGA:  25    -0.313491675830E+03   -0.12353E-04   -0.12373E-04  9568   0.197E-03 0.150E-05
CGA:  26    -0.313491693363E+03   -0.17533E-04   -0.17349E-04  9568   0.418E-03 0.344E-05
CGA:  27    -0.313491702901E+03   -0.95376E-05   -0.95592E-05  9568   0.257E-03 0.111E-05
CGA:  28    -0.313491714920E+03   -0.12020E-04   -0.12008E-04  9568   0.200E-03 0.101E-05
CGA:  29    -0.313491719559E+03   -0.46391E-05   -0.46507E-05  9568   0.103E-03 0.599E-06
  80 F= -.31349172E+03 E0= -.31347174E+03  d E =0.115403E-02  mag=    25.8782
       N       E                     dE             d eps       ncg     rms          ort
SDA:   1    -0.313318418946E+03    0.17330E+00    0.00000E+00  9568   0.371E+01 0.000E+00
CGA:   2    -0.313359532991E+03   -0.41114E-01   -0.36596E-01  9568   0.431E+00 0.367E+00
CGA:   3    -0.313396164856E+03   -0.36632E-01   -0.36675E-01  9568   0.214E+01-0.931E-03
CGA:   4    -0.313433290434E+03   -0.37126E-01   -0.37568E-01  9568   0.495E+00-0.147E-01
CGA:   5    -0.313443030178E+03   -0.97397E-02   -0.96148E-02  9568   0.492E+00 0.270E-02
CGA:   6    -0.313456107698E+03   -0.13078E-01   -0.13021E-01  9568   0.416E+00-0.764E-03
CGA:   7    -0.313465343486E+03   -0.92358E-02   -0.93804E-02  9568   0.419E+00-0.993E-03
CGA:   8    -0.313475040533E+03   -0.96970E-02   -0.97536E-02  9568   0.352E+00-0.552E-04
CGA:   9    -0.313482561294E+03   -0.75208E-02   -0.75123E-02  9568   0.115E+00 0.423E-07
CGA:  10    -0.313484529592E+03   -0.19683E-02   -0.19491E-02  9568   0.835E-01 0.556E-03
CGA:  11    -0.313487229230E+03   -0.26996E-02   -0.26996E-02  9568   0.535E-01-0.368E-04
CGA:  12    -0.313488258116E+03   -0.10289E-02   -0.10305E-02  9568   0.558E-01-0.292E-04
CGA:  13    -0.313490499260E+03   -0.22411E-02   -0.22389E-02  9568   0.299E-01 0.197E-03
CGA:  14    -0.313490930415E+03   -0.43116E-03   -0.42967E-03  9568   0.147E-01 0.578E-04
CGA:  15    -0.313491358241E+03   -0.42783E-03   -0.42790E-03  9568   0.829E-02 0.927E-05
CGA:  16    -0.313491536487E+03   -0.17825E-03   -0.17837E-03  9568   0.856E-02 0.342E-05
CGA:  17    -0.313491883058E+03   -0.34657E-03   -0.34624E-03  9568   0.132E-01 0.274E-04
CGA:  18    -0.313492179724E+03   -0.29667E-03   -0.29640E-03  9568   0.356E-02-0.116E-05
CGA:  19    -0.313492233906E+03   -0.54182E-04   -0.54196E-04  9568   0.209E-02 0.472E-06
CGA:  20    -0.313492325728E+03   -0.91822E-04   -0.91776E-04  9568   0.178E-02 0.304E-05
CGA:  21    -0.313492362533E+03   -0.36805E-04   -0.36813E-04  9568   0.199E-02 0.173E-05
CGA:  22    -0.313492457190E+03   -0.94656E-04   -0.94526E-04  9568   0.135E-02 0.741E-05
CGA:  23    -0.313492482590E+03   -0.25401E-04   -0.25412E-04  9568   0.114E-02 0.208E-07
CGA:  24    -0.313492518641E+03   -0.36051E-04   -0.36053E-04  9568   0.553E-03-0.152E-05
CGA:  25    -0.313492530169E+03   -0.11528E-04   -0.11540E-04  9568   0.440E-03 0.549E-06
CGA:  26    -0.313492544555E+03   -0.14385E-04   -0.14383E-04  9568   0.563E-03 0.750E-06
CGA:  27    -0.313492559438E+03   -0.14883E-04   -0.14878E-04  9568   0.298E-03-0.126E-05
CGA:  28    -0.313492569600E+03   -0.10163E-04   -0.10170E-04  9568   0.541E-03-0.179E-05
CGA:  29    -0.313492582104E+03   -0.12504E-04   -0.12491E-04  9568   0.134E-03-0.177E-05
CGA:  30    -0.313492586333E+03   -0.42297E-05   -0.42300E-05  9568   0.206E-03-0.265E-06
  81 F= -.31349259E+03 E0= -.31347258E+03  d E =-.866774E-03  mag=    25.8813
       N       E                     dE             d eps       ncg     rms          ort
SDA:   1    -0.313202711725E+03    0.28987E+00    0.00000E+00  9568   0.821E+00 0.000E+00
CGA:   2    -0.313262674934E+03   -0.59963E-01   -0.57101E-01  9568   0.312E+01 0.767E-01
CGA:   3    -0.313382725591E+03   -0.12005E+00   -0.12017E+00  9568   0.162E+01-0.192E-01
CGA:   4    -0.313436067113E+03   -0.53342E-01   -0.53331E-01  9568   0.662E+00 0.426E-02
CGA:   5    -0.313449157978E+03   -0.13091E-01   -0.12805E-01  9568   0.359E+00 0.348E-02
CGA:   6    -0.313472520039E+03   -0.23362E-01   -0.23056E-01  9568   0.302E+00 0.939E-02
CGA:   7    -0.313479065775E+03   -0.65457E-02   -0.65278E-02  9568   0.160E+00 0.787E-04
CGA:   8    -0.313484992978E+03   -0.59272E-02   -0.59271E-02  9568   0.829E-01 0.976E-05
CGA:   9    -0.313486741721E+03   -0.17487E-02   -0.17439E-02  9568   0.370E-01 0.205E-04
CGA:  10    -0.313489010281E+03   -0.22686E-02   -0.22714E-02  9568   0.593E-01-0.929E-04
CGA:  11    -0.313490136923E+03   -0.11266E-02   -0.11250E-02  9568   0.123E-01 0.340E-04
CGA:  12    -0.313490657353E+03   -0.52043E-03   -0.52005E-03  9568   0.107E-01 0.300E-04
CGA:  13    -0.313490906834E+03   -0.24948E-03   -0.24932E-03  9568   0.675E-02 0.175E-05
CGA:  14    -0.313491246267E+03   -0.33943E-03   -0.33913E-03  9568   0.544E-02 0.159E-04
CGA:  15    -0.313491377216E+03   -0.13095E-03   -0.13096E-03  9568   0.315E-02 0.317E-06
CGA:  16    -0.313491486230E+03   -0.10901E-03   -0.10900E-03  9568   0.212E-02 0.732E-05
CGA:  17    -0.313491544037E+03   -0.57808E-04   -0.57822E-04  9568   0.138E-02 0.212E-05
CGA:  18    -0.313491601060E+03   -0.57023E-04   -0.57026E-04  9568   0.987E-03 0.411E-07
CGA:  19    -0.313491623924E+03   -0.22865E-04   -0.22853E-04  9568   0.683E-03-0.243E-06
CGA:  20    -0.313491664746E+03   -0.40822E-04   -0.40781E-04  9568   0.639E-03 0.154E-05
CGA:  21    -0.313491680681E+03   -0.15935E-04   -0.15928E-04  9568   0.463E-03-0.305E-06
CGA:  22    -0.313491696715E+03   -0.16034E-04   -0.16034E-04  9568   0.235E-03 0.877E-07
CGA:  23    -0.313491704828E+03   -0.81128E-05   -0.81124E-05  9568   0.298E-03 0.464E-06
CGA:  24    -0.313491719406E+03   -0.14578E-04   -0.14563E-04  9568   0.293E-03 0.945E-06
CGA:  25    -0.313491726400E+03   -0.69941E-05   -0.69910E-05  9568   0.166E-03-0.230E-06
  82 F= -.31349173E+03 E0= -.31347178E+03  d E =0.859933E-03  mag=    25.8805
       N       E                     dE             d eps       ncg     rms          ort
SDA:   1    -0.313281979561E+03    0.20974E+00    0.00000E+00  9568   0.587E+01 0.000E+00
CGA:   2    -0.313338341024E+03   -0.56361E-01   -0.67073E-01  9568   0.779E+00-0.717E+00
CGA:   3    -0.313377232100E+03   -0.38891E-01   -0.39289E-01  9568   0.157E+01-0.148E-01
CGA:   4    -0.313422559135E+03   -0.45327E-01   -0.45679E-01  9568   0.681E+00 0.232E-01
CGA:   5    -0.313441971444E+03   -0.19412E-01   -0.19262E-01  9568   0.464E+00-0.584E-02
CGA:   6    -0.313457271580E+03   -0.15300E-01   -0.15310E-01  9568   0.325E+00 0.556E-02
CGA:   7    -0.313470804889E+03   -0.13533E-01   -0.13563E-01  9568   0.438E+00-0.277E-02
CGA:   8    -0.313482324581E+03   -0.11520E-01   -0.11617E-01  9568   0.914E-01 0.265E-02
CGA:   9    -0.313484510672E+03   -0.21861E-02   -0.21701E-02  9568   0.620E-01-0.770E-04
CGA:  10    -0.313487362233E+03   -0.28516E-02   -0.28517E-02  9568   0.657E-01-0.719E-07
CGA:  11    -0.313489131030E+03   -0.17688E-02   -0.17686E-02  9568   0.347E-01-0.223E-05
CGA:  12    -0.313490128621E+03   -0.99759E-03   -0.99862E-03  9568   0.137E-01 0.714E-04
CGA:  13    -0.313490438038E+03   -0.30942E-03   -0.30896E-03  9568   0.806E-02 0.121E-05
CGA:  14    -0.313490899980E+03   -0.46194E-03   -0.46221E-03  9568   0.110E-01-0.816E-05
CGA:  15    -0.313491173170E+03   -0.27319E-03   -0.27283E-03  9568   0.562E-02-0.379E-05
CGA:  16    -0.313491356170E+03   -0.18300E-03   -0.18304E-03  9568   0.323E-02 0.174E-04
CGA:  17    -0.313491441716E+03   -0.85546E-04   -0.85531E-04  9568   0.214E-02-0.229E-06
CGA:  18    -0.313491543408E+03   -0.10169E-03   -0.10173E-03  9568   0.290E-02-0.195E-05
CGA:  19    -0.313491624205E+03   -0.80797E-04   -0.80748E-04  9568   0.158E-02-0.181E-05
CGA:  20    -0.313491690058E+03   -0.65853E-04   -0.65823E-04  9568   0.162E-02 0.305E-05
CGA:  21    -0.313491729663E+03   -0.39605E-04   -0.39608E-04  9568   0.785E-03 0.318E-06
CGA:  22    -0.313491766305E+03   -0.36642E-04   -0.36640E-04  9568   0.102E-02 0.343E-06
CGA:  23    -0.313491794427E+03   -0.28122E-04   -0.28112E-04  9568   0.559E-03-0.460E-06
CGA:  24    -0.313491817224E+03   -0.22798E-04   -0.22789E-04  9568   0.719E-03 0.100E-05
CGA:  25    -0.313491839717E+03   -0.22493E-04   -0.22496E-04  9568   0.311E-03 0.119E-05
CGA:  26    -0.313491848760E+03   -0.90425E-05   -0.90447E-05  9568   0.263E-03 0.389E-06
  83 F= -.31349185E+03 E0= -.31347190E+03  d E =-.122359E-03  mag=    25.8792
       N       E                     dE             d eps       ncg     rms          ort
SDA:   1    -0.313412566699E+03    0.79273E-01    0.00000E+00  9568   0.280E+01 0.000E+00
CGA:   2    -0.313441898963E+03   -0.29332E-01   -0.27475E-01  9568   0.182E+00 0.148E+00
CGA:   3    -0.313454226946E+03   -0.12328E-01   -0.12484E-01  9568   0.522E+00-0.476E-02
CGA:   4    -0.313466777178E+03   -0.12550E-01   -0.12573E-01  9568   0.322E+00 0.206E-03
CGA:   5    -0.313473813900E+03   -0.70367E-02   -0.71622E-02  9568   0.184E+00-0.176E-03
CGA:   6    -0.313479135765E+03   -0.53219E-02   -0.53149E-02  9568   0.107E+00-0.563E-03
CGA:   7    -0.313481703591E+03   -0.25678E-02   -0.25740E-02  9568   0.131E+00 0.831E-04
CGA:   8    -0.313488327028E+03   -0.66234E-02   -0.66304E-02  9568   0.536E-01-0.336E-03
CGA:   9    -0.313489373611E+03   -0.10466E-02   -0.10485E-02  9568   0.395E-01-0.243E-04
CGA:  10    -0.313490344804E+03   -0.97119E-03   -0.97247E-03  9568   0.139E-01 0.278E-04
CGA:  11    -0.313490989513E+03   -0.64471E-03   -0.64664E-03  9568   0.241E-01-0.108E-03
CGA:  12    -0.313491541918E+03   -0.55240E-03   -0.55128E-03  9568   0.108E-01-0.962E-05
CGA:  13    -0.313491768482E+03   -0.22656E-03   -0.22683E-03  9568   0.577E-02 0.266E-05
CGA:  14    -0.313491979746E+03   -0.21126E-03   -0.21130E-03  9568   0.248E-02-0.435E-05
CGA:  15    -0.313492030954E+03   -0.51209E-04   -0.51203E-04  9568   0.254E-02-0.322E-06
CGA:  16    -0.313492182617E+03   -0.15166E-03   -0.15153E-03  9568   0.140E-02 0.468E-05
CGA:  17    -0.313492222657E+03   -0.40040E-04   -0.40045E-04  9568   0.166E-02 0.124E-05
CGA:  18    -0.313492263368E+03   -0.40710E-04   -0.40729E-04  9568   0.652E-03 0.103E-05
CGA:  19    -0.313492283952E+03   -0.20584E-04   -0.20582E-04  9568   0.595E-03-0.111E-05
CGA:  20    -0.313492304095E+03   -0.20143E-04   -0.20142E-04  9568   0.398E-03 0.815E-06
CGA:  21    -0.313492313215E+03   -0.91207E-05   -0.91249E-05  9568   0.420E-03 0.452E-06
CGA:  22    -0.313492339901E+03   -0.26686E-04   -0.26680E-04  9568   0.224E-03 0.828E-07
CGA:  23    -0.313492345636E+03   -0.57344E-05   -0.57361E-05  9568   0.215E-03 0.656E-07
  84 F= -.31349235E+03 E0= -.31347237E+03  d E =-.496876E-03  mag=    25.8799
       N       E                     dE             d eps       ncg     rms          ort
SDA:   1    -0.313397353282E+03    0.94987E-01    0.00000E+00  9568   0.332E+00 0.000E+00
CGA:   2    -0.313413421770E+03   -0.16068E-01   -0.16322E-01  9568   0.653E+00-0.126E-01
CGA:   3    -0.313446278545E+03   -0.32857E-01   -0.32629E-01  9568   0.749E+00 0.104E-01
CGA:   4    -0.313468900853E+03   -0.22622E-01   -0.22615E-01  9568   0.542E+00-0.500E-03
CGA:   5    -0.313478142551E+03   -0.92417E-02   -0.97498E-02  9568   0.862E-01-0.123E-01
CGA:   6    -0.313485156983E+03   -0.70144E-02   -0.70125E-02  9568   0.106E+00 0.541E-04
CGA:   7    -0.313488144526E+03   -0.29875E-02   -0.29999E-02  9568   0.613E-01 0.406E-03
CGA:   8    -0.313490045381E+03   -0.19009E-02   -0.19031E-02  9568   0.205E-01 0.178E-03
CGA:   9    -0.313490471676E+03   -0.42629E-03   -0.42703E-03  9568   0.161E-01-0.110E-04
CGA:  10    -0.313491337500E+03   -0.86582E-03   -0.86821E-03  9568   0.775E-02-0.106E-03
CGA:  11    -0.313491746011E+03   -0.40851E-03   -0.40749E-03  9568   0.605E-02 0.506E-04
CGA:  12    -0.313491862284E+03   -0.11627E-03   -0.11633E-03  9568   0.195E-02-0.228E-05
CGA:  13    -0.313491937108E+03   -0.74825E-04   -0.74836E-04  9568   0.298E-02-0.186E-05
CGA:  14    -0.313492032600E+03   -0.95492E-04   -0.95497E-04  9568   0.131E-02 0.172E-05
CGA:  15    -0.313492101874E+03   -0.69274E-04   -0.69208E-04  9568   0.492E-03 0.340E-05
CGA:  16    -0.313492118669E+03   -0.16794E-04   -0.16793E-04  9568   0.755E-03-0.529E-06
CGA:  17    -0.313492140726E+03   -0.22058E-04   -0.22059E-04  9568   0.239E-03 0.322E-07
CGA:  18    -0.313492152487E+03   -0.11761E-04   -0.11749E-04  9568   0.285E-03 0.744E-06
CGA:  19    -0.313492162139E+03   -0.96518E-05   -0.96506E-05  9568   0.199E-03-0.665E-06
  85 F= -.31349216E+03 E0= -.31347221E+03  d E =0.183497E-03  mag=    25.8799
