       N       E                     dE             d eps       ncg     rms          rms(c)
DAV:   1     0.640557836351E+04    0.64056E+04   -0.30093E+05 37376   0.170E+03
DAV:   2     0.360342683344E+03   -0.60452E+04   -0.56584E+04 35496   0.512E+02
DAV:   3    -0.290943411331E+03   -0.65129E+03   -0.63120E+03 37424   0.189E+02
DAV:   4    -0.310647818038E+03   -0.19704E+02   -0.19539E+02 38264   0.354E+01
DAV:   5    -0.311110604263E+03   -0.46279E+00   -0.46061E+00 45800   0.524E+00    0.880E+01
DAV:   6    -0.247408803688E+03    0.63702E+02   -0.68169E+02 43160   0.113E+02    0.214E+02
DAV:   7    -0.205539953503E+03    0.41869E+02   -0.12844E+02 41240   0.493E+01    0.101E+02
DAV:   8    -0.276966913767E+03   -0.71427E+02   -0.25394E+02 49888   0.847E+01    0.149E+02
DAV:   9    -0.223146904346E+03    0.53820E+02   -0.13719E+02 44296   0.711E+01    0.113E+02
DAV:  10    -0.209667295914E+03    0.13480E+02   -0.21925E+02 42664   0.455E+01    0.119E+02
DAV:  11    -0.192629802261E+03    0.17037E+02   -0.10086E+02 43680   0.291E+01    0.874E+01
DAV:  12    -0.191565720797E+03    0.10641E+01   -0.85364E+01 39096   0.484E+01    0.806E+01
DAV:  13    -0.201864722927E+03   -0.10299E+02   -0.43202E+01 43952   0.334E+01    0.104E+02
DAV:  14    -0.197743250505E+03    0.41215E+01   -0.40677E+01 40176   0.347E+01    0.821E+01
DAV:  15    -0.200242553270E+03   -0.24993E+01   -0.39131E+01 44432   0.227E+01    0.661E+01
DAV:  16    -0.200072897294E+03    0.16966E+00   -0.18320E+01 44936   0.249E+01    0.706E+01
DAV:  17    -0.199362492450E+03    0.71040E+00   -0.20137E+01 39864   0.274E+01    0.574E+01
DAV:  18    -0.198006984674E+03    0.13555E+01   -0.15856E+01 42472   0.158E+01    0.471E+01
DAV:  19    -0.198915174797E+03   -0.90819E+00   -0.13300E+01 42000   0.149E+01    0.305E+01
DAV:  20    -0.201359889809E+03   -0.24447E+01   -0.74224E+00 42816   0.110E+01    0.350E+01
DAV:  21    -0.204565014649E+03   -0.32051E+01   -0.53559E+00 42640   0.902E+00    0.266E+01
DAV:  22    -0.206377850117E+03   -0.18128E+01   -0.19872E+00 41112   0.513E+00    0.265E+01
DAV:  23    -0.207350116231E+03   -0.97227E+00   -0.12355E+00 39944   0.271E+00    0.261E+01
DAV:  24    -0.207501218529E+03   -0.15110E+00   -0.66151E-02 35832   0.904E-01    0.262E+01
DAV:  25    -0.207475484440E+03    0.25734E-01   -0.22743E-01 44040   0.984E-01    0.261E+01
DAV:  26    -0.207591620886E+03   -0.11614E+00   -0.12271E+00 43256   0.329E+00    0.267E+01
DAV:  27    -0.207568062504E+03    0.23558E-01   -0.16448E-01 40312   0.149E+00    0.272E+01
DAV:  28    -0.207640477572E+03   -0.72415E-01   -0.25125E-01 42544   0.223E+00    0.251E+01
DAV:  29    -0.208016727216E+03   -0.37625E+00   -0.29375E-01 40656   0.146E+00    0.250E+01
DAV:  30    -0.208289245552E+03   -0.27252E+00   -0.59419E-02 39200   0.919E-01    0.252E+01
DAV:  31    -0.208297318705E+03   -0.80732E-02   -0.12928E-02 39104   0.362E-01    0.255E+01
DAV:  32    -0.208433169624E+03   -0.13585E+00   -0.10584E-01 41488   0.565E-01    0.255E+01
DAV:  33    -0.208443612355E+03   -0.10443E-01   -0.95934E-02 42616   0.627E-01    0.254E+01
DAV:  34    -0.208417261960E+03    0.26350E-01   -0.75955E-03 41856   0.363E-01    0.256E+01
DAV:  35    -0.208242095349E+03    0.17517E+00   -0.71259E-03 41136   0.301E-01    0.257E+01
DAV:  36    -0.209527652128E+03   -0.12856E+01   -0.41009E-01 40072   0.189E+00    0.243E+01
DAV:  37    -0.212177107380E+03   -0.26495E+01   -0.85874E-01 41888   0.379E+00    0.229E+01
DAV:  38    -0.216921794110E+03   -0.47447E+01   -0.38837E+00 42064   0.910E+00    0.234E+01
DAV:  39    -0.219978169540E+03   -0.30564E+01   -0.37142E+00 41600   0.709E+00    0.209E+01
DAV:  40    -0.222122718682E+03   -0.21445E+01   -0.26670E+00 41344   0.583E+00    0.240E+01
DAV:  41    -0.222061367485E+03    0.61351E-01   -0.41911E-01 43568   0.306E+00    0.255E+01
DAV:  42    -0.222063041107E+03   -0.16736E-02   -0.29447E-01 39216   0.159E+00    0.267E+01
DAV:  43    -0.221978022715E+03    0.85018E-01   -0.32170E-02 40216   0.642E-01    0.270E+01
DAV:  44    -0.221983899542E+03   -0.58768E-02   -0.10942E-02 40200   0.504E-01    0.269E+01
DAV:  45    -0.222003423372E+03   -0.19524E-01   -0.95369E-03 43816   0.351E-01    0.264E+01
DAV:  46    -0.222109096470E+03   -0.10567E+00   -0.53806E-01 43448   0.176E+00    0.251E+01
DAV:  47    -0.222111652422E+03   -0.25560E-02   -0.42574E-02 37376   0.615E-01    0.245E+01
DAV:  48    -0.222123339828E+03   -0.11687E-01   -0.42500E-03 37648   0.258E-01    0.249E+01
DAV:  49    -0.222069794394E+03    0.53545E-01   -0.92263E-03 43864   0.504E-01    0.256E+01
DAV:  50    -0.222067661593E+03    0.21328E-02   -0.43823E-03 38792   0.312E-01    0.256E+01
DAV:  51    -0.222439111120E+03   -0.37145E+00   -0.29498E+00 43096   0.983E+00    0.346E+01
DAV:  52    -0.223315872794E+03   -0.87676E+00   -0.25886E+00 42920   0.592E+00    0.311E+01
DAV:  53    -0.223413859810E+03   -0.97987E-01   -0.10704E+00 43544   0.386E+00    0.278E+01
DAV:  54    -0.220971800575E+03    0.24421E+01   -0.70846E+00 42608   0.725E+00    0.313E+01
DAV:  55    -0.217582910618E+03    0.33889E+01   -0.32412E+00 39064   0.437E+00    0.317E+01
DAV:  56    -0.222182513926E+03   -0.45996E+01   -0.83041E+00 44032   0.116E+01    0.246E+01
DAV:  57    -0.222327251340E+03   -0.14474E+00   -0.12362E+00 41416   0.469E+00    0.234E+01
DAV:  58    -0.221612604099E+03    0.71465E+00   -0.22347E+00 43912   0.253E+00    0.249E+01
DAV:  59    -0.221235947945E+03    0.37666E+00   -0.22479E-01 37472   0.162E+00    0.253E+01
DAV:  60    -0.221421749898E+03   -0.18580E+00   -0.43623E-02 35824   0.686E-01    0.251E+01
DAV:  61    -0.220657178838E+03    0.76457E+00   -0.40358E+00 43680   0.842E+00    0.266E+01
DAV:  62    -0.221424679387E+03   -0.76750E+00   -0.90159E-01 41672   0.412E+00    0.252E+01
DAV:  63    -0.222247893917E+03   -0.82321E+00   -0.76750E-01 43176   0.354E+00    0.228E+01
DAV:  64    -0.222025514673E+03    0.22238E+00   -0.37543E-01 45520   0.274E+00    0.224E+01
DAV:  65    -0.221863572492E+03    0.16194E+00   -0.82693E-01 45336   0.231E+00    0.235E+01
DAV:  66    -0.222225336989E+03   -0.36176E+00   -0.32239E+00 43624   0.464E+00    0.201E+01
DAV:  67    -0.221931662596E+03    0.29367E+00   -0.71214E-01 41664   0.422E+00    0.183E+01
DAV:  68    -0.222149428554E+03   -0.21777E+00   -0.43306E-01 44504   0.363E+00    0.189E+01
DAV:  69    -0.222038708623E+03    0.11072E+00   -0.14959E-01 44976   0.177E+00    0.186E+01
DAV:  70    -0.221807673074E+03    0.23104E+00   -0.13211E-01 44712   0.162E+00    0.184E+01
DAV:  71    -0.222706265011E+03   -0.89859E+00   -0.68335E+00 43208   0.396E+00    0.199E+01
DAV:  72    -0.222754060120E+03   -0.47795E-01   -0.26565E-01 41112   0.219E+00    0.195E+01
DAV:  73    -0.222781398034E+03   -0.27338E-01   -0.93754E-02 44432   0.150E+00    0.187E+01
DAV:  74    -0.222799496190E+03   -0.18098E-01   -0.26646E-01 43528   0.227E+00    0.183E+01
DAV:  75    -0.222842618954E+03   -0.43123E-01   -0.68547E-02 40000   0.895E-01    0.182E+01
DAV:  76    -0.222963998233E+03   -0.12138E+00   -0.41908E-01 44752   0.256E+00    0.185E+01
DAV:  77    -0.222843955001E+03    0.12004E+00   -0.88385E-01 43352   0.187E+00    0.191E+01
DAV:  78    -0.222946575768E+03   -0.10262E+00   -0.47077E-02 35440   0.785E-01    0.184E+01
DAV:  79    -0.222918838606E+03    0.27737E-01   -0.76907E-02 43176   0.684E-01    0.177E+01
DAV:  80    -0.223083147297E+03   -0.16431E+00   -0.10949E-01 40072   0.554E-01    0.194E+01
DAV:  81    -0.223075630797E+03    0.75165E-02   -0.12211E-01 43712   0.173E+00    0.199E+01
DAV:  82    -0.223061278964E+03    0.14352E-01   -0.20186E-02 36280   0.397E-01    0.201E+01
DAV:  83    -0.223069166222E+03   -0.78873E-02   -0.11529E-03 43864   0.142E-01    0.202E+01
DAV:  84    -0.223068751849E+03    0.41437E-03   -0.25752E-04 35600   0.509E-02    0.203E+01
DAV:  85    -0.223113115486E+03   -0.44364E-01   -0.38970E-03 49144   0.274E-01    0.203E+01
DAV:  86    -0.222712366240E+03    0.40075E+00   -0.49290E-01 46160   0.214E+00    0.164E+01
DAV:  87    -0.223004809751E+03   -0.29244E+00   -0.61596E-01 43176   0.285E+00    0.181E+01
DAV:  88    -0.222875456822E+03    0.12935E+00   -0.10582E-01 45080   0.145E+00    0.173E+01
DAV:  89    -0.222896594776E+03   -0.21138E-01   -0.70888E-02 44208   0.147E+00    0.177E+01
DAV:  90    -0.222871271909E+03    0.25323E-01   -0.31037E-02 44920   0.852E-01    0.182E+01
DAV:  91    -0.223263691073E+03   -0.39242E+00   -0.35831E+00 46616   0.661E+00    0.182E+01
DAV:  92    -0.223300631343E+03   -0.36940E-01   -0.12275E+00 42776   0.432E+00    0.138E+01
DAV:  93    -0.223443737176E+03   -0.14311E+00   -0.17102E-01 44960   0.231E+00    0.144E+01
DAV:  94    -0.223461204055E+03   -0.17467E-01   -0.48393E-02 45504   0.994E-01    0.139E+01
DAV:  95    -0.223471164320E+03   -0.99603E-02   -0.23730E-02 44416   0.855E-01    0.137E+01
DAV:  96    -0.223817964047E+03   -0.34680E+00   -0.46180E-01 46032   0.411E+00    0.153E+01
DAV:  97    -0.223584674067E+03    0.23329E+00   -0.37697E-01 44240   0.321E+00    0.130E+01
DAV:  98    -0.223499209243E+03    0.85465E-01   -0.12945E-01 46056   0.179E+00    0.121E+01
DAV:  99    -0.223423251630E+03    0.75958E-01   -0.25041E-01 45128   0.224E+00    0.112E+01
DAV: 100    -0.223445691908E+03   -0.22440E-01   -0.38984E-02 39752   0.784E-01    0.113E+01
DAV: 101    -0.223450862135E+03   -0.51702E-02   -0.74730E-01 44352   0.287E+00    0.102E+01
DAV: 102    -0.223380513278E+03    0.70349E-01   -0.16300E-01 42160   0.199E+00    0.839E+00
DAV: 103    -0.223338924205E+03    0.41589E-01   -0.20032E-01 45928   0.142E+00    0.978E+00
DAV: 104    -0.223322223580E+03    0.16701E-01   -0.38245E-02 38568   0.930E-01    0.997E+00
DAV: 105    -0.223264836299E+03    0.57387E-01   -0.35602E-02 45888   0.101E+00    0.952E+00
DAV: 106    -0.223251599002E+03    0.13237E-01   -0.35696E-02 44920   0.108E+00    0.874E+00
DAV: 107    -0.223282436831E+03   -0.30838E-01   -0.32575E-02 42984   0.102E+00    0.868E+00
DAV: 108    -0.223307676867E+03   -0.25240E-01   -0.56129E-02 45848   0.123E+00    0.787E+00
DAV: 109    -0.223410152727E+03   -0.10248E+00   -0.45416E-01 46248   0.126E+00    0.904E+00
DAV: 110    -0.223430161551E+03   -0.20009E-01   -0.38215E-02 37552   0.107E+00    0.880E+00
DAV: 111    -0.223465670569E+03   -0.35509E-01   -0.67876E-01 44744   0.196E+00    0.135E+01
DAV: 112    -0.223438950370E+03    0.26720E-01   -0.67528E-02 39376   0.116E+00    0.139E+01
DAV: 113    -0.223275919206E+03    0.16303E+00   -0.31920E-02 46296   0.111E+00    0.106E+01
DAV: 114    -0.223322970138E+03   -0.47051E-01   -0.16794E-01 43760   0.127E+00    0.885E+00
DAV: 115    -0.223358007142E+03   -0.35037E-01   -0.26954E-02 42456   0.872E-01    0.867E+00
DAV: 116    -0.223435737918E+03   -0.77731E-01   -0.10270E-01 45680   0.107E+00    0.107E+01
DAV: 117    -0.223440531364E+03   -0.47934E-02   -0.18306E-02 42184   0.732E-01    0.116E+01
DAV: 118    -0.223391773996E+03    0.48757E-01   -0.13039E-02 46008   0.661E-01    0.115E+01
DAV: 119    -0.223348407781E+03    0.43366E-01   -0.97185E-03 46720   0.496E-01    0.109E+01
DAV: 120    -0.223305677594E+03    0.42730E-01   -0.11212E-02 47104   0.605E-01    0.965E+00
DAV: 121    -0.223098917925E+03    0.20676E+00   -0.49699E-01 52816   0.309E+00    0.690E+00
DAV: 122    -0.223159279293E+03   -0.60361E-01   -0.19257E-01 39456   0.193E+00    0.643E+00
DAV: 123    -0.223168235937E+03   -0.89566E-02   -0.18362E-02 40184   0.545E-01    0.630E+00
DAV: 124    -0.223154038292E+03    0.14198E-01   -0.19843E-02 46448   0.749E-01    0.553E+00
DAV: 125    -0.223137192362E+03    0.16846E-01   -0.18920E-02 46488   0.700E-01    0.472E+00
DAV: 126    -0.223138604414E+03   -0.14121E-02   -0.39632E-02 44808   0.113E+00    0.440E+00
DAV: 127    -0.223133257028E+03    0.53474E-02   -0.20550E-02 43192   0.964E-01    0.390E+00
DAV: 128    -0.223135482716E+03   -0.22257E-02   -0.25949E-02 43256   0.803E-01    0.352E+00
DAV: 129    -0.223136532478E+03   -0.10498E-02   -0.19582E-02 40824   0.571E-01    0.315E+00
DAV: 130    -0.223133728570E+03    0.28039E-02   -0.30533E-02 43744   0.489E-01    0.224E+00
DAV: 131    -0.223134666133E+03   -0.93756E-03   -0.95914E-03 44760   0.521E-01    0.186E+00
DAV: 132    -0.223133841571E+03    0.82456E-03   -0.86592E-03 43784   0.400E-01    0.142E+00
DAV: 133    -0.223135857305E+03   -0.20157E-02   -0.32993E-03 42384   0.204E-01    0.152E+00
DAV: 134    -0.223135400451E+03    0.45685E-03   -0.75446E-04 40936   0.117E-01    0.149E+00
DAV: 135    -0.223135004918E+03    0.39553E-03   -0.33327E-04 45032   0.816E-02    0.128E+00
DAV: 136    -0.223135787518E+03   -0.78260E-03   -0.80359E-04 43560   0.196E-01    0.905E-01
DAV: 137    -0.223136042515E+03   -0.25500E-03   -0.71718E-04 44184   0.120E-01    0.621E-01
DAV: 138    -0.223136419299E+03   -0.37678E-03   -0.79252E-04 43312   0.172E-01    0.652E-01
DAV: 139    -0.223136888287E+03   -0.46899E-03   -0.43633E-04 42896   0.976E-02    0.641E-01
DAV: 140    -0.223137037905E+03   -0.14962E-03   -0.15535E-04 37488   0.621E-02    0.668E-01
DAV: 141    -0.223137128150E+03   -0.90244E-04   -0.42859E-04 40064   0.107E-01    0.759E-01
DAV: 142    -0.223136835473E+03    0.29268E-03   -0.23972E-04 41528   0.742E-02    0.629E-01
DAV: 143    -0.223136734015E+03    0.10146E-03   -0.10492E-04 29848   0.525E-02    0.545E-01
DAV: 144    -0.223136734221E+03   -0.20572E-06   -0.54938E-05 30352   0.391E-02
   1 F= -.22313673E+03 E0= -.22311739E+03  d E =-.223137E+03  mag=     9.4834
       N       E                     dE             d eps       ncg     rms          rms(c)
DAV:   1    -0.223267439150E+03   -0.13071E+00   -0.33649E-02 33584   0.373E-01    0.524E-01
DAV:   2    -0.223306869822E+03   -0.39431E-01   -0.12682E-01 42616   0.105E+00    0.575E+00
DAV:   3    -0.223262711262E+03    0.44159E-01   -0.52783E-02 36352   0.958E-01    0.361E+00
DAV:   4    -0.223262374568E+03    0.33669E-03   -0.34475E-03 41248   0.301E-01    0.346E+00
DAV:   5    -0.223264546504E+03   -0.21719E-02   -0.30460E-03 41128   0.432E-01    0.391E+00
DAV:   6    -0.223264254781E+03    0.29172E-03   -0.45021E-04 35256   0.786E-02    0.413E+00
DAV:   7    -0.223260221339E+03    0.40334E-02   -0.78974E-04 43616   0.129E-01    0.388E+00
DAV:   8    -0.223261133043E+03   -0.91170E-03   -0.64290E-04 42168   0.118E-01    0.384E+00
DAV:   9    -0.223261752157E+03   -0.61911E-03   -0.13834E-04 30432   0.351E-02    0.384E+00
DAV:  10    -0.223258312558E+03    0.34396E-02   -0.19008E-03 45800   0.191E-01    0.303E+00
DAV:  11    -0.223261737344E+03   -0.34248E-02   -0.19736E-03 38864   0.306E-01    0.273E+00
DAV:  12    -0.223260916449E+03    0.82089E-03   -0.15975E-03 42400   0.226E-01    0.173E+00
DAV:  13    -0.223263084091E+03   -0.21676E-02   -0.21071E-03 39568   0.248E-01    0.510E-01
DAV:  14    -0.223266964647E+03   -0.38806E-02   -0.19257E-03 35976   0.223E-01    0.409E-01
DAV:  15    -0.223267936475E+03   -0.97183E-03   -0.75799E-04 39664   0.158E-01    0.270E-01
DAV:  16    -0.223268002066E+03   -0.65592E-04   -0.17198E-04 41760   0.659E-02    0.183E-01
DAV:  17    -0.223268055095E+03   -0.53029E-04   -0.84477E-05 27952   0.515E-02    0.179E-01
DAV:  18    -0.223268093371E+03   -0.38276E-04   -0.82918E-05 27232   0.533E-02    0.207E-01
DAV:  19    -0.223268060923E+03    0.32448E-04   -0.84854E-05 28224   0.586E-02    0.210E-01
DAV:  20    -0.223268060691E+03    0.23174E-06   -0.76404E-05 31816   0.507E-02
   2 F= -.22326806E+03 E0= -.22324900E+03  d E =-.131326E+00  mag=     9.4555
       N       E                     dE             d eps       ncg     rms          rms(c)
DAV:   1    -0.225626055697E+03   -0.23580E+01   -0.18175E+01 33400   0.846E+00    0.150E+00
DAV:   2    -0.225727106197E+03   -0.10105E+00   -0.12975E+00 37528   0.243E+00    0.543E+00
DAV:   3    -0.225692714036E+03    0.34392E-01   -0.39751E-01 42664   0.178E+00    0.271E+00
DAV:   4    -0.225707346582E+03   -0.14633E-01   -0.11789E-01 39064   0.159E+00    0.301E+00
DAV:   5    -0.225695349335E+03    0.11997E-01   -0.33813E-02 39920   0.124E+00    0.179E+00
DAV:   6    -0.225696776611E+03   -0.14273E-02   -0.25478E-02 39920   0.101E+00    0.191E+00
DAV:   7    -0.225696858978E+03   -0.82368E-04   -0.18310E-02 41960   0.814E-01    0.207E+00
DAV:   8    -0.225696887714E+03   -0.28736E-04   -0.26966E-03 38496   0.249E-01    0.268E+00
DAV:   9    -0.225700734923E+03   -0.38472E-02   -0.14650E-02 42752   0.573E-01    0.442E+00
DAV:  10    -0.225701618026E+03   -0.88310E-03   -0.15851E-02 41696   0.607E-01    0.503E+00
DAV:  11    -0.225697629309E+03    0.39887E-02   -0.88220E-03 42672   0.445E-01    0.507E+00
DAV:  12    -0.225694184030E+03    0.34453E-02   -0.21141E-03 39728   0.139E-01    0.501E+00
DAV:  13    -0.225693284641E+03    0.89939E-03   -0.69034E-04 36728   0.533E-02    0.502E+00
DAV:  14    -0.225692764210E+03    0.52043E-03   -0.26096E-04 29616   0.308E-02    0.503E+00
DAV:  15    -0.225689054174E+03    0.37100E-02   -0.54659E-04 40936   0.111E-01    0.491E+00
DAV:  16    -0.225692177912E+03   -0.31237E-02   -0.43913E-04 38016   0.994E-02    0.502E+00
DAV:  17    -0.225701072256E+03   -0.88943E-02   -0.70172E-03 45800   0.389E-01    0.530E+00
DAV:  18    -0.225698762214E+03    0.23100E-02   -0.50789E-03 45600   0.417E-01    0.520E+00
DAV:  19    -0.225695836151E+03    0.29261E-02   -0.51616E-03 45008   0.366E-01    0.506E+00
DAV:  20    -0.225693373858E+03    0.24623E-02   -0.23249E-03 43832   0.325E-01    0.487E+00
DAV:  21    -0.225692703520E+03    0.67034E-03   -0.15880E-03 44600   0.217E-01    0.479E+00
DAV:  22    -0.225692709560E+03   -0.60403E-05   -0.13180E-03 43776   0.178E-01    0.484E+00
DAV:  23    -0.225693177684E+03   -0.46812E-03   -0.11059E-03 44128   0.144E-01    0.499E+00
DAV:  24    -0.225693060158E+03    0.11753E-03   -0.29834E-03 43632   0.245E-01    0.469E+00
DAV:  25    -0.225690231689E+03    0.28285E-02   -0.79926E-03 43728   0.370E-01    0.417E+00
DAV:  26    -0.225686628771E+03    0.36029E-02   -0.94634E-03 44776   0.382E-01    0.375E+00
DAV:  27    -0.225663797683E+03    0.22831E-01   -0.49167E-02 43656   0.925E-01    0.302E+00
DAV:  28    -0.225673623883E+03   -0.98262E-02   -0.19356E-02 41792   0.432E-01    0.332E+00
DAV:  29    -0.225683453710E+03   -0.98298E-02   -0.65296E-03 36384   0.340E-01    0.318E+00
DAV:  30    -0.225687457190E+03   -0.40035E-02   -0.15365E-02 41648   0.480E-01    0.188E+00
DAV:  31    -0.225689135923E+03   -0.16787E-02   -0.38804E-03 44632   0.190E-01    0.150E+00
DAV:  32    -0.225690767079E+03   -0.16312E-02   -0.11024E-03 41400   0.160E-01    0.120E+00
DAV:  33    -0.225690704589E+03    0.62490E-04   -0.10074E-03 42352   0.970E-02    0.144E+00
DAV:  34    -0.225691553239E+03   -0.84865E-03   -0.78363E-04 38912   0.134E-01    0.115E+00
DAV:  35    -0.225691923824E+03   -0.37058E-03   -0.66626E-04 41792   0.816E-02    0.860E-01
DAV:  36    -0.225692851189E+03   -0.92737E-03   -0.11176E-03 41592   0.130E-01    0.455E-01
DAV:  37    -0.225693229675E+03   -0.37849E-03   -0.48622E-04 39680   0.693E-02    0.310E-01
DAV:  38    -0.225693284806E+03   -0.55131E-04   -0.75612E-05 31584   0.308E-02    0.281E-01
DAV:  39    -0.225693253753E+03    0.31053E-04   -0.18829E-05 22432   0.155E-02    0.276E-01
DAV:  40    -0.225693254984E+03   -0.12311E-05   -0.56610E-06 18320   0.783E-03
   3 F= -.22569325E+03 E0= -.22567440E+03  d E =-.242519E+01  mag=     9.4303
       N       E                     dE             d eps       ncg     rms          rms(c)
DAV:   1    -0.227853190090E+03   -0.21599E+01   -0.69403E+01 33816   0.206E+01    0.267E+00
DAV:   2    -0.228273194974E+03   -0.42000E+00   -0.48789E+00 36880   0.446E+00    0.382E+00
DAV:   3    -0.228335495625E+03   -0.62301E-01   -0.61766E-01 45760   0.308E+00    0.841E+00
DAV:   4    -0.228267942971E+03    0.67553E-01   -0.49575E-01 40424   0.243E+00    0.508E+00
DAV:   5    -0.228246858856E+03    0.21084E-01   -0.10373E-01 38216   0.216E+00    0.215E+00
DAV:   6    -0.228269322518E+03   -0.22464E-01   -0.16838E-01 43288   0.158E+00    0.543E+00
DAV:   7    -0.228240521464E+03    0.28801E-01   -0.34033E-01 41264   0.163E+00    0.282E+00
DAV:   8    -0.228248990497E+03   -0.84690E-02   -0.34306E-02 41184   0.111E+00    0.333E+00
DAV:   9    -0.228245496844E+03    0.34937E-02   -0.48365E-03 36552   0.276E-01    0.394E+00
DAV:  10    -0.228232760521E+03    0.12736E-01   -0.18961E-02 45168   0.738E-01    0.358E+00
DAV:  11    -0.228229712912E+03    0.30476E-02   -0.47141E-02 41784   0.118E+00    0.264E+00
DAV:  12    -0.228237044631E+03   -0.73317E-02   -0.27823E-02 40248   0.794E-01    0.251E+00
DAV:  13    -0.228240988656E+03   -0.39440E-02   -0.82461E-03 42112   0.350E-01    0.296E+00
DAV:  14    -0.228238868122E+03    0.21205E-02   -0.28839E-03 39344   0.227E-01    0.331E+00
DAV:  15    -0.228236528078E+03    0.23400E-02   -0.85635E-04 35432   0.817E-02    0.340E+00
DAV:  16    -0.228232741405E+03    0.37867E-02   -0.37676E-03 45648   0.346E-01    0.221E+00
DAV:  17    -0.228238555968E+03   -0.58146E-02   -0.16388E-02 43152   0.714E-01    0.135E+00
DAV:  18    -0.228242424418E+03   -0.38684E-02   -0.16022E-02 41952   0.609E-01    0.125E+00
DAV:  19    -0.228244393418E+03   -0.19690E-02   -0.71053E-03 40144   0.446E-01    0.195E+00
DAV:  20    -0.228240269720E+03    0.41237E-02   -0.22022E-03 39384   0.260E-01    0.184E+00
DAV:  21    -0.228238749493E+03    0.15202E-02   -0.75040E-04 45056   0.141E-01    0.155E+00
DAV:  22    -0.228239065538E+03   -0.31605E-03   -0.11132E-03 42512   0.124E-01    0.110E+00
DAV:  23    -0.228240619989E+03   -0.15545E-02   -0.10902E-03 37840   0.127E-01    0.862E-01
DAV:  24    -0.228241545806E+03   -0.92582E-03   -0.49028E-04 38232   0.149E-01    0.840E-01
DAV:  25    -0.228241691849E+03   -0.14604E-03   -0.28708E-04 43104   0.979E-02    0.865E-01
DAV:  26    -0.228241825854E+03   -0.13400E-03   -0.25118E-04 40088   0.974E-02    0.861E-01
DAV:  27    -0.228241670011E+03    0.15584E-03   -0.26487E-04 38104   0.623E-02    0.680E-01
DAV:  28    -0.228242020910E+03   -0.35090E-03   -0.27086E-04 38656   0.708E-02    0.632E-01
DAV:  29    -0.228242134023E+03   -0.11311E-03   -0.13279E-04 37392   0.620E-02    0.592E-01
DAV:  30    -0.228242117287E+03    0.16737E-04   -0.49340E-05 31984   0.394E-02    0.542E-01
DAV:  31    -0.228242256477E+03   -0.13919E-03   -0.52833E-05 28848   0.381E-02    0.450E-01
DAV:  32    -0.228242528888E+03   -0.27241E-03   -0.13533E-04 38720   0.509E-02    0.363E-01
DAV:  33    -0.228242725926E+03   -0.19704E-03   -0.10843E-04 36584   0.456E-02    0.332E-01
DAV:  34    -0.228242751561E+03   -0.25634E-04   -0.57437E-05 32280   0.310E-02    0.259E-01
DAV:  35    -0.228242780242E+03   -0.28681E-04   -0.22846E-05 26960   0.202E-02    0.199E-01
DAV:  36    -0.228242806609E+03   -0.26367E-04   -0.42288E-05 30664   0.262E-02    0.130E-01
DAV:  37    -0.228242823224E+03   -0.16615E-04   -0.40192E-05 30288   0.238E-02    0.498E-02
DAV:  38    -0.228242847230E+03   -0.24005E-04   -0.14454E-05 22816   0.135E-02    0.289E-02
DAV:  39    -0.228242855082E+03   -0.78524E-05   -0.45652E-06 19696   0.849E-03
   4 F= -.22824286E+03 E0= -.22822425E+03  d E =-.254960E+01  mag=     9.4105
       N       E                     dE             d eps       ncg     rms          rms(c)
DAV:   1    -0.228695412875E+03   -0.45257E+00   -0.60385E+01 35504   0.295E+01    0.251E+00
DAV:   2    -0.229283622896E+03   -0.58821E+00   -0.62954E+00 36232   0.577E+00    0.297E+00
DAV:   3    -0.229336363100E+03   -0.52740E-01   -0.60429E-01 44952   0.304E+00    0.653E+00
DAV:   4    -0.229286624782E+03    0.49738E-01   -0.32297E-01 38720   0.219E+00    0.433E+00
DAV:   5    -0.229268630993E+03    0.17994E-01   -0.56059E-02 38104   0.193E+00    0.174E+00
DAV:   6    -0.229278850663E+03   -0.10220E-01   -0.33717E-02 44296   0.142E+00    0.223E+00
DAV:   7    -0.229272348727E+03    0.65019E-02   -0.35855E-02 44712   0.148E+00    0.209E+00
DAV:   8    -0.229281787882E+03   -0.94392E-02   -0.11501E-01 43064   0.114E+00    0.324E+00
DAV:   9    -0.229278795061E+03    0.29928E-02   -0.28659E-02 39600   0.111E+00    0.394E+00
DAV:  10    -0.229273868761E+03    0.49263E-02   -0.47773E-03 37360   0.352E-01    0.421E+00
DAV:  11    -0.229272896204E+03    0.97256E-03   -0.49227E-03 42592   0.385E-01    0.482E+00
DAV:  12    -0.229268157176E+03    0.47390E-02   -0.16128E-03 40752   0.228E-01    0.505E+00
DAV:  13    -0.229264561493E+03    0.35957E-02   -0.67071E-04 42136   0.137E-01    0.488E+00
DAV:  14    -0.229254975892E+03    0.95856E-02   -0.86802E-03 45120   0.473E-01    0.358E+00
DAV:  15    -0.229255627158E+03   -0.65127E-03   -0.10316E-02 43368   0.638E-01    0.103E+00
DAV:  16    -0.229270909259E+03   -0.15282E-01   -0.25379E-02 38768   0.526E-01    0.232E+00
DAV:  17    -0.229269207059E+03    0.17022E-02   -0.53428E-03 38648   0.468E-01    0.222E+00
DAV:  18    -0.229264443702E+03    0.47634E-02   -0.42362E-03 43584   0.255E-01    0.133E+00
DAV:  19    -0.229266151408E+03   -0.17077E-02   -0.75618E-04 39928   0.122E-01    0.105E+00
DAV:  20    -0.229267552995E+03   -0.14016E-02   -0.21036E-04 33888   0.566E-02    0.967E-01
DAV:  21    -0.229268015782E+03   -0.46279E-03   -0.31621E-04 35400   0.696E-02    0.651E-01
DAV:  22    -0.229268927753E+03   -0.91197E-03   -0.62735E-04 42488   0.126E-01    0.480E-01
DAV:  23    -0.229269795198E+03   -0.86745E-03   -0.43052E-04 34088   0.920E-02    0.718E-01
DAV:  24    -0.229269708319E+03    0.86879E-04   -0.17736E-04 37544   0.747E-02    0.937E-01
DAV:  25    -0.229269456501E+03    0.25182E-03   -0.33355E-04 41448   0.101E-01    0.110E+00
DAV:  26    -0.229268634813E+03    0.82169E-03   -0.42561E-04 42880   0.139E-01    0.788E-01
DAV:  27    -0.229268793466E+03   -0.15865E-03   -0.27431E-04 41056   0.103E-01    0.431E-01
DAV:  28    -0.229269378428E+03   -0.58496E-03   -0.20859E-04 35784   0.709E-02    0.135E-01
DAV:  29    -0.229269811641E+03   -0.43321E-03   -0.16392E-04 33104   0.567E-02    0.258E-01
DAV:  30    -0.229269842145E+03   -0.30504E-04   -0.88496E-05 30768   0.403E-02    0.396E-01
DAV:  31    -0.229269629447E+03    0.21270E-03   -0.36555E-05 27168   0.305E-02    0.311E-01
DAV:  32    -0.229269626498E+03    0.29497E-05   -0.49511E-05 24864   0.256E-02
   5 F= -.22926963E+03 E0= -.22925120E+03  d E =-.102677E+01  mag=     9.3941
       N       E                     dE             d eps       ncg     rms          rms(c)
DAV:   1    -0.228063695474E+03    0.12059E+01   -0.10097E+02 37112   0.550E+01    0.454E+00
DAV:   2    -0.230078770870E+03   -0.20151E+01   -0.20279E+01 35688   0.115E+01    0.881E+00
DAV:   3    -0.230132027006E+03   -0.53256E-01   -0.25053E+00 44904   0.735E+00    0.781E+00
DAV:   4    -0.230026454090E+03    0.10557E+00   -0.21945E-01 38544   0.451E+00    0.650E+00
DAV:   5    -0.229994066021E+03    0.32388E-01   -0.59336E-01 38544   0.311E+00    0.559E+00
DAV:   6    -0.229994514992E+03   -0.44897E-03   -0.13371E-01 39616   0.158E+00    0.457E+00
DAV:   7    -0.229977334783E+03    0.17180E-01   -0.31671E-02 41256   0.133E+00    0.312E+00
DAV:   8    -0.229981245688E+03   -0.39109E-02   -0.10473E-01 42448   0.159E+00    0.313E+00
DAV:   9    -0.229999405622E+03   -0.18160E-01   -0.60283E-02 42888   0.153E+00    0.556E+00
DAV:  10    -0.229975729939E+03    0.23676E-01   -0.25794E-02 41744   0.109E+00    0.412E+00
DAV:  11    -0.229968343085E+03    0.73869E-02   -0.50689E-02 43200   0.103E+00    0.198E+00
DAV:  12    -0.229977748171E+03   -0.94051E-02   -0.12059E-02 39936   0.591E-01    0.203E+00
DAV:  13    -0.229977172826E+03    0.57535E-03   -0.13097E-03 37152   0.148E-01    0.232E+00
DAV:  14    -0.229973624166E+03    0.35487E-02   -0.71108E-03 42352   0.524E-01    0.229E+00
DAV:  15    -0.229976425904E+03   -0.28017E-02   -0.10610E-02 41528   0.597E-01    0.280E+00
DAV:  16    -0.229976362832E+03    0.63072E-04   -0.92452E-03 42136   0.443E-01    0.344E+00
DAV:  17    -0.229972723464E+03    0.36394E-02   -0.22387E-03 34192   0.150E-01    0.377E+00
DAV:  18    -0.229968938835E+03    0.37846E-02   -0.32469E-03 42856   0.296E-01    0.489E+00
DAV:  19    -0.229958380303E+03    0.10559E-01   -0.30138E-03 40688   0.266E-01    0.549E+00
DAV:  20    -0.229951256803E+03    0.71235E-02   -0.21332E-03 44144   0.209E-01    0.618E+00
DAV:  21    -0.229943756932E+03    0.74999E-02   -0.10408E-03 43752   0.161E-01    0.657E+00
DAV:  22    -0.229940757127E+03    0.29998E-02   -0.19496E-04 34600   0.502E-02    0.664E+00
DAV:  23    -0.229939284196E+03    0.14729E-02   -0.59430E-05 31312   0.536E-02    0.660E+00
DAV:  24    -0.229938971207E+03    0.31299E-03   -0.21518E-05 27384   0.140E-02    0.660E+00
DAV:  25    -0.229939185942E+03   -0.21474E-03   -0.30011E-05 25664   0.294E-02    0.664E+00
DAV:  26    -0.229939097594E+03    0.88348E-04   -0.10899E-05 21872   0.171E-02    0.661E+00
DAV:  27    -0.229940014302E+03   -0.91671E-03   -0.11214E-04 39720   0.688E-02    0.651E+00
DAV:  28    -0.229940724617E+03   -0.71032E-03   -0.35002E-03 44704   0.264E-01    0.583E+00
DAV:  29    -0.229949237563E+03   -0.85129E-02   -0.47930E-03 44672   0.293E-01    0.511E+00
DAV:  30    -0.229954174789E+03   -0.49372E-02   -0.52752E-03 43776   0.364E-01    0.380E+00
DAV:  31    -0.229960611973E+03   -0.64372E-02   -0.30560E-03 43840   0.318E-01    0.224E+00
DAV:  32    -0.229970529617E+03   -0.99176E-02   -0.30193E-03 37624   0.277E-01    0.153E+00
DAV:  33    -0.229974848646E+03   -0.43190E-02   -0.15594E-03 37128   0.178E-01    0.151E+00
DAV:  34    -0.229975328344E+03   -0.47970E-03   -0.59732E-04 43936   0.112E-01    0.171E+00
DAV:  35    -0.229974199698E+03    0.11286E-02   -0.53690E-04 43680   0.108E-01    0.199E+00
DAV:  36    -0.229972615089E+03    0.15846E-02   -0.28900E-04 43160   0.767E-02    0.208E+00
DAV:  37    -0.229973282244E+03   -0.66715E-03   -0.85145E-05 34240   0.464E-02    0.205E+00
DAV:  38    -0.229974155763E+03   -0.87352E-03   -0.22828E-04 42248   0.907E-02    0.190E+00
DAV:  39    -0.229976172559E+03   -0.20168E-02   -0.96750E-04 43912   0.180E-01    0.188E+00
DAV:  40    -0.229977767615E+03   -0.15951E-02   -0.14401E-03 45344   0.204E-01    0.213E+00
DAV:  41    -0.229977090788E+03    0.67683E-03   -0.71967E-04 43264   0.121E-01    0.221E+00
DAV:  42    -0.229976519878E+03    0.57091E-03   -0.18726E-04 41328   0.564E-02    0.227E+00
DAV:  43    -0.229976221255E+03    0.29862E-03   -0.41710E-05 30768   0.246E-02    0.235E+00
DAV:  44    -0.229975854019E+03    0.36724E-03   -0.53066E-05 30816   0.374E-02    0.240E+00
DAV:  45    -0.229975915403E+03   -0.61384E-04   -0.42706E-05 29248   0.459E-02    0.245E+00
DAV:  46    -0.229975727750E+03    0.18765E-03   -0.55715E-05 33304   0.315E-02    0.257E+00
DAV:  47    -0.229975256064E+03    0.47169E-03   -0.16472E-04 41704   0.750E-02    0.250E+00
DAV:  48    -0.229975507348E+03   -0.25128E-03   -0.40040E-04 41096   0.108E-01    0.266E+00
DAV:  49    -0.229975223923E+03    0.28342E-03   -0.94117E-05 37544   0.312E-02    0.268E+00
DAV:  50    -0.229974262028E+03    0.96190E-03   -0.77696E-05 35464   0.543E-02    0.262E+00
DAV:  51    -0.229974108165E+03    0.15386E-03   -0.93496E-05 36904   0.455E-02    0.239E+00
DAV:  52    -0.229974251175E+03   -0.14301E-03   -0.14230E-04 37368   0.477E-02    0.215E+00
DAV:  53    -0.229975312228E+03   -0.10611E-02   -0.98847E-05 32256   0.394E-02    0.206E+00
DAV:  54    -0.229975751536E+03   -0.43931E-03   -0.20038E-05 27064   0.170E-02    0.202E+00
DAV:  55    -0.229975759310E+03   -0.77733E-05   -0.56855E-05 31832   0.331E-02
   6 F= -.22997576E+03 E0= -.22995925E+03  d E =-.706133E+00  mag=     9.3835
       N       E                     dE             d eps       ncg     rms          rms(c)
DAV:   1    -0.227714066905E+03    0.22617E+01   -0.15182E+02 36816   0.663E+01    0.583E+00
DAV:   2    -0.231041110119E+03   -0.33270E+01   -0.31564E+01 35728   0.152E+01    0.199E+01
DAV:   3    -0.230760690337E+03    0.28042E+00   -0.12635E+01 44320   0.875E+00    0.106E+01
DAV:   4    -0.230749743280E+03    0.10947E-01   -0.13706E+00 42000   0.673E+00    0.902E+00
DAV:   5    -0.230654241642E+03    0.95502E-01   -0.56658E-01 38232   0.538E+00    0.865E+00
DAV:   6    -0.230584239303E+03    0.70002E-01   -0.14148E-01 41528   0.322E+00    0.426E+00
DAV:   7    -0.230575882250E+03    0.83571E-02   -0.49122E-02 42312   0.130E+00    0.346E+00
DAV:   8    -0.230570570491E+03    0.53118E-02   -0.19192E-02 46632   0.769E-01    0.335E+00
DAV:   9    -0.230563198697E+03    0.73718E-02   -0.51154E-02 43432   0.151E+00    0.357E+00
DAV:  10    -0.230542318720E+03    0.20880E-01   -0.92376E-02 45048   0.208E+00    0.275E+00
DAV:  11    -0.230592561109E+03   -0.50242E-01   -0.48357E-01 44296   0.199E+00    0.797E+00
DAV:  12    -0.230579100664E+03    0.13460E-01   -0.32547E-02 36600   0.949E-01    0.820E+00
DAV:  13    -0.230570280379E+03    0.88203E-02   -0.63906E-03 41904   0.398E-01    0.887E+00
DAV:  14    -0.230566275036E+03    0.40053E-02   -0.14831E-03 37960   0.180E-01    0.917E+00
DAV:  15    -0.230557276318E+03    0.89987E-02   -0.53752E-04 42392   0.132E-01    0.908E+00
DAV:  16    -0.230550168003E+03    0.71083E-02   -0.16671E-03 43888   0.229E-01    0.890E+00
DAV:  17    -0.230542223666E+03    0.79443E-02   -0.31426E-03 45440   0.334E-01    0.868E+00
DAV:  18    -0.230537744539E+03    0.44791E-02   -0.31911E-03 46752   0.243E-01    0.841E+00
DAV:  19    -0.230534671112E+03    0.30734E-02   -0.10821E-02 42888   0.492E-01    0.801E+00
DAV:  20    -0.230533403197E+03    0.12679E-02   -0.57009E-03 43632   0.330E-01    0.772E+00
DAV:  21    -0.230538265985E+03   -0.48628E-02   -0.10654E-03 35712   0.908E-02    0.771E+00
DAV:  22    -0.230507065112E+03    0.31201E-01   -0.47306E-02 46224   0.771E-01    0.338E+00
DAV:  23    -0.230544824021E+03   -0.37759E-01   -0.10650E-01 40232   0.633E-01    0.408E+00
DAV:  24    -0.230555153720E+03   -0.10330E-01   -0.19362E-02 35120   0.517E-01    0.564E+00
DAV:  25    -0.230540128885E+03    0.15025E-01   -0.32335E-03 37968   0.242E-01    0.587E+00
DAV:  26    -0.230533832122E+03    0.62968E-02   -0.25473E-03 42088   0.302E-01    0.660E+00
DAV:  27    -0.230532204243E+03    0.16279E-02   -0.76934E-04 43624   0.151E-01    0.682E+00
DAV:  28    -0.230520968994E+03    0.11235E-01   -0.15262E-02 46072   0.478E-01    0.547E+00
DAV:  29    -0.230533053827E+03   -0.12085E-01   -0.14091E-02 44768   0.630E-01    0.401E+00
DAV:  30    -0.230542379249E+03   -0.93254E-02   -0.14827E-02 42408   0.673E-01    0.282E+00
DAV:  31    -0.230543394583E+03   -0.10153E-02   -0.81102E-03 43432   0.456E-01    0.179E+00
DAV:  32    -0.230548046074E+03   -0.46515E-02   -0.43982E-03 42312   0.323E-01    0.884E-01
DAV:  33    -0.230552009891E+03   -0.39638E-02   -0.35817E-03 42256   0.308E-01    0.113E+00
DAV:  34    -0.230551727566E+03    0.28232E-03   -0.17678E-03 40368   0.233E-01    0.106E+00
DAV:  35    -0.230551703838E+03    0.23727E-04   -0.37695E-03 46944   0.214E-01    0.986E-01
DAV:  36    -0.230552306586E+03   -0.60275E-03   -0.15229E-03 39688   0.224E-01    0.623E-01
DAV:  37    -0.230552197125E+03    0.10946E-03   -0.50485E-04 42328   0.770E-02    0.522E-01
DAV:  38    -0.230552195284E+03    0.18414E-05   -0.22342E-04 41720   0.638E-02    0.512E-01
DAV:  39    -0.230551871649E+03    0.32364E-03   -0.22725E-04 40648   0.687E-02    0.513E-01
DAV:  40    -0.230551635979E+03    0.23567E-03   -0.21136E-04 37280   0.507E-02    0.545E-01
DAV:  41    -0.230551328451E+03    0.30753E-03   -0.22839E-04 37192   0.418E-02    0.600E-01
DAV:  42    -0.230551006958E+03    0.32149E-03   -0.16083E-04 34440   0.344E-02    0.642E-01
DAV:  43    -0.230551229898E+03   -0.22294E-03   -0.32514E-05 25712   0.195E-02    0.623E-01
DAV:  44    -0.230551030742E+03    0.19916E-03   -0.44920E-05 22792   0.176E-02    0.659E-01
DAV:  45    -0.230551279581E+03   -0.24884E-03   -0.60552E-05 24080   0.215E-02    0.636E-01
DAV:  46    -0.230551720643E+03   -0.44106E-03   -0.42137E-04 38272   0.502E-02    0.529E-01
DAV:  47    -0.230552729947E+03   -0.10093E-02   -0.26579E-03 41144   0.125E-01    0.322E-01
DAV:  48    -0.230552739260E+03   -0.93136E-05   -0.25493E-04 36664   0.401E-02    0.301E-01
DAV:  49    -0.230552795020E+03   -0.55760E-04   -0.38052E-05 26080   0.173E-02    0.277E-01
DAV:  50    -0.230553019763E+03   -0.22474E-03   -0.29954E-04 38952   0.489E-02    0.149E-01
DAV:  51    -0.230553137706E+03   -0.11794E-03   -0.40469E-04 41464   0.546E-02    0.802E-02
DAV:  52    -0.230553173003E+03   -0.35298E-04   -0.90171E-05 33264   0.307E-02    0.727E-02
DAV:  53    -0.230553192988E+03   -0.19985E-04   -0.13103E-05 22456   0.163E-02    0.424E-02
DAV:  54    -0.230553198127E+03   -0.51393E-05   -0.49863E-06 20056   0.961E-03
   7 F= -.23055320E+03 E0= -.23053520E+03  d E =-.577439E+00  mag=     9.3862
       N       E                     dE             d eps       ncg     rms          rms(c)
DAV:   1    -0.228523869254E+03    0.20293E+01   -0.19253E+02 34216   0.598E+01    0.532E+00
DAV:   2    -0.231041863890E+03   -0.25180E+01   -0.25364E+01 36008   0.131E+01    0.918E+00
DAV:   3    -0.231166000472E+03   -0.12414E+00   -0.12134E+00 43352   0.787E+00    0.105E+01
DAV:   4    -0.230959167002E+03    0.20683E+00   -0.44201E-01 40696   0.529E+00    0.542E+00
DAV:   5    -0.230961191869E+03   -0.20249E-02   -0.63744E-01 39928   0.293E+00    0.602E+00
DAV:   6    -0.230941295130E+03    0.19897E-01   -0.42649E-01 39352   0.260E+00    0.410E+00
DAV:   7    -0.230930934917E+03    0.10360E-01   -0.61219E-02 41520   0.194E+00    0.315E+00
DAV:   8    -0.230931140541E+03   -0.20562E-03   -0.94118E-02 42960   0.220E+00    0.279E+00
DAV:   9    -0.230937736323E+03   -0.65958E-02   -0.96473E-02 43968   0.210E+00    0.379E+00
DAV:  10    -0.230935157629E+03    0.25787E-02   -0.35317E-02 40952   0.128E+00    0.380E+00
DAV:  11    -0.230928405673E+03    0.67520E-02   -0.98982E-03 42120   0.638E-01    0.382E+00
DAV:  12    -0.230923313291E+03    0.50924E-02   -0.35899E-03 39128   0.257E-01    0.422E+00
DAV:  13    -0.230921869421E+03    0.14439E-02   -0.14725E-03 43848   0.239E-01    0.438E+00
DAV:  14    -0.230913748263E+03    0.81212E-02   -0.59524E-03 44408   0.516E-01    0.271E+00
DAV:  15    -0.230922478822E+03   -0.87306E-02   -0.27396E-02 42248   0.852E-01    0.224E+00
DAV:  16    -0.230925749673E+03   -0.32709E-02   -0.13347E-02 40192   0.729E-01    0.202E+00
DAV:  17    -0.230923677837E+03    0.20718E-02   -0.11665E-02 40264   0.541E-01    0.984E-01
DAV:  18    -0.230925437766E+03   -0.17599E-02   -0.25642E-03 42016   0.244E-01    0.640E-01
DAV:  19    -0.230926264786E+03   -0.82702E-03   -0.64818E-04 33624   0.103E-01    0.857E-01
DAV:  20    -0.230925892340E+03    0.37245E-03   -0.30271E-04 37560   0.791E-02    0.119E+00
DAV:  21    -0.230927266170E+03   -0.13738E-02   -0.18643E-03 42960   0.287E-01    0.226E+00
DAV:  22    -0.230926789098E+03    0.47707E-03   -0.33388E-03 38944   0.320E-01    0.297E+00
DAV:  23    -0.230923088211E+03    0.37009E-02   -0.13648E-03 40824   0.246E-01    0.295E+00
DAV:  24    -0.230920491905E+03    0.25963E-02   -0.77439E-04 43032   0.170E-01    0.265E+00
DAV:  25    -0.230920196488E+03    0.29542E-03   -0.33654E-04 39912   0.798E-02    0.241E+00
DAV:  26    -0.230920582975E+03   -0.38649E-03   -0.19508E-04 35440   0.500E-02    0.219E+00
DAV:  27    -0.230920911936E+03   -0.32896E-03   -0.18050E-04 36328   0.537E-02    0.187E+00
DAV:  28    -0.230921449408E+03   -0.53747E-03   -0.24950E-04 37552   0.711E-02    0.144E+00
DAV:  29    -0.230922620509E+03   -0.11711E-02   -0.26864E-04 35440   0.789E-02    0.102E+00
DAV:  30    -0.230923997777E+03   -0.13773E-02   -0.16041E-04 33216   0.643E-02    0.849E-01
DAV:  31    -0.230924791232E+03   -0.79346E-03   -0.55780E-05 31600   0.361E-02    0.846E-01
DAV:  32    -0.230925060624E+03   -0.26939E-03   -0.17802E-05 25192   0.229E-02    0.916E-01
DAV:  33    -0.230924877589E+03    0.18304E-03   -0.26658E-05 24096   0.267E-02    0.825E-01
DAV:  34    -0.230925026818E+03   -0.14923E-03   -0.20025E-05 23704   0.158E-02    0.772E-01
DAV:  35    -0.230925150314E+03   -0.12350E-03   -0.88634E-06 21344   0.134E-02    0.708E-01
DAV:  36    -0.230925236120E+03   -0.85807E-04   -0.83943E-06 20800   0.108E-02    0.620E-01
DAV:  37    -0.230925386824E+03   -0.15070E-03   -0.10651E-05 21128   0.132E-02    0.535E-01
DAV:  38    -0.230925539460E+03   -0.15264E-03   -0.13341E-05 22480   0.139E-02    0.447E-01
DAV:  39    -0.230925671244E+03   -0.13178E-03   -0.21407E-05 23600   0.164E-02    0.305E-01
DAV:  40    -0.230925842907E+03   -0.17166E-03   -0.23589E-05 25240   0.179E-02    0.193E-01
DAV:  41    -0.230925964933E+03   -0.12203E-03   -0.13223E-05 22448   0.151E-02    0.121E-01
DAV:  42    -0.230926024940E+03   -0.60006E-04   -0.84080E-06 21120   0.110E-02    0.705E-02
DAV:  43    -0.230926051087E+03   -0.26147E-04   -0.40543E-06 19888   0.720E-03    0.324E-02
DAV:  44    -0.230926062275E+03   -0.11189E-04   -0.19098E-06 19056   0.557E-03    0.960E-03
DAV:  45    -0.230926065977E+03   -0.37021E-05   -0.92360E-07 18352   0.410E-03
   8 F= -.23092607E+03 E0= -.23090827E+03  d E =-.372868E+00  mag=     9.3957
       N       E                     dE             d eps       ncg     rms          rms(c)
DAV:   1    -0.225701705101E+03    0.52244E+01   -0.27428E+02 35248   0.932E+01    0.916E+00
DAV:   2    -0.233219287017E+03   -0.75176E+01   -0.64211E+01 38720   0.247E+01    0.404E+01
DAV:   3    -0.231284341693E+03    0.19349E+01   -0.25915E+01 42592   0.173E+01    0.120E+01
DAV:   4    -0.231411874713E+03   -0.12753E+00   -0.17851E+00 43128   0.924E+00    0.160E+01
DAV:   5    -0.231206196825E+03    0.20568E+00   -0.29821E+00 40992   0.646E+00    0.965E+00
DAV:   6    -0.231155783778E+03    0.50413E-01   -0.18056E+00 37640   0.569E+00    0.547E+00
DAV:   7    -0.231127033659E+03    0.28750E-01   -0.16217E-01 38080   0.309E+00    0.441E+00
DAV:   8    -0.231116650593E+03    0.10383E-01   -0.67345E-02 44760   0.171E+00    0.407E+00
DAV:   9    -0.231102229576E+03    0.14421E-01   -0.29895E-02 43880   0.121E+00    0.342E+00
DAV:  10    -0.231090786031E+03    0.11444E-01   -0.50948E-02 44304   0.164E+00    0.328E+00
DAV:  11    -0.231082137439E+03    0.86486E-02   -0.14843E-01 44088   0.189E+00    0.366E+00
DAV:  12    -0.231089285656E+03   -0.71482E-02   -0.50997E-02 43752   0.127E+00    0.408E+00
DAV:  13    -0.231090673453E+03   -0.13878E-02   -0.65458E-02 41304   0.158E+00    0.338E+00
DAV:  14    -0.231091433748E+03   -0.76029E-03   -0.79329E-02 42480   0.106E+00    0.318E+00
DAV:  15    -0.231092818049E+03   -0.13843E-02   -0.10444E-02 37024   0.537E-01    0.340E+00
DAV:  16    -0.231092242708E+03    0.57534E-03   -0.34358E-02 42040   0.772E-01    0.593E+00
DAV:  17    -0.231071426410E+03    0.20816E-01   -0.50434E-03 35448   0.335E-01    0.663E+00
DAV:  18    -0.231057142132E+03    0.14284E-01   -0.13138E-03 40784   0.224E-01    0.713E+00
DAV:  19    -0.231049237129E+03    0.79050E-02   -0.80723E-04 40328   0.157E-01    0.734E+00
DAV:  20    -0.231054133309E+03   -0.48962E-02   -0.50646E-03 45224   0.402E-01    0.827E+00
DAV:  21    -0.231064151892E+03   -0.10019E-01   -0.48054E-03 45680   0.366E-01    0.915E+00
DAV:  22    -0.231089691100E+03   -0.25539E-01   -0.17359E-02 45768   0.799E-01    0.111E+01
DAV:  23    -0.231041565815E+03    0.48125E-01   -0.10878E-02 42048   0.721E-01    0.103E+01
DAV:  24    -0.231021837531E+03    0.19728E-01   -0.10625E-02 46032   0.486E-01    0.102E+01
DAV:  25    -0.231022041272E+03   -0.20374E-03   -0.21261E-03 35456   0.152E-01    0.102E+01
DAV:  26    -0.231018143101E+03    0.38982E-02   -0.32869E-04 41872   0.109E-01    0.100E+01
DAV:  27    -0.231015965616E+03    0.21775E-02   -0.23051E-04 39688   0.811E-02    0.998E+00
DAV:  28    -0.231015408934E+03    0.55668E-03   -0.13747E-03 45112   0.201E-01    0.968E+00
DAV:  29    -0.231013964769E+03    0.14442E-02   -0.32913E-04 37144   0.511E-02    0.964E+00
DAV:  30    -0.231010681771E+03    0.32830E-02   -0.10758E-03 45936   0.184E-01    0.927E+00
DAV:  31    -0.231009100232E+03    0.15815E-02   -0.15868E-02 46320   0.642E-01    0.774E+00
DAV:  32    -0.231013358508E+03   -0.42583E-02   -0.21786E-02 45984   0.760E-01    0.500E+00
DAV:  33    -0.231055752834E+03   -0.42394E-01   -0.20056E-02 43216   0.550E-01    0.297E+00
DAV:  34    -0.231092231721E+03   -0.36479E-01   -0.11102E-02 34840   0.493E-01    0.290E+00
DAV:  35    -0.231093349428E+03   -0.11177E-02   -0.54148E-03 41752   0.271E-01    0.246E+00
DAV:  36    -0.231098283089E+03   -0.49337E-02   -0.41304E-03 43720   0.279E-01    0.239E+00
DAV:  37    -0.231098652369E+03   -0.36928E-03   -0.12023E-03 39832   0.140E-01    0.232E+00
DAV:  38    -0.231098459650E+03    0.19272E-03   -0.74298E-04 44320   0.133E-01    0.216E+00
DAV:  39    -0.231098727820E+03   -0.26817E-03   -0.23456E-04 37104   0.427E-02    0.218E+00
DAV:  40    -0.231098306205E+03    0.42161E-03   -0.46402E-05 25336   0.255E-02    0.213E+00
DAV:  41    -0.231098428890E+03   -0.12268E-03   -0.61397E-05 26824   0.365E-02    0.217E+00
DAV:  42    -0.231098295282E+03    0.13361E-03   -0.67886E-05 29336   0.499E-02    0.213E+00
DAV:  43    -0.231097727509E+03    0.56777E-03   -0.32504E-04 41168   0.720E-02    0.206E+00
DAV:  44    -0.231097758441E+03   -0.30933E-04   -0.88760E-05 31736   0.273E-02    0.201E+00
DAV:  45    -0.231096966725E+03    0.79172E-03   -0.37228E-04 37352   0.552E-02    0.193E+00
DAV:  46    -0.231096799114E+03    0.16761E-03   -0.13037E-04 31872   0.380E-02    0.190E+00
DAV:  47    -0.231095582305E+03    0.12168E-02   -0.16500E-03 43144   0.210E-01    0.205E+00
DAV:  48    -0.231095488488E+03    0.93817E-04   -0.34313E-04 38184   0.803E-02    0.200E+00
DAV:  49    -0.231096062329E+03   -0.57384E-03   -0.37573E-04 35024   0.570E-02    0.201E+00
DAV:  50    -0.231097889848E+03   -0.18275E-02   -0.21564E-03 39456   0.798E-02    0.224E+00
DAV:  51    -0.231100228085E+03   -0.23382E-02   -0.21665E-03 36328   0.100E-01    0.264E+00
DAV:  52    -0.231101860372E+03   -0.16323E-02   -0.15934E-03 38048   0.127E-01    0.311E+00
DAV:  53    -0.231101144355E+03    0.71602E-03   -0.14097E-03 39192   0.130E-01    0.349E+00
DAV:  54    -0.231096358042E+03    0.47863E-02   -0.11361E-03 39712   0.143E-01    0.350E+00
DAV:  55    -0.231091508498E+03    0.48495E-02   -0.19386E-03 44552   0.180E-01    0.287E+00
DAV:  56    -0.231092353967E+03   -0.84547E-03   -0.10997E-03 44024   0.115E-01    0.238E+00
DAV:  57    -0.231095203720E+03   -0.28498E-02   -0.41631E-04 38408   0.919E-02    0.225E+00
DAV:  58    -0.231095784948E+03   -0.58123E-03   -0.15998E-03 39504   0.998E-02    0.167E+00
DAV:  59    -0.231097481747E+03   -0.16968E-02   -0.15577E-03 40568   0.117E-01    0.118E+00
DAV:  60    -0.231099083261E+03   -0.16015E-02   -0.60218E-04 42296   0.109E-01    0.929E-01
DAV:  61    -0.231099712020E+03   -0.62876E-03   -0.39570E-04 42064   0.667E-02    0.655E-01
DAV:  62    -0.231100604174E+03   -0.89215E-03   -0.56560E-04 41544   0.114E-01    0.589E-01
DAV:  63    -0.231100651009E+03   -0.46835E-04   -0.52713E-04 34776   0.106E-01    0.818E-01
DAV:  64    -0.231100136986E+03    0.51402E-03   -0.12946E-04 33648   0.498E-02    0.956E-01
DAV:  65    -0.231099529904E+03    0.60708E-03   -0.47376E-05 30056   0.343E-02    0.931E-01
DAV:  66    -0.231099433525E+03    0.96379E-04   -0.20263E-04 38080   0.630E-02    0.563E-01
DAV:  67    -0.231100377565E+03   -0.94404E-03   -0.48245E-04 40016   0.105E-01    0.498E-01
DAV:  68    -0.231100465825E+03   -0.88261E-04   -0.10379E-04 35928   0.312E-02    0.497E-01
DAV:  69    -0.231100498604E+03   -0.32778E-04   -0.18598E-05 23320   0.214E-02    0.460E-01
DAV:  70    -0.231100450254E+03    0.48349E-04   -0.21959E-05 23272   0.185E-02    0.319E-01
DAV:  71    -0.231100626163E+03   -0.17591E-03   -0.79837E-05 33584   0.336E-02    0.989E-02
DAV:  72    -0.231100791849E+03   -0.16569E-03   -0.56198E-05 30608   0.336E-02    0.503E-02
DAV:  73    -0.231100823940E+03   -0.32091E-04   -0.16193E-05 22720   0.175E-02    0.120E-01
DAV:  74    -0.231100806913E+03    0.17027E-04   -0.99073E-06 21376   0.163E-02    0.114E-01
DAV:  75    -0.231100797057E+03    0.98564E-05   -0.43323E-06 18280   0.809E-03
   9 F= -.23110080E+03 E0= -.23108315E+03  d E =-.174731E+00  mag=     9.4302
       N       E                     dE             d eps       ncg     rms          rms(c)
DAV:   1    -0.229139865798E+03    0.19609E+01   -0.14062E+02 34248   0.610E+01    0.477E+00
DAV:   2    -0.231306229017E+03   -0.21664E+01   -0.21894E+01 34904   0.128E+01    0.753E+00
DAV:   3    -0.231442568984E+03   -0.13634E+00   -0.17891E+00 42896   0.736E+00    0.852E+00
DAV:   4    -0.231274742518E+03    0.16783E+00   -0.34862E-01 39344   0.516E+00    0.522E+00
DAV:   5    -0.231269611712E+03    0.51308E-02   -0.55394E-01 42712   0.225E+00    0.540E+00
DAV:   6    -0.231250652486E+03    0.18959E-01   -0.26776E-01 39208   0.209E+00    0.302E+00
DAV:   7    -0.231247961769E+03    0.26907E-02   -0.29654E-02 41112   0.122E+00    0.176E+00
DAV:   8    -0.231257417866E+03   -0.94561E-02   -0.59231E-02 44336   0.133E+00    0.331E+00
DAV:   9    -0.231252633624E+03    0.47842E-02   -0.26936E-02 41736   0.107E+00    0.302E+00
DAV:  10    -0.231245064470E+03    0.75692E-02   -0.21112E-02 43104   0.868E-01    0.166E+00
DAV:  11    -0.231250874216E+03   -0.58097E-02   -0.13081E-02 44080   0.845E-01    0.238E+00
DAV:  12    -0.231251949315E+03   -0.10751E-02   -0.88822E-03 39968   0.641E-01    0.302E+00
DAV:  13    -0.231247883303E+03    0.40660E-02   -0.21110E-03 37800   0.223E-01    0.327E+00
DAV:  14    -0.231249248934E+03   -0.13656E-02   -0.93081E-04 41288   0.208E-01    0.384E+00
DAV:  15    -0.231243989936E+03    0.52590E-02   -0.59123E-04 37440   0.132E-01    0.368E+00
DAV:  16    -0.231235546705E+03    0.84432E-02   -0.30322E-03 43488   0.364E-01    0.213E+00
DAV:  17    -0.231242550147E+03   -0.70034E-02   -0.18359E-02 41776   0.570E-01    0.168E+00
DAV:  18    -0.231252006015E+03   -0.94559E-02   -0.10604E-02 36384   0.559E-01    0.259E+00
DAV:  19    -0.231243462197E+03    0.85438E-02   -0.43187E-03 40560   0.353E-01    0.202E+00
DAV:  20    -0.231242364796E+03    0.10974E-02   -0.13414E-03 44560   0.127E-01    0.148E+00
DAV:  21    -0.231244291757E+03   -0.19270E-02   -0.38123E-04 36080   0.816E-02    0.130E+00
DAV:  22    -0.231245205199E+03   -0.91344E-03   -0.35057E-04 32616   0.483E-02    0.996E-01
DAV:  23    -0.231246575889E+03   -0.13707E-02   -0.16056E-04 31824   0.513E-02    0.870E-01
DAV:  24    -0.231247180796E+03   -0.60491E-03   -0.49356E-04 43536   0.131E-01    0.376E-01
DAV:  25    -0.231248684272E+03   -0.15035E-02   -0.94800E-04 42240   0.184E-01    0.754E-01
DAV:  26    -0.231248247128E+03    0.43714E-03   -0.61354E-04 36064   0.140E-01    0.502E-01
DAV:  27    -0.231248122025E+03    0.12510E-03   -0.26273E-04 41912   0.833E-02    0.160E-01
DAV:  28    -0.231248447186E+03   -0.32516E-03   -0.12926E-04 32432   0.775E-02    0.784E-02
DAV:  29    -0.231248537394E+03   -0.90209E-04   -0.58535E-05 29552   0.376E-02    0.776E-02
DAV:  30    -0.231248535305E+03    0.20891E-05   -0.10477E-05 21808   0.144E-02
  10 F= -.23124854E+03 E0= -.23123107E+03  d E =-.147738E+00  mag=     9.4384
       N       E                     dE             d eps       ncg     rms          rms(c)
DAV:   1    -0.229708288836E+03    0.15402E+01   -0.99253E+01 34856   0.544E+01    0.424E+00
DAV:   2    -0.231400052344E+03   -0.16918E+01   -0.17006E+01 35408   0.115E+01    0.736E+00
DAV:   3    -0.231487788615E+03   -0.87736E-01   -0.25880E+00 42432   0.715E+00    0.899E+00
DAV:   4    -0.231385709962E+03    0.10208E+00   -0.91545E-01 39024   0.431E+00    0.522E+00
DAV:   5    -0.231325936025E+03    0.59774E-01   -0.12081E-01 36536   0.325E+00    0.194E+00
DAV:   6    -0.231329632495E+03   -0.36965E-02   -0.30773E-02 44840   0.109E+00    0.205E+00
DAV:   7    -0.231331700651E+03   -0.20682E-02   -0.35292E-02 39560   0.128E+00    0.205E+00
DAV:   8    -0.231330682039E+03    0.10186E-02   -0.29988E-02 38872   0.132E+00    0.187E+00
DAV:   9    -0.231330791147E+03   -0.10911E-03   -0.24406E-02 42272   0.103E+00    0.195E+00
DAV:  10    -0.231328619554E+03    0.21716E-02   -0.12914E-02 43360   0.843E-01    0.194E+00
DAV:  11    -0.231327194558E+03    0.14250E-02   -0.92006E-03 43512   0.659E-01    0.199E+00
DAV:  12    -0.231324301462E+03    0.28931E-02   -0.22704E-03 43256   0.318E-01    0.153E+00
DAV:  13    -0.231324917308E+03   -0.61585E-03   -0.75381E-03 42352   0.511E-01    0.136E+00
DAV:  14    -0.231330217714E+03   -0.53004E-02   -0.89392E-03 39048   0.496E-01    0.250E+00
DAV:  15    -0.231321921151E+03    0.82966E-02   -0.46759E-03 38688   0.360E-01    0.189E+00
DAV:  16    -0.231320897734E+03    0.10234E-02   -0.34401E-03 46168   0.192E-01    0.977E-01
DAV:  17    -0.231324344444E+03   -0.34467E-02   -0.13776E-03 39032   0.184E-01    0.340E-01
DAV:  18    -0.231326905610E+03   -0.25612E-02   -0.10302E-03 36288   0.151E-01    0.365E-01
DAV:  19    -0.231327162527E+03   -0.25692E-03   -0.32693E-04 41008   0.886E-02    0.422E-01
DAV:  20    -0.231327103059E+03    0.59468E-04   -0.66969E-05 30936   0.298E-02    0.539E-01
DAV:  21    -0.231326840842E+03    0.26222E-03   -0.73339E-05 30616   0.660E-02    0.416E-01
DAV:  22    -0.231326846160E+03   -0.53179E-05   -0.14931E-04 37944   0.110E-01    0.259E-01
DAV:  23    -0.231326981587E+03   -0.13543E-03   -0.88807E-05 34304   0.768E-02    0.252E-01
DAV:  24    -0.231326984726E+03   -0.31398E-05   -0.92299E-05 27960   0.500E-02
  11 F= -.23132698E+03 E0= -.23130971E+03  d E =-.784494E-01  mag=     9.4285
       N       E                     dE             d eps       ncg     rms          rms(c)
DAV:   1    -0.230262371390E+03    0.10646E+01   -0.10712E+02 33384   0.480E+01    0.320E+00
DAV:   2    -0.231406918725E+03   -0.11445E+01   -0.11685E+01 35552   0.973E+00    0.438E+00
DAV:   3    -0.231453292616E+03   -0.46374E-01   -0.66829E-01 38272   0.525E+00    0.607E+00
DAV:   4    -0.231444140551E+03    0.91521E-02   -0.11170E+00 39504   0.336E+00    0.717E+00
DAV:   5    -0.231371931454E+03    0.72209E-01   -0.21577E-01 37608   0.223E+00    0.305E+00
DAV:   6    -0.231377239350E+03   -0.53079E-02   -0.31696E-02 40496   0.119E+00    0.197E+00
DAV:   7    -0.231380957308E+03   -0.37180E-02   -0.24231E-02 40736   0.113E+00    0.138E+00
DAV:   8    -0.231383521872E+03   -0.25646E-02   -0.17162E-02 43016   0.976E-01    0.197E+00
DAV:   9    -0.231382523981E+03    0.99789E-03   -0.11727E-02 42784   0.727E-01    0.233E+00
DAV:  10    -0.231379593689E+03    0.29303E-02   -0.24638E-03 39600   0.209E-01    0.249E+00
DAV:  11    -0.231381715694E+03   -0.21220E-02   -0.86875E-03 41608   0.492E-01    0.333E+00
DAV:  12    -0.231377061956E+03    0.46537E-02   -0.83117E-03 41088   0.560E-01    0.322E+00
DAV:  13    -0.231377707659E+03   -0.64570E-03   -0.47864E-03 43480   0.435E-01    0.345E+00
DAV:  14    -0.231377066576E+03    0.64108E-03   -0.10152E-03 36040   0.981E-02    0.354E+00
DAV:  15    -0.231378230783E+03   -0.11642E-02   -0.29716E-04 37536   0.747E-02    0.382E+00
DAV:  16    -0.231368940143E+03    0.92906E-02   -0.31779E-03 43760   0.452E-01    0.238E+00
DAV:  17    -0.231374636826E+03   -0.56967E-02   -0.27207E-02 43600   0.594E-01    0.200E+00
DAV:  18    -0.231385457200E+03   -0.10820E-01   -0.15251E-02 35912   0.577E-01    0.326E+00
DAV:  19    -0.231373828865E+03    0.11628E-01   -0.47431E-03 41168   0.374E-01    0.275E+00
DAV:  20    -0.231370164334E+03    0.36645E-02   -0.55907E-03 46656   0.190E-01    0.146E+00
DAV:  21    -0.231375518443E+03   -0.53541E-02   -0.87027E-03 39792   0.254E-01    0.468E-01
DAV:  22    -0.231381294422E+03   -0.57760E-02   -0.27090E-03 35464   0.290E-01    0.950E-01
DAV:  23    -0.231381080449E+03    0.21397E-03   -0.70542E-04 38616   0.135E-01    0.129E+00
DAV:  24    -0.231379295938E+03    0.17845E-02   -0.34001E-04 41152   0.118E-01    0.951E-01
DAV:  25    -0.231379318244E+03   -0.22306E-04   -0.20076E-04 41152   0.635E-02    0.567E-01
DAV:  26    -0.231379985751E+03   -0.66751E-03   -0.22131E-04 38864   0.716E-02    0.238E-01
DAV:  27    -0.231380533353E+03   -0.54760E-03   -0.16400E-04 37264   0.866E-02    0.213E-01
DAV:  28    -0.231380612291E+03   -0.78938E-04   -0.85265E-05 38016   0.613E-02    0.253E-01
DAV:  29    -0.231380580711E+03    0.31580E-04   -0.34813E-05 27800   0.352E-02    0.237E-01
DAV:  30    -0.231380566201E+03    0.14510E-04   -0.22645E-05 25088   0.173E-02    0.273E-01
DAV:  31    -0.231380598586E+03   -0.32385E-04   -0.14496E-05 23416   0.200E-02    0.265E-01
DAV:  32    -0.231380614705E+03   -0.16119E-04   -0.21643E-05 25824   0.232E-02    0.199E-01
DAV:  33    -0.231380724120E+03   -0.10942E-03   -0.12369E-04 37120   0.467E-02    0.172E-01
DAV:  34    -0.231380724190E+03   -0.70620E-07   -0.66135E-05 33360   0.334E-02
  12 F= -.23138072E+03 E0= -.23136298E+03  d E =-.537395E-01  mag=     9.4429
       N       E                     dE             d eps       ncg     rms          rms(c)
DAV:   1    -0.230785596343E+03    0.59513E+00   -0.58568E+01 33368   0.362E+01    0.240E+00
DAV:   2    -0.231454474340E+03   -0.66888E+00   -0.68103E+00 35368   0.739E+00    0.425E+00
DAV:   3    -0.231524579224E+03   -0.70105E-01   -0.12511E+00 39504   0.413E+00    0.977E+00
DAV:   4    -0.231421443423E+03    0.10314E+00   -0.86534E-01 39296   0.267E+00    0.378E+00
DAV:   5    -0.231429010903E+03   -0.75675E-02   -0.88583E-02 36744   0.218E+00    0.185E+00
DAV:   6    -0.231434049847E+03   -0.50389E-02   -0.18416E-02 42976   0.913E-01    0.293E+00
DAV:   7    -0.231427062473E+03    0.69874E-02   -0.17982E-02 39688   0.912E-01    0.159E+00
DAV:   8    -0.231427333871E+03   -0.27140E-03   -0.10614E-02 41392   0.834E-01    0.978E-01
DAV:   9    -0.231431662790E+03   -0.43289E-02   -0.21523E-02 41744   0.682E-01    0.240E+00
DAV:  10    -0.231429593850E+03    0.20689E-02   -0.61618E-03 40336   0.395E-01    0.324E+00
DAV:  11    -0.231425532787E+03    0.40611E-02   -0.23064E-03 34912   0.161E-01    0.394E+00
DAV:  12    -0.231412384687E+03    0.13148E-01   -0.19557E-02 42160   0.408E-01    0.160E+00
DAV:  13    -0.231421655093E+03   -0.92704E-02   -0.10354E-02 39504   0.460E-01    0.543E-01
DAV:  14    -0.231427417307E+03   -0.57622E-02   -0.46266E-03 39464   0.431E-01    0.641E-01
DAV:  15    -0.231427805735E+03   -0.38843E-03   -0.21203E-03 43496   0.209E-01    0.633E-01
DAV:  16    -0.231427612397E+03    0.19334E-03   -0.50932E-04 42704   0.758E-02    0.709E-01
DAV:  17    -0.231427347227E+03    0.26517E-03   -0.15589E-04 33312   0.612E-02    0.815E-01
DAV:  18    -0.231427080744E+03    0.26648E-03   -0.88385E-05 33928   0.635E-02    0.898E-01
DAV:  19    -0.231426896321E+03    0.18442E-03   -0.29968E-05 26632   0.236E-02    0.971E-01
DAV:  20    -0.231426645552E+03    0.25077E-03   -0.34620E-04 41416   0.120E-01    0.515E-01
DAV:  21    -0.231427388591E+03   -0.74304E-03   -0.43523E-04 41208   0.920E-02    0.342E-01
DAV:  22    -0.231428073281E+03   -0.68469E-03   -0.65394E-04 40328   0.977E-02    0.779E-01
DAV:  23    -0.231427687856E+03    0.38542E-03   -0.44284E-04 34840   0.843E-02    0.106E+00
DAV:  24    -0.231426654777E+03    0.10331E-02   -0.14276E-04 34816   0.669E-02    0.103E+00
DAV:  25    -0.231426225001E+03    0.42978E-03   -0.11720E-04 30272   0.490E-02    0.834E-01
DAV:  26    -0.231426558695E+03   -0.33369E-03   -0.63951E-05 27496   0.418E-02    0.699E-01
DAV:  27    -0.231426895159E+03   -0.33646E-03   -0.52149E-05 28000   0.320E-02    0.586E-01
DAV:  28    -0.231427156760E+03   -0.26160E-03   -0.24518E-05 25080   0.319E-02    0.549E-01
DAV:  29    -0.231427262936E+03   -0.10618E-03   -0.13627E-05 21752   0.229E-02    0.525E-01
DAV:  30    -0.231427321255E+03   -0.58319E-04   -0.10501E-05 20456   0.145E-02    0.497E-01
DAV:  31    -0.231427353595E+03   -0.32340E-04   -0.13098E-05 20800   0.128E-02    0.421E-01
DAV:  32    -0.231427429186E+03   -0.75590E-04   -0.24179E-05 21056   0.149E-02    0.284E-01
DAV:  33    -0.231427593617E+03   -0.16443E-03   -0.27366E-05 23864   0.193E-02    0.174E-01
DAV:  34    -0.231427704921E+03   -0.11130E-03   -0.14782E-05 21928   0.165E-02    0.117E-01
DAV:  35    -0.231427750555E+03   -0.45633E-04   -0.69497E-06 20616   0.978E-03    0.843E-02
DAV:  36    -0.231427768876E+03   -0.18321E-04   -0.24638E-06 19040   0.548E-03    0.657E-02
DAV:  37    -0.231427776962E+03   -0.80865E-05   -0.10201E-06 18624   0.459E-03
  13 F= -.23142778E+03 E0= -.23141004E+03  d E =-.470528E-01  mag=     9.4388
       N       E                     dE             d eps       ncg     rms          rms(c)
DAV:   1    -0.230683140743E+03    0.74463E+00   -0.59149E+01 33912   0.400E+01    0.263E+00
DAV:   2    -0.231465780491E+03   -0.78264E+00   -0.80598E+00 34728   0.783E+00    0.322E+00
DAV:   3    -0.231651026467E+03   -0.18525E+00   -0.16046E+00 40976   0.414E+00    0.133E+01
DAV:   4    -0.231417766656E+03    0.23326E+00   -0.68799E-01 37912   0.288E+00    0.351E+00
DAV:   5    -0.231454325002E+03   -0.36558E-01   -0.68742E-02 37392   0.188E+00    0.244E+00
DAV:   6    -0.231463224054E+03   -0.88991E-02   -0.32000E-02 39464   0.103E+00    0.194E+00
DAV:   7    -0.231461798090E+03    0.14260E-02   -0.13264E-02 41384   0.801E-01    0.132E+00
DAV:   8    -0.231462792482E+03   -0.99439E-03   -0.17572E-02 41696   0.903E-01    0.172E+00
DAV:   9    -0.231463663097E+03   -0.87061E-03   -0.17048E-02 42880   0.630E-01    0.281E+00
DAV:  10    -0.231459661707E+03    0.40014E-02   -0.35967E-03 34440   0.242E-01    0.347E+00
DAV:  11    -0.231455631905E+03    0.40298E-02   -0.31772E-03 41992   0.396E-01    0.403E+00
DAV:  12    -0.231451464061E+03    0.41678E-02   -0.35164E-03 42496   0.373E-01    0.421E+00
DAV:  13    -0.231457937270E+03   -0.64732E-02   -0.41171E-03 44024   0.420E-01    0.577E+00
DAV:  14    -0.231456993959E+03    0.94331E-03   -0.25984E-03 38680   0.238E-01    0.672E+00
DAV:  15    -0.231451561113E+03    0.54328E-02   -0.90523E-04 35936   0.119E-01    0.710E+00
DAV:  16    -0.231447678316E+03    0.38828E-02   -0.11531E-03 42720   0.211E-01    0.715E+00
DAV:  17    -0.231438594462E+03    0.90839E-02   -0.24071E-03 43912   0.300E-01    0.672E+00
DAV:  18    -0.231436838310E+03    0.17562E-02   -0.35957E-03 44920   0.271E-01    0.620E+00
DAV:  19    -0.231441319247E+03   -0.44809E-02   -0.82270E-04 35872   0.935E-02    0.603E+00
DAV:  20    -0.231435798857E+03    0.55204E-02   -0.32270E-03 47056   0.238E-01    0.421E+00
DAV:  21    -0.231443686577E+03   -0.78877E-02   -0.21970E-02 37704   0.264E-01    0.236E+00
DAV:  22    -0.231456893520E+03   -0.13207E-01   -0.77499E-03 34032   0.285E-01    0.202E+00
DAV:  23    -0.231461826036E+03   -0.49325E-02   -0.27193E-03 36680   0.202E-01    0.271E+00
DAV:  24    -0.231463599506E+03   -0.17735E-02   -0.26897E-03 35528   0.225E-01    0.355E+00
DAV:  25    -0.231463937843E+03   -0.33834E-03   -0.21033E-03 38080   0.181E-01    0.433E+00
DAV:  26    -0.231460132066E+03    0.38058E-02   -0.72310E-04 36608   0.106E-01    0.461E+00
DAV:  27    -0.231456672903E+03    0.34592E-02   -0.23688E-04 37744   0.828E-02    0.458E+00
DAV:  28    -0.231456462092E+03    0.21081E-03   -0.89826E-05 36928   0.421E-02    0.465E+00
DAV:  29    -0.231457113937E+03   -0.65184E-03   -0.40724E-04 44168   0.141E-01    0.470E+00
DAV:  30    -0.231453359984E+03    0.37540E-02   -0.99126E-04 44872   0.189E-01    0.430E+00
DAV:  31    -0.231451029549E+03    0.23304E-02   -0.10933E-03 45344   0.172E-01    0.349E+00
DAV:  32    -0.231452656552E+03   -0.16270E-02   -0.12793E-03 41400   0.142E-01    0.244E+00
DAV:  33    -0.231455458265E+03   -0.28017E-02   -0.17516E-03 37176   0.153E-01    0.136E+00
DAV:  34    -0.231458327642E+03   -0.28694E-02   -0.21614E-03 35504   0.172E-01    0.106E+00
DAV:  35    -0.231460034566E+03   -0.17069E-02   -0.11736E-03 36848   0.155E-01    0.110E+00
DAV:  36    -0.231459530157E+03    0.50441E-03   -0.11191E-03 43400   0.128E-01    0.536E-01
DAV:  37    -0.231460159858E+03   -0.62970E-03   -0.49587E-04 41136   0.843E-02    0.312E-01
DAV:  38    -0.231460470917E+03   -0.31106E-03   -0.21346E-04 38840   0.751E-02    0.228E-01
DAV:  39    -0.231460525655E+03   -0.54737E-04   -0.12760E-04 39192   0.525E-02    0.200E-01
DAV:  40    -0.231460548253E+03   -0.22599E-04   -0.12366E-04 35464   0.443E-02    0.323E-01
DAV:  41    -0.231460411831E+03    0.13642E-03   -0.62591E-05 32560   0.355E-02    0.242E-01
DAV:  42    -0.231460414211E+03   -0.23805E-05   -0.35994E-05 25296   0.228E-02
  14 F= -.23146041E+03 E0= -.23144278E+03  d E =-.326372E-01  mag=     9.4449
       N       E                     dE             d eps       ncg     rms          rms(c)
DAV:   1    -0.230157803369E+03    0.13026E+01   -0.80353E+01 34280   0.513E+01    0.354E+00
DAV:   2    -0.231565910719E+03   -0.14081E+01   -0.14194E+01 35120   0.107E+01    0.788E+00
DAV:   3    -0.231588618670E+03   -0.22708E-01   -0.19915E+00 41320   0.632E+00    0.821E+00
DAV:   4    -0.231462613508E+03    0.12601E+00   -0.37575E-01 38160   0.366E+00    0.370E+00
DAV:   5    -0.231460690110E+03    0.19234E-02   -0.90798E-02 37888   0.210E+00    0.203E+00
DAV:   6    -0.231464931568E+03   -0.42415E-02   -0.36786E-02 41368   0.130E+00    0.210E+00
DAV:   7    -0.231462065821E+03    0.28657E-02   -0.17222E-02 44592   0.823E-01    0.170E+00
DAV:   8    -0.231462448416E+03   -0.38259E-03   -0.14651E-02 40896   0.832E-01    0.132E+00
DAV:   9    -0.231462805947E+03   -0.35753E-03   -0.11225E-02 41928   0.743E-01    0.133E+00
DAV:  10    -0.231464723345E+03   -0.19174E-02   -0.58126E-03 42240   0.520E-01    0.220E+00
DAV:  11    -0.231462991337E+03    0.17320E-02   -0.19613E-03 37728   0.239E-01    0.267E+00
DAV:  12    -0.231467334282E+03   -0.43429E-02   -0.39386E-03 40552   0.405E-01    0.394E+00
DAV:  13    -0.231466874770E+03    0.45951E-03   -0.28371E-03 38160   0.253E-01    0.453E+00
DAV:  14    -0.231465826747E+03    0.10480E-02   -0.87071E-04 39728   0.116E-01    0.487E+00
DAV:  15    -0.231463704882E+03    0.21219E-02   -0.10056E-03 43360   0.222E-01    0.504E+00
DAV:  16    -0.231452238951E+03    0.11466E-01   -0.66385E-03 44712   0.462E-01    0.444E+00
DAV:  17    -0.231446109377E+03    0.61296E-02   -0.18413E-02 45696   0.790E-01    0.288E+00
DAV:  18    -0.231459033555E+03   -0.12924E-01   -0.53013E-02 43528   0.612E-01    0.312E+00
DAV:  19    -0.231467348549E+03   -0.83150E-02   -0.18914E-02 34840   0.586E-01    0.419E+00
DAV:  20    -0.231456703683E+03    0.10645E-01   -0.67940E-03 38688   0.398E-01    0.411E+00
DAV:  21    -0.231449705210E+03    0.69985E-02   -0.28398E-03 42488   0.250E-01    0.329E+00
DAV:  22    -0.231448824728E+03    0.88048E-03   -0.47655E-03 44160   0.222E-01    0.216E+00
DAV:  23    -0.231453784538E+03   -0.49598E-02   -0.45992E-03 39216   0.251E-01    0.129E+00
DAV:  24    -0.231458794644E+03   -0.50101E-02   -0.24273E-03 40296   0.188E-01    0.739E-01
DAV:  25    -0.231461552072E+03   -0.27574E-02   -0.11163E-03 42136   0.186E-01    0.538E-01
DAV:  26    -0.231462522719E+03   -0.97065E-03   -0.65573E-04 42512   0.175E-01    0.500E-01
DAV:  27    -0.231463418560E+03   -0.89584E-03   -0.29814E-03 45368   0.190E-01    0.132E+00
DAV:  28    -0.231460414684E+03    0.30039E-02   -0.33754E-03 39984   0.203E-01    0.471E-01
DAV:  29    -0.231462145929E+03   -0.17312E-02   -0.75490E-04 39520   0.129E-01    0.465E-01
DAV:  30    -0.231462707228E+03   -0.56130E-03   -0.39770E-04 36104   0.122E-01    0.376E-01
DAV:  31    -0.231462611758E+03    0.95471E-04   -0.25800E-04 40904   0.588E-02    0.170E-01
DAV:  32    -0.231462755193E+03   -0.14344E-03   -0.94826E-05 31504   0.491E-02    0.248E-01
DAV:  33    -0.231462682869E+03    0.72324E-04   -0.30848E-05 27112   0.302E-02    0.206E-01
DAV:  34    -0.231462668100E+03    0.14769E-04   -0.33256E-05 23608   0.209E-02    0.675E-02
DAV:  35    -0.231462739756E+03   -0.71656E-04   -0.20611E-05 24672   0.197E-02    0.701E-02
DAV:  36    -0.231462749745E+03   -0.99892E-05   -0.86817E-06 21128   0.165E-02
  15 F= -.23146275E+03 E0= -.23144542E+03  d E =-.233553E-02  mag=     9.4207
       N       E                     dE             d eps       ncg     rms          rms(c)
DAV:   1    -0.231102973790E+03    0.35977E+00   -0.30535E+01 33432   0.279E+01    0.180E+00
DAV:   2    -0.231481215208E+03   -0.37824E+00   -0.38234E+00 34880   0.564E+00    0.320E+00
DAV:   3    -0.231527082861E+03   -0.45868E-01   -0.72872E-01 38920   0.311E+00    0.795E+00
DAV:   4    -0.231460348392E+03    0.66734E-01   -0.61641E-01 38112   0.206E+00    0.297E+00
DAV:   5    -0.231468409307E+03   -0.80609E-02   -0.43211E-02 36848   0.154E+00    0.112E+00
DAV:   6    -0.231471401176E+03   -0.29919E-02   -0.75983E-03 43736   0.583E-01    0.173E+00
DAV:   7    -0.231469546234E+03    0.18549E-02   -0.68589E-03 40056   0.643E-01    0.107E+00
DAV:   8    -0.231469798852E+03   -0.25262E-03   -0.81372E-03 41080   0.641E-01    0.884E-01
DAV:   9    -0.231469787137E+03    0.11715E-04   -0.59201E-03 41896   0.503E-01    0.763E-01
DAV:  10    -0.231470335267E+03   -0.54813E-03   -0.28912E-03 42128   0.360E-01    0.109E+00
DAV:  11    -0.231469389311E+03    0.94596E-03   -0.18531E-03 41664   0.295E-01    0.125E+00
DAV:  12    -0.231468374654E+03    0.10147E-02   -0.79476E-04 43200   0.193E-01    0.116E+00
DAV:  13    -0.231467941649E+03    0.43301E-03   -0.28025E-03 43584   0.254E-01    0.510E-01
DAV:  14    -0.231470143729E+03   -0.22021E-02   -0.18705E-03 39976   0.264E-01    0.108E+00
DAV:  15    -0.231469979099E+03    0.16463E-03   -0.14914E-03 38416   0.234E-01    0.127E+00
DAV:  16    -0.231468417765E+03    0.15613E-02   -0.39735E-04 42088   0.107E-01    0.106E+00
DAV:  17    -0.231468562553E+03   -0.14479E-03   -0.80505E-05 34208   0.476E-02    0.118E+00
DAV:  18    -0.231468463814E+03    0.98739E-04   -0.28941E-05 25496   0.328E-02    0.128E+00
DAV:  19    -0.231467875426E+03    0.58839E-03   -0.88567E-05 27976   0.538E-02    0.109E+00
DAV:  20    -0.231467857840E+03    0.17586E-04   -0.31721E-04 39784   0.113E-01    0.599E-01
DAV:  21    -0.231468796827E+03   -0.93899E-03   -0.35202E-04 37944   0.901E-02    0.222E-01
DAV:  22    -0.231469476830E+03   -0.68000E-03   -0.21938E-04 37928   0.806E-02    0.835E-02
DAV:  23    -0.231469662195E+03   -0.18536E-03   -0.10096E-04 35000   0.627E-02    0.146E-01
DAV:  24    -0.231469662476E+03   -0.28062E-06   -0.35900E-05 26496   0.363E-02
  16 F= -.23146966E+03 E0= -.23145269E+03  d E =-.691273E-02  mag=     9.3895
       N       E                     dE             d eps       ncg     rms          rms(c)
DAV:   1    -0.231356817963E+03    0.11284E+00   -0.95250E+00 33760   0.161E+01    0.107E+00
DAV:   2    -0.231489041359E+03   -0.13222E+00   -0.13271E+00 35448   0.325E+00    0.259E+00
DAV:   3    -0.231498554150E+03   -0.95128E-02   -0.29340E-01 40384   0.159E+00    0.475E+00
DAV:   4    -0.231480646257E+03    0.17908E-01   -0.16069E-01 38040   0.134E+00    0.246E+00
DAV:   5    -0.231479026504E+03    0.16198E-02   -0.22589E-02 37016   0.968E-01    0.895E-01
DAV:   6    -0.231482408697E+03   -0.33822E-02   -0.43454E-03 39336   0.483E-01    0.516E-01
DAV:   7    -0.231483904418E+03   -0.14957E-02   -0.30522E-03 43720   0.373E-01    0.732E-01
DAV:   8    -0.231483953208E+03   -0.48790E-04   -0.27015E-03 40232   0.363E-01    0.825E-01
DAV:   9    -0.231483582754E+03    0.37045E-03   -0.11554E-03 43504   0.267E-01    0.899E-01
DAV:  10    -0.231482991730E+03    0.59102E-03   -0.70761E-04 42464   0.206E-01    0.739E-01
DAV:  11    -0.231482860325E+03    0.13140E-03   -0.84237E-04 42504   0.201E-01    0.378E-01
DAV:  12    -0.231483450029E+03   -0.58970E-03   -0.91641E-04 39400   0.212E-01    0.402E-01
DAV:  13    -0.231484008577E+03   -0.55855E-03   -0.84668E-04 40024   0.177E-01    0.848E-01
DAV:  14    -0.231482923344E+03    0.10852E-02   -0.55874E-04 38480   0.138E-01    0.596E-01
DAV:  15    -0.231482896075E+03    0.27269E-04   -0.29147E-04 40624   0.869E-02    0.298E-01
DAV:  16    -0.231483352330E+03   -0.45625E-03   -0.13592E-04 31456   0.557E-02    0.220E-01
DAV:  17    -0.231483528569E+03   -0.17624E-03   -0.58635E-05 26480   0.431E-02    0.302E-01
DAV:  18    -0.231483461880E+03    0.66688E-04   -0.41754E-05 22256   0.340E-02    0.178E-01
DAV:  19    -0.231483559896E+03   -0.98016E-04   -0.59870E-05 29184   0.343E-02    0.233E-01
DAV:  20    -0.231483605759E+03   -0.45863E-04   -0.43411E-05 28888   0.307E-02    0.305E-01
DAV:  21    -0.231483549237E+03    0.56522E-04   -0.56566E-05 27776   0.448E-02    0.286E-01
DAV:  22    -0.231483523134E+03    0.26104E-04   -0.69826E-05 34072   0.484E-02    0.148E-01
DAV:  23    -0.231483592297E+03   -0.69163E-04   -0.62278E-05 31336   0.463E-02    0.820E-02
DAV:  24    -0.231483632102E+03   -0.39805E-04   -0.38535E-05 29088   0.361E-02    0.154E-01
DAV:  25    -0.231483597832E+03    0.34271E-04   -0.19509E-05 22072   0.273E-02    0.697E-02
DAV:  26    -0.231483611947E+03   -0.14116E-04   -0.11288E-05 20752   0.189E-02    0.362E-02
DAV:  27    -0.231483627534E+03   -0.15586E-04   -0.11254E-05 21016   0.170E-02    0.107E-01
DAV:  28    -0.231483612130E+03    0.15404E-04   -0.62404E-06 20088   0.139E-02    0.865E-02
DAV:  29    -0.231483607197E+03    0.49328E-05   -0.27518E-06 17504   0.723E-03
  17 F= -.23148361E+03 E0= -.23146695E+03  d E =-.139447E-01  mag=     9.3712
       N       E                     dE             d eps       ncg     rms          rms(c)
DAV:   1    -0.231307264867E+03    0.17635E+00   -0.11898E+01 33800   0.197E+01    0.124E+00
DAV:   2    -0.231493654417E+03   -0.18639E+00   -0.19016E+00 34336   0.389E+00    0.213E+00
DAV:   3    -0.231525945255E+03   -0.32291E-01   -0.47431E-01 40000   0.203E+00    0.644E+00
DAV:   4    -0.231479923790E+03    0.46021E-01   -0.25720E-01 37872   0.154E+00    0.226E+00
DAV:   5    -0.231485744158E+03   -0.58204E-02   -0.24585E-02 36920   0.103E+00    0.720E-01
DAV:   6    -0.231490791132E+03   -0.50470E-02   -0.61394E-03 39632   0.531E-01    0.728E-01
DAV:   7    -0.231490930847E+03   -0.13971E-03   -0.20646E-03 43256   0.356E-01    0.687E-01
DAV:   8    -0.231490789893E+03    0.14095E-03   -0.24091E-03 39536   0.380E-01    0.413E-01
DAV:   9    -0.231490835582E+03   -0.45689E-04   -0.14416E-03 42968   0.327E-01    0.356E-01
DAV:  10    -0.231490862341E+03   -0.26759E-04   -0.87258E-04 42792   0.254E-01    0.292E-01
DAV:  11    -0.231490794801E+03    0.67540E-04   -0.87553E-04 39840   0.216E-01    0.215E-01
DAV:  12    -0.231490833237E+03   -0.38436E-04   -0.41063E-04 39608   0.157E-01    0.201E-01
DAV:  13    -0.231490833860E+03   -0.62247E-06   -0.25019E-04 35936   0.116E-01    0.254E-01
DAV:  14    -0.231490758391E+03    0.75469E-04   -0.13531E-04 31088   0.675E-02    0.208E-01
DAV:  15    -0.231490751227E+03    0.71640E-05   -0.43323E-05 23808   0.344E-02
  18 F= -.23149075E+03 E0= -.23147394E+03  d E =-.714403E-02  mag=     9.3631
       N       E                     dE             d eps       ncg     rms          rms(c)
DAV:   1    -0.225461517386E+03    0.60292E+01   -0.26468E+02 35096   0.994E+01    0.999E+00
DAV:   2    -0.232325770311E+03   -0.68643E+01   -0.63561E+01 37528   0.240E+01    0.264E+01
DAV:   3    -0.231848605886E+03    0.47716E+00   -0.25134E+01 43032   0.187E+01    0.140E+01
DAV:   4    -0.231380905420E+03    0.46770E+00   -0.39341E+00 39384   0.103E+01    0.128E+01
DAV:   5    -0.231266227169E+03    0.11468E+00   -0.39700E+00 39528   0.554E+00    0.695E+00
DAV:   6    -0.231286188669E+03   -0.19961E-01   -0.61195E-01 37752   0.475E+00    0.839E+00
DAV:   7    -0.231194458520E+03    0.91730E-01   -0.77444E-01 41600   0.263E+00    0.445E+00
DAV:   8    -0.231218240655E+03   -0.23782E-01   -0.11313E-01 39936   0.220E+00    0.359E+00
DAV:   9    -0.231226456220E+03   -0.82156E-02   -0.18432E-01 45320   0.189E+00    0.344E+00
DAV:  10    -0.231221071092E+03    0.53851E-02   -0.53434E-02 42568   0.153E+00    0.292E+00
DAV:  11    -0.231223535029E+03   -0.24639E-02   -0.44630E-02 42240   0.123E+00    0.246E+00
DAV:  12    -0.231225567251E+03   -0.20322E-02   -0.25943E-02 42200   0.106E+00    0.331E+00
DAV:  13    -0.231224546519E+03    0.10207E-02   -0.62519E-03 38888   0.497E-01    0.379E+00
DAV:  14    -0.231221421529E+03    0.31250E-02   -0.25449E-03 38016   0.202E-01    0.428E+00
DAV:  15    -0.231213104331E+03    0.83172E-02   -0.18637E-02 41696   0.897E-01    0.358E+00
DAV:  16    -0.231217290457E+03   -0.41861E-02   -0.13726E-01 43768   0.126E+00    0.358E+00
DAV:  17    -0.231217834142E+03   -0.54369E-03   -0.31907E-02 38944   0.131E+00    0.278E+00
DAV:  18    -0.231211792938E+03    0.60412E-02   -0.26835E-02 44096   0.873E-01    0.164E+00
DAV:  19    -0.231217689468E+03   -0.58965E-02   -0.12531E-02 43008   0.405E-01    0.181E+00
DAV:  20    -0.231224005556E+03   -0.63161E-02   -0.49379E-03 36216   0.323E-01    0.293E+00
DAV:  21    -0.231220231648E+03    0.37739E-02   -0.14965E-03 36136   0.175E-01    0.337E+00
DAV:  22    -0.231219741843E+03    0.48980E-03   -0.11059E-03 36472   0.149E-01    0.393E+00
DAV:  23    -0.231216627066E+03    0.31148E-02   -0.59850E-04 38040   0.128E-01    0.405E+00
DAV:  24    -0.231212952913E+03    0.36742E-02   -0.21006E-03 44432   0.377E-01    0.364E+00
DAV:  25    -0.231209640096E+03    0.33128E-02   -0.57557E-03 43824   0.550E-01    0.273E+00
DAV:  26    -0.231209321932E+03    0.31816E-03   -0.61572E-03 44240   0.415E-01    0.821E-01
DAV:  27    -0.231218169991E+03   -0.88481E-02   -0.46710E-03 35384   0.333E-01    0.473E-01
DAV:  28    -0.231220350193E+03   -0.21802E-02   -0.17547E-03 43584   0.238E-01    0.344E-01
DAV:  29    -0.231220531065E+03   -0.18087E-03   -0.53989E-04 43832   0.144E-01    0.246E-01
DAV:  30    -0.231220580199E+03   -0.49134E-04   -0.15489E-04 39280   0.748E-02    0.216E-01
DAV:  31    -0.231220614555E+03   -0.34356E-04   -0.12168E-04 35432   0.732E-02    0.141E-01
DAV:  32    -0.231220656249E+03   -0.41695E-04   -0.77818E-05 34288   0.437E-02    0.108E-01
DAV:  33    -0.231220669128E+03   -0.12879E-04   -0.38324E-05 27792   0.311E-02    0.112E-01
DAV:  34    -0.231220662383E+03    0.67451E-05   -0.15808E-05 23632   0.224E-02
  19 F= -.23122066E+03 E0= -.23120308E+03  d E =0.270089E+00  mag=     9.4964
       N       E                     dE             d eps       ncg     rms          rms(c)
DAV:   1    -0.229821364608E+03    0.13993E+01   -0.36734E+01 38152   0.512E+01    0.439E+00
DAV:   2    -0.231470637352E+03   -0.16493E+01   -0.16807E+01 35472   0.102E+01    0.604E+00
DAV:   3    -0.231722802269E+03   -0.25216E+00   -0.26644E+00 43808   0.739E+00    0.153E+01
DAV:   4    -0.231432567702E+03    0.29023E+00   -0.16772E+00 39880   0.417E+00    0.606E+00
DAV:   5    -0.231420967749E+03    0.11600E-01   -0.27686E-01 37136   0.352E+00    0.354E+00
DAV:   6    -0.231422540191E+03   -0.15724E-02   -0.78461E-02 40744   0.146E+00    0.246E+00
DAV:   7    -0.231424455284E+03   -0.19151E-02   -0.24081E-02 40968   0.103E+00    0.187E+00
DAV:   8    -0.231426227893E+03   -0.17726E-02   -0.27878E-02 42568   0.105E+00    0.179E+00
DAV:   9    -0.231429947734E+03   -0.37198E-02   -0.50712E-02 41384   0.100E+00    0.325E+00
DAV:  10    -0.231425473280E+03    0.44745E-02   -0.82560E-03 40472   0.489E-01    0.408E+00
DAV:  11    -0.231426290185E+03   -0.81690E-03   -0.43736E-03 39832   0.333E-01    0.559E+00
DAV:  12    -0.231408320299E+03    0.17970E-01   -0.45911E-03 40920   0.408E-01    0.424E+00
DAV:  13    -0.231404952165E+03    0.33681E-02   -0.71316E-02 41568   0.779E-01    0.141E+00
DAV:  14    -0.231428447276E+03   -0.23495E-01   -0.20737E-02 39552   0.882E-01    0.296E+00
DAV:  15    -0.231422626398E+03    0.58209E-02   -0.93172E-03 40576   0.670E-01    0.232E+00
DAV:  16    -0.231418540128E+03    0.40863E-02   -0.31038E-03 44496   0.419E-01    0.138E+00
DAV:  17    -0.231421089032E+03   -0.25489E-02   -0.43929E-03 40832   0.384E-01    0.763E-01
DAV:  18    -0.231423713090E+03   -0.26241E-02   -0.38815E-03 40584   0.325E-01    0.794E-01
[...]
DAV:   3    -0.232253567601E+03   -0.51047E-02   -0.14023E-01 39952   0.108E+00    0.395E+00
DAV:   4    -0.232240373341E+03    0.13194E-01   -0.40796E-02 37032   0.904E-01    0.212E+00
DAV:   5    -0.232240485597E+03   -0.11226E-03   -0.45371E-03 38336   0.522E-01    0.122E+00
DAV:   6    -0.232243058608E+03   -0.25730E-02   -0.18168E-03 38744   0.295E-01    0.906E-01
DAV:   7    -0.232244382328E+03   -0.13237E-02   -0.11908E-03 43368   0.212E-01    0.446E-01
DAV:   8    -0.232245714202E+03   -0.13319E-02   -0.12329E-03 39600   0.214E-01    0.470E-01
DAV:   9    -0.232246286268E+03   -0.57207E-03   -0.94945E-04 41000   0.186E-01    0.777E-01
DAV:  10    -0.232245969067E+03    0.31720E-03   -0.41324E-04 41776   0.127E-01    0.974E-01
DAV:  11    -0.232245457230E+03    0.51184E-03   -0.13101E-04 34248   0.534E-02    0.113E+00
DAV:  12    -0.232244837786E+03    0.61944E-03   -0.18901E-04 38152   0.835E-02    0.122E+00
DAV:  13    -0.232245068628E+03   -0.23084E-03   -0.57291E-04 42432   0.108E-01    0.157E+00
DAV:  14    -0.232244587416E+03    0.48121E-03   -0.33216E-04 38104   0.929E-02    0.178E+00
DAV:  15    -0.232244010231E+03    0.57718E-03   -0.11839E-04 31776   0.438E-02    0.192E+00
DAV:  16    -0.232243438358E+03    0.57187E-03   -0.11060E-04 33680   0.572E-02    0.196E+00
DAV:  17    -0.232243139491E+03    0.29887E-03   -0.12175E-04 33800   0.655E-02    0.197E+00
DAV:  18    -0.232243026741E+03    0.11275E-03   -0.23099E-05 24888   0.227E-02    0.198E+00
DAV:  19    -0.232242987198E+03    0.39543E-04   -0.56183E-06 19208   0.774E-03    0.198E+00
DAV:  20    -0.232243284531E+03   -0.29733E-03   -0.67788E-05 31528   0.490E-02    0.216E+00
DAV:  21    -0.232243311790E+03   -0.27259E-04   -0.76527E-05 34800   0.350E-02    0.237E+00
DAV:  22    -0.232242380020E+03    0.93177E-03   -0.44523E-05 29624   0.397E-02    0.231E+00
DAV:  23    -0.232240789970E+03    0.15901E-02   -0.58348E-04 44376   0.119E-01    0.156E+00
DAV:  24    -0.232242080714E+03   -0.12907E-02   -0.76105E-04 39912   0.143E-01    0.535E-01
DAV:  25    -0.232244959740E+03   -0.28790E-02   -0.78208E-04 35992   0.146E-01    0.337E-01
DAV:  26    -0.232245977357E+03   -0.10176E-02   -0.43335E-04 35248   0.119E-01    0.354E-01
DAV:  27    -0.232245826403E+03    0.15095E-03   -0.11999E-04 38648   0.474E-02    0.285E-01
DAV:  28    -0.232245808792E+03    0.17611E-04   -0.15687E-05 24160   0.196E-02    0.235E-01
DAV:  29    -0.232245843178E+03   -0.34386E-04   -0.21227E-05 23488   0.286E-02    0.959E-02
DAV:  30    -0.232245919210E+03   -0.76032E-04   -0.34508E-05 26696   0.324E-02    0.894E-02
DAV:  31    -0.232245951457E+03   -0.32248E-04   -0.24880E-05 25152   0.273E-02    0.157E-01
DAV:  32    -0.232245923552E+03    0.27905E-04   -0.10582E-05 21208   0.165E-02    0.157E-01
DAV:  33    -0.232245905206E+03    0.18346E-04   -0.44877E-06 18208   0.859E-03    0.107E-01
DAV:  34    -0.232245915522E+03   -0.10316E-04   -0.40087E-06 18976   0.723E-03    0.411E-02
DAV:  35    -0.232245933652E+03   -0.18130E-04   -0.34912E-06 19568   0.923E-03    0.154E-02
DAV:  36    -0.232245939046E+03   -0.53938E-05   -0.24050E-06 18488   0.795E-03
 194 F= -.23224594E+03 E0= -.23222638E+03  d E =0.235266E-02  mag=     9.4476
       N       E                     dE             d eps       ncg     rms          rms(c)
DAV:   1    -0.231868770480E+03    0.37716E+00   -0.20735E+01 34376   0.288E+01    0.173E+00
DAV:   2    -0.232287496433E+03   -0.41873E+00   -0.40335E+00 34384   0.577E+00    0.718E+00
DAV:   3    -0.232230465616E+03    0.57031E-01   -0.55056E-01 39464   0.268E+00    0.402E+00
DAV:   4    -0.232243502536E+03   -0.13037E-01   -0.87472E-02 37008   0.144E+00    0.284E+00
DAV:   5    -0.232236519294E+03    0.69832E-02   -0.45624E-02 35784   0.104E+00    0.302E+00
DAV:   6    -0.232231024747E+03    0.54945E-02   -0.21553E-02 39840   0.648E-01    0.199E+00
DAV:   7    -0.232231819658E+03   -0.79491E-03   -0.91399E-03 41976   0.554E-01    0.109E+00
DAV:   8    -0.232237016516E+03   -0.51969E-02   -0.93938E-03 41480   0.655E-01    0.181E+00
DAV:   9    -0.232238646090E+03   -0.16296E-02   -0.93739E-03 40224   0.692E-01    0.233E+00
DAV:  10    -0.232237408256E+03    0.12378E-02   -0.56285E-03 39624   0.417E-01    0.246E+00
DAV:  11    -0.232236271005E+03    0.11373E-02   -0.11535E-03 36752   0.145E-01    0.285E+00
DAV:  12    -0.232231545520E+03    0.47255E-02   -0.20003E-03 40392   0.214E-01    0.263E+00
DAV:  13    -0.232232140609E+03   -0.59509E-03   -0.18290E-03 42800   0.277E-01    0.279E+00
DAV:  14    -0.232233197900E+03   -0.10573E-02   -0.24046E-03 43176   0.266E-01    0.347E+00
DAV:  15    -0.232230636557E+03    0.25613E-02   -0.10053E-03 40280   0.159E-01    0.394E+00
DAV:  16    -0.232227519432E+03    0.31171E-02   -0.35162E-04 35992   0.758E-02    0.420E+00
DAV:  17    -0.232224892311E+03    0.26271E-02   -0.37445E-04 39472   0.857E-02    0.453E+00
DAV:  18    -0.232222306661E+03    0.25857E-02   -0.53547E-04 42624   0.122E-01    0.487E+00
DAV:  19    -0.232219332659E+03    0.29740E-02   -0.31847E-04 40224   0.877E-02    0.505E+00
DAV:  20    -0.232217770355E+03    0.15623E-02   -0.70477E-05 31472   0.374E-02    0.507E+00
DAV:  21    -0.232216610261E+03    0.11601E-02   -0.59996E-05 29400   0.359E-02    0.520E+00
DAV:  22    -0.232218558288E+03   -0.19480E-02   -0.11884E-03 44736   0.202E-01    0.468E+00
DAV:  23    -0.232221047889E+03   -0.24896E-02   -0.44334E-03 43920   0.328E-01    0.349E+00
DAV:  24    -0.232224252733E+03   -0.32048E-02   -0.42600E-03 41776   0.314E-01    0.163E+00
DAV:  25    -0.232232393481E+03   -0.81407E-02   -0.31096E-03 36504   0.259E-01    0.108E+00
DAV:  26    -0.232236088913E+03   -0.36954E-02   -0.14092E-03 35632   0.171E-01    0.131E+00
DAV:  27    -0.232236893979E+03   -0.80507E-03   -0.92814E-04 37056   0.104E-01    0.177E+00
DAV:  28    -0.232235572990E+03    0.13210E-02   -0.83946E-04 32592   0.842E-02    0.218E+00
DAV:  29    -0.232233492943E+03    0.20800E-02   -0.48606E-04 32296   0.636E-02    0.247E+00
DAV:  30    -0.232231659739E+03    0.18332E-02   -0.20157E-04 31976   0.450E-02    0.265E+00
DAV:  31    -0.232230684048E+03    0.97569E-03   -0.21270E-04 32096   0.404E-02    0.291E+00
DAV:  32    -0.232230057330E+03    0.62672E-03   -0.36496E-04 35800   0.489E-02    0.330E+00
DAV:  33    -0.232228941861E+03    0.11155E-02   -0.34296E-04 35024   0.573E-02    0.364E+00
DAV:  34    -0.232227651749E+03    0.12901E-02   -0.11521E-04 33160   0.512E-02    0.378E+00
DAV:  35    -0.232226827320E+03    0.82443E-03   -0.46823E-05 28888   0.239E-02    0.387E+00
DAV:  36    -0.232227457197E+03   -0.62988E-03   -0.12109E-04 33456   0.481E-02    0.416E+00
DAV:  37    -0.232230301387E+03   -0.28442E-02   -0.17322E-03 44104   0.170E-01    0.495E+00
DAV:  38    -0.232227975268E+03    0.23261E-02   -0.96443E-04 39912   0.138E-01    0.511E+00
DAV:  39    -0.232220559727E+03    0.74155E-02   -0.21630E-03 44920   0.146E-01    0.407E+00
DAV:  40    -0.232219641784E+03    0.91794E-03   -0.42538E-03 41856   0.151E-01    0.270E+00
DAV:  41    -0.232223979253E+03   -0.43375E-02   -0.59755E-03 35432   0.154E-01    0.153E+00
DAV:  42    -0.232230445885E+03   -0.64666E-02   -0.14166E-03 34000   0.139E-01    0.931E-01
DAV:  43    -0.232234168628E+03   -0.37227E-02   -0.53711E-04 36496   0.948E-02    0.478E-01
DAV:  44    -0.232236369046E+03   -0.22004E-02   -0.32948E-04 33288   0.714E-02    0.259E-01
DAV:  45    -0.232237281762E+03   -0.91272E-03   -0.19243E-04 32840   0.634E-02    0.403E-01
DAV:  46    -0.232237254973E+03    0.26790E-04   -0.10524E-04 35160   0.463E-02    0.375E-01
DAV:  47    -0.232237202761E+03    0.52212E-04   -0.43744E-05 31448   0.335E-02    0.438E-01
DAV:  48    -0.232237113420E+03    0.89341E-04   -0.16248E-05 24400   0.180E-02    0.428E-01
DAV:  49    -0.232237063133E+03    0.50288E-04   -0.62488E-06 20192   0.965E-03    0.382E-01
DAV:  50    -0.232237085463E+03   -0.22330E-04   -0.32624E-06 18904   0.666E-03    0.334E-01
DAV:  51    -0.232237130407E+03   -0.44944E-04   -0.20132E-06 19032   0.638E-03    0.292E-01
DAV:  52    -0.232237179331E+03   -0.48924E-04   -0.18932E-06 19120   0.597E-03    0.266E-01
DAV:  53    -0.232237207632E+03   -0.28301E-04   -0.13685E-06 18424   0.455E-03    0.233E-01
DAV:  54    -0.232237234797E+03   -0.27165E-04   -0.12326E-06 18472   0.459E-03    0.200E-01
DAV:  55    -0.232237260029E+03   -0.25232E-04   -0.94390E-07 18248   0.438E-03    0.181E-01
DAV:  56    -0.232237276317E+03   -0.16288E-04   -0.99262E-07 17920   0.403E-03    0.153E-01
DAV:  57    -0.232237291219E+03   -0.14902E-04   -0.89381E-07 17832   0.431E-03    0.127E-01
DAV:  58    -0.232237304175E+03   -0.12955E-04   -0.81457E-07 17704   0.423E-03    0.108E-01
DAV:  59    -0.232237313246E+03   -0.90715E-05   -0.65357E-07 17256   0.307E-03
 195 F= -.23223731E+03 E0= -.23221773E+03  d E =0.862580E-02  mag=     9.4692
       N       E                     dE             d eps       ncg     rms          rms(c)
DAV:   1    -0.232116449502E+03    0.12085E+00   -0.32335E+00 35728   0.165E+01    0.986E-01
DAV:   2    -0.232237269242E+03   -0.12082E+00   -0.12304E+00 34448   0.299E+00    0.263E+00
DAV:   3    -0.232245279302E+03   -0.80101E-02   -0.19780E-01 38808   0.146E+00    0.401E+00
DAV:   4    -0.232231374577E+03    0.13905E-01   -0.10872E-01 37160   0.129E+00    0.180E+00
DAV:   5    -0.232233988792E+03   -0.26142E-02   -0.18393E-02 37072   0.815E-01    0.973E-01
DAV:   6    -0.232234899036E+03   -0.91024E-03   -0.31922E-03 39432   0.404E-01    0.123E+00
DAV:   7    -0.232233173787E+03    0.17252E-02   -0.29094E-03 39416   0.377E-01    0.525E-01
DAV:   8    -0.232234264083E+03   -0.10903E-02   -0.14026E-03 38488   0.315E-01    0.556E-01
DAV:   9    -0.232234908338E+03   -0.64426E-03   -0.86581E-04 40664   0.206E-01    0.103E+00
DAV:  10    -0.232234288686E+03    0.61965E-03   -0.34739E-04 34240   0.937E-02    0.131E+00
DAV:  11    -0.232233585412E+03    0.70327E-03   -0.75273E-04 39240   0.164E-01    0.165E+00
DAV:  12    -0.232232583276E+03    0.10021E-02   -0.70195E-04 39408   0.161E-01    0.180E+00
DAV:  13    -0.232233112752E+03   -0.52948E-03   -0.70464E-04 43648   0.153E-01    0.231E+00
DAV:  14    -0.232232099848E+03    0.10129E-02   -0.30138E-04 34392   0.670E-02    0.256E+00
DAV:  15    -0.232232228137E+03   -0.12829E-03   -0.40349E-04 40592   0.988E-02    0.302E+00
DAV:  16    -0.232231973616E+03    0.25452E-03   -0.32348E-04 38128   0.838E-02    0.344E+00
DAV:  17    -0.232229651436E+03    0.23222E-02   -0.15199E-04 33160   0.590E-02    0.348E+00
DAV:  18    -0.232227813994E+03    0.18374E-02   -0.69787E-05 33680   0.478E-02    0.332E+00
DAV:  19    -0.232226838074E+03    0.97592E-03   -0.12916E-04 37104   0.532E-02    0.299E+00
DAV:  20    -0.232226441805E+03    0.39627E-03   -0.43941E-04 42464   0.110E-01    0.232E+00
DAV:  21    -0.232227144823E+03   -0.70302E-03   -0.19093E-03 43032   0.230E-01    0.497E-01
DAV:  22    -0.232233543709E+03   -0.63989E-02   -0.21318E-03 35608   0.211E-01    0.861E-01
DAV:  23    -0.232234517698E+03   -0.97399E-03   -0.10219E-03 35896   0.173E-01    0.114E+00
DAV:  24    -0.232232848035E+03    0.16697E-02   -0.35419E-04 39256   0.784E-02    0.120E+00
DAV:  25    -0.232231867932E+03    0.98010E-03   -0.56313E-05 31800   0.307E-02    0.121E+00
DAV:  26    -0.232231607704E+03    0.26023E-03   -0.40043E-05 24336   0.293E-02    0.139E+00
DAV:  27    -0.232230869784E+03    0.73792E-03   -0.49652E-05 26192   0.390E-02    0.122E+00
DAV:  28    -0.232231131633E+03   -0.26185E-03   -0.51028E-04 40328   0.872E-02    0.450E-01
DAV:  29    -0.232233588286E+03   -0.24567E-02   -0.58656E-04 34168   0.900E-02    0.344E-01
DAV:  30    -0.232234407637E+03   -0.81935E-03   -0.28797E-04 33272   0.839E-02    0.510E-01
DAV:  31    -0.232234449198E+03   -0.41561E-04   -0.11565E-04 32928   0.445E-02    0.834E-01
DAV:  32    -0.232234125079E+03    0.32412E-03   -0.99684E-05 31936   0.460E-02    0.112E+00
DAV:  33    -0.232233496859E+03    0.62822E-03   -0.59388E-05 30048   0.368E-02    0.127E+00
DAV:  34    -0.232232991365E+03    0.50549E-03   -0.26400E-05 27608   0.230E-02    0.137E+00
DAV:  35    -0.232232674362E+03    0.31700E-03   -0.16582E-05 24992   0.179E-02    0.145E+00
DAV:  36    -0.232232220222E+03    0.45414E-03   -0.21893E-05 23200   0.212E-02    0.140E+00
DAV:  37    -0.232232119953E+03    0.10027E-03   -0.41587E-05 27512   0.238E-02    0.125E+00
DAV:  38    -0.232232658467E+03   -0.53851E-03   -0.49664E-05 29776   0.423E-02    0.145E+00
DAV:  39    -0.232232803008E+03   -0.14454E-03   -0.74005E-05 33008   0.315E-02    0.174E+00
DAV:  40    -0.232232246618E+03    0.55639E-03   -0.54955E-05 29944   0.311E-02    0.191E+00
DAV:  41    -0.232231650752E+03    0.59587E-03   -0.22948E-05 26776   0.216E-02    0.197E+00
DAV:  42    -0.232231167217E+03    0.48354E-03   -0.10414E-05 22640   0.177E-02    0.194E+00
DAV:  43    -0.232231038002E+03    0.12921E-03   -0.58155E-06 18944   0.778E-03    0.189E+00
DAV:  44    -0.232231065371E+03   -0.27369E-04   -0.46425E-06 19800   0.681E-03    0.182E+00
DAV:  45    -0.232231010578E+03    0.54793E-04   -0.17567E-05 22984   0.175E-02    0.166E+00
DAV:  46    -0.232230942902E+03    0.67676E-04   -0.17075E-04 38280   0.562E-02    0.111E+00
DAV:  47    -0.232232121921E+03   -0.11790E-02   -0.30411E-04 35856   0.669E-02    0.470E-01
DAV:  48    -0.232233627132E+03   -0.15052E-02   -0.23569E-04 32784   0.691E-02    0.633E-02
DAV:  49    -0.232234355890E+03   -0.72876E-03   -0.13569E-04 31872   0.548E-02    0.237E-01
DAV:  50    -0.232234387421E+03   -0.31531E-04   -0.65819E-05 31400   0.421E-02    0.240E-01
DAV:  51    -0.232234318679E+03    0.68742E-04   -0.16921E-05 25784   0.178E-02    0.179E-01
DAV:  52    -0.232234329866E+03   -0.11187E-04   -0.82494E-06 19864   0.115E-02    0.883E-02
DAV:  53    -0.232234367464E+03   -0.37598E-04   -0.88243E-06 21448   0.106E-02    0.108E-02
DAV:  54    -0.232234396595E+03   -0.29130E-04   -0.86607E-06 20664   0.118E-02    0.104E-01
DAV:  55    -0.232234388644E+03    0.79505E-05   -0.67352E-06 20576   0.138E-02
 196 F= -.23223439E+03 E0= -.23221465E+03  d E =0.292460E-02  mag=     9.4969
       N       E                     dE             d eps       ncg     rms          rms(c)
DAV:   1    -0.232206382783E+03    0.28014E-01   -0.21823E+00 33280   0.814E+00    0.560E-01
DAV:   2    -0.232260182483E+03   -0.53800E-01   -0.52222E-01 36752   0.183E+00    0.577E+00
DAV:   3    -0.232219372895E+03    0.40810E-01   -0.10757E-01 36280   0.116E+00    0.186E+00
DAV:   4    -0.232229674793E+03   -0.10302E-01   -0.68410E-03 38856   0.569E-01    0.111E+00
DAV:   5    -0.232235181069E+03   -0.55063E-02   -0.41847E-03 36296   0.462E-01    0.658E-01
DAV:   6    -0.232236270960E+03   -0.10899E-02   -0.20224E-03 41456   0.320E-01    0.403E-01
DAV:   7    -0.232236947249E+03   -0.67629E-03   -0.11820E-03 39736   0.235E-01    0.482E-01
DAV:   8    -0.232236864688E+03    0.82561E-04   -0.64447E-04 40216   0.157E-01    0.472E-01
DAV:   9    -0.232236662185E+03    0.20250E-03   -0.26771E-04 40552   0.994E-02    0.474E-01
DAV:  10    -0.232236584486E+03    0.77699E-04   -0.51859E-05 30032   0.427E-02    0.472E-01
DAV:  11    -0.232236548121E+03    0.36365E-04   -0.14997E-04 35760   0.841E-02    0.255E-01
DAV:  12    -0.232237343752E+03   -0.79563E-03   -0.85626E-04 43496   0.166E-01    0.935E-01
DAV:  13    -0.232237293985E+03    0.49766E-04   -0.13137E-03 39072   0.193E-01    0.154E+00
DAV:  14    -0.232234488978E+03    0.28050E-02   -0.66148E-04 36704   0.154E-01    0.148E+00
DAV:  15    -0.232233431093E+03    0.10579E-02   -0.33803E-04 43216   0.977E-02    0.109E+00
DAV:  16    -0.232234406066E+03   -0.97497E-03   -0.27788E-04 38320   0.774E-02    0.681E-01
DAV:  17    -0.232235671407E+03   -0.12653E-02   -0.18703E-04 33528   0.672E-02    0.468E-01
DAV:  18    -0.232236285962E+03   -0.61455E-03   -0.70176E-05 29856   0.396E-02    0.389E-01
DAV:  19    -0.232236518699E+03   -0.23274E-03   -0.46087E-05 25968   0.325E-02    0.169E-01
DAV:  20    -0.232236795361E+03   -0.27666E-03   -0.73831E-05 30232   0.406E-02    0.183E-01
DAV:  21    -0.232236894359E+03   -0.98998E-04   -0.45203E-05 28128   0.308E-02    0.310E-01
DAV:  22    -0.232236852270E+03    0.42089E-04   -0.25720E-05 25928   0.231E-02    0.454E-01
DAV:  23    -0.232236755364E+03    0.96906E-04   -0.26233E-05 25280   0.319E-02    0.601E-01
DAV:  24    -0.232236536603E+03    0.21876E-03   -0.35026E-05 28880   0.358E-02    0.655E-01
DAV:  25    -0.232236328024E+03    0.20858E-03   -0.16253E-05 22800   0.261E-02    0.591E-01
DAV:  26    -0.232236338862E+03   -0.10838E-04   -0.12963E-05 21464   0.182E-02    0.481E-01
DAV:  27    -0.232236456130E+03   -0.11727E-03   -0.18026E-05 22664   0.172E-02    0.337E-01
DAV:  28    -0.232236631880E+03   -0.17575E-03   -0.24413E-05 24304   0.209E-02    0.164E-01
DAV:  29    -0.232236798114E+03   -0.16623E-03   -0.23151E-05 24576   0.223E-02    0.270E-02
DAV:  30    -0.232236881921E+03   -0.83808E-04   -0.17164E-05 23160   0.191E-02    0.845E-02
DAV:  31    -0.232236889421E+03   -0.74999E-05   -0.10335E-05 21328   0.151E-02
 197 F= -.23223689E+03 E0= -.23221696E+03  d E =-.250078E-02  mag=     9.4913
       N       E                     dE             d eps       ncg     rms          rms(c)
DAV:   1    -0.232182012436E+03    0.54869E-01   -0.28063E+00 34392   0.105E+01    0.662E-01
DAV:   2    -0.232243916027E+03   -0.61904E-01   -0.57615E-01 34696   0.212E+00    0.349E+00
DAV:   3    -0.232227687436E+03    0.16229E-01   -0.76964E-02 38736   0.109E+00    0.127E+00
DAV:   4    -0.232236073335E+03   -0.83859E-02   -0.82356E-03 37464   0.635E-01    0.138E+00
DAV:   5    -0.232233093241E+03    0.29801E-02   -0.28619E-03 37072   0.422E-01    0.891E-01
DAV:   6    -0.232233271299E+03   -0.17806E-03   -0.68534E-04 40152   0.182E-01    0.911E-01
DAV:   7    -0.232232869165E+03    0.40213E-03   -0.41298E-04 41800   0.136E-01    0.672E-01
DAV:   8    -0.232233124117E+03   -0.25495E-03   -0.10913E-03 37984   0.174E-01    0.269E-01
DAV:   9    -0.232234191930E+03   -0.10678E-02   -0.91638E-04 39368   0.199E-01    0.677E-01
DAV:  10    -0.232233986374E+03    0.20556E-03   -0.65248E-04 39416   0.142E-01    0.867E-01
DAV:  11    -0.232233527987E+03    0.45839E-03   -0.19969E-04 40200   0.846E-02    0.101E+00
DAV:  12    -0.232233196238E+03    0.33175E-03   -0.68300E-05 32072   0.453E-02    0.112E+00
DAV:  13    -0.232232933966E+03    0.26227E-03   -0.36881E-05 26640   0.335E-02    0.127E+00
DAV:  14    -0.232232340855E+03    0.59311E-03   -0.37878E-05 25536   0.366E-02    0.113E+00
DAV:  15    -0.232232063357E+03    0.27750E-03   -0.19284E-04 34472   0.886E-02    0.570E-01
DAV:  16    -0.232233153632E+03   -0.10903E-02   -0.35736E-04 38584   0.117E-01    0.316E-01
DAV:  17    -0.232233782098E+03   -0.62847E-03   -0.44862E-04 37464   0.140E-01    0.159E-01
DAV:  18    -0.232233895562E+03   -0.11346E-03   -0.27645E-04 40800   0.124E-01    0.161E-01
DAV:  19    -0.232233897922E+03   -0.23600E-05   -0.15750E-04 32896   0.827E-02    0.238E-01
DAV:  20    -0.232233860419E+03    0.37503E-04   -0.62556E-05 27864   0.321E-02    0.393E-01
DAV:  21    -0.232233673018E+03    0.18740E-03   -0.29861E-05 26224   0.333E-02    0.423E-01
DAV:  22    -0.232233563070E+03    0.10995E-03   -0.11150E-05 21352   0.164E-02    0.463E-01
DAV:  23    -0.232233513508E+03    0.49562E-04   -0.14547E-05 21736   0.232E-02    0.529E-01
DAV:  24    -0.232233391268E+03    0.12224E-03   -0.43201E-05 29688   0.423E-02    0.379E-01
DAV:  25    -0.232233556724E+03   -0.16546E-03   -0.53310E-05 31744   0.410E-02    0.166E-01
DAV:  26    -0.232233802064E+03   -0.24534E-03   -0.57607E-05 30672   0.341E-02    0.431E-02
DAV:  27    -0.232233891956E+03   -0.89892E-04   -0.27085E-05 25984   0.261E-02    0.776E-02
DAV:  28    -0.232233894343E+03   -0.23876E-05   -0.80654E-06 21040   0.159E-02
 198 F= -.23223389E+03 E0= -.23221414E+03  d E =0.299508E-02  mag=     9.5004
