       N       E                     dE             d eps       ncg     rms          rms(c)
DAV:   1     0.555699439865E+03    0.55570E+03   -0.24625E+04138864   0.158E+03
DAV:   2    -0.553097554918E+02   -0.61101E+03   -0.59884E+03135822   0.567E+02
DAV:   3    -0.794689557508E+02   -0.24159E+02   -0.22477E+02168579   0.124E+02
DAV:   4    -0.804438607625E+02   -0.97491E+00   -0.94392E+00170130   0.243E+01
DAV:   5    -0.804681420134E+02   -0.24281E-01   -0.24225E-01162828   0.384E+00    0.494E+01
DAV:   6    -0.671965615911E+02    0.13272E+02   -0.47060E+01161994   0.574E+01    0.957E+00
DAV:   7    -0.695441480623E+02   -0.23476E+01   -0.33172E+00151560   0.151E+01    0.869E+00
DAV:   8    -0.696526559752E+02   -0.10851E+00   -0.23480E-01159231   0.351E+00    0.298E+00
DAV:   9    -0.697178932141E+02   -0.65237E-01   -0.42297E-01135870   0.513E+00    0.161E+00
DAV:  10    -0.696909736666E+02    0.26920E-01   -0.17683E-01136896   0.363E+00    0.811E-01
DAV:  11    -0.696887133953E+02    0.22603E-02   -0.63446E-02210117   0.268E+00    0.825E-01
DAV:  12    -0.696840643223E+02    0.46491E-02   -0.34126E-02208008   0.179E+00    0.173E-01
DAV:  13    -0.696852775813E+02   -0.12133E-02   -0.56560E-03169656   0.722E-01    0.243E-01
DAV:  14    -0.696842632711E+02    0.10143E-02   -0.17390E-03190839   0.493E-01    0.125E-01
DAV:  15    -0.696824705109E+02    0.17928E-02   -0.31584E-04163026   0.151E-01    0.619E-02
DAV:  16    -0.696822880534E+02    0.18246E-03   -0.12178E-04168426   0.923E-02    0.373E-02
DAV:  17    -0.696821578923E+02    0.13016E-03   -0.29822E-05116133   0.611E-02    0.305E-02
DAV:  18    -0.696820440464E+02    0.11385E-03   -0.19928E-05 97629   0.316E-02    0.181E-02
DAV:  19    -0.696818900375E+02    0.15401E-03   -0.14231E-05 93117   0.239E-02    0.811E-03
DAV:  20    -0.696817670214E+02    0.12302E-03   -0.43339E-06 72420   0.163E-02    0.585E-03
DAV:  21    -0.696817170728E+02    0.49949E-04   -0.16634E-06 69276   0.116E-02    0.335E-03
DAV:  22    -0.696816612982E+02    0.55775E-04   -0.16495E-06 68730   0.101E-02    0.183E-03
DAV:  23    -0.696816335034E+02    0.27795E-04   -0.51819E-07 69024   0.727E-03    0.823E-04
DAV:  24    -0.696816165694E+02    0.16934E-04   -0.23289E-07 68322   0.435E-03    0.698E-04
DAV:  25    -0.696816081226E+02    0.84468E-05   -0.10382E-07 68244   0.317E-03
   1 F= -.69681608E+02 E0= -.69677443E+02  d E =-.696816E+02  mag=     2.1732
       N       E                     dE             d eps       ncg     rms          rms(c)
DAV:   1    -0.748049726712E+02   -0.51234E+01   -0.13974E+02135696   0.120E+02    0.325E+01
DAV:   2    -0.696104882965E+02    0.51945E+01   -0.20848E+01136308   0.426E+01    0.522E+00
DAV:   3    -0.695781357423E+02    0.32353E-01   -0.17233E+00173025   0.932E+00    0.557E+00
DAV:   4    -0.696074609688E+02   -0.29325E-01   -0.14128E-01146274   0.349E+00    0.204E+00
DAV:   5    -0.696329939679E+02   -0.25533E-01   -0.81431E-02186873   0.307E+00    0.123E+00
DAV:   6    -0.696239962359E+02    0.89977E-02   -0.56929E-02202947   0.279E+00    0.630E-01
DAV:   7    -0.696225012030E+02    0.14950E-02   -0.14396E-02195612   0.118E+00    0.332E-01
DAV:   8    -0.696218743182E+02    0.62688E-03   -0.29497E-03195192   0.627E-01    0.186E-01
DAV:   9    -0.696224232239E+02   -0.54891E-03   -0.33731E-03139530   0.450E-01    0.164E-01
DAV:  10    -0.696225914563E+02   -0.16823E-03   -0.20792E-03161529   0.300E-01    0.141E-01
DAV:  11    -0.696225400278E+02    0.51429E-04   -0.91829E-04165975   0.280E-01    0.103E-01
DAV:  12    -0.696226511315E+02   -0.11110E-03   -0.25867E-04147291   0.132E-01    0.749E-02
DAV:  13    -0.696227297724E+02   -0.78641E-04   -0.87309E-04149169   0.192E-01    0.851E-02
DAV:  14    -0.696224475815E+02    0.28219E-03   -0.86144E-04155370   0.177E-01    0.540E-02
DAV:  15    -0.696221533328E+02    0.29425E-03   -0.31136E-04151422   0.133E-01    0.185E-02
DAV:  16    -0.696221328493E+02    0.20483E-04   -0.44825E-05152220   0.522E-02    0.107E-02
DAV:  17    -0.696221213729E+02    0.11476E-04   -0.15542E-05 90975   0.316E-02    0.566E-03
DAV:  18    -0.696221112663E+02    0.10107E-04   -0.32618E-06 68982   0.163E-02    0.586E-03
DAV:  19    -0.696221030728E+02    0.81936E-05   -0.14007E-06 68856   0.119E-02
   2 F= -.69622103E+02 E0= -.69617769E+02  d E =0.595050E-01  mag=     0.3313
       N       E                     dE             d eps       ncg     rms          rms(c)
DAV:   1    -0.720262805393E+02   -0.24042E+01   -0.63213E+01135696   0.838E+01    0.173E+01
DAV:   2    -0.697017084869E+02    0.23246E+01   -0.11569E+01135816   0.300E+01    0.210E+00
DAV:   3    -0.697239107850E+02   -0.22202E-01   -0.60724E-01167292   0.530E+00    0.229E+00
DAV:   4    -0.697158158875E+02    0.80949E-02   -0.23258E-01155085   0.425E+00    0.131E+00
DAV:   5    -0.697150542118E+02    0.76168E-03   -0.68563E-02193317   0.316E+00    0.120E+00
DAV:   6    -0.697064327778E+02    0.86214E-02   -0.51803E-02200745   0.220E+00    0.287E-01
DAV:   7    -0.697059543295E+02    0.47845E-03   -0.72311E-03202746   0.877E-01    0.158E-01
DAV:   8    -0.697057158328E+02    0.23850E-03   -0.11442E-03191136   0.364E-01    0.844E-02
DAV:   9    -0.697056706131E+02    0.45220E-04   -0.28628E-04148182   0.135E-01    0.644E-02
DAV:  10    -0.697058568470E+02   -0.18623E-03   -0.10377E-04177342   0.102E-01    0.689E-02
DAV:  11    -0.697060155157E+02   -0.15867E-03   -0.59717E-05152421   0.732E-02    0.619E-02
DAV:  12    -0.697063124151E+02   -0.29690E-03   -0.75396E-05141219   0.628E-02    0.566E-02
DAV:  13    -0.697068873744E+02   -0.57496E-03   -0.36036E-04151410   0.115E-01    0.587E-02
DAV:  14    -0.697065086612E+02    0.37871E-03   -0.20162E-03135696   0.315E-01    0.663E-02
DAV:  15    -0.697057320875E+02    0.77657E-03   -0.81965E-04168396   0.215E-01    0.139E-01
DAV:  16    -0.696976914525E+02    0.80406E-02   -0.23652E-01138036   0.308E+00    0.266E-01
DAV:  17    -0.697214723404E+02   -0.23781E-01   -0.19529E-01136608   0.318E+00    0.193E-01
DAV:  18    -0.697137088655E+02    0.77635E-02   -0.13009E-02139008   0.982E-01    0.146E-01
DAV:  19    -0.697132039103E+02    0.50496E-03   -0.13700E-03152103   0.231E-01    0.720E-02
DAV:  20    -0.697112435095E+02    0.19604E-02   -0.57575E-03149319   0.439E-01    0.763E-02
DAV:  21    -0.697108282188E+02    0.41529E-03   -0.65994E-03136020   0.616E-01    0.231E-02
DAV:  22    -0.697104704776E+02    0.35774E-03   -0.19018E-03136512   0.315E-01    0.399E-02
DAV:  23    -0.697107721728E+02   -0.30170E-03   -0.15974E-03135696   0.297E-01    0.531E-02
DAV:  24    -0.697111890883E+02   -0.41692E-03   -0.22454E-04140070   0.106E-01    0.264E-02
DAV:  25    -0.697115484167E+02   -0.35933E-03   -0.74604E-05145554   0.589E-02    0.115E-02
DAV:  26    -0.697116901388E+02   -0.14172E-03   -0.81546E-05126285   0.715E-02    0.961E-03
DAV:  27    -0.697116292766E+02    0.60862E-04   -0.44649E-06 67926   0.197E-02    0.871E-03
DAV:  28    -0.697115845821E+02    0.44695E-04   -0.24326E-06 67890   0.121E-02    0.480E-03
DAV:  29    -0.697115578554E+02    0.26727E-04   -0.13305E-06 67926   0.101E-02    0.574E-03
DAV:  30    -0.697115233902E+02    0.34465E-04   -0.63561E-06 68238   0.153E-02    0.216E-03
DAV:  31    -0.697114866228E+02    0.36767E-04   -0.17890E-06 68652   0.118E-02    0.313E-03
DAV:  32    -0.697114879123E+02   -0.12895E-05   -0.14075E-06 67902   0.108E-02
   3 F= -.69711488E+02 E0= -.69707308E+02  d E =-.298798E-01  mag=     1.1241
       N       E                     dE             d eps       ncg     rms          rms(c)
DAV:   1    -0.698028563605E+02   -0.91370E-01   -0.23233E+00135696   0.157E+01    0.371E+00
DAV:   2    -0.697070843224E+02    0.95772E-01   -0.40336E-01135972   0.570E+00    0.549E-01
DAV:   3    -0.697079675738E+02   -0.88325E-03   -0.27727E-02166614   0.115E+00    0.595E-01
DAV:   4    -0.697105744270E+02   -0.26069E-02   -0.62866E-03157464   0.716E-01    0.189E-01
DAV:   5    -0.697111351628E+02   -0.56074E-03   -0.28814E-03191649   0.657E-01    0.226E-01
DAV:   6    -0.697110721291E+02    0.63034E-04   -0.18272E-03195966   0.464E-01    0.590E-02
DAV:   7    -0.697110573820E+02    0.14747E-04   -0.24091E-04194580   0.159E-01    0.332E-02
DAV:   8    -0.697110233861E+02    0.33996E-04   -0.51096E-05143259   0.792E-02    0.149E-02
DAV:   9    -0.697110257197E+02   -0.23336E-05   -0.54738E-06 68946   0.207E-02
   4 F= -.69711026E+02 E0= -.69707006E+02  d E =-.294176E-01  mag=     1.0296
