       N       E                     dE             d eps       ncg     rms          rms(c)
DAV:   1     0.670258149203E+04    0.67026E+04   -0.27360E+05 36256   0.155E+03
DAV:   2     0.429131744305E+03   -0.62734E+04   -0.60181E+04 36584   0.479E+02
DAV:   3    -0.363843086902E+03   -0.79297E+03   -0.77410E+03 39368   0.179E+02
DAV:   4    -0.409312773633E+03   -0.45470E+02   -0.44024E+02 52664   0.432E+01
DAV:   5    -0.412857276970E+03   -0.35445E+01   -0.34882E+01 64160   0.870E+00    0.645E+01
DAV:   6    -0.348821899448E+03    0.64035E+02   -0.32786E+02 48744   0.402E+01    0.380E+01
DAV:   7    -0.368991989833E+03   -0.20170E+02   -0.50125E+01 48592   0.186E+01    0.227E+01
DAV:   8    -0.372882906284E+03   -0.38909E+01   -0.54334E+00 49672   0.603E+00    0.146E+01
DAV:   9    -0.377716758099E+03   -0.48339E+01   -0.32257E+00 41272   0.406E+00    0.591E+00
DAV:  10    -0.379891101919E+03   -0.21743E+01   -0.11489E+00 47264   0.209E+00    0.349E+00
DAV:  11    -0.381713764003E+03   -0.18227E+01   -0.73704E-01 43760   0.144E+00    0.274E+00
DAV:  12    -0.384538349988E+03   -0.28246E+01   -0.22668E+00 40456   0.200E+00    0.161E+00
DAV:  13    -0.385705645067E+03   -0.11673E+01   -0.12573E+00 42560   0.154E+00    0.770E-01
DAV:  14    -0.385845440395E+03   -0.13980E+00   -0.18963E-01 42360   0.760E-01    0.411E-01
DAV:  15    -0.385849015635E+03   -0.35752E-02   -0.19307E-02 49168   0.291E-01    0.218E-01
DAV:  16    -0.385847998455E+03    0.10172E-02   -0.72026E-03 41016   0.221E-01    0.138E-01
DAV:  17    -0.385847747045E+03    0.25141E-03   -0.18256E-03 39880   0.113E-01    0.876E-02
DAV:  18    -0.385847458738E+03    0.28831E-03   -0.75191E-04 39648   0.654E-02    0.389E-02
DAV:  19    -0.385847416728E+03    0.42010E-04   -0.36817E-04 38808   0.436E-02    0.283E-02
DAV:  20    -0.385847396959E+03    0.19769E-04   -0.66048E-05 35920   0.262E-02    0.127E-02
DAV:  21    -0.385847395168E+03    0.17903E-05   -0.55788E-05 34672   0.171E-02
   1 F= -.38584740E+03 E0= -.38584740E+03  d E =-.385847E+03  mag=    35.9996
       N       E                     dE             d eps       ncg     rms          rms(c)
DAV:   1    -0.385915990591E+03   -0.68594E-01   -0.40631E-02 37616   0.268E-01    0.496E-02
DAV:   2    -0.385916088666E+03   -0.98075E-04   -0.14812E-03 42976   0.552E-02    0.347E-02
DAV:   3    -0.385916084112E+03    0.45538E-05   -0.77425E-05 42056   0.144E-02    0.215E-02
DAV:   4    -0.385916078881E+03    0.52309E-05   -0.15698E-05 31032   0.119E-02
   2 F= -.38591608E+03 E0= -.38591608E+03  d E =-.686837E-01  mag=    35.9999
       N       E                     dE             d eps       ncg     rms          rms(c)
DAV:   1    -0.387408018408E+03   -0.14919E+01   -0.34624E+01 36608   0.782E+00    0.138E+00
DAV:   2    -0.387507200800E+03   -0.99182E-01   -0.13193E+00 43592   0.157E+00    0.954E-01
DAV:   3    -0.387504590526E+03    0.26103E-02   -0.64896E-02 58616   0.396E-01    0.586E-01
DAV:   4    -0.387500168798E+03    0.44217E-02   -0.89926E-03 52280   0.302E-01    0.213E-01
DAV:   5    -0.387500398079E+03   -0.22928E-03   -0.47767E-03 47656   0.165E-01    0.788E-02
DAV:   6    -0.387500382081E+03    0.15998E-04   -0.83592E-04 47840   0.778E-02    0.496E-02
DAV:   7    -0.387500342084E+03    0.39997E-04   -0.11131E-04 46992   0.337E-02    0.298E-02
DAV:   8    -0.387500315163E+03    0.26921E-04   -0.37096E-05 38552   0.371E-02    0.105E-02
DAV:   9    -0.387500311374E+03    0.37887E-05   -0.41523E-05 40160   0.250E-02
   3 F= -.38750031E+03 E0= -.38750031E+03  d E =-.158423E+01  mag=    36.0000
       N       E                     dE             d eps       ncg     rms          rms(c)
DAV:   1    -0.388651462831E+03   -0.11511E+01   -0.12576E+02 36960   0.175E+01    0.234E+00
DAV:   2    -0.389145421016E+03   -0.49396E+00   -0.55592E+00 42608   0.347E+00    0.171E+00
DAV:   3    -0.389142411831E+03    0.30092E-02   -0.20442E-01 58432   0.717E-01    0.115E+00
DAV:   4    -0.389125107595E+03    0.17304E-01   -0.49990E-02 48208   0.622E-01    0.486E-01
DAV:   5    -0.389126201602E+03   -0.10940E-02   -0.19146E-02 48016   0.322E-01    0.252E-01
DAV:   6    -0.389125594233E+03    0.60737E-03   -0.75508E-03 46568   0.195E-01    0.906E-02
DAV:   7    -0.389125561078E+03    0.33155E-04   -0.68951E-04 47304   0.639E-02    0.492E-02
DAV:   8    -0.389125517646E+03    0.43432E-04   -0.19172E-04 50536   0.455E-02    0.311E-02
DAV:   9    -0.389125489976E+03    0.27670E-04   -0.48265E-05 40544   0.468E-02    0.142E-02
DAV:  10    -0.389125482060E+03    0.79158E-05   -0.56178E-05 43552   0.315E-02
   4 F= -.38912548E+03 E0= -.38912548E+03  d E =-.162517E+01  mag=    36.0000
       N       E                     dE             d eps       ncg     rms          rms(c)
DAV:   1    -0.389367078001E+03   -0.24159E+00   -0.15310E+02 37816   0.234E+01    0.270E+00
DAV:   2    -0.390030131809E+03   -0.66305E+00   -0.69756E+00 38560   0.433E+00    0.182E+00
DAV:   3    -0.390036040340E+03   -0.59085E-02   -0.19215E-01 59576   0.789E-01    0.119E+00
DAV:   4    -0.390023186720E+03    0.12854E-01   -0.51099E-02 49928   0.474E-01    0.620E-01
DAV:   5    -0.390024294479E+03   -0.11078E-02   -0.12680E-02 49416   0.267E-01    0.276E-01
DAV:   6    -0.390023714342E+03    0.58014E-03   -0.73100E-03 46808   0.194E-01    0.113E-01
DAV:   7    -0.390023797818E+03   -0.83476E-04   -0.95999E-04 45192   0.625E-02    0.497E-02
DAV:   8    -0.390023782795E+03    0.15023E-04   -0.13599E-04 47032   0.320E-02    0.310E-02
DAV:   9    -0.390023780206E+03    0.25897E-05   -0.43224E-05 38880   0.250E-02
   5 F= -.39002378E+03 E0= -.39002378E+03  d E =-.898298E+00  mag=    36.0000
       N       E                     dE             d eps       ncg     rms          rms(c)
DAV:   1    -0.389400787764E+03    0.62300E+00   -0.18873E+02 38056   0.314E+01    0.403E+00
DAV:   2    -0.390515979705E+03   -0.11152E+01   -0.11344E+01 36480   0.577E+00    0.220E+00
DAV:   3    -0.390556374959E+03   -0.40395E-01   -0.28996E-01 58096   0.108E+00    0.126E+00
DAV:   4    -0.390549676477E+03    0.66985E-02   -0.58401E-02 49368   0.494E-01    0.710E-01
DAV:   5    -0.390552443324E+03   -0.27668E-02   -0.99712E-03 47512   0.245E-01    0.259E-01
DAV:   6    -0.390552472794E+03   -0.29470E-04   -0.55639E-03 47720   0.176E-01    0.117E-01
DAV:   7    -0.390552594945E+03   -0.12215E-03   -0.75414E-04 44216   0.544E-02    0.524E-02
DAV:   8    -0.390552588317E+03    0.66276E-05   -0.11439E-04 47544   0.256E-02    0.317E-02
DAV:   9    -0.390552592280E+03   -0.39625E-05   -0.43882E-05 33832   0.154E-02
   6 F= -.39055259E+03 E0= -.39055259E+03  d E =-.528812E+00  mag=    36.0000
       N       E                     dE             d eps       ncg     rms          rms(c)
DAV:   1    -0.389868010217E+03    0.68458E+00   -0.14868E+02 37488   0.316E+01    0.381E+00
DAV:   2    -0.390764812826E+03   -0.89680E+00   -0.90572E+00 35976   0.566E+00    0.198E+00
DAV:   3    -0.390812353291E+03   -0.47540E-01   -0.21815E-01 57472   0.978E-01    0.113E+00
DAV:   4    -0.390810391165E+03    0.19621E-02   -0.30251E-02 48672   0.376E-01    0.666E-01
DAV:   5    -0.390813096979E+03   -0.27058E-02   -0.65562E-03 45816   0.222E-01    0.190E-01
DAV:   6    -0.390813355746E+03   -0.25877E-03   -0.26925E-03 48392   0.120E-01    0.915E-02
DAV:   7    -0.390813412670E+03   -0.56924E-04   -0.44612E-04 46672   0.426E-02    0.462E-02
DAV:   8    -0.390813407131E+03    0.55391E-05   -0.52505E-05 41816   0.201E-02
   7 F= -.39081341E+03 E0= -.39081341E+03  d E =-.260815E+00  mag=    36.0000
       N       E                     dE             d eps       ncg     rms          rms(c)
DAV:   1    -0.389845642053E+03    0.96777E+00   -0.25817E+02 37080   0.401E+01    0.389E+00
DAV:   2    -0.391009774968E+03   -0.11641E+01   -0.11955E+01 36104   0.724E+00    0.218E+00
DAV:   3    -0.391044033795E+03   -0.34259E-01   -0.28818E-01 58232   0.122E+00    0.140E+00
DAV:   4    -0.391035835383E+03    0.81984E-02   -0.47708E-02 49488   0.496E-01    0.832E-01
DAV:   5    -0.391037222394E+03   -0.13870E-02   -0.12201E-02 44848   0.335E-01    0.243E-01
DAV:   6    -0.391037421012E+03   -0.19862E-03   -0.52169E-03 48496   0.185E-01    0.136E-01
DAV:   7    -0.391037509549E+03   -0.88537E-04   -0.12199E-03 46400   0.744E-02    0.666E-02
DAV:   8    -0.391037493232E+03    0.16317E-04   -0.11785E-04 49896   0.302E-02    0.445E-02
DAV:   9    -0.391037489103E+03    0.41287E-05   -0.57133E-05 38256   0.253E-02
   8 F= -.39103749E+03 E0= -.39103749E+03  d E =-.224082E+00  mag=    36.0000
       N       E                     dE             d eps       ncg     rms          rms(c)
DAV:   1    -0.388939823648E+03    0.20977E+01   -0.38474E+02 37872   0.519E+01    0.546E+00
DAV:   2    -0.391037140418E+03   -0.20973E+01   -0.21291E+01 37296   0.939E+00    0.308E+00
DAV:   3    -0.391090751466E+03   -0.53611E-01   -0.41791E-01 49752   0.166E+00    0.194E+00
DAV:   4    -0.391076626308E+03    0.14125E-01   -0.11134E-01 49376   0.751E-01    0.122E+00
DAV:   5    -0.391074546474E+03    0.20798E-02   -0.26182E-02 47872   0.591E-01    0.360E-01
DAV:   6    -0.391075357612E+03   -0.81114E-03   -0.12488E-02 47488   0.307E-01    0.181E-01
DAV:   7    -0.391075484841E+03   -0.12723E-03   -0.27792E-03 47752   0.123E-01    0.923E-02
DAV:   8    -0.391075431731E+03    0.53110E-04   -0.43821E-04 55952   0.461E-02    0.661E-02
DAV:   9    -0.391075367971E+03    0.63761E-04   -0.11630E-04 44280   0.556E-02    0.271E-02
DAV:  10    -0.391075348530E+03    0.19441E-04   -0.83000E-05 43592   0.425E-02    0.171E-02
DAV:  11    -0.391075352413E+03   -0.38832E-05   -0.82406E-05 40016   0.232E-02
   9 F= -.39107535E+03 E0= -.39107535E+03  d E =-.378633E-01  mag=    36.0000
       N       E                     dE             d eps       ncg     rms          rms(c)
DAV:   1    -0.390787532853E+03    0.28782E+00   -0.85836E+01 37768   0.223E+01    0.235E+00
DAV:   2    -0.391169514511E+03   -0.38198E+00   -0.41397E+00 36536   0.435E+00    0.132E+00
DAV:   3    -0.391180725434E+03   -0.11211E-01   -0.14714E-01 59832   0.859E-01    0.799E-01
DAV:   4    -0.391173931987E+03    0.67934E-02   -0.20580E-02 52104   0.483E-01    0.434E-01
DAV:   5    -0.391172918957E+03    0.10130E-02   -0.65386E-03 47424   0.402E-01    0.149E-01
DAV:   6    -0.391172972666E+03   -0.53709E-04   -0.57311E-03 47240   0.205E-01    0.990E-02
DAV:   7    -0.391172865461E+03    0.10720E-03   -0.85564E-04 45792   0.718E-02    0.527E-02
DAV:   8    -0.391172778459E+03    0.87001E-04   -0.17013E-04 54272   0.610E-02    0.394E-02
DAV:   9    -0.391172723098E+03    0.55361E-04   -0.96843E-05 45544   0.653E-02    0.184E-02
DAV:  10    -0.391172704230E+03    0.18868E-04   -0.78489E-05 44856   0.516E-02    0.131E-02
DAV:  11    -0.391172711895E+03   -0.76650E-05   -0.10360E-04 38664   0.223E-02    0.124E-02
DAV:  12    -0.391172710926E+03    0.96941E-06   -0.59417E-06 27624   0.715E-03
  10 F= -.39117271E+03 E0= -.39117271E+03  d E =-.973585E-01  mag=    36.0000
       N       E                     dE             d eps       ncg     rms          rms(c)
DAV:   1    -0.391177622773E+03   -0.49109E-02   -0.22703E+00 37624   0.440E+00    0.532E-01
DAV:   2    -0.391191576016E+03   -0.13953E-01   -0.15160E-01 36664   0.836E-01    0.283E-01
DAV:   3    -0.391192526143E+03   -0.95013E-03   -0.44196E-03 54832   0.167E-01    0.166E-01
DAV:   4    -0.391192381160E+03    0.14498E-03   -0.57356E-04 51896   0.831E-02    0.912E-02
DAV:   5    -0.391192379296E+03    0.18636E-05   -0.17609E-04 47416   0.753E-02    0.253E-02
DAV:   6    -0.391192387273E+03   -0.79772E-05   -0.19926E-04 42648   0.364E-02    0.193E-02
DAV:   7    -0.391192383666E+03    0.36073E-05   -0.24634E-05 33576   0.115E-02
  11 F= -.39119238E+03 E0= -.39119238E+03  d E =-.196727E-01  mag=    36.0000
       N       E                     dE             d eps       ncg     rms          rms(c)
DAV:   1    -0.391169842731E+03    0.22545E-01   -0.79383E+00 37544   0.779E+00    0.838E-01
DAV:   2    -0.391210141344E+03   -0.40299E-01   -0.41903E-01 35976   0.141E+00    0.425E-01
DAV:   3    -0.391212662452E+03   -0.25211E-02   -0.10395E-02 55256   0.246E-01    0.245E-01
DAV:   4    -0.391212406652E+03    0.25580E-03   -0.11036E-03 51504   0.101E-01    0.141E-01
DAV:   5    -0.391212442463E+03   -0.35811E-04   -0.38523E-04 46552   0.100E-01    0.372E-02
DAV:   6    -0.391212469387E+03   -0.26924E-04   -0.37460E-04 44736   0.475E-02    0.281E-02
DAV:   7    -0.391212464674E+03    0.47128E-05   -0.43521E-05 38616   0.145E-02
  12 F= -.39121246E+03 E0= -.39121246E+03  d E =-.200810E-01  mag=    36.0000
       N       E                     dE             d eps       ncg     rms          rms(c)
DAV:   1    -0.391149994990E+03    0.62474E-01   -0.19019E+01 37672   0.115E+01    0.105E+00
DAV:   2    -0.391226820381E+03   -0.76825E-01   -0.77970E-01 35920   0.199E+00    0.520E-01
DAV:   3    -0.391230602671E+03   -0.37823E-02   -0.16098E-02 52920   0.311E-01    0.302E-01
DAV:   4    -0.391230272470E+03    0.33020E-03   -0.16894E-03 51760   0.103E-01    0.184E-01
DAV:   5    -0.391230377706E+03   -0.10524E-03   -0.74235E-04 44352   0.993E-02    0.466E-02
DAV:   6    -0.391230422542E+03   -0.44836E-04   -0.40675E-04 44992   0.440E-02    0.314E-02
DAV:   7    -0.391230418510E+03    0.40318E-05   -0.45518E-05 38400   0.160E-02
  13 F= -.39123042E+03 E0= -.39123042E+03  d E =-.179538E-01  mag=    36.0000
       N       E                     dE             d eps       ncg     rms          rms(c)
DAV:   1    -0.390004246295E+03    0.12262E+01   -0.20660E+02 37376   0.418E+01    0.418E+00
DAV:   2    -0.391078906513E+03   -0.10747E+01   -0.11362E+01 35800   0.780E+00    0.234E+00
DAV:   3    -0.391120774012E+03   -0.41867E-01   -0.25372E-01 51512   0.134E+00    0.142E+00
DAV:   4    -0.391112772962E+03    0.80010E-02   -0.39339E-02 52680   0.572E-01    0.814E-01
DAV:   5    -0.391112615793E+03    0.15717E-03   -0.11796E-02 45792   0.523E-01    0.223E-01
DAV:   6    -0.391113111677E+03   -0.49588E-03   -0.96464E-03 46728   0.256E-01    0.136E-01
DAV:   7    -0.391113037086E+03    0.74591E-04   -0.13484E-03 48656   0.842E-02    0.774E-02
DAV:   8    -0.391112934207E+03    0.10288E-03   -0.18642E-04 45808   0.648E-02    0.476E-02
DAV:   9    -0.391112884502E+03    0.49705E-04   -0.13206E-04 47144   0.686E-02    0.229E-02
DAV:  10    -0.391112882483E+03    0.20195E-05   -0.16351E-04 44144   0.402E-02    0.170E-02
DAV:  11    -0.391112885632E+03   -0.31497E-05   -0.46804E-05 37832   0.164E-02
  14 F= -.39111289E+03 E0= -.39111284E+03  d E =0.117533E+00  mag=    35.9993
       N       E                     dE             d eps       ncg     rms          rms(c)
DAV:   1    -0.390890613099E+03    0.22227E+00   -0.34444E+01 38032   0.189E+01    0.263E+00
DAV:   2    -0.391213981567E+03   -0.32337E+00   -0.33114E+00 36192   0.362E+00    0.135E+00
DAV:   3    -0.391241701468E+03   -0.27720E-01   -0.78663E-02 51552   0.727E-01    0.754E-01
DAV:   4    -0.391240998787E+03    0.70268E-03   -0.90787E-03 52768   0.334E-01    0.417E-01
DAV:   5    -0.391241636889E+03   -0.63810E-03   -0.29278E-03 46936   0.328E-01    0.118E-01
DAV:   6    -0.391241811079E+03   -0.17419E-03   -0.32071E-03 45680   0.147E-01    0.787E-02
DAV:   7    -0.391241764532E+03    0.46547E-04   -0.46620E-04 48768   0.451E-02    0.482E-02
DAV:   8    -0.391241710640E+03    0.53892E-04   -0.50944E-05 42728   0.435E-02    0.316E-02
DAV:   9    -0.391241668950E+03    0.41690E-04   -0.49368E-05 41584   0.590E-02    0.151E-02
DAV:  10    -0.391241665040E+03    0.39091E-05   -0.79579E-05 45752   0.367E-02
  15 F= -.39124167E+03 E0= -.39124167E+03  d E =-.128779E+00  mag=    35.9999
       N       E                     dE             d eps       ncg     rms          rms(c)
DAV:   1    -0.391249690567E+03   -0.80216E-02   -0.14454E+00 37256   0.327E+00    0.408E-01
DAV:   2    -0.391257677116E+03   -0.79865E-02   -0.88793E-02 36912   0.621E-01    0.226E-01
DAV:   3    -0.391258162924E+03   -0.48581E-03   -0.24775E-03 55344   0.118E-01    0.137E-01
DAV:   4    -0.391258052741E+03    0.11018E-03   -0.36083E-04 50824   0.643E-02    0.701E-02
DAV:   5    -0.391258057898E+03   -0.51571E-05   -0.12321E-04 45600   0.545E-02    0.212E-02
DAV:   6    -0.391258063250E+03   -0.53521E-05   -0.11437E-04 41736   0.257E-02    0.154E-02
DAV:   7    -0.391258061001E+03    0.22488E-05   -0.11301E-05 26128   0.801E-03
  16 F= -.39125806E+03 E0= -.39125806E+03  d E =-.163960E-01  mag=    36.0000
       N       E                     dE             d eps       ncg     rms          rms(c)
DAV:   1    -0.391238605501E+03    0.19458E-01   -0.81551E+00 37432   0.737E+00    0.791E-01
DAV:   2    -0.391274385883E+03   -0.35780E-01   -0.39471E-01 36544   0.137E+00    0.437E-01
DAV:   3    -0.391275663104E+03   -0.12772E-02   -0.11186E-02 57776   0.239E-01    0.276E-01
DAV:   4    -0.391275132576E+03    0.53053E-03   -0.15551E-03 49712   0.122E-01    0.147E-01
DAV:   5    -0.391275148100E+03   -0.15525E-04   -0.54011E-04 47520   0.983E-02    0.407E-02
DAV:   6    -0.391275165523E+03   -0.17422E-04   -0.39893E-04 44064   0.482E-02    0.293E-02
DAV:   7    -0.391275158793E+03    0.67299E-05   -0.51293E-05 40048   0.163E-02
  17 F= -.39127516E+03 E0= -.39127516E+03  d E =-.170978E-01  mag=    36.0000
       N       E                     dE             d eps       ncg     rms          rms(c)
DAV:   1    -0.391271413159E+03    0.37524E-02   -0.33501E+00 37840   0.474E+00    0.419E-01
DAV:   2    -0.391284107604E+03   -0.12694E-01   -0.12924E-01 36728   0.827E-01    0.210E-01
DAV:   3    -0.391284530125E+03   -0.42252E-03   -0.25085E-03 55056   0.119E-01    0.127E-01
DAV:   4    -0.391284450884E+03    0.79240E-04   -0.27542E-04 49440   0.399E-02    0.740E-02
DAV:   5    -0.391284461046E+03   -0.10162E-04   -0.13688E-04 42456   0.343E-02    0.177E-02
DAV:   6    -0.391284466171E+03   -0.51249E-05   -0.49701E-05 35944   0.147E-02
  18 F= -.39128447E+03 E0= -.39128447E+03  d E =-.930738E-02  mag=    36.0000
       N       E                     dE             d eps       ncg     rms          rms(c)
DAV:   1    -0.391026093872E+03    0.25837E+00   -0.62872E+01 37704   0.218E+01    0.205E+00
DAV:   2    -0.391302840756E+03   -0.27675E+00   -0.27898E+00 35776   0.382E+00    0.100E+00
DAV:   3    -0.391314661556E+03   -0.11821E-01   -0.51276E-02 50592   0.578E-01    0.577E-01
DAV:   4    -0.391313761425E+03    0.90013E-03   -0.62175E-03 53560   0.185E-01    0.345E-01
DAV:   5    -0.391314127510E+03   -0.36609E-03   -0.24653E-03 42616   0.148E-01    0.906E-02
DAV:   6    -0.391314234283E+03   -0.10677E-03   -0.91322E-04 46488   0.651E-02    0.500E-02
DAV:   7    -0.391314231268E+03    0.30155E-05   -0.12009E-04 47696   0.245E-02    0.284E-02
DAV:   8    -0.391314227267E+03    0.40010E-05   -0.13825E-05 25896   0.131E-02
  19 F= -.39131423E+03 E0= -.39131423E+03  d E =-.297611E-01  mag=    36.0000
       N       E                     dE             d eps       ncg     rms          rms(c)
DAV:   1    -0.387133385569E+03    0.41808E+01   -0.32147E+02 38024   0.523E+01    0.737E+00
DAV:   2    -0.390518457867E+03   -0.33851E+01   -0.34780E+01 35928   0.110E+01    0.416E+00
DAV:   3    -0.390667816643E+03   -0.14936E+00   -0.76079E-01 52904   0.195E+00    0.237E+00
DAV:   4    -0.390655309366E+03    0.12507E-01   -0.10570E-01 50104   0.869E-01    0.138E+00
DAV:   5    -0.390659509865E+03   -0.42005E-02   -0.27427E-02 47544   0.712E-01    0.430E-01
DAV:   6    -0.390660881535E+03   -0.13717E-02   -0.18270E-02 49096   0.332E-01    0.263E-01
DAV:   7    -0.390660917952E+03   -0.36418E-04   -0.27875E-03 54464   0.122E-01    0.146E-01
DAV:   8    -0.390660898042E+03    0.19910E-04   -0.39994E-04 50472   0.536E-02    0.922E-02
DAV:   9    -0.390660894997E+03    0.30451E-05   -0.11629E-04 43824   0.452E-02    0.424E-02
DAV:  10    -0.390660904287E+03   -0.92899E-05   -0.84238E-05 44824   0.315E-02
  20 F= -.39066090E+03 E0= -.39065964E+03  d E =0.653323E+00  mag=    35.9663
       N       E                     dE             d eps       ncg     rms          rms(c)
DAV:   1    -0.390065080177E+03    0.59581E+00   -0.11185E+02 37088   0.299E+01    0.457E+00
DAV:   2    -0.391209517876E+03   -0.11444E+01   -0.11717E+01 36584   0.613E+00    0.238E+00
DAV:   3    -0.391276108629E+03   -0.66591E-01   -0.25450E-01 52560   0.110E+00    0.133E+00
DAV:   4    -0.391274575168E+03    0.15335E-02   -0.28826E-02 49824   0.440E-01    0.739E-01
DAV:   5    -0.391277343807E+03   -0.27686E-02   -0.79311E-03 45816   0.326E-01    0.199E-01
DAV:   6    -0.391277639100E+03   -0.29529E-03   -0.38876E-03 46728   0.166E-01    0.937E-02
DAV:   7    -0.391277615551E+03    0.23548E-04   -0.66745E-04 47632   0.594E-02    0.506E-02
DAV:   8    -0.391277587527E+03    0.28024E-04   -0.12192E-04 54056   0.450E-02    0.348E-02
DAV:   9    -0.391277570038E+03    0.17489E-04   -0.48958E-05 42640   0.438E-02    0.170E-02
DAV:  10    -0.391277566906E+03    0.31322E-05   -0.50892E-05 43168   0.277E-02
  21 F= -.39127757E+03 E0= -.39127756E+03  d E =-.616663E+00  mag=    35.9963
       N       E                     dE             d eps       ncg     rms          rms(c)
DAV:   1    -0.391034185889E+03    0.24338E+00   -0.35669E+01 37128   0.172E+01    0.257E+00
DAV:   2    -0.391343305349E+03   -0.30912E+00   -0.31855E+00 36352   0.343E+00    0.136E+00
DAV:   3    -0.391365022292E+03   -0.21717E-01   -0.76852E-02 52704   0.657E-01    0.752E-01
DAV:   4    -0.391363631046E+03    0.13912E-02   -0.93906E-03 50832   0.328E-01    0.409E-01
DAV:   5    -0.391363879529E+03   -0.24848E-03   -0.30619E-03 46336   0.308E-01    0.116E-01
DAV:   6    -0.391364008956E+03   -0.12943E-03   -0.30217E-03 46320   0.143E-01    0.788E-02
DAV:   7    -0.391363954398E+03    0.54559E-04   -0.45249E-04 45896   0.459E-02    0.455E-02
DAV:   8    -0.391363898465E+03    0.55932E-04   -0.51435E-05 42752   0.465E-02    0.311E-02
DAV:   9    -0.391363854374E+03    0.44091E-04   -0.52568E-05 41792   0.618E-02    0.148E-02
DAV:  10    -0.391363852107E+03    0.22678E-05   -0.98494E-05 48672   0.373E-02
  22 F= -.39136385E+03 E0= -.39136385E+03  d E =-.862852E-01  mag=    35.9997
       N       E                     dE             d eps       ncg     rms          rms(c)
DAV:   1    -0.391345360691E+03    0.18494E-01   -0.17519E+00 37360   0.326E+00    0.325E-01
DAV:   2    -0.391352200458E+03   -0.68398E-02   -0.74354E-02 36776   0.585E-01    0.183E-01
DAV:   3    -0.391352314133E+03   -0.11368E-03   -0.15176E-03 55640   0.872E-02    0.118E-01
DAV:   4    -0.391352215842E+03    0.98291E-04   -0.23545E-04 49152   0.411E-02    0.569E-02
DAV:   5    -0.391352231802E+03   -0.15960E-04   -0.99150E-05 45944   0.260E-02    0.153E-02
DAV:   6    -0.391352232325E+03   -0.52333E-06   -0.21982E-05 32728   0.114E-02
  23 F= -.39135223E+03 E0= -.39135223E+03  d E =0.116198E-01  mag=    35.9999
       N       E                     dE             d eps       ncg     rms          rms(c)
DAV:   1    -0.391258252173E+03    0.93980E-01   -0.12907E+01 37400   0.916E+00    0.943E-01
DAV:   2    -0.391314547848E+03   -0.56296E-01   -0.60886E-01 36424   0.165E+00    0.497E-01
DAV:   3    -0.391315725449E+03   -0.11776E-02   -0.11938E-02 54664   0.251E-01    0.317E-01
DAV:   4    -0.391315121348E+03    0.60410E-03   -0.17286E-03 48272   0.122E-01    0.156E-01
DAV:   5    -0.391315232648E+03   -0.11130E-03   -0.67198E-04 49416   0.753E-02    0.479E-02
DAV:   6    -0.391315227865E+03    0.47821E-05   -0.20212E-04 43504   0.356E-02    0.272E-02
DAV:   7    -0.391315224409E+03    0.34568E-05   -0.53994E-05 37152   0.172E-02
  24 F= -.39131522E+03 E0= -.39131522E+03  d E =0.370079E-01  mag=    36.0000
       N       E                     dE             d eps       ncg     rms          rms(c)
DAV:   1    -0.391310966463E+03    0.42614E-02   -0.72669E-01 37952   0.247E+00    0.261E-01
DAV:   2    -0.391314606475E+03   -0.36400E-02   -0.38386E-02 36360   0.444E-01    0.127E-01
DAV:   3    -0.391314765631E+03   -0.15916E-03   -0.75417E-04 54104   0.692E-02    0.737E-02
DAV:   4    -0.391314745205E+03    0.20426E-04   -0.10415E-04 48760   0.283E-02    0.385E-02
DAV:   5    -0.391314749898E+03   -0.46931E-05   -0.29377E-05 39008   0.205E-02
  25 F= -.39131475E+03 E0= -.39131475E+03  d E =0.474510E-03  mag=    36.0000
       N       E                     dE             d eps       ncg     rms          rms(c)
DAV:   1    -0.391256177991E+03    0.58567E-01   -0.10780E+01 37816   0.937E+00    0.942E-01
DAV:   2    -0.391307814116E+03   -0.51636E-01   -0.53106E-01 35992   0.166E+00    0.456E-01
DAV:   3    -0.391309991009E+03   -0.21769E-02   -0.98402E-03 52016   0.249E-01    0.262E-01
DAV:   4    -0.391309812661E+03    0.17835E-03   -0.12792E-03 52864   0.873E-02    0.145E-01
DAV:   5    -0.391309893555E+03   -0.80894E-04   -0.41415E-04 47376   0.572E-02    0.387E-02
DAV:   6    -0.391309907624E+03   -0.14069E-04   -0.11662E-04 43160   0.243E-02    0.186E-02
DAV:   7    -0.391309907006E+03    0.61746E-06   -0.12780E-05 26272   0.945E-03
  26 F= -.39130991E+03 E0= -.39130991E+03  d E =0.484289E-02  mag=    36.0000
       N       E                     dE             d eps       ncg     rms          rms(c)
DAV:   1    -0.390811821561E+03    0.49809E+00   -0.10630E+02 37832   0.288E+01    0.271E+00
DAV:   2    -0.391273110227E+03   -0.46129E+00   -0.46684E+00 35776   0.501E+00    0.133E+00
DAV:   3    -0.391294843575E+03   -0.21733E-01   -0.87382E-02 48248   0.778E-01    0.743E-01
DAV:   4    -0.391293384017E+03    0.14596E-02   -0.11278E-02 52864   0.269E-01    0.434E-01
DAV:   5    -0.391294176860E+03   -0.79284E-03   -0.39136E-03 44760   0.201E-01    0.123E-01
DAV:   6    -0.391294353102E+03   -0.17624E-03   -0.15033E-03 47288   0.890E-02    0.652E-02
DAV:   7    -0.391294352420E+03    0.68157E-06   -0.22521E-04 49872   0.336E-02    0.359E-02
DAV:   8    -0.391294344709E+03    0.77111E-05   -0.28129E-05 34144   0.191E-02
  27 F= -.39129434E+03 E0= -.39129434E+03  d E =0.155623E-01  mag=    36.0000
       N       E                     dE             d eps       ncg     rms          rms(c)
DAV:   1    -0.386633181427E+03    0.46612E+01   -0.38959E+02 38056   0.606E+01    0.888E+00
DAV:   2    -0.390495904874E+03   -0.38627E+01   -0.38237E+01 36256   0.126E+01    0.444E+00
DAV:   3    -0.390706582957E+03   -0.21068E+00   -0.92426E-01 49648   0.254E+00    0.233E+00
DAV:   4    -0.390696389411E+03    0.10194E-01   -0.13549E-01 51960   0.121E+00    0.134E+00
DAV:   5    -0.390696475534E+03   -0.86123E-04   -0.32149E-02 47360   0.105E+00    0.446E-01
DAV:   6    -0.390697203315E+03   -0.72778E-03   -0.34482E-02 46304   0.573E-01    0.245E-01
DAV:   7    -0.390696955178E+03    0.24814E-03   -0.76711E-03 50560   0.203E-01    0.155E-01
DAV:   8    -0.390696395043E+03    0.56013E-03   -0.11605E-03 49208   0.140E-01    0.106E-01
DAV:   9    -0.390696109528E+03    0.28552E-03   -0.60982E-04 48992   0.150E-01    0.576E-02
DAV:  10    -0.390696044208E+03    0.65319E-04   -0.58452E-04 48632   0.110E-01    0.372E-02
DAV:  11    -0.390696090047E+03   -0.45838E-04   -0.53547E-04 40872   0.541E-02    0.324E-02
DAV:  12    -0.390696086505E+03    0.35422E-05   -0.65601E-05 44688   0.193E-02
  28 F= -.39069609E+03 E0= -.39069609E+03  d E =0.598258E+00  mag=    36.0000
       N       E                     dE             d eps       ncg     rms          rms(c)
DAV:   1    -0.389846424752E+03    0.84967E+00   -0.12513E+02 38736   0.355E+01    0.510E+00
DAV:   2    -0.391187759475E+03   -0.13413E+01   -0.13309E+01 36576   0.733E+00    0.330E+00
DAV:   3    -0.391280792566E+03   -0.93033E-01   -0.32155E-01 48624   0.145E+00    0.195E+00
DAV:   4    -0.391277491365E+03    0.33012E-02   -0.29341E-02 53480   0.677E-01    0.119E+00
DAV:   5    -0.391278310210E+03   -0.81885E-03   -0.15503E-02 47272   0.875E-01    0.245E-01
DAV:   6    -0.391279547735E+03   -0.12375E-02   -0.20255E-02 45552   0.352E-01    0.179E-01
DAV:   7    -0.391279361633E+03    0.18610E-03   -0.24600E-03 52136   0.988E-02    0.120E-01
DAV:   8    -0.391279085295E+03    0.27634E-03   -0.39151E-04 47744   0.793E-02    0.761E-02
DAV:   9    -0.391278865185E+03    0.22011E-03   -0.28134E-04 51504   0.131E-01    0.373E-02
DAV:  10    -0.391278825536E+03    0.39649E-04   -0.28623E-04 45664   0.903E-02    0.322E-02
DAV:  11    -0.391278853830E+03   -0.28294E-04   -0.42380E-04 42928   0.486E-02    0.297E-02
DAV:  12    -0.391278848038E+03    0.57920E-05   -0.57827E-05 39808   0.188E-02
  29 F= -.39127885E+03 E0= -.39127885E+03  d E =-.582762E+00  mag=    36.0000
       N       E                     dE             d eps       ncg     rms          rms(c)
DAV:   1    -0.390988952752E+03    0.28990E+00   -0.35427E+01 39144   0.192E+01    0.276E+00
DAV:   2    -0.391330043379E+03   -0.34109E+00   -0.34367E+00 36720   0.376E+00    0.144E+00
DAV:   3    -0.391362908414E+03   -0.32865E-01   -0.89541E-02 48672   0.809E-01    0.762E-01
DAV:   4    -0.391362246991E+03    0.66142E-03   -0.86831E-03 55344   0.373E-01    0.444E-01
DAV:   5    -0.391362378020E+03   -0.13103E-03   -0.35999E-03 48128   0.432E-01    0.121E-01
DAV:   6    -0.391362609811E+03   -0.23179E-03   -0.49137E-03 46176   0.189E-01    0.877E-02
DAV:   7    -0.391362584818E+03    0.24993E-04   -0.78465E-04 48072   0.561E-02    0.635E-02
DAV:   8    -0.391362502705E+03    0.82113E-04   -0.13562E-04 43416   0.461E-02    0.429E-02
DAV:   9    -0.391362434880E+03    0.67825E-04   -0.91582E-05 46144   0.756E-02    0.236E-02
DAV:  10    -0.391362424998E+03    0.98823E-05   -0.11604E-04 46560   0.499E-02    0.189E-02
DAV:  11    -0.391362436489E+03   -0.11491E-04   -0.15408E-04 42296   0.272E-02    0.181E-02
DAV:  12    -0.391362433333E+03    0.31557E-05   -0.15265E-05 25312   0.109E-02
  30 F= -.39136243E+03 E0= -.39136243E+03  d E =-.835853E-01  mag=    36.0000
       N       E                     dE             d eps       ncg     rms          rms(c)
DAV:   1    -0.391360403267E+03    0.20332E-02   -0.19184E+00 37704   0.374E+00    0.408E-01
DAV:   2    -0.391370264848E+03   -0.98616E-02   -0.10432E-01 36800   0.694E-01    0.240E-01
DAV:   3    -0.391370653824E+03   -0.38898E-03   -0.21556E-03 53336   0.112E-01    0.152E-01
DAV:   4    -0.391370530279E+03    0.12354E-03   -0.30956E-04 49248   0.545E-02    0.823E-02
DAV:   5    -0.391370540874E+03   -0.10595E-04   -0.14739E-04 45392   0.455E-02    0.192E-02
DAV:   6    -0.391370544841E+03   -0.39675E-05   -0.78862E-05 41568   0.210E-02
  31 F= -.39137054E+03 E0= -.39137054E+03  d E =-.811151E-02  mag=    36.0000
       N       E                     dE             d eps       ncg     rms          rms(c)
DAV:   1    -0.391268461683E+03    0.10208E+00   -0.19913E+01 37080   0.115E+01    0.119E+00
DAV:   2    -0.391358616663E+03   -0.90155E-01   -0.98136E-01 37096   0.211E+00    0.688E-01
DAV:   3    -0.391360487059E+03   -0.18704E-02   -0.21207E-02 55136   0.349E-01    0.448E-01
DAV:   4    -0.391358981562E+03    0.15055E-02   -0.40779E-03 49456   0.198E-01    0.226E-01
DAV:   5    -0.391359109015E+03   -0.12745E-03   -0.14758E-03 48544   0.134E-01    0.701E-02
DAV:   6    -0.391359112872E+03   -0.38573E-05   -0.71721E-04 45488   0.658E-02    0.391E-02
DAV:   7    -0.391359103908E+03    0.89641E-05   -0.12693E-04 42128   0.257E-02    0.176E-02
DAV:   8    -0.391359098497E+03    0.54115E-05   -0.13280E-05 31040   0.177E-02
  32 F= -.39135910E+03 E0= -.39135910E+03  d E =0.114463E-01  mag=    36.0000
       N       E                     dE             d eps       ncg     rms          rms(c)
DAV:   1    -0.391346253004E+03    0.12851E-01   -0.71787E-01 37816   0.263E+00    0.297E-01
DAV:   2    -0.391350852916E+03   -0.45999E-02   -0.48510E-02 36888   0.473E-01    0.149E-01
DAV:   3    -0.391351099844E+03   -0.24693E-03   -0.96046E-04 53736   0.772E-02    0.886E-02
DAV:   4    -0.391351075461E+03    0.24384E-04   -0.10537E-04 45144   0.284E-02    0.452E-02
DAV:   5    -0.391351085677E+03   -0.10216E-04   -0.42805E-05 41624   0.176E-02    0.114E-02
DAV:   6    -0.391351085993E+03   -0.31631E-06   -0.89276E-06 24288   0.830E-03
  33 F= -.39135109E+03 E0= -.39135109E+03  d E =0.801250E-02  mag=    36.0000
       N       E                     dE             d eps       ncg     rms          rms(c)
DAV:   1    -0.391315721513E+03    0.35364E-01   -0.30026E+00 38008   0.529E+00    0.572E-01
DAV:   2    -0.391333194403E+03   -0.17473E-01   -0.18311E-01 36720   0.938E-01    0.287E-01
DAV:   3    -0.391334001491E+03   -0.80709E-03   -0.33051E-03 51840   0.148E-01    0.170E-01
DAV:   4    -0.391333910599E+03    0.90892E-04   -0.41625E-04 49880   0.574E-02    0.858E-02
DAV:   5    -0.391333944040E+03   -0.33442E-04   -0.14915E-04 45456   0.375E-02    0.229E-02
DAV:   6    -0.391333946929E+03   -0.28891E-05   -0.43263E-05 40128   0.163E-02
  34 F= -.39133395E+03 E0= -.39133395E+03  d E =0.171391E-01  mag=    36.0000
       N       E                     dE             d eps       ncg     rms          rms(c)
DAV:   1    -0.391310575050E+03    0.23369E-01   -0.29585E+00 38048   0.500E+00    0.484E-01
DAV:   2    -0.391324353436E+03   -0.13778E-01   -0.13968E-01 36464   0.871E-01    0.237E-01
DAV:   3    -0.391325010065E+03   -0.65663E-03   -0.24261E-03 50368   0.129E-01    0.137E-01
DAV:   4    -0.391324964459E+03    0.45606E-04   -0.28637E-04 54512   0.423E-02    0.775E-02
DAV:   5    -0.391324988768E+03   -0.24309E-04   -0.12843E-04 43104   0.326E-02    0.201E-02
DAV:   6    -0.391324992448E+03   -0.36794E-05   -0.36824E-05 36328   0.141E-02
  35 F= -.39132499E+03 E0= -.39132499E+03  d E =0.895448E-02  mag=    36.0000
       N       E                     dE             d eps       ncg     rms          rms(c)
DAV:   1    -0.390961272019E+03    0.36372E+00   -0.65042E+01 38016   0.238E+01    0.227E+00
DAV:   2    -0.391276357411E+03   -0.31509E+00   -0.31586E+00 35776   0.418E+00    0.111E+00
DAV:   3    -0.391291544279E+03   -0.15187E-01   -0.55437E-02 49056   0.624E-01    0.622E-01
DAV:   4    -0.391290680955E+03    0.86332E-03   -0.64114E-03 54464   0.207E-01    0.362E-01
DAV:   5    -0.391291187814E+03   -0.50686E-03   -0.27136E-03 46192   0.174E-01    0.973E-02
DAV:   6    -0.391291295501E+03   -0.10769E-03   -0.11078E-03 46640   0.780E-02    0.534E-02
DAV:   7    -0.391291284886E+03    0.10616E-04   -0.16293E-04 48088   0.303E-02    0.287E-02
DAV:   8    -0.391291278173E+03    0.67131E-05   -0.17551E-05 30672   0.171E-02
  36 F= -.39129128E+03 E0= -.39129128E+03  d E =0.337143E-01  mag=    36.0000
       N       E                     dE             d eps       ncg     rms          rms(c)
DAV:   1    -0.390812266240E+03    0.47902E+00   -0.70844E+01 38320   0.268E+01    0.289E+00
DAV:   2    -0.391253779483E+03   -0.44151E+00   -0.43400E+00 35776   0.469E+00    0.142E+00
DAV:   3    -0.391285194906E+03   -0.31415E-01   -0.81602E-02 47032   0.752E-01    0.755E-01
DAV:   4    -0.391285375065E+03   -0.18016E-03   -0.75537E-03 56120   0.231E-01    0.447E-01
DAV:   5    -0.391286797823E+03   -0.14228E-02   -0.34494E-03 44384   0.202E-01    0.124E-01
DAV:   6    -0.391286927210E+03   -0.12939E-03   -0.13548E-03 45912   0.934E-02    0.618E-02
DAV:   7    -0.391286914631E+03    0.12578E-04   -0.25240E-04 46304   0.387E-02    0.340E-02
DAV:   8    -0.391286908257E+03    0.63742E-05   -0.32885E-05 36208   0.198E-02
  37 F= -.39128691E+03 E0= -.39128691E+03  d E =0.436992E-02  mag=    36.0000
       N       E                     dE             d eps       ncg     rms          rms(c)
DAV:   1    -0.391156240459E+03    0.13067E+00   -0.22452E+01 38200   0.156E+01    0.164E+00
DAV:   2    -0.391300635579E+03   -0.14440E+00   -0.14745E+00 36096   0.284E+00    0.816E-01
DAV:   3    -0.391309911379E+03   -0.92758E-02   -0.28352E-02 47880   0.475E-01    0.465E-01
DAV:   4    -0.391309589745E+03    0.32163E-03   -0.31710E-03 55648   0.190E-01    0.258E-01
DAV:   5    -0.391309895015E+03   -0.30527E-03   -0.13263E-03 46904   0.177E-01    0.695E-02
DAV:   6    -0.391309962542E+03   -0.67527E-04   -0.94513E-04 45288   0.776E-02    0.440E-02
DAV:   7    -0.391309948862E+03    0.13680E-04   -0.11664E-04 49072   0.233E-02    0.271E-02
DAV:   8    -0.391309935529E+03    0.13334E-04   -0.99772E-06 28048   0.210E-02    0.157E-02
DAV:   9    -0.391309925195E+03    0.10334E-04   -0.15273E-05 31696   0.285E-02    0.660E-03
DAV:  10    -0.391309925329E+03   -0.13406E-06   -0.22340E-05 33040   0.139E-02
  38 F= -.39130993E+03 E0= -.39130993E+03  d E =-.230171E-01  mag=    36.0000
       N       E                     dE             d eps       ncg     rms          rms(c)
DAV:   1    -0.391248586912E+03    0.61338E-01   -0.11832E+01 38256   0.111E+01    0.115E+00
DAV:   2    -0.391320586887E+03   -0.72000E-01   -0.72161E-01 35840   0.198E+00    0.565E-01
DAV:   3    -0.391325585209E+03   -0.49983E-02   -0.13539E-02 48216   0.321E-01    0.314E-01
DAV:   4    -0.391325502978E+03    0.82231E-04   -0.15652E-03 57592   0.120E-01    0.185E-01
DAV:   5    -0.391325672064E+03   -0.16909E-03   -0.57781E-04 45928   0.119E-01    0.497E-02
DAV:   6    -0.391325705490E+03   -0.33426E-04   -0.42599E-04 44904   0.518E-02    0.298E-02
DAV:   7    -0.391325698451E+03    0.70393E-05   -0.53400E-05 39912   0.170E-02
  39 F= -.39132570E+03 E0= -.39132570E+03  d E =-.157731E-01  mag=    36.0000
       N       E                     dE             d eps       ncg     rms          rms(c)
DAV:   1    -0.391307555894E+03    0.18150E-01   -0.29694E+00 38504   0.539E+00    0.549E-01
DAV:   2    -0.391324757982E+03   -0.17202E-01   -0.17018E-01 35896   0.941E-01    0.265E-01
DAV:   3    -0.391325806894E+03   -0.10489E-02   -0.30735E-03 44824   0.147E-01    0.143E-01
DAV:   4    -0.391325802081E+03    0.48124E-05   -0.29691E-04 57352   0.463E-02    0.861E-02
DAV:   5    -0.391325840953E+03   -0.38872E-04   -0.12370E-04 42952   0.452E-02    0.217E-02
DAV:   6    -0.391325848159E+03   -0.72055E-05   -0.69751E-05 42104   0.202E-02
  40 F= -.39132585E+03 E0= -.39132585E+03  d E =-.149708E-03  mag=    36.0000
       N       E                     dE             d eps       ncg     rms          rms(c)
DAV:   1    -0.391059352895E+03    0.26649E+00   -0.58725E+01 38032   0.226E+01    0.210E+00
DAV:   2    -0.391332700973E+03   -0.27335E+00   -0.27340E+00 35776   0.393E+00    0.101E+00
DAV:   3    -0.391344522400E+03   -0.11821E-01   -0.46562E-02 49344   0.574E-01    0.565E-01
DAV:   4    -0.391343826915E+03    0.69548E-03   -0.51708E-03 54696   0.177E-01    0.331E-01
DAV:   5    -0.391344216657E+03   -0.38974E-03   -0.23194E-03 44384   0.145E-01    0.851E-02
DAV:   6    -0.391344312849E+03   -0.96192E-04   -0.78256E-04 46728   0.622E-02    0.463E-02
DAV:   7    -0.391344305633E+03    0.72161E-05   -0.85114E-05 44632   0.220E-02
  41 F= -.39134431E+03 E0= -.39134431E+03  d E =-.184575E-01  mag=    36.0000
       N       E                     dE             d eps       ncg     rms          rms(c)
DAV:   1    -0.390373543262E+03    0.97077E+00   -0.17451E+02 37984   0.408E+01    0.409E+00
DAV:   2    -0.391357132035E+03   -0.98359E+00   -0.98791E+00 35800   0.729E+00    0.201E+00
DAV:   3    -0.391402847137E+03   -0.45715E-01   -0.17474E-01 49272   0.113E+00    0.112E+00
DAV:   4    -0.391400725354E+03    0.21218E-02   -0.20948E-02 54336   0.381E-01    0.647E-01
DAV:   5    -0.391402266192E+03   -0.15408E-02   -0.74952E-03 47784   0.298E-01    0.173E-01
DAV:   6    -0.391402568066E+03   -0.30187E-03   -0.28174E-03 46832   0.129E-01    0.894E-02
DAV:   7    -0.391402543824E+03    0.24242E-04   -0.41671E-04 52808   0.483E-02    0.487E-02
DAV:   8    -0.391402525774E+03    0.18050E-04   -0.50579E-05 41712   0.294E-02    0.256E-02
DAV:   9    -0.391402520790E+03    0.49837E-05   -0.31474E-05 34712   0.276E-02
  42 F= -.39140252E+03 E0= -.39140252E+03  d E =-.582152E-01  mag=    36.0000
       N       E                     dE             d eps       ncg     rms          rms(c)
DAV:   1    -0.390891553188E+03    0.51097E+00   -0.79230E+01 38328   0.277E+01    0.285E+00
DAV:   2    -0.391347309990E+03   -0.45576E+00   -0.45814E+00 35968   0.496E+00    0.141E+00
DAV:   3    -0.391373095346E+03   -0.25785E-01   -0.86107E-02 47944   0.797E-01    0.786E-01
DAV:   4    -0.391372307165E+03    0.78818E-03   -0.95255E-03 56696   0.270E-01    0.453E-01
DAV:   5    -0.391373154613E+03   -0.84745E-03   -0.39398E-03 44880   0.247E-01    0.122E-01
DAV:   6    -0.391373340546E+03   -0.18593E-03   -0.21289E-03 46264   0.114E-01    0.683E-02
DAV:   7    -0.391373318532E+03    0.22014E-04   -0.26534E-04 52792   0.383E-02    0.408E-02
DAV:   8    -0.391373298865E+03    0.19667E-04   -0.26464E-05 37000   0.268E-02    0.219E-02
DAV:   9    -0.391373289886E+03    0.89782E-05   -0.24535E-05 33616   0.276E-02
  43 F= -.39137329E+03 E0= -.39137329E+03  d E =0.292309E-01  mag=    36.0000
       N       E                     dE             d eps       ncg     rms          rms(c)
DAV:   1    -0.390786183049E+03    0.58712E+00   -0.82609E+01 38088   0.290E+01    0.302E+00
DAV:   2    -0.391293664571E+03   -0.50748E+00   -0.50610E+00 35832   0.517E+00    0.148E+00
DAV:   3    -0.391320797451E+03   -0.27133E-01   -0.87316E-02 50024   0.790E-01    0.819E-01
DAV:   4    -0.391319995498E+03    0.80195E-03   -0.96684E-03 53384   0.257E-01    0.469E-01
DAV:   5    -0.391321042299E+03   -0.10468E-02   -0.37426E-03 46888   0.187E-01    0.124E-01
DAV:   6    -0.391321169109E+03   -0.12681E-03   -0.11365E-03 45768   0.821E-02    0.586E-02
DAV:   7    -0.391321159412E+03    0.96968E-05   -0.18807E-04 50216   0.317E-02    0.323E-02
DAV:   8    -0.391321154071E+03    0.53410E-05   -0.22548E-05 30560   0.160E-02
  44 F= -.39132115E+03 E0= -.39132115E+03  d E =0.521358E-01  mag=    36.0000
       N       E                     dE             d eps       ncg     rms          rms(c)
DAV:   1    -0.391098449456E+03    0.22271E+00   -0.34461E+01 38128   0.192E+01    0.210E+00
DAV:   2    -0.391336689472E+03   -0.23824E+00   -0.23730E+00 35968   0.346E+00    0.102E+00
DAV:   3    -0.391352613504E+03   -0.15924E-01   -0.41630E-02 47648   0.547E-01    0.559E-01
DAV:   4    -0.391352561497E+03    0.52008E-04   -0.39940E-03 55816   0.163E-01    0.324E-01
DAV:   5    -0.391353236544E+03   -0.67505E-03   -0.18165E-03 44064   0.132E-01    0.817E-02
DAV:   6    -0.391353300999E+03   -0.64456E-04   -0.55054E-04 46440   0.572E-02    0.393E-02
DAV:   7    -0.391353294361E+03    0.66380E-05   -0.78626E-05 43384   0.223E-02
  45 F= -.39135329E+03 E0= -.39135329E+03  d E =-.321403E-01  mag=    36.0000
       N       E                     dE             d eps       ncg     rms          rms(c)
DAV:   1    -0.391166054785E+03    0.18725E+00   -0.33363E+01 38320   0.184E+01    0.186E+00
DAV:   2    -0.391359634896E+03   -0.19358E+00   -0.19154E+00 35776   0.324E+00    0.925E-01
DAV:   3    -0.391371110510E+03   -0.11476E-01   -0.33398E-02 49176   0.494E-01    0.508E-01
DAV:   4    -0.391370867596E+03    0.24291E-03   -0.34970E-03 56040   0.162E-01    0.299E-01
DAV:   5    -0.391371300655E+03   -0.43306E-03   -0.15379E-03 47024   0.138E-01    0.786E-02
DAV:   6    -0.391371363733E+03   -0.63079E-04   -0.62686E-04 46896   0.607E-02    0.396E-02
DAV:   7    -0.391371355111E+03    0.86229E-05   -0.86664E-05 43368   0.225E-02
  46 F= -.39137136E+03 E0= -.39137136E+03  d E =-.180607E-01  mag=    36.0000
       N       E                     dE             d eps       ncg     rms          rms(c)
DAV:   1    -0.391310951735E+03    0.60412E-01   -0.63558E+00 37936   0.835E+00    0.926E-01
DAV:   2    -0.391356167529E+03   -0.45216E-01   -0.45164E-01 36144   0.152E+00    0.465E-01
DAV:   3    -0.391359323293E+03   -0.31558E-02   -0.85071E-03 48312   0.249E-01    0.258E-01
DAV:   4    -0.391359263986E+03    0.59307E-04   -0.81662E-04 55584   0.874E-02    0.149E-01
DAV:   5    -0.391359362843E+03   -0.98858E-04   -0.35948E-04 46208   0.796E-02    0.351E-02
DAV:   6    -0.391359379211E+03   -0.16368E-04   -0.20394E-04 44192   0.361E-02    0.206E-02
DAV:   7    -0.391359376228E+03    0.29829E-05   -0.22464E-05 30016   0.118E-02
  47 F= -.39135938E+03 E0= -.39135938E+03  d E =0.119789E-01  mag=    36.0000
       N       E                     dE             d eps       ncg     rms          rms(c)
DAV:   1    -0.391332432109E+03    0.26947E-01   -0.39465E+00 38216   0.629E+00    0.610E-01
DAV:   2    -0.391353961370E+03   -0.21529E-01   -0.21523E-01 35784   0.110E+00    0.298E-01
DAV:   3    -0.391355282675E+03   -0.13213E-02   -0.38701E-03 45864   0.170E-01    0.165E-01
DAV:   4    -0.391355261294E+03    0.21381E-04   -0.38151E-04 57984   0.530E-02    0.981E-02
DAV:   5    -0.391355313977E+03   -0.52683E-04   -0.18467E-04 44376   0.489E-02    0.262E-02
DAV:   6    -0.391355322066E+03   -0.80887E-05   -0.80204E-05 41968   0.218E-02
  48 F= -.39135532E+03 E0= -.39135532E+03  d E =0.405416E-02  mag=    36.0000
       N       E                     dE             d eps       ncg     rms          rms(c)
DAV:   1    -0.391353802336E+03    0.15116E-02   -0.49215E-01 38592   0.240E+00    0.250E-01
DAV:   2    -0.391357128143E+03   -0.33258E-02   -0.33334E-02 35872   0.429E-01    0.125E-01
DAV:   3    -0.391357373114E+03   -0.24497E-03   -0.62594E-04 47248   0.708E-02    0.690E-02
DAV:   4    -0.391357368184E+03    0.49299E-05   -0.53878E-05 44000   0.255E-02
  49 F= -.39135737E+03 E0= -.39135737E+03  d E =-.204612E-02  mag=    36.0000
