       N       E                     dE             d eps       ncg     rms          ort
DAV:   1     0.699393821635E+04    0.69939E+04   -0.30481E+05  9152   0.168E+03
DAV:   2     0.478073086903E+03   -0.65159E+04   -0.60519E+04  9152   0.482E+02
DAV:   3    -0.385341979370E+03   -0.86342E+03   -0.84928E+03  9152   0.188E+02
DAV:   4    -0.422560465156E+03   -0.37218E+02   -0.36794E+02  9152   0.371E+01
DAV:   5    -0.425196923596E+03   -0.26365E+01   -0.26234E+01  9152   0.689E+00
SDA:   6    -0.280504228273E+03    0.14469E+03   -0.26234E+01  9152   0.792E+03 0.000E+00
CGA:   7    -0.359125006925E+03   -0.78621E+02   -0.85532E+02  9152   0.360E+03-0.555E+02
CGA:   8    -0.365942233241E+03   -0.68172E+01   -0.24516E+02  9152   0.102E+03-0.781E+02
CGA:   9    -0.371862885925E+03   -0.59207E+01   -0.68465E+01  9152   0.499E+02-0.121E+02
CGA:  10    -0.374992181244E+03   -0.31293E+01   -0.31440E+01  9152   0.538E+02 0.410E+01
CGA:  11    -0.373408783542E+03    0.15834E+01   -0.32581E+01  9152   0.541E+02-0.318E+02
CGA:  12    -0.375039692263E+03   -0.16309E+01   -0.38623E+01  9152   0.744E+02-0.226E+02
CGA:  13    -0.377448289359E+03   -0.24086E+01   -0.29001E+01  9152   0.246E+02-0.286E+02
CGA:  14    -0.378352307360E+03   -0.90402E+00   -0.47396E+00  9152   0.175E+02 0.141E+02
CGA:  15    -0.378916833577E+03   -0.56453E+00   -0.58936E+00  9152   0.173E+02-0.119E+02
CGA:  16    -0.378735333066E+03    0.18150E+00   -0.10046E+01  9152   0.270E+02-0.936E+01
CGA:  17    -0.378767697216E+03   -0.32364E-01   -0.10500E+01  9152   0.556E+02-0.435E+02
CGA:  18    -0.378182601021E+03    0.58510E+00   -0.33170E+01  9152   0.253E+02-0.151E+02
CGA:  19    -0.379776403752E+03   -0.15938E+01   -0.60336E+00  9152   0.133E+02 0.232E+02
CGA:  20    -0.380114510009E+03   -0.33811E+00   -0.33820E+00  9152   0.304E+01-0.358E+01
CGA:  21    -0.380382263363E+03   -0.26775E+00   -0.26947E+00  9152   0.378E+01 0.217E+00
CGA:  22    -0.380713710866E+03   -0.33145E+00   -0.31312E+00  9152   0.251E+01 0.178E+00
CGA:  23    -0.380886369263E+03   -0.17266E+00   -0.18269E+00  9152   0.232E+01-0.410E-01
CGA:  24    -0.381042165685E+03   -0.15580E+00   -0.11917E+00  9152   0.737E+00 0.631E+00
CGA:  25    -0.381113520164E+03   -0.71354E-01   -0.76433E-01  9152   0.932E+00 0.172E-01
CGA:  26    -0.381185106317E+03   -0.71586E-01   -0.73419E-01  9152   0.798E+00 0.105E-01
CGA:  27    -0.381238076310E+03   -0.52970E-01   -0.48494E-01  9152   0.128E+00 0.364E-01
CGA:  28    -0.381251135683E+03   -0.13059E-01   -0.13381E-01  9152   0.849E-01 0.132E-01
CGA:  29    -0.381256606666E+03   -0.54710E-02   -0.58017E-02  9152   0.636E-01-0.146E-02
CGA:  30    -0.381263158108E+03   -0.65514E-02   -0.65584E-02  9152   0.206E-01 0.125E-02
CGA:  31    -0.381266424756E+03   -0.32666E-02   -0.32102E-02  9152   0.276E-01 0.940E-03
CGA:  32    -0.381268440668E+03   -0.20159E-02   -0.20312E-02  9152   0.141E-01-0.104E-03
CGA:  33    -0.381270532263E+03   -0.20916E-02   -0.20732E-02  9152   0.987E-02 0.316E-03
CGA:  34    -0.381271520326E+03   -0.98806E-03   -0.99015E-03  9152   0.106E-01 0.254E-04
CGA:  35    -0.381272590664E+03   -0.10703E-02   -0.10705E-02  9152   0.410E-02-0.483E-04
CGA:  36    -0.381273170023E+03   -0.57936E-03   -0.58253E-03  9152   0.570E-02-0.950E-04
CGA:  37    -0.381273634235E+03   -0.46421E-03   -0.46279E-03  9152   0.236E-02-0.853E-04
CGA:  38    -0.381273960980E+03   -0.32674E-03   -0.32689E-03  9152   0.171E-02-0.249E-04
CGA:  39    -0.381274098706E+03   -0.13773E-03   -0.13712E-03  9152   0.123E-02-0.257E-04
CGA:  40    -0.381274268890E+03   -0.17018E-03   -0.17102E-03  9152   0.824E-03-0.269E-04
CGA:  41    -0.381274361627E+03   -0.92737E-04   -0.92764E-04  9152   0.830E-03-0.747E-05
CGA:  42    -0.381274435519E+03   -0.73892E-04   -0.73806E-04  9152   0.358E-03-0.521E-05
CGA:  43    -0.381274492376E+03   -0.56857E-04   -0.56666E-04  9152   0.441E-03 0.347E-05
CGA:  44    -0.381274528208E+03   -0.35833E-04   -0.35886E-04  9152   0.223E-03 0.296E-05
CGA:  45    -0.381274563049E+03   -0.34841E-04   -0.34352E-04  9152   0.173E-03 0.114E-04
CGA:  46    -0.381274577801E+03   -0.14752E-04   -0.14935E-04  9152   0.127E-03 0.601E-05
CGA:  47    -0.381274597672E+03   -0.19870E-04   -0.19436E-04  9152   0.823E-04 0.119E-04
CGA:  48    -0.381274607115E+03   -0.94436E-05   -0.94815E-05  9152   0.893E-04 0.496E-05
CGA:  49    -0.381274619072E+03   -0.11956E-04   -0.11865E-04  9152   0.618E-04 0.716E-05
SDA:  50    -0.381274627592E+03   -0.85207E-05   -0.84573E-05  9152   0.568E-04 0.474E-05
   1 F= -.38127463E+03 E0= -.38126824E+03  d E =-.381275E+03  mag=    58.0000
       N       E                     dE             d eps       ncg     rms          ort
SDA:   1    -0.381274479177E+03    0.13989E-03    0.00000E+00  9152   0.815E-02 0.000E+00
CGA:   2    -0.381274743171E+03   -0.26399E-03   -0.26730E-03  9152   0.263E-03-0.788E-04
CGA:   3    -0.381274793007E+03   -0.49837E-04   -0.50222E-04  9152   0.206E-03-0.448E-05
CGA:   4    -0.381274817423E+03   -0.24416E-04   -0.24410E-04  9152   0.190E-03 0.493E-06
CGA:   5    -0.381274832131E+03   -0.14708E-04   -0.14733E-04  9152   0.972E-04 0.834E-06
CGA:   6    -0.381274842139E+03   -0.10008E-04   -0.10018E-04  9152   0.424E-04 0.148E-05
CGA:   7    -0.381274848809E+03   -0.66702E-05   -0.66634E-05  9152   0.356E-04 0.147E-06
   2 F= -.38127485E+03 E0= -.38126847E+03  d E =-.221217E-03  mag=    58.0000
       N       E                     dE             d eps       ncg     rms          ort
SDA:   1    -0.381218646461E+03    0.56196E-01    0.00000E+00  9152   0.252E+00 0.000E+00
CGA:   2    -0.381239412477E+03   -0.20766E-01   -0.20881E-01  9152   0.235E+00 0.395E-03
CGA:   3    -0.381260253807E+03   -0.20841E-01   -0.20783E-01  9152   0.751E-01-0.721E-03
CGA:   4    -0.381272668652E+03   -0.12415E-01   -0.12397E-01  9152   0.395E-01 0.277E-03
CGA:   5    -0.381276129263E+03   -0.34606E-02   -0.34464E-02  9152   0.171E-01-0.128E-03
CGA:   6    -0.381277468601E+03   -0.13393E-02   -0.13415E-02  9152   0.976E-02 0.971E-05
CGA:   7    -0.381278274771E+03   -0.80617E-03   -0.80429E-03  9152   0.195E-02-0.136E-04
CGA:   8    -0.381278566546E+03   -0.29177E-03   -0.29165E-03  9152   0.140E-02 0.275E-05
CGA:   9    -0.381278650816E+03   -0.84270E-04   -0.84142E-04  9152   0.518E-03-0.226E-06
CGA:  10    -0.381278716796E+03   -0.65981E-04   -0.65964E-04  9152   0.260E-03 0.798E-06
CGA:  11    -0.381278746181E+03   -0.29385E-04   -0.29386E-04  9152   0.163E-03-0.320E-06
CGA:  12    -0.381278758674E+03   -0.12494E-04   -0.12509E-04  9152   0.931E-04 0.418E-06
CGA:  13    -0.381278770182E+03   -0.11508E-04   -0.11514E-04  9152   0.503E-04-0.376E-06
CGA:  14    -0.381278776073E+03   -0.58910E-05   -0.58898E-05  9152   0.338E-04 0.125E-06
   3 F= -.38127878E+03 E0= -.38127238E+03  d E =-.392726E-02  mag=    58.0000
       N       E                     dE             d eps       ncg     rms          ort
SDA:   1    -0.381149193075E+03    0.12958E+00    0.00000E+00  9152   0.453E+00 0.000E+00
CGA:   2    -0.381217438545E+03   -0.68245E-01   -0.68505E-01  9152   0.360E+00-0.458E-02
CGA:   3    -0.381241226972E+03   -0.23788E-01   -0.24345E-01  9152   0.223E+00-0.190E-02
CGA:   4    -0.381268054569E+03   -0.26828E-01   -0.26853E-01  9152   0.857E-01-0.112E-02
CGA:   5    -0.381276186316E+03   -0.81317E-02   -0.81697E-02  9152   0.323E-01 0.115E-02
CGA:   6    -0.381279555384E+03   -0.33691E-02   -0.33687E-02  9152   0.205E-01-0.374E-04
CGA:   7    -0.381280760036E+03   -0.12047E-02   -0.12169E-02  9152   0.503E-02-0.750E-04
CGA:   8    -0.381281515400E+03   -0.75536E-03   -0.75550E-03  9152   0.198E-02-0.246E-05
CGA:   9    -0.381281705472E+03   -0.19007E-03   -0.19013E-03  9152   0.146E-02 0.300E-05
CGA:  10    -0.381281819706E+03   -0.11423E-03   -0.11419E-03  9152   0.644E-03-0.636E-06
CGA:  11    -0.381281895960E+03   -0.76254E-04   -0.76222E-04  9152   0.267E-03 0.198E-05
CGA:  12    -0.381281929360E+03   -0.33400E-04   -0.33413E-04  9152   0.231E-03-0.516E-06
CGA:  13    -0.381281948047E+03   -0.18687E-04   -0.18702E-04  9152   0.132E-03 0.478E-06
CGA:  14    -0.381281962486E+03   -0.14440E-04   -0.14442E-04  9152   0.556E-04-0.439E-06
CGA:  15    -0.381281972270E+03   -0.97837E-05   -0.97716E-05  9152   0.648E-04 0.165E-06
   4 F= -.38128197E+03 E0= -.38127555E+03  d E =-.319620E-02  mag=    58.0000
       N       E                     dE             d eps       ncg     rms          ort
SDA:   1    -0.381251647844E+03    0.30315E-01    0.00000E+00  9152   0.108E+00 0.000E+00
CGA:   2    -0.381264615543E+03   -0.12968E-01   -0.12973E-01  9152   0.124E+00-0.226E-03
CGA:   3    -0.381272883115E+03   -0.82676E-02   -0.82954E-02  9152   0.412E-01-0.116E-03
CGA:   4    -0.381279533617E+03   -0.66505E-02   -0.66553E-02  9152   0.174E-01-0.718E-04
CGA:   5    -0.381281203028E+03   -0.16694E-02   -0.16698E-02  9152   0.727E-02 0.134E-04
CGA:   6    -0.381281852717E+03   -0.64969E-03   -0.64909E-03  9152   0.441E-02-0.104E-04
CGA:   7    -0.381282135608E+03   -0.28289E-03   -0.28359E-03  9152   0.102E-02-0.851E-06
CGA:   8    -0.381282300635E+03   -0.16503E-03   -0.16513E-03  9152   0.405E-03-0.161E-05
CGA:   9    -0.381282341020E+03   -0.40384E-04   -0.40389E-04  9152   0.327E-03 0.589E-06
CGA:  10    -0.381282366101E+03   -0.25081E-04   -0.25061E-04  9152   0.138E-03-0.402E-06
CGA:  11    -0.381282382640E+03   -0.16538E-04   -0.16533E-04  9152   0.617E-04 0.375E-06
CGA:  12    -0.381282391088E+03   -0.84483E-05   -0.84514E-05  9152   0.527E-04-0.844E-07
   5 F= -.38128239E+03 E0= -.38127598E+03  d E =-.418818E-03  mag=    58.0000
       N       E                     dE             d eps       ncg     rms          ort
SDA:   1    -0.381229679258E+03    0.52703E-01    0.00000E+00  9152   0.185E+00 0.000E+00
CGA:   2    -0.381248649115E+03   -0.18970E-01   -0.18979E-01  9152   0.225E+00 0.901E-03
CGA:   3    -0.381267622692E+03   -0.18974E-01   -0.18917E-01  9152   0.682E-01-0.611E-03
CGA:   4    -0.381277539931E+03   -0.99172E-02   -0.99092E-02  9152   0.334E-01 0.163E-03
CGA:   5    -0.381280463577E+03   -0.29236E-02   -0.29191E-02  9152   0.109E-01-0.638E-04
CGA:   6    -0.381281397759E+03   -0.93418E-03   -0.93501E-03  9152   0.770E-02 0.134E-04
CGA:   7    -0.381281981269E+03   -0.58351E-03   -0.58270E-03  9152   0.134E-02-0.377E-05
CGA:   8    -0.381282211277E+03   -0.23001E-03   -0.22993E-03  9152   0.964E-03 0.114E-05
CGA:   9    -0.381282268678E+03   -0.57400E-04   -0.57326E-04  9152   0.365E-03-0.859E-06
CGA:  10    -0.381282315466E+03   -0.46788E-04   -0.46771E-04  9152   0.222E-03 0.645E-06
CGA:  11    -0.381282338295E+03   -0.22829E-04   -0.22828E-04  9152   0.950E-04-0.169E-06
CGA:  12    -0.381282348107E+03   -0.98121E-05   -0.98134E-05  9152   0.105E-03 0.491E-06
CGA:  13    -0.381282359275E+03   -0.11168E-04   -0.11168E-04  9152   0.349E-04-0.198E-06
CGA:  14    -0.381282365080E+03   -0.58053E-05   -0.58076E-05  9152   0.460E-04-0.412E-07
   6 F= -.38128237E+03 E0= -.38127594E+03  d E =0.260074E-04  mag=    58.0000
       N       E                     dE             d eps       ncg     rms          ort
SDA:   1    -0.381185049107E+03    0.97310E-01    0.00000E+00  9152   0.289E+00 0.000E+00
CGA:   2    -0.381224391797E+03   -0.39343E-01   -0.39515E-01  9152   0.512E+00-0.401E-02
CGA:   3    -0.381260951339E+03   -0.36560E-01   -0.36642E-01  9152   0.983E-01-0.472E-03
CGA:   4    -0.381276618672E+03   -0.15667E-01   -0.15678E-01  9152   0.328E-01-0.159E-03
CGA:   5    -0.381280231124E+03   -0.36125E-02   -0.36124E-02  9152   0.121E-01 0.131E-03
CGA:   6    -0.381281356715E+03   -0.11256E-02   -0.11268E-02  9152   0.606E-02 0.224E-04
CGA:   7    -0.381281760296E+03   -0.40358E-03   -0.40337E-03  9152   0.292E-02-0.360E-05
CGA:   8    -0.381282076875E+03   -0.31658E-03   -0.31657E-03  9152   0.793E-03 0.362E-05
CGA:   9    -0.381282201799E+03   -0.12492E-03   -0.12497E-03  9152   0.305E-03-0.721E-06
CGA:  10    -0.381282252205E+03   -0.50406E-04   -0.50332E-04  9152   0.165E-03 0.124E-05
CGA:  11    -0.381282277960E+03   -0.25755E-04   -0.25759E-04  9152   0.123E-03-0.301E-07
CGA:  12    -0.381282296026E+03   -0.18066E-04   -0.18063E-04  9152   0.983E-04 0.646E-07
CGA:  13    -0.381282305412E+03   -0.93862E-05   -0.93718E-05  9152   0.111E-03-0.655E-06
CGA:  14    -0.381282317957E+03   -0.12545E-04   -0.12545E-04  9152   0.394E-04-0.355E-06
CGA:  15    -0.381282326489E+03   -0.85322E-05   -0.85080E-05  9152   0.274E-04 0.237E-06
   7 F= -.38128233E+03 E0= -.38127591E+03  d E =0.385913E-04  mag=    58.0000
       N       E                     dE             d eps       ncg     rms          ort
SDA:   1    -0.380812753291E+03    0.46956E+00    0.00000E+00  9152   0.126E+01 0.000E+00
CGA:   2    -0.381114303739E+03   -0.30155E+00   -0.30014E+00  9152   0.102E+01 0.130E-01
CGA:   3    -0.381200982271E+03   -0.86679E-01   -0.81370E-01  9152   0.548E+00 0.350E-02
CGA:   4    -0.381249526121E+03   -0.48544E-01   -0.49036E-01  9152   0.251E+00 0.913E-03
CGA:   5    -0.381270723110E+03   -0.21197E-01   -0.20704E-01  9152   0.545E-01-0.359E-03
CGA:   6    -0.381276705023E+03   -0.59819E-02   -0.59798E-02  9152   0.384E-01-0.802E-04
CGA:   7    -0.381279254860E+03   -0.25498E-02   -0.25237E-02  9152   0.115E-01 0.141E-03
CGA:   8    -0.381280728145E+03   -0.14733E-02   -0.14730E-02  9152   0.506E-02 0.158E-04
CGA:   9    -0.381281191048E+03   -0.46290E-03   -0.46241E-03  9152   0.369E-02-0.599E-05
CGA:  10    -0.381281482206E+03   -0.29116E-03   -0.29098E-03  9152   0.103E-02 0.138E-05
CGA:  11    -0.381281674624E+03   -0.19242E-03   -0.19238E-03  9152   0.114E-02 0.625E-06
CGA:  12    -0.381281749129E+03   -0.74505E-04   -0.74689E-04  9152   0.493E-03 0.722E-06
CGA:  13    -0.381281855419E+03   -0.10629E-03   -0.10645E-03  9152   0.533E-03-0.161E-05
CGA:  14    -0.381281903796E+03   -0.48377E-04   -0.48397E-04  9152   0.412E-03 0.297E-06
CGA:  15    -0.381281951488E+03   -0.47692E-04   -0.47687E-04  9152   0.284E-03-0.119E-05
CGA:  16    -0.381281987392E+03   -0.35904E-04   -0.35897E-04  9152   0.209E-03 0.643E-06
CGA:  17    -0.381282006902E+03   -0.19510E-04   -0.19507E-04  9152   0.125E-03 0.596E-07
CGA:  18    -0.381282018614E+03   -0.11712E-04   -0.11733E-04  9152   0.764E-04 0.843E-06
CGA:  19    -0.381282029279E+03   -0.10665E-04   -0.10659E-04  9152   0.422E-04 0.284E-06
CGA:  20    -0.381282032648E+03   -0.33695E-05   -0.33769E-05  9152   0.303E-04 0.167E-06
   8 F= -.38128203E+03 E0= -.38127563E+03  d E =0.293841E-03  mag=    58.0000
       N       E                     dE             d eps       ncg     rms          ort
SDA:   1    -0.376774788550E+03    0.45072E+01    0.00000E+00  9152   0.120E+02 0.000E+00
CGA:   2    -0.379532950816E+03   -0.27582E+01   -0.27489E+01  9152   0.148E+02 0.553E-01
CGA:   3    -0.380378650232E+03   -0.84570E+00   -0.99578E+00  9152   0.639E+01-0.193E+01
CGA:   4    -0.381001232320E+03   -0.62258E+00   -0.61853E+00  9152   0.177E+01-0.202E+00
CGA:   5    -0.381152113440E+03   -0.15088E+00   -0.15341E+00  9152   0.944E+00 0.550E-02
CGA:   6    -0.381223082798E+03   -0.70969E-01   -0.69653E-01  9152   0.275E+00-0.404E-04
CGA:   7    -0.381253451018E+03   -0.30368E-01   -0.30402E-01  9152   0.145E+00 0.266E-02
CGA:   8    -0.381264732650E+03   -0.11282E-01   -0.11283E-01  9152   0.672E-01-0.169E-03
CGA:   9    -0.381271610902E+03   -0.68783E-02   -0.68890E-02  9152   0.292E-01 0.365E-03
CGA:  10    -0.381274220240E+03   -0.26093E-02   -0.25995E-02  9152   0.154E-01-0.906E-04
CGA:  11    -0.381275785791E+03   -0.15656E-02   -0.15661E-02  9152   0.999E-02 0.256E-04
CGA:  12    -0.381276757969E+03   -0.97218E-03   -0.97210E-03  9152   0.485E-02-0.785E-06
CGA:  13    -0.381277394521E+03   -0.63655E-03   -0.63636E-03  9152   0.560E-02 0.860E-05
CGA:  14    -0.381277935657E+03   -0.54114E-03   -0.54077E-03  9152   0.263E-02-0.759E-05
CGA:  15    -0.381278345555E+03   -0.40990E-03   -0.40957E-03  9152   0.338E-02 0.603E-05
CGA:  16    -0.381278640901E+03   -0.29535E-03   -0.29526E-03  9152   0.159E-02-0.201E-05
CGA:  17    -0.381278865728E+03   -0.22483E-03   -0.22477E-03  9152   0.141E-02 0.230E-05
CGA:  18    -0.381278990190E+03   -0.12446E-03   -0.12446E-03  9152   0.820E-03 0.681E-06
CGA:  19    -0.381279086726E+03   -0.96536E-04   -0.96513E-04  9152   0.509E-03 0.374E-05
CGA:  20    -0.381279138308E+03   -0.51582E-04   -0.51578E-04  9152   0.347E-03 0.194E-06
CGA:  21    -0.381279174697E+03   -0.36389E-04   -0.36393E-04  9152   0.229E-03 0.589E-06
CGA:  22    -0.381279200531E+03   -0.25834E-04   -0.25836E-04  9152   0.149E-03-0.145E-05
CGA:  23    -0.381279216987E+03   -0.16456E-04   -0.16456E-04  9152   0.126E-03-0.754E-06
CGA:  24    -0.381279230218E+03   -0.13231E-04   -0.13222E-04  9152   0.677E-04-0.140E-05
CGA:  25    -0.381279238584E+03   -0.83655E-05   -0.83689E-05  9152   0.623E-04-0.284E-06
   9 F= -.38127924E+03 E0= -.38127290E+03  d E =0.279406E-02  mag=    58.0000
       N       E                     dE             d eps       ncg     rms          ort
SDA:   1    -0.381019924568E+03    0.25931E+00    0.00000E+00  9152   0.960E+00 0.000E+00
CGA:   2    -0.381099706994E+03   -0.79782E-01   -0.79224E-01  9152   0.107E+01-0.676E-02
CGA:   3    -0.381216545391E+03   -0.11684E+00   -0.11684E+00  9152   0.298E+00-0.965E-03
CGA:   4    -0.381258050529E+03   -0.41505E-01   -0.41700E-01  9152   0.136E+00-0.448E-02
CGA:   5    -0.381271557872E+03   -0.13507E-01   -0.13548E-01  9152   0.364E-01 0.159E-02
CGA:   6    -0.381276515670E+03   -0.49578E-02   -0.49653E-02  9152   0.105E-01-0.211E-03
CGA:   7    -0.381277709715E+03   -0.11940E-02   -0.11940E-02  9152   0.792E-02 0.450E-05
CGA:   8    -0.381278192080E+03   -0.48236E-03   -0.48023E-03  9152   0.257E-02 0.959E-05
CGA:   9    -0.381278548897E+03   -0.35682E-03   -0.35674E-03  9152   0.872E-03 0.217E-05
CGA:  10    -0.381278677410E+03   -0.12851E-03   -0.12852E-03  9152   0.505E-03 0.163E-07
CGA:  11    -0.381278725806E+03   -0.48396E-04   -0.48424E-04  9152   0.372E-03 0.116E-05
CGA:  12    -0.381278757459E+03   -0.31653E-04   -0.31641E-04  9152   0.216E-03-0.251E-06
CGA:  13    -0.381278784406E+03   -0.26947E-04   -0.26935E-04  9152   0.107E-03 0.690E-06
CGA:  14    -0.381278806355E+03   -0.21949E-04   -0.21938E-04  9152   0.789E-04 0.121E-06
CGA:  15    -0.381278813061E+03   -0.67063E-05   -0.67175E-05  9152   0.764E-04 0.351E-06
  10 F= -.38127881E+03 E0= -.38127248E+03  d E =0.425523E-03  mag=    58.0000
       N       E                     dE             d eps       ncg     rms          ort
SDA:   1    -0.381154246012E+03    0.12456E+00    0.00000E+00  9152   0.414E+00 0.000E+00
CGA:   2    -0.381201954951E+03   -0.47709E-01   -0.47716E-01  9152   0.556E+00-0.744E-02
CGA:   3    -0.381248012371E+03   -0.46057E-01   -0.46281E-01  9152   0.214E+00 0.573E-03
CGA:   4    -0.381266648731E+03   -0.18636E-01   -0.18088E-01  9152   0.707E-01-0.338E-02
CGA:   5    -0.381276721503E+03   -0.10073E-01   -0.10068E-01  9152   0.172E-01 0.106E-03
CGA:   6    -0.381278091159E+03   -0.13697E-02   -0.13703E-02  9152   0.127E-01-0.168E-05
CGA:   7    -0.381279160659E+03   -0.10695E-02   -0.10712E-02  9152   0.292E-02 0.137E-04
CGA:   8    -0.381279558108E+03   -0.39745E-03   -0.39740E-03  9152   0.124E-02 0.164E-05
CGA:   9    -0.381279675565E+03   -0.11746E-03   -0.11750E-03  9152   0.108E-02 0.214E-05
CGA:  10    -0.381279759785E+03   -0.84220E-04   -0.84258E-04  9152   0.222E-03-0.586E-07
CGA:  11    -0.381279804862E+03   -0.45077E-04   -0.45085E-04  9152   0.217E-03-0.919E-07
CGA:  12    -0.381279819890E+03   -0.15028E-04   -0.14996E-04  9152   0.111E-03-0.368E-06
CGA:  13    -0.381279835320E+03   -0.15430E-04   -0.15411E-04  9152   0.100E-03 0.710E-06
CGA:  14    -0.381279848787E+03   -0.13466E-04   -0.13459E-04  9152   0.631E-04 0.374E-06
CGA:  15    -0.381279856048E+03   -0.72616E-05   -0.72611E-05  9152   0.625E-04 0.601E-06
  11 F= -.38127986E+03 E0= -.38127351E+03  d E =-.104299E-02  mag=    58.0000
       N       E                     dE             d eps       ncg     rms          ort
SDA:   1    -0.377440324096E+03    0.38395E+01    0.00000E+00  9152   0.120E+02 0.000E+00
CGA:   2    -0.379693045534E+03   -0.22527E+01   -0.22497E+01  9152   0.700E+01 0.429E-01
CGA:   3    -0.380374757833E+03   -0.68171E+00   -0.69079E+00  9152   0.682E+01 0.953E-01
CGA:   4    -0.380942359143E+03   -0.56760E+00   -0.57172E+00  9152   0.150E+01-0.422E-01
CGA:   5    -0.381145754749E+03   -0.20340E+00   -0.20576E+00  9152   0.735E+00-0.639E-01
CGA:   6    -0.381200756613E+03   -0.55002E-01   -0.56352E-01  9152   0.300E+00 0.665E-03
CGA:   7    -0.381222653487E+03   -0.21897E-01   -0.21928E-01  9152   0.150E+00-0.644E-03
CGA:   8    -0.381238385913E+03   -0.15732E-01   -0.15752E-01  9152   0.377E-01 0.133E-02
CGA:   9    -0.381244988971E+03   -0.66031E-02   -0.65986E-02  9152   0.181E-01 0.631E-04
CGA:  10    -0.381247215929E+03   -0.22270E-02   -0.22267E-02  9152   0.138E-01 0.213E-04
CGA:  11    -0.381248276788E+03   -0.10609E-02   -0.10624E-02  9152   0.818E-02 0.197E-05
CGA:  12    -0.381249226970E+03   -0.95018E-03   -0.95015E-03  9152   0.425E-02 0.818E-05
CGA:  13    -0.381249824905E+03   -0.59793E-03   -0.59788E-03  9152   0.255E-02 0.160E-05
CGA:  14    -0.381250281714E+03   -0.45681E-03   -0.45607E-03  9152   0.235E-02 0.101E-04
CGA:  15    -0.381250461357E+03   -0.17964E-03   -0.17955E-03  9152   0.168E-02-0.126E-06
CGA:  16    -0.381250689786E+03   -0.22843E-03   -0.22829E-03  9152   0.815E-03 0.583E-05
CGA:  17    -0.381250820498E+03   -0.13071E-03   -0.13075E-03  9152   0.607E-03-0.205E-06
CGA:  18    -0.381250893562E+03   -0.73064E-04   -0.73059E-04  9152   0.394E-03 0.242E-05
CGA:  19    -0.381250929701E+03   -0.36139E-04   -0.36118E-04  9152   0.359E-03-0.439E-06
CGA:  20    -0.381250971015E+03   -0.41314E-04   -0.41314E-04  9152   0.124E-03 0.180E-07
CGA:  21    -0.381250996770E+03   -0.25755E-04   -0.25846E-04  9152   0.117E-03-0.100E-05
CGA:  22    -0.381251008667E+03   -0.11897E-04   -0.11894E-04  9152   0.912E-04-0.219E-06
CGA:  23    -0.381251016637E+03   -0.79698E-05   -0.79514E-05  9152   0.529E-04-0.564E-06
  12 F= -.38125102E+03 E0= -.38124468E+03  d E =0.288394E-01  mag=    58.0000
       N       E                     dE             d eps       ncg     rms          ort
SDA:   1    -0.380860589319E+03    0.39042E+00    0.00000E+00  9152   0.134E+01 0.000E+00
CGA:   2    -0.381088897258E+03   -0.22831E+00   -0.22842E+00  9152   0.801E+00-0.167E-02
CGA:   3    -0.381160411793E+03   -0.71515E-01   -0.72688E-01  9152   0.785E+00 0.343E-02
CGA:   4    -0.381235688972E+03   -0.75277E-01   -0.75032E-01  9152   0.160E+00-0.254E-02
CGA:   5    -0.381259746734E+03   -0.24058E-01   -0.24056E-01  9152   0.821E-01 0.604E-04
CGA:   6    -0.381264715041E+03   -0.49683E-02   -0.49569E-02  9152   0.321E-01 0.137E-05
CGA:   7    -0.381268431415E+03   -0.37164E-02   -0.37172E-02  9152   0.119E-01 0.143E-03
CGA:   8    -0.381269532690E+03   -0.11013E-02   -0.10988E-02  9152   0.569E-02-0.227E-04
CGA:   9    -0.381270139288E+03   -0.60660E-03   -0.60674E-03  9152   0.420E-02 0.749E-05
CGA:  10    -0.381270445874E+03   -0.30659E-03   -0.30627E-03  9152   0.113E-02 0.520E-06
CGA:  11    -0.381270648922E+03   -0.20305E-03   -0.20285E-03  9152   0.966E-03 0.295E-05
CGA:  12    -0.381270714605E+03   -0.65683E-04   -0.65621E-04  9152   0.439E-03-0.218E-07
CGA:  13    -0.381270778366E+03   -0.63761E-04   -0.63734E-04  9152   0.296E-03 0.927E-06
CGA:  14    -0.381270812390E+03   -0.34024E-04   -0.34024E-04  9152   0.220E-03-0.160E-06
CGA:  15    -0.381270831889E+03   -0.19499E-04   -0.19519E-04  9152   0.135E-03 0.623E-06
CGA:  16    -0.381270850079E+03   -0.18190E-04   -0.18197E-04  9152   0.952E-04-0.375E-06
CGA:  17    -0.381270860495E+03   -0.10416E-04   -0.10416E-04  9152   0.564E-04 0.588E-07
CGA:  18    -0.381270865526E+03   -0.50313E-05   -0.50195E-05  9152   0.429E-04-0.416E-06
  13 F= -.38127087E+03 E0= -.38126453E+03  d E =-.198489E-01  mag=    58.0000
       N       E                     dE             d eps       ncg     rms          ort
SDA:   1    -0.381266196800E+03    0.46637E-02    0.00000E+00  9152   0.240E-01 0.000E+00
CGA:   2    -0.381268569496E+03   -0.23727E-02   -0.23776E-02  9152   0.256E-01 0.102E-03
CGA:   3    -0.381270654701E+03   -0.20852E-02   -0.20843E-02  9152   0.806E-02-0.440E-05
CGA:   4    -0.381271859208E+03   -0.12045E-02   -0.12035E-02  9152   0.409E-02 0.203E-04
CGA:   5    -0.381272259973E+03   -0.40076E-03   -0.40024E-03  9152   0.148E-02-0.991E-05
CGA:   6    -0.381272400018E+03   -0.14005E-03   -0.14009E-03  9152   0.943E-03 0.167E-05
CGA:   7    -0.381272461960E+03   -0.61942E-04   -0.61813E-04  9152   0.229E-03-0.225E-07
CGA:   8    -0.381272493914E+03   -0.31954E-04   -0.31952E-04  9152   0.884E-04 0.694E-07
CGA:   9    -0.381272504368E+03   -0.10455E-04   -0.10456E-04  9152   0.760E-04-0.265E-06
CGA:  10    -0.381272509641E+03   -0.52723E-05   -0.52823E-05  9152   0.283E-04 0.207E-06
  14 F= -.38127251E+03 E0= -.38126617E+03  d E =-.164411E-02  mag=    58.0000
       N       E                     dE             d eps       ncg     rms          ort
SDA:   1    -0.381045203515E+03    0.22730E+00    0.00000E+00  9152   0.805E+00 0.000E+00
CGA:   2    -0.381152286848E+03   -0.10708E+00   -0.10697E+00  9152   0.860E+00 0.422E-02
CGA:   3    -0.381208354802E+03   -0.56068E-01   -0.56534E-01  9152   0.314E+00-0.640E-02
CGA:   4    -0.381258017464E+03   -0.49663E-01   -0.49792E-01  9152   0.123E+00-0.209E-02
CGA:   5    -0.381269927531E+03   -0.11910E-01   -0.11955E-01  9152   0.648E-01 0.104E-02
CGA:   6    -0.381275238366E+03   -0.53108E-02   -0.52916E-02  9152   0.305E-01-0.806E-04
CGA:   7    -0.381277446587E+03   -0.22082E-02   -0.22202E-02  9152   0.829E-02-0.834E-05
CGA:   8    -0.381278684110E+03   -0.12375E-02   -0.12386E-02  9152   0.319E-02-0.216E-04
CGA:   9    -0.381278958951E+03   -0.27484E-03   -0.27496E-03  9152   0.256E-02 0.232E-05
CGA:  10    -0.381279200422E+03   -0.24147E-03   -0.24141E-03  9152   0.895E-03-0.161E-05
CGA:  11    -0.381279306253E+03   -0.10583E-03   -0.10582E-03  9152   0.508E-03 0.147E-05
CGA:  12    -0.381279366748E+03   -0.60495E-04   -0.60506E-04  9152   0.410E-03-0.672E-06
CGA:  13    -0.381279397664E+03   -0.30916E-04   -0.30952E-04  9152   0.186E-03 0.938E-06
CGA:  14    -0.381279426764E+03   -0.29101E-04   -0.29101E-04  9152   0.113E-03 0.251E-07
CGA:  15    -0.381279440792E+03   -0.14028E-04   -0.14020E-04  9152   0.115E-03 0.529E-06
CGA:  16    -0.381279450760E+03   -0.99673E-05   -0.99576E-05  9152   0.602E-04-0.300E-06
  15 F= -.38127945E+03 E0= -.38127311E+03  d E =-.694112E-02  mag=    58.0000
       N       E                     dE             d eps       ncg     rms          ort
SDA:   1    -0.381263571223E+03    0.15870E-01    0.00000E+00  9152   0.632E-01 0.000E+00
CGA:   2    -0.381270353605E+03   -0.67824E-02   -0.67870E-02  9152   0.659E-01 0.588E-03
CGA:   3    -0.381275449111E+03   -0.50955E-02   -0.50845E-02  9152   0.237E-01-0.285E-04
CGA:   4    -0.381278372093E+03   -0.29230E-02   -0.29188E-02  9152   0.133E-01 0.186E-03
CGA:   5    -0.381279821259E+03   -0.14492E-02   -0.14490E-02  9152   0.335E-02-0.695E-04
CGA:   6    -0.381280197068E+03   -0.37581E-03   -0.37579E-03  9152   0.272E-02 0.418E-05
CGA:   7    -0.381280359785E+03   -0.16272E-03   -0.16233E-03  9152   0.524E-03 0.161E-05
CGA:   8    -0.381280441833E+03   -0.82047E-04   -0.82017E-04  9152   0.291E-03 0.575E-06
CGA:   9    -0.381280469835E+03   -0.28002E-04   -0.27993E-04  9152   0.155E-03-0.494E-06
CGA:  10    -0.381280482981E+03   -0.13147E-04   -0.13156E-04  9152   0.110E-03 0.326E-06
CGA:  11    -0.381280495384E+03   -0.12402E-04   -0.12404E-04  9152   0.427E-04-0.298E-06
CGA:  12    -0.381280502185E+03   -0.68007E-05   -0.67866E-05  9152   0.391E-04 0.271E-06
  16 F= -.38128050E+03 E0= -.38127416E+03  d E =-.105142E-02  mag=    58.0000
       N       E                     dE             d eps       ncg     rms          ort
SDA:   1    -0.380871943955E+03    0.40855E+00    0.00000E+00  9152   0.142E+01 0.000E+00
CGA:   2    -0.381042156148E+03   -0.17021E+00   -0.17059E+00  9152   0.181E+01-0.207E-01
CGA:   3    -0.381164353909E+03   -0.12220E+00   -0.12344E+00  9152   0.501E+00-0.115E-01
CGA:   4    -0.381244663970E+03   -0.80310E-01   -0.80561E-01  9152   0.224E+00-0.384E-02
CGA:   5    -0.381266328856E+03   -0.21665E-01   -0.21807E-01  9152   0.820E-01 0.398E-02
CGA:   6    -0.381275324805E+03   -0.89959E-02   -0.89945E-02  9152   0.443E-01-0.251E-03
CGA:   7    -0.381277882088E+03   -0.25573E-02   -0.25880E-02  9152   0.145E-01-0.228E-03
CGA:   8    -0.381279856924E+03   -0.19748E-02   -0.19761E-02  9152   0.458E-02-0.312E-04
CGA:   9    -0.381280523374E+03   -0.66645E-03   -0.66565E-03  9152   0.278E-02 0.170E-04
CGA:  10    -0.381280755116E+03   -0.23174E-03   -0.23140E-03  9152   0.195E-02-0.267E-05
CGA:  11    -0.381280938665E+03   -0.18355E-03   -0.18359E-03  9152   0.889E-03 0.204E-05
CGA:  12    -0.381281057738E+03   -0.11907E-03   -0.11914E-03  9152   0.518E-03-0.179E-05
CGA:  13    -0.381281139092E+03   -0.81354E-04   -0.81282E-04  9152   0.440E-03 0.152E-05
CGA:  14    -0.381281174396E+03   -0.35304E-04   -0.35288E-04  9152   0.339E-03-0.158E-06
CGA:  15    -0.381281221248E+03   -0.46852E-04   -0.46830E-04  9152   0.160E-03 0.861E-06
CGA:  16    -0.381281248754E+03   -0.27506E-04   -0.27527E-04  9152   0.138E-03-0.345E-06
CGA:  17    -0.381281260934E+03   -0.12180E-04   -0.12184E-04  9152   0.982E-04 0.327E-07
CGA:  18    -0.381281270542E+03   -0.96080E-05   -0.95971E-05  9152   0.599E-04-0.660E-06
  17 F= -.38128127E+03 E0= -.38127491E+03  d E =-.768357E-03  mag=    58.0000
       N       E                     dE             d eps       ncg     rms          ort
SDA:   1    -0.380909398864E+03    0.37186E+00    0.00000E+00  9152   0.107E+01 0.000E+00
CGA:   2    -0.381137976147E+03   -0.22858E+00   -0.22609E+00  9152   0.900E+00 0.246E-01
CGA:   3    -0.381203257331E+03   -0.65281E-01   -0.64414E-01  9152   0.507E+00-0.540E-02
CGA:   4    -0.381248335770E+03   -0.45078E-01   -0.45453E-01  9152   0.225E+00 0.272E-02
CGA:   5    -0.381269695560E+03   -0.21360E-01   -0.21524E-01  9152   0.569E-01 0.231E-02
CGA:   6    -0.381274712993E+03   -0.50174E-02   -0.50228E-02  9152   0.429E-01 0.256E-04
CGA:   7    -0.381277417220E+03   -0.27042E-02   -0.27378E-02  9152   0.116E-01-0.176E-03
CGA:   8    -0.381278907654E+03   -0.14904E-02   -0.14888E-02  9152   0.510E-02 0.596E-04
CGA:   9    -0.381279311322E+03   -0.40367E-03   -0.40359E-03  9152   0.391E-02-0.200E-05
CGA:  10    -0.381279623421E+03   -0.31210E-03   -0.31267E-03  9152   0.148E-02 0.295E-05
CGA:  11    -0.381279810955E+03   -0.18753E-03   -0.18742E-03  9152   0.892E-03 0.373E-05
CGA:  12    -0.381279910161E+03   -0.99206E-04   -0.99210E-04  9152   0.109E-02-0.149E-05
CGA:  13    -0.381279996365E+03   -0.86203E-04   -0.86306E-04  9152   0.492E-03 0.147E-05
CGA:  14    -0.381280078094E+03   -0.81729E-04   -0.81548E-04  9152   0.410E-03 0.291E-05
CGA:  15    -0.381280124057E+03   -0.45964E-04   -0.45963E-04  9152   0.538E-03 0.498E-06
CGA:  16    -0.381280168117E+03   -0.44060E-04   -0.44122E-04  9152   0.197E-03 0.163E-05
CGA:  17    -0.381280194988E+03   -0.26870E-04   -0.26857E-04  9152   0.151E-03 0.368E-06
CGA:  18    -0.381280211170E+03   -0.16182E-04   -0.16179E-04  9152   0.146E-03-0.913E-06
CGA:  19    -0.381280220614E+03   -0.94439E-05   -0.94423E-05  9152   0.427E-04-0.233E-06
  18 F= -.38128022E+03 E0= -.38127382E+03  d E =0.104993E-02  mag=    58.0000
       N       E                     dE             d eps       ncg     rms          ort
SDA:   1    -0.380514213191E+03    0.76600E+00    0.00000E+00  9152   0.224E+01 0.000E+00
CGA:   2    -0.380876145667E+03   -0.36193E+00   -0.35492E+00  9152   0.304E+01 0.127E+00
CGA:   3    -0.381109006214E+03   -0.23286E+00   -0.22261E+00  9152   0.859E+00-0.301E-01
CGA:   4    -0.381232887845E+03   -0.12388E+00   -0.12405E+00  9152   0.356E+00-0.341E-02
CGA:   5    -0.381256971117E+03   -0.24083E-01   -0.23642E-01  9152   0.159E+00 0.107E-02
CGA:   6    -0.381272797323E+03   -0.15826E-01   -0.15838E-01  9152   0.484E-01 0.395E-03
CGA:   7    -0.381277312147E+03   -0.45148E-02   -0.45064E-02  9152   0.266E-01-0.151E-03
CGA:   8    -0.381279516370E+03   -0.22042E-02   -0.22025E-02  9152   0.118E-01-0.652E-05
CGA:   9    -0.381280648755E+03   -0.11324E-02   -0.11313E-02  9152   0.513E-02-0.303E-04
CGA:  10    -0.381281156481E+03   -0.50773E-03   -0.50799E-03  9152   0.279E-02 0.144E-04
CGA:  11    -0.381281400325E+03   -0.24384E-03   -0.24374E-03  9152   0.169E-02-0.272E-05
CGA:  12    -0.381281591851E+03   -0.19153E-03   -0.19153E-03  9152   0.730E-03-0.178E-06
CGA:  13    -0.381281677217E+03   -0.85366E-04   -0.85372E-04  9152   0.863E-03-0.543E-06
CGA:  14    -0.381281766235E+03   -0.89018E-04   -0.89031E-04  9152   0.343E-03 0.258E-05
CGA:  15    -0.381281817912E+03   -0.51677E-04   -0.51670E-04  9152   0.428E-03 0.324E-06
CGA:  16    -0.381281854701E+03   -0.36789E-04   -0.36826E-04  9152   0.205E-03 0.158E-05
CGA:  17    -0.381281882060E+03   -0.27359E-04   -0.27363E-04  9152   0.147E-03-0.178E-06
CGA:  18    -0.381281896093E+03   -0.14033E-04   -0.14037E-04  9152   0.996E-04 0.278E-06
CGA:  19    -0.381281906747E+03   -0.10654E-04   -0.10653E-04  9152   0.635E-04-0.467E-06
CGA:  20    -0.381281913383E+03   -0.66360E-05   -0.66371E-05  9152   0.334E-04 0.268E-06
  19 F= -.38128191E+03 E0= -.38127548E+03  d E =-.169277E-02  mag=    58.0000
       N       E                     dE             d eps       ncg     rms          ort
SDA:   1    -0.374316867556E+03    0.69650E+01    0.00000E+00  9152   0.218E+02 0.000E+00
CGA:   2    -0.377008583833E+03   -0.26917E+01   -0.27052E+01  9152   0.352E+02-0.933E+00
CGA:   3    -0.379610626590E+03   -0.26020E+01   -0.27062E+01  9152   0.930E+01 0.933E+00
CGA:   4    -0.380489024210E+03   -0.87840E+00   -0.90336E+00  9152   0.640E+01 0.651E+00
CGA:   5    -0.380895388054E+03   -0.40636E+00   -0.37693E+00  9152   0.246E+01-0.354E-01
CGA:   6    -0.381125003782E+03   -0.22962E+00   -0.22340E+00  9152   0.890E+00-0.173E+00
CGA:   7    -0.381193219871E+03   -0.68216E-01   -0.68752E-01  9152   0.605E+00 0.472E-02
CGA:   8    -0.381229476923E+03   -0.36257E-01   -0.34812E-01  9152   0.142E+00 0.756E-02
CGA:   9    -0.381252409950E+03   -0.22933E-01   -0.23010E-01  9152   0.458E-01-0.111E-02
CGA:  10    -0.381259327073E+03   -0.69171E-02   -0.68775E-02  9152   0.271E-01 0.679E-03
CGA:  11    -0.381261708188E+03   -0.23811E-02   -0.23822E-02  9152   0.196E-01 0.114E-04
CGA:  12    -0.381263143233E+03   -0.14350E-02   -0.14398E-02  9152   0.843E-02 0.165E-04
CGA:  13    -0.381264399864E+03   -0.12566E-02   -0.12535E-02  9152   0.419E-02 0.568E-04
CGA:  14    -0.381265140554E+03   -0.74069E-03   -0.74152E-03  9152   0.310E-02-0.103E-04
CGA:  15    -0.381265518807E+03   -0.37825E-03   -0.37812E-03  9152   0.361E-02 0.763E-05
CGA:  16    -0.381265783875E+03   -0.26507E-03   -0.26490E-03  9152   0.154E-02 0.378E-07
CGA:  17    -0.381266033831E+03   -0.24996E-03   -0.25016E-03  9152   0.952E-03-0.286E-05
CGA:  18    -0.381266170721E+03   -0.13689E-03   -0.13671E-03  9152   0.500E-03 0.429E-05
CGA:  19    -0.381266253574E+03   -0.82853E-04   -0.82870E-04  9152   0.509E-03-0.310E-06
CGA:  20    -0.381266287171E+03   -0.33597E-04   -0.33686E-04  9152   0.273E-03 0.894E-06
CGA:  21    -0.381266328357E+03   -0.41186E-04   -0.41130E-04  9152   0.164E-03 0.137E-05
CGA:  22    -0.381266354801E+03   -0.26444E-04   -0.26424E-04  9152   0.106E-03 0.496E-06
CGA:  23    -0.381266374624E+03   -0.19823E-04   -0.19793E-04  9152   0.627E-04 0.406E-06
CGA:  24    -0.381266384332E+03   -0.97085E-05   -0.97336E-05  9152   0.730E-04-0.728E-06
  20 F= -.38126638E+03 E0= -.38126001E+03  d E =0.155291E-01  mag=    58.0000
       N       E                     dE             d eps       ncg     rms          ort
SDA:   1    -0.381070140557E+03    0.19623E+00    0.00000E+00  9152   0.750E+00 0.000E+00
CGA:   2    -0.381157143375E+03   -0.87003E-01   -0.87081E-01  9152   0.790E+00 0.104E-01
CGA:   3    -0.381214229531E+03   -0.57086E-01   -0.56138E-01  9152   0.281E+00 0.117E-02
CGA:   4    -0.381252699778E+03   -0.38470E-01   -0.38458E-01  9152   0.145E+00 0.463E-03
CGA:   5    -0.381267228974E+03   -0.14529E-01   -0.14546E-01  9152   0.455E-01 0.265E-03
CGA:   6    -0.381272008785E+03   -0.47798E-02   -0.47876E-02  9152   0.341E-01 0.247E-03
CGA:   7    -0.381274105526E+03   -0.20967E-02   -0.20890E-02  9152   0.711E-02 0.400E-04
CGA:   8    -0.381275190639E+03   -0.10851E-02   -0.10845E-02  9152   0.299E-02 0.139E-04
CGA:   9    -0.381275481559E+03   -0.29092E-03   -0.29094E-03  9152   0.236E-02 0.632E-06
CGA:  10    -0.381275665085E+03   -0.18353E-03   -0.18392E-03  9152   0.935E-03 0.262E-05
CGA:  11    -0.381275783701E+03   -0.11862E-03   -0.11863E-03  9152   0.483E-03-0.786E-06
CGA:  12    -0.381275843785E+03   -0.60084E-04   -0.60082E-04  9152   0.368E-03-0.246E-07
CGA:  13    -0.381275873656E+03   -0.29871E-04   -0.29840E-04  9152   0.247E-03-0.909E-06
CGA:  14    -0.381275904023E+03   -0.30367E-04   -0.30358E-04  9152   0.108E-03 0.667E-06
CGA:  15    -0.381275922803E+03   -0.18780E-04   -0.18767E-04  9152   0.119E-03 0.217E-06
CGA:  16    -0.381275931381E+03   -0.85782E-05   -0.86058E-05  9152   0.645E-04 0.608E-06
  21 F= -.38127593E+03 E0= -.38126955E+03  d E =-.954705E-02  mag=    58.0000
       N       E                     dE             d eps       ncg     rms          ort
SDA:   1    -0.381270145221E+03    0.57776E-02    0.00000E+00  9152   0.356E-01 0.000E+00
CGA:   2    -0.381272984142E+03   -0.28389E-02   -0.28395E-02  9152   0.188E-01-0.101E-04
CGA:   3    -0.381274899653E+03   -0.19155E-02   -0.19165E-02  9152   0.159E-01 0.376E-04
CGA:   4    -0.381276123860E+03   -0.12242E-02   -0.12195E-02  9152   0.441E-02-0.685E-05
CGA:   5    -0.381276872495E+03   -0.74863E-03   -0.74862E-03  9152   0.132E-02 0.113E-06
CGA:   6    -0.381276993543E+03   -0.12105E-03   -0.12102E-03  9152   0.113E-02-0.113E-05
CGA:   7    -0.381277076058E+03   -0.82515E-04   -0.82629E-04  9152   0.206E-03 0.856E-06
CGA:   8    -0.381277104955E+03   -0.28898E-04   -0.28897E-04  9152   0.118E-03 0.894E-07
CGA:   9    -0.381277116034E+03   -0.11078E-04   -0.11090E-04  9152   0.803E-04 0.545E-06
CGA:  10    -0.381277122545E+03   -0.65110E-05   -0.65082E-05  9152   0.390E-04-0.967E-07
  22 F= -.38127712E+03 E0= -.38127073E+03  d E =-.119116E-02  mag=    58.0000
       N       E                     dE             d eps       ncg     rms          ort
SDA:   1    -0.380505354808E+03    0.77176E+00    0.00000E+00  9152   0.304E+01 0.000E+00
CGA:   2    -0.380807799446E+03   -0.30244E+00   -0.30630E+00  9152   0.266E+01 0.152E+00
CGA:   3    -0.381048009368E+03   -0.24021E+00   -0.23503E+00  9152   0.145E+01-0.569E-01
CGA:   4    -0.381181868352E+03   -0.13386E+00   -0.13415E+00  9152   0.535E+00 0.436E-02
CGA:   5    -0.381251094339E+03   -0.69226E-01   -0.69194E-01  9152   0.154E+00 0.124E-02
CGA:   6    -0.381269349268E+03   -0.18255E-01   -0.18223E-01  9152   0.100E+00 0.214E-02
CGA:   7    -0.381275232951E+03   -0.58837E-02   -0.58446E-02  9152   0.294E-01 0.210E-03
CGA:   8    -0.381278705568E+03   -0.34726E-02   -0.34676E-02  9152   0.118E-01 0.287E-03
CGA:   9    -0.381280111613E+03   -0.14060E-02   -0.14078E-02  9152   0.474E-02-0.102E-03
CGA:  10    -0.381280743750E+03   -0.63214E-03   -0.63172E-03  9152   0.424E-02 0.118E-04
CGA:  11    -0.381281009344E+03   -0.26559E-03   -0.26475E-03  9152   0.148E-02 0.194E-05
CGA:  12    -0.381281237033E+03   -0.22769E-03   -0.22774E-03  9152   0.963E-03-0.939E-06
CGA:  13    -0.381281360964E+03   -0.12393E-03   -0.12394E-03  9152   0.541E-03-0.401E-06
CGA:  14    -0.381281418756E+03   -0.57792E-04   -0.57801E-04  9152   0.625E-03 0.184E-05
CGA:  15    -0.381281480365E+03   -0.61609E-04   -0.61605E-04  9152   0.258E-03 0.259E-07
CGA:  16    -0.381281518349E+03   -0.37984E-04   -0.37922E-04  9152   0.166E-03 0.152E-05
CGA:  17    -0.381281541982E+03   -0.23633E-04   -0.23641E-04  9152   0.167E-03-0.252E-06
CGA:  18    -0.381281553534E+03   -0.11553E-04   -0.11576E-04  9152   0.713E-04 0.334E-06
CGA:  19    -0.381281563373E+03   -0.98384E-05   -0.98448E-05  9152   0.468E-04-0.244E-06
  23 F= -.38128156E+03 E0= -.38127512E+03  d E =-.444083E-02  mag=    58.0000
       N       E                     dE             d eps       ncg     rms          ort
SDA:   1    -0.381226760705E+03    0.54793E-01    0.00000E+00  9152   0.190E+00 0.000E+00
CGA:   2    -0.381253089092E+03   -0.26328E-01   -0.26529E-01  9152   0.158E+00-0.529E-02
CGA:   3    -0.381268825452E+03   -0.15736E-01   -0.15778E-01  9152   0.822E-01 0.121E-02
CGA:   4    -0.381275092036E+03   -0.62666E-02   -0.62278E-02  9152   0.502E-01 0.501E-05
CGA:   5    -0.381279749116E+03   -0.46571E-02   -0.46657E-02  9152   0.101E-01 0.132E-03
CGA:   6    -0.381281246518E+03   -0.14974E-02   -0.14983E-02  9152   0.493E-02-0.183E-04
CGA:   7    -0.381281541552E+03   -0.29503E-03   -0.29582E-03  9152   0.220E-02-0.494E-05
CGA:   8    -0.381281796497E+03   -0.25495E-03   -0.25494E-03  9152   0.587E-03-0.139E-05
CGA:   9    -0.381281877621E+03   -0.81124E-04   -0.81132E-04  9152   0.501E-03-0.155E-06
CGA:  10    -0.381281909664E+03   -0.32043E-04   -0.31983E-04  9152   0.181E-03-0.303E-06
CGA:  11    -0.381281933684E+03   -0.24020E-04   -0.24001E-04  9152   0.859E-04 0.820E-06
CGA:  12    -0.381281943341E+03   -0.96571E-05   -0.96572E-05  9152   0.665E-04-0.274E-08
  24 F= -.38128194E+03 E0= -.38127551E+03  d E =-.379968E-03  mag=    58.0000
       N       E                     dE             d eps       ncg     rms          ort
SDA:   1    -0.381265653636E+03    0.16280E-01    0.00000E+00  9152   0.913E-01 0.000E+00
CGA:   2    -0.381270584334E+03   -0.49307E-02   -0.50072E-02  9152   0.515E-01-0.769E-03
CGA:   3    -0.381278333351E+03   -0.77490E-02   -0.77497E-02  9152   0.175E-01-0.998E-05
CGA:   4    -0.381281024896E+03   -0.26915E-02   -0.26940E-02  9152   0.578E-02-0.436E-04
CGA:   5    -0.381281774705E+03   -0.74981E-03   -0.75005E-03  9152   0.494E-02-0.969E-05
CGA:   6    -0.381282025590E+03   -0.25088E-03   -0.25164E-03  9152   0.686E-03-0.667E-05
CGA:   7    -0.381282141640E+03   -0.11605E-03   -0.11595E-03  9152   0.265E-03 0.168E-05
CGA:   8    -0.381282167686E+03   -0.26046E-04   -0.26060E-04  9152   0.167E-03 0.827E-06
CGA:   9    -0.381282181011E+03   -0.13325E-04   -0.13309E-04  9152   0.927E-04-0.456E-06
CGA:  10    -0.381282190141E+03   -0.91300E-05   -0.91278E-05  9152   0.348E-04-0.214E-06
  25 F= -.38128219E+03 E0= -.38127575E+03  d E =-.246800E-03  mag=    58.0000
       N       E                     dE             d eps       ncg     rms          ort
SDA:   1    -0.381076835016E+03    0.20535E+00    0.00000E+00  9152   0.675E+00 0.000E+00
CGA:   2    -0.381178392773E+03   -0.10156E+00   -0.99387E-01  9152   0.483E+00 0.452E-01
CGA:   3    -0.381248285894E+03   -0.69893E-01   -0.71479E-01  9152   0.196E+00-0.411E-01
CGA:   4    -0.381271079651E+03   -0.22794E-01   -0.22782E-01  9152   0.693E-01 0.536E-03
CGA:   5    -0.381276694033E+03   -0.56144E-02   -0.56688E-02  9152   0.498E-01 0.149E-03
CGA:   6    -0.381280322379E+03   -0.36283E-02   -0.36139E-02  9152   0.885E-02 0.551E-05
CGA:   7    -0.381281387409E+03   -0.10650E-02   -0.10638E-02  9152   0.407E-02 0.774E-04
CGA:   8    -0.381281879368E+03   -0.49196E-03   -0.49215E-03  9152   0.149E-02-0.131E-04
CGA:   9    -0.381282001958E+03   -0.12259E-03   -0.12265E-03  9152   0.122E-02 0.824E-06
CGA:  10    -0.381282117548E+03   -0.11559E-03   -0.11553E-03  9152   0.375E-03-0.249E-05
CGA:  11    -0.381282164679E+03   -0.47132E-04   -0.47145E-04  9152   0.203E-03-0.716E-06
CGA:  12    -0.381282193878E+03   -0.29199E-04   -0.29224E-04  9152   0.180E-03-0.685E-06
CGA:  13    -0.381282206764E+03   -0.12886E-04   -0.12907E-04  9152   0.102E-03 0.416E-06
CGA:  14    -0.381282221544E+03   -0.14780E-04   -0.14786E-04  9152   0.688E-04-0.132E-06
CGA:  15    -0.381282232100E+03   -0.10556E-04   -0.10537E-04  9152   0.432E-04 0.426E-06
CGA:  16    -0.381282236830E+03   -0.47302E-05   -0.47291E-05  9152   0.454E-04-0.246E-06
  26 F= -.38128224E+03 E0= -.38127576E+03  d E =-.466893E-04  mag=    58.0000
       N       E                     dE             d eps       ncg     rms          ort
SDA:   1    -0.381092631535E+03    0.18960E+00    0.00000E+00  9152   0.584E+00 0.000E+00
CGA:   2    -0.381193147367E+03   -0.10052E+00   -0.10047E+00  9152   0.506E+00 0.129E-02
CGA:   3    -0.381241544616E+03   -0.48397E-01   -0.47687E-01  9152   0.283E+00-0.983E-02
CGA:   4    -0.381263166760E+03   -0.21622E-01   -0.21819E-01  9152   0.141E+00 0.108E-03
CGA:   5    -0.381275683711E+03   -0.12517E-01   -0.12428E-01  9152   0.332E-01-0.884E-03
CGA:   6    -0.381279840466E+03   -0.41568E-02   -0.41566E-02  9152   0.193E-01 0.963E-05
CGA:   7    -0.381281029340E+03   -0.11889E-02   -0.11831E-02  9152   0.700E-02 0.292E-04
CGA:   8    -0.381281807947E+03   -0.77861E-03   -0.77858E-03  9152   0.243E-02 0.929E-05
CGA:   9    -0.381282105499E+03   -0.29755E-03   -0.29766E-03  9152   0.185E-02-0.587E-05
CGA:  10    -0.381282227940E+03   -0.12244E-03   -0.12255E-03  9152   0.659E-03 0.698E-06
CGA:  11    -0.381282317952E+03   -0.90012E-04   -0.90053E-04  9152   0.414E-03-0.116E-05
CGA:  12    -0.381282358302E+03   -0.40350E-04   -0.40365E-04  9152   0.228E-03 0.873E-06
CGA:  13    -0.381282379713E+03   -0.21411E-04   -0.21401E-04  9152   0.186E-03-0.523E-06
CGA:  14    -0.381282402073E+03   -0.22360E-04   -0.22355E-04  9152   0.774E-04 0.369E-06
CGA:  15    -0.381282413310E+03   -0.11236E-04   -0.11250E-04  9152   0.954E-04-0.365E-06
CGA:  16    -0.381282420749E+03   -0.74388E-05   -0.74492E-05  9152   0.427E-04 0.293E-06
  27 F= -.38128242E+03 E0= -.38127594E+03  d E =-.183919E-03  mag=    58.0000
       N       E                     dE             d eps       ncg     rms          ort
SDA:   1    -0.381203838325E+03    0.78575E-01    0.00000E+00  9152   0.274E+00 0.000E+00
CGA:   2    -0.381235548410E+03   -0.31710E-01   -0.31746E-01  9152   0.312E+00-0.378E-02
CGA:   3    -0.381260752965E+03   -0.25205E-01   -0.25212E-01  9152   0.137E+00-0.165E-03
CGA:   4    -0.381273250448E+03   -0.12497E-01   -0.12465E-01  9152   0.559E-01-0.568E-03
CGA:   5    -0.381280011553E+03   -0.67611E-02   -0.67616E-02  9152   0.147E-01-0.206E-04
CGA:   6    -0.381281666113E+03   -0.16546E-02   -0.16548E-02  9152   0.118E-01-0.480E-04
CGA:   7    -0.381282337609E+03   -0.67150E-03   -0.67252E-03  9152   0.224E-02-0.731E-05
CGA:   8    -0.381282700859E+03   -0.36325E-03   -0.36333E-03  9152   0.775E-03-0.132E-05
CGA:   9    -0.381282780333E+03   -0.79474E-04   -0.79486E-04  9152   0.754E-03 0.138E-05
CGA:  10    -0.381282840710E+03   -0.60377E-04   -0.60351E-04  9152   0.230E-03-0.265E-06
CGA:  11    -0.381282866112E+03   -0.25402E-04   -0.25400E-04  9152   0.129E-03 0.541E-06
CGA:  12    -0.381282883395E+03   -0.17283E-04   -0.17285E-04  9152   0.841E-04-0.711E-07
CGA:  13    -0.381282889513E+03   -0.61177E-05   -0.61289E-05  9152   0.510E-04 0.301E-06
  28 F= -.38128289E+03 E0= -.38127642E+03  d E =-.468764E-03  mag=    58.0000
       N       E                     dE             d eps       ncg     rms          ort
SDA:   1    -0.381017895752E+03    0.26499E+00    0.00000E+00  9152   0.875E+00 0.000E+00
CGA:   2    -0.381123968244E+03   -0.10607E+00   -0.10628E+00  9152   0.105E+01-0.893E-02
CGA:   3    -0.381211819232E+03   -0.87851E-01   -0.87547E-01  9152   0.488E+00-0.431E-02
CGA:   4    -0.381253437388E+03   -0.41618E-01   -0.41627E-01  9152   0.159E+00-0.721E-03
CGA:   5    -0.381272699851E+03   -0.19262E-01   -0.19257E-01  9152   0.540E-01 0.271E-03
CGA:   6    -0.381278234151E+03   -0.55343E-02   -0.55295E-02  9152   0.349E-01-0.377E-03
CGA:   7    -0.381280217614E+03   -0.19835E-02   -0.19889E-02  9152   0.754E-02-0.454E-04
CGA:   8    -0.381281367920E+03   -0.11503E-02   -0.11510E-02  9152   0.265E-02-0.115E-04
CGA:   9    -0.381281656345E+03   -0.28842E-03   -0.28841E-03  9152   0.219E-02 0.450E-05
CGA:  10    -0.381281804709E+03   -0.14836E-03   -0.14814E-03  9152   0.735E-03-0.297E-06
CGA:  11    -0.381281911602E+03   -0.10689E-03   -0.10683E-03  9152   0.249E-03 0.148E-05
CGA:  12    -0.381281939370E+03   -0.27769E-04   -0.27772E-04  9152   0.283E-03-0.605E-06
CGA:  13    -0.381281965147E+03   -0.25777E-04   -0.25785E-04  9152   0.114E-03 0.443E-06
CGA:  14    -0.381281976960E+03   -0.11813E-04   -0.11811E-04  9152   0.645E-04-0.405E-06
CGA:  15    -0.381281988039E+03   -0.11078E-04   -0.11057E-04  9152   0.611E-04 0.335E-06
CGA:  16    -0.381281991995E+03   -0.39568E-05   -0.39496E-05  9152   0.271E-04-0.119E-06
  29 F= -.38128199E+03 E0= -.38127555E+03  d E =0.897518E-03  mag=    58.0000
       N       E                     dE             d eps       ncg     rms          ort
SDA:   1    -0.380796288961E+03    0.48570E+00    0.00000E+00  9152   0.140E+01 0.000E+00
CGA:   2    -0.381049345785E+03   -0.25306E+00   -0.26066E+00  9152   0.159E+01-0.828E-01
CGA:   3    -0.381190830436E+03   -0.14148E+00   -0.14355E+00  9152   0.477E+00 0.320E-01
CGA:   4    -0.381242768842E+03   -0.51938E-01   -0.51928E-01  9152   0.400E+00-0.719E-03
CGA:   5    -0.381265122728E+03   -0.22354E-01   -0.23068E-01  9152   0.731E-01-0.640E-02
CGA:   6    -0.381275390045E+03   -0.10267E-01   -0.10268E-01  9152   0.258E-01-0.662E-05
CGA:   7    -0.381278005334E+03   -0.26153E-02   -0.26177E-02  9152   0.131E-01 0.923E-04
CGA:   8    -0.381279083052E+03   -0.10777E-02   -0.10772E-02  9152   0.793E-02-0.676E-05
CGA:   9    -0.381279729523E+03   -0.64647E-03   -0.64718E-03  9152   0.278E-02 0.426E-05
CGA:  10    -0.381280065809E+03   -0.33629E-03   -0.33634E-03  9152   0.104E-02-0.311E-05
CGA:  11    -0.381280217555E+03   -0.15175E-03   -0.15164E-03  9152   0.933E-03 0.263E-05
CGA:  12    -0.381280273496E+03   -0.55940E-04   -0.55906E-04  9152   0.331E-03-0.122E-06
CGA:  13    -0.381280339307E+03   -0.65811E-04   -0.65641E-04  9152   0.191E-03 0.189E-05
CGA:  14    -0.381280364144E+03   -0.24837E-04   -0.24837E-04  9152   0.241E-03 0.106E-07
CGA:  15    -0.381280383493E+03   -0.19350E-04   -0.19374E-04  9152   0.105E-03 0.600E-06
CGA:  16    -0.381280399964E+03   -0.16471E-04   -0.16497E-04  9152   0.778E-04-0.571E-06
CGA:  17    -0.381280408462E+03   -0.84984E-05   -0.84982E-05  9152   0.479E-04-0.139E-07
  30 F= -.38128041E+03 E0= -.38127402E+03  d E =0.158353E-02  mag=    58.0000
       N       E                     dE             d eps       ncg     rms          ort
SDA:   1    -0.378671244674E+03    0.26092E+01    0.00000E+00  9152   0.947E+01 0.000E+00
CGA:   2    -0.379945370100E+03   -0.12741E+01   -0.12475E+01  9152   0.575E+01 0.908E+00
CGA:   3    -0.380537995776E+03   -0.59263E+00   -0.61079E+00  9152   0.523E+01 0.311E+00
CGA:   4    -0.380934926412E+03   -0.39693E+00   -0.33670E+00  9152   0.164E+01 0.166E+00
CGA:   5    -0.381124683693E+03   -0.18976E+00   -0.18983E+00  9152   0.156E+01-0.294E-01
CGA:   6    -0.381196958902E+03   -0.72275E-01   -0.74594E-01  9152   0.390E+00-0.494E-01
CGA:   7    -0.381235874056E+03   -0.38915E-01   -0.38682E-01  9152   0.171E+00-0.204E-01
CGA:   8    -0.381251194841E+03   -0.15321E-01   -0.15283E-01  9152   0.953E-01-0.112E-02
CGA:   9    -0.381256598282E+03   -0.54034E-02   -0.54645E-02  9152   0.347E-01-0.503E-03
CGA:  10    -0.381261167772E+03   -0.45695E-02   -0.45837E-02  9152   0.153E-01-0.354E-03
CGA:  11    -0.381263136467E+03   -0.19687E-02   -0.19574E-02  9152   0.717E-02 0.322E-03
CGA:  12    -0.381263829588E+03   -0.69312E-03   -0.69381E-03  9152   0.662E-02 0.228E-04
CGA:  13    -0.381264372942E+03   -0.54335E-03   -0.54274E-03  9152   0.295E-02-0.712E-05
CGA:  14    -0.381264732228E+03   -0.35929E-03   -0.35817E-03  9152   0.116E-02 0.429E-04
CGA:  15    -0.381264938938E+03   -0.20671E-03   -0.20681E-03  9152   0.115E-02-0.106E-05
CGA:  16    -0.381265039015E+03   -0.10008E-03   -0.10003E-03  9152   0.897E-03-0.367E-06
CGA:  17    -0.381265111675E+03   -0.72660E-04   -0.72889E-04  9152   0.346E-03 0.271E-05
CGA:  18    -0.381265179786E+03   -0.68111E-04   -0.68194E-04  9152   0.281E-03-0.862E-06
CGA:  19    -0.381265211124E+03   -0.31338E-04   -0.31338E-04  9152   0.153E-03 0.188E-06
CGA:  20    -0.381265223737E+03   -0.12612E-04   -0.12628E-04  9152   0.150E-03 0.449E-06
CGA:  21    -0.381265244763E+03   -0.21026E-04   -0.21036E-04  9152   0.586E-04-0.297E-06
CGA:  22    -0.381265253212E+03   -0.84489E-05   -0.84527E-05  9152   0.461E-04-0.146E-06
  31 F= -.38126525E+03 E0= -.38125873E+03  d E =0.151553E-01  mag=    58.0000
       N       E                     dE             d eps       ncg     rms          ort
SDA:   1    -0.381107810822E+03    0.15743E+00    0.00000E+00  9152   0.581E+00 0.000E+00
CGA:   2    -0.381188064374E+03   -0.80254E-01   -0.79886E-01  9152   0.481E+00 0.115E-01
CGA:   3    -0.381226387241E+03   -0.38323E-01   -0.37316E-01  9152   0.283E+00 0.326E-04
CGA:   4    -0.381254579328E+03   -0.28192E-01   -0.28327E-01  9152   0.131E+00 0.306E-02
CGA:   5    -0.381268469893E+03   -0.13891E-01   -0.13834E-01  9152   0.333E-01-0.232E-02
CGA:   6    -0.381273142122E+03   -0.46722E-02   -0.46651E-02  9152   0.163E-01 0.178E-03
CGA:   7    -0.381274139217E+03   -0.99709E-03   -0.99528E-03  9152   0.737E-02 0.462E-05
CGA:   8    -0.381274927472E+03   -0.78826E-03   -0.78836E-03  9152   0.277E-02 0.801E-05
CGA:   9    -0.381275239340E+03   -0.31187E-03   -0.31187E-03  9152   0.111E-02-0.941E-07
CGA:  10    -0.381275373086E+03   -0.13375E-03   -0.13371E-03  9152   0.980E-03 0.297E-05
CGA:  11    -0.381275439231E+03   -0.66145E-04   -0.66121E-04  9152   0.343E-03-0.256E-06
CGA:  12    -0.381275483846E+03   -0.44615E-04   -0.44583E-04  9152   0.173E-03 0.134E-05
CGA:  13    -0.381275508133E+03   -0.24287E-04   -0.24302E-04  9152   0.124E-03-0.429E-06
CGA:  14    -0.381275517038E+03   -0.89048E-05   -0.89174E-05  9152   0.704E-04 0.292E-06
  32 F= -.38127552E+03 E0= -.38126901E+03  d E =-.102638E-01  mag=    58.0000
       N       E                     dE             d eps       ncg     rms          ort
SDA:   1    -0.381245217482E+03    0.30291E-01    0.00000E+00  9152   0.118E+00 0.000E+00
CGA:   2    -0.381259393096E+03   -0.14176E-01   -0.14186E-01  9152   0.136E+00-0.710E-03
CGA:   3    -0.381268279250E+03   -0.88862E-02   -0.89284E-02  9152   0.441E-01-0.243E-03
CGA:   4    -0.381275606625E+03   -0.73274E-02   -0.73282E-02  9152   0.152E-01-0.116E-04
CGA:   5    -0.381277380767E+03   -0.17741E-02   -0.17737E-02  9152   0.842E-02 0.594E-04
CGA:   6    -0.381277989581E+03   -0.60881E-03   -0.60818E-03  9152   0.381E-02-0.853E-06
CGA:   7    -0.381278284894E+03   -0.29531E-03   -0.29572E-03  9152   0.134E-02 0.161E-05
CGA:   8    -0.381278447339E+03   -0.16245E-03   -0.16247E-03  9152   0.461E-03-0.185E-05
CGA:   9    -0.381278503838E+03   -0.56499E-04   -0.56491E-04  9152   0.339E-03 0.485E-06
CGA:  10    -0.381278526532E+03   -0.22694E-04   -0.22669E-04  9152   0.157E-03-0.349E-06
CGA:  11    -0.381278546649E+03   -0.20117E-04   -0.20102E-04  9152   0.542E-04 0.714E-06
CGA:  12    -0.381278554861E+03   -0.82120E-05   -0.82160E-05  9152   0.535E-04-0.877E-07
  33 F= -.38127855E+03 E0= -.38127205E+03  d E =-.303782E-02  mag=    58.0000
       N       E                     dE             d eps       ncg     rms          ort
SDA:   1    -0.381067367195E+03    0.21118E+00    0.00000E+00  9152   0.728E+00 0.000E+00
CGA:   2    -0.381177433644E+03   -0.11007E+00   -0.11050E+00  9152   0.511E+00-0.727E-02
CGA:   3    -0.381232697181E+03   -0.55264E-01   -0.55235E-01  9152   0.290E+00-0.604E-02
CGA:   4    -0.381259189900E+03   -0.26493E-01   -0.26595E-01  9152   0.198E+00 0.161E-02
CGA:   5    -0.381273010444E+03   -0.13821E-01   -0.13675E-01  9152   0.412E-01 0.156E-03
CGA:   6    -0.381279230799E+03   -0.62204E-02   -0.62177E-02  9152   0.183E-01 0.524E-04
CGA:   7    -0.381280383509E+03   -0.11527E-02   -0.11491E-02  9152   0.890E-02 0.107E-04
CGA:   8    -0.381281407147E+03   -0.10236E-02   -0.10235E-02  9152   0.287E-02 0.116E-04
CGA:   9    -0.381281720570E+03   -0.31342E-03   -0.31343E-03  9152   0.196E-02-0.567E-05
CGA:  10    -0.381281874069E+03   -0.15350E-03   -0.15363E-03  9152   0.102E-02 0.210E-05
CGA:  11    -0.381281983336E+03   -0.10927E-03   -0.10927E-03  9152   0.432E-03-0.271E-06
CGA:  12    -0.381282031603E+03   -0.48267E-04   -0.48258E-04  9152   0.307E-03 0.161E-05
CGA:  13    -0.381282060036E+03   -0.28432E-04   -0.28423E-04  9152   0.212E-03-0.473E-06
CGA:  14    -0.381282080867E+03   -0.20831E-04   -0.20834E-04  9152   0.774E-04 0.249E-06
CGA:  15    -0.381282093734E+03   -0.12867E-04   -0.12902E-04  9152   0.107E-03-0.561E-06
CGA:  16    -0.381282101077E+03   -0.73430E-05   -0.73531E-05  9152   0.336E-04 0.220E-06
  34 F= -.38128210E+03 E0= -.38127562E+03  d E =-.354622E-02  mag=    58.0000
       N       E                     dE             d eps       ncg     rms          ort
SDA:   1    -0.381275872608E+03    0.62211E-02    0.00000E+00  9152   0.417E-01 0.000E+00
CGA:   2    -0.381277973412E+03   -0.21008E-02   -0.20819E-02  9152   0.174E-01 0.181E-03
CGA:   3    -0.381280442079E+03   -0.24687E-02   -0.24656E-02  9152   0.123E-01 0.672E-04
CGA:   4    -0.381281607734E+03   -0.11657E-02   -0.11672E-02  9152   0.333E-02 0.360E-04
CGA:   5    -0.381282125585E+03   -0.51785E-03   -0.51786E-03  9152   0.156E-02 0.581E-06
CGA:   6    -0.381282221527E+03   -0.95943E-04   -0.96060E-04  9152   0.733E-03 0.902E-06
CGA:   7    -0.381282284750E+03   -0.63222E-04   -0.63190E-04  9152   0.212E-03-0.120E-05
CGA:   8    -0.381282315420E+03   -0.30670E-04   -0.30706E-04  9152   0.653E-04-0.919E-06
CGA:   9    -0.381282325304E+03   -0.98849E-05   -0.98855E-05  9152   0.488E-04-0.180E-07
  35 F= -.38128233E+03 E0= -.38127585E+03  d E =-.224227E-03  mag=    58.0000
       N       E                     dE             d eps       ncg     rms          ort
SDA:   1    -0.381149575437E+03    0.13274E+00    0.00000E+00  9152   0.390E+00 0.000E+00
CGA:   2    -0.381208122478E+03   -0.58547E-01   -0.58025E-01  9152   0.639E+00 0.106E-01
CGA:   3    -0.381254585567E+03   -0.46463E-01   -0.45744E-01  9152   0.135E+00 0.556E-03
CGA:   4    -0.381274373086E+03   -0.19788E-01   -0.19720E-01  9152   0.526E-01 0.138E-02
CGA:   5    -0.381278855280E+03   -0.44822E-02   -0.44646E-02  9152   0.314E-01-0.116E-03
CGA:   6    -0.381281046823E+03   -0.21915E-02   -0.22000E-02  9152   0.831E-02-0.111E-04
CGA:   7    -0.381281998362E+03   -0.95154E-03   -0.95177E-03  9152   0.360E-02-0.201E-04
CGA:   8    -0.381282350128E+03   -0.35177E-03   -0.35187E-03  9152   0.188E-02 0.433E-05
CGA:   9    -0.381282489114E+03   -0.13899E-03   -0.13883E-03  9152   0.957E-03-0.158E-05
CGA:  10    -0.381282588331E+03   -0.99216E-04   -0.99221E-04  9152   0.306E-03 0.135E-05
CGA:  11    -0.381282634059E+03   -0.45729E-04   -0.45743E-04  9152   0.271E-03-0.313E-06
CGA:  12    -0.381282652259E+03   -0.18200E-04   -0.18230E-04  9152   0.131E-03 0.530E-06
CGA:  13    -0.381282673458E+03   -0.21199E-04   -0.21218E-04  9152   0.749E-04-0.331E-06
CGA:  14    -0.381282683813E+03   -0.10355E-04   -0.10357E-04  9152   0.981E-04-0.873E-07
CGA:  15    -0.381282692427E+03   -0.86142E-05   -0.86005E-05  9152   0.500E-04-0.586E-06
  36 F= -.38128269E+03 E0= -.38127624E+03  d E =-.367123E-03  mag=    58.0000
       N       E                     dE             d eps       ncg     rms          ort
SDA:   1    -0.381258524413E+03    0.24159E-01    0.00000E+00  9152   0.934E-01 0.000E+00
CGA:   2    -0.381266999242E+03   -0.84748E-02   -0.85249E-02  9152   0.900E-01 0.784E-03
CGA:   3    -0.381275787450E+03   -0.87882E-02   -0.87766E-02  9152   0.518E-01-0.365E-03
CGA:   4    -0.381280110833E+03   -0.43234E-02   -0.43263E-02  9152   0.149E-01 0.174E-04
CGA:   5    -0.381282275449E+03   -0.21646E-02   -0.21654E-02  9152   0.417E-02-0.160E-04
CGA:   6    -0.381282589348E+03   -0.31390E-03   -0.31454E-03  9152   0.310E-02 0.314E-05
CGA:   7    -0.381282874256E+03   -0.28491E-03   -0.28487E-03  9152   0.583E-03-0.127E-05
CGA:   8    -0.381282949288E+03   -0.75033E-04   -0.74996E-04  9152   0.417E-03 0.127E-05
CGA:   9    -0.381282983950E+03   -0.34662E-04   -0.34643E-04  9152   0.208E-03-0.645E-06
CGA:  10    -0.381282999511E+03   -0.15562E-04   -0.15582E-04  9152   0.834E-04 0.381E-06
CGA:  11    -0.381283012180E+03   -0.12668E-04   -0.12670E-04  9152   0.419E-04-0.325E-07
CGA:  12    -0.381283016422E+03   -0.42426E-05   -0.42438E-05  9152   0.402E-04 0.168E-06
  37 F= -.38128302E+03 E0= -.38127655E+03  d E =-.323995E-03  mag=    58.0000
       N       E                     dE             d eps       ncg     rms          ort
SDA:   1    -0.381275301756E+03    0.77104E-02    0.00000E+00  9152   0.274E-01 0.000E+00
CGA:   2    -0.381277993442E+03   -0.26917E-02   -0.26902E-02  9152   0.345E-01-0.823E-04
CGA:   3    -0.381281008742E+03   -0.30153E-02   -0.30161E-02  9152   0.920E-02 0.155E-04
CGA:   4    -0.381282527061E+03   -0.15183E-02   -0.15182E-02  9152   0.266E-02 0.230E-05
CGA:   5    -0.381282882271E+03   -0.35521E-03   -0.35523E-03  9152   0.132E-02-0.328E-06
CGA:   6    -0.381282967894E+03   -0.85623E-04   -0.85459E-04  9152   0.665E-03-0.652E-06
CGA:   7    -0.381283030223E+03   -0.62329E-04   -0.62343E-04  9152   0.174E-03 0.624E-06
CGA:   8    -0.381283053149E+03   -0.22926E-04   -0.22937E-04  9152   0.982E-04-0.336E-06
CGA:   9    -0.381283062880E+03   -0.97306E-05   -0.97328E-05  9152   0.518E-04 0.268E-06
  38 F= -.38128306E+03 E0= -.38127659E+03  d E =-.464572E-04  mag=    58.0000
       N       E                     dE             d eps       ncg     rms          ort
SDA:   1    -0.381202541782E+03    0.80511E-01    0.00000E+00  9152   0.247E+00 0.000E+00
CGA:   2    -0.381237761015E+03   -0.35219E-01   -0.35315E-01  9152   0.312E+00-0.168E-02
CGA:   3    -0.381263059458E+03   -0.25298E-01   -0.25491E-01  9152   0.159E+00 0.136E-02
CGA:   4    -0.381274410738E+03   -0.11351E-01   -0.11118E-01  9152   0.461E-01-0.440E-04
CGA:   5    -0.381280709225E+03   -0.62985E-02   -0.62926E-02  9152   0.103E-01 0.136E-03
CGA:   6    -0.381282108699E+03   -0.13995E-02   -0.14002E-02  9152   0.661E-02-0.186E-04
CGA:   7    -0.381282488317E+03   -0.37962E-03   -0.38061E-03  9152   0.241E-02-0.411E-05
CGA:   8    -0.381282767334E+03   -0.27902E-03   -0.27907E-03  9152   0.762E-03-0.330E-05
CGA:   9    -0.381282873297E+03   -0.10596E-03   -0.10594E-03  9152   0.416E-03 0.568E-06
CGA:  10    -0.381282906419E+03   -0.33121E-04   -0.33086E-04  9152   0.248E-03-0.653E-06
CGA:  11    -0.381282927949E+03   -0.21530E-04   -0.21542E-04  9152   0.120E-03 0.457E-06
CGA:  12    -0.381282942880E+03   -0.14931E-04   -0.14939E-04  9152   0.575E-04-0.400E-06
CGA:  13    -0.381282951495E+03   -0.86156E-05   -0.86114E-05  9152   0.513E-04 0.944E-07
  39 F= -.38128295E+03 E0= -.38127646E+03  d E =0.111384E-03  mag=    58.0000
       N       E                     dE             d eps       ncg     rms          ort
SDA:   1    -0.381273336705E+03    0.96062E-02    0.00000E+00  9152   0.483E-01 0.000E+00
CGA:   2    -0.381276295583E+03   -0.29589E-02   -0.29380E-02  9152   0.329E-01 0.871E-04
CGA:   3    -0.381280665161E+03   -0.43696E-02   -0.43687E-02  9152   0.122E-01 0.218E-04
CGA:   4    -0.381282422720E+03   -0.17576E-02   -0.17561E-02  9152   0.391E-02 0.302E-04
CGA:   5    -0.381282992035E+03   -0.56932E-03   -0.56932E-03  9152   0.129E-02 0.573E-06
CGA:   6    -0.381283112615E+03   -0.12058E-03   -0.12050E-03  9152   0.848E-03-0.228E-05
CGA:   7    -0.381283170224E+03   -0.57609E-04   -0.57651E-04  9152   0.289E-03 0.232E-06
CGA:   8    -0.381283198477E+03   -0.28253E-04   -0.28240E-04  9152   0.114E-03-0.998E-06
CGA:   9    -0.381283213675E+03   -0.15198E-04   -0.15195E-04  9152   0.425E-04 0.771E-07
CGA:  10    -0.381283219260E+03   -0.55853E-05   -0.55857E-05  9152   0.424E-04-0.164E-07
  40 F= -.38128322E+03 E0= -.38127674E+03  d E =-.267765E-03  mag=    58.0000
       N       E                     dE             d eps       ncg     rms          ort
SDA:   1    -0.381222403291E+03    0.60810E-01    0.00000E+00  9152   0.195E+00 0.000E+00
CGA:   2    -0.381253849944E+03   -0.31447E-01   -0.31709E-01  9152   0.162E+00-0.386E-02
CGA:   3    -0.381271256837E+03   -0.17407E-01   -0.17403E-01  9152   0.569E-01 0.296E-02
CGA:   4    -0.381279556898E+03   -0.83001E-02   -0.83034E-02  9152   0.261E-01-0.691E-04
CGA:   5    -0.381281102101E+03   -0.15452E-02   -0.15539E-02  9152   0.127E-01-0.579E-04
CGA:   6    -0.381282529846E+03   -0.14277E-02   -0.14279E-02  9152   0.240E-02-0.196E-04
CGA:   7    -0.381282903956E+03   -0.37411E-03   -0.37409E-03  9152   0.145E-02 0.177E-06
CGA:   8    -0.381282997141E+03   -0.93185E-04   -0.92928E-04  9152   0.698E-03-0.380E-06
CGA:   9    -0.381283074328E+03   -0.77188E-04   -0.77186E-04  9152   0.314E-03 0.867E-06
CGA:  10    -0.381283109382E+03   -0.35054E-04   -0.35055E-04  9152   0.144E-03-0.272E-06
CGA:  11    -0.381283126356E+03   -0.16973E-04   -0.16966E-04  9152   0.127E-03 0.776E-06
CGA:  12    -0.381283135619E+03   -0.92637E-05   -0.92537E-05  9152   0.529E-04-0.161E-06
  41 F= -.38128314E+03 E0= -.38127668E+03  d E =0.836408E-04  mag=    58.0000
       N       E                     dE             d eps       ncg     rms          ort
SDA:   1    -0.381265429781E+03    0.17697E-01    0.00000E+00  9152   0.617E-01 0.000E+00
CGA:   2    -0.381271208529E+03   -0.57787E-02   -0.57864E-02  9152   0.778E-01 0.155E-03
CGA:   3    -0.381279114945E+03   -0.79064E-02   -0.79036E-02  9152   0.227E-01-0.159E-03
CGA:   4    -0.381282068728E+03   -0.29538E-02   -0.29555E-02  9152   0.683E-02-0.519E-04
CGA:   5    -0.381282924256E+03   -0.85553E-03   -0.85567E-03  9152   0.365E-02-0.599E-05
CGA:   6    -0.381283131943E+03   -0.20769E-03   -0.20845E-03  9152   0.128E-02-0.385E-05
CGA:   7    -0.381283275167E+03   -0.14322E-03   -0.14323E-03  9152   0.475E-03-0.120E-05
CGA:   8    -0.381283323459E+03   -0.48292E-04   -0.48304E-04  9152   0.194E-03 0.105E-05
CGA:   9    -0.381283345035E+03   -0.21576E-04   -0.21578E-04  9152   0.148E-03-0.534E-06
CGA:  10    -0.381283354509E+03   -0.94738E-05   -0.94905E-05  9152   0.460E-04 0.218E-06
  42 F= -.38128335E+03 E0= -.38127690E+03  d E =-.218890E-03  mag=    58.0000
       N       E                     dE             d eps       ncg     rms          ort
SDA:   1    -0.381051825895E+03    0.23152E+00    0.00000E+00  9152   0.630E+00 0.000E+00
CGA:   2    -0.381187263776E+03   -0.13544E+00   -0.13451E+00  9152   0.614E+00 0.961E-02
CGA:   3    -0.381241882785E+03   -0.54619E-01   -0.55258E-01  9152   0.328E+00 0.478E-02
CGA:   4    -0.381263485937E+03   -0.21603E-01   -0.21551E-01  9152   0.144E+00-0.508E-03
CGA:   5    -0.381276781092E+03   -0.13295E-01   -0.13367E-01  9152   0.321E-01 0.136E-02
CGA:   6    -0.381280561886E+03   -0.37808E-02   -0.37784E-02  9152   0.235E-01 0.179E-03
CGA:   7    -0.381281850538E+03   -0.12887E-02   -0.12847E-02  9152   0.719E-02 0.266E-04
CGA:   8    -0.381282695682E+03   -0.84514E-03   -0.84442E-03  9152   0.296E-02 0.399E-04
CGA:   9    -0.381283003123E+03   -0.30744E-03   -0.30747E-03  9152   0.180E-02 0.378E-05
CGA:  10    -0.381283119469E+03   -0.11635E-03   -0.11620E-03  9152   0.914E-03-0.900E-06
CGA:  11    -0.381283215290E+03   -0.95820E-04   -0.95820E-04  9152   0.305E-03 0.183E-05
CGA:  12    -0.381283259000E+03   -0.43710E-04   -0.43704E-04  9152   0.276E-03 0.167E-06
CGA:  13    -0.381283278260E+03   -0.19260E-04   -0.19232E-04  9152   0.170E-03-0.565E-06
CGA:  14    -0.381283297280E+03   -0.19020E-04   -0.19017E-04  9152   0.857E-04 0.245E-06
CGA:  15    -0.381283311867E+03   -0.14588E-04   -0.14604E-04  9152   0.750E-04-0.236E-06
CGA:  16    -0.381283318348E+03   -0.64802E-05   -0.64731E-05  9152   0.640E-04-0.281E-06
  43 F= -.38128332E+03 E0= -.38127685E+03  d E =0.361612E-04  mag=    58.0000
       N       E                     dE             d eps       ncg     rms          ort
SDA:   1    -0.381221102282E+03    0.62210E-01    0.00000E+00  9152   0.186E+00 0.000E+00
CGA:   2    -0.381250968427E+03   -0.29866E-01   -0.29316E-01  9152   0.181E+00 0.894E-02
CGA:   3    -0.381271127620E+03   -0.20159E-01   -0.20142E-01  9152   0.101E+00-0.304E-02
CGA:   4    -0.381277069467E+03   -0.59418E-02   -0.60473E-02  9152   0.394E-01-0.662E-03
CGA:   5    -0.381281470794E+03   -0.44013E-02   -0.44015E-02  9152   0.851E-02-0.148E-04
CGA:   6    -0.381282535592E+03   -0.10648E-02   -0.10668E-02  9152   0.407E-02-0.695E-04
CGA:   7    -0.381282856365E+03   -0.32077E-03   -0.32102E-03  9152   0.234E-02 0.308E-05
CGA:   8    -0.381283021613E+03   -0.16525E-03   -0.16479E-03  9152   0.826E-03-0.102E-05
CGA:   9    -0.381283129062E+03   -0.10745E-03   -0.10747E-03  9152   0.269E-03-0.650E-06
CGA:  10    -0.381283168387E+03   -0.39325E-04   -0.39309E-04  9152   0.127E-03 0.296E-06
CGA:  11    -0.381283185223E+03   -0.16836E-04   -0.16844E-04  9152   0.815E-04-0.290E-06
CGA:  12    -0.381283193049E+03   -0.78263E-05   -0.78293E-05  9152   0.777E-04 0.241E-06
  44 F= -.38128319E+03 E0= -.38127672E+03  d E =0.125299E-03  mag=    58.0000
       N       E                     dE             d eps       ncg     rms          ort
SDA:   1    -0.381240458854E+03    0.42726E-01    0.00000E+00  9152   0.127E+00 0.000E+00
CGA:   2    -0.381262963498E+03   -0.22505E-01   -0.22569E-01  9152   0.156E+00-0.815E-03
CGA:   3    -0.381272270388E+03   -0.93069E-02   -0.94337E-02  9152   0.623E-01-0.920E-03
CGA:   4    -0.381280042595E+03   -0.77722E-02   -0.77745E-02  9152   0.195E-01-0.810E-04
CGA:   5    -0.381282078931E+03   -0.20363E-02   -0.20374E-02  9152   0.825E-02 0.114E-03
CGA:   6    -0.381282812379E+03   -0.73345E-03   -0.73294E-03  9152   0.441E-02-0.737E-05
CGA:   7    -0.381283104493E+03   -0.29211E-03   -0.29298E-03  9152   0.147E-02-0.112E-05
CGA:   8    -0.381283289758E+03   -0.18526E-03   -0.18533E-03  9152   0.525E-03-0.268E-05
CGA:   9    -0.381283354916E+03   -0.65158E-04   -0.65143E-04  9152   0.370E-03 0.644E-06
CGA:  10    -0.381283379505E+03   -0.24589E-04   -0.24560E-04  9152   0.171E-03-0.410E-06
CGA:  11    -0.381283402373E+03   -0.22868E-04   -0.22845E-04  9152   0.701E-04 0.758E-06
CGA:  12    -0.381283411835E+03   -0.94613E-05   -0.94665E-05  9152   0.665E-04-0.164E-06
  45 F= -.38128341E+03 E0= -.38127695E+03  d E =-.218786E-03  mag=    58.0000
       N       E                     dE             d eps       ncg     rms          ort
SDA:   1    -0.379269256455E+03    0.20141E+01    0.00000E+00  9152   0.547E+01 0.000E+00
CGA:   2    -0.380550171481E+03   -0.12809E+01   -0.12799E+01  9152   0.344E+01 0.969E-02
CGA:   3    -0.380999391432E+03   -0.44922E+00   -0.45450E+00  9152   0.279E+01-0.177E+00
CGA:   4    -0.381148559237E+03   -0.14917E+00   -0.15671E+00  9152   0.812E+00-0.897E-01
CGA:   5    -0.381231047137E+03   -0.82488E-01   -0.82122E-01  9152   0.262E+00-0.205E-01
CGA:   6    -0.381255821088E+03   -0.24774E-01   -0.24925E-01  9152   0.121E+00 0.373E-02
CGA:   7    -0.381265474506E+03   -0.96534E-02   -0.96163E-02  9152   0.651E-01-0.184E-03
CGA:   8    -0.381270989508E+03   -0.55150E-02   -0.55370E-02  9152   0.228E-01 0.193E-03
CGA:   9    -0.381273826280E+03   -0.28368E-02   -0.28377E-02  9152   0.968E-02-0.382E-04
CGA:  10    -0.381274644195E+03   -0.81792E-03   -0.81887E-03  9152   0.778E-02 0.123E-04
CGA:  11    -0.381275414191E+03   -0.77000E-03   -0.76996E-03  9152   0.205E-02-0.577E-06
CGA:  12    -0.381275760349E+03   -0.34616E-03   -0.34593E-03  9152   0.264E-02 0.367E-05
CGA:  13    -0.381275950472E+03   -0.19012E-03   -0.18996E-03  9152   0.107E-02-0.102E-05
CGA:  14    -0.381276113061E+03   -0.16259E-03   -0.16256E-03  9152   0.939E-03 0.473E-06
CGA:  15    -0.381276222621E+03   -0.10956E-03   -0.10958E-03  9152   0.724E-03-0.246E-05
CGA:  16    -0.381276285713E+03   -0.63092E-04   -0.63135E-04  9152   0.453E-03 0.159E-05
CGA:  17    -0.381276340838E+03   -0.55125E-04   -0.55126E-04  9152   0.263E-03 0.367E-06
CGA:  18    -0.381276375727E+03   -0.34889E-04   -0.34846E-04  9152   0.212E-03 0.187E-05
CGA:  19    -0.381276391074E+03   -0.15347E-04   -0.15338E-04  9152   0.104E-03 0.454E-07
CGA:  20    -0.381276409630E+03   -0.18556E-04   -0.18524E-04  9152   0.651E-04 0.455E-06
CGA:  21    -0.381276415720E+03   -0.60899E-05   -0.60829E-05  9152   0.616E-04-0.309E-06
  46 F= -.38127642E+03 E0= -.38127004E+03  d E =0.699612E-02  mag=    58.0000
       N       E                     dE             d eps       ncg     rms          ort
SDA:   1    -0.380967972371E+03    0.30844E+00    0.00000E+00  9152   0.110E+01 0.000E+00
CGA:   2    -0.381129413772E+03   -0.16144E+00   -0.15903E+00  9152   0.606E+00 0.541E-01
CGA:   3    -0.381214462338E+03   -0.85049E-01   -0.87235E-01  9152   0.448E+00-0.624E-01
CGA:   4    -0.381253955920E+03   -0.39494E-01   -0.39487E-01  9152   0.238E+00-0.366E-03
CGA:   5    -0.381268658519E+03   -0.14703E-01   -0.14191E-01  9152   0.659E-01 0.354E-02
CGA:   6    -0.381278414124E+03   -0.97556E-02   -0.97470E-02  9152   0.173E-01 0.187E-03
CGA:   7    -0.381280275175E+03   -0.18611E-02   -0.18604E-02  9152   0.155E-01-0.506E-04
CGA:   8    -0.381281321175E+03   -0.10460E-02   -0.10465E-02  9152   0.394E-02 0.116E-05
CGA:   9    -0.381281869191E+03   -0.54802E-03   -0.54797E-03  9152   0.172E-02 0.122E-05
CGA:  10    -0.381282069418E+03   -0.20023E-03   -0.20022E-03  9152   0.159E-02 0.148E-05
CGA:  11    -0.381282178551E+03   -0.10913E-03   -0.10900E-03  9152   0.437E-03-0.409E-06
CGA:  12    -0.381282247475E+03   -0.68924E-04   -0.68894E-04  9152   0.316E-03 0.587E-06
CGA:  13    -0.381282276199E+03   -0.28724E-04   -0.28708E-04  9152   0.161E-03-0.307E-06
CGA:  14    -0.381282290660E+03   -0.14460E-04   -0.14475E-04  9152   0.121E-03 0.674E-06
CGA:  15    -0.381282305926E+03   -0.15267E-04   -0.15266E-04  9152   0.454E-04 0.500E-07
CGA:  16    -0.381282312169E+03   -0.62427E-05   -0.62363E-05  9152   0.490E-04 0.253E-06
  47 F= -.38128231E+03 E0= -.38127588E+03  d E =-.589645E-02  mag=    58.0000
       N       E                     dE             d eps       ncg     rms          ort
SDA:   1    -0.380780732685E+03    0.50157E+00    0.00000E+00  9152   0.142E+01 0.000E+00
CGA:   2    -0.381049834364E+03   -0.26910E+00   -0.26869E+00  9152   0.160E+01 0.939E-02
CGA:   3    -0.381166572806E+03   -0.11674E+00   -0.12215E+00  9152   0.882E+00-0.872E-02
CGA:   4    -0.381230027222E+03   -0.63454E-01   -0.61551E-01  9152   0.333E+00-0.641E-03
CGA:   5    -0.381265921944E+03   -0.35895E-01   -0.35913E-01  9152   0.729E-01 0.361E-02
CGA:   6    -0.381273601157E+03   -0.76792E-02   -0.76905E-02  9152   0.667E-01 0.839E-03
CGA:   7    -0.381277762234E+03   -0.41611E-02   -0.41530E-02  9152   0.151E-01 0.152E-04
CGA:   8    -0.381279475108E+03   -0.17129E-02   -0.17114E-02  9152   0.731E-02 0.139E-03
CGA:   9    -0.381280368921E+03   -0.89381E-03   -0.89359E-03  9152   0.365E-02 0.108E-04
CGA:  10    -0.381280595345E+03   -0.22642E-03   -0.22623E-03  9152   0.194E-02-0.710E-06
CGA:  11    -0.381280829773E+03   -0.23443E-03   -0.23432E-03  9152   0.827E-03 0.541E-05
CGA:  12    -0.381280936619E+03   -0.10685E-03   -0.10687E-03  9152   0.438E-03-0.629E-06
CGA:  13    -0.381280991348E+03   -0.54729E-04   -0.54760E-04  9152   0.548E-03-0.134E-05
CGA:  14    -0.381281033206E+03   -0.41857E-04   -0.41887E-04  9152   0.233E-03 0.587E-06
CGA:  15    -0.381281066041E+03   -0.32835E-04   -0.32860E-04  9152   0.152E-03-0.593E-06
CGA:  16    -0.381281093052E+03   -0.27011E-04   -0.26996E-04  9152   0.112E-03 0.215E-06
CGA:  17    -0.381281102431E+03   -0.93794E-05   -0.93996E-05  9152   0.936E-04 0.624E-06
  48 F= -.38128110E+03 E0= -.38127466E+03  d E =0.120974E-02  mag=    58.0000
       N       E                     dE             d eps       ncg     rms          ort
SDA:   1    -0.360921706224E+03    0.20359E+02    0.00000E+00  9152   0.595E+02 0.000E+00
CGA:   2    -0.370345680113E+03   -0.94240E+01   -0.10306E+02  9152   0.122E+03-0.979E+01
CGA:   3    -0.375589135864E+03   -0.52435E+01   -0.59605E+01  9152   0.317E+02-0.128E+02
CGA:   4    -0.379642344853E+03   -0.40532E+01   -0.40418E+01  9152   0.804E+01 0.247E+00
CGA:   5    -0.380365167860E+03   -0.72282E+00   -0.64763E+00  9152   0.838E+01-0.163E+00
CGA:   6    -0.380834837765E+03   -0.46967E+00   -0.49720E+00  9152   0.189E+01-0.185E+00
CGA:   7    -0.381011329305E+03   -0.17649E+00   -0.18005E+00  9152   0.110E+01 0.135E+00
CGA:   8    -0.381080735739E+03   -0.69406E-01   -0.63260E-01  9152   0.562E+00 0.502E-01
CGA:   9    -0.381140398537E+03   -0.59663E-01   -0.59540E-01  9152   0.267E+00-0.155E-01
CGA:  10    -0.381158844669E+03   -0.18446E-01   -0.18933E-01  9152   0.185E+00 0.134E-02
CGA:  11    -0.381170759409E+03   -0.11915E-01   -0.11797E-01  9152   0.740E-01 0.248E-03
CGA:  12    -0.381181878834E+03   -0.11119E-01   -0.11197E-01  9152   0.260E-01-0.128E-02
CGA:  13    -0.381184592461E+03   -0.27136E-02   -0.27126E-02  9152   0.357E-01 0.226E-03
CGA:  14    -0.381187605099E+03   -0.30126E-02   -0.30165E-02  9152   0.104E-01 0.529E-04
CGA:  15    -0.381189089315E+03   -0.14842E-02   -0.14885E-02  9152   0.741E-02-0.808E-04
CGA:  16    -0.381190336342E+03   -0.12470E-02   -0.12408E-02  9152   0.348E-02 0.864E-04
CGA:  17    -0.381190963827E+03   -0.62749E-03   -0.62673E-03  9152   0.216E-02 0.996E-05
CGA:  18    -0.381191334247E+03   -0.37042E-03   -0.36993E-03  9152   0.170E-02 0.723E-05
CGA:  19    -0.381191462270E+03   -0.12802E-03   -0.12839E-03  9152   0.125E-02 0.233E-05
CGA:  20    -0.381191616790E+03   -0.15452E-03   -0.15448E-03  9152   0.678E-03 0.315E-05
CGA:  21    -0.381191725865E+03   -0.10907E-03   -0.10874E-03  9152   0.425E-03 0.659E-05
CGA:  22    -0.381191798612E+03   -0.72747E-04   -0.72722E-04  9152   0.355E-03 0.688E-06
CGA:  23    -0.381191839558E+03   -0.40946E-04   -0.40947E-04  9152   0.405E-03 0.560E-06
CGA:  24    -0.381191872259E+03   -0.32701E-04   -0.32625E-04  9152   0.126E-03-0.122E-05
CGA:  25    -0.381191902239E+03   -0.29980E-04   -0.30283E-04  9152   0.941E-04-0.244E-05
CGA:  26    -0.381191912812E+03   -0.10573E-04   -0.10563E-04  9152   0.698E-04-0.125E-05
CGA:  27    -0.381191919492E+03   -0.66802E-05   -0.66642E-05  9152   0.664E-04-0.624E-06
  49 F= -.38119192E+03 E0= -.38118563E+03  d E =0.891829E-01  mag=    58.0000
       N       E                     dE             d eps       ncg     rms          ort
SDA:   1    -0.305795348872E+03    0.75397E+02    0.00000E+00  9152   0.289E+03 0.000E+00
CGA:   2    -0.346181788978E+03   -0.40386E+02   -0.41081E+02  9152   0.134E+03-0.155E+02
CGA:   3    -0.365946306266E+03   -0.19765E+02   -0.20856E+02  9152   0.690E+02-0.603E+01
CGA:   4    -0.372999275646E+03   -0.70530E+01   -0.67317E+01  9152   0.735E+02-0.109E+02
CGA:   5    -0.376851576921E+03   -0.38523E+01   -0.33885E+01  9152   0.301E+02-0.246E+02
CGA:   6    -0.377480026775E+03   -0.62845E+00   -0.11204E+01  9152   0.472E+02-0.931E+01
CGA:   7    -0.378407166905E+03   -0.92714E+00   -0.11713E+01  9152   0.301E+02-0.328E+02
CGA:   8    -0.379142996277E+03   -0.73583E+00   -0.13286E+01  9152   0.268E+02-0.884E+01
CGA:   9    -0.379181428946E+03   -0.38433E-01   -0.83166E+00  9152   0.137E+02-0.443E+01
CGA:  10    -0.380185004682E+03   -0.10036E+01   -0.59232E+00  9152   0.883E+01 0.267E+01
CGA:  11    -0.380281629772E+03   -0.96625E-01   -0.29191E+00  9152   0.591E+01-0.687E+01
CGA:  12    -0.380435696968E+03   -0.15407E+00   -0.22533E+00  9152   0.206E+01-0.174E+01
CGA:  13    -0.380493809954E+03   -0.58113E-01   -0.65285E-01  9152   0.133E+01-0.956E-01
CGA:  14    -0.380585468590E+03   -0.91659E-01   -0.95464E-01  9152   0.580E+00 0.623E-01
CGA:  15    -0.380652793955E+03   -0.67325E-01   -0.65360E-01  9152   0.241E+00 0.819E-01
[...]
CGA:   7    -0.381269864611E+03   -0.20789E-03   -0.20737E-03  9152   0.144E-02 0.184E-05
CGA:   8    -0.381270043605E+03   -0.17899E-03   -0.17894E-03  9152   0.420E-03 0.298E-05
CGA:   9    -0.381270102336E+03   -0.58731E-04   -0.58761E-04  9152   0.222E-03-0.830E-06
CGA:  10    -0.381270119666E+03   -0.17330E-04   -0.17353E-04  9152   0.157E-03 0.541E-06
CGA:  11    -0.381270134695E+03   -0.15029E-04   -0.15023E-04  9152   0.497E-04-0.286E-06
CGA:  12    -0.381270141463E+03   -0.67675E-05   -0.67713E-05  9152   0.384E-04-0.143E-06
 165 F= -.38127014E+03 E0= -.38126367E+03  d E =-.192116E-02  mag=    58.0000
       N       E                     dE             d eps       ncg     rms          ort
SDA:   1    -0.379432038396E+03    0.18381E+01    0.00000E+00  9152   0.552E+01 0.000E+00
CGA:   2    -0.380312568547E+03   -0.88053E+00   -0.86942E+00  9152   0.788E+01 0.235E+00
CGA:   3    -0.380829286594E+03   -0.51672E+00   -0.55809E+00  9152   0.292E+01-0.404E+00
CGA:   4    -0.381125395091E+03   -0.29611E+00   -0.29471E+00  9152   0.926E+00-0.939E-01
CGA:   5    -0.381203538231E+03   -0.78143E-01   -0.78613E-01  9152   0.595E+00 0.126E-02
CGA:   6    -0.381251746841E+03   -0.48209E-01   -0.47782E-01  9152   0.151E+00-0.186E-02
CGA:   7    -0.381264220530E+03   -0.12474E-01   -0.12592E-01  9152   0.630E-01 0.778E-03
CGA:   8    -0.381270357127E+03   -0.61366E-02   -0.61280E-02  9152   0.398E-01-0.278E-03
CGA:   9    -0.381273443067E+03   -0.30859E-02   -0.30977E-02  9152   0.125E-01 0.486E-04
CGA:  10    -0.381274888443E+03   -0.14454E-02   -0.14460E-02  9152   0.751E-02-0.396E-04
CGA:  11    -0.381275473995E+03   -0.58555E-03   -0.58673E-03  9152   0.417E-02 0.683E-05
CGA:  12    -0.381275916138E+03   -0.44214E-03   -0.44215E-03  9152   0.140E-02-0.865E-05
CGA:  13    -0.381276077756E+03   -0.16162E-03   -0.16157E-03  9152   0.170E-02 0.276E-05
CGA:  14    -0.381276243362E+03   -0.16561E-03   -0.16561E-03  9152   0.502E-03-0.116E-05
CGA:  15    -0.381276306461E+03   -0.63099E-04   -0.63064E-04  9152   0.612E-03 0.126E-05
CGA:  16    -0.381276370961E+03   -0.64500E-04   -0.64499E-04  9152   0.328E-03-0.110E-05
CGA:  17    -0.381276400700E+03   -0.29739E-04   -0.29761E-04  9152   0.164E-03 0.110E-05
CGA:  18    -0.381276421887E+03   -0.21187E-04   -0.21170E-04  9152   0.162E-03 0.704E-06
CGA:  19    -0.381276435554E+03   -0.13668E-04   -0.13701E-04  9152   0.655E-04 0.136E-05
CGA:  20    -0.381276443131E+03   -0.75767E-05   -0.75749E-05  9152   0.438E-04 0.207E-06
 166 F= -.38127644E+03 E0= -.38126992E+03  d E =-.630167E-02  mag=    58.0000
       N       E                     dE             d eps       ncg     rms          ort
SDA:   1    -0.381204004524E+03    0.72431E-01    0.00000E+00  9152   0.335E+00 0.000E+00
CGA:   2    -0.381226227081E+03   -0.22223E-01   -0.22654E-01  9152   0.264E+00-0.133E-02
CGA:   3    -0.381257804751E+03   -0.31578E-01   -0.31617E-01  9152   0.902E-01-0.153E-02
CGA:   4    -0.381271498870E+03   -0.13694E-01   -0.13675E-01  9152   0.348E-01 0.337E-03
CGA:   5    -0.381274815166E+03   -0.33163E-02   -0.33100E-02  9152   0.251E-01-0.180E-03
CGA:   6    -0.381276427650E+03   -0.16125E-02   -0.16178E-02  9152   0.603E-02-0.140E-04
CGA:   7    -0.381277162335E+03   -0.73468E-03   -0.73547E-03  9152   0.233E-02-0.291E-04
CGA:   8    -0.381277388349E+03   -0.22601E-03   -0.22610E-03  9152   0.126E-02 0.514E-05
CGA:   9    -0.381277488158E+03   -0.99809E-04   -0.99701E-04  9152   0.717E-03-0.214E-05
CGA:  10    -0.381277554291E+03   -0.66134E-04   -0.66137E-04  9152   0.248E-03 0.256E-07
CGA:  11    -0.381277590413E+03   -0.36121E-04   -0.36133E-04  9152   0.139E-03-0.272E-06
CGA:  12    -0.381277601261E+03   -0.10849E-04   -0.10867E-04  9152   0.105E-03 0.606E-06
CGA:  13    -0.381277613342E+03   -0.12080E-04   -0.12079E-04  9152   0.343E-04 0.843E-07
CGA:  14    -0.381277619114E+03   -0.57727E-05   -0.57480E-05  9152   0.400E-04 0.399E-06
 167 F= -.38127762E+03 E0= -.38127111E+03  d E =-.117598E-02  mag=    58.0000
       N       E                     dE             d eps       ncg     rms          ort
SDA:   1    -0.381208074414E+03    0.69539E-01    0.00000E+00  9152   0.191E+00 0.000E+00
CGA:   2    -0.381250118697E+03   -0.42044E-01   -0.41630E-01  9152   0.175E+00 0.388E-02
CGA:   3    -0.381267816538E+03   -0.17698E-01   -0.17664E-01  9152   0.758E-01-0.102E-02
CGA:   4    -0.381273369223E+03   -0.55527E-02   -0.55190E-02  9152   0.451E-01-0.228E-04
CGA:   5    -0.381276906648E+03   -0.35374E-02   -0.35554E-02  9152   0.871E-02 0.662E-04
CGA:   6    -0.381278099981E+03   -0.11933E-02   -0.11947E-02  9152   0.321E-02-0.320E-04
CGA:   7    -0.381278441945E+03   -0.34196E-03   -0.34193E-03  9152   0.201E-02-0.756E-05
CGA:   8    -0.381278565167E+03   -0.12322E-03   -0.12342E-03  9152   0.805E-03-0.253E-06
CGA:   9    -0.381278656764E+03   -0.91597E-04   -0.91627E-04  9152   0.283E-03-0.290E-05
CGA:  10    -0.381278691670E+03   -0.34906E-04   -0.34894E-04  9152   0.110E-03 0.481E-06
CGA:  11    -0.381278709691E+03   -0.18021E-04   -0.18027E-04  9152   0.486E-04-0.934E-07
CGA:  12    -0.381278716519E+03   -0.68276E-05   -0.68353E-05  9152   0.448E-04-0.259E-06
 168 F= -.38127872E+03 E0= -.38127222E+03  d E =-.109740E-02  mag=    58.0000
       N       E                     dE             d eps       ncg     rms          ort
SDA:   1    -0.380605710312E+03    0.67300E+00    0.00000E+00  9152   0.192E+01 0.000E+00
CGA:   2    -0.380915007761E+03   -0.30930E+00   -0.30030E+00  9152   0.269E+01 0.163E+00
CGA:   3    -0.381137485086E+03   -0.22248E+00   -0.21149E+00  9152   0.958E+00-0.199E-01
CGA:   4    -0.381224762852E+03   -0.87278E-01   -0.87354E-01  9152   0.327E+00-0.106E-02
CGA:   5    -0.381263910664E+03   -0.39148E-01   -0.39223E-01  9152   0.114E+00-0.409E-02
CGA:   6    -0.381271977087E+03   -0.80664E-02   -0.81874E-02  9152   0.623E-01-0.725E-04
CGA:   7    -0.381277047362E+03   -0.50703E-02   -0.50436E-02  9152   0.195E-01-0.169E-03
CGA:   8    -0.381279353283E+03   -0.23059E-02   -0.23022E-02  9152   0.740E-02 0.194E-03
CGA:   9    -0.381279995673E+03   -0.64239E-03   -0.64183E-03  9152   0.528E-02-0.996E-05
CGA:  10    -0.381280430276E+03   -0.43460E-03   -0.43542E-03  9152   0.169E-02 0.684E-05
CGA:  11    -0.381280625986E+03   -0.19571E-03   -0.19575E-03  9152   0.784E-03-0.286E-05
CGA:  12    -0.381280712059E+03   -0.86073E-04   -0.86063E-04  9152   0.687E-03 0.165E-05
CGA:  13    -0.381280764667E+03   -0.52608E-04   -0.52558E-04  9152   0.270E-03-0.104E-05
CGA:  14    -0.381280803815E+03   -0.39148E-04   -0.39118E-04  9152   0.174E-03 0.575E-06
CGA:  15    -0.381280824825E+03   -0.21010E-04   -0.21025E-04  9152   0.190E-03-0.988E-06
CGA:  16    -0.381280840287E+03   -0.15462E-04   -0.15470E-04  9152   0.766E-04 0.175E-06
CGA:  17    -0.381280850298E+03   -0.10011E-04   -0.10010E-04  9152   0.490E-04 0.551E-07
CGA:  18    -0.381280856572E+03   -0.62742E-05   -0.62614E-05  9152   0.383E-04 0.614E-06
 169 F= -.38128086E+03 E0= -.38127436E+03  d E =-.214005E-02  mag=    58.0000
       N       E                     dE             d eps       ncg     rms          ort
SDA:   1    -0.379132426296E+03    0.21484E+01    0.00000E+00  9152   0.536E+01 0.000E+00
CGA:   2    -0.380644911841E+03   -0.15125E+01   -0.14959E+01  9152   0.453E+01 0.119E+00
CGA:   3    -0.380952157558E+03   -0.30725E+00   -0.28911E+00  9152   0.235E+01-0.106E+00
CGA:   4    -0.381176206330E+03   -0.22405E+00   -0.22489E+00  9152   0.592E+00 0.207E-01
CGA:   5    -0.381250536835E+03   -0.74331E-01   -0.74498E-01  9152   0.158E+00-0.760E-02
CGA:   6    -0.381265254115E+03   -0.14717E-01   -0.14684E-01  9152   0.164E+00-0.608E-03
CGA:   7    -0.381276588554E+03   -0.11334E-01   -0.11424E-01  9152   0.261E-01-0.186E-03
CGA:   8    -0.381280814734E+03   -0.42262E-02   -0.42396E-02  9152   0.112E-01-0.211E-03
CGA:   9    -0.381281977204E+03   -0.11625E-02   -0.11623E-02  9152   0.622E-02-0.138E-04
CGA:  10    -0.381282458649E+03   -0.48145E-03   -0.48263E-03  9152   0.396E-02 0.319E-05
CGA:  11    -0.381282812241E+03   -0.35359E-03   -0.35299E-03  9152   0.169E-02-0.878E-05
CGA:  12    -0.381283045669E+03   -0.23343E-03   -0.23322E-03  9152   0.685E-03 0.528E-05
CGA:  13    -0.381283212231E+03   -0.16656E-03   -0.16679E-03  9152   0.546E-03-0.175E-05
CGA:  14    -0.381283264058E+03   -0.51827E-04   -0.51848E-04  9152   0.579E-03 0.733E-06
CGA:  15    -0.381283316473E+03   -0.52415E-04   -0.52398E-04  9152   0.236E-03-0.392E-06
CGA:  16    -0.381283357550E+03   -0.41077E-04   -0.41036E-04  9152   0.118E-03 0.735E-06
CGA:  17    -0.381283373240E+03   -0.15690E-04   -0.15676E-04  9152   0.826E-04 0.843E-06
CGA:  18    -0.381283386107E+03   -0.12867E-04   -0.12836E-04  9152   0.537E-04 0.866E-06
CGA:  19    -0.381283390230E+03   -0.41230E-05   -0.41158E-05  9152   0.442E-04-0.144E-06
 170 F= -.38128339E+03 E0= -.38127685E+03  d E =-.253366E-02  mag=    58.0000
       N       E                     dE             d eps       ncg     rms          ort
SDA:   1    -0.373987947220E+03    0.72954E+01    0.00000E+00  9152   0.187E+02 0.000E+00
CGA:   2    -0.379139293155E+03   -0.51513E+01   -0.49793E+01  9152   0.960E+01 0.119E+01
CGA:   3    -0.380488035001E+03   -0.13487E+01   -0.13648E+01  9152   0.778E+01-0.119E+01
CGA:   4    -0.380882308427E+03   -0.39427E+00   -0.40933E+00  9152   0.327E+01-0.306E+00
CGA:   5    -0.381123822816E+03   -0.24151E+00   -0.25829E+00  9152   0.102E+01-0.206E-01
CGA:   6    -0.381182040762E+03   -0.58218E-01   -0.56008E-01  9152   0.664E+00 0.113E-01
CGA:   7    -0.381229785982E+03   -0.47745E-01   -0.46164E-01  9152   0.341E+00 0.310E-02
CGA:   8    -0.381248384368E+03   -0.18598E-01   -0.18930E-01  9152   0.214E+00-0.385E-02
CGA:   9    -0.381262895394E+03   -0.14511E-01   -0.14564E-01  9152   0.736E-01-0.429E-03
CGA:  10    -0.381268292687E+03   -0.53973E-02   -0.53730E-02  9152   0.705E-01-0.222E-04
CGA:  11    -0.381272455414E+03   -0.41627E-02   -0.42082E-02  9152   0.209E-01-0.331E-03
CGA:  12    -0.381273958960E+03   -0.15035E-02   -0.15114E-02  9152   0.210E-01 0.111E-04
CGA:  13    -0.381275359565E+03   -0.14006E-02   -0.13941E-02  9152   0.730E-02 0.741E-05
CGA:  14    -0.381276079292E+03   -0.71973E-03   -0.71956E-03  9152   0.950E-02-0.203E-04
CGA:  15    -0.381276655615E+03   -0.57632E-03   -0.57920E-03  9152   0.352E-02-0.657E-05
CGA:  16    -0.381277002392E+03   -0.34678E-03   -0.34686E-03  9152   0.394E-02 0.296E-04
CGA:  17    -0.381277252049E+03   -0.24966E-03   -0.24880E-03  9152   0.234E-02 0.142E-05
CGA:  18    -0.381277504321E+03   -0.25227E-03   -0.25243E-03  9152   0.173E-02-0.906E-05
CGA:  19    -0.381277600926E+03   -0.96605E-04   -0.96902E-04  9152   0.112E-02 0.157E-05
CGA:  20    -0.381277723708E+03   -0.12278E-03   -0.12265E-03  9152   0.742E-03 0.754E-05
CGA:  21    -0.381277771884E+03   -0.48176E-04   -0.48185E-04  9152   0.641E-03 0.739E-06
CGA:  22    -0.381277830719E+03   -0.58836E-04   -0.58842E-04  9152   0.278E-03 0.196E-05
CGA:  23    -0.381277851315E+03   -0.20596E-04   -0.20623E-04  9152   0.295E-03 0.113E-05
CGA:  24    -0.381277877519E+03   -0.26204E-04   -0.26206E-04  9152   0.160E-03 0.271E-06
CGA:  25    -0.381277893156E+03   -0.15637E-04   -0.15639E-04  9152   0.182E-03-0.464E-06
CGA:  26    -0.381277904764E+03   -0.11608E-04   -0.11623E-04  9152   0.907E-04 0.320E-06
CGA:  27    -0.381277915583E+03   -0.10820E-04   -0.10814E-04  9152   0.919E-04 0.170E-06
CGA:  28    -0.381277921023E+03   -0.54397E-05   -0.54233E-05  9152   0.567E-04-0.414E-06
 171 F= -.38127792E+03 E0= -.38127141E+03  d E =0.546921E-02  mag=    58.0000
       N       E                     dE             d eps       ncg     rms          ort
SDA:   1    -0.380874432173E+03    0.40348E+00    0.00000E+00  9152   0.124E+01 0.000E+00
CGA:   2    -0.381066382162E+03   -0.19195E+00   -0.19244E+00  9152   0.180E+01-0.485E-02
CGA:   3    -0.381172815644E+03   -0.10643E+00   -0.10761E+00  9152   0.517E+00-0.156E-01
CGA:   4    -0.381250605531E+03   -0.77790E-01   -0.77898E-01  9152   0.153E+00-0.162E-02
CGA:   5    -0.381268559894E+03   -0.17954E-01   -0.17909E-01  9152   0.953E-01 0.158E-02
CGA:   6    -0.381274384554E+03   -0.58247E-02   -0.57764E-02  9152   0.336E-01 0.149E-03
CGA:   7    -0.381277877551E+03   -0.34930E-02   -0.34899E-02  9152   0.104E-01 0.269E-03
CGA:   8    -0.381279154813E+03   -0.12773E-02   -0.12808E-02  9152   0.590E-02-0.102E-03
CGA:   9    -0.381279633860E+03   -0.47905E-03   -0.47919E-03  9152   0.341E-02 0.340E-05
CGA:  10    -0.381279904452E+03   -0.27059E-03   -0.27025E-03  9152   0.150E-02-0.582E-05
CGA:  11    -0.381280106043E+03   -0.20159E-03   -0.20148E-03  9152   0.553E-03 0.276E-05
CGA:  12    -0.381280170085E+03   -0.64042E-04   -0.64047E-04  9152   0.709E-03-0.366E-07
CGA:  13    -0.381280230106E+03   -0.60021E-04   -0.60058E-04  9152   0.212E-03 0.226E-05
CGA:  14    -0.381280266387E+03   -0.36281E-04   -0.36289E-04  9152   0.188E-03-0.106E-06
CGA:  15    -0.381280284435E+03   -0.18048E-04   -0.18052E-04  9152   0.168E-03 0.616E-06
CGA:  16    -0.381280300025E+03   -0.15591E-04   -0.15586E-04  9152   0.707E-04-0.361E-06
CGA:  17    -0.381280309912E+03   -0.98868E-05   -0.98831E-05  9152   0.556E-04 0.974E-07
 172 F= -.38128031E+03 E0= -.38127384E+03  d E =-.238889E-02  mag=    58.0000
       N       E                     dE             d eps       ncg     rms          ort
SDA:   1    -0.379589848228E+03    0.16905E+01    0.00000E+00  9152   0.447E+01 0.000E+00
CGA:   2    -0.380487974038E+03   -0.89813E+00   -0.88504E+00  9152   0.789E+01 0.159E+00
CGA:   3    -0.380977189354E+03   -0.48922E+00   -0.49891E+00  9152   0.179E+01-0.360E+00
CGA:   4    -0.381181546427E+03   -0.20436E+00   -0.20474E+00  9152   0.750E+00-0.159E-01
CGA:   5    -0.381236844550E+03   -0.55298E-01   -0.56613E-01  9152   0.360E+00 0.301E-02
CGA:   6    -0.381264680081E+03   -0.27836E-01   -0.27775E-01  9152   0.112E+00-0.632E-03
CGA:   7    -0.381275590874E+03   -0.10911E-01   -0.10929E-01  9152   0.489E-01 0.131E-02
CGA:   8    -0.381280185590E+03   -0.45947E-02   -0.45928E-02  9152   0.304E-01-0.708E-04
CGA:   9    -0.381282358042E+03   -0.21725E-02   -0.21839E-02  9152   0.831E-02 0.269E-04
CGA:  10    -0.381283427616E+03   -0.10696E-02   -0.10710E-02  9152   0.521E-02-0.381E-04
CGA:  11    -0.381283803982E+03   -0.37637E-03   -0.37692E-03  9152   0.253E-02 0.343E-05
CGA:  12    -0.381284062270E+03   -0.25829E-03   -0.25830E-03  9152   0.107E-02-0.582E-05
CGA:  13    -0.381284201815E+03   -0.13955E-03   -0.13940E-03  9152   0.107E-02 0.455E-05
CGA:  14    -0.381284284006E+03   -0.82190E-04   -0.82168E-04  9152   0.414E-03 0.291E-06
CGA:  15    -0.381284345900E+03   -0.61894E-04   -0.61740E-04  9152   0.431E-03 0.308E-05
CGA:  16    -0.381284389299E+03   -0.43399E-04   -0.43399E-04  9152   0.265E-03 0.250E-06
CGA:  17    -0.381284411630E+03   -0.22331E-04   -0.22352E-04  9152   0.145E-03 0.863E-06
CGA:  18    -0.381284434108E+03   -0.22478E-04   -0.22515E-04  9152   0.100E-03-0.692E-06
CGA:  19    -0.381284441433E+03   -0.73243E-05   -0.73370E-05  9152   0.585E-04 0.343E-06
 173 F= -.38128444E+03 E0= -.38127797E+03  d E =-.413152E-02  mag=    58.0000
       N       E                     dE             d eps       ncg     rms          ort
SDA:   1    -0.378757971795E+03    0.25265E+01    0.00000E+00  9152   0.735E+01 0.000E+00
CGA:   2    -0.379799160543E+03   -0.10412E+01   -0.10377E+01  9152   0.127E+02 0.126E+00
CGA:   3    -0.380757806057E+03   -0.95865E+00   -0.96465E+00  9152   0.279E+01-0.308E+00
CGA:   4    -0.381109799536E+03   -0.35199E+00   -0.35409E+00  9152   0.122E+01-0.512E-01
CGA:   5    -0.381199795294E+03   -0.89996E-01   -0.90418E-01  9152   0.623E+00-0.629E-02
CGA:   6    -0.381248457252E+03   -0.48662E-01   -0.48420E-01  9152   0.161E+00-0.164E-02
CGA:   7    -0.381266783670E+03   -0.18326E-01   -0.18307E-01  9152   0.853E-01 0.114E-02
CGA:   8    -0.381273355233E+03   -0.65716E-02   -0.65053E-02  9152   0.384E-01-0.328E-03
CGA:   9    -0.381276775559E+03   -0.34203E-02   -0.34246E-02  9152   0.171E-01 0.117E-03
CGA:  10    -0.381278658851E+03   -0.18833E-02   -0.18847E-02  9152   0.729E-02-0.109E-03
CGA:  11    -0.381279262755E+03   -0.60390E-03   -0.60435E-03  9152   0.484E-02 0.896E-05
CGA:  12    -0.381279728771E+03   -0.46602E-03   -0.46588E-03  9152   0.174E-02-0.114E-04
CGA:  13    -0.381279972435E+03   -0.24366E-03   -0.24332E-03  9152   0.165E-02 0.774E-05
CGA:  14    -0.381280093052E+03   -0.12062E-03   -0.12063E-03  9152   0.718E-03 0.547E-06
CGA:  15    -0.381280209553E+03   -0.11650E-03   -0.11626E-03  9152   0.639E-03 0.388E-05
CGA:  16    -0.381280267285E+03   -0.57732E-04   -0.57730E-04  9152   0.364E-03-0.129E-06
CGA:  17    -0.381280303103E+03   -0.35818E-04   -0.35825E-04  9152   0.268E-03 0.101E-05
CGA:  18    -0.381280336576E+03   -0.33473E-04   -0.33477E-04  9152   0.113E-03-0.217E-06
CGA:  19    -0.381280347097E+03   -0.10521E-04   -0.10528E-04  9152   0.100E-03 0.643E-06
CGA:  20    -0.381280357822E+03   -0.10724E-04   -0.10724E-04  9152   0.415E-04 0.151E-06
CGA:  21    -0.381280363036E+03   -0.52146E-05   -0.52033E-05  9152   0.353E-04 0.535E-06
 174 F= -.38128036E+03 E0= -.38127390E+03  d E =0.407840E-02  mag=    58.0000
       N       E                     dE             d eps       ncg     rms          ort
SDA:   1    -0.380871098862E+03    0.40926E+00    0.00000E+00  9152   0.121E+01 0.000E+00
CGA:   2    -0.381114154833E+03   -0.24306E+00   -0.24151E+00  9152   0.802E+00 0.160E-01
CGA:   3    -0.381201091882E+03   -0.86937E-01   -0.86855E-01  9152   0.747E+00-0.162E-01
CGA:   4    -0.381251717176E+03   -0.50625E-01   -0.51253E-01  9152   0.219E+00-0.190E-02
CGA:   5    -0.381271521131E+03   -0.19804E-01   -0.19851E-01  9152   0.697E-01 0.806E-03
CGA:   6    -0.381280887905E+03   -0.93668E-02   -0.94009E-02  9152   0.190E-01-0.857E-03
CGA:   7    -0.381282846371E+03   -0.19585E-02   -0.19587E-02  9152   0.179E-01 0.321E-04
CGA:   8    -0.381284035829E+03   -0.11895E-02   -0.11855E-02  9152   0.437E-02 0.715E-05
CGA:   9    -0.381284586810E+03   -0.55098E-03   -0.55122E-03  9152   0.230E-02-0.713E-05
CGA:  10    -0.381284882038E+03   -0.29523E-03   -0.29511E-03  9152   0.699E-03 0.403E-05
CGA:  11    -0.381284978992E+03   -0.96954E-04   -0.96864E-04  9152   0.780E-03 0.235E-05
CGA:  12    -0.381285032714E+03   -0.53721E-04   -0.53659E-04  9152   0.297E-03-0.890E-06
CGA:  13    -0.381285067288E+03   -0.34575E-04   -0.34567E-04  9152   0.147E-03 0.464E-06
CGA:  14    -0.381285093408E+03   -0.26120E-04   -0.26174E-04  9152   0.956E-04-0.742E-06
CGA:  15    -0.381285102337E+03   -0.89289E-05   -0.89376E-05  9152   0.757E-04 0.468E-06
 175 F= -.38128510E+03 E0= -.38127866E+03  d E =-.473930E-02  mag=    58.0000
       N       E                     dE             d eps       ncg     rms          ort
SDA:   1    -0.381249328344E+03    0.35765E-01    0.00000E+00  9152   0.112E+00 0.000E+00
CGA:   2    -0.381262285196E+03   -0.12957E-01   -0.12977E-01  9152   0.175E+00-0.158E-02
CGA:   3    -0.381277187805E+03   -0.14903E-01   -0.14929E-01  9152   0.488E-01 0.254E-03
CGA:   4    -0.381281947475E+03   -0.47597E-02   -0.47431E-02  9152   0.184E-01-0.572E-03
CGA:   5    -0.381284207969E+03   -0.22605E-02   -0.22585E-02  9152   0.485E-02 0.784E-04
CGA:   6    -0.381284832802E+03   -0.62483E-03   -0.62477E-03  9152   0.156E-02 0.300E-05
CGA:   7    -0.381284957429E+03   -0.12463E-03   -0.12447E-03  9152   0.127E-02-0.137E-05
CGA:   8    -0.381285065169E+03   -0.10774E-03   -0.10774E-03  9152   0.256E-03 0.665E-06
CGA:   9    -0.381285104784E+03   -0.39615E-04   -0.39636E-04  9152   0.116E-03-0.424E-06
CGA:  10    -0.381285119434E+03   -0.14650E-04   -0.14643E-04  9152   0.611E-04 0.396E-06
CGA:  11    -0.381285124763E+03   -0.53282E-05   -0.53272E-05  9152   0.450E-04-0.267E-07
 176 F= -.38128512E+03 E0= -.38127869E+03  d E =-.224253E-04  mag=    58.0000
