       N       E                     dE             d eps       ncg     rms          ort
DAV:   1     0.676523268585E+04    0.67652E+04   -0.30691E+05 19264   0.162E+03
DAV:   2     0.423909020461E+03   -0.63413E+04   -0.60258E+04 19264   0.465E+02
DAV:   3    -0.435031048687E+03   -0.85894E+03   -0.83552E+03 19264   0.182E+02
DAV:   4    -0.473458847851E+03   -0.38428E+02   -0.37292E+02 19264   0.423E+01
DAV:   5    -0.474806014364E+03   -0.13472E+01   -0.13420E+01 19264   0.718E+00
SDA:   6    -0.161814132972E+03    0.31299E+03   -0.13420E+01 19264   0.246E+04 0.000E+00
CGA:   7    -0.124753403101E+03    0.37061E+02   -0.12845E+03 19264   0.954E+04-0.466E+04
CGA:   8     0.348207843164E+03    0.47296E+03   -0.50464E+03 19264   0.472E+05-0.261E+05
CGA:   9     0.147021540188E+04    0.11220E+04   -0.33049E+04 19264   0.640E+05-0.226E+05
CGA:  10    -0.371837927408E+02   -0.15074E+04   -0.13475E+04 19264   0.577E+04 0.508E+04
CGA:  11    -0.367758237900E+03   -0.33057E+03   -0.30686E+03 19264   0.563E+03-0.236E+04
CGA:  12    -0.382615680825E+03   -0.14857E+02   -0.96852E+01 19264   0.166E+03-0.189E+03
CGA:  13    -0.384533262365E+03   -0.19176E+01   -0.93295E+00 19264   0.135E+03 0.120E+03
CGA:  14    -0.386539497641E+03   -0.20062E+01   -0.29260E+01 19264   0.170E+03-0.742E+02
CGA:  15    -0.384529383588E+03    0.20101E+01   -0.45105E+01 19264   0.562E+03-0.255E+03
CGA:  16    -0.380919265905E+03    0.36101E+01   -0.14236E+02 19264   0.525E+03-0.324E+03
CGA:  17    -0.372063283923E+03    0.88560E+01   -0.13615E+02 19264   0.132E+04-0.900E+03
CGA:  18    -0.383767532738E+03   -0.11704E+02   -0.23631E+02 19264   0.509E+03-0.699E+03
CGA:  19    -0.381931586179E+03    0.18359E+01   -0.11324E+02 19264   0.110E+04-0.935E+03
CGA:  20    -0.379673850984E+03    0.22577E+01   -0.27940E+02 19264   0.759E+03-0.633E+03
CGA:  21    -0.376862602591E+03    0.28112E+01   -0.18851E+02 19264   0.159E+04-0.142E+04
CGA:  22    -0.378791432570E+03   -0.19288E+01   -0.37569E+02 19264   0.106E+04-0.107E+04
CGA:  23    -0.370690281757E+03    0.81012E+01   -0.27986E+02 19264   0.216E+04-0.174E+04
CGA:  24    -0.385309016364E+03   -0.14619E+02   -0.41553E+02 19264   0.720E+03-0.997E+03
CGA:  25    -0.394400701810E+03   -0.90917E+01   -0.49954E+01 19264   0.331E+03 0.348E+03
CGA:  26    -0.390015790321E+03    0.43849E+01   -0.76943E+01 19264   0.113E+04-0.107E+04
CGA:  27    -0.390687085016E+03   -0.67129E+00   -0.23954E+02 19264   0.728E+03-0.663E+03
CGA:  28    -0.399407553255E+03   -0.87205E+01   -0.11803E+02 19264   0.172E+03-0.370E+03
CGA:  29    -0.400457599847E+03   -0.10500E+01   -0.35818E+01 19264   0.959E+02-0.698E+02
CGA:  30    -0.402854383800E+03   -0.23968E+01   -0.21033E+01 19264   0.948E+01 0.183E+02
CGA:  31    -0.403252110837E+03   -0.39773E+00   -0.14301E+01 19264   0.212E+03-0.185E+02
CGA:  32    -0.404611783917E+03   -0.13597E+01   -0.46698E+01 19264   0.110E+03-0.124E+03
CGA:  33    -0.406267157071E+03   -0.16554E+01   -0.14778E+01 19264   0.895E+01 0.488E+01
CGA:  34    -0.407193828501E+03   -0.92667E+00   -0.11724E+01 19264   0.101E+03-0.222E+01
CGA:  35    -0.410424708678E+03   -0.32309E+01   -0.10916E+01 19264   0.178E+02 0.717E+02
CGA:  36    -0.410992576472E+03   -0.56787E+00   -0.38643E+00 19264   0.555E+01 0.805E+01
CGA:  37    -0.411371521640E+03   -0.37895E+00   -0.32156E+00 19264   0.136E+02 0.681E+00
CGA:  38    -0.411568396916E+03   -0.19688E+00   -0.15476E+00 19264   0.175E+02 0.282E+01
CGA:  39    -0.411089588632E+03    0.47881E+00   -0.32088E+00 19264   0.406E+02-0.546E+02
CGA:  40    -0.412142943947E+03   -0.10534E+01   -0.10585E+01 19264   0.231E+01 0.649E+01
CGA:  41    -0.412275677637E+03   -0.13273E+00   -0.12708E+00 19264   0.178E+01-0.629E-01
CGA:  42    -0.412586338880E+03   -0.31066E+00   -0.29263E+00 19264   0.989E+01 0.224E+00
CGA:  43    -0.412780326233E+03   -0.19399E+00   -0.10318E+00 19264   0.692E+01 0.986E+01
CGA:  44    -0.412941132601E+03   -0.16081E+00   -0.14508E+00 19264   0.101E+01 0.523E+00
CGA:  45    -0.412966656225E+03   -0.25524E-01   -0.24768E-01 19264   0.530E+00 0.223E-01
CGA:  46    -0.413027108755E+03   -0.60453E-01   -0.59272E-01 19264   0.195E+01 0.206E-01
CGA:  47    -0.412928423951E+03    0.98685E-01   -0.19389E+00 19264   0.116E+02-0.957E+01
CGA:  48    -0.413137117139E+03   -0.20869E+00   -0.26767E+00 19264   0.243E+01-0.195E+01
CGA:  49    -0.413171934859E+03   -0.34818E-01   -0.41141E-01 19264   0.791E+00-0.227E+00
CGA:  50    -0.413221810354E+03   -0.49875E-01   -0.50468E-01 19264   0.823E+00-0.360E-01
CGA:  51    -0.413273226852E+03   -0.51416E-01   -0.50140E-01 19264   0.352E+00 0.179E+00
CGA:  52    -0.413283708628E+03   -0.10482E-01   -0.11228E-01 19264   0.129E+00-0.172E-01
CGA:  53    -0.413295345649E+03   -0.11637E-01   -0.10556E-01 19264   0.109E+00 0.296E-01
CGA:  54    -0.413300775301E+03   -0.54297E-02   -0.54451E-02 19264   0.906E-01-0.915E-04
CGA:  55    -0.413306590992E+03   -0.58157E-02   -0.58038E-02 19264   0.131E+00 0.118E-02
CGA:  56    -0.413317746662E+03   -0.11156E-01   -0.10994E-01 19264   0.118E+00 0.462E-02
CGA:  57    -0.413322238650E+03   -0.44920E-02   -0.44857E-02 19264   0.468E-01 0.141E-03
CGA:  58    -0.413324688257E+03   -0.24496E-02   -0.24504E-02 19264   0.384E-01 0.761E-04
CGA:  59    -0.413326697037E+03   -0.20088E-02   -0.20093E-02 19264   0.461E-01 0.595E-04
CGA:  60    -0.413329577448E+03   -0.28804E-02   -0.28857E-02 19264   0.289E-01-0.704E-03
CGA:  61    -0.413331154149E+03   -0.15767E-02   -0.15772E-02 19264   0.219E-01 0.802E-04
CGA:  62    -0.413332255092E+03   -0.11009E-02   -0.10990E-02 19264   0.211E-01-0.694E-04
CGA:  63    -0.413334019858E+03   -0.17648E-02   -0.17920E-02 19264   0.481E-01-0.813E-03
CGA:  64    -0.413336308378E+03   -0.22885E-02   -0.22394E-02 19264   0.306E-01-0.119E-02
CGA:  65    -0.413337898934E+03   -0.15906E-02   -0.15924E-02 19264   0.821E-02 0.147E-03
CGA:  66    -0.413338323171E+03   -0.42424E-03   -0.42373E-03 19264   0.128E-01-0.280E-04
CGA:  67    -0.413339399817E+03   -0.10766E-02   -0.11137E-02 19264   0.301E-01-0.103E-02
CGA:  68    -0.413340867144E+03   -0.14673E-02   -0.14629E-02 19264   0.231E-01-0.270E-03
CGA:  69    -0.413341399459E+03   -0.53231E-03   -0.50399E-03 19264   0.393E-02 0.912E-03
CGA:  70    -0.413341608638E+03   -0.20918E-03   -0.20902E-03 19264   0.112E-01-0.181E-04
CGA:  71    -0.413343054817E+03   -0.14462E-02   -0.15731E-02 19264   0.270E-01-0.148E-02
CGA:  72    -0.413343371707E+03   -0.31689E-03   -0.30948E-03 19264   0.503E-02 0.390E-03
CGA:  73    -0.413343468159E+03   -0.96452E-04   -0.95882E-04 19264   0.426E-02 0.197E-04
CGA:  74    -0.413343631055E+03   -0.16290E-03   -0.16244E-03 19264   0.735E-02 0.124E-05
CGA:  75    -0.413343849833E+03   -0.21878E-03   -0.21601E-03 19264   0.114E-01 0.619E-04
CGA:  76    -0.413344238187E+03   -0.38835E-03   -0.37452E-03 19264   0.138E-01 0.116E-03
CGA:  77    -0.413344433193E+03   -0.19501E-03   -0.18740E-03 19264   0.412E-02 0.510E-03
SDA:  78    -0.413344497832E+03   -0.64639E-04   -0.64335E-04 19264   0.294E-02 0.230E-04
CGA:  79    -0.413344637652E+03   -0.13982E-03   -0.13978E-03 19264   0.505E-02-0.212E-04
CGA:  80    -0.413345137163E+03   -0.49951E-03   -0.49784E-03 19264   0.146E-01 0.429E-04
CGA:  81    -0.413297546989E+03    0.47590E-01    0.12303E+00 19264   0.111E+01-0.113E+00
CGA:  82    -0.413316957190E+03   -0.19410E-01   -0.19140E-01 19264   0.833E-01 0.118E-01
CGA:  83    -0.413321495766E+03   -0.45386E-02   -0.45197E-02 19264   0.854E-01 0.216E-03
CGA:  84    -0.413330002534E+03   -0.85068E-02   -0.84985E-02 19264   0.676E-01 0.583E-03
CGA:  85    -0.413331457668E+03   -0.14551E-02   -0.14151E-02 19264   0.188E-01 0.160E-02
CGA:  86    -0.413333176755E+03   -0.17191E-02   -0.17195E-02 19264   0.275E-01-0.764E-04
CGA:  87    -0.413333879475E+03   -0.70272E-03   -0.10544E-01 19264   0.401E+00-0.270E-01
CGA:  88    -0.413341577508E+03   -0.76980E-02   -0.75738E-02 19264   0.698E-01 0.582E-02
CGA:  89    -0.413343623293E+03   -0.20458E-02   -0.20702E-02 19264   0.175E-01-0.610E-03
CGA:  90    -0.413344658027E+03   -0.10347E-02   -0.10335E-02 19264   0.137E-01 0.288E-04
CGA:  91    -0.413346576571E+03   -0.19185E-02   -0.19029E-02 19264   0.219E-01 0.298E-03
CGA:  92    -0.413347069760E+03   -0.49319E-03   -0.47057E-03 19264   0.364E-02 0.106E-02
CGA:  93    -0.413347347079E+03   -0.27732E-03   -0.27701E-03 19264   0.501E-02 0.898E-06
CGA:  94    -0.413348336247E+03   -0.98917E-03   -0.12291E-02 19264   0.342E-01-0.200E-02
CGA:  95    -0.413348513711E+03   -0.17746E-03   -0.25800E-03 19264   0.199E-01-0.690E-02
CGA:  96    -0.413348652860E+03   -0.13915E-03   -0.15158E-03 19264   0.922E-02-0.121E-02
CGA:  97    -0.413348737444E+03   -0.84584E-04   -0.85114E-04 19264   0.423E-02-0.379E-04
CGA:  98    -0.413348778953E+03   -0.41508E-04   -0.41586E-04 19264   0.201E-02-0.147E-05
CGA:  99    -0.413348804326E+03   -0.25373E-04   -0.25407E-04 19264   0.201E-02 0.233E-05
CGA: 100    -0.413348848631E+03   -0.44305E-04   -0.44350E-04 19264   0.456E-02-0.476E-06
CGA: 101    -0.413348942243E+03   -0.93612E-04   -0.93861E-04 19264   0.701E-02-0.102E-04
CGA: 102    -0.413349030228E+03   -0.87985E-04   -0.88245E-04 19264   0.468E-02-0.170E-04
CGA: 103    -0.413349083598E+03   -0.53370E-04   -0.53253E-04 19264   0.291E-02 0.175E-05
CGA: 104    -0.413349116663E+03   -0.33065E-04   -0.32920E-04 19264   0.154E-02-0.596E-05
CGA: 105    -0.413349132169E+03   -0.15507E-04   -0.15306E-04 19264   0.710E-03-0.335E-05
CGA: 106    -0.413349141506E+03   -0.93363E-05   -0.90828E-05 19264   0.707E-03-0.464E-05
CGA: 107    -0.413349158023E+03   -0.16517E-04   -0.15994E-04 19264   0.163E-02-0.148E-04
CGA: 108    -0.413349194965E+03   -0.36941E-04   -0.35580E-04 19264   0.299E-02-0.360E-04
CGA: 109    -0.413349240623E+03   -0.45659E-04   -0.43310E-04 19264   0.275E-02-0.236E-04
CGA: 110    -0.413349275419E+03   -0.34796E-04   -0.33042E-04 19264   0.177E-02-0.149E-04
CGA: 111    -0.413349295378E+03   -0.19959E-04   -0.19137E-04 19264   0.911E-03-0.116E-04
CGA: 112    -0.413349305296E+03   -0.99178E-05   -0.96693E-05 19264   0.549E-03-0.428E-05
   1 F= -.41334931E+03 E0= -.41331535E+03  d E =-.413349E+03  mag=    34.0000
       N       E                     dE             d eps       ncg     rms          ort
SDA:   1    -0.412807314117E+03    0.54198E+00    0.00000E+00 19264   0.387E+02 0.000E+00
CGA:   2    -0.413382378604E+03   -0.57506E+00   -0.54666E+00 19264   0.104E+00 0.742E+00
CGA:   3    -0.413385323038E+03   -0.29444E-02   -0.29451E-02 19264   0.482E-01 0.356E-04
CGA:   4    -0.413387244842E+03   -0.19218E-02   -0.19217E-02 19264   0.511E-01 0.338E-04
CGA:   5    -0.413391536253E+03   -0.42914E-02   -0.42870E-02 19264   0.312E-01 0.110E-03
CGA:   6    -0.413392613415E+03   -0.10772E-02   -0.10785E-02 19264   0.126E-01 0.389E-04
CGA:   7    -0.413392992071E+03   -0.37866E-03   -0.37859E-03 19264   0.863E-02 0.236E-05
CGA:   8    -0.413393854949E+03   -0.86288E-03   -0.86362E-03 19264   0.450E-02-0.125E-04
CGA:   9    -0.413393998434E+03   -0.14348E-03   -0.14350E-03 19264   0.991E-03 0.444E-06
CGA:  10    -0.413394044620E+03   -0.46186E-04   -0.46182E-04 19264   0.168E-02 0.536E-05
CGA:  11    -0.413394151579E+03   -0.10696E-03   -0.10667E-03 19264   0.543E-03 0.169E-04
CGA:  12    -0.413394173890E+03   -0.22312E-04   -0.22348E-04 19264   0.273E-03 0.585E-05
CGA:  13    -0.413394181878E+03   -0.79876E-05   -0.80454E-05 19264   0.165E-03 0.337E-05
CGA:  14    -0.413394193102E+03   -0.11224E-04   -0.11082E-04 19264   0.177E-03 0.693E-05
CGA:  15    -0.413394205834E+03   -0.12732E-04   -0.12548E-04 19264   0.428E-04 0.858E-05
CGA:  16    -0.413394207705E+03   -0.18707E-05   -0.18776E-05 19264   0.411E-04 0.113E-05
   2 F= -.41339421E+03 E0= -.41336015E+03  d E =-.449024E-01  mag=    34.0000
       N       E                     dE             d eps       ncg     rms          ort
SDA:   1    -0.357240823203E+03    0.56153E+02    0.00000E+00 19264   0.748E+03 0.000E+00
CGA:   2    -0.370776197299E+03   -0.13535E+02   -0.17449E+02 19264   0.264E+03-0.133E+03
CGA:   3    -0.383120741167E+03   -0.12345E+02   -0.14133E+02 19264   0.466E+03-0.650E+02
CGA:   4    -0.398413556580E+03   -0.15293E+02   -0.24805E+02 19264   0.687E+03-0.276E+03
CGA:   5    -0.405501349762E+03   -0.70878E+01   -0.12088E+02 19264   0.312E+03-0.379E+03
CGA:   6    -0.408833081147E+03   -0.33317E+01   -0.39547E+01 19264   0.364E+02-0.559E+02
CGA:   7    -0.410196488603E+03   -0.13634E+01   -0.13643E+01 19264   0.537E+02-0.571E+00
CGA:   8    -0.412263437465E+03   -0.20669E+01   -0.20493E+01 19264   0.398E+02-0.116E+01
CGA:   9    -0.413194575213E+03   -0.93114E+00   -0.87001E+00 19264   0.112E+02 0.131E+01
CGA:  10    -0.413591782400E+03   -0.39721E+00   -0.40206E+00 19264   0.152E+02 0.134E+00
CGA:  11    -0.414421314355E+03   -0.82953E+00   -0.84035E+00 19264   0.244E+02-0.496E+00
CGA:  12    -0.414966573761E+03   -0.54526E+00   -0.55107E+00 19264   0.886E+01-0.202E+01
CGA:  13    -0.415158263546E+03   -0.19169E+00   -0.19574E+00 19264   0.419E+01-0.779E-01
CGA:  14    -0.415327081789E+03   -0.16882E+00   -0.16954E+00 19264   0.450E+01 0.390E+00
CGA:  15    -0.415479525803E+03   -0.15244E+00   -0.15380E+00 19264   0.271E+01 0.179E-01
CGA:  16    -0.415573828701E+03   -0.94303E-01   -0.96947E-01 19264   0.107E+01 0.172E+00
CGA:  17    -0.415604827760E+03   -0.30999E-01   -0.31377E-01 19264   0.539E+00 0.492E-03
CGA:  18    -0.415636967282E+03   -0.32140E-01   -0.30885E-01 19264   0.494E+00 0.568E-01
CGA:  19    -0.415655065942E+03   -0.18099E-01   -0.18140E-01 19264   0.263E+00 0.104E-02
CGA:  20    -0.415669020815E+03   -0.13955E-01   -0.13708E-01 19264   0.219E+00 0.153E-01
CGA:  21    -0.415678864955E+03   -0.98441E-02   -0.98337E-02 19264   0.158E+00 0.428E-02
CGA:  22    -0.415687259969E+03   -0.83950E-02   -0.83580E-02 19264   0.141E+00 0.238E-02
CGA:  23    -0.415693707666E+03   -0.64477E-02   -0.64372E-02 19264   0.905E-01 0.186E-02
CGA:  24    -0.415697374896E+03   -0.36672E-02   -0.36676E-02 19264   0.632E-01 0.129E-03
CGA:  25    -0.415700137911E+03   -0.27630E-02   -0.27624E-02 19264   0.539E-01 0.223E-03
CGA:  26    -0.415702291381E+03   -0.21535E-02   -0.21539E-02 19264   0.354E-01 0.135E-03
CGA:  27    -0.415703719372E+03   -0.14280E-02   -0.14281E-02 19264   0.222E-01 0.437E-04
CGA:  28    -0.415704811574E+03   -0.10922E-02   -0.10908E-02 19264   0.187E-01 0.148E-03
CGA:  29    -0.415705735185E+03   -0.92361E-03   -0.92383E-03 19264   0.137E-01 0.615E-05
CGA:  30    -0.415706361609E+03   -0.62642E-03   -0.62608E-03 19264   0.937E-02 0.876E-04
CGA:  31    -0.415706806361E+03   -0.44475E-03   -0.44462E-03 19264   0.819E-02 0.374E-04
CGA:  32    -0.415707216340E+03   -0.40998E-03   -0.40957E-03 19264   0.803E-02 0.584E-04
CGA:  33    -0.415707549679E+03   -0.33334E-03   -0.33340E-03 19264   0.611E-02 0.362E-04
CGA:  34    -0.415707820197E+03   -0.27052E-03   -0.27051E-03 19264   0.512E-02 0.193E-04
CGA:  35    -0.415708094902E+03   -0.27470E-03   -0.27433E-03 19264   0.511E-02 0.303E-04
SDA:  36    -0.415708359384E+03   -0.26448E-03   -0.26483E-03 19264   0.423E-02-0.281E-04
CGA:  37    -0.415708433609E+03   -0.74225E-04   -0.74251E-04 19264   0.109E-02-0.670E-05
CGA:  38    -0.415708775055E+03   -0.34145E-03   -0.37294E-04 19264   0.567E-02 0.135E-03
CGA:  39    -0.415708944719E+03   -0.16966E-03   -0.16786E-03 19264   0.178E-02 0.293E-04
CGA:  40    -0.415709012563E+03   -0.67844E-04   -0.67657E-04 19264   0.130E-02-0.309E-05
CGA:  41    -0.415709232289E+03   -0.21973E-03   -0.21986E-03 19264   0.510E-02 0.518E-06
CGA:  42    -0.415709371924E+03   -0.13964E-03   -0.13114E-03 19264   0.119E-02 0.284E-03
CGA:  43    -0.415709431785E+03   -0.59860E-04   -0.59532E-04 19264   0.127E-02 0.116E-05
CGA:  44    -0.415709543866E+03   -0.11208E-03   -0.11416E-03 19264   0.327E-02-0.917E-04
CGA:  45    -0.415709649037E+03   -0.10517E-03   -0.11053E-03 19264   0.494E-03-0.716E-04
CGA:  46    -0.415709675509E+03   -0.26472E-04   -0.26491E-04 19264   0.779E-03-0.154E-06
CGA:  47    -0.415709714022E+03   -0.38514E-04   -0.38403E-04 19264   0.117E-02-0.118E-05
CGA:  48    -0.415709810270E+03   -0.96248E-04   -0.96273E-04 19264   0.546E-03-0.290E-05
CGA:  49    -0.415709824893E+03   -0.14623E-04   -0.14618E-04 19264   0.417E-03-0.177E-05
CGA:  50    -0.415709864942E+03   -0.40049E-04   -0.40217E-04 19264   0.900E-03-0.555E-05
CGA:  51    -0.415709920582E+03   -0.55640E-04   -0.55751E-04 19264   0.432E-03 0.228E-05
CGA:  52    -0.415709931335E+03   -0.10753E-04   -0.10874E-04 19264   0.235E-03-0.562E-05
CGA:  53    -0.415709952338E+03   -0.21004E-04   -0.21098E-04 19264   0.421E-03-0.358E-05
CGA:  54    -0.415709980880E+03   -0.28542E-04   -0.28546E-04 19264   0.311E-03 0.368E-05
CGA:  55    -0.415709987796E+03   -0.69153E-05   -0.70084E-05 19264   0.983E-04-0.427E-05
   3 F= -.41570999E+03 E0= -.41567645E+03  d E =-.231578E+01  mag=    34.0000
       N       E                     dE             d eps       ncg     rms          ort
SDA:   1    -0.305555891697E+03    0.11015E+03    0.00000E+00 19264   0.148E+04 0.000E+00
CGA:   2    -0.332363291534E+03   -0.26807E+02   -0.45417E+02 19264   0.958E+03-0.595E+03
CGA:   3    -0.360589676406E+03   -0.28226E+02   -0.17636E+02 19264   0.385E+03 0.171E+03
CGA:   4    -0.365232282706E+03   -0.46426E+01   -0.13524E+02 19264   0.108E+04-0.133E+03
CGA:   5    -0.373678044458E+03   -0.84458E+01   -0.14326E+02 19264   0.110E+04-0.324E+03
CGA:   6    -0.384988626685E+03   -0.11311E+02   -0.19642E+02 19264   0.132E+04-0.379E+02
CGA:   7    -0.397823518546E+03   -0.12835E+02   -0.23238E+02 19264   0.290E+03-0.868E+03
CGA:   8    -0.404339771179E+03   -0.65163E+01   -0.67448E+01 19264   0.713E+02-0.613E+01
CGA:   9    -0.406860212805E+03   -0.25204E+01   -0.24973E+01 19264   0.123E+03 0.100E+01
CGA:  10    -0.413751499426E+03   -0.68913E+01   -0.69483E+01 19264   0.418E+02-0.127E+02
CGA:  11    -0.414207659492E+03   -0.45616E+00   -0.45094E+00 19264   0.873E+01 0.162E+00
CGA:  12    -0.414502052527E+03   -0.29439E+00   -0.28790E+00 19264   0.924E+01 0.259E-01
CGA:  13    -0.415587675047E+03   -0.10856E+01   -0.11495E+01 19264   0.378E+02-0.176E+00
CGA:  14    -0.415966246985E+03   -0.37857E+00   -0.55040E+00 19264   0.679E+01-0.133E+02
CGA:  15    -0.416046316350E+03   -0.80069E-01   -0.91507E-01 19264   0.300E+01-0.348E+00
CGA:  16    -0.416328197095E+03   -0.28188E+00   -0.26087E+00 19264   0.678E+01 0.475E+00
CGA:  17    -0.416515780328E+03   -0.18758E+00   -0.20709E+00 19264   0.425E+01-0.347E+00
CGA:  18    -0.416635016862E+03   -0.11924E+00   -0.12521E+00 19264   0.109E+01-0.428E-01
CGA:  19    -0.416681328028E+03   -0.46311E-01   -0.46451E-01 19264   0.105E+01 0.680E-02
CGA:  20    -0.416723004944E+03   -0.41677E-01   -0.42112E-01 19264   0.107E+01 0.106E-01
CGA:  21    -0.416780316466E+03   -0.57312E-01   -0.57164E-01 19264   0.695E+00 0.242E-01
CGA:  22    -0.416801728019E+03   -0.21412E-01   -0.21608E-01 19264   0.411E+00-0.888E-03
CGA:  23    -0.416815211728E+03   -0.13484E-01   -0.13588E-01 19264   0.167E+00 0.562E-03
CGA:  24    -0.416825826363E+03   -0.10615E-01   -0.10595E-01 19264   0.262E+00 0.122E-02
CGA:  25    -0.416837973891E+03   -0.12148E-01   -0.12179E-01 19264   0.232E+00 0.568E-02
CGA:  26    -0.416846472500E+03   -0.84986E-02   -0.84807E-02 19264   0.665E-01-0.174E-03
CGA:  27    -0.416849229732E+03   -0.27572E-02   -0.27604E-02 19264   0.874E-01 0.223E-03
CGA:  28    -0.416855287231E+03   -0.60575E-02   -0.59765E-02 19264   0.113E+00 0.310E-02
CGA:  29    -0.416860621044E+03   -0.53338E-02   -0.53212E-02 19264   0.803E-01-0.164E-02
CGA:  30    -0.416863418540E+03   -0.27975E-02   -0.27952E-02 19264   0.602E-01-0.168E-04
CGA:  31    -0.416869051064E+03   -0.56325E-02   -0.58467E-02 19264   0.193E+00-0.588E-02
CGA:  32    -0.416874011490E+03   -0.49604E-02   -0.44272E-02 19264   0.917E-01 0.240E-02
CGA:  33    -0.416875911136E+03   -0.18996E-02   -0.19996E-02 19264   0.527E-01-0.289E-02
CGA:  34    -0.416876923233E+03   -0.10121E-02   -0.10407E-02 19264   0.272E-01-0.847E-03
CGA:  35    -0.416878383834E+03   -0.14606E-02   -0.14559E-02 19264   0.739E-01 0.353E-03
CGA:  36    -0.416880608706E+03   -0.22249E-02   -0.22450E-02 19264   0.376E-01-0.573E-04
CGA:  37    -0.416882388899E+03   -0.17802E-02   -0.17795E-02 19264   0.605E-01 0.229E-03
SDA:  38    -0.416883682823E+03   -0.12939E-02   -0.12929E-02 19264   0.123E-01-0.152E-04
CGA:  39    -0.416884432881E+03   -0.75006E-03   -0.74973E-03 19264   0.171E-01 0.157E-04
CGA:  40    -0.416885849750E+03   -0.14169E-02   -0.14184E-02 19264   0.418E-01-0.429E-04
CGA:  41    -0.416887029551E+03   -0.11798E-02   -0.11778E-02 19264   0.108E-01-0.754E-05
CGA:  42    -0.416887546816E+03   -0.51727E-03   -0.51729E-03 19264   0.518E-02-0.110E-04
CGA:  43    -0.416888186696E+03   -0.63988E-03   -0.63988E-03 19264   0.131E-01-0.104E-05
CGA:  44    -0.416888729348E+03   -0.54265E-03   -0.54109E-03 19264   0.926E-02-0.479E-04
CGA:  45    -0.416889021662E+03   -0.29231E-03   -0.29234E-03 19264   0.130E-02 0.176E-05
CGA:  46    -0.416889099740E+03   -0.78078E-04   -0.78158E-04 19264   0.102E-02-0.796E-05
CGA:  47    -0.416889134999E+03   -0.35260E-04   -0.35157E-04 19264   0.139E-02-0.657E-05
CGA:  48    -0.416889300953E+03   -0.16595E-03   -0.16938E-03 19264   0.813E-03-0.473E-04
CGA:  49    -0.416889325186E+03   -0.24233E-04   -0.24155E-04 19264   0.185E-03-0.436E-05
CGA:  50    -0.416889337759E+03   -0.12573E-04   -0.12524E-04 19264   0.518E-03 0.245E-05
CGA:  51    -0.416889376490E+03   -0.38731E-04   -0.38451E-04 19264   0.291E-03 0.129E-04
CGA:  52    -0.416889386957E+03   -0.10467E-04   -0.10530E-04 19264   0.139E-03 0.287E-05
CGA:  53    -0.416889390714E+03   -0.37572E-05   -0.37769E-05 19264   0.868E-04 0.401E-06
   4 F= -.41688939E+03 E0= -.41685613E+03  d E =-.117940E+01  mag=    34.0000
       N       E                     dE             d eps       ncg     rms          ort
SDA:   1    -0.414741247104E+03    0.21481E+01    0.00000E+00 19264   0.600E+01 0.000E+00
CGA:   2    -0.415715206129E+03   -0.97396E+00   -0.97513E+00 19264   0.270E+02-0.305E-02
CGA:   3    -0.416423628475E+03   -0.70842E+00   -0.70147E+00 19264   0.555E+01 0.919E-01
CGA:   4    -0.416609231060E+03   -0.18560E+00   -0.18430E+00 19264   0.223E+01 0.141E-01
CGA:   5    -0.416719268942E+03   -0.11004E+00   -0.11020E+00 19264   0.314E+01 0.851E-02
CGA:   6    -0.416848608647E+03   -0.12934E+00   -0.12918E+00 19264   0.133E+01-0.120E-02
CGA:   7    -0.416917499155E+03   -0.68891E-01   -0.68876E-01 19264   0.258E+00-0.140E-02
CGA:   8    -0.416931369307E+03   -0.13870E-01   -0.13867E-01 19264   0.247E+00-0.765E-03
CGA:   9    -0.416940504298E+03   -0.91350E-02   -0.91332E-02 19264   0.262E+00 0.524E-04
CGA:  10    -0.416952214203E+03   -0.11710E-01   -0.11716E-01 19264   0.813E-01 0.187E-03
CGA:  11    -0.416955608178E+03   -0.33940E-02   -0.33921E-02 19264   0.212E-01-0.279E-04
CGA:  12    -0.416957435737E+03   -0.18276E-02   -0.18269E-02 19264   0.484E-01 0.477E-04
CGA:  13    -0.416959245628E+03   -0.18099E-02   -0.18103E-02 19264   0.309E-01 0.266E-04
CGA:  14    -0.416960149101E+03   -0.90347E-03   -0.90368E-03 19264   0.450E-02 0.707E-05
CGA:  15    -0.416960357841E+03   -0.20874E-03   -0.20873E-03 19264   0.690E-02-0.177E-05
CGA:  16    -0.416960775027E+03   -0.41719E-03   -0.41724E-03 19264   0.679E-02-0.520E-05
CGA:  17    -0.416961165200E+03   -0.39017E-03   -0.39020E-03 19264   0.215E-02-0.608E-05
CGA:  18    -0.416961242845E+03   -0.77645E-04   -0.77646E-04 19264   0.192E-02-0.592E-06
CGA:  19    -0.416961307804E+03   -0.64959E-04   -0.64968E-04 19264   0.105E-02 0.876E-06
CGA:  20    -0.416961434557E+03   -0.12675E-03   -0.12619E-03 19264   0.174E-02 0.785E-05
CGA:  21    -0.416961506073E+03   -0.71516E-04   -0.71601E-04 19264   0.665E-03 0.599E-05
CGA:  22    -0.416961522016E+03   -0.15943E-04   -0.16017E-04 19264   0.273E-03 0.241E-05
CGA:  23    -0.416961556375E+03   -0.34359E-04   -0.33699E-04 19264   0.653E-03 0.948E-05
CGA:  24    -0.416961575767E+03   -0.19392E-04   -0.19532E-04 19264   0.336E-03 0.636E-05
CGA:  25    -0.416961589694E+03   -0.13926E-04   -0.13978E-04 19264   0.860E-04 0.367E-05
CGA:  26    -0.416961598046E+03   -0.83518E-05   -0.83057E-05 19264   0.235E-03 0.103E-05
   5 F= -.41696160E+03 E0= -.41692823E+03  d E =-.722073E-01  mag=    34.0000
       N       E                     dE             d eps       ncg     rms          ort
SDA:   1    -0.406121249279E+03    0.10840E+02    0.00000E+00 19264   0.317E+02 0.000E+00
CGA:   2    -0.409180797247E+03   -0.30595E+01   -0.30376E+01 19264   0.119E+03 0.760E+00
CGA:   3    -0.414638317439E+03   -0.54575E+01   -0.53267E+01 19264   0.239E+02-0.359E+00
CGA:   4    -0.415286908627E+03   -0.64859E+00   -0.65924E+00 19264   0.109E+02-0.490E+00
CGA:   5    -0.415767518070E+03   -0.48061E+00   -0.48107E+00 19264   0.163E+02 0.603E-02
CGA:   6    -0.416652324404E+03   -0.88481E+00   -0.88458E+00 19264   0.478E+01-0.183E+00
CGA:   7    -0.416776293046E+03   -0.12397E+00   -0.12626E+00 19264   0.237E+01-0.435E-01
CGA:   8    -0.416859159392E+03   -0.82866E-01   -0.81843E-01 19264   0.107E+01 0.186E-02
CGA:   9    -0.416920378023E+03   -0.61219E-01   -0.61146E-01 19264   0.143E+01 0.900E-02
CGA:  10    -0.416967569147E+03   -0.47191E-01   -0.47313E-01 19264   0.882E+00-0.489E-03
CGA:  11    -0.416995550176E+03   -0.27981E-01   -0.27958E-01 19264   0.145E+00 0.259E-03
CGA:  12    -0.417002110572E+03   -0.65604E-02   -0.65729E-02 19264   0.202E+00 0.965E-03
CGA:  13    -0.417014637529E+03   -0.12527E-01   -0.12533E-01 19264   0.190E+00-0.437E-03
CGA:  14    -0.417021921115E+03   -0.72836E-02   -0.73140E-02 19264   0.311E-01 0.488E-03
CGA:  15    -0.417023050191E+03   -0.11291E-02   -0.11293E-02 19264   0.314E-01-0.596E-05
CGA:  16    -0.417025099001E+03   -0.20488E-02   -0.20427E-02 19264   0.440E-01 0.292E-03
CGA:  17    -0.417027164405E+03   -0.20654E-02   -0.20660E-02 19264   0.327E-01 0.696E-04
CGA:  18    -0.417027909062E+03   -0.74466E-03   -0.74564E-03 19264   0.594E-02-0.390E-04
CGA:  19    -0.417028298630E+03   -0.38957E-03   -0.38906E-03 19264   0.823E-02 0.226E-04
CGA:  20    -0.417028837920E+03   -0.53929E-03   -0.53909E-03 19264   0.118E-01 0.653E-05
CGA:  21    -0.417029266949E+03   -0.42903E-03   -0.42982E-03 19264   0.326E-02 0.159E-04
CGA:  22    -0.417029425000E+03   -0.15805E-03   -0.15807E-03 19264   0.192E-02 0.106E-04
CGA:  23    -0.417029509002E+03   -0.84003E-04   -0.84078E-04 19264   0.264E-02 0.107E-04
CGA:  24    -0.417029678117E+03   -0.16911E-03   -0.16869E-03 19264   0.259E-02 0.314E-04
CGA:  25    -0.417029757822E+03   -0.79705E-04   -0.79951E-04 19264   0.102E-02 0.128E-04
CGA:  26    -0.417029788132E+03   -0.30310E-04   -0.30420E-04 19264   0.419E-03 0.411E-05
CGA:  27    -0.417029848692E+03   -0.60559E-04   -0.59779E-04 19264   0.108E-02 0.756E-05
CGA:  28    -0.417029884836E+03   -0.36144E-04   -0.36246E-04 19264   0.386E-03 0.409E-05
CGA:  29    -0.417029898305E+03   -0.13470E-04   -0.13501E-04 19264   0.207E-03 0.123E-05
CGA:  30    -0.417029916238E+03   -0.17933E-04   -0.17825E-04 19264   0.587E-03 0.356E-05
CGA:  31    -0.417029938896E+03   -0.22658E-04   -0.22713E-04 19264   0.297E-03 0.372E-05
SDA:  32    -0.417029951362E+03   -0.12466E-04   -0.12488E-04 19264   0.159E-03 0.173E-05
CGA:  33    -0.417029954557E+03   -0.31947E-05   -0.31962E-05 19264   0.676E-04-0.526E-06
   6 F= -.41702995E+03 E0= -.41699649E+03  d E =-.683565E-01  mag=    34.0000
       N       E                     dE             d eps       ncg     rms          ort
SDA:   1    -0.415213150897E+03    0.18168E+01    0.00000E+00 19264   0.725E+01 0.000E+00
CGA:   2    -0.415482843468E+03   -0.26969E+00   -0.27015E+00 19264   0.111E+02-0.769E-02
CGA:   3    -0.416480140031E+03   -0.99730E+00   -0.99884E+00 19264   0.869E+01-0.411E-01
CGA:   4    -0.416684201117E+03   -0.20406E+00   -0.20588E+00 19264   0.280E+01-0.573E-01
CGA:   5    -0.416780282403E+03   -0.96081E-01   -0.95857E-01 19264   0.183E+01 0.991E-03
CGA:   6    -0.416937475842E+03   -0.15719E+00   -0.15826E+00 19264   0.132E+01-0.281E-01
CGA:   7    -0.416998200102E+03   -0.60724E-01   -0.60926E-01 19264   0.546E+00 0.948E-02
CGA:   8    -0.417011698450E+03   -0.13498E-01   -0.13351E-01 19264   0.193E+00 0.364E-02
CGA:   9    -0.417019882748E+03   -0.81843E-02   -0.81951E-02 19264   0.158E+00 0.345E-03
CGA:  10    -0.417029212157E+03   -0.93294E-02   -0.93262E-02 19264   0.225E+00 0.326E-03
CGA:  11    -0.417035186346E+03   -0.59742E-02   -0.59678E-02 19264   0.255E-01 0.167E-03
CGA:  12    -0.417036508589E+03   -0.13222E-02   -0.13222E-02 19264   0.215E-01 0.264E-04
CGA:  13    -0.417038404497E+03   -0.18959E-02   -0.18957E-02 19264   0.383E-01 0.204E-05
CGA:  14    -0.417039476534E+03   -0.10720E-02   -0.10732E-02 19264   0.609E-02-0.272E-04
CGA:  15    -0.417039704150E+03   -0.22762E-03   -0.22764E-03 19264   0.251E-02-0.317E-05
CGA:  16    -0.417040076618E+03   -0.37247E-03   -0.37235E-03 19264   0.745E-02 0.117E-05
CGA:  17    -0.417040288209E+03   -0.21159E-03   -0.21159E-03 19264   0.222E-02-0.607E-05
CGA:  18    -0.417040371974E+03   -0.83765E-04   -0.83785E-04 19264   0.709E-03-0.200E-05
CGA:  19    -0.417040400955E+03   -0.28980E-04   -0.28986E-04 19264   0.117E-02-0.337E-06
CGA:  20    -0.417040495740E+03   -0.94785E-04   -0.94753E-04 19264   0.100E-02 0.786E-06
CGA:  21    -0.417040537615E+03   -0.41876E-04   -0.41903E-04 19264   0.395E-03 0.107E-05
CGA:  22    -0.417040549818E+03   -0.12202E-04   -0.12235E-04 19264   0.219E-03 0.630E-06
CGA:  23    -0.417040563506E+03   -0.13688E-04   -0.13655E-04 19264   0.230E-03 0.279E-05
CGA:  24    -0.417040587786E+03   -0.24280E-04   -0.23912E-04 19264   0.200E-03 0.685E-05
CGA:  25    -0.417040592646E+03   -0.48600E-05   -0.49042E-05 19264   0.671E-04 0.792E-06
   7 F= -.41704059E+03 E0= -.41700716E+03  d E =-.106381E-01  mag=    34.0000
       N       E                     dE             d eps       ncg     rms          ort
SDA:   1    -0.403319232046E+03    0.13721E+02    0.00000E+00 19264   0.432E+02 0.000E+00
CGA:   2    -0.406364240706E+03   -0.30450E+01   -0.30227E+01 19264   0.125E+03 0.128E+01
CGA:   3    -0.413860015264E+03   -0.74958E+01   -0.76007E+01 19264   0.295E+02-0.144E+02
CGA:   4    -0.414548439770E+03   -0.68842E+00   -0.71734E+00 19264   0.183E+02-0.655E+00
CGA:   5    -0.415584810532E+03   -0.10364E+01   -0.10502E+01 19264   0.260E+02-0.147E+01
CGA:   6    -0.416403808816E+03   -0.81900E+00   -0.82305E+00 19264   0.920E+01-0.299E-01
CGA:   7    -0.416668325066E+03   -0.26452E+00   -0.25163E+00 19264   0.365E+01 0.214E+00
CGA:   8    -0.416791186029E+03   -0.12286E+00   -0.12700E+00 19264   0.188E+01 0.163E-02
CGA:   9    -0.416870867921E+03   -0.79682E-01   -0.79898E-01 19264   0.209E+01 0.931E-02
CGA:  10    -0.416960105509E+03   -0.89238E-01   -0.90302E-01 19264   0.100E+01 0.508E-01
CGA:  11    -0.416991199696E+03   -0.31094E-01   -0.31409E-01 19264   0.397E+00-0.164E-02
CGA:  12    -0.417003212936E+03   -0.12013E-01   -0.12249E-01 19264   0.225E+00-0.719E-03
CGA:  13    -0.417022207747E+03   -0.18995E-01   -0.19315E-01 19264   0.441E+00-0.781E-02
CGA:  14    -0.417035620824E+03   -0.13413E-01   -0.14070E-01 19264   0.801E-01 0.149E-02
CGA:  15    -0.417038103733E+03   -0.24829E-02   -0.24809E-02 19264   0.334E-01 0.483E-05
CGA:  16    -0.417040011533E+03   -0.19078E-02   -0.18984E-02 19264   0.597E-01 0.685E-03
CGA:  17    -0.417043865084E+03   -0.38536E-02   -0.38748E-02 19264   0.370E-01-0.111E-02
CGA:  18    -0.417044716967E+03   -0.85188E-03   -0.85562E-03 19264   0.115E-01-0.941E-04
CGA:  19    -0.417045240279E+03   -0.52331E-03   -0.52348E-03 19264   0.101E-01 0.391E-04
CGA:  20    -0.417045693629E+03   -0.45335E-03   -0.45327E-03 19264   0.106E-01-0.589E-05
CGA:  21    -0.417046420801E+03   -0.72717E-03   -0.72252E-03 19264   0.910E-02 0.183E-03
CGA:  22    -0.417046716198E+03   -0.29540E-03   -0.29534E-03 19264   0.258E-02 0.775E-05
CGA:  23    -0.417046811483E+03   -0.95285E-04   -0.95423E-04 19264   0.216E-02 0.526E-05
CGA:  24    -0.417046994353E+03   -0.18287E-03   -0.18254E-03 19264   0.381E-02 0.985E-05
CGA:  25    -0.417047114553E+03   -0.12020E-03   -0.12038E-03 19264   0.162E-02 0.889E-05
CGA:  26    -0.417047163777E+03   -0.49224E-04   -0.49340E-04 19264   0.431E-03 0.378E-05
CGA:  27    -0.417047182878E+03   -0.19101E-04   -0.19112E-04 19264   0.570E-03 0.208E-05
CGA:  28    -0.417047235037E+03   -0.52159E-04   -0.51580E-04 19264   0.452E-03 0.126E-04
CGA:  29    -0.417047247438E+03   -0.12401E-04   -0.12464E-04 19264   0.135E-03 0.207E-05
CGA:  30    -0.417047253067E+03   -0.56290E-05   -0.56405E-05 19264   0.127E-03 0.881E-06
   8 F= -.41704725E+03 E0= -.41701379E+03  d E =-.666042E-02  mag=    34.0000
       N       E                     dE             d eps       ncg     rms          ort
SDA:   1    -0.413641254269E+03    0.34060E+01    0.00000E+00 19264   0.154E+02 0.000E+00
CGA:   2    -0.414135349413E+03   -0.49410E+00   -0.49665E+00 19264   0.175E+02-0.385E-01
CGA:   3    -0.415653951139E+03   -0.15186E+01   -0.15195E+01 19264   0.213E+02-0.137E-01
CGA:   4    -0.416330341634E+03   -0.67639E+00   -0.66348E+00 19264   0.708E+01 0.373E-01
CGA:   5    -0.416518787283E+03   -0.18845E+00   -0.18767E+00 19264   0.388E+01 0.865E-02
CGA:   6    -0.416779288036E+03   -0.26050E+00   -0.25939E+00 19264   0.283E+01 0.457E-01
CGA:   7    -0.416947648410E+03   -0.16836E+00   -0.16827E+00 19264   0.154E+01 0.612E-02
CGA:   8    -0.416986907576E+03   -0.39259E-01   -0.39488E-01 19264   0.542E+00-0.413E-02
CGA:   9    -0.417006714865E+03   -0.19807E-01   -0.19724E-01 19264   0.236E+00-0.121E-02
CGA:  10    -0.417029619029E+03   -0.22904E-01   -0.22873E-01 19264   0.327E+00 0.628E-03
CGA:  11    -0.417037583832E+03   -0.79648E-02   -0.80047E-02 19264   0.113E+00-0.738E-03
CGA:  12    -0.417041059372E+03   -0.34755E-02   -0.34823E-02 19264   0.344E-01 0.633E-05
CGA:  13    -0.417043344661E+03   -0.22853E-02   -0.22830E-02 19264   0.720E-01 0.111E-03
CGA:  14    -0.417046543226E+03   -0.31986E-02   -0.32013E-02 19264   0.278E-01 0.240E-03
CGA:  15    -0.417047507892E+03   -0.96467E-03   -0.96466E-03 19264   0.814E-02-0.840E-05
CGA:  16    -0.417047925645E+03   -0.41775E-03   -0.41767E-03 19264   0.775E-02 0.115E-04
CGA:  17    -0.417048213128E+03   -0.28748E-03   -0.28765E-03 19264   0.767E-02 0.344E-05
CGA:  18    -0.417048768590E+03   -0.55546E-03   -0.55495E-03 19264   0.624E-02 0.185E-04
CGA:  19    -0.417048925231E+03   -0.15664E-03   -0.15699E-03 19264   0.215E-02-0.478E-05
CGA:  20    -0.417049013762E+03   -0.88532E-04   -0.88558E-04 19264   0.107E-02 0.231E-05
CGA:  21    -0.417049141401E+03   -0.12764E-03   -0.12692E-03 19264   0.288E-02 0.100E-04
CGA:  22    -0.417049236116E+03   -0.94715E-04   -0.94818E-04 19264   0.108E-02 0.418E-05
CGA:  23    -0.417049268685E+03   -0.32570E-04   -0.32617E-04 19264   0.386E-03 0.820E-06
CGA:  24    -0.417049288290E+03   -0.19604E-04   -0.19603E-04 19264   0.551E-03 0.109E-06
CGA:  25    -0.417049312557E+03   -0.24267E-04   -0.24271E-04 19264   0.379E-03-0.543E-07
CGA:  26    -0.417049342389E+03   -0.29832E-04   -0.29821E-04 19264   0.248E-03-0.135E-06
CGA:  27    -0.417049348489E+03   -0.61002E-05   -0.61041E-05 19264   0.780E-04-0.474E-06
   9 F= -.41704935E+03 E0= -.41701600E+03  d E =-.209542E-02  mag=    34.0000
       N       E                     dE             d eps       ncg     rms          ort
SDA:   1    -0.415631560997E+03    0.14178E+01    0.00000E+00 19264   0.549E+01 0.000E+00
CGA:   2    -0.415882750418E+03   -0.25119E+00   -0.25127E+00 19264   0.953E+01 0.111E-01
CGA:   3    -0.416534804563E+03   -0.65205E+00   -0.65361E+00 19264   0.700E+01-0.611E-01
CGA:   4    -0.416765461923E+03   -0.23066E+00   -0.22765E+00 19264   0.242E+01-0.778E-03
CGA:   5    -0.416838131937E+03   -0.72670E-01   -0.72900E-01 19264   0.191E+01-0.159E-02
CGA:   6    -0.416951217804E+03   -0.11309E+00   -0.11290E+00 19264   0.125E+01 0.114E-01
CGA:   7    -0.417018230194E+03   -0.67012E-01   -0.67022E-01 19264   0.659E+00-0.107E-02
CGA:   8    -0.417036028866E+03   -0.17799E-01   -0.17877E-01 19264   0.227E+00-0.105E-02
CGA:   9    -0.417044391927E+03   -0.83631E-02   -0.83413E-02 19264   0.108E+00-0.348E-03
CGA:  10    -0.417055961712E+03   -0.11570E-01   -0.11565E-01 19264   0.832E-01 0.726E-04
CGA:  11    -0.417058408348E+03   -0.24466E-02   -0.24504E-02 19264   0.326E-01-0.255E-04
CGA:  12    -0.417059468995E+03   -0.10606E-02   -0.10607E-02 19264   0.157E-01 0.101E-04
CGA:  13    -0.417061487715E+03   -0.20187E-02   -0.20186E-02 19264   0.257E-01 0.785E-05
CGA:  14    -0.417062006438E+03   -0.51872E-03   -0.51896E-03 19264   0.619E-02-0.121E-04
CGA:  15    -0.417062294519E+03   -0.28808E-03   -0.28804E-03 19264   0.305E-02-0.386E-05
CGA:  16    -0.417062426103E+03   -0.13158E-03   -0.13161E-03 19264   0.375E-02 0.172E-05
CGA:  17    -0.417062666337E+03   -0.24023E-03   -0.24018E-03 19264   0.325E-02 0.421E-05
CGA:  18    -0.417062819718E+03   -0.15338E-03   -0.15340E-03 19264   0.991E-03 0.443E-05
CGA:  19    -0.417062855517E+03   -0.35799E-04   -0.35819E-04 19264   0.713E-03 0.822E-06
CGA:  20    -0.417062886899E+03   -0.31382E-04   -0.31389E-04 19264   0.793E-03 0.926E-06
CGA:  21    -0.417062951339E+03   -0.64441E-04   -0.64385E-04 19264   0.103E-02 0.216E-05
CGA:  22    -0.417062974307E+03   -0.22968E-04   -0.22972E-04 19264   0.186E-03-0.403E-06
CGA:  23    -0.417062984303E+03   -0.99961E-05   -0.10001E-04 19264   0.177E-03-0.135E-05
CGA:  24    -0.417062998558E+03   -0.14254E-04   -0.14356E-04 19264   0.258E-03-0.353E-05
CGA:  25    -0.417063007418E+03   -0.88600E-05   -0.88270E-05 19264   0.147E-03-0.227E-05
  10 F= -.41706301E+03 E0= -.41702977E+03  d E =-.136589E-01  mag=    34.0000
       N       E                     dE             d eps       ncg     rms          ort
SDA:   1    -0.416869589353E+03    0.19341E+00    0.00000E+00 19264   0.701E+00 0.000E+00
CGA:   2    -0.416905119690E+03   -0.35530E-01   -0.35532E-01 19264   0.139E+01-0.118E-02
CGA:   3    -0.416991448658E+03   -0.86329E-01   -0.86326E-01 19264   0.119E+01 0.259E-03
CGA:   4    -0.417026742251E+03   -0.35294E-01   -0.35358E-01 19264   0.257E+00-0.698E-03
CGA:   5    -0.417034651875E+03   -0.79096E-02   -0.79090E-02 19264   0.231E+00 0.702E-04
CGA:   6    -0.417055349303E+03   -0.20697E-01   -0.20698E-01 19264   0.135E+00 0.195E-04
CGA:   7    -0.417059918193E+03   -0.45689E-02   -0.45672E-02 19264   0.215E-01 0.216E-04
CGA:   8    -0.417061382849E+03   -0.14647E-02   -0.14640E-02 19264   0.479E-01 0.398E-04
CGA:   9    -0.417063029570E+03   -0.16467E-02   -0.16464E-02 19264   0.149E-01-0.466E-05
CGA:  10    -0.417063577189E+03   -0.54762E-03   -0.54771E-03 19264   0.607E-02 0.552E-06
CGA:  11    -0.417063756323E+03   -0.17913E-03   -0.17912E-03 19264   0.382E-02-0.440E-06
CGA:  12    -0.417064021848E+03   -0.26553E-03   -0.26551E-03 19264   0.324E-02 0.503E-06
CGA:  13    -0.417064232033E+03   -0.21019E-03   -0.21017E-03 19264   0.191E-02 0.123E-05
CGA:  14    -0.417064280746E+03   -0.48713E-04   -0.48729E-04 19264   0.724E-03-0.371E-06
CGA:  15    -0.417064304447E+03   -0.23701E-04   -0.23708E-04 19264   0.412E-03 0.298E-06
CGA:  16    -0.417064355354E+03   -0.50907E-04   -0.50724E-04 19264   0.108E-02 0.235E-05
CGA:  17    -0.417064380955E+03   -0.25602E-04   -0.25642E-04 19264   0.107E-03 0.104E-05
CGA:  18    -0.417064387345E+03   -0.63897E-05   -0.63828E-05 19264   0.133E-03 0.606E-06
  11 F= -.41706439E+03 E0= -.41703113E+03  d E =-.137993E-02  mag=    34.0000
       N       E                     dE             d eps       ncg     rms          ort
SDA:   1    -0.416731304368E+03    0.33308E+00    0.00000E+00 19264   0.133E+01 0.000E+00
CGA:   2    -0.416772855540E+03   -0.41551E-01   -0.41642E-01 19264   0.173E+01-0.107E-02
CGA:   3    -0.416947680160E+03   -0.17482E+00   -0.17535E+00 19264   0.185E+01-0.105E-01
CGA:   4    -0.417017707443E+03   -0.70027E-01   -0.70418E-01 19264   0.261E+00 0.280E-02
CGA:   5    -0.417036238340E+03   -0.18531E-01   -0.18547E-01 19264   0.349E+00-0.573E-03
CGA:   6    -0.417050185122E+03   -0.13947E-01   -0.13962E-01 19264   0.276E+00 0.241E-03
CGA:   7    -0.417059210132E+03   -0.90250E-02   -0.90476E-02 19264   0.648E-01-0.971E-04
CGA:   8    -0.417061480351E+03   -0.22702E-02   -0.22669E-02 19264   0.337E-01 0.195E-04
CGA:   9    -0.417062442512E+03   -0.96216E-03   -0.96155E-03 19264   0.207E-01 0.215E-04
CGA:  10    -0.417064038880E+03   -0.15964E-02   -0.15961E-02 19264   0.184E-01 0.121E-04
CGA:  11    -0.417064989392E+03   -0.95051E-03   -0.95051E-03 19264   0.264E-02 0.937E-05
CGA:  12    -0.417065149999E+03   -0.16061E-03   -0.16059E-03 19264   0.353E-02 0.205E-05
CGA:  13    -0.417065304298E+03   -0.15430E-03   -0.15432E-03 19264   0.438E-02 0.344E-05
CGA:  14    -0.417065467939E+03   -0.16364E-03   -0.16365E-03 19264   0.724E-03 0.157E-05
CGA:  15    -0.417065500246E+03   -0.32308E-04   -0.32315E-04 19264   0.338E-03 0.612E-06
CGA:  16    -0.417065526332E+03   -0.26086E-04   -0.26046E-04 19264   0.940E-03 0.116E-05
CGA:  17    -0.417065566910E+03   -0.40577E-04   -0.40605E-04 19264   0.249E-03 0.246E-05
CGA:  18    -0.417065577036E+03   -0.10126E-04   -0.10135E-04 19264   0.175E-03 0.556E-06
CGA:  19    -0.417065582197E+03   -0.51613E-05   -0.51701E-05 19264   0.100E-03 0.173E-06
  12 F= -.41706558E+03 E0= -.41703232E+03  d E =-.119485E-02  mag=    34.0000
       N       E                     dE             d eps       ncg     rms          ort
SDA:   1    -0.412411150719E+03    0.46544E+01    0.00000E+00 19264   0.122E+02 0.000E+00
CGA:   2    -0.413926520730E+03   -0.15154E+01   -0.14929E+01 19264   0.510E+02 0.373E+00
CGA:   3    -0.415793717492E+03   -0.18672E+01   -0.18394E+01 19264   0.187E+02 0.151E-01
CGA:   4    -0.416365846021E+03   -0.57213E+00   -0.56813E+00 19264   0.527E+01 0.503E-01
CGA:   5    -0.416560477330E+03   -0.19463E+00   -0.19474E+00 19264   0.570E+01 0.125E-02
CGA:   6    -0.416814001898E+03   -0.25352E+00   -0.25192E+00 19264   0.295E+01-0.740E-01
CGA:   7    -0.416979527206E+03   -0.16553E+00   -0.16492E+00 19264   0.797E+00 0.647E-01
CGA:   8    -0.417006863754E+03   -0.27337E-01   -0.27130E-01 19264   0.380E+00 0.528E-03
CGA:   9    -0.417021089603E+03   -0.14226E-01   -0.14264E-01 19264   0.365E+00 0.622E-03
CGA:  10    -0.417044723826E+03   -0.23634E-01   -0.23638E-01 19264   0.293E+00-0.883E-04
CGA:  11    -0.417054089796E+03   -0.93660E-02   -0.93374E-02 19264   0.143E+00 0.158E-03
CGA:  12    -0.417057435706E+03   -0.33459E-02   -0.33545E-02 19264   0.279E-01-0.191E-03
CGA:  13    -0.417060866203E+03   -0.34305E-02   -0.34301E-02 19264   0.556E-01 0.213E-04
CGA:  14    -0.417063122751E+03   -0.22565E-02   -0.22574E-02 19264   0.204E-01 0.118E-04
CGA:  15    -0.417063547579E+03   -0.42483E-03   -0.42523E-03 19264   0.435E-02-0.157E-04
CGA:  16    -0.417064034980E+03   -0.48740E-03   -0.48616E-03 19264   0.134E-01 0.234E-04
CGA:  17    -0.417064486568E+03   -0.45159E-03   -0.45222E-03 19264   0.744E-02 0.708E-05
CGA:  18    -0.417064743446E+03   -0.25688E-03   -0.25720E-03 19264   0.137E-02 0.547E-05
CGA:  19    -0.417064824451E+03   -0.81005E-04   -0.80979E-04 19264   0.173E-02 0.178E-05
CGA:  20    -0.417064922382E+03   -0.97930E-04   -0.97917E-04 19264   0.301E-02 0.171E-05
CGA:  21    -0.417065074241E+03   -0.15186E-03   -0.15187E-03 19264   0.987E-03 0.384E-05
CGA:  22    -0.417065105474E+03   -0.31234E-04   -0.31271E-04 19264   0.677E-03 0.114E-05
CGA:  23    -0.417065129690E+03   -0.24215E-04   -0.24238E-04 19264   0.375E-03 0.121E-05
CGA:  24    -0.417065167991E+03   -0.38301E-04   -0.38063E-04 19264   0.563E-03 0.447E-05
CGA:  25    -0.417065192125E+03   -0.24134E-04   -0.24169E-04 19264   0.282E-03 0.290E-05
CGA:  26    -0.417065198720E+03   -0.65954E-05   -0.66293E-05 19264   0.721E-04 0.716E-06
  13 F= -.41706520E+03 E0= -.41703198E+03  d E =0.383477E-03  mag=    34.0000
       N       E                     dE             d eps       ncg     rms          ort
SDA:   1    -0.408692298755E+03    0.83729E+01    0.00000E+00 19264   0.217E+02 0.000E+00
CGA:   2    -0.411851106194E+03   -0.31588E+01   -0.31464E+01 19264   0.993E+02 0.286E+00
CGA:   3    -0.415023089557E+03   -0.31720E+01   -0.30562E+01 19264   0.209E+02 0.207E+01
CGA:   4    -0.415834238271E+03   -0.81115E+00   -0.81174E+00 19264   0.832E+01-0.242E-01
CGA:   5    -0.416272189684E+03   -0.43795E+00   -0.43788E+00 19264   0.127E+02-0.258E-01
CGA:   6    -0.416694566430E+03   -0.42238E+00   -0.42137E+00 19264   0.557E+01 0.575E-02
CGA:   7    -0.416900692668E+03   -0.20613E+00   -0.20779E+00 19264   0.121E+01 0.931E-02
CGA:   8    -0.416957775973E+03   -0.57083E-01   -0.57117E-01 19264   0.623E+00 0.273E-02
CGA:   9    -0.416987594800E+03   -0.29819E-01   -0.29836E-01 19264   0.936E+00 0.198E-02
CGA:  10    -0.417030350243E+03   -0.42755E-01   -0.42827E-01 19264   0.384E+00 0.467E-02
CGA:  11    -0.417044201047E+03   -0.13851E-01   -0.13874E-01 19264   0.908E-01 0.182E-03
CGA:  12    -0.417047297638E+03   -0.30966E-02   -0.30990E-02 19264   0.115E+00 0.465E-04
CGA:  13    -0.417055609377E+03   -0.83117E-02   -0.83128E-02 19264   0.780E-01-0.291E-04
CGA:  14    -0.417058620144E+03   -0.30108E-02   -0.30148E-02 19264   0.147E-01 0.655E-04
CGA:  15    -0.417059266324E+03   -0.64618E-03   -0.64622E-03 19264   0.182E-01 0.627E-05
CGA:  16    -0.417060065185E+03   -0.79886E-03   -0.79929E-03 19264   0.177E-01 0.376E-04
CGA:  17    -0.417061231838E+03   -0.11667E-02   -0.11657E-02 19264   0.102E-01 0.505E-04
CGA:  18    -0.417061479938E+03   -0.24810E-03   -0.24823E-03 19264   0.462E-02 0.170E-05
CGA:  19    -0.417061700943E+03   -0.22101E-03   -0.22102E-03 19264   0.204E-02 0.687E-05
CGA:  20    -0.417062005416E+03   -0.30447E-03   -0.30385E-03 19264   0.696E-02 0.688E-05
CGA:  21    -0.417062187763E+03   -0.18235E-03   -0.18272E-03 19264   0.225E-02-0.252E-05
CGA:  22    -0.417062263640E+03   -0.75877E-04   -0.75975E-04 19264   0.677E-03 0.175E-05
CGA:  23    -0.417062307786E+03   -0.44146E-04   -0.44111E-04 19264   0.131E-02 0.233E-05
CGA:  24    -0.417062371856E+03   -0.64070E-04   -0.64093E-04 19264   0.118E-02 0.495E-05
CGA:  25    -0.417062418598E+03   -0.46742E-04   -0.46801E-04 19264   0.240E-03 0.425E-05
CGA:  26    -0.417062428253E+03   -0.96551E-05   -0.96801E-05 19264   0.243E-03 0.186E-05
  14 F= -.41706243E+03 E0= -.41702919E+03  d E =0.277047E-02  mag=    34.0000
       N       E                     dE             d eps       ncg     rms          ort
SDA:   1    -0.395910174996E+03    0.21152E+02    0.00000E+00 19264   0.296E+03 0.000E+00
CGA:   2    -0.401884306968E+03   -0.59741E+01   -0.63239E+01 19264   0.840E+02-0.436E+02
CGA:   3    -0.405591209798E+03   -0.37069E+01   -0.37098E+01 19264   0.863E+02-0.526E+00
CGA:   4    -0.411450106732E+03   -0.58589E+01   -0.61332E+01 19264   0.873E+02-0.118E+02
CGA:   5    -0.413413776243E+03   -0.19637E+01   -0.18088E+01 19264   0.325E+02 0.286E+01
CGA:   6    -0.414446386107E+03   -0.10326E+01   -0.10259E+01 19264   0.169E+02-0.164E+00
CGA:   7    -0.415225432552E+03   -0.77905E+00   -0.77893E+00 19264   0.332E+02-0.343E-01
CGA:   8    -0.416120261922E+03   -0.89483E+00   -0.88593E+00 19264   0.103E+02 0.960E-02
CGA:   9    -0.416462809390E+03   -0.34255E+00   -0.34663E+00 19264   0.382E+01 0.353E-01
CGA:  10    -0.416534708553E+03   -0.71899E-01   -0.74095E-01 19264   0.212E+01-0.741E-01
CGA:  11    -0.416625970798E+03   -0.91262E-01   -0.91288E-01 19264   0.143E+01 0.134E-01
CGA:  12    -0.416719980772E+03   -0.94010E-01   -0.93154E-01 19264   0.158E+01 0.352E-01
CGA:  13    -0.416754890072E+03   -0.34909E-01   -0.36114E-01 19264   0.564E+00-0.275E-01
CGA:  14    -0.416772478677E+03   -0.17589E-01   -0.17581E-01 19264   0.227E+00-0.134E-03
CGA:  15    -0.416786870411E+03   -0.14392E-01   -0.14132E-01 19264   0.393E+00 0.112E-01
CGA:  16    -0.416801405427E+03   -0.14535E-01   -0.14592E-01 19264   0.265E+00 0.161E-02
CGA:  17    -0.416810534918E+03   -0.91295E-02   -0.91296E-02 19264   0.645E-01 0.102E-04
CGA:  18    -0.416812894562E+03   -0.23596E-02   -0.23686E-02 19264   0.603E-01 0.413E-03
CGA:  19    -0.416815559151E+03   -0.26646E-02   -0.26643E-02 19264   0.507E-01 0.321E-03
CGA:  20    -0.416818731952E+03   -0.31728E-02   -0.31585E-02 19264   0.297E-01 0.605E-03
CGA:  21    -0.416819775662E+03   -0.10437E-02   -0.10451E-02 19264   0.195E-01 0.376E-04
CGA:  22    -0.416820507351E+03   -0.73169E-03   -0.73376E-03 19264   0.108E-01 0.113E-03
CGA:  23    -0.416821233577E+03   -0.72623E-03   -0.72570E-03 19264   0.143E-01 0.234E-04
CGA:  24    -0.416821760742E+03   -0.52716E-03   -0.52765E-03 19264   0.110E-01 0.237E-04
CGA:  25    -0.416822158570E+03   -0.39783E-03   -0.39827E-03 19264   0.350E-02 0.184E-04
CGA:  26    -0.416822320113E+03   -0.16154E-03   -0.16153E-03 19264   0.356E-02 0.282E-05
CGA:  27    -0.416822478323E+03   -0.15821E-03   -0.15820E-03 19264   0.327E-02 0.856E-05
CGA:  28    -0.416822669577E+03   -0.19125E-03   -0.19104E-03 19264   0.166E-02 0.127E-04
CGA:  29    -0.416822728106E+03   -0.58530E-04   -0.58570E-04 19264   0.112E-02 0.186E-05
CGA:  30    -0.416822767004E+03   -0.38898E-04   -0.38923E-04 19264   0.617E-03 0.141E-05
CGA:  31    -0.416822803776E+03   -0.36772E-04   -0.36704E-04 19264   0.758E-03 0.337E-05
SDA:  32    -0.416822833672E+03   -0.29897E-04   -0.29917E-04 19264   0.599E-03 0.263E-05
CGA:  33    -0.416822843894E+03   -0.10222E-04   -0.10223E-04 19264   0.120E-03-0.133E-05
CGA:  34    -0.416822850095E+03   -0.62016E-05   -0.61978E-05 19264   0.173E-03-0.682E-06
CGA:  35    -0.416822872479E+03   -0.22383E-04   -0.22111E-04 19264   0.506E-03 0.249E-05
CGA:  36    -0.416822887999E+03   -0.15520E-04   -0.15553E-04 19264   0.237E-03 0.116E-05
CGA:  37    -0.416822898428E+03   -0.10430E-04   -0.10434E-04 19264   0.685E-04 0.559E-06
CGA:  38    -0.416822902699E+03   -0.42707E-05   -0.42600E-05 19264   0.773E-04 0.517E-07
CGA:  39    -0.416822913545E+03   -0.10846E-04   -0.10692E-04 19264   0.329E-03 0.131E-05
CGA:  40    -0.416822923003E+03   -0.94576E-05   -0.94864E-05 19264   0.657E-04 0.100E-05
  15 F= -.41682292E+03 E0= -.41679004E+03  d E =0.239505E+00  mag=    34.0000
       N       E                     dE             d eps       ncg     rms          ort
SDA:   1    -0.408856543082E+03    0.79664E+01    0.00000E+00 19264   0.554E+02 0.000E+00
CGA:   2    -0.410257508597E+03   -0.14010E+01   -0.14082E+01 19264   0.345E+02-0.156E+01
CGA:   3    -0.412851893958E+03   -0.25944E+01   -0.26314E+01 19264   0.505E+02-0.108E+01
CGA:   4    -0.415111023617E+03   -0.22591E+01   -0.22423E+01 19264   0.132E+02-0.149E+01
CGA:   5    -0.415868356692E+03   -0.75733E+00   -0.75711E+00 19264   0.991E+01 0.269E-02
CGA:   6    -0.416372450042E+03   -0.50409E+00   -0.50409E+00 19264   0.139E+02 0.105E-01
CGA:   7    -0.416768955496E+03   -0.39651E+00   -0.39282E+00 19264   0.342E+01 0.384E-01
CGA:   8    -0.416907888776E+03   -0.13893E+00   -0.13991E+00 19264   0.112E+01 0.342E-01
CGA:   9    -0.416943947406E+03   -0.36059E-01   -0.36370E-01 19264   0.102E+01-0.160E-03
CGA:  10    -0.416993591913E+03   -0.49645E-01   -0.49645E-01 19264   0.741E+00-0.239E-03
CGA:  11    -0.417031517010E+03   -0.37925E-01   -0.37864E-01 19264   0.164E+00 0.118E-01
CGA:  12    -0.417036495190E+03   -0.49782E-02   -0.49749E-02 19264   0.148E+00 0.894E-04
CGA:  13    -0.417044939942E+03   -0.84448E-02   -0.84407E-02 19264   0.179E+00 0.280E-03
CGA:  14    -0.417054264982E+03   -0.93250E-02   -0.92891E-02 19264   0.673E-01 0.532E-02
CGA:  15    -0.417056187277E+03   -0.19223E-02   -0.19198E-02 19264   0.351E-01 0.511E-04
CGA:  16    -0.417057567687E+03   -0.13804E-02   -0.13826E-02 19264   0.191E-01 0.102E-03
CGA:  17    -0.417059746480E+03   -0.21788E-02   -0.21633E-02 19264   0.213E-01 0.239E-03
CGA:  18    -0.417060517989E+03   -0.77151E-03   -0.77241E-03 19264   0.166E-01 0.203E-04
CGA:  19    -0.417060976904E+03   -0.45891E-03   -0.45952E-03 19264   0.424E-02-0.209E-05
CGA:  20    -0.417061261566E+03   -0.28466E-03   -0.28442E-03 19264   0.641E-02 0.112E-04
CGA:  21    -0.417061662708E+03   -0.40114E-03   -0.40066E-03 19264   0.930E-02 0.284E-04
CGA:  22    -0.417061946443E+03   -0.28373E-03   -0.28381E-03 19264   0.151E-02-0.252E-05
CGA:  23    -0.417062034491E+03   -0.88049E-04   -0.88005E-04 19264   0.161E-02 0.246E-05
CGA:  24    -0.417062108395E+03   -0.73904E-04   -0.73913E-04 19264   0.225E-02 0.208E-05
CGA:  25    -0.417062211581E+03   -0.10319E-03   -0.10320E-03 19264   0.142E-02 0.167E-05
CGA:  26    -0.417062290805E+03   -0.79225E-04   -0.79193E-04 19264   0.597E-03 0.253E-05
CGA:  27    -0.417062305869E+03   -0.15063E-04   -0.15066E-04 19264   0.296E-03-0.101E-05
CGA:  28    -0.417062330916E+03   -0.25047E-04   -0.25065E-04 19264   0.492E-03-0.126E-05
CGA:  29    -0.417062360907E+03   -0.29991E-04   -0.29999E-04 19264   0.478E-03-0.111E-05
CGA:  30    -0.417062372562E+03   -0.11655E-04   -0.11648E-04 19264   0.166E-03-0.707E-06
CGA:  31    -0.417062380325E+03   -0.77626E-05   -0.77625E-05 19264   0.936E-04-0.745E-06
  16 F= -.41706238E+03 E0= -.41702920E+03  d E =-.239457E+00  mag=    34.0000
       N       E                     dE             d eps       ncg     rms          ort
SDA:   1    -0.416382931096E+03    0.67944E+00    0.00000E+00 19264   0.318E+01 0.000E+00
CGA:   2    -0.416508030980E+03   -0.12510E+00   -0.12540E+00 19264   0.409E+01 0.468E-02
CGA:   3    -0.416699869672E+03   -0.19184E+00   -0.19192E+00 19264   0.392E+01 0.930E-02
CGA:   4    -0.416897884464E+03   -0.19801E+00   -0.19802E+00 19264   0.129E+01-0.293E-01
CGA:   5    -0.416953259441E+03   -0.55375E-01   -0.55341E-01 19264   0.110E+01-0.154E-02
CGA:   6    -0.416997991760E+03   -0.44732E-01   -0.44750E-01 19264   0.927E+00 0.669E-03
CGA:   7    -0.417040674324E+03   -0.42683E-01   -0.42694E-01 19264   0.390E+00 0.162E-02
CGA:   8    -0.417053302884E+03   -0.12629E-01   -0.12643E-01 19264   0.209E+00 0.106E-03
CGA:   9    -0.417058643807E+03   -0.53409E-02   -0.53388E-02 19264   0.529E-01 0.891E-04
CGA:  10    -0.417062918381E+03   -0.42746E-02   -0.42741E-02 19264   0.679E-01 0.199E-04
CGA:  11    -0.417065633420E+03   -0.27150E-02   -0.27165E-02 19264   0.405E-01 0.545E-04
CGA:  12    -0.417066646030E+03   -0.10126E-02   -0.10124E-02 19264   0.691E-02 0.129E-04
CGA:  13    -0.417067178737E+03   -0.53271E-03   -0.53260E-03 19264   0.181E-01 0.616E-05
CGA:  14    -0.417067841202E+03   -0.66246E-03   -0.66272E-03 19264   0.803E-02 0.130E-04
CGA:  15    -0.417068210385E+03   -0.36918E-03   -0.36918E-03 19264   0.217E-02 0.410E-06
CGA:  16    -0.417068284265E+03   -0.73880E-04   -0.73892E-04 19264   0.198E-02-0.103E-06
CGA:  17    -0.417068405736E+03   -0.12147E-03   -0.12146E-03 19264   0.192E-02 0.442E-06
CGA:  18    -0.417068503921E+03   -0.98185E-04   -0.98179E-04 19264   0.177E-02 0.173E-05
CGA:  19    -0.417068553936E+03   -0.50015E-04   -0.50045E-04 19264   0.666E-03 0.277E-06
CGA:  20    -0.417068579013E+03   -0.25078E-04   -0.25081E-04 19264   0.261E-03 0.633E-07
CGA:  21    -0.417068607212E+03   -0.28199E-04   -0.28161E-04 19264   0.949E-03 0.189E-06
CGA:  22    -0.417068640765E+03   -0.33553E-04   -0.33560E-04 19264   0.161E-03 0.446E-06
CGA:  23    -0.417068646657E+03   -0.58918E-05   -0.58923E-05 19264   0.129E-03-0.733E-07
  17 F= -.41706865E+03 E0= -.41703542E+03  d E =-.626633E-02  mag=    34.0000
       N       E                     dE             d eps       ncg     rms          ort
SDA:   1    -0.416733545810E+03    0.33509E+00    0.00000E+00 19264   0.236E+02 0.000E+00
CGA:   2    -0.417031062982E+03   -0.29752E+00   -0.30602E+00 19264   0.191E+00-0.962E+00
CGA:   3    -0.417038776521E+03   -0.77135E-02   -0.77138E-02 19264   0.269E+00 0.731E-04
CGA:   4    -0.417053161564E+03   -0.14385E-01   -0.14386E-01 19264   0.188E+00 0.579E-05
CGA:   5    -0.417060277006E+03   -0.71154E-02   -0.71170E-02 19264   0.703E-01 0.941E-04
CGA:   6    -0.417062514997E+03   -0.22380E-02   -0.22380E-02 19264   0.554E-01 0.662E-04
CGA:   7    -0.417066331544E+03   -0.38165E-02   -0.38174E-02 19264   0.616E-01-0.235E-04
CGA:   8    -0.417068798248E+03   -0.24667E-02   -0.24667E-02 19264   0.282E-01 0.598E-05
CGA:   9    -0.417069412765E+03   -0.61452E-03   -0.61432E-03 19264   0.485E-02 0.546E-05
CGA:  10    -0.417069793248E+03   -0.38048E-03   -0.38034E-03 19264   0.101E-01 0.646E-05
CGA:  11    -0.417070138383E+03   -0.34514E-03   -0.34520E-03 19264   0.382E-02 0.607E-05
CGA:  12    -0.417070260203E+03   -0.12182E-03   -0.12185E-03 19264   0.954E-03 0.227E-05
CGA:  13    -0.417070297945E+03   -0.37742E-04   -0.37742E-04 19264   0.116E-02 0.226E-06
CGA:  14    -0.417070376897E+03   -0.78951E-04   -0.78972E-04 19264   0.106E-02-0.516E-06
CGA:  15    -0.417070417796E+03   -0.40900E-04   -0.40897E-04 19264   0.603E-03-0.340E-07
CGA:  16    -0.417070434941E+03   -0.17145E-04   -0.17143E-04 19264   0.222E-03-0.276E-07
CGA:  17    -0.417070448489E+03   -0.13548E-04   -0.13547E-04 19264   0.297E-03 0.204E-06
CGA:  18    -0.417070463885E+03   -0.15396E-04   -0.15394E-04 19264   0.409E-03 0.599E-06
CGA:  19    -0.417070483059E+03   -0.19174E-04   -0.19174E-04 19264   0.159E-03 0.788E-06
CGA:  20    -0.417070487970E+03   -0.49108E-05   -0.49124E-05 19264   0.895E-04 0.230E-06
  18 F= -.41707049E+03 E0= -.41703728E+03  d E =-.184131E-02  mag=    34.0000
       N       E                     dE             d eps       ncg     rms          ort
SDA:   1    -0.416811594929E+03    0.25889E+00    0.00000E+00 19264   0.198E+01 0.000E+00
CGA:   2    -0.416854484619E+03   -0.42890E-01   -0.42948E-01 19264   0.117E+01-0.205E-02
CGA:   3    -0.416956785776E+03   -0.10230E+00   -0.10196E+00 19264   0.118E+01 0.814E-02
CGA:   4    -0.417001807140E+03   -0.45021E-01   -0.45016E-01 19264   0.706E+00-0.364E-05
CGA:   5    -0.417021312257E+03   -0.19505E-01   -0.19512E-01 19264   0.278E+00 0.571E-05
CGA:   6    -0.417045519620E+03   -0.24207E-01   -0.24214E-01 19264   0.312E+00-0.998E-04
CGA:   7    -0.417061861343E+03   -0.16342E-01   -0.16340E-01 19264   0.170E+00 0.197E-03
CGA:   8    -0.417065239895E+03   -0.33786E-02   -0.33810E-02 19264   0.438E-01-0.541E-04
CGA:   9    -0.417067646314E+03   -0.24064E-02   -0.24057E-02 19264   0.266E-01 0.683E-04
CGA:  10    -0.417069252289E+03   -0.16060E-02   -0.16057E-02 19264   0.335E-01 0.178E-04
CGA:  11    -0.417070306428E+03   -0.10541E-02   -0.10541E-02 19264   0.126E-01 0.115E-04
CGA:  12    -0.417070718081E+03   -0.41165E-03   -0.41170E-03 19264   0.324E-02 0.350E-05
CGA:  13    -0.417070937243E+03   -0.21916E-03   -0.21917E-03 19264   0.897E-02-0.721E-06
CGA:  14    -0.417071349058E+03   -0.41181E-03   -0.41181E-03 19264   0.264E-02 0.711E-06
CGA:  15    -0.417071445869E+03   -0.96810E-04   -0.96810E-04 19264   0.990E-03-0.560E-06
CGA:  16    -0.417071510908E+03   -0.65040E-04   -0.65027E-04 19264   0.191E-02 0.894E-06
CGA:  17    -0.417071590872E+03   -0.79963E-04   -0.79971E-04 19264   0.163E-02 0.147E-05
CGA:  18    -0.417071684854E+03   -0.93982E-04   -0.93960E-04 19264   0.866E-03 0.182E-05
CGA:  19    -0.417071709599E+03   -0.24745E-04   -0.24749E-04 19264   0.546E-03 0.417E-06
CGA:  20    -0.417071740835E+03   -0.31236E-04   -0.31225E-04 19264   0.540E-03 0.983E-06
CGA:  21    -0.417071795430E+03   -0.54595E-04   -0.54567E-04 19264   0.864E-03 0.905E-06
CGA:  22    -0.417071822623E+03   -0.27193E-04   -0.27198E-04 19264   0.480E-03 0.449E-06
CGA:  23    -0.417071836819E+03   -0.14196E-04   -0.14196E-04 19264   0.132E-03 0.795E-07
CGA:  24    -0.417071852597E+03   -0.15778E-04   -0.15807E-04 19264   0.485E-03-0.354E-06
CGA:  25    -0.417071870288E+03   -0.17691E-04   -0.17685E-04 19264   0.214E-03-0.356E-06
CGA:  26    -0.417071878361E+03   -0.80725E-05   -0.80701E-05 19264   0.578E-04-0.165E-06
  19 F= -.41707188E+03 E0= -.41703870E+03  d E =-.139039E-02  mag=    34.0000
       N       E                     dE             d eps       ncg     rms          ort
SDA:   1    -0.416359410630E+03    0.71246E+00    0.00000E+00 19264   0.490E+02 0.000E+00
CGA:   2    -0.416981853405E+03   -0.62244E+00   -0.66367E+00 19264   0.648E+00-0.434E+01
CGA:   3    -0.416995274353E+03   -0.13421E-01   -0.13414E-01 19264   0.330E+00 0.786E-03
CGA:   4    -0.417039027990E+03   -0.43754E-01   -0.43769E-01 19264   0.547E+00-0.131E-03
CGA:   5    -0.417050633061E+03   -0.11605E-01   -0.11602E-01 19264   0.119E+00-0.483E-04
CGA:   6    -0.417058248175E+03   -0.76151E-02   -0.76126E-02 19264   0.159E+00 0.173E-03
CGA:   7    -0.417065150716E+03   -0.69025E-02   -0.69027E-02 19264   0.137E+00 0.277E-04
CGA:   8    -0.417069671950E+03   -0.45212E-02   -0.45213E-02 19264   0.236E-01 0.259E-04
CGA:   9    -0.417070388334E+03   -0.71638E-03   -0.71638E-03 19264   0.143E-01 0.229E-05
CGA:  10    -0.417071067542E+03   -0.67921E-03   -0.67921E-03 19264   0.123E-01 0.488E-05
CGA:  11    -0.417071653477E+03   -0.58594E-03   -0.58594E-03 19264   0.844E-02 0.451E-05
CGA:  12    -0.417071923565E+03   -0.27009E-03   -0.27011E-03 19264   0.372E-02-0.124E-07
CGA:  13    -0.417072044688E+03   -0.12112E-03   -0.12114E-03 19264   0.132E-02-0.423E-06
CGA:  14    -0.417072119372E+03   -0.74684E-04   -0.74695E-04 19264   0.229E-02-0.129E-05
CGA:  15    -0.417072230338E+03   -0.11097E-03   -0.11097E-03 19264   0.124E-02-0.956E-06
CGA:  16    -0.417072271333E+03   -0.40994E-04   -0.40978E-04 19264   0.439E-03-0.645E-06
CGA:  17    -0.417072284194E+03   -0.12861E-04   -0.12858E-04 19264   0.243E-03-0.399E-06
CGA:  18    -0.417072305205E+03   -0.21011E-04   -0.21030E-04 19264   0.499E-03-0.145E-06
CGA:  19    -0.417072325216E+03   -0.20011E-04   -0.20012E-04 19264   0.265E-03-0.170E-06
CGA:  20    -0.417072332492E+03   -0.72768E-05   -0.72762E-05 19264   0.613E-04 0.279E-07
  20 F= -.41707233E+03 E0= -.41703915E+03  d E =-.454132E-03  mag=    34.0000
       N       E                     dE             d eps       ncg     rms          ort
SDA:   1    -0.414021853019E+03    0.30505E+01    0.00000E+00 19264   0.168E+02 0.000E+00
CGA:   2    -0.414404850689E+03   -0.38300E+00   -0.39621E+00 19264   0.132E+02-0.347E+00
CGA:   3    -0.416106447457E+03   -0.17016E+01   -0.17167E+01 19264   0.111E+02-0.270E+00
CGA:   4    -0.416443851711E+03   -0.33740E+00   -0.33099E+00 19264   0.389E+01 0.343E-01
CGA:   5    -0.416620739368E+03   -0.17689E+00   -0.17652E+00 19264   0.621E+01-0.379E-01
CGA:   6    -0.416916926510E+03   -0.29619E+00   -0.29622E+00 19264   0.249E+01 0.189E-01
CGA:   7    -0.416976213904E+03   -0.59287E-01   -0.58761E-01 19264   0.925E+00 0.118E-01
CGA:   8    -0.417004509045E+03   -0.28295E-01   -0.28021E-01 19264   0.350E+00 0.126E-02
CGA:   9    -0.417034731591E+03   -0.30223E-01   -0.30210E-01 19264   0.345E+00 0.301E-03
CGA:  10    -0.417049789431E+03   -0.15058E-01   -0.15102E-01 19264   0.245E+00 0.354E-02
CGA:  11    -0.417054847952E+03   -0.50585E-02   -0.50537E-02 19264   0.544E-01 0.146E-03
CGA:  12    -0.417058844417E+03   -0.39965E-02   -0.39742E-02 19264   0.518E-01 0.726E-03
CGA:  13    -0.417061687357E+03   -0.28429E-02   -0.28455E-02 19264   0.779E-01-0.366E-03
CGA:  14    -0.417064181214E+03   -0.24939E-02   -0.25101E-02 19264   0.157E-01 0.236E-04
CGA:  15    -0.417064729444E+03   -0.54823E-03   -0.54823E-03 19264   0.679E-02-0.524E-05
CGA:  16    -0.417065064541E+03   -0.33510E-03   -0.33499E-03 19264   0.133E-01 0.229E-04
CGA:  17    -0.417065935984E+03   -0.87144E-03   -0.87218E-03 19264   0.500E-02-0.516E-04
CGA:  18    -0.417066124755E+03   -0.18877E-03   -0.18889E-03 19264   0.210E-02 0.585E-05
CGA:  19    -0.417066185746E+03   -0.60991E-04   -0.61014E-04 19264   0.174E-02-0.736E-06
CGA:  20    -0.417066374576E+03   -0.18883E-03   -0.18781E-03 19264   0.199E-02 0.153E-04
CGA:  21    -0.417066487884E+03   -0.11331E-03   -0.11329E-03 19264   0.213E-02 0.148E-05
CGA:  22    -0.417066539137E+03   -0.51253E-04   -0.51400E-04 19264   0.513E-03-0.153E-05
CGA:  23    -0.417066566636E+03   -0.27499E-04   -0.27495E-04 19264   0.535E-03-0.114E-06
CGA:  24    -0.417066621264E+03   -0.54628E-04   -0.54484E-04 19264   0.129E-02 0.240E-05
CGA:  25    -0.417066653684E+03   -0.32419E-04   -0.32438E-04 19264   0.241E-03 0.281E-06
CGA:  26    -0.417066664977E+03   -0.11293E-04   -0.11295E-04 19264   0.143E-03-0.146E-06
CGA:  27    -0.417066672610E+03   -0.76327E-05   -0.76313E-05 19264   0.262E-03-0.126E-06
CGA:  28    -0.417066686174E+03   -0.13565E-04   -0.13563E-04 19264   0.187E-03 0.569E-06
CGA:  29    -0.417066694770E+03   -0.85952E-05   -0.85973E-05 19264   0.657E-04 0.437E-07
  21 F= -.41706669E+03 E0= -.41703352E+03  d E =0.563772E-02  mag=    34.0000
       N       E                     dE             d eps       ncg     rms          ort
SDA:   1    -0.415327054882E+03    0.17396E+01    0.00000E+00 19264   0.427E+02 0.000E+00
CGA:   2    -0.415901745118E+03   -0.57469E+00   -0.62370E+00 19264   0.440E+01-0.390E+01
CGA:   3    -0.416320196821E+03   -0.41845E+00   -0.42009E+00 19264   0.126E+02-0.205E-01
CGA:   4    -0.416720115482E+03   -0.39992E+00   -0.39891E+00 19264   0.313E+01-0.444E-02
CGA:   5    -0.416817093605E+03   -0.96978E-01   -0.96912E-01 19264   0.168E+01-0.323E-02
CGA:   6    -0.416921206650E+03   -0.10411E+00   -0.10417E+00 19264   0.262E+01-0.159E-02
CGA:   7    -0.417018715553E+03   -0.97509E-01   -0.97401E-01 19264   0.761E+00-0.185E-02
CGA:   8    -0.417039670508E+03   -0.20955E-01   -0.20947E-01 19264   0.256E+00 0.687E-04
CGA:   9    -0.417048452277E+03   -0.87818E-02   -0.87843E-02 19264   0.162E+00 0.751E-04
CGA:  10    -0.417059492513E+03   -0.11040E-01   -0.11035E-01 19264   0.223E+00 0.224E-03
CGA:  11    -0.417065772849E+03   -0.62803E-02   -0.62858E-02 19264   0.430E-01-0.275E-04
CGA:  12    -0.417067157962E+03   -0.13851E-02   -0.13862E-02 19264   0.252E-01 0.126E-04
CGA:  13    -0.417068546195E+03   -0.13882E-02   -0.13881E-02 19264   0.363E-01 0.158E-04
CGA:  14    -0.417070369425E+03   -0.18232E-02   -0.18230E-02 19264   0.176E-01 0.442E-04
CGA:  15    -0.417070817576E+03   -0.44815E-03   -0.44844E-03 19264   0.566E-02-0.221E-05
CGA:  16    -0.417071071651E+03   -0.25408E-03   -0.25408E-03 19264   0.482E-02 0.392E-05
CGA:  17    -0.417071326551E+03   -0.25490E-03   -0.25487E-03 19264   0.625E-02 0.282E-05
CGA:  18    -0.417071616933E+03   -0.29038E-03   -0.29038E-03 19264   0.369E-02 0.624E-05
CGA:  19    -0.417071738797E+03   -0.12186E-03   -0.12187E-03 19264   0.154E-02 0.385E-06
CGA:  20    -0.417071792478E+03   -0.53681E-04   -0.53691E-04 19264   0.105E-02-0.566E-07
CGA:  21    -0.417071875758E+03   -0.83280E-04   -0.83271E-04 19264   0.220E-02 0.960E-07
CGA:  22    -0.417071969146E+03   -0.93389E-04   -0.93401E-04 19264   0.117E-02 0.448E-06
CGA:  23    -0.417072005496E+03   -0.36350E-04   -0.36348E-04 19264   0.404E-03 0.145E-05
CGA:  24    -0.417072023865E+03   -0.18369E-04   -0.18369E-04 19264   0.548E-03-0.235E-06
CGA:  25    -0.417072066927E+03   -0.43062E-04   -0.43054E-04 19264   0.733E-03 0.182E-06
CGA:  26    -0.417072091329E+03   -0.24402E-04   -0.24409E-04 19264   0.302E-03 0.237E-06
CGA:  27    -0.417072100674E+03   -0.93448E-05   -0.93493E-05 19264   0.118E-03 0.155E-06
  22 F= -.41707210E+03 E0= -.41703893E+03  d E =-.540590E-02  mag=    34.0000
       N       E                     dE             d eps       ncg     rms          ort
SDA:   1    -0.417025091976E+03    0.46999E-01    0.00000E+00 19264   0.337E+00 0.000E+00
CGA:   2    -0.417033045286E+03   -0.79533E-02   -0.79605E-02 19264   0.205E+00-0.843E-04
CGA:   3    -0.417049198802E+03   -0.16154E-01   -0.16174E-01 19264   0.246E+00-0.523E-03
CGA:   4    -0.417058971033E+03   -0.97722E-02   -0.97720E-02 19264   0.155E+00 0.635E-04
CGA:   5    -0.417062762471E+03   -0.37914E-02   -0.37927E-02 19264   0.496E-01-0.922E-05
CGA:   6    -0.417067391495E+03   -0.46290E-02   -0.46314E-02 19264   0.702E-01-0.413E-04
CGA:   7    -0.417070821460E+03   -0.34300E-02   -0.34299E-02 19264   0.173E-01 0.575E-04
CGA:   8    -0.417071224510E+03   -0.40305E-03   -0.40304E-03 19264   0.742E-02 0.153E-05
CGA:   9    -0.417071616151E+03   -0.39164E-03   -0.39162E-03 19264   0.731E-02 0.285E-05
CGA:  10    -0.417071998480E+03   -0.38233E-03   -0.38233E-03 19264   0.563E-02-0.168E-05
CGA:  11    -0.417072123412E+03   -0.12493E-03   -0.12492E-03 19264   0.974E-03 0.168E-06
CGA:  12    -0.417072183151E+03   -0.59739E-04   -0.59743E-04 19264   0.102E-02 0.905E-06
CGA:  13    -0.417072266886E+03   -0.83735E-04   -0.83706E-04 19264   0.142E-02 0.703E-06
CGA:  14    -0.417072299317E+03   -0.32431E-04   -0.32438E-04 19264   0.345E-03 0.392E-06
CGA:  15    -0.417072315339E+03   -0.16022E-04   -0.16022E-04 19264   0.231E-03 0.194E-06
CGA:  16    -0.417072325901E+03   -0.10562E-04   -0.10562E-04 19264   0.304E-03 0.164E-06
CGA:  17    -0.417072342746E+03   -0.16844E-04   -0.16843E-04 19264   0.257E-03 0.223E-06
CGA:  18    -0.417072355782E+03   -0.13037E-04   -0.13037E-04 19264   0.685E-04-0.509E-08
CGA:  19    -0.417072358099E+03   -0.23171E-05   -0.23164E-05 19264   0.841E-04-0.197E-07
  23 F= -.41707236E+03 E0= -.41703917E+03  d E =-.257425E-03  mag=    34.0000
       N       E                     dE             d eps       ncg     rms          ort
SDA:   1    -0.416998792781E+03    0.73563E-01    0.00000E+00 19264   0.131E+01 0.000E+00
CGA:   2    -0.417019109590E+03   -0.20317E-01   -0.20302E-01 19264   0.230E+00 0.727E-04
CGA:   3    -0.417032739770E+03   -0.13630E-01   -0.13607E-01 19264   0.273E+00 0.152E-02
CGA:   4    -0.417052957905E+03   -0.20218E-01   -0.20215E-01 19264   0.292E+00 0.113E-03
CGA:   5    -0.417060451295E+03   -0.74934E-02   -0.74935E-02 19264   0.876E-01-0.472E-07
CGA:   6    -0.417064160036E+03   -0.37087E-02   -0.37084E-02 19264   0.513E-01 0.102E-05
CGA:   7    -0.417069949818E+03   -0.57898E-02   -0.57902E-02 19264   0.330E-01-0.123E-05
CGA:   8    -0.417071021727E+03   -0.10719E-02   -0.10722E-02 19264   0.914E-02 0.514E-05
CGA:   9    -0.417071271650E+03   -0.24992E-03   -0.25000E-03 19264   0.653E-02 0.768E-05
CGA:  10    -0.417071739085E+03   -0.46743E-03   -0.46749E-03 19264   0.558E-02-0.115E-06
CGA:  11    -0.417071939709E+03   -0.20062E-03   -0.20058E-03 19264   0.313E-02 0.101E-05
CGA:  12    -0.417072023179E+03   -0.83471E-04   -0.83514E-04 19264   0.834E-03-0.562E-06
CGA:  13    -0.417072084457E+03   -0.61278E-04   -0.61281E-04 19264   0.837E-03-0.143E-06
CGA:  14    -0.417072142575E+03   -0.58118E-04   -0.58110E-04 19264   0.134E-02 0.838E-06
CGA:  15    -0.417072176656E+03   -0.34082E-04   -0.34082E-04 19264   0.325E-03 0.429E-06
CGA:  16    -0.417072188808E+03   -0.12151E-04   -0.12151E-04 19264   0.138E-03-0.102E-06
CGA:  17    -0.417072201102E+03   -0.12294E-04   -0.12300E-04 19264   0.448E-03-0.246E-06
CGA:  18    -0.417072220014E+03   -0.18912E-04   -0.18909E-04 19264   0.111E-03-0.207E-06
CGA:  19    -0.417072224595E+03   -0.45816E-05   -0.45806E-05 19264   0.657E-04-0.945E-07
  24 F= -.41707222E+03 E0= -.41703904E+03  d E =0.133504E-03  mag=    34.0000
       N       E                     dE             d eps       ncg     rms          ort
SDA:   1    -0.417007683009E+03    0.64537E-01    0.00000E+00 19264   0.122E+01 0.000E+00
CGA:   2    -0.417024829491E+03   -0.17146E-01   -0.17248E-01 19264   0.153E+00-0.675E-02
CGA:   3    -0.417043531984E+03   -0.18702E-01   -0.18698E-01 19264   0.330E+00 0.111E-03
CGA:   4    -0.417058963021E+03   -0.15431E-01   -0.15430E-01 19264   0.190E+00-0.635E-04
CGA:   5    -0.417063549443E+03   -0.45864E-02   -0.45911E-02 19264   0.517E-01-0.814E-04
CGA:   6    -0.417066381829E+03   -0.28324E-02   -0.28332E-02 19264   0.496E-01-0.902E-04
CGA:   7    -0.417069901459E+03   -0.35196E-02   -0.35203E-02 19264   0.609E-01-0.295E-05
CGA:   8    -0.417071065586E+03   -0.11641E-02   -0.11641E-02 19264   0.492E-02-0.494E-05
CGA:   9    -0.417071311105E+03   -0.24552E-03   -0.24552E-03 19264   0.417E-02 0.858E-05
CGA:  10    -0.417071731289E+03   -0.42018E-03   -0.41987E-03 19264   0.403E-02 0.743E-05
CGA:  11    -0.417071814380E+03   -0.83092E-04   -0.83125E-04 19264   0.103E-02 0.179E-05
CGA:  12    -0.417071855872E+03   -0.41492E-04   -0.41486E-04 19264   0.610E-03 0.428E-07
CGA:  13    -0.417071907472E+03   -0.51600E-04   -0.51671E-04 19264   0.149E-02-0.206E-05
CGA:  14    -0.417071952897E+03   -0.45425E-04   -0.45375E-04 19264   0.302E-03-0.196E-05
CGA:  15    -0.417071966357E+03   -0.13459E-04   -0.13456E-04 19264   0.140E-03-0.491E-06
CGA:  16    -0.417071975071E+03   -0.87139E-05   -0.87137E-05 19264   0.263E-03 0.236E-06
CGA:  17    -0.417071985691E+03   -0.10620E-04   -0.10623E-04 19264   0.233E-03 0.322E-06
CGA:  18    -0.417071998998E+03   -0.13307E-04   -0.13306E-04 19264   0.641E-04 0.137E-06
CGA:  19    -0.417072002200E+03   -0.32019E-05   -0.32016E-05 19264   0.763E-04-0.819E-07
  25 F= -.41707200E+03 E0= -.41703881E+03  d E =0.222395E-03  mag=    34.0000
       N       E                     dE             d eps       ncg     rms          ort
SDA:   1    -0.416507872984E+03    0.56413E+00    0.00000E+00 19264   0.266E+02 0.000E+00
CGA:   2    -0.416847250171E+03   -0.33938E+00   -0.35798E+00 19264   0.816E+00-0.169E+01
CGA:   3    -0.416898217726E+03   -0.50968E-01   -0.50989E-01 19264   0.189E+01-0.629E-03
CGA:   4    -0.416989025434E+03   -0.90808E-01   -0.90808E-01 19264   0.955E+00 0.305E-03
CGA:   5    -0.417018113270E+03   -0.29088E-01   -0.29070E-01 19264   0.369E+00 0.169E-03
CGA:   6    -0.417034927222E+03   -0.16814E-01   -0.16815E-01 19264   0.420E+00 0.516E-03
CGA:   7    -0.417055438757E+03   -0.20512E-01   -0.20511E-01 19264   0.261E+00 0.256E-03
CGA:   8    -0.417064393804E+03   -0.89550E-02   -0.89504E-02 19264   0.109E+00 0.495E-04
CGA:   9    -0.417067268267E+03   -0.28745E-02   -0.28759E-02 19264   0.296E-01-0.721E-05
CGA:  10    -0.417068901602E+03   -0.16333E-02   -0.16336E-02 19264   0.383E-01 0.265E-05
CGA:  11    -0.417070377805E+03   -0.14762E-02   -0.14762E-02 19264   0.210E-01 0.102E-04
CGA:  12    -0.417071206687E+03   -0.82888E-03   -0.82874E-03 19264   0.919E-02-0.209E-05
CGA:  13    -0.417071471631E+03   -0.26494E-03   -0.26493E-03 19264   0.396E-02 0.174E-05
CGA:  14    -0.417071665257E+03   -0.19363E-03   -0.19362E-03 19264   0.419E-02 0.226E-05
CGA:  15    -0.417071927514E+03   -0.26226E-03   -0.26226E-03 19264   0.513E-02 0.123E-05
CGA:  16    -0.417072067561E+03   -0.14005E-03   -0.14008E-03 19264   0.724E-03 0.874E-06
CGA:  17    -0.417072095379E+03   -0.27819E-04   -0.27818E-04 19264   0.807E-03 0.451E-06
CGA:  18    -0.417072154242E+03   -0.58862E-04   -0.58862E-04 19264   0.109E-02 0.113E-05
CGA:  19    -0.417072193779E+03   -0.39537E-04   -0.39535E-04 19264   0.415E-03 0.540E-06
CGA:  20    -0.417072205964E+03   -0.12185E-04   -0.12187E-04 19264   0.192E-03 0.282E-06
CGA:  21    -0.417072216244E+03   -0.10280E-04   -0.10278E-04 19264   0.198E-03 0.330E-06
CGA:  22    -0.417072226229E+03   -0.99853E-05   -0.99844E-05 19264   0.255E-03 0.631E-06
CGA:  23    -0.417072238429E+03   -0.12200E-04   -0.12200E-04 19264   0.118E-03 0.552E-06
CGA:  24    -0.417072241993E+03   -0.35634E-05   -0.35654E-05 19264   0.568E-04 0.225E-06
  26 F= -.41707224E+03 E0= -.41703905E+03  d E =-.239793E-03  mag=    34.0000
       N       E                     dE             d eps       ncg     rms          ort
SDA:   1    -0.417000699863E+03    0.71539E-01    0.00000E+00 19264   0.342E+00 0.000E+00
CGA:   2    -0.417011084289E+03   -0.10384E-01   -0.10385E-01 19264   0.382E+00 0.325E-03
CGA:   3    -0.417039985420E+03   -0.28901E-01   -0.28902E-01 19264   0.420E+00-0.124E-04
CGA:   4    -0.417055484304E+03   -0.15499E-01   -0.15500E-01 19264   0.116E+00 0.215E-05
CGA:   5    -0.417060084684E+03   -0.46004E-02   -0.46036E-02 19264   0.124E+00 0.220E-03
CGA:   6    -0.417066317348E+03   -0.62327E-02   -0.62331E-02 19264   0.771E-01-0.376E-04
CGA:   7    -0.417070252743E+03   -0.39354E-02   -0.39356E-02 19264   0.217E-01-0.976E-05
CGA:   8    -0.417070882307E+03   -0.62956E-03   -0.62891E-03 19264   0.140E-01 0.558E-05
CGA:   9    -0.417071397009E+03   -0.51470E-03   -0.51489E-03 19264   0.769E-02 0.103E-04
CGA:  10    -0.417071909773E+03   -0.51276E-03   -0.51272E-03 19264   0.629E-02 0.532E-05
CGA:  11    -0.417072092093E+03   -0.18232E-03   -0.18228E-03 19264   0.268E-02 0.633E-06
CGA:  12    -0.417072183248E+03   -0.91156E-04   -0.91189E-04 19264   0.783E-03 0.915E-06
CGA:  13    -0.417072264763E+03   -0.81515E-04   -0.81554E-04 19264   0.195E-02-0.560E-06
CGA:  14    -0.417072321549E+03   -0.56786E-04   -0.56797E-04 19264   0.812E-03-0.182E-06
CGA:  15    -0.417072347440E+03   -0.25891E-04   -0.25886E-04 19264   0.156E-03 0.164E-07
CGA:  16    -0.417072357077E+03   -0.96370E-05   -0.96364E-05 19264   0.304E-03 0.393E-07
CGA:  17    -0.417072372214E+03   -0.15137E-04   -0.15137E-04 19264   0.226E-03 0.556E-07
CGA:  18    -0.417072382009E+03   -0.97943E-05   -0.97947E-05 19264   0.676E-04 0.179E-06
  27 F= -.41707238E+03 E0= -.41703920E+03  d E =-.140016E-03  mag=    34.0000
       N       E                     dE             d eps       ncg     rms          ort
SDA:   1    -0.414822614796E+03    0.22498E+01    0.00000E+00 19264   0.137E+03 0.000E+00
CGA:   2    -0.416658189527E+03   -0.18356E+01   -0.19393E+01 19264   0.332E+01-0.172E+02
CGA:   3    -0.416725747086E+03   -0.67558E-01   -0.67328E-01 19264   0.146E+01 0.514E-02
CGA:   4    -0.416900325678E+03   -0.17458E+00   -0.17506E+00 19264   0.322E+01-0.843E-02
CGA:   5    -0.416973614288E+03   -0.73289E-01   -0.73115E-01 19264   0.469E+00-0.326E-03
CGA:   6    -0.417002797426E+03   -0.29183E-01   -0.29191E-01 19264   0.952E+00-0.119E-03
CGA:   7    -0.417048328503E+03   -0.45531E-01   -0.45531E-01 19264   0.420E+00 0.155E-03
CGA:   8    -0.417058826771E+03   -0.10498E-01   -0.10479E-01 19264   0.831E-01 0.336E-03
CGA:   9    -0.417061842016E+03   -0.30152E-02   -0.30163E-02 19264   0.742E-01 0.493E-04
CGA:  10    -0.417066440618E+03   -0.45986E-02   -0.45996E-02 19264   0.686E-01-0.310E-04
CGA:  11    -0.417068532064E+03   -0.20914E-02   -0.20929E-02 19264   0.226E-01 0.134E-04
CGA:  12    -0.417069212152E+03   -0.68009E-03   -0.68018E-03 19264   0.940E-02 0.508E-05
CGA:  13    -0.417069733736E+03   -0.52158E-03   -0.52140E-03 19264   0.124E-01 0.200E-04
CGA:  14    -0.417070275781E+03   -0.54204E-03   -0.54203E-03 19264   0.906E-02 0.129E-05
CGA:  15    -0.417070641052E+03   -0.36527E-03   -0.36536E-03 19264   0.371E-02 0.831E-05
CGA:  16    -0.417070740985E+03   -0.99934E-04   -0.99934E-04 19264   0.146E-02 0.733E-06
CGA:  17    -0.417070822550E+03   -0.81565E-04   -0.81527E-04 19264   0.173E-02 0.212E-05
CGA:  18    -0.417070912704E+03   -0.90154E-04   -0.90164E-04 19264   0.209E-02-0.124E-05
CGA:  19    -0.417070992636E+03   -0.79932E-04   -0.79968E-04 19264   0.489E-03 0.226E-05
CGA:  20    -0.417071006135E+03   -0.13499E-04   -0.13503E-04 19264   0.281E-03-0.433E-07
CGA:  21    -0.417071028053E+03   -0.21918E-04   -0.21869E-04 19264   0.491E-03 0.118E-05
CGA:  22    -0.417071050925E+03   -0.22872E-04   -0.22872E-04 19264   0.367E-03 0.531E-06
CGA:  23    -0.417071061516E+03   -0.10592E-04   -0.10603E-04 19264   0.777E-04 0.223E-06
CGA:  24    -0.417071064868E+03   -0.33514E-05   -0.33514E-05 19264   0.101E-03-0.119E-06
  28 F= -.41707106E+03 E0= -.41703789E+03  d E =0.131714E-02  mag=    34.0000
       N       E                     dE             d eps       ncg     rms          ort
SDA:   1    -0.416952846534E+03    0.11821E+00    0.00000E+00 19264   0.197E+01 0.000E+00
CGA:   2    -0.416982038240E+03   -0.29192E-01   -0.29315E-01 19264   0.343E+00-0.868E-02
CGA:   3    -0.417021749161E+03   -0.39711E-01   -0.39747E-01 19264   0.567E+00-0.487E-03
CGA:   4    -0.417045133588E+03   -0.23384E-01   -0.23388E-01 19264   0.147E+00 0.236E-03
CGA:   5    -0.417051847974E+03   -0.67144E-02   -0.67146E-02 19264   0.247E+00 0.850E-04
CGA:   6    -0.417064101141E+03   -0.12253E-01   -0.12254E-01 19264   0.106E+00-0.314E-03
CGA:   7    -0.417068643953E+03   -0.45428E-02   -0.45422E-02 19264   0.596E-01-0.304E-04
CGA:   8    -0.417070216885E+03   -0.15729E-02   -0.15749E-02 19264   0.208E-01-0.740E-05
CGA:   9    -0.417071058084E+03   -0.84120E-03   -0.84118E-03 19264   0.123E-01 0.181E-05
CGA:  10    -0.417072013859E+03   -0.95578E-03   -0.95569E-03 19264   0.126E-01 0.566E-05
CGA:  11    -0.417072268565E+03   -0.25471E-03   -0.25477E-03 19264   0.252E-02 0.137E-05
CGA:  12    -0.417072389221E+03   -0.12066E-03   -0.12066E-03 19264   0.175E-02 0.865E-06
CGA:  13    -0.417072550855E+03   -0.16163E-03   -0.16159E-03 19264   0.304E-02 0.198E-05
CGA:  14    -0.417072627497E+03   -0.76642E-04   -0.76650E-04 19264   0.893E-03 0.192E-05
CGA:  15    -0.417072661187E+03   -0.33690E-04   -0.33694E-04 19264   0.315E-03 0.689E-06
CGA:  16    -0.417072678560E+03   -0.17373E-04   -0.17369E-04 19264   0.612E-03 0.693E-06
CGA:  17    -0.417072708383E+03   -0.29823E-04   -0.29822E-04 19264   0.268E-03 0.114E-05
CGA:  18    -0.417072721932E+03   -0.13550E-04   -0.13549E-04 19264   0.149E-03 0.447E-06
CGA:  19    -0.417072726132E+03   -0.41996E-05   -0.42010E-05 19264   0.826E-04 0.180E-06
  29 F= -.41707273E+03 E0= -.41703954E+03  d E =-.166126E-02  mag=    34.0000
