       N       E                     dE             d eps       ncg     rms          ort
DAV:   1     0.673768567838E+04    0.67377E+04   -0.30683E+05 19264   0.162E+03
DAV:   2     0.416224974218E+03   -0.63215E+04   -0.60055E+04 19264   0.464E+02
DAV:   3    -0.438250019676E+03   -0.85447E+03   -0.83204E+03 19264   0.181E+02
DAV:   4    -0.474704807168E+03   -0.36455E+02   -0.35686E+02 19264   0.420E+01
DAV:   5    -0.476036840588E+03   -0.13320E+01   -0.13215E+01 19264   0.750E+00
SDA:   6    -0.271984621634E+03    0.20405E+03   -0.13215E+01 19264   0.149E+04 0.000E+00
CGA:   7    -0.294197967975E+03   -0.22213E+02   -0.83700E+02 19264   0.480E+04-0.115E+04
CGA:   8    -0.199341303864E+03    0.94857E+02   -0.25508E+03 19264   0.738E+04-0.412E+04
CGA:   9     0.136252683824E+03    0.33559E+03   -0.40828E+03 19264   0.332E+05-0.194E+05
CGA:  10     0.630988562043E+03    0.49474E+03   -0.19823E+04 19264   0.405E+04-0.232E+04
CGA:  11     0.486763916326E+03   -0.14422E+03   -0.29905E+02 19264   0.256E+05 0.267E+05
CGA:  12     0.109000810678E+03   -0.37776E+03   -0.95830E+03 19264   0.276E+05-0.356E+05
CGA:  13     0.655871696582E+03    0.54687E+03   -0.16812E+04 19264   0.650E+04-0.331E+04
CGA:  14     0.133597447892E+03   -0.52227E+03   -0.70987E+02 19264   0.371E+05 0.531E+05
CGA:  15     0.805058056853E+03    0.67146E+03   -0.24448E+04 19264   0.441E+04-0.279E+04
CGA:  16     0.736690650969E+03   -0.68367E+02   -0.31878E+02 19264   0.433E+04 0.450E+04
CGA:  17     0.839576599347E+02   -0.65273E+03   -0.36534E+02 19264   0.304E+05 0.461E+05
CGA:  18     0.555258443349E+03    0.47130E+03   -0.17987E+04 19264   0.265E+04-0.192E+04
CGA:  19    -0.306327427178E+03   -0.86159E+03   -0.53858E+02 19264   0.270E+04 0.756E+04
CGA:  20    -0.405009613864E+03   -0.98682E+02   -0.57968E+02 19264   0.382E+03-0.158E+04
CGA:  21    -0.409280844425E+03   -0.42712E+01   -0.91338E+01 19264   0.146E+03-0.217E+03
CGA:  22    -0.411504074755E+03   -0.22232E+01   -0.24439E+01 19264   0.138E+02-0.105E+02
CGA:  23    -0.413777864851E+03   -0.22738E+01   -0.24745E+01 19264   0.109E+03-0.275E+01
CGA:  24    -0.413062343223E+03    0.71552E+00   -0.23984E+01 19264   0.189E+03-0.789E+02
CGA:  25    -0.415080463179E+03   -0.20181E+01   -0.39481E+01 19264   0.800E+02-0.129E+03
CGA:  26    -0.415781654653E+03   -0.70119E+00   -0.15915E+01 19264   0.335E+02-0.452E+02
CGA:  27    -0.416232439111E+03   -0.45078E+00   -0.48290E+00 19264   0.448E+01-0.339E+01
CGA:  28    -0.416713874643E+03   -0.48144E+00   -0.57955E+00 19264   0.524E+02-0.177E+01
CGA:  29    -0.417700150857E+03   -0.98628E+00   -0.47502E+00 19264   0.635E+02 0.624E+02
CGA:  30    -0.417076355487E+03    0.62380E+00   -0.12357E+01 19264   0.158E+03-0.864E+02
CGA:  31    -0.416167441406E+03    0.90891E+00   -0.27086E+01 19264   0.287E+03-0.205E+03
CGA:  32    -0.409741733294E+03    0.64257E+01   -0.69265E+01 19264   0.780E+03-0.376E+03
CGA:  33    -0.396752358126E+03    0.12989E+02   -0.17954E+02 19264   0.155E+04-0.942E+03
CGA:  34    -0.389032103417E+03    0.77203E+01   -0.44222E+02 19264   0.804E+03-0.605E+03
CGA:  35    -0.403718212795E+03   -0.14686E+02   -0.60576E+01 19264   0.823E+03 0.859E+03
CGA:  36    -0.406974682792E+03   -0.32565E+01   -0.13829E+02 19264   0.111E+04-0.122E+04
CGA:  37    -0.393393233447E+03    0.13581E+02   -0.28042E+02 19264   0.840E+03-0.554E+03
CGA:  38    -0.409728849389E+03   -0.16336E+02   -0.47842E+01 19264   0.110E+04 0.113E+04
CGA:  39    -0.394793697129E+03    0.14935E+02   -0.23605E+02 19264   0.147E+04-0.846E+03
CGA:  40    -0.389851813369E+03    0.49419E+01   -0.34328E+02 19264   0.815E+03-0.664E+03
CGA:  41    -0.400594294113E+03   -0.10742E+02   -0.39712E+01 19264   0.120E+04 0.101E+04
CGA:  42    -0.403921146932E+03   -0.33269E+01   -0.18339E+02 19264   0.132E+04-0.145E+04
CGA:  43    -0.392760633424E+03    0.11161E+02   -0.28511E+02 19264   0.897E+03-0.645E+03
CGA:  44    -0.410342653676E+03   -0.17582E+02   -0.48529E+01 19264   0.117E+04 0.129E+04
CGA:  45    -0.400867350548E+03    0.94753E+01   -0.20512E+02 19264   0.162E+04-0.107E+04
CGA:  46    -0.393347736656E+03    0.75196E+01   -0.33444E+02 19264   0.879E+03-0.641E+03
CGA:  47    -0.410604319641E+03   -0.17257E+02   -0.51953E+01 19264   0.109E+04 0.143E+04
CGA:  48    -0.406306045352E+03    0.42983E+01   -0.16398E+02 19264   0.140E+04-0.112E+04
CGA:  49    -0.398419833315E+03    0.78862E+01   -0.25374E+02 19264   0.932E+03-0.663E+03
CGA:  50    -0.415683388150E+03   -0.17264E+02   -0.57918E+01 19264   0.489E+03 0.677E+03
CGA:  51    -0.416978300525E+03   -0.12949E+01   -0.52148E+01 19264   0.308E+03-0.389E+03
CGA:  52    -0.417417775556E+03   -0.43948E+00   -0.34448E+01 19264   0.252E+03-0.280E+03
CGA:  53    -0.418607680301E+03   -0.11899E+01   -0.21740E+01 19264   0.554E+02-0.115E+03
CGA:  54    -0.418958047166E+03   -0.35037E+00   -0.36197E+00 19264   0.114E+01-0.964E+00
CGA:  55    -0.418993928885E+03   -0.35882E-01   -0.36015E-01 19264   0.411E+01 0.974E-02
CGA:  56    -0.419329624857E+03   -0.33570E+00   -0.29483E+00 19264   0.270E+01 0.103E+01
CGA:  57    -0.419379869875E+03   -0.50245E-01   -0.57824E-01 19264   0.132E+01-0.237E+00
CGA:  58    -0.419418229597E+03   -0.38360E-01   -0.38825E-01 19264   0.876E+00 0.336E-01
CGA:  59    -0.419464201533E+03   -0.45972E-01   -0.45113E-01 19264   0.974E+00 0.490E-01
CGA:  60    -0.419498295480E+03   -0.34094E-01   -0.34522E-01 19264   0.627E+00 0.413E-01
CGA:  61    -0.419528488353E+03   -0.30193E-01   -0.29621E-01 19264   0.308E+00 0.484E-01
CGA:  62    -0.419541077570E+03   -0.12589E-01   -0.12587E-01 19264   0.255E+00 0.786E-02
CGA:  63    -0.419553744505E+03   -0.12667E-01   -0.12550E-01 19264   0.207E+00 0.820E-02
CGA:  64    -0.419566386314E+03   -0.12642E-01   -0.12451E-01 19264   0.176E+00 0.797E-02
CGA:  65    -0.419573059989E+03   -0.66737E-02   -0.66965E-02 19264   0.919E-01 0.378E-02
CGA:  66    -0.419577609532E+03   -0.45495E-02   -0.45284E-02 19264   0.538E-01 0.160E-02
CGA:  67    -0.419580461944E+03   -0.28524E-02   -0.28190E-02 19264   0.516E-01 0.207E-02
CGA:  68    -0.419583098237E+03   -0.26363E-02   -0.26275E-02 19264   0.355E-01 0.712E-03
CGA:  69    -0.419585212142E+03   -0.21139E-02   -0.21015E-02 19264   0.280E-01 0.585E-03
CGA:  70    -0.419586409623E+03   -0.11975E-02   -0.11973E-02 19264   0.168E-01 0.155E-03
CGA:  71    -0.419587364321E+03   -0.95470E-03   -0.94539E-03 19264   0.119E-01 0.482E-03
CGA:  72    -0.419587998256E+03   -0.63394E-03   -0.63405E-03 19264   0.116E-01-0.179E-04
CGA:  73    -0.419588621638E+03   -0.62338E-03   -0.62452E-03 19264   0.892E-02-0.903E-04
CGA:  74    -0.419589099422E+03   -0.47778E-03   -0.47741E-03 19264   0.696E-02 0.688E-05
CGA:  75    -0.419589372684E+03   -0.27326E-03   -0.27286E-03 19264   0.360E-02-0.629E-04
CGA:  76    -0.419589586032E+03   -0.21335E-03   -0.21373E-03 19264   0.338E-02-0.297E-04
CGA:  77    -0.419589771345E+03   -0.18531E-03   -0.18662E-03 19264   0.350E-02-0.966E-04
CGA:  78    -0.419589981491E+03   -0.21015E-03   -0.20920E-03 19264   0.211E-02 0.301E-04
CGA:  79    -0.419590075657E+03   -0.94166E-04   -0.94068E-04 19264   0.130E-02-0.391E-04
CGA:  80    -0.419590138709E+03   -0.63053E-04   -0.63082E-04 19264   0.104E-02-0.107E-04
CGA:  81    -0.419590214878E+03   -0.76168E-04   -0.76785E-04 19264   0.140E-02-0.210E-04
CGA:  82    -0.419590274616E+03   -0.59738E-04   -0.59714E-04 19264   0.835E-03-0.573E-05
SDA:  83    -0.419590310632E+03   -0.36016E-04   -0.35982E-04 19264   0.380E-03-0.402E-05
CGA:  84    -0.419590318035E+03   -0.74035E-05   -0.74216E-05 19264   0.100E-03 0.520E-06
CGA:  85    -0.419590335464E+03   -0.17428E-04   -0.16497E-04 19264   0.462E-03 0.715E-05
CGA:  86    -0.419590383316E+03   -0.47852E-04   -0.47002E-04 19264   0.431E-03 0.194E-04
CGA:  87    -0.419590393132E+03   -0.98168E-05   -0.10026E-04 19264   0.714E-04 0.680E-05
CGA:  88    -0.419590404358E+03   -0.11226E-04   -0.10020E-04 19264   0.919E-04 0.135E-04
CGA:  89    -0.419590409782E+03   -0.54235E-05   -0.54638E-05 19264   0.384E-04 0.609E-05
   1 F= -.41959041E+03 E0= -.41955824E+03  d E =-.419590E+03  mag=    34.0000
       N       E                     dE             d eps       ncg     rms          ort
SDA:   1    -0.419590251905E+03    0.15245E-03    0.00000E+00 19264   0.683E-01 0.000E+00
CGA:   2    -0.419591215090E+03   -0.96318E-03   -0.96106E-03 19264   0.751E-03 0.115E-03
CGA:   3    -0.419591244719E+03   -0.29629E-04   -0.29592E-04 19264   0.703E-03-0.234E-05
CGA:   4    -0.419591289527E+03   -0.44808E-04   -0.44889E-04 19264   0.940E-03-0.707E-05
CGA:   5    -0.419591322805E+03   -0.33278E-04   -0.33196E-04 19264   0.140E-03-0.452E-05
CGA:   6    -0.419591350053E+03   -0.27247E-04   -0.26468E-04 19264   0.174E-03 0.570E-05
CGA:   7    -0.419591356580E+03   -0.65273E-05   -0.65570E-05 19264   0.387E-04 0.130E-05
   2 F= -.41959136E+03 E0= -.41955914E+03  d E =-.946798E-03  mag=    34.0000
       N       E                     dE             d eps       ncg     rms          ort
SDA:   1    -0.418872701829E+03    0.71865E+00    0.00000E+00 19264   0.602E+01 0.000E+00
CGA:   2    -0.419037821857E+03   -0.16512E+00   -0.16698E+00 19264   0.324E+01-0.341E-01
CGA:   3    -0.419255649954E+03   -0.21783E+00   -0.21753E+00 19264   0.430E+01 0.184E-01
CGA:   4    -0.419441357471E+03   -0.18571E+00   -0.18553E+00 19264   0.872E+00-0.245E-02
CGA:   5    -0.419491955221E+03   -0.50598E-01   -0.50588E-01 19264   0.201E+01 0.232E-02
CGA:   6    -0.419608434559E+03   -0.11648E+00   -0.11650E+00 19264   0.288E+00-0.419E-02
CGA:   7    -0.419620028646E+03   -0.11594E-01   -0.11600E-01 19264   0.172E+00 0.861E-04
CGA:   8    -0.419630439706E+03   -0.10411E-01   -0.10411E-01 19264   0.228E+00-0.916E-05
CGA:   9    -0.419637843609E+03   -0.74039E-02   -0.74126E-02 19264   0.255E-01-0.733E-04
CGA:  10    -0.419638995867E+03   -0.11523E-02   -0.11522E-02 19264   0.253E-01 0.311E-05
CGA:  11    -0.419640272151E+03   -0.12763E-02   -0.12764E-02 19264   0.304E-01 0.130E-04
CGA:  12    -0.419641723773E+03   -0.14516E-02   -0.14518E-02 19264   0.438E-02 0.178E-04
CGA:  13    -0.419641948622E+03   -0.22485E-03   -0.22485E-03 19264   0.534E-02 0.194E-05
CGA:  14    -0.419642226038E+03   -0.27742E-03   -0.27743E-03 19264   0.538E-02 0.734E-05
CGA:  15    -0.419642502824E+03   -0.27679E-03   -0.27680E-03 19264   0.210E-02 0.787E-05
CGA:  16    -0.419642575800E+03   -0.72976E-04   -0.73007E-04 19264   0.111E-02 0.133E-05
CGA:  17    -0.419642614818E+03   -0.39018E-04   -0.39034E-04 19264   0.716E-03 0.649E-06
CGA:  18    -0.419642703649E+03   -0.88831E-04   -0.88780E-04 19264   0.769E-03 0.116E-05
CGA:  19    -0.419642726716E+03   -0.23067E-04   -0.23071E-04 19264   0.275E-03-0.105E-07
CGA:  20    -0.419642736464E+03   -0.97477E-05   -0.97440E-05 19264   0.165E-03-0.503E-06
CGA:  21    -0.419642757170E+03   -0.20706E-04   -0.20766E-04 19264   0.389E-03-0.105E-05
CGA:  22    -0.419642767839E+03   -0.10669E-04   -0.10655E-04 19264   0.928E-04-0.711E-06
CGA:  23    -0.419642771112E+03   -0.32735E-05   -0.32702E-05 19264   0.343E-04-0.385E-06
   3 F= -.41964277E+03 E0= -.41961072E+03  d E =-.514145E-01  mag=    34.0000
       N       E                     dE             d eps       ncg     rms          ort
SDA:   1    -0.417193366224E+03    0.24494E+01    0.00000E+00 19264   0.321E+02 0.000E+00
CGA:   2    -0.417831461034E+03   -0.63809E+00   -0.64318E+00 19264   0.777E+01-0.415E+00
CGA:   3    -0.418459810818E+03   -0.62835E+00   -0.62848E+00 19264   0.130E+02 0.557E-03
CGA:   4    -0.419106565381E+03   -0.64675E+00   -0.64724E+00 19264   0.410E+01 0.262E-01
CGA:   5    -0.419217323556E+03   -0.11076E+00   -0.11265E+00 19264   0.301E+01-0.439E-01
CGA:   6    -0.419579818485E+03   -0.36249E+00   -0.36349E+00 19264   0.107E+01-0.170E-01
CGA:   7    -0.419611995492E+03   -0.32177E-01   -0.32313E-01 19264   0.557E+00-0.210E-02
CGA:   8    -0.419638771337E+03   -0.26776E-01   -0.26752E-01 19264   0.463E+00-0.780E-03
CGA:   9    -0.419662668450E+03   -0.23897E-01   -0.23899E-01 19264   0.211E+00 0.168E-03
CGA:  10    -0.419669707245E+03   -0.70388E-02   -0.70546E-02 19264   0.112E+00-0.951E-04
CGA:  11    -0.419673128975E+03   -0.34217E-02   -0.34175E-02 19264   0.353E-01 0.593E-04
CGA:  12    -0.419677735850E+03   -0.46069E-02   -0.45963E-02 19264   0.627E-01 0.153E-03
CGA:  13    -0.419679397372E+03   -0.16615E-02   -0.16629E-02 19264   0.142E-01-0.169E-04
CGA:  14    -0.419679944345E+03   -0.54697E-03   -0.54753E-03 19264   0.788E-02 0.401E-05
CGA:  15    -0.419680700578E+03   -0.75623E-03   -0.75534E-03 19264   0.183E-01 0.226E-04
CGA:  16    -0.419681248598E+03   -0.54802E-03   -0.54810E-03 19264   0.401E-02 0.118E-04
CGA:  17    -0.419681414121E+03   -0.16552E-03   -0.16564E-03 19264   0.181E-02 0.305E-05
CGA:  18    -0.419681541853E+03   -0.12773E-03   -0.12773E-03 19264   0.332E-02 0.174E-06
CGA:  19    -0.419681694622E+03   -0.15277E-03   -0.15284E-03 19264   0.187E-02 0.165E-05
CGA:  20    -0.419681788081E+03   -0.93458E-04   -0.93458E-04 19264   0.774E-03-0.577E-06
CGA:  21    -0.419681809815E+03   -0.21734E-04   -0.21739E-04 19264   0.465E-03-0.769E-06
CGA:  22    -0.419681856333E+03   -0.46519E-04   -0.46538E-04 19264   0.811E-03-0.941E-06
CGA:  23    -0.419681895376E+03   -0.39043E-04   -0.39040E-04 19264   0.294E-03-0.109E-05
CGA:  24    -0.419681902896E+03   -0.75198E-05   -0.75191E-05 19264   0.977E-04-0.641E-06
   4 F= -.41968190E+03 E0= -.41965010E+03  d E =-.391318E-01  mag=    34.0000
       N       E                     dE             d eps       ncg     rms          ort
SDA:   1    -0.419288613132E+03    0.39328E+00    0.00000E+00 19264   0.250E+01 0.000E+00
CGA:   2    -0.419346838199E+03   -0.58225E-01   -0.58101E-01 19264   0.153E+01 0.245E-02
CGA:   3    -0.419524970988E+03   -0.17813E+00   -0.17807E+00 19264   0.254E+01 0.842E-03
CGA:   4    -0.419627715930E+03   -0.10274E+00   -0.10261E+00 19264   0.366E+00-0.675E-03
CGA:   5    -0.419649895766E+03   -0.22180E-01   -0.22181E-01 19264   0.510E+00-0.869E-04
CGA:   6    -0.419671991029E+03   -0.22095E-01   -0.22097E-01 19264   0.361E+00 0.969E-04
CGA:   7    -0.419687356880E+03   -0.15366E-01   -0.15379E-01 19264   0.641E-01 0.226E-03
CGA:   8    -0.419689633780E+03   -0.22769E-02   -0.22777E-02 19264   0.563E-01 0.309E-05
CGA:   9    -0.419691957565E+03   -0.23238E-02   -0.23231E-02 19264   0.300E-01-0.109E-04
CGA:  10    -0.419694548706E+03   -0.25911E-02   -0.25904E-02 19264   0.695E-02 0.216E-04
CGA:  11    -0.419694836311E+03   -0.28761E-03   -0.28760E-03 19264   0.547E-02-0.341E-05
CGA:  12    -0.419695169153E+03   -0.33284E-03   -0.33288E-03 19264   0.808E-02-0.671E-05
CGA:  13    -0.419695562624E+03   -0.39347E-03   -0.39344E-03 19264   0.196E-02-0.765E-05
CGA:  14    -0.419695629437E+03   -0.66813E-04   -0.66785E-04 19264   0.931E-03-0.187E-05
CGA:  15    -0.419695666869E+03   -0.37432E-04   -0.37432E-04 19264   0.110E-02-0.521E-06
CGA:  16    -0.419695772448E+03   -0.10558E-03   -0.10557E-03 19264   0.559E-03-0.276E-06
CGA:  17    -0.419695800387E+03   -0.27938E-04   -0.27942E-04 19264   0.305E-03-0.505E-08
CGA:  18    -0.419695809872E+03   -0.94858E-05   -0.94860E-05 19264   0.186E-03-0.249E-06
CGA:  19    -0.419695830118E+03   -0.20245E-04   -0.20242E-04 19264   0.380E-03-0.199E-06
CGA:  20    -0.419695847137E+03   -0.17019E-04   -0.17019E-04 19264   0.166E-03-0.321E-06
CGA:  21    -0.419695850887E+03   -0.37504E-05   -0.37587E-05 19264   0.449E-04-0.854E-07
   5 F= -.41969585E+03 E0= -.41966401E+03  d E =-.139480E-01  mag=    34.0000
       N       E                     dE             d eps       ncg     rms          ort
SDA:   1    -0.416729036496E+03    0.29668E+01    0.00000E+00 19264   0.106E+02 0.000E+00
CGA:   2    -0.417267474575E+03   -0.53844E+00   -0.53950E+00 19264   0.196E+02 0.566E-01
CGA:   3    -0.418825908607E+03   -0.15584E+01   -0.15622E+01 19264   0.130E+02-0.134E+00
CGA:   4    -0.419219320222E+03   -0.39341E+00   -0.39101E+00 19264   0.260E+01 0.379E-01
CGA:   5    -0.419355618792E+03   -0.13630E+00   -0.13634E+00 19264   0.492E+01 0.334E-02
CGA:   6    -0.419608301539E+03   -0.25268E+00   -0.25261E+00 19264   0.135E+01-0.465E-02
CGA:   7    -0.419660306057E+03   -0.52005E-01   -0.51724E-01 19264   0.300E+00-0.101E-03
CGA:   8    -0.419680023914E+03   -0.19718E-01   -0.19704E-01 19264   0.591E+00 0.983E-03
CGA:   9    -0.419703868974E+03   -0.23845E-01   -0.23961E-01 19264   0.135E+00 0.104E-02
CGA:  10    -0.419710445476E+03   -0.65765E-02   -0.65778E-02 19264   0.410E-01 0.758E-04
CGA:  11    -0.419713339734E+03   -0.28943E-02   -0.28901E-02 19264   0.764E-01 0.202E-03
CGA:  12    -0.419716326395E+03   -0.29867E-02   -0.29866E-02 19264   0.463E-01-0.274E-04
CGA:  13    -0.419718234163E+03   -0.19078E-02   -0.19095E-02 19264   0.937E-02-0.443E-05
CGA:  14    -0.419718543185E+03   -0.30902E-03   -0.30938E-03 19264   0.762E-02-0.727E-05
CGA:  15    -0.419719170173E+03   -0.62699E-03   -0.62663E-03 19264   0.121E-01 0.102E-04
CGA:  16    -0.419719801147E+03   -0.63097E-03   -0.63107E-03 19264   0.177E-02 0.155E-04
CGA:  17    -0.419719880941E+03   -0.79794E-04   -0.79807E-04 19264   0.220E-02-0.109E-05
CGA:  18    -0.419720013910E+03   -0.13297E-03   -0.13294E-03 19264   0.301E-02 0.169E-05
CGA:  19    -0.419720201193E+03   -0.18728E-03   -0.18724E-03 19264   0.142E-02 0.384E-05
CGA:  20    -0.419720238609E+03   -0.37415E-04   -0.37428E-04 19264   0.600E-03-0.217E-06
CGA:  21    -0.419720273625E+03   -0.35016E-04   -0.35008E-04 19264   0.490E-03 0.568E-06
CGA:  22    -0.419720328751E+03   -0.55126E-04   -0.54903E-04 19264   0.754E-03 0.283E-05
CGA:  23    -0.419720354140E+03   -0.25389E-04   -0.25441E-04 19264   0.252E-03 0.139E-05
CGA:  24    -0.419720361048E+03   -0.69084E-05   -0.69233E-05 19264   0.913E-04 0.175E-08
CGA:  25    -0.419720372827E+03   -0.11779E-04   -0.11702E-04 19264   0.287E-03 0.497E-06
CGA:  26    -0.419720382188E+03   -0.93614E-05   -0.93816E-05 19264   0.906E-04 0.305E-06
   6 F= -.41972038E+03 E0= -.41968845E+03  d E =-.245313E-01  mag=    34.0000
       N       E                     dE             d eps       ncg     rms          ort
SDA:   1    -0.417862411142E+03    0.18580E+01    0.00000E+00 19264   0.574E+01 0.000E+00
CGA:   2    -0.418241489395E+03   -0.37908E+00   -0.37844E+00 19264   0.158E+02 0.433E-01
CGA:   3    -0.419244236215E+03   -0.10027E+01   -0.10046E+01 19264   0.529E+01-0.160E+00
CGA:   4    -0.419400108177E+03   -0.15587E+00   -0.15538E+00 19264   0.213E+01 0.486E-02
CGA:   5    -0.419507696430E+03   -0.10759E+00   -0.10761E+00 19264   0.289E+01 0.214E-02
CGA:   6    -0.419662316320E+03   -0.15462E+00   -0.15463E+00 19264   0.526E+00 0.179E-02
CGA:   7    -0.419685462388E+03   -0.23146E-01   -0.23170E-01 19264   0.273E+00 0.639E-03
CGA:   8    -0.419696375105E+03   -0.10913E-01   -0.10918E-01 19264   0.297E+00 0.125E-03
CGA:   9    -0.419712945365E+03   -0.16570E-01   -0.16567E-01 19264   0.101E+00 0.750E-03
CGA:  10    -0.419716606963E+03   -0.36616E-02   -0.36523E-02 19264   0.561E-01 0.216E-04
CGA:  11    -0.419718401305E+03   -0.17943E-02   -0.18000E-02 19264   0.266E-01-0.356E-04
CGA:  12    -0.419721335399E+03   -0.29341E-02   -0.29305E-02 19264   0.278E-01 0.713E-04
CGA:  13    -0.419722348518E+03   -0.10131E-02   -0.10137E-02 19264   0.115E-01-0.639E-05
CGA:  14    -0.419722628427E+03   -0.27991E-03   -0.28060E-03 19264   0.340E-02-0.199E-04
CGA:  15    -0.419723059025E+03   -0.43060E-03   -0.43068E-03 19264   0.827E-02-0.163E-05
CGA:  16    -0.419723347821E+03   -0.28880E-03   -0.28898E-03 19264   0.276E-02-0.479E-05
CGA:  17    -0.419723426293E+03   -0.78473E-04   -0.78502E-04 19264   0.797E-03-0.239E-05
CGA:  18    -0.419723508718E+03   -0.82425E-04   -0.82365E-04 19264   0.152E-02 0.781E-06
CGA:  19    -0.419723573621E+03   -0.64903E-04   -0.64903E-04 19264   0.155E-02-0.115E-05
CGA:  20    -0.419723639272E+03   -0.65650E-04   -0.65682E-04 19264   0.298E-03 0.751E-07
CGA:  21    -0.419723654496E+03   -0.15225E-04   -0.15227E-04 19264   0.325E-03-0.567E-07
CGA:  22    -0.419723672942E+03   -0.18445E-04   -0.18441E-04 19264   0.457E-03 0.149E-05
CGA:  23    -0.419723699830E+03   -0.26888E-04   -0.26878E-04 19264   0.161E-03 0.232E-05
CGA:  24    -0.419723704825E+03   -0.49955E-05   -0.50109E-05 19264   0.670E-04 0.501E-07
   7 F= -.41972370E+03 E0= -.41969163E+03  d E =-.332264E-02  mag=    34.0000
       N       E                     dE             d eps       ncg     rms          ort
SDA:   1    -0.401641428486E+03    0.18082E+02    0.00000E+00 19264   0.586E+02 0.000E+00
CGA:   2    -0.404731298304E+03   -0.30899E+01   -0.30909E+01 19264   0.119E+03 0.156E+01
CGA:   3    -0.414108350935E+03   -0.93771E+01   -0.11197E+02 19264   0.187E+03-0.535E+02
CGA:   4    -0.416012006855E+03   -0.19037E+01   -0.17434E+01 19264   0.371E+02 0.558E+01
CGA:   5    -0.416472162924E+03   -0.46016E+00   -0.50020E+00 19264   0.208E+02-0.266E+01
CGA:   6    -0.417798335683E+03   -0.13262E+01   -0.13137E+01 19264   0.481E+02 0.553E+00
CGA:   7    -0.418762762844E+03   -0.96443E+00   -0.89789E+00 19264   0.177E+02 0.286E+01
CGA:   8    -0.419044900549E+03   -0.28214E+00   -0.26750E+00 19264   0.355E+01 0.714E+00
CGA:   9    -0.419123296085E+03   -0.78396E-01   -0.81068E-01 19264   0.388E+01-0.708E-01
CGA:  10    -0.419292703957E+03   -0.16941E+00   -0.16961E+00 19264   0.749E+01 0.379E-01
CGA:  11    -0.419471590376E+03   -0.17889E+00   -0.17793E+00 19264   0.240E+01 0.161E-01
CGA:  12    -0.419517241583E+03   -0.45651E-01   -0.48050E-01 19264   0.181E+01-0.795E-01
CGA:  13    -0.419560697381E+03   -0.43456E-01   -0.43011E-01 19264   0.653E+00 0.890E-02
CGA:  14    -0.419584855566E+03   -0.24158E-01   -0.24093E-01 19264   0.134E+01-0.300E-02
CGA:  15    -0.419627175207E+03   -0.42320E-01   -0.43322E-01 19264   0.111E+01 0.175E-01
CGA:  16    -0.419663986575E+03   -0.36811E-01   -0.38653E-01 19264   0.488E+00 0.676E-01
CGA:  17    -0.419672791542E+03   -0.88050E-02   -0.86875E-02 19264   0.103E+00 0.438E-02
CGA:  18    -0.419679761836E+03   -0.69703E-02   -0.69057E-02 19264   0.189E+00 0.209E-02
CGA:  19    -0.419692317166E+03   -0.12555E-01   -0.12063E-01 19264   0.170E+00 0.186E-01
CGA:  20    -0.419697409749E+03   -0.50926E-02   -0.50618E-02 19264   0.444E-01 0.754E-04
CGA:  21    -0.419698916175E+03   -0.15064E-02   -0.15143E-02 19264   0.221E-01 0.236E-03
CGA:  22    -0.419700831491E+03   -0.19153E-02   -0.19212E-02 19264   0.462E-01-0.137E-03
CGA:  23    -0.419702982683E+03   -0.21512E-02   -0.21477E-02 19264   0.205E-01 0.739E-03
CGA:  24    -0.419703534022E+03   -0.55134E-03   -0.55225E-03 19264   0.620E-02-0.217E-05
CGA:  25    -0.419703818985E+03   -0.28496E-03   -0.28491E-03 19264   0.643E-02 0.857E-05
CGA:  26    -0.419704242048E+03   -0.42306E-03   -0.42192E-03 19264   0.942E-02 0.437E-04
CGA:  27    -0.419704655582E+03   -0.41353E-03   -0.41353E-03 19264   0.292E-02 0.310E-05
CGA:  28    -0.419704743254E+03   -0.87672E-04   -0.87794E-04 19264   0.102E-02 0.644E-06
CGA:  29    -0.419704808939E+03   -0.65686E-04   -0.65594E-04 19264   0.152E-02 0.144E-05
CGA:  30    -0.419704914455E+03   -0.10552E-03   -0.10514E-03 19264   0.149E-02 0.124E-04
CGA:  31    -0.419704966186E+03   -0.51731E-04   -0.51774E-04 19264   0.322E-03 0.175E-05
SDA:  32    -0.419704978916E+03   -0.12730E-04   -0.12737E-04 19264   0.293E-03-0.133E-05
CGA:  33    -0.419704987269E+03   -0.83536E-05   -0.83527E-05 19264   0.210E-03-0.220E-05
CGA:  34    -0.419705005894E+03   -0.18624E-04   -0.18680E-04 19264   0.478E-03-0.284E-05
CGA:  35    -0.419705036932E+03   -0.31038E-04   -0.31078E-04 19264   0.173E-03-0.331E-05
CGA:  36    -0.419705040836E+03   -0.39039E-05   -0.39076E-05 19264   0.591E-04-0.117E-05
   8 F= -.41970504E+03 E0= -.41967248E+03  d E =0.186640E-01  mag=    34.0000
       N       E                     dE             d eps       ncg     rms          ort
SDA:   1    -0.414283158366E+03    0.54219E+01    0.00000E+00 19264   0.146E+02 0.000E+00
CGA:   2    -0.416183506152E+03   -0.19003E+01   -0.18866E+01 19264   0.629E+02 0.270E+00
CGA:   3    -0.418462060783E+03   -0.22786E+01   -0.22479E+01 19264   0.798E+01 0.115E+00
CGA:   4    -0.418862672417E+03   -0.40061E+00   -0.40061E+00 19264   0.896E+01 0.996E-02
CGA:   5    -0.419303559602E+03   -0.44089E+00   -0.44093E+00 19264   0.839E+01 0.231E-01
CGA:   6    -0.419560880875E+03   -0.25732E+00   -0.25534E+00 19264   0.107E+01 0.106E-01
CGA:   7    -0.419615704428E+03   -0.54824E-01   -0.54813E-01 19264   0.862E+00 0.342E-02
CGA:   8    -0.419658450125E+03   -0.42746E-01   -0.42747E-01 19264   0.959E+00-0.159E-02
CGA:   9    -0.419695547031E+03   -0.37097E-01   -0.37178E-01 19264   0.203E+00 0.199E-02
CGA:  10    -0.419706089937E+03   -0.10543E-01   -0.10538E-01 19264   0.103E+00 0.100E-02
CGA:  11    -0.419711108584E+03   -0.50186E-02   -0.50188E-02 19264   0.161E+00 0.167E-03
CGA:  12    -0.419719709556E+03   -0.86010E-02   -0.85994E-02 19264   0.588E-01 0.225E-03
CGA:  13    -0.419721460796E+03   -0.17512E-02   -0.17523E-02 19264   0.158E-01-0.255E-05
CGA:  14    -0.419722115670E+03   -0.65487E-03   -0.65508E-03 19264   0.199E-01 0.122E-04
CGA:  15    -0.419724064664E+03   -0.19490E-02   -0.19484E-02 19264   0.883E-02 0.139E-04
CGA:  16    -0.419724381691E+03   -0.31703E-03   -0.31734E-03 19264   0.448E-02 0.354E-05
CGA:  17    -0.419724546561E+03   -0.16487E-03   -0.16493E-03 19264   0.376E-02 0.328E-05
CGA:  18    -0.419724891482E+03   -0.34492E-03   -0.34422E-03 19264   0.533E-02 0.152E-04
CGA:  19    -0.419725091458E+03   -0.19998E-03   -0.20011E-03 19264   0.308E-02 0.593E-05
CGA:  20    -0.419725189867E+03   -0.98409E-04   -0.98417E-04 19264   0.866E-03 0.151E-05
CGA:  21    -0.419725255880E+03   -0.66013E-04   -0.65985E-04 19264   0.134E-02 0.445E-06
CGA:  22    -0.419725354273E+03   -0.98393E-04   -0.98424E-04 19264   0.189E-02-0.141E-05
CGA:  23    -0.419725403363E+03   -0.49090E-04   -0.49106E-04 19264   0.203E-03-0.841E-06
CGA:  24    -0.419725415660E+03   -0.12297E-04   -0.12287E-04 19264   0.382E-03 0.614E-06
CGA:  25    -0.419725435495E+03   -0.19835E-04   -0.19833E-04 19264   0.314E-03 0.223E-05
CGA:  26    -0.419725450678E+03   -0.15183E-04   -0.15191E-04 19264   0.829E-04 0.213E-05
CGA:  27    -0.419725454084E+03   -0.34064E-05   -0.34161E-05 19264   0.625E-04 0.542E-06
   9 F= -.41972545E+03 E0= -.41969251E+03  d E =-.204132E-01  mag=    34.0000
       N       E                     dE             d eps       ncg     rms          ort
SDA:   1    -0.418616212554E+03    0.11092E+01    0.00000E+00 19264   0.415E+01 0.000E+00
CGA:   2    -0.418792780310E+03   -0.17657E+00   -0.17657E+00 19264   0.777E+01-0.342E-03
CGA:   3    -0.419475534650E+03   -0.68275E+00   -0.68345E+00 19264   0.140E+01-0.205E-01
CGA:   4    -0.419564824281E+03   -0.89290E-01   -0.89356E-01 19264   0.186E+01-0.339E-02
CGA:   5    -0.419664905271E+03   -0.10008E+00   -0.10008E+00 19264   0.157E+01-0.421E-03
CGA:   6    -0.419707202422E+03   -0.42297E-01   -0.42685E-01 19264   0.226E+00-0.660E-02
CGA:   7    -0.419721871592E+03   -0.14669E-01   -0.14677E-01 19264   0.214E+00-0.361E-03
CGA:   8    -0.419732892681E+03   -0.11021E-01   -0.11021E-01 19264   0.223E+00 0.187E-03
CGA:   9    -0.419738773395E+03   -0.58807E-02   -0.58721E-02 19264   0.452E-01 0.193E-03
CGA:  10    -0.419741068337E+03   -0.22949E-02   -0.22949E-02 19264   0.184E-01 0.170E-04
CGA:  11    -0.419743046882E+03   -0.19785E-02   -0.19783E-02 19264   0.370E-01 0.138E-05
CGA:  12    -0.419744131195E+03   -0.10843E-02   -0.10860E-02 19264   0.106E-01-0.124E-04
CGA:  13    -0.419744446975E+03   -0.31578E-03   -0.31579E-03 19264   0.293E-02 0.271E-05
CGA:  14    -0.419744721819E+03   -0.27484E-03   -0.27456E-03 19264   0.866E-02 0.794E-05
CGA:  15    -0.419745036511E+03   -0.31469E-03   -0.31478E-03 19264   0.221E-02 0.394E-05
CGA:  16    -0.419745128037E+03   -0.91526E-04   -0.91548E-04 19264   0.623E-03 0.697E-06
CGA:  17    -0.419745188479E+03   -0.60442E-04   -0.60322E-04 19264   0.173E-02 0.121E-05
CGA:  18    -0.419745251275E+03   -0.62796E-04   -0.62886E-04 19264   0.883E-03 0.149E-05
CGA:  19    -0.419745294799E+03   -0.43525E-04   -0.43533E-04 19264   0.280E-03 0.108E-05
CGA:  20    -0.419745305724E+03   -0.10925E-04   -0.10925E-04 19264   0.243E-03-0.766E-06
CGA:  21    -0.419745320693E+03   -0.14969E-04   -0.14976E-04 19264   0.369E-03-0.145E-05
CGA:  22    -0.419745343729E+03   -0.23036E-04   -0.23053E-04 19264   0.906E-04-0.229E-05
CGA:  23    -0.419745346396E+03   -0.26664E-05   -0.26624E-05 19264   0.531E-04-0.669E-06
  10 F= -.41974535E+03 E0= -.41971254E+03  d E =-.198923E-01  mag=    34.0000
       N       E                     dE             d eps       ncg     rms          ort
SDA:   1    -0.419134228476E+03    0.61112E+00    0.00000E+00 19264   0.185E+01 0.000E+00
CGA:   2    -0.419281620037E+03   -0.14739E+00   -0.14726E+00 19264   0.629E+01 0.533E-02
CGA:   3    -0.419589499468E+03   -0.30788E+00   -0.30780E+00 19264   0.172E+01-0.720E-02
CGA:   4    -0.419651674578E+03   -0.62175E-01   -0.62596E-01 19264   0.689E+00 0.121E-02
CGA:   5    -0.419688468981E+03   -0.36794E-01   -0.36793E-01 19264   0.103E+01 0.982E-03
CGA:   6    -0.419737017531E+03   -0.48549E-01   -0.48533E-01 19264   0.233E+00-0.113E-02
CGA:   7    -0.419745229535E+03   -0.82120E-02   -0.82074E-02 19264   0.714E-01 0.200E-04
CGA:   8    -0.419749911556E+03   -0.46820E-02   -0.46816E-02 19264   0.145E+00 0.499E-04
CGA:   9    -0.419755005347E+03   -0.50938E-02   -0.50963E-02 19264   0.304E-01 0.162E-04
CGA:  10    -0.419756368641E+03   -0.13633E-02   -0.13628E-02 19264   0.126E-01-0.243E-04
CGA:  11    -0.419756903875E+03   -0.53523E-03   -0.53532E-03 19264   0.143E-01 0.707E-05
CGA:  12    -0.419757774547E+03   -0.87067E-03   -0.87052E-03 19264   0.928E-02 0.118E-04
CGA:  13    -0.419758184502E+03   -0.40996E-03   -0.41000E-03 19264   0.272E-02 0.446E-05
CGA:  14    -0.419758258629E+03   -0.74126E-04   -0.74162E-04 19264   0.159E-02 0.521E-06
CGA:  15    -0.419758367666E+03   -0.10904E-03   -0.10896E-03 19264   0.209E-02 0.374E-05
CGA:  16    -0.419758511371E+03   -0.14370E-03   -0.14359E-03 19264   0.891E-03 0.587E-05
CGA:  17    -0.419758531102E+03   -0.19732E-04   -0.19766E-04 19264   0.255E-03 0.612E-06
CGA:  18    -0.419758559878E+03   -0.28776E-04   -0.28620E-04 19264   0.542E-03 0.239E-05
CGA:  19    -0.419758588558E+03   -0.28680E-04   -0.28681E-04 19264   0.516E-03 0.212E-05
CGA:  20    -0.419758602508E+03   -0.13950E-04   -0.13978E-04 19264   0.103E-03 0.479E-06
CGA:  21    -0.419758609333E+03   -0.68251E-05   -0.68259E-05 19264   0.120E-03-0.298E-06
  11 F= -.41975861E+03 E0= -.41972578E+03  d E =-.132629E-01  mag=    34.0000
       N       E                     dE             d eps       ncg     rms          ort
SDA:   1    -0.417887204211E+03    0.18714E+01    0.00000E+00 19264   0.621E+01 0.000E+00
CGA:   2    -0.418175301953E+03   -0.28810E+00   -0.28800E+00 19264   0.123E+02-0.205E-02
CGA:   3    -0.419332226971E+03   -0.11569E+01   -0.11553E+01 19264   0.576E+01 0.268E-01
CGA:   4    -0.419482084402E+03   -0.14986E+00   -0.14980E+00 19264   0.224E+01 0.246E-02
CGA:   5    -0.419576224349E+03   -0.94140E-01   -0.94084E-01 19264   0.198E+01-0.117E-03
CGA:   6    -0.419705270640E+03   -0.12905E+00   -0.12906E+00 19264   0.842E+00-0.564E-03
CGA:   7    -0.419745368299E+03   -0.40098E-01   -0.40115E-01 19264   0.178E+00 0.132E-02
CGA:   8    -0.419753725113E+03   -0.83568E-02   -0.83524E-02 19264   0.206E+00-0.234E-03
CGA:   9    -0.419762086976E+03   -0.83619E-02   -0.83815E-02 19264   0.174E+00 0.411E-03
CGA:  10    -0.419771288063E+03   -0.92011E-02   -0.92015E-02 19264   0.379E-01-0.219E-03
CGA:  11    -0.419772274075E+03   -0.98601E-03   -0.98543E-03 19264   0.208E-01 0.116E-04
CGA:  12    -0.419774153348E+03   -0.18793E-02   -0.18782E-02 19264   0.300E-01 0.239E-04
CGA:  13    -0.419775541871E+03   -0.13885E-02   -0.13886E-02 19264   0.394E-02 0.258E-05
CGA:  14    -0.419775711290E+03   -0.16942E-03   -0.16947E-03 19264   0.448E-02-0.102E-05
CGA:  15    -0.419775948361E+03   -0.23707E-03   -0.23706E-03 19264   0.496E-02 0.828E-05
CGA:  16    -0.419776241645E+03   -0.29328E-03   -0.29320E-03 19264   0.260E-02 0.716E-05
CGA:  17    -0.419776308568E+03   -0.66923E-04   -0.67015E-04 19264   0.100E-02-0.162E-05
CGA:  18    -0.419776357569E+03   -0.49001E-04   -0.49007E-04 19264   0.645E-03 0.562E-06
CGA:  19    -0.419776441756E+03   -0.84187E-04   -0.83881E-04 19264   0.141E-02 0.305E-05
CGA:  20    -0.419776493605E+03   -0.51849E-04   -0.51886E-04 19264   0.597E-03 0.124E-06
CGA:  21    -0.419776509487E+03   -0.15882E-04   -0.15898E-04 19264   0.164E-03-0.169E-05
CGA:  22    -0.419776526412E+03   -0.16925E-04   -0.16960E-04 19264   0.500E-03-0.169E-05
CGA:  23    -0.419776545553E+03   -0.19141E-04   -0.19126E-04 19264   0.240E-03-0.204E-05
CGA:  24    -0.419776554365E+03   -0.88124E-05   -0.88114E-05 19264   0.364E-04-0.916E-06
  12 F= -.41977655E+03 E0= -.41974361E+03  d E =-.179450E-01  mag=    34.0000
       N       E                     dE             d eps       ncg     rms          ort
SDA:   1    -0.394717066796E+03    0.25059E+02    0.00000E+00 19264   0.832E+02 0.000E+00
CGA:   2    -0.398442499064E+03   -0.37254E+01   -0.37634E+01 19264   0.165E+03 0.875E+00
CGA:   3    -0.411444372468E+03   -0.13002E+02   -0.16120E+02 19264   0.310E+03-0.673E+02
CGA:   4    -0.414518093797E+03   -0.30737E+01   -0.27545E+01 19264   0.525E+02 0.987E+01
CGA:   5    -0.415225652427E+03   -0.70756E+00   -0.74024E+00 19264   0.326E+02-0.200E+01
CGA:   6    -0.416482667778E+03   -0.12570E+01   -0.12598E+01 19264   0.561E+02 0.550E-01
CGA:   7    -0.417768338976E+03   -0.12857E+01   -0.12233E+01 19264   0.463E+02 0.202E+01
CGA:   8    -0.418678411210E+03   -0.91007E+00   -0.90420E+00 19264   0.137E+02 0.608E+00
CGA:   9    -0.418895874054E+03   -0.21746E+00   -0.20724E+00 19264   0.806E+01 0.628E+00
CGA:  10    -0.419110685804E+03   -0.21481E+00   -0.22119E+00 19264   0.443E+01-0.658E-01
CGA:  11    -0.419185939875E+03   -0.75254E-01   -0.74001E-01 19264   0.385E+01 0.550E-01
CGA:  12    -0.419464435077E+03   -0.27850E+00   -0.27303E+00 19264   0.787E+01 0.171E+00
CGA:  13    -0.419568405449E+03   -0.10397E+00   -0.10975E+00 19264   0.300E+01-0.621E+00
CGA:  14    -0.419635973553E+03   -0.67568E-01   -0.67739E-01 19264   0.117E+01-0.273E-02
CGA:  15    -0.419654293001E+03   -0.18319E-01   -0.18241E-01 19264   0.865E+00 0.346E-02
CGA:  16    -0.419696037038E+03   -0.41744E-01   -0.41641E-01 19264   0.188E+01 0.104E-01
CGA:  17    -0.419758189377E+03   -0.62152E-01   -0.65253E-01 19264   0.110E+01 0.123E+00
CGA:  18    -0.419781674279E+03   -0.23485E-01   -0.22569E-01 19264   0.427E+00 0.268E-01
CGA:  19    -0.419791541232E+03   -0.98670E-02   -0.10304E-01 19264   0.174E+00-0.520E-02
CGA:  20    -0.419800587673E+03   -0.90464E-02   -0.89399E-02 19264   0.274E+00 0.630E-02
CGA:  21    -0.419808551951E+03   -0.79643E-02   -0.78355E-02 19264   0.229E+00-0.575E-03
CGA:  22    -0.419821554590E+03   -0.13003E-01   -0.12865E-01 19264   0.220E+00 0.578E-02
CGA:  23    -0.419825611375E+03   -0.40568E-02   -0.41662E-02 19264   0.415E-01-0.316E-02
CGA:  24    -0.419827279807E+03   -0.16684E-02   -0.16684E-02 19264   0.352E-01 0.227E-04
CGA:  25    -0.419829083566E+03   -0.18038E-02   -0.18022E-02 19264   0.578E-01 0.909E-04
CGA:  26    -0.419831930979E+03   -0.28474E-02   -0.28414E-02 19264   0.303E-01 0.462E-03
CGA:  27    -0.419832969364E+03   -0.10384E-02   -0.10389E-02 19264   0.195E-01 0.177E-04
CGA:  28    -0.419833482826E+03   -0.51346E-03   -0.51432E-03 19264   0.668E-02-0.877E-05
CGA:  29    -0.419833898709E+03   -0.41588E-03   -0.41537E-03 19264   0.800E-02 0.144E-04
CGA:  30    -0.419834366244E+03   -0.46753E-03   -0.46787E-03 19264   0.146E-01-0.216E-04
CGA:  31    -0.419834783677E+03   -0.41743E-03   -0.41827E-03 19264   0.179E-02-0.832E-05
SDA:  32    -0.419834863162E+03   -0.79485E-04   -0.79457E-04 19264   0.197E-02 0.389E-05
CGA:  33    -0.419834907241E+03   -0.44080E-04   -0.44150E-04 19264   0.917E-03-0.428E-06
CGA:  34    -0.419835000158E+03   -0.92917E-04   -0.91941E-04 19264   0.222E-02 0.150E-04
CGA:  35    -0.419835137399E+03   -0.13724E-03   -0.13686E-03 19264   0.163E-02 0.200E-04
CGA:  36    -0.419835171711E+03   -0.34311E-04   -0.34425E-04 19264   0.287E-03 0.149E-05
CGA:  37    -0.419835188230E+03   -0.16520E-04   -0.16535E-04 19264   0.247E-03-0.262E-05
CGA:  38    -0.419835227371E+03   -0.39140E-04   -0.40643E-04 19264   0.485E-03-0.133E-04
CGA:  39    -0.419835245864E+03   -0.18493E-04   -0.18456E-04 19264   0.298E-03-0.477E-05
CGA:  40    -0.419835254161E+03   -0.82971E-05   -0.82976E-05 19264   0.115E-03-0.110E-05
CGA:  41    -0.419835265773E+03   -0.11612E-04   -0.11332E-04 19264   0.291E-03 0.473E-05
CGA:  42    -0.419835280705E+03   -0.14933E-04   -0.14944E-04 19264   0.231E-03 0.704E-05
CGA:  43    -0.419835286942E+03   -0.62362E-05   -0.63072E-05 19264   0.318E-04 0.238E-05
  13 F= -.41983529E+03 E0= -.41980198E+03  d E =-.587326E-01  mag=    34.0000
       N       E                     dE             d eps       ncg     rms          ort
SDA:   1    -0.377386083214E+03    0.42449E+02    0.00000E+00 19264   0.163E+03 0.000E+00
CGA:   2    -0.382985650466E+03   -0.55996E+01   -0.57327E+01 19264   0.235E+03-0.267E+01
CGA:   3    -0.400812956571E+03   -0.17827E+02   -0.28959E+02 19264   0.110E+04-0.196E+03
CGA:   4    -0.404092857205E+03   -0.32799E+01   -0.20638E+02 19264   0.783E+03-0.747E+03
CGA:   5    -0.413187455768E+03   -0.90946E+01   -0.86934E+01 19264   0.309E+02-0.748E+02
CGA:   6    -0.414650890552E+03   -0.14634E+01   -0.14643E+01 19264   0.698E+02 0.828E+00
CGA:   7    -0.417229387119E+03   -0.25785E+01   -0.25410E+01 19264   0.308E+02-0.467E-02
CGA:   8    -0.417824225537E+03   -0.59484E+00   -0.60017E+00 19264   0.977E+01 0.278E+00
CGA:   9    -0.418211330058E+03   -0.38710E+00   -0.38916E+00 19264   0.132E+02 0.459E-01
CGA:  10    -0.418785370064E+03   -0.57404E+00   -0.56182E+00 19264   0.172E+02-0.533E+00
CGA:  11    -0.419345925455E+03   -0.56056E+00   -0.56278E+00 19264   0.874E+01 0.378E-01
CGA:  12    -0.419517388665E+03   -0.17146E+00   -0.18929E+00 19264   0.388E+01-0.599E+00
CGA:  13    -0.419621438676E+03   -0.10405E+00   -0.10373E+00 19264   0.250E+01 0.182E-02
CGA:  14    -0.419710752690E+03   -0.89314E-01   -0.92432E-01 19264   0.236E+01 0.826E-01
CGA:  15    -0.419789396340E+03   -0.78644E-01   -0.78156E-01 19264   0.153E+01-0.340E-02
CGA:  16    -0.419832857748E+03   -0.43461E-01   -0.46243E-01 19264   0.507E+00 0.540E-02
CGA:  17    -0.419844348240E+03   -0.11490E-01   -0.11489E-01 19264   0.210E+00-0.597E-04
CGA:  18    -0.419859278780E+03   -0.14931E-01   -0.14293E-01 19264   0.316E+00 0.218E-01
CGA:  19    -0.419869060612E+03   -0.97818E-02   -0.96581E-02 19264   0.147E+00 0.640E-03
CGA:  20    -0.419875564115E+03   -0.65035E-02   -0.64973E-02 19264   0.104E+00 0.727E-02
CGA:  21    -0.419879539891E+03   -0.39758E-02   -0.39609E-02 19264   0.840E-01-0.645E-03
CGA:  22    -0.419884007928E+03   -0.44680E-02   -0.43873E-02 19264   0.656E-01 0.586E-02
CGA:  23    -0.419886623890E+03   -0.26160E-02   -0.26081E-02 19264   0.556E-01-0.382E-03
CGA:  24    -0.419889081916E+03   -0.24580E-02   -0.24557E-02 19264   0.309E-01 0.135E-02
CGA:  25    -0.419890526616E+03   -0.14447E-02   -0.14451E-02 19264   0.308E-01-0.977E-04
CGA:  26    -0.419891873788E+03   -0.13472E-02   -0.13470E-02 19264   0.206E-01 0.396E-03
CGA:  27    -0.419892757830E+03   -0.88404E-03   -0.88395E-03 19264   0.142E-01-0.536E-04
CGA:  28    -0.419893383021E+03   -0.62519E-03   -0.62506E-03 19264   0.130E-01 0.110E-03
CGA:  29    -0.419893947515E+03   -0.56449E-03   -0.56448E-03 19264   0.808E-02-0.151E-04
CGA:  30    -0.419894343714E+03   -0.39620E-03   -0.39582E-03 19264   0.722E-02 0.427E-04
CGA:  31    -0.419894628260E+03   -0.28455E-03   -0.28461E-03 19264   0.461E-02 0.833E-05
CGA:  32    -0.419894858266E+03   -0.23001E-03   -0.22972E-03 19264   0.337E-02 0.318E-04
CGA:  33    -0.419894994255E+03   -0.13599E-03   -0.13606E-03 19264   0.292E-02 0.142E-04
CGA:  34    -0.419895138703E+03   -0.14445E-03   -0.14430E-03 19264   0.168E-02 0.218E-04
SDA:  35    -0.419895211522E+03   -0.72819E-04   -0.72835E-04 19264   0.163E-02 0.116E-04
CGA:  36    -0.419895238987E+03   -0.27465E-04   -0.27488E-04 19264   0.421E-03-0.350E-05
CGA:  37    -0.419895300067E+03   -0.61079E-04   -0.60293E-04 19264   0.127E-02 0.642E-05
CGA:  38    -0.419895391486E+03   -0.91420E-04   -0.91222E-04 19264   0.165E-02 0.752E-05
CGA:  39    -0.419895434990E+03   -0.43504E-04   -0.43638E-04 19264   0.339E-03 0.246E-05
CGA:  40    -0.419895451244E+03   -0.16254E-04   -0.16254E-04 19264   0.195E-03 0.738E-06
CGA:  41    -0.419895480440E+03   -0.29196E-04   -0.28955E-04 19264   0.563E-03 0.156E-05
CGA:  42    -0.419895511907E+03   -0.31467E-04   -0.31460E-04 19264   0.368E-03 0.142E-05
CGA:  43    -0.419895518744E+03   -0.68364E-05   -0.68418E-05 19264   0.417E-04-0.679E-06
  14 F= -.41989552E+03 E0= -.41986171E+03  d E =-.602318E-01  mag=    34.0000
       N       E                     dE             d eps       ncg     rms          ort
SDA:   1    -0.409444315311E+03    0.10451E+02    0.00000E+00 19264   0.752E+02 0.000E+00
CGA:   2    -0.411113751046E+03   -0.16694E+01   -0.17061E+01 19264   0.427E+02-0.232E+01
CGA:   3    -0.414960128101E+03   -0.38464E+01   -0.38484E+01 19264   0.602E+02-0.210E+00
CGA:   4    -0.417303290698E+03   -0.23432E+01   -0.21712E+01 19264   0.210E+02 0.134E+01
CGA:   5    -0.417987944863E+03   -0.68465E+00   -0.75651E+00 19264   0.177E+02-0.220E+00
CGA:   6    -0.418617888781E+03   -0.62994E+00   -0.61957E+00 19264   0.148E+02 0.566E-01
CGA:   7    -0.419225388277E+03   -0.60750E+00   -0.61974E+00 19264   0.128E+02 0.169E+00
CGA:   8    -0.419570617734E+03   -0.34523E+00   -0.34281E+00 19264   0.272E+01 0.621E-01
CGA:   9    -0.419663307140E+03   -0.92689E-01   -0.94362E-01 19264   0.149E+01-0.154E-02
CGA:  10    -0.419725545979E+03   -0.62239E-01   -0.62295E-01 19264   0.159E+01 0.149E-02
CGA:  11    -0.419796322967E+03   -0.70777E-01   -0.71289E-01 19264   0.111E+01 0.264E-01
CGA:  12    -0.419825556961E+03   -0.29234E-01   -0.29143E-01 19264   0.252E+00 0.169E-02
CGA:  13    -0.419835729164E+03   -0.10172E-01   -0.10200E-01 19264   0.242E+00 0.857E-03
CGA:  14    -0.419847067338E+03   -0.11338E-01   -0.11332E-01 19264   0.211E+00-0.901E-03
CGA:  15    -0.419859208602E+03   -0.12141E-01   -0.11970E-01 19264   0.141E+00 0.141E-01
CGA:  16    -0.419863860836E+03   -0.46522E-02   -0.46052E-02 19264   0.508E-01 0.260E-03
CGA:  17    -0.419865431984E+03   -0.15711E-02   -0.15878E-02 19264   0.343E-01-0.414E-04
CGA:  18    -0.419868187203E+03   -0.27552E-02   -0.27400E-02 19264   0.481E-01 0.390E-03
CGA:  19    -0.419870231349E+03   -0.20441E-02   -0.20489E-02 19264   0.225E-01 0.233E-03
CGA:  20    -0.419870892923E+03   -0.66157E-03   -0.66179E-03 19264   0.107E-01 0.633E-05
CGA:  21    -0.419871486861E+03   -0.59394E-03   -0.59316E-03 19264   0.988E-02 0.623E-04
CGA:  22    -0.419872272836E+03   -0.78597E-03   -0.78522E-03 19264   0.135E-01 0.169E-04
CGA:  23    -0.419872682487E+03   -0.40965E-03   -0.41103E-03 19264   0.607E-02-0.493E-05
CGA:  24    -0.419872935553E+03   -0.25307E-03   -0.25315E-03 19264   0.249E-02 0.245E-05
CGA:  25    -0.419873082290E+03   -0.14674E-03   -0.14662E-03 19264   0.397E-02 0.605E-05
CGA:  26    -0.419873293561E+03   -0.21127E-03   -0.21130E-03 19264   0.362E-02-0.705E-05
CGA:  27    -0.419873431538E+03   -0.13798E-03   -0.13802E-03 19264   0.115E-02-0.336E-05
CGA:  28    -0.419873482828E+03   -0.51290E-04   -0.51292E-04 19264   0.888E-03-0.129E-05
CGA:  29    -0.419873517853E+03   -0.35026E-04   -0.35040E-04 19264   0.827E-03-0.337E-06
CGA:  30    -0.419873577279E+03   -0.59426E-04   -0.59343E-04 19264   0.728E-03 0.241E-05
CGA:  31    -0.419873607790E+03   -0.30511E-04   -0.30530E-04 19264   0.415E-03 0.123E-05
SDA:  32    -0.419873620577E+03   -0.12787E-04   -0.12811E-04 19264   0.190E-03 0.358E-06
CGA:  33    -0.419873625328E+03   -0.47509E-05   -0.47564E-05 19264   0.113E-03-0.830E-06
  15 F= -.41987363E+03 E0= -.41983937E+03  d E =0.218934E-01  mag=    34.0000
       N       E                     dE             d eps       ncg     rms          ort
SDA:   1    -0.418834073518E+03    0.10395E+01    0.00000E+00 19264   0.400E+01 0.000E+00
CGA:   2    -0.419145778416E+03   -0.31170E+00   -0.31132E+00 19264   0.880E+01 0.132E-01
CGA:   3    -0.419487553448E+03   -0.34178E+00   -0.34150E+00 19264   0.415E+01-0.784E-02
CGA:   4    -0.419631048105E+03   -0.14349E+00   -0.14234E+00 19264   0.147E+01-0.575E-02
CGA:   5    -0.419771505415E+03   -0.14046E+00   -0.14068E+00 19264   0.311E+01-0.458E-02
CGA:   6    -0.419853679760E+03   -0.82174E-01   -0.81943E-01 19264   0.849E+00 0.313E-02
CGA:   7    -0.419888702016E+03   -0.35022E-01   -0.35041E-01 19264   0.202E+00 0.889E-03
CGA:   8    -0.419902187448E+03   -0.13485E-01   -0.13473E-01 19264   0.213E+00 0.600E-03
CGA:   9    -0.419911118200E+03   -0.89308E-02   -0.89360E-02 19264   0.166E+00 0.250E-03
CGA:  10    -0.419916100767E+03   -0.49826E-02   -0.50047E-02 19264   0.260E-01-0.144E-03
CGA:  11    -0.419917409658E+03   -0.13089E-02   -0.13089E-02 19264   0.282E-01-0.168E-05
CGA:  12    -0.419919022617E+03   -0.16130E-02   -0.16131E-02 19264   0.441E-01-0.131E-04
CGA:  13    -0.419920543030E+03   -0.15204E-02   -0.15219E-02 19264   0.403E-02 0.365E-05
CGA:  14    -0.419920892439E+03   -0.34941E-03   -0.34947E-03 19264   0.677E-02-0.209E-06
CGA:  15    -0.419921194964E+03   -0.30253E-03   -0.30257E-03 19264   0.680E-02 0.743E-05
CGA:  16    -0.419921458691E+03   -0.26373E-03   -0.26378E-03 19264   0.226E-02 0.539E-05
CGA:  17    -0.419921545685E+03   -0.86994E-04   -0.87021E-04 19264   0.964E-03 0.279E-05
CGA:  18    -0.419921587058E+03   -0.41373E-04   -0.41382E-04 19264   0.138E-02 0.124E-05
CGA:  19    -0.419921699936E+03   -0.11288E-03   -0.11270E-03 19264   0.876E-03 0.467E-05
CGA:  20    -0.419921733725E+03   -0.33788E-04   -0.33806E-04 19264   0.258E-03 0.117E-05
CGA:  21    -0.419921746065E+03   -0.12340E-04   -0.12342E-04 19264   0.418E-03 0.583E-06
CGA:  22    -0.419921774485E+03   -0.28420E-04   -0.28387E-04 19264   0.431E-03 0.161E-05
CGA:  23    -0.419921794044E+03   -0.19559E-04   -0.19565E-04 19264   0.165E-03 0.944E-06
CGA:  24    -0.419921798858E+03   -0.48133E-05   -0.48158E-05 19264   0.897E-04-0.121E-06
  16 F= -.41992180E+03 E0= -.41988767E+03  d E =-.481735E-01  mag=    34.0000
       N       E                     dE             d eps       ncg     rms          ort
SDA:   1    -0.419657228825E+03    0.26457E+00    0.00000E+00 19264   0.945E+00 0.000E+00
CGA:   2    -0.419746726322E+03   -0.89497E-01   -0.89487E-01 19264   0.237E+01 0.497E-03
CGA:   3    -0.419828657755E+03   -0.81931E-01   -0.81992E-01 19264   0.109E+01 0.940E-04
CGA:   4    -0.419861878797E+03   -0.33221E-01   -0.33295E-01 19264   0.373E+00-0.658E-03
CGA:   5    -0.419896759782E+03   -0.34881E-01   -0.34579E-01 19264   0.567E+00 0.675E-02
CGA:   6    -0.419914773227E+03   -0.18013E-01   -0.18032E-01 19264   0.270E+00-0.900E-04
CGA:   7    -0.419923924000E+03   -0.91508E-02   -0.91613E-02 19264   0.490E-01 0.585E-04
CGA:   8    -0.419927620051E+03   -0.36961E-02   -0.37002E-02 19264   0.507E-01-0.124E-03
CGA:   9    -0.419929855128E+03   -0.22351E-02   -0.22349E-02 19264   0.445E-01-0.807E-05
CGA:  10    -0.419931037003E+03   -0.11819E-02   -0.11829E-02 19264   0.802E-02-0.166E-04
CGA:  11    -0.419931425110E+03   -0.38811E-03   -0.38810E-03 19264   0.562E-02-0.263E-05
CGA:  12    -0.419931942101E+03   -0.51699E-03   -0.51718E-03 19264   0.107E-01-0.240E-05
CGA:  13    -0.419932212390E+03   -0.27029E-03   -0.27024E-03 19264   0.158E-02-0.616E-05
CGA:  14    -0.419932291987E+03   -0.79597E-04   -0.79597E-04 19264   0.111E-02-0.425E-06
CGA:  15    -0.419932380445E+03   -0.88458E-04   -0.88383E-04 19264   0.252E-02 0.250E-05
CGA:  16    -0.419932459563E+03   -0.79118E-04   -0.79193E-04 19264   0.639E-03 0.306E-05
CGA:  17    -0.419932486972E+03   -0.27409E-04   -0.27421E-04 19264   0.265E-03 0.145E-05
CGA:  18    -0.419932507515E+03   -0.20543E-04   -0.20494E-04 19264   0.442E-03 0.174E-05
CGA:  19    -0.419932527661E+03   -0.20146E-04   -0.20157E-04 19264   0.475E-03 0.156E-05
CGA:  20    -0.419932548821E+03   -0.21160E-04   -0.21174E-04 19264   0.913E-04 0.198E-05
CGA:  21    -0.419932553175E+03   -0.43532E-05   -0.43538E-05 19264   0.137E-03 0.118E-06
  17 F= -.41993255E+03 E0= -.41989850E+03  d E =-.107543E-01  mag=    34.0000
       N       E                     dE             d eps       ncg     rms          ort
SDA:   1    -0.419854947951E+03    0.77601E-01    0.00000E+00 19264   0.115E+01 0.000E+00
CGA:   2    -0.419875109559E+03   -0.20162E-01   -0.20445E-01 19264   0.262E+00-0.126E-01
CGA:   3    -0.419891515948E+03   -0.16406E-01   -0.16392E-01 19264   0.379E+00 0.800E-03
CGA:   4    -0.419917456362E+03   -0.25940E-01   -0.25934E-01 19264   0.247E+00 0.287E-03
CGA:   5    -0.419923616361E+03   -0.61600E-02   -0.61617E-02 19264   0.934E-01-0.509E-04
CGA:   6    -0.419928105715E+03   -0.44894E-02   -0.44894E-02 19264   0.517E-01 0.359E-04
CGA:   7    -0.419932888609E+03   -0.47829E-02   -0.47814E-02 19264   0.523E-01 0.377E-04
CGA:   8    -0.419934486747E+03   -0.15981E-02   -0.15978E-02 19264   0.186E-01 0.224E-04
CGA:   9    -0.419934937510E+03   -0.45076E-03   -0.45081E-03 19264   0.480E-02 0.228E-05
CGA:  10    -0.419935372792E+03   -0.43528E-03   -0.43566E-03 19264   0.737E-02-0.794E-05
CGA:  11    -0.419935661537E+03   -0.28874E-03   -0.28867E-03 19264   0.411E-02-0.625E-05
CGA:  12    -0.419935766615E+03   -0.10508E-03   -0.10503E-03 19264   0.625E-03-0.273E-05
CGA:  13    -0.419935846917E+03   -0.80301E-04   -0.80498E-04 19264   0.154E-02-0.253E-05
CGA:  14    -0.419935902941E+03   -0.56024E-04   -0.56019E-04 19264   0.927E-03-0.109E-05
CGA:  15    -0.419935929238E+03   -0.26298E-04   -0.26303E-04 19264   0.199E-03-0.368E-06
CGA:  16    -0.419935942647E+03   -0.13409E-04   -0.13391E-04 19264   0.255E-03 0.101E-05
CGA:  17    -0.419935958038E+03   -0.15391E-04   -0.15376E-04 19264   0.434E-03 0.182E-05
CGA:  18    -0.419935977251E+03   -0.19213E-04   -0.19239E-04 19264   0.130E-03 0.287E-05
CGA:  19    -0.419935983120E+03   -0.58695E-05   -0.58753E-05 19264   0.640E-04 0.606E-06
  18 F= -.41993598E+03 E0= -.41990196E+03  d E =-.342995E-02  mag=    34.0000
       N       E                     dE             d eps       ncg     rms          ort
SDA:   1    -0.419309905498E+03    0.62607E+00    0.00000E+00 19264   0.336E+01 0.000E+00
CGA:   2    -0.419405333706E+03   -0.95428E-01   -0.95889E-01 19264   0.308E+01-0.703E-02
CGA:   3    -0.419651446975E+03   -0.24611E+00   -0.24668E+00 19264   0.335E+01-0.181E-01
CGA:   4    -0.419818404656E+03   -0.16696E+00   -0.16687E+00 19264   0.111E+01-0.161E-01
CGA:   5    -0.419855995903E+03   -0.37591E-01   -0.38259E-01 19264   0.676E+00-0.120E-05
CGA:   6    -0.419882565368E+03   -0.26569E-01   -0.26545E-01 19264   0.605E+00-0.199E-03
CGA:   7    -0.419922765954E+03   -0.40201E-01   -0.40202E-01 19264   0.309E+00-0.326E-04
CGA:   8    -0.419932773770E+03   -0.10008E-01   -0.99737E-02 19264   0.106E+00 0.238E-03
CGA:   9    -0.419935348937E+03   -0.25752E-02   -0.25768E-02 19264   0.343E-01-0.287E-04
CGA:  10    -0.419939610750E+03   -0.42618E-02   -0.42661E-02 19264   0.507E-01-0.512E-04
CGA:  11    -0.419941170599E+03   -0.15598E-02   -0.15598E-02 19264   0.183E-01-0.218E-04
CGA:  12    -0.419941643353E+03   -0.47275E-03   -0.47288E-03 19264   0.533E-02-0.890E-05
CGA:  13    -0.419942130783E+03   -0.48743E-03   -0.48738E-03 19264   0.974E-02 0.222E-05
CGA:  14    -0.419942603809E+03   -0.47303E-03   -0.47308E-03 19264   0.722E-02 0.650E-05
CGA:  15    -0.419942786304E+03   -0.18249E-03   -0.18243E-03 19264   0.136E-02 0.420E-05
CGA:  16    -0.419942894890E+03   -0.10859E-03   -0.10846E-03 19264   0.209E-02 0.408E-05
CGA:  17    -0.419943004497E+03   -0.10961E-03   -0.10961E-03 19264   0.299E-02 0.482E-05
CGA:  18    -0.419943140295E+03   -0.13580E-03   -0.13589E-03 19264   0.120E-02 0.976E-05
CGA:  19    -0.419943184072E+03   -0.43777E-04   -0.43810E-04 19264   0.451E-03 0.186E-05
CGA:  20    -0.419943218734E+03   -0.34663E-04   -0.34661E-04 19264   0.140E-02-0.740E-07
CGA:  21    -0.419943306481E+03   -0.87747E-04   -0.87772E-04 19264   0.530E-03-0.270E-05
CGA:  22    -0.419943325838E+03   -0.19357E-04   -0.19344E-04 19264   0.240E-03-0.118E-05
CGA:  23    -0.419943335324E+03   -0.94868E-05   -0.94777E-05 19264   0.267E-03-0.111E-05
CGA:  24    -0.419943356472E+03   -0.21148E-04   -0.21183E-04 19264   0.295E-03-0.155E-05
CGA:  25    -0.419943370860E+03   -0.14388E-04   -0.14385E-04 19264   0.129E-03-0.971E-06
CGA:  26    -0.419943374028E+03   -0.31677E-05   -0.31724E-05 19264   0.472E-04-0.139E-06
  19 F= -.41994337E+03 E0= -.41990937E+03  d E =-.739091E-02  mag=    34.0000
       N       E                     dE             d eps       ncg     rms          ort
SDA:   1    -0.419821737167E+03    0.12163E+00    0.00000E+00 19264   0.621E+00 0.000E+00
CGA:   2    -0.419840672537E+03   -0.18935E-01   -0.18924E-01 19264   0.625E+00 0.116E-03
CGA:   3    -0.419889573859E+03   -0.48901E-01   -0.48863E-01 19264   0.778E+00 0.125E-02
CGA:   4    -0.419922227295E+03   -0.32653E-01   -0.32641E-01 19264   0.184E+00-0.341E-03
CGA:   5    -0.419929059219E+03   -0.68319E-02   -0.68389E-02 19264   0.146E+00 0.107E-03
CGA:   6    -0.419935569021E+03   -0.65098E-02   -0.65087E-02 19264   0.125E+00 0.233E-04
CGA:   7    -0.419943572455E+03   -0.80034E-02   -0.80073E-02 19264   0.345E-01-0.180E-03
CGA:   8    -0.419944981800E+03   -0.14093E-02   -0.14083E-02 19264   0.109E-01-0.160E-04
CGA:   9    -0.419945374365E+03   -0.39257E-03   -0.39253E-03 19264   0.115E-01-0.174E-05
CGA:  10    -0.419946236680E+03   -0.86231E-03   -0.86290E-03 19264   0.777E-02-0.226E-04
CGA:  11    -0.419946477496E+03   -0.24082E-03   -0.24064E-03 19264   0.214E-02-0.456E-05
CGA:  12    -0.419946536476E+03   -0.58980E-04   -0.58961E-04 19264   0.133E-02-0.139E-05
CGA:  13    -0.419946679117E+03   -0.14264E-03   -0.14269E-03 19264   0.169E-02-0.819E-06
CGA:  14    -0.419946751819E+03   -0.72702E-04   -0.72727E-04 19264   0.613E-03 0.129E-05
CGA:  15    -0.419946767904E+03   -0.16085E-04   -0.16106E-04 19264   0.288E-03 0.915E-06
CGA:  16    -0.419946799984E+03   -0.32080E-04   -0.31857E-04 19264   0.531E-03 0.363E-05
CGA:  17    -0.419946830218E+03   -0.30234E-04   -0.30223E-04 19264   0.428E-03 0.346E-05
CGA:  18    -0.419946841988E+03   -0.11770E-04   -0.11800E-04 19264   0.165E-03 0.948E-06
CGA:  19    -0.419946849637E+03   -0.76495E-05   -0.76513E-05 19264   0.118E-03 0.265E-06
CGA:  20    -0.419946862949E+03   -0.13312E-04   -0.13363E-04 19264   0.424E-03-0.803E-06
CGA:  21    -0.419946876805E+03   -0.13856E-04   -0.13834E-04 19264   0.420E-04-0.961E-06
CGA:  22    -0.419946879761E+03   -0.29557E-05   -0.29615E-05 19264   0.626E-04-0.428E-06
  20 F= -.41994688E+03 E0= -.41991288E+03  d E =-.350573E-02  mag=    34.0000
       N       E                     dE             d eps       ncg     rms          ort
SDA:   1    -0.412427007352E+03    0.75199E+01    0.00000E+00 19264   0.320E+02 0.000E+00
CGA:   2    -0.413745076133E+03   -0.13181E+01   -0.13346E+01 19264   0.419E+02-0.304E-01
CGA:   3    -0.416757042800E+03   -0.30120E+01   -0.30383E+01 19264   0.592E+02-0.132E+01
CGA:   4    -0.418511061540E+03   -0.17540E+01   -0.16522E+01 19264   0.801E+01 0.234E+01
CGA:   5    -0.418767692242E+03   -0.25663E+00   -0.25920E+00 19264   0.103E+02-0.228E-01
CGA:   6    -0.419471806517E+03   -0.70411E+00   -0.70518E+00 19264   0.736E+01-0.600E-01
CGA:   7    -0.419704373192E+03   -0.23257E+00   -0.22971E+00 19264   0.485E+01 0.424E-01
CGA:   8    -0.419808843300E+03   -0.10447E+00   -0.10456E+00 19264   0.729E+00 0.112E-01
CGA:   9    -0.419853776314E+03   -0.44933E-01   -0.44833E-01 19264   0.911E+00 0.652E-02
CGA:  10    -0.419891899182E+03   -0.38123E-01   -0.38250E-01 19264   0.120E+01 0.339E-02
CGA:  11    -0.419930444268E+03   -0.38545E-01   -0.38801E-01 19264   0.214E+00 0.452E-03
CGA:  12    -0.419936463660E+03   -0.60194E-02   -0.60640E-02 19264   0.123E+00-0.507E-03
CGA:  13    -0.419941507312E+03   -0.50437E-02   -0.50340E-02 19264   0.146E+00-0.370E-03
CGA:  14    -0.419952621978E+03   -0.11115E-01   -0.11019E-01 19264   0.115E+00 0.277E-02
CGA:  15    -0.419954904962E+03   -0.22830E-02   -0.23573E-02 19264   0.294E-01-0.228E-02
CGA:  16    -0.419956336294E+03   -0.14313E-02   -0.14314E-02 19264   0.217E-01-0.165E-04
CGA:  17    -0.419959169305E+03   -0.28330E-02   -0.27417E-02 19264   0.330E-01 0.122E-02
CGA:  18    -0.419960297543E+03   -0.11282E-02   -0.11281E-02 19264   0.165E-01 0.133E-04
CGA:  19    -0.419960827459E+03   -0.52992E-03   -0.53122E-03 19264   0.823E-02 0.116E-05
CGA:  20    -0.419961404316E+03   -0.57686E-03   -0.57589E-03 19264   0.108E-01 0.386E-04
CGA:  21    -0.419962130297E+03   -0.72598E-03   -0.72621E-03 19264   0.192E-01-0.152E-04
CGA:  22    -0.419962696756E+03   -0.56646E-03   -0.56861E-03 19264   0.253E-02-0.327E-04
CGA:  23    -0.419962927025E+03   -0.23027E-03   -0.23033E-03 19264   0.368E-02-0.195E-05
CGA:  24    -0.419963204828E+03   -0.27780E-03   -0.27760E-03 19264   0.440E-02 0.839E-05
CGA:  25    -0.419963346187E+03   -0.14136E-03   -0.14138E-03 19264   0.206E-02 0.321E-05
CGA:  26    -0.419963421548E+03   -0.75361E-04   -0.75415E-04 19264   0.602E-03 0.293E-05
CGA:  27    -0.419963478719E+03   -0.57171E-04   -0.56903E-04 19264   0.981E-03 0.579E-05
CGA:  28    -0.419963543766E+03   -0.65047E-04   -0.64962E-04 19264   0.118E-02 0.752E-05
CGA:  29    -0.419963572543E+03   -0.28777E-04   -0.28884E-04 19264   0.234E-03 0.346E-05
CGA:  30    -0.419963585596E+03   -0.13053E-04   -0.13051E-04 19264   0.206E-03 0.613E-06
CGA:  31    -0.419963598575E+03   -0.12979E-04   -0.12973E-04 19264   0.352E-03 0.225E-06
SDA:  32    -0.419963613081E+03   -0.14506E-04   -0.14510E-04 19264   0.186E-03-0.105E-06
CGA:  33    -0.419963617771E+03   -0.46896E-05   -0.46873E-05 19264   0.547E-04-0.494E-06
  21 F= -.41996362E+03 E0= -.41992962E+03  d E =-.167380E-01  mag=    34.0000
       N       E                     dE             d eps       ncg     rms          ort
SDA:   1    -0.417508008136E+03    0.24556E+01    0.00000E+00 19264   0.909E+01 0.000E+00
CGA:   2    -0.417939995933E+03   -0.43199E+00   -0.43180E+00 19264   0.170E+02-0.211E-01
CGA:   3    -0.419219210380E+03   -0.12792E+01   -0.12823E+01 19264   0.913E+01-0.110E+00
CGA:   4    -0.419494571475E+03   -0.27536E+00   -0.27547E+00 19264   0.196E+01-0.278E-02
CGA:   5    -0.419792337283E+03   -0.29777E+00   -0.30077E+00 19264   0.236E+01-0.355E-01
CGA:   6    -0.419887274865E+03   -0.94938E-01   -0.94859E-01 19264   0.718E+00-0.242E-03
CGA:   7    -0.419905382810E+03   -0.18108E-01   -0.18130E-01 19264   0.316E+00-0.197E-03
CGA:   8    -0.419925076226E+03   -0.19693E-01   -0.19659E-01 19264   0.262E+00 0.268E-02
CGA:   9    -0.419943567176E+03   -0.18491E-01   -0.18481E-01 19264   0.111E+00 0.477E-03
CGA:  10    -0.419946800090E+03   -0.32329E-02   -0.32351E-02 19264   0.443E-01 0.110E-04
CGA:  11    -0.419948522916E+03   -0.17228E-02   -0.17259E-02 19264   0.478E-01 0.267E-04
CGA:  12    -0.419952800154E+03   -0.42772E-02   -0.42767E-02 19264   0.271E-01 0.662E-05
CGA:  13    -0.419953407616E+03   -0.60746E-03   -0.60786E-03 19264   0.914E-02-0.213E-04
CGA:  14    -0.419953928813E+03   -0.52120E-03   -0.52103E-03 19264   0.103E-01 0.191E-04
CGA:  15    -0.419955056968E+03   -0.11282E-02   -0.11307E-02 19264   0.102E-01-0.489E-04
CGA:  16    -0.419955364237E+03   -0.30727E-03   -0.30773E-03 19264   0.419E-02-0.115E-04
CGA:  17    -0.419955512022E+03   -0.14779E-03   -0.14783E-03 19264   0.279E-02-0.716E-06
CGA:  18    -0.419955881248E+03   -0.36923E-03   -0.36827E-03 19264   0.620E-02 0.122E-04
CGA:  19    -0.419956089033E+03   -0.20779E-03   -0.20803E-03 19264   0.400E-02 0.284E-05
CGA:  20    -0.419956232113E+03   -0.14308E-03   -0.14323E-03 19264   0.944E-03 0.218E-05
CGA:  21    -0.419956299408E+03   -0.67295E-04   -0.67245E-04 19264   0.174E-02 0.304E-05
CGA:  22    -0.419956419111E+03   -0.11970E-03   -0.11965E-03 19264   0.228E-02 0.392E-05
CGA:  23    -0.419956481444E+03   -0.62333E-04   -0.62426E-04 19264   0.204E-03 0.132E-05
CGA:  24    -0.419956500355E+03   -0.18910E-04   -0.18928E-04 19264   0.576E-03-0.114E-05
CGA:  25    -0.419956523797E+03   -0.23442E-04   -0.23431E-04 19264   0.391E-03-0.131E-05
CGA:  26    -0.419956540737E+03   -0.16940E-04   -0.16932E-04 19264   0.112E-03-0.114E-05
CGA:  27    -0.419956544719E+03   -0.39818E-05   -0.39828E-05 19264   0.712E-04-0.473E-06
  22 F= -.41995654E+03 E0= -.41992255E+03  d E =0.707305E-02  mag=    34.0000
       N       E                     dE             d eps       ncg     rms          ort
SDA:   1    -0.419658194511E+03    0.29835E+00    0.00000E+00 19264   0.117E+02 0.000E+00
CGA:   2    -0.419831158295E+03   -0.17296E+00   -0.17673E+00 19264   0.471E+00-0.309E+00
CGA:   3    -0.419858240295E+03   -0.27082E-01   -0.27080E-01 19264   0.679E+00 0.257E-03
CGA:   4    -0.419916329182E+03   -0.58089E-01   -0.58152E-01 19264   0.744E+00-0.171E-02
CGA:   5    -0.419932554967E+03   -0.16226E-01   -0.16101E-01 19264   0.156E+00 0.357E-02
CGA:   6    -0.419942547577E+03   -0.99926E-02   -0.10006E-01 19264   0.152E+00-0.801E-03
CGA:   7    -0.419948181811E+03   -0.56342E-02   -0.56325E-02 19264   0.135E+00-0.477E-05
CGA:   8    -0.419954604188E+03   -0.64224E-02   -0.64225E-02 19264   0.197E-01 0.297E-04
CGA:   9    -0.419955317271E+03   -0.71308E-03   -0.71317E-03 19264   0.119E-01 0.978E-05
CGA:  10    -0.419955997406E+03   -0.68013E-03   -0.68013E-03 19264   0.170E-01 0.488E-05
CGA:  11    -0.419956791514E+03   -0.79411E-03   -0.79417E-03 19264   0.311E-02 0.468E-05
CGA:  12    -0.419956904996E+03   -0.11348E-03   -0.11348E-03 19264   0.167E-02-0.173E-06
CGA:  13    -0.419957001328E+03   -0.96332E-04   -0.96345E-04 19264   0.291E-02-0.138E-06
CGA:  14    -0.419957163172E+03   -0.16184E-03   -0.16185E-03 19264   0.731E-03-0.203E-06
CGA:  15    -0.419957184618E+03   -0.21446E-04   -0.21434E-04 19264   0.419E-03-0.862E-06
CGA:  16    -0.419957202170E+03   -0.17552E-04   -0.17550E-04 19264   0.299E-03-0.324E-06
CGA:  17    -0.419957225541E+03   -0.23371E-04   -0.23401E-04 19264   0.434E-03-0.115E-05
CGA:  18    -0.419957242388E+03   -0.16847E-04   -0.16841E-04 19264   0.196E-03-0.905E-06
CGA:  19    -0.419957247703E+03   -0.53147E-05   -0.53104E-05 19264   0.394E-04-0.387E-06
  23 F= -.41995725E+03 E0= -.41992324E+03  d E =-.702984E-03  mag=    34.0000
       N       E                     dE             d eps       ncg     rms          ort
SDA:   1    -0.419654849489E+03    0.30239E+00    0.00000E+00 19264   0.318E+01 0.000E+00
CGA:   2    -0.419710408127E+03   -0.55559E-01   -0.55965E-01 19264   0.777E+00-0.208E-01
CGA:   3    -0.419851210842E+03   -0.14080E+00   -0.14090E+00 19264   0.192E+01-0.881E-03
CGA:   4    -0.419916510883E+03   -0.65300E-01   -0.65316E-01 19264   0.450E+00-0.578E-03
CGA:   5    -0.419927033987E+03   -0.10523E-01   -0.10446E-01 19264   0.199E+00 0.229E-02
CGA:   6    -0.419943115829E+03   -0.16082E-01   -0.16072E-01 19264   0.231E+00 0.392E-03
CGA:   7    -0.419955005422E+03   -0.11890E-01   -0.11889E-01 19264   0.249E-01-0.289E-04
CGA:   8    -0.419955929277E+03   -0.92385E-03   -0.92306E-03 19264   0.258E-01 0.851E-05
CGA:   9    -0.419957345475E+03   -0.14162E-02   -0.14163E-02 19264   0.235E-01 0.447E-04
CGA:  10    -0.419958561834E+03   -0.12164E-02   -0.12162E-02 19264   0.674E-02-0.117E-04
CGA:  11    -0.419958752266E+03   -0.19043E-03   -0.19024E-03 19264   0.366E-02 0.149E-05
CGA:  12    -0.419958904255E+03   -0.15199E-03   -0.15200E-03 19264   0.261E-02-0.111E-05
CGA:  13    -0.419959147092E+03   -0.24284E-03   -0.24301E-03 19264   0.171E-02-0.500E-05
CGA:  14    -0.419959208569E+03   -0.61478E-04   -0.61400E-04 19264   0.718E-03-0.128E-05
CGA:  15    -0.419959227731E+03   -0.19162E-04   -0.19155E-04 19264   0.310E-03-0.698E-06
CGA:  16    -0.419959270706E+03   -0.42975E-04   -0.42989E-04 19264   0.716E-03-0.414E-06
CGA:  17    -0.419959292826E+03   -0.22120E-04   -0.22110E-04 19264   0.208E-03-0.647E-06
CGA:  18    -0.419959297970E+03   -0.51442E-05   -0.51459E-05 19264   0.697E-04-0.262E-06
CGA:  19    -0.419959309307E+03   -0.11337E-04   -0.11342E-04 19264   0.170E-03-0.224E-06
CGA:  20    -0.419959316596E+03   -0.72894E-05   -0.72911E-05 19264   0.130E-03-0.192E-06
  24 F= -.41995932E+03 E0= -.41992532E+03  d E =-.206889E-02  mag=    34.0000
       N       E                     dE             d eps       ncg     rms          ort
SDA:   1    -0.419111932268E+03    0.84738E+00    0.00000E+00 19264   0.275E+01 0.000E+00
CGA:   2    -0.419255469592E+03   -0.14354E+00   -0.14376E+00 19264   0.584E+01 0.159E-01
CGA:   3    -0.419713636413E+03   -0.45817E+00   -0.45795E+00 19264   0.440E+01 0.937E-02
CGA:   4    -0.419839307312E+03   -0.12567E+00   -0.12524E+00 19264   0.598E+00 0.598E-02
CGA:   5    -0.419879547633E+03   -0.40240E-01   -0.40192E-01 19264   0.150E+01 0.327E-02
CGA:   6    -0.419941836424E+03   -0.62289E-01   -0.62168E-01 19264   0.214E+00-0.765E-03
CGA:   7    -0.419950018288E+03   -0.81819E-02   -0.82339E-02 19264   0.632E-01 0.130E-03
CGA:   8    -0.419954695273E+03   -0.46770E-02   -0.46723E-02 19264   0.138E+00 0.211E-03
CGA:   9    -0.419959364496E+03   -0.46692E-02   -0.46720E-02 19264   0.467E-01-0.146E-04
CGA:  10    -0.419961256724E+03   -0.18922E-02   -0.18954E-02 19264   0.113E-01 0.233E-04
CGA:  11    -0.419961837469E+03   -0.58075E-03   -0.58089E-03 19264   0.110E-01 0.169E-04
CGA:  12    -0.419962362197E+03   -0.52473E-03   -0.52480E-03 19264   0.143E-01-0.120E-05
CGA:  13    -0.419962982834E+03   -0.62064E-03   -0.62074E-03 19264   0.142E-02-0.263E-05
CGA:  14    -0.419963050869E+03   -0.68035E-04   -0.68032E-04 19264   0.211E-02-0.194E-05
CGA:  15    -0.419963185595E+03   -0.13473E-03   -0.13472E-03 19264   0.287E-02-0.809E-06
CGA:  16    -0.419963294482E+03   -0.10889E-03   -0.10891E-03 19264   0.386E-03-0.900E-06
CGA:  17    -0.419963315851E+03   -0.21369E-04   -0.21368E-04 19264   0.477E-03-0.114E-05
CGA:  18    -0.419963338502E+03   -0.22651E-04   -0.22649E-04 19264   0.670E-03-0.166E-05
CGA:  19    -0.419963386315E+03   -0.47813E-04   -0.47831E-04 19264   0.294E-03-0.169E-05
CGA:  20    -0.419963398258E+03   -0.11942E-04   -0.11944E-04 19264   0.169E-03-0.883E-06
CGA:  21    -0.419963403632E+03   -0.53745E-05   -0.53786E-05 19264   0.122E-03-0.520E-06
CGA:  22    -0.419963418484E+03   -0.14851E-04   -0.14780E-04 19264   0.181E-03 0.426E-06
CGA:  23    -0.419963424796E+03   -0.63125E-05   -0.63247E-05 19264   0.454E-04 0.988E-07
  25 F= -.41996342E+03 E0= -.41992944E+03  d E =-.410820E-02  mag=    34.0000
       N       E                     dE             d eps       ncg     rms          ort
SDA:   1    -0.418565378000E+03    0.13980E+01    0.00000E+00 19264   0.374E+01 0.000E+00
CGA:   2    -0.418961002358E+03   -0.39562E+00   -0.39181E+00 19264   0.140E+02 0.789E-01
CGA:   3    -0.419619428519E+03   -0.65843E+00   -0.65763E+00 19264   0.569E+01-0.254E-01
CGA:   4    -0.419770639688E+03   -0.15121E+00   -0.14852E+00 19264   0.916E+00 0.461E-01
CGA:   5    -0.419867563039E+03   -0.96923E-01   -0.96896E-01 19264   0.259E+01 0.700E-03
CGA:   6    -0.419933800374E+03   -0.66237E-01   -0.65707E-01 19264   0.270E+00 0.118E-01
CGA:   7    -0.419945187130E+03   -0.11387E-01   -0.11361E-01 19264   0.992E-01-0.316E-03
CGA:   8    -0.419955810695E+03   -0.10624E-01   -0.10639E-01 19264   0.199E+00-0.275E-03
CGA:   9    -0.419961118563E+03   -0.53079E-02   -0.53089E-02 19264   0.593E-01 0.119E-05
CGA:  10    -0.419963436440E+03   -0.23179E-02   -0.23209E-02 19264   0.162E-01 0.229E-04
CGA:  11    -0.419964261056E+03   -0.82462E-03   -0.82465E-03 19264   0.204E-01 0.443E-05
CGA:  12    -0.419965257925E+03   -0.99687E-03   -0.99693E-03 19264   0.215E-01-0.609E-05
CGA:  13    -0.419966027615E+03   -0.76969E-03   -0.76969E-03 19264   0.185E-02-0.105E-04
CGA:  14    -0.419966176149E+03   -0.14853E-03   -0.14850E-03 19264   0.404E-02 0.106E-05
CGA:  15    -0.419966382239E+03   -0.20609E-03   -0.20610E-03 19264   0.380E-02 0.283E-06
CGA:  16    -0.419966503526E+03   -0.12129E-03   -0.12130E-03 19264   0.562E-03-0.101E-05
CGA:  17    -0.419966531530E+03   -0.28004E-04   -0.28003E-04 19264   0.608E-03-0.687E-06
CGA:  18    -0.419966563800E+03   -0.32270E-04   -0.32270E-04 19264   0.104E-02-0.157E-05
CGA:  19    -0.419966631975E+03   -0.68175E-04   -0.68190E-04 19264   0.329E-03-0.173E-05
CGA:  20    -0.419966646904E+03   -0.14929E-04   -0.14931E-04 19264   0.190E-03-0.293E-06
CGA:  21    -0.419966653718E+03   -0.68142E-05   -0.68227E-05 19264   0.182E-03 0.126E-06
CGA:  22    -0.419966670831E+03   -0.17112E-04   -0.17031E-04 19264   0.224E-03 0.168E-05
CGA:  23    -0.419966679292E+03   -0.84616E-05   -0.84815E-05 19264   0.522E-04 0.803E-06
  26 F= -.41996668E+03 E0= -.41993271E+03  d E =-.325450E-02  mag=    34.0000
       N       E                     dE             d eps       ncg     rms          ort
SDA:   1    -0.419894576854E+03    0.72094E-01    0.00000E+00 19264   0.228E+00 0.000E+00
CGA:   2    -0.419911238342E+03   -0.16661E-01   -0.16672E-01 19264   0.682E+00-0.279E-03
CGA:   3    -0.419946212593E+03   -0.34974E-01   -0.34975E-01 19264   0.172E+00 0.171E-03
CGA:   4    -0.419953408454E+03   -0.71959E-02   -0.72016E-02 19264   0.768E-01 0.150E-03
CGA:   5    -0.419957750731E+03   -0.43423E-02   -0.43419E-02 19264   0.107E+00 0.498E-04
CGA:   6    -0.419961592490E+03   -0.38418E-02   -0.38436E-02 19264   0.649E-01-0.163E-04
CGA:   7    -0.419964417323E+03   -0.28248E-02   -0.28265E-02 19264   0.753E-02 0.535E-04
CGA:   8    -0.419964848324E+03   -0.43100E-03   -0.43095E-03 19264   0.696E-02 0.923E-05
CGA:   9    -0.419965406436E+03   -0.55811E-03   -0.55776E-03 19264   0.703E-02 0.140E-04
CGA:  10    -0.419965560058E+03   -0.15362E-03   -0.15363E-03 19264   0.150E-02 0.773E-05
CGA:  11    -0.419965623169E+03   -0.63112E-04   -0.63122E-04 19264   0.776E-03 0.809E-06
CGA:  12    -0.419965710494E+03   -0.87324E-04   -0.87393E-04 19264   0.174E-02-0.683E-06
CGA:  13    -0.419965751213E+03   -0.40719E-04   -0.40687E-04 19264   0.250E-03-0.129E-05
CGA:  14    -0.419965764133E+03   -0.12920E-04   -0.12919E-04 19264   0.166E-03-0.867E-06
CGA:  15    -0.419965780838E+03   -0.16706E-04   -0.16797E-04 19264   0.296E-03-0.196E-05
CGA:  16    -0.419965792265E+03   -0.11427E-04   -0.11409E-04 19264   0.229E-03-0.121E-05
CGA:  17    -0.419965799104E+03   -0.68382E-05   -0.68226E-05 19264   0.417E-04-0.757E-06
  27 F= -.41996580E+03 E0= -.41993185E+03  d E =0.880189E-03  mag=    34.0000
       N       E                     dE             d eps       ncg     rms          ort
SDA:   1    -0.419272735903E+03    0.69306E+00    0.00000E+00 19264   0.219E+01 0.000E+00
CGA:   2    -0.419408431992E+03   -0.13570E+00   -0.13583E+00 19264   0.555E+01-0.108E-01
CGA:   3    -0.419741905488E+03   -0.33347E+00   -0.33356E+00 19264   0.336E+01-0.896E-02
CGA:   4    -0.419850286705E+03   -0.10838E+00   -0.10874E+00 19264   0.715E+00-0.296E-02
CGA:   5    -0.419877657724E+03   -0.27371E-01   -0.27268E-01 19264   0.806E+00-0.335E-03
CGA:   6    -0.419922795397E+03   -0.45138E-01   -0.45132E-01 19264   0.623E+00 0.139E-02
CGA:   7    -0.419949565621E+03   -0.26770E-01   -0.26720E-01 19264   0.849E-01-0.109E-02
CGA:   8    -0.419954284601E+03   -0.47190E-02   -0.47196E-02 19264   0.371E-01-0.987E-04
CGA:   9    -0.419958856072E+03   -0.45715E-02   -0.45674E-02 19264   0.682E-01 0.660E-04
CGA:  10    -0.419960482644E+03   -0.16266E-02   -0.16275E-02 19264   0.139E-01 0.822E-05
CGA:  11    -0.419960903900E+03   -0.42126E-03   -0.42151E-03 19264   0.491E-02-0.272E-05
CGA:  12    -0.419961513218E+03   -0.60932E-03   -0.60984E-03 19264   0.134E-01-0.537E-05
CGA:  13    -0.419961846603E+03   -0.33339E-03   -0.33312E-03 19264   0.264E-02-0.680E-05
CGA:  14    -0.419961950385E+03   -0.10378E-03   -0.10379E-03 19264   0.893E-03-0.232E-05
CGA:  15    -0.419962061600E+03   -0.11122E-03   -0.11120E-03 19264   0.183E-02-0.362E-06
CGA:  16    -0.419962157892E+03   -0.96292E-04   -0.96310E-04 19264   0.105E-02 0.110E-05
CGA:  17    -0.419962183768E+03   -0.25876E-04   -0.25884E-04 19264   0.378E-03-0.339E-07
CGA:  18    -0.419962206640E+03   -0.22873E-04   -0.22871E-04 19264   0.364E-03 0.759E-08
CGA:  19    -0.419962243778E+03   -0.37138E-04   -0.37096E-04 19264   0.102E-02 0.897E-06
CGA:  20    -0.419962273095E+03   -0.29317E-04   -0.29352E-04 19264   0.173E-03 0.613E-06
CGA:  21    -0.419962280542E+03   -0.74466E-05   -0.74505E-05 19264   0.961E-04 0.344E-07
CGA:  22    -0.419962295510E+03   -0.14968E-04   -0.14887E-04 19264   0.212E-03 0.598E-06
CGA:  23    -0.419962302278E+03   -0.67686E-05   -0.67754E-05 19264   0.838E-04 0.406E-07
  28 F= -.41996230E+03 E0= -.41992837E+03  d E =0.349683E-02  mag=    34.0000
       N       E                     dE             d eps       ncg     rms          ort
SDA:   1    -0.419917445578E+03    0.44850E-01    0.00000E+00 19264   0.203E+00 0.000E+00
CGA:   2    -0.419923412676E+03   -0.59671E-02   -0.59594E-02 19264   0.212E+00 0.157E-03
CGA:   3    -0.419946262677E+03   -0.22850E-01   -0.22845E-01 19264   0.244E+00 0.127E-03
CGA:   4    -0.419955532699E+03   -0.92700E-02   -0.92661E-02 19264   0.583E-01 0.515E-05
CGA:   5    -0.419957570111E+03   -0.20374E-02   -0.20419E-02 19264   0.513E-01-0.230E-05
CGA:   6    -0.419960468928E+03   -0.28988E-02   -0.28988E-02 19264   0.392E-01 0.408E-04
CGA:   7    -0.419962301775E+03   -0.18328E-02   -0.18335E-02 19264   0.776E-02 0.266E-04
CGA:   8    -0.419962656155E+03   -0.35438E-03   -0.35457E-03 19264   0.344E-02 0.809E-05
CGA:   9    -0.419962814693E+03   -0.15854E-03   -0.15852E-03 19264   0.487E-02 0.768E-06
CGA:  10    -0.419963092280E+03   -0.27759E-03   -0.27759E-03 19264   0.139E-02-0.129E-05
CGA:  11    -0.419963139148E+03   -0.46868E-04   -0.46864E-04 19264   0.406E-03-0.557E-06
CGA:  12    -0.419963173085E+03   -0.33937E-04   -0.33941E-04 19264   0.111E-02-0.415E-06
CGA:  13    -0.419963211936E+03   -0.38852E-04   -0.38841E-04 19264   0.230E-03-0.561E-06
CGA:  14    -0.419963220618E+03   -0.86819E-05   -0.86817E-05 19264   0.924E-04 0.408E-07
  29 F= -.41996322E+03 E0= -.41992928E+03  d E =-.918340E-03  mag=    34.0000
