       N       E                     dE             d eps       ncg     rms          ort
DAV:   1     0.562955435917E+04    0.56296E+04   -0.26879E+05  7696   0.164E+03
DAV:   2     0.239377395967E+03   -0.53902E+04   -0.49837E+04  7696   0.462E+02
DAV:   3    -0.375739420045E+03   -0.61512E+03   -0.60476E+03  7696   0.173E+02
DAV:   4    -0.392274925816E+03   -0.16536E+02   -0.16422E+02  7696   0.292E+01
DAV:   5    -0.392691329429E+03   -0.41640E+00   -0.41549E+00  7696   0.394E+00
SDA:   6    -0.155982155133E+03    0.23671E+03   -0.41549E+00  7696   0.108E+04 0.000E+00
CGA:   7    -0.243679362331E+03   -0.87697E+02   -0.11140E+03  7696   0.170E+04-0.112E+02
CGA:   8    -0.276159521892E+03   -0.32480E+02   -0.46595E+02  7696   0.597E+03-0.177E+03
CGA:   9    -0.285508516083E+03   -0.93490E+01   -0.11869E+02  7696   0.387E+03-0.134E+03
CGA:  10    -0.293465387439E+03   -0.79569E+01   -0.46127E+01  7696   0.345E+03-0.360E+03
CGA:  11    -0.262997768354E+03    0.30468E+02   -0.20729E+02  7696   0.133E+04-0.280E+03
CGA:  12    -0.298986560477E+03   -0.35989E+02   -0.31716E+02  7696   0.441E+03-0.111E+03
CGA:  13    -0.294494805316E+03    0.44918E+01   -0.20777E+02  7696   0.961E+03-0.451E+03
CGA:  14    -0.279192237075E+03    0.15303E+02   -0.39199E+02  7696   0.175E+04-0.561E+03
CGA:  15    -0.297547063777E+03   -0.18355E+02   -0.55156E+02  7696   0.168E+04 0.351E+02
CGA:  16    -0.282942547333E+03    0.14605E+02   -0.75576E+02  7696   0.134E+04-0.216E+03
CGA:  17    -0.304804734842E+03   -0.21862E+02   -0.30291E+02  7696   0.499E+03-0.209E+02
CGA:  18    -0.285040111633E+03    0.19765E+02   -0.18833E+02  7696   0.222E+04-0.806E+03
CGA:  19    -0.290421991328E+03   -0.53819E+01   -0.70096E+02  7696   0.189E+04-0.102E+04
CGA:  20    -0.295039272343E+03   -0.46173E+01   -0.25777E+02  7696   0.355E+04-0.123E+04
CGA:  21    -0.292892143046E+03    0.21471E+01   -0.12360E+03  7696   0.932E+03-0.422E+03
CGA:  22    -0.313127189470E+03   -0.20235E+02   -0.14672E+02  7696   0.104E+04-0.194E+04
CGA:  23    -0.298313476853E+03    0.14814E+02   -0.47078E+02  7696   0.868E+03 0.115E+03
CGA:  24    -0.307420864035E+03   -0.91074E+01   -0.32508E+02  7696   0.627E+03-0.269E+03
CGA:  25    -0.309660035339E+03   -0.22392E+01   -0.16203E+02  7696   0.964E+03 0.180E+03
CGA:  26    -0.280042002923E+03    0.29618E+02   -0.49422E+02  7696   0.341E+03-0.125E+03
CGA:  27    -0.283678561141E+03   -0.36366E+01   -0.15594E+01  7696   0.403E+03 0.378E+03
CGA:  28    -0.290300645930E+03   -0.66221E+01   -0.26041E+01  7696   0.574E+03 0.654E+03
CGA:  29    -0.325682611791E+03   -0.35382E+02   -0.51300E+01  7696   0.286E+03 0.114E+04
CGA:  30    -0.321643588760E+03    0.40390E+01   -0.81465E+01  7696   0.704E+03-0.393E+03
CGA:  31    -0.306647736211E+03    0.14996E+02   -0.18558E+02  7696   0.202E+04-0.103E+04
CGA:  32    -0.308237702673E+03   -0.15900E+01   -0.45710E+02  7696   0.374E+03-0.322E+03
CGA:  33    -0.325621446681E+03   -0.17384E+02   -0.57962E+01  7696   0.406E+03-0.914E+03
CGA:  34    -0.322874958002E+03    0.27465E+01   -0.85689E+01  7696   0.595E+03-0.441E+03
CGA:  35    -0.314336213367E+03    0.85387E+01   -0.14973E+02  7696   0.780E+03-0.466E+03
CGA:  36    -0.307338444254E+03    0.69978E+01   -0.18567E+02  7696   0.137E+04-0.977E+03
CGA:  37    -0.294049907154E+03    0.13289E+02   -0.37421E+02  7696   0.109E+04-0.616E+03
CGA:  38    -0.309587280781E+03   -0.15537E+02   -0.58207E+01  7696   0.153E+04 0.134E+04
CGA:  39    -0.296799323459E+03    0.12788E+02   -0.38365E+02  7696   0.876E+03-0.639E+03
CGA:  40    -0.304448212783E+03   -0.76489E+01   -0.11901E+02  7696   0.142E+04-0.128E+04
CGA:  41    -0.291136876402E+03    0.13311E+02   -0.30986E+02  7696   0.710E+03-0.477E+03
CGA:  42    -0.301517924372E+03   -0.10381E+02   -0.10974E+02  7696   0.909E+03-0.798E+03
CGA:  43    -0.294372836674E+03    0.71451E+01   -0.17569E+02  7696   0.102E+04-0.827E+03
CGA:  44    -0.302435431538E+03   -0.80626E+01   -0.21432E+02  7696   0.369E+03-0.389E+03
CGA:  45    -0.318692865198E+03   -0.16257E+02   -0.30162E+01  7696   0.153E+04 0.162E+04
CGA:  46    -0.295002289247E+03    0.23691E+02   -0.29294E+02  7696   0.162E+04-0.807E+03
CGA:  47    -0.293840023697E+03    0.11623E+01   -0.34007E+02  7696   0.826E+03-0.455E+03
CGA:  48    -0.315477329511E+03   -0.21637E+02   -0.11442E+02  7696   0.829E+03-0.506E+03
CGA:  49    -0.310564230914E+03    0.49131E+01   -0.11875E+02  7696   0.268E+04-0.187E+04
CGA:  50    -0.305782594948E+03    0.47816E+01   -0.53452E+02  7696   0.617E+03-0.378E+03
CGA:  51    -0.325319472287E+03   -0.19537E+02   -0.71505E+01  7696   0.582E+03 0.436E+03
CGA:  52    -0.324395484789E+03    0.92399E+00   -0.72034E+01  7696   0.109E+04-0.717E+03
CGA:  53    -0.317327905237E+03    0.70676E+01   -0.16875E+02  7696   0.111E+04-0.572E+03
CGA:  54    -0.307582896807E+03    0.97450E+01   -0.14393E+02  7696   0.298E+04-0.228E+04
CGA:  55    -0.299047954646E+03    0.85349E+01   -0.48215E+02  7696   0.164E+04-0.970E+03
CGA:  56    -0.313504643897E+03   -0.14457E+02   -0.17918E+02  7696   0.198E+04-0.222E+04
CGA:  57    -0.297809377671E+03    0.15695E+02   -0.28259E+02  7696   0.136E+04-0.907E+03
CGA:  58    -0.319193091784E+03   -0.21384E+02   -0.98134E+01  7696   0.246E+04-0.200E+04
CGA:  59    -0.312867397245E+03    0.63257E+01   -0.37293E+02  7696   0.395E+03-0.176E+03
CGA:  60    -0.322303503658E+03   -0.94361E+01   -0.23208E+01  7696   0.109E+04 0.149E+04
CGA:  61    -0.318924270617E+03    0.33792E+01   -0.96407E+01  7696   0.264E+04-0.212E+04
CGA:  62    -0.312931479834E+03    0.59928E+01   -0.35141E+02  7696   0.642E+03-0.331E+03
CGA:  63    -0.325941567120E+03   -0.13010E+02   -0.38829E+01  7696   0.770E+03 0.130E+04
CGA:  64    -0.326190091146E+03   -0.24852E+00   -0.58084E+01  7696   0.106E+04-0.101E+04
CGA:  65    -0.320592868592E+03    0.55972E+01   -0.11024E+02  7696   0.131E+04-0.792E+03
CGA:  66    -0.321099613059E+03   -0.50674E+00   -0.10273E+02  7696   0.221E+04-0.226E+04
CGA:  67    -0.315761285535E+03    0.53383E+01   -0.23405E+02  7696   0.965E+03-0.690E+03
CGA:  68    -0.328410710918E+03   -0.12649E+02   -0.44084E+01  7696   0.370E+03 0.695E+03
CGA:  69    -0.329882991527E+03   -0.14723E+01   -0.17140E+01  7696   0.285E+02-0.900E+02
CGA:  70    -0.329997076362E+03   -0.11408E+00   -0.11800E+00  7696   0.144E+01-0.674E+00
CGA:  71    -0.330025881282E+03   -0.28805E-01   -0.28831E-01  7696   0.395E+01 0.149E-01
CGA:  72    -0.330257924923E+03   -0.23204E+00   -0.20695E+00  7696   0.111E+02 0.741E+00
CGA:  73    -0.330437109612E+03   -0.17918E+00   -0.13445E+00  7696   0.304E+01 0.390E+01
CGA:  74    -0.330490859781E+03   -0.53750E-01   -0.54868E-01  7696   0.204E+01 0.167E-01
CGA:  75    -0.330526066778E+03   -0.35207E-01   -0.36670E-01  7696   0.246E+01 0.124E+00
CGA:  76    -0.330628000589E+03   -0.10193E+00   -0.91987E-01  7696   0.263E+01 0.654E+00
CGA:  77    -0.330665803403E+03   -0.37803E-01   -0.31182E-01  7696   0.720E+00 0.525E+00
CGA:  78    -0.330682655097E+03   -0.16852E-01   -0.16951E-01  7696   0.142E+01 0.206E-01
CGA:  79    -0.330720385612E+03   -0.37731E-01   -0.50906E-01  7696   0.255E+01-0.994E+00
CGA:  80    -0.330757348249E+03   -0.36963E-01   -0.37196E-01  7696   0.770E+00 0.123E-02
CGA:  81    -0.330763872034E+03   -0.65238E-02   -0.64850E-02  7696   0.340E+00 0.267E-02
CGA:  82    -0.330784208256E+03   -0.20336E-01   -0.19737E-01  7696   0.621E+00 0.146E-01
CGA:  83    -0.330801795395E+03   -0.17587E-01   -0.17427E-01  7696   0.123E+01 0.253E-01
CGA:  84    -0.330817282829E+03   -0.15487E-01   -0.14837E-01  7696   0.525E+00 0.279E-01
CGA:  85    -0.330844265052E+03   -0.26982E-01   -0.24506E-01  7696   0.670E+00 0.974E-01
CGA:  86    -0.330854094119E+03   -0.98291E-02   -0.10001E-01  7696   0.405E+00-0.648E-02
CGA:  87    -0.330860308544E+03   -0.62144E-02   -0.62024E-02  7696   0.274E+00-0.154E-03
CGA:  88    -0.330865130611E+03   -0.48221E-02   -0.48603E-02  7696   0.113E+00 0.165E-02
CGA:  89    -0.330870361186E+03   -0.52306E-02   -0.52534E-02  7696   0.233E+00-0.103E-02
CGA:  90    -0.330877103852E+03   -0.67427E-02   -0.67197E-02  7696   0.188E+00 0.277E-02
CGA:  91    -0.330880930079E+03   -0.38262E-02   -0.38388E-02  7696   0.187E+00 0.898E-03
CGA:  92    -0.330883019685E+03   -0.20896E-02   -0.20673E-02  7696   0.623E-01 0.965E-03
CGA:  93    -0.330884499192E+03   -0.14795E-02   -0.14787E-02  7696   0.590E-01 0.800E-03
CGA:  94    -0.330887215898E+03   -0.27167E-02   -0.26992E-02  7696   0.998E-01 0.660E-03
CGA:  95    -0.330889612728E+03   -0.23968E-02   -0.23972E-02  7696   0.612E-01 0.257E-03
CGA:  96    -0.330890221830E+03   -0.60910E-03   -0.61821E-03  7696   0.257E-01-0.664E-03
CGA:  97    -0.330890844174E+03   -0.62234E-03   -0.62234E-03  7696   0.271E-01-0.946E-04
CGA:  98    -0.330891709898E+03   -0.86572E-03   -0.86185E-03  7696   0.228E-01 0.297E-03
CGA:  99    -0.330892718514E+03   -0.10086E-02   -0.10082E-02  7696   0.337E-01-0.258E-04
CGA: 100    -0.330893439137E+03   -0.72062E-03   -0.72296E-03  7696   0.178E-01 0.214E-03
CGA: 101    -0.330893681795E+03   -0.24266E-03   -0.24269E-03  7696   0.130E-01-0.235E-04
CGA: 102    -0.330893970829E+03   -0.28903E-03   -0.28940E-03  7696   0.125E-01 0.536E-04
CGA: 103    -0.330894663929E+03   -0.69310E-03   -0.69915E-03  7696   0.272E-01-0.215E-03
CGA: 104    -0.330895455092E+03   -0.79116E-03   -0.78727E-03  7696   0.159E-01 0.629E-03
CGA: 105    -0.330895884457E+03   -0.42936E-03   -0.42918E-03  7696   0.759E-02 0.199E-03
CGA: 106    -0.330896041200E+03   -0.15674E-03   -0.15760E-03  7696   0.892E-02 0.204E-04
CGA: 107    -0.330896264347E+03   -0.22315E-03   -0.22307E-03  7696   0.152E-01-0.748E-04
CGA: 108    -0.330896725042E+03   -0.46069E-03   -0.46257E-03  7696   0.132E-01-0.278E-03
CGA: 109    -0.330897177043E+03   -0.45200E-03   -0.44995E-03  7696   0.103E-01 0.144E-03
SDA: 110    -0.330897474887E+03   -0.29784E-03   -0.29778E-03  7696   0.106E-01 0.456E-05
CGA: 111    -0.330897570297E+03   -0.95410E-04   -0.95585E-04  7696   0.266E-02-0.106E-04
CGA: 112    -0.330897642687E+03   -0.72389E-04   -0.72390E-04  7696   0.490E-02 0.251E-05
CGA: 113    -0.330897835473E+03   -0.19279E-03   -0.19173E-03  7696   0.479E-02 0.718E-04
CGA: 114    -0.330897996488E+03   -0.16101E-03   -0.16079E-03  7696   0.330E-02 0.309E-04
CGA: 115    -0.330898244030E+03   -0.24754E-03   -0.24903E-03  7696   0.692E-02-0.434E-04
CGA: 116    -0.330898438400E+03   -0.19437E-03   -0.19453E-03  7696   0.155E-01 0.139E-03
CGA: 117    -0.330898806839E+03   -0.36844E-03   -0.36906E-03  7696   0.389E-02 0.467E-04
CGA: 118    -0.330898904972E+03   -0.98133E-04   -0.98132E-04  7696   0.534E-02-0.241E-05
CGA: 119    -0.330899019293E+03   -0.11432E-03   -0.11329E-03  7696   0.318E-02-0.329E-04
CGA: 120    -0.330899125638E+03   -0.10634E-03   -0.10612E-03  7696   0.660E-02 0.210E-04
CGA: 121    -0.330899362053E+03   -0.23641E-03   -0.23707E-03  7696   0.378E-02-0.812E-04
CGA: 122    -0.330899409925E+03   -0.47872E-04   -0.48344E-04  7696   0.211E-02-0.282E-04
CGA: 123    -0.330899546035E+03   -0.13611E-03   -0.13361E-03  7696   0.501E-02 0.693E-04
CGA: 124    -0.330899683236E+03   -0.13720E-03   -0.13663E-03  7696   0.420E-02-0.515E-04
CGA: 125    -0.330899739471E+03   -0.56235E-04   -0.54339E-04  7696   0.154E-02 0.103E-03
CGA: 126    -0.330899853294E+03   -0.11382E-03   -0.11334E-03  7696   0.426E-02-0.197E-05
CGA: 127    -0.330899950095E+03   -0.96801E-04   -0.96880E-04  7696   0.199E-02 0.409E-04
CGA: 128    -0.330900045843E+03   -0.95748E-04   -0.94135E-04  7696   0.101E-02 0.822E-04
CGA: 129    -0.330900066690E+03   -0.20847E-04   -0.20957E-04  7696   0.158E-02 0.449E-05
CGA: 130    -0.330900164677E+03   -0.97987E-04   -0.10021E-03  7696   0.357E-02-0.812E-04
CGA: 131    -0.330900235069E+03   -0.70392E-04   -0.68723E-04  7696   0.183E-02 0.366E-04
CGA: 132    -0.330900280377E+03   -0.45308E-04   -0.45428E-04  7696   0.163E-02 0.505E-05
CGA: 133    -0.330900316903E+03   -0.36526E-04   -0.36609E-04  7696   0.173E-02-0.574E-06
CGA: 134    -0.330900357791E+03   -0.40888E-04   -0.40999E-04  7696   0.157E-02 0.134E-05
CGA: 135    -0.330900430749E+03   -0.72958E-04   -0.78681E-04  7696   0.279E-02-0.286E-03
CGA: 136    -0.330900456271E+03   -0.25522E-04   -0.22115E-04  7696   0.172E-02 0.284E-03
CGA: 137    -0.330900479592E+03   -0.23321E-04   -0.23184E-04  7696   0.155E-02 0.969E-05
CGA: 138    -0.330900504830E+03   -0.25237E-04   -0.26220E-04  7696   0.191E-02-0.146E-04
CGA: 139    -0.330900532028E+03   -0.27198E-04   -0.28622E-04  7696   0.156E-02-0.310E-04
CGA: 140    -0.330900557883E+03   -0.25855E-04   -0.25271E-04  7696   0.157E-02 0.189E-04
SDA: 141    -0.330900579793E+03   -0.21911E-04   -0.20402E-04  7696   0.118E-02 0.739E-04
CGA: 142    -0.330900616474E+03   -0.36680E-04   -0.36672E-04  7696   0.172E-02 0.193E-05
CGA: 143    -0.330900708076E+03   -0.91602E-04   -0.91400E-04  7696   0.693E-02 0.729E-05
CGA: 144    -0.330900958302E+03   -0.25023E-03   -0.25022E-03  7696   0.318E-02-0.107E-04
CGA: 145    -0.330901039977E+03   -0.81676E-04   -0.81702E-04  7696   0.320E-02 0.818E-05
CGA: 146    -0.330901152504E+03   -0.11253E-03   -0.11107E-03  7696   0.106E-02 0.168E-03
CGA: 147    -0.330901217945E+03   -0.65441E-04   -0.66089E-04  7696   0.282E-02-0.223E-04
CGA: 148    -0.330901255151E+03   -0.37206E-04   -0.36431E-04  7696   0.753E-03 0.333E-04
CGA: 149    -0.330901278892E+03   -0.23741E-04   -0.23724E-04  7696   0.810E-03 0.534E-05
CGA: 150    -0.330901295039E+03   -0.16147E-04   -0.16200E-04  7696   0.982E-03-0.185E-05
CGA: 151    -0.330901328975E+03   -0.33936E-04   -0.33984E-04  7696   0.673E-03-0.850E-05
CGA: 152    -0.330901343952E+03   -0.14977E-04   -0.14916E-04  7696   0.603E-03-0.501E-05
CGA: 153    -0.330901353642E+03   -0.96898E-05   -0.96794E-05  7696   0.376E-03-0.145E-05
CGA: 154    -0.330901375244E+03   -0.21602E-04   -0.21503E-04  7696   0.687E-03 0.333E-05
CGA: 155    -0.330901386307E+03   -0.11063E-04   -0.11115E-04  7696   0.648E-03 0.177E-05
CGA: 156    -0.330901431311E+03   -0.45004E-04   -0.44366E-04  7696   0.793E-03 0.161E-04
CGA: 157    -0.330901441154E+03   -0.98430E-05   -0.99906E-05  7696   0.382E-03 0.149E-05
CGA: 158    -0.330901461986E+03   -0.20833E-04   -0.20585E-04  7696   0.112E-02 0.105E-04
CGA: 159    -0.330901502324E+03   -0.40338E-04   -0.40254E-04  7696   0.150E-02 0.198E-04
CGA: 160    -0.330901541267E+03   -0.38944E-04   -0.39149E-04  7696   0.143E-02 0.203E-04
CGA: 161    -0.330901569400E+03   -0.28133E-04   -0.28127E-04  7696   0.873E-03 0.116E-04
CGA: 162    -0.330901595450E+03   -0.26049E-04   -0.26066E-04  7696   0.675E-03 0.110E-04
CGA: 163    -0.330901615021E+03   -0.19572E-04   -0.19585E-04  7696   0.113E-02 0.592E-05
CGA: 164    -0.330901648517E+03   -0.33495E-04   -0.33515E-04  7696   0.123E-02 0.120E-04
CGA: 165    -0.330901714218E+03   -0.65701E-04   -0.65854E-04  7696   0.136E-02-0.634E-05
CGA: 166    -0.330901728956E+03   -0.14738E-04   -0.15038E-04  7696   0.241E-03-0.170E-04
CGA: 167    -0.330901741745E+03   -0.12789E-04   -0.12657E-04  7696   0.564E-03 0.574E-05
CGA: 168    -0.330901753785E+03   -0.12040E-04   -0.12135E-04  7696   0.310E-03 0.266E-05
CGA: 169    -0.330901767401E+03   -0.13616E-04   -0.13585E-04  7696   0.664E-03 0.237E-05
CGA: 170    -0.330901780824E+03   -0.13423E-04   -0.13425E-04  7696   0.132E-03 0.361E-05
CGA: 171    -0.330901785233E+03   -0.44093E-05   -0.44029E-05  7696   0.180E-03 0.300E-05
   1 F= -.33090179E+03 E0= -.33087538E+03  d E =-.330902E+03  mag=    32.0000
       N       E                     dE             d eps       ncg     rms          ort
SDA:   1    -0.330961290633E+03   -0.59510E-01    0.00000E+00  7696   0.125E+01 0.000E+00
CGA:   2    -0.330974687950E+03   -0.13397E-01   -0.13923E-01  7696   0.146E+00-0.337E-01
CGA:   3    -0.330977184924E+03   -0.24970E-02   -0.25357E-02  7696   0.259E-01-0.523E-03
CGA:   4    -0.330979540110E+03   -0.23552E-02   -0.23393E-02  7696   0.106E+00 0.306E-03
CGA:   5    -0.330982441191E+03   -0.29011E-02   -0.28994E-02  7696   0.443E-01-0.816E-04
CGA:   6    -0.330983146357E+03   -0.70517E-03   -0.70782E-03  7696   0.606E-02-0.753E-04
CGA:   7    -0.330983675311E+03   -0.52895E-03   -0.52935E-03  7696   0.250E-01-0.671E-05
CGA:   8    -0.330984236238E+03   -0.56093E-03   -0.56110E-03  7696   0.648E-02-0.113E-04
CGA:   9    -0.330984427648E+03   -0.19141E-03   -0.19129E-03  7696   0.283E-02-0.151E-04
CGA:  10    -0.330984491086E+03   -0.63437E-04   -0.63398E-04  7696   0.192E-02-0.363E-05
CGA:  11    -0.330984553518E+03   -0.62432E-04   -0.62428E-04  7696   0.159E-02-0.106E-04
CGA:  12    -0.330984631193E+03   -0.77675E-04   -0.77657E-04  7696   0.140E-02 0.505E-06
CGA:  13    -0.330984658462E+03   -0.27269E-04   -0.27257E-04  7696   0.517E-03-0.696E-06
CGA:  14    -0.330984670596E+03   -0.12133E-04   -0.12138E-04  7696   0.346E-03 0.767E-07
CGA:  15    -0.330984701925E+03   -0.31330E-04   -0.31436E-04  7696   0.490E-03-0.181E-05
CGA:  16    -0.330984708587E+03   -0.66620E-05   -0.66659E-05  7696   0.101E-03-0.207E-06
   2 F= -.33098471E+03 E0= -.33095841E+03  d E =-.829234E-01  mag=    32.0000
       N       E                     dE             d eps       ncg     rms          ort
SDA:   1    -0.322367929932E+03    0.86168E+01    0.00000E+00  7696   0.792E+03 0.000E+00
CGA:   2    -0.325525246263E+03   -0.31573E+01   -0.14308E+02  7696   0.121E+03-0.748E+02
CGA:   3    -0.327395173725E+03   -0.18699E+01   -0.13915E+01  7696   0.266E+02 0.342E+02
CGA:   4    -0.327634189827E+03   -0.23902E+00   -0.11398E+00  7696   0.276E+02 0.373E+02
CGA:   5    -0.328160336486E+03   -0.52615E+00   -0.25872E+00  7696   0.170E+02 0.248E+02
CGA:   6    -0.328594967912E+03   -0.43463E+00   -0.37046E+00  7696   0.224E+02-0.300E+00
CGA:   7    -0.330264147182E+03   -0.16692E+01   -0.16174E+01  7696   0.577E+02 0.783E+00
CGA:   8    -0.331421200947E+03   -0.11571E+01   -0.12674E+01  7696   0.370E+02-0.253E+00
CGA:   9    -0.331842709376E+03   -0.42151E+00   -0.32065E+00  7696   0.593E+01 0.882E+01
CGA:  10    -0.331908447377E+03   -0.65738E-01   -0.60176E-01  7696   0.244E+01 0.566E+00
CGA:  11    -0.331989379385E+03   -0.80932E-01   -0.80945E-01  7696   0.778E+01 0.490E-01
CGA:  12    -0.332183867738E+03   -0.19449E+00   -0.19975E+00  7696   0.715E+01 0.330E+00
CGA:  13    -0.332278866100E+03   -0.94998E-01   -0.95659E-01  7696   0.315E+01-0.365E-01
CGA:  14    -0.332337870096E+03   -0.59004E-01   -0.55399E-01  7696   0.241E+01 0.447E-01
CGA:  15    -0.332383870863E+03   -0.46001E-01   -0.37013E-01  7696   0.212E+01 0.398E+00
CGA:  16    -0.332404789005E+03   -0.20918E-01   -0.14062E-01  7696   0.121E+01 0.112E+01
CGA:  17    -0.332419170643E+03   -0.14382E-01   -0.14793E-01  7696   0.291E+00-0.201E-01
CGA:  18    -0.332431797516E+03   -0.12627E-01   -0.12732E-01  7696   0.591E+00-0.531E-02
CGA:  19    -0.332458004517E+03   -0.26207E-01   -0.26304E-01  7696   0.324E+00-0.501E-02
CGA:  20    -0.332467932575E+03   -0.99281E-02   -0.98891E-02  7696   0.228E+00 0.805E-02
CGA:  21    -0.332471926234E+03   -0.39937E-02   -0.40643E-02  7696   0.815E-01-0.687E-03
CGA:  22    -0.332478405067E+03   -0.64788E-02   -0.65150E-02  7696   0.259E+00-0.809E-03
CGA:  23    -0.332484762297E+03   -0.63572E-02   -0.63992E-02  7696   0.109E+00 0.245E-02
CGA:  24    -0.332488054950E+03   -0.32927E-02   -0.32925E-02  7696   0.885E-01-0.141E-02
CGA:  25    -0.332491429719E+03   -0.33748E-02   -0.33750E-02  7696   0.136E+00 0.252E-05
CGA:  26    -0.332496437470E+03   -0.50078E-02   -0.50189E-02  7696   0.677E-01-0.116E-02
CGA:  27    -0.332497642625E+03   -0.12052E-02   -0.12056E-02  7696   0.256E-01 0.113E-04
CGA:  28    -0.332498855142E+03   -0.12125E-02   -0.12017E-02  7696   0.443E-01 0.548E-03
CGA:  29    -0.332500476098E+03   -0.16210E-02   -0.16215E-02  7696   0.551E-01-0.719E-04
CGA:  30    -0.332502943002E+03   -0.24669E-02   -0.24616E-02  7696   0.444E-01 0.316E-03
CGA:  31    -0.332503724777E+03   -0.78177E-03   -0.77563E-03  7696   0.129E-01 0.138E-03
CGA:  32    -0.332504628100E+03   -0.90332E-03   -0.90180E-03  7696   0.371E-01 0.421E-04
CGA:  33    -0.332505692510E+03   -0.10644E-02   -0.10623E-02  7696   0.185E-01-0.149E-03
CGA:  34    -0.332506188915E+03   -0.49640E-03   -0.49809E-03  7696   0.796E-02 0.106E-03
CGA:  35    -0.332506416972E+03   -0.22806E-03   -0.22812E-03  7696   0.846E-02 0.144E-04
CGA:  36    -0.332506892925E+03   -0.47595E-03   -0.47368E-03  7696   0.120E-01 0.924E-04
CGA:  37    -0.332507210346E+03   -0.31742E-03   -0.31706E-03  7696   0.643E-02 0.318E-05
CGA:  38    -0.332507375844E+03   -0.16550E-03   -0.16554E-03  7696   0.265E-02 0.120E-04
CGA:  39    -0.332507458340E+03   -0.82495E-04   -0.82484E-04  7696   0.373E-02-0.255E-05
CGA:  40    -0.332507721714E+03   -0.26337E-03   -0.26322E-03  7696   0.459E-02 0.370E-05
CGA:  41    -0.332507794943E+03   -0.73229E-04   -0.73183E-04  7696   0.122E-02 0.212E-05
CGA:  42    -0.332507851481E+03   -0.56538E-04   -0.56443E-04  7696   0.186E-02 0.608E-05
CGA:  43    -0.332507912943E+03   -0.61463E-04   -0.61464E-04  7696   0.208E-02-0.591E-06
CGA:  44    -0.332507986451E+03   -0.73507E-04   -0.73524E-04  7696   0.103E-02-0.127E-04
CGA:  45    -0.332508007951E+03   -0.21501E-04   -0.21438E-04  7696   0.499E-03-0.320E-05
CGA:  46    -0.332508027389E+03   -0.19437E-04   -0.19474E-04  7696   0.618E-03-0.656E-05
SDA:  47    -0.332508052975E+03   -0.25586E-04   -0.25637E-04  7696   0.763E-03-0.661E-05
CGA:  48    -0.332508063009E+03   -0.10033E-04   -0.10001E-04  7696   0.205E-03 0.316E-06
CGA:  49    -0.332508069160E+03   -0.61511E-05   -0.61551E-05  7696   0.158E-03 0.109E-05
   3 F= -.33250807E+03 E0= -.33248068E+03  d E =-.152336E+01  mag=    32.0000
       N       E                     dE             d eps       ncg     rms          ort
SDA:   1    -0.296448616933E+03    0.36059E+02    0.00000E+00  7696   0.150E+04 0.000E+00
CGA:   2    -0.315624023551E+03   -0.19175E+02   -0.29830E+02  7696   0.335E+03-0.195E+03
CGA:   3    -0.321426060799E+03   -0.58020E+01   -0.58132E+01  7696   0.110E+03 0.700E+02
CGA:   4    -0.322534173064E+03   -0.11081E+01   -0.53916E+00  7696   0.942E+02 0.141E+03
CGA:   5    -0.323844627269E+03   -0.13105E+01   -0.66200E+00  7696   0.526E+02 0.813E+02
CGA:   6    -0.324652924172E+03   -0.80830E+00   -0.52477E+00  7696   0.251E+02 0.217E+02
CGA:   7    -0.325441365072E+03   -0.78844E+00   -0.64124E+00  7696   0.817E+02 0.211E+01
CGA:   8    -0.325869780152E+03   -0.42842E+00   -0.46560E+00  7696   0.159E+03-0.213E+02
CGA:   9    -0.325129336439E+03    0.74044E+00   -0.54595E+00  7696   0.320E+03-0.234E+03
CGA:  10    -0.328453575425E+03   -0.33242E+01   -0.50071E+01  7696   0.617E+02-0.288E+02
CGA:  11    -0.329129325918E+03   -0.67575E+00   -0.55477E+00  7696   0.120E+02 0.885E+01
CGA:  12    -0.329580187297E+03   -0.45086E+00   -0.47926E+00  7696   0.560E+02-0.229E+01
CGA:  13    -0.330137703120E+03   -0.55752E+00   -0.50135E+00  7696   0.106E+03 0.313E+01
CGA:  14    -0.331050568745E+03   -0.91287E+00   -0.96862E+00  7696   0.938E+02-0.380E+01
CGA:  15    -0.331951809536E+03   -0.90124E+00   -0.97953E+00  7696   0.935E+02-0.356E+01
CGA:  16    -0.332656476990E+03   -0.70467E+00   -0.74903E+00  7696   0.387E+02-0.511E+01
CGA:  17    -0.332867421161E+03   -0.21094E+00   -0.19405E+00  7696   0.121E+02 0.299E+01
CGA:  18    -0.332945467528E+03   -0.78046E-01   -0.73971E-01  7696   0.473E+01 0.593E+00
CGA:  19    -0.332981518434E+03   -0.36051E-01   -0.37200E-01  7696   0.335E+01-0.122E+00
CGA:  20    -0.333014201977E+03   -0.32684E-01   -0.35493E-01  7696   0.415E+01-0.112E+00
CGA:  21    -0.333075351843E+03   -0.61150E-01   -0.62216E-01  7696   0.693E+01 0.558E-01
CGA:  22    -0.333208757372E+03   -0.13341E+00   -0.13329E+00  7696   0.128E+02-0.822E-01
CGA:  23    -0.333329098155E+03   -0.12034E+00   -0.11135E+00  7696   0.625E+01 0.566E+00
CGA:  24    -0.333370761312E+03   -0.41663E-01   -0.43057E-01  7696   0.223E+01-0.153E+00
CGA:  25    -0.333389585388E+03   -0.18824E-01   -0.19302E-01  7696   0.154E+01-0.271E-01
CGA:  26    -0.333404530626E+03   -0.14945E-01   -0.15156E-01  7696   0.852E+00-0.631E-02
CGA:  27    -0.333412190161E+03   -0.76595E-02   -0.74388E-02  7696   0.656E+00 0.130E-01
CGA:  28    -0.333423150547E+03   -0.10960E-01   -0.10948E-01  7696   0.128E+01-0.841E-02
CGA:  29    -0.333437226056E+03   -0.14076E-01   -0.13960E-01  7696   0.131E+01 0.182E-02
CGA:  30    -0.333450910937E+03   -0.13685E-01   -0.14009E-01  7696   0.141E+01-0.252E-02
CGA:  31    -0.333468588742E+03   -0.17678E-01   -0.17892E-01  7696   0.137E+01 0.124E-01
CGA:  32    -0.333480171590E+03   -0.11583E-01   -0.11599E-01  7696   0.460E+00 0.728E-03
CGA:  33    -0.333484565120E+03   -0.43935E-02   -0.43670E-02  7696   0.387E+00 0.919E-03
CGA:  34    -0.333490599266E+03   -0.60341E-02   -0.60340E-02  7696   0.561E+00-0.330E-02
CGA:  35    -0.333497187504E+03   -0.65882E-02   -0.66262E-02  7696   0.555E+00 0.221E-02
CGA:  36    -0.333504248017E+03   -0.70605E-02   -0.70444E-02  7696   0.579E+00-0.153E-02
CGA:  37    -0.333509823749E+03   -0.55757E-02   -0.55366E-02  7696   0.262E+00 0.611E-03
CGA:  38    -0.333511726367E+03   -0.19026E-02   -0.18714E-02  7696   0.124E+00 0.231E-02
CGA:  39    -0.333513312928E+03   -0.15866E-02   -0.15849E-02  7696   0.193E+00-0.332E-03
SDA:  40    -0.333516206801E+03   -0.28939E-02   -0.28921E-02  7696   0.294E+00 0.166E-02
CGA:  41    -0.333519362345E+03   -0.31555E-02   -0.31698E-02  7696   0.573E-01 0.603E-03
CGA:  42    -0.333521927047E+03   -0.25647E-02   -0.25848E-02  7696   0.832E-01-0.793E-03
CGA:  43    -0.333524893670E+03   -0.29666E-02   -0.29613E-02  7696   0.734E-01 0.272E-03
CGA:  44    -0.333526733272E+03   -0.18396E-02   -0.18433E-02  7696   0.615E-01-0.378E-03
CGA:  45    -0.333527969838E+03   -0.12366E-02   -0.12350E-02  7696   0.320E-01 0.340E-03
CGA:  46    -0.333530046385E+03   -0.20765E-02   -0.20586E-02  7696   0.382E-01 0.481E-03
CGA:  47    -0.333531639904E+03   -0.15935E-02   -0.16107E-02  7696   0.204E-01-0.806E-03
CGA:  48    -0.333531929118E+03   -0.28921E-03   -0.28955E-03  7696   0.942E-02 0.520E-06
CGA:  49    -0.333533303505E+03   -0.13744E-02   -0.12703E-03  7696   0.395E-01 0.885E-03
CGA:  50    -0.333534437475E+03   -0.11340E-02   -0.11408E-02  7696   0.105E-01 0.977E-04
CGA:  51    -0.333534658612E+03   -0.22114E-03   -0.22026E-03  7696   0.103E-01 0.200E-04
CGA:  52    -0.333535038094E+03   -0.37948E-03   -0.37949E-03  7696   0.120E-01 0.206E-05
CGA:  53    -0.333535796468E+03   -0.75837E-03   -0.75583E-03  7696   0.112E-01 0.906E-04
CGA:  54    -0.333536144986E+03   -0.34852E-03   -0.34897E-03  7696   0.592E-02 0.307E-04
CGA:  55    -0.333536313744E+03   -0.16876E-03   -0.16912E-03  7696   0.701E-02 0.126E-04
CGA:  56    -0.333536512323E+03   -0.19858E-03   -0.19840E-03  7696   0.719E-02-0.511E-05
CGA:  57    -0.333536785327E+03   -0.27300E-03   -0.27298E-03  7696   0.176E-02 0.721E-05
CGA:  58    -0.333536819246E+03   -0.33919E-04   -0.33833E-04  7696   0.143E-02-0.672E-06
CGA:  59    -0.333536892323E+03   -0.73077E-04   -0.73070E-04  7696   0.334E-02-0.641E-06
CGA:  60    -0.333537036505E+03   -0.14418E-03   -0.14430E-03  7696   0.113E-02-0.144E-04
CGA:  61    -0.333537061542E+03   -0.25037E-04   -0.24991E-04  7696   0.557E-03-0.207E-05
CGA:  62    -0.333537072392E+03   -0.10850E-04   -0.10869E-04  7696   0.450E-03-0.490E-06
CGA:  63    -0.333537104408E+03   -0.32016E-04   -0.32226E-04  7696   0.899E-03-0.577E-05
CGA:  64    -0.333537143626E+03   -0.39218E-04   -0.39205E-04  7696   0.624E-03 0.722E-06
CGA:  65    -0.333537159565E+03   -0.15939E-04   -0.15972E-04  7696   0.389E-03 0.140E-05
CGA:  66    -0.333537167317E+03   -0.77521E-05   -0.77439E-05  7696   0.322E-03 0.214E-06
CGA:  67    -0.333537190572E+03   -0.23254E-04   -0.23146E-04  7696   0.282E-03 0.298E-05
CGA:  68    -0.333537196849E+03   -0.62777E-05   -0.62721E-05  7696   0.163E-03-0.141E-06
   4 F= -.33353720E+03 E0= -.33350849E+03  d E =-.102913E+01  mag=    32.0000
       N       E                     dE             d eps       ncg     rms          ort
SDA:   1    -0.309315770704E+03    0.24221E+02    0.00000E+00  7696   0.204E+04 0.000E+00
CGA:   2    -0.318644539212E+03   -0.93288E+01   -0.38537E+02  7696   0.263E+03-0.172E+03
CGA:   3    -0.322813012869E+03   -0.41685E+01   -0.30551E+01  7696   0.120E+03 0.122E+03
CGA:   4    -0.324511346448E+03   -0.16983E+01   -0.75921E+00  7696   0.997E+02 0.194E+03
CGA:   5    -0.325620698432E+03   -0.11094E+01   -0.63253E+00  7696   0.363E+02 0.633E+02
CGA:   6    -0.326193035945E+03   -0.57234E+00   -0.43524E+00  7696   0.255E+02 0.788E+01
CGA:   7    -0.327446638920E+03   -0.12536E+01   -0.16301E+01  7696   0.193E+03-0.152E+02
CGA:   8    -0.328604351156E+03   -0.11577E+01   -0.31759E+01  7696   0.764E+02-0.367E+02
CGA:   9    -0.329539082775E+03   -0.93473E+00   -0.66158E+00  7696   0.145E+02 0.189E+02
CGA:  10    -0.329806075167E+03   -0.26699E+00   -0.21426E+00  7696   0.198E+02 0.303E+01
CGA:  11    -0.330282949939E+03   -0.47687E+00   -0.41999E+00  7696   0.651E+02 0.616E+00
CGA:  12    -0.330754609590E+03   -0.47166E+00   -0.50660E+00  7696   0.975E+02-0.445E+01
CGA:  13    -0.331190942565E+03   -0.43633E+00   -0.51580E+00  7696   0.109E+03-0.104E+02
CGA:  14    -0.331791596951E+03   -0.60065E+00   -0.84288E+00  7696   0.149E+03-0.189E+02
CGA:  15    -0.332506846532E+03   -0.71525E+00   -0.79229E+00  7696   0.796E+02-0.101E+02
CGA:  16    -0.332844921916E+03   -0.33808E+00   -0.30195E+00  7696   0.262E+02 0.694E+01
CGA:  17    -0.332958712420E+03   -0.11379E+00   -0.91132E-01  7696   0.998E+01 0.646E+01
CGA:  18    -0.333011011627E+03   -0.52299E-01   -0.45190E-01  7696   0.518E+01 0.179E+01
CGA:  19    -0.333043500648E+03   -0.32489E-01   -0.32303E-01  7696   0.536E+01 0.443E-01
CGA:  20    -0.333075525695E+03   -0.32025E-01   -0.35923E-01  7696   0.761E+01-0.425E+00
CGA:  21    -0.333120448017E+03   -0.44922E-01   -0.52154E-01  7696   0.109E+02-0.624E+00
CGA:  22    -0.333205946063E+03   -0.85498E-01   -0.92535E-01  7696   0.174E+02-0.354E+00
CGA:  23    -0.333365364418E+03   -0.15942E+00   -0.16114E+00  7696   0.191E+02-0.377E-01
CGA:  24    -0.333486041498E+03   -0.12068E+00   -0.11027E+00  7696   0.948E+01 0.133E+01
CGA:  25    -0.333538297598E+03   -0.52256E-01   -0.48172E-01  7696   0.474E+01 0.679E+00
CGA:  26    -0.333570974941E+03   -0.32677E-01   -0.31678E-01  7696   0.470E+01 0.121E+00
CGA:  27    -0.333611540691E+03   -0.40566E-01   -0.35762E-01  7696   0.638E+01 0.603E+00
CGA:  28    -0.333632457695E+03   -0.20917E-01   -0.11704E-01  7696   0.580E+01 0.560E+01
CGA:  29    -0.333694747705E+03   -0.62290E-01   -0.63278E-01  7696   0.150E+01 0.200E-01
CGA:  30    -0.333718254584E+03   -0.23507E-01   -0.71970E-01  7696   0.392E+01-0.195E+01
CGA:  31    -0.333781610972E+03   -0.63356E-01   -0.63764E-01  7696   0.865E+00 0.298E+00
CGA:  32    -0.333797613962E+03   -0.16003E-01   -0.16002E-01  7696   0.533E+00 0.134E-02
CGA:  33    -0.333845696739E+03   -0.48083E-01   -0.44572E-01  7696   0.120E+01 0.653E-01
CGA:  34    -0.333880418703E+03   -0.34722E-01   -0.34926E-01  7696   0.122E+01-0.255E-01
CGA:  35    -0.333906725926E+03   -0.26307E-01   -0.26482E-01  7696   0.240E+00-0.596E-01
CGA:  36    -0.333910353677E+03   -0.36278E-02   -0.36194E-02  7696   0.124E+00-0.369E-03
CGA:  37    -0.333918502408E+03   -0.81487E-02   -0.81667E-02  7696   0.437E+00-0.473E-03
CGA:  38    -0.333930914887E+03   -0.12412E-01   -0.12370E-01  7696   0.115E+00 0.510E-02
CGA:  39    -0.333933151344E+03   -0.22365E-02   -0.22262E-02  7696   0.737E-01-0.851E-03
CGA:  40    -0.333934612418E+03   -0.14611E-02   -0.14550E-02  7696   0.302E-01-0.780E-03
CGA:  41    -0.333935757527E+03   -0.11451E-02   -0.11414E-02  7696   0.554E-01 0.213E-03
CGA:  42    -0.333937295773E+03   -0.15382E-02   -0.15379E-02  7696   0.419E-01 0.627E-04
CGA:  43    -0.333938370766E+03   -0.10750E-02   -0.10744E-02  7696   0.157E-01 0.177E-03
CGA:  44    -0.333938626444E+03   -0.25568E-03   -0.25475E-03  7696   0.969E-02-0.104E-04
CGA:  45    -0.333939168415E+03   -0.54197E-03   -0.54389E-03  7696   0.235E-01-0.642E-04
CGA:  46    -0.333939754084E+03   -0.58567E-03   -0.58567E-03  7696   0.127E-01 0.222E-05
CGA:  47    -0.333940081675E+03   -0.32759E-03   -0.32756E-03  7696   0.118E-01 0.246E-04
CGA:  48    -0.333940364677E+03   -0.28300E-03   -0.28319E-03  7696   0.692E-02 0.960E-04
CGA:  49    -0.333940646171E+03   -0.28149E-03   -0.28169E-03  7696   0.197E-01-0.101E-04
CGA:  50    -0.333941500028E+03   -0.85386E-03   -0.85498E-03  7696   0.107E-01-0.536E-04
CGA:  51    -0.333941682714E+03   -0.18269E-03   -0.18379E-03  7696   0.500E-02 0.139E-04
CGA:  52    -0.333941795246E+03   -0.11253E-03   -0.11258E-03  7696   0.375E-02 0.899E-05
CGA:  53    -0.333941959075E+03   -0.16383E-03   -0.16351E-03  7696   0.710E-02 0.170E-04
CGA:  54    -0.333942130070E+03   -0.17099E-03   -0.17097E-03  7696   0.454E-02-0.441E-05
CGA:  55    -0.333942256466E+03   -0.12640E-03   -0.12644E-03  7696   0.295E-02-0.198E-04
CGA:  56    -0.333942312107E+03   -0.55641E-04   -0.55693E-04  7696   0.151E-02 0.173E-05
CGA:  57    -0.333942365512E+03   -0.53405E-04   -0.53423E-04  7696   0.310E-02-0.174E-05
CGA:  58    -0.333942486663E+03   -0.12115E-03   -0.12097E-03  7696   0.160E-02 0.124E-04
CGA:  59    -0.333942512777E+03   -0.26114E-04   -0.26119E-04  7696   0.919E-03-0.218E-05
CGA:  60    -0.333942555167E+03   -0.42390E-04   -0.42724E-04  7696   0.135E-02-0.166E-04
SDA:  61    -0.333942588915E+03   -0.33748E-04   -0.33735E-04  7696   0.149E-02-0.628E-05
CGA:  62    -0.333942608550E+03   -0.19635E-04   -0.19665E-04  7696   0.567E-03-0.161E-05
CGA:  63    -0.333942623759E+03   -0.15210E-04   -0.15210E-04  7696   0.300E-03 0.167E-05
CGA:  64    -0.333942651295E+03   -0.27536E-04   -0.28054E-04  7696   0.132E-02-0.788E-05
CGA:  65    -0.333942695240E+03   -0.43945E-04   -0.43983E-04  7696   0.686E-03-0.102E-04
CGA:  66    -0.333942705832E+03   -0.10592E-04   -0.10560E-04  7696   0.289E-03-0.145E-05
CGA:  67    -0.333942719366E+03   -0.13533E-04   -0.13493E-04  7696   0.382E-03 0.224E-05
CGA:  68    -0.333942738029E+03   -0.18663E-04   -0.18622E-04  7696   0.104E-03 0.223E-05
CGA:  69    -0.333942741224E+03   -0.31954E-05   -0.31945E-05  7696   0.202E-03-0.101E-05
CGA:  70    -0.333942751521E+03   -0.10297E-04   -0.10365E-04  7696   0.333E-03-0.340E-05
CGA:  71    -0.333942759172E+03   -0.76509E-05   -0.76100E-05  7696   0.126E-03-0.440E-05
   5 F= -.33394276E+03 E0= -.33391341E+03  d E =-.405562E+00  mag=    32.0000
       N       E                     dE             d eps       ncg     rms          ort
SDA:   1    -0.312286793578E+03    0.21656E+02    0.00000E+00  7696   0.123E+04 0.000E+00
CGA:   2    -0.316511244999E+03   -0.42245E+01   -0.19774E+02  7696   0.209E+03-0.156E+03
CGA:   3    -0.320184360247E+03   -0.36731E+01   -0.17357E+01  7696   0.133E+03 0.184E+03
CGA:   4    -0.321618282155E+03   -0.14339E+01   -0.79032E+00  7696   0.565E+02 0.940E+02
CGA:   5    -0.322439257232E+03   -0.82098E+00   -0.62558E+00  7696   0.361E+02 0.116E+02
CGA:   6    -0.325519774580E+03   -0.30805E+01   -0.36997E+01  7696   0.496E+03-0.107E+02
CGA:   7    -0.327469542928E+03   -0.19498E+01   -0.25574E+01  7696   0.535E+03-0.409E+02
CGA:   8    -0.329340942512E+03   -0.18714E+01   -0.33590E+01  7696   0.227E+03-0.185E+03
CGA:   9    -0.330023436851E+03   -0.68249E+00   -0.10428E+01  7696   0.866E+02-0.508E+02
CGA:  10    -0.330361839325E+03   -0.33840E+00   -0.40905E+00  7696   0.251E+02-0.889E+01
CGA:  11    -0.330513371287E+03   -0.15153E+00   -0.13768E+00  7696   0.148E+02 0.211E+01
CGA:  12    -0.330728229540E+03   -0.21486E+00   -0.20751E+00  7696   0.314E+02 0.282E+00
CGA:  13    -0.331298546774E+03   -0.57032E+00   -0.57940E+00  7696   0.889E+02 0.227E+00
CGA:  14    -0.332214538688E+03   -0.91599E+00   -0.94258E+00  7696   0.583E+02-0.948E+00
CGA:  15    -0.332562227583E+03   -0.34769E+00   -0.36984E+00  7696   0.190E+02-0.296E+01
CGA:  16    -0.332729296167E+03   -0.16707E+00   -0.15411E+00  7696   0.153E+02 0.126E+01
CGA:  17    -0.332855415351E+03   -0.12612E+00   -0.87968E-01  7696   0.119E+02 0.616E+01
CGA:  18    -0.332959722696E+03   -0.10431E+00   -0.83118E-01  7696   0.935E+01 0.359E+01
CGA:  19    -0.333036281656E+03   -0.76559E-01   -0.60007E-01  7696   0.108E+02 0.327E+01
CGA:  20    -0.333090416347E+03   -0.54135E-01   -0.31508E-01  7696   0.110E+02 0.104E+02
CGA:  21    -0.333254039084E+03   -0.16362E+00   -0.16898E+00  7696   0.496E+01 0.407E+00
CGA:  22    -0.333400445100E+03   -0.14641E+00   -0.17044E+00  7696   0.881E+01-0.168E+01
CGA:  23    -0.333498752620E+03   -0.98308E-01   -0.96412E-01  7696   0.135E+02-0.220E+00
CGA:  24    -0.333709626679E+03   -0.21087E+00   -0.21162E+00  7696   0.150E+02 0.820E-01
CGA:  25    -0.333952000675E+03   -0.24237E+00   -0.24457E+00  7696   0.762E+01 0.245E+00
CGA:  26    -0.334025636802E+03   -0.73636E-01   -0.73052E-01  7696   0.218E+01 0.476E-01
CGA:  27    -0.334056504693E+03   -0.30868E-01   -0.31665E-01  7696   0.126E+01 0.435E-01
CGA:  28    -0.334075512387E+03   -0.19008E-01   -0.19182E-01  7696   0.886E+00 0.141E-01
CGA:  29    -0.334128683711E+03   -0.53171E-01   -0.54342E-01  7696   0.261E+01-0.340E-01
CGA:  30    -0.334159678763E+03   -0.30995E-01   -0.30586E-01  7696   0.895E+00 0.719E-02
CGA:  31    -0.334172297516E+03   -0.12619E-01   -0.12725E-01  7696   0.482E+00 0.174E-02
CGA:  32    -0.334178846114E+03   -0.65486E-02   -0.67419E-02  7696   0.215E+00 0.378E-02
CGA:  33    -0.334182655233E+03   -0.38091E-02   -0.38115E-02  7696   0.123E+00 0.632E-03
CGA:  34    -0.334186214405E+03   -0.35592E-02   -0.35466E-02  7696   0.298E+00 0.111E-02
CGA:  35    -0.334198584134E+03   -0.12370E-01   -0.12541E-01  7696   0.196E+00-0.816E-02
CGA:  36    -0.334200349439E+03   -0.17653E-02   -0.17568E-02  7696   0.452E-01 0.626E-03
CGA:  37    -0.334201484019E+03   -0.11346E-02   -0.11262E-02  7696   0.375E-01 0.124E-02
CGA:  38    -0.334201995158E+03   -0.51114E-03   -0.51298E-03  7696   0.208E-01 0.139E-04
CGA:  39    -0.334203214060E+03   -0.12189E-02   -0.12257E-02  7696   0.643E-01-0.202E-03
CGA:  40    -0.334204454698E+03   -0.12406E-02   -0.12401E-02  7696   0.529E-01-0.862E-04
CGA:  41    -0.334205434593E+03   -0.97990E-03   -0.98086E-03  7696   0.173E-01 0.957E-04
CGA:  42    -0.334205687660E+03   -0.25307E-03   -0.25344E-03  7696   0.122E-01 0.991E-05
CGA:  43    -0.334206079047E+03   -0.39139E-03   -0.39087E-03  7696   0.218E-01 0.431E-04
CGA:  44    -0.334206801554E+03   -0.72251E-03   -0.72104E-03  7696   0.280E-01 0.117E-03
CGA:  45    -0.334207155995E+03   -0.35444E-03   -0.35591E-03  7696   0.728E-02-0.110E-04
CGA:  46    -0.334207374243E+03   -0.21825E-03   -0.21901E-03  7696   0.112E-01-0.700E-04
CGA:  47    -0.334207549830E+03   -0.17559E-03   -0.17548E-03  7696   0.596E-02 0.647E-05
CGA:  48    -0.334207806789E+03   -0.25696E-03   -0.25624E-03  7696   0.175E-01 0.341E-04
CGA:  49    -0.334208092723E+03   -0.28593E-03   -0.28662E-03  7696   0.330E-02 0.279E-04
CGA:  50    -0.334208145391E+03   -0.52668E-04   -0.52663E-04  7696   0.287E-02 0.106E-05
SDA:  51    -0.334208242144E+03   -0.96753E-04   -0.96678E-04  7696   0.525E-02 0.571E-05
CGA:  52    -0.334208320284E+03   -0.78139E-04   -0.78131E-04  7696   0.111E-02-0.532E-06
CGA:  53    -0.334208369080E+03   -0.48796E-04   -0.48921E-04  7696   0.291E-02-0.582E-05
CGA:  54    -0.334208468519E+03   -0.99438E-04   -0.99391E-04  7696   0.262E-02 0.314E-05
CGA:  55    -0.334208535496E+03   -0.66978E-04   -0.66968E-04  7696   0.673E-03 0.367E-05
CGA:  56    -0.334208647575E+03   -0.11208E-03   -0.83422E-05  7696   0.260E-02 0.363E-04
CGA:  57    -0.334208694211E+03   -0.46636E-04   -0.46630E-04  7696   0.136E-02 0.905E-06
CGA:  58    -0.334208743836E+03   -0.49625E-04   -0.49759E-04  7696   0.622E-03 0.104E-04
CGA:  59    -0.334208805567E+03   -0.61731E-04   -0.61272E-04  7696   0.266E-02 0.827E-05
CGA:  60    -0.334208859363E+03   -0.53796E-04   -0.54041E-04  7696   0.534E-03 0.554E-05
CGA:  61    -0.334208869505E+03   -0.10142E-04   -0.10144E-04  7696   0.351E-03 0.434E-06
CGA:  62    -0.334208918608E+03   -0.49103E-04   -0.49962E-04  7696   0.743E-03-0.866E-05
CGA:  63    -0.334208929576E+03   -0.10969E-04   -0.10902E-04  7696   0.329E-03-0.252E-05
CGA:  64    -0.334208941867E+03   -0.12291E-04   -0.12244E-04  7696   0.194E-03-0.444E-05
CGA:  65    -0.334208954325E+03   -0.12458E-04   -0.12508E-04  7696   0.653E-03-0.258E-05
CGA:  66    -0.334208967768E+03   -0.13443E-04   -0.13359E-04  7696   0.121E-03-0.316E-05
CGA:  67    -0.334208970522E+03   -0.27547E-05   -0.27629E-05  7696   0.971E-04 0.253E-06
CGA:  68    -0.334208982492E+03   -0.11969E-04   -0.11761E-04  7696   0.257E-03 0.272E-05
CGA:  69    -0.334208986906E+03   -0.44146E-05   -0.44573E-05  7696   0.946E-04 0.883E-06
   6 F= -.33420899E+03 E0= -.33417940E+03  d E =-.266228E+00  mag=    32.0000
       N       E                     dE             d eps       ncg     rms          ort
SDA:   1    -0.297769100186E+03    0.36440E+02    0.00000E+00  7696   0.181E+04 0.000E+00
CGA:   2    -0.306695176297E+03   -0.89261E+01   -0.41476E+02  7696   0.436E+03-0.181E+03
CGA:   3    -0.314502446760E+03   -0.78073E+01   -0.60092E+01  7696   0.769E+02 0.141E+03
CGA:   4    -0.315429652769E+03   -0.92721E+00   -0.53670E+00  7696   0.602E+02 0.758E+02
CGA:   5    -0.316169832068E+03   -0.74018E+00   -0.31598E+00  7696   0.799E+02 0.851E+02
CGA:   6    -0.317337808713E+03   -0.11680E+01   -0.48692E+00  7696   0.848E+02 0.106E+03
CGA:   7    -0.318619974336E+03   -0.12822E+01   -0.74222E+00  7696   0.413E+02 0.487E+02
CGA:   8    -0.320075299165E+03   -0.14553E+01   -0.37212E+01  7696   0.431E+03-0.335E+02
CGA:   9    -0.323353337980E+03   -0.32780E+01   -0.84524E+01  7696   0.171E+03-0.916E+02
CGA:  10    -0.325378900622E+03   -0.20256E+01   -0.18111E+01  7696   0.609E+02 0.764E+01
CGA:  11    -0.326339693486E+03   -0.96079E+00   -0.83409E+00  7696   0.472E+02 0.434E+01
CGA:  12    -0.327684392410E+03   -0.13447E+01   -0.13390E+01  7696   0.520E+02 0.212E+01
CGA:  13    -0.329550943184E+03   -0.18666E+01   -0.18351E+01  7696   0.148E+03-0.118E+02
CGA:  14    -0.330432654269E+03   -0.88171E+00   -0.16263E+01  7696   0.214E+03-0.322E+02
CGA:  15    -0.331668004875E+03   -0.12354E+01   -0.19551E+01  7696   0.173E+03-0.433E+02
CGA:  16    -0.332614969953E+03   -0.94697E+00   -0.12869E+01  7696   0.213E+02-0.534E+02
CGA:  17    -0.332723811829E+03   -0.10884E+00   -0.10045E+00  7696   0.992E+01 0.902E+00
CGA:  18    -0.332834471985E+03   -0.11066E+00   -0.80457E-01  7696   0.887E+01 0.330E+01
CGA:  19    -0.332929946853E+03   -0.95475E-01   -0.65156E-01  7696   0.790E+01 0.493E+01
CGA:  20    -0.333073731178E+03   -0.14378E+00   -0.14588E+00  7696   0.792E+01-0.215E-01
CGA:  21    -0.333454642520E+03   -0.38091E+00   -0.42128E+00  7696   0.245E+02-0.156E+01
CGA:  22    -0.334009833104E+03   -0.55519E+00   -0.55514E+00  7696   0.118E+02-0.344E-01
CGA:  23    -0.334171630906E+03   -0.16180E+00   -0.19291E+00  7696   0.277E+01-0.533E+00
CGA:  24    -0.334200610717E+03   -0.28980E-01   -0.28762E-01  7696   0.658E+00 0.151E-01
CGA:  25    -0.334249275918E+03   -0.48665E-01   -0.49378E-01  7696   0.246E+01-0.177E-01
CGA:  26    -0.334296039361E+03   -0.46763E-01   -0.46521E-01  7696   0.913E+00 0.370E-02
CGA:  27    -0.334308644169E+03   -0.12605E-01   -0.12579E-01  7696   0.330E+00 0.174E-02
CGA:  28    -0.334320022181E+03   -0.11378E-01   -0.11362E-01  7696   0.425E+00 0.166E-02
CGA:  29    -0.334329417553E+03   -0.93954E-02   -0.94347E-02  7696   0.420E+00 0.141E-02
CGA:  30    -0.334339961970E+03   -0.10544E-01   -0.10544E-01  7696   0.157E+00 0.145E-03
CGA:  31    -0.334343496727E+03   -0.35348E-02   -0.35395E-02  7696   0.162E+00 0.210E-03
CGA:  32    -0.334347988465E+03   -0.44917E-02   -0.44930E-02  7696   0.175E+00 0.319E-02
CGA:  33    -0.334355005409E+03   -0.70169E-02   -0.70322E-02  7696   0.192E+00-0.112E-02
CGA:  34    -0.334358559146E+03   -0.35537E-02   -0.35163E-02  7696   0.409E-01 0.761E-05
CGA:  35    -0.334359198898E+03   -0.63975E-03   -0.64387E-03  7696   0.308E-01-0.998E-04
CGA:  36    -0.334363384587E+03   -0.41857E-02   -0.41522E-02  7696   0.993E-01 0.347E-03
CGA:  37    -0.334364985469E+03   -0.16009E-02   -0.15845E-02  7696   0.282E-01 0.642E-03
CGA:  38    -0.334365502404E+03   -0.51694E-03   -0.51729E-03  7696   0.150E-01 0.177E-04
CGA:  39    -0.334366077573E+03   -0.57517E-03   -0.57534E-03  7696   0.239E-01-0.147E-04
CGA:  40    -0.334367151723E+03   -0.10742E-02   -0.10723E-02  7696   0.197E-01 0.113E-03
CGA:  41    -0.334367414542E+03   -0.26282E-03   -0.26424E-03  7696   0.636E-02-0.680E-04
CGA:  42    -0.334367695809E+03   -0.28127E-03   -0.28271E-03  7696   0.792E-02-0.922E-04
CGA:  43    -0.334367951833E+03   -0.25602E-03   -0.25605E-03  7696   0.936E-02-0.258E-04
CGA:  44    -0.334368217408E+03   -0.26557E-03   -0.26569E-03  7696   0.582E-02 0.771E-06
CGA:  45    -0.334368311649E+03   -0.94241E-04   -0.94031E-04  7696   0.262E-02-0.120E-05
CGA:  46    -0.334368487265E+03   -0.17562E-03   -0.17591E-03  7696   0.565E-02-0.885E-05
CGA:  47    -0.334368648653E+03   -0.16139E-03   -0.16148E-03  7696   0.427E-02 0.150E-04
CGA:  48    -0.334368715422E+03   -0.66769E-04   -0.66938E-04  7696   0.963E-03 0.573E-05
CGA:  49    -0.334368742285E+03   -0.26863E-04   -0.26887E-04  7696   0.135E-02 0.594E-05
SDA:  50    -0.334368874332E+03   -0.13205E-03   -0.13000E-03  7696   0.228E-02 0.321E-04
CGA:  51    -0.334368902777E+03   -0.28445E-04   -0.28414E-04  7696   0.540E-03 0.279E-06
CGA:  52    -0.334368918251E+03   -0.15473E-04   -0.15470E-04  7696   0.612E-03-0.154E-05
CGA:  53    -0.334368953661E+03   -0.35410E-04   -0.35663E-04  7696   0.104E-02-0.102E-04
CGA:  54    -0.334368991028E+03   -0.37367E-04   -0.37395E-04  7696   0.525E-03-0.141E-04
CGA:  55    -0.334369010133E+03   -0.19105E-04   -0.19115E-04  7696   0.686E-03-0.381E-05
CGA:  56    -0.334369026149E+03   -0.16016E-04   -0.16003E-04  7696   0.706E-03-0.886E-06
CGA:  57    -0.334369079505E+03   -0.53356E-04   -0.52980E-04  7696   0.165E-03 0.926E-05
CGA:  58    -0.334369098064E+03   -0.18559E-04   -0.18285E-04  7696   0.119E-02 0.371E-05
CGA:  59    -0.334369126079E+03   -0.28015E-04   -0.28123E-04  7696   0.133E-03 0.614E-05
CGA:  60    -0.334369131997E+03   -0.59177E-05   -0.59234E-05  7696   0.292E-03-0.108E-05
CGA:  61    -0.334369151658E+03   -0.19662E-04   -0.19834E-04  7696   0.319E-03-0.599E-05
CGA:  62    -0.334369156843E+03   -0.51850E-05   -0.51332E-05  7696   0.141E-03-0.208E-05
   7 F= -.33436916E+03 E0= -.33433971E+03  d E =-.160170E+00  mag=    32.0000
       N       E                     dE             d eps       ncg     rms          ort
SDA:   1    -0.286356700757E+03    0.48012E+02    0.00000E+00  7696   0.219E+04 0.000E+00
CGA:   2    -0.299278266940E+03   -0.12922E+02   -0.44733E+02  7696   0.617E+03-0.522E+03
CGA:   3    -0.306426526645E+03   -0.71483E+01   -0.83337E+01  7696   0.394E+03-0.101E+03
CGA:   4    -0.308816778220E+03   -0.23903E+01   -0.30224E+01  7696   0.423E+03-0.250E+03
CGA:   5    -0.311030665921E+03   -0.22139E+01   -0.65791E+01  7696   0.199E+03-0.108E+03
CGA:   6    -0.315482135494E+03   -0.44515E+01   -0.40490E+01  7696   0.148E+03-0.123E+02
CGA:   7    -0.321596919589E+03   -0.61148E+01   -0.56700E+01  7696   0.634E+02 0.471E+02
CGA:   8    -0.324506185292E+03   -0.29093E+01   -0.28867E+01  7696   0.158E+03-0.389E+02
CGA:   9    -0.325946119908E+03   -0.14399E+01   -0.22947E+01  7696   0.763E+02-0.669E+02
CGA:  10    -0.327067326023E+03   -0.11212E+01   -0.92960E+00  7696   0.520E+02 0.954E+00
CGA:  11    -0.328546307071E+03   -0.14790E+01   -0.14589E+01  7696   0.542E+02-0.258E+01
CGA:  12    -0.330867574632E+03   -0.23213E+01   -0.22695E+01  7696   0.895E+02 0.401E+01
CGA:  13    -0.333017969228E+03   -0.21504E+01   -0.18259E+01  7696   0.151E+02 0.643E+01
CGA:  14    -0.333377470386E+03   -0.35950E+00   -0.37015E+00  7696   0.779E+01 0.897E-01
CGA:  15    -0.333629467559E+03   -0.25200E+00   -0.25197E+00  7696   0.112E+02-0.127E+00
CGA:  16    -0.333945431848E+03   -0.31596E+00   -0.31663E+00  7696   0.895E+01 0.634E-01
CGA:  17    -0.334160091408E+03   -0.21466E+00   -0.22443E+00  7696   0.394E+01 0.290E+00
CGA:  18    -0.334224609555E+03   -0.64518E-01   -0.60958E-01  7696   0.131E+01 0.129E+00
CGA:  19    -0.334258221277E+03   -0.33612E-01   -0.34082E-01  7696   0.970E+00 0.219E-01
CGA:  20    -0.334305162466E+03   -0.46941E-01   -0.46855E-01  7696   0.216E+01 0.506E-02
CGA:  21    -0.334354672948E+03   -0.49510E-01   -0.49603E-01  7696   0.147E+01 0.781E-03
CGA:  22    -0.334385918207E+03   -0.31245E-01   -0.31698E-01  7696   0.404E+00 0.250E-02
CGA:  23    -0.334393348297E+03   -0.74301E-02   -0.73250E-02  7696   0.241E+00 0.157E-02
CGA:  24    -0.334399333765E+03   -0.59855E-02   -0.59938E-02  7696   0.235E+00 0.548E-03
CGA:  25    -0.334410629420E+03   -0.11296E-01   -0.11217E-01  7696   0.432E+00 0.397E-02
CGA:  26    -0.334419527554E+03   -0.88981E-02   -0.88296E-02  7696   0.252E+00 0.285E-03
CGA:  27    -0.334425087119E+03   -0.55596E-02   -0.55887E-02  7696   0.101E+00 0.632E-03
CGA:  28    -0.334427731727E+03   -0.26446E-02   -0.26457E-02  7696   0.109E+00 0.125E-03
CGA:  29    -0.334430301292E+03   -0.25696E-02   -0.25598E-02  7696   0.874E-01-0.401E-03
CGA:  30    -0.334433132210E+03   -0.28309E-02   -0.28275E-02  7696   0.580E-01 0.624E-03
CGA:  31    -0.334434328990E+03   -0.11968E-02   -0.11966E-02  7696   0.432E-01 0.391E-05
CGA:  32    -0.334435359912E+03   -0.10309E-02   -0.10311E-02  7696   0.329E-01 0.175E-04
CGA:  33    -0.334436732444E+03   -0.13725E-02   -0.13664E-02  7696   0.432E-01 0.388E-03
CGA:  34    -0.334437597909E+03   -0.86546E-03   -0.86419E-03  7696   0.251E-01 0.135E-04
CGA:  35    -0.334438123799E+03   -0.52589E-03   -0.52714E-03  7696   0.937E-02 0.310E-04
CGA:  36    -0.334438381251E+03   -0.25745E-03   -0.25753E-03  7696   0.109E-01 0.431E-04
CGA:  37    -0.334438674187E+03   -0.29294E-03   -0.29291E-03  7696   0.117E-01-0.901E-05
CGA:  38    -0.334439100105E+03   -0.42592E-03   -0.42526E-03  7696   0.881E-02 0.588E-04
SDA:  39    -0.334439270082E+03   -0.16998E-03   -0.17016E-03  7696   0.515E-02 0.374E-05
CGA:  40    -0.334439321098E+03   -0.51016E-04   -0.50977E-04  7696   0.888E-03-0.112E-05
CGA:  41    -0.334439435214E+03   -0.11412E-03   -0.43049E-07  7696   0.101E-01-0.245E-03
CGA:  42    -0.334439616787E+03   -0.18157E-03   -0.18154E-03  7696   0.607E-02-0.222E-05
CGA:  43    -0.334439694783E+03   -0.77997E-04   -0.78093E-04  7696   0.262E-02-0.749E-05
CGA:  44    -0.334439777583E+03   -0.82800E-04   -0.83193E-04  7696   0.397E-02 0.243E-05
CGA:  45    -0.334439855792E+03   -0.78209E-04   -0.78812E-04  7696   0.223E-02-0.144E-04
CGA:  46    -0.334439922345E+03   -0.66553E-04   -0.66566E-04  7696   0.347E-02 0.271E-06
CGA:  47    -0.334439991363E+03   -0.69018E-04   -0.68444E-04  7696   0.102E-02 0.169E-04
CGA:  48    -0.334440006881E+03   -0.15518E-04   -0.15531E-04  7696   0.622E-03-0.173E-06
CGA:  49    -0.334440035307E+03   -0.28426E-04   -0.28415E-04  7696   0.162E-02 0.257E-05
CGA:  50    -0.334440070686E+03   -0.35379E-04   -0.35552E-04  7696   0.788E-03 0.444E-05
CGA:  51    -0.334440084321E+03   -0.13635E-04   -0.13746E-04  7696   0.398E-03 0.130E-05
CGA:  52    -0.334440093221E+03   -0.88996E-05   -0.89260E-05  7696   0.477E-03 0.836E-06
CGA:  53    -0.334440118755E+03   -0.25534E-04   -0.25533E-04  7696   0.144E-02-0.404E-07
CGA:  54    -0.334440147424E+03   -0.28669E-04   -0.28661E-04  7696   0.411E-03 0.182E-06
CGA:  55    -0.334440152934E+03   -0.55103E-05   -0.55320E-05  7696   0.206E-03 0.585E-06
   8 F= -.33444015E+03 E0= -.33441105E+03  d E =-.709961E-01  mag=    32.0000
       N       E                     dE             d eps       ncg     rms          ort
SDA:   1    -0.320611680421E+03    0.13828E+02    0.00000E+00  7696   0.325E+03 0.000E+00
CGA:   2    -0.322175878217E+03   -0.15642E+01   -0.60792E+01  7696   0.123E+03-0.392E+02
CGA:   3    -0.324580646240E+03   -0.24048E+01   -0.21946E+01  7696   0.644E+02 0.675E+01
CGA:   4    -0.325739091944E+03   -0.11584E+01   -0.82432E+00  7696   0.547E+02 0.191E+02
CGA:   5    -0.327082513536E+03   -0.13434E+01   -0.15314E+01  7696   0.864E+02-0.506E+00
CGA:   6    -0.329786584088E+03   -0.27041E+01   -0.27150E+01  7696   0.183E+03 0.210E+01
CGA:   7    -0.332316558459E+03   -0.25300E+01   -0.26920E+01  7696   0.779E+02-0.190E+02
CGA:   8    -0.332911614443E+03   -0.59506E+00   -0.48516E+00  7696   0.240E+02 0.111E+02
CGA:   9    -0.333113995430E+03   -0.20238E+00   -0.19133E+00  7696   0.114E+02 0.141E+01
CGA:  10    -0.333257804786E+03   -0.14381E+00   -0.15745E+00  7696   0.153E+02-0.597E+00
CGA:  11    -0.333536882991E+03   -0.27908E+00   -0.31098E+00  7696   0.201E+02 0.773E+00
CGA:  12    -0.333866835728E+03   -0.32995E+00   -0.31388E+00  7696   0.128E+02 0.438E+00
CGA:  13    -0.334054730935E+03   -0.18790E+00   -0.16598E+00  7696   0.718E+01 0.995E+00
CGA:  14    -0.334164578244E+03   -0.10985E+00   -0.11228E+00  7696   0.687E+01-0.247E-01
CGA:  15    -0.334265431488E+03   -0.10085E+00   -0.74855E-01  7696   0.472E+01 0.210E+01
CGA:  16    -0.334319896653E+03   -0.54465E-01   -0.40351E-01  7696   0.161E+01 0.192E+01
CGA:  17    -0.334337432169E+03   -0.17536E-01   -0.15334E-01  7696   0.788E+00 0.268E+00
CGA:  18    -0.334350044998E+03   -0.12613E-01   -0.12353E-01  7696   0.168E+01 0.774E-02
CGA:  19    -0.334373408609E+03   -0.23364E-01   -0.23325E-01  7696   0.393E+01 0.225E-02
CGA:  20    -0.334412994147E+03   -0.39586E-01   -0.42284E-01  7696   0.454E+01-0.139E+00
CGA:  21    -0.334443049970E+03   -0.30056E-01   -0.32607E-01  7696   0.220E+01-0.250E+00
CGA:  22    -0.334457827881E+03   -0.14778E-01   -0.14632E-01  7696   0.122E+01 0.197E-01
CGA:  23    -0.334467219249E+03   -0.93914E-02   -0.77650E-02  7696   0.698E+00 0.206E+00
CGA:  24    -0.334472139818E+03   -0.49206E-02   -0.42584E-02  7696   0.332E+00 0.106E+00
CGA:  25    -0.334474499085E+03   -0.23593E-02   -0.22940E-02  7696   0.255E+00 0.836E-02
CGA:  26    -0.334476904286E+03   -0.24052E-02   -0.24064E-02  7696   0.484E+00-0.176E-03
CGA:  27    -0.334482560053E+03   -0.56558E-02   -0.56622E-02  7696   0.113E+01-0.160E-03
CGA:  28    -0.334491611025E+03   -0.90510E-02   -0.88973E-02  7696   0.113E+01 0.125E-01
CGA:  29    -0.334497471834E+03   -0.58608E-02   -0.56288E-02  7696   0.592E+00 0.382E-01
CGA:  30    -0.334500640063E+03   -0.31682E-02   -0.31334E-02  7696   0.401E+00 0.519E-02
CGA:  31    -0.334503146602E+03   -0.25065E-02   -0.25313E-02  7696   0.375E+00-0.268E-02
SDA:  32    -0.334505382849E+03   -0.22362E-02   -0.23178E-02  7696   0.300E+00-0.857E-02
CGA:  33    -0.334509326058E+03   -0.39432E-02   -0.39505E-02  7696   0.132E+00 0.117E-02
CGA:  34    -0.334514888272E+03   -0.55622E-02   -0.56010E-02  7696   0.164E+00-0.174E-02
CGA:  35    -0.334519705852E+03   -0.48176E-02   -0.47694E-02  7696   0.815E-01 0.351E-02
CGA:  36    -0.334521413997E+03   -0.17081E-02   -0.17069E-02  7696   0.504E-01 0.254E-03
CGA:  37    -0.334522866878E+03   -0.14529E-02   -0.14644E-02  7696   0.601E-01-0.901E-03
CGA:  38    -0.334525311248E+03   -0.24444E-02   -0.24530E-02  7696   0.492E-01-0.396E-03
CGA:  39    -0.334527837900E+03   -0.25267E-02   -0.24605E-02  7696   0.121E-01 0.232E-02
CGA:  40    -0.334528423808E+03   -0.58591E-03   -0.58854E-03  7696   0.397E-01-0.107E-03
CGA:  41    -0.334529857259E+03   -0.14335E-02   -0.14222E-02  7696   0.329E-01 0.688E-03
CGA:  42    -0.334530696855E+03   -0.83960E-03   -0.84086E-03  7696   0.628E-02-0.343E-03
CGA:  43    -0.334530808686E+03   -0.11183E-03   -0.11172E-03  7696   0.647E-02-0.722E-05
CGA:  44    -0.334531543832E+03   -0.73515E-03   -0.23402E-05  7696   0.351E-01-0.150E-02
CGA:  45    -0.334531966645E+03   -0.42281E-03   -0.43087E-03  7696   0.130E-01-0.240E-03
CGA:  46    -0.334532154980E+03   -0.18834E-03   -0.19080E-03  7696   0.676E-02-0.751E-04
CGA:  47    -0.334532310093E+03   -0.15511E-03   -0.15779E-03  7696   0.463E-02-0.479E-05
CGA:  48    -0.334532393442E+03   -0.83349E-04   -0.83857E-04  7696   0.432E-02-0.398E-05
CGA:  49    -0.334532630468E+03   -0.23703E-03   -0.23748E-03  7696   0.901E-02-0.197E-04
CGA:  50    -0.334532751762E+03   -0.12129E-03   -0.12203E-03  7696   0.156E-02-0.236E-04
CGA:  51    -0.334532774142E+03   -0.22380E-04   -0.22418E-04  7696   0.932E-03-0.189E-05
CGA:  52    -0.334532831114E+03   -0.56972E-04   -0.57060E-04  7696   0.376E-02-0.439E-05
CGA:  53    -0.334532922165E+03   -0.91050E-04   -0.90839E-04  7696   0.295E-02-0.117E-04
CGA:  54    -0.334532978173E+03   -0.56008E-04   -0.55691E-04  7696   0.121E-02-0.397E-05
CGA:  55    -0.334532996208E+03   -0.18035E-04   -0.18025E-04  7696   0.603E-03-0.379E-05
CGA:  56    -0.334533013734E+03   -0.17525E-04   -0.17537E-04  7696   0.960E-03 0.256E-06
CGA:  57    -0.334533043595E+03   -0.29862E-04   -0.29865E-04  7696   0.109E-02-0.157E-06
CGA:  58    -0.334533069684E+03   -0.26089E-04   -0.26032E-04  7696   0.124E-02-0.291E-05
CGA:  59    -0.334533095160E+03   -0.25475E-04   -0.25332E-04  7696   0.362E-03-0.303E-05
CGA:  60    -0.334533100352E+03   -0.51926E-05   -0.51841E-05  7696   0.218E-03-0.601E-06
CGA:  61    -0.334533112042E+03   -0.11690E-04   -0.11682E-04  7696   0.845E-03 0.240E-06
CGA:  62    -0.334533137375E+03   -0.25332E-04   -0.25333E-04  7696   0.340E-03 0.285E-06
SDA:  63    -0.334533141363E+03   -0.39880E-05   -0.39869E-05  7696   0.123E-03-0.215E-06
   9 F= -.33453314E+03 E0= -.33450414E+03  d E =-.929884E-01  mag=    32.0000
       N       E                     dE             d eps       ncg     rms          ort
SDA:   1    -0.326320947055E+03    0.82122E+01    0.00000E+00  7696   0.198E+03 0.000E+00
CGA:   2    -0.327517013275E+03   -0.11961E+01   -0.34991E+01  7696   0.620E+02-0.247E+02
CGA:   3    -0.328772361318E+03   -0.12553E+01   -0.10139E+01  7696   0.341E+02 0.480E+01
CGA:   4    -0.329508332073E+03   -0.73597E+00   -0.67447E+00  7696   0.515E+02 0.513E+00
CGA:   5    -0.330791100330E+03   -0.12828E+01   -0.13492E+01  7696   0.616E+02 0.442E+01
CGA:   6    -0.332809751536E+03   -0.20187E+01   -0.20196E+01  7696   0.601E+02 0.957E+00
CGA:   7    -0.333513908239E+03   -0.70416E+00   -0.47916E+00  7696   0.143E+02 0.224E+02
CGA:   8    -0.333664558585E+03   -0.15065E+00   -0.13354E+00  7696   0.453E+01 0.220E+01
CGA:   9    -0.333754220286E+03   -0.89662E-01   -0.88769E-01  7696   0.852E+01 0.113E-01
CGA:  10    -0.333923363299E+03   -0.16914E+00   -0.17981E+00  7696   0.159E+02 0.285E+00
CGA:  11    -0.334184162487E+03   -0.26080E+00   -0.26686E+00  7696   0.131E+02-0.755E-01
CGA:  12    -0.334393035587E+03   -0.20887E+00   -0.17392E+00  7696   0.388E+01 0.125E+01
CGA:  13    -0.334426072136E+03   -0.33037E-01   -0.29856E-01  7696   0.115E+01 0.370E+00
CGA:  14    -0.334444773312E+03   -0.18701E-01   -0.17535E-01  7696   0.163E+01 0.369E-01
CGA:  15    -0.334463369416E+03   -0.18596E-01   -0.15243E-01  7696   0.153E+01 0.281E+00
CGA:  16    -0.334476441207E+03   -0.13072E-01   -0.12588E-01  7696   0.927E+00 0.576E-01
CGA:  17    -0.334485357467E+03   -0.89163E-02   -0.89808E-02  7696   0.125E+01-0.427E-02
CGA:  18    -0.334501657749E+03   -0.16300E-01   -0.16536E-01  7696   0.239E+01-0.431E-02
CGA:  19    -0.334523658631E+03   -0.22001E-01   -0.22427E-01  7696   0.180E+01-0.246E-01
CGA:  20    -0.334535623669E+03   -0.11965E-01   -0.11840E-01  7696   0.872E+00 0.158E-01
CGA:  21    -0.334541551405E+03   -0.59277E-02   -0.59094E-02  7696   0.405E+00 0.223E-02
CGA:  22    -0.334544140432E+03   -0.25890E-02   -0.26640E-02  7696   0.185E+00-0.868E-02
CGA:  23    -0.334545726007E+03   -0.15856E-02   -0.16050E-02  7696   0.202E+00-0.123E-02
CGA:  24    -0.334549062935E+03   -0.33369E-02   -0.33368E-02  7696   0.481E+00-0.365E-04
CGA:  25    -0.334554449600E+03   -0.53867E-02   -0.51428E-02  7696   0.456E+00 0.818E-02
CGA:  26    -0.334557631153E+03   -0.31816E-02   -0.30947E-02  7696   0.289E+00 0.926E-02
CGA:  27    -0.334560176563E+03   -0.25454E-02   -0.25311E-02  7696   0.326E+00 0.794E-03
CGA:  28    -0.334563233111E+03   -0.30565E-02   -0.30899E-02  7696   0.349E+00-0.136E-02
CGA:  29    -0.334565630556E+03   -0.23974E-02   -0.25383E-02  7696   0.167E+00-0.115E-01
CGA:  30    -0.334566644553E+03   -0.10140E-02   -0.10328E-02  7696   0.810E-01-0.194E-02
CGA:  31    -0.334567360040E+03   -0.71549E-03   -0.72107E-03  7696   0.786E-01-0.191E-03
SDA:  32    -0.334568223591E+03   -0.86355E-03   -0.86105E-03  7696   0.955E-01-0.518E-04
CGA:  33    -0.334569591015E+03   -0.13674E-02   -0.13659E-02  7696   0.299E-01-0.716E-03
CGA:  34    -0.334570683909E+03   -0.10929E-02   -0.10966E-02  7696   0.530E-01-0.187E-03
CGA:  35    -0.334572263194E+03   -0.15793E-02   -0.15839E-02  7696   0.293E-01-0.317E-03
CGA:  36    -0.334573382733E+03   -0.11195E-02   -0.11092E-02  7696   0.300E-01 0.502E-03
CGA:  37    -0.334573872850E+03   -0.49012E-03   -0.49100E-03  7696   0.113E-01 0.191E-03
CGA:  38    -0.334575440648E+03   -0.15678E-02   -0.22533E-03  7696   0.170E-01 0.210E-02
CGA:  39    -0.334575939811E+03   -0.49916E-03   -0.50096E-03  7696   0.126E-01 0.437E-04
CGA:  40    -0.334576216597E+03   -0.27679E-03   -0.27606E-03  7696   0.726E-02-0.117E-04
CGA:  41    -0.334576778263E+03   -0.56167E-03   -0.56417E-03  7696   0.135E-01-0.565E-04
CGA:  42    -0.334577168344E+03   -0.39008E-03   -0.39010E-03  7696   0.672E-02-0.116E-04
CGA:  43    -0.334577358347E+03   -0.19000E-03   -0.19031E-03  7696   0.493E-02 0.189E-04
CGA:  44    -0.334577483843E+03   -0.12550E-03   -0.12533E-03  7696   0.620E-02-0.102E-05
CGA:  45    -0.334577805218E+03   -0.32137E-03   -0.32092E-03  7696   0.282E-02 0.240E-04
CGA:  46    -0.334577875675E+03   -0.70458E-04   -0.70661E-04  7696   0.308E-02 0.137E-04
CGA:  47    -0.334577971854E+03   -0.96179E-04   -0.96236E-04  7696   0.262E-02 0.216E-04
CGA:  48    -0.334578140419E+03   -0.16857E-03   -0.16755E-03  7696   0.114E-02 0.334E-04
CGA:  49    -0.334578173972E+03   -0.33553E-04   -0.33566E-04  7696   0.129E-02 0.286E-05
CGA:  50    -0.334578210038E+03   -0.36066E-04   -0.36117E-04  7696   0.106E-02 0.408E-05
CGA:  51    -0.334578267007E+03   -0.56969E-04   -0.57097E-04  7696   0.153E-02-0.583E-05
CGA:  52    -0.334578308064E+03   -0.41057E-04   -0.41082E-04  7696   0.724E-03-0.913E-06
CGA:  53    -0.334578329354E+03   -0.21290E-04   -0.21291E-04  7696   0.868E-03-0.795E-07
CGA:  54    -0.334578351870E+03   -0.22516E-04   -0.22518E-04  7696   0.615E-03-0.408E-06
CGA:  55    -0.334578381697E+03   -0.29827E-04   -0.29888E-04  7696   0.275E-03-0.431E-05
CGA:  56    -0.334578386695E+03   -0.49983E-05   -0.49904E-05  7696   0.202E-03-0.472E-06
CGA:  57    -0.334578397536E+03   -0.10841E-04   -0.10805E-04  7696   0.260E-03 0.159E-05
CGA:  58    -0.334578412980E+03   -0.15444E-04   -0.15482E-04  7696   0.206E-03-0.163E-05
CGA:  59    -0.334578416988E+03   -0.40073E-05   -0.40096E-05  7696   0.108E-03-0.286E-06
  10 F= -.33457842E+03 E0= -.33454968E+03  d E =-.452756E-01  mag=    32.0000
       N       E                     dE             d eps       ncg     rms          ort
SDA:   1    -0.332414590560E+03    0.21638E+01    0.00000E+00  7696   0.109E+02 0.000E+00
CGA:   2    -0.332594944022E+03   -0.18035E+00   -0.15221E+00  7696   0.714E+01 0.131E+01
CGA:   3    -0.333675882758E+03   -0.10809E+01   -0.11170E+01  7696   0.428E+02-0.424E+00
CGA:   4    -0.334070761966E+03   -0.39488E+00   -0.49517E+00  7696   0.826E+01-0.626E+01
CGA:   5    -0.334167074869E+03   -0.96313E-01   -0.10059E+00  7696   0.292E+01-0.189E+00
CGA:   6    -0.334248545902E+03   -0.81471E-01   -0.82174E-01  7696   0.497E+01 0.237E-01
CGA:   7    -0.334404664304E+03   -0.15612E+00   -0.15794E+00  7696   0.290E+01 0.125E+00
CGA:   8    -0.334467167245E+03   -0.62503E-01   -0.62457E-01  7696   0.230E+01-0.192E-02
CGA:   9    -0.334520711353E+03   -0.53544E-01   -0.45955E-01  7696   0.743E+00 0.192E+00
CGA:  10    -0.334535936131E+03   -0.15225E-01   -0.14190E-01  7696   0.427E+00 0.317E-01
CGA:  11    -0.334545339927E+03   -0.94038E-02   -0.93467E-02  7696   0.530E+00 0.538E-03
CGA:  12    -0.334571477478E+03   -0.26138E-01   -0.26260E-01  7696   0.964E+00-0.628E-02
CGA:  13    -0.334582315269E+03   -0.10838E-01   -0.11202E-01  7696   0.207E+00-0.228E-01
CGA:  14    -0.334585542860E+03   -0.32276E-02   -0.33745E-02  7696   0.746E-01-0.417E-02
CGA:  15    -0.334586783264E+03   -0.12404E-02   -0.12338E-02  7696   0.760E-01 0.186E-03
CGA:  16    -0.334593083673E+03   -0.63004E-02   -0.63153E-02  7696   0.259E+00-0.310E-03
CGA:  17    -0.334596358191E+03   -0.32745E-02   -0.33104E-02  7696   0.439E-01-0.190E-02
CGA:  18    -0.334597094624E+03   -0.73643E-03   -0.73646E-03  7696   0.238E-01-0.144E-04
CGA:  19    -0.334597629076E+03   -0.53445E-03   -0.53030E-03  7696   0.237E-01-0.415E-04
CGA:  20    -0.334598284800E+03   -0.65572E-03   -0.65490E-03  7696   0.259E-01-0.806E-04
CGA:  21    -0.334598900819E+03   -0.61602E-03   -0.61613E-03  7696   0.295E-01-0.102E-05
CGA:  22    -0.334599520090E+03   -0.61927E-03   -0.62154E-03  7696   0.112E-01 0.312E-05
CGA:  23    -0.334599728074E+03   -0.20798E-03   -0.20797E-03  7696   0.109E-01 0.170E-05
CGA:  24    -0.334600041661E+03   -0.31359E-03   -0.31356E-03  7696   0.106E-01-0.120E-04
CGA:  25    -0.334600355554E+03   -0.31389E-03   -0.31389E-03  7696   0.127E-01 0.166E-04
CGA:  26    -0.334600517916E+03   -0.16236E-03   -0.16266E-03  7696   0.151E-02-0.254E-05
CGA:  27    -0.334600564331E+03   -0.46414E-04   -0.46400E-04  7696   0.389E-02 0.749E-05
CGA:  28    -0.334600760601E+03   -0.19627E-03   -0.19608E-03  7696   0.614E-02 0.872E-05
CGA:  29    -0.334600864144E+03   -0.10354E-03   -0.10346E-03  7696   0.166E-02 0.726E-05
CGA:  30    -0.334600885717E+03   -0.21573E-04   -0.21637E-04  7696   0.678E-03 0.147E-05
CGA:  31    -0.334600914971E+03   -0.29254E-04   -0.29172E-04  7696   0.136E-02 0.534E-05
SDA:  32    -0.334600948206E+03   -0.33235E-04   -0.33244E-04  7696   0.154E-02 0.197E-05
CGA:  33    -0.334600972312E+03   -0.24106E-04   -0.24127E-04  7696   0.616E-03 0.275E-06
CGA:  34    -0.334600985795E+03   -0.13483E-04   -0.13458E-04  7696   0.303E-03-0.243E-05
CGA:  35    -0.334601000560E+03   -0.14764E-04   -0.14818E-04  7696   0.635E-03-0.258E-05
CGA:  36    -0.334601037848E+03   -0.37289E-04   -0.37376E-04  7696   0.102E-02-0.287E-05
CGA:  37    -0.334601056906E+03   -0.19058E-04   -0.19059E-04  7696   0.360E-03 0.357E-06
CGA:  38    -0.334601063632E+03   -0.67257E-05   -0.67493E-05  7696   0.722E-04 0.138E-05
  11 F= -.33460106E+03 E0= -.33457257E+03  d E =-.226466E-01  mag=    32.0000
       N       E                     dE             d eps       ncg     rms          ort
SDA:   1    -0.333484623536E+03    0.11164E+01    0.00000E+00  7696   0.219E+02 0.000E+00
CGA:   2    -0.333720119755E+03   -0.23550E+00   -0.31925E+00  7696   0.678E+01-0.557E+01
CGA:   3    -0.333844036195E+03   -0.12392E+00   -0.12238E+00  7696   0.591E+01 0.371E-01
CGA:   4    -0.334106205223E+03   -0.26217E+00   -0.26304E+00  7696   0.659E+01 0.485E-01
CGA:   5    -0.334369936255E+03   -0.26373E+00   -0.26099E+00  7696   0.429E+01-0.722E-01
CGA:   6    -0.334444451960E+03   -0.74516E-01   -0.81287E-01  7696   0.255E+01-0.248E+00
CGA:   7    -0.334495156790E+03   -0.50705E-01   -0.49836E-01  7696   0.102E+01 0.206E-01
CGA:   8    -0.334538072923E+03   -0.42916E-01   -0.43056E-01  7696   0.970E+00 0.112E-01
CGA:   9    -0.334574631699E+03   -0.36559E-01   -0.36654E-01  7696   0.955E+00 0.230E-02
CGA:  10    -0.334590557333E+03   -0.15926E-01   -0.15650E-01  7696   0.367E+00 0.115E-01
CGA:  11    -0.334599419587E+03   -0.88623E-02   -0.89911E-02  7696   0.146E+00-0.225E-02
CGA:  12    -0.334605240676E+03   -0.58211E-02   -0.58180E-02  7696   0.177E+00-0.391E-03
CGA:  13    -0.334609412989E+03   -0.41723E-02   -0.41563E-02  7696   0.162E+00 0.260E-03
CGA:  14    -0.334613302735E+03   -0.38897E-02   -0.39075E-02  7696   0.569E-01-0.259E-03
CGA:  15    -0.334614929832E+03   -0.16271E-02   -0.16181E-02  7696   0.300E-01-0.317E-04
CGA:  16    -0.334615660084E+03   -0.73025E-03   -0.73168E-03  7696   0.322E-01-0.116E-04
CGA:  17    -0.334616610826E+03   -0.95074E-03   -0.95118E-03  7696   0.262E-01 0.957E-05
CGA:  18    -0.334617565878E+03   -0.95505E-03   -0.95433E-03  7696   0.191E-01-0.988E-04
CGA:  19    -0.334617954911E+03   -0.38903E-03   -0.39078E-03  7696   0.122E-01-0.323E-04
CGA:  20    -0.334618245440E+03   -0.29053E-03   -0.29006E-03  7696   0.675E-02 0.120E-05
CGA:  21    -0.334618536911E+03   -0.29147E-03   -0.29161E-03  7696   0.835E-02-0.175E-04
CGA:  22    -0.334618746719E+03   -0.20981E-03   -0.21010E-03  7696   0.789E-02 0.263E-05
CGA:  23    -0.334618926065E+03   -0.17935E-03   -0.17877E-03  7696   0.317E-02 0.364E-05
CGA:  24    -0.334619040170E+03   -0.11411E-03   -0.11410E-03  7696   0.254E-02 0.381E-06
CGA:  25    -0.334619132233E+03   -0.92063E-04   -0.92066E-04  7696   0.404E-02 0.737E-05
CGA:  26    -0.334619225330E+03   -0.93097E-04   -0.92951E-04  7696   0.253E-02 0.455E-05
CGA:  27    -0.334619304693E+03   -0.79363E-04   -0.79383E-04  7696   0.113E-02 0.510E-05
CGA:  28    -0.334619342848E+03   -0.38155E-04   -0.38164E-04  7696   0.105E-02 0.389E-05
CGA:  29    -0.334619369163E+03   -0.26315E-04   -0.26313E-04  7696   0.122E-02 0.659E-06
CGA:  30    -0.334619409547E+03   -0.40385E-04   -0.40393E-04  7696   0.848E-03 0.364E-05
CGA:  31    -0.334619438593E+03   -0.29046E-04   -0.29048E-04  7696   0.445E-03 0.232E-05
SDA:  32    -0.334619450112E+03   -0.11518E-04   -0.11520E-04  7696   0.441E-03 0.263E-06
CGA:  33    -0.334619454441E+03   -0.43294E-05   -0.43452E-05  7696   0.848E-04 0.143E-06
  12 F= -.33461945E+03 E0= -.33459085E+03  d E =-.183908E-01  mag=    32.0000
       N       E                     dE             d eps       ncg     rms          ort
SDA:   1    -0.333150370613E+03    0.14691E+01    0.00000E+00  7696   0.677E+01 0.000E+00
CGA:   2    -0.333274373588E+03   -0.12400E+00   -0.17824E+00  7696   0.110E+02-0.129E+01
CGA:   3    -0.333886199059E+03   -0.61183E+00   -0.61952E+00  7696   0.257E+02-0.470E+00
CGA:   4    -0.334359167861E+03   -0.47297E+00   -0.37749E+00  7696   0.209E+01 0.609E+01
CGA:   5    -0.334404554512E+03   -0.45387E-01   -0.44272E-01  7696   0.133E+01 0.613E-01
CGA:   6    -0.334454620106E+03   -0.50066E-01   -0.46121E-01  7696   0.233E+01 0.249E-01
CGA:   7    -0.334540006880E+03   -0.85387E-01   -0.86789E-01  7696   0.328E+01 0.235E-02
CGA:   8    -0.334594717407E+03   -0.54711E-01   -0.62401E-01  7696   0.837E+00-0.285E+00
CGA:   9    -0.334603520280E+03   -0.88029E-02   -0.79905E-02  7696   0.180E+00 0.663E-01
CGA:  10    -0.334608607355E+03   -0.50871E-02   -0.49556E-02  7696   0.329E+00 0.249E-02
CGA:  11    -0.334616650455E+03   -0.80431E-02   -0.79032E-02  7696   0.372E+00 0.332E-02
CGA:  12    -0.334623591940E+03   -0.69415E-02   -0.70999E-02  7696   0.325E+00-0.516E-02
CGA:  13    -0.334628084726E+03   -0.44928E-02   -0.46339E-02  7696   0.118E+00-0.711E-02
CGA:  14    -0.334629508244E+03   -0.14235E-02   -0.14263E-02  7696   0.426E-01-0.944E-04
CGA:  15    -0.334630202483E+03   -0.69424E-03   -0.70216E-03  7696   0.406E-01-0.329E-03
CGA:  16    -0.334631400812E+03   -0.11983E-02   -0.11973E-02  7696   0.549E-01-0.301E-04
CGA:  17    -0.334632294245E+03   -0.89343E-03   -0.89295E-03  7696   0.436E-01-0.292E-04
CGA:  18    -0.334633370118E+03   -0.10759E-02   -0.10760E-02  7696   0.370E-01-0.345E-04
CGA:  19    -0.334633790013E+03   -0.41989E-03   -0.42198E-03  7696   0.101E-01-0.177E-03
CGA:  20    -0.334633993650E+03   -0.20364E-03   -0.20357E-03  7696   0.118E-01-0.314E-05
CGA:  21    -0.334634298488E+03   -0.30484E-03   -0.30378E-03  7696   0.156E-01-0.107E-04
CGA:  22    -0.334634595588E+03   -0.29710E-03   -0.29772E-03  7696   0.106E-01-0.465E-05
CGA:  23    -0.334634772169E+03   -0.17658E-03   -0.17831E-03  7696   0.640E-02-0.354E-04
CGA:  24    -0.334634865934E+03   -0.93766E-04   -0.94248E-04  7696   0.272E-02-0.628E-05
CGA:  25    -0.334634937803E+03   -0.71868E-04   -0.71820E-04  7696   0.570E-02-0.632E-06
CGA:  26    -0.334635135093E+03   -0.19729E-03   -0.19731E-03  7696   0.583E-02-0.548E-05
CGA:  27    -0.334635203889E+03   -0.68796E-04   -0.69272E-04  7696   0.171E-02-0.185E-04
CGA:  28    -0.334635232822E+03   -0.28933E-04   -0.29012E-04  7696   0.113E-02 0.561E-06
CGA:  29    -0.334635257943E+03   -0.25121E-04   -0.25134E-04  7696   0.139E-02 0.177E-06
CGA:  30    -0.334635298144E+03   -0.40202E-04   -0.40203E-04  7696   0.238E-02-0.645E-06
CGA:  31    -0.334635358985E+03   -0.60840E-04   -0.60818E-04  7696   0.176E-02-0.471E-05
SDA:  32    -0.334635377972E+03   -0.18987E-04   -0.18889E-04  7696   0.367E-03 0.724E-06
CGA:  33    -0.334635393744E+03   -0.15772E-04   -0.15747E-04  7696   0.467E-03 0.150E-05
CGA:  34    -0.334635411440E+03   -0.17696E-04   -0.17681E-04  7696   0.798E-03 0.162E-05
CGA:  35    -0.334635427954E+03   -0.16514E-04   -0.16502E-04  7696   0.158E-03-0.266E-06
CGA:  36    -0.334635435936E+03   -0.79823E-05   -0.79369E-05  7696   0.349E-03 0.206E-05
CGA:  37    -0.334635456101E+03   -0.20165E-04   -0.19988E-04  7696   0.226E-03 0.675E-05
CGA:  38    -0.334635462876E+03   -0.67754E-05   -0.67759E-05  7696   0.250E-03 0.273E-06
  13 F= -.33463546E+03 E0= -.33460675E+03  d E =-.160084E-01  mag=    32.0000
       N       E                     dE             d eps       ncg     rms          ort
SDA:   1    -0.272401007153E+03    0.62234E+02    0.00000E+00  7696   0.104E+04 0.000E+00
CGA:   2    -0.294046371165E+03   -0.21645E+02   -0.22377E+02  7696   0.637E+03-0.270E+03
CGA:   3    -0.308934259731E+03   -0.14888E+02   -0.14939E+02  7696   0.206E+03-0.587E+02
CGA:   4    -0.312341169022E+03   -0.34069E+01   -0.33606E+01  7696   0.143E+03 0.129E+01
CGA:   5    -0.316460701830E+03   -0.41195E+01   -0.37599E+01  7696   0.239E+03-0.424E+02
CGA:   6    -0.317998724476E+03   -0.15380E+01   -0.23851E+01  7696   0.312E+03-0.400E+02
CGA:   7    -0.327127996079E+03   -0.91293E+01   -0.93614E+01  7696   0.363E+03-0.182E+02
CGA:   8    -0.330842519439E+03   -0.37145E+01   -0.29842E+01  7696   0.337E+02-0.428E+02
CGA:   9    -0.331318109142E+03   -0.47559E+00   -0.40117E+00  7696   0.314E+02 0.299E+01
CGA:  10    -0.331708253857E+03   -0.39014E+00   -0.36817E+00  7696   0.225E+02 0.767E+00
CGA:  11    -0.332000825382E+03   -0.29257E+00   -0.29316E+00  7696   0.389E+02-0.231E+00
CGA:  12    -0.332834218279E+03   -0.83339E+00   -0.84929E+00  7696   0.833E+02 0.109E+01
CGA:  13    -0.333529859538E+03   -0.69564E+00   -0.73877E+00  7696   0.103E+02-0.490E+01
CGA:  14    -0.333654534055E+03   -0.12467E+00   -0.11148E+00  7696   0.779E+01 0.705E+00
CGA:  15    -0.333752374049E+03   -0.97840E-01   -0.82055E-01  7696   0.486E+01 0.106E+01
CGA:  16    -0.333813421491E+03   -0.61047E-01   -0.58821E-01  7696   0.736E+01 0.116E+00
CGA:  17    -0.333971491183E+03   -0.15807E+00   -0.15366E+00  7696   0.180E+02-0.513E+00
CGA:  18    -0.334030297255E+03   -0.58806E-01   -0.56655E-01  7696   0.935E+01-0.187E+00
CGA:  19    -0.334053986460E+03   -0.23689E-01   -0.30947E-01  7696   0.378E+01-0.205E+01
CGA:  20    -0.334064071466E+03   -0.10085E-01   -0.10639E-01  7696   0.327E+01-0.141E+00
CGA:  21    -0.334081872760E+03   -0.17801E-01   -0.17779E-01  7696   0.485E+01-0.109E-02
CGA:  22    -0.334112650819E+03   -0.30778E-01   -0.30970E-01  7696   0.695E+01-0.377E-01
CGA:  23    -0.334144939209E+03   -0.32288E-01   -0.33336E-01  7696   0.593E+01-0.219E+00
CGA:  24    -0.334170203283E+03   -0.25264E-01   -0.26286E-01  7696   0.555E+01-0.189E+00
CGA:  25    -0.334201432798E+03   -0.31230E-01   -0.31414E-01  7696   0.727E+01-0.212E-01
CGA:  26    -0.334240019990E+03   -0.38587E-01   -0.34806E-01  7696   0.667E+01 0.605E+00
CGA:  27    -0.334267771065E+03   -0.27751E-01   -0.26338E-01  7696   0.357E+01 0.301E+00
CGA:  28    -0.334280293140E+03   -0.12522E-01   -0.12542E-01  7696   0.187E+01-0.821E-02
CGA:  29    -0.334287649488E+03   -0.73563E-02   -0.74144E-02  7696   0.158E+01-0.125E-01
CGA:  30    -0.334295145813E+03   -0.74963E-02   -0.75016E-02  7696   0.172E+01-0.120E-02
CGA:  31    -0.334302858050E+03   -0.77122E-02   -0.80237E-02  7696   0.155E+01-0.528E-01
SDA:  32    -0.334309243707E+03   -0.63857E-02   -0.68203E-02  7696   0.135E+01-0.728E-01
CGA:  33    -0.334329282598E+03   -0.20039E-01   -0.20042E-01  7696   0.584E+00-0.101E-02
CGA:  34    -0.334338807235E+03   -0.95246E-02   -0.95891E-02  7696   0.552E+00-0.138E-01
CGA:  35    -0.334361250179E+03   -0.22443E-01   -0.23038E-01  7696   0.663E+00-0.241E-01
CGA:  36    -0.334375025974E+03   -0.13776E-01   -0.13732E-01  7696   0.575E+00 0.499E-02
CGA:  37    -0.334382301848E+03   -0.72759E-02   -0.72667E-02  7696   0.172E+00-0.124E-02
CGA:  38    -0.334392503517E+03   -0.10202E-01   -0.99545E-02  7696   0.664E+00 0.704E-02
CGA:  39    -0.334405076434E+03   -0.12573E-01   -0.12545E-01  7696   0.200E+00 0.155E-01
CGA:  40    -0.334409251449E+03   -0.41750E-02   -0.41580E-02  7696   0.799E-01 0.359E-02
CGA:  41    -0.334412225480E+03   -0.29740E-02   -0.29794E-02  7696   0.165E+00-0.335E-03
CGA:  42    -0.334417983474E+03   -0.57580E-02   -0.56520E-02  7696   0.245E+00 0.611E-02
CGA:  43    -0.334424270354E+03   -0.62869E-02   -0.62790E-02  7696   0.801E-01 0.915E-03
CGA:  44    -0.334425112750E+03   -0.84240E-03   -0.85682E-03  7696   0.217E-01-0.493E-03
CGA:  45    -0.334426295365E+03   -0.11826E-02   -0.11921E-02  7696   0.596E-01-0.312E-03
CGA:  46    -0.334428683547E+03   -0.23882E-02   -0.22933E-02  7696   0.833E-01 0.495E-02
CGA:  47    -0.334430598830E+03   -0.19153E-02   -0.19150E-02  7696   0.378E-01-0.298E-03
CGA:  48    -0.334431318758E+03   -0.71993E-03   -0.72324E-03  7696   0.172E-01 0.516E-03
CGA:  49    -0.334431697341E+03   -0.37858E-03   -0.37859E-03  7696   0.194E-01-0.576E-05
CGA:  50    -0.334432697973E+03   -0.10006E-02   -0.97391E-03  7696   0.273E-01 0.978E-03
CGA:  51    -0.334433173417E+03   -0.47544E-03   -0.47621E-03  7696   0.849E-02 0.394E-04
CGA:  52    -0.334433415956E+03   -0.24254E-03   -0.24234E-03  7696   0.695E-02 0.258E-04
CGA:  53    -0.334433618115E+03   -0.20216E-03   -0.20231E-03  7696   0.105E-01-0.129E-04
CGA:  54    -0.334434279994E+03   -0.66188E-03   -0.62802E-03  7696   0.205E-01 0.101E-02
CGA:  55    -0.334434639471E+03   -0.35948E-03   -0.35366E-03  7696   0.674E-02 0.122E-03
CGA:  56    -0.334434844603E+03   -0.20513E-03   -0.20315E-03  7696   0.735E-02 0.260E-03
CGA:  57    -0.334435141910E+03   -0.29731E-03   -0.30307E-03  7696   0.145E-01-0.359E-03
CGA:  58    -0.334435678370E+03   -0.53646E-03   -0.55220E-03  7696   0.704E-02-0.141E-02
CGA:  59    -0.334435865829E+03   -0.18746E-03   -0.18812E-03  7696   0.666E-02-0.132E-03
CGA:  60    -0.334436047237E+03   -0.18141E-03   -0.18023E-03  7696   0.421E-02 0.598E-03
CGA:  61    -0.334436158973E+03   -0.11174E-03   -0.11135E-03  7696   0.507E-02-0.704E-04
CGA:  62    -0.334436387002E+03   -0.22803E-03   -0.25162E-03  7696   0.571E-02-0.114E-02
SDA:  63    -0.334436446844E+03   -0.59842E-04   -0.57672E-04  7696   0.338E-02 0.944E-04
CGA:  64    -0.334436553622E+03   -0.10678E-03   -0.10668E-03  7696   0.175E-02 0.127E-04
CGA:  65    -0.334436609302E+03   -0.55680E-04   -0.55700E-04  7696   0.394E-02-0.426E-05
CGA:  66    -0.334436816827E+03   -0.20753E-03   -0.21011E-03  7696   0.413E-02-0.102E-03
CGA:  67    -0.334436996463E+03   -0.17964E-03   -0.18004E-03  7696   0.595E-02-0.266E-04
CGA:  68    -0.334437102963E+03   -0.10650E-03   -0.10854E-03  7696   0.261E-02-0.175E-04
CGA:  69    -0.334437185571E+03   -0.82608E-04   -0.82619E-04  7696   0.366E-02-0.547E-05
CGA:  70    -0.334437429706E+03   -0.24414E-03   -0.24861E-03  7696   0.146E-02-0.159E-03
CGA:  71    -0.334437452568E+03   -0.22861E-04   -0.22909E-04  7696   0.130E-02-0.385E-05
CGA:  72    -0.334437579733E+03   -0.12717E-03   -0.17985E-03  7696   0.814E-02-0.786E-03
[...]
CGA:  14    -0.334843745242E+03   -0.12103E-02   -0.12163E-02  7696   0.441E-01-0.256E-03
CGA:  15    -0.334844335810E+03   -0.59057E-03   -0.58693E-03  7696   0.128E-01 0.119E-03
CGA:  16    -0.334844546758E+03   -0.21095E-03   -0.21131E-03  7696   0.538E-02-0.171E-04
CGA:  17    -0.334844741068E+03   -0.19431E-03   -0.19440E-03  7696   0.153E-01-0.967E-05
CGA:  18    -0.334845153965E+03   -0.41290E-03   -0.41292E-03  7696   0.565E-02 0.949E-05
CGA:  19    -0.334845248777E+03   -0.94812E-04   -0.94946E-04  7696   0.361E-02-0.859E-06
CGA:  20    -0.334845306620E+03   -0.57842E-04   -0.57935E-04  7696   0.127E-02-0.255E-05
CGA:  21    -0.334845355251E+03   -0.48631E-04   -0.48692E-04  7696   0.281E-02-0.498E-05
CGA:  22    -0.334845416005E+03   -0.60754E-04   -0.60699E-04  7696   0.223E-02-0.514E-05
CGA:  23    -0.334845473317E+03   -0.57312E-04   -0.57310E-04  7696   0.157E-02-0.162E-05
CGA:  24    -0.334845501196E+03   -0.27879E-04   -0.27944E-04  7696   0.100E-02 0.129E-05
CGA:  25    -0.334845517796E+03   -0.16600E-04   -0.16642E-04  7696   0.266E-03 0.198E-05
CGA:  26    -0.334845525017E+03   -0.72212E-05   -0.72206E-05  7696   0.545E-03 0.512E-06
CGA:  27    -0.334845548933E+03   -0.23916E-04   -0.23868E-04  7696   0.526E-03 0.268E-05
CGA:  28    -0.334845555728E+03   -0.67950E-05   -0.68165E-05  7696   0.171E-03 0.949E-06
  74 F= -.33484556E+03 E0= -.33481754E+03  d E =0.917108E-04  mag=    32.0000
       N       E                     dE             d eps       ncg     rms          ort
SDA:   1    -0.334758185169E+03    0.87364E-01    0.00000E+00  7696   0.196E+01 0.000E+00
CGA:   2    -0.334779766173E+03   -0.21581E-01   -0.22549E-01  7696   0.334E+00-0.537E-01
CGA:   3    -0.334786805325E+03   -0.70392E-02   -0.70189E-02  7696   0.349E+00-0.176E-02
CGA:   4    -0.334826729201E+03   -0.39924E-01   -0.39803E-01  7696   0.186E+00 0.172E-02
CGA:   5    -0.334830455408E+03   -0.37262E-02   -0.37345E-02  7696   0.116E+00 0.171E-04
CGA:   6    -0.334833453544E+03   -0.29981E-02   -0.29938E-02  7696   0.122E+00-0.487E-03
CGA:   7    -0.334837183873E+03   -0.37303E-02   -0.37336E-02  7696   0.790E-01-0.112E-02
CGA:   8    -0.334840836752E+03   -0.36529E-02   -0.36590E-02  7696   0.406E-01-0.309E-03
CGA:   9    -0.334841514929E+03   -0.67818E-03   -0.67749E-03  7696   0.246E-01 0.873E-05
CGA:  10    -0.334842143067E+03   -0.62814E-03   -0.62923E-03  7696   0.128E-01 0.108E-03
CGA:  11    -0.334842787064E+03   -0.64400E-03   -0.64391E-03  7696   0.176E-01 0.231E-05
CGA:  12    -0.334843106794E+03   -0.31973E-03   -0.31819E-03  7696   0.452E-02 0.278E-05
CGA:  13    -0.334843189300E+03   -0.82506E-04   -0.82694E-04  7696   0.234E-02-0.548E-05
CGA:  14    -0.334843379672E+03   -0.19037E-03   -0.19114E-03  7696   0.444E-02-0.141E-04
CGA:  15    -0.334843438781E+03   -0.59109E-04   -0.59012E-04  7696   0.131E-02-0.646E-05
CGA:  16    -0.334843490931E+03   -0.52150E-04   -0.52304E-04  7696   0.727E-03-0.144E-04
CGA:  17    -0.334843512434E+03   -0.21502E-04   -0.21498E-04  7696   0.662E-03-0.260E-05
CGA:  18    -0.334843543775E+03   -0.31341E-04   -0.31302E-04  7696   0.133E-02 0.230E-05
CGA:  19    -0.334843565292E+03   -0.21517E-04   -0.21538E-04  7696   0.205E-03-0.248E-07
CGA:  20    -0.334843574497E+03   -0.92054E-05   -0.92284E-05  7696   0.194E-03-0.160E-05
CGA:  21    -0.334843586020E+03   -0.11523E-04   -0.11534E-04  7696   0.428E-03-0.388E-06
CGA:  22    -0.334843594356E+03   -0.83361E-05   -0.83411E-05  7696   0.164E-03 0.227E-06
  75 F= -.33484359E+03 E0= -.33481544E+03  d E =0.196137E-02  mag=    32.0000
       N       E                     dE             d eps       ncg     rms          ort
SDA:   1    -0.334819282533E+03    0.24303E-01    0.00000E+00  7696   0.353E+00 0.000E+00
CGA:   2    -0.334824516852E+03   -0.52343E-02   -0.53699E-02  7696   0.117E+00-0.476E-02
CGA:   3    -0.334827540545E+03   -0.30237E-02   -0.30225E-02  7696   0.138E+00-0.780E-04
CGA:   4    -0.334832974778E+03   -0.54342E-02   -0.54406E-02  7696   0.149E+00-0.543E-03
CGA:   5    -0.334839548112E+03   -0.65733E-02   -0.66017E-02  7696   0.684E-01-0.172E-02
CGA:   6    -0.334840667489E+03   -0.11194E-02   -0.11163E-02  7696   0.357E-01 0.928E-04
CGA:   7    -0.334841899900E+03   -0.12324E-02   -0.12287E-02  7696   0.212E-01 0.715E-03
CGA:   8    -0.334843339124E+03   -0.14392E-02   -0.14432E-02  7696   0.313E-01-0.116E-03
CGA:   9    -0.334843982194E+03   -0.64307E-03   -0.64288E-03  7696   0.493E-02-0.153E-05
CGA:  10    -0.334844069680E+03   -0.87486E-04   -0.87462E-04  7696   0.438E-02-0.112E-06
CGA:  11    -0.334844362999E+03   -0.29332E-03   -0.29289E-03  7696   0.296E-02 0.125E-04
CGA:  12    -0.334844438633E+03   -0.75634E-04   -0.75442E-04  7696   0.172E-02-0.684E-05
CGA:  13    -0.334844468426E+03   -0.29793E-04   -0.29823E-04  7696   0.752E-03 0.456E-06
CGA:  14    -0.334844521335E+03   -0.52909E-04   -0.52780E-04  7696   0.120E-02 0.341E-05
CGA:  15    -0.334844548284E+03   -0.26949E-04   -0.27005E-04  7696   0.284E-03 0.313E-05
CGA:  16    -0.334844556068E+03   -0.77836E-05   -0.77855E-05  7696   0.388E-03 0.129E-06
CGA:  17    -0.334844566803E+03   -0.10735E-04   -0.10736E-04  7696   0.200E-03-0.403E-07
CGA:  18    -0.334844580275E+03   -0.13472E-04   -0.13513E-04  7696   0.135E-03-0.119E-05
CGA:  19    -0.334844582626E+03   -0.23511E-05   -0.23484E-05  7696   0.629E-04-0.221E-06
  76 F= -.33484458E+03 E0= -.33481648E+03  d E =-.988270E-03  mag=    32.0000
       N       E                     dE             d eps       ncg     rms          ort
SDA:   1    -0.334540280193E+03    0.30430E+00    0.00000E+00  7696   0.292E+01 0.000E+00
CGA:   2    -0.334576729741E+03   -0.36450E-01   -0.33685E-01  7696   0.934E+00 0.172E+00
CGA:   3    -0.334638270381E+03   -0.61541E-01   -0.64930E-01  7696   0.395E+01-0.105E+00
CGA:   4    -0.334720480077E+03   -0.82210E-01   -0.81666E-01  7696   0.366E+01 0.208E-05
CGA:   5    -0.334771806841E+03   -0.51327E-01   -0.52689E-01  7696   0.149E+01-0.597E-01
CGA:   6    -0.334794151250E+03   -0.22344E-01   -0.23655E-01  7696   0.704E+00-0.355E-01
CGA:   7    -0.334805371435E+03   -0.11220E-01   -0.11878E-01  7696   0.296E+00-0.138E-01
CGA:   8    -0.334813926603E+03   -0.85552E-02   -0.85578E-02  7696   0.634E+00 0.731E-03
CGA:   9    -0.334838275107E+03   -0.24349E-01   -0.24336E-01  7696   0.155E+00 0.117E-02
CGA:  10    -0.334839976638E+03   -0.17015E-02   -0.17230E-02  7696   0.520E-01-0.139E-02
CGA:  11    -0.334842158404E+03   -0.21818E-02   -0.21886E-02  7696   0.791E-01-0.447E-03
CGA:  12    -0.334844353601E+03   -0.21952E-02   -0.21926E-02  7696   0.602E-01-0.345E-03
CGA:  13    -0.334845390264E+03   -0.10367E-02   -0.10399E-02  7696   0.339E-01-0.460E-04
CGA:  14    -0.334846276915E+03   -0.88665E-03   -0.88996E-03  7696   0.137E-01 0.315E-03
CGA:  15    -0.334846560851E+03   -0.28394E-03   -0.28368E-03  7696   0.147E-01 0.363E-05
CGA:  16    -0.334847268514E+03   -0.70766E-03   -0.70488E-03  7696   0.147E-01 0.137E-03
CGA:  17    -0.334847509379E+03   -0.24087E-03   -0.24105E-03  7696   0.726E-02-0.580E-06
CGA:  18    -0.334847670333E+03   -0.16095E-03   -0.16026E-03  7696   0.256E-02-0.186E-04
CGA:  19    -0.334847776790E+03   -0.10646E-03   -0.10647E-03  7696   0.619E-02-0.142E-05
CGA:  20    -0.334847938973E+03   -0.16218E-03   -0.16211E-03  7696   0.388E-02-0.114E-04
CGA:  21    -0.334848005237E+03   -0.66264E-04   -0.66138E-04  7696   0.645E-03-0.421E-06
CGA:  22    -0.334848029691E+03   -0.24454E-04   -0.24431E-04  7696   0.165E-02 0.237E-05
CGA:  23    -0.334848078929E+03   -0.49238E-04   -0.49238E-04  7696   0.942E-03 0.210E-05
CGA:  24    -0.334848113527E+03   -0.34597E-04   -0.34617E-04  7696   0.115E-02-0.218E-05
CGA:  25    -0.334848131246E+03   -0.17719E-04   -0.17720E-04  7696   0.210E-03 0.724E-06
CGA:  26    -0.334848136818E+03   -0.55722E-05   -0.55695E-05  7696   0.262E-03-0.100E-05
CGA:  27    -0.334848146867E+03   -0.10049E-04   -0.10068E-04  7696   0.476E-03-0.195E-05
CGA:  28    -0.334848160019E+03   -0.13153E-04   -0.13151E-04  7696   0.212E-03-0.102E-05
CGA:  29    -0.334848165060E+03   -0.50410E-05   -0.50449E-05  7696   0.126E-03 0.576E-06
  77 F= -.33484817E+03 E0= -.33482022E+03  d E =-.358243E-02  mag=    32.0000
       N       E                     dE             d eps       ncg     rms          ort
SDA:   1    -0.334722970512E+03    0.12519E+00    0.00000E+00  7696   0.428E+01 0.000E+00
CGA:   2    -0.334763837137E+03   -0.40867E-01   -0.45493E-01  7696   0.543E+00-0.307E+00
CGA:   3    -0.334777426671E+03   -0.13590E-01   -0.13583E-01  7696   0.497E+00-0.451E-02
CGA:   4    -0.334801816719E+03   -0.24390E-01   -0.24127E-01  7696   0.764E+00 0.114E-01
CGA:   5    -0.334820129974E+03   -0.18313E-01   -0.18279E-01  7696   0.440E+00-0.179E-02
CGA:   6    -0.334828831922E+03   -0.87019E-02   -0.86142E-02  7696   0.106E+00-0.486E-03
CGA:   7    -0.334835003159E+03   -0.61712E-02   -0.61570E-02  7696   0.292E+00 0.483E-03
CGA:   8    -0.334842813542E+03   -0.78104E-02   -0.78104E-02  7696   0.891E-01 0.813E-05
CGA:   9    -0.334844456096E+03   -0.16426E-02   -0.16513E-02  7696   0.299E-01-0.800E-04
CGA:  10    -0.334845673169E+03   -0.12171E-02   -0.12222E-02  7696   0.488E-01-0.342E-03
CGA:  11    -0.334846746750E+03   -0.10736E-02   -0.10726E-02  7696   0.239E-01-0.423E-04
CGA:  12    -0.334847595992E+03   -0.84924E-03   -0.84790E-03  7696   0.152E-01 0.145E-03
CGA:  13    -0.334847860994E+03   -0.26500E-03   -0.26480E-03  7696   0.535E-02 0.310E-06
CGA:  14    -0.334848051463E+03   -0.19047E-03   -0.19031E-03  7696   0.613E-02 0.175E-04
CGA:  15    -0.334848313097E+03   -0.26163E-03   -0.26190E-03  7696   0.476E-02-0.156E-04
CGA:  16    -0.334848415242E+03   -0.10215E-03   -0.10233E-03  7696   0.222E-02 0.767E-05
CGA:  17    -0.334848459929E+03   -0.44687E-04   -0.44667E-04  7696   0.101E-02-0.773E-06
CGA:  18    -0.334848520612E+03   -0.60683E-04   -0.60708E-04  7696   0.297E-02-0.835E-06
CGA:  19    -0.334848588507E+03   -0.67895E-04   -0.67862E-04  7696   0.716E-03-0.385E-05
CGA:  20    -0.334848601804E+03   -0.13297E-04   -0.13276E-04  7696   0.240E-03-0.709E-06
CGA:  21    -0.334848616218E+03   -0.14414E-04   -0.14388E-04  7696   0.668E-03 0.858E-06
CGA:  22    -0.334848635375E+03   -0.19157E-04   -0.19158E-04  7696   0.359E-03 0.239E-06
CGA:  23    -0.334848646741E+03   -0.11366E-04   -0.11366E-04  7696   0.203E-03 0.313E-06
CGA:  24    -0.334848650932E+03   -0.41906E-05   -0.41973E-05  7696   0.126E-03 0.619E-06
  78 F= -.33484865E+03 E0= -.33482070E+03  d E =-.485872E-03  mag=    32.0000
       N       E                     dE             d eps       ncg     rms          ort
SDA:   1    -0.334406437626E+03    0.44221E+00    0.00000E+00  7696   0.541E+01 0.000E+00
CGA:   2    -0.334470276390E+03   -0.63839E-01   -0.73323E-01  7696   0.180E+01-0.426E+00
CGA:   3    -0.334543834342E+03   -0.73558E-01   -0.73827E-01  7696   0.374E+01-0.158E-01
CGA:   4    -0.334709055665E+03   -0.16522E+00   -0.16580E+00  7696   0.257E+01-0.315E-01
CGA:   5    -0.334757246093E+03   -0.48190E-01   -0.48173E-01  7696   0.123E+01-0.110E-02
CGA:   6    -0.334781924705E+03   -0.24679E-01   -0.23308E-01  7696   0.410E+00 0.147E-01
CGA:   7    -0.334806892707E+03   -0.24968E-01   -0.24797E-01  7696   0.844E+00 0.572E-02
CGA:   8    -0.334829188366E+03   -0.22296E-01   -0.22224E-01  7696   0.405E+00-0.375E-02
CGA:   9    -0.334836484532E+03   -0.72962E-02   -0.74909E-02  7696   0.118E+00-0.271E-02
CGA:  10    -0.334840449628E+03   -0.39651E-02   -0.39707E-02  7696   0.699E-01-0.103E-02
CGA:  11    -0.334842752343E+03   -0.23027E-02   -0.23026E-02  7696   0.106E+00 0.186E-04
CGA:  12    -0.334845553421E+03   -0.28011E-02   -0.27991E-02  7696   0.493E-01-0.150E-03
CGA:  13    -0.334846502996E+03   -0.94958E-03   -0.94512E-03  7696   0.145E-01 0.300E-04
CGA:  14    -0.334846952633E+03   -0.44964E-03   -0.44957E-03  7696   0.227E-01 0.439E-04
CGA:  15    -0.334847930693E+03   -0.97806E-03   -0.97852E-03  7696   0.119E-01-0.264E-04
CGA:  16    -0.334848204901E+03   -0.27421E-03   -0.27468E-03  7696   0.378E-02 0.175E-04
CGA:  17    -0.334848314234E+03   -0.10933E-03   -0.10933E-03  7696   0.440E-02-0.314E-05
CGA:  18    -0.334848497986E+03   -0.18375E-03   -0.18358E-03  7696   0.562E-02 0.110E-04
CGA:  19    -0.334848661831E+03   -0.16385E-03   -0.16381E-03  7696   0.153E-02-0.134E-04
CGA:  20    -0.334848686699E+03   -0.24868E-04   -0.24839E-04  7696   0.873E-03-0.784E-06
CGA:  21    -0.334848729220E+03   -0.42521E-04   -0.42432E-04  7696   0.167E-02 0.464E-05
CGA:  22    -0.334848792698E+03   -0.63478E-04   -0.63486E-04  7696   0.101E-02-0.292E-06
CGA:  23    -0.334848811243E+03   -0.18545E-04   -0.18577E-04  7696   0.447E-03 0.111E-05
CGA:  24    -0.334848826285E+03   -0.15042E-04   -0.15048E-04  7696   0.332E-03-0.163E-05
CGA:  25    -0.334848844448E+03   -0.18163E-04   -0.18128E-04  7696   0.566E-03 0.141E-05
CGA:  26    -0.334848862636E+03   -0.18188E-04   -0.18188E-04  7696   0.409E-03 0.114E-05
CGA:  27    -0.334848870484E+03   -0.78489E-05   -0.78735E-05  7696   0.130E-03 0.124E-05
  79 F= -.33484887E+03 E0= -.33482082E+03  d E =-.219552E-03  mag=    32.0000
       N       E                     dE             d eps       ncg     rms          ort
SDA:   1    -0.334718318876E+03    0.13054E+00    0.00000E+00  7696   0.497E+01 0.000E+00
CGA:   2    -0.334775711700E+03   -0.57393E-01   -0.45954E-01  7696   0.511E+00 0.984E+00
CGA:   3    -0.334785358322E+03   -0.96466E-02   -0.90766E-02  7696   0.362E+00 0.207E-01
CGA:   4    -0.334794658362E+03   -0.93000E-02   -0.92982E-02  7696   0.586E+00-0.850E-04
CGA:   5    -0.334809815875E+03   -0.15158E-01   -0.15212E-01  7696   0.840E+00 0.497E-02
CGA:   6    -0.334823476008E+03   -0.13660E-01   -0.13570E-01  7696   0.496E+00 0.245E-02
CGA:   7    -0.334831254218E+03   -0.77782E-02   -0.79088E-02  7696   0.235E+00-0.294E-02
CGA:   8    -0.334834181462E+03   -0.29272E-02   -0.29653E-02  7696   0.109E+00-0.171E-02
CGA:   9    -0.334837625105E+03   -0.34436E-02   -0.34594E-02  7696   0.203E+00-0.221E-02
CGA:  10    -0.334840721580E+03   -0.30965E-02   -0.30299E-02  7696   0.122E+00 0.173E-02
CGA:  11    -0.334843590304E+03   -0.28687E-02   -0.28683E-02  7696   0.199E+00-0.647E-05
CGA:  12    -0.334846701102E+03   -0.31108E-02   -0.32019E-02  7696   0.449E-01-0.124E-02
CGA:  13    -0.334847122763E+03   -0.42166E-03   -0.42701E-03  7696   0.144E-01-0.365E-03
CGA:  14    -0.334847619756E+03   -0.49699E-03   -0.49712E-03  7696   0.355E-01-0.106E-04
CGA:  15    -0.334848475747E+03   -0.85599E-03   -0.85516E-03  7696   0.341E-01-0.194E-03
CGA:  16    -0.334848978205E+03   -0.50246E-03   -0.50403E-03  7696   0.136E-01-0.343E-04
CGA:  17    -0.334849194967E+03   -0.21676E-03   -0.21790E-03  7696   0.104E-01-0.409E-05
CGA:  18    -0.334849397731E+03   -0.20276E-03   -0.20377E-03  7696   0.442E-02 0.462E-04
CGA:  19    -0.334849458306E+03   -0.60574E-04   -0.60437E-04  7696   0.314E-02 0.206E-05
CGA:  20    -0.334849610136E+03   -0.15183E-03   -0.15175E-03  7696   0.743E-02 0.321E-05
CGA:  21    -0.334849714508E+03   -0.10437E-03   -0.10439E-03  7696   0.297E-02-0.263E-05
CGA:  22    -0.334849781398E+03   -0.66891E-04   -0.66854E-04  7696   0.242E-02-0.941E-05
CGA:  23    -0.334849814938E+03   -0.33540E-04   -0.33389E-04  7696   0.125E-02 0.995E-06
CGA:  24    -0.334849858215E+03   -0.43277E-04   -0.43255E-04  7696   0.267E-02 0.228E-05
CGA:  25    -0.334849906545E+03   -0.48330E-04   -0.48414E-04  7696   0.126E-02 0.758E-05
CGA:  26    -0.334849924858E+03   -0.18314E-04   -0.18352E-04  7696   0.533E-03 0.148E-05
CGA:  27    -0.334849934925E+03   -0.10067E-04   -0.10052E-04  7696   0.534E-03-0.218E-05
CGA:  28    -0.334849948165E+03   -0.13240E-04   -0.13250E-04  7696   0.404E-03-0.593E-05
CGA:  29    -0.334849954948E+03   -0.67828E-05   -0.67738E-05  7696   0.418E-03-0.146E-05
CGA:  30    -0.334849973958E+03   -0.19010E-04   -0.19068E-04  7696   0.667E-03-0.258E-05
CGA:  31    -0.334849980795E+03   -0.68368E-05   -0.68081E-05  7696   0.936E-04-0.164E-05
  80 F= -.33484998E+03 E0= -.33482199E+03  d E =-.111031E-02  mag=    32.0000
       N       E                     dE             d eps       ncg     rms          ort
SDA:   1    -0.334787366852E+03    0.62607E-01    0.00000E+00  7696   0.322E+01 0.000E+00
CGA:   2    -0.334818279221E+03   -0.30912E-01   -0.29071E-01  7696   0.113E+00 0.144E+00
CGA:   3    -0.334823079889E+03   -0.48007E-02   -0.48183E-02  7696   0.249E+00-0.938E-03
CGA:   4    -0.334832367819E+03   -0.92879E-02   -0.92096E-02  7696   0.327E+00 0.498E-02
CGA:   5    -0.334839965324E+03   -0.75975E-02   -0.75870E-02  7696   0.148E+00-0.249E-02
CGA:   6    -0.334843805745E+03   -0.38404E-02   -0.38426E-02  7696   0.662E-01-0.723E-03
CGA:   7    -0.334845025410E+03   -0.12197E-02   -0.12216E-02  7696   0.491E-01 0.610E-04
CGA:   8    -0.334846950058E+03   -0.19246E-02   -0.19439E-02  7696   0.411E-01-0.112E-02
CGA:   9    -0.334848748858E+03   -0.17988E-02   -0.17912E-02  7696   0.434E-01 0.362E-03
CGA:  10    -0.334849294075E+03   -0.54522E-03   -0.55212E-03  7696   0.469E-02-0.256E-03
CGA:  11    -0.334849785171E+03   -0.49110E-03   -0.48650E-03  7696   0.108E-01 0.710E-04
CGA:  12    -0.334850009187E+03   -0.22402E-03   -0.22357E-03  7696   0.656E-02-0.101E-04
CGA:  13    -0.334850123764E+03   -0.11458E-03   -0.11430E-03  7696   0.855E-03 0.131E-05
CGA:  14    -0.334850184886E+03   -0.61121E-04   -0.60781E-04  7696   0.243E-02 0.859E-05
CGA:  15    -0.334850232633E+03   -0.47747E-04   -0.47723E-04  7696   0.106E-02-0.767E-06
CGA:  16    -0.334850285607E+03   -0.52974E-04   -0.53161E-04  7696   0.251E-03-0.861E-05
CGA:  17    -0.334850294759E+03   -0.91521E-05   -0.91584E-05  7696   0.336E-03-0.929E-06
CGA:  18    -0.334850308359E+03   -0.13600E-04   -0.13585E-04  7696   0.513E-03 0.163E-05
CGA:  19    -0.334850318796E+03   -0.10437E-04   -0.10452E-04  7696   0.202E-03 0.138E-05
CGA:  20    -0.334850323313E+03   -0.45171E-05   -0.45276E-05  7696   0.507E-04 0.948E-06
  81 F= -.33485032E+03 E0= -.33482237E+03  d E =-.342519E-03  mag=    32.0000
       N       E                     dE             d eps       ncg     rms          ort
SDA:   1    -0.334824731659E+03    0.25587E-01    0.00000E+00  7696   0.295E+00 0.000E+00
CGA:   2    -0.334829207936E+03   -0.44763E-02   -0.43248E-02  7696   0.148E+00 0.692E-02
CGA:   3    -0.334834140599E+03   -0.49327E-02   -0.48870E-02  7696   0.913E-01-0.582E-02
CGA:   4    -0.334838080850E+03   -0.39403E-02   -0.39378E-02  7696   0.252E+00 0.179E-03
CGA:   5    -0.334845404734E+03   -0.73239E-02   -0.72988E-02  7696   0.845E-01-0.969E-03
CGA:   6    -0.334847486015E+03   -0.20813E-02   -0.21056E-02  7696   0.286E-01 0.221E-03
CGA:   7    -0.334848157529E+03   -0.67151E-03   -0.67237E-03  7696   0.274E-01 0.466E-05
CGA:   8    -0.334849120175E+03   -0.96265E-03   -0.96260E-03  7696   0.417E-01 0.365E-04
CGA:   9    -0.334850281143E+03   -0.11610E-02   -0.11601E-02  7696   0.307E-02-0.363E-04
CGA:  10    -0.334850531735E+03   -0.25059E-03   -0.25155E-03  7696   0.100E-01-0.210E-04
CGA:  11    -0.334850699641E+03   -0.16791E-03   -0.16801E-03  7696   0.270E-02-0.451E-05
CGA:  12    -0.334850751963E+03   -0.52322E-04   -0.52379E-04  7696   0.987E-03-0.769E-06
CGA:  13    -0.334850798050E+03   -0.46087E-04   -0.46074E-04  7696   0.123E-02 0.106E-05
CGA:  14    -0.334850842927E+03   -0.44877E-04   -0.44874E-04  7696   0.148E-02 0.228E-05
CGA:  15    -0.334850868719E+03   -0.25793E-04   -0.25716E-04  7696   0.283E-03 0.179E-05
CGA:  16    -0.334850880080E+03   -0.11361E-04   -0.11350E-04  7696   0.343E-03 0.165E-05
CGA:  17    -0.334850886571E+03   -0.64906E-05   -0.64984E-05  7696   0.230E-03 0.871E-07
CGA:  18    -0.334850901102E+03   -0.14531E-04   -0.14589E-04  7696   0.240E-03-0.197E-05
CGA:  19    -0.334850905687E+03   -0.45854E-05   -0.45702E-05  7696   0.303E-04-0.782E-06
  82 F= -.33485091E+03 E0= -.33482296E+03  d E =-.582374E-03  mag=    32.0000
