       N       E                     dE             d eps       ncg     rms          rms(c)
DAV:   1     0.407448267405E+04    0.40745E+04   -0.20789E+05 78820   0.157E+03
DAV:   2    -0.228412172284E+03   -0.43029E+04   -0.41860E+04 87760   0.455E+02
DAV:   3    -0.601183127605E+03   -0.37277E+03   -0.36883E+03 88740   0.152E+02
DAV:   4    -0.610621906065E+03   -0.94388E+01   -0.94031E+01 89820   0.301E+01
DAV:   5    -0.610893109442E+03   -0.27120E+00   -0.27101E+00 91140   0.479E+00    0.121E+02
DAV:   6    -0.385412742321E+03    0.22548E+03   -0.19265E+02102420   0.853E+01    0.320E+01
DAV:   7    -0.391757651255E+03   -0.63449E+01   -0.57070E+01102780   0.494E+01    0.369E+01
DAV:   8    -0.384136918063E+03    0.76207E+01   -0.11384E+01103520   0.248E+01    0.109E+01
DAV:   9    -0.384249683124E+03   -0.11277E+00   -0.39586E+00104340   0.127E+01    0.786E+00
DAV:  10    -0.383837589073E+03    0.41209E+00   -0.66590E-01107300   0.501E+00    0.154E+00
DAV:  11    -0.383829322799E+03    0.82663E-02   -0.17084E-01 86980   0.160E+00    0.104E+00
DAV:  12    -0.383851677784E+03   -0.22355E-01   -0.42682E-02 99960   0.883E-01    0.790E-01
DAV:  13    -0.383852204158E+03   -0.52637E-03   -0.80528E-03 99920   0.431E-01    0.484E-01
DAV:  14    -0.383850614199E+03    0.15900E-02   -0.31971E-03104320   0.262E-01    0.258E-01
DAV:  15    -0.383850617159E+03   -0.29600E-05   -0.25953E-03102460   0.200E-01    0.124E-01
DAV:  16    -0.383850976830E+03   -0.35967E-03   -0.42310E-04105060   0.102E-01    0.718E-02
DAV:  17    -0.383850962496E+03    0.14334E-04   -0.17887E-04 87000   0.505E-02    0.393E-02
DAV:  18    -0.383850981785E+03   -0.19289E-04   -0.35735E-05 72280   0.262E-02    0.146E-02
DAV:  19    -0.383850987146E+03   -0.53612E-05   -0.78750E-06 49600   0.105E-02
   1 F= -.38385099E+03 E0= -.38385099E+03  d E =-.383851E+03  mag=     0.0094
       N       E                     dE             d eps       ncg     rms          rms(c)
DAV:   1    -0.383831871901E+03    0.19110E-01   -0.14761E+00 90160   0.742E+00    0.518E-01
DAV:   2    -0.383850189558E+03   -0.18318E-01   -0.21810E-01 79200   0.130E+00    0.395E-01
DAV:   3    -0.383850310433E+03   -0.12087E-03   -0.58388E-03 86320   0.264E-01    0.219E-01
DAV:   4    -0.383850284269E+03    0.26163E-04   -0.18855E-03104460   0.197E-01    0.192E-01
DAV:   5    -0.383850157240E+03    0.12703E-03   -0.37210E-04 94500   0.118E-01    0.531E-02
DAV:   6    -0.383850135532E+03    0.21708E-04   -0.13579E-04 88060   0.585E-02    0.277E-02
DAV:   7    -0.383850138543E+03   -0.30106E-05   -0.23904E-05 60280   0.223E-02
   2 F= -.38385014E+03 E0= -.38385014E+03  d E =0.848603E-03  mag=     0.0013
       N       E                     dE             d eps       ncg     rms          rms(c)
DAV:   1    -0.383846990907E+03    0.31446E-02   -0.43063E-01 90080   0.401E+00    0.278E-01
DAV:   2    -0.383852499067E+03   -0.55082E-02   -0.63499E-02 79120   0.709E-01    0.221E-01
DAV:   3    -0.383852533653E+03   -0.34586E-04   -0.16908E-03 85440   0.144E-01    0.121E-01
DAV:   4    -0.383852502975E+03    0.30677E-04   -0.52082E-04103820   0.109E-01    0.113E-01
DAV:   5    -0.383852452619E+03    0.50356E-04   -0.12823E-04 98240   0.661E-02    0.287E-02
DAV:   6    -0.383852445392E+03    0.72275E-05   -0.35603E-05 73620   0.310E-02
   3 F= -.38385245E+03 E0= -.38385245E+03  d E =-.145825E-02  mag=     0.0002
       N       E                     dE             d eps       ncg     rms          rms(c)
DAV:   1    -0.383843946266E+03    0.85064E-02   -0.14327E+00 85720   0.536E+00    0.327E-01
DAV:   2    -0.383855422634E+03   -0.11476E-01   -0.11019E-01 78800   0.922E-01    0.190E-01
DAV:   3    -0.383855265024E+03    0.15761E-03   -0.17882E-03 93160   0.147E-01    0.106E-01
DAV:   4    -0.383855158809E+03    0.10622E-03   -0.29587E-04106260   0.991E-02    0.104E-01
DAV:   5    -0.383855083504E+03    0.75304E-04   -0.13033E-04102500   0.524E-02    0.301E-02
DAV:   6    -0.383855078866E+03    0.46384E-05   -0.23501E-05 66260   0.251E-02
   4 F= -.38385508E+03 E0= -.38385508E+03  d E =-.263347E-02  mag=     0.0000
       N       E                     dE             d eps       ncg     rms          rms(c)
DAV:   1    -0.383852662015E+03    0.24215E-02   -0.35834E-01 85520   0.267E+00    0.165E-01
DAV:   2    -0.383855555386E+03   -0.28934E-02   -0.27495E-02 78920   0.459E-01    0.916E-02
DAV:   3    -0.383855489844E+03    0.65542E-04   -0.43565E-04 93920   0.687E-02    0.502E-02
DAV:   4    -0.383855450266E+03    0.39577E-04   -0.77583E-05 93740   0.454E-02    0.465E-02
DAV:   5    -0.383855432491E+03    0.17775E-04   -0.19828E-05 62840   0.237E-02    0.123E-02
DAV:   6    -0.383855429606E+03    0.28854E-05   -0.81249E-06 47240   0.138E-02
   5 F= -.38385543E+03 E0= -.38385543E+03  d E =-.298421E-02  mag=     0.0000
       N       E                     dE             d eps       ncg     rms          rms(c)
DAV:   1    -0.383855440636E+03   -0.81452E-05   -0.29455E-01 85360   0.164E+00    0.121E-01
DAV:   2    -0.383856681300E+03   -0.12407E-02   -0.98907E-03 78920   0.308E-01    0.726E-02
DAV:   3    -0.383856640939E+03    0.40361E-04   -0.12992E-04 86680   0.453E-02    0.430E-02
DAV:   4    -0.383856627557E+03    0.13382E-04   -0.52922E-05 78760   0.293E-02    0.265E-02
DAV:   5    -0.383856622968E+03    0.45888E-05   -0.10100E-05 54960   0.234E-02    0.145E-02
DAV:   6    -0.383856625713E+03   -0.27444E-05   -0.57747E-06 45160   0.111E-02
   6 F= -.38385663E+03 E0= -.38385663E+03  d E =-.119611E-02  mag=     0.0000
       N       E                     dE             d eps       ncg     rms          rms(c)
DAV:   1    -0.383853821168E+03    0.28018E-02   -0.89556E-01 85280   0.286E+00    0.213E-01
DAV:   2    -0.383857545920E+03   -0.37248E-02   -0.29900E-02 78800   0.534E-01    0.125E-01
DAV:   3    -0.383857434982E+03    0.11094E-03   -0.39555E-04 85440   0.759E-02    0.725E-02
DAV:   4    -0.383857387834E+03    0.47148E-04   -0.17195E-04 91200   0.498E-02    0.353E-02
DAV:   5    -0.383857384396E+03    0.34373E-05   -0.27047E-05 71680   0.332E-02    0.185E-02
DAV:   6    -0.383857388561E+03   -0.41652E-05   -0.97932E-06 47200   0.167E-02
   7 F= -.38385739E+03 E0= -.38385739E+03  d E =-.195896E-02  mag=     0.0000
       N       E                     dE             d eps       ncg     rms          rms(c)
DAV:   1    -0.383857379580E+03    0.48165E-05   -0.26629E-03 85560   0.156E-01    0.120E-02
DAV:   2    -0.383857389151E+03   -0.95709E-05   -0.92580E-05 80080   0.300E-02    0.849E-03
DAV:   3    -0.383857389700E+03   -0.54979E-06   -0.12690E-06 41540   0.601E-03    0.489E-03
DAV:   4    -0.383857389804E+03   -0.10303E-06   -0.59075E-07 41420   0.431E-03    0.422E-03
DAV:   5    -0.383857389720E+03    0.83375E-07   -0.43018E-07 41060   0.294E-03    0.103E-03
DAV:   6    -0.383857389405E+03    0.31551E-06   -0.11595E-07 40940   0.128E-03
   8 F= -.38385739E+03 E0= -.38385739E+03  d E =-.195980E-02  mag=     0.0000
       N       E                     dE             d eps       ncg     rms          rms(c)
DAV:   1    -0.383857517460E+03   -0.12774E-03   -0.18332E-02 85520   0.540E-01    0.445E-02
DAV:   2    -0.383857648353E+03   -0.13089E-03   -0.11484E-03 79000   0.103E-01    0.457E-02
DAV:   3    -0.383857650656E+03   -0.23033E-05   -0.18041E-05 59220   0.185E-02    0.239E-02
DAV:   4    -0.383857660392E+03   -0.97355E-05   -0.60831E-06 47000   0.145E-02    0.252E-02
DAV:   5    -0.383857668758E+03   -0.83666E-05   -0.59800E-06 45020   0.123E-02    0.369E-03
DAV:   6    -0.383857668614E+03    0.14462E-06   -0.18006E-06 42180   0.559E-03
   9 F= -.38385767E+03 E0= -.38385767E+03  d E =-.279209E-03  mag=     0.0000
       N       E                     dE             d eps       ncg     rms          rms(c)
DAV:   1    -0.383857114045E+03    0.55471E-03   -0.11440E-01 85840   0.135E+00    0.113E-01
DAV:   2    -0.383857941907E+03   -0.82786E-03   -0.71562E-03 78880   0.256E-01    0.114E-01
DAV:   3    -0.383857941878E+03    0.29097E-07   -0.12547E-04 94300   0.460E-02    0.644E-02
DAV:   4    -0.383857962595E+03   -0.20717E-04   -0.53074E-05 82480   0.370E-02    0.593E-02
DAV:   5    -0.383857971942E+03   -0.93472E-05   -0.21496E-05 63440   0.288E-02    0.102E-02
DAV:   6    -0.383857974159E+03   -0.22170E-05   -0.69436E-06 46320   0.117E-02
  10 F= -.38385797E+03 E0= -.38385797E+03  d E =-.584754E-03  mag=     0.0000
       N       E                     dE             d eps       ncg     rms          rms(c)
DAV:   1    -0.383858079023E+03   -0.10708E-03   -0.14645E-02 82080   0.424E-01    0.248E-02
DAV:   2    -0.383858164789E+03   -0.85766E-04   -0.57716E-04 79080   0.733E-02    0.170E-02
DAV:   3    -0.383858160665E+03    0.41242E-05   -0.59326E-06 49200   0.115E-02    0.846E-03
DAV:   4    -0.383858157858E+03    0.28070E-05   -0.20230E-06 45080   0.833E-03    0.963E-03
DAV:   5    -0.383858155869E+03    0.19893E-05   -0.17772E-06 42320   0.603E-03    0.143E-03
DAV:   6    -0.383858156208E+03   -0.33923E-06   -0.55930E-07 41280   0.284E-03
  11 F= -.38385816E+03 E0= -.38385816E+03  d E =-.182049E-03  mag=     0.0000
       N       E                     dE             d eps       ncg     rms          rms(c)
DAV:   1    -0.383857907384E+03    0.24849E-03   -0.13221E-01 82040   0.127E+00    0.729E-02
DAV:   2    -0.383858627398E+03   -0.72001E-03   -0.51915E-03 78760   0.219E-01    0.468E-02
DAV:   3    -0.383858610819E+03    0.16578E-04   -0.60880E-05 88000   0.311E-02    0.244E-02
DAV:   4    -0.383858601474E+03    0.93454E-05   -0.90253E-06 49080   0.193E-02    0.281E-02
DAV:   5    -0.383858595768E+03    0.57063E-05   -0.11001E-05 48280   0.175E-02    0.578E-03
DAV:   6    -0.383858596301E+03   -0.53371E-06   -0.47555E-06 44960   0.801E-03
  12 F= -.38385860E+03 E0= -.38385860E+03  d E =-.622142E-03  mag=     0.0000
       N       E                     dE             d eps       ncg     rms          rms(c)
DAV:   1    -0.383856316962E+03    0.22788E-02   -0.52868E-01 82000   0.255E+00    0.146E-01
DAV:   2    -0.383859141705E+03   -0.28247E-02   -0.20761E-02 78720   0.437E-01    0.922E-02
DAV:   3    -0.383859095824E+03    0.45881E-04   -0.24511E-04 91880   0.618E-02    0.487E-02
DAV:   4    -0.383859071243E+03    0.24580E-04   -0.44737E-05 78760   0.381E-02    0.514E-02
DAV:   5    -0.383859054129E+03    0.17115E-04   -0.32055E-05 64280   0.311E-02    0.903E-03
DAV:   6    -0.383859054249E+03   -0.12055E-06   -0.10771E-05 47920   0.139E-02
  13 F= -.38385905E+03 E0= -.38385905E+03  d E =-.108009E-02  mag=     0.0000
       N       E                     dE             d eps       ncg     rms          rms(c)
DAV:   1    -0.383858890909E+03    0.16322E-03   -0.34682E-02 82040   0.653E-01    0.407E-02
DAV:   2    -0.383859090980E+03   -0.20007E-03   -0.13701E-03 78800   0.113E-01    0.221E-02
DAV:   3    -0.383859083540E+03    0.74398E-05   -0.13631E-05 49880   0.152E-02    0.116E-02
DAV:   4    -0.383859080870E+03    0.26704E-05   -0.45554E-06 47140   0.108E-02    0.130E-02
DAV:   5    -0.383859079685E+03    0.11844E-05   -0.28030E-06 44360   0.863E-03    0.246E-03
DAV:   6    -0.383859079966E+03   -0.28097E-06   -0.10446E-06 43280   0.434E-03
  14 F= -.38385908E+03 E0= -.38385908E+03  d E =-.110581E-02  mag=     0.0000
       N       E                     dE             d eps       ncg     rms          rms(c)
DAV:   1    -0.383858865767E+03    0.21392E-03   -0.10781E-01 92520   0.126E+00    0.959E-02
DAV:   2    -0.383859474333E+03   -0.60857E-03   -0.53920E-03 79080   0.224E-01    0.651E-02
DAV:   3    -0.383859430164E+03    0.44169E-04   -0.10587E-04 91760   0.370E-02    0.372E-02
DAV:   4    -0.383859403345E+03    0.26819E-04   -0.40804E-05 78120   0.296E-02    0.244E-02
DAV:   5    -0.383859395506E+03    0.78394E-05   -0.71773E-06 51880   0.187E-02    0.766E-03
DAV:   6    -0.383859395033E+03    0.47224E-06   -0.33778E-06 46140   0.938E-03
  15 F= -.38385940E+03 E0= -.38385940E+03  d E =-.315067E-03  mag=     0.0000
