       N       E                     dE             d eps       ncg     rms          ort
DAV:   1     0.640748872118E+04    0.64075E+04   -0.31699E+05  8320   0.178E+03
DAV:   2     0.359615180176E+03   -0.60479E+04   -0.56603E+04  8320   0.512E+02
DAV:   3    -0.291456006593E+03   -0.65107E+03   -0.63082E+03  8320   0.189E+02
DAV:   4    -0.311130762607E+03   -0.19675E+02   -0.19512E+02  8320   0.353E+01
DAV:   5    -0.311579564645E+03   -0.44880E+00   -0.44692E+00  8320   0.520E+00
SDA:   6     0.989044112019E+02    0.41048E+03   -0.44692E+00  8320   0.299E+04 0.000E+00
CGA:   7     0.241986575450E+02   -0.74706E+02   -0.14078E+03  8320   0.931E+04-0.120E+04
CGA:   8     0.297105276755E+03    0.27291E+03   -0.19814E+03  8320   0.210E+05-0.106E+04
CGA:   9     0.275636199716E+04    0.24593E+04   -0.80584E+03  8320   0.201E+05 0.102E+05
CGA:  10     0.285030633948E+04    0.93944E+02   -0.16315E+04  8320   0.715E+04-0.125E+04
CGA:  11     0.198987833372E+04   -0.86043E+03   -0.47111E+03  8320   0.956E+04 0.106E+04
CGA:  12     0.156533452448E+04   -0.42454E+03   -0.65479E+03  8320   0.681E+04 0.303E+04
CGA:  13     0.917500198779E+03   -0.64783E+03   -0.74990E+03  8320   0.388E+04 0.884E+03
CGA:  14     0.580098870882E+03   -0.33740E+03   -0.40823E+03  8320   0.177E+04 0.258E+03
CGA:  15     0.377678409335E+03   -0.20242E+03   -0.21431E+03  8320   0.122E+04 0.153E+03
CGA:  16     0.222107859646E+03   -0.15557E+03   -0.15788E+03  8320   0.115E+04 0.787E+02
CGA:  17     0.105660622830E+03   -0.11645E+03   -0.12273E+03  8320   0.742E+03 0.820E+02
CGA:  18     0.248093966545E+02   -0.80851E+02   -0.83968E+02  8320   0.570E+03 0.568E+02
CGA:  19    -0.290482282126E+02   -0.53858E+02   -0.59101E+02  8320   0.476E+03 0.180E+02
CGA:  20    -0.631644623185E+02   -0.34116E+02   -0.36480E+02  8320   0.396E+03-0.510E+02
CGA:  21    -0.915396074341E+02   -0.28375E+02   -0.28985E+02  8320   0.286E+03-0.302E+02
CGA:  22    -0.107016941915E+03   -0.15477E+02   -0.15058E+02  8320   0.290E+03-0.734E+02
CGA:  23    -0.123671202470E+03   -0.16654E+02   -0.16537E+02  8320   0.935E+02-0.756E+01
CGA:  24    -0.137171387157E+03   -0.13500E+02   -0.13367E+02  8320   0.187E+03 0.422E+01
CGA:  25    -0.144225266373E+03   -0.70539E+01   -0.10257E+02  8320   0.107E+03-0.233E+02
CGA:  26    -0.149765168475E+03   -0.55399E+01   -0.47276E+01  8320   0.450E+02 0.106E+02
CGA:  27    -0.161727810527E+03   -0.11963E+02   -0.11219E+02  8320   0.615E+02 0.410E+01
CGA:  28    -0.165176201906E+03   -0.34484E+01   -0.37112E+01  8320   0.709E+02-0.476E+01
CGA:  29    -0.168914884112E+03   -0.37387E+01   -0.40793E+01  8320   0.793E+02-0.352E+01
CGA:  30    -0.173284597908E+03   -0.43697E+01   -0.45205E+01  8320   0.709E+02-0.176E+01
CGA:  31    -0.176524413641E+03   -0.32398E+01   -0.32816E+01  8320   0.519E+02-0.840E+00
CGA:  32    -0.181088534924E+03   -0.45641E+01   -0.46811E+01  8320   0.878E+02 0.127E+01
CGA:  33    -0.185464558218E+03   -0.43760E+01   -0.47414E+01  8320   0.559E+02-0.417E+01
CGA:  34    -0.188586681702E+03   -0.31221E+01   -0.31506E+01  8320   0.478E+02-0.630E+00
CGA:  35    -0.191321643081E+03   -0.27350E+01   -0.27643E+01  8320   0.414E+02-0.534E+00
CGA:  36    -0.194268884116E+03   -0.29472E+01   -0.29751E+01  8320   0.485E+02-0.162E+00
SDA:  37    -0.196948707472E+03   -0.26798E+01   -0.26845E+01  8320   0.324E+02-0.468E+00
CGA:  38    -0.199380460827E+03   -0.24318E+01   -0.23495E+01  8320   0.271E+02-0.173E+00
CGA:  39    -0.204813593406E+03   -0.54331E+01   -0.54636E+01  8320   0.372E+02-0.565E+00
CGA:  40    -0.208316969894E+03   -0.35034E+01   -0.34793E+01  8320   0.197E+02-0.109E+01
CGA:  41    -0.209558026601E+03   -0.12411E+01   -0.12301E+01  8320   0.164E+02-0.464E-02
CGA:  42    -0.211871432120E+03   -0.23134E+01   -0.22956E+01  8320   0.141E+02 0.212E+00
CGA:  43    -0.213110293369E+03   -0.12389E+01   -0.12546E+01  8320   0.232E+02 0.155E+00
CGA:  44    -0.214984392076E+03   -0.18741E+01   -0.18788E+01  8320   0.132E+02-0.575E-01
CGA:  45    -0.215818291794E+03   -0.83390E+00   -0.81221E+00  8320   0.837E+01 0.397E-01
CGA:  46    -0.216364479559E+03   -0.54619E+00   -0.54960E+00  8320   0.597E+01-0.150E-01
CGA:  47    -0.217038504083E+03   -0.67402E+00   -0.67396E+00  8320   0.115E+02-0.258E-02
CGA:  48    -0.217984699306E+03   -0.94620E+00   -0.93593E+00  8320   0.851E+01-0.193E+00
CGA:  49    -0.218372851340E+03   -0.38815E+00   -0.36842E+00  8320   0.408E+01 0.174E+00
CGA:  50    -0.218677881956E+03   -0.30503E+00   -0.30671E+00  8320   0.614E+01 0.175E-02
CGA:  51    -0.219224754577E+03   -0.54687E+00   -0.54716E+00  8320   0.727E+01 0.317E-02
CGA:  52    -0.219570648078E+03   -0.34589E+00   -0.33507E+00  8320   0.412E+01-0.129E-01
CGA:  53    -0.219845077767E+03   -0.27443E+00   -0.27211E+00  8320   0.486E+01-0.183E-01
CGA:  54    -0.220126509332E+03   -0.28143E+00   -0.27774E+00  8320   0.519E+01-0.164E-01
CGA:  55    -0.220413870349E+03   -0.28736E+00   -0.28260E+00  8320   0.478E+01-0.593E-02
CGA:  56    -0.220636882624E+03   -0.22301E+00   -0.22190E+00  8320   0.321E+01 0.380E-01
CGA:  57    -0.220760025617E+03   -0.12314E+00   -0.12101E+00  8320   0.247E+01 0.455E-02
CGA:  58    -0.220915390692E+03   -0.15537E+00   -0.15609E+00  8320   0.414E+01 0.706E-02
CGA:  59    -0.221131420901E+03   -0.21603E+00   -0.21563E+00  8320   0.353E+01-0.903E-02
CGA:  60    -0.221256282455E+03   -0.12486E+00   -0.12179E+00  8320   0.198E+01 0.546E-01
CGA:  61    -0.221344538350E+03   -0.88256E-01   -0.86883E-01  8320   0.221E+01 0.886E-02
CGA:  62    -0.221467998855E+03   -0.12346E+00   -0.12303E+00  8320   0.306E+01-0.359E-02
CGA:  63    -0.221585742910E+03   -0.11774E+00   -0.11749E+00  8320   0.259E+01-0.531E-02
CGA:  64    -0.221676906028E+03   -0.91163E-01   -0.90609E-01  8320   0.200E+01 0.531E-02
CGA:  65    -0.221748973063E+03   -0.72067E-01   -0.71950E-01  8320   0.183E+01-0.526E-02
CGA:  66    -0.221823557989E+03   -0.74585E-01   -0.75699E-01  8320   0.207E+01-0.795E-02
CGA:  67    -0.221913077783E+03   -0.89520E-01   -0.90398E-01  8320   0.220E+01-0.122E-02
SDA:  68    -0.222000859793E+03   -0.87782E-01   -0.88510E-01  8320   0.180E+01-0.103E-01
CGA:  69    -0.222150190544E+03   -0.14933E+00   -0.14921E+00  8320   0.808E+00 0.998E-03
CGA:  70    -0.222422471342E+03   -0.27228E+00   -0.67183E-03  8320   0.321E+01-0.212E+00
CGA:  71    -0.222631967442E+03   -0.20950E+00   -0.21075E+00  8320   0.190E+01 0.506E-02
CGA:  72    -0.222752113044E+03   -0.12015E+00   -0.11726E+00  8320   0.837E+00 0.260E-01
CGA:  73    -0.222849914661E+03   -0.97802E-01   -0.97742E-01  8320   0.101E+01-0.162E-01
CGA:  74    -0.222928654840E+03   -0.78740E-01   -0.78112E-01  8320   0.577E+00 0.196E-02
CGA:  75    -0.222966858611E+03   -0.38204E-01   -0.38093E-01  8320   0.317E+00 0.631E-03
CGA:  76    -0.222994546189E+03   -0.27688E-01   -0.27732E-01  8320   0.319E+00 0.547E-03
CGA:  77    -0.223030538683E+03   -0.35992E-01   -0.36058E-01  8320   0.440E+00-0.231E-01
CGA:  78    -0.223056667550E+03   -0.26129E-01   -0.26380E-01  8320   0.384E+00-0.386E-02
CGA:  79    -0.223076571554E+03   -0.19904E-01   -0.18325E-01  8320   0.299E+00 0.217E-01
CGA:  80    -0.223099279468E+03   -0.22708E-01   -0.22193E-01  8320   0.457E+00-0.192E-03
CGA:  81    -0.223121642982E+03   -0.22364E-01   -0.22241E-01  8320   0.317E+00 0.629E-02
CGA:  82    -0.223135019426E+03   -0.13376E-01   -0.12181E-01  8320   0.269E+00 0.198E-01
CGA:  83    -0.223151569997E+03   -0.16551E-01   -0.16933E-01  8320   0.466E+00-0.595E-02
CGA:  84    -0.223169781609E+03   -0.18212E-01   -0.14892E-01  8320   0.340E+00 0.736E-01
CGA:  85    -0.223180343096E+03   -0.10561E-01   -0.97829E-02  8320   0.305E+00 0.106E-01
CGA:  86    -0.223190026589E+03   -0.96835E-02   -0.10363E-01  8320   0.456E+00-0.146E-01
CGA:  87    -0.223199355017E+03   -0.93284E-02   -0.89487E-02  8320   0.299E+00 0.126E-01
CGA:  88    -0.223204700607E+03   -0.53456E-02   -0.58157E-02  8320   0.183E+00-0.225E-01
CGA:  89    -0.223209456152E+03   -0.47555E-02   -0.51203E-02  8320   0.282E+00-0.849E-02
CGA:  90    -0.223220378778E+03   -0.10923E-01   -0.11069E-01  8320   0.435E+00 0.603E-03
CGA:  91    -0.223231041231E+03   -0.10662E-01   -0.91547E-02  8320   0.251E+00 0.594E-01
CGA:  92    -0.223236555150E+03   -0.55139E-02   -0.48228E-02  8320   0.148E+00 0.343E-01
CGA:  93    -0.223241032738E+03   -0.44776E-02   -0.42042E-02  8320   0.220E+00 0.804E-02
CGA:  94    -0.223247928107E+03   -0.68954E-02   -0.63513E-02  8320   0.414E+00 0.149E-01
CGA:  95    -0.223256795901E+03   -0.88678E-02   -0.78049E-02  8320   0.435E+00 0.472E-01
CGA:  96    -0.223263756888E+03   -0.69610E-02   -0.75491E-02  8320   0.291E+00-0.350E-01
CGA:  97    -0.223267494873E+03   -0.37380E-02   -0.41986E-02  8320   0.238E+00-0.219E-01
CGA:  98    -0.223271643351E+03   -0.41485E-02   -0.40214E-02  8320   0.242E+00 0.838E-02
SDA:  99    -0.223276545098E+03   -0.49017E-02   -0.42024E-02  8320   0.219E+00 0.366E-01
CGA: 100    -0.223287934684E+03   -0.11390E-01   -0.11347E-01  8320   0.157E+00-0.611E-02
CGA: 101    -0.223312533203E+03   -0.24599E-01   -0.24779E-01  8320   0.144E+00-0.246E-02
CGA: 102    -0.223330165678E+03   -0.17632E-01   -0.18526E-01  8320   0.143E+00-0.140E-01
CGA: 103    -0.223346044491E+03   -0.15879E-01   -0.22628E-01  8320   0.371E+00-0.107E+00
CGA: 104    -0.223357960801E+03   -0.11916E-01   -0.13270E-01  8320   0.117E+00-0.168E-01
CGA: 105    -0.223363034919E+03   -0.50741E-02   -0.50640E-02  8320   0.532E-01-0.214E-04
CGA: 106    -0.223367780749E+03   -0.47458E-02   -0.47519E-02  8320   0.403E-01-0.211E-03
CGA: 107    -0.223373291649E+03   -0.55109E-02   -0.56984E-02  8320   0.283E-01-0.265E-02
CGA: 108    -0.223375496502E+03   -0.22049E-02   -0.22205E-02  8320   0.595E-01-0.853E-03
CGA: 109    -0.223379271133E+03   -0.37746E-02   -0.37339E-02  8320   0.566E-01-0.209E-02
CGA: 110    -0.223383763501E+03   -0.44924E-02   -0.49196E-02  8320   0.847E-01-0.159E-01
CGA: 111    -0.223385337927E+03   -0.15744E-02   -0.14607E-02  8320   0.262E-01 0.432E-02
CGA: 112    -0.223386339860E+03   -0.10019E-02   -0.98283E-03  8320   0.421E-01 0.285E-03
CGA: 113    -0.223387948882E+03   -0.16090E-02   -0.16170E-02  8320   0.267E-01-0.284E-04
CGA: 114    -0.223388717024E+03   -0.76814E-03   -0.78525E-03  8320   0.343E-01-0.351E-03
CGA: 115    -0.223390305032E+03   -0.15880E-02   -0.16047E-02  8320   0.237E-01 0.178E-03
CGA: 116    -0.223390846615E+03   -0.54158E-03   -0.53145E-03  8320   0.168E-01 0.386E-03
CGA: 117    -0.223391649112E+03   -0.80250E-03   -0.79596E-03  8320   0.154E-01-0.525E-04
CGA: 118    -0.223392022738E+03   -0.37363E-03   -0.36707E-03  8320   0.139E-01 0.186E-03
CGA: 119    -0.223392880034E+03   -0.85730E-03   -0.85818E-03  8320   0.264E-01-0.254E-03
CGA: 120    -0.223393437654E+03   -0.55762E-03   -0.56144E-03  8320   0.169E-01-0.100E-03
CGA: 121    -0.223394185070E+03   -0.74742E-03   -0.74920E-03  8320   0.270E-01 0.421E-04
CGA: 122    -0.223394738403E+03   -0.55333E-03   -0.55710E-03  8320   0.994E-02-0.987E-04
CGA: 123    -0.223395154289E+03   -0.41589E-03   -0.41727E-03  8320   0.229E-01 0.196E-04
CGA: 124    -0.223396075140E+03   -0.92085E-03   -0.91898E-03  8320   0.165E-01-0.337E-04
CGA: 125    -0.223396436917E+03   -0.36178E-03   -0.36901E-03  8320   0.133E-01-0.193E-03
CGA: 126    -0.223397102418E+03   -0.66550E-03   -0.66519E-03  8320   0.171E-01-0.846E-04
CGA: 127    -0.223397427514E+03   -0.32510E-03   -0.33189E-03  8320   0.752E-02-0.234E-03
CGA: 128    -0.223397778814E+03   -0.35130E-03   -0.35198E-03  8320   0.142E-01 0.968E-04
CGA: 129    -0.223398168067E+03   -0.38925E-03   -0.38747E-03  8320   0.570E-02 0.362E-04
CGA: 130    -0.223398377617E+03   -0.20955E-03   -0.20842E-03  8320   0.815E-02-0.155E-04
CGA: 131    -0.223398652223E+03   -0.27461E-03   -0.27240E-03  8320   0.542E-02-0.132E-04
CGA: 132    -0.223398826699E+03   -0.17448E-03   -0.17482E-03  8320   0.767E-02-0.122E-04
CGA: 133    -0.223399205976E+03   -0.37928E-03   -0.37941E-03  8320   0.808E-02-0.472E-04
SDA: 134    -0.223399411257E+03   -0.20528E-03   -0.19848E-03  8320   0.708E-02 0.101E-03
CGA: 135    -0.223399730759E+03   -0.31950E-03   -0.31948E-03  8320   0.833E-02-0.185E-04
CGA: 136    -0.223400137289E+03   -0.40653E-03   -0.40677E-03  8320   0.495E-02-0.512E-04
CGA: 137    -0.223400585648E+03   -0.44836E-03   -0.44716E-03  8320   0.530E-02 0.238E-04
CGA: 138    -0.223401165966E+03   -0.58032E-03   -0.59401E-03  8320   0.311E-02-0.235E-03
CGA: 139    -0.223401517756E+03   -0.35179E-03   -0.35503E-03  8320   0.357E-02-0.537E-04
CGA: 140    -0.223401639709E+03   -0.12195E-03   -0.12229E-03  8320   0.318E-02-0.513E-05
CGA: 141    -0.223401880439E+03   -0.24073E-03   -0.24328E-03  8320   0.108E-02-0.912E-04
CGA: 142    -0.223401960396E+03   -0.79956E-04   -0.79565E-04  8320   0.112E-02 0.144E-04
CGA: 143    -0.223402021252E+03   -0.60857E-04   -0.60843E-04  8320   0.123E-02 0.683E-07
CGA: 144    -0.223402062110E+03   -0.40858E-04   -0.40881E-04  8320   0.310E-03 0.453E-05
CGA: 145    -0.223402097220E+03   -0.35109E-04   -0.35064E-04  8320   0.273E-03-0.408E-06
CGA: 146    -0.223402133044E+03   -0.35825E-04   -0.36176E-04  8320   0.521E-03-0.587E-05
CGA: 147    -0.223402149576E+03   -0.16532E-04   -0.16361E-04  8320   0.358E-03-0.259E-06
CGA: 148    -0.223402176949E+03   -0.27373E-04   -0.27344E-04  8320   0.299E-03-0.306E-06
CGA: 149    -0.223402203444E+03   -0.26496E-04   -0.27196E-04  8320   0.311E-03-0.205E-04
CGA: 150    -0.223402227439E+03   -0.23995E-04   -0.24238E-04  8320   0.510E-03-0.924E-05
CGA: 151    -0.223402241749E+03   -0.14310E-04   -0.14342E-04  8320   0.220E-03-0.794E-06
CGA: 152    -0.223402269644E+03   -0.27895E-04   -0.28639E-04  8320   0.149E-03-0.123E-04
CGA: 153    -0.223402275455E+03   -0.58119E-05   -0.58010E-05  8320   0.173E-03 0.400E-06
   1 F= -.22340228E+03 E0= -.22338826E+03  d E =-.223402E+03  mag=     6.8273
       N       E                     dE             d eps       ncg     rms          ort
SDA:   1    -0.223490577080E+03   -0.88307E-01    0.00000E+00  8320   0.156E+00 0.000E+00
CGA:   2    -0.223493417015E+03   -0.28399E-02   -0.28435E-02  8320   0.224E-01-0.197E-03
CGA:   3    -0.223494334263E+03   -0.91725E-03   -0.90993E-03  8320   0.110E-01 0.110E-04
CGA:   4    -0.223495641226E+03   -0.13070E-02   -0.13041E-02  8320   0.974E-02 0.510E-04
CGA:   5    -0.223496386059E+03   -0.74483E-03   -0.74535E-03  8320   0.232E-02-0.269E-04
CGA:   6    -0.223496504874E+03   -0.11882E-03   -0.11878E-03  8320   0.374E-02-0.406E-05
CGA:   7    -0.223496685651E+03   -0.18078E-03   -0.18055E-03  8320   0.123E-02-0.817E-05
CGA:   8    -0.223496785413E+03   -0.99762E-04   -0.99856E-04  8320   0.308E-03-0.502E-05
CGA:   9    -0.223496803313E+03   -0.17900E-04   -0.17900E-04  8320   0.473E-03 0.230E-07
CGA:  10    -0.223496820568E+03   -0.17254E-04   -0.17255E-04  8320   0.131E-03-0.212E-06
CGA:  11    -0.223496832672E+03   -0.12104E-04   -0.12079E-04  8320   0.103E-03 0.862E-06
CGA:  12    -0.223496838373E+03   -0.57003E-05   -0.57036E-05  8320   0.893E-04 0.372E-06
   2 F= -.22349684E+03 E0= -.22348301E+03  d E =-.945629E-01  mag=     6.8243
       N       E                     dE             d eps       ncg     rms          ort
SDA:   1    -0.223419464996E+03    0.77368E-01    0.00000E+00  8320   0.563E+01 0.000E+00
CGA:   2    -0.224254337971E+03   -0.83487E+00   -0.82627E+00  8320   0.222E+02 0.160E+00
CGA:   3    -0.224946054473E+03   -0.69172E+00   -0.72796E+00  8320   0.344E+01-0.792E+00
CGA:   4    -0.225110814038E+03   -0.16476E+00   -0.15380E+00  8320   0.192E+01-0.535E-01
CGA:   5    -0.225263323328E+03   -0.15251E+00   -0.15180E+00  8320   0.282E+01 0.292E-01
CGA:   6    -0.225351804940E+03   -0.88482E-01   -0.88716E-01  8320   0.719E+00-0.774E-02
CGA:   7    -0.225398744447E+03   -0.46940E-01   -0.46895E-01  8320   0.389E+00 0.774E-02
CGA:   8    -0.225410413614E+03   -0.11669E-01   -0.11213E-01  8320   0.160E+00 0.926E-02
CGA:   9    -0.225423715655E+03   -0.13302E-01   -0.13286E-01  8320   0.162E+00 0.570E-03
CGA:  10    -0.225431932815E+03   -0.82172E-02   -0.82255E-02  8320   0.968E-01 0.181E-03
CGA:  11    -0.225435286264E+03   -0.33534E-02   -0.34256E-02  8320   0.521E-01-0.624E-03
CGA:  12    -0.225438056418E+03   -0.27702E-02   -0.27677E-02  8320   0.272E-01-0.130E-03
CGA:  13    -0.225440184619E+03   -0.21282E-02   -0.21269E-02  8320   0.459E-01 0.612E-04
CGA:  14    -0.225441797672E+03   -0.16131E-02   -0.16065E-02  8320   0.129E-01 0.105E-03
CGA:  15    -0.225442899209E+03   -0.11015E-02   -0.10956E-02  8320   0.177E-01 0.198E-03
CGA:  16    -0.225443631860E+03   -0.73265E-03   -0.73212E-03  8320   0.109E-01 0.214E-04
CGA:  17    -0.225444178622E+03   -0.54676E-03   -0.54699E-03  8320   0.730E-02 0.194E-04
CGA:  18    -0.225444647192E+03   -0.46857E-03   -0.46853E-03  8320   0.548E-02 0.105E-04
CGA:  19    -0.225444870533E+03   -0.22334E-03   -0.22402E-03  8320   0.491E-02 0.729E-05
CGA:  20    -0.225445232277E+03   -0.36174E-03   -0.36157E-03  8320   0.212E-02 0.105E-04
CGA:  21    -0.225445321825E+03   -0.89548E-04   -0.89606E-04  8320   0.206E-02 0.277E-05
CGA:  22    -0.225445444363E+03   -0.12254E-03   -0.12254E-03  8320   0.133E-02 0.231E-05
CGA:  23    -0.225445528649E+03   -0.84286E-04   -0.84247E-04  8320   0.128E-02 0.643E-05
CGA:  24    -0.225445579981E+03   -0.51332E-04   -0.51396E-04  8320   0.709E-03 0.324E-05
CGA:  25    -0.225445614524E+03   -0.34543E-04   -0.34564E-04  8320   0.453E-03 0.228E-05
CGA:  26    -0.225445650102E+03   -0.35578E-04   -0.35504E-04  8320   0.506E-03 0.361E-05
CGA:  27    -0.225445665836E+03   -0.15733E-04   -0.15776E-04  8320   0.179E-03 0.113E-05
CGA:  28    -0.225445682412E+03   -0.16577E-04   -0.16515E-04  8320   0.198E-03 0.171E-05
CGA:  29    -0.225445689581E+03   -0.71690E-05   -0.71816E-05  8320   0.129E-03 0.443E-06
   3 F= -.22544569E+03 E0= -.22543211E+03  d E =-.194885E+01  mag=     6.8332
       N       E                     dE             d eps       ncg     rms          ort
SDA:   1    -0.219418669774E+03    0.60270E+01    0.00000E+00  8320   0.220E+02 0.000E+00
CGA:   2    -0.225473886414E+03   -0.60552E+01   -0.61859E+01  8320   0.254E+02-0.730E+00
CGA:   3    -0.225971875752E+03   -0.49799E+00   -0.70675E+00  8320   0.150E+02-0.421E+01
CGA:   4    -0.226905652998E+03   -0.93378E+00   -0.94116E+00  8320   0.730E+01-0.590E+00
CGA:   5    -0.227217070788E+03   -0.31142E+00   -0.32722E+00  8320   0.594E+01 0.153E-01
CGA:   6    -0.227488448102E+03   -0.27138E+00   -0.26214E+00  8320   0.183E+01 0.136E-01
CGA:   7    -0.227577767854E+03   -0.89320E-01   -0.89829E-01  8320   0.151E+01 0.261E-02
CGA:   8    -0.227652207477E+03   -0.74440E-01   -0.73158E-01  8320   0.938E+00-0.113E-01
CGA:   9    -0.227693264011E+03   -0.41057E-01   -0.42273E-01  8320   0.366E+00 0.681E-02
CGA:  10    -0.227708799882E+03   -0.15536E-01   -0.15344E-01  8320   0.299E+00 0.205E-03
CGA:  11    -0.227729817059E+03   -0.21017E-01   -0.21004E-01  8320   0.209E+00 0.115E-02
CGA:  12    -0.227739067880E+03   -0.92508E-02   -0.92081E-02  8320   0.166E+00-0.862E-04
CGA:  13    -0.227747103693E+03   -0.80358E-02   -0.81077E-02  8320   0.652E-01 0.146E-02
CGA:  14    -0.227751026697E+03   -0.39230E-02   -0.39209E-02  8320   0.923E-01-0.725E-03
CGA:  15    -0.227755816170E+03   -0.47895E-02   -0.47927E-02  8320   0.401E-01 0.178E-03
CGA:  16    -0.227758025513E+03   -0.22093E-02   -0.22096E-02  8320   0.373E-01 0.384E-04
CGA:  17    -0.227759735579E+03   -0.17101E-02   -0.17203E-02  8320   0.250E-01 0.169E-03
CGA:  18    -0.227761257941E+03   -0.15224E-02   -0.15227E-02  8320   0.181E-01-0.121E-03
CGA:  19    -0.227762171006E+03   -0.91307E-03   -0.91380E-03  8320   0.175E-01 0.426E-04
CGA:  20    -0.227763003351E+03   -0.83235E-03   -0.83234E-03  8320   0.640E-02 0.195E-04
CGA:  21    -0.227763419770E+03   -0.41642E-03   -0.41605E-03  8320   0.102E-01 0.409E-04
CGA:  22    -0.227763943016E+03   -0.52325E-03   -0.52330E-03  8320   0.408E-02 0.154E-04
CGA:  23    -0.227764169302E+03   -0.22629E-03   -0.22633E-03  8320   0.381E-02 0.121E-04
CGA:  24    -0.227764328770E+03   -0.15947E-03   -0.15935E-03  8320   0.205E-02 0.688E-05
CGA:  25    -0.227764497082E+03   -0.16831E-03   -0.16809E-03  8320   0.256E-02 0.897E-05
CGA:  26    -0.227764597329E+03   -0.10025E-03   -0.10034E-03  8320   0.126E-02 0.580E-05
CGA:  27    -0.227764665482E+03   -0.68153E-04   -0.68192E-04  8320   0.847E-03 0.682E-05
CGA:  28    -0.227764718285E+03   -0.52803E-04   -0.52792E-04  8320   0.104E-02 0.403E-05
CGA:  29    -0.227764765553E+03   -0.47268E-04   -0.47305E-04  8320   0.441E-03 0.257E-05
CGA:  30    -0.227764795300E+03   -0.29747E-04   -0.29748E-04  8320   0.542E-03-0.191E-06
CGA:  31    -0.227764817429E+03   -0.22128E-04   -0.22117E-04  8320   0.246E-03-0.171E-05
SDA:  32    -0.227764836923E+03   -0.19494E-04   -0.19571E-04  8320   0.324E-03-0.331E-05
CGA:  33    -0.227764842944E+03   -0.60208E-05   -0.60108E-05  8320   0.647E-04-0.104E-05
CGA:  34    -0.227764852966E+03   -0.10022E-04   -0.10356E-04  8320   0.127E-03-0.325E-05
CGA:  35    -0.227764863557E+03   -0.10591E-04   -0.10698E-04  8320   0.959E-04-0.398E-05
CGA:  36    -0.227764869501E+03   -0.59446E-05   -0.59478E-05  8320   0.781E-04-0.219E-05
   4 F= -.22776487E+03 E0= -.22775171E+03  d E =-.231918E+01  mag=     6.8517
       N       E                     dE             d eps       ncg     rms          ort
SDA:   1    -0.219191065882E+03    0.85738E+01    0.00000E+00  8320   0.263E+02 0.000E+00
CGA:   2    -0.223490620401E+03   -0.42996E+01   -0.49189E+01  8320   0.126E+03-0.245E+01
CGA:   3    -0.226517136323E+03   -0.30265E+01   -0.26791E+01  8320   0.143E+02-0.430E+01
CGA:   4    -0.227717692329E+03   -0.12006E+01   -0.11908E+01  8320   0.151E+02 0.308E+00
CGA:   5    -0.228090479374E+03   -0.37279E+00   -0.37261E+00  8320   0.740E+01-0.659E+00
CGA:   6    -0.228665754468E+03   -0.57528E+00   -0.57429E+00  8320   0.228E+01 0.340E-01
CGA:   7    -0.228767706114E+03   -0.10195E+00   -0.10235E+00  8320   0.208E+01 0.197E-02
CGA:   8    -0.228833275962E+03   -0.65570E-01   -0.62041E-01  8320   0.116E+01 0.641E-01
CGA:   9    -0.228914578717E+03   -0.81303E-01   -0.81173E-01  8320   0.437E+00 0.127E-01
CGA:  10    -0.228933015171E+03   -0.18436E-01   -0.18563E-01  8320   0.478E+00 0.131E-03
CGA:  11    -0.228950582261E+03   -0.17567E-01   -0.16888E-01  8320   0.176E+00 0.707E-02
CGA:  12    -0.228971326203E+03   -0.20744E-01   -0.20709E-01  8320   0.118E+00 0.596E-03
CGA:  13    -0.228975314079E+03   -0.39879E-02   -0.40182E-02  8320   0.101E+00-0.334E-03
CGA:  14    -0.228980547088E+03   -0.52330E-02   -0.52134E-02  8320   0.529E-01-0.573E-03
CGA:  15    -0.228985328337E+03   -0.47812E-02   -0.47683E-02  8320   0.369E-01 0.370E-03
CGA:  16    -0.228987795386E+03   -0.24670E-02   -0.24666E-02  8320   0.400E-01 0.793E-04
CGA:  17    -0.228988929502E+03   -0.11341E-02   -0.11337E-02  8320   0.159E-01 0.407E-04
CGA:  18    -0.228990602286E+03   -0.16728E-02   -0.16703E-02  8320   0.103E-01 0.559E-04
CGA:  19    -0.228991623524E+03   -0.10212E-02   -0.10206E-02  8320   0.103E-01 0.202E-04
CGA:  20    -0.228991950083E+03   -0.32656E-03   -0.32778E-03  8320   0.694E-02-0.304E-05
CGA:  21    -0.228992398394E+03   -0.44831E-03   -0.44821E-03  8320   0.434E-02 0.453E-04
CGA:  22    -0.228992750829E+03   -0.35244E-03   -0.35223E-03  8320   0.188E-02 0.131E-04
CGA:  23    -0.228992914794E+03   -0.16397E-03   -0.16367E-03  8320   0.353E-02 0.122E-04
CGA:  24    -0.228993030595E+03   -0.11580E-03   -0.11622E-03  8320   0.148E-02 0.250E-05
CGA:  25    -0.228993154409E+03   -0.12381E-03   -0.12363E-03  8320   0.587E-03 0.900E-05
CGA:  26    -0.228993219255E+03   -0.64846E-04   -0.64615E-04  8320   0.712E-03 0.509E-05
CGA:  27    -0.228993261703E+03   -0.42448E-04   -0.42467E-04  8320   0.823E-03 0.209E-05
CGA:  28    -0.228993289395E+03   -0.27692E-04   -0.27682E-04  8320   0.311E-03 0.213E-05
CGA:  29    -0.228993322444E+03   -0.33049E-04   -0.33115E-04  8320   0.193E-03-0.162E-05
CGA:  30    -0.228993345879E+03   -0.23435E-04   -0.23626E-04  8320   0.194E-03-0.342E-05
CGA:  31    -0.228993354241E+03   -0.83623E-05   -0.83309E-05  8320   0.187E-03-0.138E-05
   5 F= -.22899335E+03 E0= -.22898046E+03  d E =-.122848E+01  mag=     6.8615
       N       E                     dE             d eps       ncg     rms          ort
SDA:   1    -0.211754772009E+03    0.17239E+02    0.00000E+00  8320   0.753E+02 0.000E+00
CGA:   2    -0.216313702731E+03   -0.45589E+01   -0.47077E+01  8320   0.856E+02 0.144E+02
CGA:   3    -0.221145027160E+03   -0.48313E+01   -0.50447E+01  8320   0.135E+03-0.113E+02
CGA:   4    -0.224128538063E+03   -0.29835E+01   -0.25002E+01  8320   0.861E+02-0.275E+01
CGA:   5    -0.226317097972E+03   -0.21886E+01   -0.15699E+01  8320   0.181E+02 0.187E+02
CGA:   6    -0.227447178526E+03   -0.11301E+01   -0.11009E+01  8320   0.253E+02-0.177E+00
CGA:   7    -0.227988613149E+03   -0.54143E+00   -0.57023E+00  8320   0.451E+02-0.187E+01
CGA:   8    -0.228468351087E+03   -0.47974E+00   -0.39822E+00  8320   0.308E+02 0.659E+01
CGA:   9    -0.228879501368E+03   -0.41115E+00   -0.72546E+00  8320   0.245E+02-0.679E+01
CGA:  10    -0.229039247890E+03   -0.15975E+00   -0.36168E+00  8320   0.170E+02-0.657E+01
CGA:  11    -0.229313263236E+03   -0.27402E+00   -0.22463E+00  8320   0.425E+01 0.241E+01
CGA:  12    -0.229386699221E+03   -0.73436E-01   -0.49544E-01  8320   0.215E+01 0.215E+01
CGA:  13    -0.229539192348E+03   -0.15249E+00   -0.15482E+00  8320   0.326E+01-0.933E-01
CGA:  14    -0.229680637106E+03   -0.14144E+00   -0.13496E+00  8320   0.164E+01-0.281E+00
CGA:  15    -0.229740559029E+03   -0.59922E-01   -0.61396E-01  8320   0.136E+01 0.469E-01
CGA:  16    -0.229779410212E+03   -0.38851E-01   -0.38422E-01  8320   0.312E+00 0.458E-02
CGA:  17    -0.229798979872E+03   -0.19570E-01   -0.19196E-01  8320   0.373E+00 0.203E-01
CGA:  18    -0.229813430696E+03   -0.14451E-01   -0.14470E-01  8320   0.213E+00 0.393E-03
CGA:  19    -0.229825504574E+03   -0.12074E-01   -0.12023E-01  8320   0.193E+00 0.413E-02
CGA:  20    -0.229833286396E+03   -0.77818E-02   -0.77734E-02  8320   0.958E-01-0.168E-03
CGA:  21    -0.229837692539E+03   -0.44061E-02   -0.44143E-02  8320   0.742E-01 0.167E-02
CGA:  22    -0.229841770185E+03   -0.40776E-02   -0.40713E-02  8320   0.611E-01 0.708E-03
CGA:  23    -0.229844328223E+03   -0.25580E-02   -0.25659E-02  8320   0.395E-01 0.409E-03
CGA:  24    -0.229846973631E+03   -0.26454E-02   -0.26327E-02  8320   0.431E-01 0.544E-03
CGA:  25    -0.229848864832E+03   -0.18912E-02   -0.18941E-02  8320   0.289E-01 0.190E-03
CGA:  26    -0.229850576160E+03   -0.17113E-02   -0.17060E-02  8320   0.196E-01 0.362E-03
CGA:  27    -0.229851291821E+03   -0.71566E-03   -0.71871E-03  8320   0.102E-01 0.424E-04
CGA:  28    -0.229852028120E+03   -0.73630E-03   -0.73282E-03  8320   0.113E-01 0.127E-03
CGA:  29    -0.229852515010E+03   -0.48689E-03   -0.48742E-03  8320   0.691E-02 0.407E-04
CGA:  30    -0.229852942142E+03   -0.42713E-03   -0.42598E-03  8320   0.552E-02 0.753E-04
CGA:  31    -0.229853175390E+03   -0.23325E-03   -0.23361E-03  8320   0.332E-02 0.220E-04
CGA:  32    -0.229853379782E+03   -0.20439E-03   -0.20395E-03  8320   0.259E-02 0.290E-04
CGA:  33    -0.229853491008E+03   -0.11123E-03   -0.11126E-03  8320   0.161E-02 0.312E-05
CGA:  34    -0.229853598302E+03   -0.10729E-03   -0.10711E-03  8320   0.169E-02 0.875E-05
CGA:  35    -0.229853687927E+03   -0.89625E-04   -0.89620E-04  8320   0.137E-02 0.119E-05
CGA:  36    -0.229853767451E+03   -0.79524E-04   -0.79433E-04  8320   0.109E-02 0.798E-05
CGA:  37    -0.229853824552E+03   -0.57101E-04   -0.57102E-04  8320   0.804E-03-0.130E-05
CGA:  38    -0.229853865467E+03   -0.40915E-04   -0.40915E-04  8320   0.549E-03-0.446E-06
CGA:  39    -0.229853897610E+03   -0.32143E-04   -0.32163E-04  8320   0.508E-03-0.306E-05
CGA:  40    -0.229853925726E+03   -0.28116E-04   -0.28124E-04  8320   0.447E-03-0.284E-05
CGA:  41    -0.229853953609E+03   -0.27883E-04   -0.27927E-04  8320   0.341E-03-0.431E-05
CGA:  42    -0.229853967036E+03   -0.13427E-04   -0.13401E-04  8320   0.167E-03-0.206E-05
SDA:  43    -0.229853978704E+03   -0.11668E-04   -0.11696E-04  8320   0.184E-03-0.169E-05
CGA:  44    -0.229853982618E+03   -0.39141E-05   -0.39118E-05  8320   0.594E-04 0.193E-06
   6 F= -.22985398E+03 E0= -.22984112E+03  d E =-.860628E+00  mag=     6.8672
       N       E                     dE             d eps       ncg     rms          ort
SDA:   1    -0.202995170582E+03    0.26859E+02    0.00000E+00  8320   0.508E+03 0.000E+00
CGA:   2    -0.209502049157E+03   -0.65069E+01   -0.14205E+02  8320   0.126E+03-0.236E+02
CGA:   3    -0.215018385616E+03   -0.55163E+01   -0.57181E+01  8320   0.878E+02 0.124E+02
CGA:   4    -0.220422203220E+03   -0.54038E+01   -0.58523E+01  8320   0.140E+03-0.347E+02
CGA:   5    -0.225082225587E+03   -0.46600E+01   -0.46528E+01  8320   0.149E+03 0.278E+01
CGA:   6    -0.226493195046E+03   -0.14110E+01   -0.84214E+00  8320   0.491E+02 0.817E+02
CGA:   7    -0.227540810410E+03   -0.10476E+01   -0.13785E+01  8320   0.426E+02-0.509E+00
CGA:   8    -0.228253600603E+03   -0.71279E+00   -0.76097E+00  8320   0.126E+02-0.305E-02
CGA:   9    -0.229161785142E+03   -0.90818E+00   -0.85789E+00  8320   0.995E+01 0.186E+01
CGA:  10    -0.229514134984E+03   -0.35235E+00   -0.27664E+00  8320   0.290E+01 0.183E+01
CGA:  11    -0.229758761040E+03   -0.24463E+00   -0.24909E+00  8320   0.420E+01-0.163E+00
CGA:  12    -0.229899087511E+03   -0.14033E+00   -0.14679E+00  8320   0.473E+01 0.131E+00
CGA:  13    -0.230046764287E+03   -0.14768E+00   -0.14528E+00  8320   0.290E+01-0.383E-01
CGA:  14    -0.230126908511E+03   -0.80144E-01   -0.86522E-01  8320   0.107E+01-0.738E-02
CGA:  15    -0.230187856177E+03   -0.60948E-01   -0.61024E-01  8320   0.153E+01-0.408E-02
CGA:  16    -0.230225164894E+03   -0.37309E-01   -0.37541E-01  8320   0.646E+00-0.788E-02
CGA:  17    -0.230270482023E+03   -0.45317E-01   -0.44865E-01  8320   0.636E+00 0.160E-01
CGA:  18    -0.230285895537E+03   -0.15414E-01   -0.15812E-01  8320   0.340E+00-0.862E-02
CGA:  19    -0.230300307835E+03   -0.14412E-01   -0.14419E-01  8320   0.130E+00 0.885E-03
CGA:  20    -0.230305364024E+03   -0.50562E-02   -0.50772E-02  8320   0.188E+00 0.934E-03
CGA:  21    -0.230316284819E+03   -0.10921E-01   -0.10862E-01  8320   0.134E+00 0.348E-02
CGA:  22    -0.230322408284E+03   -0.61235E-02   -0.61226E-02  8320   0.141E+00-0.353E-03
CGA:  23    -0.230326306184E+03   -0.38979E-02   -0.39089E-02  8320   0.453E-01-0.183E-03
CGA:  24    -0.230329884205E+03   -0.35780E-02   -0.35504E-02  8320   0.815E-01 0.776E-03
CGA:  25    -0.230332413150E+03   -0.25289E-02   -0.25772E-02  8320   0.445E-01-0.202E-04
CGA:  26    -0.230334694487E+03   -0.22813E-02   -0.22833E-02  8320   0.305E-01-0.215E-03
CGA:  27    -0.230335819958E+03   -0.11255E-02   -0.11335E-02  8320   0.264E-01 0.249E-03
CGA:  28    -0.230337004120E+03   -0.11842E-02   -0.11840E-02  8320   0.134E-01-0.266E-04
CGA:  29    -0.230337673316E+03   -0.66920E-03   -0.66706E-03  8320   0.178E-01 0.309E-03
CGA:  30    -0.230338519369E+03   -0.84605E-03   -0.84640E-03  8320   0.120E-01-0.313E-03
CGA:  31    -0.230339159782E+03   -0.64041E-03   -0.63309E-03  8320   0.110E-01 0.625E-03
CGA:  32    -0.230339602195E+03   -0.44241E-03   -0.44060E-03  8320   0.759E-02-0.548E-04
CGA:  33    -0.230340067729E+03   -0.46553E-03   -0.45571E-03  8320   0.621E-02 0.503E-03
CGA:  34    -0.230340379299E+03   -0.31157E-03   -0.31165E-03  8320   0.712E-02-0.120E-03
CGA:  35    -0.230340784148E+03   -0.40485E-03   -0.39980E-03  8320   0.489E-02 0.324E-03
CGA:  36    -0.230341165133E+03   -0.38099E-03   -0.38770E-03  8320   0.571E-02-0.206E-03
SDA:  37    -0.230341342948E+03   -0.17781E-03   -0.18172E-03  8320   0.268E-02 0.271E-04
CGA:  38    -0.230341438236E+03   -0.95288E-04   -0.95331E-04  8320   0.259E-02 0.343E-05
CGA:  39    -0.230341586249E+03   -0.14801E-03   -0.14831E-03  8320   0.235E-02-0.214E-04
CGA:  40    -0.230341807977E+03   -0.22173E-03   -0.22012E-03  8320   0.236E-02 0.339E-04
CGA:  41    -0.230342039738E+03   -0.23176E-03   -0.23624E-03  8320   0.108E-02-0.929E-04
CGA:  42    -0.230342159654E+03   -0.11992E-03   -0.11761E-03  8320   0.207E-02 0.387E-04
CGA:  43    -0.230342236171E+03   -0.76516E-04   -0.74027E-04  8320   0.199E-02 0.944E-05
CGA:  44    -0.230342442978E+03   -0.20681E-03   -0.22061E-03  8320   0.334E-02-0.278E-03
CGA:  45    -0.230342564328E+03   -0.12135E-03   -0.12714E-03  8320   0.420E-02 0.910E-04
CGA:  46    -0.230342813448E+03   -0.24912E-03   -0.25037E-03  8320   0.454E-02-0.512E-03
CGA:  47    -0.230342997632E+03   -0.18418E-03   -0.18918E-03  8320   0.165E-02 0.170E-03
CGA:  48    -0.230343183318E+03   -0.18569E-03   -0.18127E-03  8320   0.249E-02 0.778E-04
CGA:  49    -0.230343302948E+03   -0.11963E-03   -0.11720E-03  8320   0.350E-02-0.348E-04
CGA:  50    -0.230343455726E+03   -0.15278E-03   -0.15615E-03  8320   0.233E-02 0.612E-04
CGA:  51    -0.230343591703E+03   -0.13598E-03   -0.13598E-03  8320   0.286E-02 0.525E-04
CGA:  52    -0.230343667227E+03   -0.75524E-04   -0.71607E-04  8320   0.147E-02 0.106E-03
CGA:  53    -0.230343784061E+03   -0.11683E-03   -0.11704E-03  8320   0.234E-02-0.157E-04
CGA:  54    -0.230343839151E+03   -0.55090E-04   -0.56357E-04  8320   0.131E-02-0.292E-04
CGA:  55    -0.230343937062E+03   -0.97911E-04   -0.97730E-04  8320   0.136E-02 0.774E-05
CGA:  56    -0.230343972969E+03   -0.35906E-04   -0.35661E-04  8320   0.115E-02 0.911E-05
CGA:  57    -0.230344072997E+03   -0.10003E-03   -0.99882E-04  8320   0.134E-02 0.270E-06
CGA:  58    -0.230344110509E+03   -0.37512E-04   -0.37480E-04  8320   0.120E-02 0.328E-05
CGA:  59    -0.230344180363E+03   -0.69854E-04   -0.69827E-04  8320   0.849E-03 0.639E-05
CGA:  60    -0.230344211650E+03   -0.31288E-04   -0.31394E-04  8320   0.105E-02 0.228E-05
CGA:  61    -0.230344256040E+03   -0.44390E-04   -0.44367E-04  8320   0.753E-03 0.228E-05
CGA:  62    -0.230344306309E+03   -0.50269E-04   -0.50411E-04  8320   0.119E-02-0.633E-05
CGA:  63    -0.230344332263E+03   -0.25953E-04   -0.26309E-04  8320   0.335E-03-0.555E-05
CGA:  64    -0.230344359645E+03   -0.27382E-04   -0.27251E-04  8320   0.708E-03 0.404E-05
CGA:  65    -0.230344378148E+03   -0.18504E-04   -0.18345E-04  8320   0.387E-03 0.575E-05
CGA:  66    -0.230344405585E+03   -0.27437E-04   -0.27423E-04  8320   0.380E-03 0.148E-05
CGA:  67    -0.230344413758E+03   -0.81732E-05   -0.82221E-05  8320   0.206E-03 0.103E-05
SDA:  68    -0.230344431631E+03   -0.17873E-04   -0.17785E-04  8320   0.300E-03 0.244E-05
CGA:  69    -0.230344438943E+03   -0.73122E-05   -0.73050E-05  8320   0.169E-03-0.465E-06
   7 F= -.23034444E+03 E0= -.23033041E+03  d E =-.490456E+00  mag=     7.1231
       N       E                     dE             d eps       ncg     rms          ort
SDA:   1    -0.155355808201E+03    0.74989E+02    0.00000E+00  8320   0.573E+04 0.000E+00
CGA:   2    -0.199320288892E+03   -0.43964E+02   -0.14707E+03  8320   0.337E+03-0.270E+03
CGA:   3    -0.210121467367E+03   -0.10801E+02   -0.11368E+02  8320   0.945E+02 0.188E+02
CGA:   4    -0.214807400291E+03   -0.46859E+01   -0.43167E+01  8320   0.946E+02-0.166E+02
CGA:   5    -0.217214965921E+03   -0.24076E+01   -0.76884E+01  8320   0.700E+03-0.169E+03
CGA:   6    -0.223330238003E+03   -0.61153E+01   -0.19568E+02  8320   0.876E+02-0.674E+01
CGA:   7    -0.225024125933E+03   -0.16939E+01   -0.83808E+00  8320   0.666E+02 0.886E+02
CGA:   8    -0.226012334971E+03   -0.98821E+00   -0.49017E+00  8320   0.453E+02 0.642E+02
CGA:   9    -0.226725591023E+03   -0.71326E+00   -0.39641E+00  8320   0.221E+02 0.332E+02
CGA:  10    -0.227258808596E+03   -0.53322E+00   -0.34076E+00  8320   0.104E+02 0.993E+01
CGA:  11    -0.227619675502E+03   -0.36087E+00   -0.29015E+00  8320   0.145E+02 0.218E+01
CGA:  12    -0.227911799848E+03   -0.29212E+00   -0.32209E+00  8320   0.265E+02-0.136E+01
CGA:  13    -0.228200886871E+03   -0.28909E+00   -0.30297E+00  8320   0.383E+02-0.965E+00
CGA:  14    -0.228638282101E+03   -0.43740E+00   -0.47940E+00  8320   0.396E+02-0.273E+01
CGA:  15    -0.228935094569E+03   -0.29681E+00   -0.41913E+00  8320   0.346E+02-0.105E+02
CGA:  16    -0.229199596895E+03   -0.26450E+00   -0.28375E+00  8320   0.370E+02-0.171E+01
CGA:  17    -0.229520610991E+03   -0.32101E+00   -0.33653E+00  8320   0.224E+02-0.181E+01
CGA:  18    -0.229674623716E+03   -0.15401E+00   -0.17091E+00  8320   0.698E+01-0.209E+01
CGA:  19    -0.229726261431E+03   -0.51638E-01   -0.59472E-01  8320   0.496E+01-0.695E+00
CGA:  20    -0.229816605828E+03   -0.90344E-01   -0.95107E-01  8320   0.652E+01 0.349E-01
CGA:  21    -0.229888325135E+03   -0.71719E-01   -0.60603E-01  8320   0.353E+01 0.923E+00
CGA:  22    -0.229947685059E+03   -0.59360E-01   -0.60320E-01  8320   0.547E+01-0.410E-01
CGA:  23    -0.230030882568E+03   -0.83198E-01   -0.82742E-01  8320   0.703E+01 0.590E-02
CGA:  24    -0.230098117023E+03   -0.67234E-01   -0.74303E-01  8320   0.396E+01-0.474E+00
CGA:  25    -0.230136440273E+03   -0.38323E-01   -0.39036E-01  8320   0.283E+01-0.586E-01
CGA:  26    -0.230176663841E+03   -0.40224E-01   -0.39767E-01  8320   0.332E+01 0.879E-02
CGA:  27    -0.230222270522E+03   -0.45607E-01   -0.44826E-01  8320   0.271E+01 0.219E-01
CGA:  28    -0.230252590330E+03   -0.30320E-01   -0.28238E-01  8320   0.263E+01 0.129E+00
CGA:  29    -0.230294740887E+03   -0.42151E-01   -0.41911E-01  8320   0.453E+01 0.188E-02
CGA:  30    -0.230344987403E+03   -0.50247E-01   -0.51729E-01  8320   0.341E+01-0.527E-01
CGA:  31    -0.230370553380E+03   -0.25566E-01   -0.28161E-01  8320   0.137E+01-0.226E+00
CGA:  32    -0.230385977046E+03   -0.15424E-01   -0.15903E-01  8320   0.155E+01-0.171E-01
CGA:  33    -0.230417731229E+03   -0.31754E-01   -0.31810E-01  8320   0.223E+01 0.130E-01
CGA:  34    -0.230443567923E+03   -0.25837E-01   -0.25273E-01  8320   0.896E+00 0.242E-01
CGA:  35    -0.230454109583E+03   -0.10542E-01   -0.10334E-01  8320   0.804E+00 0.734E-02
CGA:  36    -0.230473642449E+03   -0.19533E-01   -0.19553E-01  8320   0.190E+01-0.496E-02
CGA:  37    -0.230499610056E+03   -0.25968E-01   -0.26053E-01  8320   0.118E+01-0.181E-02
CGA:  38    -0.230510178331E+03   -0.10568E-01   -0.11017E-01  8320   0.523E+00-0.297E-01
CGA:  39    -0.230518759591E+03   -0.85813E-02   -0.86432E-02  8320   0.672E+00 0.495E-02
SDA:  40    -0.230530343987E+03   -0.11584E-01   -0.11579E-01  8320   0.486E+00-0.447E-03
CGA:  41    -0.230541532760E+03   -0.11189E-01   -0.11264E-01  8320   0.327E+00-0.158E-01
CGA:  42    -0.230558177077E+03   -0.16644E-01   -0.16530E-01  8320   0.221E+00 0.392E-02
CGA:  43    -0.230573340675E+03   -0.15164E-01   -0.15205E-01  8320   0.127E+00-0.101E-02
CGA:  44    -0.230580547648E+03   -0.72070E-02   -0.72583E-02  8320   0.226E+00-0.166E-02
CGA:  45    -0.230586501225E+03   -0.59536E-02   -0.59517E-02  8320   0.545E-01 0.146E-02
CGA:  46    -0.230591806576E+03   -0.53054E-02   -0.52830E-02  8320   0.326E-01 0.345E-03
CGA:  47    -0.230592643326E+03   -0.83675E-03   -0.83609E-03  8320   0.250E-01-0.408E-04
CGA:  48    -0.230594068875E+03   -0.14255E-02   -0.14233E-02  8320   0.137E-01 0.786E-04
CGA:  49    -0.230594935709E+03   -0.86683E-03   -0.86481E-03  8320   0.145E-01 0.631E-04
CGA:  50    -0.230595351716E+03   -0.41601E-03   -0.41615E-03  8320   0.104E-01 0.507E-05
CGA:  51    -0.230595826964E+03   -0.47525E-03   -0.47546E-03  8320   0.301E-02-0.180E-04
CGA:  52    -0.230596142906E+03   -0.31594E-03   -0.31541E-03  8320   0.124E-01 0.111E-04
CGA:  53    -0.230596531158E+03   -0.38825E-03   -0.38838E-03  8320   0.355E-02-0.893E-06
CGA:  54    -0.230596816772E+03   -0.28561E-03   -0.28684E-03  8320   0.262E-02-0.286E-04
CGA:  55    -0.230596898186E+03   -0.81414E-04   -0.81475E-04  8320   0.243E-02-0.239E-05
CGA:  56    -0.230597022959E+03   -0.12477E-03   -0.12464E-03  8320   0.191E-02 0.441E-05
CGA:  57    -0.230597167383E+03   -0.14442E-03   -0.14523E-03  8320   0.990E-03-0.219E-04
CGA:  58    -0.230597197616E+03   -0.30232E-04   -0.30205E-04  8320   0.102E-02-0.369E-05
CGA:  59    -0.230597260086E+03   -0.62470E-04   -0.62455E-04  8320   0.441E-03-0.818E-06
CGA:  60    -0.230597298597E+03   -0.38511E-04   -0.38599E-04  8320   0.100E-02-0.206E-05
CGA:  61    -0.230597324329E+03   -0.25733E-04   -0.25626E-04  8320   0.351E-03-0.232E-05
CGA:  62    -0.230597344941E+03   -0.20612E-04   -0.20639E-04  8320   0.211E-03-0.202E-05
CGA:  63    -0.230597355115E+03   -0.10174E-04   -0.10173E-04  8320   0.288E-03-0.252E-06
CGA:  64    -0.230597364282E+03   -0.91677E-05   -0.91586E-05  8320   0.135E-03-0.520E-06
CGA:  65    -0.230597375413E+03   -0.11131E-04   -0.11114E-04  8320   0.808E-04 0.285E-06
CGA:  66    -0.230597377611E+03   -0.21977E-05   -0.22025E-05  8320   0.713E-04 0.956E-07
   8 F= -.23059738E+03 E0= -.23058324E+03  d E =-.252939E+00  mag=     7.1200
       N       E                     dE             d eps       ncg     rms          ort
SDA:   1    -0.176407090499E+03    0.54190E+02    0.00000E+00  8320   0.236E+04 0.000E+00
CGA:   2    -0.198329984320E+03   -0.21923E+02   -0.58418E+02  8320   0.173E+03-0.553E+02
CGA:   3    -0.206598853762E+03   -0.82689E+01   -0.82519E+01  8320   0.110E+03 0.109E+00
CGA:   4    -0.205954324704E+03    0.64453E+00   -0.11853E+02  8320   0.397E+03-0.423E+02
CGA:   5    -0.217649362314E+03   -0.11695E+02   -0.39252E+01  8320   0.360E+03 0.273E+03
CGA:   6    -0.224967136525E+03   -0.73178E+01   -0.61090E+01  8320   0.578E+02-0.214E+02
CGA:   7    -0.226063859197E+03   -0.10967E+01   -0.13316E+01  8320   0.446E+02-0.387E+01
CGA:   8    -0.227194012153E+03   -0.11302E+01   -0.11829E+01  8320   0.241E+02-0.326E+00
CGA:   9    -0.228664965997E+03   -0.14710E+01   -0.14756E+01  8320   0.392E+02-0.229E-01
CGA:  10    -0.229121835314E+03   -0.45687E+00   -0.60860E+00  8320   0.156E+02-0.837E+01
CGA:  11    -0.229606688095E+03   -0.48485E+00   -0.49133E+00  8320   0.770E+01 0.845E+00
CGA:  12    -0.229860371832E+03   -0.25368E+00   -0.24884E+00  8320   0.679E+01-0.572E-01
CGA:  13    -0.230165091455E+03   -0.30472E+00   -0.30412E+00  8320   0.833E+01 0.128E+00
CGA:  14    -0.230403736704E+03   -0.23865E+00   -0.25389E+00  8320   0.321E+01 0.107E+00
CGA:  15    -0.230502733974E+03   -0.98997E-01   -0.99930E-01  8320   0.213E+01 0.726E-02
CGA:  16    -0.230560151032E+03   -0.57417E-01   -0.56988E-01  8320   0.958E+00 0.231E-02
CGA:  17    -0.230598868736E+03   -0.38718E-01   -0.38739E-01  8320   0.735E+00 0.430E-01
CGA:  18    -0.230626559259E+03   -0.27691E-01   -0.27720E-01  8320   0.709E+00 0.226E-02
CGA:  19    -0.230654620043E+03   -0.28061E-01   -0.28079E-01  8320   0.327E+00 0.941E-02
CGA:  20    -0.230665132966E+03   -0.10513E-01   -0.10568E-01  8320   0.252E+00 0.155E-02
CGA:  21    -0.230675413822E+03   -0.10281E-01   -0.10273E-01  8320   0.180E+00 0.616E-02
CGA:  22    -0.230684748471E+03   -0.93346E-02   -0.93453E-02  8320   0.254E+00-0.678E-03
CGA:  23    -0.230694566776E+03   -0.98183E-02   -0.98280E-02  8320   0.137E+00 0.262E-02
CGA:  24    -0.230700156176E+03   -0.55894E-02   -0.55903E-02  8320   0.985E-01 0.257E-02
CGA:  25    -0.230703667625E+03   -0.35114E-02   -0.35246E-02  8320   0.722E-01 0.872E-03
CGA:  26    -0.230707742989E+03   -0.40754E-02   -0.40689E-02  8320   0.651E-01 0.329E-03
CGA:  27    -0.230709929235E+03   -0.21862E-02   -0.21954E-02  8320   0.419E-01 0.364E-03
CGA:  28    -0.230711945654E+03   -0.20164E-02   -0.20077E-02  8320   0.235E-01 0.800E-03
CGA:  29    -0.230712764123E+03   -0.81847E-03   -0.82024E-03  8320   0.177E-01 0.847E-04
CGA:  30    -0.230713791544E+03   -0.10274E-02   -0.10251E-02  8320   0.142E-01 0.108E-03
CGA:  31    -0.230714299061E+03   -0.50752E-03   -0.50819E-03  8320   0.879E-02 0.431E-04
CGA:  32    -0.230714669578E+03   -0.37052E-03   -0.37042E-03  8320   0.504E-02 0.591E-04
CGA:  33    -0.230714910235E+03   -0.24066E-03   -0.24055E-03  8320   0.513E-02 0.116E-04
CGA:  34    -0.230715142467E+03   -0.23223E-03   -0.23208E-03  8320   0.383E-02 0.261E-04
CGA:  35    -0.230715347888E+03   -0.20542E-03   -0.20530E-03  8320   0.319E-02 0.781E-05
SDA:  36    -0.230715446310E+03   -0.98422E-04   -0.98690E-04  8320   0.128E-02 0.417E-05
CGA:  37    -0.230715476118E+03   -0.29809E-04   -0.29816E-04  8320   0.827E-03-0.168E-05
CGA:  38    -0.230715546656E+03   -0.70537E-04   -0.70603E-04  8320   0.111E-02-0.181E-05
CGA:  39    -0.230715623118E+03   -0.76462E-04   -0.76533E-04  8320   0.716E-03-0.301E-05
CGA:  40    -0.230715698866E+03   -0.75748E-04   -0.75895E-04  8320   0.499E-03-0.245E-05
CGA:  41    -0.230715760503E+03   -0.61637E-04   -0.62241E-04  8320   0.665E-03-0.810E-05
CGA:  42    -0.230715774842E+03   -0.14339E-04   -0.14348E-04  8320   0.290E-03-0.222E-05
CGA:  43    -0.230715812670E+03   -0.37828E-04   -0.38063E-04  8320   0.249E-03-0.294E-05
CGA:  44    -0.230715839100E+03   -0.26430E-04   -0.26482E-04  8320   0.284E-03-0.100E-05
CGA:  45    -0.230715848636E+03   -0.95362E-05   -0.95212E-05  8320   0.182E-03-0.748E-06
   9 F= -.23071585E+03 E0= -.23070137E+03  d E =-.118471E+00  mag=     7.1192
       N       E                     dE             d eps       ncg     rms          ort
SDA:   1    -0.191208780314E+03    0.39507E+02    0.00000E+00  8320   0.191E+03 0.000E+00
CGA:   2    -0.199066396866E+03   -0.78576E+01   -0.80875E+01  8320   0.208E+03-0.212E+01
CGA:   3    -0.210041511322E+03   -0.10975E+02   -0.10934E+02  8320   0.464E+03-0.321E+02
CGA:   4    -0.216362412614E+03   -0.63209E+01   -0.93525E+01  8320   0.315E+03-0.112E+03
CGA:   5    -0.221183705718E+03   -0.48213E+01   -0.51702E+01  8320   0.964E+02-0.830E+01
CGA:   6    -0.224868711937E+03   -0.36850E+01   -0.34106E+01  8320   0.413E+02 0.650E+01
CGA:   7    -0.226111618838E+03   -0.12429E+01   -0.11770E+01  8320   0.907E+02-0.161E+00
CGA:   8    -0.227908430655E+03   -0.17968E+01   -0.17627E+01  8320   0.671E+02-0.311E+01
CGA:   9    -0.228643801912E+03   -0.73537E+00   -0.11103E+01  8320   0.305E+02-0.136E+02
CGA:  10    -0.229294980429E+03   -0.65118E+00   -0.58382E+00  8320   0.244E+02 0.147E+01
CGA:  11    -0.229503297992E+03   -0.20832E+00   -0.13980E+00  8320   0.107E+02 0.113E+02
CGA:  12    -0.229641137529E+03   -0.13784E+00   -0.12665E+00  8320   0.106E+02 0.961E+00
CGA:  13    -0.229776255007E+03   -0.13512E+00   -0.12422E+00  8320   0.205E+02 0.733E+00
CGA:  14    -0.229923225883E+03   -0.14697E+00   -0.17250E+00  8320   0.224E+02-0.304E+01
CGA:  15    -0.230008976128E+03   -0.85750E-01   -0.16798E+00  8320   0.159E+02-0.638E+01
CGA:  16    -0.230072289442E+03   -0.63313E-01   -0.90260E-01  8320   0.848E+01-0.306E+01
CGA:  17    -0.230145789157E+03   -0.73500E-01   -0.89526E-01  8320   0.119E+02-0.906E+00
CGA:  18    -0.230343931160E+03   -0.19814E+00   -0.13134E+00  8320   0.871E+01 0.460E+01
CGA:  19    -0.230422918509E+03   -0.78987E-01   -0.55219E-01  8320   0.372E+01 0.472E+01
CGA:  20    -0.230527752712E+03   -0.10483E+00   -0.10377E+00  8320   0.340E+01-0.110E+00
CGA:  21    -0.230628264483E+03   -0.10051E+00   -0.10067E+00  8320   0.247E+01 0.916E-01
CGA:  22    -0.230695078177E+03   -0.66814E-01   -0.66285E-01  8320   0.702E+00-0.318E-01
CGA:  23    -0.230742099493E+03   -0.47021E-01   -0.47069E-01  8320   0.186E+01-0.835E-03
CGA:  24    -0.230778461290E+03   -0.36362E-01   -0.38752E-01  8320   0.452E+00-0.919E-02
CGA:  25    -0.230804481716E+03   -0.26020E-01   -0.24517E-01  8320   0.510E+00 0.589E-01
CGA:  26    -0.230820470675E+03   -0.15989E-01   -0.15972E-01  8320   0.369E+00-0.107E-02
CGA:  27    -0.230830993660E+03   -0.10523E-01   -0.10594E-01  8320   0.160E+00 0.578E-02
CGA:  28    -0.230840658658E+03   -0.96650E-02   -0.91993E-02  8320   0.125E+00 0.175E-01
CGA:  29    -0.230843707926E+03   -0.30493E-02   -0.30337E-02  8320   0.691E-01 0.696E-04
CGA:  30    -0.230848923586E+03   -0.52157E-02   -0.51501E-02  8320   0.619E-01 0.148E-02
CGA:  31    -0.230852574205E+03   -0.36506E-02   -0.35113E-02  8320   0.208E-01 0.582E-02
CGA:  32    -0.230853989127E+03   -0.14149E-02   -0.14180E-02  8320   0.416E-01-0.102E-03
CGA:  33    -0.230855218175E+03   -0.12290E-02   -0.12354E-02  8320   0.206E-01 0.229E-03
CGA:  34    -0.230856766702E+03   -0.15485E-02   -0.14885E-02  8320   0.197E-01 0.164E-02
CGA:  35    -0.230857310159E+03   -0.54346E-03   -0.54282E-03  8320   0.132E-01 0.493E-04
CGA:  36    -0.230858021288E+03   -0.71113E-03   -0.70951E-03  8320   0.909E-02 0.947E-04
CGA:  37    -0.230858742311E+03   -0.72102E-03   -0.70536E-03  8320   0.868E-02 0.401E-03
CGA:  38    -0.230858957449E+03   -0.21514E-03   -0.21471E-03  8320   0.466E-02 0.309E-04
CGA:  39    -0.230859290504E+03   -0.33305E-03   -0.33217E-03  8320   0.255E-02 0.271E-04
CGA:  40    -0.230859522074E+03   -0.23157E-03   -0.22952E-03  8320   0.309E-02 0.432E-04
CGA:  41    -0.230859643855E+03   -0.12178E-03   -0.12181E-03  8320   0.367E-02 0.578E-05
CGA:  42    -0.230859803839E+03   -0.15998E-03   -0.15999E-03  8320   0.165E-02 0.145E-04
CGA:  43    -0.230859947474E+03   -0.14364E-03   -0.14327E-03  8320   0.135E-02 0.797E-05
CGA:  44    -0.230860003131E+03   -0.55657E-04   -0.55652E-04  8320   0.189E-02 0.154E-07
CGA:  45    -0.230860083662E+03   -0.80531E-04   -0.80539E-04  8320   0.633E-03 0.153E-05
CGA:  46    -0.230860131112E+03   -0.47450E-04   -0.47355E-04  8320   0.559E-03 0.271E-05
CGA:  47    -0.230860153853E+03   -0.22742E-04   -0.22746E-04  8320   0.716E-03 0.481E-06
CGA:  48    -0.230860184633E+03   -0.30780E-04   -0.30784E-04  8320   0.343E-03 0.125E-06
CGA:  49    -0.230860215538E+03   -0.30904E-04   -0.31024E-04  8320   0.216E-03-0.298E-05
SDA:  50    -0.230860224606E+03   -0.90679E-05   -0.90592E-05  8320   0.296E-03-0.143E-05
  10 F= -.23086022E+03 E0= -.23084591E+03  d E =-.144376E+00  mag=     7.1705
       N       E                     dE             d eps       ncg     rms          ort
SDA:   1    -0.157273075627E+03    0.73587E+02    0.00000E+00  8320   0.782E+03 0.000E+00
CGA:   2    -0.178683392550E+03   -0.21410E+02   -0.21037E+02  8320   0.205E+03 0.916E+02
CGA:   3    -0.188957673667E+03   -0.10274E+02   -0.10262E+02  8320   0.525E+03-0.814E+01
CGA:   4    -0.195743913694E+03   -0.67862E+01   -0.11832E+02  8320   0.412E+03-0.408E+02
CGA:   5    -0.213249350195E+03   -0.17505E+02   -0.17914E+02  8320   0.142E+03-0.937E+02
CGA:   6    -0.217314586233E+03   -0.40652E+01   -0.21182E+01  8320   0.975E+02 0.898E+02
CGA:   7    -0.220583940901E+03   -0.32694E+01   -0.32795E+01  8320   0.137E+03-0.127E+01
CGA:   8    -0.225787362049E+03   -0.52034E+01   -0.52143E+01  8320   0.548E+02 0.428E+00
CGA:   9    -0.227124036517E+03   -0.13367E+01   -0.12395E+01  8320   0.332E+02 0.177E+01
CGA:  10    -0.227907231008E+03   -0.78319E+00   -0.77207E+00  8320   0.286E+02-0.396E+00
CGA:  11    -0.228560707558E+03   -0.65348E+00   -0.76015E+00  8320   0.126E+02 0.192E+00
CGA:  12    -0.229077649343E+03   -0.51694E+00   -0.51600E+00  8320   0.149E+02 0.798E+00
CGA:  13    -0.229459846386E+03   -0.38220E+00   -0.33072E+00  8320   0.898E+01 0.142E+01
CGA:  14    -0.229839206373E+03   -0.37936E+00   -0.37732E+00  8320   0.105E+02-0.112E+01
CGA:  15    -0.230027216293E+03   -0.18801E+00   -0.22042E+00  8320   0.698E+01-0.859E-01
CGA:  16    -0.230291308283E+03   -0.26409E+00   -0.26430E+00  8320   0.494E+01 0.442E+00
CGA:  17    -0.230401194569E+03   -0.10989E+00   -0.10806E+00  8320   0.188E+01 0.210E-01
CGA:  18    -0.230540695571E+03   -0.13950E+00   -0.13410E+00  8320   0.157E+01 0.147E+00
CGA:  19    -0.230599932008E+03   -0.59236E-01   -0.59945E-01  8320   0.856E+00 0.741E-01
CGA:  20    -0.230631734715E+03   -0.31803E-01   -0.31676E-01  8320   0.102E+01-0.143E-01
CGA:  21    -0.230688321578E+03   -0.56587E-01   -0.56639E-01  8320   0.391E+00-0.719E-02
CGA:  22    -0.230711344226E+03   -0.23023E-01   -0.22850E-01  8320   0.514E+00 0.687E-02
CGA:  23    -0.230725574534E+03   -0.14230E-01   -0.14773E-01  8320   0.282E+00 0.279E-02
CGA:  24    -0.230745186384E+03   -0.19612E-01   -0.19812E-01  8320   0.188E+00-0.696E-02
CGA:  25    -0.230758213161E+03   -0.13027E-01   -0.12514E-01  8320   0.214E+00 0.166E-01
CGA:  26    -0.230765162712E+03   -0.69496E-02   -0.68572E-02  8320   0.131E+00-0.332E-03
CGA:  27    -0.230772405894E+03   -0.72432E-02   -0.71547E-02  8320   0.567E-01 0.501E-02
CGA:  28    -0.230776872312E+03   -0.44664E-02   -0.44606E-02  8320   0.689E-01 0.171E-03
CGA:  29    -0.230778934289E+03   -0.20620E-02   -0.20753E-02  8320   0.416E-01 0.771E-04
CGA:  30    -0.230781939077E+03   -0.30048E-02   -0.29836E-02  8320   0.211E-01 0.697E-03
CGA:  31    -0.230783520653E+03   -0.15816E-02   -0.16124E-02  8320   0.418E-01-0.985E-03
CGA:  32    -0.230785008627E+03   -0.14880E-02   -0.15227E-02  8320   0.243E-01 0.117E-02
CGA:  33    -0.230786992192E+03   -0.19836E-02   -0.30665E-02  8320   0.162E+00-0.210E-01
CGA:  34    -0.230789463796E+03   -0.24716E-02   -0.24550E-02  8320   0.286E-01 0.698E-03
CGA:  35    -0.230791104416E+03   -0.16406E-02   -0.16416E-02  8320   0.190E-01-0.687E-04
CGA:  36    -0.230794096042E+03   -0.29916E-02   -0.45599E-02  8320   0.173E+00-0.137E-01
CGA:  37    -0.230797295038E+03   -0.31990E-02   -0.32079E-02  8320   0.686E-01-0.468E-03
CGA:  38    -0.230799420315E+03   -0.21253E-02   -0.21112E-02  8320   0.170E-01 0.193E-03
CGA:  39    -0.230800837550E+03   -0.14172E-02   -0.14179E-02  8320   0.143E-01-0.199E-04
CGA:  40    -0.230801804006E+03   -0.96646E-03   -0.97174E-03  8320   0.549E-01-0.289E-03
CGA:  41    -0.230804110243E+03   -0.23062E-02   -0.21733E-02  8320   0.188E-01-0.145E-03
CGA:  42    -0.230805952199E+03   -0.18420E-02   -0.20363E-02  8320   0.561E-01-0.397E-02
CGA:  43    -0.230806739633E+03   -0.78743E-03   -0.11601E-02  8320   0.190E-01-0.691E-02
CGA:  44    -0.230807700862E+03   -0.96123E-03   -0.96094E-03  8320   0.647E-02 0.440E-03
CGA:  45    -0.230807826559E+03   -0.12570E-03   -0.12583E-03  8320   0.381E-02-0.124E-04
CGA:  46    -0.230808096931E+03   -0.27037E-03   -0.27002E-03  8320   0.236E-02 0.135E-04
CGA:  47    -0.230808247749E+03   -0.15082E-03   -0.15047E-03  8320   0.507E-02 0.289E-04
CGA:  48    -0.230808367827E+03   -0.12008E-03   -0.11840E-03  8320   0.144E-02 0.482E-04
CGA:  49    -0.230808488869E+03   -0.12104E-03   -0.12104E-03  8320   0.138E-02-0.943E-06
CGA:  50    -0.230808543488E+03   -0.54619E-04   -0.55387E-04  8320   0.251E-02 0.482E-05
CGA:  51    -0.230808679602E+03   -0.13611E-03   -0.13583E-03  8320   0.127E-02-0.844E-04
CGA:  52    -0.230808780749E+03   -0.10115E-03   -0.99705E-04  8320   0.107E-02 0.432E-04
CGA:  53    -0.230808850162E+03   -0.69413E-04   -0.69855E-04  8320   0.244E-02-0.403E-04
CGA:  54    -0.230808919673E+03   -0.69511E-04   -0.73524E-04  8320   0.732E-03-0.427E-04
CGA:  55    -0.230808965327E+03   -0.45654E-04   -0.45429E-04  8320   0.105E-02 0.190E-04
CGA:  56    -0.230808985678E+03   -0.20350E-04   -0.19952E-04  8320   0.191E-03 0.176E-04
CGA:  57    -0.230809000773E+03   -0.15096E-04   -0.15082E-04  8320   0.174E-03 0.128E-06
CGA:  58    -0.230809005899E+03   -0.51252E-05   -0.51572E-05  8320   0.187E-03-0.108E-06
CGA:  59    -0.230809016956E+03   -0.11058E-04   -0.11057E-04  8320   0.728E-04 0.906E-07
CGA:  60    -0.230809022572E+03   -0.56159E-05   -0.56216E-05  8320   0.175E-03-0.570E-06
  11 F= -.23080902E+03 E0= -.23079464E+03  d E =0.512020E-01  mag=     7.2495
       N       E                     dE             d eps       ncg     rms          ort
SDA:   1    -0.219710395696E+03    0.11099E+02    0.00000E+00  8320   0.392E+02 0.000E+00
CGA:   2    -0.221699054490E+03   -0.19887E+01   -0.20039E+01  8320   0.864E+02 0.220E+01
CGA:   3    -0.226499336898E+03   -0.48003E+01   -0.48118E+01  8320   0.332E+02 0.523E+01
CGA:   4    -0.228371832432E+03   -0.18725E+01   -0.18759E+01  8320   0.318E+02 0.372E+01
CGA:   5    -0.229024432195E+03   -0.65260E+00   -0.58371E+00  8320   0.145E+02-0.143E+00
CGA:   6    -0.229907149744E+03   -0.88272E+00   -0.93245E+00  8320   0.171E+02-0.298E+01
CGA:   7    -0.230287459182E+03   -0.38031E+00   -0.39528E+00  8320   0.127E+02-0.299E+00
CGA:   8    -0.230584187087E+03   -0.29673E+00   -0.28332E+00  8320   0.201E+01 0.352E+00
CGA:   9    -0.230666416084E+03   -0.82229E-01   -0.82001E-01  8320   0.447E+01-0.682E-02
CGA:  10    -0.230785178294E+03   -0.11876E+00   -0.11933E+00  8320   0.104E+01-0.102E-01
CGA:  11    -0.230819082995E+03   -0.33905E-01   -0.34441E-01  8320   0.152E+01 0.169E-02
CGA:  12    -0.230860473193E+03   -0.41390E-01   -0.41623E-01  8320   0.522E+00-0.261E-02
CGA:  13    -0.230878470741E+03   -0.17998E-01   -0.18131E-01  8320   0.564E+00 0.181E-02
CGA:  14    -0.230890718401E+03   -0.12248E-01   -0.12484E-01  8320   0.257E+00-0.592E-02
CGA:  15    -0.230906516697E+03   -0.15798E-01   -0.15782E-01  8320   0.181E+00 0.693E-03
CGA:  16    -0.230912019238E+03   -0.55025E-02   -0.55227E-02  8320   0.207E+00 0.164E-04
CGA:  17    -0.230919368266E+03   -0.73490E-02   -0.73576E-02  8320   0.437E-01 0.236E-03
CGA:  18    -0.230922405211E+03   -0.30369E-02   -0.30315E-02  8320   0.823E-01 0.186E-03
CGA:  19    -0.230924420352E+03   -0.20151E-02   -0.20367E-02  8320   0.436E-01-0.322E-03
CGA:  20    -0.230926945538E+03   -0.25252E-02   -0.25282E-02  8320   0.228E-01-0.156E-03
CGA:  21    -0.230928163059E+03   -0.12175E-02   -0.12151E-02  8320   0.223E-01 0.190E-03
CGA:  22    -0.230928694896E+03   -0.53184E-03   -0.53218E-03  8320   0.130E-01 0.221E-04
CGA:  23    -0.230929734638E+03   -0.10397E-02   -0.10396E-02  8320   0.483E-02 0.778E-05
CGA:  24    -0.230930131521E+03   -0.39688E-03   -0.39658E-03  8320   0.785E-02 0.105E-04
CGA:  25    -0.230930393638E+03   -0.26212E-03   -0.26303E-03  8320   0.713E-02 0.104E-04
CGA:  26    -0.230930649846E+03   -0.25621E-03   -0.25672E-03  8320   0.183E-02 0.132E-04
CGA:  27    -0.230930826621E+03   -0.17678E-03   -0.17660E-03  8320   0.108E-02 0.338E-05
CGA:  28    -0.230930945785E+03   -0.11916E-03   -0.11846E-03  8320   0.136E-02 0.117E-04
CGA:  29    -0.230931012174E+03   -0.66389E-04   -0.66415E-04  8320   0.145E-02 0.514E-05
CGA:  30    -0.230931048928E+03   -0.36754E-04   -0.36932E-04  8320   0.586E-03 0.721E-06
CGA:  31    -0.230931093988E+03   -0.45060E-04   -0.45049E-04  8320   0.325E-03 0.350E-06
SDA:  32    -0.230931136080E+03   -0.42092E-04   -0.42185E-04  8320   0.311E-03-0.127E-05
CGA:  33    -0.230931151801E+03   -0.15721E-04   -0.15732E-04  8320   0.148E-03 0.164E-05
CGA:  34    -0.230931159529E+03   -0.77278E-05   -0.77317E-05  8320   0.295E-03 0.983E-06
CGA:  35    -0.230931171932E+03   -0.12404E-04   -0.12421E-04  8320   0.161E-03 0.111E-05
CGA:  36    -0.230931187592E+03   -0.15660E-04   -0.15671E-04  8320   0.824E-04-0.362E-06
CGA:  37    -0.230931196632E+03   -0.90398E-05   -0.91190E-05  8320   0.556E-04-0.151E-05
  12 F= -.23093120E+03 E0= -.23091681E+03  d E =-.122174E+00  mag=     7.2800
       N       E                     dE             d eps       ncg     rms          ort
SDA:   1    -0.225920708166E+03    0.50105E+01    0.00000E+00  8320   0.156E+02 0.000E+00
CGA:   2    -0.228200135614E+03   -0.22794E+01   -0.20336E+01  8320   0.170E+02 0.338E+01
CGA:   3    -0.228982962723E+03   -0.78283E+00   -0.55892E+00  8320   0.103E+02 0.410E+01
CGA:   4    -0.229585632883E+03   -0.60267E+00   -0.58413E+00  8320   0.261E+02-0.144E+00
CGA:   5    -0.230036263444E+03   -0.45063E+00   -0.48517E+00  8320   0.115E+02-0.176E+01
CGA:   6    -0.230272006483E+03   -0.23574E+00   -0.29998E+00  8320   0.191E+02-0.142E+01
CGA:   7    -0.230587516610E+03   -0.31551E+00   -0.24830E+00  8320   0.800E+01 0.402E+01
CGA:   8    -0.230698427465E+03   -0.11091E+00   -0.11458E+00  8320   0.213E+01-0.638E+00
CGA:   9    -0.230756167671E+03   -0.57740E-01   -0.57509E-01  8320   0.328E+01 0.422E-02
CGA:  10    -0.230821962885E+03   -0.65795E-01   -0.68686E-01  8320   0.144E+01-0.922E-01
CGA:  11    -0.230873581408E+03   -0.51619E-01   -0.52414E-01  8320   0.238E+01 0.802E-02
CGA:  12    -0.230924313137E+03   -0.50732E-01   -0.49209E-01  8320   0.424E+00 0.489E-01
CGA:  13    -0.230936153040E+03   -0.11840E-01   -0.11779E-01  8320   0.605E+00 0.732E-03
CGA:  14    -0.230957529935E+03   -0.21377E-01   -0.21452E-01  8320   0.272E+00 0.957E-03
CGA:  15    -0.230962809628E+03   -0.52797E-02   -0.54511E-02  8320   0.232E+00-0.548E-02
CGA:  16    -0.230977440459E+03   -0.14631E-01   -0.14597E-01  8320   0.261E+00 0.139E-02
CGA:  17    -0.230981725192E+03   -0.42847E-02   -0.42162E-02  8320   0.946E-01 0.307E-02
CGA:  18    -0.230985432138E+03   -0.37069E-02   -0.36871E-02  8320   0.814E-01-0.898E-03
CGA:  19    -0.230987273327E+03   -0.18412E-02   -0.18762E-02  8320   0.721E-01-0.684E-03
CGA:  20    -0.230991079326E+03   -0.38060E-02   -0.37966E-02  8320   0.670E-01 0.796E-03
CGA:  21    -0.230992261486E+03   -0.11822E-02   -0.11658E-02  8320   0.308E-01 0.664E-03
CGA:  22    -0.230994039568E+03   -0.17781E-02   -0.17793E-02  8320   0.349E-01-0.838E-04
CGA:  23    -0.230994565905E+03   -0.52634E-03   -0.53364E-03  8320   0.878E-02-0.347E-03
CGA:  24    -0.230995225518E+03   -0.65961E-03   -0.65803E-03  8320   0.263E-01 0.445E-04
CGA:  25    -0.230995784122E+03   -0.55860E-03   -0.55641E-03  8320   0.649E-02 0.712E-04
CGA:  26    -0.230996104199E+03   -0.32008E-03   -0.32003E-03  8320   0.119E-01 0.800E-05
CGA:  27    -0.230996367970E+03   -0.26377E-03   -0.26494E-03  8320   0.305E-02-0.140E-04
CGA:  28    -0.230996495657E+03   -0.12769E-03   -0.12769E-03  8320   0.399E-02 0.522E-05
CGA:  29    -0.230996592413E+03   -0.96755E-04   -0.96643E-04  8320   0.223E-02 0.476E-05
CGA:  30    -0.230996726999E+03   -0.13459E-03   -0.13458E-03  8320   0.297E-02 0.102E-05
CGA:  31    -0.230996778406E+03   -0.51407E-04   -0.51530E-04  8320   0.887E-03-0.228E-05
SDA:  32    -0.230996849302E+03   -0.70896E-04   -0.70796E-04  8320   0.211E-02 0.353E-05
CGA:  33    -0.230996878914E+03   -0.29612E-04   -0.29546E-04  8320   0.283E-03 0.413E-05
CGA:  34    -0.230996919882E+03   -0.40969E-04   -0.41207E-04  8320   0.505E-03-0.231E-05
CGA:  35    -0.230996961045E+03   -0.41163E-04   -0.41191E-04  8320   0.265E-03-0.880E-06
CGA:  36    -0.230996982059E+03   -0.21014E-04   -0.21068E-04  8320   0.101E-03-0.174E-05
CGA:  37    -0.230996988194E+03   -0.61351E-05   -0.61368E-05  8320   0.225E-03-0.187E-06
  13 F= -.23099699E+03 E0= -.23098250E+03  d E =-.657916E-01  mag=     7.2710
       N       E                     dE             d eps       ncg     rms          ort
SDA:   1    -0.227987973366E+03    0.30090E+01    0.00000E+00  8320   0.890E+01 0.000E+00
CGA:   2    -0.229426931781E+03   -0.14390E+01   -0.14298E+01  8320   0.130E+02 0.418E-01
CGA:   3    -0.230193891153E+03   -0.76696E+00   -0.77336E+00  8320   0.103E+02-0.895E+00
CGA:   4    -0.230452557001E+03   -0.25867E+00   -0.27225E+00  8320   0.555E+01-0.259E+00
CGA:   5    -0.230710539362E+03   -0.25798E+00   -0.25381E+00  8320   0.312E+01-0.183E+00
CGA:   6    -0.230839096003E+03   -0.12856E+00   -0.13119E+00  8320   0.295E+01 0.663E-01
CGA:   7    -0.230933703840E+03   -0.94608E-01   -0.90681E-01  8320   0.544E+00 0.415E-01
CGA:   8    -0.230960602051E+03   -0.26898E-01   -0.26921E-01  8320   0.737E+00 0.294E-02
CGA:   9    -0.230987422070E+03   -0.26820E-01   -0.26404E-01  8320   0.283E+00-0.134E-02
CGA:  10    -0.230998910219E+03   -0.11488E-01   -0.11579E-01  8320   0.189E+00 0.227E-02
CGA:  11    -0.231004691281E+03   -0.57811E-02   -0.57581E-02  8320   0.946E-01 0.191E-03
CGA:  12    -0.231009058332E+03   -0.43671E-02   -0.43721E-02  8320   0.634E-01 0.636E-03
CGA:  13    -0.231011776536E+03   -0.27182E-02   -0.27128E-02  8320   0.693E-01-0.236E-03
CGA:  14    -0.231014486669E+03   -0.27101E-02   -0.27183E-02  8320   0.202E-01 0.221E-03
CGA:  15    -0.231015266923E+03   -0.78025E-03   -0.77941E-03  8320   0.211E-01-0.172E-04
CGA:  16    -0.231016179745E+03   -0.91282E-03   -0.91427E-03  8320   0.925E-02 0.125E-03
CGA:  17    -0.231016660978E+03   -0.48123E-03   -0.48149E-03  8320   0.134E-01-0.340E-04
CGA:  18    -0.231017162072E+03   -0.50109E-03   -0.50214E-03  8320   0.481E-02 0.337E-04
CGA:  19    -0.231017368265E+03   -0.20619E-03   -0.20611E-03  8320   0.396E-02-0.300E-05
CGA:  20    -0.231017523103E+03   -0.15484E-03   -0.15511E-03  8320   0.357E-02 0.197E-04
CGA:  21    -0.231017732779E+03   -0.20968E-03   -0.20970E-03  8320   0.232E-02 0.579E-06
CGA:  22    -0.231017810307E+03   -0.77528E-04   -0.77655E-04  8320   0.202E-02 0.308E-05
CGA:  23    -0.231017924335E+03   -0.11403E-03   -0.11405E-03  8320   0.993E-03-0.975E-08
CGA:  24    -0.231017960257E+03   -0.35922E-04   -0.35963E-04  8320   0.108E-02 0.103E-05
CGA:  25    -0.231018028770E+03   -0.68513E-04   -0.68545E-04  8320   0.713E-03-0.141E-05
CGA:  26    -0.231018054688E+03   -0.25918E-04   -0.25937E-04  8320   0.612E-03 0.126E-05
CGA:  27    -0.231018080426E+03   -0.25738E-04   -0.25741E-04  8320   0.304E-03 0.158E-05
CGA:  28    -0.231018095589E+03   -0.15164E-04   -0.15159E-04  8320   0.368E-03 0.152E-05
CGA:  29    -0.231018110437E+03   -0.14848E-04   -0.14855E-04  8320   0.245E-03 0.129E-05
CGA:  30    -0.231018122349E+03   -0.11913E-04   -0.11910E-04  8320   0.149E-03 0.132E-05
CGA:  31    -0.231018126981E+03   -0.46311E-05   -0.46366E-05  8320   0.107E-03 0.452E-06
  14 F= -.23101813E+03 E0= -.23100356E+03  d E =-.211388E-01  mag=     7.2679
       N       E                     dE             d eps       ncg     rms          ort
SDA:   1    -0.189940096890E+03    0.41078E+02    0.00000E+00  8320   0.170E+03 0.000E+00
CGA:   2    -0.199855449710E+03   -0.99154E+01   -0.94722E+01  8320   0.128E+03 0.384E+02
CGA:   3    -0.205567581446E+03   -0.57121E+01   -0.14649E+02  8320   0.612E+03-0.101E+03
CGA:   4    -0.218257640321E+03   -0.12690E+02   -0.13924E+02  8320   0.141E+03-0.267E+03
CGA:   5    -0.221989315524E+03   -0.37317E+01   -0.37482E+01  8320   0.401E+02 0.504E+01
CGA:   6    -0.223878035515E+03   -0.18887E+01   -0.16783E+01  8320   0.594E+02-0.695E+01
CGA:   7    -0.226264488158E+03   -0.23865E+01   -0.23851E+01  8320   0.626E+02 0.222E+01
CGA:   8    -0.229270713969E+03   -0.30062E+01   -0.28906E+01  8320   0.268E+02-0.965E+01
CGA:   9    -0.229914569459E+03   -0.64386E+00   -0.62572E+00  8320   0.158E+02 0.327E+00
CGA:  10    -0.230250615646E+03   -0.33605E+00   -0.34820E+00  8320   0.882E+01-0.490E+00
CGA:  11    -0.230396067159E+03   -0.14545E+00   -0.15058E+00  8320   0.778E+01-0.153E+00
CGA:  12    -0.230547694374E+03   -0.15163E+00   -0.13983E+00  8320   0.497E+01 0.371E+00
CGA:  13    -0.230664450592E+03   -0.11676E+00   -0.13072E+00  8320   0.309E+01-0.149E+00
CGA:  14    -0.230732146795E+03   -0.67696E-01   -0.74495E-01  8320   0.240E+01-0.783E-01
CGA:  15    -0.230779346683E+03   -0.47200E-01   -0.44140E-01  8320   0.144E+01 0.930E-01
CGA:  16    -0.230815434806E+03   -0.36088E-01   -0.35784E-01  8320   0.112E+01 0.291E-02
CGA:  17    -0.230840829968E+03   -0.25395E-01   -0.25108E-01  8320   0.822E+00 0.360E-02
CGA:  18    -0.230866044106E+03   -0.25214E-01   -0.25875E-01  8320   0.870E+00 0.254E-01
CGA:  19    -0.230884997136E+03   -0.18953E-01   -0.18435E-01  8320   0.606E+00 0.111E-01
CGA:  20    -0.230899943315E+03   -0.14946E-01   -0.14952E-01  8320   0.381E+00 0.475E-04
CGA:  21    -0.230908478365E+03   -0.85351E-02   -0.85617E-02  8320   0.355E+00-0.549E-03
CGA:  22    -0.230923593689E+03   -0.15115E-01   -0.14885E-01  8320   0.343E+00 0.243E-01
CGA:  23    -0.230931238089E+03   -0.76444E-02   -0.76512E-02  8320   0.224E+00-0.194E-03
CGA:  24    -0.230936847912E+03   -0.56098E-02   -0.56548E-02  8320   0.111E+00 0.460E-03
CGA:  25    -0.230940364108E+03   -0.35162E-02   -0.35253E-02  8320   0.154E+00 0.117E-02
CGA:  26    -0.230945361061E+03   -0.49970E-02   -0.50110E-02  8320   0.814E-01 0.238E-02
CGA:  27    -0.230949095600E+03   -0.37345E-02   -0.37222E-02  8320   0.821E-01 0.887E-03
CGA:  28    -0.230951005349E+03   -0.19097E-02   -0.19243E-02  8320   0.475E-01 0.146E-04
CGA:  29    -0.230952944982E+03   -0.19396E-02   -0.19276E-02  8320   0.224E-01 0.133E-02
CGA:  30    -0.230953899215E+03   -0.95423E-03   -0.95096E-03  8320   0.352E-01 0.333E-03
CGA:  31    -0.230955058398E+03   -0.11592E-02   -0.11608E-02  8320   0.198E-01 0.261E-03
CGA:  32    -0.230956026942E+03   -0.96854E-03   -0.95681E-03  8320   0.128E-01 0.708E-03
CGA:  33    -0.230956356408E+03   -0.32947E-03   -0.33044E-03  8320   0.900E-02 0.174E-04
SDA:  34    -0.230956729038E+03   -0.37263E-03   -0.37235E-03  8320   0.445E-02 0.332E-04
CGA:  35    -0.230956866246E+03   -0.13721E-03   -0.13749E-03  8320   0.176E-02 0.247E-04
CGA:  36    -0.230957055845E+03   -0.18960E-03   -0.18854E-03  8320   0.539E-02 0.146E-04
CGA:  37    -0.230957220563E+03   -0.16472E-03   -0.16489E-03  8320   0.329E-02 0.109E-04
CGA:  38    -0.230957421637E+03   -0.20107E-03   -0.20063E-03  8320   0.101E-02 0.194E-04
CGA:  39    -0.230957575733E+03   -0.15410E-03   -0.15279E-03  8320   0.865E-03 0.113E-04
CGA:  40    -0.230957644353E+03   -0.68620E-04   -0.68366E-04  8320   0.137E-02 0.721E-05
CGA:  41    -0.230957695442E+03   -0.51090E-04   -0.51191E-04  8320   0.101E-02 0.682E-05
CGA:  42    -0.230957730022E+03   -0.34579E-04   -0.34725E-04  8320   0.695E-03 0.543E-05
CGA:  43    -0.230957810375E+03   -0.80353E-04   -0.80374E-04  8320   0.271E-03-0.894E-06
CGA:  44    -0.230957827286E+03   -0.16911E-04   -0.16886E-04  8320   0.674E-03 0.156E-05
CGA:  45    -0.230957855041E+03   -0.27755E-04   -0.27785E-04  8320   0.181E-03 0.223E-05
CGA:  46    -0.230957873655E+03   -0.18615E-04   -0.18650E-04  8320   0.260E-03-0.740E-06
CGA:  47    -0.230957883134E+03   -0.94782E-05   -0.94957E-05  8320   0.212E-03 0.221E-06
  15 F= -.23095788E+03 E0= -.23094260E+03  d E =0.602438E-01  mag=     7.3087
       N       E                     dE             d eps       ncg     rms          ort
SDA:   1     0.140826925246E+03    0.37178E+03    0.00000E+00  8320   0.104E+05 0.000E+00
CGA:   2    -0.158965701203E+03   -0.29979E+03   -0.33865E+03  8320   0.135E+04-0.455E+04
CGA:   3    -0.179890012419E+03   -0.20924E+02   -0.24664E+02  8320   0.181E+03 0.560E+02
CGA:   4    -0.189949248825E+03   -0.10059E+02   -0.61013E+01  8320   0.144E+03 0.364E+02
CGA:   5    -0.200002285105E+03   -0.10053E+02   -0.10422E+02  8320   0.829E+03-0.143E+02
CGA:   6    -0.205606717303E+03   -0.56044E+01   -0.85175E+01  8320   0.371E+03-0.184E+03
CGA:   7    -0.213270583291E+03   -0.76639E+01   -0.63943E+01  8320   0.373E+03 0.452E+02
CGA:   8    -0.217199653174E+03   -0.39291E+01   -0.76534E+01  8320   0.768E+02-0.122E+03
CGA:   9    -0.219092057159E+03   -0.18924E+01   -0.19558E+01  8320   0.696E+02 0.377E+01
CGA:  10    -0.222369495604E+03   -0.32774E+01   -0.32933E+01  8320   0.145E+03-0.736E+01
CGA:  11    -0.221684604413E+03    0.68489E+00   -0.10805E+01  8320   0.282E+03-0.264E+03
CGA:  12    -0.223524386433E+03   -0.18398E+01   -0.62593E+01  8320   0.118E+03-0.245E+02
CGA:  13    -0.225689772420E+03   -0.21654E+01   -0.15626E+01  8320   0.237E+02 0.294E+02
CGA:  14    -0.226056992873E+03   -0.36722E+00   -0.28928E+00  8320   0.206E+02 0.575E+01
CGA:  15    -0.226641483242E+03   -0.58449E+00   -0.56298E+00  8320   0.659E+02 0.445E+00
CGA:  16    -0.227210311727E+03   -0.56883E+00   -0.53120E+00  8320   0.642E+02-0.413E-02
CGA:  17    -0.227543877521E+03   -0.33357E+00   -0.40569E+00  8320   0.712E+02-0.112E+02
CGA:  18    -0.227915414072E+03   -0.37154E+00   -0.54275E+00  8320   0.119E+03-0.150E+02
CGA:  19    -0.228410070426E+03   -0.49466E+00   -0.79177E+00  8320   0.961E+02-0.262E+02
CGA:  20    -0.228729204917E+03   -0.31913E+00   -0.47828E+00  8320   0.297E+02-0.259E+02
CGA:  21    -0.228804373120E+03   -0.75168E-01   -0.16190E+00  8320   0.142E+02-0.996E+01
CGA:  22    -0.228881876581E+03   -0.77503E-01   -0.79178E-01  8320   0.830E+01-0.244E+00
CGA:  23    -0.228948106665E+03   -0.66230E-01   -0.57631E-01  8320   0.607E+01 0.956E+00
CGA:  24    -0.229044583363E+03   -0.96477E-01   -0.96414E-01  8320   0.135E+02-0.673E-02
CGA:  25    -0.229200193566E+03   -0.15561E+00   -0.13519E+00  8320   0.143E+02 0.163E+01
CGA:  26    -0.229290900662E+03   -0.90707E-01   -0.81303E-01  8320   0.786E+01 0.154E+01
CGA:  27    -0.229353603814E+03   -0.62703E-01   -0.79079E-01  8320   0.109E+02-0.128E+01
CGA:  28    -0.229457412684E+03   -0.10381E+00   -0.12046E+00  8320   0.161E+02-0.370E+00
CGA:  29    -0.229609250245E+03   -0.15184E+00   -0.16488E+00  8320   0.845E+01-0.565E+00
CGA:  30    -0.229693798276E+03   -0.84548E-01   -0.81123E-01  8320   0.483E+01 0.181E+00
CGA:  31    -0.229754189867E+03   -0.60392E-01   -0.57603E-01  8320   0.489E+01 0.931E-01
CGA:  32    -0.229816908722E+03   -0.62719E-01   -0.64123E-01  8320   0.471E+01-0.335E-01
CGA:  33    -0.229864223456E+03   -0.47315E-01   -0.48000E-01  8320   0.349E+01-0.346E-01
CGA:  34    -0.229912356991E+03   -0.48134E-01   -0.48784E-01  8320   0.369E+01 0.417E-02
CGA:  35    -0.229950229191E+03   -0.37872E-01   -0.36201E-01  8320   0.189E+01 0.924E-01
CGA:  36    -0.229968760120E+03   -0.18531E-01   -0.18976E-01  8320   0.148E+01-0.239E-01
CGA:  37    -0.229995028289E+03   -0.26268E-01   -0.26358E-01  8320   0.255E+01 0.296E-01
CGA:  38    -0.230032003373E+03   -0.36975E-01   -0.37016E-01  8320   0.155E+01 0.166E-02
CGA:  39    -0.230047246138E+03   -0.15243E-01   -0.15524E-01  8320   0.839E+00-0.143E-01
CGA:  40    -0.230064035514E+03   -0.16789E-01   -0.16771E-01  8320   0.154E+01 0.613E-02
CGA:  41    -0.230094829808E+03   -0.30794E-01   -0.30772E-01  8320   0.144E+01 0.986E-02
SDA:  42    -0.230110643516E+03   -0.15814E-01   -0.15826E-01  8320   0.612E+00-0.167E-02
CGA:  43    -0.230140609313E+03   -0.29966E-01   -0.31049E-01  8320   0.491E+00-0.382E-01
CGA:  44    -0.230161658624E+03   -0.21049E-01   -0.20740E-01  8320   0.163E+00 0.129E-01
CGA:  45    -0.230168627455E+03   -0.69688E-02   -0.70450E-02  8320   0.322E+00-0.358E-02
CGA:  46    -0.230182209561E+03   -0.13582E-01   -0.13617E-01  8320   0.970E-01-0.173E-02
CGA:  47    -0.230187647635E+03   -0.54381E-02   -0.54014E-02  8320   0.955E-01 0.124E-02
CGA:  48    -0.230191297438E+03   -0.36498E-02   -0.36363E-02  8320   0.701E-01 0.888E-03
CGA:  49    -0.230193269599E+03   -0.19722E-02   -0.19703E-02  8320   0.503E-01 0.460E-03
CGA:  50    -0.230196697505E+03   -0.34279E-02   -0.34446E-02  8320   0.148E-01-0.450E-03
CGA:  51    -0.230197968774E+03   -0.12713E-02   -0.12784E-02  8320   0.236E-01-0.126E-03
CGA:  52    -0.230199146518E+03   -0.11777E-02   -0.11713E-02  8320   0.117E-01 0.288E-03
CGA:  53    -0.230200147081E+03   -0.10006E-02   -0.99948E-03  8320   0.179E-01 0.252E-04
CGA:  54    -0.230200591466E+03   -0.44438E-03   -0.44487E-03  8320   0.106E-01-0.527E-05
CGA:  55    -0.230201310276E+03   -0.71881E-03   -0.72084E-03  8320   0.906E-02-0.609E-04
CGA:  56    -0.230201727709E+03   -0.41743E-03   -0.41692E-03  8320   0.612E-02 0.346E-04
CGA:  57    -0.230202248093E+03   -0.52038E-03   -0.51789E-03  8320   0.290E-02 0.518E-04
CGA:  58    -0.230202319565E+03   -0.71472E-04   -0.71721E-04  8320   0.193E-02-0.265E-05
CGA:  59    -0.230202461569E+03   -0.14200E-03   -0.14198E-03  8320   0.294E-02 0.358E-06
CGA:  60    -0.230202606956E+03   -0.14539E-03   -0.14531E-03  8320   0.163E-02 0.753E-05
CGA:  61    -0.230202738054E+03   -0.13110E-03   -0.13182E-03  8320   0.827E-03-0.188E-04
CGA:  62    -0.230202809177E+03   -0.71123E-04   -0.70924E-04  8320   0.154E-02 0.404E-05
CGA:  63    -0.230202886727E+03   -0.77550E-04   -0.77440E-04  8320   0.710E-03 0.148E-04
CGA:  64    -0.230202906485E+03   -0.19757E-04   -0.19797E-04  8320   0.538E-03 0.239E-05
CGA:  65    -0.230202945701E+03   -0.39216E-04   -0.39052E-04  8320   0.250E-03 0.510E-05
CGA:  66    -0.230202966801E+03   -0.21100E-04   -0.21030E-04  8320   0.470E-03 0.145E-05
CGA:  67    -0.230202998579E+03   -0.31778E-04   -0.31663E-04  8320   0.161E-03 0.541E-05
CGA:  68    -0.230203011340E+03   -0.12761E-04   -0.12672E-04  8320   0.148E-03 0.252E-05
CGA:  69    -0.230203018394E+03   -0.70543E-05   -0.70560E-05  8320   0.187E-03 0.203E-06
  16 F= -.23020302E+03 E0= -.23018777E+03  d E =0.754865E+00  mag=     7.2878
       N       E                     dE             d eps       ncg     rms          ort
SDA:   1    -0.103311795190E+03    0.12689E+03    0.00000E+00  8320   0.312E+04 0.000E+00
CGA:   2    -0.194825518308E+03   -0.91514E+02   -0.88997E+02  8320   0.246E+03-0.496E+03
CGA:   3    -0.204742452320E+03   -0.99169E+01   -0.99355E+01  8320   0.869E+02 0.439E+02
CGA:   4    -0.206683151152E+03   -0.19407E+01   -0.96198E+01  8320   0.120E+04-0.219E+03
CGA:   5    -0.215578545514E+03   -0.88954E+01   -0.28215E+02  8320   0.164E+03-0.189E+03
CGA:   6    -0.219756740485E+03   -0.41782E+01   -0.32298E+01  8320   0.433E+02 0.935E+01
CGA:   7    -0.220677882676E+03   -0.92114E+00   -0.75030E+00  8320   0.504E+02 0.276E+01
CGA:   8    -0.222124421063E+03   -0.14465E+01   -0.12451E+01  8320   0.939E+02 0.781E+01
CGA:   9    -0.223639619276E+03   -0.15152E+01   -0.15127E+01  8320   0.927E+02-0.608E+01
CGA:  10    -0.225298780838E+03   -0.16592E+01   -0.20826E+01  8320   0.256E+03-0.720E+01
CGA:  11    -0.228075700443E+03   -0.27769E+01   -0.22254E+01  8320   0.117E+03-0.269E+02
CGA:  12    -0.228366543822E+03   -0.29084E+00   -0.15897E+01  8320   0.152E+03-0.397E+02
CGA:  13    -0.228840004933E+03   -0.47346E+00   -0.70520E+00  8320   0.260E+02-0.419E+02
CGA:  14    -0.229048754033E+03   -0.20875E+00   -0.28634E+00  8320   0.239E+02-0.162E+01
CGA:  15    -0.229207562363E+03   -0.15881E+00   -0.91069E-01  8320   0.153E+02 0.153E+02
CGA:  16    -0.229487814896E+03   -0.28025E+00   -0.28079E+00  8320   0.780E+01-0.389E+00
CGA:  17    -0.230446732916E+03   -0.95892E+00   -0.96745E+00  8320   0.553E+01-0.178E+00
CGA:  18    -0.230692415724E+03   -0.24568E+00   -0.24519E+00  8320   0.476E+01 0.427E-01
CGA:  19    -0.230808838260E+03   -0.11642E+00   -0.11842E+00  8320   0.230E+01-0.295E-01
CGA:  20    -0.230913951783E+03   -0.10511E+00   -0.10863E+00  8320   0.172E+01-0.274E+00
CGA:  21    -0.230952056099E+03   -0.38104E-01   -0.38229E-01  8320   0.685E+00-0.144E-02
CGA:  22    -0.230981308955E+03   -0.29253E-01   -0.29365E-01  8320   0.518E+00-0.150E-01
CGA:  23    -0.230998781871E+03   -0.17473E-01   -0.17474E-01  8320   0.534E+00 0.126E-03
CGA:  24    -0.231030085027E+03   -0.31303E-01   -0.30802E-01  8320   0.374E+00 0.223E-01
CGA:  25    -0.231038621302E+03   -0.85363E-02   -0.86790E-02  8320   0.138E+00-0.225E-02
CGA:  26    -0.231045498033E+03   -0.68767E-02   -0.68232E-02  8320   0.128E+00 0.347E-02
CGA:  27    -0.231049329527E+03   -0.38315E-02   -0.38437E-02  8320   0.804E-01 0.227E-03
CGA:  28    -0.231055423192E+03   -0.60937E-02   -0.60430E-02  8320   0.123E+00 0.134E-02
CGA:  29    -0.231058592676E+03   -0.31695E-02   -0.31975E-02  8320   0.452E-01-0.144E-03
CGA:  30    -0.231061138614E+03   -0.25459E-02   -0.25171E-02  8320   0.422E-01 0.141E-02
CGA:  31    -0.231062544178E+03   -0.14056E-02   -0.14108E-02  8320   0.290E-01 0.186E-03
CGA:  32    -0.231064171844E+03   -0.16277E-02   -0.16138E-02  8320   0.296E-01 0.694E-03
CGA:  33    -0.231065261241E+03   -0.10894E-02   -0.10923E-02  8320   0.151E-01 0.238E-03
CGA:  34    -0.231065870831E+03   -0.60959E-03   -0.60970E-03  8320   0.128E-01 0.972E-04
CGA:  35    -0.231066450653E+03   -0.57982E-03   -0.57944E-03  8320   0.881E-02 0.550E-04
CGA:  36    -0.231066891641E+03   -0.44099E-03   -0.43942E-03  8320   0.921E-02 0.121E-03
CGA:  37    -0.231067226919E+03   -0.33528E-03   -0.33577E-03  8320   0.410E-02 0.385E-04
CGA:  38    -0.231067439953E+03   -0.21303E-03   -0.21232E-03  8320   0.463E-02 0.483E-04
CGA:  39    -0.231067630935E+03   -0.19098E-03   -0.19100E-03  8320   0.264E-02 0.180E-04
CGA:  40    -0.231067749927E+03   -0.11899E-03   -0.11889E-03  8320   0.242E-02 0.214E-04
CGA:  41    -0.231067884337E+03   -0.13441E-03   -0.13429E-03  8320   0.242E-02 0.970E-05
CGA:  42    -0.231067979425E+03   -0.95088E-04   -0.95199E-04  8320   0.155E-02 0.189E-04
[...]
CGA:  14    -0.232028245296E+03   -0.11306E-02   -0.11309E-02  8320   0.883E-02 0.472E-04
CGA:  15    -0.232029028165E+03   -0.78287E-03   -0.78283E-03  8320   0.998E-02 0.424E-05
CGA:  16    -0.232029346473E+03   -0.31831E-03   -0.31915E-03  8320   0.545E-02-0.560E-05
CGA:  17    -0.232029661371E+03   -0.31490E-03   -0.31520E-03  8320   0.338E-02 0.257E-04
CGA:  18    -0.232029854556E+03   -0.19318E-03   -0.19317E-03  8320   0.221E-02 0.128E-05
CGA:  19    -0.232030019740E+03   -0.16518E-03   -0.16516E-03  8320   0.236E-02 0.296E-05
CGA:  20    -0.232030089782E+03   -0.70042E-04   -0.70188E-04  8320   0.103E-02 0.180E-05
CGA:  21    -0.232030175171E+03   -0.85388E-04   -0.85278E-04  8320   0.656E-03 0.472E-05
CGA:  22    -0.232030213993E+03   -0.38822E-04   -0.38821E-04  8320   0.574E-03 0.994E-06
CGA:  23    -0.232030237088E+03   -0.23095E-04   -0.23127E-04  8320   0.373E-03 0.158E-05
CGA:  24    -0.232030254032E+03   -0.16944E-04   -0.16974E-04  8320   0.253E-03 0.146E-05
CGA:  25    -0.232030273445E+03   -0.19414E-04   -0.19378E-04  8320   0.847E-04 0.215E-05
CGA:  26    -0.232030277755E+03   -0.43091E-05   -0.43088E-05  8320   0.107E-03 0.235E-07
 144 F= -.23203028E+03 E0= -.23201648E+03  d E =-.839127E-01  mag=     6.8717
       N       E                     dE             d eps       ncg     rms          ort
SDA:   1    -0.228090141501E+03    0.39401E+01    0.00000E+00  8320   0.895E+02 0.000E+00
CGA:   2    -0.229517582599E+03   -0.14274E+01   -0.20436E+01  8320   0.322E+02-0.417E+02
CGA:   3    -0.230470204184E+03   -0.95262E+00   -0.96651E+00  8320   0.668E+01 0.306E+01
CGA:   4    -0.230914006195E+03   -0.44380E+00   -0.47118E+00  8320   0.116E+02-0.266E+01
CGA:   5    -0.231241860949E+03   -0.32785E+00   -0.32410E+00  8320   0.182E+02-0.722E-01
CGA:   6    -0.231799101051E+03   -0.55724E+00   -0.61569E+00  8320   0.638E+01-0.380E+00
CGA:   7    -0.231907384730E+03   -0.10828E+00   -0.12017E+00  8320   0.181E+01-0.509E+00
CGA:   8    -0.231979944124E+03   -0.72559E-01   -0.72353E-01  8320   0.871E+00-0.540E-02
CGA:   9    -0.232013767290E+03   -0.33823E-01   -0.33918E-01  8320   0.128E+01 0.210E-03
CGA:  10    -0.232077891542E+03   -0.64124E-01   -0.64094E-01  8320   0.282E+00-0.407E-02
CGA:  11    -0.232084464505E+03   -0.65730E-02   -0.65234E-02  8320   0.173E+00 0.122E-02
CGA:  12    -0.232092330982E+03   -0.78665E-02   -0.78790E-02  8320   0.835E-01 0.698E-03
CGA:  13    -0.232096754582E+03   -0.44236E-02   -0.44220E-02  8320   0.138E+00 0.722E-03
CGA:  14    -0.232101258747E+03   -0.45042E-02   -0.45317E-02  8320   0.425E-01-0.856E-04
CGA:  15    -0.232103287051E+03   -0.20283E-02   -0.20270E-02  8320   0.371E-01-0.188E-03
CGA:  16    -0.232104526885E+03   -0.12398E-02   -0.12420E-02  8320   0.323E-01 0.148E-04
CGA:  17    -0.232105975434E+03   -0.14485E-02   -0.14505E-02  8320   0.109E-01 0.182E-03
CGA:  18    -0.232106425757E+03   -0.45032E-03   -0.44963E-03  8320   0.132E-01 0.245E-04
CGA:  19    -0.232106892310E+03   -0.46655E-03   -0.46621E-03  8320   0.513E-02 0.111E-04
CGA:  20    -0.232107339887E+03   -0.44758E-03   -0.44485E-03  8320   0.108E-01 0.672E-04
CGA:  21    -0.232107612420E+03   -0.27253E-03   -0.27461E-03  8320   0.288E-02-0.288E-04
CGA:  22    -0.232107802970E+03   -0.19055E-03   -0.19050E-03  8320   0.214E-02 0.427E-05
CGA:  23    -0.232107867354E+03   -0.64384E-04   -0.64550E-04  8320   0.161E-02 0.345E-05
CGA:  24    -0.232107956677E+03   -0.89323E-04   -0.89234E-04  8320   0.132E-02 0.113E-04
CGA:  25    -0.232108036631E+03   -0.79953E-04   -0.79840E-04  8320   0.123E-02 0.111E-04
CGA:  26    -0.232108069663E+03   -0.33033E-04   -0.33097E-04  8320   0.597E-03 0.442E-05
CGA:  27    -0.232108102613E+03   -0.32950E-04   -0.32924E-04  8320   0.243E-03 0.364E-05
CGA:  28    -0.232108115231E+03   -0.12617E-04   -0.12612E-04  8320   0.458E-03 0.180E-05
CGA:  29    -0.232108135884E+03   -0.20653E-04   -0.20664E-04  8320   0.104E-03 0.268E-05
CGA:  30    -0.232108141937E+03   -0.60526E-05   -0.60420E-05  8320   0.153E-03 0.112E-05
 145 F= -.23210814E+03 E0= -.23209408E+03  d E =-.778642E-01  mag=     6.8703
       N       E                     dE             d eps       ncg     rms          ort
SDA:   1    -0.228831834294E+03    0.32763E+01    0.00000E+00  8320   0.867E+02 0.000E+00
CGA:   2    -0.230269065308E+03   -0.14372E+01   -0.17240E+01  8320   0.160E+02-0.258E+02
CGA:   3    -0.230741552746E+03   -0.47249E+00   -0.48599E+00  8320   0.547E+01 0.158E+01
CGA:   4    -0.231110266862E+03   -0.36871E+00   -0.47970E+00  8320   0.231E+02-0.312E+01
CGA:   5    -0.231374315352E+03   -0.26405E+00   -0.48356E+00  8320   0.568E+01-0.563E+01
CGA:   6    -0.231541759900E+03   -0.16744E+00   -0.16603E+00  8320   0.274E+01-0.557E-01
CGA:   7    -0.231777768987E+03   -0.23601E+00   -0.23831E+00  8320   0.504E+01-0.402E-01
CGA:   8    -0.231994514593E+03   -0.21675E+00   -0.21436E+00  8320   0.335E+01-0.163E+00
CGA:   9    -0.232093121018E+03   -0.98606E-01   -0.10757E+00  8320   0.329E+00 0.344E-01
CGA:  10    -0.232105852255E+03   -0.12731E-01   -0.12501E-01  8320   0.229E+00-0.511E-02
CGA:  11    -0.232116652205E+03   -0.10800E-01   -0.10801E-01  8320   0.226E+00-0.944E-03
CGA:  12    -0.232133101775E+03   -0.16450E-01   -0.16389E-01  8320   0.782E-01 0.210E-02
CGA:  13    -0.232135948415E+03   -0.28466E-02   -0.28461E-02  8320   0.503E-01-0.536E-05
CGA:  14    -0.232137979407E+03   -0.20310E-02   -0.20213E-02  8320   0.289E-01-0.374E-03
CGA:  15    -0.232139901401E+03   -0.19220E-02   -0.19167E-02  8320   0.136E-01 0.217E-03
CGA:  16    -0.232140514820E+03   -0.61342E-03   -0.61267E-03  8320   0.152E-01-0.767E-04
CGA:  17    -0.232141301889E+03   -0.78707E-03   -0.78699E-03  8320   0.108E-01 0.149E-04
CGA:  18    -0.232141969157E+03   -0.66727E-03   -0.66680E-03  8320   0.425E-02 0.287E-04
CGA:  19    -0.232142141620E+03   -0.17246E-03   -0.17255E-03  8320   0.394E-02 0.559E-05
CGA:  20    -0.232142335570E+03   -0.19395E-03   -0.19396E-03  8320   0.263E-02-0.778E-05
CGA:  21    -0.232142540940E+03   -0.20537E-03   -0.20479E-03  8320   0.213E-02 0.189E-04
CGA:  22    -0.232142641378E+03   -0.10044E-03   -0.10046E-03  8320   0.210E-02 0.688E-05
CGA:  23    -0.232142719264E+03   -0.77886E-04   -0.77970E-04  8320   0.594E-03 0.695E-05
CGA:  24    -0.232142757517E+03   -0.38253E-04   -0.38161E-04  8320   0.464E-03 0.609E-05
CGA:  25    -0.232142782696E+03   -0.25180E-04   -0.25161E-04  8320   0.575E-03 0.515E-05
CGA:  26    -0.232142805257E+03   -0.22561E-04   -0.22610E-04  8320   0.175E-03 0.540E-05
CGA:  27    -0.232142816494E+03   -0.11237E-04   -0.11181E-04  8320   0.117E-03 0.410E-05
CGA:  28    -0.232142821620E+03   -0.51260E-05   -0.51421E-05  8320   0.104E-03 0.224E-05
 146 F= -.23214282E+03 E0= -.23212853E+03  d E =-.346797E-01  mag=     6.8799
       N       E                     dE             d eps       ncg     rms          ort
SDA:   1    -0.231515842202E+03    0.62697E+00    0.00000E+00  8320   0.101E+02 0.000E+00
CGA:   2    -0.231686856568E+03   -0.17101E+00   -0.15641E+00  8320   0.122E+01 0.517E+00
CGA:   3    -0.231875185697E+03   -0.18833E+00   -0.18354E+00  8320   0.397E+01 0.575E-01
CGA:   4    -0.232008390075E+03   -0.13320E+00   -0.13456E+00  8320   0.157E+01-0.145E-01
CGA:   5    -0.232068263905E+03   -0.59874E-01   -0.54405E-01  8320   0.452E+00 0.394E-02
CGA:   6    -0.232104507160E+03   -0.36243E-01   -0.36335E-01  8320   0.383E+00-0.264E-02
CGA:   7    -0.232123296035E+03   -0.18789E-01   -0.18830E-01  8320   0.368E+00 0.663E-02
CGA:   8    -0.232133388388E+03   -0.10092E-01   -0.10062E-01  8320   0.681E-01 0.439E-03
CGA:   9    -0.232138540500E+03   -0.51521E-02   -0.51662E-02  8320   0.515E-01-0.477E-03
CGA:  10    -0.232141474782E+03   -0.29343E-02   -0.29327E-02  8320   0.238E-01 0.169E-03
CGA:  11    -0.232142865358E+03   -0.13906E-02   -0.13898E-02  8320   0.117E-01 0.841E-04
CGA:  12    -0.232143319678E+03   -0.45432E-03   -0.45458E-03  8320   0.136E-01 0.696E-05
CGA:  13    -0.232144189068E+03   -0.86939E-03   -0.86924E-03  8320   0.470E-02 0.132E-04
CGA:  14    -0.232144448430E+03   -0.25936E-03   -0.25933E-03  8320   0.258E-02 0.948E-05
CGA:  15    -0.232144633841E+03   -0.18541E-03   -0.18538E-03  8320   0.195E-02 0.254E-05
CGA:  16    -0.232144806645E+03   -0.17280E-03   -0.17260E-03  8320   0.162E-02 0.581E-05
CGA:  17    -0.232144844289E+03   -0.37644E-04   -0.37689E-04  8320   0.580E-03 0.132E-05
CGA:  18    -0.232144912308E+03   -0.68019E-04   -0.67890E-04  8320   0.730E-03 0.208E-05
CGA:  19    -0.232144948023E+03   -0.35715E-04   -0.35718E-04  8320   0.291E-03 0.125E-05
CGA:  20    -0.232144969696E+03   -0.21673E-04   -0.21621E-04  8320   0.327E-03 0.294E-05
CGA:  21    -0.232144979312E+03   -0.96156E-05   -0.96699E-05  8320   0.171E-03 0.173E-05
CGA:  22    -0.232144994057E+03   -0.14745E-04   -0.14649E-04  8320   0.103E-03 0.324E-05
CGA:  23    -0.232145000973E+03   -0.69164E-05   -0.69048E-05  8320   0.694E-04 0.145E-05
 147 F= -.23214500E+03 E0= -.23213059E+03  d E =-.217935E-02  mag=     6.8888
       N       E                     dE             d eps       ncg     rms          ort
SDA:   1    -0.232090534781E+03    0.54459E-01    0.00000E+00  8320   0.177E+00 0.000E+00
CGA:   2    -0.232109034791E+03   -0.18500E-01   -0.18680E-01  8320   0.257E+00-0.357E-02
CGA:   3    -0.232122954871E+03   -0.13920E-01   -0.13928E-01  8320   0.304E+00 0.940E-03
CGA:   4    -0.232132197701E+03   -0.92428E-02   -0.91184E-02  8320   0.638E-01 0.213E-02
CGA:   5    -0.232137714244E+03   -0.55165E-02   -0.55028E-02  8320   0.616E-01 0.411E-03
CGA:   6    -0.232140995416E+03   -0.32812E-02   -0.32751E-02  8320   0.243E-01-0.346E-03
CGA:   7    -0.232141787242E+03   -0.79183E-03   -0.79601E-03  8320   0.170E-01-0.609E-04
CGA:   8    -0.232142528078E+03   -0.74084E-03   -0.74057E-03  8320   0.476E-02-0.139E-04
CGA:   9    -0.232142990606E+03   -0.46253E-03   -0.46240E-03  8320   0.342E-02 0.250E-05
CGA:  10    -0.232143081690E+03   -0.91084E-04   -0.90985E-04  8320   0.167E-02 0.231E-05
CGA:  11    -0.232143185391E+03   -0.10370E-03   -0.10366E-03  8320   0.107E-02 0.501E-05
CGA:  12    -0.232143258117E+03   -0.72726E-04   -0.72754E-04  8320   0.731E-03-0.140E-05
CGA:  13    -0.232143286247E+03   -0.28130E-04   -0.28144E-04  8320   0.513E-03 0.530E-06
CGA:  14    -0.232143305650E+03   -0.19403E-04   -0.19419E-04  8320   0.238E-03 0.781E-06
CGA:  15    -0.232143324250E+03   -0.18600E-04   -0.18587E-04  8320   0.157E-03 0.615E-06
CGA:  16    -0.232143333542E+03   -0.92913E-05   -0.92909E-05  8320   0.229E-03 0.252E-06
 148 F= -.23214333E+03 E0= -.23212888E+03  d E =0.166743E-02  mag=     6.8945
       N       E                     dE             d eps       ncg     rms          ort
SDA:   1    -0.231969754257E+03    0.17357E+00    0.00000E+00  8320   0.846E+00 0.000E+00
CGA:   2    -0.231995455063E+03   -0.25701E-01   -0.25118E-01  8320   0.794E+00 0.818E-02
CGA:   3    -0.232061457325E+03   -0.66002E-01   -0.65833E-01  8320   0.630E+00 0.501E-02
CGA:   4    -0.232103909974E+03   -0.42453E-01   -0.42311E-01  8320   0.244E+00 0.890E-02
CGA:   5    -0.232115001949E+03   -0.11092E-01   -0.11081E-01  8320   0.307E+00-0.234E-03
CGA:   6    -0.232127766513E+03   -0.12765E-01   -0.12847E-01  8320   0.146E+00 0.910E-03
CGA:   7    -0.232134526996E+03   -0.67605E-02   -0.67430E-02  8320   0.377E-01-0.577E-03
CGA:   8    -0.232136931906E+03   -0.24049E-02   -0.24040E-02  8320   0.267E-01 0.564E-04
CGA:   9    -0.232137790004E+03   -0.85810E-03   -0.86204E-03  8320   0.212E-01-0.443E-04
CGA:  10    -0.232138982623E+03   -0.11926E-02   -0.11929E-02  8320   0.389E-02-0.819E-04
CGA:  11    -0.232139309465E+03   -0.32684E-03   -0.32653E-03  8320   0.340E-02 0.905E-05
CGA:  12    -0.232139576779E+03   -0.26731E-03   -0.26735E-03  8320   0.243E-02-0.876E-06
CGA:  13    -0.232139676032E+03   -0.99253E-04   -0.99249E-04  8320   0.159E-02 0.812E-06
CGA:  14    -0.232139721183E+03   -0.45151E-04   -0.45292E-04  8320   0.616E-03-0.188E-05
CGA:  15    -0.232139798042E+03   -0.76859E-04   -0.76682E-04  8320   0.434E-03 0.253E-05
CGA:  16    -0.232139828061E+03   -0.30019E-04   -0.30017E-04  8320   0.205E-03 0.206E-06
CGA:  17    -0.232139843508E+03   -0.15447E-04   -0.15451E-04  8320   0.307E-03-0.160E-06
CGA:  18    -0.232139855228E+03   -0.11719E-04   -0.11729E-04  8320   0.232E-03 0.918E-07
CGA:  19    -0.232139865839E+03   -0.10612E-04   -0.10621E-04  8320   0.919E-04 0.709E-06
CGA:  20    -0.232139874125E+03   -0.82863E-05   -0.82459E-05  8320   0.456E-04 0.127E-05
 149 F= -.23213987E+03 E0= -.23212536E+03  d E =0.345942E-02  mag=     6.9066
       N       E                     dE             d eps       ncg     rms          ort
SDA:   1    -0.232109247121E+03    0.30619E-01    0.00000E+00  8320   0.149E+00 0.000E+00
CGA:   2    -0.232114587381E+03   -0.53403E-02   -0.53245E-02  8320   0.153E+00 0.114E-03
CGA:   3    -0.232124016775E+03   -0.94294E-02   -0.94277E-02  8320   0.160E+00 0.228E-02
CGA:   4    -0.232132742166E+03   -0.87254E-02   -0.87001E-02  8320   0.439E-01-0.114E-02
CGA:   5    -0.232136156317E+03   -0.34142E-02   -0.34051E-02  8320   0.291E-01 0.385E-03
CGA:   6    -0.232138760470E+03   -0.26042E-02   -0.26078E-02  8320   0.816E-02-0.106E-03
CGA:   7    -0.232139149749E+03   -0.38928E-03   -0.38934E-03  8320   0.991E-02 0.737E-05
CGA:   8    -0.232139505096E+03   -0.35535E-03   -0.35711E-03  8320   0.359E-02-0.491E-05
CGA:   9    -0.232139704137E+03   -0.19904E-03   -0.19897E-03  8320   0.159E-02-0.207E-05
CGA:  10    -0.232139801923E+03   -0.97786E-04   -0.97785E-04  8320   0.703E-03 0.189E-05
CGA:  11    -0.232139846464E+03   -0.44540E-04   -0.44545E-04  8320   0.118E-02-0.165E-05
CGA:  12    -0.232139885218E+03   -0.38755E-04   -0.38702E-04  8320   0.275E-03-0.217E-05
CGA:  13    -0.232139905862E+03   -0.20644E-04   -0.20664E-04  8320   0.150E-03-0.128E-05
CGA:  14    -0.232139918152E+03   -0.12290E-04   -0.12296E-04  8320   0.185E-03-0.288E-06
CGA:  15    -0.232139924361E+03   -0.62099E-05   -0.62065E-05  8320   0.113E-03-0.803E-07
 150 F= -.23213992E+03 E0= -.23212544E+03  d E =-.502360E-04  mag=     6.9094
       N       E                     dE             d eps       ncg     rms          ort
SDA:   1    -0.231770330764E+03    0.36959E+00    0.00000E+00  8320   0.128E+01 0.000E+00
CGA:   2    -0.231833147037E+03   -0.62816E-01   -0.63881E-01  8320   0.240E+01 0.354E-01
CGA:   3    -0.232014765464E+03   -0.18162E+00   -0.18159E+00  8320   0.990E+00 0.200E-02
CGA:   4    -0.232068003384E+03   -0.53238E-01   -0.53304E-01  8320   0.586E+00 0.430E-02
CGA:   5    -0.232092812055E+03   -0.24809E-01   -0.24766E-01  8320   0.557E+00-0.313E-03
CGA:   6    -0.232115275532E+03   -0.22463E-01   -0.22924E-01  8320   0.210E+00 0.249E-02
CGA:   7    -0.232125757201E+03   -0.10482E-01   -0.10425E-01  8320   0.696E-01-0.231E-02
CGA:   8    -0.232129914605E+03   -0.41574E-02   -0.41551E-02  8320   0.956E-01 0.413E-03
CGA:   9    -0.232132937394E+03   -0.30228E-02   -0.30188E-02  8320   0.202E-01 0.113E-03
CGA:  10    -0.232134345977E+03   -0.14086E-02   -0.14088E-02  8320   0.128E-01-0.695E-05
CGA:  11    -0.232134821712E+03   -0.47573E-03   -0.47533E-03  8320   0.114E-01-0.111E-05
CGA:  12    -0.232135478446E+03   -0.65673E-03   -0.65665E-03  8320   0.568E-02 0.197E-04
CGA:  13    -0.232135735749E+03   -0.25730E-03   -0.25679E-03  8320   0.255E-02-0.143E-04
CGA:  14    -0.232135852519E+03   -0.11677E-03   -0.11678E-03  8320   0.297E-02-0.133E-05
CGA:  15    -0.232136003452E+03   -0.15093E-03   -0.15092E-03  8320   0.124E-02-0.364E-05
CGA:  16    -0.232136092060E+03   -0.88608E-04   -0.88638E-04  8320   0.116E-02-0.182E-05
CGA:  17    -0.232136124897E+03   -0.32837E-04   -0.32776E-04  8320   0.511E-03 0.100E-05
CGA:  18    -0.232136170793E+03   -0.45896E-04   -0.45853E-04  8320   0.478E-03 0.115E-05
CGA:  19    -0.232136192974E+03   -0.22181E-04   -0.22171E-04  8320   0.411E-03-0.339E-06
CGA:  20    -0.232136210346E+03   -0.17371E-04   -0.17357E-04  8320   0.284E-03-0.116E-05
CGA:  21    -0.232136226117E+03   -0.15771E-04   -0.15773E-04  8320   0.116E-03-0.212E-05
CGA:  22    -0.232136232800E+03   -0.66834E-05   -0.66887E-05  8320   0.190E-03-0.154E-05
 151 F= -.23213623E+03 E0= -.23212184E+03  d E =0.369156E-02  mag=     6.9163
       N       E                     dE             d eps       ncg     rms          ort
SDA:   1    -0.232057346565E+03    0.78880E-01    0.00000E+00  8320   0.341E+00 0.000E+00
CGA:   2    -0.232070923500E+03   -0.13577E-01   -0.13426E-01  8320   0.483E+00-0.121E-02
CGA:   3    -0.232103766026E+03   -0.32843E-01   -0.32879E-01  8320   0.237E+00-0.179E-02
CGA:   4    -0.232119423371E+03   -0.15657E-01   -0.15651E-01  8320   0.119E+00 0.347E-03
CGA:   5    -0.232128462441E+03   -0.90391E-02   -0.90119E-02  8320   0.860E-01 0.103E-02
CGA:   6    -0.232133818492E+03   -0.53561E-02   -0.53675E-02  8320   0.337E-01-0.118E-02
CGA:   7    -0.232134929313E+03   -0.11108E-02   -0.11186E-02  8320   0.282E-01-0.717E-04
CGA:   8    -0.232136253741E+03   -0.13244E-02   -0.13245E-02  8320   0.858E-02-0.506E-05
CGA:   9    -0.232136916878E+03   -0.66314E-03   -0.66380E-03  8320   0.397E-02-0.254E-04
CGA:  10    -0.232137076456E+03   -0.15958E-03   -0.15955E-03  8320   0.405E-02-0.139E-06
CGA:  11    -0.232137257533E+03   -0.18108E-03   -0.18134E-03  8320   0.190E-02 0.800E-05
CGA:  12    -0.232137365318E+03   -0.10779E-03   -0.10779E-03  8320   0.979E-03 0.961E-07
CGA:  13    -0.232137427348E+03   -0.62030E-04   -0.62011E-04  8320   0.756E-03 0.202E-05
CGA:  14    -0.232137448952E+03   -0.21604E-04   -0.21616E-04  8320   0.421E-03 0.105E-05
CGA:  15    -0.232137487890E+03   -0.38938E-04   -0.38877E-04  8320   0.210E-03 0.160E-05
CGA:  16    -0.232137501410E+03   -0.13520E-04   -0.13514E-04  8320   0.239E-03 0.683E-06
CGA:  17    -0.232137508787E+03   -0.73768E-05   -0.73896E-05  8320   0.108E-03 0.381E-06
 152 F= -.23213751E+03 E0= -.23212309E+03  d E =-.127599E-02  mag=     6.9163
       N       E                     dE             d eps       ncg     rms          ort
SDA:   1    -0.232096648673E+03    0.40853E-01    0.00000E+00  8320   0.791E+00 0.000E+00
CGA:   2    -0.232109513715E+03   -0.12865E-01   -0.11438E-01  8320   0.792E-01 0.810E-01
CGA:   3    -0.232115357589E+03   -0.58439E-02   -0.58804E-02  8320   0.226E+00-0.186E-02
CGA:   4    -0.232123387032E+03   -0.80294E-02   -0.80411E-02  8320   0.208E+00-0.955E-05
CGA:   5    -0.232129860636E+03   -0.64736E-02   -0.65510E-02  8320   0.983E-01-0.693E-03
CGA:   6    -0.232131657107E+03   -0.17965E-02   -0.17913E-02  8320   0.344E-01 0.185E-03
CGA:   7    -0.232133557952E+03   -0.19008E-02   -0.19021E-02  8320   0.545E-01-0.162E-03
CGA:   8    -0.232134705634E+03   -0.11477E-02   -0.11483E-02  8320   0.176E-01-0.414E-04
CGA:   9    -0.232135535661E+03   -0.83003E-03   -0.83020E-03  8320   0.248E-01 0.291E-04
CGA:  10    -0.232136063661E+03   -0.52800E-03   -0.52747E-03  8320   0.497E-02-0.462E-06
CGA:  11    -0.232136245142E+03   -0.18148E-03   -0.18125E-03  8320   0.617E-02-0.800E-05
CGA:  12    -0.232136417608E+03   -0.17247E-03   -0.17223E-03  8320   0.230E-02-0.484E-05
CGA:  13    -0.232136517638E+03   -0.10003E-03   -0.10003E-03  8320   0.373E-02-0.393E-06
CGA:  14    -0.232136623216E+03   -0.10558E-03   -0.10560E-03  8320   0.948E-03-0.354E-06
CGA:  15    -0.232136652688E+03   -0.29472E-04   -0.29481E-04  8320   0.105E-02 0.857E-06
CGA:  16    -0.232136692263E+03   -0.39575E-04   -0.39588E-04  8320   0.626E-03 0.160E-05
CGA:  17    -0.232136714017E+03   -0.21754E-04   -0.21764E-04  8320   0.605E-03 0.972E-06
CGA:  18    -0.232136731465E+03   -0.17448E-04   -0.17450E-04  8320   0.338E-03 0.119E-05
CGA:  19    -0.232136747063E+03   -0.15598E-04   -0.15594E-04  8320   0.333E-03 0.136E-05
CGA:  20    -0.232136753633E+03   -0.65706E-05   -0.65980E-05  8320   0.837E-04 0.315E-06
 153 F= -.23213675E+03 E0= -.23212231E+03  d E =0.755154E-03  mag=     6.9175
