       N       E                     dE             d eps       ncg     rms          rms(c)
DAV:   1     0.582450010319E+04    0.58245E+04   -0.21685E+05 28632   0.158E+03
DAV:   2     0.575473980633E+03   -0.52490E+04   -0.49098E+04 29000   0.474E+02
DAV:   3    -0.366599103478E+03   -0.94207E+03   -0.92397E+03 30088   0.206E+02
DAV:   4    -0.412492651477E+03   -0.45894E+02   -0.43900E+02 37248   0.488E+01
DAV:   5    -0.414439406789E+03   -0.19468E+01   -0.19106E+01 38624   0.944E+00    0.891E+01
DAV:   6    -0.308272133700E+03    0.10617E+03   -0.81414E+02 38832   0.813E+01    0.479E+01
DAV:   7    -0.331533240144E+03   -0.23261E+02   -0.55059E+02 37664   0.549E+01    0.388E+01
DAV:   8    -0.331347531234E+03    0.18571E+00   -0.70872E+01 36672   0.291E+01    0.475E+01
DAV:   9    -0.327456396221E+03    0.38911E+01   -0.20548E+02 36864   0.177E+01    0.381E+01
DAV:  10    -0.326963197190E+03    0.49320E+00   -0.57005E+01 38160   0.107E+01    0.362E+01
DAV:  11    -0.331592345177E+03   -0.46291E+01   -0.22415E+01 37704   0.121E+01    0.382E+01
DAV:  12    -0.330303422954E+03    0.12889E+01   -0.76944E+01 38224   0.131E+01    0.328E+01
DAV:  13    -0.328504962166E+03    0.17985E+01   -0.55230E+01 38416   0.948E+00    0.201E+01
DAV:  14    -0.333715612749E+03   -0.52107E+01   -0.89871E+00 39560   0.859E+00    0.288E+01
DAV:  15    -0.336269704698E+03   -0.25541E+01   -0.21691E+01 37472   0.790E+00    0.256E+01
DAV:  16    -0.336731581245E+03   -0.46188E+00   -0.22370E+00 36824   0.502E+00    0.171E+01
DAV:  17    -0.338567199639E+03   -0.18356E+01   -0.40801E+00 36624   0.497E+00    0.165E+01
DAV:  18    -0.340593239690E+03   -0.20260E+01   -0.17803E+00 35864   0.391E+00    0.147E+01
DAV:  19    -0.342104466450E+03   -0.15112E+01   -0.25251E+00 34928   0.434E+00    0.119E+01
DAV:  20    -0.342685975698E+03   -0.58151E+00   -0.10608E+00 35056   0.327E+00    0.853E+00
DAV:  21    -0.343392621758E+03   -0.70665E+00   -0.68977E-01 35496   0.212E+00    0.895E+00
DAV:  22    -0.343484318061E+03   -0.91696E-01   -0.70331E-02 29480   0.778E-01    0.839E+00
DAV:  23    -0.343588080197E+03   -0.10376E+00   -0.22306E-02 34824   0.467E-01    0.805E+00
DAV:  24    -0.343862439622E+03   -0.27436E+00   -0.26524E-01 35760   0.133E+00    0.575E+00
DAV:  25    -0.344001842506E+03   -0.13940E+00   -0.88630E-02 36304   0.980E-01    0.483E+00
DAV:  26    -0.344166949010E+03   -0.16511E+00   -0.23767E-01 35648   0.120E+00    0.408E+00
DAV:  27    -0.344453926029E+03   -0.28698E+00   -0.30070E-01 36976   0.164E+00    0.462E+00
DAV:  28    -0.344661241694E+03   -0.20732E+00   -0.18262E-01 34288   0.141E+00    0.263E+00
DAV:  29    -0.344821325629E+03   -0.16008E+00   -0.10486E-01 34520   0.831E-01    0.291E+00
DAV:  30    -0.344894233876E+03   -0.72908E-01   -0.38143E-02 31712   0.530E-01    0.254E+00
DAV:  31    -0.344938365833E+03   -0.44132E-01   -0.36298E-02 34912   0.547E-01    0.176E+00
DAV:  32    -0.344967841865E+03   -0.29476E-01   -0.15771E-02 33064   0.364E-01    0.183E+00
DAV:  33    -0.344972628211E+03   -0.47863E-02   -0.12758E-02 37312   0.340E-01    0.108E+00
DAV:  34    -0.344979189149E+03   -0.65609E-02   -0.88682E-03 34520   0.298E-01    0.701E-01
DAV:  35    -0.344985057709E+03   -0.58686E-02   -0.67834E-03 32128   0.219E-01    0.641E-01
DAV:  36    -0.344985691544E+03   -0.63384E-03   -0.29767E-03 35000   0.186E-01    0.414E-01
DAV:  37    -0.344985954203E+03   -0.26266E-03   -0.18091E-03 32296   0.121E-01    0.386E-01
DAV:  38    -0.344985898223E+03    0.55980E-04   -0.15471E-03 34400   0.122E-01    0.356E-01
DAV:  39    -0.344985469768E+03    0.42846E-03   -0.97425E-04 35048   0.885E-02    0.333E-01
DAV:  40    -0.344985420429E+03    0.49339E-04   -0.29011E-04 33384   0.568E-02    0.339E-01
DAV:  41    -0.344985030575E+03    0.38985E-03   -0.72224E-04 37048   0.804E-02    0.195E-01
DAV:  42    -0.344984751245E+03    0.27933E-03   -0.37376E-04 32488   0.588E-02    0.136E-01
DAV:  43    -0.344984735915E+03    0.15330E-04   -0.15591E-04 29368   0.326E-02    0.980E-02
DAV:  44    -0.344984691877E+03    0.44038E-04   -0.44797E-05 24760   0.255E-02    0.772E-02
DAV:  45    -0.344984659862E+03    0.32015E-04   -0.42005E-05 27656   0.196E-02    0.694E-02
DAV:  46    -0.344984646280E+03    0.13583E-04   -0.26040E-05 20120   0.153E-02    0.505E-02
DAV:  47    -0.344984637389E+03    0.88906E-05   -0.12388E-05 17120   0.131E-02
   1 F= -.34498464E+03 E0= -.34496971E+03  d E =-.344985E+03  mag=     8.0147
       N       E                     dE             d eps       ncg     rms          rms(c)
DAV:   1    -0.345089743287E+03   -0.10510E+00   -0.73664E-02 31312   0.399E-01    0.681E-02
DAV:   2    -0.345090281044E+03   -0.53776E-03   -0.32222E-03 31944   0.113E-01    0.417E-01
DAV:   3    -0.345089887799E+03    0.39325E-03   -0.82266E-04 32264   0.676E-02    0.826E-02
DAV:   4    -0.345089918811E+03   -0.31012E-04   -0.28777E-05 21320   0.214E-02    0.557E-02
DAV:   5    -0.345089922669E+03   -0.38583E-05   -0.31115E-05 20000   0.205E-02
   2 F= -.34508992E+03 E0= -.34507500E+03  d E =-.105285E+00  mag=     8.0096
       N       E                     dE             d eps       ncg     rms          rms(c)
DAV:   1    -0.348464322161E+03   -0.33744E+01   -0.24247E+02 31160   0.228E+01    0.317E+00
DAV:   2    -0.349593065040E+03   -0.11287E+01   -0.12183E+01 29048   0.521E+00    0.466E+00
DAV:   3    -0.349583491639E+03    0.95734E-02   -0.53442E-01 39520   0.176E+00    0.487E+00
DAV:   4    -0.349543015593E+03    0.40476E-01   -0.21199E-01 38600   0.121E+00    0.381E+00
DAV:   5    -0.349520143531E+03    0.22872E-01   -0.10465E-01 39784   0.981E-01    0.334E+00
DAV:   6    -0.349534710313E+03   -0.14567E-01   -0.19278E-01 38944   0.114E+00    0.505E+00
DAV:   7    -0.349485115345E+03    0.49595E-01   -0.21039E-01 39064   0.132E+00    0.273E+00
DAV:   8    -0.349488108181E+03   -0.29928E-02   -0.15274E-01 39344   0.881E-01    0.237E+00
DAV:   9    -0.349476209278E+03    0.11899E-01   -0.53861E-02 39440   0.628E-01    0.103E+00
DAV:  10    -0.349474913291E+03    0.12960E-02   -0.14541E-02 37152   0.423E-01    0.108E+00
DAV:  11    -0.349472245843E+03    0.26674E-02   -0.16107E-02 38392   0.364E-01    0.737E-01
DAV:  12    -0.349471595709E+03    0.65013E-03   -0.54234E-03 38664   0.270E-01    0.498E-01
DAV:  13    -0.349471422676E+03    0.17303E-03   -0.15982E-03 38464   0.161E-01    0.321E-01
DAV:  14    -0.349471674857E+03   -0.25218E-03   -0.12617E-03 37256   0.121E-01    0.423E-01
DAV:  15    -0.349471467380E+03    0.20748E-03   -0.74403E-04 35656   0.775E-02    0.260E-01
DAV:  16    -0.349471361318E+03    0.10606E-03   -0.21945E-04 32608   0.616E-02    0.198E-01
DAV:  17    -0.349471187882E+03    0.17344E-03   -0.40878E-04 37864   0.707E-02    0.155E-01
DAV:  18    -0.349471152416E+03    0.35467E-04   -0.38717E-04 36968   0.684E-02    0.134E-01
DAV:  19    -0.349471134369E+03    0.18046E-04   -0.17351E-04 35280   0.530E-02    0.775E-02
DAV:  20    -0.349471136864E+03   -0.24952E-05   -0.63970E-05 24480   0.288E-02
   3 F= -.34947114E+03 E0= -.34945673E+03  d E =-.438121E+01  mag=     8.0009
       N       E                     dE             d eps       ncg     rms          rms(c)
DAV:   1    -0.349513210587E+03   -0.42076E-01   -0.46315E+02 31448   0.425E+01    0.573E+00
DAV:   2    -0.353448224808E+03   -0.39350E+01   -0.33866E+01 30776   0.105E+01    0.220E+01
DAV:   3    -0.352699387942E+03    0.74884E+00   -0.11721E+01 37184   0.506E+00    0.926E+00
DAV:   4    -0.352518330230E+03    0.18106E+00   -0.90002E-01 37488   0.235E+00    0.808E+00
DAV:   5    -0.352379107241E+03    0.13922E+00   -0.30317E-01 38392   0.165E+00    0.525E+00
DAV:   6    -0.352392681525E+03   -0.13574E-01   -0.29262E-01 39528   0.151E+00    0.656E+00
DAV:   7    -0.352351178956E+03    0.41503E-01   -0.17257E-01 39744   0.130E+00    0.393E+00
DAV:   8    -0.352355290339E+03   -0.41114E-02   -0.46473E-02 39104   0.794E-01    0.299E+00
DAV:   9    -0.352341385091E+03    0.13905E-01   -0.42018E-02 39776   0.801E-01    0.305E+00
DAV:  10    -0.352330064681E+03    0.11320E-01   -0.53222E-02 40536   0.720E-01    0.293E+00
DAV:  11    -0.352309545089E+03    0.20520E-01   -0.56328E-02 39432   0.929E-01    0.242E+00
DAV:  12    -0.352297405790E+03    0.12139E-01   -0.67128E-02 40432   0.911E-01    0.172E+00
DAV:  13    -0.352306313363E+03   -0.89076E-02   -0.55692E-02 39440   0.704E-01    0.253E+00
DAV:  14    -0.352297517703E+03    0.87957E-02   -0.30662E-02 40304   0.545E-01    0.122E+00
DAV:  15    -0.352298354010E+03   -0.83631E-03   -0.14615E-02 38192   0.360E-01    0.928E-01
DAV:  16    -0.352297365740E+03    0.98827E-03   -0.87539E-03 38992   0.268E-01    0.565E-01
DAV:  17    -0.352296843231E+03    0.52251E-03   -0.23110E-03 37864   0.187E-01    0.389E-01
DAV:  18    -0.352296740162E+03    0.10307E-03   -0.93360E-04 37576   0.105E-01    0.331E-01
DAV:  19    -0.352296654881E+03    0.85280E-04   -0.55687E-04 38608   0.887E-02    0.259E-01
DAV:  20    -0.352296587212E+03    0.67670E-04   -0.21576E-04 37728   0.671E-02    0.201E-01
DAV:  21    -0.352296583025E+03    0.41864E-05   -0.15359E-04 32376   0.489E-02    0.171E-01
DAV:  22    -0.352296555423E+03    0.27602E-04   -0.16994E-04 34616   0.543E-02    0.166E-01
DAV:  23    -0.352296488489E+03    0.66934E-04   -0.12378E-04 34656   0.457E-02    0.111E-01
DAV:  24    -0.352296465152E+03    0.23337E-04   -0.42849E-05 24104   0.225E-02    0.855E-02
DAV:  25    -0.352296459691E+03    0.54608E-05   -0.25083E-05 21680   0.163E-02
   4 F= -.35229646E+03 E0= -.35228220E+03  d E =-.282532E+01  mag=     8.0045
       N       E                     dE             d eps       ncg     rms          rms(c)
DAV:   1    -0.352024471900E+03    0.27199E+00   -0.20267E+02 31176   0.342E+01    0.356E+00
DAV:   2    -0.353357465589E+03   -0.13330E+01   -0.12870E+01 29328   0.702E+00    0.998E+00
DAV:   3    -0.353264071821E+03    0.93394E-01   -0.22689E+00 39136   0.308E+00    0.608E+00
DAV:   4    -0.353222499467E+03    0.41572E-01   -0.46779E-01 39584   0.171E+00    0.482E+00
DAV:   5    -0.353169088450E+03    0.53411E-01   -0.13803E-01 39824   0.121E+00    0.186E+00
DAV:   6    -0.353183637282E+03   -0.14549E-01   -0.47218E-02 39744   0.722E-01    0.227E+00
DAV:   7    -0.353178551706E+03    0.50856E-02   -0.25768E-02 39696   0.585E-01    0.180E+00
DAV:   8    -0.353174610834E+03    0.39409E-02   -0.17302E-02 39240   0.470E-01    0.137E+00
DAV:   9    -0.353173692484E+03    0.91835E-03   -0.27087E-02 39256   0.519E-01    0.166E+00
DAV:  10    -0.353168079539E+03    0.56129E-02   -0.19652E-02 40640   0.440E-01    0.760E-01
DAV:  11    -0.353171214486E+03   -0.31349E-02   -0.10043E-02 37936   0.352E-01    0.138E+00
DAV:  12    -0.353167125093E+03    0.40894E-02   -0.98305E-03 39128   0.282E-01    0.445E-01
DAV:  13    -0.353167383710E+03   -0.25862E-03   -0.16846E-03 39368   0.182E-01    0.352E-01
DAV:  14    -0.353167317554E+03    0.66155E-04   -0.13167E-03 39472   0.147E-01    0.327E-01
DAV:  15    -0.353167471438E+03   -0.15388E-03   -0.14888E-03 37688   0.103E-01    0.430E-01
DAV:  16    -0.353167163789E+03    0.30765E-03   -0.71561E-04 37288   0.970E-02    0.144E-01
DAV:  17    -0.353167246624E+03   -0.82835E-04   -0.24287E-04 37192   0.705E-02    0.139E-01
DAV:  18    -0.353167258377E+03   -0.11753E-04   -0.16027E-04 32168   0.487E-02    0.796E-02
DAV:  19    -0.353167274207E+03   -0.15830E-04   -0.61030E-05 24560   0.301E-02    0.762E-02
DAV:  20    -0.353167273475E+03    0.73198E-06   -0.32635E-05 23088   0.254E-02
   5 F= -.35316727E+03 E0= -.35315296E+03  d E =-.870814E+00  mag=     8.0005
       N       E                     dE             d eps       ncg     rms          rms(c)
DAV:   1    -0.352213139983E+03    0.95413E+00   -0.33290E+02 29520   0.415E+01    0.431E+00
DAV:   2    -0.354002769969E+03   -0.17896E+01   -0.16645E+01 31584   0.922E+00    0.132E+01
DAV:   3    -0.353788796739E+03    0.21397E+00   -0.28981E+00 38024   0.330E+00    0.658E+00
DAV:   4    -0.353746088179E+03    0.42709E-01   -0.35463E-01 39648   0.158E+00    0.476E+00
DAV:   5    -0.353738268981E+03    0.78192E-02   -0.16840E-01 40744   0.122E+00    0.451E+00
DAV:   6    -0.353739628929E+03   -0.13599E-02   -0.17936E-01 39872   0.106E+00    0.434E+00
DAV:   7    -0.353722146713E+03    0.17482E-01   -0.18171E-01 39536   0.104E+00    0.395E+00
DAV:   8    -0.353721865413E+03    0.28130E-03   -0.10248E-01 39768   0.114E+00    0.442E+00
DAV:   9    -0.353684324788E+03    0.37541E-01   -0.13055E-01 40240   0.122E+00    0.231E+00
DAV:  10    -0.353702289723E+03   -0.17965E-01   -0.44887E-02 40360   0.882E-01    0.272E+00
DAV:  11    -0.353700596904E+03    0.16928E-02   -0.42421E-02 39008   0.745E-01    0.235E+00
DAV:  12    -0.353693620894E+03    0.69760E-02   -0.17661E-02 38608   0.623E-01    0.115E+00
DAV:  13    -0.353692575527E+03    0.10454E-02   -0.87797E-03 39352   0.390E-01    0.863E-01
DAV:  14    -0.353692187645E+03    0.38788E-03   -0.37259E-03 38456   0.231E-01    0.690E-01
DAV:  15    -0.353692460584E+03   -0.27294E-03   -0.39047E-03 40544   0.177E-01    0.809E-01
DAV:  16    -0.353691566984E+03    0.89360E-03   -0.24624E-03 39712   0.175E-01    0.424E-01
DAV:  17    -0.353691713903E+03   -0.14692E-03   -0.12336E-03 39760   0.147E-01    0.410E-01
DAV:  18    -0.353691680637E+03    0.33266E-04   -0.38894E-04 35288   0.730E-02    0.291E-01
DAV:  19    -0.353691689329E+03   -0.86917E-05   -0.37430E-04 39480   0.701E-02    0.230E-01
DAV:  20    -0.353691664637E+03    0.24691E-04   -0.33827E-04 39096   0.767E-02    0.222E-01
DAV:  21    -0.353691629087E+03    0.35551E-04   -0.16359E-04 33072   0.526E-02    0.159E-01
DAV:  22    -0.353691646452E+03   -0.17366E-04   -0.14664E-04 36064   0.435E-02    0.107E-01
DAV:  23    -0.353691653382E+03   -0.69300E-05   -0.46048E-05 25704   0.247E-02
   6 F= -.35369165E+03 E0= -.35367734E+03  d E =-.524380E+00  mag=     8.0000
       N       E                     dE             d eps       ncg     rms          rms(c)
DAV:   1    -0.351959483906E+03    0.17322E+01   -0.27599E+02 30344   0.458E+01    0.568E+00
DAV:   2    -0.353973179794E+03   -0.20137E+01   -0.20918E+01 28368   0.972E+00    0.543E+00
DAV:   3    -0.354102524181E+03   -0.12934E+00   -0.15162E+00 39376   0.388E+00    0.101E+01
DAV:   4    -0.353912454555E+03    0.19007E+00   -0.10771E+00 38976   0.253E+00    0.500E+00
DAV:   5    -0.353887610208E+03    0.24844E-01   -0.18171E-01 40576   0.146E+00    0.323E+00
DAV:   6    -0.353880656109E+03    0.69541E-02   -0.63327E-02 38840   0.103E+00    0.305E+00
DAV:   7    -0.353871064484E+03    0.95916E-02   -0.52687E-02 38552   0.940E-01    0.266E+00
DAV:   8    -0.353858617872E+03    0.12447E-01   -0.60236E-02 37808   0.711E-01    0.133E+00
DAV:   9    -0.353864054316E+03   -0.54364E-02   -0.42583E-02 38128   0.585E-01    0.184E+00
DAV:  10    -0.353857171110E+03    0.68832E-02   -0.27121E-02 38976   0.438E-01    0.745E-01
DAV:  11    -0.353858042253E+03   -0.87114E-03   -0.59404E-03 39592   0.245E-01    0.786E-01
DAV:  12    -0.353857601190E+03    0.44106E-03   -0.47800E-03 40064   0.198E-01    0.572E-01
DAV:  13    -0.353857414346E+03    0.18684E-03   -0.14216E-03 38632   0.139E-01    0.448E-01
DAV:  14    -0.353857676425E+03   -0.26208E-03   -0.97188E-04 39240   0.123E-01    0.603E-01
DAV:  15    -0.353857363138E+03    0.31329E-03   -0.20075E-03 39528   0.158E-01    0.487E-01
DAV:  16    -0.353856777031E+03    0.58611E-03   -0.14172E-03 38432   0.144E-01    0.279E-01
DAV:  17    -0.353856824730E+03   -0.47698E-04   -0.81107E-04 39232   0.119E-01    0.216E-01
DAV:  18    -0.353856830033E+03   -0.53036E-05   -0.57239E-04 38728   0.798E-02    0.133E-01
DAV:  19    -0.353856858890E+03   -0.28856E-04   -0.16365E-04 35568   0.455E-02    0.113E-01
DAV:  20    -0.353856847476E+03    0.11414E-04   -0.74609E-05 27208   0.341E-02    0.716E-02
DAV:  21    -0.353856845382E+03    0.20942E-05   -0.33361E-05 24440   0.173E-02
   7 F= -.35385685E+03 E0= -.35384226E+03  d E =-.165192E+00  mag=     8.0000
       N       E                     dE             d eps       ncg     rms          rms(c)
DAV:   1    -0.353171997055E+03    0.68485E+00   -0.21170E+02 31264   0.387E+01    0.404E+00
DAV:   2    -0.354352843409E+03   -0.11808E+01   -0.11212E+01 30528   0.813E+00    0.972E+00
DAV:   3    -0.354189319553E+03    0.16352E+00   -0.13286E+00 36408   0.281E+00    0.566E+00
DAV:   4    -0.354187033759E+03    0.22858E-02   -0.38739E-01 39704   0.141E+00    0.495E+00
DAV:   5    -0.354164041254E+03    0.22993E-01   -0.11761E-01 38448   0.993E-01    0.378E+00
DAV:   6    -0.354188115552E+03   -0.24074E-01   -0.13327E-01 40400   0.109E+00    0.513E+00
DAV:   7    -0.354163209426E+03    0.24906E-01   -0.17322E-01 39496   0.137E+00    0.414E+00
DAV:   8    -0.354157654666E+03    0.55548E-02   -0.16342E-01 40456   0.137E+00    0.350E+00
DAV:   9    -0.354134162160E+03    0.23493E-01   -0.12204E-01 38240   0.102E+00    0.146E+00
DAV:  10    -0.354137270727E+03   -0.31086E-02   -0.17584E-02 37888   0.557E-01    0.156E+00
DAV:  11    -0.354134726340E+03    0.25444E-02   -0.92951E-03 38672   0.339E-01    0.897E-01
DAV:  12    -0.354134280343E+03    0.44600E-03   -0.28200E-03 37528   0.207E-01    0.526E-01
DAV:  13    -0.354134477524E+03   -0.19718E-03   -0.23743E-03 38992   0.204E-01    0.573E-01
DAV:  14    -0.354133609889E+03    0.86763E-03   -0.14717E-03 39400   0.171E-01    0.416E-01
DAV:  15    -0.354133619751E+03   -0.98618E-05   -0.13009E-03 38952   0.112E-01    0.473E-01
DAV:  16    -0.354133301162E+03    0.31859E-03   -0.81947E-04 38784   0.914E-02    0.286E-01
DAV:  17    -0.354133270740E+03    0.30422E-04   -0.49202E-04 38856   0.885E-02    0.253E-01
DAV:  18    -0.354133198734E+03    0.72005E-04   -0.65865E-04 38440   0.856E-02    0.154E-01
DAV:  19    -0.354133233111E+03   -0.34377E-04   -0.29224E-04 38504   0.667E-02    0.148E-01
DAV:  20    -0.354133189531E+03    0.43580E-04   -0.23723E-04 33656   0.574E-02    0.917E-02
DAV:  21    -0.354133207897E+03   -0.18366E-04   -0.68871E-05 25504   0.240E-02    0.743E-02
DAV:  22    -0.354133208292E+03   -0.39535E-06   -0.13865E-05 18784   0.130E-02
   8 F= -.35413321E+03 E0= -.35411832E+03  d E =-.276363E+00  mag=     8.0000
       N       E                     dE             d eps       ncg     rms          rms(c)
DAV:   1    -0.353281740232E+03    0.85147E+00   -0.20412E+02 30552   0.403E+01    0.334E+00
DAV:   2    -0.354375113669E+03   -0.10934E+01   -0.11554E+01 28368   0.765E+00    0.524E+00
DAV:   3    -0.354429018116E+03   -0.53904E-01   -0.77172E-01 38416   0.264E+00    0.681E+00
DAV:   4    -0.354319220357E+03    0.10980E+00   -0.32553E-01 39488   0.154E+00    0.290E+00
DAV:   5    -0.354323206998E+03   -0.39866E-02   -0.10362E-01 39976   0.926E-01    0.277E+00
DAV:   6    -0.354317974875E+03    0.52321E-02   -0.66758E-02 39208   0.835E-01    0.253E+00
DAV:   7    -0.354306732933E+03    0.11242E-01   -0.77020E-02 38824   0.952E-01    0.165E+00
DAV:   8    -0.354307697366E+03   -0.96443E-03   -0.49007E-02 39504   0.613E-01    0.195E+00
DAV:   9    -0.354301466183E+03    0.62312E-02   -0.19480E-02 38696   0.447E-01    0.721E-01
DAV:  10    -0.354301915857E+03   -0.44967E-03   -0.55217E-03 39448   0.306E-01    0.597E-01
DAV:  11    -0.354301832099E+03    0.83758E-04   -0.34610E-03 38480   0.191E-01    0.511E-01
DAV:  12    -0.354301412503E+03    0.41960E-03   -0.11710E-03 39992   0.122E-01    0.255E-01
DAV:  13    -0.354301376103E+03    0.36400E-04   -0.39817E-04 38976   0.830E-02    0.257E-01
DAV:  14    -0.354301556411E+03   -0.18031E-03   -0.92488E-04 37520   0.957E-02    0.447E-01
DAV:  15    -0.354301209298E+03    0.34711E-03   -0.87218E-04 38664   0.103E-01    0.239E-01
DAV:  16    -0.354301196273E+03    0.13024E-04   -0.40021E-04 38648   0.753E-02    0.127E-01
DAV:  17    -0.354301229613E+03   -0.33339E-04   -0.17210E-04 35568   0.504E-02    0.958E-02
DAV:  18    -0.354301252285E+03   -0.22673E-04   -0.68515E-05 25872   0.298E-02    0.774E-02
DAV:  19    -0.354301251810E+03    0.47513E-06   -0.22887E-05 20896   0.179E-02
   9 F= -.35430125E+03 E0= -.35428559E+03  d E =-.168044E+00  mag=     8.0000
       N       E                     dE             d eps       ncg     rms          rms(c)
DAV:   1    -0.351495893007E+03    0.28054E+01   -0.33510E+02 32248   0.544E+01    0.696E+00
DAV:   2    -0.354278634972E+03   -0.27827E+01   -0.27592E+01 29232   0.123E+01    0.165E+01
DAV:   3    -0.353938715686E+03    0.33992E+00   -0.46363E+00 36864   0.533E+00    0.108E+01
DAV:   4    -0.353715476697E+03    0.22324E+00   -0.10886E+00 39312   0.291E+00    0.654E+00
DAV:   5    -0.353813854761E+03   -0.98378E-01   -0.77709E-01 38312   0.243E+00    0.942E+00
DAV:   6    -0.353680909336E+03    0.13295E+00   -0.46731E-01 39384   0.195E+00    0.474E+00
DAV:   7    -0.353695893625E+03   -0.14984E-01   -0.29524E-01 39232   0.154E+00    0.477E+00
DAV:   8    -0.353649268515E+03    0.46625E-01   -0.20703E-01 38648   0.144E+00    0.390E+00
DAV:   9    -0.353675701414E+03   -0.26433E-01   -0.17046E-01 39080   0.145E+00    0.559E+00
DAV:  10    -0.353633854743E+03    0.41847E-01   -0.18473E-01 37696   0.129E+00    0.261E+00
DAV:  11    -0.353640105962E+03   -0.62512E-02   -0.40802E-02 38144   0.811E-01    0.250E+00
DAV:  12    -0.353641555416E+03   -0.14495E-02   -0.45098E-02 38368   0.707E-01    0.263E+00
DAV:  13    -0.353633535768E+03    0.80196E-02   -0.29501E-02 39008   0.563E-01    0.121E+00
DAV:  14    -0.353632962730E+03    0.57304E-03   -0.79592E-03 37552   0.369E-01    0.786E-01
DAV:  15    -0.353632872330E+03    0.90401E-04   -0.30617E-03 36808   0.210E-01    0.731E-01
DAV:  16    -0.353632259305E+03    0.61302E-03   -0.16766E-03 39480   0.141E-01    0.467E-01
DAV:  17    -0.353632234814E+03    0.24491E-04   -0.66594E-04 39432   0.100E-01    0.390E-01
DAV:  18    -0.353632438638E+03   -0.20382E-03   -0.68042E-04 37040   0.858E-02    0.406E-01
DAV:  19    -0.353632395431E+03    0.43206E-04   -0.82894E-04 38720   0.117E-01    0.349E-01
DAV:  20    -0.353632211072E+03    0.18436E-03   -0.64180E-04 38744   0.113E-01    0.266E-01
DAV:  21    -0.353632116300E+03    0.94772E-04   -0.46557E-04 38520   0.837E-02    0.163E-01
DAV:  22    -0.353632174128E+03   -0.57828E-04   -0.27330E-04 37352   0.560E-02    0.120E-01
DAV:  23    -0.353632184240E+03   -0.10112E-04   -0.99043E-05 31872   0.357E-02    0.944E-02
DAV:  24    -0.353632179369E+03    0.48709E-05   -0.57167E-05 27160   0.291E-02
  10 F= -.35363218E+03 E0= -.35361710E+03  d E =0.669072E+00  mag=     8.0000
       N       E                     dE             d eps       ncg     rms          rms(c)
DAV:   1    -0.353932060032E+03   -0.29988E+00   -0.49808E+01 32544   0.226E+01    0.284E+00
DAV:   2    -0.354483834067E+03   -0.55177E+00   -0.56688E+00 29168   0.542E+00    0.731E+00
DAV:   3    -0.354394886927E+03    0.88947E-01   -0.36040E-01 37032   0.180E+00    0.439E+00
DAV:   4    -0.354394197559E+03    0.68937E-03   -0.10651E-01 38704   0.765E-01    0.419E+00
DAV:   5    -0.354394523126E+03   -0.32557E-03   -0.12057E-01 37464   0.688E-01    0.449E+00
DAV:   6    -0.354374973974E+03    0.19549E-01   -0.13349E-01 36232   0.794E-01    0.320E+00
DAV:   7    -0.354383591573E+03   -0.86176E-02   -0.80984E-02 38936   0.107E+00    0.392E+00
DAV:   8    -0.354386423975E+03   -0.28324E-02   -0.12151E-01 38080   0.119E+00    0.412E+00
DAV:   9    -0.354362829573E+03    0.23594E-01   -0.79914E-02 38784   0.102E+00    0.193E+00
DAV:  10    -0.354359031402E+03    0.37982E-02   -0.31204E-02 38472   0.621E-01    0.912E-01
DAV:  11    -0.354360613069E+03   -0.15817E-02   -0.73236E-03 38248   0.387E-01    0.123E+00
DAV:  12    -0.354357932870E+03    0.26802E-02   -0.34177E-03 37440   0.241E-01    0.336E-01
DAV:  13    -0.354358223414E+03   -0.29054E-03   -0.55942E-04 37272   0.102E-01    0.271E-01
DAV:  14    -0.354358144922E+03    0.78492E-04   -0.35769E-04 39320   0.791E-02    0.223E-01
DAV:  15    -0.354358204464E+03   -0.59542E-04   -0.55548E-04 38616   0.872E-02    0.300E-01
DAV:  16    -0.354358125675E+03    0.78789E-04   -0.55906E-04 35408   0.721E-02    0.226E-01
DAV:  17    -0.354358075439E+03    0.50236E-04   -0.22271E-04 32440   0.609E-02    0.132E-01
DAV:  18    -0.354358053556E+03    0.21883E-04   -0.82027E-05 29688   0.403E-02    0.921E-02
DAV:  19    -0.354358041346E+03    0.12210E-04   -0.85857E-05 28960   0.346E-02    0.602E-02
DAV:  20    -0.354358048700E+03   -0.73543E-05   -0.45647E-05 25216   0.319E-02
  11 F= -.35435805E+03 E0= -.35434277E+03  d E =-.725869E+00  mag=     8.0000
       N       E                     dE             d eps       ncg     rms          rms(c)
DAV:   1    -0.354400203646E+03   -0.42162E-01   -0.74225E+00 31624   0.888E+00    0.824E-01
DAV:   2    -0.354471158376E+03   -0.70955E-01   -0.82979E-01 28536   0.186E+00    0.152E+00
DAV:   3    -0.354468855477E+03    0.23029E-02   -0.37722E-02 37080   0.609E-01    0.925E-01
DAV:   4    -0.354469912273E+03   -0.10568E-02   -0.14847E-02 39032   0.330E-01    0.112E+00
DAV:   5    -0.354467885163E+03    0.20271E-02   -0.91690E-03 38088   0.284E-01    0.797E-01
DAV:   6    -0.354468756119E+03   -0.87096E-03   -0.10052E-02 38288   0.252E-01    0.102E+00
DAV:   7    -0.354469332517E+03   -0.57640E-03   -0.20323E-02 37104   0.364E-01    0.130E+00
DAV:   8    -0.354465964005E+03    0.33685E-02   -0.95299E-03 37656   0.308E-01    0.521E-01
DAV:   9    -0.354466116453E+03   -0.15245E-03   -0.25039E-03 37888   0.169E-01    0.400E-01
DAV:  10    -0.354465803893E+03    0.31256E-03   -0.90262E-04 38352   0.113E-01    0.151E-01
DAV:  11    -0.354465835676E+03   -0.31783E-04   -0.29971E-04 38416   0.691E-02    0.171E-01
DAV:  12    -0.354465793542E+03    0.42134E-04   -0.12702E-04 28360   0.428E-02    0.779E-02
DAV:  13    -0.354465787985E+03    0.55572E-05   -0.37146E-05 22632   0.282E-02
  12 F= -.35446579E+03 E0= -.35445041E+03  d E =-.107739E+00  mag=     8.0000
       N       E                     dE             d eps       ncg     rms          rms(c)
DAV:   1    -0.354465228762E+03    0.56478E-03   -0.42324E+00 31552   0.661E+00    0.565E-01
DAV:   2    -0.354499345264E+03   -0.34117E-01   -0.38979E-01 28448   0.135E+00    0.111E+00
DAV:   3    -0.354498459618E+03    0.88565E-03   -0.21656E-02 37632   0.428E-01    0.761E-01
DAV:   4    -0.354499106805E+03   -0.64719E-03   -0.96504E-03 38488   0.252E-01    0.927E-01
DAV:   5    -0.354497565954E+03    0.15409E-02   -0.59708E-03 37920   0.206E-01    0.510E-01
DAV:   6    -0.354497910391E+03   -0.34444E-03   -0.26351E-03 38400   0.169E-01    0.678E-01
DAV:   7    -0.354497665592E+03    0.24480E-03   -0.39266E-03 38160   0.213E-01    0.668E-01
DAV:   8    -0.354496942285E+03    0.72331E-03   -0.30972E-03 38880   0.195E-01    0.421E-01
DAV:   9    -0.354496968246E+03   -0.25961E-04   -0.11432E-03 37480   0.128E-01    0.387E-01
DAV:  10    -0.354496660148E+03    0.30810E-03   -0.57006E-04 37272   0.967E-02    0.981E-02
DAV:  11    -0.354496700844E+03   -0.40696E-04   -0.22583E-04 36152   0.513E-02    0.700E-02
DAV:  12    -0.354496708492E+03   -0.76479E-05   -0.11222E-04 24960   0.293E-02    0.819E-02
DAV:  13    -0.354496698896E+03    0.95962E-05   -0.38107E-05 20992   0.222E-02
  13 F= -.35449670E+03 E0= -.35448131E+03  d E =-.309109E-01  mag=     8.0000
       N       E                     dE             d eps       ncg     rms          rms(c)
DAV:   1    -0.354499180965E+03   -0.24725E-02   -0.22763E+00 30584   0.429E+00    0.338E-01
DAV:   2    -0.354509984356E+03   -0.10803E-01   -0.10917E-01 28448   0.820E-01    0.806E-01
DAV:   3    -0.354508837163E+03    0.11472E-02   -0.54934E-03 38432   0.226E-01    0.420E-01
DAV:   4    -0.354509159407E+03   -0.32224E-03   -0.23805E-03 40160   0.121E-01    0.521E-01
DAV:   5    -0.354508876357E+03    0.28305E-03   -0.18114E-03 38856   0.111E-01    0.391E-01
DAV:   6    -0.354508852759E+03    0.23598E-04   -0.76862E-04 38512   0.992E-02    0.389E-01
DAV:   7    -0.354508997847E+03   -0.14509E-03   -0.11815E-03 38944   0.128E-01    0.453E-01
DAV:   8    -0.354508739554E+03    0.25829E-03   -0.19603E-03 37800   0.130E-01    0.324E-01
DAV:   9    -0.354508589535E+03    0.15002E-03   -0.92093E-04 38784   0.843E-02    0.206E-01
DAV:  10    -0.354508535391E+03    0.54144E-04   -0.20754E-04 32928   0.596E-02    0.667E-02
DAV:  11    -0.354508563982E+03   -0.28591E-04   -0.64334E-05 24144   0.299E-02    0.764E-02
DAV:  12    -0.354508560138E+03    0.38443E-05   -0.23515E-05 18760   0.193E-02
  14 F= -.35450856E+03 E0= -.35449319E+03  d E =-.118612E-01  mag=     8.0000
       N       E                     dE             d eps       ncg     rms          rms(c)
DAV:   1    -0.354456120017E+03    0.52444E-01   -0.26048E+01 30352   0.132E+01    0.102E+00
DAV:   2    -0.354548723855E+03   -0.92604E-01   -0.93058E-01 28640   0.242E+00    0.209E+00
DAV:   3    -0.354539758786E+03    0.89651E-02   -0.36673E-02 38584   0.675E-01    0.943E-01
DAV:   4    -0.354544589047E+03   -0.48303E-02   -0.15141E-02 39920   0.415E-01    0.168E+00
DAV:   5    -0.354538978205E+03    0.56108E-02   -0.12988E-02 39048   0.362E-01    0.751E-01
DAV:   6    -0.354542401427E+03   -0.34232E-02   -0.15627E-02 38464   0.317E-01    0.148E+00
DAV:   7    -0.354540450710E+03    0.19507E-02   -0.15356E-02 37392   0.353E-01    0.108E+00
DAV:   8    -0.354538807596E+03    0.16431E-02   -0.96972E-03 38288   0.289E-01    0.693E-01
DAV:   9    -0.354538432117E+03    0.37548E-03   -0.40037E-03 38584   0.190E-01    0.587E-01
DAV:  10    -0.354537928551E+03    0.50357E-03   -0.15016E-03 38728   0.150E-01    0.152E-01
DAV:  11    -0.354538120710E+03   -0.19216E-03   -0.39840E-04 34688   0.641E-02    0.173E-01
DAV:  12    -0.354538104653E+03    0.16056E-04   -0.10649E-04 26952   0.404E-02    0.122E-01
DAV:  13    -0.354538087515E+03    0.17138E-04   -0.20870E-05 20608   0.201E-02    0.954E-02
DAV:  14    -0.354538093405E+03   -0.58897E-05   -0.47785E-05 22184   0.271E-02
  15 F= -.35453809E+03 E0= -.35452284E+03  d E =-.295333E-01  mag=     8.0000
       N       E                     dE             d eps       ncg     rms          rms(c)
DAV:   1    -0.354023241449E+03    0.51485E+00   -0.16001E+02 30104   0.325E+01    0.235E+00
DAV:   2    -0.354616044793E+03   -0.59280E+00   -0.62383E+00 28312   0.587E+00    0.301E+00
DAV:   3    -0.354624995230E+03   -0.89504E-02   -0.22942E-01 39072   0.175E+00    0.416E+00
DAV:   4    -0.354600996565E+03    0.23999E-01   -0.69701E-02 40720   0.963E-01    0.249E+00
DAV:   5    -0.354593230706E+03    0.77659E-02   -0.37082E-02 40384   0.619E-01    0.136E+00
DAV:   6    -0.354599957063E+03   -0.67264E-02   -0.39917E-02 39200   0.619E-01    0.224E+00
DAV:   7    -0.354592852701E+03    0.71044E-02   -0.75500E-02 37568   0.633E-01    0.179E+00
DAV:   8    -0.354586412783E+03    0.64399E-02   -0.21476E-02 37680   0.364E-01    0.474E-01
DAV:   9    -0.354587990357E+03   -0.15776E-02   -0.74816E-03 39032   0.254E-01    0.678E-01
DAV:  10    -0.354587103860E+03    0.88650E-03   -0.44078E-03 38712   0.202E-01    0.311E-01
DAV:  11    -0.354587368902E+03   -0.26504E-03   -0.11436E-03 38728   0.126E-01    0.426E-01
DAV:  12    -0.354587074688E+03    0.29421E-03   -0.76915E-04 37600   0.104E-01    0.193E-01
DAV:  13    -0.354587107424E+03   -0.32736E-04   -0.32696E-04 37680   0.762E-02    0.181E-01
DAV:  14    -0.354587198978E+03   -0.91555E-04   -0.42652E-04 32848   0.719E-02    0.293E-01
DAV:  15    -0.354587046747E+03    0.15223E-03   -0.29265E-04 32152   0.636E-02    0.973E-02
DAV:  16    -0.354587065239E+03   -0.18492E-04   -0.71525E-05 27368   0.338E-02    0.591E-02
DAV:  17    -0.354587072503E+03   -0.72646E-05   -0.39152E-05 24416   0.276E-02
  16 F= -.35458707E+03 E0= -.35457210E+03  d E =-.489791E-01  mag=     8.0000
       N       E                     dE             d eps       ncg     rms          rms(c)
DAV:   1    -0.350895137097E+03    0.36919E+01   -0.28551E+02 32944   0.481E+01    0.907E+00
DAV:   2    -0.354568787596E+03   -0.36737E+01   -0.32545E+01 29304   0.118E+01    0.170E+01
DAV:   3    -0.354410391619E+03    0.15840E+00   -0.18798E+01 37952   0.701E+00    0.154E+01
DAV:   4    -0.354379450937E+03    0.30941E-01   -0.41905E+00 38056   0.465E+00    0.158E+01
DAV:   5    -0.353904205451E+03    0.47525E+00   -0.20298E+00 38272   0.304E+00    0.129E+01
DAV:   6    -0.353537356158E+03    0.36685E+00   -0.78243E-01 38320   0.202E+00    0.582E+00
DAV:   7    -0.353504012216E+03    0.33344E-01   -0.23267E-01 38784   0.159E+00    0.497E+00
DAV:   8    -0.353508213199E+03   -0.42010E-02   -0.15540E-01 38920   0.126E+00    0.374E+00
DAV:   9    -0.353534361952E+03   -0.26149E-01   -0.13231E-01 38280   0.937E-01    0.374E+00
DAV:  10    -0.353549659499E+03   -0.15298E-01   -0.22066E-02 35320   0.470E-01    0.319E+00
DAV:  11    -0.353555279693E+03   -0.56202E-02   -0.56748E-03 38936   0.342E-01    0.292E+00
DAV:  12    -0.353583909910E+03   -0.28630E-01   -0.92708E-02 38960   0.999E-01    0.422E+00
DAV:  13    -0.353541552970E+03    0.42357E-01   -0.19010E-01 39120   0.136E+00    0.251E+00
DAV:  14    -0.353549406869E+03   -0.78539E-02   -0.52290E-02 36648   0.873E-01    0.272E+00
DAV:  15    -0.353541604967E+03    0.78019E-02   -0.32666E-02 37440   0.570E-01    0.139E+00
DAV:  16    -0.353546404849E+03   -0.47999E-02   -0.15932E-02 40304   0.520E-01    0.976E-01
DAV:  17    -0.353546598081E+03   -0.19323E-03   -0.75676E-03 38784   0.369E-01    0.752E-01
DAV:  18    -0.353545775070E+03    0.82301E-03   -0.43147E-03 39800   0.232E-01    0.468E-01
DAV:  19    -0.353545896780E+03   -0.12171E-03   -0.26431E-03 38384   0.216E-01    0.440E-01
DAV:  20    -0.353545747178E+03    0.14960E-03   -0.16639E-03 38616   0.186E-01    0.298E-01
DAV:  21    -0.353545972931E+03   -0.22575E-03   -0.73215E-04 36240   0.848E-02    0.209E-01
DAV:  22    -0.353545999126E+03   -0.26195E-04   -0.27437E-04 37376   0.510E-02    0.209E-01
DAV:  23    -0.353545998696E+03    0.43015E-06   -0.66420E-05 27720   0.351E-02
  17 F= -.35354600E+03 E0= -.35353067E+03  d E =0.104107E+01  mag=     7.9850
       N       E                     dE             d eps       ncg     rms          rms(c)
DAV:   1    -0.353794673470E+03   -0.24867E+00   -0.70044E+01 32376   0.232E+01    0.427E+00
DAV:   2    -0.354681916206E+03   -0.88724E+00   -0.83319E+00 30048   0.599E+00    0.105E+01
DAV:   3    -0.354475386526E+03    0.20653E+00   -0.14910E+00 37344   0.268E+00    0.630E+00
DAV:   4    -0.354459920781E+03    0.15466E-01   -0.20457E-01 36952   0.102E+00    0.507E+00
DAV:   5    -0.354502457656E+03   -0.42537E-01   -0.15962E-01 38416   0.833E-01    0.609E+00
DAV:   6    -0.354504350932E+03   -0.18933E-02   -0.30992E-01 37144   0.114E+00    0.575E+00
DAV:   7    -0.354478633094E+03    0.25718E-01   -0.26660E-01 39392   0.181E+00    0.608E+00
DAV:   8    -0.354419014132E+03    0.59619E-01   -0.20675E-01 38800   0.157E+00    0.387E+00
DAV:   9    -0.354419992195E+03   -0.97806E-03   -0.73262E-02 38568   0.101E+00    0.271E+00
DAV:  10    -0.354426850603E+03   -0.68584E-02   -0.19183E-02 37888   0.498E-01    0.248E+00
DAV:  11    -0.354426363004E+03    0.48760E-03   -0.18736E-02 38128   0.422E-01    0.248E+00
DAV:  12    -0.354419121371E+03    0.72416E-02   -0.30897E-02 39648   0.608E-01    0.142E+00
DAV:  13    -0.354417544600E+03    0.15768E-02   -0.14478E-02 38736   0.502E-01    0.865E-01
DAV:  14    -0.354416748840E+03    0.79576E-03   -0.37139E-03 37152   0.243E-01    0.634E-01
DAV:  15    -0.354416284952E+03    0.46389E-03   -0.11153E-03 38440   0.124E-01    0.468E-01
DAV:  16    -0.354416415103E+03   -0.13015E-03   -0.57468E-04 39136   0.869E-02    0.454E-01
DAV:  17    -0.354416534499E+03   -0.11940E-03   -0.39079E-04 37632   0.723E-02    0.354E-01
DAV:  18    -0.354416837423E+03   -0.30292E-03   -0.74650E-04 39024   0.106E-01    0.174E-01
DAV:  19    -0.354416915828E+03   -0.78405E-04   -0.30275E-04 34560   0.635E-02    0.153E-01
DAV:  20    -0.354416907004E+03    0.88239E-05   -0.55110E-05 24872   0.321E-02
  18 F= -.35441691E+03 E0= -.35440146E+03  d E =-.870908E+00  mag=     8.0060
       N       E                     dE             d eps       ncg     rms          rms(c)
DAV:   1    -0.354391498767E+03    0.25417E-01   -0.20508E+01 33112   0.130E+01    0.136E+00
DAV:   2    -0.354588916113E+03   -0.19742E+00   -0.22805E+00 28400   0.270E+00    0.200E+00
DAV:   3    -0.354602210246E+03   -0.13294E-01   -0.12686E-01 38400   0.988E-01    0.283E+00
DAV:   4    -0.354588180143E+03    0.14030E-01   -0.73997E-02 37904   0.652E-01    0.158E+00
DAV:   5    -0.354585876180E+03    0.23040E-02   -0.28372E-02 36552   0.413E-01    0.117E+00
DAV:   6    -0.354585371432E+03    0.50475E-03   -0.14949E-02 38384   0.406E-01    0.123E+00
DAV:   7    -0.354585943626E+03   -0.57219E-03   -0.17019E-02 38040   0.477E-01    0.174E+00
DAV:   8    -0.354581102478E+03    0.48411E-02   -0.15658E-02 38432   0.435E-01    0.811E-01
DAV:   9    -0.354580993660E+03    0.10882E-03   -0.93250E-03 39016   0.296E-01    0.573E-01
DAV:  10    -0.354580250588E+03    0.74307E-03   -0.28948E-03 38624   0.181E-01    0.257E-01
DAV:  11    -0.354580343024E+03   -0.92436E-04   -0.68871E-04 38224   0.102E-01    0.266E-01
DAV:  12    -0.354580247180E+03    0.95844E-04   -0.30033E-04 36360   0.681E-02    0.131E-01
DAV:  13    -0.354580237931E+03    0.92482E-05   -0.10675E-04 28384   0.438E-02    0.103E-01
DAV:  14    -0.354580241614E+03   -0.36826E-05   -0.68615E-05 24040   0.319E-02
  19 F= -.35458024E+03 E0= -.35456490E+03  d E =-.163335E+00  mag=     8.0012
       N       E                     dE             d eps       ncg     rms          rms(c)
DAV:   1    -0.354585542924E+03   -0.53050E-02   -0.49251E+00 32464   0.505E+00    0.554E-01
DAV:   2    -0.354618251680E+03   -0.32709E-01   -0.31927E-01 28304   0.113E+00    0.180E+00
DAV:   3    -0.354612342014E+03    0.59097E-02   -0.26059E-02 36936   0.396E-01    0.886E-01
DAV:   4    -0.354612336763E+03    0.52516E-05   -0.45027E-03 38328   0.175E-01    0.733E-01
DAV:   5    -0.354612507179E+03   -0.17042E-03   -0.30231E-03 37152   0.146E-01    0.765E-01
DAV:   6    -0.354611980136E+03    0.52704E-03   -0.20675E-03 36864   0.147E-01    0.622E-01
DAV:   7    -0.354613577982E+03   -0.15978E-02   -0.53515E-03 37032   0.227E-01    0.107E+00
DAV:   8    -0.354611557382E+03    0.20206E-02   -0.65115E-03 36688   0.241E-01    0.576E-01
DAV:   9    -0.354611330557E+03    0.22682E-03   -0.19236E-03 38496   0.171E-01    0.403E-01
DAV:  10    -0.354611098418E+03    0.23214E-03   -0.10664E-03 38536   0.114E-01    0.198E-01
DAV:  11    -0.354611154682E+03   -0.56264E-04   -0.22503E-04 34216   0.574E-02    0.118E-01
DAV:  12    -0.354611155864E+03   -0.11819E-05   -0.67184E-05 27992   0.368E-02
  20 F= -.35461116E+03 E0= -.35459595E+03  d E =-.309142E-01  mag=     8.0003
       N       E                     dE             d eps       ncg     rms          rms(c)
DAV:   1    -0.354623015604E+03   -0.11861E-01   -0.41436E+00 31696   0.350E+00    0.490E-01
DAV:   2    -0.354639548884E+03   -0.16533E-01   -0.12708E-01 32128   0.801E-01    0.171E+00
DAV:   3    -0.354633524907E+03    0.60240E-02   -0.78752E-03 35808   0.308E-01    0.926E-01
DAV:   4    -0.354633555921E+03   -0.31014E-04   -0.11104E-03 38448   0.107E-01    0.852E-01
DAV:   5    -0.354633042320E+03    0.51360E-03   -0.18558E-03 37944   0.110E-01    0.696E-01
DAV:   6    -0.354632891850E+03    0.15047E-03   -0.23599E-03 36120   0.122E-01    0.587E-01
DAV:   7    -0.354634146738E+03   -0.12549E-02   -0.35820E-03 37448   0.177E-01    0.899E-01
DAV:   8    -0.354633255625E+03    0.89111E-03   -0.58042E-03 37832   0.225E-01    0.627E-01
DAV:   9    -0.354632720395E+03    0.53523E-03   -0.19106E-03 38832   0.167E-01    0.405E-01
DAV:  10    -0.354632469713E+03    0.25068E-03   -0.11369E-03 38376   0.118E-01    0.175E-01
DAV:  11    -0.354632557230E+03   -0.87517E-04   -0.23390E-04 30776   0.520E-02    0.844E-02
DAV:  12    -0.354632587148E+03   -0.29918E-04   -0.40762E-05 23496   0.290E-02    0.930E-02
DAV:  13    -0.354632581683E+03    0.54648E-05   -0.25705E-05 20312   0.218E-02
  21 F= -.35463258E+03 E0= -.35461737E+03  d E =-.214258E-01  mag=     8.0001
       N       E                     dE             d eps       ncg     rms          rms(c)
DAV:   1    -0.354614739492E+03    0.17848E-01   -0.11185E+01 29792   0.623E+00    0.765E-01
DAV:   2    -0.354662431121E+03   -0.47692E-01   -0.41966E-01 31576   0.135E+00    0.243E+00
DAV:   3    -0.354651403222E+03    0.11028E-01   -0.20036E-02 35872   0.399E-01    0.144E+00
DAV:   4    -0.354651621807E+03   -0.21859E-03   -0.39751E-03 38872   0.199E-01    0.144E+00
DAV:   5    -0.354649346549E+03    0.22753E-02   -0.29394E-03 37000   0.167E-01    0.105E+00
DAV:   6    -0.354650162661E+03   -0.81611E-03   -0.56829E-03 37680   0.193E-01    0.118E+00
DAV:   7    -0.354652100018E+03   -0.19374E-02   -0.11511E-02 37584   0.286E-01    0.144E+00
DAV:   8    -0.354651304000E+03    0.79602E-03   -0.15699E-02 36240   0.327E-01    0.129E+00
DAV:   9    -0.354648611269E+03    0.26927E-02   -0.77742E-03 38936   0.299E-01    0.727E-01
DAV:  10    -0.354647717006E+03    0.89426E-03   -0.34198E-03 38416   0.206E-01    0.213E-01
DAV:  11    -0.354648105808E+03   -0.38880E-03   -0.49914E-04 30712   0.739E-02    0.159E-01
DAV:  12    -0.354648143190E+03   -0.37383E-04   -0.70703E-05 27216   0.333E-02    0.168E-01
DAV:  13    -0.354648121808E+03    0.21383E-04   -0.17164E-05 20032   0.183E-02    0.159E-01
DAV:  14    -0.354648095012E+03    0.26795E-04   -0.19483E-05 16888   0.158E-02    0.130E-01
DAV:  15    -0.354648090588E+03    0.44245E-05   -0.23969E-05 19104   0.170E-02
  22 F= -.35464809E+03 E0= -.35463298E+03  d E =-.155089E-01  mag=     8.0000
       N       E                     dE             d eps       ncg     rms          rms(c)
DAV:   1    -0.354646148044E+03    0.19470E-02   -0.12765E+00 31648   0.315E+00    0.221E-01
DAV:   2    -0.354651372189E+03   -0.52241E-02   -0.52293E-02 28376   0.573E-01    0.439E-01
DAV:   3    -0.354651075507E+03    0.29668E-03   -0.21812E-03 38408   0.147E-01    0.282E-01
DAV:   4    -0.354651211586E+03   -0.13608E-03   -0.14721E-03 37192   0.950E-02    0.352E-01
DAV:   5    -0.354651012491E+03    0.19910E-03   -0.69876E-04 34328   0.720E-02    0.188E-01
DAV:   6    -0.354651046319E+03   -0.33828E-04   -0.22257E-04 29064   0.521E-02    0.219E-01
DAV:   7    -0.354651062285E+03   -0.15965E-04   -0.29046E-04 37816   0.663E-02    0.217E-01
DAV:   8    -0.354651008983E+03    0.53301E-04   -0.49812E-04 36800   0.681E-02    0.172E-01
DAV:   9    -0.354650957931E+03    0.51052E-04   -0.19543E-04 27504   0.438E-02    0.114E-01
DAV:  10    -0.354650941186E+03    0.16745E-04   -0.76515E-05 23656   0.316E-02    0.344E-02
DAV:  11    -0.354650953322E+03   -0.12136E-04   -0.22477E-05 19360   0.177E-02    0.498E-02
DAV:  12    -0.354650951559E+03    0.17631E-05   -0.13781E-05 17064   0.143E-02
  23 F= -.35465095E+03 E0= -.35463589E+03  d E =-.286097E-02  mag=     8.0000
       N       E                     dE             d eps       ncg     rms          rms(c)
DAV:   1    -0.354347502996E+03    0.30345E+00   -0.81529E+01 30560   0.251E+01    0.157E+00
DAV:   2    -0.354659158887E+03   -0.31166E+00   -0.32794E+00 28288   0.438E+00    0.216E+00
DAV:   3    -0.354690129664E+03   -0.30971E-01   -0.35265E-01 38456   0.127E+00    0.425E+00
DAV:   4    -0.354648861327E+03    0.41268E-01   -0.13174E-01 39632   0.814E-01    0.130E+00
DAV:   5    -0.354650161786E+03   -0.13005E-02   -0.15493E-02 39952   0.419E-01    0.100E+00
DAV:   6    -0.354650876605E+03   -0.71482E-03   -0.14530E-02 38936   0.411E-01    0.125E+00
DAV:   7    -0.354647736440E+03    0.31402E-02   -0.14422E-02 37808   0.402E-01    0.940E-01
DAV:   8    -0.354646887150E+03    0.84929E-03   -0.60250E-03 38968   0.300E-01    0.595E-01
DAV:   9    -0.354646730635E+03    0.15651E-03   -0.45160E-03 38136   0.223E-01    0.414E-01
DAV:  10    -0.354646422836E+03    0.30780E-03   -0.14540E-03 38664   0.144E-01    0.173E-01
DAV:  11    -0.354646494241E+03   -0.71405E-04   -0.34302E-04 39408   0.721E-02    0.220E-01
DAV:  12    -0.354646441563E+03    0.52678E-04   -0.20644E-04 29608   0.542E-02    0.147E-01
DAV:  13    -0.354646420568E+03    0.20996E-04   -0.71885E-05 26456   0.393E-02    0.112E-01
DAV:  14    -0.354646487566E+03   -0.66999E-04   -0.18659E-04 28624   0.493E-02    0.230E-01
DAV:  15    -0.354646384175E+03    0.10339E-03   -0.20261E-04 29520   0.548E-02    0.946E-02
DAV:  16    -0.354646391506E+03   -0.73308E-05   -0.98596E-05 24904   0.452E-02
  24 F= -.35464639E+03 E0= -.35463147E+03  d E =0.456005E-02  mag=     8.0000
       N       E                     dE             d eps       ncg     rms          rms(c)
DAV:   1    -0.344852491927E+03    0.97939E+01   -0.65463E+02 33416   0.579E+01    0.196E+01
DAV:   2    -0.353322907184E+03   -0.84704E+01   -0.80900E+01 30040   0.148E+01    0.184E+01
DAV:   3    -0.356658246181E+03   -0.33353E+01   -0.44455E+01 38448   0.130E+01    0.296E+01
DAV:   4    -0.356026489322E+03    0.63176E+00   -0.22210E+01 37904   0.909E+00    0.294E+01
DAV:   5    -0.354893978078E+03    0.11325E+01   -0.71020E+00 36336   0.652E+00    0.289E+01
DAV:   6    -0.353576154818E+03    0.13178E+01   -0.18533E+01 37560   0.628E+00    0.199E+01
DAV:   7    -0.352528341397E+03    0.10478E+01   -0.14869E+00 38912   0.443E+00    0.152E+01
DAV:   8    -0.352180179414E+03    0.34816E+00   -0.18344E+00 39176   0.339E+00    0.146E+01
DAV:   9    -0.352095819291E+03    0.84360E-01   -0.14223E+00 37936   0.339E+00    0.139E+01
DAV:  10    -0.351890378741E+03    0.20544E+00   -0.57478E-01 39184   0.233E+00    0.118E+01
DAV:  11    -0.351762213126E+03    0.12817E+00   -0.37741E-01 37576   0.162E+00    0.950E+00
DAV:  12    -0.351640784361E+03    0.12143E+00   -0.32453E-01 38272   0.179E+00    0.646E+00
DAV:  13    -0.351610436926E+03    0.30347E-01   -0.12965E-01 38632   0.105E+00    0.465E+00
DAV:  14    -0.351632608519E+03   -0.22172E-01   -0.26816E-02 34704   0.505E-01    0.428E+00
DAV:  15    -0.351651435340E+03   -0.18827E-01   -0.10830E-02 38032   0.476E-01    0.387E+00
DAV:  16    -0.351683926571E+03   -0.32491E-01   -0.67943E-02 40080   0.958E-01    0.339E+00
DAV:  17    -0.351688496552E+03   -0.45700E-02   -0.44341E-02 38768   0.784E-01    0.285E+00
DAV:  18    -0.351662714696E+03    0.25782E-01   -0.42782E-02 38704   0.591E-01    0.214E+00
DAV:  19    -0.351677308028E+03   -0.14593E-01   -0.21827E-02 35560   0.285E-01    0.259E+00
DAV:  20    -0.351679028937E+03   -0.17209E-02   -0.40360E-03 36656   0.275E-01    0.207E+00
DAV:  21    -0.351692759737E+03   -0.13731E-01   -0.62453E-02 39648   0.767E-01    0.211E+00
DAV:  22    -0.351695684007E+03   -0.29243E-02   -0.17553E-02 34760   0.463E-01    0.220E+00
DAV:  23    -0.351686670292E+03    0.90137E-02   -0.20641E-02 40016   0.496E-01    0.931E-01
DAV:  24    -0.351688912732E+03   -0.22424E-02   -0.10105E-02 37856   0.280E-01    0.753E-01
DAV:  25    -0.351688819481E+03    0.93251E-04   -0.26043E-03 36312   0.208E-01    0.479E-01
DAV:  26    -0.351688399591E+03    0.41989E-03   -0.24235E-03 39976   0.171E-01    0.313E-01
DAV:  27    -0.351688422539E+03   -0.22948E-04   -0.93717E-04 36960   0.116E-01    0.237E-01
DAV:  28    -0.351688402147E+03    0.20392E-04   -0.37773E-04 37960   0.703E-02    0.153E-01
DAV:  29    -0.351688390777E+03    0.11370E-04   -0.40581E-04 37584   0.547E-02    0.184E-01
DAV:  30    -0.351688385414E+03    0.53637E-05   -0.12009E-04 30704   0.330E-02    0.193E-01
DAV:  31    -0.351688268663E+03    0.11675E-03   -0.21294E-04 30400   0.390E-02    0.732E-02
DAV:  32    -0.351688250682E+03    0.17981E-04   -0.10128E-04 28616   0.247E-02    0.734E-02
DAV:  33    -0.351688238333E+03    0.12349E-04   -0.29604E-05 20848   0.194E-02    0.656E-02
DAV:  34    -0.351688224221E+03    0.14113E-04   -0.17759E-05 19640   0.142E-02    0.438E-02
DAV:  35    -0.351688215540E+03    0.86803E-05   -0.12959E-05 19640   0.103E-02
  25 F= -.35168822E+03 E0= -.35167202E+03  d E =0.295818E+01  mag=     7.9805
       N       E                     dE             d eps       ncg     rms          rms(c)
DAV:   1    -0.351538150028E+03    0.15007E+00   -0.34628E+02 32720   0.336E+01    0.159E+01
DAV:   2    -0.360096494857E+03   -0.85583E+01   -0.35487E+01 31664   0.113E+01    0.381E+01
DAV:   3    -0.355383509856E+03    0.47130E+01   -0.93672E+01 37944   0.104E+01    0.176E+01
DAV:   4    -0.355967890141E+03   -0.58438E+00   -0.66076E+00 37776   0.539E+00    0.198E+01
DAV:   5    -0.355160766253E+03    0.80712E+00   -0.18832E+00 38608   0.480E+00    0.124E+01
DAV:   6    -0.355929960404E+03   -0.76919E+00   -0.21054E+00 37192   0.519E+00    0.237E+01
DAV:   7    -0.355422134608E+03    0.50783E+00   -0.29232E+00 36072   0.500E+00    0.196E+01
DAV:   8    -0.355046805097E+03    0.37533E+00   -0.82979E-01 36696   0.343E+00    0.130E+01
DAV:   9    -0.354653796649E+03    0.39301E+00   -0.11209E+00 37384   0.264E+00    0.731E+00
DAV:  10    -0.354595389650E+03    0.58407E-01   -0.17953E-01 37536   0.174E+00    0.676E+00
DAV:  11    -0.354533776464E+03    0.61613E-01   -0.90561E-02 38176   0.117E+00    0.584E+00
DAV:  12    -0.354483454179E+03    0.50322E-01   -0.51194E-02 38704   0.875E-01    0.512E+00
DAV:  13    -0.354437043111E+03    0.46411E-01   -0.13790E-02 39192   0.489E-01    0.491E+00
DAV:  14    -0.354406911981E+03    0.30131E-01   -0.81960E-03 39872   0.384E-01    0.479E+00
DAV:  15    -0.354349484472E+03    0.57428E-01   -0.11874E-02 39480   0.518E-01    0.441E+00
DAV:  16    -0.354225173058E+03    0.12431E+00   -0.35375E-02 40040   0.787E-01    0.330E+00
DAV:  17    -0.354204906110E+03    0.20267E-01   -0.14555E-02 38384   0.307E-01    0.284E+00
DAV:  18    -0.354191051306E+03    0.13855E-01   -0.29571E-03 35688   0.190E-01    0.296E+00
DAV:  19    -0.354177339762E+03    0.13712E-01   -0.12734E-03 36232   0.142E-01    0.299E+00
DAV:  20    -0.354210921655E+03   -0.33582E-01   -0.16980E-02 35816   0.407E-01    0.230E+00
DAV:  21    -0.354224331498E+03   -0.13410E-01   -0.22967E-02 38216   0.501E-01    0.166E+00
DAV:  22    -0.354234661592E+03   -0.10330E-01   -0.13953E-02 37992   0.357E-01    0.145E+00
DAV:  23    -0.354236662728E+03   -0.20011E-02   -0.22312E-03 31488   0.133E-01    0.144E+00
DAV:  24    -0.354235007029E+03    0.16557E-02   -0.69837E-04 35096   0.897E-02    0.163E+00
DAV:  25    -0.354239344947E+03   -0.43379E-02   -0.32882E-03 39136   0.260E-01    0.105E+00
DAV:  26    -0.354247385013E+03   -0.80401E-02   -0.58932E-03 36080   0.307E-01    0.665E-01
DAV:  27    -0.354246383451E+03    0.10016E-02   -0.25034E-03 32792   0.142E-01    0.446E-01
DAV:  28    -0.354246645114E+03   -0.26166E-03   -0.11292E-03 37536   0.809E-02    0.276E-01
DAV:  29    -0.354247065497E+03   -0.42038E-03   -0.28424E-04 34696   0.650E-02    0.195E-01
DAV:  30    -0.354247174550E+03   -0.10905E-03   -0.23898E-04 34680   0.420E-02    0.142E-01
DAV:  31    -0.354247146088E+03    0.28462E-04   -0.10888E-04 29872   0.285E-02    0.900E-02
DAV:  32    -0.354247146761E+03   -0.67233E-06   -0.45090E-05 26072   0.202E-02
  26 F= -.35424715E+03 E0= -.35423150E+03  d E =-.255893E+01  mag=     7.9636
       N       E                     dE             d eps       ncg     rms          rms(c)
DAV:   1    -0.354279935598E+03   -0.32790E-01   -0.52701E+00 33120   0.612E+00    0.704E-01
DAV:   2    -0.354337567133E+03   -0.57632E-01   -0.61537E-01 28760   0.131E+00    0.148E+00
DAV:   3    -0.354338227944E+03   -0.66081E-03   -0.66008E-02 37120   0.546E-01    0.158E+00
DAV:   4    -0.354334371825E+03    0.38561E-02   -0.23812E-02 40008   0.371E-01    0.756E-01
DAV:   5    -0.354333833418E+03    0.53841E-03   -0.41784E-03 37752   0.237E-01    0.578E-01
DAV:   6    -0.354333700135E+03    0.13328E-03   -0.22547E-03 37920   0.165E-01    0.583E-01
DAV:   7    -0.354333085206E+03    0.61493E-03   -0.23933E-03 38120   0.187E-01    0.502E-01
DAV:   8    -0.354332560136E+03    0.52507E-03   -0.30222E-03 38208   0.201E-01    0.324E-01
DAV:   9    -0.354332602759E+03   -0.42623E-04   -0.13292E-03 37888   0.123E-01    0.345E-01
DAV:  10    -0.354332387743E+03    0.21502E-03   -0.56771E-04 36904   0.868E-02    0.130E-01
DAV:  11    -0.354332397723E+03   -0.99804E-05   -0.11294E-04 32528   0.483E-02    0.740E-02
DAV:  12    -0.354332403581E+03   -0.58580E-05   -0.38083E-05 21776   0.235E-02
  27 F= -.35433240E+03 E0= -.35431686E+03  d E =-.852568E-01  mag=     7.9913
       N       E                     dE             d eps       ncg     rms          rms(c)
DAV:   1    -0.354279322079E+03    0.53076E-01   -0.32031E+01 32176   0.115E+01    0.134E+00
DAV:   2    -0.354505608918E+03   -0.22629E+00   -0.24342E+00 28640   0.253E+00    0.234E+00
DAV:   3    -0.354518616010E+03   -0.13007E-01   -0.26262E-01 36336   0.101E+00    0.328E+00
DAV:   4    -0.354496765382E+03    0.21851E-01   -0.74584E-02 36656   0.643E-01    0.117E+00
DAV:   5    -0.354495728632E+03    0.10367E-02   -0.94718E-03 39592   0.419E-01    0.903E-01
DAV:   6    -0.354499819552E+03   -0.40909E-02   -0.16786E-02 37496   0.431E-01    0.194E+00
DAV:   7    -0.354491629574E+03    0.81900E-02   -0.16026E-02 36160   0.407E-01    0.801E-01
DAV:   8    -0.354492354489E+03   -0.72491E-03   -0.90548E-03 38752   0.343E-01    0.930E-01
DAV:   9    -0.354490754026E+03    0.16005E-02   -0.75607E-03 38296   0.267E-01    0.512E-01
DAV:  10    -0.354490522396E+03    0.23163E-03   -0.11971E-03 39032   0.157E-01    0.198E-01
DAV:  11    -0.354490677410E+03   -0.15501E-03   -0.50078E-04 38248   0.859E-02    0.315E-01
DAV:  12    -0.354490482681E+03    0.19473E-03   -0.26345E-04 35352   0.686E-02    0.108E-01
DAV:  13    -0.354490493853E+03   -0.11172E-04   -0.10732E-04 30896   0.449E-02    0.108E-01
DAV:  14    -0.354490509809E+03   -0.15956E-04   -0.15561E-04 27104   0.450E-02    0.162E-01
DAV:  15    -0.354490454798E+03    0.55010E-04   -0.10186E-04 23328   0.404E-02    0.617E-02
DAV:  16    -0.354490449673E+03    0.51256E-05   -0.47822E-05 23200   0.252E-02
  28 F= -.35449045E+03 E0= -.35447517E+03  d E =-.158046E+00  mag=     7.9989
       N       E                     dE             d eps       ncg     rms          rms(c)
DAV:   1    -0.354541882762E+03   -0.51428E-01   -0.15532E+01 32336   0.544E+00    0.762E-01
DAV:   2    -0.354595804230E+03   -0.53921E-01   -0.48137E-01 31008   0.121E+00    0.245E+00
DAV:   3    -0.354583667089E+03    0.12137E-01   -0.20877E-02 36560   0.374E-01    0.143E+00
DAV:   4    -0.354583835670E+03   -0.16858E-03   -0.56161E-03 38000   0.211E-01    0.139E+00
DAV:   5    -0.354581270521E+03    0.25651E-02   -0.57064E-03 36640   0.197E-01    0.102E+00
DAV:   6    -0.354582626801E+03   -0.13563E-02   -0.76115E-03 37112   0.190E-01    0.124E+00
DAV:   7    -0.354583038575E+03   -0.41177E-03   -0.11815E-02 38344   0.293E-01    0.123E+00
DAV:   8    -0.354582482432E+03    0.55614E-03   -0.95303E-03 37056   0.338E-01    0.120E+00
DAV:   9    -0.354580139379E+03    0.23431E-02   -0.53422E-03 37672   0.280E-01    0.681E-01
DAV:  10    -0.354579577296E+03    0.56208E-03   -0.33692E-03 38464   0.196E-01    0.210E-01
DAV:  11    -0.354579879011E+03   -0.30171E-03   -0.46065E-04 30336   0.741E-02    0.192E-01
DAV:  12    -0.354579889071E+03   -0.10060E-04   -0.74896E-05 28920   0.362E-02    0.180E-01
DAV:  13    -0.354579861601E+03    0.27470E-04   -0.23404E-05 22192   0.224E-02    0.166E-01
DAV:  14    -0.354579833810E+03    0.27791E-04   -0.32510E-05 21336   0.207E-02    0.139E-01
DAV:  15    -0.354579815562E+03    0.18248E-04   -0.45199E-05 23256   0.248E-02    0.921E-02
DAV:  16    -0.354579810526E+03    0.50367E-05   -0.32356E-05 23632   0.226E-02
  29 F= -.35457981E+03 E0= -.35456460E+03  d E =-.893609E-01  mag=     7.9998
       N       E                     dE             d eps       ncg     rms          rms(c)
DAV:   1    -0.354462390174E+03    0.11743E+00   -0.78957E+01 32088   0.120E+01    0.205E+00
DAV:   2    -0.354792308312E+03   -0.32992E+00   -0.30052E+00 32720   0.294E+00    0.573E+00
DAV:   3    -0.354723233342E+03    0.69075E-01   -0.11315E-01 36376   0.843E-01    0.384E+00
DAV:   4    -0.354726737550E+03   -0.35042E-02   -0.73229E-02 38064   0.642E-01    0.434E+00
DAV:   5    -0.354694994313E+03    0.31743E-01   -0.60892E-02 37672   0.613E-01    0.268E+00
DAV:   6    -0.354692926363E+03    0.20680E-02   -0.32614E-02 36864   0.463E-01    0.237E+00
DAV:   7    -0.354700191943E+03   -0.72656E-02   -0.29159E-02 38840   0.580E-01    0.285E+00
DAV:   8    -0.354711755558E+03   -0.11564E-01   -0.52704E-02 37888   0.766E-01    0.352E+00
DAV:   9    -0.354691518782E+03    0.20237E-01   -0.57737E-02 39232   0.807E-01    0.199E+00
DAV:  10    -0.354686886339E+03    0.46324E-02   -0.32318E-02 38800   0.597E-01    0.109E+00
DAV:  11    -0.354688010544E+03   -0.11242E-02   -0.36013E-03 30216   0.200E-01    0.106E+00
DAV:  12    -0.354687375015E+03    0.63553E-03   -0.73411E-04 35928   0.998E-02    0.989E-01
DAV:  13    -0.354686909134E+03    0.46588E-03   -0.25677E-04 35344   0.645E-02    0.909E-01
DAV:  14    -0.354685920023E+03    0.98911E-03   -0.71293E-04 37680   0.844E-02    0.707E-01
DAV:  15    -0.354685806502E+03    0.11352E-03   -0.45408E-04 37184   0.748E-02    0.624E-01
DAV:  16    -0.354685351462E+03    0.45504E-03   -0.44767E-04 37216   0.791E-02    0.409E-01
DAV:  17    -0.354685281437E+03    0.70025E-04   -0.35698E-04 37712   0.721E-02    0.282E-01
DAV:  18    -0.354685221778E+03    0.59658E-04   -0.31587E-04 38032   0.607E-02    0.161E-01
DAV:  19    -0.354685247005E+03   -0.25227E-04   -0.94446E-05 32864   0.325E-02    0.825E-02
DAV:  20    -0.354685264523E+03   -0.17518E-04   -0.24164E-05 21792   0.207E-02    0.587E-02
DAV:  21    -0.354685261483E+03    0.30399E-05   -0.20334E-05 22248   0.185E-02
  30 F= -.35468526E+03 E0= -.35467020E+03  d E =-.105451E+00  mag=     8.0000
       N       E                     dE             d eps       ncg     rms          rms(c)
DAV:   1    -0.354682912440E+03    0.23521E-02   -0.86301E-01 32832   0.233E+00    0.236E-01
DAV:   2    -0.354690573639E+03   -0.76612E-02   -0.78443E-02 28336   0.523E-01    0.645E-01
DAV:   3    -0.354689739387E+03    0.83425E-03   -0.41409E-03 36760   0.173E-01    0.314E-01
DAV:   4    -0.354689882621E+03   -0.14323E-03   -0.88208E-04 37296   0.920E-02    0.335E-01
DAV:   5    -0.354689739565E+03    0.14306E-03   -0.32648E-04 35712   0.652E-02    0.248E-01
DAV:   6    -0.354689839144E+03   -0.99579E-04   -0.63643E-04 30152   0.646E-02    0.343E-01
DAV:   7    -0.354689779914E+03    0.59230E-04   -0.11910E-03 37528   0.886E-02    0.332E-01
DAV:   8    -0.354689701246E+03    0.78668E-04   -0.10390E-03 37976   0.100E-01    0.313E-01
DAV:   9    -0.354689567932E+03    0.13331E-03   -0.38382E-04 35544   0.721E-02    0.152E-01
DAV:  10    -0.354689554747E+03    0.13185E-04   -0.11752E-04 28088   0.442E-02    0.914E-02
DAV:  11    -0.354689551028E+03    0.37185E-05   -0.36926E-05 21928   0.225E-02
  31 F= -.35468955E+03 E0= -.35467443E+03  d E =-.428955E-02  mag=     8.0000
       N       E                     dE             d eps       ncg     rms          rms(c)
DAV:   1    -0.354687504220E+03    0.20505E-02   -0.43593E-01 32520   0.206E+00    0.153E-01
DAV:   2    -0.354690909778E+03   -0.34056E-02   -0.34442E-02 28376   0.402E-01    0.331E-01
DAV:   3    -0.354690785030E+03    0.12475E-03   -0.19796E-03 37664   0.134E-01    0.225E-01
DAV:   4    -0.354690773475E+03    0.11555E-04   -0.60748E-04 36752   0.777E-02    0.186E-01
DAV:   5    -0.354690748142E+03    0.25333E-04   -0.33729E-04 29440   0.525E-02    0.161E-01
DAV:   6    -0.354690700394E+03    0.47748E-04   -0.20219E-04 23048   0.346E-02    0.773E-02
DAV:   7    -0.354690726121E+03   -0.25727E-04   -0.14724E-04 31680   0.410E-02    0.149E-01
DAV:   8    -0.354690683369E+03    0.42752E-04   -0.13651E-04 31032   0.416E-02    0.934E-02
DAV:   9    -0.354690673409E+03    0.99603E-05   -0.50412E-05 23904   0.296E-02
  32 F= -.35469067E+03 E0= -.35467552E+03  d E =-.112238E-02  mag=     8.0000
       N       E                     dE             d eps       ncg     rms          rms(c)
DAV:   1    -0.354678331534E+03    0.12352E-01   -0.30634E+00 32168   0.500E+00    0.287E-01
DAV:   2    -0.354691690294E+03   -0.13359E-01   -0.13640E-01 28288   0.897E-01    0.429E-01
DAV:   3    -0.354692137894E+03   -0.44760E-03   -0.57404E-03 38928   0.244E-01    0.604E-01
DAV:   4    -0.354691425825E+03    0.71207E-03   -0.20995E-03 37664   0.148E-01    0.256E-01
DAV:   5    -0.354691430310E+03   -0.44853E-05   -0.95722E-04 37768   0.825E-02    0.238E-01
DAV:   6    -0.354691343857E+03    0.86453E-04   -0.44145E-04 33696   0.605E-02    0.160E-01
DAV:   7    -0.354691402952E+03   -0.59095E-04   -0.57674E-04 35504   0.769E-02    0.302E-01
DAV:   8    -0.354691205306E+03    0.19765E-03   -0.45120E-04 37248   0.702E-02    0.829E-02
DAV:   9    -0.354691229995E+03   -0.24689E-04   -0.10888E-04 32344   0.438E-02    0.640E-02
DAV:  10    -0.354691225752E+03    0.42429E-05   -0.61758E-05 27272   0.277E-02
  33 F= -.35469123E+03 E0= -.35467607E+03  d E =-.552343E-03  mag=     8.0000
       N       E                     dE             d eps       ncg     rms          rms(c)
DAV:   1    -0.354513218410E+03    0.17801E+00   -0.57106E+01 30944   0.203E+01    0.109E+00
DAV:   2    -0.354697634023E+03   -0.18442E+00   -0.18877E+00 28288   0.348E+00    0.130E+00
DAV:   3    -0.354712646407E+03   -0.15012E-01   -0.13250E-01 38752   0.869E-01    0.309E+00
DAV:   4    -0.354693109722E+03    0.19537E-01   -0.61555E-02 38432   0.556E-01    0.854E-01
DAV:   5    -0.354693637800E+03   -0.52808E-03   -0.82465E-03 40608   0.321E-01    0.646E-01
DAV:   6    -0.354693880079E+03   -0.24228E-03   -0.71443E-03 38360   0.255E-01    0.893E-01
DAV:   7    -0.354691762774E+03    0.21173E-02   -0.47906E-03 35200   0.274E-01    0.482E-01
DAV:   8    -0.354692015904E+03   -0.25313E-03   -0.45041E-03 37360   0.216E-01    0.541E-01
DAV:   9    -0.354691629224E+03    0.38668E-03   -0.20098E-03 37304   0.158E-01    0.292E-01
DAV:  10    -0.354691564015E+03    0.65209E-04   -0.51685E-04 38872   0.102E-01    0.125E-01
DAV:  11    -0.354691598744E+03   -0.34729E-04   -0.19569E-04 36384   0.515E-02    0.126E-01
DAV:  12    -0.354691593851E+03    0.48926E-05   -0.84204E-05 23928   0.319E-02
  34 F= -.35469159E+03 E0= -.35467642E+03  d E =-.368100E-03  mag=     8.0000
       N       E                     dE             d eps       ncg     rms          rms(c)
DAV:   1    -0.354384297961E+03    0.30730E+00   -0.95743E+01 31784   0.270E+01    0.148E+00
DAV:   2    -0.354704227704E+03   -0.31993E+00   -0.33043E+00 28288   0.464E+00    0.173E+00
DAV:   3    -0.354712069276E+03   -0.78416E-02   -0.13379E-01 38432   0.104E+00    0.270E+00
DAV:   4    -0.354702856445E+03    0.92128E-02   -0.10238E-01 38952   0.708E-01    0.188E+00
DAV:   5    -0.354697808520E+03    0.50479E-02   -0.30387E-02 38224   0.479E-01    0.107E+00
DAV:   6    -0.354698876801E+03   -0.10683E-02   -0.13130E-02 38448   0.358E-01    0.137E+00
DAV:   7    -0.354694954984E+03    0.39218E-02   -0.10024E-02 36720   0.382E-01    0.831E-01
DAV:   8    -0.354695601920E+03   -0.64694E-03   -0.89395E-03 37904   0.330E-01    0.100E+00
DAV:   9    -0.354694187362E+03    0.14146E-02   -0.50230E-03 37384   0.259E-01    0.447E-01
DAV:  10    -0.354694231453E+03   -0.44091E-04   -0.19966E-03 37304   0.173E-01    0.341E-01
DAV:  11    -0.354694129385E+03    0.10207E-03   -0.75489E-04 37680   0.983E-02    0.221E-01
DAV:  12    -0.354694086119E+03    0.43266E-04   -0.30867E-04 33232   0.638E-02    0.114E-01
DAV:  13    -0.354694082130E+03    0.39889E-05   -0.15519E-04 27848   0.457E-02    0.885E-02
DAV:  14    -0.354694089967E+03   -0.78370E-05   -0.48753E-05 23744   0.294E-02
  35 F= -.35469409E+03 E0= -.35467885E+03  d E =-.249612E-02  mag=     8.0000
       N       E                     dE             d eps       ncg     rms          rms(c)
DAV:   1    -0.354571361378E+03    0.12272E+00   -0.12773E+01 31928   0.120E+01    0.938E-01
DAV:   2    -0.354680025275E+03   -0.10866E+00   -0.11420E+00 28304   0.245E+00    0.179E+00
DAV:   3    -0.354678236586E+03    0.17887E-02   -0.59930E-02 36040   0.691E-01    0.142E+00
DAV:   4    -0.354676129403E+03    0.21072E-02   -0.15481E-02 38928   0.403E-01    0.104E+00
DAV:   5    -0.354677441712E+03   -0.13123E-02   -0.19766E-02 37912   0.335E-01    0.133E+00
DAV:   6    -0.354675015987E+03    0.24257E-02   -0.16225E-02 38264   0.305E-01    0.926E-01
DAV:   7    -0.354677398812E+03   -0.23828E-02   -0.16098E-02 37656   0.393E-01    0.155E+00
DAV:   8    -0.354672262411E+03    0.51364E-02   -0.10496E-02 38416   0.342E-01    0.448E-01
DAV:   9    -0.354672723833E+03   -0.46142E-03   -0.25626E-03 39064   0.210E-01    0.407E-01
DAV:  10    -0.354672506749E+03    0.21708E-03   -0.14385E-03 38936   0.141E-01    0.225E-01
DAV:  11    -0.354672466877E+03    0.39871E-04   -0.34507E-04 35656   0.647E-02    0.135E-01
DAV:  12    -0.354672431869E+03    0.35008E-04   -0.90614E-05 29000   0.421E-02    0.969E-02
DAV:  13    -0.354672424894E+03    0.69748E-05   -0.91728E-05 27200   0.417E-02
  36 F= -.35467242E+03 E0= -.35465707E+03  d E =0.216651E-01  mag=     8.0000
       N       E                     dE             d eps       ncg     rms          rms(c)
DAV:   1    -0.354642335855E+03    0.30096E-01   -0.70440E+00 32488   0.910E+00    0.711E-01
DAV:   2    -0.354711294677E+03   -0.68959E-01   -0.72190E-01 28304   0.190E+00    0.148E+00
DAV:   3    -0.354710989013E+03    0.30566E-03   -0.47229E-02 36712   0.574E-01    0.131E+00
DAV:   4    -0.354709594856E+03    0.13942E-02   -0.20828E-02 39856   0.350E-01    0.985E-01
DAV:   5    -0.354708351081E+03    0.12438E-02   -0.79005E-03 38128   0.254E-01    0.682E-01
DAV:   6    -0.354707932623E+03    0.41846E-03   -0.28491E-03 37736   0.188E-01    0.531E-01
DAV:   7    -0.354708377559E+03   -0.44494E-03   -0.42998E-03 38504   0.237E-01    0.886E-01
DAV:   8    -0.354706941558E+03    0.14360E-02   -0.45928E-03 38800   0.243E-01    0.439E-01
DAV:   9    -0.354706846586E+03    0.94972E-04   -0.14782E-03 38536   0.154E-01    0.285E-01
DAV:  10    -0.354706704891E+03    0.14169E-03   -0.91875E-04 38696   0.103E-01    0.162E-01
DAV:  11    -0.354706713988E+03   -0.90967E-05   -0.21345E-04 38056   0.598E-02    0.135E-01
DAV:  12    -0.354706694298E+03    0.19690E-04   -0.97313E-05 26328   0.383E-02    0.882E-02
DAV:  13    -0.354706678766E+03    0.15532E-04   -0.54256E-05 23280   0.310E-02    0.540E-02
DAV:  14    -0.354706682234E+03   -0.34682E-05   -0.31489E-05 21536   0.240E-02
  37 F= -.35470668E+03 E0= -.35469146E+03  d E =-.342573E-01  mag=     8.0000
       N       E                     dE             d eps       ncg     rms          rms(c)
DAV:   1    -0.354704512460E+03    0.21663E-02   -0.11071E+00 30824   0.296E+00    0.202E-01
DAV:   2    -0.354710213372E+03   -0.57009E-02   -0.54088E-02 28496   0.567E-01    0.632E-01
DAV:   3    -0.354709526500E+03    0.68687E-03   -0.34606E-03 37128   0.184E-01    0.308E-01
DAV:   4    -0.354709524872E+03    0.16279E-05   -0.83172E-04 38208   0.798E-02    0.231E-01
DAV:   5    -0.354709558141E+03   -0.33269E-04   -0.52267E-04 32200   0.628E-02    0.262E-01
DAV:   6    -0.354709466930E+03    0.91211E-04   -0.28429E-04 29160   0.566E-02    0.175E-01
DAV:   7    -0.354709553572E+03   -0.86642E-04   -0.35925E-04 38096   0.687E-02    0.279E-01
DAV:   8    -0.354709440355E+03    0.11322E-03   -0.32245E-04 37360   0.694E-02    0.206E-01
DAV:   9    -0.354709385311E+03    0.55044E-04   -0.16778E-04 33576   0.504E-02    0.118E-01
DAV:  10    -0.354709364162E+03    0.21150E-04   -0.62176E-05 24240   0.309E-02    0.384E-02
DAV:  11    -0.354709376422E+03   -0.12260E-04   -0.21782E-05 20304   0.158E-02    0.464E-02
DAV:  12    -0.354709374462E+03    0.19599E-05   -0.10181E-05 16168   0.119E-02
  38 F= -.35470937E+03 E0= -.35469418E+03  d E =-.269223E-02  mag=     8.0000
       N       E                     dE             d eps       ncg     rms          rms(c)
DAV:   1    -0.354658924616E+03    0.50452E-01   -0.17666E+01 31504   0.112E+01    0.605E-01
DAV:   2    -0.354713951894E+03   -0.55027E-01   -0.56160E-01 28288   0.190E+00    0.805E-01
DAV:   3    -0.354716840780E+03   -0.28889E-02   -0.27173E-02 38912   0.480E-01    0.146E+00
DAV:   4    -0.354712912865E+03    0.39279E-02   -0.13610E-02 39608   0.321E-01    0.655E-01
DAV:   5    -0.354712647503E+03    0.26536E-03   -0.41080E-03 39632   0.170E-01    0.439E-01
DAV:   6    -0.354712540203E+03    0.10730E-03   -0.20052E-03 38512   0.130E-01    0.390E-01
DAV:   7    -0.354712290925E+03    0.24928E-03   -0.19569E-03 36448   0.161E-01    0.403E-01
DAV:   8    -0.354712001423E+03    0.28950E-03   -0.16465E-03 37792   0.131E-01    0.226E-01
DAV:   9    -0.354712011051E+03   -0.96273E-05   -0.46295E-04 38352   0.932E-02    0.180E-01
DAV:  10    -0.354711975122E+03    0.35929E-04   -0.19858E-04 38312   0.628E-02    0.774E-02
DAV:  11    -0.354711997388E+03   -0.22267E-04   -0.77715E-05 22896   0.328E-02    0.112E-01
DAV:  12    -0.354711980930E+03    0.16459E-04   -0.34357E-05 20552   0.249E-02    0.509E-02
DAV:  13    -0.354711981687E+03   -0.75738E-06   -0.10680E-05 18504   0.151E-02
  39 F= -.35471198E+03 E0= -.35469685E+03  d E =-.260723E-02  mag=     8.0000
       N       E                     dE             d eps       ncg     rms          rms(c)
DAV:   1    -0.351091193212E+03    0.36208E+01   -0.19306E+02 32552   0.480E+01    0.933E+00
DAV:   2    -0.356607295401E+03   -0.55161E+01   -0.32825E+01 29488   0.126E+01    0.301E+01
DAV:   3    -0.354210423620E+03    0.23969E+01   -0.22747E+01 36336   0.764E+00    0.113E+01
DAV:   4    -0.354082931865E+03    0.12749E+00   -0.13679E+00 37992   0.402E+00    0.113E+01
DAV:   5    -0.353872979126E+03    0.20995E+00   -0.11031E+00 37896   0.350E+00    0.994E+00
DAV:   6    -0.353749975261E+03    0.12300E+00   -0.70582E-01 38288   0.250E+00    0.639E+00
DAV:   7    -0.353712200091E+03    0.37775E-01   -0.55546E-01 37080   0.162E+00    0.426E+00
DAV:   8    -0.353783080428E+03   -0.70880E-01   -0.22744E-01 37848   0.139E+00    0.628E+00
DAV:   9    -0.353744785098E+03    0.38295E-01   -0.49834E-02 38288   0.796E-01    0.401E+00
DAV:  10    -0.353758294271E+03   -0.13509E-01   -0.64588E-02 38608   0.824E-01    0.428E+00
DAV:  11    -0.353745436020E+03    0.12858E-01   -0.92002E-02 37976   0.834E-01    0.321E+00
DAV:  12    -0.353726878291E+03    0.18558E-01   -0.34450E-02 38744   0.751E-01    0.143E+00
DAV:  13    -0.353728979927E+03   -0.21016E-02   -0.32485E-02 38584   0.561E-01    0.156E+00
DAV:  14    -0.353732385658E+03   -0.34057E-02   -0.23456E-02 38144   0.534E-01    0.205E+00
DAV:  15    -0.353723220536E+03    0.91651E-02   -0.22422E-02 38648   0.494E-01    0.937E-01
DAV:  16    -0.353722599142E+03    0.62139E-03   -0.75669E-03 38384   0.350E-01    0.924E-01
DAV:  17    -0.353722462836E+03    0.13631E-03   -0.34524E-03 38744   0.249E-01    0.925E-01
DAV:  18    -0.353722091579E+03    0.37126E-03   -0.46484E-03 39392   0.212E-01    0.653E-01
DAV:  19    -0.353721854865E+03    0.23671E-03   -0.15263E-03 38496   0.181E-01    0.345E-01
DAV:  20    -0.353721785882E+03    0.68982E-04   -0.14416E-03 37632   0.108E-01    0.208E-01
DAV:  21    -0.353721804064E+03   -0.18182E-04   -0.34021E-04 35488   0.574E-02    0.238E-01
DAV:  22    -0.353721685867E+03    0.11820E-03   -0.26655E-04 34768   0.524E-02    0.100E-01
DAV:  23    -0.353721685492E+03    0.37554E-06   -0.16036E-04 33792   0.404E-02    0.100E-01
DAV:  24    -0.353721650829E+03    0.34663E-04   -0.53416E-05 23088   0.299E-02    0.414E-02
DAV:  25    -0.353721640731E+03    0.10098E-04   -0.41792E-05 22136   0.176E-02    0.486E-02
DAV:  26    -0.353721627428E+03    0.13303E-04   -0.17784E-05 19104   0.150E-02    0.261E-02
DAV:  27    -0.353721621332E+03    0.60958E-05   -0.95986E-06 16232   0.919E-03
  40 F= -.35372162E+03 E0= -.35370558E+03  d E =0.990360E+00  mag=     7.9919
       N       E                     dE             d eps       ncg     rms          rms(c)
DAV:   1    -0.353827329122E+03   -0.10570E+00   -0.57324E+01 32224   0.233E+01    0.359E+00
DAV:   2    -0.354754089946E+03   -0.92676E+00   -0.86088E+00 28864   0.617E+00    0.957E+00
DAV:   3    -0.354565160008E+03    0.18893E+00   -0.95579E-01 36400   0.241E+00    0.558E+00
DAV:   4    -0.354566483958E+03   -0.13239E-02   -0.20602E-01 38664   0.107E+00    0.543E+00
DAV:   5    -0.354573097255E+03   -0.66133E-02   -0.20396E-01 37160   0.101E+00    0.576E+00
DAV:   6    -0.354517542284E+03    0.55555E-01   -0.16860E-01 36792   0.112E+00    0.339E+00
DAV:   7    -0.354553248053E+03   -0.35706E-01   -0.15128E-01 37912   0.140E+00    0.561E+00
DAV:   8    -0.354511160179E+03    0.42088E-01   -0.14062E-01 37232   0.118E+00    0.276E+00
DAV:   9    -0.354503095479E+03    0.80647E-02   -0.33880E-02 37456   0.817E-01    0.130E+00
DAV:  10    -0.354512364242E+03   -0.92688E-02   -0.49738E-02 39080   0.766E-01    0.237E+00
DAV:  11    -0.354506270872E+03    0.60934E-02   -0.37738E-02 39096   0.650E-01    0.157E+00
DAV:  12    -0.354505035458E+03    0.12354E-02   -0.16819E-02 38456   0.524E-01    0.125E+00
DAV:  13    -0.354503719098E+03    0.13164E-02   -0.91547E-03 39080   0.377E-01    0.941E-01
DAV:  14    -0.354503876534E+03   -0.15744E-03   -0.97924E-04 29328   0.861E-02    0.100E+00
DAV:  15    -0.354503823588E+03    0.52946E-04   -0.11254E-04 29296   0.333E-02    0.106E+00
DAV:  16    -0.354503489656E+03    0.33393E-03   -0.84956E-05 22840   0.369E-02    0.102E+00
DAV:  17    -0.354501905997E+03    0.15837E-02   -0.27193E-03 41344   0.187E-01    0.629E-01
DAV:  18    -0.354501761587E+03    0.14441E-03   -0.25064E-03 39336   0.168E-01    0.310E-01
DAV:  19    -0.354502086780E+03   -0.32519E-03   -0.65234E-04 36768   0.104E-01    0.287E-01
DAV:  20    -0.354502390563E+03   -0.30378E-03   -0.87665E-04 38672   0.959E-02    0.490E-01
DAV:  21    -0.354502015514E+03    0.37505E-03   -0.39492E-04 36960   0.672E-02    0.319E-01
DAV:  22    -0.354501995889E+03    0.19625E-04   -0.11443E-04 32424   0.329E-02    0.232E-01
DAV:  23    -0.354501966122E+03    0.29768E-04   -0.89750E-05 24080   0.316E-02    0.140E-01
DAV:  24    -0.354501958757E+03    0.73647E-05   -0.84150E-05 29960   0.288E-02
  41 F= -.35450196E+03 E0= -.35448644E+03  d E =-.780337E+00  mag=     7.9995
       N       E                     dE             d eps       ncg     rms          rms(c)
DAV:   1    -0.354526294143E+03   -0.24328E-01   -0.74906E+00 32832   0.936E+00    0.929E-01
DAV:   2    -0.354642745828E+03   -0.11645E+00   -0.12329E+00 28504   0.208E+00    0.197E+00
DAV:   3    -0.354640287505E+03    0.24583E-02   -0.88227E-02 37136   0.733E-01    0.151E+00
DAV:   4    -0.354640262755E+03    0.24750E-04   -0.36286E-02 37328   0.456E-01    0.144E+00
DAV:   5    -0.354637145116E+03    0.31176E-02   -0.17363E-02 37248   0.333E-01    0.869E-01
DAV:   6    -0.354636395464E+03    0.74965E-03   -0.69132E-03 38064   0.279E-01    0.693E-01
DAV:   7    -0.354636760574E+03   -0.36511E-03   -0.71080E-03 39480   0.298E-01    0.108E+00
DAV:   8    -0.354634677851E+03    0.20827E-02   -0.42022E-03 38920   0.283E-01    0.544E-01
DAV:   9    -0.354634527702E+03    0.15015E-03   -0.28126E-03 39096   0.179E-01    0.304E-01
DAV:  10    -0.354634491378E+03    0.36324E-04   -0.88969E-04 38992   0.115E-01    0.220E-01
DAV:  11    -0.354634446415E+03    0.44964E-04   -0.34935E-04 38184   0.695E-02    0.156E-01
DAV:  12    -0.354634424954E+03    0.21461E-04   -0.95058E-05 25432   0.391E-02    0.104E-01
DAV:  13    -0.354634411254E+03    0.13700E-04   -0.32465E-05 21824   0.238E-02    0.847E-02
DAV:  14    -0.354634398142E+03    0.13112E-04   -0.28227E-05 21984   0.237E-02    0.881E-02
DAV:  15    -0.354634409260E+03   -0.11118E-04   -0.11174E-04 25832   0.374E-02    0.150E-01
DAV:  16    -0.354634362663E+03    0.46597E-04   -0.82609E-05 23784   0.333E-02    0.473E-02
DAV:  17    -0.354634365874E+03   -0.32117E-05   -0.20172E-05 19872   0.212E-02
  42 F= -.35463437E+03 E0= -.35461905E+03  d E =-.132407E+00  mag=     7.9999
       N       E                     dE             d eps       ncg     rms          rms(c)
DAV:   1    -0.354598189889E+03    0.36173E-01   -0.77209E+00 32864   0.931E+00    0.843E-01
DAV:   2    -0.354703221107E+03   -0.10503E+00   -0.11183E+00 28424   0.202E+00    0.142E+00
DAV:   3    -0.354705856794E+03   -0.26357E-02   -0.69233E-02 37368   0.621E-01    0.161E+00
DAV:   4    -0.354703309025E+03    0.25478E-02   -0.36087E-02 37048   0.413E-01    0.120E+00
DAV:   5    -0.354701125232E+03    0.21838E-02   -0.72725E-03 38488   0.284E-01    0.682E-01
DAV:   6    -0.354701574000E+03   -0.44877E-03   -0.39242E-03 39288   0.235E-01    0.868E-01
DAV:   7    -0.354700479167E+03    0.10948E-02   -0.76808E-03 37448   0.275E-01    0.744E-01
DAV:   8    -0.354699628072E+03    0.85109E-03   -0.41993E-03 38688   0.240E-01    0.506E-01
DAV:   9    -0.354699837757E+03   -0.20968E-03   -0.22956E-03 39488   0.184E-01    0.532E-01
DAV:  10    -0.354699244131E+03    0.59363E-03   -0.16055E-03 38136   0.134E-01    0.157E-01
DAV:  11    -0.354699309334E+03   -0.65202E-04   -0.29480E-04 37488   0.682E-02    0.152E-01
DAV:  12    -0.354699301233E+03    0.81010E-05   -0.12607E-04 27808   0.409E-02    0.124E-01
DAV:  13    -0.354699287870E+03    0.13363E-04   -0.46660E-05 21512   0.284E-02    0.993E-02
DAV:  14    -0.354699285062E+03    0.28072E-05   -0.41047E-05 22584   0.272E-02
  43 F= -.35469929E+03 E0= -.35468414E+03  d E =-.649192E-01  mag=     8.0000
       N       E                     dE             d eps       ncg     rms          rms(c)
DAV:   1    -0.354689047097E+03    0.10241E-01   -0.27342E+00 32712   0.494E+00    0.478E-01
DAV:   2    -0.354717068293E+03   -0.28021E-01   -0.27294E-01 28608   0.107E+00    0.135E+00
DAV:   3    -0.354713840786E+03    0.32275E-02   -0.15015E-02 37000   0.360E-01    0.642E-01
DAV:   4    -0.354714236737E+03   -0.39595E-03   -0.36406E-03 39672   0.180E-01    0.606E-01
DAV:   5    -0.354714374385E+03   -0.13765E-03   -0.32172E-03 37192   0.147E-01    0.655E-01
DAV:   6    -0.354713872309E+03    0.50208E-03   -0.23757E-03 35456   0.121E-01    0.438E-01
DAV:   7    -0.354714366294E+03   -0.49399E-03   -0.28223E-03 38536   0.180E-01    0.608E-01
DAV:   8    -0.354713793594E+03    0.57270E-03   -0.35722E-03 38016   0.186E-01    0.449E-01
DAV:   9    -0.354713514495E+03    0.27910E-03   -0.10382E-03 39496   0.125E-01    0.271E-01
DAV:  10    -0.354713485433E+03    0.29061E-04   -0.46229E-04 38616   0.833E-02    0.178E-01
DAV:  11    -0.354713473539E+03    0.11894E-04   -0.12448E-04 31704   0.421E-02    0.786E-02
DAV:  12    -0.354713482108E+03   -0.85691E-05   -0.25821E-05 21976   0.227E-02
  44 F= -.35471348E+03 E0= -.35469832E+03  d E =-.141970E-01  mag=     8.0000
       N       E                     dE             d eps       ncg     rms          rms(c)
DAV:   1    -0.354707423520E+03    0.60500E-02   -0.17073E+00 32784   0.329E+00    0.341E-01
DAV:   2    -0.354719608985E+03   -0.12185E-01   -0.11199E-01 28608   0.720E-01    0.113E+00
DAV:   3    -0.354717005715E+03    0.26033E-02   -0.72409E-03 35504   0.247E-01    0.537E-01
DAV:   4    -0.354717242243E+03   -0.23653E-03   -0.14305E-03 38752   0.103E-01    0.505E-01
DAV:   5    -0.354717322276E+03   -0.80033E-04   -0.14618E-03 34984   0.954E-02    0.507E-01
DAV:   6    -0.354717035646E+03    0.28663E-03   -0.89502E-04 34920   0.881E-02    0.361E-01
DAV:   7    -0.354717748519E+03   -0.71287E-03   -0.96728E-04 37848   0.127E-01    0.690E-01
DAV:   8    -0.354717025117E+03    0.72340E-03   -0.13702E-03 37744   0.140E-01    0.373E-01
DAV:   9    -0.354716899987E+03    0.12513E-03   -0.72374E-04 38760   0.106E-01    0.232E-01
DAV:  10    -0.354716837600E+03    0.62387E-04   -0.34135E-04 34656   0.680E-02    0.755E-02
DAV:  11    -0.354716872395E+03   -0.34795E-04   -0.60110E-05 26632   0.282E-02    0.521E-02
[...]
DAV:   8    -0.354717860027E+03    0.32473E-04   -0.10684E-04 25352   0.373E-02    0.648E-02
DAV:   9    -0.354717859914E+03    0.11358E-06   -0.31848E-05 20456   0.265E-02
  48 F= -.35471786E+03 E0= -.35470264E+03  d E =-.185218E-03  mag=     8.0000
       N       E                     dE             d eps       ncg     rms          rms(c)
DAV:   1    -0.354704948992E+03    0.12911E-01   -0.41419E+00 31632   0.541E+00    0.276E-01
DAV:   2    -0.354717689374E+03   -0.12740E-01   -0.12995E-01 28288   0.923E-01    0.387E-01
DAV:   3    -0.354718031873E+03   -0.34250E-03   -0.48837E-03 39872   0.216E-01    0.564E-01
DAV:   4    -0.354717479857E+03    0.55202E-03   -0.23808E-03 38296   0.146E-01    0.297E-01
DAV:   5    -0.354717464411E+03    0.15446E-04   -0.10960E-03 38728   0.897E-02    0.263E-01
DAV:   6    -0.354717384654E+03    0.79757E-04   -0.58660E-04 34192   0.661E-02    0.202E-01
DAV:   7    -0.354717402518E+03   -0.17864E-04   -0.46546E-04 36232   0.805E-02    0.298E-01
DAV:   8    -0.354717231302E+03    0.17122E-03   -0.47309E-04 37608   0.835E-02    0.126E-01
DAV:   9    -0.354717242984E+03   -0.11682E-04   -0.23566E-04 34992   0.538E-02    0.100E-01
DAV:  10    -0.354717234729E+03    0.82553E-05   -0.10092E-04 27024   0.379E-02    0.666E-02
DAV:  11    -0.354717233691E+03    0.10383E-05   -0.34091E-05 21656   0.232E-02
  49 F= -.35471723E+03 E0= -.35470197E+03  d E =0.626223E-03  mag=     8.0000
       N       E                     dE             d eps       ncg     rms          rms(c)
DAV:   1    -0.354715286374E+03    0.19484E-02   -0.33906E-01 31752   0.193E+00    0.157E-01
DAV:   2    -0.354718215992E+03   -0.29296E-02   -0.32505E-02 28288   0.397E-01    0.287E-01
DAV:   3    -0.354718317297E+03   -0.10131E-03   -0.23578E-03 36776   0.134E-01    0.333E-01
DAV:   4    -0.354718156713E+03    0.16058E-03   -0.76946E-04 34152   0.749E-02    0.205E-01
DAV:   5    -0.354718123562E+03    0.33151E-04   -0.33537E-04 28744   0.545E-02    0.155E-01
DAV:   6    -0.354718101063E+03    0.22499E-04   -0.22315E-04 27368   0.492E-02    0.137E-01
DAV:   7    -0.354718094474E+03    0.65883E-05   -0.24133E-04 33200   0.532E-02    0.179E-01
DAV:   8    -0.354718037607E+03    0.56867E-04   -0.28269E-04 33864   0.577E-02    0.960E-02
DAV:   9    -0.354718030302E+03    0.73049E-05   -0.13684E-04 24616   0.383E-02    0.639E-02
DAV:  10    -0.354718028329E+03    0.19729E-05   -0.36927E-05 22208   0.231E-02
  50 F= -.35471803E+03 E0= -.35470283E+03  d E =-.794639E-03  mag=     8.0000
       N       E                     dE             d eps       ncg     rms          rms(c)
DAV:   1    -0.354717413709E+03    0.61659E-03   -0.17617E-01 31840   0.126E+00    0.858E-02
DAV:   2    -0.354718527923E+03   -0.11142E-02   -0.11297E-02 28288   0.238E-01    0.154E-01
DAV:   3    -0.354718542920E+03   -0.14998E-04   -0.50102E-04 36880   0.687E-02    0.155E-01
DAV:   4    -0.354718499244E+03    0.43676E-04   -0.11592E-04 28128   0.379E-02    0.678E-02
DAV:   5    -0.354718504169E+03   -0.49246E-05   -0.55913E-05 21736   0.238E-02
  51 F= -.35471850E+03 E0= -.35470329E+03  d E =-.475839E-03  mag=     8.0000
       N       E                     dE             d eps       ncg     rms          rms(c)
DAV:   1    -0.354716991130E+03    0.15081E-02   -0.41051E-01 30960   0.177E+00    0.129E-01
DAV:   2    -0.354718851168E+03   -0.18600E-02   -0.15605E-02 28696   0.324E-01    0.522E-01
DAV:   3    -0.354718372901E+03    0.47827E-03   -0.24790E-03 34856   0.129E-01    0.200E-01
DAV:   4    -0.354718382944E+03   -0.10044E-04   -0.41833E-04 33320   0.670E-02    0.141E-01
DAV:   5    -0.354718351831E+03    0.31114E-04   -0.85996E-05 23656   0.361E-02    0.864E-02
DAV:   6    -0.354718350339E+03    0.14913E-05   -0.48990E-05 21080   0.273E-02
  52 F= -.35471835E+03 E0= -.35470316E+03  d E =0.153829E-03  mag=     8.0000
       N       E                     dE             d eps       ncg     rms          rms(c)
DAV:   1    -0.354707703384E+03    0.10648E-01   -0.34928E+00 31352   0.485E+00    0.268E-01
DAV:   2    -0.354718503498E+03   -0.10800E-01   -0.10722E-01 28288   0.835E-01    0.612E-01
DAV:   3    -0.354717964761E+03    0.53874E-03   -0.46961E-03 35896   0.240E-01    0.368E-01
DAV:   4    -0.354717894379E+03    0.70382E-04   -0.12718E-03 39872   0.127E-01    0.319E-01
DAV:   5    -0.354717782726E+03    0.11165E-03   -0.87090E-04 38264   0.913E-02    0.255E-01
DAV:   6    -0.354717704278E+03    0.78448E-04   -0.59121E-04 32024   0.642E-02    0.173E-01
DAV:   7    -0.354717851112E+03   -0.14683E-03   -0.71306E-04 37128   0.825E-02    0.358E-01
DAV:   8    -0.354717585039E+03    0.26607E-03   -0.51910E-04 35648   0.784E-02    0.120E-01
DAV:   9    -0.354717601707E+03   -0.16668E-04   -0.17042E-04 34600   0.475E-02    0.789E-02
DAV:  10    -0.354717603483E+03   -0.17758E-05   -0.50922E-05 22936   0.295E-02
  53 F= -.35471760E+03 E0= -.35470247E+03  d E =0.746856E-03  mag=     8.0000
       N       E                     dE             d eps       ncg     rms          rms(c)
DAV:   1    -0.354657701553E+03    0.59900E-01   -0.21675E+01 31328   0.117E+01    0.614E-01
DAV:   2    -0.354718880605E+03   -0.61179E-01   -0.62184E-01 28288   0.194E+00    0.817E-01
DAV:   3    -0.354722869547E+03   -0.39889E-02   -0.20958E-02 37744   0.468E-01    0.165E+00
DAV:   4    -0.354717109999E+03    0.57595E-02   -0.91391E-03 38248   0.311E-01    0.452E-01
DAV:   5    -0.354717544264E+03   -0.43426E-03   -0.25026E-03 39032   0.138E-01    0.453E-01
DAV:   6    -0.354717270216E+03    0.27405E-03   -0.23659E-03 38512   0.136E-01    0.394E-01
DAV:   7    -0.354716878373E+03    0.39184E-03   -0.16641E-03 36576   0.151E-01    0.286E-01
DAV:   8    -0.354716908886E+03   -0.30513E-04   -0.96282E-04 36928   0.107E-01    0.269E-01
DAV:   9    -0.354716813037E+03    0.95849E-04   -0.52323E-04 37888   0.847E-02    0.149E-01
DAV:  10    -0.354716812756E+03    0.28076E-06   -0.18082E-04 35168   0.567E-02    0.116E-01
DAV:  11    -0.354716805592E+03    0.71640E-05   -0.16120E-04 22472   0.412E-02    0.840E-02
DAV:  12    -0.354716798632E+03    0.69600E-05   -0.64279E-05 21328   0.279E-02
  54 F= -.35471680E+03 E0= -.35470163E+03  d E =0.804851E-03  mag=     8.0000
       N       E                     dE             d eps       ncg     rms          rms(c)
DAV:   1    -0.354497558782E+03    0.21925E+00   -0.70467E+01 31440   0.217E+01    0.119E+00
DAV:   2    -0.354726979837E+03   -0.22942E+00   -0.23174E+00 28288   0.362E+00    0.202E+00
DAV:   3    -0.354730594017E+03   -0.36142E-02   -0.13158E-01 36560   0.101E+00    0.246E+00
DAV:   4    -0.354719564670E+03    0.11029E-01   -0.63751E-02 39232   0.606E-01    0.145E+00
DAV:   5    -0.354716897332E+03    0.26673E-02   -0.18463E-02 38536   0.330E-01    0.725E-01
DAV:   6    -0.354716597461E+03    0.29987E-03   -0.47303E-03 38280   0.258E-01    0.747E-01
DAV:   7    -0.354716328443E+03    0.26902E-03   -0.45876E-03 37488   0.270E-01    0.916E-01
DAV:   8    -0.354714554489E+03    0.17740E-02   -0.28005E-03 38480   0.219E-01    0.214E-01
DAV:   9    -0.354715219948E+03   -0.66546E-03   -0.19041E-03 37552   0.159E-01    0.478E-01
DAV:  10    -0.354714779438E+03    0.44051E-03   -0.14454E-03 38360   0.135E-01    0.225E-01
DAV:  11    -0.354714871789E+03   -0.92352E-04   -0.56178E-04 37720   0.878E-02    0.212E-01
DAV:  12    -0.354714803196E+03    0.68594E-04   -0.27420E-04 34184   0.601E-02    0.749E-02
DAV:  13    -0.354714813865E+03   -0.10669E-04   -0.29710E-05 22840   0.229E-02    0.717E-02
DAV:  14    -0.354714814029E+03   -0.16413E-06   -0.24905E-05 20288   0.196E-02
  55 F= -.35471481E+03 E0= -.35469964E+03  d E =0.198460E-02  mag=     8.0000
       N       E                     dE             d eps       ncg     rms          rms(c)
DAV:   1    -0.354670079999E+03    0.44734E-01   -0.13686E+01 31232   0.103E+01    0.637E-01
DAV:   2    -0.354722039079E+03   -0.51959E-01   -0.50587E-01 28368   0.183E+00    0.162E+00
DAV:   3    -0.354718454820E+03    0.35843E-02   -0.19371E-02 37400   0.500E-01    0.915E-01
DAV:   4    -0.354717947522E+03    0.50730E-03   -0.43338E-03 39320   0.244E-01    0.612E-01
DAV:   5    -0.354718113473E+03   -0.16595E-03   -0.47050E-03 38088   0.220E-01    0.715E-01
DAV:   6    -0.354717782603E+03    0.33087E-03   -0.49357E-03 37888   0.176E-01    0.637E-01
DAV:   7    -0.354718263059E+03   -0.48046E-03   -0.51598E-03 37272   0.199E-01    0.841E-01
DAV:   8    -0.354716990769E+03    0.12723E-02   -0.56841E-03 37304   0.234E-01    0.407E-01
DAV:   9    -0.354716968988E+03    0.21781E-04   -0.20929E-03 38112   0.144E-01    0.324E-01
DAV:  10    -0.354716855055E+03    0.11393E-03   -0.70341E-04 37328   0.102E-01    0.191E-01
DAV:  11    -0.354716841884E+03    0.13171E-04   -0.21172E-04 30448   0.549E-02    0.104E-01
DAV:  12    -0.354716843756E+03   -0.18720E-05   -0.68340E-05 23168   0.326E-02
  56 F= -.35471684E+03 E0= -.35470163E+03  d E =-.202973E-02  mag=     8.0000
       N       E                     dE             d eps       ncg     rms          rms(c)
DAV:   1    -0.354700060576E+03    0.16781E-01   -0.37607E+00 32072   0.600E+00    0.393E-01
DAV:   2    -0.354719683091E+03   -0.19623E-01   -0.19653E-01 28288   0.112E+00    0.978E-01
DAV:   3    -0.354718594324E+03    0.10888E-02   -0.99614E-03 36688   0.327E-01    0.584E-01
DAV:   4    -0.354718634010E+03   -0.39686E-04   -0.34022E-03 38984   0.168E-01    0.544E-01
DAV:   5    -0.354718275609E+03    0.35840E-03   -0.24466E-03 37456   0.129E-01    0.370E-01
DAV:   6    -0.354718209858E+03    0.65751E-04   -0.11669E-03 38968   0.103E-01    0.324E-01
DAV:   7    -0.354718474315E+03   -0.26446E-03   -0.11296E-03 37712   0.133E-01    0.524E-01
DAV:   8    -0.354718032369E+03    0.44195E-03   -0.15722E-03 38264   0.138E-01    0.277E-01
DAV:   9    -0.354717989508E+03    0.42861E-04   -0.64433E-04 38264   0.876E-02    0.204E-01
DAV:  10    -0.354717914065E+03    0.75443E-04   -0.30785E-04 34952   0.633E-02    0.846E-02
DAV:  11    -0.354717940491E+03   -0.26426E-04   -0.88451E-05 26872   0.339E-02    0.102E-01
DAV:  12    -0.354717926911E+03    0.13580E-04   -0.31550E-05 18744   0.208E-02    0.525E-02
DAV:  13    -0.354717927071E+03   -0.15983E-06   -0.79631E-06 16040   0.130E-02
  57 F= -.35471793E+03 E0= -.35470277E+03  d E =-.108331E-02  mag=     8.0000
       N       E                     dE             d eps       ncg     rms          rms(c)
DAV:   1    -0.354709298043E+03    0.86289E-02   -0.30933E+00 31312   0.474E+00    0.263E-01
DAV:   2    -0.354720273054E+03   -0.10975E-01   -0.10428E-01 28288   0.820E-01    0.790E-01
DAV:   3    -0.354718988610E+03    0.12844E-02   -0.56420E-03 35632   0.251E-01    0.268E-01
DAV:   4    -0.354719109163E+03   -0.12055E-03   -0.87491E-04 39488   0.109E-01    0.265E-01
DAV:   5    -0.354719035098E+03    0.74065E-04   -0.66199E-04 38152   0.832E-02    0.227E-01
DAV:   6    -0.354718993651E+03    0.41447E-04   -0.49984E-04 28928   0.578E-02    0.185E-01
DAV:   7    -0.354719030716E+03   -0.37066E-04   -0.45295E-04 35928   0.656E-02    0.262E-01
DAV:   8    -0.354718921634E+03    0.10908E-03   -0.49412E-04 37048   0.747E-02    0.169E-01
DAV:   9    -0.354718904406E+03    0.17228E-04   -0.24341E-04 34816   0.549E-02    0.143E-01
DAV:  10    -0.354718894223E+03    0.10183E-04   -0.10010E-04 25056   0.456E-02    0.118E-01
DAV:  11    -0.354718875862E+03    0.18360E-04   -0.60630E-05 22456   0.310E-02    0.345E-02
DAV:  12    -0.354718881650E+03   -0.57875E-05   -0.17085E-05 18736   0.162E-02
  58 F= -.35471888E+03 E0= -.35470370E+03  d E =-.954579E-03  mag=     8.0000
       N       E                     dE             d eps       ncg     rms          rms(c)
DAV:   1    -0.354716501720E+03    0.23741E-02   -0.10562E+00 32416   0.269E+00    0.146E-01
DAV:   2    -0.354719604843E+03   -0.31031E-02   -0.31016E-02 28296   0.449E-01    0.289E-01
DAV:   3    -0.354719552535E+03    0.52308E-04   -0.11635E-03 37112   0.121E-01    0.247E-01
DAV:   4    -0.354719498078E+03    0.54457E-04   -0.41284E-04 34800   0.681E-02    0.188E-01
DAV:   5    -0.354719453743E+03    0.44335E-04   -0.26276E-04 27088   0.487E-02    0.117E-01
DAV:   6    -0.354719455156E+03   -0.14129E-05   -0.19223E-04 22920   0.375E-02    0.118E-01
DAV:   7    -0.354719461904E+03   -0.67484E-05   -0.15048E-04 29176   0.426E-02    0.145E-01
DAV:   8    -0.354719427148E+03    0.34756E-04   -0.16815E-04 29824   0.432E-02    0.817E-02
DAV:   9    -0.354719419814E+03    0.73338E-05   -0.66967E-05 23024   0.288E-02
  59 F= -.35471942E+03 E0= -.35470428E+03  d E =-.538164E-03  mag=     8.0000
       N       E                     dE             d eps       ncg     rms          rms(c)
DAV:   1    -0.353780045738E+03    0.93938E+00   -0.27771E+02 31712   0.428E+01    0.261E+00
DAV:   2    -0.354763735484E+03   -0.98369E+00   -0.10244E+01 28296   0.733E+00    0.239E+00
DAV:   3    -0.354777486969E+03   -0.13751E-01   -0.28049E-01 35248   0.187E+00    0.465E+00
DAV:   4    -0.354731957862E+03    0.45529E-01   -0.16175E-01 39368   0.110E+00    0.147E+00
DAV:   5    -0.354741112140E+03   -0.91543E-02   -0.49371E-02 37120   0.571E-01    0.242E+00
DAV:   6    -0.354729369789E+03    0.11742E-01   -0.55807E-02 35304   0.561E-01    0.141E+00
DAV:   7    -0.354728545181E+03    0.82461E-03   -0.29766E-02 38728   0.528E-01    0.148E+00
DAV:   8    -0.354726145263E+03    0.23999E-02   -0.18115E-02 35568   0.396E-01    0.102E+00
DAV:   9    -0.354724827790E+03    0.13175E-02   -0.90053E-03 39200   0.324E-01    0.569E-01
DAV:  10    -0.354724996007E+03   -0.16822E-03   -0.51404E-03 37888   0.247E-01    0.579E-01
DAV:  11    -0.354724797110E+03    0.19890E-03   -0.24704E-03 38592   0.183E-01    0.425E-01
DAV:  12    -0.354724554584E+03    0.24253E-03   -0.11560E-03 37632   0.128E-01    0.194E-01
DAV:  13    -0.354724559271E+03   -0.46874E-05   -0.22106E-04 38008   0.664E-02    0.146E-01
DAV:  14    -0.354724596101E+03   -0.36829E-04   -0.96814E-05 28152   0.432E-02    0.193E-01
DAV:  15    -0.354724541351E+03    0.54750E-04   -0.79113E-05 25200   0.389E-02    0.102E-01
DAV:  16    -0.354724540282E+03    0.10688E-05   -0.84368E-05 27064   0.356E-02
  60 F= -.35472454E+03 E0= -.35470943E+03  d E =-.512047E-02  mag=     8.0000
       N       E                     dE             d eps       ncg     rms          rms(c)
DAV:   1    -0.354494167555E+03    0.23037E+00   -0.71090E+01 31832   0.227E+01    0.126E+00
DAV:   2    -0.354726513585E+03   -0.23235E+00   -0.23966E+00 28288   0.388E+00    0.149E+00
DAV:   3    -0.354732958178E+03   -0.64446E-02   -0.80170E-02 38392   0.936E-01    0.244E+00
DAV:   4    -0.354723077523E+03    0.98807E-02   -0.44963E-02 38288   0.591E-01    0.131E+00
DAV:   5    -0.354722189946E+03    0.88758E-03   -0.22324E-02 38680   0.378E-01    0.110E+00
DAV:   6    -0.354721200038E+03    0.98991E-03   -0.12950E-02 38488   0.288E-01    0.890E-01
DAV:   7    -0.354720559980E+03    0.64006E-03   -0.84239E-03 33792   0.321E-01    0.104E+00
DAV:   8    -0.354719327991E+03    0.12320E-02   -0.98192E-03 37736   0.313E-01    0.675E-01
DAV:   9    -0.354718817815E+03    0.51018E-03   -0.40086E-03 37912   0.220E-01    0.366E-01
DAV:  10    -0.354718831196E+03   -0.13381E-04   -0.85243E-04 38184   0.120E-01    0.249E-01
DAV:  11    -0.354718787459E+03    0.43737E-04   -0.36301E-04 35248   0.692E-02    0.176E-01
DAV:  12    -0.354718779835E+03    0.76235E-05   -0.13610E-04 28112   0.460E-02    0.112E-01
DAV:  13    -0.354718787249E+03   -0.74131E-05   -0.64684E-05 23432   0.320E-02
  61 F= -.35471879E+03 E0= -.35470368E+03  d E =0.575303E-02  mag=     8.0000
       N       E                     dE             d eps       ncg     rms          rms(c)
DAV:   1    -0.353841738749E+03    0.87704E+00   -0.25626E+02 31696   0.416E+01    0.256E+00
DAV:   2    -0.354764072956E+03   -0.92233E+00   -0.96248E+00 28296   0.718E+00    0.289E+00
DAV:   3    -0.354805605111E+03   -0.41532E-01   -0.35716E-01 36984   0.200E+00    0.564E+00
DAV:   4    -0.354736209032E+03    0.69396E-01   -0.19363E-01 37632   0.126E+00    0.216E+00
DAV:   5    -0.354735454333E+03    0.75470E-03   -0.52113E-02 38280   0.595E-01    0.163E+00
DAV:   6    -0.354733846214E+03    0.16081E-02   -0.42993E-02 39152   0.586E-01    0.185E+00
DAV:   7    -0.354727479845E+03    0.63664E-02   -0.26005E-02 36160   0.521E-01    0.136E+00
DAV:   8    -0.354724366332E+03    0.31135E-02   -0.13775E-02 38136   0.377E-01    0.756E-01
DAV:   9    -0.354723791660E+03    0.57467E-03   -0.49334E-03 37592   0.295E-01    0.454E-01
DAV:  10    -0.354723926969E+03   -0.13531E-03   -0.37050E-03 38784   0.231E-01    0.446E-01
DAV:  11    -0.354724169012E+03   -0.24204E-03   -0.16985E-03 38480   0.159E-01    0.514E-01
DAV:  12    -0.354723694549E+03    0.47446E-03   -0.11323E-03 39016   0.124E-01    0.163E-01
DAV:  13    -0.354723763912E+03   -0.69363E-04   -0.27571E-04 37648   0.700E-02    0.139E-01
DAV:  14    -0.354723760876E+03    0.30359E-05   -0.15455E-04 29616   0.469E-02    0.134E-01
DAV:  15    -0.354723753440E+03    0.74358E-05   -0.93853E-05 23776   0.378E-02
  62 F= -.35472375E+03 E0= -.35470859E+03  d E =-.496619E-02  mag=     8.0000
       N       E                     dE             d eps       ncg     rms          rms(c)
DAV:   1    -0.354666494031E+03    0.57267E-01   -0.93268E+00 31968   0.973E+00    0.645E-01
DAV:   2    -0.354717522530E+03   -0.51028E-01   -0.52774E-01 28288   0.186E+00    0.127E+00
DAV:   3    -0.354716464590E+03    0.10579E-02   -0.21998E-02 37488   0.470E-01    0.944E-01
DAV:   4    -0.354715816579E+03    0.64801E-03   -0.60912E-03 37872   0.224E-01    0.717E-01
DAV:   5    -0.354716126702E+03   -0.31012E-03   -0.54122E-03 38400   0.197E-01    0.838E-01
DAV:   6    -0.354716015289E+03    0.11141E-03   -0.59309E-03 38320   0.226E-01    0.784E-01
DAV:   7    -0.354716878928E+03   -0.86364E-03   -0.68842E-03 38512   0.279E-01    0.107E+00
DAV:   8    -0.354714763323E+03    0.21156E-02   -0.58711E-03 38544   0.267E-01    0.441E-01
DAV:   9    -0.354714852821E+03   -0.89498E-04   -0.26220E-03 38096   0.171E-01    0.348E-01
DAV:  10    -0.354714527868E+03    0.32495E-03   -0.91911E-04 37872   0.110E-01    0.112E-01
DAV:  11    -0.354714590747E+03   -0.62880E-04   -0.25632E-04 37776   0.550E-02    0.147E-01
DAV:  12    -0.354714581096E+03    0.96517E-05   -0.13609E-04 28024   0.432E-02    0.114E-01
DAV:  13    -0.354714568019E+03    0.13077E-04   -0.44306E-05 22952   0.297E-02    0.605E-02
DAV:  14    -0.354714576768E+03   -0.87490E-05   -0.32828E-05 20560   0.213E-02
  63 F= -.35471458E+03 E0= -.35469935E+03  d E =0.917667E-02  mag=     8.0000
       N       E                     dE             d eps       ncg     rms          rms(c)
DAV:   1    -0.354663851083E+03    0.50717E-01   -0.16944E+01 32064   0.118E+01    0.656E-01
DAV:   2    -0.354728049516E+03   -0.64198E-01   -0.65862E-01 28288   0.207E+00    0.117E+00
DAV:   3    -0.354727885523E+03    0.16399E-03   -0.25935E-02 37304   0.495E-01    0.108E+00
DAV:   4    -0.354726563326E+03    0.13222E-02   -0.10739E-02 38472   0.269E-01    0.797E-01
DAV:   5    -0.354726245973E+03    0.31735E-03   -0.63594E-03 39240   0.199E-01    0.711E-01
DAV:   6    -0.354726050823E+03    0.19515E-03   -0.45692E-03 37824   0.229E-01    0.660E-01
DAV:   7    -0.354726282225E+03   -0.23140E-03   -0.57373E-03 37176   0.262E-01    0.877E-01
DAV:   8    -0.354724909706E+03    0.13725E-02   -0.36525E-03 37400   0.196E-01    0.313E-01
DAV:   9    -0.354725048932E+03   -0.13923E-03   -0.12448E-03 38440   0.139E-01    0.284E-01
DAV:  10    -0.354724873100E+03    0.17583E-03   -0.62329E-04 38200   0.962E-02    0.116E-01
DAV:  11    -0.354724926183E+03   -0.53083E-04   -0.17047E-04 35744   0.493E-02    0.158E-01
DAV:  12    -0.354724886411E+03    0.39772E-04   -0.78296E-05 25208   0.370E-02    0.766E-02
DAV:  13    -0.354724890094E+03   -0.36833E-05   -0.24411E-05 20296   0.209E-02
  64 F= -.35472489E+03 E0= -.35470971E+03  d E =-.103133E-01  mag=     8.0000
