       N       E                     dE             d eps       ncg     rms          ort
DAV:   1     0.560664858323E+04    0.56066E+04   -0.26830E+05  7696   0.164E+03
DAV:   2     0.237456404628E+03   -0.53692E+04   -0.49682E+04  7696   0.460E+02
DAV:   3    -0.376919180694E+03   -0.61438E+03   -0.60424E+03  7696   0.172E+02
DAV:   4    -0.393275023733E+03   -0.16356E+02   -0.16251E+02  7696   0.290E+01
DAV:   5    -0.393712621544E+03   -0.43760E+00   -0.43674E+00  7696   0.398E+00
SDA:   6    -0.156522179370E+03    0.23719E+03   -0.43674E+00  7696   0.109E+04 0.000E+00
CGA:   7    -0.227253359590E+03   -0.70731E+02   -0.11376E+03  7696   0.168E+04 0.161E+02
CGA:   8    -0.280983541459E+03   -0.53730E+02   -0.34420E+02  7696   0.392E+03 0.435E+02
CGA:   9    -0.290677814708E+03   -0.96943E+01   -0.12219E+02  7696   0.453E+03 0.365E+02
CGA:  10    -0.267487274090E+03    0.23191E+02   -0.27554E+02  7696   0.137E+04-0.426E+02
CGA:  11    -0.279448277229E+03   -0.11961E+02   -0.35956E+02  7696   0.140E+04-0.201E+03
CGA:  12    -0.252989501147E+03    0.26459E+02   -0.33665E+02  7696   0.614E+03-0.121E+04
CGA:  13    -0.266336415790E+03   -0.13347E+02   -0.28496E+02  7696   0.154E+04-0.758E+03
CGA:  14    -0.282658378146E+03   -0.16322E+02   -0.63766E+02  7696   0.714E+03-0.241E+03
CGA:  15    -0.295814937261E+03   -0.13157E+02   -0.15604E+02  7696   0.157E+04-0.413E+02
CGA:  16    -0.278376725756E+03    0.17438E+02   -0.62310E+02  7696   0.771E+03-0.272E+03
CGA:  17    -0.312221749287E+03   -0.33845E+02   -0.90952E+01  7696   0.430E+03 0.726E+03
CGA:  18    -0.324980185364E+03   -0.12758E+02   -0.15514E+02  7696   0.410E+02 0.204E+02
CGA:  19    -0.326415010965E+03   -0.14348E+01   -0.76910E+00  7696   0.186E+02 0.330E+02
CGA:  20    -0.327121226997E+03   -0.70622E+00   -0.49365E+00  7696   0.801E+01 0.674E+01
CGA:  21    -0.327803750795E+03   -0.68252E+00   -0.57150E+00  7696   0.169E+02 0.117E+01
CGA:  22    -0.328422949973E+03   -0.61920E+00   -0.69458E+00  7696   0.226E+02-0.216E+02
CGA:  23    -0.328959259325E+03   -0.53631E+00   -0.38046E+00  7696   0.385E+01 0.542E+01
CGA:  24    -0.329073484737E+03   -0.11423E+00   -0.94850E-01  7696   0.485E+01 0.724E+00
CGA:  25    -0.329289522730E+03   -0.21604E+00   -0.16824E+00  7696   0.651E+01 0.134E+01
CGA:  26    -0.329133963389E+03    0.15556E+00   -0.29824E+00  7696   0.276E+02-0.987E+01
CGA:  27    -0.329655717832E+03   -0.52175E+00   -0.53368E+00  7696   0.108E+02-0.913E+01
CGA:  28    -0.329755866642E+03   -0.10015E+00   -0.97425E-01  7696   0.776E+01-0.210E+00
CGA:  29    -0.329854557156E+03   -0.98691E-01   -0.10812E+00  7696   0.414E+01-0.840E+00
CGA:  30    -0.329935116431E+03   -0.80559E-01   -0.12761E+00  7696   0.972E+01-0.920E+00
CGA:  31    -0.330063848304E+03   -0.12873E+00   -0.13112E+00  7696   0.924E+01-0.137E+01
CGA:  32    -0.329942362971E+03    0.12149E+00   -0.11141E+00  7696   0.205E+02-0.213E+02
CGA:  33    -0.330138729195E+03   -0.19637E+00   -0.63426E+00  7696   0.139E+02-0.622E+01
CGA:  34    -0.330303027083E+03   -0.16430E+00   -0.15079E+00  7696   0.471E+01 0.547E+00
CGA:  35    -0.330384837746E+03   -0.81811E-01   -0.60022E-01  7696   0.201E+01 0.155E+01
CGA:  36    -0.330427261790E+03   -0.42424E-01   -0.45907E-01  7696   0.176E+01-0.190E+00
CGA:  37    -0.330482225216E+03   -0.54963E-01   -0.56156E-01  7696   0.392E+01 0.191E-01
CGA:  38    -0.330519636621E+03   -0.37411E-01   -0.21835E-01  7696   0.324E+01 0.277E+01
CGA:  39    -0.330587175256E+03   -0.67539E-01   -0.56303E-01  7696   0.603E+00 0.480E+00
CGA:  40    -0.330619319772E+03   -0.32145E-01   -0.33422E-01  7696   0.136E+01 0.491E-01
CGA:  41    -0.330702218805E+03   -0.82899E-01   -0.89671E-01  7696   0.480E+01-0.965E+00
CGA:  42    -0.330755784306E+03   -0.53566E-01   -0.69087E-01  7696   0.143E+01-0.927E+00
CGA:  43    -0.330795385015E+03   -0.39601E-01   -0.38673E-01  7696   0.931E+00 0.135E-02
CGA:  44    -0.330838303983E+03   -0.42919E-01   -0.43957E-01  7696   0.105E+01 0.593E-01
CGA:  45    -0.330884444571E+03   -0.46141E-01   -0.46101E-01  7696   0.143E+01-0.134E-02
CGA:  46    -0.330958090741E+03   -0.73646E-01   -0.89173E-01  7696   0.236E+01-0.128E+01
CGA:  47    -0.330993154408E+03   -0.35064E-01   -0.38504E-01  7696   0.951E+00-0.167E+00
CGA:  48    -0.331019013717E+03   -0.25859E-01   -0.29466E-01  7696   0.471E+00 0.941E-02
CGA:  49    -0.331041476348E+03   -0.22463E-01   -0.22631E-01  7696   0.462E+00 0.262E-01
CGA:  50    -0.331061941865E+03   -0.20466E-01   -0.20541E-01  7696   0.768E+00 0.290E-02
CGA:  51    -0.331110991560E+03   -0.49050E-01   -0.49711E-01  7696   0.146E+01-0.433E-01
CGA:  52    -0.331158809806E+03   -0.47818E-01   -0.39732E-01  7696   0.397E+00 0.177E+00
CGA:  53    -0.331171078543E+03   -0.12269E-01   -0.12202E-01  7696   0.420E+00-0.469E-04
CGA:  54    -0.331185193730E+03   -0.14115E-01   -0.14033E-01  7696   0.553E+00-0.988E-03
CGA:  55    -0.331214465885E+03   -0.29272E-01   -0.28871E-01  7696   0.991E+00 0.496E-01
CGA:  56    -0.331241836428E+03   -0.27371E-01   -0.27090E-01  7696   0.170E+00 0.279E-01
CGA:  57    -0.331251831644E+03   -0.99952E-02   -0.10031E-01  7696   0.321E+00-0.285E-02
CGA:  58    -0.331262640072E+03   -0.10808E-01   -0.11036E-01  7696   0.143E+00 0.262E-02
CGA:  59    -0.331271109188E+03   -0.84691E-02   -0.82613E-02  7696   0.119E+00 0.127E-01
CGA:  60    -0.331282396240E+03   -0.11287E-01   -0.11563E-01  7696   0.382E+00-0.771E-02
CGA:  61    -0.331297156672E+03   -0.14760E-01   -0.14978E-01  7696   0.251E+00 0.106E-01
CGA:  62    -0.331304374513E+03   -0.72178E-02   -0.76582E-02  7696   0.156E+00-0.222E-02
CGA:  63    -0.331312842088E+03   -0.84676E-02   -0.84807E-02  7696   0.157E+00-0.142E-02
CGA:  64    -0.331322834114E+03   -0.99920E-02   -0.10176E-01  7696   0.176E+00-0.817E-02
CGA:  65    -0.331328519698E+03   -0.56856E-02   -0.56995E-02  7696   0.104E+00 0.971E-04
CGA:  66    -0.331334501716E+03   -0.59820E-02   -0.60144E-02  7696   0.144E+00-0.230E-02
CGA:  67    -0.331341589422E+03   -0.70877E-02   -0.71267E-02  7696   0.250E+00-0.115E-01
CGA:  68    -0.331348281386E+03   -0.66920E-02   -0.64174E-02  7696   0.151E+00 0.339E-02
CGA:  69    -0.331351123564E+03   -0.28422E-02   -0.28586E-02  7696   0.788E-01-0.621E-03
CGA:  70    -0.331354403110E+03   -0.32795E-02   -0.32961E-02  7696   0.129E+00 0.150E-02
CGA:  71    -0.331357672387E+03   -0.32693E-02   -0.29123E-02  7696   0.102E+00 0.905E-02
CGA:  72    -0.331361409872E+03   -0.37375E-02   -0.36009E-02  7696   0.179E+00-0.152E-02
CGA:  73    -0.331364568739E+03   -0.31589E-02   -0.31638E-02  7696   0.118E+00-0.499E-03
CGA:  74    -0.331366177584E+03   -0.16088E-02   -0.15780E-02  7696   0.782E-01 0.175E-02
CGA:  75    -0.331368139672E+03   -0.19621E-02   -0.19724E-02  7696   0.133E+00-0.528E-04
CGA:  76    -0.331370542984E+03   -0.24033E-02   -0.21207E-02  7696   0.119E+00 0.124E-01
SDA:  77    -0.331372500192E+03   -0.19572E-02   -0.17913E-02  7696   0.115E+00 0.872E-02
CGA:  78    -0.331374517587E+03   -0.20174E-02   -0.20922E-02  7696   0.436E-01-0.228E-02
CGA:  79    -0.331376259880E+03   -0.17423E-02   -0.17506E-02  7696   0.503E-01-0.132E-02
CGA:  80    -0.331384726294E+03   -0.84664E-02   -0.87706E-02  7696   0.196E+00-0.297E-02
CGA:  81    -0.331389987966E+03   -0.52617E-02   -0.50936E-02  7696   0.994E-01 0.120E-02
CGA:  82    -0.331394854029E+03   -0.48661E-02   -0.48499E-02  7696   0.120E+00 0.208E-02
CGA:  83    -0.331403785662E+03   -0.89316E-02   -0.94412E-02  7696   0.119E+00-0.147E-01
CGA:  84    -0.331405190164E+03   -0.14045E-02   -0.13313E-02  7696   0.265E-01 0.478E-02
CGA:  85    -0.331405943760E+03   -0.75360E-03   -0.74338E-03  7696   0.469E-01 0.126E-03
CGA:  86    -0.331407659071E+03   -0.17153E-02   -0.17179E-02  7696   0.584E-01 0.201E-03
CGA:  87    -0.331408534759E+03   -0.87569E-03   -0.87241E-03  7696   0.252E-01 0.303E-03
CGA:  88    -0.331409090387E+03   -0.55563E-03   -0.54116E-03  7696   0.197E-01 0.353E-03
CGA:  89    -0.331409453291E+03   -0.36290E-03   -0.35486E-03  7696   0.167E-01 0.273E-03
CGA:  90    -0.331410131844E+03   -0.67855E-03   -0.67849E-03  7696   0.540E-01 0.211E-04
CGA:  91    -0.331411787824E+03   -0.16560E-02   -0.16630E-02  7696   0.489E-01 0.214E-03
CGA:  92    -0.331412592613E+03   -0.80479E-03   -0.75713E-03  7696   0.434E-01 0.195E-02
CGA:  93    -0.331414196496E+03   -0.16039E-02   -0.16001E-02  7696   0.106E+00-0.836E-03
CGA:  94    -0.331415750176E+03   -0.15537E-02   -0.14552E-02  7696   0.460E-01 0.527E-02
CGA:  95    -0.331416237587E+03   -0.48741E-03   -0.45684E-03  7696   0.201E-01 0.254E-02
CGA:  96    -0.331416609187E+03   -0.37160E-03   -0.36510E-03  7696   0.274E-01 0.185E-03
CGA:  97    -0.331417069995E+03   -0.46081E-03   -0.46040E-03  7696   0.311E-01 0.402E-04
CGA:  98    -0.331417555377E+03   -0.48538E-03   -0.48314E-03  7696   0.405E-01 0.136E-03
CGA:  99    -0.331418263941E+03   -0.70856E-03   -0.71535E-03  7696   0.425E-01-0.594E-04
CGA: 100    -0.331418668984E+03   -0.40504E-03   -0.40218E-03  7696   0.136E-01 0.387E-03
CGA: 101    -0.331418817206E+03   -0.14822E-03   -0.14767E-03  7696   0.117E-01 0.910E-04
CGA: 102    -0.331419160789E+03   -0.34358E-03   -0.34358E-03  7696   0.408E-01 0.338E-04
CGA: 103    -0.331419929371E+03   -0.76858E-03   -0.75374E-03  7696   0.475E-01 0.407E-03
CGA: 104    -0.331420360827E+03   -0.43146E-03   -0.43260E-03  7696   0.212E-01 0.227E-03
CGA: 105    -0.331420589739E+03   -0.22891E-03   -0.23313E-03  7696   0.170E-01-0.160E-03
CGA: 106    -0.331420834545E+03   -0.24481E-03   -0.24799E-03  7696   0.183E-01-0.311E-04
CGA: 107    -0.331421079475E+03   -0.24493E-03   -0.24476E-03  7696   0.181E-01 0.513E-04
SDA: 108    -0.331421395884E+03   -0.31641E-03   -0.31009E-03  7696   0.303E-01 0.329E-04
CGA: 109    -0.331421869938E+03   -0.47405E-03   -0.47295E-03  7696   0.901E-02 0.102E-05
CGA: 110    -0.331422316471E+03   -0.44653E-03   -0.45135E-03  7696   0.151E-01-0.194E-03
CGA: 111    -0.331423641451E+03   -0.13250E-02   -0.13451E-02  7696   0.836E-02-0.299E-03
CGA: 112    -0.331425101995E+03   -0.14605E-02   -0.44359E-04  7696   0.722E-01-0.894E-03
CGA: 113    -0.331425857146E+03   -0.75515E-03   -0.69011E-03  7696   0.319E-01 0.600E-03
CGA: 114    -0.331426167595E+03   -0.31045E-03   -0.32899E-03  7696   0.251E-01-0.184E-02
CGA: 115    -0.331426593540E+03   -0.42594E-03   -0.43286E-03  7696   0.439E-01-0.305E-03
CGA: 116    -0.331427199582E+03   -0.60604E-03   -0.52593E-03  7696   0.390E-01 0.667E-02
CGA: 117    -0.331427781116E+03   -0.58153E-03   -0.46020E-03  7696   0.324E-01 0.117E-01
CGA: 118    -0.331428421962E+03   -0.64085E-03   -0.55511E-03  7696   0.328E-01 0.624E-02
CGA: 119    -0.331429069376E+03   -0.64741E-03   -0.69999E-03  7696   0.495E-01-0.292E-03
CGA: 120    -0.331429802599E+03   -0.73322E-03   -0.44927E-03  7696   0.498E-01 0.301E-01
CGA: 121    -0.331430868311E+03   -0.10657E-02   -0.10433E-02  7696   0.175E-01 0.478E-03
CGA: 122    -0.331431315098E+03   -0.44679E-03   -0.44395E-03  7696   0.208E-01 0.110E-04
CGA: 123    -0.331432045854E+03   -0.73076E-03   -0.72854E-03  7696   0.820E-02-0.260E-03
CGA: 124    -0.331432524981E+03   -0.47913E-03   -0.47799E-03  7696   0.349E-01 0.460E-04
CGA: 125    -0.331434475324E+03   -0.19503E-02   -0.20638E-02  7696   0.248E-01-0.626E-02
CGA: 126    -0.331435145759E+03   -0.67043E-03   -0.68355E-03  7696   0.241E-01 0.792E-03
CGA: 127    -0.331435918715E+03   -0.77296E-03   -0.65673E-03  7696   0.216E-01 0.392E-03
CGA: 128    -0.331436420672E+03   -0.50196E-03   -0.49169E-03  7696   0.737E-02 0.269E-03
CGA: 129    -0.331436590620E+03   -0.16995E-03   -0.17103E-03  7696   0.107E-01-0.241E-04
CGA: 130    -0.331436886897E+03   -0.29628E-03   -0.29045E-03  7696   0.527E-02-0.984E-04
CGA: 131    -0.331437027009E+03   -0.14011E-03   -0.13912E-03  7696   0.826E-02-0.334E-04
CGA: 132    -0.331437210072E+03   -0.18306E-03   -0.18262E-03  7696   0.547E-02-0.351E-04
CGA: 133    -0.331437363165E+03   -0.15309E-03   -0.15368E-03  7696   0.590E-02-0.988E-05
CGA: 134    -0.331437475896E+03   -0.11273E-03   -0.10892E-03  7696   0.485E-02 0.632E-04
CGA: 135    -0.331437618990E+03   -0.14309E-03   -0.14215E-03  7696   0.398E-02-0.742E-04
CGA: 136    -0.331437679172E+03   -0.60182E-04   -0.61939E-04  7696   0.316E-02-0.836E-04
CGA: 137    -0.331437799501E+03   -0.12033E-03   -0.12158E-03  7696   0.460E-02-0.149E-03
CGA: 138    -0.331437897992E+03   -0.98491E-04   -0.89067E-04  7696   0.652E-02 0.132E-03
CGA: 139    -0.331438027633E+03   -0.12964E-03   -0.11957E-03  7696   0.810E-02 0.319E-03
CGA: 140    -0.331438146440E+03   -0.11881E-03   -0.12253E-03  7696   0.594E-02 0.478E-04
CGA: 141    -0.331438232263E+03   -0.85824E-04   -0.81092E-04  7696   0.403E-02 0.292E-03
CGA: 142    -0.331438296771E+03   -0.64508E-04   -0.60063E-04  7696   0.413E-02 0.202E-03
CGA: 143    -0.331438361783E+03   -0.65011E-04   -0.62020E-04  7696   0.426E-02 0.144E-03
CGA: 144    -0.331438408935E+03   -0.47153E-04   -0.47287E-04  7696   0.277E-02 0.286E-04
CGA: 145    -0.331438443104E+03   -0.34169E-04   -0.34864E-04  7696   0.295E-02-0.119E-04
CGA: 146    -0.331438491265E+03   -0.48161E-04   -0.47696E-04  7696   0.370E-02 0.351E-04
CGA: 147    -0.331438533848E+03   -0.42583E-04   -0.39282E-04  7696   0.317E-02 0.264E-03
CGA: 148    -0.331438573341E+03   -0.39492E-04   -0.37439E-04  7696   0.358E-02 0.160E-03
CGA: 149    -0.331438615535E+03   -0.42194E-04   -0.40917E-04  7696   0.426E-02 0.127E-03
CGA: 150    -0.331438659154E+03   -0.43619E-04   -0.42626E-04  7696   0.430E-02 0.141E-03
SDA: 151    -0.331438698265E+03   -0.39112E-04   -0.37143E-04  7696   0.375E-02 0.238E-03
CGA: 152    -0.331439024992E+03   -0.32673E-03   -0.33082E-03  7696   0.169E-01-0.733E-04
CGA: 153    -0.331439368802E+03   -0.34381E-03   -0.34534E-03  7696   0.112E-01 0.582E-04
CGA: 154    -0.331439581409E+03   -0.21261E-03   -0.21287E-03  7696   0.880E-02-0.537E-05
CGA: 155    -0.331439833236E+03   -0.25183E-03   -0.25265E-03  7696   0.162E-01-0.167E-03
CGA: 156    -0.331440332053E+03   -0.49882E-03   -0.49848E-03  7696   0.692E-02 0.134E-04
CGA: 157    -0.331440580030E+03   -0.24798E-03   -0.24515E-03  7696   0.134E-01 0.229E-03
CGA: 158    -0.331440948392E+03   -0.36836E-03   -0.36871E-03  7696   0.123E-01-0.743E-03
CGA: 159    -0.331441126484E+03   -0.17809E-03   -0.18258E-03  7696   0.334E-02-0.616E-04
CGA: 160    -0.331441162722E+03   -0.36238E-04   -0.36670E-04  7696   0.127E-02-0.140E-04
CGA: 161    -0.331441326370E+03   -0.16365E-03   -0.15906E-03  7696   0.655E-02 0.388E-04
CGA: 162    -0.331441393963E+03   -0.67593E-04   -0.67095E-04  7696   0.734E-03 0.867E-04
CGA: 163    -0.331441418040E+03   -0.24077E-04   -0.24071E-04  7696   0.167E-02 0.306E-05
CGA: 164    -0.331441465731E+03   -0.47690E-04   -0.47710E-04  7696   0.106E-02 0.166E-04
CGA: 165    -0.331441496968E+03   -0.31237E-04   -0.31239E-04  7696   0.168E-02 0.602E-05
CGA: 166    -0.331441540446E+03   -0.43478E-04   -0.43340E-04  7696   0.286E-02-0.129E-04
CGA: 167    -0.331441626532E+03   -0.86087E-04   -0.87182E-04  7696   0.285E-02-0.391E-03
CGA: 168    -0.331441653071E+03   -0.26538E-04   -0.24595E-04  7696   0.187E-02 0.160E-03
CGA: 169    -0.331441693739E+03   -0.40668E-04   -0.40592E-04  7696   0.453E-02 0.139E-05
CGA: 170    -0.331441770677E+03   -0.76937E-04   -0.60444E-04  7696   0.510E-02 0.880E-03
CGA: 171    -0.331441809041E+03   -0.38365E-04   -0.27494E-04  7696   0.286E-02 0.226E-02
CGA: 172    -0.331441837280E+03   -0.28239E-04   -0.26194E-04  7696   0.194E-02 0.272E-03
CGA: 173    -0.331441854842E+03   -0.17561E-04   -0.17664E-04  7696   0.233E-02-0.137E-04
CGA: 174    -0.331441870309E+03   -0.15468E-04   -0.16613E-04  7696   0.187E-02-0.129E-03
CGA: 175    -0.331441881013E+03   -0.10704E-04   -0.11364E-04  7696   0.139E-02-0.817E-04
CGA: 176    -0.331441891408E+03   -0.10395E-04   -0.10672E-04  7696   0.148E-02-0.221E-04
CGA: 177    -0.331441903655E+03   -0.12247E-04   -0.12344E-04  7696   0.148E-02-0.545E-05
CGA: 178    -0.331441916430E+03   -0.12774E-04   -0.12647E-04  7696   0.184E-02 0.948E-05
CGA: 179    -0.331441939358E+03   -0.22929E-04   -0.22470E-04  7696   0.415E-02 0.866E-05
CGA: 180    -0.331441983142E+03   -0.43784E-04   -0.40309E-04  7696   0.657E-02 0.203E-03
CGA: 181    -0.331442023498E+03   -0.40356E-04   -0.36262E-04  7696   0.445E-02 0.669E-03
SDA: 182    -0.331442046196E+03   -0.22698E-04   -0.22959E-04  7696   0.209E-02-0.411E-04
CGA: 183    -0.331442106074E+03   -0.59878E-04   -0.59427E-04  7696   0.293E-02 0.389E-04
CGA: 184    -0.331442182101E+03   -0.76028E-04   -0.75669E-04  7696   0.257E-02 0.427E-04
CGA: 185    -0.331442265549E+03   -0.83448E-04   -0.83178E-04  7696   0.591E-02 0.191E-04
CGA: 186    -0.331442440283E+03   -0.17473E-03   -0.17567E-03  7696   0.320E-02-0.810E-04
CGA: 187    -0.331442506086E+03   -0.65803E-04   -0.65838E-04  7696   0.157E-02-0.223E-04
CGA: 188    -0.331442668528E+03   -0.16244E-03   -0.15087E-03  7696   0.522E-02 0.173E-03
CGA: 189    -0.331442747832E+03   -0.79303E-04   -0.80291E-04  7696   0.153E-02-0.120E-04
CGA: 190    -0.331442774729E+03   -0.26898E-04   -0.26956E-04  7696   0.851E-03 0.414E-05
CGA: 191    -0.331442815310E+03   -0.40581E-04   -0.39827E-04  7696   0.211E-02 0.317E-04
CGA: 192    -0.331442869823E+03   -0.54514E-04   -0.54497E-04  7696   0.168E-02 0.188E-04
CGA: 193    -0.331442914492E+03   -0.44669E-04   -0.44666E-04  7696   0.163E-02 0.291E-06
CGA: 194    -0.331442949593E+03   -0.35101E-04   -0.35091E-04  7696   0.100E-02-0.174E-05
CGA: 195    -0.331442972246E+03   -0.22653E-04   -0.22647E-04  7696   0.720E-03-0.234E-05
CGA: 196    -0.331442998009E+03   -0.25763E-04   -0.25740E-04  7696   0.177E-02 0.122E-05
CGA: 197    -0.331443076716E+03   -0.78708E-04   -0.78674E-04  7696   0.199E-02 0.639E-06
CGA: 198    -0.331443113492E+03   -0.36776E-04   -0.36913E-04  7696   0.131E-02 0.245E-05
CGA: 199    -0.331443160880E+03   -0.47388E-04   -0.47327E-04  7696   0.250E-02 0.629E-05
CGA: 200    -0.331443294119E+03   -0.13324E-03   -0.12891E-03  7696   0.610E-02 0.165E-03
   1 F= -.33144329E+03 E0= -.33141128E+03  d E =-.331443E+03  mag=    32.0000
       N       E                     dE             d eps       ncg     rms          ort
SDA:   1    -0.256551020385E+03    0.74892E+02    0.00000E+00  7696   0.203E+04 0.000E+00
CGA:   2    -0.304171181409E+03   -0.47620E+02   -0.49386E+02  7696   0.209E+03 0.240E+03
CGA:   3    -0.323859622331E+03   -0.19688E+02    0.54356E+01  7696   0.111E+03-0.356E+03
CGA:   4    -0.317436023012E+03    0.64236E+01   -0.48359E+01  7696   0.930E+03-0.388E+03
CGA:   5    -0.329722090911E+03   -0.12286E+02   -0.15299E+02  7696   0.351E+02-0.594E+02
CGA:   6    -0.330276064751E+03   -0.55397E+00   -0.25924E+00  7696   0.266E+02 0.342E+02
CGA:   7    -0.330728612372E+03   -0.45255E+00   -0.26648E+00  7696   0.873E+01 0.134E+02
CGA:   8    -0.330773152682E+03   -0.44540E-01   -0.27874E+00  7696   0.384E+02-0.267E+02
CGA:   9    -0.331087912805E+03   -0.31476E+00   -0.45036E+00  7696   0.444E+01-0.619E+01
CGA:  10    -0.331144057213E+03   -0.56144E-01   -0.55867E-01  7696   0.195E+01 0.440E-02
CGA:  11    -0.331210297072E+03   -0.66240E-01   -0.67425E-01  7696   0.442E+01-0.924E-01
CGA:  12    -0.331352405736E+03   -0.14211E+00   -0.14143E+00  7696   0.251E+01 0.575E-01
CGA:  13    -0.331409732375E+03   -0.57327E-01   -0.57316E-01  7696   0.101E+01-0.121E-02
CGA:  14    -0.331424051494E+03   -0.14319E-01   -0.14441E-01  7696   0.535E+00-0.283E-02
CGA:  15    -0.331435543219E+03   -0.11492E-01   -0.11590E-01  7696   0.242E+00 0.125E-01
CGA:  16    -0.331442308700E+03   -0.67655E-02   -0.67805E-02  7696   0.323E+00-0.316E-02
CGA:  17    -0.331453972622E+03   -0.11664E-01   -0.11619E-01  7696   0.268E+00 0.316E-02
CGA:  18    -0.331457273547E+03   -0.33009E-02   -0.33248E-02  7696   0.942E-01-0.996E-03
CGA:  19    -0.331459784666E+03   -0.25111E-02   -0.25172E-02  7696   0.768E-01-0.159E-02
CGA:  20    -0.331462724621E+03   -0.29400E-02   -0.29406E-02  7696   0.118E+00-0.293E-04
CGA:  21    -0.331464500737E+03   -0.17761E-02   -0.17798E-02  7696   0.275E-01-0.216E-04
CGA:  22    -0.331464889375E+03   -0.38864E-03   -0.38625E-03  7696   0.135E-01 0.643E-04
CGA:  23    -0.331465545193E+03   -0.65582E-03   -0.65428E-03  7696   0.256E-01 0.644E-04
CGA:  24    -0.331466350467E+03   -0.80527E-03   -0.80555E-03  7696   0.284E-01-0.320E-04
CGA:  25    -0.331466740928E+03   -0.39046E-03   -0.39093E-03  7696   0.786E-02-0.950E-05
CGA:  26    -0.331466902586E+03   -0.16166E-03   -0.16170E-03  7696   0.496E-02 0.249E-05
CGA:  27    -0.331467031202E+03   -0.12862E-03   -0.12865E-03  7696   0.404E-02-0.245E-04
CGA:  28    -0.331467142548E+03   -0.11135E-03   -0.11134E-03  7696   0.558E-02 0.298E-05
CGA:  29    -0.331467279874E+03   -0.13733E-03   -0.13733E-03  7696   0.593E-02 0.740E-05
CGA:  30    -0.331467425181E+03   -0.14531E-03   -0.14530E-03  7696   0.172E-02-0.280E-05
CGA:  31    -0.331467456445E+03   -0.31264E-04   -0.31299E-04  7696   0.118E-02 0.277E-05
CGA:  32    -0.331467489491E+03   -0.33046E-04   -0.33046E-04  7696   0.178E-02 0.500E-06
CGA:  33    -0.331467544544E+03   -0.55054E-04   -0.55054E-04  7696   0.210E-02 0.520E-06
CGA:  34    -0.331467586697E+03   -0.42152E-04   -0.42216E-04  7696   0.520E-03 0.625E-05
CGA:  35    -0.331467602656E+03   -0.15960E-04   -0.15957E-04  7696   0.110E-02 0.723E-06
CGA:  36    -0.331467638143E+03   -0.35486E-04   -0.35429E-04  7696   0.134E-02 0.742E-05
CGA:  37    -0.331467668587E+03   -0.30444E-04   -0.30474E-04  7696   0.672E-03 0.821E-05
CGA:  38    -0.331467680550E+03   -0.11963E-04   -0.11974E-04  7696   0.273E-03 0.189E-05
SDA:  39    -0.331467690848E+03   -0.10298E-04   -0.10261E-04  7696   0.707E-03 0.286E-05
CGA:  40    -0.331467696818E+03   -0.59702E-05   -0.59714E-05  7696   0.120E-03-0.662E-06
   2 F= -.33146770E+03 E0= -.33143591E+03  d E =-.244027E-01  mag=    32.0000
       N       E                     dE             d eps       ncg     rms          ort
SDA:   1    -0.331554216341E+03   -0.86525E-01    0.00000E+00  7696   0.209E+01 0.000E+00
CGA:   2    -0.331578711444E+03   -0.24495E-01   -0.28757E-01  7696   0.102E+01-0.239E+00
CGA:   3    -0.331663862087E+03   -0.85151E-01   -0.98511E-01  7696   0.303E+01-0.245E+00
CGA:   4    -0.331700230077E+03   -0.36368E-01   -0.39689E-01  7696   0.157E+01-0.136E+00
CGA:   5    -0.331733174146E+03   -0.32944E-01   -0.36318E-01  7696   0.685E+00-0.491E-01
CGA:   6    -0.331741603766E+03   -0.84296E-02   -0.84493E-02  7696   0.167E+00-0.917E-03
CGA:   7    -0.331756736938E+03   -0.15133E-01   -0.14974E-01  7696   0.466E+00 0.341E-02
CGA:   8    -0.331767647090E+03   -0.10910E-01   -0.10786E-01  7696   0.152E+00 0.267E-02
CGA:   9    -0.331770851097E+03   -0.32040E-02   -0.32276E-02  7696   0.775E-01-0.595E-03
CGA:  10    -0.331773183398E+03   -0.23323E-02   -0.22763E-02  7696   0.278E-01-0.168E-03
CGA:  11    -0.331774235148E+03   -0.10518E-02   -0.10529E-02  7696   0.475E-01 0.102E-03
CGA:  12    -0.331775655747E+03   -0.14206E-02   -0.14173E-02  7696   0.174E-01-0.366E-04
CGA:  13    -0.331776013296E+03   -0.35755E-03   -0.35907E-03  7696   0.123E-01-0.325E-04
CGA:  14    -0.331776457379E+03   -0.44408E-03   -0.44410E-03  7696   0.256E-01 0.557E-05
CGA:  15    -0.331777103096E+03   -0.64572E-03   -0.64363E-03  7696   0.519E-02 0.231E-04
CGA:  16    -0.331777194562E+03   -0.91466E-04   -0.91699E-04  7696   0.322E-02-0.165E-05
CGA:  17    -0.331777355013E+03   -0.16045E-03   -0.16106E-03  7696   0.290E-02-0.373E-04
CGA:  18    -0.331777504338E+03   -0.14932E-03   -0.14909E-03  7696   0.820E-02 0.166E-04
CGA:  19    -0.331777734646E+03   -0.23031E-03   -0.23050E-03  7696   0.218E-02 0.154E-04
CGA:  20    -0.331777764039E+03   -0.29392E-04   -0.29493E-04  7696   0.948E-03 0.226E-05
CGA:  21    -0.331777804133E+03   -0.40095E-04   -0.40056E-04  7696   0.204E-02 0.773E-05
CGA:  22    -0.331777904109E+03   -0.99976E-04   -0.99833E-04  7696   0.201E-02 0.131E-04
CGA:  23    -0.331777945135E+03   -0.41026E-04   -0.41215E-04  7696   0.114E-02 0.268E-05
CGA:  24    -0.331777996846E+03   -0.51711E-04   -0.51766E-04  7696   0.100E-02-0.423E-05
CGA:  25    -0.331778019388E+03   -0.22542E-04   -0.22598E-04  7696   0.980E-03 0.136E-05
CGA:  26    -0.331778053118E+03   -0.33730E-04   -0.33742E-04  7696   0.103E-02 0.318E-05
CGA:  27    -0.331778070691E+03   -0.17573E-04   -0.17606E-04  7696   0.326E-03 0.698E-06
CGA:  28    -0.331778081921E+03   -0.11230E-04   -0.11236E-04  7696   0.570E-03 0.316E-05
CGA:  29    -0.331778128438E+03   -0.46516E-04   -0.45966E-04  7696   0.676E-03 0.125E-04
CGA:  30    -0.331778138768E+03   -0.10331E-04   -0.10418E-04  7696   0.185E-03 0.261E-05
CGA:  31    -0.331778145984E+03   -0.72155E-05   -0.72141E-05  7696   0.249E-03 0.881E-06
   3 F= -.33177815E+03 E0= -.33174680E+03  d E =-.310449E+00  mag=    32.0000
       N       E                     dE             d eps       ncg     rms          ort
SDA:   1    -0.327173138346E+03    0.46050E+01    0.00000E+00  7696   0.674E+02 0.000E+00
CGA:   2    -0.327844387156E+03   -0.67125E+00   -0.13201E+01  7696   0.400E+02-0.719E+01
CGA:   3    -0.328695953504E+03   -0.85157E+00   -0.85397E+00  7696   0.436E+02-0.120E+00
CGA:   4    -0.330232230500E+03   -0.15363E+01   -0.15471E+01  7696   0.604E+02-0.862E+01
CGA:   5    -0.331382476807E+03   -0.11502E+01   -0.12125E+01  7696   0.404E+02 0.666E+00
CGA:   6    -0.331929684334E+03   -0.54721E+00   -0.52882E+00  7696   0.914E+01 0.733E+00
CGA:   7    -0.332049934539E+03   -0.12025E+00   -0.93505E-01  7696   0.285E+01 0.210E+01
CGA:   8    -0.332157239990E+03   -0.10731E+00   -0.10730E+00  7696   0.108E+02-0.141E-02
CGA:   9    -0.332439350352E+03   -0.28211E+00   -0.28365E+00  7696   0.215E+02 0.698E-01
CGA:  10    -0.332642652433E+03   -0.20330E+00   -0.20009E+00  7696   0.822E+01 0.272E+00
CGA:  11    -0.332720430972E+03   -0.77779E-01   -0.74914E-01  7696   0.278E+01 0.256E+00
CGA:  12    -0.332740539672E+03   -0.20109E-01   -0.18637E-01  7696   0.683E+00 0.192E+00
CGA:  13    -0.332748951011E+03   -0.84113E-02   -0.84247E-02  7696   0.981E+00-0.896E-03
CGA:  14    -0.332777857192E+03   -0.28906E-01   -0.28891E-01  7696   0.318E+01 0.423E-02
CGA:  15    -0.332807139118E+03   -0.29282E-01   -0.27745E-01  7696   0.121E+01 0.138E+00
CGA:  16    -0.332815965579E+03   -0.88265E-02   -0.88864E-02  7696   0.538E+00-0.736E-02
CGA:  17    -0.332822165235E+03   -0.61997E-02   -0.61729E-02  7696   0.556E+00 0.131E-02
CGA:  18    -0.332828518792E+03   -0.63536E-02   -0.64282E-02  7696   0.581E+00-0.376E-02
CGA:  19    -0.332837233542E+03   -0.87147E-02   -0.87964E-02  7696   0.903E+00-0.794E-03
CGA:  20    -0.332847247149E+03   -0.10014E-01   -0.98599E-02  7696   0.399E+00 0.868E-02
CGA:  21    -0.332849945072E+03   -0.26979E-02   -0.26065E-02  7696   0.134E+00 0.114E-01
CGA:  22    -0.332851628429E+03   -0.16834E-02   -0.16824E-02  7696   0.185E+00 0.646E-04
CGA:  23    -0.332854380240E+03   -0.27518E-02   -0.27752E-02  7696   0.231E+00 0.268E-03
CGA:  24    -0.332856786635E+03   -0.24064E-02   -0.24805E-02  7696   0.173E+00-0.324E-02
CGA:  25    -0.332858997436E+03   -0.22108E-02   -0.22319E-02  7696   0.189E+00-0.196E-03
CGA:  26    -0.332861807997E+03   -0.28106E-02   -0.28064E-02  7696   0.239E+00-0.272E-04
CGA:  27    -0.332865189961E+03   -0.33820E-02   -0.33498E-02  7696   0.238E+00-0.154E-03
CGA:  28    -0.332867565557E+03   -0.23756E-02   -0.23216E-02  7696   0.135E+00 0.309E-02
CGA:  29    -0.332868723289E+03   -0.11577E-02   -0.11704E-02  7696   0.550E-01-0.819E-03
CGA:  30    -0.332869181014E+03   -0.45772E-03   -0.46161E-03  7696   0.325E-01-0.239E-03
CGA:  31    -0.332869776370E+03   -0.59536E-03   -0.59536E-03  7696   0.819E-01 0.518E-04
SDA:  32    -0.332871605009E+03   -0.18286E-02   -0.18309E-02  7696   0.148E+00-0.377E-03
CGA:  33    -0.332872875278E+03   -0.12703E-02   -0.12731E-02  7696   0.121E-01-0.178E-03
CGA:  34    -0.332873206661E+03   -0.33138E-03   -0.33116E-03  7696   0.145E-01 0.206E-04
CGA:  35    -0.332874969544E+03   -0.17629E-02   -0.97322E-04  7696   0.122E-01 0.768E-04
CGA:  36    -0.332875242540E+03   -0.27300E-03   -0.27194E-03  7696   0.131E-01 0.270E-05
CGA:  37    -0.332875822015E+03   -0.57948E-03   -0.58115E-03  7696   0.831E-02-0.109E-03
CGA:  38    -0.332876146710E+03   -0.32470E-03   -0.32460E-03  7696   0.114E-01 0.196E-04
CGA:  39    -0.332876501507E+03   -0.35480E-03   -0.35513E-03  7696   0.940E-02 0.595E-04
CGA:  40    -0.332876636440E+03   -0.13493E-03   -0.13546E-03  7696   0.353E-02-0.194E-05
CGA:  41    -0.332877306709E+03   -0.67027E-03   -0.13788E-04  7696   0.124E-01-0.402E-03
CGA:  42    -0.332877422980E+03   -0.11627E-03   -0.11515E-03  7696   0.218E-02 0.113E-03
CGA:  43    -0.332877535125E+03   -0.11215E-03   -0.11210E-03  7696   0.903E-02-0.119E-05
CGA:  44    -0.332877825945E+03   -0.29082E-03   -0.29149E-03  7696   0.761E-02 0.421E-05
CGA:  45    -0.332877935890E+03   -0.10994E-03   -0.11118E-03  7696   0.242E-02-0.598E-04
CGA:  46    -0.332877983429E+03   -0.47539E-04   -0.47244E-04  7696   0.267E-02 0.659E-05
CGA:  47    -0.332878097548E+03   -0.11412E-03   -0.11383E-03  7696   0.277E-02-0.137E-04
CGA:  48    -0.332878130039E+03   -0.32491E-04   -0.32628E-04  7696   0.101E-02-0.152E-04
CGA:  49    -0.332878173731E+03   -0.43691E-04   -0.43746E-04  7696   0.139E-02 0.338E-05
CGA:  50    -0.332878191915E+03   -0.18185E-04   -0.18162E-04  7696   0.520E-03 0.124E-05
CGA:  51    -0.332878224108E+03   -0.32192E-04   -0.32184E-04  7696   0.218E-02 0.707E-06
CGA:  52    -0.332878274467E+03   -0.50359E-04   -0.50481E-04  7696   0.904E-03 0.243E-05
CGA:  53    -0.332878286674E+03   -0.12207E-04   -0.12215E-04  7696   0.148E-03 0.104E-05
CGA:  54    -0.332878289279E+03   -0.26054E-05   -0.25935E-05  7696   0.170E-03-0.305E-06
CGA:  55    -0.332878306692E+03   -0.17413E-04   -0.17542E-04  7696   0.521E-03-0.219E-05
CGA:  56    -0.332878312518E+03   -0.58252E-05   -0.58294E-05  7696   0.125E-03-0.117E-05
   4 F= -.33287831E+03 E0= -.33284696E+03  d E =-.110017E+01  mag=    32.0000
       N       E                     dE             d eps       ncg     rms          ort
SDA:   1    -0.326510525270E+03    0.63678E+01    0.00000E+00  7696   0.138E+03 0.000E+00
CGA:   2    -0.327927651202E+03   -0.14171E+01   -0.35527E+01  7696   0.321E+02-0.187E+01
CGA:   3    -0.328742663698E+03   -0.81501E+00   -0.49697E+00  7696   0.329E+02 0.177E+02
CGA:   4    -0.329408863829E+03   -0.66620E+00   -0.66879E+00  7696   0.156E+02-0.146E+00
CGA:   5    -0.330185451810E+03   -0.77659E+00   -0.80559E+00  7696   0.744E+02-0.200E+01
CGA:   6    -0.331873037869E+03   -0.16876E+01   -0.16891E+01  7696   0.119E+03-0.217E+00
CGA:   7    -0.332487214748E+03   -0.61418E+00   -0.13546E+01  7696   0.159E+02-0.500E+02
CGA:   8    -0.332617471236E+03   -0.13026E+00   -0.11428E+00  7696   0.426E+01 0.992E+00
CGA:   9    -0.332698757844E+03   -0.81287E-01   -0.70825E-01  7696   0.484E+01 0.434E+00
CGA:  10    -0.332961750504E+03   -0.26299E+00   -0.26530E+00  7696   0.219E+02-0.142E+00
CGA:  11    -0.333222598015E+03   -0.26085E+00   -0.27521E+00  7696   0.630E+01-0.741E+00
CGA:  12    -0.333271365675E+03   -0.48768E-01   -0.60288E-01  7696   0.172E+01-0.979E+00
CGA:  13    -0.333289001738E+03   -0.17636E-01   -0.15764E-01  7696   0.105E+01 0.137E+00
CGA:  14    -0.333315498373E+03   -0.26497E-01   -0.24898E-01  7696   0.219E+01 0.144E-01
CGA:  15    -0.333338319367E+03   -0.22821E-01   -0.17060E-01  7696   0.170E+01 0.669E+00
CGA:  16    -0.333355289094E+03   -0.16970E-01   -0.17218E-01  7696   0.811E+00-0.230E-01
CGA:  17    -0.333366463217E+03   -0.11174E-01   -0.11584E-01  7696   0.144E+01-0.156E-01
CGA:  18    -0.333388376810E+03   -0.21914E-01   -0.23112E-01  7696   0.149E+01-0.218E-01
CGA:  19    -0.333401180157E+03   -0.12803E-01   -0.12368E-01  7696   0.538E+00 0.448E-01
CGA:  20    -0.333406753320E+03   -0.55732E-02   -0.50452E-02  7696   0.429E+00 0.449E-01
CGA:  21    -0.333414465225E+03   -0.77119E-02   -0.75865E-02  7696   0.901E+00 0.231E-02
CGA:  22    -0.333426896624E+03   -0.12431E-01   -0.12866E-01  7696   0.986E+00-0.125E-01
CGA:  23    -0.333434269323E+03   -0.73727E-02   -0.76977E-02  7696   0.376E+00-0.320E-01
CGA:  24    -0.333437050063E+03   -0.27807E-02   -0.27639E-02  7696   0.153E+00 0.184E-02
CGA:  25    -0.333438321477E+03   -0.12714E-02   -0.12588E-02  7696   0.927E-01 0.118E-02
CGA:  26    -0.333439744774E+03   -0.14233E-02   -0.14210E-02  7696   0.201E+00 0.197E-04
CGA:  27    -0.333444611721E+03   -0.48669E-02   -0.48694E-02  7696   0.566E+00-0.148E-02
CGA:  28    -0.333449752088E+03   -0.51404E-02   -0.51249E-02  7696   0.228E+00 0.132E-02
CGA:  29    -0.333451172161E+03   -0.14201E-02   -0.14387E-02  7696   0.801E-01-0.233E-02
CGA:  30    -0.333452069562E+03   -0.89740E-03   -0.91036E-03  7696   0.995E-01-0.459E-03
CGA:  31    -0.333453435438E+03   -0.13659E-02   -0.13965E-02  7696   0.102E+00 0.469E-04
CGA:  32    -0.333454485278E+03   -0.10498E-02   -0.10557E-02  7696   0.672E-01-0.222E-03
CGA:  33    -0.333455278155E+03   -0.79288E-03   -0.79246E-03  7696   0.564E-01 0.400E-04
SDA:  34    -0.333455982219E+03   -0.70406E-03   -0.70486E-03  7696   0.586E-01 0.106E-04
CGA:  35    -0.333457016573E+03   -0.10344E-02   -0.10344E-02  7696   0.257E-01 0.145E-05
CGA:  36    -0.333457727958E+03   -0.71139E-03   -0.71684E-03  7696   0.292E-01-0.529E-03
CGA:  37    -0.333458311044E+03   -0.58309E-03   -0.58326E-03  7696   0.153E-01-0.218E-03
CGA:  38    -0.333459377724E+03   -0.10667E-02   -0.10596E-02  7696   0.538E-01 0.172E-03
CGA:  39    -0.333460438731E+03   -0.10610E-02   -0.10608E-02  7696   0.473E-02-0.271E-04
CGA:  40    -0.333460533762E+03   -0.95031E-04   -0.95033E-04  7696   0.629E-02 0.126E-05
CGA:  41    -0.333460937799E+03   -0.40404E-03   -0.40445E-03  7696   0.121E-01-0.140E-04
CGA:  42    -0.333461204279E+03   -0.26648E-03   -0.26646E-03  7696   0.360E-02 0.518E-05
CGA:  43    -0.333461351261E+03   -0.14698E-03   -0.14643E-03  7696   0.912E-02 0.320E-04
CGA:  44    -0.333461582254E+03   -0.23099E-03   -0.23098E-03  7696   0.392E-02 0.723E-04
CGA:  45    -0.333461701977E+03   -0.11972E-03   -0.11980E-03  7696   0.612E-02-0.664E-05
CGA:  46    -0.333461907077E+03   -0.20510E-03   -0.20518E-03  7696   0.220E-02-0.303E-05
CGA:  47    -0.333461967793E+03   -0.60715E-04   -0.60719E-04  7696   0.271E-02-0.151E-06
CGA:  48    -0.333462156818E+03   -0.18903E-03   -0.18842E-03  7696   0.110E-01 0.147E-04
CGA:  49    -0.333462356540E+03   -0.19972E-03   -0.19982E-03  7696   0.738E-03 0.374E-05
CGA:  50    -0.333462391913E+03   -0.35373E-04   -0.35483E-04  7696   0.204E-02-0.515E-05
CGA:  51    -0.333462473168E+03   -0.81255E-04   -0.81317E-04  7696   0.176E-02-0.455E-05
CGA:  52    -0.333462515043E+03   -0.41875E-04   -0.41854E-04  7696   0.151E-02-0.144E-05
CGA:  53    -0.333462560483E+03   -0.45440E-04   -0.45430E-04  7696   0.124E-02 0.557E-05
CGA:  54    -0.333462578589E+03   -0.18106E-04   -0.18173E-04  7696   0.245E-03 0.848E-06
CGA:  55    -0.333462609761E+03   -0.31171E-04   -0.30762E-04  7696   0.462E-03 0.408E-05
CGA:  56    -0.333462616888E+03   -0.71277E-05   -0.71613E-05  7696   0.135E-03 0.132E-05
   5 F= -.33346262E+03 E0= -.33343178E+03  d E =-.584304E+00  mag=    32.0000
       N       E                     dE             d eps       ncg     rms          ort
SDA:   1    -0.318114197917E+03    0.15348E+02    0.00000E+00  7696   0.394E+03 0.000E+00
CGA:   2    -0.322826128365E+03   -0.47119E+01   -0.71288E+01  7696   0.128E+03-0.132E+03
CGA:   3    -0.324894682885E+03   -0.20686E+01   -0.18105E+01  7696   0.768E+02 0.333E+01
CGA:   4    -0.325977985936E+03   -0.10833E+01   -0.93392E+00  7696   0.655E+02 0.759E+01
CGA:   5    -0.327133993510E+03   -0.11560E+01   -0.12104E+01  7696   0.807E+02-0.174E+01
CGA:   6    -0.329838531205E+03   -0.27045E+01   -0.25882E+01  7696   0.711E+02 0.179E+02
CGA:   7    -0.331675108140E+03   -0.18366E+01   -0.18701E+01  7696   0.323E+02 0.481E+00
CGA:   8    -0.332094215569E+03   -0.41911E+00   -0.22038E+00  7696   0.196E+02 0.274E+02
CGA:   9    -0.332391151072E+03   -0.29694E+00   -0.23771E+00  7696   0.373E+01 0.317E+01
CGA:  10    -0.332554370439E+03   -0.16322E+00   -0.16438E+00  7696   0.117E+02-0.742E-01
CGA:  11    -0.333025458431E+03   -0.47109E+00   -0.46584E+00  7696   0.256E+02 0.316E+00
CGA:  12    -0.333414383206E+03   -0.38892E+00   -0.37411E+00  7696   0.388E+01 0.285E+00
CGA:  13    -0.333465312643E+03   -0.50929E-01   -0.50153E-01  7696   0.243E+01 0.404E-01
CGA:  14    -0.333593559572E+03   -0.12825E+00   -0.13097E+00  7696   0.813E+01-0.106E+00
CGA:  15    -0.333697506176E+03   -0.10395E+00   -0.99060E-01  7696   0.284E+01 0.258E+00
CGA:  16    -0.333728210203E+03   -0.30704E-01   -0.31414E-01  7696   0.124E+01-0.439E-01
CGA:  17    -0.333751990624E+03   -0.23780E-01   -0.23626E-01  7696   0.178E+01-0.290E-02
CGA:  18    -0.333795049197E+03   -0.43059E-01   -0.42797E-01  7696   0.247E+01-0.489E-01
CGA:  19    -0.333819792207E+03   -0.24743E-01   -0.24364E-01  7696   0.959E+00 0.253E-01
CGA:  20    -0.333830841416E+03   -0.11049E-01   -0.11344E-01  7696   0.789E+00-0.144E-01
CGA:  21    -0.333844493089E+03   -0.13652E-01   -0.14416E-01  7696   0.579E+00 0.244E-01
CGA:  22    -0.333851351174E+03   -0.68581E-02   -0.69228E-02  7696   0.200E+00-0.257E-02
CGA:  23    -0.333856192783E+03   -0.48416E-02   -0.48410E-02  7696   0.328E+00 0.456E-03
CGA:  24    -0.333870790181E+03   -0.14597E-01   -0.14578E-01  7696   0.838E+00 0.969E-03
CGA:  25    -0.333883129406E+03   -0.12339E-01   -0.12275E-01  7696   0.151E+00 0.146E-02
CGA:  26    -0.333885003132E+03   -0.18737E-02   -0.18545E-02  7696   0.970E-01 0.767E-03
CGA:  27    -0.333890561418E+03   -0.55583E-02   -0.55394E-02  7696   0.335E+00 0.575E-03
CGA:  28    -0.333895397744E+03   -0.48363E-02   -0.48715E-02  7696   0.883E-01-0.742E-03
CGA:  29    -0.333896936473E+03   -0.15387E-02   -0.15427E-02  7696   0.669E-01 0.536E-04
CGA:  30    -0.333898591543E+03   -0.16551E-02   -0.16548E-02  7696   0.872E-01 0.447E-03
CGA:  31    -0.333900566820E+03   -0.19753E-02   -0.19786E-02  7696   0.438E-01 0.737E-03
CGA:  32    -0.333901673310E+03   -0.11065E-02   -0.11061E-02  7696   0.741E-01 0.264E-03
CGA:  33    -0.333903756978E+03   -0.20837E-02   -0.20935E-02  7696   0.242E-01-0.169E-02
CGA:  34    -0.333904027628E+03   -0.27065E-03   -0.26757E-03  7696   0.107E-01 0.155E-03
CGA:  35    -0.333904829430E+03   -0.80180E-03   -0.79860E-03  7696   0.586E-01 0.638E-04
CGA:  36    -0.333905869437E+03   -0.10400E-02   -0.10418E-02  7696   0.145E-01 0.992E-04
CGA:  37    -0.333906122238E+03   -0.25280E-03   -0.25364E-03  7696   0.112E-01 0.266E-04
CGA:  38    -0.333906384759E+03   -0.26252E-03   -0.26273E-03  7696   0.117E-01 0.539E-04
SDA:  39    -0.333906678334E+03   -0.29357E-03   -0.29364E-03  7696   0.828E-02 0.640E-04
CGA:  40    -0.333906850279E+03   -0.17195E-03   -0.17200E-03  7696   0.742E-02-0.819E-06
CGA:  41    -0.333907063823E+03   -0.21354E-03   -0.21437E-03  7696   0.294E-02-0.149E-03
CGA:  42    -0.333907185553E+03   -0.12173E-03   -0.12206E-03  7696   0.827E-02-0.185E-04
CGA:  43    -0.333907503096E+03   -0.31754E-03   -0.31752E-03  7696   0.800E-02-0.381E-05
CGA:  44    -0.333907652029E+03   -0.14893E-03   -0.14880E-03  7696   0.186E-02-0.134E-04
CGA:  45    -0.333907918869E+03   -0.26684E-03   -0.30950E-05  7696   0.139E-02-0.296E-03
CGA:  46    -0.333907944728E+03   -0.25859E-04   -0.25888E-04  7696   0.201E-02-0.192E-06
CGA:  47    -0.333908109186E+03   -0.16446E-03   -0.16432E-03  7696   0.424E-02 0.384E-05
CGA:  48    -0.333908192897E+03   -0.83710E-04   -0.83947E-04  7696   0.106E-02-0.385E-05
CGA:  49    -0.333908220865E+03   -0.27968E-04   -0.27980E-04  7696   0.144E-02-0.591E-07
CGA:  50    -0.333908269510E+03   -0.48645E-04   -0.48509E-04  7696   0.692E-03-0.213E-05
CGA:  51    -0.333908314690E+03   -0.45180E-04   -0.45181E-04  7696   0.264E-02-0.150E-06
CGA:  52    -0.333908369546E+03   -0.54856E-04   -0.55008E-04  7696   0.276E-03-0.367E-05
CGA:  53    -0.333908385317E+03   -0.15770E-04   -0.15779E-04  7696   0.118E-02-0.880E-06
CGA:  54    -0.333908426075E+03   -0.40758E-04   -0.40726E-04  7696   0.283E-03-0.325E-05
CGA:  55    -0.333908433001E+03   -0.69264E-05   -0.69359E-05  7696   0.294E-03 0.407E-06
CGA:  56    -0.333908451965E+03   -0.18964E-04   -0.18867E-04  7696   0.970E-03 0.481E-05
CGA:  57    -0.333908472766E+03   -0.20801E-04   -0.20933E-04  7696   0.847E-04 0.479E-05
CGA:  58    -0.333908476528E+03   -0.37615E-05   -0.37615E-05  7696   0.286E-03-0.182E-07
CGA:  59    -0.333908488939E+03   -0.12412E-04   -0.12411E-04  7696   0.130E-03-0.963E-06
CGA:  60    -0.333908495353E+03   -0.64136E-05   -0.64110E-05  7696   0.227E-03 0.337E-06
   6 F= -.33390850E+03 E0= -.33387784E+03  d E =-.445878E+00  mag=    32.0000
       N       E                     dE             d eps       ncg     rms          ort
SDA:   1    -0.316427282529E+03    0.17481E+02    0.00000E+00  7696   0.440E+03 0.000E+00
CGA:   2    -0.319857823110E+03   -0.34305E+01   -0.70511E+01  7696   0.434E+03-0.439E+03
CGA:   3    -0.322434458366E+03   -0.25766E+01   -0.57731E+01  7696   0.216E+03-0.260E+03
CGA:   4    -0.324001162269E+03   -0.15667E+01   -0.27117E+01  7696   0.928E+02-0.939E+02
CGA:   5    -0.327035016591E+03   -0.30339E+01   -0.30609E+01  7696   0.115E+03-0.125E+01
CGA:   6    -0.328993761129E+03   -0.19587E+01   -0.20240E+01  7696   0.470E+02-0.605E+01
CGA:   7    -0.330280913291E+03   -0.12872E+01   -0.12710E+01  7696   0.458E+02-0.275E+00
CGA:   8    -0.331723442909E+03   -0.14425E+01   -0.14451E+01  7696   0.441E+02 0.630E-01
CGA:   9    -0.332706337332E+03   -0.98289E+00   -0.93232E+00  7696   0.187E+02 0.727E+00
CGA:  10    -0.333098023680E+03   -0.39169E+00   -0.41378E+00  7696   0.118E+02-0.340E+00
CGA:  11    -0.333409725002E+03   -0.31170E+00   -0.30793E+00  7696   0.982E+01-0.696E-01
CGA:  12    -0.333660719640E+03   -0.25099E+00   -0.25224E+00  7696   0.699E+01 0.109E-01
CGA:  13    -0.333822263162E+03   -0.16154E+00   -0.16199E+00  7696   0.406E+01-0.565E-02
CGA:  14    -0.333914366725E+03   -0.92104E-01   -0.93028E-01  7696   0.248E+01-0.150E-02
CGA:  15    -0.333977579225E+03   -0.63213E-01   -0.63194E-01  7696   0.184E+01-0.156E-02
CGA:  16    -0.334026744344E+03   -0.49165E-01   -0.49405E-01  7696   0.146E+01 0.884E-02
CGA:  17    -0.334063363010E+03   -0.36619E-01   -0.36653E-01  7696   0.934E+00 0.494E-03
CGA:  18    -0.334086175672E+03   -0.22813E-01   -0.22912E-01  7696   0.609E+00 0.203E-02
CGA:  19    -0.334101744428E+03   -0.15569E-01   -0.15557E-01  7696   0.454E+00-0.410E-03
CGA:  20    -0.334114979138E+03   -0.13235E-01   -0.13260E-01  7696   0.401E+00 0.375E-02
CGA:  21    -0.334125572663E+03   -0.10594E-01   -0.10595E-01  7696   0.284E+00 0.147E-03
CGA:  22    -0.334132864164E+03   -0.72915E-02   -0.73031E-02  7696   0.191E+00 0.615E-03
CGA:  23    -0.334137925471E+03   -0.50613E-02   -0.50630E-02  7696   0.150E+00 0.159E-03
CGA:  24    -0.334142296092E+03   -0.43706E-02   -0.43737E-02  7696   0.130E+00 0.749E-03
CGA:  25    -0.334145886308E+03   -0.35902E-02   -0.35895E-02  7696   0.977E-01-0.377E-04
CGA:  26    -0.334148407219E+03   -0.25209E-02   -0.25239E-02  7696   0.671E-01 0.223E-03
CGA:  27    -0.334150230787E+03   -0.18236E-02   -0.18239E-02  7696   0.525E-01 0.497E-04
CGA:  28    -0.334151742529E+03   -0.15117E-02   -0.15122E-02  7696   0.449E-01 0.138E-03
CGA:  29    -0.334152985762E+03   -0.12432E-02   -0.12432E-02  7696   0.333E-01 0.984E-05
CGA:  30    -0.334153857804E+03   -0.87204E-03   -0.87245E-03  7696   0.236E-01 0.494E-04
CGA:  31    -0.334154494233E+03   -0.63643E-03   -0.63660E-03  7696   0.179E-01 0.310E-04
CGA:  32    -0.334155009321E+03   -0.51509E-03   -0.51513E-03  7696   0.150E-01 0.258E-04
CGA:  33    -0.334155424176E+03   -0.41485E-03   -0.41490E-03  7696   0.114E-01 0.169E-04
SDA:  34    -0.334155733943E+03   -0.30977E-03   -0.30987E-03  7696   0.834E-02 0.233E-04
CGA:  35    -0.334155809837E+03   -0.75894E-04   -0.75922E-04  7696   0.132E-02-0.435E-06
CGA:  36    -0.334156180163E+03   -0.37033E-03   -0.19956E-03  7696   0.322E-02 0.681E-03
CGA:  37    -0.334156228902E+03   -0.48739E-04   -0.48923E-04  7696   0.846E-03-0.859E-05
CGA:  38    -0.334156295737E+03   -0.66835E-04   -0.66939E-04  7696   0.503E-02-0.317E-05
CGA:  39    -0.334156546865E+03   -0.25113E-03   -0.25111E-03  7696   0.393E-02-0.742E-08
CGA:  40    -0.334156755037E+03   -0.20817E-03   -0.20810E-03  7696   0.582E-02 0.322E-04
CGA:  41    -0.334156821858E+03   -0.66821E-04   -0.67138E-04  7696   0.258E-03-0.116E-04
CGA:  42    -0.334156856388E+03   -0.34530E-04   -0.34367E-04  7696   0.175E-02 0.175E-05
CGA:  43    -0.334156898966E+03   -0.42578E-04   -0.42732E-04  7696   0.724E-03 0.161E-05
CGA:  44    -0.334156911849E+03   -0.12883E-04   -0.12928E-04  7696   0.370E-03 0.610E-06
CGA:  45    -0.334156953369E+03   -0.41521E-04   -0.41265E-04  7696   0.138E-02 0.418E-05
CGA:  46    -0.334156972451E+03   -0.19081E-04   -0.19278E-04  7696   0.149E-03-0.478E-05
CGA:  47    -0.334156985739E+03   -0.13288E-04   -0.13300E-04  7696   0.613E-03-0.365E-06
CGA:  48    -0.334156997686E+03   -0.11947E-04   -0.11943E-04  7696   0.166E-03-0.114E-05
CGA:  49    -0.334157000652E+03   -0.29653E-05   -0.29668E-05  7696   0.756E-04-0.129E-06
   7 F= -.33415700E+03 E0= -.33412666E+03  d E =-.248505E+00  mag=    32.0000
       N       E                     dE             d eps       ncg     rms          ort
SDA:   1    -0.320080381517E+03    0.14077E+02    0.00000E+00  7696   0.261E+03 0.000E+00
CGA:   2    -0.320935502459E+03   -0.85512E+00   -0.64221E+01  7696   0.185E+03-0.587E+02
CGA:   3    -0.323973140235E+03   -0.30376E+01   -0.31698E+01  7696   0.108E+03-0.193E+02
CGA:   4    -0.325636123893E+03   -0.16630E+01   -0.95939E+00  7696   0.407E+02 0.607E+02
CGA:   5    -0.326374024819E+03   -0.73790E+00   -0.90907E+00  7696   0.509E+02-0.568E+01
CGA:   6    -0.328594248694E+03   -0.22202E+01   -0.22007E+01  7696   0.136E+03 0.415E+01
CGA:   7    -0.331633454781E+03   -0.30392E+01   -0.32512E+01  7696   0.129E+03-0.236E+02
CGA:   8    -0.332836795473E+03   -0.12033E+01   -0.82832E+00  7696   0.358E+02 0.394E+02
CGA:   9    -0.333145374778E+03   -0.30858E+00   -0.38689E+00  7696   0.228E+02-0.981E+01
CGA:  10    -0.333266250231E+03   -0.12088E+00   -0.81691E-01  7696   0.176E+02 0.730E+01
CGA:  11    -0.333403565146E+03   -0.13731E+00   -0.15770E+00  7696   0.978E+01-0.286E+01
CGA:  12    -0.333479348977E+03   -0.75784E-01   -0.97133E-01  7696   0.141E+02-0.141E+01
CGA:  13    -0.333634274663E+03   -0.15493E+00   -0.20706E+00  7696   0.208E+02-0.167E+01
CGA:  14    -0.333865318937E+03   -0.23104E+00   -0.21187E+00  7696   0.165E+02 0.128E+01
CGA:  15    -0.334036543175E+03   -0.17122E+00   -0.13275E+00  7696   0.707E+01 0.441E+01
CGA:  16    -0.334100816710E+03   -0.64274E-01   -0.56713E-01  7696   0.260E+01 0.106E+01
CGA:  17    -0.334128677666E+03   -0.27861E-01   -0.29128E-01  7696   0.195E+01-0.938E-01
CGA:  18    -0.334146503703E+03   -0.17826E-01   -0.18779E-01  7696   0.170E+01-0.728E-01
CGA:  19    -0.334167598855E+03   -0.21095E-01   -0.21529E-01  7696   0.235E+01-0.191E-01
CGA:  20    -0.334194724866E+03   -0.27126E-01   -0.25455E-01  7696   0.181E+01 0.111E+00
CGA:  21    -0.334211557353E+03   -0.16832E-01   -0.16132E-01  7696   0.141E+01 0.634E-01
CGA:  22    -0.334230505971E+03   -0.18949E-01   -0.18839E-01  7696   0.199E+01 0.600E-02
CGA:  23    -0.334249778884E+03   -0.19273E-01   -0.22637E-01  7696   0.143E+01-0.171E+00
CGA:  24    -0.334262845346E+03   -0.13066E-01   -0.14460E-01  7696   0.104E+01-0.732E-01
CGA:  25    -0.334274747775E+03   -0.11902E-01   -0.11695E-01  7696   0.502E+00 0.104E-01
CGA:  26    -0.334279260176E+03   -0.45124E-02   -0.44682E-02  7696   0.243E+00 0.346E-02
CGA:  27    -0.334283661406E+03   -0.44012E-02   -0.43976E-02  7696   0.399E+00-0.625E-04
CGA:  28    -0.334289336232E+03   -0.56748E-02   -0.58109E-02  7696   0.293E+00-0.880E-03
CGA:  29    -0.334292680518E+03   -0.33443E-02   -0.33680E-02  7696   0.193E+00-0.726E-03
CGA:  30    -0.334295484305E+03   -0.28038E-02   -0.27932E-02  7696   0.172E+00 0.489E-04
CGA:  31    -0.334297937199E+03   -0.24529E-02   -0.24597E-02  7696   0.172E+00-0.622E-04
CGA:  32    -0.334301038072E+03   -0.31009E-02   -0.31318E-02  7696   0.205E+00 0.275E-02
CGA:  33    -0.334303881505E+03   -0.28434E-02   -0.28837E-02  7696   0.972E-01-0.946E-04
CGA:  34    -0.334305196725E+03   -0.13152E-02   -0.13050E-02  7696   0.847E-01 0.976E-04
SDA:  35    -0.334307377713E+03   -0.21810E-02   -0.21839E-02  7696   0.134E+00-0.405E-03
CGA:  36    -0.334308609021E+03   -0.12313E-02   -0.12420E-02  7696   0.121E-01-0.696E-03
CGA:  37    -0.334309101589E+03   -0.49257E-03   -0.49204E-03  7696   0.229E-01 0.251E-04
CGA:  38    -0.334310235730E+03   -0.11341E-02   -0.11368E-02  7696   0.320E-01-0.111E-03
CGA:  39    -0.334310907753E+03   -0.67202E-03   -0.67242E-03  7696   0.243E-01 0.133E-03
CGA:  40    -0.334312116271E+03   -0.12085E-02   -0.11821E-02  7696   0.761E-02 0.103E-02
CGA:  41    -0.334312670503E+03   -0.55423E-03   -0.55537E-03  7696   0.229E-01-0.295E-04
CGA:  42    -0.334313420344E+03   -0.74984E-03   -0.74844E-03  7696   0.929E-02 0.141E-03
CGA:  43    -0.334313532698E+03   -0.11235E-03   -0.11243E-03  7696   0.246E-02-0.124E-04
CGA:  44    -0.334313882647E+03   -0.34995E-03   -0.44089E-05  7696   0.591E-02-0.386E-03
CGA:  45    -0.334313968435E+03   -0.85788E-04   -0.85748E-04  7696   0.259E-02-0.456E-05
CGA:  46    -0.334314046943E+03   -0.78508E-04   -0.78935E-04  7696   0.257E-02 0.361E-05
CGA:  47    -0.334314105530E+03   -0.58587E-04   -0.59166E-04  7696   0.120E-02-0.130E-05
CGA:  48    -0.334314200940E+03   -0.95411E-04   -0.94574E-04  7696   0.335E-02 0.237E-04
CGA:  49    -0.334314265898E+03   -0.64957E-04   -0.64871E-04  7696   0.648E-03 0.246E-04
CGA:  50    -0.334314280323E+03   -0.14426E-04   -0.14485E-04  7696   0.696E-03 0.164E-05
CGA:  51    -0.334314336174E+03   -0.55851E-04   -0.55559E-04  7696   0.131E-02 0.778E-05
CGA:  52    -0.334314361353E+03   -0.25179E-04   -0.25228E-04  7696   0.643E-03 0.316E-05
CGA:  53    -0.334314384155E+03   -0.22802E-04   -0.22842E-04  7696   0.690E-03 0.205E-05
CGA:  54    -0.334314400388E+03   -0.16233E-04   -0.16224E-04  7696   0.324E-03-0.184E-05
CGA:  55    -0.334314422394E+03   -0.22005E-04   -0.22167E-04  7696   0.711E-03-0.625E-05
CGA:  56    -0.334314434315E+03   -0.11921E-04   -0.11832E-04  7696   0.156E-03-0.352E-05
CGA:  57    -0.334314437705E+03   -0.33905E-05   -0.33657E-05  7696   0.148E-03-0.124E-05
CGA:  58    -0.334314451940E+03   -0.14234E-04   -0.14609E-04  7696   0.218E-03-0.652E-05
CGA:  59    -0.334314456558E+03   -0.46185E-05   -0.45774E-05  7696   0.140E-03-0.185E-05
   8 F= -.33431446E+03 E0= -.33428416E+03  d E =-.157456E+00  mag=    32.0000
       N       E                     dE             d eps       ncg     rms          ort
SDA:   1    -0.333476428643E+03    0.83802E+00    0.00000E+00  7696   0.360E+01 0.000E+00
CGA:   2    -0.333554576917E+03   -0.78148E-01   -0.80179E-01  7696   0.520E+01-0.483E-01
CGA:   3    -0.334021692793E+03   -0.46712E+00   -0.46745E+00  7696   0.863E+01-0.107E-01
CGA:   4    -0.334151427919E+03   -0.12974E+00   -0.11663E+00  7696   0.139E+01 0.769E+00
CGA:   5    -0.334188958659E+03   -0.37531E-01   -0.38853E-01  7696   0.149E+01-0.103E-01
CGA:   6    -0.334288603723E+03   -0.99645E-01   -0.97183E-01  7696   0.634E+00 0.802E-01
CGA:   7    -0.334310416193E+03   -0.21812E-01   -0.21906E-01  7696   0.100E+01 0.195E-02
CGA:   8    -0.334332086366E+03   -0.21670E-01   -0.17315E-01  7696   0.163E+00 0.192E+00
CGA:   9    -0.334335120493E+03   -0.30341E-02   -0.29528E-02  7696   0.131E+00 0.379E-02
CGA:  10    -0.334341410092E+03   -0.62896E-02   -0.62913E-02  7696   0.341E+00-0.153E-03
CGA:  11    -0.334348880790E+03   -0.74707E-02   -0.75352E-02  7696   0.186E+00-0.102E-02
CGA:  12    -0.334350944172E+03   -0.20634E-02   -0.20136E-02  7696   0.247E-01 0.374E-02
CGA:  13    -0.334351497010E+03   -0.55284E-03   -0.54909E-03  7696   0.451E-01 0.557E-04
CGA:  14    -0.334353838226E+03   -0.23412E-02   -0.23348E-02  7696   0.521E-01 0.344E-03
CGA:  15    -0.334354335652E+03   -0.49743E-03   -0.50938E-03  7696   0.983E-02-0.100E-02
CGA:  16    -0.334354866809E+03   -0.53116E-03   -0.53000E-03  7696   0.372E-01 0.517E-04
CGA:  17    -0.334355568845E+03   -0.70204E-03   -0.69999E-03  7696   0.693E-02 0.444E-04
CGA:  18    -0.334355705660E+03   -0.13682E-03   -0.13618E-03  7696   0.777E-02 0.869E-05
CGA:  19    -0.334355930633E+03   -0.22497E-03   -0.22364E-03  7696   0.435E-02-0.527E-04
CGA:  20    -0.334356008582E+03   -0.77949E-04   -0.78067E-04  7696   0.400E-02 0.101E-06
CGA:  21    -0.334356166073E+03   -0.15749E-03   -0.15746E-03  7696   0.836E-02 0.691E-05
CGA:  22    -0.334356399663E+03   -0.23359E-03   -0.23373E-03  7696   0.426E-02 0.156E-04
CGA:  23    -0.334356444833E+03   -0.45171E-04   -0.45387E-04  7696   0.853E-03-0.734E-05
CGA:  24    -0.334356498164E+03   -0.53330E-04   -0.53307E-04  7696   0.423E-02 0.701E-06
CGA:  25    -0.334356600954E+03   -0.10279E-03   -0.10264E-03  7696   0.973E-03-0.568E-05
CGA:  26    -0.334356617227E+03   -0.16272E-04   -0.16243E-04  7696   0.100E-02-0.124E-07
CGA:  27    -0.334356673362E+03   -0.56136E-04   -0.55889E-04  7696   0.134E-02 0.100E-04
CGA:  28    -0.334356693870E+03   -0.20508E-04   -0.20566E-04  7696   0.851E-03-0.707E-07
CGA:  29    -0.334356726679E+03   -0.32809E-04   -0.32815E-04  7696   0.988E-03-0.615E-06
CGA:  30    -0.334356743451E+03   -0.16771E-04   -0.16701E-04  7696   0.363E-03 0.509E-06
CGA:  31    -0.334356749358E+03   -0.59072E-05   -0.59049E-05  7696   0.218E-03-0.295E-06
SDA:  32    -0.334356765780E+03   -0.16422E-04   -0.16384E-04  7696   0.106E-02 0.894E-06
CGA:  33    -0.334356776376E+03   -0.10595E-04   -0.10552E-04  7696   0.646E-04 0.243E-05
CGA:  34    -0.334356779907E+03   -0.35313E-05   -0.35197E-05  7696   0.175E-03 0.519E-06
CGA:  35    -0.334356792748E+03   -0.12841E-04   -0.12822E-04  7696   0.239E-03 0.478E-06
CGA:  36    -0.334356795888E+03   -0.31400E-05   -0.31397E-05  7696   0.833E-04-0.163E-07
   9 F= -.33435680E+03 E0= -.33432661E+03  d E =-.423393E-01  mag=    32.0000
       N       E                     dE             d eps       ncg     rms          ort
SDA:   1    -0.332500056855E+03    0.18567E+01    0.00000E+00  7696   0.116E+02 0.000E+00
CGA:   2    -0.332668307292E+03   -0.16825E+00   -0.19451E+00  7696   0.865E+01-0.935E+00
CGA:   3    -0.333647331843E+03   -0.97902E+00   -0.99162E+00  7696   0.260E+02-0.190E+00
CGA:   4    -0.334015839900E+03   -0.36851E+00   -0.35973E+00  7696   0.392E+01 0.483E+00
CGA:   5    -0.334089035448E+03   -0.73196E-01   -0.74228E-01  7696   0.222E+01-0.313E-01
CGA:   6    -0.334220265145E+03   -0.13123E+00   -0.13219E+00  7696   0.456E+01-0.444E-01
CGA:   7    -0.334308610913E+03   -0.88346E-01   -0.92112E-01  7696   0.107E+01-0.784E-01
CGA:   8    -0.334346429412E+03   -0.37818E-01   -0.37635E-01  7696   0.115E+01-0.310E-01
CGA:   9    -0.334370866860E+03   -0.24437E-01   -0.23369E-01  7696   0.312E+00 0.289E-01
CGA:  10    -0.334376917480E+03   -0.60506E-02   -0.61678E-02  7696   0.221E+00-0.281E-02
CGA:  11    -0.334387729961E+03   -0.10812E-01   -0.10829E-01  7696   0.455E+00-0.973E-03
CGA:  12    -0.334396927373E+03   -0.91974E-02   -0.93133E-02  7696   0.487E-01-0.186E-02
CGA:  13    -0.334400224663E+03   -0.32973E-02   -0.33136E-02  7696   0.144E+00-0.502E-03
CGA:  14    -0.334403015018E+03   -0.27904E-02   -0.28070E-02  7696   0.235E-01-0.336E-03
CGA:  15    -0.334403761529E+03   -0.74651E-03   -0.74703E-03  7696   0.355E-01 0.398E-04
CGA:  16    -0.334404727162E+03   -0.96563E-03   -0.97142E-03  7696   0.232E-01 0.104E-03
CGA:  17    -0.334405261842E+03   -0.53468E-03   -0.53547E-03  7696   0.148E-01-0.704E-05
CGA:  18    -0.334406288341E+03   -0.10265E-02   -0.10388E-02  7696   0.136E-01-0.356E-03
CGA:  19    -0.334406462686E+03   -0.17434E-03   -0.17555E-03  7696   0.263E-02-0.639E-04
CGA:  20    -0.334406881016E+03   -0.41833E-03   -0.41431E-03  7696   0.831E-02 0.344E-04
CGA:  21    -0.334407074733E+03   -0.19372E-03   -0.19462E-03  7696   0.323E-02 0.127E-05
CGA:  22    -0.334407197581E+03   -0.12285E-03   -0.12277E-03  7696   0.489E-02-0.902E-05
CGA:  23    -0.334407307193E+03   -0.10961E-03   -0.10931E-03  7696   0.139E-02 0.683E-05
CGA:  24    -0.334407374674E+03   -0.67481E-04   -0.67466E-04  7696   0.445E-02 0.101E-05
CGA:  25    -0.334407499792E+03   -0.12512E-03   -0.12516E-03  7696   0.100E-02-0.882E-06
CGA:  26    -0.334407537210E+03   -0.37418E-04   -0.37419E-04  7696   0.138E-02 0.188E-07
CGA:  27    -0.334407633948E+03   -0.96738E-04   -0.96739E-04  7696   0.971E-03 0.886E-07
CGA:  28    -0.334407649723E+03   -0.15775E-04   -0.15843E-04  7696   0.487E-03 0.258E-06
CGA:  29    -0.334407679574E+03   -0.29851E-04   -0.29729E-04  7696   0.351E-03 0.530E-05
CGA:  30    -0.334407692652E+03   -0.13078E-04   -0.13084E-04  7696   0.546E-03 0.124E-05
CGA:  31    -0.334407715633E+03   -0.22981E-04   -0.22980E-04  7696   0.825E-03 0.665E-06
SDA:  32    -0.334407728463E+03   -0.12831E-04   -0.12825E-04  7696   0.853E-04 0.963E-06
CGA:  33    -0.334407731766E+03   -0.33026E-05   -0.33031E-05  7696   0.176E-03 0.401E-06
  10 F= -.33440773E+03 E0= -.33437768E+03  d E =-.509359E-01  mag=    32.0000
       N       E                     dE             d eps       ncg     rms          ort
SDA:   1    -0.332714073383E+03    0.16937E+01    0.00000E+00  7696   0.138E+02 0.000E+00
CGA:   2    -0.332881949715E+03   -0.16788E+00   -0.20385E+00  7696   0.747E+01-0.168E+01
CGA:   3    -0.333610959285E+03   -0.72901E+00   -0.71484E+00  7696   0.241E+02 0.214E+00
CGA:   4    -0.334024645831E+03   -0.41369E+00   -0.39067E+00  7696   0.423E+01 0.821E+00
CGA:   5    -0.334116339220E+03   -0.91693E-01   -0.95598E-01  7696   0.327E+01-0.719E-01
CGA:   6    -0.334244695415E+03   -0.12836E+00   -0.12966E+00  7696   0.320E+01-0.679E+00
CGA:   7    -0.334295859110E+03   -0.51164E-01   -0.51681E-01  7696   0.191E+01-0.103E-01
CGA:   8    -0.334395332066E+03   -0.99473E-01   -0.94360E-01  7696   0.941E+00 0.316E+00
CGA:   9    -0.334409084123E+03   -0.13752E-01   -0.13042E-01  7696   0.143E+00 0.469E-01
CGA:  10    -0.334422101707E+03   -0.13018E-01   -0.12809E-01  7696   0.604E+00 0.462E-02
CGA:  11    -0.334437209400E+03   -0.15108E-01   -0.14998E-01  7696   0.172E+00 0.131E-02
CGA:  12    -0.334439576887E+03   -0.23675E-02   -0.23866E-02  7696   0.525E-01-0.101E-02
CGA:  13    -0.334442142657E+03   -0.25658E-02   -0.25490E-02  7696   0.854E-01 0.111E-02
CGA:  14    -0.334444103084E+03   -0.19604E-02   -0.19512E-02  7696   0.257E-01 0.146E-03
CGA:  15    -0.334445245159E+03   -0.11421E-02   -0.11411E-02  7696   0.412E-01 0.102E-03
CGA:  16    -0.334446245822E+03   -0.10007E-02   -0.98923E-03  7696   0.139E-01 0.746E-04
CGA:  17    -0.334446642870E+03   -0.39705E-03   -0.39713E-03  7696   0.213E-01 0.158E-05
CGA:  18    -0.334447448698E+03   -0.80583E-03   -0.80573E-03  7696   0.155E-01 0.607E-04
CGA:  19    -0.334447696700E+03   -0.24800E-03   -0.24704E-03  7696   0.292E-02 0.395E-04
CGA:  20    -0.334447842084E+03   -0.14538E-03   -0.14517E-03  7696   0.803E-02 0.141E-04
CGA:  21    -0.334448315964E+03   -0.47388E-03   -0.47422E-03  7696   0.487E-02-0.107E-04
CGA:  22    -0.334448392479E+03   -0.76515E-04   -0.76891E-04  7696   0.181E-02-0.657E-05
CGA:  23    -0.334448470475E+03   -0.77997E-04   -0.77951E-04  7696   0.354E-02 0.551E-05
CGA:  24    -0.334448556459E+03   -0.85984E-04   -0.86039E-04  7696   0.193E-02 0.942E-06
CGA:  25    -0.334448623479E+03   -0.67020E-04   -0.67027E-04  7696   0.253E-02 0.219E-05
CGA:  26    -0.334448718588E+03   -0.95109E-04   -0.95136E-04  7696   0.121E-02-0.121E-04
CGA:  27    -0.334448743249E+03   -0.24661E-04   -0.24701E-04  7696   0.708E-03 0.541E-06
CGA:  28    -0.334448796007E+03   -0.52758E-04   -0.52625E-04  7696   0.136E-02 0.337E-05
CGA:  29    -0.334448818367E+03   -0.22360E-04   -0.22433E-04  7696   0.309E-03 0.884E-06
CGA:  30    -0.334448826316E+03   -0.79490E-05   -0.79559E-05  7696   0.421E-03 0.509E-06
CGA:  31    -0.334448852161E+03   -0.25845E-04   -0.25860E-04  7696   0.736E-03-0.565E-06
SDA:  32    -0.334448866112E+03   -0.13951E-04   -0.13969E-04  7696   0.118E-03-0.722E-07
CGA:  33    -0.334448868259E+03   -0.21468E-05   -0.21448E-05  7696   0.941E-04-0.513E-07
  11 F= -.33444887E+03 E0= -.33441889E+03  d E =-.411365E-01  mag=    32.0000
       N       E                     dE             d eps       ncg     rms          ort
SDA:   1    -0.307929439003E+03    0.26519E+02    0.00000E+00  7696   0.831E+03 0.000E+00
CGA:   2    -0.313716101206E+03   -0.57867E+01   -0.15853E+02  7696   0.229E+03-0.202E+03
CGA:   3    -0.319152927380E+03   -0.54368E+01   -0.40738E+01  7696   0.607E+02 0.195E+02
CGA:   4    -0.320831555922E+03   -0.16786E+01   -0.13473E+01  7696   0.102E+03 0.435E+01
CGA:   5    -0.325242811457E+03   -0.44113E+01   -0.42855E+01  7696   0.184E+03 0.146E+02
CGA:   6    -0.329635487478E+03   -0.43927E+01   -0.45892E+01  7696   0.112E+03 0.510E+00
CGA:   7    -0.331537123757E+03   -0.19016E+01   -0.10080E+01  7696   0.565E+02 0.893E+02
CGA:   8    -0.332185918800E+03   -0.64880E+00   -0.46292E+00  7696   0.114E+02 0.168E+02
CGA:   9    -0.332380169605E+03   -0.19425E+00   -0.17442E+00  7696   0.116E+02 0.981E+00
CGA:  10    -0.332598791297E+03   -0.21862E+00   -0.21690E+00  7696   0.220E+02 0.760E-01
CGA:  11    -0.332938710831E+03   -0.33992E+00   -0.34009E+00  7696   0.442E+02 0.721E-01
CGA:  12    -0.333509689068E+03   -0.57098E+00   -0.58534E+00  7696   0.257E+02-0.564E+00
CGA:  13    -0.333660491588E+03   -0.15080E+00   -0.16710E+00  7696   0.552E+01-0.192E+01
CGA:  14    -0.333727743535E+03   -0.67252E-01   -0.66976E-01  7696   0.799E+01 0.667E-02
CGA:  15    -0.333961464173E+03   -0.23372E+00   -0.23617E+00  7696   0.170E+02-0.535E+00
CGA:  16    -0.334060215336E+03   -0.98751E-01   -0.77108E-01  7696   0.930E+01 0.395E+01
CGA:  17    -0.334126099603E+03   -0.65884E-01   -0.65322E-01  7696   0.496E+01 0.272E-01
CGA:  18    -0.334163960652E+03   -0.37861E-01   -0.38276E-01  7696   0.529E+01-0.676E-01
CGA:  19    -0.334205457281E+03   -0.41497E-01   -0.46247E-01  7696   0.634E+01-0.369E+00
CGA:  20    -0.334260713330E+03   -0.55256E-01   -0.62126E-01  7696   0.786E+01-0.325E+00
CGA:  21    -0.334345398382E+03   -0.84685E-01   -0.88184E-01  7696   0.675E+01-0.981E-01
CGA:  22    -0.334393295240E+03   -0.47897E-01   -0.44385E-01  7696   0.178E+01 0.430E+00
CGA:  23    -0.334405224037E+03   -0.11929E-01   -0.11444E-01  7696   0.715E+00 0.656E-01
CGA:  24    -0.334414689446E+03   -0.94654E-02   -0.93630E-02  7696   0.133E+01 0.154E-02
CGA:  25    -0.334436415026E+03   -0.21726E-01   -0.21836E-01  7696   0.273E+01 0.958E-02
CGA:  26    -0.334463310961E+03   -0.26896E-01   -0.28273E-01  7696   0.147E+01-0.569E-01
CGA:  27    -0.334474752404E+03   -0.11441E-01   -0.11953E-01  7696   0.669E+00-0.387E-01
CGA:  28    -0.334480820916E+03   -0.60685E-02   -0.59640E-02  7696   0.376E+00 0.591E-02
CGA:  29    -0.334485320428E+03   -0.44995E-02   -0.44741E-02  7696   0.481E+00 0.101E-03
CGA:  30    -0.334494710812E+03   -0.93904E-02   -0.94022E-02  7696   0.109E+01-0.444E-02
CGA:  31    -0.334506750131E+03   -0.12039E-01   -0.12098E-01  7696   0.619E+00-0.135E-03
CGA:  32    -0.334510518146E+03   -0.37680E-02   -0.38357E-02  7696   0.131E+00-0.816E-02
CGA:  33    -0.334511610964E+03   -0.10928E-02   -0.11085E-02  7696   0.104E+00-0.939E-03
CGA:  34    -0.334513894967E+03   -0.22840E-02   -0.22806E-02  7696   0.299E+00 0.464E-03
CGA:  35    -0.334519416621E+03   -0.55217E-02   -0.55333E-02  7696   0.510E+00-0.458E-02
CGA:  36    -0.334524931653E+03   -0.55150E-02   -0.54530E-02  7696   0.399E+00 0.918E-03
CGA:  37    -0.334528265365E+03   -0.33337E-02   -0.33829E-02  7696   0.175E+00-0.272E-02
SDA:  38    -0.334529556012E+03   -0.12906E-02   -0.13029E-02  7696   0.797E-01-0.888E-03
CGA:  39    -0.334532138000E+03   -0.25820E-02   -0.25760E-02  7696   0.857E-01 0.358E-03
CGA:  40    -0.334534418994E+03   -0.22810E-02   -0.22793E-02  7696   0.401E-01 0.133E-03
CGA:  41    -0.334535038779E+03   -0.61978E-03   -0.61997E-03  7696   0.167E-01 0.291E-04
CGA:  42    -0.334536732870E+03   -0.16941E-02   -0.45991E-04  7696   0.989E-01-0.146E-02
CGA:  43    -0.334538086582E+03   -0.13537E-02   -0.13356E-02  7696   0.925E-02 0.589E-03
CGA:  44    -0.334538303870E+03   -0.21729E-03   -0.21728E-03  7696   0.181E-01 0.170E-05
CGA:  45    -0.334539319075E+03   -0.10152E-02   -0.10123E-02  7696   0.237E-01 0.110E-03
CGA:  46    -0.334539622651E+03   -0.30358E-03   -0.30672E-03  7696   0.638E-02-0.128E-03
CGA:  47    -0.334539749656E+03   -0.12700E-03   -0.12704E-03  7696   0.650E-02 0.408E-06
CGA:  48    -0.334540100783E+03   -0.35113E-03   -0.35396E-03  7696   0.180E-01-0.113E-03
CGA:  49    -0.334540368817E+03   -0.26803E-03   -0.26975E-03  7696   0.303E-02-0.490E-04
CGA:  50    -0.334540418739E+03   -0.49923E-04   -0.50031E-04  7696   0.343E-02-0.487E-05
CGA:  51    -0.334540682085E+03   -0.26335E-03   -0.26421E-03  7696   0.779E-02-0.210E-04
CGA:  52    -0.334540769981E+03   -0.87897E-04   -0.87500E-04  7696   0.253E-02 0.577E-05
CGA:  53    -0.334540911457E+03   -0.14148E-03   -0.14384E-03  7696   0.828E-02-0.920E-04
CGA:  54    -0.334541021780E+03   -0.11032E-03   -0.10933E-03  7696   0.208E-02 0.326E-04
CGA:  55    -0.334541050100E+03   -0.28321E-04   -0.28406E-04  7696   0.140E-02-0.950E-05
CGA:  56    -0.334541093742E+03   -0.43642E-04   -0.43644E-04  7696   0.325E-02-0.350E-05
CGA:  57    -0.334541194392E+03   -0.10065E-03   -0.10065E-03  7696   0.436E-02-0.425E-05
CGA:  58    -0.334541249201E+03   -0.54809E-04   -0.55526E-04  7696   0.100E-02-0.377E-04
CGA:  59    -0.334541265531E+03   -0.16331E-04   -0.16378E-04  7696   0.116E-02-0.973E-06
CGA:  60    -0.334541323052E+03   -0.57521E-04   -0.58674E-04  7696   0.243E-02-0.526E-04
CGA:  61    -0.334541345396E+03   -0.22344E-04   -0.21475E-04  7696   0.634E-03 0.778E-04
CGA:  62    -0.334541356505E+03   -0.11108E-04   -0.11111E-04  7696   0.110E-02 0.388E-06
CGA:  63    -0.334541388680E+03   -0.32175E-04   -0.32158E-04  7696   0.175E-02 0.111E-04
CGA:  64    -0.334541405795E+03   -0.17116E-04   -0.17571E-04  7696   0.524E-03-0.306E-04
CGA:  65    -0.334541415025E+03   -0.92299E-05   -0.92492E-05  7696   0.766E-03-0.635E-06
CGA:  66    -0.334541435744E+03   -0.20719E-04   -0.20721E-04  7696   0.133E-02-0.201E-04
CGA:  67    -0.334541452802E+03   -0.17058E-04   -0.15441E-04  7696   0.763E-03 0.859E-04
CGA:  68    -0.334541460234E+03   -0.74323E-05   -0.72740E-05  7696   0.290E-03 0.134E-04
  12 F= -.33454146E+03 E0= -.33451124E+03  d E =-.925920E-01  mag=    32.0000
       N       E                     dE             d eps       ncg     rms          ort
SDA:   1    -0.333121077830E+03    0.14204E+01    0.00000E+00  7696   0.454E+02 0.000E+00
CGA:   2    -0.333597574428E+03   -0.47650E+00   -0.44418E+00  7696   0.399E+01 0.317E+01
CGA:   3    -0.333707634109E+03   -0.11006E+00   -0.11061E+00  7696   0.572E+01-0.160E+00
CGA:   4    -0.333999065008E+03   -0.29143E+00   -0.30082E+00  7696   0.120E+02-0.381E+00
CGA:   5    -0.334185103476E+03   -0.18604E+00   -0.18633E+00  7696   0.534E+01-0.297E-01
CGA:   6    -0.334270529796E+03   -0.85426E-01   -0.87312E-01  7696   0.350E+01 0.831E-02
CGA:   7    -0.334357745979E+03   -0.87216E-01   -0.87127E-01  7696   0.111E+01 0.425E+00
CGA:   8    -0.334397650833E+03   -0.39905E-01   -0.39767E-01  7696   0.268E+01 0.138E-01
CGA:   9    -0.334501030386E+03   -0.10338E+00   -0.10338E+00  7696   0.895E+00-0.105E-03
CGA:  10    -0.334512536482E+03   -0.11506E-01   -0.11245E-01  7696   0.252E+00 0.109E-01
CGA:  11    -0.334519817518E+03   -0.72810E-02   -0.72738E-02  7696   0.417E+00 0.129E-02
CGA:  12    -0.334534847057E+03   -0.15030E-01   -0.15233E-01  7696   0.361E+00-0.152E-01
CGA:  13    -0.334540678794E+03   -0.58317E-02   -0.58238E-02  7696   0.202E+00 0.304E-04
CGA:  14    -0.334546643120E+03   -0.59643E-02   -0.59121E-02  7696   0.178E+00 0.843E-02
CGA:  15    -0.334549383620E+03   -0.27405E-02   -0.27895E-02  7696   0.476E-01-0.818E-03
CGA:  16    -0.334552156648E+03   -0.27730E-02   -0.27600E-02  7696   0.869E-01 0.410E-03
CGA:  17    -0.334554253845E+03   -0.20972E-02   -0.20979E-02  7696   0.190E-01 0.113E-03
CGA:  18    -0.334554942278E+03   -0.68843E-03   -0.68950E-03  7696   0.486E-01-0.874E-04
CGA:  19    -0.334556683875E+03   -0.17416E-02   -0.17491E-02  7696   0.265E-01-0.628E-03
CGA:  20    -0.334557397062E+03   -0.71319E-03   -0.71321E-03  7696   0.227E-01 0.497E-04
CGA:  21    -0.334557909971E+03   -0.51291E-03   -0.51380E-03  7696   0.666E-02 0.542E-04
CGA:  22    -0.334558028923E+03   -0.11895E-03   -0.11913E-03  7696   0.415E-02 0.431E-05
CGA:  23    -0.334558285170E+03   -0.25625E-03   -0.25529E-03  7696   0.165E-01 0.282E-04
CGA:  24    -0.334558799738E+03   -0.51457E-03   -0.51454E-03  7696   0.297E-02 0.181E-04
CGA:  25    -0.334558918631E+03   -0.11889E-03   -0.11921E-03  7696   0.323E-02-0.219E-04
CGA:  26    -0.334558969480E+03   -0.50850E-04   -0.50583E-04  7696   0.124E-02 0.447E-05
CGA:  27    -0.334559036423E+03   -0.66942E-04   -0.67051E-04  7696   0.409E-02-0.422E-05
CGA:  28    -0.334559174621E+03   -0.13820E-03   -0.13823E-03  7696   0.190E-02-0.740E-05
CGA:  29    -0.334559206971E+03   -0.32350E-04   -0.32302E-04  7696   0.653E-03-0.115E-05
CGA:  30    -0.334559247292E+03   -0.40321E-04   -0.40097E-04  7696   0.188E-02 0.695E-05
CGA:  31    -0.334559279071E+03   -0.31779E-04   -0.31871E-04  7696   0.533E-03 0.402E-05
SDA:  32    -0.334559315333E+03   -0.36262E-04   -0.36292E-04  7696   0.541E-03-0.987E-06
CGA:  33    -0.334559324413E+03   -0.90799E-05   -0.90822E-05  7696   0.323E-03-0.589E-06
CGA:  34    -0.334559343565E+03   -0.19152E-04   -0.19242E-04  7696   0.468E-03-0.322E-05
CGA:  35    -0.334559352962E+03   -0.93962E-05   -0.93888E-05  7696   0.165E-03-0.814E-06
  13 F= -.33455935E+03 E0= -.33452921E+03  d E =-.178927E-01  mag=    32.0000
       N       E                     dE             d eps       ncg     rms          ort
SDA:   1    -0.334448737655E+03    0.11061E+00    0.00000E+00  7696   0.226E+01 0.000E+00
CGA:   2    -0.334473633725E+03   -0.24896E-01   -0.27561E-01  7696   0.455E+00-0.152E+00
CGA:   3    -0.334491234367E+03   -0.17601E-01   -0.17597E-01  7696   0.894E+00 0.243E-03
CGA:   4    -0.334521374854E+03   -0.30140E-01   -0.30149E-01  7696   0.642E+00-0.236E-02
CGA:   5    -0.334532095669E+03   -0.10721E-01   -0.10826E-01  7696   0.276E+00-0.276E-02
CGA:   6    -0.334545279060E+03   -0.13183E-01   -0.13592E-01  7696   0.289E+00-0.201E-01
CGA:   7    -0.334551209005E+03   -0.59299E-02   -0.59725E-02  7696   0.146E+00 0.264E-03
CGA:   8    -0.334557485813E+03   -0.62768E-02   -0.62828E-02  7696   0.213E+00-0.400E-03
CGA:   9    -0.334562354427E+03   -0.48686E-02   -0.49118E-02  7696   0.512E-01 0.620E-03
CGA:  10    -0.334563138739E+03   -0.78431E-03   -0.78839E-03  7696   0.277E-01-0.134E-03
CGA:  11    -0.334565205053E+03   -0.20663E-02   -0.20983E-02  7696   0.389E-01-0.785E-03
CGA:  12    -0.334565833541E+03   -0.62849E-03   -0.63148E-03  7696   0.122E-01-0.840E-04
CGA:  13    -0.334566343267E+03   -0.50973E-03   -0.50891E-03  7696   0.152E-01 0.648E-04
CGA:  14    -0.334566679764E+03   -0.33650E-03   -0.33688E-03  7696   0.617E-02 0.642E-05
CGA:  15    -0.334566812185E+03   -0.13242E-03   -0.13239E-03  7696   0.538E-02 0.913E-06
CGA:  16    -0.334567088742E+03   -0.27656E-03   -0.27715E-03  7696   0.262E-02-0.265E-04
CGA:  17    -0.334567136839E+03   -0.48097E-04   -0.48167E-04  7696   0.171E-02-0.137E-05
CGA:  18    -0.334567251466E+03   -0.11463E-03   -0.11473E-03  7696   0.405E-02-0.286E-05
CGA:  19    -0.334567335479E+03   -0.84013E-04   -0.84072E-04  7696   0.131E-02-0.239E-05
CGA:  20    -0.334567360636E+03   -0.25158E-04   -0.25183E-04  7696   0.801E-03-0.249E-06
CGA:  21    -0.334567401375E+03   -0.40739E-04   -0.40889E-04  7696   0.518E-03-0.726E-05
CGA:  22    -0.334567414473E+03   -0.13098E-04   -0.13109E-04  7696   0.641E-03 0.126E-05
CGA:  23    -0.334567447849E+03   -0.33377E-04   -0.33283E-04  7696   0.724E-03 0.481E-05
CGA:  24    -0.334567459720E+03   -0.11871E-04   -0.11884E-04  7696   0.192E-03 0.124E-05
CGA:  25    -0.334567465199E+03   -0.54790E-05   -0.54791E-05  7696   0.238E-03-0.277E-07
CGA:  26    -0.334567479985E+03   -0.14786E-04   -0.14829E-04  7696   0.187E-03-0.143E-05
CGA:  27    -0.334567483442E+03   -0.34570E-05   -0.34578E-05  7696   0.123E-03-0.108E-07
  14 F= -.33456748E+03 E0= -.33453739E+03  d E =-.813048E-02  mag=    32.0000
       N       E                     dE             d eps       ncg     rms          ort
SDA:   1    -0.334416708258E+03    0.15077E+00    0.00000E+00  7696   0.174E+01 0.000E+00
CGA:   2    -0.334435781019E+03   -0.19073E-01   -0.19814E-01  7696   0.475E+00-0.488E-01
CGA:   3    -0.334487578499E+03   -0.51797E-01   -0.51369E-01  7696   0.238E+01 0.631E-02
CGA:   4    -0.334532757253E+03   -0.45179E-01   -0.44720E-01  7696   0.470E+00 0.120E-01
CGA:   5    -0.334543634006E+03   -0.10877E-01   -0.10927E-01  7696   0.321E+00-0.150E-03
CGA:   6    -0.334555948415E+03   -0.12314E-01   -0.12443E-01  7696   0.243E+00-0.209E-01
CGA:   7    -0.334559697184E+03   -0.37488E-02   -0.36979E-02  7696   0.143E+00 0.178E-02
CGA:   8    -0.334569281248E+03   -0.95841E-02   -0.93025E-02  7696   0.433E-01 0.881E-02
CGA:   9    -0.334569973684E+03   -0.69244E-03   -0.68657E-03  7696   0.203E-01 0.245E-03
CGA:  10    -0.334571970786E+03   -0.19971E-02   -0.20081E-02  7696   0.387E-01-0.200E-03
CGA:  11    -0.334572490188E+03   -0.51940E-03   -0.52157E-03  7696   0.110E-01-0.114E-03
CGA:  12    -0.334572822260E+03   -0.33207E-03   -0.33235E-03  7696   0.114E-01 0.164E-04
CGA:  13    -0.334573157206E+03   -0.33495E-03   -0.33620E-03  7696   0.400E-02 0.547E-04
CGA:  14    -0.334573266371E+03   -0.10916E-03   -0.10910E-03  7696   0.489E-02-0.127E-05
CGA:  15    -0.334573484853E+03   -0.21848E-03   -0.21859E-03  7696   0.220E-02-0.803E-05
CGA:  16    -0.334573520621E+03   -0.35768E-04   -0.35763E-04  7696   0.175E-02-0.565E-07
CGA:  17    -0.334573657797E+03   -0.13718E-03   -0.13745E-03  7696   0.212E-02-0.652E-05
CGA:  18    -0.334573689367E+03   -0.31570E-04   -0.31649E-04  7696   0.398E-03-0.285E-05
CGA:  19    -0.334573704697E+03   -0.15329E-04   -0.15332E-04  7696   0.664E-03-0.527E-06
CGA:  20    -0.334573730562E+03   -0.25865E-04   -0.25869E-04  7696   0.565E-03-0.662E-06
CGA:  21    -0.334573743044E+03   -0.12483E-04   -0.12498E-04  7696   0.656E-03 0.127E-05
CGA:  22    -0.334573775882E+03   -0.32838E-04   -0.32743E-04  7696   0.199E-03 0.634E-05
CGA:  23    -0.334573779039E+03   -0.31574E-05   -0.31687E-05  7696   0.970E-04 0.321E-06
CGA:  24    -0.334573790641E+03   -0.11601E-04   -0.11726E-04  7696   0.336E-03-0.150E-05
CGA:  25    -0.334573796473E+03   -0.58320E-05   -0.58335E-05  7696   0.131E-03-0.211E-06
  15 F= -.33457380E+03 E0= -.33454373E+03  d E =-.631303E-02  mag=    32.0000
       N       E                     dE             d eps       ncg     rms          ort
SDA:   1    -0.334391409825E+03    0.18238E+00    0.00000E+00  7696   0.240E+01 0.000E+00
CGA:   2    -0.334417065789E+03   -0.25656E-01   -0.29159E-01  7696   0.671E+00-0.220E+00
CGA:   3    -0.334449642949E+03   -0.32577E-01   -0.32462E-01  7696   0.195E+01 0.563E-02
CGA:   4    -0.334526505351E+03   -0.76862E-01   -0.76927E-01  7696   0.154E+01-0.206E-01
CGA:   5    -0.334549096047E+03   -0.22591E-01   -0.23576E-01  7696   0.297E+00-0.419E-01
CGA:   6    -0.334558872558E+03   -0.97765E-02   -0.97755E-02  7696   0.242E+00-0.147E-03
CGA:   7    -0.334565682754E+03   -0.68102E-02   -0.68500E-02  7696   0.202E+00 0.116E-02
CGA:   8    -0.334570663562E+03   -0.49808E-02   -0.49656E-02  7696   0.149E+00-0.449E-04
CGA:   9    -0.334575490749E+03   -0.48272E-02   -0.48259E-02  7696   0.113E+00-0.177E-03
CGA:  10    -0.334577533765E+03   -0.20430E-02   -0.20489E-02  7696   0.290E-01-0.145E-03
CGA:  11    -0.334578314959E+03   -0.78119E-03   -0.77898E-03  7696   0.213E-01-0.758E-04
CGA:  12    -0.334579215047E+03   -0.90009E-03   -0.89903E-03  7696   0.307E-01 0.876E-04
CGA:  13    -0.334579796232E+03   -0.58118E-03   -0.58204E-03  7696   0.865E-02-0.199E-04
CGA:  14    -0.334580007320E+03   -0.21109E-03   -0.21097E-03  7696   0.657E-02-0.148E-05
CGA:  15    -0.334580278046E+03   -0.27073E-03   -0.27054E-03  7696   0.957E-02 0.181E-04
CGA:  16    -0.334580536407E+03   -0.25836E-03   -0.25830E-03  7696   0.269E-02 0.289E-05
CGA:  17    -0.334580585395E+03   -0.48988E-04   -0.48965E-04  7696   0.135E-02 0.366E-06
CGA:  18    -0.334580627513E+03   -0.42118E-04   -0.42115E-04  7696   0.173E-02-0.129E-05
CGA:  19    -0.334580708701E+03   -0.81189E-04   -0.81247E-04  7696   0.191E-02-0.375E-05
CGA:  20    -0.334580749247E+03   -0.40545E-04   -0.40568E-04  7696   0.838E-03-0.112E-06
CGA:  21    -0.334580771857E+03   -0.22611E-04   -0.22605E-04  7696   0.505E-03-0.596E-06
CGA:  22    -0.334580784559E+03   -0.12702E-04   -0.12715E-04  7696   0.391E-03 0.141E-05
CGA:  23    -0.334580795375E+03   -0.10816E-04   -0.10823E-04  7696   0.400E-03 0.154E-05
CGA:  24    -0.334580819151E+03   -0.23776E-04   -0.23719E-04  7696   0.658E-03 0.209E-05
CGA:  25    -0.334580833636E+03   -0.14485E-04   -0.14512E-04  7696   0.226E-03 0.191E-05
CGA:  26    -0.334580838075E+03   -0.44392E-05   -0.44464E-05  7696   0.106E-03 0.581E-06
  16 F= -.33458084E+03 E0= -.33455078E+03  d E =-.704160E-02  mag=    32.0000
       N       E                     dE             d eps       ncg     rms          ort
SDA:   1    -0.320299176815E+03    0.14282E+02    0.00000E+00  7696   0.328E+03 0.000E+00
CGA:   2    -0.322996850798E+03   -0.26977E+01   -0.50027E+01  7696   0.924E+02-0.921E+02
CGA:   3    -0.325198026359E+03   -0.22012E+01   -0.23134E+01  7696   0.110E+03-0.204E+02
CGA:   4    -0.329051912337E+03   -0.38539E+01   -0.36887E+01  7696   0.833E+02 0.115E+02
CGA:   5    -0.330634267403E+03   -0.15824E+01   -0.16898E+01  7696   0.509E+02-0.250E+01
CGA:   6    -0.331679022634E+03   -0.10448E+01   -0.98986E+00  7696   0.335E+02-0.136E+00
CGA:   7    -0.332687742757E+03   -0.10087E+01   -0.10130E+01  7696   0.345E+02 0.301E+01
CGA:   8    -0.333323284732E+03   -0.63554E+00   -0.57835E+00  7696   0.167E+02 0.178E+01
CGA:   9    -0.333727120113E+03   -0.40384E+00   -0.37026E+00  7696   0.115E+02-0.318E+00
CGA:  10    -0.334030024325E+03   -0.30290E+00   -0.30564E+00  7696   0.981E+01 0.426E+00
CGA:  11    -0.334274912149E+03   -0.24489E+00   -0.23305E+00  7696   0.626E+01-0.366E+00
CGA:  12    -0.334383812809E+03   -0.10890E+00   -0.10688E+00  7696   0.308E+01 0.251E-01
CGA:  13    -0.334459468265E+03   -0.75655E-01   -0.76140E-01  7696   0.159E+01 0.401E-01
CGA:  14    -0.334502290542E+03   -0.42822E-01   -0.42667E-01  7696   0.153E+01-0.325E-01
CGA:  15    -0.334537304124E+03   -0.35014E-01   -0.34949E-01  7696   0.123E+01-0.355E-02
CGA:  16    -0.334565987147E+03   -0.28683E-01   -0.28803E-01  7696   0.765E+00 0.812E-02
CGA:  17    -0.334583063260E+03   -0.17076E-01   -0.16842E-01  7696   0.354E+00-0.863E-02
CGA:  18    -0.334592584494E+03   -0.95212E-02   -0.95240E-02  7696   0.280E+00 0.313E-02
CGA:  19    -0.334598506849E+03   -0.59224E-02   -0.59215E-02  7696   0.231E+00 0.819E-05
CGA:  20    -0.334605222965E+03   -0.67161E-02   -0.67220E-02  7696   0.184E+00-0.179E-02
CGA:  21    -0.334610548071E+03   -0.53251E-02   -0.53146E-02  7696   0.131E+00 0.323E-02
CGA:  22    -0.334613469042E+03   -0.29210E-02   -0.29103E-02  7696   0.705E-01-0.446E-03
CGA:  23    -0.334615138704E+03   -0.16697E-02   -0.16725E-02  7696   0.640E-01 0.309E-03
CGA:  24    -0.334616771232E+03   -0.16325E-02   -0.16334E-02  7696   0.541E-01 0.249E-03
[...]
CGA:   8    -0.334850360241E+03   -0.46249E-03   -0.46372E-03  7696   0.178E-01 0.308E-04
CGA:   9    -0.334850765427E+03   -0.40519E-03   -0.40749E-03  7696   0.343E-02-0.131E-04
CGA:  10    -0.334851032571E+03   -0.26714E-03   -0.26716E-03  7696   0.756E-02-0.378E-06
CGA:  11    -0.334851194049E+03   -0.16148E-03   -0.16118E-03  7696   0.123E-02 0.578E-05
CGA:  12    -0.334851212388E+03   -0.18339E-04   -0.18410E-04  7696   0.625E-03-0.121E-05
CGA:  13    -0.334851267770E+03   -0.55382E-04   -0.55332E-04  7696   0.172E-02 0.105E-05
CGA:  14    -0.334851300680E+03   -0.32910E-04   -0.32858E-04  7696   0.280E-03 0.956E-06
CGA:  15    -0.334851308072E+03   -0.73918E-05   -0.73911E-05  7696   0.190E-03-0.892E-07
 104 F= -.33485131E+03 E0= -.33482267E+03  d E =-.149545E-03  mag=    32.0000
       N       E                     dE             d eps       ncg     rms          ort
SDA:   1    -0.334614475568E+03    0.23683E+00    0.00000E+00  7696   0.828E+00 0.000E+00
CGA:   2    -0.334654099725E+03   -0.39624E-01   -0.40156E-01  7696   0.166E+01-0.395E-01
CGA:   3    -0.334732410985E+03   -0.78311E-01   -0.79134E-01  7696   0.211E+01-0.574E-01
CGA:   4    -0.334787945307E+03   -0.55534E-01   -0.55769E-01  7696   0.119E+01 0.573E-03
CGA:   5    -0.334816454613E+03   -0.28509E-01   -0.30500E-01  7696   0.272E+00 0.171E-02
CGA:   6    -0.334821839708E+03   -0.53851E-02   -0.54220E-02  7696   0.256E+00-0.843E-03
CGA:   7    -0.334840491468E+03   -0.18652E-01   -0.18655E-01  7696   0.266E+00-0.795E-04
CGA:   8    -0.334844135522E+03   -0.36441E-02   -0.35784E-02  7696   0.445E-01 0.356E-02
CGA:   9    -0.334845962606E+03   -0.18271E-02   -0.18266E-02  7696   0.680E-01 0.177E-03
CGA:  10    -0.334848656301E+03   -0.26937E-02   -0.26937E-02  7696   0.230E-01-0.245E-04
CGA:  11    -0.334849040482E+03   -0.38418E-03   -0.38454E-03  7696   0.141E-01-0.140E-04
CGA:  12    -0.334849695478E+03   -0.65500E-03   -0.65899E-03  7696   0.104E-01-0.303E-03
CGA:  13    -0.334850052420E+03   -0.35694E-03   -0.35700E-03  7696   0.136E-01 0.930E-05
CGA:  14    -0.334850443434E+03   -0.39101E-03   -0.39130E-03  7696   0.490E-02 0.705E-05
CGA:  15    -0.334850526315E+03   -0.82881E-04   -0.83100E-04  7696   0.132E-02-0.337E-05
CGA:  16    -0.334850600810E+03   -0.74495E-04   -0.74506E-04  7696   0.463E-02-0.515E-06
CGA:  17    -0.334850746422E+03   -0.14561E-03   -0.14562E-03  7696   0.495E-03 0.120E-05
CGA:  18    -0.334850764361E+03   -0.17938E-04   -0.17938E-04  7696   0.762E-03-0.156E-06
CGA:  19    -0.334850794203E+03   -0.29842E-04   -0.29836E-04  7696   0.919E-03 0.131E-05
CGA:  20    -0.334850812615E+03   -0.18413E-04   -0.18385E-04  7696   0.293E-03-0.146E-05
CGA:  21    -0.334850826908E+03   -0.14293E-04   -0.14321E-04  7696   0.197E-03-0.195E-05
CGA:  22    -0.334850831226E+03   -0.43179E-05   -0.43152E-05  7696   0.196E-03-0.119E-06
CGA:  23    -0.334850844178E+03   -0.12952E-04   -0.12895E-04  7696   0.243E-03 0.188E-05
CGA:  24    -0.334850848218E+03   -0.40398E-05   -0.40472E-05  7696   0.541E-04 0.294E-06
 105 F= -.33485085E+03 E0= -.33482229E+03  d E =0.459854E-03  mag=    32.0000
       N       E                     dE             d eps       ncg     rms          ort
SDA:   1    -0.334809076804E+03    0.41767E-01    0.00000E+00  7696   0.226E+01 0.000E+00
CGA:   2    -0.334828145662E+03   -0.19069E-01   -0.21989E-01  7696   0.134E+00-0.245E+00
CGA:   3    -0.334831495278E+03   -0.33496E-02   -0.33458E-02  7696   0.153E+00-0.140E-03
CGA:   4    -0.334839259852E+03   -0.77646E-02   -0.77411E-02  7696   0.206E+00 0.120E-02
CGA:   5    -0.334843734932E+03   -0.44751E-02   -0.44399E-02  7696   0.743E-01 0.382E-03
CGA:   6    -0.334845993092E+03   -0.22582E-02   -0.22588E-02  7696   0.643E-01 0.498E-04
CGA:   7    -0.334847497810E+03   -0.15047E-02   -0.14928E-02  7696   0.302E-01-0.266E-04
CGA:   8    -0.334848862470E+03   -0.13647E-02   -0.13631E-02  7696   0.529E-01 0.104E-03
CGA:   9    -0.334850217719E+03   -0.13552E-02   -0.13541E-02  7696   0.127E-01-0.279E-04
CGA:  10    -0.334850446837E+03   -0.22912E-03   -0.23017E-03  7696   0.638E-02-0.207E-04
CGA:  11    -0.334850790171E+03   -0.34333E-03   -0.34398E-03  7696   0.119E-01-0.251E-04
CGA:  12    -0.334851060967E+03   -0.27080E-03   -0.27091E-03  7696   0.256E-02-0.212E-05
CGA:  13    -0.334851113747E+03   -0.52779E-04   -0.52738E-04  7696   0.166E-02-0.182E-05
CGA:  14    -0.334851195826E+03   -0.82080E-04   -0.81984E-04  7696   0.249E-02 0.462E-05
CGA:  15    -0.334851251241E+03   -0.55414E-04   -0.55321E-04  7696   0.830E-03-0.447E-05
CGA:  16    -0.334851274670E+03   -0.23429E-04   -0.23426E-04  7696   0.653E-03-0.909E-06
CGA:  17    -0.334851291128E+03   -0.16459E-04   -0.16435E-04  7696   0.322E-03-0.212E-05
CGA:  18    -0.334851302408E+03   -0.11279E-04   -0.11278E-04  7696   0.493E-03 0.467E-06
CGA:  19    -0.334851322237E+03   -0.19829E-04   -0.19831E-04  7696   0.296E-03-0.149E-06
CGA:  20    -0.334851327229E+03   -0.49919E-05   -0.50013E-05  7696   0.724E-04 0.440E-06
 106 F= -.33485133E+03 E0= -.33482278E+03  d E =-.479011E-03  mag=    32.0000
       N       E                     dE             d eps       ncg     rms          ort
SDA:   1    -0.334800255305E+03    0.51067E-01    0.00000E+00  7696   0.127E+01 0.000E+00
CGA:   2    -0.334812516689E+03   -0.12261E-01   -0.11627E-01  7696   0.116E+00 0.551E-01
CGA:   3    -0.334820360880E+03   -0.78442E-02   -0.78021E-02  7696   0.367E+00 0.130E-02
CGA:   4    -0.334835892556E+03   -0.15532E-01   -0.15500E-01  7696   0.492E+00 0.257E-02
CGA:   5    -0.334842805536E+03   -0.69130E-02   -0.68614E-02  7696   0.657E-01 0.254E-02
CGA:   6    -0.334845537620E+03   -0.27321E-02   -0.28037E-02  7696   0.862E-01-0.535E-02
CGA:   7    -0.334846666667E+03   -0.11290E-02   -0.11265E-02  7696   0.383E-01 0.105E-03
CGA:   8    -0.334848164568E+03   -0.14979E-02   -0.14951E-02  7696   0.926E-01 0.263E-03
CGA:   9    -0.334850084852E+03   -0.19203E-02   -0.19242E-02  7696   0.255E-01-0.389E-04
CGA:  10    -0.334850369626E+03   -0.28477E-03   -0.28343E-03  7696   0.647E-02 0.791E-04
CGA:  11    -0.334850581797E+03   -0.21217E-03   -0.21223E-03  7696   0.103E-01-0.168E-04
CGA:  12    -0.334850796527E+03   -0.21473E-03   -0.21400E-03  7696   0.777E-02-0.710E-05
CGA:  13    -0.334850963947E+03   -0.16742E-03   -0.16739E-03  7696   0.477E-02-0.287E-05
CGA:  14    -0.334851083983E+03   -0.12004E-03   -0.12014E-03  7696   0.614E-02 0.874E-05
CGA:  15    -0.334851190671E+03   -0.10669E-03   -0.10717E-03  7696   0.928E-03-0.699E-05
CGA:  16    -0.334851210141E+03   -0.19469E-04   -0.19445E-04  7696   0.140E-02-0.237E-05
CGA:  17    -0.334851268717E+03   -0.58576E-04   -0.58779E-04  7696   0.103E-02-0.136E-04
CGA:  18    -0.334851284617E+03   -0.15900E-04   -0.15909E-04  7696   0.652E-03-0.390E-06
CGA:  19    -0.334851302070E+03   -0.17454E-04   -0.17458E-04  7696   0.659E-03 0.155E-05
CGA:  20    -0.334851318364E+03   -0.16294E-04   -0.16306E-04  7696   0.403E-03 0.201E-05
CGA:  21    -0.334851324669E+03   -0.63055E-05   -0.63144E-05  7696   0.259E-03 0.917E-06
CGA:  22    -0.334851335408E+03   -0.10738E-04   -0.10729E-04  7696   0.312E-03 0.753E-06
CGA:  23    -0.334851339523E+03   -0.41155E-05   -0.41270E-05  7696   0.757E-04 0.712E-06
 107 F= -.33485134E+03 E0= -.33482278E+03  d E =-.122945E-04  mag=    32.0000
       N       E                     dE             d eps       ncg     rms          ort
SDA:   1    -0.334813613977E+03    0.37721E-01    0.00000E+00  7696   0.112E+01 0.000E+00
CGA:   2    -0.334825008954E+03   -0.11395E-01   -0.12047E-01  7696   0.848E-01-0.406E-01
CGA:   3    -0.334831261156E+03   -0.62522E-02   -0.63835E-02  7696   0.382E+00-0.298E-02
CGA:   4    -0.334840610718E+03   -0.93496E-02   -0.93468E-02  7696   0.176E+00-0.227E-03
CGA:   5    -0.334845400828E+03   -0.47901E-02   -0.47969E-02  7696   0.918E-01 0.174E-02
CGA:   6    -0.334847589662E+03   -0.21888E-02   -0.21884E-02  7696   0.353E-01-0.262E-04
CGA:   7    -0.334848458828E+03   -0.86917E-03   -0.87001E-03  7696   0.285E-01 0.830E-04
CGA:   8    -0.334849775039E+03   -0.13162E-02   -0.13192E-02  7696   0.490E-01-0.153E-03
CGA:   9    -0.334850570356E+03   -0.79532E-03   -0.79521E-03  7696   0.520E-02 0.263E-05
CGA:  10    -0.334850818524E+03   -0.24817E-03   -0.24786E-03  7696   0.102E-01 0.154E-04
CGA:  11    -0.334851109000E+03   -0.29048E-03   -0.29045E-03  7696   0.436E-02-0.762E-05
CGA:  12    -0.334851177100E+03   -0.68100E-04   -0.68134E-04  7696   0.122E-02 0.203E-05
CGA:  13    -0.334851211185E+03   -0.34085E-04   -0.34085E-04  7696   0.166E-02-0.349E-06
CGA:  14    -0.334851325092E+03   -0.11391E-03   -0.11423E-03  7696   0.817E-03-0.838E-05
CGA:  15    -0.334851337999E+03   -0.12907E-04   -0.12937E-04  7696   0.302E-03 0.569E-06
CGA:  16    -0.334851347929E+03   -0.99302E-05   -0.99276E-05  7696   0.380E-03 0.938E-06
CGA:  17    -0.334851359160E+03   -0.11231E-04   -0.11233E-04  7696   0.316E-03 0.221E-05
CGA:  18    -0.334851368268E+03   -0.91080E-05   -0.91103E-05  7696   0.200E-03 0.148E-05
 108 F= -.33485137E+03 E0= -.33482282E+03  d E =-.287446E-04  mag=    32.0000
       N       E                     dE             d eps       ncg     rms          ort
SDA:   1    -0.334029811197E+03    0.82155E+00    0.00000E+00  7696   0.250E+01 0.000E+00
CGA:   2    -0.334150167272E+03   -0.12036E+00   -0.12313E+00  7696   0.778E+01-0.119E+00
CGA:   3    -0.334493285571E+03   -0.34312E+00   -0.34844E+00  7696   0.121E+02-0.287E+00
CGA:   4    -0.334695812372E+03   -0.20253E+00   -0.20747E+00  7696   0.108E+01-0.981E-01
CGA:   5    -0.334723221101E+03   -0.27409E-01   -0.27193E-01  7696   0.130E+01-0.939E-02
CGA:   6    -0.334785962038E+03   -0.62741E-01   -0.62130E-01  7696   0.164E+01 0.282E-01
CGA:   7    -0.334813793537E+03   -0.27831E-01   -0.29096E-01  7696   0.517E+00-0.291E-01
CGA:   8    -0.334827757516E+03   -0.13964E-01   -0.13768E-01  7696   0.369E+00-0.165E-01
CGA:   9    -0.334835455496E+03   -0.76980E-02   -0.75162E-02  7696   0.819E-01 0.342E-04
CGA:  10    -0.334839582916E+03   -0.41274E-02   -0.41002E-02  7696   0.232E+00 0.124E-02
CGA:  11    -0.334845447668E+03   -0.58648E-02   -0.58671E-02  7696   0.482E-01 0.147E-03
CGA:  12    -0.334846434325E+03   -0.98666E-03   -0.98864E-03  7696   0.398E-01 0.390E-05
CGA:  13    -0.334848276686E+03   -0.18424E-02   -0.18512E-02  7696   0.415E-01-0.471E-03
CGA:  14    -0.334849129767E+03   -0.85308E-03   -0.85180E-03  7696   0.133E-01-0.699E-05
CGA:  15    -0.334849735899E+03   -0.60613E-03   -0.60070E-03  7696   0.993E-02 0.313E-03
CGA:  16    -0.334849927388E+03   -0.19149E-03   -0.19184E-03  7696   0.632E-02 0.151E-05
CGA:  17    -0.334850268065E+03   -0.34068E-03   -0.34083E-03  7696   0.120E-01-0.612E-05
CGA:  18    -0.334850534630E+03   -0.26657E-03   -0.26579E-03  7696   0.280E-02-0.899E-05
CGA:  19    -0.334850581813E+03   -0.47182E-04   -0.47225E-04  7696   0.114E-02 0.470E-06
CGA:  20    -0.334850687565E+03   -0.10575E-03   -0.10537E-03  7696   0.201E-02 0.717E-05
CGA:  21    -0.334850743649E+03   -0.56084E-04   -0.56065E-04  7696   0.116E-02-0.281E-05
CGA:  22    -0.334850796457E+03   -0.52808E-04   -0.52906E-04  7696   0.572E-03-0.642E-05
CGA:  23    -0.334850808266E+03   -0.11809E-04   -0.11807E-04  7696   0.522E-03 0.539E-06
CGA:  24    -0.334850841844E+03   -0.33578E-04   -0.33337E-04  7696   0.619E-03 0.787E-05
CGA:  25    -0.334850851293E+03   -0.94491E-05   -0.94689E-05  7696   0.179E-03 0.941E-06
CGA:  26    -0.334850862542E+03   -0.11250E-04   -0.11278E-04  7696   0.454E-03-0.996E-06
CGA:  27    -0.334850878058E+03   -0.15516E-04   -0.15515E-04  7696   0.180E-03-0.146E-07
CGA:  28    -0.334850887880E+03   -0.98221E-05   -0.97858E-05  7696   0.118E-03 0.180E-05
 109 F= -.33485089E+03 E0= -.33482239E+03  d E =0.480388E-03  mag=    32.0000
       N       E                     dE             d eps       ncg     rms          ort
SDA:   1    -0.334807904689E+03    0.42973E-01    0.00000E+00  7696   0.789E+00 0.000E+00
CGA:   2    -0.334816422452E+03   -0.85178E-02   -0.80233E-02  7696   0.150E+00 0.387E-01
CGA:   3    -0.334825292723E+03   -0.88703E-02   -0.86123E-02  7696   0.198E+00 0.107E-01
CGA:   4    -0.334832382072E+03   -0.70893E-02   -0.71002E-02  7696   0.267E+00 0.262E-02
CGA:   5    -0.334839676070E+03   -0.72940E-02   -0.72797E-02  7696   0.248E+00-0.346E-03
CGA:   6    -0.334845159697E+03   -0.54836E-02   -0.54141E-02  7696   0.368E-01 0.588E-03
CGA:   7    -0.334846253075E+03   -0.10934E-02   -0.10937E-02  7696   0.676E-01 0.352E-04
CGA:   8    -0.334848785092E+03   -0.25320E-02   -0.25309E-02  7696   0.541E-01 0.211E-03
CGA:   9    -0.334849765445E+03   -0.98035E-03   -0.98517E-03  7696   0.117E-01-0.966E-04
CGA:  10    -0.334850095825E+03   -0.33038E-03   -0.33028E-03  7696   0.173E-01-0.866E-05
CGA:  11    -0.334850772687E+03   -0.67686E-03   -0.67668E-03  7696   0.111E-01 0.169E-04
CGA:  12    -0.334850919029E+03   -0.14634E-03   -0.14695E-03  7696   0.266E-02-0.308E-04
CGA:  13    -0.334851042836E+03   -0.12381E-03   -0.12436E-03  7696   0.291E-02-0.321E-04
CGA:  14    -0.334851118079E+03   -0.75243E-04   -0.75219E-04  7696   0.304E-02-0.225E-05
CGA:  15    -0.334851194610E+03   -0.76531E-04   -0.76591E-04  7696   0.222E-02 0.382E-05
CGA:  16    -0.334851254948E+03   -0.60338E-04   -0.60362E-04  7696   0.367E-03 0.178E-05
CGA:  17    -0.334851264660E+03   -0.97117E-05   -0.97084E-05  7696   0.637E-03-0.608E-06
CGA:  18    -0.334851299267E+03   -0.34607E-04   -0.34614E-04  7696   0.891E-03-0.408E-06
CGA:  19    -0.334851317914E+03   -0.18647E-04   -0.18615E-04  7696   0.102E-03-0.227E-05
CGA:  20    -0.334851320320E+03   -0.24058E-05   -0.24038E-05  7696   0.158E-03-0.204E-06
 110 F= -.33485132E+03 E0= -.33482284E+03  d E =-.432440E-03  mag=    32.0000
       N       E                     dE             d eps       ncg     rms          ort
SDA:   1    -0.334789757086E+03    0.61561E-01    0.00000E+00  7696   0.100E+01 0.000E+00
CGA:   2    -0.334803194341E+03   -0.13437E-01   -0.13754E-01  7696   0.166E+00-0.140E-01
CGA:   3    -0.334812204039E+03   -0.90097E-02   -0.90979E-02  7696   0.513E+00-0.351E-02
CGA:   4    -0.334839811325E+03   -0.27607E-01   -0.27555E-01  7696   0.136E+00 0.217E-02
CGA:   5    -0.334843534438E+03   -0.37231E-02   -0.37466E-02  7696   0.715E-01 0.791E-03
CGA:   6    -0.334846355185E+03   -0.28207E-02   -0.28161E-02  7696   0.669E-01 0.570E-03
CGA:   7    -0.334847850721E+03   -0.14955E-02   -0.14991E-02  7696   0.641E-01-0.349E-04
CGA:   8    -0.334850446694E+03   -0.25960E-02   -0.26029E-02  7696   0.907E-02-0.705E-03
CGA:   9    -0.334850720632E+03   -0.27394E-03   -0.27376E-03  7696   0.940E-02-0.179E-04
CGA:  10    -0.334851140085E+03   -0.41945E-03   -0.41910E-03  7696   0.134E-01 0.276E-04
CGA:  11    -0.334851387132E+03   -0.24705E-03   -0.24731E-03  7696   0.209E-02 0.881E-05
CGA:  12    -0.334851446051E+03   -0.58919E-04   -0.58887E-04  7696   0.291E-02-0.287E-05
CGA:  13    -0.334851591164E+03   -0.14511E-03   -0.14513E-03  7696   0.213E-02-0.554E-06
CGA:  14    -0.334851631829E+03   -0.40665E-04   -0.40662E-04  7696   0.411E-03 0.208E-06
CGA:  15    -0.334851654919E+03   -0.23089E-04   -0.23077E-04  7696   0.115E-02 0.479E-06
CGA:  16    -0.334851683194E+03   -0.28275E-04   -0.28250E-04  7696   0.508E-03-0.151E-05
CGA:  17    -0.334851696522E+03   -0.13328E-04   -0.13327E-04  7696   0.193E-03-0.296E-06
CGA:  18    -0.334851703844E+03   -0.73220E-05   -0.73295E-05  7696   0.101E-03-0.163E-05
 111 F= -.33485170E+03 E0= -.33482320E+03  d E =-.383524E-03  mag=    32.0000
       N       E                     dE             d eps       ncg     rms          ort
SDA:   1    -0.334720014052E+03    0.13168E+00    0.00000E+00  7696   0.942E+00 0.000E+00
CGA:   2    -0.334735272862E+03   -0.15259E-01   -0.14282E-01  7696   0.453E+00 0.383E-01
CGA:   3    -0.334770769661E+03   -0.35497E-01   -0.37847E-01  7696   0.150E+01-0.569E-01
CGA:   4    -0.334796995650E+03   -0.26226E-01   -0.26416E-01  7696   0.109E+01-0.276E-02
CGA:   5    -0.334823528844E+03   -0.26533E-01   -0.26992E-01  7696   0.646E+00 0.666E-02
CGA:   6    -0.334832778067E+03   -0.92492E-02   -0.94647E-02  7696   0.193E+00-0.818E-02
CGA:   7    -0.334836057665E+03   -0.32796E-02   -0.33667E-02  7696   0.110E+00-0.202E-02
CGA:   8    -0.334844191218E+03   -0.81336E-02   -0.81380E-02  7696   0.285E+00-0.102E-03
CGA:   9    -0.334847968603E+03   -0.37774E-02   -0.37032E-02  7696   0.349E-01 0.385E-02
CGA:  10    -0.334848766653E+03   -0.79805E-03   -0.79210E-03  7696   0.322E-01-0.110E-04
CGA:  11    -0.334849751476E+03   -0.98482E-03   -0.98495E-03  7696   0.291E-01 0.303E-04
CGA:  12    -0.334850394810E+03   -0.64333E-03   -0.64304E-03  7696   0.185E-01 0.396E-05
CGA:  13    -0.334850804366E+03   -0.40956E-03   -0.40958E-03  7696   0.130E-01 0.957E-05
CGA:  14    -0.334851123594E+03   -0.31923E-03   -0.32090E-03  7696   0.514E-02 0.639E-04
CGA:  15    -0.334851273496E+03   -0.14990E-03   -0.14991E-03  7696   0.973E-02 0.149E-05
CGA:  16    -0.334851624333E+03   -0.35084E-03   -0.35110E-03  7696   0.342E-02-0.348E-04
CGA:  17    -0.334851675397E+03   -0.51064E-04   -0.50958E-04  7696   0.107E-02 0.400E-05
CGA:  18    -0.334851704283E+03   -0.28886E-04   -0.28885E-04  7696   0.158E-02-0.479E-06
CGA:  19    -0.334851789654E+03   -0.85371E-04   -0.85417E-04  7696   0.218E-02-0.205E-05
CGA:  20    -0.334851821681E+03   -0.32027E-04   -0.31959E-04  7696   0.468E-03-0.105E-05
CGA:  21    -0.334851836286E+03   -0.14605E-04   -0.14604E-04  7696   0.508E-03 0.486E-06
CGA:  22    -0.334851845547E+03   -0.92611E-05   -0.92854E-05  7696   0.258E-03 0.528E-06
CGA:  23    -0.334851857490E+03   -0.11943E-04   -0.11968E-04  7696   0.405E-03-0.156E-05
CGA:  24    -0.334851868899E+03   -0.11409E-04   -0.11404E-04  7696   0.265E-03-0.148E-05
CGA:  25    -0.334851872611E+03   -0.37115E-05   -0.37233E-05  7696   0.760E-04 0.371E-06
 112 F= -.33485187E+03 E0= -.33482336E+03  d E =-.168767E-03  mag=    32.0000
       N       E                     dE             d eps       ncg     rms          ort
SDA:   1    -0.334742221236E+03    0.10965E+00    0.00000E+00  7696   0.468E+01 0.000E+00
CGA:   2    -0.334785673299E+03   -0.43452E-01   -0.55068E-01  7696   0.356E+00-0.689E+00
CGA:   3    -0.334794478002E+03   -0.88047E-02   -0.87933E-02  7696   0.368E+00-0.271E-02
CGA:   4    -0.334818267344E+03   -0.23789E-01   -0.23498E-01  7696   0.859E+00 0.891E-02
CGA:   5    -0.334836484849E+03   -0.18218E-01   -0.17975E-01  7696   0.229E+00 0.167E-02
CGA:   6    -0.334840632808E+03   -0.41480E-02   -0.41307E-02  7696   0.740E-01 0.330E-03
CGA:   7    -0.334844120224E+03   -0.34874E-02   -0.34726E-02  7696   0.124E+00 0.790E-03
CGA:   8    -0.334848822834E+03   -0.47026E-02   -0.47129E-02  7696   0.636E-01-0.117E-02
CGA:   9    -0.334849984899E+03   -0.11621E-02   -0.11618E-02  7696   0.177E-01 0.596E-05
CGA:  10    -0.334850406184E+03   -0.42128E-03   -0.42179E-03  7696   0.156E-01 0.142E-04
CGA:  11    -0.334851028629E+03   -0.62245E-03   -0.62275E-03  7696   0.159E-01-0.278E-04
CGA:  12    -0.334851402610E+03   -0.37398E-03   -0.37427E-03  7696   0.444E-02 0.629E-05
CGA:  13    -0.334851522188E+03   -0.11958E-03   -0.11951E-03  7696   0.330E-02-0.813E-05
CGA:  14    -0.334851675377E+03   -0.15319E-03   -0.15305E-03  7696   0.457E-02 0.843E-05
CGA:  15    -0.334851774823E+03   -0.99446E-04   -0.99387E-04  7696   0.174E-02-0.157E-06
CGA:  16    -0.334851809085E+03   -0.34262E-04   -0.34275E-04  7696   0.680E-03 0.140E-05
CGA:  17    -0.334851833094E+03   -0.24009E-04   -0.23999E-04  7696   0.728E-03 0.178E-05
CGA:  18    -0.334851863028E+03   -0.29934E-04   -0.29931E-04  7696   0.688E-03 0.474E-06
CGA:  19    -0.334851883015E+03   -0.19987E-04   -0.19987E-04  7696   0.398E-03-0.454E-07
CGA:  20    -0.334851891142E+03   -0.81266E-05   -0.81310E-05  7696   0.169E-03 0.313E-06
 113 F= -.33485189E+03 E0= -.33482339E+03  d E =-.185311E-04  mag=    32.0000
