       N       E                     dE             d eps       ncg     rms          ort
DAV:   1     0.649665545458E+04    0.64967E+04   -0.30364E+05  9152   0.159E+03
DAV:   2     0.339999989866E+03   -0.61567E+04   -0.57938E+04  9152   0.465E+02
DAV:   3    -0.382242258821E+03   -0.72224E+03   -0.70938E+03  9152   0.170E+02
DAV:   4    -0.412541979724E+03   -0.30300E+02   -0.29768E+02  9152   0.311E+01
DAV:   5    -0.414951410714E+03   -0.24094E+01   -0.23970E+01  9152   0.657E+00
SDA:   6    -0.262300407195E+03    0.15265E+03   -0.23970E+01  9152   0.950E+03 0.000E+00
CGA:   7    -0.355894967363E+03   -0.93595E+02   -0.82129E+02  9152   0.332E+03 0.531E+01
CGA:   8    -0.367099698530E+03   -0.11205E+02   -0.18455E+02  9152   0.769E+02 0.101E+02
CGA:   9    -0.370467022091E+03   -0.33673E+01   -0.33779E+01  9152   0.135E+03-0.902E+02
CGA:  10    -0.371383390730E+03   -0.91637E+00   -0.60067E+01  9152   0.416E+02-0.106E+02
CGA:  11    -0.375058595836E+03   -0.36752E+01   -0.94662E+00  9152   0.454E+02 0.894E+02
CGA:  12    -0.372863226120E+03    0.21954E+01   -0.27589E+01  9152   0.188E+03-0.530E+02
CGA:  13    -0.373612694454E+03   -0.74947E+00   -0.86254E+01  9152   0.503E+02-0.357E+02
CGA:  14    -0.375997671333E+03   -0.23850E+01   -0.86890E+00  9152   0.903E+02 0.111E+03
CGA:  15    -0.375156139290E+03    0.84153E+00   -0.35658E+01  9152   0.146E+03-0.982E+02
CGA:  16    -0.375024875334E+03    0.13126E+00   -0.66472E+01  9152   0.413E+02-0.275E+02
CGA:  17    -0.376932745095E+03   -0.19079E+01   -0.53186E+00  9152   0.879E+02 0.959E+02
CGA:  18    -0.376535252112E+03    0.39749E+00   -0.33863E+01  9152   0.127E+03-0.975E+02
CGA:  19    -0.376574966596E+03   -0.39714E-01   -0.51172E+01  9152   0.785E+02-0.652E+02
CGA:  20    -0.378900731915E+03   -0.23258E+01   -0.23561E+01  9152   0.381E+02-0.641E+02
CGA:  21    -0.379064107569E+03   -0.16338E+00   -0.14396E+01  9152   0.412E+02-0.324E+02
CGA:  22    -0.379550506665E+03   -0.48640E+00   -0.13785E+01  9152   0.241E+02-0.235E+02
CGA:  23    -0.379874282133E+03   -0.32378E+00   -0.83810E+00  9152   0.196E+02-0.178E+02
CGA:  24    -0.380194245245E+03   -0.31996E+00   -0.61425E+00  9152   0.953E+01-0.816E+01
CGA:  25    -0.380993558965E+03   -0.79931E+00   -0.79054E+00  9152   0.101E+02 0.264E+00
CGA:  26    -0.381446372462E+03   -0.45281E+00   -0.50204E+00  9152   0.420E+01-0.300E+00
CGA:  27    -0.381767671376E+03   -0.32130E+00   -0.32185E+00  9152   0.384E+01-0.463E-01
CGA:  28    -0.382091008351E+03   -0.32334E+00   -0.32400E+00  9152   0.248E+01 0.835E-01
CGA:  29    -0.382240608866E+03   -0.14960E+00   -0.15184E+00  9152   0.995E+00-0.356E-01
CGA:  30    -0.382307250877E+03   -0.66642E-01   -0.68015E-01  9152   0.578E+00 0.370E-02
CGA:  31    -0.382354177159E+03   -0.46926E-01   -0.47469E-01  9152   0.402E+00 0.132E-01
CGA:  32    -0.382385552911E+03   -0.31376E-01   -0.31820E-01  9152   0.227E+00 0.622E-02
CGA:  33    -0.382402745846E+03   -0.17193E-01   -0.17246E-01  9152   0.123E+00 0.686E-03
CGA:  34    -0.382412897911E+03   -0.10152E-01   -0.10201E-01  9152   0.808E-01 0.152E-02
CGA:  35    -0.382420007561E+03   -0.71096E-02   -0.71091E-02  9152   0.585E-01-0.113E-03
CGA:  36    -0.382425268227E+03   -0.52607E-02   -0.52649E-02  9152   0.404E-01 0.630E-03
CGA:  37    -0.382428753807E+03   -0.34856E-02   -0.34840E-02  9152   0.288E-01-0.174E-03
CGA:  38    -0.382431608446E+03   -0.28546E-02   -0.28519E-02  9152   0.246E-01 0.145E-03
CGA:  39    -0.382433877796E+03   -0.22694E-02   -0.22690E-02  9152   0.178E-01-0.236E-03
CGA:  40    -0.382435457918E+03   -0.15801E-02   -0.15802E-02  9152   0.122E-01-0.796E-04
CGA:  41    -0.382436552238E+03   -0.10943E-02   -0.10938E-02  9152   0.890E-02-0.188E-03
CGA:  42    -0.382437376082E+03   -0.82384E-03   -0.82399E-03  9152   0.641E-02-0.117E-03
CGA:  43    -0.382437922934E+03   -0.54685E-03   -0.54600E-03  9152   0.408E-02-0.118E-03
CGA:  44    -0.382438283149E+03   -0.36021E-03   -0.36006E-03  9152   0.289E-02-0.700E-04
CGA:  45    -0.382438545570E+03   -0.26242E-03   -0.26244E-03  9152   0.209E-02-0.588E-04
CGA:  46    -0.382438728412E+03   -0.18284E-03   -0.18274E-03  9152   0.138E-02-0.338E-04
CGA:  47    -0.382438849307E+03   -0.12090E-03   -0.12082E-03  9152   0.963E-03-0.187E-04
CGA:  48    -0.382438939025E+03   -0.89718E-04   -0.89736E-04  9152   0.745E-03-0.580E-05
CGA:  49    -0.382439008337E+03   -0.69312E-04   -0.69310E-04  9152   0.554E-03 0.234E-05
CGA:  50    -0.382439059262E+03   -0.50925E-04   -0.50928E-04  9152   0.410E-03 0.854E-05
CGA:  51    -0.382439098658E+03   -0.39397E-04   -0.39370E-04  9152   0.327E-03 0.114E-04
CGA:  52    -0.382439130787E+03   -0.32128E-04   -0.32088E-04  9152   0.260E-03 0.127E-04
CGA:  53    -0.382439156059E+03   -0.25272E-04   -0.25261E-04  9152   0.204E-03 0.110E-04
SDA:  54    -0.382439176267E+03   -0.20208E-04   -0.20182E-04  9152   0.164E-03 0.935E-05
CGA:  55    -0.382439181641E+03   -0.53739E-05   -0.53695E-05  9152   0.381E-04 0.253E-08
   1 F= -.38243918E+03 E0= -.38243310E+03  d E =-.382439E+03  mag=    46.0000
       N       E                     dE             d eps       ncg     rms          ort
SDA:   1    -0.382447435296E+03   -0.82590E-02    0.00000E+00  9152   0.103E-01 0.000E+00
CGA:   2    -0.382447820875E+03   -0.38558E-03   -0.38141E-03  9152   0.281E-02 0.924E-04
CGA:   3    -0.382448213018E+03   -0.39214E-03   -0.39216E-03  9152   0.425E-02 0.727E-06
CGA:   4    -0.382448514979E+03   -0.30196E-03   -0.30246E-03  9152   0.603E-03-0.160E-05
CGA:   5    -0.382448619823E+03   -0.10484E-03   -0.10483E-03  9152   0.407E-03 0.692E-06
CGA:   6    -0.382448646523E+03   -0.26700E-04   -0.26711E-04  9152   0.229E-03-0.532E-06
CGA:   7    -0.382448660022E+03   -0.13499E-04   -0.13461E-04  9152   0.103E-03 0.110E-06
CGA:   8    -0.382448676460E+03   -0.16439E-04   -0.16436E-04  9152   0.420E-04 0.147E-06
CGA:   9    -0.382448684981E+03   -0.85210E-05   -0.84788E-05  9152   0.796E-04 0.750E-06
   2 F= -.38244868E+03 E0= -.38244260E+03  d E =-.950334E-02  mag=    46.0000
       N       E                     dE             d eps       ncg     rms          ort
SDA:   1    -0.381296942205E+03    0.11517E+01    0.00000E+00  9152   0.391E+01 0.000E+00
CGA:   2    -0.382280925219E+03   -0.98398E+00   -0.99289E+00  9152   0.509E+01-0.745E-01
CGA:   3    -0.382470127163E+03   -0.18920E+00   -0.28196E+00  9152   0.298E+01-0.131E+01
CGA:   4    -0.382658912791E+03   -0.18879E+00   -0.17911E+00  9152   0.701E+00 0.411E-01
CGA:   5    -0.382741873984E+03   -0.82961E-01   -0.83026E-01  9152   0.279E+00 0.682E-03
CGA:   6    -0.382766203315E+03   -0.24329E-01   -0.24197E-01  9152   0.189E+00 0.206E-03
CGA:   7    -0.382776373549E+03   -0.10170E-01   -0.10484E-01  9152   0.607E-01-0.379E-02
CGA:   8    -0.382782895087E+03   -0.65215E-02   -0.64960E-02  9152   0.365E-01-0.273E-03
CGA:   9    -0.382785433483E+03   -0.25384E-02   -0.25497E-02  9152   0.147E-01-0.681E-04
CGA:  10    -0.382786943558E+03   -0.15101E-02   -0.15083E-02  9152   0.135E-01-0.689E-05
CGA:  11    -0.382787760576E+03   -0.81702E-03   -0.81899E-03  9152   0.459E-02-0.869E-05
CGA:  12    -0.382788329872E+03   -0.56930E-03   -0.56928E-03  9152   0.283E-02-0.560E-05
CGA:  13    -0.382788605221E+03   -0.27535E-03   -0.27566E-03  9152   0.309E-02 0.464E-05
CGA:  14    -0.382788815817E+03   -0.21060E-03   -0.21041E-03  9152   0.105E-02 0.430E-05
CGA:  15    -0.382788994776E+03   -0.17896E-03   -0.17877E-03  9152   0.110E-02 0.340E-05
CGA:  16    -0.382789069049E+03   -0.74273E-04   -0.74301E-04  9152   0.727E-03 0.209E-05
CGA:  17    -0.382789143072E+03   -0.74023E-04   -0.74119E-04  9152   0.494E-03 0.413E-05
CGA:  18    -0.382789193324E+03   -0.50251E-04   -0.50326E-04  9152   0.384E-03 0.406E-05
CGA:  19    -0.382789227922E+03   -0.34598E-04   -0.34692E-04  9152   0.223E-03 0.300E-05
CGA:  20    -0.382789247051E+03   -0.19129E-04   -0.19187E-04  9152   0.220E-03 0.191E-05
CGA:  21    -0.382789268511E+03   -0.21460E-04   -0.21502E-04  9152   0.855E-04 0.204E-05
CGA:  22    -0.382789280190E+03   -0.11679E-04   -0.11676E-04  9152   0.108E-03 0.150E-06
CGA:  23    -0.382789287327E+03   -0.71370E-05   -0.71346E-05  9152   0.596E-04-0.973E-07
   3 F= -.38278929E+03 E0= -.38278321E+03  d E =-.340602E+00  mag=    46.0000
       N       E                     dE             d eps       ncg     rms          ort
SDA:   1    -0.372834255518E+03    0.99550E+01    0.00000E+00  9152   0.292E+02 0.000E+00
CGA:   2    -0.379471536109E+03   -0.66373E+01   -0.65882E+01  9152   0.337E+02 0.107E+01
CGA:   3    -0.381323640736E+03   -0.18521E+01   -0.17570E+01  9152   0.120E+02-0.247E+01
CGA:   4    -0.382752764983E+03   -0.14291E+01   -0.14362E+01  9152   0.539E+01-0.307E+00
CGA:   5    -0.383107901277E+03   -0.35514E+00   -0.34334E+00  9152   0.203E+01-0.755E-01
CGA:   6    -0.383270713467E+03   -0.16281E+00   -0.15733E+00  9152   0.141E+01-0.421E-02
CGA:   7    -0.383367411745E+03   -0.96698E-01   -0.99438E-01  9152   0.404E+00-0.963E-02
CGA:   8    -0.383402204705E+03   -0.34793E-01   -0.34247E-01  9152   0.206E+00-0.479E-02
CGA:   9    -0.383423787042E+03   -0.21582E-01   -0.21593E-01  9152   0.170E+00 0.192E-02
CGA:  10    -0.383433321657E+03   -0.95346E-02   -0.94039E-02  9152   0.471E-01 0.118E-02
CGA:  11    -0.383440062330E+03   -0.67407E-02   -0.67362E-02  9152   0.478E-01 0.102E-03
CGA:  12    -0.383443784884E+03   -0.37226E-02   -0.37284E-02  9152   0.197E-01 0.339E-04
CGA:  13    -0.383445500976E+03   -0.17161E-02   -0.17196E-02  9152   0.207E-01 0.588E-04
CGA:  14    -0.383447519130E+03   -0.20182E-02   -0.20176E-02  9152   0.778E-02-0.217E-04
CGA:  15    -0.383448498465E+03   -0.97933E-03   -0.97785E-03  9152   0.910E-02 0.507E-04
CGA:  16    -0.383449248240E+03   -0.74977E-03   -0.74927E-03  9152   0.452E-02 0.454E-05
CGA:  17    -0.383449579638E+03   -0.33140E-03   -0.33200E-03  9152   0.314E-02 0.746E-05
CGA:  18    -0.383450059796E+03   -0.48016E-03   -0.47937E-03  9152   0.171E-02 0.158E-04
CGA:  19    -0.383450188547E+03   -0.12875E-03   -0.12893E-03  9152   0.134E-02 0.422E-05
CGA:  20    -0.383450352952E+03   -0.16440E-03   -0.16431E-03  9152   0.147E-02 0.552E-05
CGA:  21    -0.383450462687E+03   -0.10974E-03   -0.10993E-03  9152   0.432E-03 0.421E-05
CGA:  22    -0.383450535479E+03   -0.72792E-04   -0.72733E-04  9152   0.789E-03 0.946E-06
CGA:  23    -0.383450596194E+03   -0.60714E-04   -0.60749E-04  9152   0.343E-03 0.364E-06
CGA:  24    -0.383450622700E+03   -0.26507E-04   -0.26511E-04  9152   0.212E-03 0.563E-07
CGA:  25    -0.383450656772E+03   -0.34072E-04   -0.34119E-04  9152   0.188E-03-0.827E-06
CGA:  26    -0.383450670031E+03   -0.13259E-04   -0.13240E-04  9152   0.104E-03-0.532E-06
CGA:  27    -0.383450679600E+03   -0.95692E-05   -0.95544E-05  9152   0.826E-04-0.118E-05
   4 F= -.38345068E+03 E0= -.38344458E+03  d E =-.661392E+00  mag=    46.0000
       N       E                     dE             d eps       ncg     rms          ort
SDA:   1    -0.371704217349E+03    0.11746E+02    0.00000E+00  9152   0.346E+02 0.000E+00
CGA:   2    -0.379262884577E+03   -0.75587E+01   -0.75541E+01  9152   0.339E+02 0.366E+00
CGA:   3    -0.381208524874E+03   -0.19456E+01   -0.18833E+01  9152   0.148E+02 0.214E+00
CGA:   4    -0.382920387682E+03   -0.17119E+01   -0.17157E+01  9152   0.731E+01-0.257E+00
CGA:   5    -0.383423152915E+03   -0.50277E+00   -0.44356E+00  9152   0.211E+01 0.756E-01
CGA:   6    -0.383666157691E+03   -0.24300E+00   -0.24406E+00  9152   0.175E+01-0.705E-01
CGA:   7    -0.383752410330E+03   -0.86253E-01   -0.93191E-01  9152   0.549E+00-0.634E-01
CGA:   8    -0.383798056122E+03   -0.45646E-01   -0.44908E-01  9152   0.271E+00-0.111E-01
CGA:   9    -0.383824556526E+03   -0.26500E-01   -0.26517E-01  9152   0.215E+00 0.282E-02
CGA:  10    -0.383837400525E+03   -0.12844E-01   -0.12732E-01  9152   0.618E-01 0.694E-03
CGA:  11    -0.383846283804E+03   -0.88833E-02   -0.88198E-02  9152   0.581E-01 0.119E-02
CGA:  12    -0.383849906034E+03   -0.36222E-02   -0.36178E-02  9152   0.270E-01 0.335E-04
CGA:  13    -0.383853331695E+03   -0.34257E-02   -0.34189E-02  9152   0.204E-01 0.186E-03
CGA:  14    -0.383854856175E+03   -0.15245E-02   -0.15214E-02  9152   0.123E-01-0.980E-05
CGA:  15    -0.383856285831E+03   -0.14297E-02   -0.14263E-02  9152   0.109E-01 0.142E-03
CGA:  16    -0.383857212778E+03   -0.92695E-03   -0.92772E-03  9152   0.556E-02 0.221E-04
CGA:  17    -0.383857681193E+03   -0.46841E-03   -0.46909E-03  9152   0.372E-02 0.193E-04
CGA:  18    -0.383858170324E+03   -0.48913E-03   -0.48892E-03  9152   0.402E-02 0.769E-05
CGA:  19    -0.383858428519E+03   -0.25819E-03   -0.25910E-03  9152   0.111E-02 0.461E-05
CGA:  20    -0.383858617749E+03   -0.18923E-03   -0.18884E-03  9152   0.213E-02 0.556E-05
CGA:  21    -0.383858764387E+03   -0.14664E-03   -0.14695E-03  9152   0.531E-03 0.469E-05
CGA:  22    -0.383858839970E+03   -0.75584E-04   -0.75498E-04  9152   0.865E-03 0.197E-05
CGA:  23    -0.383858915301E+03   -0.75331E-04   -0.75349E-04  9152   0.379E-03 0.456E-06
CGA:  24    -0.383858953573E+03   -0.38271E-04   -0.38270E-04  9152   0.344E-03-0.696E-06
CGA:  25    -0.383858986464E+03   -0.32891E-04   -0.32888E-04  9152   0.207E-03-0.621E-06
CGA:  26    -0.383859007330E+03   -0.20866E-04   -0.20866E-04  9152   0.170E-03-0.783E-06
CGA:  27    -0.383859022518E+03   -0.15189E-04   -0.15174E-04  9152   0.109E-03-0.134E-05
CGA:  28    -0.383859032938E+03   -0.10420E-04   -0.10413E-04  9152   0.568E-04-0.139E-05
CGA:  29    -0.383859038356E+03   -0.54180E-05   -0.54143E-05  9152   0.628E-04-0.850E-06
   5 F= -.38385904E+03 E0= -.38385284E+03  d E =-.408359E+00  mag=    46.0000
       N       E                     dE             d eps       ncg     rms          ort
SDA:   1    -0.370563906933E+03    0.13295E+02    0.00000E+00  9152   0.397E+02 0.000E+00
CGA:   2    -0.378386814415E+03   -0.78229E+01   -0.76966E+01  9152   0.405E+02 0.690E+00
CGA:   3    -0.380818100853E+03   -0.24313E+01   -0.26081E+01  9152   0.187E+02 0.120E+01
CGA:   4    -0.382787685692E+03   -0.19696E+01   -0.19665E+01  9152   0.112E+02-0.121E+01
CGA:   5    -0.383480459732E+03   -0.69277E+00   -0.59099E+00  9152   0.345E+01 0.171E+00
CGA:   6    -0.383800062851E+03   -0.31960E+00   -0.32719E+00  9152   0.152E+01 0.451E+00
CGA:   7    -0.383908345884E+03   -0.10828E+00   -0.11405E+00  9152   0.914E+00-0.847E-02
CGA:   8    -0.383994242343E+03   -0.85896E-01   -0.85348E-01  9152   0.340E+00-0.475E-01
CGA:   9    -0.384014420437E+03   -0.20178E-01   -0.20382E-01  9152   0.307E+00-0.563E-05
CGA:  10    -0.384037848563E+03   -0.23428E-01   -0.23713E-01  9152   0.993E-01 0.379E-02
CGA:  11    -0.384050160988E+03   -0.12312E-01   -0.12414E-01  9152   0.527E-01-0.269E-02
CGA:  12    -0.384055209550E+03   -0.50486E-02   -0.50472E-02  9152   0.572E-01 0.645E-03
CGA:  13    -0.384059046926E+03   -0.38374E-02   -0.38489E-02  9152   0.199E-01 0.360E-04
CGA:  14    -0.384061517853E+03   -0.24709E-02   -0.24572E-02  9152   0.206E-01 0.360E-03
CGA:  15    -0.384063214040E+03   -0.16962E-02   -0.17026E-02  9152   0.878E-02 0.128E-03
CGA:  16    -0.384064283784E+03   -0.10697E-02   -0.10664E-02  9152   0.101E-01 0.990E-04
CGA:  17    -0.384064944022E+03   -0.66024E-03   -0.66069E-03  9152   0.389E-02 0.751E-05
CGA:  18    -0.384065517511E+03   -0.57349E-03   -0.57148E-03  9152   0.254E-02 0.348E-04
CGA:  19    -0.384065751334E+03   -0.23382E-03   -0.23387E-03  9152   0.232E-02 0.557E-05
CGA:  20    -0.384065947167E+03   -0.19583E-03   -0.19606E-03  9152   0.126E-02 0.823E-05
CGA:  21    -0.384066090196E+03   -0.14303E-03   -0.14293E-03  9152   0.944E-03 0.480E-05
CGA:  22    -0.384066174660E+03   -0.84464E-04   -0.84478E-04  9152   0.582E-03 0.996E-06
CGA:  23    -0.384066251365E+03   -0.76705E-04   -0.76606E-04  9152   0.646E-03 0.274E-05
CGA:  24    -0.384066294236E+03   -0.42872E-04   -0.42919E-04  9152   0.272E-03 0.574E-06
CGA:  25    -0.384066341306E+03   -0.47070E-04   -0.47232E-04  9152   0.230E-03-0.210E-05
CGA:  26    -0.384066360192E+03   -0.18886E-04   -0.18877E-04  9152   0.190E-03-0.542E-06
CGA:  27    -0.384066378377E+03   -0.18185E-04   -0.18183E-04  9152   0.108E-03-0.566E-06
CGA:  28    -0.384066390376E+03   -0.11999E-04   -0.12013E-04  9152   0.861E-04-0.133E-05
CGA:  29    -0.384066397997E+03   -0.76213E-05   -0.76123E-05  9152   0.479E-04-0.831E-06
   6 F= -.38406640E+03 E0= -.38406003E+03  d E =-.207360E+00  mag=    46.0000
       N       E                     dE             d eps       ncg     rms          ort
SDA:   1    -0.363827976216E+03    0.20238E+02    0.00000E+00  9152   0.681E+02 0.000E+00
CGA:   2    -0.374041086785E+03   -0.10213E+02   -0.91734E+01  9152   0.373E+02 0.194E+02
CGA:   3    -0.379250028875E+03   -0.52089E+01   -0.52916E+01  9152   0.424E+02-0.810E+01
CGA:   4    -0.381539301294E+03   -0.22893E+01   -0.20024E+01  9152   0.607E+02-0.812E-01
CGA:   5    -0.381330858901E+03    0.20844E+00   -0.19067E+01  9152   0.391E+02-0.270E+02
CGA:   6    -0.382140425955E+03   -0.80957E+00   -0.69957E+00  9152   0.260E+02 0.609E+01
CGA:   7    -0.382688718916E+03   -0.54829E+00   -0.64412E+00  9152   0.937E+01-0.192E+02
CGA:   8    -0.383044118042E+03   -0.35540E+00   -0.36007E+00  9152   0.660E+01-0.587E+00
CGA:   9    -0.383611251659E+03   -0.56713E+00   -0.56639E+00  9152   0.723E+01 0.124E+00
CGA:  10    -0.384012844378E+03   -0.40159E+00   -0.33986E+00  9152   0.979E+00 0.342E+00
CGA:  11    -0.384042338852E+03   -0.29494E-01   -0.29022E-01  9152   0.528E+00 0.254E-02
CGA:  12    -0.384093912472E+03   -0.51574E-01   -0.52322E-01  9152   0.863E+00-0.300E-01
CGA:  13    -0.384134112719E+03   -0.40200E-01   -0.41472E-01  9152   0.396E+00-0.127E-01
CGA:  14    -0.384144369527E+03   -0.10257E-01   -0.12855E-01  9152   0.135E+00-0.486E-01
CGA:  15    -0.384159322771E+03   -0.14953E-01   -0.14515E-01  9152   0.698E-01 0.855E-02
CGA:  16    -0.384166730551E+03   -0.74078E-02   -0.73757E-02  9152   0.580E-01 0.125E-02
CGA:  17    -0.384170516209E+03   -0.37857E-02   -0.38681E-02  9152   0.257E-01 0.123E-02
CGA:  18    -0.384173560804E+03   -0.30446E-02   -0.29647E-02  9152   0.318E-01 0.194E-02
CGA:  19    -0.384175393850E+03   -0.18330E-02   -0.18662E-02  9152   0.131E-01-0.453E-05
CGA:  20    -0.384176773749E+03   -0.13799E-02   -0.13529E-02  9152   0.634E-02 0.897E-03
CGA:  21    -0.384177550828E+03   -0.77708E-03   -0.77566E-03  9152   0.724E-02 0.363E-04
CGA:  22    -0.384178042092E+03   -0.49126E-03   -0.49586E-03  9152   0.393E-02 0.757E-04
CGA:  23    -0.384178507685E+03   -0.46559E-03   -0.45830E-03  9152   0.171E-02 0.176E-03
CGA:  24    -0.384178694940E+03   -0.18726E-03   -0.18681E-03  9152   0.198E-02 0.168E-04
CGA:  25    -0.384178936808E+03   -0.24187E-03   -0.24121E-03  9152   0.114E-02 0.168E-04
CGA:  26    -0.384179004519E+03   -0.67712E-04   -0.68024E-04  9152   0.563E-03 0.295E-05
CGA:  27    -0.384179098920E+03   -0.94401E-04   -0.93798E-04  9152   0.482E-03 0.822E-05
CGA:  28    -0.384179157904E+03   -0.58984E-04   -0.59131E-04  9152   0.386E-03-0.335E-05
CGA:  29    -0.384179185501E+03   -0.27598E-04   -0.27552E-04  9152   0.262E-03-0.103E-05
CGA:  30    -0.384179217388E+03   -0.31886E-04   -0.31925E-04  9152   0.180E-03-0.120E-05
CGA:  31    -0.384179236316E+03   -0.18928E-04   -0.18946E-04  9152   0.106E-03-0.136E-05
CGA:  32    -0.384179246082E+03   -0.97664E-05   -0.97655E-05  9152   0.763E-04-0.131E-05
   7 F= -.38417925E+03 E0= -.38417253E+03  d E =-.112848E+00  mag=    46.0000
       N       E                     dE             d eps       ncg     rms          ort
SDA:   1    -0.358772190733E+03    0.25407E+02    0.00000E+00  9152   0.708E+02 0.000E+00
CGA:   2    -0.371907229897E+03   -0.13135E+02   -0.12222E+02  9152   0.727E+02 0.106E+02
CGA:   3    -0.378261715408E+03   -0.63545E+01   -0.52805E+01  9152   0.393E+02-0.135E+02
CGA:   4    -0.382103177933E+03   -0.38415E+01   -0.41541E+01  9152   0.214E+02-0.515E+01
CGA:   5    -0.382932796896E+03   -0.82962E+00   -0.85047E+00  9152   0.777E+01-0.153E+01
CGA:   6    -0.383425151867E+03   -0.49235E+00   -0.39596E+00  9152   0.420E+01 0.605E+00
CGA:   7    -0.383850964290E+03   -0.42581E+00   -0.42587E+00  9152   0.326E+01-0.745E-01
CGA:   8    -0.383999565967E+03   -0.14860E+00   -0.14359E+00  9152   0.112E+01 0.381E-01
CGA:   9    -0.384053797159E+03   -0.54231E-01   -0.49561E-01  9152   0.655E+00 0.616E-01
CGA:  10    -0.384128516850E+03   -0.74720E-01   -0.74005E-01  9152   0.139E+01 0.308E-01
CGA:  11    -0.384183792338E+03   -0.55275E-01   -0.45241E-01  9152   0.382E+00 0.249E+00
CGA:  12    -0.384199124015E+03   -0.15332E-01   -0.15668E-01  9152   0.281E+00-0.104E-01
CGA:  13    -0.384217648659E+03   -0.18525E-01   -0.19056E-01  9152   0.377E+00 0.107E-01
CGA:  14    -0.384232630860E+03   -0.14982E-01   -0.14994E-01  9152   0.167E+00 0.193E-02
CGA:  15    -0.384243223256E+03   -0.10592E-01   -0.10489E-01  9152   0.984E-01-0.955E-03
CGA:  16    -0.384247313908E+03   -0.40907E-02   -0.44116E-02  9152   0.665E-01-0.230E-02
CGA:  17    -0.384254208894E+03   -0.68950E-02   -0.67283E-02  9152   0.432E-01 0.480E-02
CGA:  18    -0.384257113569E+03   -0.29047E-02   -0.29165E-02  9152   0.318E-01 0.174E-03
CGA:  19    -0.384259093566E+03   -0.19800E-02   -0.19659E-02  9152   0.137E-01-0.141E-03
CGA:  20    -0.384260202227E+03   -0.11087E-02   -0.11082E-02  9152   0.130E-01 0.815E-04
CGA:  21    -0.384261224227E+03   -0.10220E-02   -0.10221E-02  9152   0.661E-02 0.182E-03
CGA:  22    -0.384261568320E+03   -0.34409E-03   -0.34775E-03  9152   0.319E-02-0.240E-05
CGA:  23    -0.384262013512E+03   -0.44519E-03   -0.44808E-03  9152   0.255E-02-0.442E-04
CGA:  24    -0.384262151898E+03   -0.13839E-03   -0.13839E-03  9152   0.160E-02-0.136E-05
CGA:  25    -0.384262312214E+03   -0.16032E-03   -0.15974E-03  9152   0.938E-03 0.197E-04
CGA:  26    -0.384262412837E+03   -0.10062E-03   -0.10058E-03  9152   0.103E-02 0.140E-05
CGA:  27    -0.384262482684E+03   -0.69847E-04   -0.69825E-04  9152   0.637E-03 0.388E-06
CGA:  28    -0.384262544540E+03   -0.61855E-04   -0.61813E-04  9152   0.468E-03 0.214E-05
CGA:  29    -0.384262591542E+03   -0.47002E-04   -0.47005E-04  9152   0.500E-03-0.332E-06
CGA:  30    -0.384262631056E+03   -0.39514E-04   -0.39502E-04  9152   0.303E-03-0.335E-05
CGA:  31    -0.384262652702E+03   -0.21646E-04   -0.21613E-04  9152   0.233E-03-0.287E-05
SDA:  32    -0.384262685245E+03   -0.32543E-04   -0.32736E-04  9152   0.174E-03-0.323E-05
CGA:  33    -0.384262693684E+03   -0.84390E-05   -0.84412E-05  9152   0.859E-04 0.124E-06
CGA:  34    -0.384262705447E+03   -0.11763E-04   -0.11744E-04  9152   0.894E-04 0.348E-06
CGA:  35    -0.384262716588E+03   -0.11141E-04   -0.11138E-04  9152   0.480E-04 0.702E-07
CGA:  36    -0.384262720052E+03   -0.34643E-05   -0.34572E-05  9152   0.188E-04-0.463E-06
   8 F= -.38426272E+03 E0= -.38425602E+03  d E =-.834740E-01  mag=    46.0000
       N       E                     dE             d eps       ncg     rms          ort
SDA:   1    -0.380520450306E+03    0.37423E+01    0.00000E+00  9152   0.123E+02 0.000E+00
CGA:   2    -0.382055196457E+03   -0.15347E+01   -0.15980E+01  9152   0.203E+02-0.970E+00
CGA:   3    -0.383136086908E+03   -0.10809E+01   -0.10888E+01  9152   0.566E+01-0.386E+00
CGA:   4    -0.383718444367E+03   -0.58236E+00   -0.57771E+00  9152   0.449E+01 0.281E+00
CGA:   5    -0.384118103000E+03   -0.39966E+00   -0.39333E+00  9152   0.953E+00-0.227E+00
CGA:   6    -0.384218011175E+03   -0.99908E-01   -0.98961E-01  9152   0.590E+00 0.386E-01
CGA:   7    -0.384261055673E+03   -0.43044E-01   -0.41858E-01  9152   0.303E+00-0.583E-02
CGA:   8    -0.384280264546E+03   -0.19209E-01   -0.19296E-01  9152   0.117E+00 0.128E-03
CGA:   9    -0.384293036406E+03   -0.12772E-01   -0.12737E-01  9152   0.657E-01 0.133E-02
CGA:  10    -0.384298907970E+03   -0.58716E-02   -0.58661E-02  9152   0.328E-01-0.590E-03
CGA:  11    -0.384302046240E+03   -0.31383E-02   -0.31401E-02  9152   0.230E-01-0.211E-03
CGA:  12    -0.384303620798E+03   -0.15746E-02   -0.15726E-02  9152   0.141E-01-0.104E-04
CGA:  13    -0.384304937228E+03   -0.13164E-02   -0.13162E-02  9152   0.567E-02 0.489E-04
CGA:  14    -0.384305662819E+03   -0.72559E-03   -0.72463E-03  9152   0.465E-02 0.214E-04
CGA:  15    -0.384306124400E+03   -0.46158E-03   -0.46170E-03  9152   0.225E-02-0.137E-04
CGA:  16    -0.384306375806E+03   -0.25141E-03   -0.25112E-03  9152   0.211E-02 0.981E-05
CGA:  17    -0.384306540292E+03   -0.16449E-03   -0.16445E-03  9152   0.141E-02-0.108E-05
CGA:  18    -0.384306660279E+03   -0.11999E-03   -0.11998E-03  9152   0.617E-03-0.469E-06
CGA:  19    -0.384306746294E+03   -0.86015E-04   -0.85793E-04  9152   0.492E-03 0.446E-05
CGA:  20    -0.384306794500E+03   -0.48205E-04   -0.48203E-04  9152   0.251E-03 0.161E-05
CGA:  21    -0.384306825914E+03   -0.31414E-04   -0.31369E-04  9152   0.178E-03 0.141E-05
CGA:  22    -0.384306843319E+03   -0.17406E-04   -0.17406E-04  9152   0.180E-03 0.526E-06
CGA:  23    -0.384306857680E+03   -0.14360E-04   -0.14367E-04  9152   0.952E-04 0.328E-06
CGA:  24    -0.384306868654E+03   -0.10974E-04   -0.10979E-04  9152   0.747E-04-0.258E-06
CGA:  25    -0.384306877936E+03   -0.92821E-05   -0.92985E-05  9152   0.524E-04-0.576E-06
   9 F= -.38430688E+03 E0= -.38430024E+03  d E =-.441579E-01  mag=    46.0000
       N       E                     dE             d eps       ncg     rms          ort
SDA:   1    -0.384058019089E+03    0.24885E+00    0.00000E+00  9152   0.825E+00 0.000E+00
CGA:   2    -0.384197944602E+03   -0.13993E+00   -0.14093E+00  9152   0.991E+00-0.127E-01
CGA:   3    -0.384245801653E+03   -0.47857E-01   -0.51452E-01  9152   0.412E+00-0.333E-01
CGA:   4    -0.384301398168E+03   -0.55597E-01   -0.55847E-01  9152   0.180E+00-0.500E-02
CGA:   5    -0.384314479205E+03   -0.13081E-01   -0.13160E-01  9152   0.767E-01 0.344E-03
CGA:   6    -0.384320422708E+03   -0.59435E-02   -0.59224E-02  9152   0.461E-01-0.162E-03
CGA:   7    -0.384323863744E+03   -0.34410E-02   -0.34361E-02  9152   0.145E-01-0.317E-04
CGA:   8    -0.384325135136E+03   -0.12714E-02   -0.12717E-02  9152   0.884E-02 0.678E-05
CGA:   9    -0.384325929351E+03   -0.79421E-03   -0.79492E-03  9152   0.452E-02 0.350E-04
CGA:  10    -0.384326322830E+03   -0.39348E-03   -0.39326E-03  9152   0.266E-02-0.674E-05
CGA:  11    -0.384326505646E+03   -0.18282E-03   -0.18274E-03  9152   0.134E-02 0.376E-06
CGA:  12    -0.384326696734E+03   -0.19109E-03   -0.19068E-03  9152   0.541E-03 0.783E-05
CGA:  13    -0.384326740250E+03   -0.43516E-04   -0.43526E-04  9152   0.526E-03 0.155E-06
CGA:  14    -0.384326798686E+03   -0.58436E-04   -0.58441E-04  9152   0.259E-03-0.970E-07
CGA:  15    -0.384326819540E+03   -0.20854E-04   -0.20880E-04  9152   0.138E-03 0.114E-05
CGA:  16    -0.384326836288E+03   -0.16748E-04   -0.16727E-04  9152   0.142E-03 0.900E-06
CGA:  17    -0.384326848067E+03   -0.11779E-04   -0.11786E-04  9152   0.630E-04 0.421E-06
CGA:  18    -0.384326853159E+03   -0.50924E-05   -0.50954E-05  9152   0.436E-04 0.202E-06
  10 F= -.38432685E+03 E0= -.38432015E+03  d E =-.199752E-01  mag=    46.0000
       N       E                     dE             d eps       ncg     rms          ort
SDA:   1    -0.383663606730E+03    0.66324E+00    0.00000E+00  9152   0.189E+01 0.000E+00
CGA:   2    -0.384077348652E+03   -0.41374E+00   -0.41903E+00  9152   0.236E+01-0.428E-01
CGA:   3    -0.384198965933E+03   -0.12162E+00   -0.13542E+00  9152   0.943E+00-0.973E-01
CGA:   4    -0.384288545323E+03   -0.89579E-01   -0.89462E-01  9152   0.681E+00-0.197E-01
CGA:   5    -0.384325575785E+03   -0.37030E-01   -0.37000E-01  9152   0.127E+00-0.150E-02
CGA:   6    -0.384340864791E+03   -0.15289E-01   -0.15267E-01  9152   0.654E-01 0.708E-03
CGA:   7    -0.384346366270E+03   -0.55015E-02   -0.54912E-02  9152   0.272E-01-0.190E-03
CGA:   8    -0.384348335481E+03   -0.19692E-02   -0.19680E-02  9152   0.167E-01-0.754E-05
CGA:   9    -0.384349690083E+03   -0.13546E-02   -0.13578E-02  9152   0.857E-02 0.577E-04
CGA:  10    -0.384350435024E+03   -0.74494E-03   -0.74407E-03  9152   0.335E-02-0.290E-04
CGA:  11    -0.384350758312E+03   -0.32329E-03   -0.32329E-03  9152   0.222E-02-0.777E-05
CGA:  12    -0.384351031343E+03   -0.27303E-03   -0.27275E-03  9152   0.147E-02 0.865E-05
CGA:  13    -0.384351115382E+03   -0.84039E-04   -0.84278E-04  9152   0.753E-03-0.123E-06
CGA:  14    -0.384351251770E+03   -0.13639E-03   -0.13625E-03  9152   0.677E-03 0.160E-05
CGA:  15    -0.384351302582E+03   -0.50812E-04   -0.50817E-04  9152   0.339E-03 0.518E-06
CGA:  16    -0.384351352588E+03   -0.50007E-04   -0.49891E-04  9152   0.409E-03 0.230E-05
CGA:  17    -0.384351381062E+03   -0.28473E-04   -0.28511E-04  9152   0.202E-03 0.700E-06
CGA:  18    -0.384351400018E+03   -0.18957E-04   -0.18955E-04  9152   0.111E-03 0.508E-07
CGA:  19    -0.384351414749E+03   -0.14730E-04   -0.14708E-04  9152   0.936E-04 0.645E-06
CGA:  20    -0.384351423063E+03   -0.83148E-05   -0.83137E-05  9152   0.542E-04-0.302E-07
  11 F= -.38435142E+03 E0= -.38434465E+03  d E =-.245699E-01  mag=    46.0000
       N       E                     dE             d eps       ncg     rms          ort
SDA:   1    -0.377642424410E+03    0.67090E+01    0.00000E+00  9152   0.179E+02 0.000E+00
CGA:   2    -0.381727955857E+03   -0.40855E+01   -0.40924E+01  9152   0.284E+02 0.331E+00
CGA:   3    -0.383018044471E+03   -0.12901E+01   -0.14311E+01  9152   0.810E+01-0.161E+01
CGA:   4    -0.383873590453E+03   -0.85555E+00   -0.86162E+00  9152   0.529E+01-0.352E+00
CGA:   5    -0.384194840021E+03   -0.32125E+00   -0.30826E+00  9152   0.114E+01-0.448E-01
CGA:   6    -0.384308191611E+03   -0.11335E+00   -0.11343E+00  9152   0.817E+00 0.293E-01
CGA:   7    -0.384358429817E+03   -0.50238E-01   -0.52307E-01  9152   0.299E+00-0.612E-02
CGA:   8    -0.384381352929E+03   -0.22923E-01   -0.22471E-01  9152   0.123E+00-0.368E-02
CGA:   9    -0.384394625967E+03   -0.13273E-01   -0.13236E-01  9152   0.791E-01 0.203E-02
CGA:  10    -0.384399755295E+03   -0.51293E-02   -0.51272E-02  9152   0.375E-01 0.341E-04
CGA:  11    -0.384402898401E+03   -0.31431E-02   -0.31495E-02  9152   0.165E-01 0.175E-03
CGA:  12    -0.384404899052E+03   -0.20007E-02   -0.19996E-02  9152   0.168E-01 0.325E-04
CGA:  13    -0.384406028275E+03   -0.11292E-02   -0.11322E-02  9152   0.588E-02 0.115E-04
CGA:  14    -0.384406748539E+03   -0.72026E-03   -0.72103E-03  9152   0.876E-02-0.187E-04
CGA:  15    -0.384407546997E+03   -0.79846E-03   -0.79925E-03  9152   0.300E-02 0.657E-04
CGA:  16    -0.384407905770E+03   -0.35877E-03   -0.35879E-03  9152   0.375E-02 0.158E-05
CGA:  17    -0.384408228804E+03   -0.32303E-03   -0.32325E-03  9152   0.235E-02 0.920E-05
CGA:  18    -0.384408447578E+03   -0.21877E-03   -0.21876E-03  9152   0.115E-02-0.271E-06
CGA:  19    -0.384408564737E+03   -0.11716E-03   -0.11713E-03  9152   0.910E-03 0.360E-05
CGA:  20    -0.384408650370E+03   -0.85633E-04   -0.85639E-04  9152   0.744E-03 0.173E-05
CGA:  21    -0.384408710341E+03   -0.59971E-04   -0.59930E-04  9152   0.260E-03-0.325E-07
CGA:  22    -0.384408741331E+03   -0.30990E-04   -0.30993E-04  9152   0.358E-03 0.659E-07
CGA:  23    -0.384408778197E+03   -0.36866E-04   -0.36859E-04  9152   0.152E-03 0.105E-05
CGA:  24    -0.384408790942E+03   -0.12745E-04   -0.12743E-04  9152   0.149E-03-0.108E-06
CGA:  25    -0.384408810555E+03   -0.19613E-04   -0.19661E-04  9152   0.985E-04-0.135E-05
CGA:  26    -0.384408820752E+03   -0.10197E-04   -0.10201E-04  9152   0.800E-04-0.772E-06
CGA:  27    -0.384408826648E+03   -0.58955E-05   -0.58755E-05  9152   0.455E-04-0.840E-06
  12 F= -.38440883E+03 E0= -.38440195E+03  d E =-.574036E-01  mag=    46.0000
       N       E                     dE             d eps       ncg     rms          ort
SDA:   1    -0.355177963740E+03    0.29231E+02    0.00000E+00  9152   0.114E+03 0.000E+00
CGA:   2    -0.366992720689E+03   -0.11815E+02   -0.11708E+02  9152   0.560E+02 0.262E+02
CGA:   3    -0.373774109995E+03   -0.67814E+01   -0.64450E+01  9152   0.882E+02-0.266E+02
CGA:   4    -0.377359827568E+03   -0.35857E+01   -0.53778E+01  9152   0.743E+02-0.726E+02
CGA:   5    -0.380154876916E+03   -0.27950E+01   -0.44767E+01  9152   0.410E+02-0.138E+02
CGA:   6    -0.382227104913E+03   -0.20722E+01   -0.12407E+01  9152   0.119E+02 0.207E+02
CGA:   7    -0.382674162803E+03   -0.44706E+00   -0.38383E+00  9152   0.510E+01 0.160E+01
CGA:   8    -0.383303213647E+03   -0.62905E+00   -0.66266E+00  9152   0.907E+01-0.107E+01
CGA:   9    -0.383553792302E+03   -0.25058E+00   -0.30078E+00  9152   0.474E+01-0.496E+00
CGA:  10    -0.383697096039E+03   -0.14330E+00   -0.11585E+00  9152   0.104E+01 0.898E+00
CGA:  11    -0.383737912587E+03   -0.40817E-01   -0.35793E-01  9152   0.810E+00 0.129E+00
CGA:  12    -0.383797775137E+03   -0.59863E-01   -0.61102E-01  9152   0.195E+01 0.139E-01
CGA:  13    -0.383855298859E+03   -0.57524E-01   -0.34896E-01  9152   0.130E+01 0.118E+01
CGA:  14    -0.383913200265E+03   -0.57901E-01   -0.53090E-01  9152   0.374E+00 0.683E-01
CGA:  15    -0.383927291099E+03   -0.14091E-01   -0.14040E-01  9152   0.314E+00-0.508E-03
CGA:  16    -0.383972289959E+03   -0.44999E-01   -0.53959E-01  9152   0.149E+01-0.834E-01
CGA:  17    -0.384020557864E+03   -0.48268E-01   -0.36817E-01  9152   0.474E+00 0.161E+00
CGA:  18    -0.384031437924E+03   -0.10880E-01   -0.14107E-01  9152   0.178E+00-0.944E-01
CGA:  19    -0.384043283930E+03   -0.11846E-01   -0.11693E-01  9152   0.244E+00 0.149E-01
CGA:  20    -0.384060431075E+03   -0.17147E-01   -0.17429E-01  9152   0.104E+00 0.960E-02
CGA:  21    -0.384070864516E+03   -0.10433E-01   -0.10606E-01  9152   0.424E-01-0.586E-02
CGA:  22    -0.384075351358E+03   -0.44868E-02   -0.44646E-02  9152   0.292E-01 0.517E-03
CGA:  23    -0.384078081505E+03   -0.27301E-02   -0.27215E-02  9152   0.134E-01 0.424E-03
CGA:  24    -0.384078990546E+03   -0.90904E-03   -0.91052E-03  9152   0.372E-02 0.417E-04
CGA:  25    -0.384079594853E+03   -0.60431E-03   -0.60697E-03  9152   0.578E-02-0.329E-04
CGA:  26    -0.384080169120E+03   -0.57427E-03   -0.57322E-03  9152   0.154E-02 0.496E-04
CGA:  27    -0.384080488368E+03   -0.31925E-03   -0.31776E-03  9152   0.213E-02 0.130E-04
CGA:  28    -0.384080675092E+03   -0.18672E-03   -0.18658E-03  9152   0.819E-03-0.232E-04
CGA:  29    -0.384080844062E+03   -0.16897E-03   -0.17362E-03  9152   0.124E-02-0.396E-04
CGA:  30    -0.384080964290E+03   -0.12023E-03   -0.12027E-03  9152   0.665E-03-0.707E-05
CGA:  31    -0.384081021683E+03   -0.57393E-04   -0.57364E-04  9152   0.468E-03-0.322E-05
CGA:  32    -0.384081078220E+03   -0.56538E-04   -0.56619E-04  9152   0.380E-03-0.318E-05
CGA:  33    -0.384081127323E+03   -0.49103E-04   -0.49204E-04  9152   0.327E-03-0.266E-05
CGA:  34    -0.384081158443E+03   -0.31120E-04   -0.31117E-04  9152   0.176E-03-0.620E-06
CGA:  35    -0.384081192775E+03   -0.34331E-04   -0.34214E-04  9152   0.120E-03 0.120E-05
CGA:  36    -0.384081204947E+03   -0.12172E-04   -0.12174E-04  9152   0.109E-03 0.586E-06
CGA:  37    -0.384081223548E+03   -0.18601E-04   -0.18520E-04  9152   0.850E-04 0.123E-05
CGA:  38    -0.384081229798E+03   -0.62508E-05   -0.62832E-05  9152   0.342E-04 0.747E-06
  13 F= -.38408123E+03 E0= -.38407507E+03  d E =0.327597E+00  mag=    46.0000
       N       E                     dE             d eps       ncg     rms          ort
SDA:   1    -0.378445576287E+03    0.56356E+01    0.00000E+00  9152   0.213E+02 0.000E+00
CGA:   2    -0.381230613290E+03   -0.27850E+01   -0.30503E+01  9152   0.277E+02-0.582E+01
CGA:   3    -0.382446258738E+03   -0.12156E+01   -0.11793E+01  9152   0.987E+01 0.107E+01
CGA:   4    -0.383420721769E+03   -0.97446E+00   -0.97354E+00  9152   0.101E+02-0.392E-01
CGA:   5    -0.383900827959E+03   -0.48011E+00   -0.47862E+00  9152   0.444E+01 0.368E+00
CGA:   6    -0.384152775701E+03   -0.25195E+00   -0.23653E+00  9152   0.176E+01 0.123E+00
CGA:   7    -0.384262912818E+03   -0.11014E+00   -0.11269E+00  9152   0.112E+01 0.480E-02
CGA:   8    -0.384325468991E+03   -0.62556E-01   -0.61021E-01  9152   0.596E+00 0.812E-02
CGA:   9    -0.384374061316E+03   -0.48592E-01   -0.48345E-01  9152   0.298E+00-0.499E-02
CGA:  10    -0.384391205916E+03   -0.17145E-01   -0.17753E-01  9152   0.172E+00-0.110E-02
CGA:  11    -0.384402865515E+03   -0.11660E-01   -0.11879E-01  9152   0.940E-01 0.157E-02
CGA:  12    -0.384413997286E+03   -0.11132E-01   -0.11262E-01  9152   0.436E-01-0.372E-02
CGA:  13    -0.384416936794E+03   -0.29395E-02   -0.29352E-02  9152   0.279E-01-0.244E-04
CGA:  14    -0.384420484768E+03   -0.35480E-02   -0.35058E-02  9152   0.142E-01 0.945E-03
CGA:  15    -0.384421723666E+03   -0.12389E-02   -0.12433E-02  9152   0.115E-01 0.197E-03
CGA:  16    -0.384422730116E+03   -0.10064E-02   -0.10055E-02  9152   0.443E-02-0.491E-04
CGA:  17    -0.384423305915E+03   -0.57580E-03   -0.57554E-03  9152   0.524E-02 0.580E-05
CGA:  18    -0.384423685439E+03   -0.37952E-03   -0.38089E-03  9152   0.167E-02 0.159E-04
CGA:  19    -0.384423908044E+03   -0.22260E-03   -0.22209E-03  9152   0.156E-02 0.117E-04
CGA:  20    -0.384424056742E+03   -0.14870E-03   -0.14869E-03  9152   0.887E-03-0.378E-05
CGA:  21    -0.384424141129E+03   -0.84386E-04   -0.84388E-04  9152   0.593E-03 0.183E-05
CGA:  22    -0.384424204766E+03   -0.63637E-04   -0.63566E-04  9152   0.305E-03 0.353E-05
CGA:  23    -0.384424240202E+03   -0.35436E-04   -0.35453E-04  9152   0.325E-03-0.851E-06
CGA:  24    -0.384424266990E+03   -0.26788E-04   -0.26772E-04  9152   0.130E-03-0.775E-06
CGA:  25    -0.384424288387E+03   -0.21397E-04   -0.21381E-04  9152   0.163E-03 0.217E-06
CGA:  26    -0.384424300138E+03   -0.11751E-04   -0.11754E-04  9152   0.735E-04 0.229E-06
CGA:  27    -0.384424313310E+03   -0.13172E-04   -0.13109E-04  9152   0.647E-04 0.806E-06
CGA:  28    -0.384424319766E+03   -0.64556E-05   -0.64562E-05  9152   0.628E-04 0.164E-06
  14 F= -.38442432E+03 E0= -.38441786E+03  d E =-.343090E+00  mag=    46.0000
       N       E                     dE             d eps       ncg     rms          ort
SDA:   1    -0.384330472735E+03    0.93841E-01    0.00000E+00  9152   0.368E+00 0.000E+00
CGA:   2    -0.384395016776E+03   -0.64544E-01   -0.64663E-01  9152   0.253E+00-0.146E-02
CGA:   3    -0.384416447325E+03   -0.21431E-01   -0.21644E-01  9152   0.164E+00 0.272E-02
CGA:   4    -0.384437818636E+03   -0.21371E-01   -0.21421E-01  9152   0.459E-01-0.142E-02
CGA:   5    -0.384442409235E+03   -0.45906E-02   -0.45835E-02  9152   0.256E-01-0.543E-03
CGA:   6    -0.384444815159E+03   -0.24059E-02   -0.24056E-02  9152   0.999E-02-0.109E-04
CGA:   7    -0.384445451222E+03   -0.63606E-03   -0.63664E-03  9152   0.525E-02-0.322E-05
CGA:   8    -0.384446019937E+03   -0.56872E-03   -0.56851E-03  9152   0.257E-02 0.225E-04
CGA:   9    -0.384446226494E+03   -0.20656E-03   -0.20610E-03  9152   0.118E-02-0.419E-05
CGA:  10    -0.384446372682E+03   -0.14619E-03   -0.14605E-03  9152   0.602E-03 0.533E-05
CGA:  11    -0.384446449135E+03   -0.76453E-04   -0.76467E-04  9152   0.360E-03-0.299E-06
CGA:  12    -0.384446474930E+03   -0.25795E-04   -0.25851E-04  9152   0.232E-03 0.328E-06
CGA:  13    -0.384446503455E+03   -0.28525E-04   -0.28516E-04  9152   0.167E-03 0.457E-06
CGA:  14    -0.384446515944E+03   -0.12489E-04   -0.12491E-04  9152   0.643E-04 0.945E-07
CGA:  15    -0.384446527064E+03   -0.11120E-04   -0.11064E-04  9152   0.619E-04 0.801E-06
CGA:  16    -0.384446532790E+03   -0.57256E-05   -0.57335E-05  9152   0.284E-04 0.496E-06
  15 F= -.38444653E+03 E0= -.38444003E+03  d E =-.222130E-01  mag=    46.0000
       N       E                     dE             d eps       ncg     rms          ort
SDA:   1    -0.383335948298E+03    0.11106E+01    0.00000E+00  9152   0.387E+01 0.000E+00
CGA:   2    -0.383828406279E+03   -0.49246E+00   -0.50924E+00  9152   0.610E+01-0.428E+00
CGA:   3    -0.384118764703E+03   -0.29036E+00   -0.31079E+00  9152   0.171E+01-0.178E+00
CGA:   4    -0.384318454996E+03   -0.19969E+00   -0.19903E+00  9152   0.138E+01 0.270E-01
CGA:   5    -0.384422492433E+03   -0.10404E+00   -0.10082E+00  9152   0.354E+00-0.349E-02
CGA:   6    -0.384455578496E+03   -0.33086E-01   -0.33240E-01  9152   0.214E+00 0.675E-02
CGA:   7    -0.384470148227E+03   -0.14570E-01   -0.14491E-01  9152   0.105E+00 0.377E-05
CGA:   8    -0.384478637512E+03   -0.84893E-02   -0.84851E-02  9152   0.378E-01-0.686E-04
CGA:   9    -0.384482597761E+03   -0.39602E-02   -0.39505E-02  9152   0.180E-01 0.121E-02
CGA:  10    -0.384485189231E+03   -0.25915E-02   -0.26036E-02  9152   0.894E-02-0.241E-03
CGA:  11    -0.384485865221E+03   -0.67599E-03   -0.67537E-03  9152   0.620E-02-0.279E-05
CGA:  12    -0.384486647552E+03   -0.78233E-03   -0.78085E-03  9152   0.354E-02 0.435E-04
CGA:  13    -0.384486876450E+03   -0.22890E-03   -0.22998E-03  9152   0.217E-02-0.394E-06
CGA:  14    -0.384487149445E+03   -0.27299E-03   -0.27339E-03  9152   0.113E-02-0.105E-04
CGA:  15    -0.384487316860E+03   -0.16742E-03   -0.16682E-03  9152   0.704E-03 0.108E-04
CGA:  16    -0.384487391232E+03   -0.74371E-04   -0.74371E-04  9152   0.506E-03 0.453E-06
CGA:  17    -0.384487453628E+03   -0.62396E-04   -0.62390E-04  9152   0.446E-03 0.482E-06
CGA:  18    -0.384487489154E+03   -0.35526E-04   -0.35562E-04  9152   0.184E-03 0.112E-05
CGA:  19    -0.384487508835E+03   -0.19682E-04   -0.19681E-04  9152   0.231E-03 0.161E-06
CGA:  20    -0.384487530022E+03   -0.21186E-04   -0.21173E-04  9152   0.771E-04-0.821E-06
CGA:  21    -0.384487542095E+03   -0.12074E-04   -0.12050E-04  9152   0.496E-04 0.430E-06
CGA:  22    -0.384487549804E+03   -0.77089E-05   -0.76995E-05  9152   0.645E-04 0.191E-06
  16 F= -.38448755E+03 E0= -.38448096E+03  d E =-.410170E-01  mag=    46.0000
       N       E                     dE             d eps       ncg     rms          ort
SDA:   1    -0.384287810242E+03    0.19973E+00    0.00000E+00  9152   0.629E+00 0.000E+00
CGA:   2    -0.384401433868E+03   -0.11362E+00   -0.11336E+00  9152   0.937E+00 0.377E-02
CGA:   3    -0.384453249729E+03   -0.51816E-01   -0.50513E-01  9152   0.230E+00 0.102E-01
CGA:   4    -0.384484667349E+03   -0.31418E-01   -0.31415E-01  9152   0.190E+00-0.204E-04
CGA:   5    -0.384496111223E+03   -0.11444E-01   -0.11190E-01  9152   0.320E-01 0.176E-02
CGA:   6    -0.384500714518E+03   -0.46033E-02   -0.45933E-02  9152   0.183E-01 0.213E-03
CGA:   7    -0.384501951360E+03   -0.12368E-02   -0.12281E-02  9152   0.761E-02 0.224E-04
CGA:   8    -0.384502540936E+03   -0.58958E-03   -0.58823E-03  9152   0.489E-02-0.752E-05
CGA:   9    -0.384503040856E+03   -0.49992E-03   -0.49996E-03  9152   0.142E-02 0.765E-05
CGA:  10    -0.384503220469E+03   -0.17961E-03   -0.17966E-03  9152   0.913E-03-0.178E-05
CGA:  11    -0.384503318769E+03   -0.98299E-04   -0.98296E-04  9152   0.926E-03 0.154E-05
CGA:  12    -0.384503390589E+03   -0.71821E-04   -0.71886E-04  9152   0.332E-03 0.142E-05
CGA:  13    -0.384503426092E+03   -0.35502E-04   -0.35504E-04  9152   0.435E-03-0.292E-06
CGA:  14    -0.384503481513E+03   -0.55422E-04   -0.55385E-04  9152   0.136E-03 0.136E-05
CGA:  15    -0.384503501104E+03   -0.19590E-04   -0.19572E-04  9152   0.180E-03 0.458E-06
CGA:  16    -0.384503519423E+03   -0.18319E-04   -0.18319E-04  9152   0.126E-03-0.535E-07
CGA:  17    -0.384503527361E+03   -0.79380E-05   -0.79274E-05  9152   0.430E-04-0.119E-06
  17 F= -.38450353E+03 E0= -.38449693E+03  d E =-.159776E-01  mag=    46.0000
       N       E                     dE             d eps       ncg     rms          ort
SDA:   1    -0.383445102503E+03    0.10584E+01    0.00000E+00  9152   0.311E+01 0.000E+00
CGA:   2    -0.384053847733E+03   -0.60875E+00   -0.59496E+00  9152   0.381E+01 0.151E+00
CGA:   3    -0.384309204409E+03   -0.25536E+00   -0.25441E+00  9152   0.144E+01-0.633E-01
CGA:   4    -0.384422464227E+03   -0.11326E+00   -0.10293E+00  9152   0.800E+00 0.443E-01
CGA:   5    -0.384499123767E+03   -0.76660E-01   -0.76323E-01  9152   0.330E+00-0.701E-02
CGA:   6    -0.384519882121E+03   -0.20758E-01   -0.21234E-01  9152   0.962E-01-0.189E-02
CGA:   7    -0.384529776089E+03   -0.98940E-02   -0.98930E-02  9152   0.652E-01-0.240E-03
CGA:   8    -0.384533851841E+03   -0.40758E-02   -0.39984E-02  9152   0.271E-01 0.369E-03
CGA:   9    -0.384536082174E+03   -0.22303E-02   -0.22427E-02  9152   0.100E-01 0.149E-03
CGA:  10    -0.384537463542E+03   -0.13814E-02   -0.13846E-02  9152   0.588E-02-0.710E-04
CGA:  11    -0.384537957919E+03   -0.49438E-03   -0.49609E-03  9152   0.351E-02 0.268E-04
CGA:  12    -0.384538221061E+03   -0.26314E-03   -0.26383E-03  9152   0.265E-02 0.482E-05
CGA:  13    -0.384538582280E+03   -0.36122E-03   -0.36126E-03  9152   0.152E-02-0.277E-06
CGA:  14    -0.384538721064E+03   -0.13878E-03   -0.13892E-03  9152   0.113E-02 0.602E-05
CGA:  15    -0.384538907321E+03   -0.18626E-03   -0.18584E-03  9152   0.953E-03 0.607E-05
CGA:  16    -0.384539007649E+03   -0.10033E-03   -0.10032E-03  9152   0.398E-03-0.201E-05
CGA:  17    -0.384539080725E+03   -0.73077E-04   -0.73002E-04  9152   0.355E-03 0.916E-06
CGA:  18    -0.384539113970E+03   -0.33245E-04   -0.33250E-04  9152   0.204E-03 0.160E-06
CGA:  19    -0.384539130685E+03   -0.16715E-04   -0.16716E-04  9152   0.133E-03-0.154E-07
CGA:  20    -0.384539144464E+03   -0.13780E-04   -0.13781E-04  9152   0.117E-03 0.418E-06
CGA:  21    -0.384539154447E+03   -0.99826E-05   -0.99978E-05  9152   0.449E-04 0.585E-06
  18 F= -.38453915E+03 E0= -.38453255E+03  d E =-.356271E-01  mag=    46.0000
       N       E                     dE             d eps       ncg     rms          ort
SDA:   1    -0.362420157837E+03    0.22119E+02    0.00000E+00  9152   0.781E+02 0.000E+00
CGA:   2    -0.371553836665E+03   -0.91337E+01   -0.89772E+01  9152   0.607E+02 0.123E+02
CGA:   3    -0.377769540697E+03   -0.62157E+01   -0.56700E+01  9152   0.507E+02-0.105E+02
CGA:   4    -0.381130014913E+03   -0.33605E+01   -0.31598E+01  9152   0.354E+02-0.134E+00
CGA:   5    -0.381632028905E+03   -0.50201E+00   -0.14582E+01  9152   0.489E+02-0.180E+02
CGA:   6    -0.381483880700E+03    0.14815E+00   -0.19192E+01  9152   0.652E+02-0.469E+02
CGA:   7    -0.382808910974E+03   -0.13250E+01   -0.17097E+01  9152   0.343E+02-0.531E+02
CGA:   8    -0.382753322292E+03    0.55589E-01   -0.11580E+01  9152   0.430E+02-0.323E+02
CGA:   9    -0.382875772273E+03   -0.12245E+00   -0.13530E+01  9152   0.404E+02-0.371E+02
CGA:  10    -0.382928463449E+03   -0.52691E-01   -0.13081E+01  9152   0.430E+02-0.391E+02
CGA:  11    -0.383122192484E+03   -0.19373E+00   -0.13267E+01  9152   0.361E+02-0.367E+02
CGA:  12    -0.383389696160E+03   -0.26750E+00   -0.10525E+01  9152   0.270E+02-0.305E+02
CGA:  13    -0.383570890794E+03   -0.18119E+00   -0.78551E+00  9152   0.197E+02-0.216E+02
CGA:  14    -0.383843780961E+03   -0.27289E+00   -0.46116E+00  9152   0.557E+01-0.916E+01
CGA:  15    -0.383991142154E+03   -0.14736E+00   -0.14909E+00  9152   0.120E+01-0.189E-01
CGA:  16    -0.384046372886E+03   -0.55231E-01   -0.57147E-01  9152   0.145E+01-0.728E-02
CGA:  17    -0.384252110247E+03   -0.20574E+00   -0.19509E+00  9152   0.111E+01 0.164E+00
CGA:  18    -0.384293249100E+03   -0.41139E-01   -0.48949E-01  9152   0.364E+00-0.832E-01
CGA:  19    -0.384319040213E+03   -0.25791E-01   -0.25713E-01  9152   0.269E+00 0.179E-01
CGA:  20    -0.384341313692E+03   -0.22273E-01   -0.22099E-01  9152   0.159E+00 0.232E-01
CGA:  21    -0.384353964968E+03   -0.12651E-01   -0.12662E-01  9152   0.814E-01 0.476E-02
CGA:  22    -0.384360835772E+03   -0.68708E-02   -0.68193E-02  9152   0.397E-01 0.427E-02
CGA:  23    -0.384364421196E+03   -0.35854E-02   -0.35643E-02  9152   0.254E-01 0.124E-02
CGA:  24    -0.384367134871E+03   -0.27137E-02   -0.26678E-02  9152   0.159E-01 0.131E-02
CGA:  25    -0.384368698436E+03   -0.15636E-02   -0.15544E-02  9152   0.107E-01 0.381E-03
CGA:  26    -0.384369924764E+03   -0.12263E-02   -0.12135E-02  9152   0.771E-02 0.304E-03
CGA:  27    -0.384370693445E+03   -0.76868E-03   -0.76587E-03  9152   0.450E-02 0.111E-03
CGA:  28    -0.384371178104E+03   -0.48466E-03   -0.48263E-03  9152   0.305E-02 0.600E-04
CGA:  29    -0.384371505046E+03   -0.32694E-03   -0.32594E-03  9152   0.197E-02 0.318E-04
CGA:  30    -0.384371709187E+03   -0.20414E-03   -0.20364E-03  9152   0.121E-02 0.192E-04
CGA:  31    -0.384371845849E+03   -0.13666E-03   -0.13649E-03  9152   0.955E-03 0.550E-05
CGA:  32    -0.384371960022E+03   -0.11417E-03   -0.11393E-03  9152   0.686E-03 0.609E-05
CGA:  33    -0.384372031977E+03   -0.71955E-04   -0.71956E-04  9152   0.465E-03-0.252E-06
CGA:  34    -0.384372089438E+03   -0.57462E-04   -0.57544E-04  9152   0.374E-03-0.240E-05
CGA:  35    -0.384372127870E+03   -0.38431E-04   -0.38476E-04  9152   0.214E-03-0.308E-05
CGA:  36    -0.384372151147E+03   -0.23277E-04   -0.23322E-04  9152   0.158E-03-0.229E-05
CGA:  37    -0.384372168994E+03   -0.17847E-04   -0.17893E-04  9152   0.105E-03-0.182E-05
CGA:  38    -0.384372179564E+03   -0.10570E-04   -0.10577E-04  9152   0.627E-04-0.653E-06
CGA:  39    -0.384372186489E+03   -0.69245E-05   -0.69302E-05  9152   0.466E-04-0.272E-06
  19 F= -.38437219E+03 E0= -.38436599E+03  d E =0.166968E+00  mag=    46.0000
       N       E                     dE             d eps       ncg     rms          ort
SDA:   1    -0.367020545009E+03    0.17352E+02    0.00000E+00  9152   0.689E+02 0.000E+00
CGA:   2    -0.375084331921E+03   -0.80638E+01   -0.81592E+01  9152   0.568E+02-0.197E+01
CGA:   3    -0.379186681441E+03   -0.41023E+01   -0.36608E+01  9152   0.242E+02-0.126E+01
CGA:   4    -0.381939068330E+03   -0.27524E+01   -0.32566E+01  9152   0.433E+02-0.104E+02
CGA:   5    -0.382920733847E+03   -0.98167E+00   -0.94586E+00  9152   0.159E+02 0.132E+00
CGA:   6    -0.383466360266E+03   -0.54563E+00   -0.56578E+00  9152   0.102E+02-0.214E+01
CGA:   7    -0.383662082423E+03   -0.19572E+00   -0.25892E+00  9152   0.910E+01-0.242E+01
CGA:   8    -0.383903453422E+03   -0.24137E+00   -0.24257E+00  9152   0.884E+01-0.997E-01
CGA:   9    -0.384100669942E+03   -0.19722E+00   -0.21978E+00  9152   0.402E+01-0.101E+01
CGA:  10    -0.384241103384E+03   -0.14043E+00   -0.14860E+00  9152   0.461E+01-0.139E+00
CGA:  11    -0.384325111718E+03   -0.84008E-01   -0.76455E-01  9152   0.125E+01 0.349E+00
CGA:  12    -0.384357391527E+03   -0.32280E-01   -0.38341E-01  9152   0.154E+01-0.159E+00
CGA:  13    -0.384418024029E+03   -0.60633E-01   -0.64262E-01  9152   0.172E+01-0.360E-02
CGA:  14    -0.384459021639E+03   -0.40998E-01   -0.49190E-01  9152   0.801E+00-0.189E+00
CGA:  15    -0.384495863750E+03   -0.36842E-01   -0.34480E-01  9152   0.523E+00 0.940E-03
CGA:  16    -0.384509440704E+03   -0.13577E-01   -0.14397E-01  9152   0.181E+00-0.174E-01
CGA:  17    -0.384520492525E+03   -0.11052E-01   -0.11124E-01  9152   0.318E+00 0.761E-02
CGA:  18    -0.384539676073E+03   -0.19184E-01   -0.19275E-01  9152   0.104E+00 0.339E-02
CGA:  19    -0.384544578021E+03   -0.49019E-02   -0.49559E-02  9152   0.491E-01 0.306E-03
CGA:  20    -0.384547854820E+03   -0.32768E-02   -0.32772E-02  9152   0.418E-01-0.338E-03
CGA:  21    -0.384550936167E+03   -0.30813E-02   -0.30783E-02  9152   0.346E-01 0.230E-03
CGA:  22    -0.384553142572E+03   -0.22064E-02   -0.22083E-02  9152   0.201E-01 0.306E-03
CGA:  23    -0.384554176308E+03   -0.10337E-02   -0.10393E-02  9152   0.834E-02 0.815E-04
CGA:  24    -0.384554909134E+03   -0.73283E-03   -0.73336E-03  9152   0.905E-02-0.196E-04
CGA:  25    -0.384555531082E+03   -0.62195E-03   -0.62176E-03  9152   0.705E-02 0.449E-04
CGA:  26    -0.384556049384E+03   -0.51830E-03   -0.51769E-03  9152   0.313E-02 0.581E-04
CGA:  27    -0.384556244005E+03   -0.19462E-03   -0.19471E-03  9152   0.288E-02 0.656E-05
CGA:  28    -0.384556557911E+03   -0.31391E-03   -0.31398E-03  9152   0.209E-02-0.197E-05
CGA:  29    -0.384556680644E+03   -0.12273E-03   -0.12280E-03  9152   0.138E-02 0.146E-05
CGA:  30    -0.384556806862E+03   -0.12622E-03   -0.12593E-03  9152   0.147E-02 0.943E-05
CGA:  31    -0.384556945978E+03   -0.13912E-03   -0.13902E-03  9152   0.119E-02 0.289E-05
SDA:  32    -0.384557012899E+03   -0.66921E-04   -0.66907E-04  9152   0.554E-03-0.771E-06
CGA:  33    -0.384557052037E+03   -0.39138E-04   -0.39137E-04  9152   0.426E-03 0.135E-05
CGA:  34    -0.384557113753E+03   -0.61717E-04   -0.61538E-04  9152   0.460E-03 0.227E-05
CGA:  35    -0.384557147241E+03   -0.33488E-04   -0.33487E-04  9152   0.173E-03 0.686E-07
CGA:  36    -0.384557169569E+03   -0.22328E-04   -0.22356E-04  9152   0.157E-03-0.589E-06
CGA:  37    -0.384557187929E+03   -0.18359E-04   -0.18331E-04  9152   0.118E-03 0.584E-06
CGA:  38    -0.384557205971E+03   -0.18042E-04   -0.18065E-04  9152   0.101E-03-0.353E-06
CGA:  39    -0.384557229105E+03   -0.23134E-04   -0.22994E-04  9152   0.382E-04 0.967E-06
CGA:  40    -0.384557238187E+03   -0.90819E-05   -0.90928E-05  9152   0.141E-03-0.780E-07
  20 F= -.38455724E+03 E0= -.38455065E+03  d E =-.185052E+00  mag=    46.0000
       N       E                     dE             d eps       ncg     rms          ort
SDA:   1    -0.383951385810E+03    0.60584E+00    0.00000E+00  9152   0.214E+01 0.000E+00
CGA:   2    -0.384279820060E+03   -0.32843E+00   -0.33084E+00  9152   0.221E+01-0.351E-01
CGA:   3    -0.384405580823E+03   -0.12576E+00   -0.13409E+00  9152   0.988E+00-0.231E-01
CGA:   4    -0.384514624292E+03   -0.10904E+00   -0.10964E+00  9152   0.797E+00-0.245E-01
CGA:   5    -0.384571198901E+03   -0.56575E-01   -0.56686E-01  9152   0.166E+00 0.357E-03
CGA:   6    -0.384589199387E+03   -0.18000E-01   -0.17970E-01  9152   0.117E+00 0.153E-02
CGA:   7    -0.384599148734E+03   -0.99493E-02   -0.99271E-02  9152   0.263E-01-0.607E-03
CGA:   8    -0.384602392450E+03   -0.32437E-02   -0.32401E-02  9152   0.253E-01 0.947E-04
CGA:   9    -0.384603962202E+03   -0.15698E-02   -0.15794E-02  9152   0.906E-02-0.180E-04
CGA:  10    -0.384604934918E+03   -0.97272E-03   -0.97433E-03  9152   0.449E-02-0.829E-04
CGA:  11    -0.384605424283E+03   -0.48936E-03   -0.48894E-03  9152   0.342E-02 0.207E-04
CGA:  12    -0.384605728549E+03   -0.30427E-03   -0.30429E-03  9152   0.109E-02 0.160E-05
CGA:  13    -0.384605850289E+03   -0.12174E-03   -0.12171E-03  9152   0.134E-02 0.118E-05
CGA:  14    -0.384605966413E+03   -0.11612E-03   -0.11611E-03  9152   0.476E-03-0.698E-06
CGA:  15    -0.384606009408E+03   -0.42995E-04   -0.42994E-04  9152   0.309E-03-0.465E-06
CGA:  16    -0.384606062009E+03   -0.52600E-04   -0.52722E-04  9152   0.200E-03-0.165E-05
CGA:  17    -0.384606076310E+03   -0.14301E-04   -0.14300E-04  9152   0.124E-03-0.184E-06
CGA:  18    -0.384606092335E+03   -0.16025E-04   -0.16006E-04  9152   0.119E-03 0.685E-06
CGA:  19    -0.384606102160E+03   -0.98250E-05   -0.98414E-05  9152   0.548E-04 0.768E-06
  21 F= -.38460610E+03 E0= -.38459959E+03  d E =-.488640E-01  mag=    46.0000
       N       E                     dE             d eps       ncg     rms          ort
SDA:   1    -0.382635494592E+03    0.19706E+01    0.00000E+00  9152   0.674E+01 0.000E+00
CGA:   2    -0.383499360764E+03   -0.86387E+00   -0.87341E+00  9152   0.859E+01-0.213E+00
CGA:   3    -0.384003046037E+03   -0.50369E+00   -0.53358E+00  9152   0.315E+01-0.708E-01
CGA:   4    -0.384295652013E+03   -0.29261E+00   -0.28976E+00  9152   0.252E+01-0.181E+00
CGA:   5    -0.384511957861E+03   -0.21631E+00   -0.21649E+00  9152   0.766E+00 0.102E-01
CGA:   6    -0.384552480476E+03   -0.40523E-01   -0.43237E-01  9152   0.409E+00-0.182E-01
CGA:   7    -0.384589170475E+03   -0.36690E-01   -0.36666E-01  9152   0.258E+00-0.222E-02
CGA:   8    -0.384604539049E+03   -0.15369E-01   -0.15228E-01  9152   0.512E-01 0.350E-03
CGA:   9    -0.384613073338E+03   -0.85343E-02   -0.84741E-02  9152   0.517E-01 0.791E-03
CGA:  10    -0.384615745580E+03   -0.26722E-02   -0.26460E-02  9152   0.167E-01 0.256E-03
CGA:  11    -0.384617616063E+03   -0.18705E-02   -0.18703E-02  9152   0.128E-01 0.588E-05
CGA:  12    -0.384618829214E+03   -0.12132E-02   -0.12134E-02  9152   0.650E-02 0.678E-04
CGA:  13    -0.384619440151E+03   -0.61094E-03   -0.61136E-03  9152   0.318E-02 0.722E-04
CGA:  14    -0.384619733444E+03   -0.29329E-03   -0.29346E-03  9152   0.342E-02 0.150E-04
CGA:  15    -0.384620066714E+03   -0.33327E-03   -0.33326E-03  9152   0.144E-02 0.565E-05
CGA:  16    -0.384620193139E+03   -0.12642E-03   -0.12646E-03  9152   0.807E-03 0.146E-05
CGA:  17    -0.384620348692E+03   -0.15555E-03   -0.15545E-03  9152   0.734E-03 0.104E-05
CGA:  18    -0.384620392941E+03   -0.44249E-04   -0.44191E-04  9152   0.314E-03-0.104E-06
CGA:  19    -0.384620435274E+03   -0.42334E-04   -0.42264E-04  9152   0.421E-03 0.173E-05
CGA:  20    -0.384620471544E+03   -0.36269E-04   -0.36306E-04  9152   0.127E-03 0.194E-05
CGA:  21    -0.384620489000E+03   -0.17457E-04   -0.17452E-04  9152   0.105E-03 0.143E-06
CGA:  22    -0.384620502928E+03   -0.13928E-04   -0.13912E-04  9152   0.118E-03 0.501E-06
CGA:  23    -0.384620512080E+03   -0.91520E-05   -0.91456E-05  9152   0.558E-04-0.987E-07
  22 F= -.38462051E+03 E0= -.38461407E+03  d E =-.144099E-01  mag=    46.0000
       N       E                     dE             d eps       ncg     rms          ort
SDA:   1    -0.384171490448E+03    0.44901E+00    0.00000E+00  9152   0.136E+01 0.000E+00
CGA:   2    -0.384374213235E+03   -0.20272E+00   -0.19675E+00  9152   0.156E+01 0.106E+00
CGA:   3    -0.384526874472E+03   -0.15266E+00   -0.15136E+00  9152   0.886E+00-0.344E-01
CGA:   4    -0.384575151787E+03   -0.48277E-01   -0.47302E-01  9152   0.253E+00 0.136E-01
CGA:   5    -0.384607870191E+03   -0.32718E-01   -0.32659E-01  9152   0.118E+00 0.155E-02
CGA:   6    -0.384615103627E+03   -0.72334E-02   -0.72343E-02  9152   0.489E-01-0.514E-04
CGA:   7    -0.384618545704E+03   -0.34421E-02   -0.34530E-02  9152   0.239E-01 0.449E-04
CGA:   8    -0.384620809529E+03   -0.22638E-02   -0.22641E-02  9152   0.977E-02 0.473E-04
CGA:   9    -0.384621510790E+03   -0.70126E-03   -0.70280E-03  9152   0.455E-02 0.992E-05
CGA:  10    -0.384621925717E+03   -0.41493E-03   -0.41481E-03  9152   0.342E-02-0.113E-04
CGA:  11    -0.384622173218E+03   -0.24750E-03   -0.24696E-03  9152   0.143E-02-0.621E-05
CGA:  12    -0.384622297232E+03   -0.12401E-03   -0.12409E-03  9152   0.620E-03 0.417E-05
CGA:  13    -0.384622384490E+03   -0.87258E-04   -0.87286E-04  9152   0.801E-03-0.495E-06
CGA:  14    -0.384622436872E+03   -0.52382E-04   -0.52305E-04  9152   0.338E-03 0.593E-06
CGA:  15    -0.384622471463E+03   -0.34592E-04   -0.34575E-04  9152   0.224E-03 0.194E-05
CGA:  16    -0.384622510676E+03   -0.39212E-04   -0.39249E-04  9152   0.236E-03-0.460E-06
CGA:  17    -0.384622524482E+03   -0.13806E-04   -0.13803E-04  9152   0.107E-03 0.170E-06
CGA:  18    -0.384622536173E+03   -0.11691E-04   -0.11684E-04  9152   0.824E-04 0.588E-06
CGA:  19    -0.384622546695E+03   -0.10522E-04   -0.10529E-04  9152   0.542E-04-0.244E-06
CGA:  20    -0.384622550376E+03   -0.36810E-05   -0.36859E-05  9152   0.290E-04 0.142E-06
  23 F= -.38462255E+03 E0= -.38461608E+03  d E =-.203830E-02  mag=    46.0000
       N       E                     dE             d eps       ncg     rms          ort
SDA:   1    -0.305050782014E+03    0.79572E+02    0.00000E+00  9152   0.945E+03 0.000E+00
CGA:   2    -0.342518925832E+03   -0.37468E+02   -0.57347E+02  9152   0.129E+03 0.597E+02
CGA:   3    -0.361913229239E+03   -0.19394E+02   -0.18770E+02  9152   0.926E+02 0.300E+02
CGA:   4    -0.371937864899E+03   -0.10025E+02   -0.53500E+01  9152   0.426E+02 0.203E+01
CGA:   5    -0.377794494119E+03   -0.58566E+01   -0.56109E+01  9152   0.650E+02 0.432E+01
CGA:   6    -0.381180406331E+03   -0.33859E+01   -0.20882E+01  9152   0.168E+02-0.969E+01
CGA:   7    -0.382456478233E+03   -0.12761E+01   -0.12695E+01  9152   0.763E+01-0.627E+00
CGA:   8    -0.382841345624E+03   -0.38487E+00   -0.39756E+00  9152   0.685E+01-0.178E+00
CGA:   9    -0.383195896954E+03   -0.35455E+00   -0.33256E+00  9152   0.387E+01 0.138E+00
CGA:  10    -0.383408179691E+03   -0.21228E+00   -0.22082E+00  9152   0.302E+01-0.543E-01
CGA:  11    -0.383516648303E+03   -0.10847E+00   -0.10690E+00  9152   0.150E+01-0.177E-01
CGA:  12    -0.383610736128E+03   -0.94088E-01   -0.94681E-01  9152   0.249E+01-0.540E-02
CGA:  13    -0.383695939189E+03   -0.85203E-01   -0.67333E-01  9152   0.586E+00 0.581E+00
CGA:  14    -0.383717315226E+03   -0.21376E-01   -0.23207E-01  9152   0.581E+00-0.414E-01
CGA:  15    -0.383754994464E+03   -0.37679E-01   -0.38387E-01  9152   0.961E+00 0.365E-01
CGA:  16    -0.383792423172E+03   -0.37429E-01   -0.41390E-01  9152   0.144E+00-0.405E-01
CGA:  17    -0.383802938487E+03   -0.10515E-01   -0.10518E-01  9152   0.136E+00 0.397E-02
CGA:  18    -0.383813210723E+03   -0.10272E-01   -0.10274E-01  9152   0.744E-01 0.310E-03
CGA:  19    -0.383823685710E+03   -0.10475E-01   -0.10377E-01  9152   0.542E-01 0.129E-02
CGA:  20    -0.383826389177E+03   -0.27035E-02   -0.27639E-02  9152   0.220E-01-0.159E-03
CGA:  21    -0.383829316108E+03   -0.29269E-02   -0.28859E-02  9152   0.276E-01 0.684E-03
CGA:  22    -0.383831185322E+03   -0.18692E-02   -0.18693E-02  9152   0.882E-02 0.197E-04
CGA:  23    -0.383832515332E+03   -0.13300E-02   -0.13455E-02  9152   0.101E-01-0.217E-03
CGA:  24    -0.383833187686E+03   -0.67235E-03   -0.67337E-03  9152   0.403E-02 0.128E-04
CGA:  25    -0.383833773981E+03   -0.58629E-03   -0.59112E-03  9152   0.531E-02-0.720E-04
CGA:  26    -0.383834123288E+03   -0.34931E-03   -0.34940E-03  9152   0.279E-02-0.253E-05
CGA:  27    -0.383834438967E+03   -0.31568E-03   -0.31525E-03  9152   0.169E-02 0.120E-04
CGA:  28    -0.383834606571E+03   -0.16760E-03   -0.16757E-03  9152   0.171E-02 0.336E-05
CGA:  29    -0.383834780592E+03   -0.17402E-03   -0.17411E-03  9152   0.633E-03-0.224E-05
CGA:  30    -0.383834884972E+03   -0.10438E-03   -0.10465E-03  9152   0.975E-03-0.379E-05
CGA:  31    -0.383834950493E+03   -0.65521E-04   -0.65285E-04  9152   0.297E-03-0.580E-05
SDA:  32    -0.383834988905E+03   -0.38412E-04   -0.38575E-04  9152   0.509E-03-0.380E-05
CGA:  33    -0.383835009813E+03   -0.20908E-04   -0.20971E-04  9152   0.142E-03 0.543E-06
CGA:  34    -0.383835031440E+03   -0.21627E-04   -0.21500E-04  9152   0.303E-03 0.202E-05
CGA:  35    -0.383835058152E+03   -0.26711E-04   -0.26715E-04  9152   0.849E-04 0.101E-05
CGA:  36    -0.383835071378E+03   -0.13226E-04   -0.13323E-04  9152   0.587E-04-0.160E-05
CGA:  37    -0.383835080763E+03   -0.93854E-05   -0.95408E-05  9152   0.701E-04-0.228E-05
  24 F= -.38383508E+03 E0= -.38382757E+03  d E =0.787470E+00  mag=    46.0000
       N       E                     dE             d eps       ncg     rms          ort
SDA:   1    -0.282759530423E+03    0.10108E+03    0.00000E+00  9152   0.668E+03 0.000E+00
CGA:   2    -0.351103213792E+03   -0.68344E+02   -0.32902E+02  9152   0.147E+03-0.805E+02
CGA:   3    -0.365075894648E+03   -0.13973E+02   -0.13832E+02  9152   0.920E+02 0.127E+02
CGA:   4    -0.372585748365E+03   -0.75099E+01   -0.38572E+01  9152   0.441E+02 0.876E+02
CGA:   5    -0.374539660923E+03   -0.19539E+01   -0.16238E+01  9152   0.447E+02 0.217E+01
CGA:   6    -0.377140995814E+03   -0.26013E+01   -0.28996E+01  9152   0.716E+02-0.104E+01
CGA:   7    -0.379326656278E+03   -0.21857E+01   -0.24786E+01  9152   0.389E+02-0.114E+02
CGA:   8    -0.382212806040E+03   -0.28861E+01   -0.27370E+01  9152   0.350E+02-0.246E+02
CGA:   9    -0.382979182583E+03   -0.76638E+00   -0.92555E+00  9152   0.235E+02-0.177E+02
CGA:  10    -0.383266133378E+03   -0.28695E+00   -0.70592E+00  9152   0.191E+02-0.103E+02
CGA:  11    -0.384140795608E+03   -0.87466E+00   -0.87425E+00  9152   0.162E+01 0.292E+00
CGA:  12    -0.384236188420E+03   -0.95393E-01   -0.94224E-01  9152   0.148E+01-0.736E-02
CGA:  13    -0.384320448713E+03   -0.84260E-01   -0.84724E-01  9152   0.143E+01-0.383E-03
CGA:  14    -0.384485975929E+03   -0.16553E+00   -0.15745E+00  9152   0.549E+00 0.181E+00
CGA:  15    -0.384539605513E+03   -0.53630E-01   -0.52933E-01  9152   0.329E+00 0.750E-01
CGA:  16    -0.384589626476E+03   -0.50021E-01   -0.49645E-01  9152   0.293E+00 0.599E-02
CGA:  17    -0.384608484128E+03   -0.18858E-01   -0.19284E-01  9152   0.121E+00 0.512E-02
CGA:  18    -0.384619448730E+03   -0.10965E-01   -0.10986E-01  9152   0.134E+00-0.168E-02
CGA:  19    -0.384630504991E+03   -0.11056E-01   -0.11052E-01  9152   0.297E-01 0.268E-02
CGA:  20    -0.384632984992E+03   -0.24800E-02   -0.24805E-02  9152   0.252E-01 0.364E-03
CGA:  21    -0.384638018294E+03   -0.50333E-02   -0.50298E-02  9152   0.138E-01 0.142E-04
CGA:  22    -0.384639076102E+03   -0.10578E-02   -0.10595E-02  9152   0.119E-01 0.445E-04
CGA:  23    -0.384640197762E+03   -0.11217E-02   -0.11231E-02  9152   0.840E-02-0.136E-03
CGA:  24    -0.384641168843E+03   -0.97108E-03   -0.96884E-03  9152   0.358E-02 0.486E-04
CGA:  25    -0.384641554124E+03   -0.38528E-03   -0.38502E-03  9152   0.348E-02 0.771E-05
CGA:  26    -0.384642094525E+03   -0.54040E-03   -0.54171E-03  9152   0.240E-02-0.174E-04
CGA:  27    -0.384642246324E+03   -0.15180E-03   -0.15218E-03  9152   0.147E-02 0.159E-05
CGA:  28    -0.384642490798E+03   -0.24447E-03   -0.24489E-03  9152   0.227E-02-0.558E-05
CGA:  29    -0.384642663010E+03   -0.17221E-03   -0.17210E-03  9152   0.652E-03-0.522E-05
CGA:  30    -0.384642795838E+03   -0.13283E-03   -0.13266E-03  9152   0.671E-03 0.155E-05
CGA:  31    -0.384642870054E+03   -0.74216E-04   -0.74243E-04  9152   0.336E-03-0.607E-06
CGA:  32    -0.384642905291E+03   -0.35237E-04   -0.35221E-04  9152   0.326E-03 0.377E-05
CGA:  33    -0.384642937661E+03   -0.32370E-04   -0.32378E-04  9152   0.251E-03 0.290E-05
CGA:  34    -0.384642954597E+03   -0.16936E-04   -0.16978E-04  9152   0.810E-04 0.849E-06
CGA:  35    -0.384642971721E+03   -0.17125E-04   -0.17193E-04  9152   0.126E-03-0.603E-06
CGA:  36    -0.384642980833E+03   -0.91117E-05   -0.90988E-05  9152   0.322E-04-0.280E-06
  25 F= -.38464298E+03 E0= -.38463625E+03  d E =-.807900E+00  mag=    46.0000
       N       E                     dE             d eps       ncg     rms          ort
SDA:   1    -0.384343854280E+03    0.29912E+00    0.00000E+00  9152   0.827E+00 0.000E+00
CGA:   2    -0.384538792958E+03   -0.19494E+00   -0.19373E+00  9152   0.813E+00 0.102E-01
CGA:   3    -0.384599472752E+03   -0.60680E-01   -0.58331E-01  9152   0.291E+00 0.861E-02
CGA:   4    -0.384636211785E+03   -0.36739E-01   -0.36678E-01  9152   0.169E+00 0.457E-02
CGA:   5    -0.384645170334E+03   -0.89585E-02   -0.89058E-02  9152   0.499E-01 0.667E-03
CGA:   6    -0.384650686140E+03   -0.55158E-02   -0.55165E-02  9152   0.310E-01 0.822E-04
CGA:   7    -0.384652716520E+03   -0.20304E-02   -0.20349E-02  9152   0.826E-02-0.202E-04
CGA:   8    -0.384653681268E+03   -0.96475E-03   -0.96444E-03  9152   0.396E-02 0.315E-04
CGA:   9    -0.384654215169E+03   -0.53390E-03   -0.53444E-03  9152   0.182E-02-0.169E-04
CGA:  10    -0.384654334699E+03   -0.11953E-03   -0.11978E-03  9152   0.110E-02-0.662E-06
CGA:  11    -0.384654456925E+03   -0.12223E-03   -0.12222E-03  9152   0.866E-03 0.145E-05
CGA:  12    -0.384654521729E+03   -0.64804E-04   -0.64727E-04  9152   0.221E-03-0.242E-06
CGA:  13    -0.384654572829E+03   -0.51100E-04   -0.51157E-04  9152   0.224E-03-0.472E-06
CGA:  14    -0.384654589685E+03   -0.16856E-04   -0.16848E-04  9152   0.147E-03-0.410E-06
CGA:  15    -0.384654602165E+03   -0.12480E-04   -0.12468E-04  9152   0.892E-04-0.345E-06
CGA:  16    -0.384654613812E+03   -0.11646E-04   -0.11638E-04  9152   0.632E-04 0.420E-06
CGA:  17    -0.384654619451E+03   -0.56389E-05   -0.56440E-05  9152   0.211E-04 0.286E-06
  26 F= -.38465462E+03 E0= -.38464788E+03  d E =-.116386E-01  mag=    46.0000
       N       E                     dE             d eps       ncg     rms          ort
SDA:   1    -0.376587480001E+03    0.80671E+01    0.00000E+00  9152   0.266E+02 0.000E+00
CGA:   2    -0.380129030873E+03   -0.35416E+01   -0.34148E+01  9152   0.194E+02 0.517E+01
CGA:   3    -0.382783276289E+03   -0.26542E+01   -0.25661E+01  9152   0.233E+02-0.107E+02
CGA:   4    -0.383375355622E+03   -0.59208E+00   -0.11999E+01  9152   0.772E+01-0.484E+01
CGA:   5    -0.383952770601E+03   -0.57741E+00   -0.51552E+00  9152   0.418E+01-0.319E+00
CGA:   6    -0.384243467587E+03   -0.29070E+00   -0.26417E+00  9152   0.248E+01 0.530E-01
CGA:   7    -0.384500759654E+03   -0.25729E+00   -0.25832E+00  9152   0.151E+01 0.943E-01
CGA:   8    -0.384610665388E+03   -0.10991E+00   -0.10425E+00  9152   0.367E+00 0.923E-02
CGA:   9    -0.384637503228E+03   -0.26838E-01   -0.27526E-01  9152   0.214E+00 0.207E-02
CGA:  10    -0.384653298546E+03   -0.15795E-01   -0.16012E-01  9152   0.108E+00 0.725E-03
CGA:  11    -0.384660890805E+03   -0.75923E-02   -0.75822E-02  9152   0.373E-01-0.328E-04
CGA:  12    -0.384664805095E+03   -0.39143E-02   -0.39066E-02  9152   0.257E-01 0.108E-02
CGA:  13    -0.384667931743E+03   -0.31266E-02   -0.31261E-02  9152   0.172E-01 0.150E-04
CGA:  14    -0.384669469771E+03   -0.15380E-02   -0.15460E-02  9152   0.931E-02 0.243E-03
CGA:  15    -0.384670182083E+03   -0.71231E-03   -0.71394E-03  9152   0.659E-02 0.127E-04
CGA:  16    -0.384670865026E+03   -0.68294E-03   -0.68295E-03  9152   0.466E-02-0.101E-05
CGA:  17    -0.384671335128E+03   -0.47010E-03   -0.47004E-03  9152   0.193E-02 0.508E-04
CGA:  18    -0.384671551432E+03   -0.21630E-03   -0.21623E-03  9152   0.125E-02 0.439E-05
CGA:  19    -0.384671711812E+03   -0.16038E-03   -0.15979E-03  9152   0.701E-03 0.170E-04
CGA:  20    -0.384671780462E+03   -0.68650E-04   -0.68674E-04  9152   0.429E-03 0.343E-05
CGA:  21    -0.384671824781E+03   -0.44319E-04   -0.44315E-04  9152   0.457E-03 0.374E-05
CGA:  22    -0.384671865121E+03   -0.40340E-04   -0.40386E-04  9152   0.258E-03 0.287E-05
CGA:  23    -0.384671892486E+03   -0.27364E-04   -0.27360E-04  9152   0.160E-03 0.112E-05
CGA:  24    -0.384671915740E+03   -0.23254E-04   -0.23193E-04  9152   0.133E-03 0.130E-05
CGA:  25    -0.384671930732E+03   -0.14992E-04   -0.14988E-04  9152   0.769E-04 0.447E-06
CGA:  26    -0.384671938613E+03   -0.78818E-05   -0.78817E-05  9152   0.655E-04 0.222E-06
  27 F= -.38467194E+03 E0= -.38466503E+03  d E =-.173192E-01  mag=    46.0000
       N       E                     dE             d eps       ncg     rms          ort
SDA:   1    -0.352218718532E+03    0.32453E+02    0.00000E+00  9152   0.109E+03 0.000E+00
CGA:   2    -0.365442451533E+03   -0.13224E+02   -0.13152E+02  9152   0.104E+03 0.264E+01
CGA:   3    -0.377658724302E+03   -0.12216E+02   -0.12424E+02  9152   0.412E+02-0.337E+01
CGA:   4    -0.380883393590E+03   -0.32247E+01   -0.17179E+01  9152   0.185E+02 0.286E+02
CGA:   5    -0.381811282038E+03   -0.92789E+00   -0.69445E+00  9152   0.967E+01 0.288E+01
CGA:   6    -0.383110786977E+03   -0.12995E+01   -0.12869E+01  9152   0.166E+02 0.504E+00
CGA:   7    -0.383689687304E+03   -0.57890E+00   -0.61943E+00  9152   0.487E+01-0.979E+00
CGA:   8    -0.383893349457E+03   -0.20366E+00   -0.19630E+00  9152   0.417E+01 0.158E+00
CGA:   9    -0.384251823015E+03   -0.35847E+00   -0.36207E+00  9152   0.399E+01 0.144E+00
CGA:  10    -0.384439538935E+03   -0.18772E+00   -0.18178E+00  9152   0.114E+01 0.110E+00
CGA:  11    -0.384511891238E+03   -0.72352E-01   -0.69707E-01  9152   0.550E+00 0.458E-02
CGA:  12    -0.384545480071E+03   -0.33589E-01   -0.33261E-01  9152   0.585E+00-0.533E-03
CGA:  13    -0.384579484323E+03   -0.34004E-01   -0.34362E-01  9152   0.258E+00 0.222E-04
CGA:  14    -0.384590021880E+03   -0.10538E-01   -0.10708E-01  9152   0.116E+00-0.225E-02
CGA:  15    -0.384597116488E+03   -0.70946E-02   -0.71277E-02  9152   0.937E-01 0.173E-03
CGA:  16    -0.384606372641E+03   -0.92562E-02   -0.91659E-02  9152   0.131E+00 0.392E-02
CGA:  17    -0.384614065350E+03   -0.76927E-02   -0.77544E-02  9152   0.330E-01 0.817E-04
CGA:  18    -0.384616153036E+03   -0.20877E-02   -0.20913E-02  9152   0.279E-01 0.351E-04
CGA:  19    -0.384619443772E+03   -0.32907E-02   -0.32671E-02  9152   0.317E-01 0.521E-03
CGA:  20    -0.384621134936E+03   -0.16912E-02   -0.17078E-02  9152   0.800E-02-0.369E-04
CGA:  21    -0.384621751322E+03   -0.61639E-03   -0.61628E-03  9152   0.673E-02-0.626E-05
CGA:  22    -0.384622645784E+03   -0.89446E-03   -0.89146E-03  9152   0.651E-02 0.542E-04
CGA:  23    -0.384623008349E+03   -0.36257E-03   -0.36418E-03  9152   0.262E-02 0.109E-04
CGA:  24    -0.384623304582E+03   -0.29623E-03   -0.29650E-03  9152   0.317E-02-0.493E-05
CGA:  25    -0.384623635488E+03   -0.33091E-03   -0.33048E-03  9152   0.225E-02 0.165E-04
CGA:  26    -0.384623796396E+03   -0.16091E-03   -0.16101E-03  9152   0.126E-02 0.404E-05
CGA:  27    -0.384623920434E+03   -0.12404E-03   -0.12408E-03  9152   0.149E-02-0.148E-05
CGA:  28    -0.384624084939E+03   -0.16451E-03   -0.16457E-03  9152   0.118E-02-0.202E-05
CGA:  29    -0.384624162541E+03   -0.77602E-04   -0.77528E-04  9152   0.469E-03-0.177E-05
CGA:  30    -0.384624213874E+03   -0.51333E-04   -0.51370E-04  9152   0.750E-03-0.158E-05
CGA:  31    -0.384624284867E+03   -0.70992E-04   -0.71025E-04  9152   0.376E-03-0.346E-05
CGA:  32    -0.384624308803E+03   -0.23937E-04   -0.23904E-04  9152   0.179E-03-0.198E-05
CGA:  33    -0.384624331143E+03   -0.22340E-04   -0.22445E-04  9152   0.280E-03-0.266E-05
CGA:  34    -0.384624350767E+03   -0.19624E-04   -0.19590E-04  9152   0.108E-03-0.200E-05
SDA:  35    -0.384624359324E+03   -0.85574E-05   -0.85551E-05  9152   0.861E-04-0.427E-06
  28 F= -.38462436E+03 E0= -.38461713E+03  d E =0.475793E-01  mag=    46.0000
       N       E                     dE             d eps       ncg     rms          ort
SDA:   1    -0.291322048980E+03    0.93302E+02    0.00000E+00  9152   0.342E+03 0.000E+00
CGA:   2    -0.334916440047E+03   -0.43594E+02   -0.86672E+02  9152   0.388E+03-0.108E+03
CGA:   3    -0.351320289103E+03   -0.16404E+02   -0.18509E+02  9152   0.190E+03 0.137E+02
CGA:   4    -0.366183809315E+03   -0.14864E+02   -0.14549E+02  9152   0.143E+03 0.105E+02
CGA:   5    -0.375922988507E+03   -0.97392E+01   -0.71974E+01  9152   0.768E+02-0.480E+02
CGA:   6    -0.378217458061E+03   -0.22945E+01   -0.22256E+01  9152   0.435E+02-0.363E+01
CGA:   7    -0.380358702451E+03   -0.21412E+01   -0.19358E+01  9152   0.223E+02-0.908E+00
CGA:   8    -0.381833294304E+03   -0.14746E+01   -0.14981E+01  9152   0.322E+02 0.377E+00
CGA:   9    -0.382989382808E+03   -0.11561E+01   -0.10365E+01  9152   0.572E+01 0.124E+01
CGA:  10    -0.383392241275E+03   -0.40286E+00   -0.41858E+00  9152   0.717E+01 0.516E+00
CGA:  11    -0.383669751266E+03   -0.27751E+00   -0.31425E+00  9152   0.545E+01-0.441E+00
CGA:  12    -0.383882524898E+03   -0.21277E+00   -0.19855E+00  9152   0.157E+01 0.174E+00
CGA:  13    -0.383993607371E+03   -0.11108E+00   -0.11119E+00  9152   0.336E+01 0.890E-02
CGA:  14    -0.384188401007E+03   -0.19479E+00   -0.20034E+00  9152   0.111E+01 0.813E-01
CGA:  15    -0.384229807639E+03   -0.41407E-01   -0.44008E-01  9152   0.586E+00-0.304E-01
CGA:  16    -0.384279704827E+03   -0.49897E-01   -0.50245E-01  9152   0.113E+01-0.149E-01
CGA:  17    -0.384335519616E+03   -0.55815E-01   -0.58443E-01  9152   0.229E+00 0.191E-01
CGA:  18    -0.384349286526E+03   -0.13767E-01   -0.13992E-01  9152   0.313E+00 0.501E-02
CGA:  19    -0.384377643624E+03   -0.28357E-01   -0.28249E-01  9152   0.765E-01 0.484E-02
CGA:  20    -0.384383142028E+03   -0.54984E-02   -0.55017E-02  9152   0.825E-01 0.590E-03
CGA:  21    -0.384391555815E+03   -0.84138E-02   -0.83231E-02  9152   0.827E-01 0.258E-02
CGA:  22    -0.384395672020E+03   -0.41162E-02   -0.41269E-02  9152   0.145E-01-0.333E-04
CGA:  23    -0.384398203017E+03   -0.25310E-02   -0.25207E-02  9152   0.152E-01 0.102E-03
CGA:  24    -0.384399293617E+03   -0.10906E-02   -0.10932E-02  9152   0.119E-01 0.139E-03
CGA:  25    -0.384400016025E+03   -0.72241E-03   -0.72395E-03  9152   0.474E-02 0.141E-04
CGA:  26    -0.384400739652E+03   -0.72363E-03   -0.72428E-03  9152   0.397E-02-0.820E-05
CGA:  27    -0.384401040247E+03   -0.30059E-03   -0.30063E-03  9152   0.176E-02-0.107E-05
CGA:  28    -0.384401449642E+03   -0.40940E-03   -0.41229E-03  9152   0.215E-02-0.204E-04
CGA:  29    -0.384401542092E+03   -0.92449E-04   -0.92696E-04  9152   0.994E-03-0.473E-05
CGA:  30    -0.384401768016E+03   -0.22592E-03   -0.22524E-03  9152   0.104E-02 0.475E-05
CGA:  31    -0.384401866550E+03   -0.98534E-04   -0.98539E-04  9152   0.678E-03-0.202E-05
SDA:  32    -0.384401944319E+03   -0.77769E-04   -0.77868E-04  9152   0.814E-03-0.513E-05
CGA:  33    -0.384401984836E+03   -0.40517E-04   -0.40416E-04  9152   0.459E-03-0.209E-05
CGA:  34    -0.384402026389E+03   -0.41553E-04   -0.41548E-04  9152   0.382E-03-0.376E-05
CGA:  35    -0.384402078087E+03   -0.51698E-04   -0.51954E-04  9152   0.262E-03-0.579E-05
CGA:  36    -0.384402096339E+03   -0.18252E-04   -0.18265E-04  9152   0.112E-03 0.477E-06
CGA:  37    -0.384402128077E+03   -0.31738E-04   -0.30101E-04  9152   0.650E-04 0.932E-05
CGA:  38    -0.384402145732E+03   -0.17655E-04   -0.18048E-04  9152   0.336E-03-0.254E-05
CGA:  39    -0.384402166607E+03   -0.20875E-04   -0.20728E-04  9152   0.102E-03-0.369E-05
CGA:  40    -0.384402173451E+03   -0.68446E-05   -0.68082E-05  9152   0.856E-04-0.898E-06
  29 F= -.38440217E+03 E0= -.38439431E+03  d E =0.222186E+00  mag=    46.0000
       N       E                     dE             d eps       ncg     rms          ort
SDA:   1    -0.377931497248E+03    0.64707E+01    0.00000E+00  9152   0.280E+02 0.000E+00
CGA:   2    -0.379835841027E+03   -0.19043E+01   -0.18614E+01  9152   0.311E+02-0.220E+01
CGA:   3    -0.382550834501E+03   -0.27150E+01   -0.27085E+01  9152   0.106E+02-0.291E+00
CGA:   4    -0.383303079872E+03   -0.75225E+00   -0.77683E+00  9152   0.137E+02-0.332E-01
CGA:   5    -0.384019776420E+03   -0.71670E+00   -0.71613E+00  9152   0.572E+01-0.122E+00
CGA:   6    -0.384345018893E+03   -0.32524E+00   -0.31727E+00  9152   0.202E+01-0.551E-02
CGA:   7    -0.384476771894E+03   -0.13175E+00   -0.12874E+00  9152   0.139E+01 0.137E-02
CGA:   8    -0.384544220163E+03   -0.67448E-01   -0.65028E-01  9152   0.671E+00 0.276E-01
CGA:   9    -0.384608450506E+03   -0.64230E-01   -0.64210E-01  9152   0.205E+00 0.987E-02
CGA:  10    -0.384619199622E+03   -0.10749E-01   -0.10964E-01  9152   0.175E+00-0.139E-02
CGA:  11    -0.384635942379E+03   -0.16743E-01   -0.16738E-01  9152   0.112E+00 0.505E-03
CGA:  12    -0.384642707108E+03   -0.67647E-02   -0.67796E-02  9152   0.328E-01 0.163E-04
CGA:  13    -0.384646657715E+03   -0.39506E-02   -0.39289E-02  9152   0.420E-01 0.542E-03
CGA:  14    -0.384648918975E+03   -0.22613E-02   -0.22709E-02  9152   0.212E-01-0.409E-04
CGA:  15    -0.384650958707E+03   -0.20397E-02   -0.20415E-02  9152   0.667E-02-0.137E-03
CGA:  16    -0.384651915790E+03   -0.95708E-03   -0.95584E-03  9152   0.103E-01 0.193E-04
CGA:  17    -0.384652739433E+03   -0.82364E-03   -0.82366E-03  9152   0.444E-02-0.103E-05
CGA:  18    -0.384652982751E+03   -0.24332E-03   -0.24316E-03  9152   0.306E-02 0.277E-05
CGA:  19    -0.384653384949E+03   -0.40220E-03   -0.40208E-03  9152   0.195E-02 0.319E-05
CGA:  20    -0.384653639596E+03   -0.25465E-03   -0.25424E-03  9152   0.896E-03 0.925E-05
CGA:  21    -0.384653712321E+03   -0.72725E-04   -0.72754E-04  9152   0.105E-02 0.149E-05
CGA:  22    -0.384653810970E+03   -0.98649E-04   -0.98650E-04  9152   0.841E-03 0.745E-07
CGA:  23    -0.384653864755E+03   -0.53785E-04   -0.53855E-04  9152   0.263E-03 0.112E-05
CGA:  24    -0.384653912046E+03   -0.47291E-04   -0.47139E-04  9152   0.255E-03 0.172E-05
CGA:  25    -0.384653946251E+03   -0.34205E-04   -0.34217E-04  9152   0.277E-03-0.332E-06
CGA:  26    -0.384653960675E+03   -0.14424E-04   -0.14401E-04  9152   0.126E-03-0.273E-06
CGA:  27    -0.384653975919E+03   -0.15244E-04   -0.15279E-04  9152   0.175E-03-0.135E-05
CGA:  28    -0.384653992994E+03   -0.17075E-04   -0.17077E-04  9152   0.585E-04-0.154E-05
CGA:  29    -0.384654002551E+03   -0.95567E-05   -0.95378E-05  9152   0.514E-04 0.278E-06
  30 F= -.38465400E+03 E0= -.38464609E+03  d E =-.251829E+00  mag=    46.0000
[...]
CGA:   7    -0.384932299587E+03   -0.17543E-01   -0.17740E-01  9152   0.212E+00-0.480E-03
CGA:   8    -0.384943621236E+03   -0.11322E-01   -0.11130E-01  9152   0.497E-01 0.912E-03
CGA:   9    -0.384950354828E+03   -0.67336E-02   -0.67070E-02  9152   0.361E-01 0.485E-03
CGA:  10    -0.384952260511E+03   -0.19057E-02   -0.18987E-02  9152   0.261E-01 0.317E-04
CGA:  11    -0.384954134258E+03   -0.18737E-02   -0.18771E-02  9152   0.865E-02 0.520E-04
CGA:  12    -0.384955058188E+03   -0.92393E-03   -0.92567E-03  9152   0.904E-02-0.610E-04
CGA:  13    -0.384955774385E+03   -0.71620E-03   -0.71628E-03  9152   0.720E-02 0.750E-05
CGA:  14    -0.384956103947E+03   -0.32956E-03   -0.32843E-03  9152   0.241E-02 0.123E-04
CGA:  15    -0.384956664758E+03   -0.56081E-03   -0.55970E-03  9152   0.301E-02 0.837E-05
CGA:  16    -0.384956802473E+03   -0.13771E-03   -0.13739E-03  9152   0.171E-02 0.182E-05
CGA:  17    -0.384956976537E+03   -0.17406E-03   -0.17407E-03  9152   0.148E-02-0.857E-06
CGA:  18    -0.384957125855E+03   -0.14932E-03   -0.14938E-03  9152   0.102E-02-0.416E-05
CGA:  19    -0.384957188670E+03   -0.62815E-04   -0.62875E-04  9152   0.780E-03 0.679E-06
CGA:  20    -0.384957238117E+03   -0.49448E-04   -0.49439E-04  9152   0.363E-03 0.568E-06
CGA:  21    -0.384957290700E+03   -0.52583E-04   -0.52375E-04  9152   0.324E-03 0.372E-05
CGA:  22    -0.384957307818E+03   -0.17118E-04   -0.17125E-04  9152   0.225E-03 0.522E-06
CGA:  23    -0.384957326605E+03   -0.18788E-04   -0.18790E-04  9152   0.113E-03 0.299E-06
CGA:  24    -0.384957342183E+03   -0.15578E-04   -0.15603E-04  9152   0.176E-03-0.515E-06
CGA:  25    -0.384957351943E+03   -0.97604E-05   -0.97542E-05  9152   0.871E-04-0.248E-06
 127 F= -.38495735E+03 E0= -.38494972E+03  d E =-.276805E-01  mag=    46.0000
       N       E                     dE             d eps       ncg     rms          ort
SDA:   1    -0.383944478992E+03    0.10129E+01    0.00000E+00  9152   0.403E+01 0.000E+00
CGA:   2    -0.384213545313E+03   -0.26907E+00   -0.26508E+00  9152   0.573E+01-0.477E-01
CGA:   3    -0.384637776371E+03   -0.42423E+00   -0.42362E+00  9152   0.163E+01-0.180E-01
CGA:   4    -0.384819853539E+03   -0.18208E+00   -0.18347E+00  9152   0.954E+00-0.403E-01
CGA:   5    -0.384909760065E+03   -0.89907E-01   -0.90022E-01  9152   0.528E+00-0.793E-02
CGA:   6    -0.384933529123E+03   -0.23769E-01   -0.24217E-01  9152   0.245E+00-0.530E-02
CGA:   7    -0.384947499043E+03   -0.13970E-01   -0.13635E-01  9152   0.126E+00 0.506E-03
CGA:   8    -0.384960434874E+03   -0.12936E-01   -0.12933E-01  9152   0.211E-01 0.110E-03
CGA:   9    -0.384963545330E+03   -0.31105E-02   -0.31082E-02  9152   0.332E-01 0.329E-04
CGA:  10    -0.384964873090E+03   -0.13278E-02   -0.13331E-02  9152   0.103E-01-0.862E-04
CGA:  11    -0.384965819777E+03   -0.94669E-03   -0.94696E-03  9152   0.430E-02-0.300E-04
CGA:  12    -0.384966443367E+03   -0.62359E-03   -0.62216E-03  9152   0.506E-02 0.230E-04
CGA:  13    -0.384966673619E+03   -0.23025E-03   -0.22981E-03  9152   0.207E-02 0.682E-05
CGA:  14    -0.384966822280E+03   -0.14866E-03   -0.14887E-03  9152   0.146E-02 0.466E-05
CGA:  15    -0.384967013662E+03   -0.19138E-03   -0.19132E-03  9152   0.869E-03 0.152E-05
CGA:  16    -0.384967081449E+03   -0.67788E-04   -0.67811E-04  9152   0.927E-03 0.134E-05
CGA:  17    -0.384967130612E+03   -0.49163E-04   -0.49145E-04  9152   0.358E-03-0.810E-07
CGA:  18    -0.384967194408E+03   -0.63796E-04   -0.63736E-04  9152   0.258E-03 0.655E-06
CGA:  19    -0.384967209445E+03   -0.15037E-04   -0.15029E-04  9152   0.207E-03-0.561E-07
CGA:  20    -0.384967224393E+03   -0.14948E-04   -0.14958E-04  9152   0.140E-03 0.525E-06
CGA:  21    -0.384967239649E+03   -0.15257E-04   -0.15250E-04  9152   0.900E-04 0.394E-06
CGA:  22    -0.384967246809E+03   -0.71596E-05   -0.71586E-05  9152   0.582E-04-0.130E-06
 128 F= -.38496725E+03 E0= -.38495961E+03  d E =-.989487E-02  mag=    46.0000
       N       E                     dE             d eps       ncg     rms          ort
SDA:   1    -0.384837677004E+03    0.12956E+00    0.00000E+00  9152   0.468E+00 0.000E+00
CGA:   2    -0.384888680462E+03   -0.51003E-01   -0.51058E-01  9152   0.785E+00-0.165E-02
CGA:   3    -0.384924683127E+03   -0.36003E-01   -0.36609E-01  9152   0.249E+00-0.656E-02
CGA:   4    -0.384950041587E+03   -0.25358E-01   -0.25288E-01  9152   0.128E+00 0.291E-02
CGA:   5    -0.384963273336E+03   -0.13232E-01   -0.13199E-01  9152   0.602E-01 0.141E-02
CGA:   6    -0.384967469714E+03   -0.41964E-02   -0.41885E-02  9152   0.244E-01-0.968E-04
CGA:   7    -0.384968839063E+03   -0.13693E-02   -0.13733E-02  9152   0.207E-01-0.350E-05
CGA:   8    -0.384970319896E+03   -0.14808E-02   -0.14799E-02  9152   0.414E-02-0.188E-04
CGA:   9    -0.384970842822E+03   -0.52293E-03   -0.52336E-03  9152   0.249E-02-0.850E-05
CGA:  10    -0.384970993252E+03   -0.15043E-03   -0.15029E-03  9152   0.254E-02-0.120E-05
CGA:  11    -0.384971181918E+03   -0.18867E-03   -0.18871E-03  9152   0.724E-03 0.174E-05
CGA:  12    -0.384971243812E+03   -0.61894E-04   -0.61894E-04  9152   0.532E-03-0.594E-06
CGA:  13    -0.384971306356E+03   -0.62544E-04   -0.62520E-04  9152   0.540E-03 0.590E-06
CGA:  14    -0.384971328089E+03   -0.21733E-04   -0.21695E-04  9152   0.178E-03-0.614E-07
CGA:  15    -0.384971350850E+03   -0.22761E-04   -0.22744E-04  9152   0.139E-03 0.392E-06
CGA:  16    -0.384971368145E+03   -0.17295E-04   -0.17334E-04  9152   0.152E-03-0.101E-05
CGA:  17    -0.384971374232E+03   -0.60866E-05   -0.60848E-05  9152   0.525E-04-0.149E-06
 129 F= -.38497137E+03 E0= -.38496372E+03  d E =-.412742E-02  mag=    46.0000
       N       E                     dE             d eps       ncg     rms          ort
SDA:   1    -0.384111344815E+03    0.86002E+00    0.00000E+00  9152   0.254E+01 0.000E+00
CGA:   2    -0.384562241448E+03   -0.45090E+00   -0.45637E+00  9152   0.454E+01-0.537E-01
CGA:   3    -0.384744504544E+03   -0.18226E+00   -0.19970E+00  9152   0.171E+01-0.234E+00
CGA:   4    -0.384854975468E+03   -0.11047E+00   -0.10851E+00  9152   0.104E+01-0.168E-01
CGA:   5    -0.384938864998E+03   -0.83890E-01   -0.84056E-01  9152   0.324E+00 0.767E-02
CGA:   6    -0.384957836746E+03   -0.18972E-01   -0.19002E-01  9152   0.251E+00-0.146E-03
CGA:   7    -0.384971977936E+03   -0.14141E-01   -0.14289E-01  9152   0.596E-01-0.257E-03
CGA:   8    -0.384979015010E+03   -0.70371E-02   -0.70300E-02  9152   0.402E-01 0.174E-03
CGA:   9    -0.384980741818E+03   -0.17268E-02   -0.17336E-02  9152   0.190E-01-0.821E-04
CGA:  10    -0.384982455258E+03   -0.17134E-02   -0.17138E-02  9152   0.868E-02-0.394E-04
CGA:  11    -0.384983315643E+03   -0.86039E-03   -0.85988E-03  9152   0.867E-02 0.239E-04
CGA:  12    -0.384983702674E+03   -0.38703E-03   -0.38615E-03  9152   0.258E-02 0.867E-05
CGA:  13    -0.384983988515E+03   -0.28584E-03   -0.28547E-03  9152   0.312E-02 0.114E-04
CGA:  14    -0.384984254791E+03   -0.26628E-03   -0.26627E-03  9152   0.177E-02-0.235E-05
CGA:  15    -0.384984342500E+03   -0.87709E-04   -0.87914E-04  9152   0.114E-02-0.452E-06
CGA:  16    -0.384984529985E+03   -0.18749E-03   -0.18749E-03  9152   0.932E-03-0.262E-07
CGA:  17    -0.384984592934E+03   -0.62949E-04   -0.62962E-04  9152   0.103E-02-0.707E-07
CGA:  18    -0.384984673194E+03   -0.80260E-04   -0.80233E-04  9152   0.385E-03-0.229E-05
CGA:  19    -0.384984725144E+03   -0.51950E-04   -0.51910E-04  9152   0.643E-03 0.798E-06
CGA:  20    -0.384984756015E+03   -0.30871E-04   -0.30860E-04  9152   0.204E-03 0.135E-06
CGA:  21    -0.384984776887E+03   -0.20872E-04   -0.20862E-04  9152   0.158E-03 0.663E-06
CGA:  22    -0.384984789384E+03   -0.12497E-04   -0.12502E-04  9152   0.171E-03 0.642E-06
CGA:  23    -0.384984800945E+03   -0.11561E-04   -0.11584E-04  9152   0.746E-04 0.116E-05
CGA:  24    -0.384984806651E+03   -0.57052E-05   -0.57046E-05  9152   0.501E-04 0.107E-07
 130 F= -.38498481E+03 E0= -.38497715E+03  d E =-.134324E-01  mag=    46.0000
       N       E                     dE             d eps       ncg     rms          ort
SDA:   1    -0.384106388005E+03    0.87841E+00    0.00000E+00  9152   0.397E+01 0.000E+00
CGA:   2    -0.384316174419E+03   -0.20979E+00   -0.22858E+00  9152   0.426E+01-0.104E-01
CGA:   3    -0.384692880906E+03   -0.37671E+00   -0.37714E+00  9152   0.233E+01-0.727E-01
CGA:   4    -0.384849443173E+03   -0.15656E+00   -0.15790E+00  9152   0.776E+00 0.112E-01
CGA:   5    -0.384921190495E+03   -0.71747E-01   -0.72003E-01  9152   0.841E+00-0.196E-01
CGA:   6    -0.384957566805E+03   -0.36376E-01   -0.36812E-01  9152   0.272E+00-0.490E-02
CGA:   7    -0.384976296769E+03   -0.18730E-01   -0.18693E-01  9152   0.625E-01-0.828E-03
CGA:   8    -0.384984076708E+03   -0.77799E-02   -0.77413E-02  9152   0.491E-01 0.773E-03
CGA:   9    -0.384986589333E+03   -0.25126E-02   -0.24866E-02  9152   0.231E-01 0.143E-03
CGA:  10    -0.384987772097E+03   -0.11828E-02   -0.11913E-02  9152   0.994E-02-0.241E-04
CGA:  11    -0.384989067387E+03   -0.12953E-02   -0.12953E-02  9152   0.534E-02 0.514E-06
CGA:  12    -0.384989558123E+03   -0.49074E-03   -0.49049E-03  9152   0.413E-02 0.192E-04
CGA:  13    -0.384989759739E+03   -0.20162E-03   -0.20147E-03  9152   0.247E-02-0.312E-06
CGA:  14    -0.384989999048E+03   -0.23931E-03   -0.23912E-03  9152   0.207E-02 0.792E-05
CGA:  15    -0.384990231414E+03   -0.23237E-03   -0.23253E-03  9152   0.835E-03-0.446E-05
CGA:  16    -0.384990302971E+03   -0.71557E-04   -0.71554E-04  9152   0.147E-02 0.118E-05
CGA:  17    -0.384990426789E+03   -0.12382E-03   -0.12382E-03  9152   0.934E-03-0.129E-05
CGA:  18    -0.384990493633E+03   -0.66844E-04   -0.66880E-04  9152   0.288E-03 0.169E-05
CGA:  19    -0.384990537873E+03   -0.44240E-04   -0.44313E-04  9152   0.617E-03-0.102E-05
CGA:  20    -0.384990566953E+03   -0.29079E-04   -0.29087E-04  9152   0.214E-03-0.172E-07
CGA:  21    -0.384990583519E+03   -0.16567E-04   -0.16566E-04  9152   0.101E-03 0.211E-07
CGA:  22    -0.384990597299E+03   -0.13779E-04   -0.13762E-04  9152   0.109E-03 0.314E-06
CGA:  23    -0.384990604070E+03   -0.67711E-05   -0.67721E-05  9152   0.925E-04 0.100E-06
 131 F= -.38499060E+03 E0= -.38498288E+03  d E =-.579742E-02  mag=    46.0000
       N       E                     dE             d eps       ncg     rms          ort
SDA:   1    -0.384248240520E+03    0.74236E+00    0.00000E+00  9152   0.215E+01 0.000E+00
CGA:   2    -0.384600258830E+03   -0.35202E+00   -0.35884E+00  9152   0.473E+01-0.761E-01
CGA:   3    -0.384773046347E+03   -0.17279E+00   -0.17947E+00  9152   0.138E+01-0.142E+00
CGA:   4    -0.384882849629E+03   -0.10980E+00   -0.10921E+00  9152   0.729E+00-0.506E-01
CGA:   5    -0.384938224929E+03   -0.55375E-01   -0.55512E-01  9152   0.399E+00 0.735E-02
CGA:   6    -0.384960120332E+03   -0.21895E-01   -0.21710E-01  9152   0.212E+00 0.416E-03
CGA:   7    -0.384970981617E+03   -0.10861E-01   -0.10887E-01  9152   0.533E-01-0.170E-03
CGA:   8    -0.384977650665E+03   -0.66690E-02   -0.66778E-02  9152   0.324E-01-0.173E-03
CGA:   9    -0.384979110220E+03   -0.14596E-02   -0.14682E-02  9152   0.183E-01-0.802E-04
CGA:  10    -0.384980552000E+03   -0.14418E-02   -0.14419E-02  9152   0.625E-02 0.817E-05
CGA:  11    -0.384981260910E+03   -0.70891E-03   -0.70791E-03  9152   0.742E-02 0.250E-04
CGA:  12    -0.384981634365E+03   -0.37346E-03   -0.37275E-03  9152   0.263E-02 0.250E-05
CGA:  13    -0.384981793383E+03   -0.15902E-03   -0.15931E-03  9152   0.161E-02 0.345E-05
CGA:  14    -0.384982057958E+03   -0.26458E-03   -0.26449E-03  9152   0.139E-02 0.974E-06
CGA:  15    -0.384982119551E+03   -0.61593E-04   -0.61721E-04  9152   0.815E-03 0.103E-06
CGA:  16    -0.384982225159E+03   -0.10561E-03   -0.10558E-03  9152   0.688E-03 0.660E-06
CGA:  17    -0.384982304432E+03   -0.79273E-04   -0.79189E-04  9152   0.868E-03 0.275E-05
CGA:  18    -0.384982342368E+03   -0.37936E-04   -0.37919E-04  9152   0.267E-03 0.991E-06
CGA:  19    -0.384982386712E+03   -0.44343E-04   -0.44302E-04  9152   0.302E-03 0.516E-06
CGA:  20    -0.384982404424E+03   -0.17713E-04   -0.17707E-04  9152   0.234E-03 0.751E-07
CGA:  21    -0.384982421771E+03   -0.17347E-04   -0.17354E-04  9152   0.102E-03 0.517E-06
CGA:  22    -0.384982430202E+03   -0.84312E-05   -0.84296E-05  9152   0.864E-04-0.312E-06
 132 F= -.38498243E+03 E0= -.38497474E+03  d E =0.817387E-02  mag=    46.0000
       N       E                     dE             d eps       ncg     rms          ort
SDA:   1    -0.384211352577E+03    0.77107E+00    0.00000E+00  9152   0.237E+01 0.000E+00
CGA:   2    -0.384517356141E+03   -0.30600E+00   -0.30520E+00  9152   0.481E+01 0.204E-01
CGA:   3    -0.384742617579E+03   -0.22526E+00   -0.21509E+00  9152   0.108E+01 0.705E-01
CGA:   4    -0.384887802635E+03   -0.14519E+00   -0.14663E+00  9152   0.543E+00-0.269E-01
CGA:   5    -0.384933433896E+03   -0.45631E-01   -0.45625E-01  9152   0.445E+00-0.882E-03
CGA:   6    -0.384950543359E+03   -0.17109E-01   -0.17099E-01  9152   0.101E+00-0.161E-03
CGA:   7    -0.384962040859E+03   -0.11497E-01   -0.11513E-01  9152   0.505E-01-0.413E-03
CGA:   8    -0.384965066705E+03   -0.30258E-02   -0.30439E-02  9152   0.394E-01 0.259E-04
CGA:   9    -0.384967325217E+03   -0.22585E-02   -0.22572E-02  9152   0.110E-01-0.228E-05
CGA:  10    -0.384968422130E+03   -0.10969E-02   -0.10955E-02  9152   0.112E-01 0.650E-04
CGA:  11    -0.384969186461E+03   -0.76433E-03   -0.76374E-03  9152   0.591E-02-0.927E-05
CGA:  12    -0.384969455891E+03   -0.26943E-03   -0.27098E-03  9152   0.212E-02-0.137E-04
CGA:  13    -0.384969855723E+03   -0.39983E-03   -0.39983E-03  9152   0.244E-02-0.351E-07
CGA:  14    -0.384969951834E+03   -0.96111E-04   -0.96395E-04  9152   0.953E-03-0.197E-05
CGA:  15    -0.384970102776E+03   -0.15094E-03   -0.15092E-03  9152   0.107E-02 0.374E-06
CGA:  16    -0.384970182862E+03   -0.80086E-04   -0.80152E-04  9152   0.103E-02 0.307E-05
CGA:  17    -0.384970244699E+03   -0.61837E-04   -0.61842E-04  9152   0.399E-03 0.130E-05
CGA:  18    -0.384970288901E+03   -0.44201E-04   -0.44163E-04  9152   0.459E-03 0.132E-05
CGA:  19    -0.384970322188E+03   -0.33287E-04   -0.33286E-04  9152   0.347E-03-0.126E-06
CGA:  20    -0.384970342598E+03   -0.20410E-04   -0.20431E-04  9152   0.149E-03 0.377E-06
CGA:  21    -0.384970357634E+03   -0.15036E-04   -0.15040E-04  9152   0.111E-03-0.347E-06
CGA:  22    -0.384970365345E+03   -0.77109E-05   -0.77131E-05  9152   0.123E-03 0.793E-07
CGA:  23    -0.384970375567E+03   -0.10222E-04   -0.10222E-04  9152   0.315E-04-0.181E-06
CGA:  24    -0.384970378904E+03   -0.33361E-05   -0.33309E-05  9152   0.658E-04 0.248E-06
 133 F= -.38497038E+03 E0= -.38496274E+03  d E =0.120513E-01  mag=    46.0000
       N       E                     dE             d eps       ncg     rms          ort
SDA:   1    -0.384647959241E+03    0.32242E+00    0.00000E+00  9152   0.103E+01 0.000E+00
CGA:   2    -0.384818087686E+03   -0.17013E+00   -0.17005E+00  9152   0.116E+01 0.300E-02
CGA:   3    -0.384893712378E+03   -0.75625E-01   -0.76589E-01  9152   0.603E+00 0.527E-03
CGA:   4    -0.384924440912E+03   -0.30729E-01   -0.29619E-01  9152   0.435E+00 0.792E-02
CGA:   5    -0.384961553220E+03   -0.37112E-01   -0.37123E-01  9152   0.109E+00 0.161E-02
CGA:   6    -0.384970334453E+03   -0.87812E-02   -0.87904E-02  9152   0.862E-01 0.576E-03
CGA:   7    -0.384973953378E+03   -0.36189E-02   -0.36135E-02  9152   0.357E-01 0.496E-04
CGA:   8    -0.384976889621E+03   -0.29362E-02   -0.29366E-02  9152   0.137E-01 0.706E-04
CGA:   9    -0.384977996254E+03   -0.11066E-02   -0.11069E-02  9152   0.792E-02 0.341E-04
CGA:  10    -0.384978424992E+03   -0.42874E-03   -0.42816E-03  9152   0.687E-02-0.112E-05
CGA:  11    -0.384978916100E+03   -0.49111E-03   -0.49156E-03  9152   0.236E-02 0.132E-04
CGA:  12    -0.384979155550E+03   -0.23945E-03   -0.23932E-03  9152   0.146E-02 0.519E-05
CGA:  13    -0.384979239981E+03   -0.84430E-04   -0.84362E-04  9152   0.153E-02-0.599E-06
CGA:  14    -0.384979368047E+03   -0.12807E-03   -0.12806E-03  9152   0.865E-03 0.256E-05
CGA:  15    -0.384979438003E+03   -0.69955E-04   -0.69956E-04  9152   0.378E-03 0.578E-06
CGA:  16    -0.384979483918E+03   -0.45915E-04   -0.45959E-04  9152   0.936E-03-0.106E-05
CGA:  17    -0.384979533969E+03   -0.50051E-04   -0.50064E-04  9152   0.233E-03-0.453E-06
CGA:  18    -0.384979558176E+03   -0.24207E-04   -0.24212E-04  9152   0.199E-03-0.167E-06
CGA:  19    -0.384979578260E+03   -0.20084E-04   -0.20099E-04  9152   0.244E-03-0.811E-06
CGA:  20    -0.384979589232E+03   -0.10972E-04   -0.10982E-04  9152   0.110E-03 0.578E-07
CGA:  21    -0.384979600012E+03   -0.10780E-04   -0.10772E-04  9152   0.477E-04 0.562E-06
CGA:  22    -0.384979605601E+03   -0.55895E-05   -0.55871E-05  9152   0.769E-04 0.698E-07
 134 F= -.38497961E+03 E0= -.38497192E+03  d E =-.922670E-02  mag=    46.0000
       N       E                     dE             d eps       ncg     rms          ort
SDA:   1    -0.384875425140E+03    0.10417E+00    0.00000E+00  9152   0.417E+00 0.000E+00
CGA:   2    -0.384909704758E+03   -0.34280E-01   -0.34302E-01  9152   0.489E+00 0.126E-01
CGA:   3    -0.384940732349E+03   -0.31028E-01   -0.31014E-01  9152   0.335E+00-0.223E-03
CGA:   4    -0.384962201660E+03   -0.21469E-01   -0.21592E-01  9152   0.103E+00 0.144E-02
CGA:   5    -0.384972747972E+03   -0.10546E-01   -0.10557E-01  9152   0.560E-01-0.363E-03
CGA:   6    -0.384977777140E+03   -0.50292E-02   -0.50313E-02  9152   0.361E-01-0.164E-03
CGA:   7    -0.384978996442E+03   -0.12193E-02   -0.12297E-02  9152   0.914E-02-0.201E-03
CGA:   8    -0.384980173093E+03   -0.11767E-02   -0.11773E-02  9152   0.478E-02-0.126E-04
CGA:   9    -0.384980511594E+03   -0.33850E-03   -0.33851E-03  9152   0.151E-02 0.190E-05
CGA:  10    -0.384980714866E+03   -0.20327E-03   -0.20336E-03  9152   0.102E-02-0.143E-05
CGA:  11    -0.384980785652E+03   -0.70786E-04   -0.70826E-04  9152   0.112E-02 0.170E-05
CGA:  12    -0.384980846973E+03   -0.61321E-04   -0.61312E-04  9152   0.265E-03 0.552E-06
CGA:  13    -0.384980879449E+03   -0.32476E-04   -0.32479E-04  9152   0.291E-03-0.160E-06
CGA:  14    -0.384980911486E+03   -0.32037E-04   -0.32047E-04  9152   0.106E-03-0.310E-06
CGA:  15    -0.384980918880E+03   -0.73940E-05   -0.73946E-05  9152   0.151E-03 0.241E-07
CGA:  16    -0.384980932492E+03   -0.13612E-04   -0.13616E-04  9152   0.890E-04-0.610E-06
CGA:  17    -0.384980940933E+03   -0.84410E-05   -0.84425E-05  9152   0.367E-04-0.177E-06
 135 F= -.38498094E+03 E0= -.38497323E+03  d E =-.133533E-02  mag=    46.0000
       N       E                     dE             d eps       ncg     rms          ort
SDA:   1    -0.384920109369E+03    0.60823E-01    0.00000E+00  9152   0.257E+00 0.000E+00
CGA:   2    -0.384933546934E+03   -0.13438E-01   -0.13265E-01  9152   0.276E+00 0.688E-03
CGA:   3    -0.384961445014E+03   -0.27898E-01   -0.27908E-01  9152   0.836E-01-0.400E-03
CGA:   4    -0.384971856882E+03   -0.10412E-01   -0.10489E-01  9152   0.427E-01-0.159E-02
CGA:   5    -0.384976573985E+03   -0.47171E-02   -0.47103E-02  9152   0.182E-01 0.203E-03
CGA:   6    -0.384977505090E+03   -0.93111E-03   -0.92580E-03  9152   0.113E-01 0.334E-04
CGA:   7    -0.384978210831E+03   -0.70574E-03   -0.70743E-03  9152   0.567E-02 0.753E-05
CGA:   8    -0.384978617310E+03   -0.40648E-03   -0.40628E-03  9152   0.150E-02-0.441E-05
CGA:   9    -0.384978788591E+03   -0.17128E-03   -0.17119E-03  9152   0.918E-03 0.210E-05
CGA:  10    -0.384978837704E+03   -0.49113E-04   -0.49056E-04  9152   0.827E-03-0.797E-06
CGA:  11    -0.384978911822E+03   -0.74117E-04   -0.74119E-04  9152   0.161E-03-0.375E-06
CGA:  12    -0.384978935174E+03   -0.23353E-04   -0.23365E-04  9152   0.260E-03-0.192E-06
CGA:  13    -0.384978950538E+03   -0.15364E-04   -0.15386E-04  9152   0.142E-03 0.640E-06
CGA:  14    -0.384978957862E+03   -0.73237E-05   -0.73269E-05  9152   0.580E-04 0.226E-06
 136 F= -.38497896E+03 E0= -.38497127E+03  d E =0.198307E-02  mag=    46.0000
