       N       E                     dE             d eps       ncg     rms          rms(c)
DAV:   1     0.601127770831E+04    0.60113E+04   -0.25181E+05 35168   0.158E+03
DAV:   2     0.344690847934E+03   -0.56666E+04   -0.51788E+04 34264   0.463E+02
DAV:   3    -0.365994444629E+03   -0.71069E+03   -0.69576E+03 34624   0.183E+02
DAV:   4    -0.387548095162E+03   -0.21554E+02   -0.21423E+02 36608   0.332E+01
DAV:   5    -0.387951947107E+03   -0.40385E+00   -0.40081E+00 43952   0.410E+00    0.926E+01
DAV:   6    -0.295360319134E+03    0.92592E+02   -0.35364E+02 40360   0.644E+01    0.751E+01
DAV:   7    -0.315864265232E+03   -0.20504E+02   -0.10962E+02 35696   0.597E+01    0.102E+02
DAV:   8    -0.320444861190E+03   -0.45806E+01   -0.10767E+02 37992   0.363E+01    0.901E+01
DAV:   9    -0.283808817115E+03    0.36636E+02   -0.57868E+01 35640   0.239E+01    0.514E+01
DAV:  10    -0.297000909596E+03   -0.13192E+02   -0.22037E+01 37096   0.191E+01    0.786E+01
DAV:  11    -0.289073016428E+03    0.79279E+01   -0.35623E+01 35880   0.245E+01    0.524E+01
DAV:  12    -0.289892752429E+03   -0.81974E+00   -0.44542E+01 35288   0.185E+01    0.375E+01
DAV:  13    -0.294932058537E+03   -0.50393E+01   -0.16846E+01 35240   0.119E+01    0.388E+01
DAV:  14    -0.295853667631E+03   -0.92161E+00   -0.85262E+00 34432   0.727E+00    0.322E+01
DAV:  15    -0.300351193533E+03   -0.44975E+01   -0.77434E+00 34752   0.526E+00    0.302E+01
DAV:  16    -0.303384531561E+03   -0.30333E+01   -0.40115E+00 35936   0.365E+00    0.286E+01
DAV:  17    -0.305231481079E+03   -0.18469E+01   -0.45324E-01 34728   0.266E+00    0.250E+01
DAV:  18    -0.314413269142E+03   -0.91818E+01   -0.49871E+00 36768   0.538E+00    0.235E+01
DAV:  19    -0.319133552644E+03   -0.47203E+01   -0.46463E+00 35936   0.558E+00    0.221E+01
DAV:  20    -0.320290901016E+03   -0.11573E+01   -0.17937E+00 34544   0.391E+00    0.201E+01
DAV:  21    -0.319979792641E+03    0.31111E+00   -0.54408E-01 34576   0.303E+00    0.166E+01
DAV:  22    -0.320060715984E+03   -0.80923E-01   -0.20368E+00 37048   0.254E+00    0.120E+01
DAV:  23    -0.319901451871E+03    0.15926E+00   -0.29451E-01 35184   0.229E+00    0.967E+00
DAV:  24    -0.319876605393E+03    0.24846E-01   -0.95325E-02 35112   0.105E+00    0.846E+00
DAV:  25    -0.319840318422E+03    0.36287E-01   -0.53746E-02 35832   0.117E+00    0.718E+00
DAV:  26    -0.319765409980E+03    0.74908E-01   -0.77889E-02 38376   0.127E+00    0.550E+00
DAV:  27    -0.319697750801E+03    0.67659E-01   -0.53471E-02 40224   0.956E-01    0.435E+00
DAV:  28    -0.319657324125E+03    0.40427E-01   -0.29274E-02 41888   0.809E-01    0.320E+00
DAV:  29    -0.319638276179E+03    0.19048E-01   -0.27436E-02 36840   0.515E-01    0.271E+00
DAV:  30    -0.319622241478E+03    0.16035E-01   -0.19493E-02 38664   0.469E-01    0.227E+00
DAV:  31    -0.319615122479E+03    0.71190E-02   -0.16241E-02 40496   0.475E-01    0.152E+00
DAV:  32    -0.319614751527E+03    0.37095E-03   -0.13841E-02 35576   0.405E-01    0.111E+00
DAV:  33    -0.319616631636E+03   -0.18801E-02   -0.81610E-03 35728   0.237E-01    0.946E-01
DAV:  34    -0.319617623341E+03   -0.99171E-03   -0.39863E-03 38520   0.226E-01    0.818E-01
DAV:  35    -0.319617908801E+03   -0.28546E-03   -0.17624E-03 36224   0.153E-01    0.807E-01
DAV:  36    -0.319617181576E+03    0.72723E-03   -0.12893E-03 36408   0.141E-01    0.745E-01
DAV:  37    -0.319616265225E+03    0.91635E-03   -0.55929E-04 37408   0.100E-01    0.609E-01
DAV:  38    -0.319615440391E+03    0.82483E-03   -0.39527E-04 38568   0.102E-01    0.526E-01
DAV:  39    -0.319614838704E+03    0.60169E-03   -0.62271E-04 40000   0.125E-01    0.396E-01
DAV:  40    -0.319614428072E+03    0.41063E-03   -0.49870E-04 39136   0.922E-02    0.268E-01
DAV:  41    -0.319614226668E+03    0.20140E-03   -0.65525E-04 37600   0.768E-02    0.167E-01
DAV:  42    -0.319614278279E+03   -0.51611E-04   -0.14909E-04 33264   0.351E-02    0.111E-01
DAV:  43    -0.319614283496E+03   -0.52178E-05   -0.53457E-05 27120   0.284E-02
   1 F= -.31961428E+03 E0= -.31960895E+03  d E =-.319614E+03  mag=    44.0229
       N       E                     dE             d eps       ncg     rms          rms(c)
DAV:   1    -0.319614982469E+03   -0.70419E-03   -0.31731E-04 37496   0.710E-02    0.335E-02
DAV:   2    -0.319614983771E+03   -0.13022E-05   -0.53608E-05 30816   0.232E-02    0.393E-02
DAV:   3    -0.319614982176E+03    0.15954E-05   -0.16222E-05 23424   0.161E-02    0.288E-02
DAV:   4    -0.319614981375E+03    0.80079E-06   -0.62988E-06 19544   0.103E-02
   2 F= -.31961498E+03 E0= -.31960964E+03  d E =-.697879E-03  mag=    44.0133
       N       E                     dE             d eps       ncg     rms          rms(c)
DAV:   1    -0.319630575000E+03   -0.15593E-01   -0.17456E-01 38352   0.168E+00    0.218E-01
DAV:   2    -0.319632791858E+03   -0.22169E-02   -0.21126E-02 33736   0.302E-01    0.214E-01
DAV:   3    -0.319632941676E+03   -0.14982E-03   -0.17413E-03 34760   0.129E-01    0.274E-01
DAV:   4    -0.319632832023E+03    0.10965E-03   -0.42648E-04 33232   0.691E-02    0.540E-02
DAV:   5    -0.319632843899E+03   -0.11876E-04   -0.37740E-05 26248   0.221E-02    0.599E-02
DAV:   6    -0.319632837550E+03    0.63492E-05   -0.28883E-05 23560   0.200E-02
   3 F= -.31963284E+03 E0= -.31962750E+03  d E =-.178562E-01  mag=    44.0052
       N       E                     dE             d eps       ncg     rms          rms(c)
DAV:   1    -0.319663667620E+03   -0.30824E-01   -0.15959E+00 37976   0.501E+00    0.642E-01
DAV:   2    -0.319683238358E+03   -0.19571E-01   -0.18582E-01 33784   0.898E-01    0.589E-01
DAV:   3    -0.319684415400E+03   -0.11770E-02   -0.13396E-02 35352   0.360E-01    0.740E-01
DAV:   4    -0.319683559341E+03    0.85606E-03   -0.32798E-03 35328   0.192E-01    0.169E-01
DAV:   5    -0.319683628924E+03   -0.69583E-04   -0.37780E-04 35424   0.675E-02    0.181E-01
DAV:   6    -0.319683568299E+03    0.60625E-04   -0.24963E-04 34248   0.578E-02    0.919E-02
DAV:   7    -0.319683563578E+03    0.47207E-05   -0.18365E-04 34288   0.543E-02    0.893E-02
DAV:   8    -0.319683559644E+03    0.39348E-05   -0.96813E-05 31816   0.367E-02
   4 F= -.31968356E+03 E0= -.31967825E+03  d E =-.507221E-01  mag=    44.0014
       N       E                     dE             d eps       ncg     rms          rms(c)
DAV:   1    -0.319706253533E+03   -0.22690E-01   -0.47285E+00 37056   0.827E+00    0.105E+00
DAV:   2    -0.319758619444E+03   -0.52366E-01   -0.50077E-01 33856   0.149E+00    0.881E-01
DAV:   3    -0.319761544599E+03   -0.29252E-02   -0.27991E-02 35856   0.537E-01    0.104E+00
DAV:   4    -0.319759793156E+03    0.17514E-02   -0.62435E-03 35720   0.281E-01    0.259E-01
DAV:   5    -0.319759863740E+03   -0.70585E-04   -0.10525E-03 35784   0.108E-01    0.303E-01
DAV:   6    -0.319759684942E+03    0.17880E-03   -0.78691E-04 34944   0.987E-02    0.145E-01
DAV:   7    -0.319759673132E+03    0.11810E-04   -0.43533E-04 36656   0.788E-02    0.144E-01
DAV:   8    -0.319759664084E+03    0.90479E-05   -0.21399E-04 35312   0.565E-02    0.767E-02
DAV:   9    -0.319759664833E+03   -0.74864E-06   -0.50091E-05 26552   0.276E-02
   5 F= -.31975966E+03 E0= -.31975439E+03  d E =-.761052E-01  mag=    44.0004
       N       E                     dE             d eps       ncg     rms          rms(c)
DAV:   1    -0.319713298599E+03    0.46365E-01   -0.16869E+01 36632   0.144E+01    0.173E+00
DAV:   2    -0.319865292724E+03   -0.15199E+00   -0.14801E+00 34048   0.262E+00    0.142E+00
DAV:   3    -0.319872054495E+03   -0.67618E-02   -0.66157E-02 37608   0.865E-01    0.152E+00
DAV:   4    -0.319868472122E+03    0.35824E-02   -0.12433E-02 35512   0.434E-01    0.435E-01
DAV:   5    -0.319868315219E+03    0.15690E-03   -0.27467E-03 36104   0.196E-01    0.519E-01
DAV:   6    -0.319867702393E+03    0.61283E-03   -0.20745E-03 35984   0.175E-01    0.222E-01
DAV:   7    -0.319867697754E+03    0.46395E-05   -0.12276E-03 36200   0.128E-01    0.247E-01
DAV:   8    -0.319867660361E+03    0.37393E-04   -0.56032E-04 36296   0.883E-02    0.959E-02
DAV:   9    -0.319867666462E+03   -0.61013E-05   -0.92936E-05 31272   0.404E-02
   6 F= -.31986767E+03 E0= -.31986249E+03  d E =-.108002E+00  mag=    44.0001
       N       E                     dE             d eps       ncg     rms          rms(c)
DAV:   1    -0.319813740518E+03    0.53920E-01   -0.24136E+01 35616   0.142E+01    0.151E+00
DAV:   2    -0.319946752828E+03   -0.13301E+00   -0.13456E+00 33840   0.261E+00    0.139E+00
DAV:   3    -0.319949506733E+03   -0.27539E-02   -0.51872E-02 39216   0.821E-01    0.131E+00
DAV:   4    -0.319946761693E+03    0.27450E-02   -0.88890E-03 35720   0.394E-01    0.482E-01
DAV:   5    -0.319946453337E+03    0.30836E-03   -0.31579E-03 36912   0.221E-01    0.542E-01
DAV:   6    -0.319945654683E+03    0.79865E-03   -0.22591E-03 35648   0.190E-01    0.221E-01
DAV:   7    -0.319945736503E+03   -0.81820E-04   -0.14384E-03 36400   0.132E-01    0.286E-01
DAV:   8    -0.319945673326E+03    0.63177E-04   -0.57709E-04 36288   0.884E-02    0.950E-02
DAV:   9    -0.319945680084E+03   -0.67576E-05   -0.10306E-04 30688   0.359E-02    0.709E-02
DAV:  10    -0.319945675135E+03    0.49492E-05   -0.50775E-05 24456   0.252E-02
   7 F= -.31994568E+03 E0= -.31994063E+03  d E =-.780087E-01  mag=    44.0000
       N       E                     dE             d eps       ncg     rms          rms(c)
DAV:   1    -0.319759844415E+03    0.18584E+00   -0.56874E+01 34192   0.202E+01    0.198E+00
DAV:   2    -0.320001729148E+03   -0.24188E+00   -0.24576E+00 34384   0.369E+00    0.235E+00
DAV:   3    -0.320004006845E+03   -0.22777E-02   -0.99071E-02 39944   0.118E+00    0.192E+00
DAV:   4    -0.319998609719E+03    0.53971E-02   -0.22454E-02 35912   0.562E-01    0.729E-01
DAV:   5    -0.319997824298E+03    0.78542E-03   -0.54137E-03 36312   0.310E-01    0.627E-01
DAV:   6    -0.319996592867E+03    0.12314E-02   -0.44384E-03 35712   0.273E-01    0.431E-01
DAV:   7    -0.319996505307E+03    0.87560E-04   -0.34235E-03 38432   0.200E-01    0.310E-01
DAV:   8    -0.319996538155E+03   -0.32849E-04   -0.82642E-04 34456   0.109E-01    0.216E-01
DAV:   9    -0.319996517220E+03    0.20935E-04   -0.35480E-04 35184   0.625E-02    0.140E-01
DAV:  10    -0.319996501561E+03    0.15660E-04   -0.10485E-04 28464   0.385E-02    0.483E-02
DAV:  11    -0.319996503750E+03   -0.21897E-05   -0.26959E-05 22688   0.245E-02
   8 F= -.31999650E+03 E0= -.31999151E+03  d E =-.508286E-01  mag=    44.0000
       N       E                     dE             d eps       ncg     rms          rms(c)
DAV:   1    -0.319627855952E+03    0.36865E+00   -0.58741E+01 36056   0.247E+01    0.253E+00
DAV:   2    -0.320004472124E+03   -0.37662E+00   -0.37023E+00 33984   0.465E+00    0.351E+00
DAV:   3    -0.320010430544E+03   -0.59584E-02   -0.19451E-01 35944   0.154E+00    0.259E+00
DAV:   4    -0.320003142767E+03    0.72878E-02   -0.36522E-02 35496   0.753E-01    0.816E-01
DAV:   5    -0.320002895435E+03    0.24733E-03   -0.80111E-03 35104   0.330E-01    0.898E-01
DAV:   6    -0.320001374760E+03    0.15207E-02   -0.61544E-03 37112   0.311E-01    0.459E-01
DAV:   7    -0.320001473498E+03   -0.98739E-04   -0.36419E-03 37504   0.242E-01    0.477E-01
DAV:   8    -0.320001350457E+03    0.12304E-03   -0.18042E-03 36224   0.169E-01    0.269E-01
DAV:   9    -0.320001339262E+03    0.11196E-04   -0.64447E-04 34936   0.850E-02    0.180E-01
DAV:  10    -0.320001310722E+03    0.28540E-04   -0.13983E-04 31584   0.494E-02    0.699E-02
DAV:  11    -0.320001308809E+03    0.19124E-05   -0.36196E-05 24320   0.226E-02
   9 F= -.32000131E+03 E0= -.31999637E+03  d E =-.480506E-02  mag=    44.0000
       N       E                     dE             d eps       ncg     rms          rms(c)
DAV:   1    -0.319887257412E+03    0.11405E+00   -0.56717E+00 42320   0.109E+01    0.174E+00
DAV:   2    -0.320006763145E+03   -0.11951E+00   -0.11682E+00 35088   0.196E+00    0.115E+00
DAV:   3    -0.320014579609E+03   -0.78165E-02   -0.46453E-02 34624   0.613E-01    0.110E+00
DAV:   4    -0.320013405179E+03    0.11744E-02   -0.90727E-03 35912   0.351E-01    0.581E-01
DAV:   5    -0.320012911342E+03    0.49384E-03   -0.18346E-03 36536   0.176E-01    0.428E-01
DAV:   6    -0.320012684426E+03    0.22692E-03   -0.24191E-03 36976   0.197E-01    0.371E-01
DAV:   7    -0.320012588145E+03    0.96281E-04   -0.17185E-03 35944   0.156E-01    0.261E-01
DAV:   8    -0.320012530477E+03    0.57668E-04   -0.56120E-04 36144   0.952E-02    0.112E-01
DAV:   9    -0.320012529222E+03    0.12549E-05   -0.14927E-04 32568   0.423E-02    0.835E-02
DAV:  10    -0.320012519269E+03    0.99531E-05   -0.51362E-05 24672   0.276E-02
  10 F= -.32001252E+03 E0= -.32000762E+03  d E =-.112105E-01  mag=    44.0000
       N       E                     dE             d eps       ncg     rms          rms(c)
DAV:   1    -0.320008543884E+03    0.39853E-02   -0.50607E-01 40280   0.291E+00    0.488E-01
DAV:   2    -0.320017490124E+03   -0.89462E-02   -0.86392E-02 35080   0.539E-01    0.376E-01
DAV:   3    -0.320018003513E+03   -0.51339E-03   -0.32052E-03 34144   0.192E-01    0.370E-01
DAV:   4    -0.320017881693E+03    0.12182E-03   -0.54607E-04 34696   0.920E-02    0.146E-01
DAV:   5    -0.320017863548E+03    0.18145E-04   -0.23893E-04 33952   0.522E-02    0.153E-01
DAV:   6    -0.320017832446E+03    0.31102E-04   -0.35604E-04 34808   0.649E-02    0.114E-01
DAV:   7    -0.320017825504E+03    0.69413E-05   -0.11147E-04 32624   0.428E-02    0.813E-02
DAV:   8    -0.320017819249E+03    0.62554E-05   -0.63895E-05 28264   0.270E-02
  11 F= -.32001782E+03 E0= -.32001292E+03  d E =-.529998E-02  mag=    44.0000
       N       E                     dE             d eps       ncg     rms          rms(c)
DAV:   1    -0.320012081015E+03    0.57445E-02   -0.12462E+00 36912   0.377E+00    0.430E-01
DAV:   2    -0.320021556285E+03   -0.94753E-02   -0.92985E-02 34192   0.702E-01    0.395E-01
DAV:   3    -0.320021904303E+03   -0.34802E-03   -0.35256E-03 35240   0.221E-01    0.399E-01
DAV:   4    -0.320021742092E+03    0.16221E-03   -0.75260E-04 35176   0.105E-01    0.137E-01
DAV:   5    -0.320021726008E+03    0.16084E-04   -0.14781E-04 34080   0.471E-02    0.123E-01
DAV:   6    -0.320021680709E+03    0.45299E-04   -0.14658E-04 33416   0.509E-02    0.705E-02
DAV:   7    -0.320021682264E+03   -0.15544E-05   -0.11552E-04 34344   0.393E-02    0.806E-02
DAV:   8    -0.320021675533E+03    0.67301E-05   -0.54963E-05 26264   0.265E-02
  12 F= -.32002168E+03 E0= -.32001677E+03  d E =-.385628E-02  mag=    44.0000
       N       E                     dE             d eps       ncg     rms          rms(c)
DAV:   1    -0.320000478036E+03    0.21204E-01   -0.57449E+00 36048   0.707E+00    0.628E-01
DAV:   2    -0.320027478001E+03   -0.27000E-01   -0.26754E-01 33568   0.125E+00    0.616E-01
DAV:   3    -0.320028118394E+03   -0.64039E-03   -0.91949E-03 36512   0.358E-01    0.658E-01
DAV:   4    -0.320027619535E+03    0.49886E-03   -0.23564E-03 35304   0.180E-01    0.194E-01
DAV:   5    -0.320027579771E+03    0.39764E-04   -0.32886E-04 37984   0.765E-02    0.160E-01
DAV:   6    -0.320027485365E+03    0.94406E-04   -0.26445E-04 34520   0.724E-02    0.987E-02
DAV:   7    -0.320027490483E+03   -0.51178E-05   -0.24572E-04 36280   0.540E-02    0.111E-01
DAV:   8    -0.320027483410E+03    0.70732E-05   -0.10349E-04 30328   0.362E-02    0.498E-02
DAV:   9    -0.320027484001E+03   -0.59176E-06   -0.22994E-05 22608   0.182E-02
  13 F= -.32002748E+03 E0= -.32002258E+03  d E =-.580847E-02  mag=    44.0000
       N       E                     dE             d eps       ncg     rms          rms(c)
DAV:   1    -0.318828769040E+03    0.11987E+01   -0.66753E+01 39952   0.324E+01    0.528E+00
DAV:   2    -0.319820835290E+03   -0.99207E+00   -0.96148E+00 35296   0.599E+00    0.500E+00
DAV:   3    -0.319870413461E+03   -0.49578E-01   -0.43439E-01 34808   0.207E+00    0.355E+00
DAV:   4    -0.319863457123E+03    0.69563E-02   -0.14585E-01 35400   0.127E+00    0.241E+00
DAV:   5    -0.319860670486E+03    0.27866E-02   -0.54637E-02 36472   0.771E-01    0.217E+00
DAV:   6    -0.319855256538E+03    0.54139E-02   -0.29735E-02 37336   0.707E-01    0.917E-01
DAV:   7    -0.319855909517E+03   -0.65298E-03   -0.17602E-02 35760   0.502E-01    0.955E-01
DAV:   8    -0.319854887568E+03    0.10219E-02   -0.86816E-03 36960   0.363E-01    0.458E-01
DAV:   9    -0.319854828565E+03    0.59003E-04   -0.12677E-03 34720   0.147E-01    0.259E-01
DAV:  10    -0.319854752786E+03    0.75779E-04   -0.44413E-04 34072   0.888E-02    0.108E-01
DAV:  11    -0.319854732375E+03    0.20412E-04   -0.17344E-04 34120   0.479E-02    0.862E-02
DAV:  12    -0.319854714719E+03    0.17656E-04   -0.81504E-05 31304   0.361E-02    0.635E-02
DAV:  13    -0.319854702936E+03    0.11782E-04   -0.42193E-05 25656   0.239E-02    0.420E-02
DAV:  14    -0.319854698483E+03    0.44530E-05   -0.18621E-05 21368   0.154E-02
  14 F= -.31985470E+03 E0= -.31984997E+03  d E =0.172786E+00  mag=    44.0000
       N       E                     dE             d eps       ncg     rms          rms(c)
DAV:   1    -0.319572175825E+03    0.28253E+00   -0.21920E+01 42576   0.182E+01    0.387E+00
DAV:   2    -0.320038140828E+03   -0.46597E+00   -0.44976E+00 34784   0.377E+00    0.509E+00
DAV:   3    -0.320039534734E+03   -0.13939E-02   -0.32552E-01 34584   0.195E+00    0.311E+00
DAV:   4    -0.320037324580E+03    0.22102E-02   -0.35929E-02 35024   0.705E-01    0.176E+00
DAV:   5    -0.320036540859E+03    0.78372E-03   -0.18277E-02 36928   0.499E-01    0.161E+00
DAV:   6    -0.320033342421E+03    0.31984E-02   -0.15486E-02 35704   0.482E-01    0.858E-01
DAV:   7    -0.320034006274E+03   -0.66385E-03   -0.15101E-02 36056   0.426E-01    0.965E-01
DAV:   8    -0.320032838416E+03    0.11679E-02   -0.84807E-03 35880   0.298E-01    0.328E-01
DAV:   9    -0.320032841886E+03   -0.34703E-05   -0.78336E-04 34464   0.117E-01    0.167E-01
DAV:  10    -0.320032803788E+03    0.38098E-04   -0.22320E-04 32416   0.595E-02    0.786E-02
DAV:  11    -0.320032792172E+03    0.11616E-04   -0.75609E-05 30736   0.364E-02    0.606E-02
DAV:  12    -0.320032778806E+03    0.13366E-04   -0.35716E-05 26144   0.250E-02    0.357E-02
DAV:  13    -0.320032772898E+03    0.59078E-05   -0.28448E-05 24720   0.180E-02
  15 F= -.32003277E+03 E0= -.32002798E+03  d E =-.178074E+00  mag=    44.0000
       N       E                     dE             d eps       ncg     rms          rms(c)
DAV:   1    -0.320025393538E+03    0.73853E-02   -0.47819E-01 42976   0.314E+00    0.554E-01
DAV:   2    -0.320036212363E+03   -0.10819E-01   -0.10424E-01 35008   0.560E-01    0.412E-01
DAV:   3    -0.320036927330E+03   -0.71497E-03   -0.41240E-03 34328   0.208E-01    0.400E-01
DAV:   4    -0.320036782853E+03    0.14448E-03   -0.59079E-04 34792   0.100E-01    0.162E-01
DAV:   5    -0.320036755392E+03    0.27460E-04   -0.25876E-04 33944   0.562E-02    0.175E-01
DAV:   6    -0.320036709536E+03    0.45857E-04   -0.37090E-04 34752   0.697E-02    0.126E-01
DAV:   7    -0.320036695531E+03    0.14004E-04   -0.14083E-04 33536   0.456E-02    0.791E-02
DAV:   8    -0.320036689710E+03    0.58216E-05   -0.94877E-05 29688   0.297E-02
  16 F= -.32003669E+03 E0= -.32003189E+03  d E =-.391681E-02  mag=    44.0000
       N       E                     dE             d eps       ncg     rms          rms(c)
DAV:   1    -0.320032731566E+03    0.39640E-02   -0.28310E-01 40208   0.234E+00    0.321E-01
DAV:   2    -0.320037321718E+03   -0.45902E-02   -0.44926E-02 34568   0.428E-01    0.273E-01
DAV:   3    -0.320037587946E+03   -0.26623E-03   -0.21795E-03 33832   0.156E-01    0.319E-01
DAV:   4    -0.320037484295E+03    0.10365E-03   -0.49132E-04 33616   0.783E-02    0.973E-02
DAV:   5    -0.320037479992E+03    0.43037E-05   -0.56338E-05 29408   0.322E-02
  17 F= -.32003748E+03 E0= -.32003268E+03  d E =-.790282E-03  mag=    44.0000
       N       E                     dE             d eps       ncg     rms          rms(c)
DAV:   1    -0.320037009571E+03    0.47472E-03   -0.24910E-01 35232   0.158E+00    0.170E-01
DAV:   2    -0.320038586432E+03   -0.15769E-02   -0.15623E-02 34040   0.296E-01    0.259E-01
DAV:   3    -0.320038591405E+03   -0.49731E-05   -0.91584E-04 35088   0.109E-01    0.158E-01
DAV:   4    -0.320038570683E+03    0.20722E-04   -0.10838E-04 29960   0.424E-02    0.615E-02
DAV:   5    -0.320038567941E+03    0.27417E-05   -0.35337E-05 24968   0.221E-02
  18 F= -.32003857E+03 E0= -.32003377E+03  d E =-.108795E-02  mag=    44.0000
       N       E                     dE             d eps       ncg     rms          rms(c)
DAV:   1    -0.320032467973E+03    0.61027E-02   -0.19020E+00 34464   0.398E+00    0.404E-01
DAV:   2    -0.320041765228E+03   -0.92973E-02   -0.91911E-02 34168   0.743E-01    0.670E-01
DAV:   3    -0.320041710974E+03    0.54254E-04   -0.55876E-03 35960   0.271E-01    0.386E-01
DAV:   4    -0.320041588113E+03    0.12286E-03   -0.64856E-04 33768   0.101E-01    0.125E-01
DAV:   5    -0.320041571378E+03    0.16735E-04   -0.18972E-04 36376   0.545E-02    0.131E-01
DAV:   6    -0.320041542294E+03    0.29084E-04   -0.20847E-04 34912   0.591E-02    0.940E-02
DAV:   7    -0.320041545455E+03   -0.31612E-05   -0.11409E-04 33536   0.394E-02    0.761E-02
DAV:   8    -0.320041541136E+03    0.43185E-05   -0.43139E-05 24128   0.247E-02
  19 F= -.32004154E+03 E0= -.32003677E+03  d E =-.297320E-02  mag=    44.0000
       N       E                     dE             d eps       ncg     rms          rms(c)
DAV:   1    -0.319962562166E+03    0.78983E-01   -0.16352E+01 34608   0.119E+01    0.116E+00
DAV:   2    -0.320047263626E+03   -0.84701E-01   -0.83724E-01 34016   0.224E+00    0.194E+00
DAV:   3    -0.320046939999E+03    0.32363E-03   -0.50600E-02 35560   0.796E-01    0.112E+00
DAV:   4    -0.320045774448E+03    0.11656E-02   -0.55031E-03 34280   0.300E-01    0.301E-01
DAV:   5    -0.320045609618E+03    0.16483E-03   -0.10669E-03 36936   0.127E-01    0.301E-01
DAV:   6    -0.320045369137E+03    0.24048E-03   -0.85510E-04 34640   0.126E-01    0.235E-01
DAV:   7    -0.320045328093E+03    0.41044E-04   -0.62735E-04 38112   0.102E-01    0.166E-01
DAV:   8    -0.320045320356E+03    0.77372E-05   -0.28824E-04 35072   0.643E-02    0.729E-02
DAV:   9    -0.320045323761E+03   -0.34051E-05   -0.74126E-05 29352   0.303E-02
  20 F= -.32004532E+03 E0= -.32004059E+03  d E =-.378262E-02  mag=    44.0000
       N       E                     dE             d eps       ncg     rms          rms(c)
DAV:   1    -0.318577077507E+03    0.14682E+01   -0.60772E+01 43696   0.364E+01    0.577E+00
DAV:   2    -0.319749462036E+03   -0.11724E+01   -0.11430E+01 34960   0.651E+00    0.583E+00
DAV:   3    -0.319812157402E+03   -0.62695E-01   -0.66334E-01 34424   0.254E+00    0.389E+00
DAV:   4    -0.319804432690E+03    0.77247E-02   -0.18910E-01 35352   0.144E+00    0.245E+00
DAV:   5    -0.319801129920E+03    0.33028E-02   -0.62923E-02 37728   0.879E-01    0.233E+00
DAV:   6    -0.319794521500E+03    0.66084E-02   -0.36249E-02 36328   0.817E-01    0.107E+00
DAV:   7    -0.319795116162E+03   -0.59466E-03   -0.16542E-02 35592   0.533E-01    0.114E+00
DAV:   8    -0.319793710055E+03    0.14061E-02   -0.86225E-03 37472   0.363E-01    0.399E-01
DAV:   9    -0.319793751978E+03   -0.41923E-04   -0.13926E-03 34440   0.159E-01    0.253E-01
DAV:  10    -0.319793653415E+03    0.98563E-04   -0.51663E-04 35016   0.965E-02    0.108E-01
DAV:  11    -0.319793622281E+03    0.31134E-04   -0.15652E-04 34208   0.511E-02    0.794E-02
DAV:  12    -0.319793602314E+03    0.19967E-04   -0.77613E-05 32528   0.386E-02    0.620E-02
DAV:  13    -0.319793586399E+03    0.15915E-04   -0.37625E-05 26632   0.259E-02    0.289E-02
DAV:  14    -0.319793581941E+03    0.44578E-05   -0.13797E-05 21920   0.139E-02
  21 F= -.31979358E+03 E0= -.31978911E+03  d E =0.251742E+00  mag=    44.0000
       N       E                     dE             d eps       ncg     rms          rms(c)
DAV:   1    -0.319012587200E+03    0.78100E+00   -0.46729E+01 43832   0.305E+01    0.577E+00
DAV:   2    -0.320065991315E+03   -0.10534E+01   -0.10160E+01 34840   0.625E+00    0.810E+00
DAV:   3    -0.320061046581E+03    0.49447E-02   -0.70999E-01 34624   0.311E+00    0.428E+00
DAV:   4    -0.320058537516E+03    0.25091E-02   -0.71081E-02 35168   0.991E-01    0.229E+00
DAV:   5    -0.320057599679E+03    0.93784E-03   -0.42143E-02 36712   0.688E-01    0.230E+00
DAV:   6    -0.320051847248E+03    0.57524E-02   -0.35474E-02 35656   0.718E-01    0.151E+00
DAV:   7    -0.320052485103E+03   -0.63785E-03   -0.31999E-02 36240   0.649E-01    0.151E+00
DAV:   8    -0.320049824477E+03    0.26606E-02   -0.18176E-02 35944   0.457E-01    0.427E-01
DAV:   9    -0.320049832734E+03   -0.82574E-05   -0.19694E-03 34720   0.177E-01    0.230E-01
DAV:  10    -0.320049777242E+03    0.55492E-04   -0.58863E-04 34384   0.928E-02    0.123E-01
DAV:  11    -0.320049747834E+03    0.29409E-04   -0.19347E-04 34856   0.545E-02    0.972E-02
DAV:  12    -0.320049723530E+03    0.24304E-04   -0.83333E-05 32440   0.390E-02    0.634E-02
DAV:  13    -0.320049708390E+03    0.15140E-04   -0.42571E-05 27712   0.284E-02    0.387E-02
DAV:  14    -0.320049704136E+03    0.42546E-05   -0.16795E-05 23416   0.162E-02
  22 F= -.32004970E+03 E0= -.32004501E+03  d E =-.256122E+00  mag=    44.0000
       N       E                     dE             d eps       ncg     rms          rms(c)
DAV:   1    -0.320014741205E+03    0.34967E-01   -0.12310E+00 44680   0.585E+00    0.832E-01
DAV:   2    -0.320042735529E+03   -0.27994E-01   -0.27366E-01 34560   0.100E+00    0.570E-01
DAV:   3    -0.320044419202E+03   -0.16837E-02   -0.10839E-02 33408   0.349E-01    0.606E-01
DAV:   4    -0.320044077865E+03    0.34134E-03   -0.17190E-03 35816   0.166E-01    0.248E-01
DAV:   5    -0.320044004736E+03    0.73129E-04   -0.60424E-04 35864   0.901E-02    0.246E-01
DAV:   6    -0.320043922286E+03    0.82450E-04   -0.97094E-04 36768   0.114E-01    0.207E-01
DAV:   7    -0.320043884008E+03    0.38277E-04   -0.35057E-04 34856   0.772E-02    0.116E-01
DAV:   8    -0.320043873192E+03    0.10816E-04   -0.13274E-04 33504   0.465E-02    0.420E-02
DAV:   9    -0.320043870240E+03    0.29526E-05   -0.28316E-05 23888   0.211E-02
  23 F= -.32004387E+03 E0= -.32003915E+03  d E =0.583390E-02  mag=    44.0000
       N       E                     dE             d eps       ncg     rms          rms(c)
DAV:   1    -0.320042637580E+03    0.12356E-02   -0.58673E-01 41528   0.303E+00    0.476E-01
DAV:   2    -0.320051309199E+03   -0.86716E-02   -0.84783E-02 34728   0.543E-01    0.356E-01
DAV:   3    -0.320051919256E+03   -0.61006E-03   -0.41743E-03 33912   0.209E-01    0.427E-01
DAV:   4    -0.320051749979E+03    0.16928E-03   -0.82245E-04 35472   0.106E-01    0.153E-01
DAV:   5    -0.320051739591E+03    0.10388E-04   -0.26488E-04 34696   0.572E-02    0.160E-01
DAV:   6    -0.320051709479E+03    0.30112E-04   -0.35215E-04 34624   0.674E-02    0.110E-01
DAV:   7    -0.320051705827E+03    0.36522E-05   -0.99464E-05 32960   0.399E-02
  24 F= -.32005171E+03 E0= -.32004701E+03  d E =-.783559E-02  mag=    44.0000
       N       E                     dE             d eps       ncg     rms          rms(c)
DAV:   1    -0.320029868258E+03    0.21841E-01   -0.21338E+00 39024   0.491E+00    0.789E-01
DAV:   2    -0.320053491848E+03   -0.23624E-01   -0.23068E-01 34696   0.956E-01    0.753E-01
DAV:   3    -0.320054668496E+03   -0.11766E-02   -0.11610E-02 34600   0.395E-01    0.781E-01
DAV:   4    -0.320054174449E+03    0.49405E-03   -0.21856E-03 34304   0.188E-01    0.309E-01
DAV:   5    -0.320054185977E+03   -0.11527E-04   -0.89706E-04 37440   0.117E-01    0.346E-01
DAV:   6    -0.320054043552E+03    0.14242E-03   -0.10913E-03 35512   0.128E-01    0.181E-01
DAV:   7    -0.320054067000E+03   -0.23449E-04   -0.59724E-04 36680   0.817E-02    0.176E-01
DAV:   8    -0.320054025236E+03    0.41765E-04   -0.25945E-04 33424   0.542E-02    0.354E-02
DAV:   9    -0.320054027879E+03   -0.26436E-05   -0.24255E-05 25088   0.190E-02
  25 F= -.32005403E+03 E0= -.32004936E+03  d E =-.232205E-02  mag=    44.0000
       N       E                     dE             d eps       ncg     rms          rms(c)
DAV:   1    -0.320051684269E+03    0.23410E-02   -0.38812E-01 37792   0.212E+00    0.248E-01
DAV:   2    -0.320054958822E+03   -0.32746E-02   -0.32105E-02 34440   0.390E-01    0.235E-01
DAV:   3    -0.320055124644E+03   -0.16582E-03   -0.15773E-03 35088   0.137E-01    0.259E-01
DAV:   4    -0.320055044364E+03    0.80280E-04   -0.32814E-04 33352   0.718E-02    0.544E-02
DAV:   5    -0.320055040394E+03    0.39702E-05   -0.40559E-05 28696   0.240E-02
  26 F= -.32005504E+03 E0= -.32005037E+03  d E =-.101251E-02  mag=    44.0000
       N       E                     dE             d eps       ncg     rms          rms(c)
DAV:   1    -0.320017683266E+03    0.37361E-01   -0.73913E+00 35472   0.801E+00    0.789E-01
DAV:   2    -0.320055288564E+03   -0.37605E-01   -0.37153E-01 33832   0.149E+00    0.119E+00
DAV:   3    -0.320055340057E+03   -0.51493E-04   -0.18561E-02 35192   0.519E-01    0.701E-01
DAV:   4    -0.320054904101E+03    0.43596E-03   -0.24538E-03 34640   0.206E-01    0.266E-01
DAV:   5    -0.320054841961E+03    0.62141E-04   -0.60024E-04 39016   0.102E-01    0.241E-01
DAV:   6    -0.320054711933E+03    0.13003E-03   -0.65700E-04 34720   0.102E-01    0.170E-01
DAV:   7    -0.320054721906E+03   -0.99731E-05   -0.65543E-04 39232   0.895E-02    0.161E-01
DAV:   8    -0.320054704717E+03    0.17190E-04   -0.17380E-04 33144   0.492E-02    0.501E-02
DAV:   9    -0.320054706535E+03   -0.18187E-05   -0.34549E-05 24856   0.229E-02
  27 F= -.32005471E+03 E0= -.32005005E+03  d E =0.333859E-03  mag=    44.0000
       N       E                     dE             d eps       ncg     rms          rms(c)
DAV:   1    -0.318394450653E+03    0.16603E+01   -0.10669E+02 40640   0.369E+01    0.587E+00
DAV:   2    -0.319776474224E+03   -0.13820E+01   -0.13313E+01 35176   0.748E+00    0.876E+00
DAV:   3    -0.319773993436E+03    0.24808E-02   -0.87385E-01 34256   0.338E+00    0.352E+00
DAV:   4    -0.319775043195E+03   -0.10498E-02   -0.66047E-02 35088   0.998E-01    0.156E+00
DAV:   5    -0.319772382926E+03    0.26603E-02   -0.25863E-02 36200   0.584E-01    0.159E+00
DAV:   6    -0.319768178659E+03    0.42043E-02   -0.21547E-02 35256   0.594E-01    0.112E+00
DAV:   7    -0.319768509395E+03   -0.33074E-03   -0.15633E-02 35936   0.466E-01    0.114E+00
DAV:   8    -0.319767062997E+03    0.14464E-02   -0.72860E-03 36936   0.318E-01    0.295E-01
DAV:   9    -0.319767127143E+03   -0.64145E-04   -0.10636E-03 34128   0.142E-01    0.202E-01
DAV:  10    -0.319767058921E+03    0.68221E-04   -0.34513E-04 34720   0.814E-02    0.948E-02
DAV:  11    -0.319767042262E+03    0.16660E-04   -0.14762E-04 32696   0.446E-02    0.103E-01
DAV:  12    -0.319767022449E+03    0.19812E-04   -0.11285E-04 32400   0.381E-02    0.641E-02
DAV:  13    -0.319767010189E+03    0.12260E-04   -0.53803E-05 24360   0.241E-02    0.319E-02
DAV:  14    -0.319767005841E+03    0.43485E-05   -0.13362E-05 22144   0.145E-02
  28 F= -.31976701E+03 E0= -.31976232E+03  d E =0.287701E+00  mag=    44.0000
       N       E                     dE             d eps       ncg     rms          rms(c)
DAV:   1    -0.318099849877E+03    0.16672E+01   -0.87734E+01 45288   0.409E+01    0.726E+00
DAV:   2    -0.319972296650E+03   -0.18724E+01   -0.18091E+01 35112   0.757E+00    0.840E+00
DAV:   3    -0.320047078574E+03   -0.74782E-01   -0.10437E+00 34928   0.361E+00    0.459E+00
DAV:   4    -0.320035347753E+03    0.11731E-01   -0.15178E-01 34768   0.163E+00    0.206E+00
DAV:   5    -0.320032083195E+03    0.32646E-02   -0.43461E-02 35552   0.719E-01    0.171E+00
DAV:   6    -0.320026483231E+03    0.56000E-02   -0.18518E-02 35776   0.554E-01    0.100E+00
DAV:   7    -0.320025485696E+03    0.99754E-03   -0.14045E-02 35560   0.466E-01    0.114E+00
DAV:   8    -0.320023933930E+03    0.15518E-02   -0.10961E-02 35936   0.387E-01    0.453E-01
DAV:   9    -0.320023953255E+03   -0.19325E-04   -0.26876E-03 34968   0.196E-01    0.322E-01
DAV:  10    -0.320023815800E+03    0.13746E-03   -0.77080E-04 35168   0.115E-01    0.117E-01
DAV:  11    -0.320023799272E+03    0.16528E-04   -0.17255E-04 32840   0.509E-02    0.841E-02
DAV:  12    -0.320023779477E+03    0.19795E-04   -0.73497E-05 31688   0.391E-02    0.568E-02
DAV:  13    -0.320023766059E+03    0.13418E-04   -0.36073E-05 26280   0.271E-02    0.408E-02
DAV:  14    -0.320023760199E+03    0.58602E-05   -0.19627E-05 23088   0.161E-02
  29 F= -.32002376E+03 E0= -.32001904E+03  d E =-.256754E+00  mag=    44.0000
       N       E                     dE             d eps       ncg     rms          rms(c)
DAV:   1    -0.319964472465E+03    0.59294E-01   -0.36741E+00 44144   0.866E+00    0.138E+00
DAV:   2    -0.320048270864E+03   -0.83798E-01   -0.83965E-01 34920   0.148E+00    0.931E-01
DAV:   3    -0.320053644032E+03   -0.53732E-02   -0.42181E-02 34136   0.562E-01    0.983E-01
DAV:   4    -0.320052551535E+03    0.10925E-02   -0.82956E-03 35608   0.319E-01    0.373E-01
DAV:   5    -0.320052336849E+03    0.21469E-03   -0.10754E-03 36328   0.128E-01    0.304E-01
DAV:   6    -0.320052039526E+03    0.29732E-03   -0.77336E-04 37520   0.125E-01    0.204E-01
DAV:   7    -0.320051954391E+03    0.85135E-04   -0.43454E-04 36136   0.925E-02    0.127E-01
DAV:   8    -0.320051949957E+03    0.44339E-05   -0.27169E-04 34400   0.591E-02    0.701E-02
DAV:   9    -0.320051943485E+03    0.64725E-05   -0.47201E-05 27680   0.271E-02
  30 F= -.32005194E+03 E0= -.32004725E+03  d E =-.281833E-01  mag=    44.0000
       N       E                     dE             d eps       ncg     rms          rms(c)
DAV:   1    -0.320035235760E+03    0.16714E-01   -0.21850E+00 36896   0.481E+00    0.752E-01
DAV:   2    -0.320058029987E+03   -0.22794E-01   -0.23077E-01 35112   0.852E-01    0.624E-01
DAV:   3    -0.320059386771E+03   -0.13568E-02   -0.12429E-02 34584   0.349E-01    0.640E-01
DAV:   4    -0.320058874081E+03    0.51269E-03   -0.21440E-03 35480   0.174E-01    0.219E-01
DAV:   5    -0.320058826693E+03    0.47389E-04   -0.92300E-04 36472   0.953E-02    0.240E-01
DAV:   6    -0.320058702320E+03    0.12437E-03   -0.91422E-04 35520   0.107E-01    0.166E-01
DAV:   7    -0.320058688221E+03    0.14099E-04   -0.24720E-04 34408   0.646E-02    0.114E-01
DAV:   8    -0.320058675832E+03    0.12389E-04   -0.12496E-04 30648   0.414E-02    0.268E-02
DAV:   9    -0.320058674768E+03    0.10642E-05   -0.14525E-05 21496   0.156E-02
  31 F= -.32005867E+03 E0= -.32005401E+03  d E =-.673128E-02  mag=    44.0000
       N       E                     dE             d eps       ncg     rms          rms(c)
DAV:   1    -0.320053746981E+03    0.49289E-02   -0.27268E+00 35120   0.359E+00    0.622E-01
DAV:   2    -0.320062916014E+03   -0.91690E-02   -0.90564E-02 35112   0.689E-01    0.765E-01
DAV:   3    -0.320062571812E+03    0.34420E-03   -0.61324E-03 35208   0.312E-01    0.466E-01
DAV:   4    -0.320062415729E+03    0.15608E-03   -0.72365E-04 33624   0.106E-01    0.282E-01
DAV:   5    -0.320062432802E+03   -0.17074E-04   -0.91294E-04 39088   0.122E-01    0.312E-01
DAV:   6    -0.320062353972E+03    0.78830E-04   -0.67262E-04 35520   0.999E-02    0.157E-01
DAV:   7    -0.320062354539E+03   -0.56719E-06   -0.31098E-04 33184   0.603E-02    0.103E-01
DAV:   8    -0.320062343285E+03    0.11254E-04   -0.75579E-05 25264   0.326E-02    0.412E-02
DAV:   9    -0.320062341167E+03    0.21179E-05   -0.11380E-05 19888   0.149E-02
  32 F= -.32006234E+03 E0= -.32005768E+03  d E =-.366640E-02  mag=    44.0000
       N       E                     dE             d eps       ncg     rms          rms(c)
DAV:   1    -0.320047567445E+03    0.14776E-01   -0.14604E+00 38896   0.441E+00    0.608E-01
DAV:   2    -0.320063902486E+03   -0.16335E-01   -0.15999E-01 34984   0.795E-01    0.500E-01
DAV:   3    -0.320064904985E+03   -0.10025E-02   -0.70101E-03 34768   0.285E-01    0.535E-01
DAV:   4    -0.320064567409E+03    0.33758E-03   -0.14771E-03 35480   0.151E-01    0.160E-01
DAV:   5    -0.320064527899E+03    0.39510E-04   -0.21862E-04 34176   0.561E-02    0.141E-01
DAV:   6    -0.320064458582E+03    0.69317E-04   -0.22815E-04 34728   0.610E-02    0.896E-02
DAV:   7    -0.320064445418E+03    0.13164E-04   -0.11984E-04 34416   0.459E-02    0.705E-02
DAV:   8    -0.320064441163E+03    0.42545E-05   -0.57537E-05 31240   0.292E-02
  33 F= -.32006444E+03 E0= -.32005976E+03  d E =-.210000E-02  mag=    44.0000
       N       E                     dE             d eps       ncg     rms          rms(c)
DAV:   1    -0.320059068601E+03    0.53768E-02   -0.42412E-01 38784   0.252E+00    0.325E-01
DAV:   2    -0.320063928109E+03   -0.48595E-02   -0.48089E-02 34192   0.469E-01    0.316E-01
DAV:   3    -0.320064151181E+03   -0.22307E-03   -0.23471E-03 34672   0.170E-01    0.284E-01
DAV:   4    -0.320064076081E+03    0.75100E-04   -0.36110E-04 34152   0.728E-02    0.101E-01
DAV:   5    -0.320064071297E+03    0.47843E-05   -0.11431E-04 31936   0.380E-02    0.108E-01
DAV:   6    -0.320064053072E+03    0.18224E-04   -0.12455E-04 33792   0.443E-02    0.739E-02
DAV:   7    -0.320064054230E+03   -0.11575E-05   -0.66001E-05 27312   0.328E-02
  34 F= -.32006405E+03 E0= -.32005939E+03  d E =0.386933E-03  mag=    44.0000
       N       E                     dE             d eps       ncg     rms          rms(c)
DAV:   1    -0.320018211810E+03    0.45841E-01   -0.66984E+00 36432   0.827E+00    0.808E-01
DAV:   2    -0.320059664932E+03   -0.41453E-01   -0.41099E-01 33296   0.155E+00    0.102E+00
DAV:   3    -0.320060459400E+03   -0.79447E-03   -0.17121E-02 34848   0.478E-01    0.693E-01
DAV:   4    -0.320059988592E+03    0.47081E-03   -0.27176E-03 35408   0.203E-01    0.274E-01
DAV:   5    -0.320059926178E+03    0.62414E-04   -0.53996E-04 36232   0.921E-02    0.228E-01
DAV:   6    -0.320059797728E+03    0.12845E-03   -0.44827E-04 34872   0.924E-02    0.155E-01
DAV:   7    -0.320059786131E+03    0.11596E-04   -0.35221E-04 36392   0.779E-02    0.124E-01
DAV:   8    -0.320059785760E+03    0.37127E-06   -0.12735E-04 34248   0.456E-02    0.683E-02
DAV:   9    -0.320059785865E+03   -0.10448E-06   -0.26792E-05 24872   0.214E-02
  35 F= -.32005979E+03 E0= -.32005514E+03  d E =0.426837E-02  mag=    44.0000
       N       E                     dE             d eps       ncg     rms          rms(c)
DAV:   1    -0.319873490045E+03    0.18630E+00   -0.28804E+01 36896   0.172E+01    0.157E+00
DAV:   2    -0.320044392082E+03   -0.17090E+00   -0.17025E+00 33048   0.308E+00    0.149E+00
DAV:   3    -0.320049328422E+03   -0.49363E-02   -0.58221E-02 34832   0.864E-01    0.143E+00
DAV:   4    -0.320047052711E+03    0.22757E-02   -0.11340E-02 35704   0.420E-01    0.443E-01
DAV:   5    -0.320046801228E+03    0.25148E-03   -0.19822E-03 36872   0.180E-01    0.434E-01
DAV:   6    -0.320046363875E+03    0.43735E-03   -0.15402E-03 35752   0.157E-01    0.265E-01
DAV:   7    -0.320046296266E+03    0.67609E-04   -0.11856E-03 36152   0.146E-01    0.227E-01
DAV:   8    -0.320046284469E+03    0.11798E-04   -0.50204E-04 36504   0.895E-02    0.105E-01
DAV:   9    -0.320046289393E+03   -0.49246E-05   -0.12791E-04 33168   0.425E-02    0.766E-02
DAV:  10    -0.320046284704E+03    0.46889E-05   -0.30250E-05 24808   0.231E-02
  36 F= -.32004628E+03 E0= -.32004171E+03  d E =0.135012E-01  mag=    44.0000
       N       E                     dE             d eps       ncg     rms          rms(c)
DAV:   1    -0.317155968585E+03    0.28903E+01   -0.11912E+02 43536   0.477E+01    0.829E+00
DAV:   2    -0.319638993772E+03   -0.24830E+01   -0.24033E+01 35232   0.954E+00    0.141E+01
DAV:   3    -0.319568025153E+03    0.70969E-01   -0.22064E+00 34728   0.512E+00    0.429E+00
DAV:   4    -0.319589591207E+03   -0.21566E-01   -0.18643E-01 34144   0.162E+00    0.263E+00
DAV:   5    -0.319586475342E+03    0.31159E-02   -0.70404E-02 37424   0.101E+00    0.270E+00
DAV:   6    -0.319574468119E+03    0.12007E-01   -0.41433E-02 35360   0.831E-01    0.142E+00
DAV:   7    -0.319573111161E+03    0.13570E-02   -0.28138E-02 36736   0.654E-01    0.142E+00
DAV:   8    -0.319570995215E+03    0.21159E-02   -0.19381E-02 35032   0.474E-01    0.536E-01
DAV:   9    -0.319570759030E+03    0.23618E-03   -0.31022E-03 35312   0.247E-01    0.310E-01
DAV:  10    -0.319570649668E+03    0.10936E-03   -0.10680E-03 35304   0.132E-01    0.219E-01
DAV:  11    -0.319570543148E+03    0.10652E-03   -0.39325E-04 34976   0.844E-02    0.125E-01
DAV:  12    -0.319570492979E+03    0.50169E-04   -0.19352E-04 34152   0.522E-02    0.912E-02
DAV:  13    -0.319570444046E+03    0.48933E-04   -0.12292E-04 32920   0.410E-02    0.540E-02
DAV:  14    -0.319570420538E+03    0.23507E-04   -0.32425E-05 27264   0.238E-02    0.332E-02
DAV:  15    -0.319570407746E+03    0.12793E-04   -0.15736E-05 21752   0.151E-02    0.219E-02
DAV:  16    -0.319570398336E+03    0.94093E-05   -0.84684E-06 20128   0.103E-02
  37 F= -.31957040E+03 E0= -.31956611E+03  d E =0.475886E+00  mag=    44.0000
       N       E                     dE             d eps       ncg     rms          rms(c)
DAV:   1    -0.319360549533E+03    0.20986E+00   -0.26400E+01 44568   0.223E+01    0.423E+00
DAV:   2    -0.319973440534E+03   -0.61289E+00   -0.62244E+00 34928   0.427E+00    0.479E+00
DAV:   3    -0.319992640271E+03   -0.19200E-01   -0.39743E-01 34592   0.200E+00    0.305E+00
DAV:   4    -0.319986652366E+03    0.59879E-02   -0.62334E-02 35240   0.866E-01    0.167E+00
DAV:   5    -0.319986025605E+03    0.62676E-03   -0.35881E-02 37368   0.605E-01    0.180E+00
DAV:   6    -0.319981572385E+03    0.44532E-02   -0.29740E-02 36000   0.652E-01    0.104E+00
DAV:   7    -0.319982103500E+03   -0.53112E-03   -0.14147E-02 35792   0.454E-01    0.111E+00
DAV:   8    -0.319980594608E+03    0.15089E-02   -0.58146E-03 35264   0.313E-01    0.142E-01
DAV:   9    -0.319980699731E+03   -0.10512E-03   -0.55222E-04 34464   0.846E-02    0.161E-01
DAV:  10    -0.319980665241E+03    0.34490E-04   -0.26422E-04 33096   0.597E-02    0.900E-02
DAV:  11    -0.319980644186E+03    0.21056E-04   -0.82430E-05 27248   0.385E-02    0.649E-02
DAV:  12    -0.319980629321E+03    0.14865E-04   -0.41724E-05 27808   0.279E-02    0.425E-02
DAV:  13    -0.319980621022E+03    0.82986E-05   -0.21572E-05 22952   0.181E-02
  38 F= -.31998062E+03 E0= -.31997610E+03  d E =-.410223E+00  mag=    44.0000
       N       E                     dE             d eps       ncg     rms          rms(c)
DAV:   1    -0.319912254909E+03    0.68374E-01   -0.60933E+00 45568   0.114E+01    0.178E+00
DAV:   2    -0.320050682487E+03   -0.13843E+00   -0.14014E+00 34808   0.193E+00    0.135E+00
DAV:   3    -0.320059228783E+03   -0.85463E-02   -0.73563E-02 34072   0.753E-01    0.127E+00
DAV:   4    -0.320057326093E+03    0.19027E-02   -0.15584E-02 35736   0.418E-01    0.529E-01
DAV:   5    -0.320056844398E+03    0.48169E-03   -0.33494E-03 36952   0.192E-01    0.439E-01
DAV:   6    -0.320056222539E+03    0.62186E-03   -0.25082E-03 36336   0.197E-01    0.340E-01
DAV:   7    -0.320056097184E+03    0.12535E-03   -0.13691E-03 35888   0.151E-01    0.299E-01
DAV:   8    -0.320055992372E+03    0.10481E-03   -0.61990E-04 34752   0.992E-02    0.694E-02
DAV:   9    -0.320055985040E+03    0.73323E-05   -0.10483E-04 31752   0.375E-02    0.673E-02
DAV:  10    -0.320055977409E+03    0.76314E-05   -0.43016E-05 26816   0.251E-02
  39 F= -.32005598E+03 E0= -.32005137E+03  d E =-.753564E-01  mag=    44.0000
       N       E                     dE             d eps       ncg     rms          rms(c)
DAV:   1    -0.320022618731E+03    0.33366E-01   -0.22218E+00 44680   0.691E+00    0.102E+00
DAV:   2    -0.320065182532E+03   -0.42564E-01   -0.42904E-01 35080   0.114E+00    0.605E-01
DAV:   3    -0.320068419080E+03   -0.32365E-02   -0.20278E-02 33784   0.388E-01    0.657E-01
DAV:   4    -0.320067842868E+03    0.57621E-03   -0.39178E-03 35992   0.206E-01    0.265E-01
DAV:   5    -0.320067620501E+03    0.22237E-03   -0.66706E-04 36848   0.962E-02    0.192E-01
DAV:   6    -0.320067457208E+03    0.16329E-03   -0.56569E-04 36192   0.103E-01    0.165E-01
DAV:   7    -0.320067404691E+03    0.52518E-04   -0.28237E-04 34904   0.726E-02    0.952E-02
DAV:   8    -0.320067398489E+03    0.62016E-05   -0.14181E-04 33008   0.431E-02    0.624E-02
DAV:   9    -0.320067389908E+03    0.85807E-05   -0.38755E-05 25144   0.244E-02
  40 F= -.32006739E+03 E0= -.32006274E+03  d E =-.114125E-01  mag=    44.0000
       N       E                     dE             d eps       ncg     rms          rms(c)
DAV:   1    -0.320065182892E+03    0.22156E-02   -0.26342E-01 38400   0.181E+00    0.246E-01
DAV:   2    -0.320067730804E+03   -0.25479E-02   -0.25431E-02 35192   0.341E-01    0.225E-01
DAV:   3    -0.320067835571E+03   -0.10477E-03   -0.11703E-03 34288   0.126E-01    0.206E-01
DAV:   4    -0.320067792477E+03    0.43094E-04   -0.20004E-04 32680   0.592E-02    0.970E-02
DAV:   5    -0.320067785705E+03    0.67721E-05   -0.86768E-05 29528   0.387E-02
  41 F= -.32006779E+03 E0= -.32006313E+03  d E =-.395796E-03  mag=    44.0000
       N       E                     dE             d eps       ncg     rms          rms(c)
DAV:   1    -0.320065048975E+03    0.27435E-02   -0.11195E+00 34016   0.240E+00    0.421E-01
DAV:   2    -0.320068526579E+03   -0.34776E-02   -0.34834E-02 35224   0.472E-01    0.563E-01
DAV:   3    -0.320068322147E+03    0.20443E-03   -0.36174E-03 35888   0.235E-01    0.285E-01
DAV:   4    -0.320068282770E+03    0.39378E-04   -0.75226E-04 33976   0.918E-02    0.213E-01
DAV:   5    -0.320068254264E+03    0.28506E-04   -0.60134E-04 35840   0.840E-02    0.146E-01
DAV:   6    -0.320068260905E+03   -0.66411E-05   -0.42448E-04 33968   0.644E-02    0.144E-01
DAV:   7    -0.320068239792E+03    0.21113E-04   -0.11956E-04 30016   0.456E-02    0.484E-02
DAV:   8    -0.320068240248E+03   -0.45573E-06   -0.23194E-05 22136   0.174E-02
  42 F= -.32006824E+03 E0= -.32006358E+03  d E =-.454543E-03  mag=    44.0000
       N       E                     dE             d eps       ncg     rms          rms(c)
DAV:   1    -0.320065715587E+03    0.25242E-02   -0.33146E-01 35944   0.192E+00    0.231E-01
DAV:   2    -0.320068234705E+03   -0.25191E-02   -0.25183E-02 34712   0.373E-01    0.325E-01
DAV:   3    -0.320068266155E+03   -0.31450E-04   -0.16637E-03 35152   0.143E-01    0.196E-01
DAV:   4    -0.320068237946E+03    0.28209E-04   -0.23398E-04 32152   0.565E-02    0.977E-02
DAV:   5    -0.320068230551E+03    0.73953E-05   -0.58278E-05 26776   0.334E-02
  43 F= -.32006823E+03 E0= -.32006358E+03  d E =0.969713E-05  mag=    44.0000
       N       E                     dE             d eps       ncg     rms          rms(c)
DAV:   1    -0.320066577145E+03    0.16608E-02   -0.12865E-01 38008   0.145E+00    0.172E-01
DAV:   2    -0.320068036289E+03   -0.14591E-02   -0.14718E-02 35272   0.272E-01    0.224E-01
DAV:   3    -0.320068080570E+03   -0.44281E-04   -0.98482E-04 34552   0.110E-01    0.146E-01
DAV:   4    -0.320068061172E+03    0.19398E-04   -0.13987E-04 30552   0.442E-02    0.546E-02
DAV:   5    -0.320068057302E+03    0.38696E-05   -0.39529E-05 26488   0.237E-02
  44 F= -.32006806E+03 E0= -.32006342E+03  d E =0.173248E-03  mag=    44.0000
       N       E                     dE             d eps       ncg     rms          rms(c)
DAV:   1    -0.320062858148E+03    0.52030E-02   -0.65777E-01 35464   0.258E+00    0.265E-01
DAV:   2    -0.320066841286E+03   -0.39831E-02   -0.39860E-02 34312   0.490E-01    0.355E-01
DAV:   3    -0.320066903573E+03   -0.62287E-04   -0.19890E-03 35104   0.158E-01    0.234E-01
DAV:   4    -0.320066851169E+03    0.52404E-04   -0.31131E-04 33560   0.685E-02    0.993E-02
DAV:   5    -0.320066843811E+03    0.73576E-05   -0.80930E-05 30552   0.377E-02
  45 F= -.32006684E+03 E0= -.32006223E+03  d E =0.121349E-02  mag=    44.0000
       N       E                     dE             d eps       ncg     rms          rms(c)
DAV:   1    -0.320040727650E+03    0.26124E-01   -0.48951E+00 35456   0.644E+00    0.550E-01
DAV:   2    -0.320063390464E+03   -0.22663E-01   -0.22667E-01 33376   0.116E+00    0.765E-01
DAV:   3    -0.320063639461E+03   -0.24900E-03   -0.10367E-02 35704   0.341E-01    0.520E-01
DAV:   4    -0.320063347821E+03    0.29164E-03   -0.16034E-03 35288   0.151E-01    0.194E-01
DAV:   5    -0.320063315728E+03    0.32093E-04   -0.34411E-04 36160   0.738E-02    0.182E-01
DAV:   6    -0.320063225236E+03    0.90492E-04   -0.27947E-04 34512   0.719E-02    0.971E-02
DAV:   7    -0.320063233091E+03   -0.78544E-05   -0.16997E-04 36224   0.509E-02    0.885E-02
DAV:   8    -0.320063232244E+03    0.84723E-06   -0.88719E-05 31760   0.341E-02
  46 F= -.32006323E+03 E0= -.32005866E+03  d E =0.361157E-02  mag=    44.0000
       N       E                     dE             d eps       ncg     rms          rms(c)
DAV:   1    -0.317418844246E+03    0.26444E+01   -0.96452E+01 44184   0.401E+01    0.797E+00
DAV:   2    -0.319592698772E+03   -0.21739E+01   -0.21028E+01 35016   0.824E+00    0.135E+01
DAV:   3    -0.319519410770E+03    0.73288E-01   -0.19680E+00 34768   0.469E+00    0.428E+00
DAV:   4    -0.319540693831E+03   -0.21283E-01   -0.21359E-01 33800   0.162E+00    0.329E+00
DAV:   5    -0.319537462098E+03    0.32317E-02   -0.11387E-01 37928   0.108E+00    0.299E+00
DAV:   6    -0.319524371295E+03    0.13091E-01   -0.55520E-02 35312   0.872E-01    0.161E+00
DAV:   7    -0.319523723653E+03    0.64764E-03   -0.29705E-02 36856   0.733E-01    0.159E+00
DAV:   8    -0.319521149032E+03    0.25746E-02   -0.19487E-02 35768   0.513E-01    0.485E-01
DAV:   9    -0.319521150836E+03   -0.18042E-05   -0.45521E-03 34784   0.260E-01    0.378E-01
DAV:  10    -0.319521021093E+03    0.12974E-03   -0.15184E-03 35344   0.140E-01    0.235E-01
DAV:  11    -0.319520922348E+03    0.98744E-04   -0.39316E-04 34200   0.877E-02    0.129E-01
DAV:  12    -0.319520878436E+03    0.43912E-04   -0.14221E-04 34320   0.545E-02    0.761E-02
DAV:  13    -0.319520840806E+03    0.37630E-04   -0.86341E-05 32376   0.360E-02    0.451E-02
DAV:  14    -0.319520822994E+03    0.17812E-04   -0.26616E-05 26480   0.213E-02    0.291E-02
DAV:  15    -0.319520812631E+03    0.10363E-04   -0.12310E-05 22032   0.131E-02    0.180E-02
DAV:  16    -0.319520805689E+03    0.69422E-05   -0.56116E-06 20064   0.857E-03
  47 F= -.31952081E+03 E0= -.31951619E+03  d E =0.542427E+00  mag=    44.0000
       N       E                     dE             d eps       ncg     rms          rms(c)
DAV:   1    -0.319501908611E+03    0.18904E-01   -0.19150E+01 43816   0.177E+01    0.361E+00
DAV:   2    -0.319916463404E+03   -0.41455E+00   -0.42328E+00 35144   0.340E+00    0.390E+00
DAV:   3    -0.319931063523E+03   -0.14600E-01   -0.23862E-01 34344   0.151E+00    0.257E+00
DAV:   4    -0.319927259168E+03    0.38044E-02   -0.34322E-02 34984   0.675E-01    0.155E+00
DAV:   5    -0.319928488429E+03   -0.12293E-02   -0.35819E-02 37752   0.627E-01    0.201E+00
DAV:   6    -0.319923406756E+03    0.50817E-02   -0.35743E-02 36272   0.676E-01    0.820E-01
DAV:   7    -0.319923864479E+03   -0.45772E-03   -0.11921E-02 36376   0.359E-01    0.782E-01
DAV:   8    -0.319923110941E+03    0.75354E-03   -0.40012E-03 34872   0.236E-01    0.136E-01
DAV:   9    -0.319923129281E+03   -0.18340E-04   -0.33023E-04 34392   0.739E-02    0.132E-01
DAV:  10    -0.319923103679E+03    0.25602E-04   -0.18352E-04 33304   0.519E-02    0.761E-02
DAV:  11    -0.319923090830E+03    0.12849E-04   -0.65549E-05 26280   0.334E-02    0.624E-02
DAV:  12    -0.319923081391E+03    0.94395E-05   -0.39248E-05 25928   0.238E-02
  48 F= -.31992308E+03 E0= -.31991843E+03  d E =-.402276E+00  mag=    44.0000
       N       E                     dE             d eps       ncg     rms          rms(c)
DAV:   1    -0.319945723304E+03   -0.22632E-01   -0.24360E+00 45088   0.660E+00    0.113E+00
DAV:   2    -0.320000138474E+03   -0.54415E-01   -0.55198E-01 34992   0.114E+00    0.828E-01
DAV:   3    -0.320003274400E+03   -0.31359E-02   -0.24975E-02 33896   0.414E-01    0.737E-01
DAV:   4    -0.320002717612E+03    0.55679E-03   -0.46149E-03 35608   0.232E-01    0.386E-01
DAV:   5    -0.320002532783E+03    0.18483E-03   -0.23255E-03 37224   0.155E-01    0.411E-01
DAV:   6    -0.320002200335E+03    0.33245E-03   -0.20110E-03 36664   0.160E-01    0.216E-01
DAV:   7    -0.320002174701E+03    0.25634E-04   -0.54966E-04 35560   0.865E-02    0.130E-01
DAV:   8    -0.320002161713E+03    0.12988E-04   -0.21322E-04 33104   0.527E-02    0.622E-02
DAV:   9    -0.320002153622E+03    0.80905E-05   -0.37834E-05 25328   0.241E-02
  49 F= -.32000215E+03 E0= -.31999750E+03  d E =-.790722E-01  mag=    44.0000
       N       E                     dE             d eps       ncg     rms          rms(c)
DAV:   1    -0.319852043177E+03    0.15012E+00   -0.93116E+00 44912   0.130E+01    0.221E+00
DAV:   2    -0.320060395092E+03   -0.20835E+00   -0.21030E+00 34624   0.225E+00    0.177E+00
DAV:   3    -0.320072552165E+03   -0.12157E-01   -0.10630E-01 34144   0.927E-01    0.151E+00
DAV:   4    -0.320070025600E+03    0.25266E-02   -0.21431E-02 35696   0.506E-01    0.687E-01
DAV:   5    -0.320069298726E+03    0.72687E-03   -0.48485E-03 36592   0.238E-01    0.526E-01
DAV:   6    -0.320068321851E+03    0.97688E-03   -0.25535E-03 35736   0.204E-01    0.317E-01
DAV:   7    -0.320068058743E+03    0.26311E-03   -0.12632E-03 36488   0.146E-01    0.249E-01
DAV:   8    -0.320068004054E+03    0.54689E-04   -0.82863E-04 35304   0.999E-02    0.127E-01
DAV:   9    -0.320067974556E+03    0.29498E-04   -0.15092E-04 32704   0.476E-02    0.687E-02
DAV:  10    -0.320067967000E+03    0.75562E-05   -0.56326E-05 27208   0.279E-02
  50 F= -.32006797E+03 E0= -.32006334E+03  d E =-.658134E-01  mag=    44.0000
       N       E                     dE             d eps       ncg     rms          rms(c)
DAV:   1    -0.320062009949E+03    0.59646E-02   -0.38283E-01 40632   0.252E+00    0.373E-01
DAV:   2    -0.320067989022E+03   -0.59791E-02   -0.60478E-02 35568   0.448E-01    0.300E-01
DAV:   3    -0.320068446476E+03   -0.45745E-03   -0.35184E-03 34408   0.179E-01    0.367E-01
DAV:   4    -0.320068282335E+03    0.16414E-03   -0.67629E-04 34248   0.893E-02    0.104E-01
DAV:   5    -0.320068261663E+03    0.20673E-04   -0.97855E-05 30672   0.390E-02    0.901E-02
DAV:   6    -0.320068229183E+03    0.32479E-04   -0.12713E-04 33096   0.421E-02    0.712E-02
DAV:   7    -0.320068218635E+03    0.10548E-04   -0.71998E-05 29104   0.335E-02    0.437E-02
DAV:   8    -0.320068216416E+03    0.22192E-05   -0.29827E-05 25664   0.203E-02
  51 F= -.32006822E+03 E0= -.32006359E+03  d E =-.249416E-03  mag=    44.0000
       N       E                     dE             d eps       ncg     rms          rms(c)
DAV:   1    -0.320050668926E+03    0.17550E-01   -0.14248E+00 36808   0.408E+00    0.540E-01
DAV:   2    -0.320063981384E+03   -0.13312E-01   -0.13334E-01 35144   0.778E-01    0.711E-01
DAV:   3    -0.320064340336E+03   -0.35895E-03   -0.88143E-03 35632   0.312E-01    0.527E-01
DAV:   4    -0.320064092901E+03    0.24743E-03   -0.13728E-03 34248   0.138E-01    0.222E-01
DAV:   5    -0.320064063432E+03    0.29469E-04   -0.35900E-04 35688   0.804E-02    0.196E-01
DAV:   6    -0.320063990103E+03    0.73329E-04   -0.42876E-04 36384   0.800E-02    0.136E-01
DAV:   7    -0.320063988926E+03    0.11770E-05   -0.30934E-04 35584   0.650E-02    0.999E-02
DAV:   8    -0.320063978743E+03    0.10183E-04   -0.10725E-04 30352   0.360E-02    0.408E-02
DAV:   9    -0.320063978287E+03    0.45595E-06   -0.21161E-05 21744   0.166E-02
  52 F= -.32006398E+03 E0= -.32005937E+03  d E =0.423813E-02  mag=    44.0000
       N       E                     dE             d eps       ncg     rms          rms(c)
DAV:   1    -0.320061852598E+03    0.21261E-02   -0.45967E-01 36208   0.221E+00    0.272E-01
DAV:   2    -0.320065371109E+03   -0.35185E-02   -0.35134E-02 34432   0.417E-01    0.415E-01
DAV:   3    -0.320065421981E+03   -0.50873E-04   -0.24651E-03 35632   0.171E-01    0.244E-01
DAV:   4    -0.320065378519E+03    0.43463E-04   -0.32149E-04 33216   0.676E-02    0.106E-01
DAV:   5    -0.320065370417E+03    0.81018E-05   -0.76023E-05 29192   0.381E-02
  53 F= -.32006537E+03 E0= -.32006077E+03  d E =-.139213E-02  mag=    44.0000
       N       E                     dE             d eps       ncg     rms          rms(c)
DAV:   1    -0.320056564194E+03    0.88143E-02   -0.50332E-01 42592   0.313E+00    0.463E-01
DAV:   2    -0.320066647221E+03   -0.10083E-01   -0.10256E-01 35536   0.544E-01    0.313E-01
DAV:   3    -0.320067287720E+03   -0.64050E-03   -0.44184E-03 34000   0.182E-01    0.301E-01
DAV:   4    -0.320067176595E+03    0.11112E-03   -0.62126E-04 34912   0.983E-02    0.124E-01
DAV:   5    -0.320067127186E+03    0.49409E-04   -0.17077E-04 33160   0.445E-02    0.977E-02
DAV:   6    -0.320067102718E+03    0.24468E-04   -0.22211E-04 34000   0.537E-02    0.112E-01
DAV:   7    -0.320067086356E+03    0.16362E-04   -0.15407E-04 30536   0.416E-02    0.569E-02
DAV:   8    -0.320067084679E+03    0.16768E-05   -0.36319E-05 25768   0.224E-02
  54 F= -.32006708E+03 E0= -.32006247E+03  d E =-.171426E-02  mag=    44.0000
       N       E                     dE             d eps       ncg     rms          rms(c)
DAV:   1    -0.320066322906E+03    0.76345E-03   -0.39010E-02 36976   0.779E-01    0.883E-02
DAV:   2    -0.320066720871E+03   -0.39797E-03   -0.39633E-03 34408   0.146E-01    0.105E-01
DAV:   3    -0.320066737992E+03   -0.17120E-04   -0.23500E-04 32696   0.520E-02    0.941E-02
DAV:   4    -0.320066729538E+03    0.84542E-05   -0.42022E-05 24632   0.246E-02
  55 F= -.32006673E+03 E0= -.32006212E+03  d E =0.355142E-03  mag=    44.0000
       N       E                     dE             d eps       ncg     rms          rms(c)
DAV:   1    -0.320059204790E+03    0.75332E-02   -0.87388E-01 36408   0.308E+00    0.294E-01
DAV:   2    -0.320064803530E+03   -0.55987E-02   -0.55922E-02 33424   0.557E-01    0.297E-01
DAV:   3    -0.320064994698E+03   -0.19117E-03   -0.21300E-03 35200   0.158E-01    0.294E-01
DAV:   4    -0.320064899159E+03    0.95539E-04   -0.45828E-04 34648   0.808E-02    0.952E-02
DAV:   5    -0.320064892035E+03    0.71243E-05   -0.75348E-05 31000   0.362E-02
  56 F= -.32006489E+03 E0= -.32006030E+03  d E =0.183750E-02  mag=    44.0000
       N       E                     dE             d eps       ncg     rms          rms(c)
DAV:   1    -0.320052249310E+03    0.12650E-01   -0.12902E+00 37336   0.400E+00    0.433E-01
DAV:   2    -0.320063901441E+03   -0.11652E-01   -0.11741E-01 34512   0.728E-01    0.306E-01
DAV:   3    -0.320064435195E+03   -0.53375E-03   -0.54843E-03 33872   0.202E-01    0.336E-01
DAV:   4    -0.320064280093E+03    0.15510E-03   -0.12956E-03 35848   0.106E-01    0.114E-01
DAV:   5    -0.320064238583E+03    0.41510E-04   -0.13851E-04 32952   0.424E-02    0.102E-01
DAV:   6    -0.320064208607E+03    0.29976E-04   -0.11979E-04 33920   0.455E-02    0.890E-02
DAV:   7    -0.320064192863E+03    0.15744E-04   -0.67034E-05 32480   0.375E-02    0.332E-02
DAV:   8    -0.320064194276E+03   -0.14127E-05   -0.34000E-05 25640   0.214E-02
  57 F= -.32006419E+03 E0= -.32005963E+03  d E =0.697759E-03  mag=    44.0000
       N       E                     dE             d eps       ncg     rms          rms(c)
DAV:   1    -0.320025003971E+03    0.39189E-01   -0.37044E+00 37976   0.697E+00    0.771E-01
DAV:   2    -0.320060656425E+03   -0.35652E-01   -0.35744E-01 33760   0.124E+00    0.510E-01
DAV:   3    -0.320062409816E+03   -0.17534E-02   -0.15411E-02 34264   0.333E-01    0.583E-01
DAV:   4    -0.320061973796E+03    0.43602E-03   -0.36512E-03 36296   0.183E-01    0.198E-01
DAV:   5    -0.320061882690E+03    0.91106E-04   -0.31861E-04 34872   0.697E-02    0.150E-01
DAV:   6    -0.320061821515E+03    0.61175E-04   -0.25648E-04 35928   0.729E-02    0.141E-01
DAV:   7    -0.320061791227E+03    0.30288E-04   -0.18479E-04 35696   0.617E-02    0.786E-02
DAV:   8    -0.320061792973E+03   -0.17464E-05   -0.89608E-05 32264   0.363E-02
  58 F= -.32006179E+03 E0= -.32005723E+03  d E =0.240130E-02  mag=    44.0000
       N       E                     dE             d eps       ncg     rms          rms(c)
DAV:   1    -0.319929470262E+03    0.13232E+00   -0.21063E+01 36432   0.150E+01    0.130E+00
DAV:   2    -0.320057184333E+03   -0.12771E+00   -0.12729E+00 32848   0.271E+00    0.872E-01
DAV:   3    -0.320060594253E+03   -0.34099E-02   -0.31860E-02 34416   0.575E-01    0.940E-01
DAV:   4    -0.320059617757E+03    0.97650E-03   -0.63736E-03 36504   0.294E-01    0.380E-01
DAV:   5    -0.320059280621E+03    0.33714E-03   -0.10328E-03 34680   0.130E-01    0.294E-01
DAV:   6    -0.320058998433E+03    0.28219E-03   -0.89636E-04 37328   0.136E-01    0.227E-01
DAV:   7    -0.320058935324E+03    0.63110E-04   -0.79345E-04 35560   0.121E-01    0.176E-01
DAV:   8    -0.320058930445E+03    0.48782E-05   -0.38679E-04 37320   0.717E-02    0.799E-02
DAV:   9    -0.320058931308E+03   -0.86243E-06   -0.89092E-05 30224   0.340E-02
  59 F= -.32005893E+03 E0= -.32005442E+03  d E =0.286167E-02  mag=    44.0000
       N       E                     dE             d eps       ncg     rms          rms(c)
DAV:   1    -0.320048299189E+03    0.10631E-01   -0.63649E-01 38096   0.355E+00    0.433E-01
DAV:   2    -0.320057167825E+03   -0.88686E-02   -0.86765E-02 34728   0.676E-01    0.671E-01
DAV:   3    -0.320057359411E+03   -0.19159E-03   -0.68539E-03 34784   0.280E-01    0.431E-01
DAV:   4    -0.320057217720E+03    0.14169E-03   -0.96831E-04 33864   0.116E-01    0.153E-01
DAV:   5    -0.320057205975E+03    0.11746E-04   -0.15754E-04 34560   0.521E-02    0.137E-01
DAV:   6    -0.320057166828E+03    0.39147E-04   -0.16060E-04 34176   0.542E-02    0.102E-01
DAV:   7    -0.320057163798E+03    0.30295E-05   -0.13938E-04 34032   0.451E-02    0.759E-02
DAV:   8    -0.320057158768E+03    0.50302E-05   -0.60765E-05 27688   0.281E-02
  60 F= -.32005716E+03 E0= -.32005265E+03  d E =0.177254E-02  mag=    44.0000
       N       E                     dE             d eps       ncg     rms          rms(c)
DAV:   1    -0.320042126328E+03    0.15037E-01   -0.96740E-01 42976   0.416E+00    0.629E-01
DAV:   2    -0.320060695083E+03   -0.18569E-01   -0.18902E-01 35104   0.716E-01    0.437E-01
DAV:   3    -0.320062075060E+03   -0.13800E-02   -0.12528E-02 34016   0.285E-01    0.542E-01
DAV:   4    -0.320061663648E+03    0.41141E-03   -0.28844E-03 35480   0.160E-01    0.154E-01
DAV:   5    -0.320061602412E+03    0.61237E-04   -0.22160E-04 34696   0.552E-02    0.123E-01
DAV:   6    -0.320061544043E+03    0.58369E-04   -0.20926E-04 34352   0.589E-02    0.113E-01
DAV:   7    -0.320061518085E+03    0.25958E-04   -0.11536E-04 33656   0.472E-02    0.645E-02
DAV:   8    -0.320061515448E+03    0.26373E-05   -0.52510E-05 27432   0.299E-02
  61 F= -.32006152E+03 E0= -.32005697E+03  d E =-.435668E-02  mag=    44.0000
       N       E                     dE             d eps       ncg     rms          rms(c)
DAV:   1    -0.320054753430E+03    0.67647E-02   -0.10077E+00 35944   0.327E+00    0.297E-01
DAV:   2    -0.320061067986E+03   -0.63146E-02   -0.62184E-02 32936   0.599E-01    0.255E-01
DAV:   3    -0.320061272275E+03   -0.20429E-03   -0.20042E-03 34392   0.152E-01    0.298E-01
DAV:   4    -0.320061173313E+03    0.98963E-04   -0.48833E-04 34728   0.814E-02    0.819E-02
DAV:   5    -0.320061168721E+03    0.45916E-05   -0.46985E-05 27624   0.293E-02
  62 F= -.32006117E+03 E0= -.32005661E+03  d E =0.346727E-03  mag=    44.0000
       N       E                     dE             d eps       ncg     rms          rms(c)
DAV:   1    -0.318808928093E+03    0.12522E+01   -0.48122E+01 42440   0.292E+01    0.521E+00
DAV:   2    -0.319789676619E+03   -0.98075E+00   -0.98335E+00 34856   0.533E+00    0.524E+00
DAV:   3    -0.319832030674E+03   -0.42354E-01   -0.50811E-01 34312   0.210E+00    0.300E+00
DAV:   4    -0.319825121925E+03    0.69087E-02   -0.10655E-01 35856   0.119E+00    0.208E+00
DAV:   5    -0.319821268423E+03    0.38535E-02   -0.43716E-02 36432   0.704E-01    0.184E+00
DAV:   6    -0.319815959375E+03    0.53090E-02   -0.21114E-02 37576   0.556E-01    0.904E-01
DAV:   7    -0.319815847963E+03    0.11141E-03   -0.10505E-02 36256   0.415E-01    0.967E-01
DAV:   8    -0.319814902025E+03    0.94594E-03   -0.68282E-03 35248   0.312E-01    0.319E-01
DAV:   9    -0.319814892228E+03    0.97964E-05   -0.11192E-03 34488   0.131E-01    0.221E-01
DAV:  10    -0.319814841025E+03    0.51203E-04   -0.41887E-04 35064   0.823E-02    0.117E-01
DAV:  11    -0.319814812814E+03    0.28211E-04   -0.15733E-04 33504   0.505E-02    0.883E-02
DAV:  12    -0.319814793170E+03    0.19644E-04   -0.89667E-05 28944   0.337E-02    0.511E-02
DAV:  13    -0.319814783723E+03    0.94469E-05   -0.36657E-05 24560   0.234E-02
  63 F= -.31981478E+03 E0= -.31981010E+03  d E =0.246385E+00  mag=    44.0000
       N       E                     dE             d eps       ncg     rms          rms(c)
DAV:   1    -0.315471781352E+03    0.43430E+01   -0.18581E+02 41488   0.491E+01    0.138E+01
DAV:   2    -0.326200011794E+03   -0.10728E+02   -0.63008E+01 36264   0.162E+01    0.607E+01
DAV:   3    -0.319046772446E+03    0.71532E+01   -0.23236E+01 35664   0.164E+01    0.117E+01
DAV:   4    -0.319713565887E+03   -0.66679E+00   -0.13570E+00 34168   0.352E+00    0.709E+00
DAV:   5    -0.319729439822E+03   -0.15874E-01   -0.28392E-01 34536   0.188E+00    0.494E+00
DAV:   6    -0.319749263931E+03   -0.19824E-01   -0.10328E-01 34352   0.111E+00    0.348E+00
DAV:   7    -0.319754882239E+03   -0.56183E-02   -0.73235E-02 35512   0.912E-01    0.220E+00
DAV:   8    -0.319757716128E+03   -0.28339E-02   -0.26459E-02 34552   0.608E-01    0.135E+00
DAV:   9    -0.319757727445E+03   -0.11317E-04   -0.16168E-02 36280   0.505E-01    0.118E+00
DAV:  10    -0.319756276050E+03    0.14514E-02   -0.10982E-02 35136   0.368E-01    0.659E-01
DAV:  11    -0.319756185774E+03    0.90276E-04   -0.30388E-03 35080   0.216E-01    0.401E-01
DAV:  12    -0.319755967057E+03    0.21872E-03   -0.18463E-03 36808   0.154E-01    0.355E-01
DAV:  13    -0.319755793926E+03    0.17313E-03   -0.13132E-03 34176   0.127E-01    0.298E-01
DAV:  14    -0.319755642403E+03    0.15152E-03   -0.55674E-04 34568   0.841E-02    0.135E-01
DAV:  15    -0.319755577281E+03    0.65122E-04   -0.22268E-04 33240   0.550E-02    0.120E-01
DAV:  16    -0.319755522227E+03    0.55053E-04   -0.12892E-04 31248   0.397E-02    0.748E-02
DAV:  17    -0.319755490867E+03    0.31361E-04   -0.48976E-05 25112   0.235E-02    0.606E-02
DAV:  18    -0.319755458650E+03    0.32216E-04   -0.33612E-05 24424   0.194E-02    0.428E-02
DAV:  19    -0.319755416464E+03    0.42187E-04   -0.51580E-05 28520   0.205E-02    0.467E-02
DAV:  20    -0.319755402427E+03    0.14037E-04   -0.18977E-05 25608   0.143E-02    0.415E-02
DAV:  21    -0.319755398847E+03    0.35794E-05   -0.50381E-06 20864   0.823E-03
  64 F= -.31975540E+03 E0= -.31975062E+03  d E =0.593849E-01  mag=    43.9897
       N       E                     dE             d eps       ncg     rms          rms(c)
DAV:   1    -0.319267761303E+03    0.48764E+00   -0.32975E+01 44720   0.217E+01    0.479E+00
DAV:   2    -0.320037478938E+03   -0.76972E+00   -0.77178E+00 34664   0.418E+00    0.547E+00
DAV:   3    -0.320061182827E+03   -0.23704E-01   -0.51939E-01 34632   0.214E+00    0.296E+00
DAV:   4    -0.320054035882E+03    0.71469E-02   -0.75849E-02 34848   0.953E-01    0.151E+00
DAV:   5    -0.320052359467E+03    0.16764E-02   -0.30879E-02 35976   0.534E-01    0.146E+00
DAV:   6    -0.320048442686E+03    0.39168E-02   -0.17016E-02 35592   0.463E-01    0.815E-01
DAV:   7    -0.320048378209E+03    0.64477E-04   -0.12318E-02 36336   0.383E-01    0.975E-01
DAV:   8    -0.320047148518E+03    0.12297E-02   -0.71922E-03 35008   0.293E-01    0.200E-01
DAV:   9    -0.320047172307E+03   -0.23790E-04   -0.82805E-04 34848   0.997E-02    0.161E-01
DAV:  10    -0.320047143106E+03    0.29201E-04   -0.34646E-04 33640   0.653E-02    0.911E-02
DAV:  11    -0.320047126131E+03    0.16975E-04   -0.83744E-05 28888   0.369E-02    0.760E-02
DAV:  12    -0.320047109823E+03    0.16308E-04   -0.54364E-05 27688   0.290E-02    0.447E-02
DAV:  13    -0.320047097461E+03    0.12361E-04   -0.27753E-05 23512   0.206E-02    0.276E-02
DAV:  14    -0.320047091951E+03    0.55106E-05   -0.90819E-06 20920   0.113E-02
  65 F= -.32004709E+03 E0= -.32004234E+03  d E =-.291693E+00  mag=    43.9991
       N       E                     dE             d eps       ncg     rms          rms(c)
DAV:   1    -0.320025841106E+03    0.21256E-01   -0.19682E+00 41064   0.488E+00    0.897E-01
DAV:   2    -0.320058790076E+03   -0.32949E-01   -0.33265E-01 35136   0.815E-01    0.530E-01
DAV:   3    -0.320061377546E+03   -0.25875E-02   -0.18611E-02 33808   0.318E-01    0.616E-01
DAV:   4    -0.320060825710E+03    0.55184E-03   -0.44501E-03 35848   0.189E-01    0.217E-01
DAV:   5    -0.320060652332E+03    0.17338E-03   -0.45613E-04 35536   0.732E-02    0.151E-01
DAV:   6    -0.320060560304E+03    0.92029E-04   -0.49611E-04 35528   0.848E-02    0.178E-01
DAV:   7    -0.320060508480E+03    0.51824E-04   -0.27341E-04 33872   0.628E-02    0.849E-02
DAV:   8    -0.320060505491E+03    0.29887E-05   -0.10001E-04 28736   0.375E-02    0.592E-02
DAV:   9    -0.320060498572E+03    0.69191E-05   -0.27342E-05 24016   0.216E-02
  66 F= -.32006050E+03 E0= -.32005578E+03  d E =-.134066E-01  mag=    43.9998
       N       E                     dE             d eps       ncg     rms          rms(c)
DAV:   1    -0.320036971118E+03    0.23534E-01   -0.13668E+00 42704   0.454E+00    0.694E-01
DAV:   2    -0.320057366848E+03   -0.20396E-01   -0.20535E-01 34912   0.765E-01    0.450E-01
DAV:   3    -0.320058888849E+03   -0.15220E-02   -0.11445E-02 33624   0.281E-01    0.528E-01
DAV:   4    -0.320058528008E+03    0.36084E-03   -0.29393E-03 35600   0.159E-01    0.210E-01
DAV:   5    -0.320058427960E+03    0.10005E-03   -0.40143E-04 37144   0.736E-02    0.166E-01
DAV:   6    -0.320058373366E+03    0.54595E-04   -0.45977E-04 36272   0.892E-02    0.167E-01
DAV:   7    -0.320058346704E+03    0.26662E-04   -0.23282E-04 34168   0.589E-02    0.920E-02
DAV:   8    -0.320058340633E+03    0.60712E-05   -0.79590E-05 27664   0.352E-02
  67 F= -.32005834E+03 E0= -.32005364E+03  d E =0.215794E-02  mag=    43.9999
       N       E                     dE             d eps       ncg     rms          rms(c)
DAV:   1    -0.320055484138E+03    0.28626E-02   -0.38446E-01 40336   0.260E+00    0.330E-01
DAV:   2    -0.320060987251E+03   -0.55031E-02   -0.54791E-02 34448   0.458E-01    0.201E-01
DAV:   3    -0.320061264898E+03   -0.27765E-03   -0.18880E-03 33504   0.119E-01    0.174E-01
DAV:   4    -0.320061235797E+03    0.29101E-04   -0.25680E-04 35504   0.593E-02    0.963E-02
DAV:   5    -0.320061218095E+03    0.17702E-04   -0.97214E-05 29192   0.385E-02    0.962E-02
DAV:   6    -0.320061206348E+03    0.11748E-04   -0.97986E-05 31600   0.405E-02    0.713E-02
DAV:   7    -0.320061204847E+03    0.15009E-05   -0.58940E-05 26576   0.292E-02
  68 F= -.32006120E+03 E0= -.32005652E+03  d E =-.286421E-02  mag=    44.0000
       N       E                     dE             d eps       ncg     rms          rms(c)
DAV:   1    -0.320057850176E+03    0.33562E-02   -0.42713E-01 37384   0.218E+00    0.267E-01
DAV:   2    -0.320061607538E+03   -0.37574E-02   -0.37912E-02 34200   0.397E-01    0.191E-01
DAV:   3    -0.320061770759E+03   -0.16322E-03   -0.14473E-03 34488   0.113E-01    0.198E-01
DAV:   4    -0.320061730236E+03    0.40523E-04   -0.31637E-04 33752   0.614E-02    0.101E-01
DAV:   5    -0.320061718191E+03    0.12045E-04   -0.99977E-05 29168   0.365E-02    0.920E-02
DAV:   6    -0.320061702034E+03    0.16157E-04   -0.92669E-05 31992   0.383E-02    0.515E-02
DAV:   7    -0.320061702342E+03   -0.30833E-06   -0.37321E-05 26656   0.240E-02
  69 F= -.32006170E+03 E0= -.32005704E+03  d E =-.497496E-03  mag=    44.0000
       N       E                     dE             d eps       ncg     rms          rms(c)
DAV:   1    -0.320045779166E+03    0.15923E-01   -0.10348E+00 37672   0.384E+00    0.501E-01
DAV:   2    -0.320058623116E+03   -0.12844E-01   -0.13051E-01 34512   0.684E-01    0.328E-01
DAV:   3    -0.320059420192E+03   -0.79708E-03   -0.62054E-03 34200   0.208E-01    0.414E-01
DAV:   4    -0.320059208733E+03    0.21146E-03   -0.13238E-03 35968   0.117E-01    0.130E-01
DAV:   5    -0.320059162123E+03    0.46610E-04   -0.15928E-04 33240   0.468E-02    0.105E-01
DAV:   6    -0.320059130313E+03    0.31811E-04   -0.16261E-04 34456   0.516E-02    0.978E-02
DAV:   7    -0.320059113308E+03    0.17005E-04   -0.87831E-05 32912   0.384E-02    0.479E-02
DAV:   8    -0.320059112819E+03    0.48882E-06   -0.34780E-05 26536   0.240E-02
  70 F= -.32005911E+03 E0= -.32005446E+03  d E =0.258952E-02  mag=    44.0000
       N       E                     dE             d eps       ncg     rms          rms(c)
DAV:   1    -0.320050544329E+03    0.85690E-02   -0.11412E+00 36760   0.363E+00    0.351E-01
DAV:   2    -0.320058191335E+03   -0.76470E-02   -0.77492E-02 33704   0.663E-01    0.300E-01
DAV:   3    -0.320058480689E+03   -0.28935E-03   -0.34145E-03 34856   0.183E-01    0.365E-01
DAV:   4    -0.320058321605E+03    0.15908E-03   -0.82789E-04 35352   0.995E-02    0.103E-01
DAV:   5    -0.320058314019E+03    0.75857E-05   -0.13055E-04 32768   0.460E-02    0.112E-01
DAV:   6    -0.320058289004E+03    0.25015E-04   -0.13053E-04 33320   0.450E-02    0.616E-02
DAV:   7    -0.320058287926E+03    0.10782E-05   -0.55510E-05 28256   0.286E-02
  71 F= -.32005829E+03 E0= -.32005370E+03  d E =0.824893E-03  mag=    44.0000
       N       E                     dE             d eps       ncg     rms          rms(c)
DAV:   1    -0.320056016280E+03    0.22727E-02   -0.12203E-01 41104   0.133E+00    0.212E-01
DAV:   2    -0.320058206211E+03   -0.21899E-02   -0.22189E-02 35080   0.242E-01    0.162E-01
DAV:   3    -0.320058359564E+03   -0.15335E-03   -0.13567E-03 33864   0.102E-01    0.202E-01
DAV:   4    -0.320058309688E+03    0.49875E-04   -0.28758E-04 31896   0.554E-02    0.572E-02
DAV:   5    -0.320058302266E+03    0.74224E-05   -0.30340E-05 25816   0.204E-02
  72 F= -.32005830E+03 E0= -.32005372E+03  d E =-.143398E-04  mag=    44.0000
       N       E                     dE             d eps       ncg     rms          rms(c)
DAV:   1    -0.320057639124E+03    0.67056E-03   -0.66485E-02 36752   0.891E-01    0.103E-01
DAV:   2    -0.320058112573E+03   -0.47345E-03   -0.46173E-03 33912   0.173E-01    0.184E-01
DAV:   3    -0.320058102263E+03    0.10310E-04   -0.35512E-04 34328   0.704E-02    0.787E-02
DAV:   4    -0.320058100153E+03    0.21104E-05   -0.38287E-05 24760   0.245E-02
  73 F= -.32005810E+03 E0= -.32005352E+03  d E =0.202113E-03  mag=    44.0000
       N       E                     dE             d eps       ncg     rms          rms(c)
DAV:   1    -0.320054887421E+03    0.32148E-02   -0.47554E-01 36096   0.217E+00    0.211E-01
DAV:   2    -0.320057455770E+03   -0.25683E-02   -0.25555E-02 33824   0.396E-01    0.241E-01
DAV:   3    -0.320057509532E+03   -0.53762E-04   -0.12344E-03 36096   0.120E-01    0.206E-01
DAV:   4    -0.320057457989E+03    0.51543E-04   -0.33261E-04 32760   0.618E-02    0.785E-02
DAV:   5    -0.320057454288E+03    0.37008E-05   -0.74511E-05 25912   0.348E-02
  74 F= -.32005745E+03 E0= -.32005288E+03  d E =0.645864E-03  mag=    44.0000
       N       E                     dE             d eps       ncg     rms          rms(c)
DAV:   1    -0.319950542252E+03    0.10692E+00   -0.17653E+01 36336   0.133E+01    0.134E+00
DAV:   2    -0.320054832183E+03   -0.10429E+00   -0.10286E+00 33736   0.248E+00    0.183E+00
DAV:   3    -0.320056259847E+03   -0.14277E-02   -0.61205E-02 35144   0.822E-01    0.119E+00
DAV:   4    -0.320054739009E+03    0.15208E-02   -0.11558E-02 34528   0.371E-01    0.449E-01
DAV:   5    -0.320054612567E+03    0.12644E-03   -0.23177E-03 35920   0.177E-01    0.409E-01
DAV:   6    -0.320054234509E+03    0.37806E-03   -0.13020E-03 34144   0.161E-01    0.241E-01
DAV:   7    -0.320054305322E+03   -0.70813E-04   -0.10529E-03 38080   0.119E-01    0.263E-01
DAV:   8    -0.320054275354E+03    0.29968E-04   -0.51761E-04 34424   0.808E-02    0.145E-01
DAV:   9    -0.320054270943E+03    0.44110E-05   -0.11409E-04 29104   0.405E-02    0.717E-02
DAV:  10    -0.320054268401E+03    0.25423E-05   -0.19264E-05 23072   0.193E-02
  75 F= -.32005427E+03 E0= -.32004970E+03  d E =0.318589E-02  mag=    44.0000
       N       E                     dE             d eps       ncg     rms          rms(c)
DAV:   1    -0.319938843727E+03    0.11543E+00   -0.61149E+00 40016   0.106E+01    0.141E+00
DAV:   2    -0.320039375443E+03   -0.10053E+00   -0.10102E+00 34792   0.194E+00    0.120E+00
DAV:   3    -0.320044747712E+03   -0.53723E-02   -0.63562E-02 34144   0.721E-01    0.142E+00
DAV:   4    -0.320042091647E+03    0.26561E-02   -0.15940E-02 35608   0.402E-01    0.389E-01
DAV:   5    -0.320041987897E+03    0.10375E-03   -0.13958E-03 36824   0.152E-01    0.360E-01
DAV:   6    -0.320041702872E+03    0.28502E-03   -0.12696E-03 36536   0.142E-01    0.263E-01
DAV:   7    -0.320041625232E+03    0.77640E-04   -0.84274E-04 36504   0.119E-01    0.241E-01
DAV:   8    -0.320041577122E+03    0.48110E-04   -0.46743E-04 35392   0.847E-02    0.106E-01
DAV:   9    -0.320041575074E+03    0.20480E-05   -0.12059E-04 31560   0.435E-02    0.676E-02
DAV:  10    -0.320041569930E+03    0.51441E-05   -0.32276E-05 25864   0.235E-02
  76 F= -.32004157E+03 E0= -.32003687E+03  d E =0.126985E-01  mag=    44.0000
       N       E                     dE             d eps       ncg     rms          rms(c)
DAV:   1    -0.319948588982E+03    0.92986E-01   -0.63541E+00 40248   0.989E+00    0.149E+00
DAV:   2    -0.320054650356E+03   -0.10606E+00   -0.10678E+00 34680   0.182E+00    0.151E+00
DAV:   3    -0.320060058857E+03   -0.54085E-02   -0.76324E-02 34568   0.832E-01    0.140E+00
DAV:   4    -0.320057965371E+03    0.20935E-02   -0.18214E-02 35096   0.427E-01    0.496E-01
DAV:   5    -0.320057750130E+03    0.21524E-03   -0.22476E-03 37552   0.176E-01    0.369E-01
DAV:   6    -0.320057382470E+03    0.36766E-03   -0.14549E-03 36976   0.156E-01    0.289E-01
DAV:   7    -0.320057327162E+03    0.55307E-04   -0.13380E-03 35912   0.138E-01    0.285E-01
DAV:   8    -0.320057254232E+03    0.72930E-04   -0.61667E-04 35648   0.925E-02    0.126E-01
DAV:   9    -0.320057251626E+03    0.26067E-05   -0.15034E-04 31776   0.494E-02    0.776E-02
DAV:  10    -0.320057242790E+03    0.88361E-05   -0.38497E-05 27320   0.267E-02
  77 F= -.32005724E+03 E0= -.32005262E+03  d E =-.156729E-01  mag=    44.0000
       N       E                     dE             d eps       ncg     rms          rms(c)
DAV:   1    -0.320043046068E+03    0.14206E-01   -0.12792E+00 37912   0.430E+00    0.508E-01
DAV:   2    -0.320057257797E+03   -0.14212E-01   -0.14159E-01 34736   0.790E-01    0.440E-01
DAV:   3    -0.320058020021E+03   -0.76222E-03   -0.80136E-03 34480   0.262E-01    0.500E-01
DAV:   4    -0.320057710482E+03    0.30954E-03   -0.19772E-03 35448   0.143E-01    0.135E-01
DAV:   5    -0.320057699595E+03    0.10887E-04   -0.19100E-04 34080   0.546E-02    0.129E-01
DAV:   6    -0.320057659346E+03    0.40249E-04   -0.14486E-04 34304   0.528E-02    0.811E-02
DAV:   7    -0.320057655698E+03    0.36482E-05   -0.98616E-05 33168   0.427E-02
  78 F= -.32005766E+03 E0= -.32005300E+03  d E =-.412908E-03  mag=    44.0000
       N       E                     dE             d eps       ncg     rms          rms(c)
DAV:   1    -0.318240571045E+03    0.18171E+01   -0.12362E+02 37248   0.420E+01    0.622E+00
DAV:   2    -0.319712768539E+03   -0.14722E+01   -0.14712E+01 35088   0.785E+00    0.738E+00
DAV:   3    -0.319762258959E+03   -0.49490E-01   -0.92544E-01 35144   0.329E+00    0.566E+00
DAV:   4    -0.319733884634E+03    0.28374E-01   -0.21701E-01 35344   0.160E+00    0.247E+00
DAV:   5    -0.319729527060E+03    0.43576E-02   -0.43587E-02 37872   0.888E-01    0.213E+00
DAV:   6    -0.319722801239E+03    0.67258E-02   -0.35470E-02 38040   0.834E-01    0.147E+00
DAV:   7    -0.319723183516E+03   -0.38228E-03   -0.45526E-02 36264   0.680E-01    0.149E+00
DAV:   8    -0.319720881449E+03    0.23021E-02   -0.22778E-02 35744   0.476E-01    0.514E-01
DAV:   9    -0.319720993993E+03   -0.11254E-03   -0.28473E-03 34432   0.205E-01    0.446E-01
DAV:  10    -0.319720763507E+03    0.23049E-03   -0.94877E-04 35384   0.127E-01    0.153E-01
DAV:  11    -0.319720736712E+03    0.26796E-04   -0.18440E-04 33384   0.664E-02    0.123E-01
DAV:  12    -0.319720704123E+03    0.32589E-04   -0.10742E-04 35400   0.466E-02    0.613E-02
DAV:  13    -0.319720696083E+03    0.80396E-05   -0.67526E-05 28672   0.299E-02
  79 F= -.31972070E+03 E0= -.31971596E+03  d E =0.336960E+00  mag=    44.0000
       N       E                     dE             d eps       ncg     rms          rms(c)
DAV:   1    -0.319462959682E+03    0.25774E+00   -0.25572E+01 44960   0.223E+01    0.380E+00
DAV:   2    -0.320008930195E+03   -0.54597E+00   -0.55796E+00 34920   0.416E+00    0.408E+00
DAV:   3    -0.320030843928E+03   -0.21914E-01   -0.35178E-01 34272   0.183E+00    0.273E+00
DAV:   4    -0.320025786478E+03    0.50574E-02   -0.74572E-02 35520   0.866E-01    0.160E+00
DAV:   5    -0.320024091712E+03    0.16948E-02   -0.31589E-02 37440   0.539E-01    0.137E+00
DAV:   6    -0.320020605442E+03    0.34863E-02   -0.19932E-02 35808   0.518E-01    0.798E-01
DAV:   7    -0.320020787449E+03   -0.18201E-03   -0.79764E-03 35616   0.379E-01    0.794E-01
DAV:   8    -0.320020012928E+03    0.77452E-03   -0.36445E-03 35792   0.254E-01    0.150E-01
DAV:   9    -0.320020046945E+03   -0.34017E-04   -0.47030E-04 34672   0.823E-02    0.135E-01
DAV:  10    -0.320020016975E+03    0.29970E-04   -0.21652E-04 34112   0.547E-02    0.772E-02
DAV:  11    -0.320020004546E+03    0.12429E-04   -0.73203E-05 27496   0.340E-02    0.721E-02
DAV:  12    -0.320019991280E+03    0.13266E-04   -0.40011E-05 26184   0.252E-02    0.319E-02
DAV:  13    -0.320019984559E+03    0.67211E-05   -0.16795E-05 22288   0.164E-02
  80 F= -.32001998E+03 E0= -.32001512E+03  d E =-.299288E+00  mag=    44.0000
       N       E                     dE             d eps       ncg     rms          rms(c)
DAV:   1    -0.320018784386E+03    0.12069E-02   -0.11015E+00 44528   0.504E+00    0.689E-01
DAV:   2    -0.320039984057E+03   -0.21200E-01   -0.21486E-01 34848   0.854E-01    0.487E-01
DAV:   3    -0.320041387498E+03   -0.14034E-02   -0.11319E-02 33744   0.301E-01    0.549E-01
DAV:   4    -0.320041046063E+03    0.34144E-03   -0.27531E-03 36136   0.159E-01    0.224E-01
DAV:   5    -0.320040962301E+03    0.83761E-04   -0.46640E-04 37040   0.791E-02    0.180E-01
DAV:   6    -0.320040866559E+03    0.95742E-04   -0.47984E-04 35592   0.897E-02    0.141E-01
DAV:   7    -0.320040848807E+03    0.17752E-04   -0.19259E-04 34376   0.601E-02    0.946E-02
DAV:   8    -0.320040840142E+03    0.86648E-05   -0.71679E-05 29784   0.366E-02
  81 F= -.32004084E+03 E0= -.32003598E+03  d E =-.208556E-01  mag=    44.0000
       N       E                     dE             d eps       ncg     rms          rms(c)
DAV:   1    -0.319994658650E+03    0.46190E-01   -0.35546E+00 42688   0.892E+00    0.111E+00
DAV:   2    -0.320048314920E+03   -0.53656E-01   -0.53618E-01 34536   0.155E+00    0.808E-01
DAV:   3    -0.320051722783E+03   -0.34079E-02   -0.24966E-02 33480   0.504E-01    0.875E-01
DAV:   4    -0.320050937309E+03    0.78547E-03   -0.57828E-03 36200   0.258E-01    0.386E-01
DAV:   5    -0.320050771108E+03    0.16620E-03   -0.15541E-03 39016   0.139E-01    0.319E-01
DAV:   6    -0.320050544120E+03    0.22699E-03   -0.17143E-03 35848   0.162E-01    0.213E-01
DAV:   7    -0.320050509852E+03    0.34268E-04   -0.51105E-04 37344   0.949E-02    0.142E-01
DAV:   8    -0.320050493126E+03    0.16726E-04   -0.22591E-04 33912   0.568E-02    0.640E-02
DAV:   9    -0.320050488350E+03    0.47756E-05   -0.56199E-05 26504   0.296E-02
  82 F= -.32005049E+03 E0= -.32004565E+03  d E =-.964821E-02  mag=    44.0000
       N       E                     dE             d eps       ncg     rms          rms(c)
DAV:   1    -0.320049621591E+03    0.87153E-03   -0.26557E-01 36136   0.177E+00    0.192E-01
DAV:   2    -0.320051616116E+03   -0.19945E-02   -0.19871E-02 34992   0.333E-01    0.158E-01
DAV:   3    -0.320051678521E+03   -0.62405E-04   -0.65540E-04 35000   0.909E-02    0.157E-01
DAV:   4    -0.320051654060E+03    0.24461E-04   -0.13555E-04 32192   0.473E-02    0.741E-02
DAV:   5    -0.320051649826E+03    0.42335E-05   -0.47386E-05 25904   0.273E-02
  83 F= -.32005165E+03 E0= -.32004685E+03  d E =-.116148E-02  mag=    44.0000
       N       E                     dE             d eps       ncg     rms          rms(c)
DAV:   1    -0.320035408753E+03    0.16245E-01   -0.29061E+00 35872   0.564E+00    0.547E-01
DAV:   2    -0.320052864420E+03   -0.17456E-01   -0.17378E-01 34456   0.103E+00    0.485E-01
DAV:   3    -0.320053417671E+03   -0.55325E-03   -0.62374E-03 36728   0.280E-01    0.548E-01
DAV:   4    -0.320053075431E+03    0.34224E-03   -0.15621E-03 35720   0.156E-01    0.185E-01
DAV:   5    -0.320053049920E+03    0.25511E-04   -0.39577E-04 36984   0.782E-02    0.183E-01
DAV:   6    -0.320053002931E+03    0.46989E-04   -0.53535E-04 36096   0.869E-02    0.166E-01
DAV:   7    -0.320052990917E+03    0.12014E-04   -0.26289E-04 35528   0.596E-02    0.954E-02
DAV:   8    -0.320052983552E+03    0.73654E-05   -0.69738E-05 29600   0.360E-02
  84 F= -.32005298E+03 E0= -.32004824E+03  d E =-.133373E-02  mag=    44.0000
       N       E                     dE             d eps       ncg     rms          rms(c)
DAV:   1    -0.320051509315E+03    0.14816E-02   -0.34013E-01 34712   0.175E+00    0.167E-01
DAV:   2    -0.320053171344E+03   -0.16620E-02   -0.16715E-02 33456   0.320E-01    0.134E-01
DAV:   3    -0.320053215118E+03   -0.43773E-04   -0.54136E-04 35704   0.851E-02    0.150E-01
DAV:   4    -0.320053187283E+03    0.27834E-04   -0.13642E-04 31120   0.454E-02    0.564E-02
DAV:   5    -0.320053184968E+03    0.23158E-05   -0.28729E-05 24240   0.237E-02
  85 F= -.32005318E+03 E0= -.32004846E+03  d E =-.201416E-03  mag=    44.0000
       N       E                     dE             d eps       ncg     rms          rms(c)
DAV:   1    -0.320040569320E+03    0.12618E-01   -0.29895E+00 34872   0.494E+00    0.472E-01
DAV:   2    -0.320053448303E+03   -0.12879E-01   -0.12919E-01 33592   0.888E-01    0.577E-01
DAV:   3    -0.320053606597E+03   -0.15829E-03   -0.61267E-03 36048   0.275E-01    0.457E-01
DAV:   4    -0.320053335967E+03    0.27063E-03   -0.10906E-03 34864   0.128E-01    0.141E-01
DAV:   5    -0.320053328150E+03    0.78177E-05   -0.33332E-04 34928   0.718E-02    0.184E-01
DAV:   6    -0.320053279391E+03    0.48759E-04   -0.35868E-04 36168   0.710E-02    0.111E-01
DAV:   7    -0.320053280499E+03   -0.11086E-05   -0.14990E-04 33168   0.440E-02    0.704E-02
DAV:   8    -0.320053279274E+03    0.12249E-05   -0.48926E-05 25656   0.276E-02
  86 F= -.32005328E+03 E0= -.32004859E+03  d E =-.943066E-04  mag=    44.0000
       N       E                     dE             d eps       ncg     rms          rms(c)
DAV:   1    -0.320048234307E+03    0.50462E-02   -0.12871E+00 34024   0.307E+00    0.317E-01
DAV:   2    -0.320053306975E+03   -0.50727E-02   -0.50786E-02 33888   0.553E-01    0.426E-01
DAV:   3    -0.320053329133E+03   -0.22158E-04   -0.27588E-03 36040   0.185E-01    0.278E-01
DAV:   4    -0.320053229278E+03    0.99855E-04   -0.40984E-04 34056   0.790E-02    0.916E-02
DAV:   5    -0.320053227260E+03    0.20173E-05   -0.13279E-04 33264   0.457E-02    0.126E-01
DAV:   6    -0.320053204903E+03    0.22357E-04   -0.12397E-04 32536   0.452E-02    0.662E-02
DAV:   7    -0.320053206668E+03   -0.17645E-05   -0.49226E-05 26304   0.274E-02
  87 F= -.32005321E+03 E0= -.32004856E+03  d E =0.726066E-04  mag=    44.0000
       N       E                     dE             d eps       ncg     rms          rms(c)
DAV:   1    -0.320039642957E+03    0.13562E-01   -0.33040E+00 33968   0.496E+00    0.551E-01
DAV:   2    -0.320053294523E+03   -0.13652E-01   -0.13567E-01 34336   0.913E-01    0.868E-01
DAV:   3    -0.320053104069E+03    0.19045E-03   -0.92667E-03 35648   0.340E-01    0.427E-01
DAV:   4    -0.320052924811E+03    0.17926E-03   -0.11753E-03 34776   0.135E-01    0.212E-01
DAV:   5    -0.320052894908E+03    0.29903E-04   -0.47162E-04 36920   0.884E-02    0.205E-01
DAV:   6    -0.320052840349E+03    0.54559E-04   -0.35857E-04 34888   0.745E-02    0.141E-01
DAV:   7    -0.320052836134E+03    0.42150E-05   -0.18649E-04 35808   0.560E-02    0.990E-02
DAV:   8    -0.320052834779E+03    0.13548E-05   -0.77637E-05 28208   0.325E-02
  88 F= -.32005283E+03 E0= -.32004824E+03  d E =0.371888E-03  mag=    44.0000
       N       E                     dE             d eps       ncg     rms          rms(c)
DAV:   1    -0.320052605451E+03    0.23068E-03   -0.98614E-02 35512   0.108E+00    0.134E-01
DAV:   2    -0.320053323459E+03   -0.71801E-03   -0.70778E-03 34600   0.206E-01    0.186E-01
DAV:   3    -0.320053338608E+03   -0.15149E-04   -0.49408E-04 35392   0.830E-02    0.120E-01
DAV:   4    -0.320053328201E+03    0.10407E-04   -0.79976E-05 27432   0.358E-02    0.566E-02
DAV:   5    -0.320053326797E+03    0.14039E-05   -0.23069E-05 22576   0.203E-02
  89 F= -.32005333E+03 E0= -.32004872E+03  d E =-.492017E-03  mag=    44.0000
       N       E                     dE             d eps       ncg     rms          rms(c)
DAV:   1    -0.320053419106E+03   -0.90905E-04   -0.12798E-01 35584   0.104E+00    0.945E-02
DAV:   2    -0.320053988387E+03   -0.56928E-03   -0.57502E-03 33752   0.184E-01    0.775E-02
DAV:   3    -0.320053998181E+03   -0.97942E-05   -0.15866E-04 33712   0.463E-02    0.754E-02
DAV:   4    -0.320053990599E+03    0.75821E-05   -0.38100E-05 25120   0.250E-02
  90 F= -.32005399E+03 E0= -.32004937E+03  d E =-.663802E-03  mag=    44.0000
       N       E                     dE             d eps       ncg     rms          rms(c)
DAV:   1    -0.320053183195E+03    0.81499E-03   -0.49031E-01 33688   0.188E+00    0.186E-01
DAV:   2    -0.320055067119E+03   -0.18839E-02   -0.18958E-02 34200   0.339E-01    0.231E-01
DAV:   3    -0.320055073163E+03   -0.60435E-05   -0.83128E-04 36152   0.106E-01    0.160E-01
DAV:   4    -0.320055040335E+03    0.32828E-04   -0.16375E-04 31552   0.481E-02    0.664E-02
DAV:   5    -0.320055039051E+03    0.12843E-05   -0.10513E-04 27544   0.357E-02    0.930E-02
DAV:   6    -0.320055026702E+03    0.12349E-04   -0.78962E-05 29600   0.315E-02    0.422E-02
DAV:   7    -0.320055027157E+03   -0.45459E-06   -0.21552E-05 22432   0.197E-02
  91 F= -.32005503E+03 E0= -.32005037E+03  d E =-.103656E-02  mag=    44.0000
       N       E                     dE             d eps       ncg     rms          rms(c)
DAV:   1    -0.320037930190E+03    0.17097E-01   -0.33797E+00 36128   0.544E+00    0.605E-01
DAV:   2    -0.320055589927E+03   -0.17660E-01   -0.17579E-01 34392   0.100E+00    0.872E-01
DAV:   3    -0.320055764549E+03   -0.17462E-03   -0.11060E-02 35632   0.370E-01    0.496E-01
DAV:   4    -0.320055522015E+03    0.24253E-03   -0.17995E-03 34640   0.156E-01    0.228E-01
DAV:   5    -0.320055476557E+03    0.45458E-04   -0.59560E-04 36128   0.919E-02    0.200E-01
DAV:   6    -0.320055399215E+03    0.77342E-04   -0.34851E-04 35832   0.739E-02    0.128E-01
DAV:   7    -0.320055395749E+03    0.34658E-05   -0.20306E-04 35728   0.551E-02    0.967E-02
DAV:   8    -0.320055397173E+03   -0.14235E-05   -0.95568E-05 29848   0.334E-02
  92 F= -.32005540E+03 E0= -.32005067E+03  d E =-.370016E-03  mag=    44.0000
       N       E                     dE             d eps       ncg     rms          rms(c)
DAV:   1    -0.320041941447E+03    0.13454E-01   -0.20016E+00 37464   0.467E+00    0.516E-01
DAV:   2    -0.320055759865E+03   -0.13818E-01   -0.13788E-01 34256   0.860E-01    0.682E-01
DAV:   3    -0.320056067977E+03   -0.30811E-03   -0.10328E-02 35248   0.323E-01    0.469E-01
DAV:   4    -0.320055845844E+03    0.22213E-03   -0.20230E-03 34808   0.146E-01    0.206E-01
DAV:   5    -0.320055813754E+03    0.32090E-04   -0.40720E-04 36384   0.768E-02    0.166E-01
DAV:   6    -0.320055761809E+03    0.51945E-04   -0.27624E-04 35552   0.681E-02    0.118E-01
DAV:   7    -0.320055759697E+03    0.21117E-05   -0.16917E-04 35880   0.543E-02    0.935E-02
DAV:   8    -0.320055757876E+03    0.18208E-05   -0.60499E-05 28624   0.297E-02
  93 F= -.32005576E+03 E0= -.32005099E+03  d E =-.360704E-03  mag=    44.0000
       N       E                     dE             d eps       ncg     rms          rms(c)
DAV:   1    -0.320044009165E+03    0.11751E-01   -0.86164E-01 37944   0.411E+00    0.465E-01
DAV:   2    -0.320054849521E+03   -0.10840E-01   -0.10550E-01 33776   0.735E-01    0.370E-01
DAV:   3    -0.320055313866E+03   -0.46434E-03   -0.43066E-03 34272   0.232E-01    0.344E-01
DAV:   4    -0.320055197180E+03    0.11669E-03   -0.82813E-04 35232   0.111E-01    0.142E-01
DAV:   5    -0.320055178723E+03    0.18457E-04   -0.17679E-04 34352   0.492E-02    0.131E-01
DAV:   6    -0.320055148922E+03    0.29800E-04   -0.21489E-04 33952   0.540E-02    0.970E-02
DAV:   7    -0.320055147583E+03    0.13390E-05   -0.15851E-04 32728   0.472E-02    0.857E-02
DAV:   8    -0.320055142826E+03    0.47570E-05   -0.39809E-05 26440   0.273E-02
  94 F= -.32005514E+03 E0= -.32005038E+03  d E =0.615050E-03  mag=    44.0000
       N       E                     dE             d eps       ncg     rms          rms(c)
DAV:   1    -0.320053380342E+03    0.17672E-02   -0.11534E-01 44016   0.177E+00    0.232E-01
DAV:   2    -0.320055923334E+03   -0.25430E-02   -0.25343E-02 34664   0.309E-01    0.225E-01
DAV:   3    -0.320056094599E+03   -0.17127E-03   -0.21774E-03 33696   0.138E-01    0.273E-01
DAV:   4    -0.320056009985E+03    0.84613E-04   -0.46559E-04 32816   0.700E-02    0.653E-02
DAV:   5    -0.320056010132E+03   -0.14661E-06   -0.43841E-05 26704   0.255E-02
  95 F= -.32005601E+03 E0= -.32005126E+03  d E =-.867306E-03  mag=    44.0000
