       N       E                     dE             d eps       ncg     rms          ort
DAV:   1     0.736008612454E+04    0.73601E+04   -0.35057E+05  9568   0.175E+03
DAV:   2     0.485901279935E+03   -0.68742E+04   -0.64476E+04  9568   0.512E+02
DAV:   3    -0.317894968453E+03   -0.80380E+03   -0.77944E+03  9568   0.195E+02
DAV:   4    -0.351030721503E+03   -0.33136E+02   -0.32711E+02  9568   0.384E+01
DAV:   5    -0.353310198482E+03   -0.22795E+01   -0.22539E+01  9568   0.767E+00
SDA:   6    -0.174847164642E+03    0.17846E+03   -0.22539E+01  9568   0.143E+04 0.000E+00
CGA:   7    -0.266474954332E+03   -0.91628E+02   -0.10878E+03  9568   0.621E+03 0.204E+03
CGA:   8    -0.281810834389E+03   -0.15336E+02   -0.10527E+02  9568   0.440E+03-0.183E+03
CGA:   9    -0.289083384694E+03   -0.72726E+01   -0.93478E+01  9568   0.177E+03-0.434E+02
CGA:  10    -0.292970623133E+03   -0.38872E+01   -0.15731E+01  9568   0.201E+03 0.251E+03
CGA:  11    -0.296452496990E+03   -0.34819E+01   -0.23524E+01  9568   0.871E+02 0.747E+02
CGA:  12    -0.290003131959E+03    0.64494E+01   -0.31078E+01  9568   0.143E+04-0.430E+03
CGA:  13    -0.292380352597E+03   -0.23772E+01   -0.53300E+02  9568   0.378E+03 0.650E+01
CGA:  14    -0.298463850532E+03   -0.60835E+01   -0.56660E+01  9568   0.872E+02-0.767E+02
CGA:  15    -0.300044630796E+03   -0.15808E+01   -0.85097E+00  9568   0.930E+02 0.631E+02
CGA:  16    -0.302225347621E+03   -0.21807E+01   -0.23258E+01  9568   0.737E+02-0.190E+02
CGA:  17    -0.298893948033E+03    0.33314E+01   -0.10503E+01  9568   0.761E+03-0.326E+03
CGA:  18    -0.293795785355E+03    0.50982E+01   -0.32291E+02  9568   0.590E+03-0.654E+02
CGA:  19    -0.296996581189E+03   -0.32008E+01   -0.13225E+02  9568   0.367E+03-0.157E+03
CGA:  20    -0.302090757229E+03   -0.50942E+01   -0.97242E+01  9568   0.303E+03-0.376E+02
CGA:  21    -0.295588343721E+03    0.65024E+01   -0.13456E+02  9568   0.310E+03 0.366E+02
CGA:  22    -0.297337385746E+03   -0.17490E+01   -0.63299E+01  9568   0.103E+04-0.384E+03
CGA:  23    -0.295296914834E+03    0.20405E+01   -0.34389E+02  9568   0.440E+03-0.194E+03
CGA:  24    -0.293700334501E+03    0.15966E+01   -0.67471E+01  9568   0.888E+03-0.531E+03
CGA:  25    -0.294580927887E+03   -0.88059E+00   -0.18147E+02  9568   0.434E+03-0.217E+03
CGA:  26    -0.304040252076E+03   -0.94593E+01   -0.52090E+01  9568   0.643E+03-0.239E+03
CGA:  27    -0.300916032755E+03    0.31242E+01   -0.25980E+02  9568   0.458E+03-0.952E+02
CGA:  28    -0.297155116311E+03    0.37609E+01   -0.11022E+02  9568   0.425E+03 0.609E+02
CGA:  29    -0.297955274766E+03   -0.80016E+00   -0.13046E+02  9568   0.259E+03-0.148E+03
CGA:  30    -0.305880384545E+03   -0.79251E+01   -0.22388E+01  9568   0.153E+03 0.225E+03
CGA:  31    -0.302646591347E+03    0.32338E+01   -0.31834E+01  9568   0.100E+04-0.260E+03
CGA:  32    -0.295789199880E+03    0.68574E+01   -0.32972E+02  9568   0.536E+03-0.196E+03
CGA:  33    -0.303121122076E+03   -0.73319E+01   -0.55580E+01  9568   0.812E+03-0.593E+03
CGA:  34    -0.305331912943E+03   -0.22108E+01   -0.25347E+02  9568   0.211E+03-0.102E+03
CGA:  35    -0.302878065589E+03    0.24538E+01   -0.41072E+01  9568   0.654E+03-0.324E+03
CGA:  36    -0.305713802517E+03   -0.28357E+01   -0.17687E+02  9568   0.403E+03-0.175E+03
CGA:  37    -0.301873080169E+03    0.38407E+01   -0.69092E+01  9568   0.608E+03-0.212E+03
CGA:  38    -0.298858589856E+03    0.30145E+01   -0.16148E+02  9568   0.823E+03-0.197E+03
CGA:  39    -0.299264062805E+03   -0.40547E+00   -0.16389E+02  9568   0.130E+04 0.384E+03
CGA:  40    -0.297353133698E+03    0.19109E+01   -0.54591E+02  9568   0.125E+03-0.108E+02
CGA:  41    -0.302540433619E+03   -0.51873E+01   -0.16094E+01  9568   0.176E+03 0.244E+03
CGA:  42    -0.308142868407E+03   -0.56024E+01   -0.21988E+01  9568   0.734E+02 0.180E+03
CGA:  43    -0.309055293453E+03   -0.91243E+00   -0.55264E+00  9568   0.192E+02 0.416E+02
CGA:  44    -0.309299467053E+03   -0.24417E+00   -0.17507E+00  9568   0.582E+01 0.634E+01
CGA:  45    -0.309575415656E+03   -0.27595E+00   -0.24249E+00  9568   0.292E+02 0.235E+01
CGA:  46    -0.309723458030E+03   -0.14804E+00   -0.10803E+00  9568   0.338E+02-0.181E+02
CGA:  47    -0.309938856331E+03   -0.21540E+00   -0.44563E+00  9568   0.167E+02-0.139E+02
CGA:  48    -0.310132406325E+03   -0.19355E+00   -0.17007E+00  9568   0.478E+01 0.830E+00
CGA:  49    -0.310257658330E+03   -0.12525E+00   -0.11523E+00  9568   0.519E+01 0.183E+00
CGA:  50    -0.310397538282E+03   -0.13988E+00   -0.14263E+00  9568   0.968E+01 0.132E+00
CGA:  51    -0.310459325383E+03   -0.61787E-01   -0.31976E-01  9568   0.840E+01 0.918E+01
CGA:  52    -0.310547820709E+03   -0.88495E-01   -0.82823E-01  9568   0.169E+01 0.415E+00
CGA:  53    -0.310595639161E+03   -0.47818E-01   -0.48201E-01  9568   0.255E+01 0.498E-02
CGA:  54    -0.310673098205E+03   -0.77459E-01   -0.19849E+00  9568   0.190E+02-0.418E+01
CGA:  55    -0.310873584057E+03   -0.20049E+00   -0.29759E+00  9568   0.446E+01-0.354E+01
CGA:  56    -0.310916317614E+03   -0.42734E-01   -0.50071E-01  9568   0.196E+01-0.376E+00
CGA:  57    -0.310952686829E+03   -0.36369E-01   -0.35268E-01  9568   0.147E+01 0.211E-01
CGA:  58    -0.311036509959E+03   -0.83823E-01   -0.82507E-01  9568   0.277E+01 0.552E-01
CGA:  59    -0.311119321785E+03   -0.82812E-01   -0.64909E-01  9568   0.148E+01 0.684E+00
CGA:  60    -0.311150766653E+03   -0.31445E-01   -0.24010E-01  9568   0.934E+00 0.470E+00
CGA:  61    -0.311172564091E+03   -0.21797E-01   -0.20838E-01  9568   0.792E+00 0.341E-01
CGA:  62    -0.311196090435E+03   -0.23526E-01   -0.23893E-01  9568   0.213E+01 0.310E-01
CGA:  63    -0.311215297470E+03   -0.19207E-01   -0.10628E-01  9568   0.169E+01 0.177E+01
CGA:  64    -0.311234189931E+03   -0.18892E-01   -0.18110E-01  9568   0.431E+00 0.516E-01
CGA:  65    -0.311245333704E+03   -0.11144E-01   -0.11263E-01  9568   0.421E+00 0.490E-02
CGA:  66    -0.311267559076E+03   -0.22225E-01   -0.20316E-01  9568   0.440E+00 0.879E-01
CGA:  67    -0.311291627640E+03   -0.24069E-01   -0.23474E-01  9568   0.679E+00 0.345E-01
CGA:  68    -0.311312699782E+03   -0.21072E-01   -0.20702E-01  9568   0.797E+00-0.197E-01
CGA:  69    -0.311325103582E+03   -0.12404E-01   -0.10388E-01  9568   0.207E+00 0.113E+00
CGA:  70    -0.311328856111E+03   -0.37525E-02   -0.37481E-02  9568   0.275E+00-0.319E-02
CGA:  71    -0.311338393909E+03   -0.95378E-02   -0.95351E-02  9568   0.477E+00-0.235E-02
CGA:  72    -0.311344333080E+03   -0.59392E-02   -0.60438E-02  9568   0.295E+00-0.179E-02
CGA:  73    -0.311352324408E+03   -0.79913E-02   -0.80059E-02  9568   0.292E+00 0.555E-02
CGA:  74    -0.311356241492E+03   -0.39171E-02   -0.39063E-02  9568   0.141E+00-0.912E-03
CGA:  75    -0.311359641543E+03   -0.34001E-02   -0.34183E-02  9568   0.102E+00-0.360E-03
CGA:  76    -0.311361334030E+03   -0.16925E-02   -0.17296E-02  9568   0.850E-01-0.235E-02
CGA:  77    -0.311363936073E+03   -0.26020E-02   -0.25685E-02  9568   0.807E-01 0.470E-02
CGA:  78    -0.311366287254E+03   -0.23512E-02   -0.23531E-02  9568   0.948E-01 0.119E-02
CGA:  79    -0.311368418317E+03   -0.21311E-02   -0.21377E-02  9568   0.483E-01-0.703E-03
CGA:  80    -0.311369668812E+03   -0.12505E-02   -0.12542E-02  9568   0.222E-01 0.223E-03
CGA:  81    -0.311370446653E+03   -0.77784E-03   -0.77233E-03  9568   0.396E-01 0.164E-03
CGA:  82    -0.311371706672E+03   -0.12600E-02   -0.12564E-02  9568   0.218E-01 0.398E-03
CGA:  83    -0.311372585676E+03   -0.87900E-03   -0.87233E-03  9568   0.158E-01 0.364E-03
CGA:  84    -0.311373361797E+03   -0.77612E-03   -0.76711E-03  9568   0.125E-01 0.383E-03
CGA:  85    -0.311373830361E+03   -0.46856E-03   -0.46764E-03  9568   0.124E-01 0.577E-04
CGA:  86    -0.311374120816E+03   -0.29045E-03   -0.29128E-03  9568   0.717E-02-0.138E-04
CGA:  87    -0.311374413905E+03   -0.29309E-03   -0.29318E-03  9568   0.608E-02-0.242E-04
CGA:  88    -0.311374752319E+03   -0.33841E-03   -0.33613E-03  9568   0.466E-02 0.799E-04
CGA:  89    -0.311374927139E+03   -0.17482E-03   -0.17479E-03  9568   0.286E-02-0.144E-04
CGA:  90    -0.311375010130E+03   -0.82992E-04   -0.82959E-04  9568   0.283E-02-0.172E-04
CGA:  91    -0.311375103548E+03   -0.93418E-04   -0.93420E-04  9568   0.218E-02-0.156E-04
CGA:  92    -0.311375201793E+03   -0.98245E-04   -0.98837E-04  9568   0.145E-02-0.413E-04
CGA:  93    -0.311375262549E+03   -0.60756E-04   -0.60900E-04  9568   0.123E-02-0.167E-04
SDA:  94    -0.311375301844E+03   -0.39295E-04   -0.39279E-04  9568   0.138E-02-0.179E-04
CGA:  95    -0.311375317989E+03   -0.16145E-04   -0.16082E-04  9568   0.247E-03-0.108E-05
CGA:  96    -0.311375333131E+03   -0.15142E-04   -0.15011E-04  9568   0.296E-03 0.361E-05
CGA:  97    -0.311375354280E+03   -0.21149E-04   -0.21073E-04  9568   0.736E-03 0.145E-05
CGA:  98    -0.311375405502E+03   -0.51222E-04   -0.51996E-04  9568   0.589E-03-0.230E-04
CGA:  99    -0.311375438905E+03   -0.33403E-04   -0.33144E-04  9568   0.592E-03 0.958E-05
CGA: 100    -0.311375450711E+03   -0.11806E-04   -0.11756E-04  9568   0.321E-03 0.121E-05
CGA: 101    -0.311375460651E+03   -0.99402E-05   -0.99338E-05  9568   0.867E-04-0.209E-05
   1 F= -.31137546E+03 E0= -.31135454E+03  d E =-.311375E+03  mag=    25.8350
       N       E                     dE             d eps       ncg     rms          ort
SDA:   1    -0.311374849935E+03    0.60078E-03    0.00000E+00  9568   0.984E+00 0.000E+00
CGA:   2    -0.311384908139E+03   -0.10058E-01   -0.11270E-01  9568   0.654E-01-0.847E-01
CGA:   3    -0.311385772235E+03   -0.86410E-03   -0.85526E-03  9568   0.866E-02 0.406E-03
CGA:   4    -0.311386090194E+03   -0.31796E-03   -0.31796E-03  9568   0.359E-02-0.101E-04
CGA:   5    -0.311386320526E+03   -0.23033E-03   -0.23050E-03  9568   0.878E-02-0.489E-05
CGA:   6    -0.311386536812E+03   -0.21629E-03   -0.21670E-03  9568   0.436E-02 0.234E-05
CGA:   7    -0.311386670971E+03   -0.13416E-03   -0.13397E-03  9568   0.232E-02-0.918E-05
CGA:   8    -0.311386749983E+03   -0.79012E-04   -0.79044E-04  9568   0.113E-02 0.651E-05
CGA:   9    -0.311386794174E+03   -0.44191E-04   -0.44198E-04  9568   0.126E-02-0.219E-05
CGA:  10    -0.311386819952E+03   -0.25778E-04   -0.25817E-04  9568   0.512E-03 0.135E-05
CGA:  11    -0.311386847774E+03   -0.27822E-04   -0.27823E-04  9568   0.370E-03 0.910E-08
CGA:  12    -0.311386861049E+03   -0.13276E-04   -0.13275E-04  9568   0.293E-03-0.853E-06
CGA:  13    -0.311386867402E+03   -0.63530E-05   -0.63266E-05  9568   0.121E-03-0.170E-05
   2 F= -.31138687E+03 E0= -.31136593E+03  d E =-.114068E-01  mag=    25.8373
       N       E                     dE             d eps       ncg     rms          ort
SDA:   1    -0.310627040088E+03    0.75982E+00    0.00000E+00  9568   0.199E+02 0.000E+00
CGA:   2    -0.310859297417E+03   -0.23226E+00   -0.21549E+00  9568   0.297E+01 0.627E+00
CGA:   3    -0.311005708464E+03   -0.14641E+00   -0.15128E+00  9568   0.886E+01-0.257E+00
CGA:   4    -0.311297995212E+03   -0.29229E+00   -0.29199E+00  9568   0.105E+02 0.176E+00
CGA:   5    -0.311479655146E+03   -0.18166E+00   -0.16762E+00  9568   0.139E+01 0.534E+00
CGA:   6    -0.311523752161E+03   -0.44097E-01   -0.43478E-01  9568   0.221E+01-0.465E-01
CGA:   7    -0.311565589419E+03   -0.41837E-01   -0.41536E-01  9568   0.120E+01 0.884E-02
CGA:   8    -0.311589385508E+03   -0.23796E-01   -0.24077E-01  9568   0.163E+01-0.382E-02
CGA:   9    -0.311634846700E+03   -0.45461E-01   -0.45564E-01  9568   0.109E+01 0.739E-02
CGA:  10    -0.311649612968E+03   -0.14766E-01   -0.14399E-01  9568   0.532E+00 0.179E-01
CGA:  11    -0.311660692002E+03   -0.11079E-01   -0.10981E-01  9568   0.256E+00 0.280E-03
CGA:  12    -0.311663893971E+03   -0.32020E-02   -0.31732E-02  9568   0.136E+00 0.155E-02
CGA:  13    -0.311668589032E+03   -0.46951E-02   -0.47055E-02  9568   0.250E+00-0.148E-02
CGA:  14    -0.311672826015E+03   -0.42370E-02   -0.42358E-02  9568   0.169E+00-0.301E-04
CGA:  15    -0.311675546885E+03   -0.27209E-02   -0.27520E-02  9568   0.871E-01-0.703E-03
CGA:  16    -0.311676966518E+03   -0.14196E-02   -0.14316E-02  9568   0.730E-01-0.245E-03
CGA:  17    -0.311678606733E+03   -0.16402E-02   -0.16265E-02  9568   0.376E-01-0.541E-03
CGA:  18    -0.311679024447E+03   -0.41771E-03   -0.41279E-03  9568   0.171E-01 0.288E-03
CGA:  19    -0.311679694130E+03   -0.66968E-03   -0.66951E-03  9568   0.467E-01 0.880E-05
CGA:  20    -0.311680469219E+03   -0.77509E-03   -0.78309E-03  9568   0.222E-01-0.818E-04
CGA:  21    -0.311680948854E+03   -0.47963E-03   -0.47996E-03  9568   0.309E-01 0.356E-04
CGA:  22    -0.311681524866E+03   -0.57601E-03   -0.57632E-03  9568   0.111E-01 0.260E-04
CGA:  23    -0.311681681741E+03   -0.15688E-03   -0.15678E-03  9568   0.901E-02 0.702E-05
CGA:  24    -0.311681954356E+03   -0.27262E-03   -0.27235E-03  9568   0.889E-02 0.405E-04
CGA:  25    -0.311682063217E+03   -0.10886E-03   -0.10942E-03  9568   0.419E-02-0.685E-05
CGA:  26    -0.311682219949E+03   -0.15673E-03   -0.15668E-03  9568   0.953E-02 0.606E-05
CGA:  27    -0.311682385614E+03   -0.16567E-03   -0.16554E-03  9568   0.603E-02 0.101E-04
CGA:  28    -0.311682537071E+03   -0.15146E-03   -0.15147E-03  9568   0.781E-02 0.165E-04
CGA:  29    -0.311682664032E+03   -0.12696E-03   -0.12750E-03  9568   0.379E-02 0.728E-05
CGA:  30    -0.311682737798E+03   -0.73766E-04   -0.73835E-04  9568   0.328E-02 0.477E-05
CGA:  31    -0.311682801648E+03   -0.63850E-04   -0.63732E-04  9568   0.319E-02-0.674E-05
SDA:  32    -0.311682888584E+03   -0.86936E-04   -0.86945E-04  9568   0.345E-02-0.234E-05
CGA:  33    -0.311682932903E+03   -0.44319E-04   -0.44431E-04  9568   0.106E-02 0.495E-06
CGA:  34    -0.311682980901E+03   -0.47998E-04   -0.47983E-04  9568   0.788E-03-0.401E-06
CGA:  35    -0.311683031743E+03   -0.50842E-04   -0.51103E-04  9568   0.170E-02-0.689E-05
CGA:  36    -0.311683110297E+03   -0.78553E-04   -0.78548E-04  9568   0.648E-03-0.197E-06
CGA:  37    -0.311683137882E+03   -0.27586E-04   -0.27549E-04  9568   0.335E-03 0.166E-05
CGA:  38    -0.311683155223E+03   -0.17340E-04   -0.17324E-04  9568   0.763E-03 0.281E-06
CGA:  39    -0.311683172519E+03   -0.17296E-04   -0.17334E-04  9568   0.291E-03 0.421E-05
CGA:  40    -0.311683199819E+03   -0.27300E-04   -0.26949E-04  9568   0.578E-03 0.482E-05
CGA:  41    -0.311683224136E+03   -0.24318E-04   -0.24299E-04  9568   0.481E-03 0.247E-05
CGA:  42    -0.311683241756E+03   -0.17620E-04   -0.17605E-04  9568   0.175E-03 0.404E-05
CGA:  43    -0.311683251906E+03   -0.10150E-04   -0.10187E-04  9568   0.588E-03-0.204E-05
CGA:  44    -0.311683267316E+03   -0.15410E-04   -0.15401E-04  9568   0.885E-04-0.159E-05
CGA:  45    -0.311683273697E+03   -0.63809E-05   -0.64252E-05  9568   0.114E-03-0.142E-05
   3 F= -.31168327E+03 E0= -.31166210E+03  d E =-.296406E+00  mag=    25.8393
       N       E                     dE             d eps       ncg     rms          ort
SDA:   1    -0.307067324514E+03    0.46159E+01    0.00000E+00  9568   0.428E+02 0.000E+00
CGA:   2    -0.307673594606E+03   -0.60627E+00   -0.79557E+00  9568   0.308E+02-0.472E+01
CGA:   3    -0.308952198797E+03   -0.12786E+01   -0.12841E+01  9568   0.530E+02-0.912E-01
CGA:   4    -0.310446787837E+03   -0.14946E+01   -0.15772E+01  9568   0.161E+02 0.478E+01
CGA:   5    -0.311130394697E+03   -0.68361E+00   -0.70926E+00  9568   0.103E+02-0.304E+01
CGA:   6    -0.311285450829E+03   -0.15506E+00   -0.13782E+00  9568   0.109E+02 0.556E+00
CGA:   7    -0.311622130289E+03   -0.33668E+00   -0.34523E+00  9568   0.718E+01 0.718E+00
CGA:   8    -0.311844316344E+03   -0.22219E+00   -0.21861E+00  9568   0.317E+01-0.206E+00
CGA:   9    -0.311990005936E+03   -0.14569E+00   -0.14970E+00  9568   0.161E+01-0.225E+00
CGA:  10    -0.312034393327E+03   -0.44387E-01   -0.44634E-01  9568   0.209E+01 0.176E-01
CGA:  11    -0.312072421533E+03   -0.38028E-01   -0.40750E-01  9568   0.659E+00-0.473E-01
CGA:  12    -0.312100939497E+03   -0.28518E-01   -0.28562E-01  9568   0.461E+00-0.303E-02
CGA:  13    -0.312110400585E+03   -0.94611E-02   -0.96584E-02  9568   0.397E+00-0.166E-02
CGA:  14    -0.312123504497E+03   -0.13104E-01   -0.13104E-01  9568   0.214E+00 0.121E-02
CGA:  15    -0.312129121759E+03   -0.56173E-02   -0.56756E-02  9568   0.160E+00 0.200E-02
CGA:  16    -0.312135261810E+03   -0.61401E-02   -0.61484E-02  9568   0.148E+00-0.105E-02
CGA:  17    -0.312138219137E+03   -0.29573E-02   -0.30834E-02  9568   0.865E-01-0.554E-03
CGA:  18    -0.312142467588E+03   -0.42485E-02   -0.43528E-02  9568   0.772E-01-0.497E-02
CGA:  19    -0.312143990256E+03   -0.15227E-02   -0.15637E-02  9568   0.552E-01-0.944E-04
CGA:  20    -0.312146297715E+03   -0.23075E-02   -0.23129E-02  9568   0.407E-01-0.430E-03
CGA:  21    -0.312147327193E+03   -0.10295E-02   -0.10346E-02  9568   0.318E-01 0.167E-03
CGA:  22    -0.312148694283E+03   -0.13671E-02   -0.13762E-02  9568   0.393E-01-0.657E-03
CGA:  23    -0.312149677402E+03   -0.98312E-03   -0.99553E-03  9568   0.201E-01 0.381E-03
CGA:  24    -0.312150624830E+03   -0.94743E-03   -0.94936E-03  9568   0.270E-01-0.119E-03
CGA:  25    -0.312151170358E+03   -0.54553E-03   -0.54911E-03  9568   0.965E-02-0.117E-04
CGA:  26    -0.312151733014E+03   -0.56266E-03   -0.56405E-03  9568   0.169E-01-0.481E-04
CGA:  27    -0.312152145037E+03   -0.41202E-03   -0.41293E-03  9568   0.914E-02 0.234E-04
CGA:  28    -0.312152452581E+03   -0.30754E-03   -0.30755E-03  9568   0.757E-02 0.120E-04
CGA:  29    -0.312152681422E+03   -0.22884E-03   -0.22907E-03  9568   0.477E-02 0.307E-04
CGA:  30    -0.312152833618E+03   -0.15220E-03   -0.15218E-03  9568   0.465E-02-0.144E-05
CGA:  31    -0.312152974969E+03   -0.14135E-03   -0.14139E-03  9568   0.327E-02 0.108E-04
SDA:  32    -0.312153120204E+03   -0.14523E-03   -0.14516E-03  9568   0.316E-02 0.523E-05
CGA:  33    -0.312153155515E+03   -0.35311E-04   -0.35345E-04  9568   0.660E-03 0.281E-05
CGA:  34    -0.312153196476E+03   -0.40961E-04   -0.40967E-04  9568   0.868E-03-0.785E-06
CGA:  35    -0.312153351679E+03   -0.15520E-03   -0.10066E-05  9568   0.214E-02-0.170E-03
CGA:  36    -0.312153383344E+03   -0.31666E-04   -0.31711E-04  9568   0.554E-03 0.973E-06
CGA:  37    -0.312153403558E+03   -0.20214E-04   -0.20221E-04  9568   0.493E-03-0.129E-05
CGA:  38    -0.312153422382E+03   -0.18824E-04   -0.18765E-04  9568   0.759E-03-0.233E-05
CGA:  39    -0.312153468925E+03   -0.46543E-04   -0.46563E-04  9568   0.928E-03-0.622E-05
CGA:  40    -0.312153493366E+03   -0.24441E-04   -0.24361E-04  9568   0.501E-03-0.349E-05
CGA:  41    -0.312153505457E+03   -0.12091E-04   -0.12022E-04  9568   0.163E-03-0.191E-05
CGA:  42    -0.312153512329E+03   -0.68721E-05   -0.68724E-05  9568   0.265E-03-0.175E-06
   4 F= -.31215351E+03 E0= -.31213192E+03  d E =-.470239E+00  mag=    25.8442
       N       E                     dE             d eps       ncg     rms          ort
SDA:   1    -0.302736729895E+03    0.94168E+01    0.00000E+00  9568   0.303E+03 0.000E+00
CGA:   2    -0.303345248951E+03   -0.60852E+00   -0.76292E+01  9568   0.201E+03-0.495E+02
CGA:   3    -0.304595836265E+03   -0.12506E+01   -0.40476E+01  9568   0.257E+03-0.701E+02
CGA:   4    -0.302812488369E+03    0.17833E+01   -0.24243E+01  9568   0.471E+03-0.273E+03
CGA:   5    -0.304742020438E+03   -0.19295E+01   -0.90374E+01  9568   0.285E+03-0.240E+03
CGA:   6    -0.307161319461E+03   -0.24193E+01   -0.49386E+01  9568   0.127E+03-0.129E+03
CGA:   7    -0.308005768066E+03   -0.84445E+00   -0.18236E+01  9568   0.222E+03 0.106E+01
CGA:   8    -0.305950203800E+03    0.20556E+01   -0.26221E+01  9568   0.532E+03-0.396E+03
CGA:   9    -0.303891334018E+03    0.20589E+01   -0.10011E+02  9568   0.463E+03-0.144E+03
CGA:  10    -0.307306112921E+03   -0.34148E+01   -0.74019E+01  9568   0.275E+03-0.311E+02
CGA:  11    -0.307901632462E+03   -0.59552E+00   -0.40344E+01  9568   0.185E+03-0.134E+03
CGA:  12    -0.309994092548E+03   -0.20925E+01   -0.92208E+00  9568   0.908E+02 0.109E+03
CGA:  13    -0.310920357367E+03   -0.92626E+00   -0.89284E+00  9568   0.795E+01-0.783E+01
CGA:  14    -0.311097163347E+03   -0.17681E+00   -0.16187E+00  9568   0.502E+01 0.141E+00
CGA:  15    -0.311477479949E+03   -0.38032E+00   -0.39690E+00  9568   0.158E+02-0.399E+00
CGA:  16    -0.312014533476E+03   -0.53705E+00   -0.53836E+00  9568   0.180E+02 0.498E+00
CGA:  17    -0.312220464503E+03   -0.20593E+00   -0.22186E+00  9568   0.358E+01-0.158E+01
CGA:  18    -0.312284140261E+03   -0.63676E-01   -0.64676E-01  9568   0.974E+00-0.272E-01
CGA:  19    -0.312308500769E+03   -0.24361E-01   -0.24143E-01  9568   0.136E+01-0.128E-02
CGA:  20    -0.312348293593E+03   -0.39793E-01   -0.39846E-01  9568   0.918E+00 0.231E-02
CGA:  21    -0.312377653880E+03   -0.29360E-01   -0.29181E-01  9568   0.972E+00-0.213E-01
CGA:  22    -0.312393343318E+03   -0.15689E-01   -0.15670E-01  9568   0.437E+00 0.600E-03
CGA:  23    -0.312405740509E+03   -0.12397E-01   -0.12358E-01  9568   0.388E+00-0.202E-02
CGA:  24    -0.312417428787E+03   -0.11688E-01   -0.11671E-01  9568   0.482E+00-0.195E-02
CGA:  25    -0.312427101052E+03   -0.96723E-02   -0.97917E-02  9568   0.309E+00-0.132E-02
CGA:  26    -0.312437065208E+03   -0.99642E-02   -0.99668E-02  9568   0.192E+00 0.278E-02
CGA:  27    -0.312440551253E+03   -0.34860E-02   -0.35614E-02  9568   0.145E+00-0.143E-02
CGA:  28    -0.312444926140E+03   -0.43749E-02   -0.43717E-02  9568   0.106E+00-0.773E-03
CGA:  29    -0.312448141862E+03   -0.32157E-02   -0.32186E-02  9568   0.121E+00 0.798E-03
CGA:  30    -0.312451003010E+03   -0.28611E-02   -0.28863E-02  9568   0.775E-01 0.529E-03
CGA:  31    -0.312453104715E+03   -0.21017E-02   -0.21090E-02  9568   0.533E-01 0.575E-03
CGA:  32    -0.312454643671E+03   -0.15390E-02   -0.15393E-02  9568   0.562E-01 0.584E-04
CGA:  33    -0.312456027966E+03   -0.13843E-02   -0.13915E-02  9568   0.303E-01 0.263E-03
CGA:  34    -0.312456918159E+03   -0.89019E-03   -0.89022E-03  9568   0.205E-01 0.147E-04
CGA:  35    -0.312457379538E+03   -0.46138E-03   -0.46347E-03  9568   0.178E-01 0.382E-04
CGA:  36    -0.312458294133E+03   -0.91459E-03   -0.90369E-03  9568   0.262E-01 0.479E-03
CGA:  37    -0.312459010815E+03   -0.71668E-03   -0.71800E-03  9568   0.171E-01 0.968E-04
CGA:  38    -0.312459345018E+03   -0.33420E-03   -0.33404E-03  9568   0.672E-02 0.114E-04
CGA:  39    -0.312459577830E+03   -0.23281E-03   -0.23270E-03  9568   0.723E-02 0.167E-04
CGA:  40    -0.312459828527E+03   -0.25070E-03   -0.25052E-03  9568   0.915E-02 0.332E-04
CGA:  41    -0.312460066862E+03   -0.23833E-03   -0.23856E-03  9568   0.476E-02 0.217E-04
CGA:  42    -0.312460238510E+03   -0.17165E-03   -0.17111E-03  9568   0.534E-02 0.702E-04
SDA:  43    -0.312460384295E+03   -0.14578E-03   -0.14586E-03  9568   0.480E-02 0.868E-05
CGA:  44    -0.312460446516E+03   -0.62221E-04   -0.62339E-04  9568   0.219E-02-0.357E-05
CGA:  45    -0.312460540724E+03   -0.94208E-04   -0.94304E-04  9568   0.173E-02-0.795E-05
CGA:  46    -0.312460606955E+03   -0.66231E-04   -0.66326E-04  9568   0.196E-02-0.105E-04
CGA:  47    -0.312460712281E+03   -0.10533E-03   -0.10535E-03  9568   0.114E-02-0.178E-05
CGA:  48    -0.312460802654E+03   -0.90373E-04   -0.90142E-04  9568   0.227E-02 0.508E-05
CGA:  49    -0.312460846616E+03   -0.43962E-04   -0.43904E-04  9568   0.181E-02-0.634E-07
CGA:  50    -0.312460914916E+03   -0.68300E-04   -0.68326E-04  9568   0.856E-03-0.521E-05
CGA:  51    -0.312460985277E+03   -0.70361E-04   -0.70086E-04  9568   0.978E-03 0.536E-05
CGA:  52    -0.312461061228E+03   -0.75952E-04   -0.76042E-04  9568   0.120E-02-0.260E-05
CGA:  53    -0.312461091460E+03   -0.30232E-04   -0.30271E-04  9568   0.905E-03-0.915E-06
CGA:  54    -0.312461121964E+03   -0.30504E-04   -0.30479E-04  9568   0.143E-02-0.302E-05
CGA:  55    -0.312461162592E+03   -0.40627E-04   -0.40804E-04  9568   0.822E-03 0.121E-05
CGA:  56    -0.312461230071E+03   -0.67480E-04   -0.68111E-04  9568   0.522E-03-0.148E-04
CGA:  57    -0.312461275154E+03   -0.45083E-04   -0.45564E-04  9568   0.186E-02-0.107E-04
CGA:  58    -0.312461305255E+03   -0.30101E-04   -0.31450E-04  9568   0.604E-03-0.502E-04
CGA:  59    -0.312461336576E+03   -0.31321E-04   -0.31427E-04  9568   0.617E-03-0.574E-05
CGA:  60    -0.312461366909E+03   -0.30334E-04   -0.30207E-04  9568   0.858E-03 0.113E-04
CGA:  61    -0.312461390804E+03   -0.23895E-04   -0.23735E-04  9568   0.780E-03 0.319E-05
CGA:  62    -0.312461412685E+03   -0.21881E-04   -0.22151E-04  9568   0.658E-03 0.205E-05
CGA:  63    -0.312461434900E+03   -0.22215E-04   -0.22148E-04  9568   0.281E-03-0.194E-05
CGA:  64    -0.312461475794E+03   -0.40893E-04   -0.39347E-04  9568   0.119E-02 0.180E-04
CGA:  65    -0.312461495091E+03   -0.19298E-04   -0.18284E-04  9568   0.299E-03 0.536E-04
CGA:  66    -0.312461509584E+03   -0.14493E-04   -0.14477E-04  9568   0.362E-03 0.323E-05
CGA:  67    -0.312461527516E+03   -0.17932E-04   -0.17948E-04  9568   0.403E-03-0.117E-05
CGA:  68    -0.312461540369E+03   -0.12853E-04   -0.12926E-04  9568   0.268E-03 0.240E-05
CGA:  69    -0.312461546051E+03   -0.56826E-05   -0.56822E-05  9568   0.201E-03 0.258E-05
   5 F= -.31246155E+03 E0= -.31243944E+03  d E =-.308034E+00  mag=    25.8561
       N       E                     dE             d eps       ncg     rms          ort
SDA:   1    -0.296542519568E+03    0.15919E+02    0.00000E+00  9568   0.420E+03 0.000E+00
CGA:   2    -0.298346419067E+03   -0.18039E+01   -0.80748E+01  9568   0.244E+03-0.103E+03
CGA:   3    -0.301677491466E+03   -0.33311E+01   -0.40471E+01  9568   0.195E+03-0.515E+02
CGA:   4    -0.302662470156E+03   -0.98498E+00   -0.20218E+01  9568   0.292E+03-0.965E+02
CGA:   5    -0.306272117486E+03   -0.36096E+01   -0.26020E+01  9568   0.672E+02-0.363E+01
CGA:   6    -0.308503084500E+03   -0.22310E+01   -0.22865E+01  9568   0.248E+02 0.760E+01
CGA:   7    -0.309215928997E+03   -0.71284E+00   -0.43824E+00  9568   0.171E+02 0.126E+02
CGA:   8    -0.309590833874E+03   -0.37490E+00   -0.33337E+00  9568   0.130E+02 0.825E+00
CGA:   9    -0.309945050063E+03   -0.35422E+00   -0.33884E+00  9568   0.275E+02-0.132E+00
CGA:  10    -0.310922532937E+03   -0.97748E+00   -0.98869E+00  9568   0.694E+02-0.450E+01
CGA:  11    -0.311832843738E+03   -0.91031E+00   -0.99187E+00  9568   0.285E+02-0.212E+01
CGA:  12    -0.312063040584E+03   -0.23020E+00   -0.31884E+00  9568   0.550E+01-0.562E+01
CGA:  13    -0.312211739139E+03   -0.14870E+00   -0.14917E+00  9568   0.276E+01-0.339E+00
CGA:  14    -0.312343302150E+03   -0.13156E+00   -0.13083E+00  9568   0.365E+01 0.381E-01
CGA:  15    -0.312443817053E+03   -0.10051E+00   -0.99966E-01  9568   0.316E+01-0.207E-01
CGA:  16    -0.312504377024E+03   -0.60560E-01   -0.61082E-01  9568   0.172E+01-0.969E-02
CGA:  17    -0.312529618517E+03   -0.25241E-01   -0.25352E-01  9568   0.548E+00-0.701E-02
CGA:  18    -0.312564759271E+03   -0.35141E-01   -0.35817E-01  9568   0.901E+00-0.208E-01
CGA:  19    -0.312590272179E+03   -0.25513E-01   -0.25477E-01  9568   0.109E+01-0.278E-02
CGA:  20    -0.312618445486E+03   -0.28173E-01   -0.28776E-01  9568   0.569E+00 0.208E-01
CGA:  21    -0.312626151142E+03   -0.77057E-02   -0.75607E-02  9568   0.156E+00 0.732E-02
CGA:  22    -0.312635435342E+03   -0.92842E-02   -0.91476E-02  9568   0.432E+00 0.501E-02
CGA:  23    -0.312646803469E+03   -0.11368E-01   -0.11248E-01  9568   0.197E+00-0.233E-02
CGA:  24    -0.312652291432E+03   -0.54880E-02   -0.55119E-02  9568   0.184E+00 0.169E-02
CGA:  25    -0.312655789278E+03   -0.34978E-02   -0.34818E-02  9568   0.641E-01 0.304E-03
CGA:  26    -0.312658118537E+03   -0.23293E-02   -0.23137E-02  9568   0.907E-01 0.237E-02
CGA:  27    -0.312661417973E+03   -0.32994E-02   -0.33018E-02  9568   0.690E-01-0.490E-03
CGA:  28    -0.312663049406E+03   -0.16314E-02   -0.16347E-02  9568   0.499E-01 0.433E-04
CGA:  29    -0.312664206779E+03   -0.11574E-02   -0.11501E-02  9568   0.275E-01-0.958E-04
CGA:  30    -0.312665766164E+03   -0.15594E-02   -0.15358E-02  9568   0.276E-01 0.892E-03
CGA:  31    -0.312666319130E+03   -0.55297E-03   -0.55252E-03  9568   0.196E-01 0.208E-04
CGA:  32    -0.312667099447E+03   -0.78032E-03   -0.77724E-03  9568   0.185E-01 0.290E-03
CGA:  33    -0.312667641811E+03   -0.54236E-03   -0.54182E-03  9568   0.155E-01-0.448E-04
CGA:  34    -0.312668307650E+03   -0.66584E-03   -0.66262E-03  9568   0.149E-01 0.234E-03
CGA:  35    -0.312668554824E+03   -0.24717E-03   -0.24649E-03  9568   0.572E-02 0.334E-04
CGA:  36    -0.312668919636E+03   -0.36481E-03   -0.36300E-03  9568   0.939E-02 0.577E-04
CGA:  37    -0.312669219265E+03   -0.29963E-03   -0.29946E-03  9568   0.106E-01-0.447E-04
SDA:  38    -0.312669461601E+03   -0.24234E-03   -0.24285E-03  9568   0.392E-02 0.323E-06
CGA:  39    -0.312669544121E+03   -0.82520E-04   -0.82656E-04  9568   0.327E-02 0.230E-05
CGA:  40    -0.312669636865E+03   -0.92744E-04   -0.92854E-04  9568   0.297E-02 0.150E-04
CGA:  41    -0.312669782419E+03   -0.14555E-03   -0.14567E-03  9568   0.387E-02-0.440E-05
CGA:  42    -0.312669925479E+03   -0.14306E-03   -0.14307E-03  9568   0.198E-02 0.170E-05
CGA:  43    -0.312670007656E+03   -0.82178E-04   -0.82250E-04  9568   0.132E-02-0.770E-05
CGA:  44    -0.312670033199E+03   -0.25543E-04   -0.25539E-04  9568   0.118E-02-0.297E-05
CGA:  45    -0.312670094492E+03   -0.61293E-04   -0.61617E-04  9568   0.691E-03-0.166E-04
CGA:  46    -0.312670133075E+03   -0.38583E-04   -0.38750E-04  9568   0.472E-03-0.761E-05
CGA:  47    -0.312670146609E+03   -0.13533E-04   -0.13518E-04  9568   0.936E-03-0.238E-05
CGA:  48    -0.312670227076E+03   -0.80467E-04   -0.78879E-04  9568   0.982E-03 0.342E-04
CGA:  49    -0.312670251184E+03   -0.24108E-04   -0.24040E-04  9568   0.483E-03 0.246E-05
CGA:  50    -0.312670281777E+03   -0.30593E-04   -0.30468E-04  9568   0.505E-03 0.426E-05
CGA:  51    -0.312670292467E+03   -0.10690E-04   -0.10656E-04  9568   0.538E-03-0.409E-06
CGA:  52    -0.312670322554E+03   -0.30087E-04   -0.30008E-04  9568   0.171E-03 0.309E-05
CGA:  53    -0.312670333936E+03   -0.11382E-04   -0.11391E-04  9568   0.290E-03-0.459E-06
CGA:  54    -0.312670350444E+03   -0.16508E-04   -0.16550E-04  9568   0.337E-03-0.224E-05
CGA:  55    -0.312670356774E+03   -0.63295E-05   -0.62890E-05  9568   0.109E-03-0.965E-06
   6 F= -.31267036E+03 E0= -.31264795E+03  d E =-.208811E+00  mag=    25.8660
       N       E                     dE             d eps       ncg     rms          ort
SDA:   1    -0.300766632968E+03    0.11904E+02    0.00000E+00  9568   0.569E+02 0.000E+00
CGA:   2    -0.302649607188E+03   -0.18830E+01   -0.18421E+01  9568   0.810E+02-0.294E+01
CGA:   3    -0.305087829534E+03   -0.24382E+01   -0.24455E+01  9568   0.123E+03-0.189E-01
CGA:   4    -0.308417501810E+03   -0.33297E+01   -0.37011E+01  9568   0.411E+02 0.146E+02
CGA:   5    -0.309853028181E+03   -0.14355E+01   -0.96794E+00  9568   0.207E+02 0.114E+02
CGA:   6    -0.310283624520E+03   -0.43060E+00   -0.44796E+00  9568   0.265E+02-0.120E+01
CGA:   7    -0.310653849142E+03   -0.37022E+00   -0.32975E+00  9568   0.398E+02 0.201E+01
CGA:   8    -0.311324494395E+03   -0.67065E+00   -0.59964E+00  9568   0.355E+02 0.327E+01
CGA:   9    -0.311601196644E+03   -0.27670E+00   -0.27654E+00  9568   0.278E+02-0.926E+00
CGA:  10    -0.311879643053E+03   -0.27845E+00   -0.37904E+00  9568   0.320E+02-0.419E+01
CGA:  11    -0.312076320818E+03   -0.19668E+00   -0.22593E+00  9568   0.135E+02-0.265E+01
CGA:  12    -0.312224201838E+03   -0.14788E+00   -0.14612E+00  9568   0.107E+02-0.370E-01
CGA:  13    -0.312320957316E+03   -0.96755E-01   -0.90533E-01  9568   0.431E+01 0.524E+00
CGA:  14    -0.312360688712E+03   -0.39731E-01   -0.38269E-01  9568   0.313E+01 0.121E+00
CGA:  15    -0.312412826424E+03   -0.52138E-01   -0.50934E-01  9568   0.469E+01 0.263E-01
CGA:  16    -0.312453922005E+03   -0.41096E-01   -0.33479E-01  9568   0.433E+01 0.897E+00
CGA:  17    -0.312518188959E+03   -0.64267E-01   -0.64674E-01  9568   0.917E+01-0.238E-01
CGA:  18    -0.312593519514E+03   -0.75331E-01   -0.73933E-01  9568   0.811E+01 0.109E+00
CGA:  19    -0.312630529387E+03   -0.37010E-01   -0.44578E-01  9568   0.233E+01-0.118E+01
CGA:  20    -0.312640829878E+03   -0.10300E-01   -0.10574E-01  9568   0.131E+01-0.466E-01
CGA:  21    -0.312652062744E+03   -0.11233E-01   -0.11479E-01  9568   0.163E+01-0.197E-01
CGA:  22    -0.312665905212E+03   -0.13842E-01   -0.13843E-01  9568   0.117E+01-0.856E-03
CGA:  23    -0.312672987096E+03   -0.70819E-02   -0.71050E-02  9568   0.651E+00-0.400E-02
CGA:  24    -0.312678995402E+03   -0.60083E-02   -0.61135E-02  9568   0.848E+00-0.660E-02
CGA:  25    -0.312687816935E+03   -0.88215E-02   -0.88399E-02  9568   0.104E+01-0.938E-03
CGA:  26    -0.312697113221E+03   -0.92963E-02   -0.93994E-02  9568   0.112E+01-0.553E-02
CGA:  27    -0.312709817202E+03   -0.12704E-01   -0.12787E-01  9568   0.173E+01-0.164E-02
CGA:  28    -0.312726719997E+03   -0.16903E-01   -0.17170E-01  9568   0.125E+01-0.867E-02
CGA:  29    -0.312734166614E+03   -0.74466E-02   -0.74350E-02  9568   0.459E+00 0.277E-02
CGA:  30    -0.312737744398E+03   -0.35778E-02   -0.35688E-02  9568   0.355E+00 0.694E-03
CGA:  31    -0.312740992993E+03   -0.32486E-02   -0.31581E-02  9568   0.291E+00 0.458E-02
SDA:  32    -0.312743143771E+03   -0.21508E-02   -0.21580E-02  9568   0.200E+00-0.487E-03
CGA:  33    -0.312747209460E+03   -0.40657E-02   -0.40261E-02  9568   0.963E-01 0.667E-02
CGA:  34    -0.312751204658E+03   -0.39952E-02   -0.39533E-02  9568   0.198E+00 0.193E-02
CGA:  35    -0.312756823262E+03   -0.56186E-02   -0.55801E-02  9568   0.122E+00 0.324E-02
CGA:  36    -0.312760521960E+03   -0.36987E-02   -0.36898E-02  9568   0.401E-01 0.664E-03
CGA:  37    -0.312762695358E+03   -0.21734E-02   -0.21624E-02  9568   0.189E-01 0.363E-03
CGA:  38    -0.312763934151E+03   -0.12388E-02   -0.12332E-02  9568   0.448E-01 0.150E-03
CGA:  39    -0.312764600281E+03   -0.66613E-03   -0.66742E-03  9568   0.811E-02-0.929E-05
CGA:  40    -0.312764885464E+03   -0.28518E-03   -0.28561E-03  9568   0.878E-02-0.265E-04
CGA:  41    -0.312765341044E+03   -0.45558E-03   -0.45409E-03  9568   0.943E-02 0.536E-04
CGA:  42    -0.312765848376E+03   -0.50733E-03   -0.50537E-03  9568   0.126E-01 0.673E-04
CGA:  43    -0.312766038387E+03   -0.19001E-03   -0.19023E-03  9568   0.492E-02 0.107E-04
CGA:  44    -0.312766383754E+03   -0.34537E-03   -0.33881E-03  9568   0.610E-02 0.165E-03
CGA:  45    -0.312766693583E+03   -0.30983E-03   -0.30928E-03  9568   0.290E-02 0.246E-04
CGA:  46    -0.312766756589E+03   -0.63006E-04   -0.63043E-04  9568   0.341E-02 0.106E-05
CGA:  47    -0.312766926393E+03   -0.16980E-03   -0.16943E-03  9568   0.259E-02 0.160E-04
CGA:  48    -0.312767088043E+03   -0.16165E-03   -0.16070E-03  9568   0.248E-02 0.288E-04
CGA:  49    -0.312767140927E+03   -0.52884E-04   -0.52982E-04  9568   0.180E-02 0.684E-05
CGA:  50    -0.312767197238E+03   -0.56311E-04   -0.56306E-04  9568   0.169E-02 0.468E-05
CGA:  51    -0.312767249368E+03   -0.52130E-04   -0.52128E-04  9568   0.931E-03 0.488E-05
CGA:  52    -0.312767307279E+03   -0.57911E-04   -0.57499E-04  9568   0.110E-02 0.128E-04
CGA:  53    -0.312767329175E+03   -0.21895E-04   -0.21942E-04  9568   0.923E-03 0.343E-05
CGA:  54    -0.312767376830E+03   -0.47655E-04   -0.47596E-04  9568   0.812E-03 0.267E-05
CGA:  55    -0.312767413994E+03   -0.37165E-04   -0.37142E-04  9568   0.412E-03 0.119E-05
CGA:  56    -0.312767420604E+03   -0.66093E-05   -0.65828E-05  9568   0.247E-03-0.239E-05
CGA:  57    -0.312767438614E+03   -0.18011E-04   -0.18336E-04  9568   0.459E-03-0.797E-05
CGA:  58    -0.312767449556E+03   -0.10942E-04   -0.10902E-04  9568   0.133E-03-0.438E-05
CGA:  59    -0.312767455334E+03   -0.57777E-05   -0.57850E-05  9568   0.244E-03-0.109E-05
   7 F= -.31276746E+03 E0= -.31274500E+03  d E =-.970986E-01  mag=    25.8843
       N       E                     dE             d eps       ncg     rms          ort
SDA:   1    -0.291284158020E+03    0.21483E+02    0.00000E+00  9568   0.890E+02 0.000E+00
CGA:   2    -0.293680730197E+03   -0.23966E+01   -0.25259E+01  9568   0.141E+03 0.711E+01
CGA:   3    -0.302025234829E+03   -0.83445E+01   -0.81386E+01  9568   0.140E+03 0.186E+02
CGA:   4    -0.306572926969E+03   -0.45477E+01   -0.45788E+01  9568   0.800E+02-0.376E+01
CGA:   5    -0.308280576986E+03   -0.17077E+01   -0.17203E+01  9568   0.644E+02-0.121E+01
CGA:   6    -0.309833120552E+03   -0.15525E+01   -0.13584E+01  9568   0.252E+02 0.130E+01
CGA:   7    -0.310980509232E+03   -0.11474E+01   -0.11398E+01  9568   0.356E+02 0.593E+00
CGA:   8    -0.311744642131E+03   -0.76413E+00   -0.78439E+00  9568   0.169E+02-0.430E+00
CGA:   9    -0.312097006460E+03   -0.35236E+00   -0.30259E+00  9568   0.836E+01 0.138E+01
CGA:  10    -0.312307500610E+03   -0.21049E+00   -0.20015E+00  9568   0.365E+01-0.944E-01
CGA:  11    -0.312469080683E+03   -0.16158E+00   -0.16250E+00  9568   0.425E+01-0.493E-01
CGA:  12    -0.312594133204E+03   -0.12505E+00   -0.12533E+00  9568   0.427E+01 0.493E-01
CGA:  13    -0.312677571363E+03   -0.83438E-01   -0.84375E-01  9568   0.224E+01-0.197E-01
CGA:  14    -0.312715586694E+03   -0.38015E-01   -0.33803E-01  9568   0.447E+00 0.148E+00
CGA:  15    -0.312734154450E+03   -0.18568E-01   -0.18509E-01  9568   0.897E+00 0.531E-02
CGA:  16    -0.312760097020E+03   -0.25943E-01   -0.25762E-01  9568   0.742E+00-0.264E-01
CGA:  17    -0.312782161220E+03   -0.22064E-01   -0.22079E-01  9568   0.862E+00 0.208E-01
CGA:  18    -0.312801758740E+03   -0.19598E-01   -0.19175E-01  9568   0.278E+00-0.171E-02
CGA:  19    -0.312805173756E+03   -0.34150E-02   -0.35798E-02  9568   0.125E+00-0.807E-02
CGA:  20    -0.312813612423E+03   -0.84387E-02   -0.85514E-02  9568   0.245E+00-0.327E-02
CGA:  21    -0.312818366957E+03   -0.47545E-02   -0.48507E-02  9568   0.156E+00-0.298E-03
CGA:  22    -0.312823839881E+03   -0.54729E-02   -0.55425E-02  9568   0.193E+00-0.987E-02
CGA:  23    -0.312826762741E+03   -0.29229E-02   -0.31626E-02  9568   0.626E-01-0.430E-02
CGA:  24    -0.312830689034E+03   -0.39263E-02   -0.38647E-02  9568   0.751E-01 0.176E-02
CGA:  25    -0.312832081611E+03   -0.13926E-02   -0.14094E-02  9568   0.288E-01-0.260E-03
CGA:  26    -0.312833239644E+03   -0.11580E-02   -0.11621E-02  9568   0.643E-01-0.327E-03
CGA:  27    -0.312834832444E+03   -0.15928E-02   -0.16083E-02  9568   0.277E-01 0.613E-03
CGA:  28    -0.312836436124E+03   -0.16037E-02   -0.15893E-02  9568   0.191E-01 0.526E-03
CGA:  29    -0.312836935676E+03   -0.49955E-03   -0.49988E-03  9568   0.146E-01 0.172E-04
CGA:  30    -0.312837335847E+03   -0.40017E-03   -0.39981E-03  9568   0.146E-01-0.307E-04
CGA:  31    -0.312837716019E+03   -0.38017E-03   -0.38124E-03  9568   0.113E-01 0.371E-04
SDA:  32    -0.312838153243E+03   -0.43722E-03   -0.43696E-03  9568   0.524E-02 0.230E-04
CGA:  33    -0.312838334193E+03   -0.18095E-03   -0.18095E-03  9568   0.409E-02 0.121E-05
CGA:  34    -0.312838423657E+03   -0.89464E-04   -0.89463E-04  9568   0.471E-02 0.106E-05
CGA:  35    -0.312838648197E+03   -0.22454E-03   -0.22372E-03  9568   0.326E-02 0.443E-04
CGA:  36    -0.312838830494E+03   -0.18230E-03   -0.18213E-03  9568   0.380E-02 0.611E-05
CGA:  37    -0.312838974435E+03   -0.14394E-03   -0.14395E-03  9568   0.366E-02-0.116E-05
CGA:  38    -0.312839155475E+03   -0.18104E-03   -0.18024E-03  9568   0.108E-02 0.416E-04
CGA:  39    -0.312839190883E+03   -0.35408E-04   -0.35394E-04  9568   0.271E-02-0.520E-05
CGA:  40    -0.312839337136E+03   -0.14625E-03   -0.14602E-03  9568   0.137E-02 0.796E-05
CGA:  41    -0.312839436642E+03   -0.99506E-04   -0.98391E-04  9568   0.311E-02 0.306E-04
CGA:  42    -0.312839496182E+03   -0.59541E-04   -0.59010E-04  9568   0.238E-02 0.150E-04
CGA:  43    -0.312839604649E+03   -0.10847E-03   -0.10792E-03  9568   0.197E-02 0.457E-04
CGA:  44    -0.312839653566E+03   -0.48917E-04   -0.48819E-04  9568   0.965E-03 0.487E-05
CGA:  45    -0.312839689271E+03   -0.35705E-04   -0.35710E-04  9568   0.176E-02-0.432E-05
CGA:  46    -0.312839725465E+03   -0.36194E-04   -0.36630E-04  9568   0.787E-03-0.758E-05
CGA:  47    -0.312839791857E+03   -0.66392E-04   -0.66523E-04  9568   0.795E-03-0.253E-05
CGA:  48    -0.312839802977E+03   -0.11120E-04   -0.11002E-04  9568   0.443E-03-0.782E-06
CGA:  49    -0.312839828173E+03   -0.25197E-04   -0.25368E-04  9568   0.571E-03-0.869E-05
CGA:  50    -0.312839852230E+03   -0.24056E-04   -0.24072E-04  9568   0.509E-03-0.420E-05
CGA:  51    -0.312839859073E+03   -0.68430E-05   -0.68073E-05  9568   0.181E-03-0.141E-05
CGA:  52    -0.312839869337E+03   -0.10264E-04   -0.10192E-04  9568   0.479E-03 0.328E-05
CGA:  53    -0.312839896327E+03   -0.26990E-04   -0.26966E-04  9568   0.290E-03 0.248E-05
CGA:  54    -0.312839900689E+03   -0.43622E-05   -0.43627E-05  9568   0.190E-03 0.715E-06
   8 F= -.31283990E+03 E0= -.31281718E+03  d E =-.724454E-01  mag=    25.9025
       N       E                     dE             d eps       ncg     rms          ort
SDA:   1    -0.272859297547E+03    0.39981E+02    0.00000E+00  9568   0.369E+03 0.000E+00
CGA:   2    -0.282070884865E+03   -0.92116E+01   -0.10928E+02  9568   0.166E+03 0.612E+02
CGA:   3    -0.287822950003E+03   -0.57521E+01   -0.62806E+01  9568   0.166E+03 0.356E+02
CGA:   4    -0.295308580484E+03   -0.74856E+01   -0.74965E+01  9568   0.464E+03 0.294E+02
CGA:   5    -0.289158694317E+03    0.61499E+01   -0.70281E+01  9568   0.679E+03-0.347E+03
CGA:   6    -0.294496688643E+03   -0.53380E+01   -0.13727E+02  9568   0.676E+03-0.103E+03
CGA:   7    -0.302747153949E+03   -0.82505E+01   -0.12289E+02  9568   0.153E+03-0.359E+02
CGA:   8    -0.305224506238E+03   -0.24774E+01   -0.18033E+01  9568   0.660E+02 0.239E+02
CGA:   9    -0.306914434850E+03   -0.16899E+01   -0.10152E+01  9568   0.753E+02 0.296E+02
CGA:  10    -0.307363019469E+03   -0.44858E+00   -0.49664E+00  9568   0.379E+02-0.335E+02
CGA:  11    -0.307402363716E+03   -0.39344E-01   -0.47464E-01  9568   0.439E+02-0.392E+01
CGA:  12    -0.307436248065E+03   -0.33884E-01   -0.31841E+00  9568   0.145E+03-0.294E+02
CGA:  13    -0.308347759916E+03   -0.91151E+00   -0.16799E+01  9568   0.520E+02-0.519E+02
CGA:  14    -0.308972542955E+03   -0.62478E+00   -0.66492E+00  9568   0.163E+02 0.297E+00
CGA:  15    -0.309673830579E+03   -0.70129E+00   -0.75901E+00  9568   0.336E+02-0.257E+01
CGA:  16    -0.310935517351E+03   -0.12617E+01   -0.12238E+01  9568   0.822E+02 0.250E+01
CGA:  17    -0.312091786444E+03   -0.11563E+01   -0.12821E+01  9568   0.182E+02-0.780E+01
CGA:  18    -0.312306910390E+03   -0.21512E+00   -0.22018E+00  9568   0.263E+01-0.336E+00
CGA:  19    -0.312373262040E+03   -0.66352E-01   -0.65523E-01  9568   0.363E+01-0.153E+00
CGA:  20    -0.312503157944E+03   -0.12990E+00   -0.12806E+00  9568   0.402E+01 0.137E+00
CGA:  21    -0.312636846809E+03   -0.13369E+00   -0.13288E+00  9568   0.290E+01 0.132E+00
CGA:  22    -0.312675558883E+03   -0.38712E-01   -0.39446E-01  9568   0.886E+00-0.335E-01
CGA:  23    -0.312704782137E+03   -0.29223E-01   -0.29422E-01  9568   0.121E+01-0.218E-01
CGA:  24    -0.312740893868E+03   -0.36112E-01   -0.36023E-01  9568   0.175E+01 0.192E-01
CGA:  25    -0.312786367989E+03   -0.45474E-01   -0.45634E-01  9568   0.126E+01 0.302E-01
CGA:  26    -0.312813165597E+03   -0.26798E-01   -0.27131E-01  9568   0.517E+00 0.940E-02
CGA:  27    -0.312826208160E+03   -0.13043E-01   -0.13035E-01  9568   0.540E+00-0.121E-02
CGA:  28    -0.312838753490E+03   -0.12545E-01   -0.12644E-01  9568   0.254E+00 0.877E-02
CGA:  29    -0.312851167331E+03   -0.12414E-01   -0.12315E-01  9568   0.471E+00 0.445E-02
CGA:  30    -0.312860318111E+03   -0.91508E-02   -0.93014E-02  9568   0.215E+00 0.102E-02
CGA:  31    -0.312866086125E+03   -0.57680E-02   -0.57631E-02  9568   0.126E+00-0.233E-02
CGA:  32    -0.312869546156E+03   -0.34600E-02   -0.34599E-02  9568   0.115E+00 0.672E-03
CGA:  33    -0.312872484216E+03   -0.29381E-02   -0.29406E-02  9568   0.877E-01 0.474E-03
CGA:  34    -0.312874880286E+03   -0.23961E-02   -0.23973E-02  9568   0.495E-01 0.170E-02
CGA:  35    -0.312876948536E+03   -0.20682E-02   -0.20685E-02  9568   0.961E-01-0.219E-04
CGA:  36    -0.312879097757E+03   -0.21492E-02   -0.21519E-02  9568   0.229E-01 0.130E-03
CGA:  37    -0.312879741215E+03   -0.64346E-03   -0.64344E-03  9568   0.183E-01 0.436E-04
CGA:  38    -0.312880227636E+03   -0.48642E-03   -0.48669E-03  9568   0.182E-01 0.872E-04
CGA:  39    -0.312880868208E+03   -0.64057E-03   -0.64108E-03  9568   0.171E-01-0.520E-04
CGA:  40    -0.312881369335E+03   -0.50113E-03   -0.50093E-03  9568   0.107E-01 0.818E-04
CGA:  41    -0.312881636605E+03   -0.26727E-03   -0.26733E-03  9568   0.999E-02 0.425E-06
CGA:  42    -0.312881910046E+03   -0.27344E-03   -0.27349E-03  9568   0.443E-02 0.297E-04
SDA:  43    -0.312882117548E+03   -0.20750E-03   -0.20808E-03  9568   0.889E-02-0.308E-04
CGA:  44    -0.312882197989E+03   -0.80441E-04   -0.80349E-04  9568   0.103E-02 0.106E-04
CGA:  45    -0.312882298388E+03   -0.10040E-03   -0.10008E-03  9568   0.285E-02 0.395E-05
CGA:  46    -0.312882420293E+03   -0.12190E-03   -0.12168E-03  9568   0.341E-02 0.135E-04
CGA:  47    -0.312882622046E+03   -0.20175E-03   -0.20193E-03  9568   0.184E-02-0.714E-05
CGA:  48    -0.312882660850E+03   -0.38805E-04   -0.38906E-04  9568   0.200E-02 0.368E-06
CGA:  49    -0.312882735005E+03   -0.74155E-04   -0.74109E-04  9568   0.195E-02 0.681E-05
CGA:  50    -0.312882853416E+03   -0.11841E-03   -0.11849E-03  9568   0.107E-02-0.325E-05
CGA:  51    -0.312882886950E+03   -0.33534E-04   -0.33538E-04  9568   0.971E-03-0.367E-06
CGA:  52    -0.312882915683E+03   -0.28733E-04   -0.28750E-04  9568   0.115E-02 0.769E-06
CGA:  53    -0.312882945657E+03   -0.29974E-04   -0.29940E-04  9568   0.784E-03-0.324E-05
CGA:  54    -0.312882972321E+03   -0.26664E-04   -0.26665E-04  9568   0.268E-03-0.369E-05
CGA:  55    -0.312882998263E+03   -0.25942E-04   -0.26025E-04  9568   0.109E-02-0.170E-05
CGA:  56    -0.312883015309E+03   -0.17045E-04   -0.17056E-04  9568   0.262E-03-0.284E-06
CGA:  57    -0.312883028364E+03   -0.13056E-04   -0.13024E-04  9568   0.421E-03 0.186E-05
CGA:  58    -0.312883045561E+03   -0.17197E-04   -0.17182E-04  9568   0.248E-03 0.418E-05
CGA:  59    -0.312883059793E+03   -0.14231E-04   -0.14136E-04  9568   0.465E-03 0.428E-05
CGA:  60    -0.312883067490E+03   -0.76972E-05   -0.77049E-05  9568   0.206E-03 0.205E-05
CGA:  61    -0.312883084725E+03   -0.17235E-04   -0.17426E-04  9568   0.315E-03-0.423E-05
CGA:  62    -0.312883096846E+03   -0.12121E-04   -0.12122E-04  9568   0.342E-03-0.368E-05
CGA:  63    -0.312883107130E+03   -0.10285E-04   -0.10291E-04  9568   0.354E-03-0.236E-05
CGA:  64    -0.312883115152E+03   -0.80213E-05   -0.79374E-05  9568   0.254E-03-0.771E-06
CGA:  65    -0.312883129153E+03   -0.14002E-04   -0.14024E-04  9568   0.245E-03-0.167E-05
CGA:  66    -0.312883142504E+03   -0.13350E-04   -0.13377E-04  9568   0.384E-03-0.122E-05
CGA:  67    -0.312883152052E+03   -0.95482E-05   -0.97333E-05  9568   0.484E-03 0.131E-06
CGA:  68    -0.312883177813E+03   -0.25762E-04   -0.26223E-04  9568   0.502E-03-0.227E-04
CGA:  69    -0.312883189289E+03   -0.11476E-04   -0.11635E-04  9568   0.288E-03 0.174E-05
CGA:  70    -0.312883202623E+03   -0.13334E-04   -0.13411E-04  9568   0.730E-03-0.599E-05
CGA:  71    -0.312883230387E+03   -0.27764E-04   -0.27789E-04  9568   0.626E-03 0.498E-04
CGA:  72    -0.312883270119E+03   -0.39732E-04   -0.42868E-04  9568   0.918E-03-0.116E-03
CGA:  73    -0.312883285819E+03   -0.15700E-04   -0.17373E-04  9568   0.797E-03-0.185E-04
SDA:  74    -0.312883321857E+03   -0.36038E-04   -0.36772E-04  9568   0.885E-03-0.651E-04
CGA:  75    -0.312883333823E+03   -0.11966E-04   -0.11957E-04  9568   0.404E-03-0.571E-06
CGA:  76    -0.312883355191E+03   -0.21368E-04   -0.21358E-04  9568   0.575E-03 0.495E-06
CGA:  77    -0.312883387727E+03   -0.32536E-04   -0.32506E-04  9568   0.676E-03 0.149E-05
CGA:  78    -0.312883412194E+03   -0.24467E-04   -0.24474E-04  9568   0.555E-03 0.146E-05
CGA:  79    -0.312883436931E+03   -0.24737E-04   -0.24744E-04  9568   0.713E-03-0.174E-05
CGA:  80    -0.312883449807E+03   -0.12876E-04   -0.12830E-04  9568   0.397E-03 0.989E-08
CGA:  81    -0.312883493895E+03   -0.44088E-04   -0.44258E-04  9568   0.321E-03-0.195E-05
CGA:  82    -0.312883518538E+03   -0.24643E-04   -0.24699E-04  9568   0.358E-03-0.161E-05
CGA:  83    -0.312883536868E+03   -0.18330E-04   -0.18298E-04  9568   0.814E-03 0.298E-05
CGA:  84    -0.312883552399E+03   -0.15531E-04   -0.15428E-04  9568   0.216E-03 0.607E-05
CGA:  85    -0.312883591766E+03   -0.39367E-04   -0.38557E-04  9568   0.383E-03 0.590E-05
CGA:  86    -0.312883601560E+03   -0.97940E-05   -0.98043E-05  9568   0.362E-03 0.195E-05
CGA:  87    -0.312883612331E+03   -0.10771E-04   -0.10911E-04  9568   0.341E-03-0.390E-07
CGA:  88    -0.312883628502E+03   -0.16172E-04   -0.16170E-04  9568   0.335E-03-0.166E-05
CGA:  89    -0.312883639043E+03   -0.10541E-04   -0.10551E-04  9568   0.209E-03-0.306E-06
CGA:  90    -0.312883659328E+03   -0.20285E-04   -0.20510E-04  9568   0.498E-03-0.457E-05
CGA:  91    -0.312883667642E+03   -0.83138E-05   -0.87001E-05  9568   0.260E-03-0.148E-04
CGA:  92    -0.312883682242E+03   -0.14600E-04   -0.14657E-04  9568   0.139E-03-0.314E-05
CGA:  93    -0.312883688512E+03   -0.62700E-05   -0.62837E-05  9568   0.341E-03 0.254E-05
CGA:  94    -0.312883701042E+03   -0.12530E-04   -0.12416E-04  9568   0.295E-03 0.120E-05
CGA:  95    -0.312883714138E+03   -0.13096E-04   -0.13123E-04  9568   0.202E-03 0.434E-05
CGA:  96    -0.312883719474E+03   -0.53358E-05   -0.52639E-05  9568   0.212E-03 0.168E-05
CGA:  97    -0.312883731166E+03   -0.11691E-04   -0.11612E-04  9568   0.274E-03 0.604E-05
CGA:  98    -0.312883739609E+03   -0.84431E-05   -0.82855E-05  9568   0.208E-03 0.307E-06
   9 F= -.31288374E+03 E0= -.31286207E+03  d E =-.438389E-01  mag=    25.9265
       N       E                     dE             d eps       ncg     rms          ort
SDA:   1    -0.308870223274E+03    0.40135E+01    0.00000E+00  9568   0.293E+02 0.000E+00
CGA:   2    -0.309337575916E+03   -0.46735E+00   -0.51636E+00  9568   0.236E+02-0.245E+01
CGA:   3    -0.311038047515E+03   -0.17005E+01   -0.17742E+01  9568   0.287E+02-0.200E+01
CGA:   4    -0.311504781448E+03   -0.46673E+00   -0.55865E+00  9568   0.152E+02-0.292E+01
CGA:   5    -0.311830997463E+03   -0.32622E+00   -0.23217E+00  9568   0.559E+01 0.433E+01
CGA:   6    -0.312117721258E+03   -0.28672E+00   -0.28324E+00  9568   0.118E+02-0.329E+00
CGA:   7    -0.312395787424E+03   -0.27807E+00   -0.28388E+00  9568   0.125E+02-0.655E-01
CGA:   8    -0.312585414528E+03   -0.18963E+00   -0.22172E+00  9568   0.593E+01-0.115E+01
CGA:   9    -0.312667935058E+03   -0.82521E-01   -0.66072E-01  9568   0.305E+01 0.113E+01
CGA:  10    -0.312723300849E+03   -0.55366E-01   -0.54650E-01  9568   0.190E+01 0.759E-01
CGA:  11    -0.312761886600E+03   -0.38586E-01   -0.42156E-01  9568   0.181E+01-0.472E-01
CGA:  12    -0.312823470129E+03   -0.61584E-01   -0.61704E-01  9568   0.221E+01 0.173E-01
CGA:  13    -0.312861560169E+03   -0.38090E-01   -0.34777E-01  9568   0.113E+01 0.146E+00
CGA:  14    -0.312883387406E+03   -0.21827E-01   -0.23394E-01  9568   0.411E+00-0.295E-01
CGA:  15    -0.312889378162E+03   -0.59908E-02   -0.61117E-02  9568   0.256E+00-0.499E-02
CGA:  16    -0.312897791321E+03   -0.84132E-02   -0.84139E-02  9568   0.273E+00 0.252E-03
CGA:  17    -0.312907821062E+03   -0.10030E-01   -0.10045E-01  9568   0.509E+00-0.392E-02
CGA:  18    -0.312916924863E+03   -0.91038E-02   -0.94136E-02  9568   0.148E+00-0.608E-02
CGA:  19    -0.312920496213E+03   -0.35714E-02   -0.36086E-02  9568   0.128E+00 0.539E-03
CGA:  20    -0.312922650342E+03   -0.21541E-02   -0.21438E-02  9568   0.521E-01 0.318E-03
CGA:  21    -0.312924792082E+03   -0.21417E-02   -0.21466E-02  9568   0.671E-01-0.402E-03
CGA:  22    -0.312926250814E+03   -0.14587E-02   -0.14656E-02  9568   0.707E-01 0.537E-04
CGA:  23    -0.312928893326E+03   -0.26425E-02   -0.26444E-02  9568   0.362E-01-0.217E-03
CGA:  24    -0.312929743725E+03   -0.85040E-03   -0.85093E-03  9568   0.393E-01 0.553E-05
CGA:  25    -0.312930850790E+03   -0.11071E-02   -0.11099E-02  9568   0.261E-01 0.252E-03
CGA:  26    -0.312931655297E+03   -0.80451E-03   -0.80425E-03  9568   0.182E-01-0.787E-04
CGA:  27    -0.312932013410E+03   -0.35811E-03   -0.35676E-03  9568   0.119E-01 0.733E-05
CGA:  28    -0.312932393932E+03   -0.38052E-03   -0.38046E-03  9568   0.132E-01 0.381E-04
CGA:  29    -0.312932830281E+03   -0.43635E-03   -0.43648E-03  9568   0.906E-02-0.464E-04
CGA:  30    -0.312933017650E+03   -0.18737E-03   -0.18753E-03  9568   0.793E-02-0.366E-05
CGA:  31    -0.312933304756E+03   -0.28711E-03   -0.28687E-03  9568   0.662E-02 0.321E-04
SDA:  32    -0.312933555353E+03   -0.25060E-03   -0.25030E-03  9568   0.930E-02 0.379E-04
CGA:  33    -0.312933677157E+03   -0.12180E-03   -0.12173E-03  9568   0.278E-02 0.191E-05
CGA:  34    -0.312933787834E+03   -0.11068E-03   -0.11061E-03  9568   0.147E-02 0.650E-05
CGA:  35    -0.312933898673E+03   -0.11084E-03   -0.11045E-03  9568   0.282E-02 0.844E-05
CGA:  36    -0.312933994192E+03   -0.95519E-04   -0.95520E-04  9568   0.161E-02-0.145E-05
CGA:  37    -0.312934075338E+03   -0.81146E-04   -0.81029E-04  9568   0.117E-02 0.576E-05
CGA:  38    -0.312934119617E+03   -0.44279E-04   -0.44281E-04  9568   0.182E-02-0.130E-05
CGA:  39    -0.312934165059E+03   -0.45442E-04   -0.45375E-04  9568   0.715E-03-0.461E-05
CGA:  40    -0.312934208373E+03   -0.43313E-04   -0.43359E-04  9568   0.572E-03-0.225E-05
CGA:  41    -0.312934271422E+03   -0.63049E-04   -0.63279E-04  9568   0.604E-03-0.361E-05
CGA:  42    -0.312934295810E+03   -0.24388E-04   -0.24382E-04  9568   0.121E-02 0.307E-05
CGA:  43    -0.312934331187E+03   -0.35377E-04   -0.35407E-04  9568   0.485E-03 0.327E-05
CGA:  44    -0.312934365216E+03   -0.34029E-04   -0.33920E-04  9568   0.406E-03 0.338E-05
CGA:  45    -0.312934374078E+03   -0.88615E-05   -0.88805E-05  9568   0.190E-03 0.835E-06
CGA:  46    -0.312934387415E+03   -0.13337E-04   -0.13328E-04  9568   0.536E-03 0.591E-08
CGA:  47    -0.312934398265E+03   -0.10850E-04   -0.10811E-04  9568   0.843E-04-0.100E-05
CGA:  48    -0.312934411365E+03   -0.13100E-04   -0.13359E-04  9568   0.167E-03-0.230E-05
CGA:  49    -0.312934414571E+03   -0.32062E-05   -0.31860E-05  9568   0.755E-04-0.799E-06
  10 F= -.31293441E+03 E0= -.31291313E+03  d E =-.506750E-01  mag=    25.9147
       N       E                     dE             d eps       ncg     rms          ort
SDA:   1    -0.312796169161E+03    0.13824E+00    0.00000E+00  9568   0.106E+01 0.000E+00
CGA:   2    -0.312816487732E+03   -0.20319E-01   -0.19560E-01  9568   0.631E+00 0.242E-01
CGA:   3    -0.312857274254E+03   -0.40787E-01   -0.40485E-01  9568   0.150E+01 0.121E-01
CGA:   4    -0.312893465072E+03   -0.36191E-01   -0.36267E-01  9568   0.332E+00-0.169E-02
CGA:   5    -0.312910806853E+03   -0.17342E-01   -0.17321E-01  9568   0.230E+00 0.141E-02
CGA:   6    -0.312927009987E+03   -0.16203E-01   -0.16104E-01  9568   0.210E+00 0.324E-02
CGA:   7    -0.312933265860E+03   -0.62559E-02   -0.62595E-02  9568   0.183E+00-0.827E-05
CGA:   8    -0.312936656907E+03   -0.33910E-02   -0.33559E-02  9568   0.370E-01 0.117E-02
CGA:   9    -0.312938783662E+03   -0.21268E-02   -0.21246E-02  9568   0.563E-01 0.117E-03
CGA:  10    -0.312940471577E+03   -0.16879E-02   -0.16948E-02  9568   0.206E-01 0.580E-04
CGA:  11    -0.312941408468E+03   -0.93689E-03   -0.93700E-03  9568   0.674E-02-0.187E-04
CGA:  12    -0.312941578206E+03   -0.16974E-03   -0.16985E-03  9568   0.840E-02 0.328E-05
CGA:  13    -0.312941950971E+03   -0.37277E-03   -0.37266E-03  9568   0.528E-02 0.214E-04
CGA:  14    -0.312942214943E+03   -0.26397E-03   -0.26389E-03  9568   0.147E-02 0.882E-05
CGA:  15    -0.312942282931E+03   -0.67988E-04   -0.67948E-04  9568   0.180E-02 0.680E-05
CGA:  16    -0.312942346109E+03   -0.63178E-04   -0.63189E-04  9568   0.192E-02 0.144E-05
CGA:  17    -0.312942404125E+03   -0.58016E-04   -0.57985E-04  9568   0.138E-02-0.382E-06
CGA:  18    -0.312942436632E+03   -0.32507E-04   -0.32560E-04  9568   0.601E-03 0.154E-05
CGA:  19    -0.312942472908E+03   -0.36276E-04   -0.36241E-04  9568   0.323E-03 0.167E-05
CGA:  20    -0.312942499038E+03   -0.26130E-04   -0.26091E-04  9568   0.445E-03 0.976E-06
CGA:  21    -0.312942507296E+03   -0.82579E-05   -0.82500E-05  9568   0.273E-03-0.630E-06
CGA:  22    -0.312942525423E+03   -0.18127E-04   -0.18115E-04  9568   0.348E-03 0.491E-06
CGA:  23    -0.312942535076E+03   -0.96524E-05   -0.96610E-05  9568   0.146E-03 0.211E-06
  11 F= -.31294254E+03 E0= -.31292116E+03  d E =-.812050E-02  mag=    25.9164
       N       E                     dE             d eps       ncg     rms          ort
SDA:   1    -0.312432618280E+03    0.50991E+00    0.00000E+00  9568   0.256E+01 0.000E+00
CGA:   2    -0.312493429028E+03   -0.60811E-01   -0.61654E-01  9568   0.263E+01-0.136E-01
CGA:   3    -0.312680173926E+03   -0.18674E+00   -0.18751E+00  9568   0.745E+01-0.227E-01
CGA:   4    -0.312818626658E+03   -0.13845E+00   -0.14971E+00  9568   0.104E+01-0.313E+00
CGA:   5    -0.312866417137E+03   -0.47790E-01   -0.47425E-01  9568   0.962E+00 0.391E-01
CGA:   6    -0.312889925307E+03   -0.23508E-01   -0.22582E-01  9568   0.876E+00 0.186E-01
CGA:   7    -0.312922864018E+03   -0.32939E-01   -0.32895E-01  9568   0.593E+00-0.410E-02
CGA:   8    -0.312937093783E+03   -0.14230E-01   -0.14184E-01  9568   0.171E+00 0.439E-03
CGA:   9    -0.312942757095E+03   -0.56633E-02   -0.56755E-02  9568   0.112E+00 0.533E-03
CGA:  10    -0.312945881898E+03   -0.31248E-02   -0.31237E-02  9568   0.140E+00 0.127E-04
CGA:  11    -0.312950911736E+03   -0.50298E-02   -0.50254E-02  9568   0.469E-01-0.546E-03
CGA:  12    -0.312952286728E+03   -0.13750E-02   -0.13795E-02  9568   0.173E-01 0.105E-03
CGA:  13    -0.312952839925E+03   -0.55320E-03   -0.55325E-03  9568   0.171E-01 0.585E-05
CGA:  14    -0.312953624776E+03   -0.78485E-03   -0.78469E-03  9568   0.296E-01 0.146E-04
CGA:  15    -0.312954235251E+03   -0.61047E-03   -0.61110E-03  9568   0.539E-02 0.611E-06
CGA:  16    -0.312954495402E+03   -0.26015E-03   -0.26004E-03  9568   0.378E-02 0.885E-05
CGA:  17    -0.312954624842E+03   -0.12944E-03   -0.12950E-03  9568   0.411E-02 0.773E-05
CGA:  18    -0.312954785229E+03   -0.16039E-03   -0.16038E-03  9568   0.451E-02 0.376E-05
CGA:  19    -0.312954872297E+03   -0.87067E-04   -0.87050E-04  9568   0.153E-02-0.124E-05
CGA:  20    -0.312954984057E+03   -0.11176E-03   -0.11134E-03  9568   0.147E-02 0.111E-04
CGA:  21    -0.312955035123E+03   -0.51066E-04   -0.51052E-04  9568   0.112E-02-0.286E-06
CGA:  22    -0.312955072078E+03   -0.36954E-04   -0.36956E-04  9568   0.976E-03 0.119E-05
CGA:  23    -0.312955099600E+03   -0.27523E-04   -0.27563E-04  9568   0.110E-02 0.218E-05
CGA:  24    -0.312955155344E+03   -0.55744E-04   -0.55691E-04  9568   0.839E-03 0.354E-05
CGA:  25    -0.312955189411E+03   -0.34067E-04   -0.34060E-04  9568   0.353E-03 0.254E-05
CGA:  26    -0.312955201493E+03   -0.12082E-04   -0.12081E-04  9568   0.376E-03-0.352E-06
CGA:  27    -0.312955221820E+03   -0.20327E-04   -0.20323E-04  9568   0.761E-03 0.771E-07
CGA:  28    -0.312955240449E+03   -0.18629E-04   -0.18658E-04  9568   0.404E-03 0.969E-06
CGA:  29    -0.312955254015E+03   -0.13567E-04   -0.13566E-04  9568   0.102E-03-0.178E-06
CGA:  30    -0.312955260043E+03   -0.60272E-05   -0.59869E-05  9568   0.207E-03 0.168E-05
  12 F= -.31295526E+03 E0= -.31293384E+03  d E =-.127250E-01  mag=    25.9174
       N       E                     dE             d eps       ncg     rms          ort
SDA:   1    -0.310392156247E+03    0.25631E+01    0.00000E+00  9568   0.132E+02 0.000E+00
CGA:   2    -0.310649096252E+03   -0.25694E+00   -0.28837E+00  9568   0.139E+02-0.573E+00
CGA:   3    -0.311597616551E+03   -0.94852E+00   -0.92615E+00  9568   0.327E+02 0.720E+00
CGA:   4    -0.312333895439E+03   -0.73628E+00   -0.84328E+00  9568   0.667E+01-0.125E+01
CGA:   5    -0.312531700693E+03   -0.19781E+00   -0.19142E+00  9568   0.461E+01-0.105E+00
CGA:   6    -0.312621456370E+03   -0.89756E-01   -0.83971E-01  9568   0.399E+01 0.174E+00
CGA:   7    -0.312789771983E+03   -0.16832E+00   -0.16734E+00  9568   0.390E+01 0.220E+00
CGA:   8    -0.312856161065E+03   -0.66389E-01   -0.73493E-01  9568   0.256E+01-0.212E+00
CGA:   9    -0.312899516934E+03   -0.43356E-01   -0.41013E-01  9568   0.828E+00 0.799E-01
CGA:  10    -0.312916652623E+03   -0.17136E-01   -0.17230E-01  9568   0.547E+00-0.201E-02
CGA:  11    -0.312927617004E+03   -0.10964E-01   -0.10993E-01  9568   0.525E+00-0.607E-03
CGA:  12    -0.312951718542E+03   -0.24102E-01   -0.23995E-01  9568   0.413E+00 0.697E-02
CGA:  13    -0.312957897057E+03   -0.61785E-02   -0.60667E-02  9568   0.147E+00 0.500E-02
CGA:  14    -0.312960991487E+03   -0.30944E-02   -0.30914E-02  9568   0.691E-01 0.367E-04
CGA:  15    -0.312963421291E+03   -0.24298E-02   -0.24286E-02  9568   0.944E-01 0.367E-03
CGA:  16    -0.312965857125E+03   -0.24358E-02   -0.24352E-02  9568   0.104E+00-0.236E-04
CGA:  17    -0.312968507102E+03   -0.26500E-02   -0.26643E-02  9568   0.378E-01 0.408E-03
CGA:  18    -0.312969280479E+03   -0.77338E-03   -0.77858E-03  9568   0.314E-01-0.351E-04
CGA:  19    -0.312970005196E+03   -0.72472E-03   -0.72127E-03  9568   0.168E-01-0.474E-04
CGA:  20    -0.312970482810E+03   -0.47761E-03   -0.47780E-03  9568   0.156E-01 0.239E-04
CGA:  21    -0.312970863845E+03   -0.38104E-03   -0.38251E-03  9568   0.163E-01 0.347E-04
CGA:  22    -0.312971326114E+03   -0.46227E-03   -0.46228E-03  9568   0.914E-02 0.401E-05
CGA:  23    -0.312971631201E+03   -0.30509E-03   -0.30517E-03  9568   0.124E-01-0.198E-04
CGA:  24    -0.312971890849E+03   -0.25965E-03   -0.26038E-03  9568   0.647E-02 0.103E-04
CGA:  25    -0.312972083580E+03   -0.19273E-03   -0.19272E-03  9568   0.428E-02 0.153E-05
CGA:  26    -0.312972187361E+03   -0.10378E-03   -0.10386E-03  9568   0.417E-02 0.781E-05
CGA:  27    -0.312972312445E+03   -0.12508E-03   -0.12509E-03  9568   0.460E-02 0.220E-04
CGA:  28    -0.312972526286E+03   -0.21384E-03   -0.21344E-03  9568   0.464E-02 0.240E-04
CGA:  29    -0.312972605614E+03   -0.79328E-04   -0.79428E-04  9568   0.244E-02 0.369E-05
CGA:  30    -0.312972683037E+03   -0.77423E-04   -0.77400E-04  9568   0.190E-02 0.936E-05
CGA:  31    -0.312972745723E+03   -0.62686E-04   -0.62677E-04  9568   0.218E-02 0.216E-05
SDA:  32    -0.312972798347E+03   -0.52625E-04   -0.52598E-04  9568   0.180E-02-0.242E-05
CGA:  33    -0.312972823624E+03   -0.25277E-04   -0.25331E-04  9568   0.460E-03 0.516E-06
CGA:  34    -0.312972846823E+03   -0.23199E-04   -0.23178E-04  9568   0.113E-02 0.250E-06
CGA:  35    -0.312972889351E+03   -0.42528E-04   -0.42545E-04  9568   0.695E-03-0.183E-05
CGA:  36    -0.312972933309E+03   -0.43957E-04   -0.43930E-04  9568   0.487E-03 0.427E-06
CGA:  37    -0.312972960260E+03   -0.26952E-04   -0.26992E-04  9568   0.263E-03-0.213E-05
CGA:  38    -0.312972974821E+03   -0.14561E-04   -0.14545E-04  9568   0.139E-03 0.333E-06
CGA:  39    -0.312972985808E+03   -0.10987E-04   -0.10962E-04  9568   0.641E-03 0.395E-06
CGA:  40    -0.312973005276E+03   -0.19468E-04   -0.19462E-04  9568   0.312E-03-0.614E-06
CGA:  41    -0.312973022293E+03   -0.17017E-04   -0.16987E-04  9568   0.114E-03 0.118E-05
CGA:  42    -0.312973030836E+03   -0.85430E-05   -0.84882E-05  9568   0.155E-03 0.123E-05
  13 F= -.31297303E+03 E0= -.31295154E+03  d E =-.177708E-01  mag=    25.9178
       N       E                     dE             d eps       ncg     rms          ort
SDA:   1    -0.311135625913E+03    0.18374E+01    0.00000E+00  9568   0.688E+02 0.000E+00
CGA:   2    -0.311803261439E+03   -0.66764E+00   -0.94754E+00  9568   0.171E+02-0.200E+02
CGA:   3    -0.312015960642E+03   -0.21270E+00   -0.21566E+00  9568   0.634E+01-0.157E+00
CGA:   4    -0.312165315364E+03   -0.14935E+00   -0.15254E+00  9568   0.760E+01-0.121E-01
CGA:   5    -0.312391643033E+03   -0.22633E+00   -0.22509E+00  9568   0.880E+01-0.615E-01
CGA:   6    -0.312707598619E+03   -0.31596E+00   -0.31700E+00  9568   0.538E+01-0.648E+00
CGA:   7    -0.312804650639E+03   -0.97052E-01   -0.10131E+00  9568   0.240E+01-0.725E-01
CGA:   8    -0.312850720073E+03   -0.46069E-01   -0.45735E-01  9568   0.106E+01 0.594E-02
CGA:   9    -0.312902620078E+03   -0.51900E-01   -0.52725E-01  9568   0.138E+01-0.424E-01
CGA:  10    -0.312951731553E+03   -0.49111E-01   -0.48917E-01  9568   0.349E+00 0.492E-01
CGA:  11    -0.312959688732E+03   -0.79572E-02   -0.78461E-02  9568   0.195E+00 0.893E-03
CGA:  12    -0.312965319241E+03   -0.56305E-02   -0.56320E-02  9568   0.205E+00 0.120E-03
CGA:  13    -0.312973418787E+03   -0.80995E-02   -0.80903E-02  9568   0.127E+00 0.112E-02
CGA:  14    -0.312977935082E+03   -0.45163E-02   -0.45217E-02  9568   0.755E-01-0.262E-02
CGA:  15    -0.312979574543E+03   -0.16395E-02   -0.16536E-02  9568   0.356E-01-0.234E-04
CGA:  16    -0.312980292036E+03   -0.71749E-03   -0.71820E-03  9568   0.182E-01-0.254E-05
CGA:  17    -0.312981655712E+03   -0.13637E-02   -0.13735E-02  9568   0.350E-01-0.242E-03
CGA:  18    -0.312982759582E+03   -0.11039E-02   -0.11054E-02  9568   0.104E-01 0.204E-03
CGA:  19    -0.312983011380E+03   -0.25180E-03   -0.25186E-03  9568   0.918E-02-0.170E-06
CGA:  20    -0.312983316492E+03   -0.30511E-03   -0.30510E-03  9568   0.782E-02-0.280E-05
CGA:  21    -0.312983604618E+03   -0.28813E-03   -0.28792E-03  9568   0.587E-02 0.533E-04
CGA:  22    -0.312983936659E+03   -0.33204E-03   -0.33258E-03  9568   0.675E-02-0.196E-04
CGA:  23    -0.312984102415E+03   -0.16576E-03   -0.16599E-03  9568   0.454E-02 0.982E-05
CGA:  24    -0.312984225037E+03   -0.12262E-03   -0.12268E-03  9568   0.335E-02 0.567E-05
CGA:  25    -0.312984350220E+03   -0.12518E-03   -0.12523E-03  9568   0.176E-02-0.706E-05
CGA:  26    -0.312984439379E+03   -0.89159E-04   -0.88932E-04  9568   0.257E-02 0.130E-04
CGA:  27    -0.312984542407E+03   -0.10303E-03   -0.10303E-03  9568   0.249E-02 0.110E-05
CGA:  28    -0.312984590546E+03   -0.48139E-04   -0.48192E-04  9568   0.100E-02 0.133E-05
CGA:  29    -0.312984627254E+03   -0.36708E-04   -0.36703E-04  9568   0.670E-03 0.233E-05
CGA:  30    -0.312984655547E+03   -0.28292E-04   -0.28310E-04  9568   0.604E-03-0.188E-05
CGA:  31    -0.312984682493E+03   -0.26946E-04   -0.26923E-04  9568   0.650E-03 0.231E-05
SDA:  32    -0.312984695638E+03   -0.13145E-04   -0.13147E-04  9568   0.308E-03-0.193E-06
CGA:  33    -0.312984700372E+03   -0.47338E-05   -0.47317E-05  9568   0.137E-03-0.287E-06
  14 F= -.31298470E+03 E0= -.31296334E+03  d E =-.116695E-01  mag=    25.9191
       N       E                     dE             d eps       ncg     rms          ort
SDA:   1    -0.307698550498E+03    0.52861E+01    0.00000E+00  9568   0.217E+02 0.000E+00
CGA:   2    -0.308296708281E+03   -0.59816E+00   -0.56686E+00  9568   0.290E+02-0.668E+00
CGA:   3    -0.310319803810E+03   -0.20231E+01   -0.20288E+01  9568   0.741E+02 0.314E-01
CGA:   4    -0.311495963057E+03   -0.11762E+01   -0.14497E+01  9568   0.199E+02-0.637E+01
CGA:   5    -0.311793941231E+03   -0.29798E+00   -0.30937E+00  9568   0.148E+02-0.581E+00
CGA:   6    -0.312107390220E+03   -0.31345E+00   -0.31894E+00  9568   0.102E+02-0.846E-01
CGA:   7    -0.312367753224E+03   -0.26036E+00   -0.25055E+00  9568   0.155E+02-0.134E+00
CGA:   8    -0.312705556844E+03   -0.33780E+00   -0.31791E+00  9568   0.406E+01 0.227E+00
CGA:   9    -0.312778065954E+03   -0.72509E-01   -0.77214E-01  9568   0.278E+01-0.889E-01
CGA:  10    -0.312822399415E+03   -0.44333E-01   -0.44809E-01  9568   0.163E+01-0.139E-01
CGA:  11    -0.312880905427E+03   -0.58506E-01   -0.58097E-01  9568   0.228E+01 0.578E-01
CGA:  12    -0.312920602012E+03   -0.39697E-01   -0.40015E-01  9568   0.132E+01-0.873E-02
CGA:  13    -0.312950139185E+03   -0.29537E-01   -0.28941E-01  9568   0.586E+00-0.649E-02
CGA:  14    -0.312961001813E+03   -0.10863E-01   -0.10999E-01  9568   0.434E+00-0.132E-02
CGA:  15    -0.312970004632E+03   -0.90028E-02   -0.90476E-02  9568   0.220E+00 0.319E-03
CGA:  16    -0.312979532412E+03   -0.95278E-02   -0.94710E-02  9568   0.399E+00 0.339E-02
CGA:  17    -0.312987221650E+03   -0.76892E-02   -0.76598E-02  9568   0.171E+00 0.292E-03
CGA:  18    -0.312991673897E+03   -0.44522E-02   -0.44641E-02  9568   0.960E-01 0.125E-02
CGA:  19    -0.312994118288E+03   -0.24444E-02   -0.24530E-02  9568   0.863E-01 0.714E-03
CGA:  20    -0.312996041021E+03   -0.19227E-02   -0.19283E-02  9568   0.576E-01 0.164E-03
CGA:  21    -0.312998451008E+03   -0.24100E-02   -0.24066E-02  9568   0.498E-01 0.224E-03
CGA:  22    -0.312999333013E+03   -0.88200E-03   -0.89049E-03  9568   0.304E-01-0.135E-03
CGA:  23    -0.313000407345E+03   -0.10743E-02   -0.10734E-02  9568   0.294E-01 0.960E-04
CGA:  24    -0.313001302133E+03   -0.89479E-03   -0.89451E-03  9568   0.183E-01 0.145E-03
CGA:  25    -0.313001637469E+03   -0.33534E-03   -0.33606E-03  9568   0.110E-01-0.122E-04
CGA:  26    -0.313002086227E+03   -0.44876E-03   -0.44889E-03  9568   0.119E-01-0.591E-05
CGA:  27    -0.313002527744E+03   -0.44152E-03   -0.44109E-03  9568   0.137E-01 0.420E-04
CGA:  28    -0.313002788761E+03   -0.26102E-03   -0.26222E-03  9568   0.588E-02 0.401E-05
CGA:  29    -0.313002975561E+03   -0.18680E-03   -0.18680E-03  9568   0.430E-02 0.430E-05
CGA:  30    -0.313003130856E+03   -0.15530E-03   -0.15523E-03  9568   0.538E-02 0.911E-05
CGA:  31    -0.313003262287E+03   -0.13143E-03   -0.13151E-03  9568   0.434E-02 0.744E-05
SDA:  32    -0.313003437028E+03   -0.17474E-03   -0.17465E-03  9568   0.278E-02 0.805E-05
CGA:  33    -0.313003482725E+03   -0.45696E-04   -0.45819E-04  9568   0.916E-03-0.509E-06
CGA:  34    -0.313003533105E+03   -0.50380E-04   -0.50398E-04  9568   0.230E-02-0.166E-05
CGA:  35    -0.313003614255E+03   -0.81150E-04   -0.81156E-04  9568   0.201E-02-0.943E-06
CGA:  36    -0.313003712101E+03   -0.97846E-04   -0.97785E-04  9568   0.782E-03 0.279E-05
CGA:  37    -0.313003770601E+03   -0.58500E-04   -0.58539E-04  9568   0.479E-03-0.154E-05
CGA:  38    -0.313003795437E+03   -0.24837E-04   -0.24776E-04  9568   0.421E-03 0.265E-05
CGA:  39    -0.313003820687E+03   -0.25250E-04   -0.25207E-04  9568   0.873E-03 0.147E-05
CGA:  40    -0.313003851805E+03   -0.31118E-04   -0.31119E-04  9568   0.823E-03 0.347E-05
CGA:  41    -0.313003879482E+03   -0.27677E-04   -0.27693E-04  9568   0.825E-03 0.479E-05
CGA:  42    -0.313003902058E+03   -0.22575E-04   -0.22603E-04  9568   0.178E-03 0.302E-05
CGA:  43    -0.313003926582E+03   -0.24524E-04   -0.23993E-04  9568   0.257E-03 0.524E-05
CGA:  44    -0.313003936549E+03   -0.99675E-05   -0.99681E-05  9568   0.367E-03 0.151E-06
  15 F= -.31300394E+03 E0= -.31298306E+03  d E =-.192362E-01  mag=    25.9174
       N       E                     dE             d eps       ncg     rms          ort
SDA:   1    -0.241377446663E+03    0.71626E+02    0.00000E+00  9568   0.178E+04 0.000E+00
CGA:   2    -0.265333466567E+03   -0.23956E+02   -0.42519E+02  9568   0.261E+03 0.388E+02
CGA:   3    -0.270375584398E+03   -0.50421E+01   -0.17151E+02  9568   0.797E+03-0.201E+03
CGA:   4    -0.282458321336E+03   -0.12083E+02   -0.20398E+02  9568   0.226E+03 0.456E+02
CGA:   5    -0.294331468864E+03   -0.11873E+02   -0.11863E+02  9568   0.694E+02 0.208E+01
CGA:   6    -0.297079977796E+03   -0.27485E+01   -0.27502E+01  9568   0.293E+03 0.143E+01
CGA:   7    -0.300325243995E+03   -0.32453E+01   -0.53892E+01  9568   0.408E+03-0.148E+03
CGA:   8    -0.304968958054E+03   -0.46437E+01   -0.79479E+01  9568   0.185E+03-0.146E+03
CGA:   9    -0.306910718487E+03   -0.19418E+01   -0.15700E+01  9568   0.183E+02 0.207E+02
CGA:  10    -0.307569409032E+03   -0.65869E+00   -0.64398E+00  9568   0.469E+02-0.111E+01
CGA:  11    -0.308080576833E+03   -0.51117E+00   -0.42728E+00  9568   0.511E+02 0.481E+01
CGA:  12    -0.308651136010E+03   -0.57056E+00   -0.94548E+00  9568   0.878E+02-0.107E+02
CGA:  13    -0.309390864519E+03   -0.73973E+00   -0.90639E+00  9568   0.880E+02-0.181E+02
CGA:  14    -0.310462199195E+03   -0.10713E+01   -0.12332E+01  9568   0.127E+03-0.400E+01
CGA:  15    -0.311461957736E+03   -0.99976E+00   -0.66497E+00  9568   0.544E+02 0.571E+02
CGA:  16    -0.311913568612E+03   -0.45161E+00   -0.36028E+00  9568   0.986E+01 0.157E+02
CGA:  17    -0.311998336813E+03   -0.84768E-01   -0.75887E-01  9568   0.525E+01 0.121E+01
CGA:  18    -0.312059548845E+03   -0.61212E-01   -0.56235E-01  9568   0.832E+01 0.380E+00
CGA:  19    -0.312154644770E+03   -0.95096E-01   -0.87929E-01  9568   0.154E+02 0.551E+00
CGA:  20    -0.312270438008E+03   -0.11579E+00   -0.90481E-01  9568   0.147E+02 0.427E+01
CGA:  21    -0.312368309800E+03   -0.97872E-01   -0.93568E-01  9568   0.745E+01 0.640E+00
CGA:  22    -0.312402287006E+03   -0.33977E-01   -0.54069E-01  9568   0.465E+01-0.228E+01
CGA:  23    -0.312422743479E+03   -0.20456E-01   -0.23198E-01  9568   0.432E+01-0.301E+00
CGA:  24    -0.312465434498E+03   -0.42691E-01   -0.43437E-01  9568   0.539E+01-0.422E-01
CGA:  25    -0.312514004707E+03   -0.48570E-01   -0.44996E-01  9568   0.383E+01 0.293E+00
CGA:  26    -0.312545231386E+03   -0.31227E-01   -0.30876E-01  9568   0.319E+01 0.202E-01
CGA:  27    -0.312578782328E+03   -0.33551E-01   -0.32457E-01  9568   0.451E+01 0.579E-01
CGA:  28    -0.312618446542E+03   -0.39664E-01   -0.37282E-01  9568   0.452E+01 0.218E+00
CGA:  29    -0.312650086043E+03   -0.31640E-01   -0.31287E-01  9568   0.305E+01 0.340E-01
CGA:  30    -0.312672210664E+03   -0.22125E-01   -0.21401E-01  9568   0.317E+01 0.736E-01
CGA:  31    -0.312700348781E+03   -0.28138E-01   -0.27392E-01  9568   0.377E+01 0.488E-01
CGA:  32    -0.312722361180E+03   -0.22012E-01   -0.22306E-01  9568   0.204E+01-0.364E-01
CGA:  33    -0.312732501416E+03   -0.10140E-01   -0.10721E-01  9568   0.116E+01-0.850E-01
CGA:  34    -0.312741875307E+03   -0.93739E-02   -0.95072E-02  9568   0.172E+01-0.762E-02
CGA:  35    -0.312761375492E+03   -0.19500E-01   -0.19422E-01  9568   0.271E+01 0.177E-02
CGA:  36    -0.312779143123E+03   -0.17768E-01   -0.17491E-01  9568   0.140E+01 0.376E-01
CGA:  37    -0.312786325200E+03   -0.71821E-02   -0.72829E-02  9568   0.613E+00-0.162E-01
SDA:  38    -0.312791133045E+03   -0.48078E-02   -0.48163E-02  9568   0.737E+00-0.713E-03
CGA:  39    -0.312802046442E+03   -0.10913E-01   -0.10910E-01  9568   0.433E+00 0.146E-01
CGA:  40    -0.312813311806E+03   -0.11265E-01   -0.11541E-01  9568   0.266E+00-0.227E-01
CGA:  41    -0.312828014779E+03   -0.14703E-01   -0.14521E-01  9568   0.386E+00 0.514E-02
CGA:  42    -0.312836627345E+03   -0.86126E-02   -0.86101E-02  9568   0.176E+00 0.410E-03
CGA:  43    -0.312841999805E+03   -0.53725E-02   -0.53069E-02  9568   0.161E+00 0.476E-02
CGA:  44    -0.312844961965E+03   -0.29622E-02   -0.29621E-02  9568   0.760E-01-0.291E-04
CGA:  45    -0.312848798047E+03   -0.38361E-02   -0.38724E-02  9568   0.766E-01-0.126E-02
CGA:  46    -0.312851588948E+03   -0.27909E-02   -0.27655E-02  9568   0.920E-01 0.144E-02
CGA:  47    -0.312853262201E+03   -0.16733E-02   -0.16733E-02  9568   0.346E-01-0.394E-05
CGA:  48    -0.312854473337E+03   -0.12111E-02   -0.12160E-02  9568   0.278E-01-0.310E-03
CGA:  49    -0.312855072942E+03   -0.59961E-03   -0.59968E-03  9568   0.146E-01-0.760E-04
CGA:  50    -0.312855835589E+03   -0.76265E-03   -0.75166E-03  9568   0.328E-01 0.387E-03
CGA:  51    -0.312856611869E+03   -0.77628E-03   -0.77638E-03  9568   0.171E-01-0.199E-03
CGA:  52    -0.312857344799E+03   -0.73293E-03   -0.71590E-03  9568   0.160E-01 0.835E-03
CGA:  53    -0.312857886654E+03   -0.54185E-03   -0.54467E-03  9568   0.229E-01-0.247E-03
CGA:  54    -0.312858408061E+03   -0.52141E-03   -0.52203E-03  9568   0.417E-02 0.276E-03
CGA:  55    -0.312858632223E+03   -0.22416E-03   -0.22334E-03  9568   0.504E-02 0.283E-04
CGA:  56    -0.312858814755E+03   -0.18253E-03   -0.18165E-03  9568   0.689E-02 0.689E-04
CGA:  57    -0.312859051889E+03   -0.23713E-03   -0.23757E-03  9568   0.543E-02-0.370E-04
CGA:  58    -0.312859165816E+03   -0.11393E-03   -0.11422E-03  9568   0.338E-02 0.182E-04
CGA:  59    -0.312859279835E+03   -0.11402E-03   -0.11370E-03  9568   0.126E-02 0.330E-04
CGA:  60    -0.312859402454E+03   -0.12262E-03   -0.12175E-03  9568   0.242E-02 0.132E-04
CGA:  61    -0.312859453234E+03   -0.50780E-04   -0.50776E-04  9568   0.135E-02-0.156E-06
CGA:  62    -0.312859505227E+03   -0.51993E-04   -0.51887E-04  9568   0.170E-02 0.776E-05
CGA:  63    -0.312859544466E+03   -0.39239E-04   -0.39209E-04  9568   0.940E-03-0.187E-05
CGA:  64    -0.312859605810E+03   -0.61345E-04   -0.61555E-04  9568   0.750E-03-0.614E-05
CGA:  65    -0.312859636363E+03   -0.30553E-04   -0.30601E-04  9568   0.719E-03-0.498E-05
CGA:  66    -0.312859653061E+03   -0.16698E-04   -0.16730E-04  9568   0.540E-03-0.246E-05
CGA:  67    -0.312859680662E+03   -0.27601E-04   -0.27737E-04  9568   0.107E-02-0.674E-05
CGA:  68    -0.312859704515E+03   -0.23853E-04   -0.23876E-04  9568   0.205E-03-0.120E-05
SDA:  69    -0.312859727931E+03   -0.23416E-04   -0.22990E-04  9568   0.544E-03 0.542E-05
CGA:  70    -0.312859737806E+03   -0.98747E-05   -0.98800E-05  9568   0.180E-03 0.510E-06
  16 F= -.31285974E+03 E0= -.31283633E+03  d E =0.144199E+00  mag=    25.9168
       N       E                     dE             d eps       ncg     rms          ort
SDA:   1    -0.252247209400E+03    0.60613E+02    0.00000E+00  9568   0.471E+03 0.000E+00
CGA:   2    -0.110083557353E+03    0.14216E+03   -0.62810E+02  9568   0.166E+04-0.446E+03
CGA:   3    -0.281215564997E+03   -0.17113E+03    0.11125E+03  9568   0.394E+03 0.343E+03
CGA:   4    -0.291711514452E+03   -0.10496E+02   -0.13061E+02  9568   0.238E+03 0.235E+02
CGA:   5    -0.302140504189E+03   -0.10429E+02   -0.75704E+01  9568   0.189E+03-0.174E+03
CGA:   6    -0.304753764715E+03   -0.26133E+01   -0.36289E+01  9568   0.936E+02-0.400E+02
CGA:   7    -0.306689042723E+03   -0.19353E+01   -0.18952E+01  9568   0.222E+02-0.244E+01
CGA:   8    -0.308126540359E+03   -0.14375E+01   -0.25094E+01  9568   0.924E+02-0.154E+02
CGA:   9    -0.309989598512E+03   -0.18631E+01   -0.21303E+01  9568   0.168E+02-0.865E+01
CGA:  10    -0.310273965796E+03   -0.28437E+00   -0.28442E+00  9568   0.105E+02-0.140E+00
CGA:  11    -0.310984010922E+03   -0.71005E+00   -0.84338E+00  9568   0.287E+02-0.342E+01
CGA:  12    -0.311718605682E+03   -0.73459E+00   -0.73681E+00  9568   0.283E+02 0.294E+00
CGA:  13    -0.312553871285E+03   -0.83527E+00   -0.83188E+00  9568   0.413E+01 0.258E+00
CGA:  14    -0.312679700212E+03   -0.12583E+00   -0.12975E+00  9568   0.390E+01 0.824E-01
CGA:  15    -0.312783311993E+03   -0.10361E+00   -0.88431E-01  9568   0.166E+01 0.322E+00
CGA:  16    -0.312863929419E+03   -0.80617E-01   -0.81072E-01  9568   0.144E+01-0.481E-01
CGA:  17    -0.312889073802E+03   -0.25144E-01   -0.27901E-01  9568   0.792E+00-0.613E-01
CGA:  18    -0.312926714509E+03   -0.37641E-01   -0.37603E-01  9568   0.713E+00 0.233E-02
CGA:  19    -0.312958322221E+03   -0.31608E-01   -0.31485E-01  9568   0.934E+00 0.149E-01
CGA:  20    -0.312978573079E+03   -0.20251E-01   -0.20109E-01  9568   0.499E+00 0.327E-02
CGA:  21    -0.312996653880E+03   -0.18081E-01   -0.18170E-01  9568   0.279E+00 0.200E-01
CGA:  22    -0.313007324652E+03   -0.10671E-01   -0.10647E-01  9568   0.303E+00-0.665E-02
CGA:  23    -0.313017455670E+03   -0.10131E-01   -0.10188E-01  9568   0.161E+00 0.628E-02
CGA:  24    -0.313021658852E+03   -0.42032E-02   -0.41236E-02  9568   0.143E+00 0.824E-04
CGA:  25    -0.313027295325E+03   -0.56365E-02   -0.56435E-02  9568   0.826E-01-0.180E-02
CGA:  26    -0.313031939041E+03   -0.46437E-02   -0.46288E-02  9568   0.581E-01 0.568E-03
CGA:  27    -0.313033623504E+03   -0.16845E-02   -0.17142E-02  9568   0.404E-01 0.634E-03
CGA:  28    -0.313034989546E+03   -0.13660E-02   -0.13617E-02  9568   0.224E-01-0.362E-03
CGA:  29    -0.313036025448E+03   -0.10359E-02   -0.10329E-02  9568   0.445E-01 0.229E-03
CGA:  30    -0.313037294401E+03   -0.12690E-02   -0.12674E-02  9568   0.148E-01-0.240E-04
CGA:  31    -0.313038001022E+03   -0.70662E-03   -0.70472E-03  9568   0.889E-02 0.133E-03
[...]
CGA:  18    -0.312936164771E+03   -0.26371E-01   -0.26799E-01  9568   0.379E+00-0.714E-02
CGA:  19    -0.312942492463E+03   -0.63277E-02   -0.62657E-02  9568   0.259E+00 0.242E-02
CGA:  20    -0.312947477881E+03   -0.49854E-02   -0.49779E-02  9568   0.188E+00-0.213E-04
CGA:  21    -0.312953295783E+03   -0.58179E-02   -0.58474E-02  9568   0.100E+00 0.952E-03
CGA:  22    -0.312956984983E+03   -0.36892E-02   -0.36928E-02  9568   0.218E+00 0.720E-03
CGA:  23    -0.312961130729E+03   -0.41457E-02   -0.44105E-02  9568   0.115E+00-0.579E-02
CGA:  24    -0.312964881653E+03   -0.37509E-02   -0.37274E-02  9568   0.585E-01-0.181E-02
CGA:  25    -0.312967701345E+03   -0.28197E-02   -0.27880E-02  9568   0.687E-01 0.212E-02
CGA:  26    -0.312968975708E+03   -0.12744E-02   -0.12733E-02  9568   0.465E-01 0.579E-04
CGA:  27    -0.312970263140E+03   -0.12874E-02   -0.13040E-02  9568   0.301E-01 0.348E-03
CGA:  28    -0.312971581230E+03   -0.13181E-02   -0.13173E-02  9568   0.244E-01 0.785E-04
CGA:  29    -0.312972282797E+03   -0.70157E-03   -0.70445E-03  9568   0.306E-01 0.707E-04
CGA:  30    -0.312973032941E+03   -0.75014E-03   -0.74934E-03  9568   0.193E-01-0.388E-05
CGA:  31    -0.312973619955E+03   -0.58701E-03   -0.58906E-03  9568   0.101E-01 0.116E-03
SDA:  32    -0.312974062465E+03   -0.44251E-03   -0.44282E-03  9568   0.107E-01-0.308E-04
CGA:  33    -0.312974202730E+03   -0.14027E-03   -0.14024E-03  9568   0.502E-02-0.104E-04
CGA:  34    -0.312974391000E+03   -0.18827E-03   -0.18827E-03  9568   0.458E-02-0.401E-05
CGA:  35    -0.312974713243E+03   -0.32224E-03   -0.32089E-03  9568   0.839E-02 0.392E-04
CGA:  36    -0.312975021213E+03   -0.30797E-03   -0.30798E-03  9568   0.468E-02-0.578E-06
CGA:  37    -0.312975199840E+03   -0.17863E-03   -0.17864E-03  9568   0.351E-02-0.118E-04
CGA:  38    -0.312975270185E+03   -0.70345E-04   -0.70263E-04  9568   0.340E-02-0.569E-06
CGA:  39    -0.312975424726E+03   -0.15454E-03   -0.15421E-03  9568   0.159E-02 0.224E-04
CGA:  40    -0.312975560549E+03   -0.13582E-03   -0.13668E-03  9568   0.282E-02-0.180E-04
CGA:  41    -0.312975673006E+03   -0.11246E-03   -0.11243E-03  9568   0.304E-02 0.685E-05
CGA:  42    -0.312975814306E+03   -0.14130E-03   -0.14182E-03  9568   0.258E-02-0.493E-04
CGA:  43    -0.312975861415E+03   -0.47109E-04   -0.47604E-04  9568   0.218E-02-0.241E-04
CGA:  44    -0.312975982131E+03   -0.12072E-03   -0.12109E-03  9568   0.120E-02-0.199E-04
CGA:  45    -0.312976044861E+03   -0.62730E-04   -0.62769E-04  9568   0.165E-02-0.332E-05
CGA:  46    -0.312976091615E+03   -0.46753E-04   -0.46695E-04  9568   0.973E-03-0.340E-05
CGA:  47    -0.312976117157E+03   -0.25543E-04   -0.25680E-04  9568   0.136E-02-0.144E-05
CGA:  48    -0.312976197895E+03   -0.80738E-04   -0.81377E-04  9568   0.631E-03-0.255E-04
CGA:  49    -0.312976226418E+03   -0.28523E-04   -0.28440E-04  9568   0.112E-02 0.876E-05
CGA:  50    -0.312976263737E+03   -0.37319E-04   -0.37248E-04  9568   0.117E-02-0.203E-05
CGA:  51    -0.312976290224E+03   -0.26487E-04   -0.26623E-04  9568   0.364E-03-0.153E-06
CGA:  52    -0.312976302642E+03   -0.12418E-04   -0.12415E-04  9568   0.286E-03-0.256E-06
CGA:  53    -0.312976333900E+03   -0.31258E-04   -0.30843E-04  9568   0.847E-03 0.658E-05
CGA:  54    -0.312976349052E+03   -0.15152E-04   -0.15055E-04  9568   0.333E-03 0.610E-05
CGA:  55    -0.312976360566E+03   -0.11513E-04   -0.11540E-04  9568   0.324E-03 0.190E-05
CGA:  56    -0.312976376951E+03   -0.16386E-04   -0.16390E-04  9568   0.277E-03 0.100E-05
CGA:  57    -0.312976389640E+03   -0.12689E-04   -0.12652E-04  9568   0.206E-03 0.609E-05
CGA:  58    -0.312976394728E+03   -0.50874E-05   -0.51042E-05  9568   0.241E-03 0.226E-05
CGA:  59    -0.312976412656E+03   -0.17928E-04   -0.17585E-04  9568   0.606E-03 0.104E-04
CGA:  60    -0.312976436471E+03   -0.23815E-04   -0.23814E-04  9568   0.214E-03 0.456E-05
CGA:  61    -0.312976446008E+03   -0.95367E-05   -0.95227E-05  9568   0.374E-03 0.409E-05
CGA:  62    -0.312976457212E+03   -0.11204E-04   -0.11095E-04  9568   0.350E-03 0.176E-05
SDA:  63    -0.312976473025E+03   -0.15813E-04   -0.15735E-04  9568   0.378E-03 0.135E-04
CGA:  64    -0.312976479983E+03   -0.69582E-05   -0.69830E-05  9568   0.142E-03 0.266E-06
 161 F= -.31297648E+03 E0= -.31295525E+03  d E =-.181016E+00  mag=    25.8872
       N       E                     dE             d eps       ncg     rms          ort
SDA:   1    -0.311027432004E+03    0.19490E+01    0.00000E+00  9568   0.507E+02 0.000E+00
CGA:   2    -0.311447631439E+03   -0.42020E+00   -0.63124E+00  9568   0.147E+02-0.141E+02
CGA:   3    -0.311844597798E+03   -0.39697E+00   -0.39834E+00  9568   0.962E+01 0.353E+00
CGA:   4    -0.312113092888E+03   -0.26850E+00   -0.26330E+00  9568   0.796E+01-0.326E-01
CGA:   5    -0.312415111853E+03   -0.30202E+00   -0.30163E+00  9568   0.710E+01-0.350E+00
CGA:   6    -0.312599383617E+03   -0.18427E+00   -0.18559E+00  9568   0.436E+01 0.645E-02
CGA:   7    -0.312713641166E+03   -0.11426E+00   -0.11647E+00  9568   0.249E+01 0.137E-01
CGA:   8    -0.312799526713E+03   -0.85886E-01   -0.86192E-01  9568   0.261E+01 0.434E-01
CGA:   9    -0.312885472152E+03   -0.85945E-01   -0.85840E-01  9568   0.148E+01-0.720E-02
CGA:  10    -0.312918806159E+03   -0.33334E-01   -0.32800E-01  9568   0.608E+00 0.528E-02
CGA:  11    -0.312937814997E+03   -0.19009E-01   -0.19075E-01  9568   0.468E+00 0.451E-02
CGA:  12    -0.312951836071E+03   -0.14021E-01   -0.14050E-01  9568   0.353E+00 0.134E-02
CGA:  13    -0.312963794204E+03   -0.11958E-01   -0.11954E-01  9568   0.232E+00-0.102E-02
CGA:  14    -0.312968821840E+03   -0.50276E-02   -0.50172E-02  9568   0.882E-01 0.946E-04
CGA:  15    -0.312971871509E+03   -0.30497E-02   -0.30503E-02  9568   0.887E-01 0.886E-03
CGA:  16    -0.312974813173E+03   -0.29417E-02   -0.29418E-02  9568   0.697E-01 0.414E-04
CGA:  17    -0.312977022004E+03   -0.22088E-02   -0.22069E-02  9568   0.496E-01-0.229E-03
CGA:  18    -0.312978293470E+03   -0.12715E-02   -0.12691E-02  9568   0.237E-01-0.351E-04
CGA:  19    -0.312979109875E+03   -0.81640E-03   -0.81638E-03  9568   0.276E-01 0.553E-04
CGA:  20    -0.312980157304E+03   -0.10474E-02   -0.10471E-02  9568   0.227E-01 0.529E-04
CGA:  21    -0.312980796050E+03   -0.63875E-03   -0.63893E-03  9568   0.146E-01 0.159E-04
CGA:  22    -0.312981221103E+03   -0.42505E-03   -0.42481E-03  9568   0.963E-02-0.139E-04
CGA:  23    -0.312981560547E+03   -0.33944E-03   -0.33945E-03  9568   0.106E-01 0.388E-05
CGA:  24    -0.312981947482E+03   -0.38694E-03   -0.38679E-03  9568   0.854E-02 0.324E-04
CGA:  25    -0.312982178548E+03   -0.23107E-03   -0.23127E-03  9568   0.525E-02 0.110E-04
CGA:  26    -0.312982342171E+03   -0.16362E-03   -0.16360E-03  9568   0.349E-02-0.422E-05
CGA:  27    -0.312982449182E+03   -0.10701E-03   -0.10702E-03  9568   0.327E-02 0.341E-05
CGA:  28    -0.312982582383E+03   -0.13320E-03   -0.13311E-03  9568   0.286E-02 0.820E-05
CGA:  29    -0.312982651076E+03   -0.68694E-04   -0.68718E-04  9568   0.135E-02 0.254E-05
CGA:  30    -0.312982697344E+03   -0.46268E-04   -0.46270E-04  9568   0.130E-02-0.156E-05
CGA:  31    -0.312982739939E+03   -0.42594E-04   -0.42595E-04  9568   0.102E-02 0.127E-05
SDA:  32    -0.312982774188E+03   -0.34249E-04   -0.34248E-04  9568   0.839E-03 0.948E-06
CGA:  33    -0.312982783095E+03   -0.89074E-05   -0.89242E-05  9568   0.141E-03 0.762E-06
 162 F= -.31298278E+03 E0= -.31296158E+03  d E =-.630311E-02  mag=    25.8951
       N       E                     dE             d eps       ncg     rms          ort
SDA:   1    -0.311972940804E+03    0.10098E+01    0.00000E+00  9568   0.411E+02 0.000E+00
CGA:   2    -0.312248511920E+03   -0.27557E+00   -0.58556E+00  9568   0.162E+02-0.194E+02
CGA:   3    -0.312485384766E+03   -0.23687E+00   -0.24821E+00  9568   0.283E+01-0.223E+00
CGA:   4    -0.312569834897E+03   -0.84450E-01   -0.80720E-01  9568   0.316E+01 0.543E-01
CGA:   5    -0.312681428793E+03   -0.11159E+00   -0.10751E+00  9568   0.320E+01 0.248E-01
CGA:   6    -0.312844747406E+03   -0.16332E+00   -0.16374E+00  9568   0.185E+01 0.933E-01
CGA:   7    -0.312874667293E+03   -0.29920E-01   -0.31382E-01  9568   0.708E+00-0.712E-01
CGA:   8    -0.312905676690E+03   -0.31009E-01   -0.30804E-01  9568   0.739E+00-0.136E-01
CGA:   9    -0.312930101060E+03   -0.24424E-01   -0.24394E-01  9568   0.816E+00-0.534E-04
CGA:  10    -0.312952101195E+03   -0.22000E-01   -0.22190E-01  9568   0.187E+00-0.279E-02
CGA:  11    -0.312955599731E+03   -0.34985E-02   -0.35954E-02  9568   0.908E-01-0.339E-02
CGA:  12    -0.312960635527E+03   -0.50358E-02   -0.50484E-02  9568   0.159E+00-0.880E-03
CGA:  13    -0.312964504275E+03   -0.38687E-02   -0.38720E-02  9568   0.617E-01-0.374E-04
CGA:  14    -0.312966219923E+03   -0.17156E-02   -0.17243E-02  9568   0.274E-01-0.705E-04
CGA:  15    -0.312966840740E+03   -0.62082E-03   -0.62432E-03  9568   0.181E-01-0.641E-04
CGA:  16    -0.312967875533E+03   -0.10348E-02   -0.10362E-02  9568   0.276E-01-0.763E-04
CGA:  17    -0.312968628015E+03   -0.75248E-03   -0.75360E-03  9568   0.167E-01 0.361E-05
CGA:  18    -0.312969047884E+03   -0.41987E-03   -0.42206E-03  9568   0.599E-02-0.246E-04
CGA:  19    -0.312969225625E+03   -0.17774E-03   -0.17785E-03  9568   0.641E-02 0.601E-05
CGA:  20    -0.312969572822E+03   -0.34720E-03   -0.34719E-03  9568   0.852E-02 0.119E-05
CGA:  21    -0.312969770905E+03   -0.19808E-03   -0.19850E-03  9568   0.401E-02-0.274E-05
CGA:  22    -0.312969922067E+03   -0.15116E-03   -0.15119E-03  9568   0.318E-02 0.249E-05
CGA:  23    -0.312970003366E+03   -0.81299E-04   -0.81367E-04  9568   0.250E-02 0.161E-05
CGA:  24    -0.312970128175E+03   -0.12481E-03   -0.12483E-03  9568   0.233E-02-0.212E-05
CGA:  25    -0.312970180429E+03   -0.52254E-04   -0.52300E-04  9568   0.128E-02 0.170E-05
CGA:  26    -0.312970234643E+03   -0.54214E-04   -0.54209E-04  9568   0.145E-02 0.133E-05
CGA:  27    -0.312970279037E+03   -0.44394E-04   -0.44405E-04  9568   0.103E-02 0.569E-06
CGA:  28    -0.312970310408E+03   -0.31371E-04   -0.31356E-04  9568   0.593E-03-0.102E-05
CGA:  29    -0.312970325771E+03   -0.15363E-04   -0.15376E-04  9568   0.420E-03 0.111E-05
CGA:  30    -0.312970345777E+03   -0.20006E-04   -0.19995E-04  9568   0.495E-03 0.828E-06
CGA:  31    -0.312970360114E+03   -0.14337E-04   -0.14349E-04  9568   0.406E-03 0.108E-05
SDA:  32    -0.312970373264E+03   -0.13150E-04   -0.13148E-04  9568   0.172E-03-0.104E-06
CGA:  33    -0.312970375546E+03   -0.22823E-05   -0.22930E-05  9568   0.660E-04 0.857E-07
 163 F= -.31297038E+03 E0= -.31294913E+03  d E =0.124075E-01  mag=    25.9023
       N       E                     dE             d eps       ncg     rms          ort
SDA:   1    -0.312766925887E+03    0.20345E+00    0.00000E+00  9568   0.254E+01 0.000E+00
CGA:   2    -0.312800365485E+03   -0.33440E-01   -0.34381E-01  9568   0.917E+00-0.533E-01
CGA:   3    -0.312844520334E+03   -0.44155E-01   -0.43241E-01  9568   0.110E+01 0.632E-01
CGA:   4    -0.312889843768E+03   -0.45323E-01   -0.45326E-01  9568   0.772E+00 0.281E-01
CGA:   5    -0.312917481626E+03   -0.27638E-01   -0.27495E-01  9568   0.286E+00-0.147E-01
CGA:   6    -0.312930153245E+03   -0.12672E-01   -0.12622E-01  9568   0.589E+00 0.489E-02
CGA:   7    -0.312946222054E+03   -0.16069E-01   -0.16112E-01  9568   0.286E+00 0.242E-03
CGA:   8    -0.312955500489E+03   -0.92784E-02   -0.92560E-02  9568   0.866E-01-0.125E-02
CGA:   9    -0.312957990706E+03   -0.24902E-02   -0.24808E-02  9568   0.741E-01-0.195E-03
CGA:  10    -0.312960934790E+03   -0.29441E-02   -0.29427E-02  9568   0.768E-01 0.326E-03
CGA:  11    -0.312962484292E+03   -0.15495E-02   -0.15542E-02  9568   0.225E-01-0.107E-03
CGA:  12    -0.312963489048E+03   -0.10048E-02   -0.10057E-02  9568   0.120E-01-0.717E-04
CGA:  13    -0.312963806559E+03   -0.31751E-03   -0.31747E-03  9568   0.131E-01-0.296E-05
CGA:  14    -0.312964300338E+03   -0.49378E-03   -0.49376E-03  9568   0.642E-02 0.892E-05
CGA:  15    -0.312964466123E+03   -0.16579E-03   -0.16577E-03  9568   0.389E-02 0.156E-05
CGA:  16    -0.312964665381E+03   -0.19926E-03   -0.19919E-03  9568   0.449E-02 0.386E-05
CGA:  17    -0.312964759383E+03   -0.94003E-04   -0.93988E-04  9568   0.252E-02-0.110E-05
CGA:  18    -0.312964862528E+03   -0.10314E-03   -0.10310E-03  9568   0.127E-02 0.773E-05
CGA:  19    -0.312964914542E+03   -0.52013E-04   -0.52028E-04  9568   0.173E-02-0.238E-05
CGA:  20    -0.312964966782E+03   -0.52240E-04   -0.52248E-04  9568   0.135E-02 0.168E-05
CGA:  21    -0.312965006630E+03   -0.39848E-04   -0.39862E-04  9568   0.775E-03 0.158E-05
CGA:  22    -0.312965032155E+03   -0.25526E-04   -0.25529E-04  9568   0.517E-03 0.971E-06
CGA:  23    -0.312965060151E+03   -0.27996E-04   -0.28022E-04  9568   0.954E-03-0.120E-05
CGA:  24    -0.312965080956E+03   -0.20805E-04   -0.20819E-04  9568   0.387E-03 0.127E-05
CGA:  25    -0.312965099754E+03   -0.18797E-04   -0.18796E-04  9568   0.276E-03 0.881E-07
CGA:  26    -0.312965107782E+03   -0.80280E-05   -0.80380E-05  9568   0.266E-03 0.123E-05
CGA:  27    -0.312965119879E+03   -0.12097E-04   -0.12098E-04  9568   0.362E-03-0.165E-06
CGA:  28    -0.312965128099E+03   -0.82199E-05   -0.82223E-05  9568   0.108E-03 0.304E-06
 164 F= -.31296513E+03 E0= -.31294391E+03  d E =0.524745E-02  mag=    25.9036
       N       E                     dE             d eps       ncg     rms          ort
SDA:   1    -0.312773303962E+03    0.19182E+00    0.00000E+00  9568   0.238E+01 0.000E+00
CGA:   2    -0.312807207731E+03   -0.33904E-01   -0.33218E-01  9568   0.735E+00 0.285E-01
CGA:   3    -0.312845355069E+03   -0.38147E-01   -0.38011E-01  9568   0.143E+01 0.730E-02
CGA:   4    -0.312893755576E+03   -0.48401E-01   -0.48191E-01  9568   0.680E+00-0.241E-01
CGA:   5    -0.312915802127E+03   -0.22047E-01   -0.22060E-01  9568   0.424E+00 0.149E-02
CGA:   6    -0.312924327543E+03   -0.85254E-02   -0.82966E-02  9568   0.255E+00 0.489E-02
CGA:   7    -0.312946084507E+03   -0.21757E-01   -0.21449E-01  9568   0.190E+00 0.682E-02
CGA:   8    -0.312950702324E+03   -0.46178E-02   -0.45721E-02  9568   0.107E+00 0.397E-03
CGA:   9    -0.312953251259E+03   -0.25489E-02   -0.25186E-02  9568   0.580E-01 0.199E-03
CGA:  10    -0.312955942517E+03   -0.26913E-02   -0.26947E-02  9568   0.619E-01-0.244E-03
CGA:  11    -0.312957477523E+03   -0.15350E-02   -0.15364E-02  9568   0.186E-01 0.466E-05
CGA:  12    -0.312958267083E+03   -0.78956E-03   -0.79097E-03  9568   0.205E-01-0.153E-03
CGA:  13    -0.312958629868E+03   -0.36279E-03   -0.36322E-03  9568   0.650E-02-0.688E-05
CGA:  14    -0.312959095420E+03   -0.46555E-03   -0.46531E-03  9568   0.438E-02 0.691E-05
CGA:  15    -0.312959241454E+03   -0.14603E-03   -0.14601E-03  9568   0.532E-02-0.190E-05
CGA:  16    -0.312959389948E+03   -0.14849E-03   -0.14833E-03  9568   0.323E-02-0.580E-05
CGA:  17    -0.312959507077E+03   -0.11713E-03   -0.11714E-03  9568   0.237E-02 0.149E-04
CGA:  18    -0.312959574277E+03   -0.67200E-04   -0.67173E-04  9568   0.113E-02-0.123E-05
CGA:  19    -0.312959630638E+03   -0.56362E-04   -0.56361E-04  9568   0.135E-02 0.372E-06
CGA:  20    -0.312959662023E+03   -0.31385E-04   -0.31362E-04  9568   0.113E-02 0.226E-06
CGA:  21    -0.312959722811E+03   -0.60788E-04   -0.60754E-04  9568   0.363E-03 0.199E-05
CGA:  22    -0.312959745675E+03   -0.22864E-04   -0.22893E-04  9568   0.958E-03-0.114E-05
CGA:  23    -0.312959768196E+03   -0.22521E-04   -0.22538E-04  9568   0.423E-03 0.120E-05
CGA:  24    -0.312959785538E+03   -0.17342E-04   -0.17336E-04  9568   0.263E-03 0.166E-05
CGA:  25    -0.312959795870E+03   -0.10332E-04   -0.10332E-04  9568   0.329E-03 0.241E-06
CGA:  26    -0.312959809836E+03   -0.13966E-04   -0.13966E-04  9568   0.267E-03 0.118E-06
CGA:  27    -0.312959815593E+03   -0.57571E-05   -0.57742E-05  9568   0.167E-03 0.867E-06
 165 F= -.31295982E+03 E0= -.31293864E+03  d E =0.531251E-02  mag=    25.9044
       N       E                     dE             d eps       ncg     rms          ort
SDA:   1    -0.312926613454E+03    0.33196E-01    0.00000E+00  9568   0.170E+00 0.000E+00
CGA:   2    -0.312932261075E+03   -0.56476E-02   -0.56693E-02  9568   0.183E+00 0.214E-02
CGA:   3    -0.312939987446E+03   -0.77264E-02   -0.77120E-02  9568   0.288E+00 0.193E-02
CGA:   4    -0.312948693704E+03   -0.87063E-02   -0.87026E-02  9568   0.171E+00-0.112E-03
CGA:   5    -0.312952547046E+03   -0.38533E-02   -0.38575E-02  9568   0.407E-01-0.389E-04
CGA:   6    -0.312955696251E+03   -0.31492E-02   -0.31448E-02  9568   0.545E-01 0.111E-03
CGA:   7    -0.312957258944E+03   -0.15627E-02   -0.15630E-02  9568   0.531E-01 0.108E-04
CGA:   8    -0.312958329965E+03   -0.10710E-02   -0.10567E-02  9568   0.787E-02 0.317E-03
CGA:   9    -0.312958768587E+03   -0.43862E-03   -0.44014E-03  9568   0.128E-01-0.676E-04
CGA:  10    -0.312959163261E+03   -0.39467E-03   -0.39528E-03  9568   0.386E-02 0.322E-04
CGA:  11    -0.312959317503E+03   -0.15424E-03   -0.15428E-03  9568   0.437E-02-0.101E-04
CGA:  12    -0.312959389028E+03   -0.71526E-04   -0.71507E-04  9568   0.103E-02 0.231E-05
CGA:  13    -0.312959467242E+03   -0.78213E-04   -0.78024E-04  9568   0.114E-02 0.513E-05
CGA:  14    -0.312959511083E+03   -0.43841E-04   -0.43839E-04  9568   0.708E-03-0.356E-05
CGA:  15    -0.312959525292E+03   -0.14209E-04   -0.14211E-04  9568   0.434E-03 0.852E-06
CGA:  16    -0.312959543938E+03   -0.18647E-04   -0.18644E-04  9568   0.578E-03 0.318E-06
CGA:  17    -0.312959559964E+03   -0.16025E-04   -0.16016E-04  9568   0.145E-03-0.268E-06
CGA:  18    -0.312959568607E+03   -0.86432E-05   -0.86375E-05  9568   0.128E-03 0.280E-06
 166 F= -.31295957E+03 E0= -.31293839E+03  d E =0.246986E-03  mag=    25.9057
       N       E                     dE             d eps       ncg     rms          ort
SDA:   1    -0.312874493524E+03    0.85066E-01    0.00000E+00  9568   0.398E+01 0.000E+00
CGA:   2    -0.312913074149E+03   -0.38581E-01   -0.36812E-01  9568   0.167E+00 0.151E+00
CGA:   3    -0.312925479108E+03   -0.12405E-01   -0.12621E-01  9568   0.479E+00-0.599E-02
CGA:   4    -0.312934656164E+03   -0.91771E-02   -0.93272E-02  9568   0.311E+00-0.337E-02
CGA:   5    -0.312946044451E+03   -0.11388E-01   -0.11392E-01  9568   0.133E+00 0.185E-02
CGA:   6    -0.312948303556E+03   -0.22591E-02   -0.21996E-02  9568   0.908E-01 0.224E-02
CGA:   7    -0.312952618427E+03   -0.43149E-02   -0.43261E-02  9568   0.101E+00-0.795E-03
CGA:   8    -0.312955437162E+03   -0.28187E-02   -0.28265E-02  9568   0.887E-01 0.165E-03
CGA:   9    -0.312957047822E+03   -0.16107E-02   -0.16235E-02  9568   0.303E-01-0.375E-03
CGA:  10    -0.312957718797E+03   -0.67098E-03   -0.67758E-03  9568   0.172E-01-0.322E-04
CGA:  11    -0.312958390428E+03   -0.67163E-03   -0.67155E-03  9568   0.194E-01 0.958E-05
CGA:  12    -0.312958717884E+03   -0.32746E-03   -0.32608E-03  9568   0.824E-02 0.370E-04
CGA:  13    -0.312959077313E+03   -0.35943E-03   -0.35932E-03  9568   0.445E-02 0.968E-05
CGA:  14    -0.312959155636E+03   -0.78322E-04   -0.78426E-04  9568   0.357E-02 0.486E-07
CGA:  15    -0.312959335441E+03   -0.17981E-03   -0.17989E-03  9568   0.138E-02-0.464E-05
CGA:  16    -0.312959365202E+03   -0.29761E-04   -0.29735E-04  9568   0.156E-02-0.543E-06
CGA:  17    -0.312959426694E+03   -0.61492E-04   -0.61469E-04  9568   0.791E-03 0.355E-05
CGA:  18    -0.312959454919E+03   -0.28225E-04   -0.28227E-04  9568   0.120E-02-0.694E-06
CGA:  19    -0.312959486706E+03   -0.31787E-04   -0.31762E-04  9568   0.714E-03-0.152E-05
CGA:  20    -0.312959500602E+03   -0.13895E-04   -0.13933E-04  9568   0.247E-03 0.115E-05
CGA:  21    -0.312959510668E+03   -0.10067E-04   -0.10059E-04  9568   0.320E-03 0.931E-06
CGA:  22    -0.312959518805E+03   -0.81366E-05   -0.81344E-05  9568   0.329E-03-0.130E-06
CGA:  23    -0.312959529065E+03   -0.10260E-04   -0.10262E-04  9568   0.111E-03 0.891E-06
CGA:  24    -0.312959534423E+03   -0.53577E-05   -0.53464E-05  9568   0.340E-03 0.737E-06
 167 F= -.31295953E+03 E0= -.31293831E+03  d E =0.341840E-04  mag=    25.9075
