       N       E                     dE             d eps       ncg     rms          rms(c)
DAV:   1     0.653138722877E+04    0.65314E+04   -0.28015E+05 37584   0.153E+03
DAV:   2     0.348545775042E+03   -0.61828E+04   -0.58140E+04 38064   0.467E+02
DAV:   3    -0.378556377533E+03   -0.72710E+03   -0.71388E+03 39480   0.171E+02
DAV:   4    -0.410083064558E+03   -0.31527E+02   -0.30920E+02 49736   0.313E+01
DAV:   5    -0.412297012167E+03   -0.22139E+01   -0.22001E+01 62592   0.630E+00    0.637E+01
DAV:   6    -0.351638135646E+03    0.60659E+02   -0.28109E+02 41264   0.412E+01    0.521E+01
DAV:   7    -0.367882103995E+03   -0.16244E+02   -0.78333E+01 41656   0.256E+01    0.707E+01
DAV:   8    -0.371010042457E+03   -0.31279E+01   -0.60995E+01 41360   0.191E+01    0.521E+01
DAV:   9    -0.356337235065E+03    0.14673E+02   -0.11306E+01 41400   0.112E+01    0.408E+01
DAV:  10    -0.362179697460E+03   -0.58425E+01   -0.38421E+01 43760   0.975E+00    0.452E+01
DAV:  11    -0.362520670660E+03   -0.34097E+00   -0.27292E+01 43392   0.108E+01    0.363E+01
DAV:  12    -0.364293068236E+03   -0.17724E+01   -0.19180E+01 42872   0.804E+00    0.282E+01
DAV:  13    -0.369639566493E+03   -0.53465E+01   -0.50103E+00 42832   0.489E+00    0.197E+01
DAV:  14    -0.372481999459E+03   -0.28424E+01   -0.37785E+00 43152   0.396E+00    0.226E+01
DAV:  15    -0.374294949191E+03   -0.18129E+01   -0.38068E+00 43480   0.375E+00    0.213E+01
DAV:  16    -0.376471242957E+03   -0.21763E+01   -0.37410E+00 44248   0.333E+00    0.163E+01
DAV:  17    -0.377043171789E+03   -0.57193E+00   -0.20755E+00 44512   0.252E+00    0.151E+01
DAV:  18    -0.377231894194E+03   -0.18872E+00   -0.69566E-01 43792   0.170E+00    0.131E+01
DAV:  19    -0.377649247619E+03   -0.41735E+00   -0.62131E-01 44360   0.148E+00    0.120E+01
DAV:  20    -0.378325599815E+03   -0.67635E+00   -0.59125E-01 44712   0.197E+00    0.939E+00
DAV:  21    -0.378623482666E+03   -0.29788E+00   -0.75475E-01 44816   0.148E+00    0.989E+00
DAV:  22    -0.378614248700E+03    0.92340E-02   -0.51662E-02 41936   0.574E-01    0.101E+01
DAV:  23    -0.378607462940E+03    0.67858E-02   -0.50350E-03 44712   0.143E-01    0.103E+01
DAV:  24    -0.378535359539E+03    0.72103E-01   -0.26382E-02 46816   0.522E-01    0.934E+00
DAV:  25    -0.378512205801E+03    0.23154E-01   -0.42614E-01 47320   0.961E-01    0.563E+00
DAV:  26    -0.378675432617E+03   -0.16323E+00   -0.61660E-02 40688   0.748E-01    0.577E+00
DAV:  27    -0.378685902353E+03   -0.10470E-01   -0.22334E-02 44592   0.382E-01    0.570E+00
DAV:  28    -0.378629881999E+03    0.56020E-01   -0.21554E-02 42040   0.336E-01    0.576E+00
DAV:  29    -0.378754680571E+03   -0.12480E+00   -0.24338E-02 43376   0.393E-01    0.619E+00
DAV:  30    -0.378908689405E+03   -0.15401E+00   -0.72419E-02 45840   0.708E-01    0.527E+00
DAV:  31    -0.379202098427E+03   -0.29341E+00   -0.11120E-01 44720   0.695E-01    0.582E+00
DAV:  32    -0.379486531809E+03   -0.28443E+00   -0.10980E-01 42456   0.686E-01    0.553E+00
DAV:  33    -0.379670955577E+03   -0.18442E+00   -0.11172E-01 42400   0.640E-01    0.461E+00
DAV:  34    -0.379910192162E+03   -0.23924E+00   -0.30857E-01 42800   0.711E-01    0.936E+00
DAV:  35    -0.379918178873E+03   -0.79867E-02   -0.44214E-02 40048   0.328E-01    0.111E+01
DAV:  36    -0.379927946692E+03   -0.97678E-02   -0.93760E-03 41992   0.191E-01    0.117E+01
DAV:  37    -0.379997494463E+03   -0.69548E-01   -0.11031E-02 48280   0.249E-01    0.121E+01
DAV:  38    -0.379966163490E+03    0.31331E-01   -0.12810E-03 42120   0.120E-01    0.120E+01
DAV:  39    -0.379879586151E+03    0.86577E-01   -0.15782E-02 55264   0.311E-01    0.110E+01
DAV:  40    -0.379817304925E+03    0.62281E-01   -0.38709E-01 47776   0.478E-01    0.581E+00
DAV:  41    -0.379903584485E+03   -0.86280E-01   -0.81840E-02 43064   0.691E-01    0.687E+00
DAV:  42    -0.379950818469E+03   -0.47234E-01   -0.92322E-02 40456   0.262E-01    0.102E+01
DAV:  43    -0.379882235432E+03    0.68583E-01   -0.21797E-02 46656   0.384E-01    0.839E+00
DAV:  44    -0.379875921371E+03    0.63141E-02   -0.17498E-01 47024   0.357E-01    0.533E+00
DAV:  45    -0.379910512655E+03   -0.34591E-01   -0.15218E-02 38688   0.263E-01    0.514E+00
DAV:  46    -0.379910391633E+03    0.12102E-03   -0.16723E-03 44824   0.123E-01    0.503E+00
DAV:  47    -0.379909315533E+03    0.10761E-02   -0.20115E-02 54424   0.235E-01    0.525E+00
DAV:  48    -0.379939505484E+03   -0.30190E-01   -0.89728E-02 47320   0.211E-01    0.844E+00
DAV:  49    -0.379938201814E+03    0.13037E-02   -0.19221E-02 37968   0.216E-01    0.101E+01
DAV:  50    -0.379919673094E+03    0.18529E-01   -0.24909E-03 45040   0.141E-01    0.103E+01
DAV:  51    -0.379897221560E+03    0.22452E-01   -0.62752E-03 52592   0.123E-01    0.935E+00
DAV:  52    -0.379913225105E+03   -0.16004E-01   -0.16162E-03 42480   0.949E-02    0.937E+00
DAV:  53    -0.379906997650E+03    0.62275E-02   -0.29749E-03 49128   0.728E-02    0.874E+00
DAV:  54    -0.379903397306E+03    0.36003E-02   -0.82463E-03 42544   0.671E-02    0.772E+00
DAV:  55    -0.379913372396E+03   -0.99751E-02   -0.21057E-03 38888   0.710E-02    0.735E+00
DAV:  56    -0.379929078391E+03   -0.15706E-01   -0.74403E-03 48632   0.104E-01    0.825E+00
DAV:  57    -0.379936726228E+03   -0.76478E-02   -0.86894E-03 40888   0.583E-02    0.947E+00
DAV:  58    -0.379933180762E+03    0.35455E-02   -0.25652E-03 38504   0.655E-02    0.101E+01
DAV:  59    -0.379930053234E+03    0.31275E-02   -0.92810E-04 40800   0.398E-02    0.104E+01
DAV:  60    -0.379932051307E+03   -0.19981E-02   -0.65776E-04 35848   0.218E-02    0.108E+01
DAV:  61    -0.379930174882E+03    0.18764E-02   -0.17784E-04 37864   0.303E-02    0.108E+01
DAV:  62    -0.379936136646E+03   -0.59618E-02   -0.39541E-04 34232   0.282E-02    0.111E+01
DAV:  63    -0.379941111710E+03   -0.49751E-02   -0.43096E-04 38704   0.252E-02    0.114E+01
DAV:  64    -0.379945507843E+03   -0.43961E-02   -0.31924E-04 34680   0.201E-02    0.116E+01
DAV:  65    -0.379945846065E+03   -0.33822E-03   -0.68543E-05 28208   0.107E-02    0.116E+01
DAV:  66    -0.380702142440E+03   -0.75630E+00   -0.54253E-01 57296   0.267E+00    0.146E+01
DAV:  67    -0.380783094327E+03   -0.80952E-01   -0.12345E-01 41952   0.639E-01    0.157E+01
DAV:  68    -0.380778949164E+03    0.41452E-02   -0.39911E-03 49536   0.108E-01    0.160E+01
DAV:  69    -0.380796919666E+03   -0.17971E-01   -0.11029E-03 54808   0.661E-02    0.165E+01
DAV:  70    -0.380796472102E+03    0.44756E-03   -0.13969E-03 49384   0.907E-02    0.167E+01
DAV:  71    -0.380755945019E+03    0.40527E-01   -0.85316E-03 51344   0.138E-01    0.160E+01
DAV:  72    -0.380761024696E+03   -0.50797E-02   -0.74691E-04 39392   0.582E-02    0.159E+01
DAV:  73    -0.380745981328E+03    0.15043E-01   -0.11753E-03 48160   0.862E-02    0.159E+01
DAV:  74    -0.380773118482E+03   -0.27137E-01   -0.47794E-04 46272   0.789E-02    0.161E+01
DAV:  75    -0.380726871635E+03    0.46247E-01   -0.31052E-03 52808   0.180E-01    0.161E+01
DAV:  76    -0.381007875992E+03   -0.28100E+00   -0.23745E-01 54048   0.638E-01    0.209E+01
DAV:  77    -0.381024269713E+03   -0.16394E-01   -0.19756E-02 39936   0.211E-01    0.227E+01
DAV:  78    -0.381040767075E+03   -0.16497E-01   -0.37925E-03 43080   0.963E-02    0.234E+01
DAV:  79    -0.381019058737E+03    0.21708E-01   -0.11125E-03 45256   0.114E-01    0.233E+01
DAV:  80    -0.380981988025E+03    0.37071E-01   -0.30020E-03 49032   0.899E-02    0.229E+01
DAV:  81    -0.380917630708E+03    0.64357E-01   -0.11444E-02 52632   0.292E-01    0.217E+01
DAV:  82    -0.380918959263E+03   -0.13286E-02   -0.36662E-03 40064   0.894E-02    0.209E+01
DAV:  83    -0.380967745419E+03   -0.48786E-01   -0.93353E-03 57648   0.294E-01    0.208E+01
DAV:  84    -0.380945420004E+03    0.22325E-01   -0.14816E-02 44448   0.146E-01    0.198E+01
DAV:  85    -0.381027285687E+03   -0.81866E-01   -0.11492E-02 50088   0.214E-01    0.202E+01
DAV:  86    -0.381009949164E+03    0.17337E-01   -0.60217E-03 46648   0.131E-01    0.198E+01
DAV:  87    -0.381006218897E+03    0.37303E-02   -0.10435E-03 39312   0.583E-02    0.196E+01
DAV:  88    -0.381026694462E+03   -0.20476E-01   -0.81461E-04 47816   0.747E-02    0.198E+01
DAV:  89    -0.381006647470E+03    0.20047E-01   -0.13801E-03 52264   0.113E-01    0.195E+01
DAV:  90    -0.381023493822E+03   -0.16846E-01   -0.56273E-03 52520   0.224E-01    0.196E+01
DAV:  91    -0.380990632150E+03    0.32862E-01   -0.55990E-03 46008   0.154E-01    0.188E+01
DAV:  92    -0.381021967685E+03   -0.31336E-01   -0.24759E-03 50104   0.150E-01    0.189E+01
DAV:  93    -0.380960482351E+03    0.61485E-01   -0.19660E-02 50352   0.169E-01    0.174E+01
DAV:  94    -0.380931121321E+03    0.29361E-01   -0.36354E-03 44488   0.161E-01    0.164E+01
DAV:  95    -0.380888196302E+03    0.42925E-01   -0.16656E-02 51320   0.191E-01    0.157E+01
DAV:  96    -0.380856998135E+03    0.31198E-01   -0.34833E-03 48432   0.160E-01    0.156E+01
DAV:  97    -0.380855050889E+03    0.19472E-02   -0.83126E-04 42456   0.612E-02    0.156E+01
DAV:  98    -0.380855145554E+03   -0.94665E-04   -0.71955E-05 40688   0.260E-02    0.156E+01
DAV:  99    -0.380852484551E+03    0.26610E-02   -0.10022E-03 49560   0.650E-02    0.155E+01
DAV: 100    -0.380846143659E+03    0.63409E-02   -0.17479E-03 50936   0.884E-02    0.153E+01
DAV: 101    -0.380890288895E+03   -0.44145E-01   -0.13707E-01 55208   0.131E+00    0.159E+01
DAV: 102    -0.380919742811E+03   -0.29454E-01   -0.25655E-02 41568   0.332E-01    0.166E+01
DAV: 103    -0.380903731360E+03    0.16011E-01   -0.24183E-03 45848   0.956E-02    0.168E+01
DAV: 104    -0.380885388135E+03    0.18343E-01   -0.38603E-03 52912   0.204E-01    0.166E+01
DAV: 105    -0.380886292844E+03   -0.90471E-03   -0.53580E-03 46560   0.146E-01    0.162E+01
DAV: 106    -0.380091919723E+03    0.79437E+00   -0.51546E+00 55008   0.594E+00    0.146E+01
DAV: 107    -0.379966696967E+03    0.12522E+00   -0.52919E-01 43232   0.228E+00    0.108E+01
DAV: 108    -0.379850581173E+03    0.11612E+00   -0.39229E-01 50928   0.153E+00    0.776E+00
DAV: 109    -0.379847428811E+03    0.31524E-02   -0.35572E-01 50736   0.116E+00    0.598E+00
DAV: 110    -0.379880279404E+03   -0.32851E-01   -0.52095E-02 41336   0.591E-01    0.658E+00
DAV: 111    -0.380070293112E+03   -0.19001E+00   -0.10784E+00 52560   0.103E+00    0.109E+01
DAV: 112    -0.380105509468E+03   -0.35216E-01   -0.35271E-02 41600   0.416E-01    0.110E+01
DAV: 113    -0.379805383107E+03    0.30013E+00   -0.50231E-02 57776   0.111E+00    0.884E+00
DAV: 114    -0.379753240196E+03    0.52143E-01   -0.11756E+00 51760   0.984E-01    0.536E+00
DAV: 115    -0.379798322676E+03   -0.45082E-01   -0.43833E-02 39952   0.522E-01    0.479E+00
DAV: 116    -0.379789418432E+03    0.89042E-02   -0.40643E-02 55584   0.651E-01    0.445E+00
DAV: 117    -0.379802166844E+03   -0.12748E-01   -0.24252E-02 49200   0.400E-01    0.367E+00
DAV: 118    -0.379864772092E+03   -0.62605E-01   -0.19952E-01 50104   0.446E-01    0.717E+00
DAV: 119    -0.379842657068E+03    0.22115E-01   -0.19796E-02 39752   0.434E-01    0.708E+00
DAV: 120    -0.379833393056E+03    0.92640E-02   -0.67206E-03 45112   0.207E-01    0.616E+00
DAV: 121    -0.379821917471E+03    0.11476E-01   -0.77216E-02 53744   0.354E-01    0.347E+00
DAV: 122    -0.379837455241E+03   -0.15538E-01   -0.29776E-02 39952   0.251E-01    0.319E+00
DAV: 123    -0.379837927940E+03   -0.47270E-03   -0.33141E-03 40984   0.227E-01    0.311E+00
DAV: 124    -0.379844833691E+03   -0.69058E-02   -0.13954E-02 54680   0.247E-01    0.319E+00
DAV: 125    -0.379866331628E+03   -0.21498E-01   -0.25144E-02 43096   0.181E-01    0.488E+00
DAV: 126    -0.379854028679E+03    0.12303E-01   -0.31249E-02 46688   0.366E-01    0.361E+00
DAV: 127    -0.379865686641E+03   -0.11658E-01   -0.42164E-03 41640   0.142E-01    0.389E+00
DAV: 128    -0.379866905175E+03   -0.12185E-02   -0.90982E-04 45376   0.436E-02    0.418E+00
DAV: 129    -0.379870427348E+03   -0.35222E-02   -0.20672E-03 37720   0.502E-02    0.482E+00
DAV: 130    -0.379867413908E+03    0.30134E-02   -0.33926E-04 37560   0.548E-02    0.494E+00
DAV: 131    -0.379876419688E+03   -0.90058E-02   -0.21428E-02 46104   0.250E-01    0.539E+00
DAV: 132    -0.379875742205E+03    0.67748E-03   -0.21333E-03 41088   0.102E-01    0.532E+00
DAV: 133    -0.379876781954E+03   -0.10397E-02   -0.12809E-03 44856   0.730E-02    0.527E+00
DAV: 134    -0.379891078482E+03   -0.14297E-01   -0.61571E-03 52016   0.146E-01    0.610E+00
DAV: 135    -0.379890394904E+03    0.68358E-03   -0.10688E-03 38248   0.507E-02    0.648E+00
DAV: 136    -0.379912438019E+03   -0.22043E-01   -0.51839E-02 57160   0.321E-01    0.900E+00
DAV: 137    -0.379903161803E+03    0.92762E-02   -0.66676E-03 38960   0.182E-01    0.101E+01
DAV: 138    -0.379894758963E+03    0.84028E-02   -0.16278E-03 41240   0.888E-02    0.105E+01
DAV: 139    -0.379894854278E+03   -0.95315E-04   -0.61768E-04 40192   0.347E-02    0.109E+01
DAV: 140    -0.379891879587E+03    0.29747E-02   -0.23134E-04 37888   0.314E-02    0.111E+01
DAV: 141    -0.379892169202E+03   -0.28962E-03   -0.37495E-03 53928   0.208E-01    0.112E+01
DAV: 142    -0.379929121765E+03   -0.36953E-01   -0.19539E-02 52976   0.196E-01    0.124E+01
DAV: 143    -0.379978052337E+03   -0.48931E-01   -0.11331E-02 50520   0.184E-01    0.129E+01
DAV: 144    -0.380081328688E+03   -0.10328E+00   -0.48924E-03 56280   0.335E-01    0.131E+01
DAV: 145    -0.380143762464E+03   -0.62434E-01   -0.43338E-03 48496   0.223E-01    0.130E+01
DAV: 146    -0.380180003655E+03   -0.36241E-01   -0.19141E-02 54776   0.504E-01    0.131E+01
DAV: 147    -0.380295911146E+03   -0.11591E+00   -0.10574E-02 48608   0.373E-01    0.135E+01
DAV: 148    -0.380295695402E+03    0.21574E-03   -0.35165E-03 44144   0.134E-01    0.135E+01
DAV: 149    -0.380266572505E+03    0.29123E-01   -0.73558E-04 56232   0.118E-01    0.134E+01
DAV: 150    -0.380245963542E+03    0.20609E-01   -0.88624E-04 53896   0.118E-01    0.134E+01
DAV: 151    -0.380256923267E+03   -0.10960E-01   -0.12433E-03 50488   0.101E-01    0.133E+01
DAV: 152    -0.380271790075E+03   -0.14867E-01   -0.21509E-03 49488   0.101E-01    0.132E+01
DAV: 153    -0.380210556128E+03    0.61234E-01   -0.22257E-03 48600   0.171E-01    0.129E+01
DAV: 154    -0.380033567064E+03    0.17699E+00   -0.78758E-03 53552   0.485E-01    0.122E+01
DAV: 155    -0.379886416566E+03    0.14715E+00   -0.13190E-02 51504   0.449E-01    0.114E+01
DAV: 156    -0.379979168717E+03   -0.92752E-01   -0.10067E-02 44368   0.316E-01    0.119E+01
DAV: 157    -0.379933468079E+03    0.45701E-01   -0.86200E-04 45528   0.140E-01    0.118E+01
DAV: 158    -0.379902581971E+03    0.30886E-01   -0.94112E-04 46792   0.103E-01    0.116E+01
DAV: 159    -0.379884712388E+03    0.17870E-01   -0.10208E-03 45440   0.720E-02    0.114E+01
DAV: 160    -0.379881050409E+03    0.36620E-02   -0.34084E-04 42464   0.340E-02    0.113E+01
DAV: 161    -0.379994339683E+03   -0.11329E+00   -0.21659E-02 54976   0.338E-01    0.123E+01
DAV: 162    -0.379857332164E+03    0.13701E+00   -0.12637E-02 50800   0.410E-01    0.110E+01
DAV: 163    -0.379816595515E+03    0.40737E-01   -0.54017E-02 48592   0.179E-01    0.767E+00
DAV: 164    -0.379847236220E+03   -0.30641E-01   -0.82692E-03 38280   0.156E-01    0.644E+00
DAV: 165    -0.379867155020E+03   -0.19919E-01   -0.12010E-03 43744   0.116E-01    0.676E+00
DAV: 166    -0.379907119172E+03   -0.39964E-01   -0.51857E-02 62000   0.286E-01    0.100E+01
DAV: 167    -0.379819899361E+03    0.87220E-01   -0.12370E-01 44840   0.460E-01    0.569E+00
DAV: 168    -0.379851053889E+03   -0.31155E-01   -0.45707E-02 39032   0.138E-01    0.407E+00
DAV: 169    -0.379860758363E+03   -0.97045E-02   -0.10261E-02 40152   0.142E-01    0.350E+00
DAV: 170    -0.379860951020E+03   -0.19266E-03   -0.28244E-03 42736   0.965E-02    0.304E+00
DAV: 171    -0.379860665083E+03    0.28594E-03   -0.57611E-03 52744   0.299E-01    0.246E+00
DAV: 172    -0.379874004443E+03   -0.13339E-01   -0.45311E-02 50560   0.252E-01    0.450E+00
DAV: 173    -0.379891171241E+03   -0.17167E-01   -0.37300E-02 41248   0.187E-01    0.753E+00
DAV: 174    -0.379879237144E+03    0.11934E-01   -0.63533E-03 39512   0.148E-01    0.868E+00
DAV: 175    -0.379863372296E+03    0.15865E-01   -0.10297E-03 45304   0.901E-02    0.875E+00
DAV: 176    -0.379831065299E+03    0.32307E-01   -0.22536E-02 52896   0.144E-01    0.630E+00
DAV: 177    -0.379828348953E+03    0.27163E-02   -0.63457E-02 43640   0.166E-01    0.211E+00
DAV: 178    -0.379855108790E+03   -0.26760E-01   -0.10427E-02 37248   0.192E-01    0.124E+00
DAV: 179    -0.379863046418E+03   -0.79376E-02   -0.36153E-03 45280   0.165E-01    0.182E+00
DAV: 180    -0.379874062264E+03   -0.11016E-01   -0.23182E-02 52088   0.140E-01    0.399E+00
DAV: 181    -0.379866238378E+03    0.78239E-02   -0.16320E-03 38600   0.125E-01    0.428E+00
DAV: 182    -0.379862222216E+03    0.40162E-02   -0.26715E-04 42048   0.443E-02    0.423E+00
DAV: 183    -0.379862857101E+03   -0.63488E-03   -0.12926E-04 41840   0.263E-02    0.433E+00
DAV: 184    -0.379860335409E+03    0.25217E-02   -0.13036E-04 33920   0.210E-02    0.409E+00
DAV: 185    -0.379857565124E+03    0.27703E-02   -0.76039E-04 33560   0.307E-02    0.346E+00
DAV: 186    -0.379859892924E+03   -0.23278E-02   -0.39097E-04 38560   0.467E-02    0.326E+00
DAV: 187    -0.379862072435E+03   -0.21795E-02   -0.15967E-04 41568   0.350E-02    0.341E+00
DAV: 188    -0.379860991006E+03    0.10814E-02   -0.12406E-04 36640   0.230E-02    0.336E+00
DAV: 189    -0.379859766227E+03    0.12248E-02   -0.24237E-04 32152   0.190E-02    0.314E+00
DAV: 190    -0.379860331402E+03   -0.56517E-03   -0.91046E-05 27768   0.152E-02    0.305E+00
DAV: 191    -0.379860091555E+03    0.23985E-03   -0.23550E-04 38392   0.306E-02    0.295E+00
DAV: 192    -0.379860396540E+03   -0.30499E-03   -0.60614E-05 36088   0.174E-02    0.293E+00
DAV: 193    -0.379857027792E+03    0.33687E-02   -0.26127E-03 36232   0.470E-02    0.223E+00
DAV: 194    -0.379857079169E+03   -0.51377E-04   -0.25045E-03 37592   0.409E-02    0.151E+00
DAV: 195    -0.379858928487E+03   -0.18493E-02   -0.35176E-04 35224   0.360E-02    0.128E+00
DAV: 196    -0.379858444849E+03    0.48364E-03   -0.64952E-04 38392   0.479E-02    0.933E-01
DAV: 197    -0.379858789953E+03   -0.34510E-03   -0.18031E-04 36904   0.320E-02    0.823E-01
DAV: 198    -0.379859230256E+03   -0.44030E-03   -0.42864E-05 32752   0.182E-02    0.873E-01
DAV: 199    -0.379859540720E+03   -0.31046E-03   -0.68112E-05 27944   0.127E-02    0.975E-01
DAV: 200    -0.379859501893E+03    0.38827E-04   -0.14443E-05 24464   0.653E-03
   1 F= -.37985950E+03 E0= -.37985097E+03  d E =-.379860E+03  mag=    46.0435
       N       E                     dE             d eps       ncg     rms          rms(c)
DAV:   1    -0.379913753999E+03   -0.54213E-01   -0.33476E-02 38376   0.285E-01    0.101E+00
DAV:   2    -0.379924014821E+03   -0.10261E-01   -0.17629E-01 49312   0.901E-01    0.280E+00
DAV:   3    -0.379921143917E+03    0.28709E-02   -0.11903E-01 47288   0.553E-01    0.307E+00
DAV:   4    -0.379912341504E+03    0.88024E-02   -0.10270E-02 43176   0.352E-01    0.141E+00
DAV:   5    -0.379912348420E+03   -0.69160E-05   -0.14349E-02 48000   0.211E-01    0.870E-01
DAV:   6    -0.379912392894E+03   -0.44474E-04   -0.37649E-03 48536   0.157E-01    0.811E-01
DAV:   7    -0.379911424443E+03    0.96845E-03   -0.40638E-03 46200   0.138E-01    0.250E-01
DAV:   8    -0.379911750520E+03   -0.32608E-03   -0.96958E-04 48712   0.686E-02    0.382E-01
DAV:   9    -0.379911607389E+03    0.14313E-03   -0.59578E-04 43808   0.617E-02    0.252E-01
DAV:  10    -0.379911554650E+03    0.52739E-04   -0.31633E-04 41488   0.444E-02    0.117E-01
DAV:  11    -0.379911568982E+03   -0.14332E-04   -0.13530E-04 35544   0.312E-02    0.104E-01
DAV:  12    -0.379911603741E+03   -0.34758E-04   -0.14919E-04 33376   0.253E-02    0.208E-01
DAV:  13    -0.379911572028E+03    0.31713E-04   -0.70274E-05 29448   0.225E-02    0.161E-01
DAV:  14    -0.379911549175E+03    0.22852E-04   -0.40925E-05 30248   0.158E-02    0.487E-02
DAV:  15    -0.379911561332E+03   -0.12156E-04   -0.28486E-05 28488   0.127E-02    0.420E-02
DAV:  16    -0.379911566063E+03   -0.47309E-05   -0.25817E-05 24408   0.923E-03
   2 F= -.37991157E+03 E0= -.37990470E+03  d E =-.520642E-01  mag=    46.0077
       N       E                     dE             d eps       ncg     rms          rms(c)
DAV:   1    -0.381143967653E+03   -0.12324E+01   -0.30474E+01 38400   0.860E+00    0.138E+00
DAV:   2    -0.381264299478E+03   -0.12033E+00   -0.13020E+00 41112   0.165E+00    0.435E+00
DAV:   3    -0.381240485364E+03    0.23814E-01   -0.11879E-01 48600   0.707E-01    0.134E+00
DAV:   4    -0.381247277852E+03   -0.67925E-02   -0.38196E-02 43568   0.361E-01    0.203E+00
DAV:   5    -0.381240033494E+03    0.72444E-02   -0.21801E-02 49360   0.321E-01    0.108E+00
DAV:   6    -0.381239653704E+03    0.37979E-03   -0.14228E-02 47784   0.281E-01    0.127E+00
DAV:   7    -0.381240227617E+03   -0.57391E-03   -0.97357E-03 47904   0.209E-01    0.163E+00
DAV:   8    -0.381236583206E+03    0.36444E-02   -0.29890E-03 51000   0.165E-01    0.528E-01
DAV:   9    -0.381237540374E+03   -0.95717E-03   -0.21571E-03 46096   0.876E-02    0.279E-01
DAV:  10    -0.381237819547E+03   -0.27917E-03   -0.55545E-04 40032   0.571E-02    0.368E-01
DAV:  11    -0.381237633082E+03    0.18646E-03   -0.41163E-04 38616   0.372E-02    0.104E-01
DAV:  12    -0.381237686813E+03   -0.53732E-04   -0.63821E-05 32120   0.178E-02    0.865E-02
DAV:  13    -0.381237697049E+03   -0.10236E-04   -0.47900E-05 30160   0.146E-02    0.121E-01
DAV:  14    -0.381237677923E+03    0.19126E-04   -0.60994E-05 27808   0.127E-02    0.335E-02
DAV:  15    -0.381237690151E+03   -0.12228E-04   -0.20119E-05 24312   0.853E-03    0.584E-02
DAV:  16    -0.381237693450E+03   -0.32987E-05   -0.71637E-06 23536   0.747E-03
   3 F= -.38123769E+03 E0= -.38123092E+03  d E =-.132613E+01  mag=    46.0010
       N       E                     dE             d eps       ncg     rms          rms(c)
DAV:   1    -0.382243704765E+03   -0.10060E+01   -0.11810E+02 39808   0.191E+01    0.240E+00
DAV:   2    -0.382764091616E+03   -0.52039E+00   -0.55819E+00 39784   0.338E+00    0.386E+00
DAV:   3    -0.382787545896E+03   -0.23454E-01   -0.74529E-01 49672   0.117E+00    0.528E+00
DAV:   4    -0.382737354938E+03    0.50191E-01   -0.15593E-01 45728   0.755E-01    0.213E+00
DAV:   5    -0.382737045131E+03    0.30981E-03   -0.67929E-02 51240   0.455E-01    0.139E+00
DAV:   6    -0.382732370320E+03    0.46748E-02   -0.23895E-02 45576   0.373E-01    0.141E+00
DAV:   7    -0.382728849741E+03    0.35206E-02   -0.16001E-02 45208   0.370E-01    0.110E+00
DAV:   8    -0.382727452338E+03    0.13974E-02   -0.10420E-02 50256   0.246E-01    0.534E-01
DAV:   9    -0.382727239672E+03    0.21267E-03   -0.15487E-03 48048   0.109E-01    0.297E-01
DAV:  10    -0.382727427134E+03   -0.18746E-03   -0.19854E-03 49352   0.942E-02    0.436E-01
DAV:  11    -0.382727308960E+03    0.11817E-03   -0.10592E-03 47712   0.690E-02    0.281E-01
DAV:  12    -0.382727338222E+03   -0.29261E-04   -0.53630E-04 47168   0.477E-02    0.187E-01
DAV:  13    -0.382727382645E+03   -0.44424E-04   -0.10504E-04 41272   0.326E-02    0.207E-01
DAV:  14    -0.382727316810E+03    0.65836E-04   -0.14292E-04 35120   0.258E-02    0.675E-02
DAV:  15    -0.382727361809E+03   -0.44999E-04   -0.10763E-04 34912   0.188E-02    0.169E-01
DAV:  16    -0.382727338057E+03    0.23752E-04   -0.63255E-05 29760   0.190E-02    0.120E-01
DAV:  17    -0.382727327887E+03    0.10170E-04   -0.21407E-05 29152   0.133E-02    0.501E-02
DAV:  18    -0.382727332952E+03   -0.50658E-05   -0.18284E-05 24672   0.866E-03
   4 F= -.38272733E+03 E0= -.38272090E+03  d E =-.148964E+01  mag=    46.0001
       N       E                     dE             d eps       ncg     rms          rms(c)
DAV:   1    -0.382933942902E+03   -0.20662E+00   -0.14096E+02 40832   0.246E+01    0.272E+00
DAV:   2    -0.383584906115E+03   -0.65096E+00   -0.67195E+00 38736   0.409E+00    0.270E+00
DAV:   3    -0.383609252272E+03   -0.24346E-01   -0.30641E-01 51680   0.106E+00    0.477E+00
DAV:   4    -0.383572697046E+03    0.36555E-01   -0.98879E-02 46992   0.760E-01    0.197E+00
DAV:   5    -0.383573977366E+03   -0.12803E-02   -0.47403E-02 47280   0.400E-01    0.150E+00
DAV:   6    -0.383568822355E+03    0.51550E-02   -0.18834E-02 45072   0.383E-01    0.130E+00
DAV:   7    -0.383563859025E+03    0.49633E-02   -0.12488E-02 46648   0.347E-01    0.502E-01
DAV:   8    -0.383563333819E+03    0.52521E-03   -0.47371E-03 47168   0.178E-01    0.412E-01
DAV:   9    -0.383563175418E+03    0.15840E-03   -0.31611E-03 45936   0.121E-01    0.305E-01
DAV:  10    -0.383563167393E+03    0.80257E-05   -0.11594E-03 51208   0.782E-02    0.216E-01
DAV:  11    -0.383563226226E+03   -0.58833E-04   -0.68472E-04 47168   0.595E-02    0.202E-01
DAV:  12    -0.383563189119E+03    0.37107E-04   -0.17266E-04 46560   0.379E-02    0.117E-01
DAV:  13    -0.383563189080E+03    0.38694E-07   -0.19518E-04 37512   0.318E-02    0.118E-01
DAV:  14    -0.383563186513E+03    0.25671E-05   -0.10219E-04 38048   0.250E-02    0.842E-02
DAV:  15    -0.383563181016E+03    0.54971E-05   -0.51237E-05 30128   0.173E-02
   5 F= -.38356318E+03 E0= -.38355697E+03  d E =-.835848E+00  mag=    46.0000
       N       E                     dE             d eps       ncg     rms          rms(c)
DAV:   1    -0.383192824599E+03    0.37036E+00   -0.13476E+02 40752   0.287E+01    0.344E+00
DAV:   2    -0.384040865392E+03   -0.84804E+00   -0.83550E+00 38088   0.493E+00    0.801E+00
DAV:   3    -0.384018089025E+03    0.22776E-01   -0.13723E+00 51856   0.183E+00    0.630E+00
DAV:   4    -0.383978670793E+03    0.39418E-01   -0.15621E-01 46488   0.105E+00    0.326E+00
DAV:   5    -0.383971492216E+03    0.71786E-02   -0.97467E-02 50120   0.613E-01    0.180E+00
DAV:   6    -0.383978642838E+03   -0.71506E-02   -0.24975E-02 46944   0.380E-01    0.191E+00
DAV:   7    -0.383975722991E+03    0.29198E-02   -0.87849E-03 49848   0.255E-01    0.153E+00
DAV:   8    -0.383971467578E+03    0.42554E-02   -0.52475E-03 53152   0.229E-01    0.677E-01
DAV:   9    -0.383971025387E+03    0.44219E-03   -0.74652E-03 44360   0.234E-01    0.774E-01
DAV:  10    -0.383970314088E+03    0.71130E-03   -0.54336E-03 50832   0.201E-01    0.573E-01
DAV:  11    -0.383970314096E+03   -0.84983E-08   -0.31690E-03 45968   0.130E-01    0.552E-01
DAV:  12    -0.383970860402E+03   -0.54631E-03   -0.99652E-04 50680   0.803E-02    0.888E-01
DAV:  13    -0.383969857757E+03    0.10026E-02   -0.33968E-04 44592   0.729E-02    0.524E-01
DAV:  14    -0.383969895391E+03   -0.37634E-04   -0.93145E-04 50288   0.715E-02    0.317E-01
DAV:  15    -0.383970102733E+03   -0.20734E-03   -0.49927E-04 38472   0.490E-02    0.321E-01
DAV:  16    -0.383970000460E+03    0.10227E-03   -0.60232E-05 39720   0.248E-02    0.215E-01
DAV:  17    -0.383969968324E+03    0.32136E-04   -0.17298E-04 39400   0.314E-02    0.109E-01
DAV:  18    -0.383970040679E+03   -0.72356E-04   -0.12982E-04 35312   0.199E-02    0.223E-01
DAV:  19    -0.383969985021E+03    0.55658E-04   -0.37157E-05 30712   0.195E-02    0.139E-01
DAV:  20    -0.383969980046E+03    0.49751E-05   -0.13794E-05 24672   0.810E-03
   6 F= -.38396998E+03 E0= -.38396403E+03  d E =-.406799E+00  mag=    46.0000
       N       E                     dE             d eps       ncg     rms          rms(c)
DAV:   1    -0.383537342636E+03    0.43264E+00   -0.92931E+01 40792   0.265E+01    0.331E+00
DAV:   2    -0.384241433878E+03   -0.70409E+00   -0.66941E+00 36976   0.463E+00    0.105E+01
DAV:   3    -0.384117529051E+03    0.12390E+00   -0.11017E+00 50264   0.179E+00    0.407E+00
DAV:   4    -0.384132123473E+03   -0.14594E-01   -0.93502E-02 44960   0.842E-01    0.217E+00
DAV:   5    -0.384132373018E+03   -0.24954E-03   -0.80089E-02 49976   0.546E-01    0.212E+00
DAV:   6    -0.384136351225E+03   -0.39782E-02   -0.29319E-02 46952   0.352E-01    0.200E+00
DAV:   7    -0.384133117734E+03    0.32335E-02   -0.66508E-03 48680   0.222E-01    0.144E+00
DAV:   8    -0.384131230251E+03    0.18875E-02   -0.39805E-03 54024   0.195E-01    0.839E-01
DAV:   9    -0.384130618148E+03    0.61210E-03   -0.78504E-03 44544   0.229E-01    0.776E-01
DAV:  10    -0.384130517748E+03    0.10040E-03   -0.34820E-03 48824   0.168E-01    0.763E-01
DAV:  11    -0.384129758455E+03    0.75929E-03   -0.22912E-03 48496   0.142E-01    0.353E-01
DAV:  12    -0.384130668938E+03   -0.91048E-03   -0.12783E-03 48216   0.734E-02    0.783E-01
DAV:  13    -0.384130190354E+03    0.47858E-03   -0.33476E-04 41792   0.649E-02    0.693E-01
DAV:  14    -0.384129578949E+03    0.61141E-03   -0.97519E-04 50824   0.785E-02    0.132E-01
DAV:  15    -0.384130030759E+03   -0.45181E-03   -0.64834E-04 38552   0.385E-02    0.309E-01
DAV:  16    -0.384129955826E+03    0.74933E-04   -0.93684E-05 37488   0.321E-02    0.231E-01
DAV:  17    -0.384129887510E+03    0.68316E-04   -0.11086E-04 43136   0.271E-02    0.712E-02
DAV:  18    -0.384129914792E+03   -0.27282E-04   -0.50131E-05 30184   0.139E-02    0.785E-02
DAV:  19    -0.384129935721E+03   -0.20930E-04   -0.29970E-05 27360   0.116E-02    0.142E-01
DAV:  20    -0.384129916937E+03    0.18784E-04   -0.66287E-06 25064   0.944E-03    0.113E-01
DAV:  21    -0.384129905332E+03    0.11604E-04   -0.12539E-05 23328   0.870E-03    0.351E-02
DAV:  22    -0.384129912225E+03   -0.68924E-05   -0.94306E-06 24192   0.642E-03
   7 F= -.38412991E+03 E0= -.38412414E+03  d E =-.159932E+00  mag=    46.0000
       N       E                     dE             d eps       ncg     rms          rms(c)
DAV:   1    -0.383331244705E+03    0.79866E+00   -0.16651E+02 39872   0.362E+01    0.422E+00
DAV:   2    -0.384409023464E+03   -0.10778E+01   -0.10307E+01 37120   0.620E+00    0.117E+01
DAV:   3    -0.384289498010E+03    0.11953E+00   -0.16274E+00 48824   0.215E+00    0.550E+00
DAV:   4    -0.384290329055E+03   -0.83105E-03   -0.15283E-01 45120   0.112E+00    0.310E+00
DAV:   5    -0.384280439500E+03    0.98896E-02   -0.11097E-01 50248   0.664E-01    0.222E+00
DAV:   6    -0.384285253637E+03   -0.48141E-02   -0.53555E-02 49104   0.442E-01    0.223E+00
DAV:   7    -0.384282721315E+03    0.25323E-02   -0.16433E-02 48152   0.332E-01    0.164E+00
DAV:   8    -0.384280316763E+03    0.24046E-02   -0.91989E-03 53360   0.234E-01    0.911E-01
DAV:   9    -0.384279642741E+03    0.67402E-03   -0.86443E-03 43592   0.243E-01    0.801E-01
DAV:  10    -0.384280270397E+03   -0.62766E-03   -0.56758E-03 50464   0.209E-01    0.108E+00
DAV:  11    -0.384278402322E+03    0.18681E-02   -0.35804E-03 45752   0.183E-01    0.482E-01
DAV:  12    -0.384279422536E+03   -0.10202E-02   -0.29671E-03 50160   0.111E-01    0.765E-01
DAV:  13    -0.384279490098E+03   -0.67562E-04   -0.78268E-04 42472   0.785E-02    0.850E-01
DAV:  14    -0.384278584484E+03    0.90561E-03   -0.55228E-04 50848   0.697E-02    0.482E-01
DAV:  15    -0.384278576676E+03    0.78080E-05   -0.13271E-03 48192   0.566E-02    0.186E-01
DAV:  16    -0.384278866233E+03   -0.28956E-03   -0.29705E-04 38304   0.407E-02    0.286E-01
DAV:  17    -0.384278739178E+03    0.12706E-03   -0.12751E-04 42040   0.373E-02    0.128E-01
DAV:  18    -0.384278747104E+03   -0.79261E-05   -0.10104E-04 39912   0.173E-02    0.744E-02
DAV:  19    -0.384278754036E+03   -0.69321E-05   -0.43605E-05 28344   0.157E-02
   8 F= -.38427875E+03 E0= -.38427255E+03  d E =-.148842E+00  mag=    46.0000
       N       E                     dE             d eps       ncg     rms          rms(c)
DAV:   1    -0.382810768975E+03    0.14680E+01   -0.35083E+02 39560   0.480E+01    0.501E+00
DAV:   2    -0.384594820503E+03   -0.17841E+01   -0.17623E+01 37264   0.825E+00    0.137E+01
DAV:   3    -0.384434195022E+03    0.16063E+00   -0.21381E+00 47584   0.253E+00    0.672E+00
DAV:   4    -0.384413314180E+03    0.20881E-01   -0.33702E-01 47824   0.148E+00    0.390E+00
DAV:   5    -0.384393149019E+03    0.20165E-01   -0.15032E-01 47152   0.855E-01    0.256E+00
DAV:   6    -0.384387205495E+03    0.59435E-02   -0.75899E-02 48272   0.614E-01    0.201E+00
DAV:   7    -0.384384510195E+03    0.26953E-02   -0.30725E-02 47752   0.451E-01    0.163E+00
DAV:   8    -0.384380959189E+03    0.35510E-02   -0.22533E-02 51048   0.317E-01    0.110E+00
DAV:   9    -0.384379549388E+03    0.14098E-02   -0.11434E-02 48008   0.312E-01    0.820E-01
DAV:  10    -0.384378927626E+03    0.62176E-03   -0.81348E-03 48808   0.257E-01    0.944E-01
DAV:  11    -0.384377416141E+03    0.15115E-02   -0.48799E-03 46064   0.197E-01    0.476E-01
DAV:  12    -0.384377864995E+03   -0.44885E-03   -0.26702E-03 45864   0.131E-01    0.547E-01
DAV:  13    -0.384377701374E+03    0.16362E-03   -0.74568E-04 48328   0.780E-02    0.477E-01
DAV:  14    -0.384377482081E+03    0.21929E-03   -0.98267E-04 51928   0.701E-02    0.348E-01
DAV:  15    -0.384377428303E+03    0.53778E-04   -0.79413E-04 48360   0.605E-02    0.153E-01
DAV:  16    -0.384377573306E+03   -0.14500E-03   -0.30796E-04 39800   0.436E-02    0.225E-01
DAV:  17    -0.384377522393E+03    0.50913E-04   -0.12727E-04 42672   0.316E-02    0.140E-01
DAV:  18    -0.384377499420E+03    0.22973E-04   -0.79317E-05 36136   0.205E-02    0.593E-02
DAV:  19    -0.384377518450E+03   -0.19030E-04   -0.97979E-05 32296   0.191E-02    0.111E-01
DAV:  20    -0.384377508766E+03    0.96848E-05   -0.26528E-05 28864   0.155E-02
   9 F= -.38437751E+03 E0= -.38437062E+03  d E =-.987547E-01  mag=    46.0000
       N       E                     dE             d eps       ncg     rms          rms(c)
DAV:   1    -0.384222332489E+03    0.15519E+00   -0.60557E+01 40144   0.189E+01    0.202E+00
DAV:   2    -0.384494971912E+03   -0.27264E+00   -0.28087E+00 37688   0.320E+00    0.329E+00
DAV:   3    -0.384505349790E+03   -0.10378E-01   -0.49538E-01 51840   0.106E+00    0.437E+00
DAV:   4    -0.384478712445E+03    0.26637E-01   -0.51081E-02 44472   0.602E-01    0.145E+00
DAV:   5    -0.384479024956E+03   -0.31251E-03   -0.22213E-02 50264   0.327E-01    0.703E-01
DAV:   6    -0.384478610963E+03    0.41399E-03   -0.73033E-03 44760   0.247E-01    0.771E-01
DAV:   7    -0.384478104526E+03    0.50644E-03   -0.49063E-03 47424   0.175E-01    0.494E-01
DAV:   8    -0.384478156437E+03   -0.51910E-04   -0.84670E-04 48656   0.761E-02    0.472E-01
DAV:   9    -0.384477962712E+03    0.19372E-03   -0.41053E-04 51448   0.479E-02    0.480E-01
DAV:  10    -0.384477653890E+03    0.30882E-03   -0.18265E-03 47840   0.901E-02    0.410E-01
DAV:  11    -0.384477749655E+03   -0.95765E-04   -0.23475E-03 45632   0.945E-02    0.433E-01
DAV:  12    -0.384477727905E+03    0.21750E-04   -0.45889E-04 45024   0.658E-02    0.385E-01
DAV:  13    -0.384477535299E+03    0.19261E-03   -0.22915E-04 47712   0.356E-02    0.172E-01
DAV:  14    -0.384477556557E+03   -0.21258E-04   -0.82707E-05 36984   0.199E-02    0.704E-02
DAV:  15    -0.384477582226E+03   -0.25669E-04   -0.94898E-05 31120   0.193E-02    0.574E-02
DAV:  16    -0.384477593736E+03   -0.11510E-04   -0.39835E-05 30192   0.161E-02    0.436E-02
DAV:  17    -0.384477597403E+03   -0.36669E-05   -0.13405E-05 25784   0.967E-03
  10 F= -.38447760E+03 E0= -.38447065E+03  d E =-.100089E+00  mag=    46.0000
       N       E                     dE             d eps       ncg     rms          rms(c)
DAV:   1    -0.384480922452E+03   -0.33287E-02   -0.10251E+00 39896   0.307E+00    0.360E-01
DAV:   2    -0.384488747338E+03   -0.78249E-02   -0.71309E-02 37104   0.535E-01    0.957E-01
DAV:   3    -0.384487719593E+03    0.10277E-02   -0.71472E-03 47136   0.195E-01    0.432E-01
DAV:   4    -0.384487895226E+03   -0.17563E-03   -0.79301E-04 42296   0.874E-02    0.211E-01
DAV:   5    -0.384487844746E+03    0.50480E-04   -0.48512E-04 48960   0.555E-02    0.128E-01
DAV:   6    -0.384487874034E+03   -0.29288E-04   -0.22935E-04 40888   0.342E-02    0.177E-01
DAV:   7    -0.384487827083E+03    0.46951E-04   -0.18813E-04 34712   0.280E-02    0.931E-02
DAV:   8    -0.384487842238E+03   -0.15155E-04   -0.92413E-05 31768   0.212E-02    0.117E-01
DAV:   9    -0.384487819215E+03    0.23023E-04   -0.36073E-05 29016   0.171E-02    0.428E-02
DAV:  10    -0.384487825895E+03   -0.66801E-05   -0.51266E-05 28944   0.117E-02
  11 F= -.38448783E+03 E0= -.38448084E+03  d E =-.102285E-01  mag=    46.0000
       N       E                     dE             d eps       ncg     rms          rms(c)
DAV:   1    -0.384474087791E+03    0.13731E-01   -0.84009E+00 39928   0.800E+00    0.775E-01
DAV:   2    -0.384512795954E+03   -0.38708E-01   -0.38552E-01 36656   0.131E+00    0.739E-01
DAV:   3    -0.384514138531E+03   -0.13426E-02   -0.17206E-02 50784   0.296E-01    0.105E+00
DAV:   4    -0.384512900621E+03    0.12379E-02   -0.10570E-02 47560   0.215E-01    0.664E-01
DAV:   5    -0.384512536489E+03    0.36413E-03   -0.23025E-03 43960   0.134E-01    0.353E-01
DAV:   6    -0.384512522581E+03    0.13908E-04   -0.17576E-03 46304   0.915E-02    0.341E-01
DAV:   7    -0.384512612068E+03   -0.89487E-04   -0.11366E-03 45248   0.693E-02    0.333E-01
DAV:   8    -0.384512517067E+03    0.95001E-04   -0.23066E-04 41016   0.397E-02    0.193E-01
DAV:   9    -0.384512493632E+03    0.23436E-04   -0.84293E-05 36288   0.226E-02    0.134E-01
DAV:  10    -0.384512467229E+03    0.26403E-04   -0.16823E-04 40872   0.324E-02    0.999E-02
DAV:  11    -0.384512493695E+03   -0.26466E-04   -0.23431E-04 42368   0.384E-02    0.145E-01
DAV:  12    -0.384512478351E+03    0.15343E-04   -0.64964E-05 37560   0.255E-02    0.119E-01
DAV:  13    -0.384512457645E+03    0.20706E-04   -0.29676E-05 28264   0.132E-02    0.464E-02
DAV:  14    -0.384512463478E+03   -0.58324E-05   -0.27696E-05 25704   0.102E-02
  12 F= -.38451246E+03 E0= -.38450535E+03  d E =-.246376E-01  mag=    46.0000
       N       E                     dE             d eps       ncg     rms          rms(c)
DAV:   1    -0.384463464615E+03    0.48993E-01   -0.21663E+01 39368   0.124E+01    0.111E+00
DAV:   2    -0.384549454936E+03   -0.85990E-01   -0.85558E-01 36616   0.202E+00    0.136E+00
DAV:   3    -0.384552979258E+03   -0.35243E-02   -0.57902E-02 50648   0.499E-01    0.196E+00
DAV:   4    -0.384547625652E+03    0.53536E-02   -0.34396E-02 45112   0.361E-01    0.798E-01
DAV:   5    -0.384547779521E+03   -0.15387E-03   -0.50978E-03 43664   0.189E-01    0.522E-01
DAV:   6    -0.384547570477E+03    0.20904E-03   -0.37638E-03 47616   0.135E-01    0.547E-01
DAV:   7    -0.384547462993E+03    0.10748E-03   -0.28764E-03 47016   0.113E-01    0.432E-01
DAV:   8    -0.384547323789E+03    0.13920E-03   -0.64197E-04 47264   0.638E-02    0.227E-01
DAV:   9    -0.384547301581E+03    0.22208E-04   -0.16165E-04 44400   0.321E-02    0.158E-01
DAV:  10    -0.384547266922E+03    0.34658E-04   -0.20171E-04 42888   0.363E-02    0.152E-01
DAV:  11    -0.384547298536E+03   -0.31614E-04   -0.45200E-04 44208   0.468E-02    0.192E-01
DAV:  12    -0.384547288135E+03    0.10401E-04   -0.11672E-04 42096   0.311E-02    0.172E-01
DAV:  13    -0.384547251373E+03    0.36762E-04   -0.31277E-05 31208   0.148E-02    0.997E-02
DAV:  14    -0.384547251244E+03    0.12894E-06   -0.72596E-05 30648   0.161E-02
  13 F= -.38454725E+03 E0= -.38454007E+03  d E =-.347878E-01  mag=    46.0000
       N       E                     dE             d eps       ncg     rms          rms(c)
DAV:   1    -0.383452527426E+03    0.10947E+01   -0.19233E+02 40928   0.421E+01    0.458E+00
DAV:   2    -0.384633613575E+03   -0.11811E+01   -0.11181E+01 36832   0.696E+00    0.706E+00
DAV:   3    -0.384662542297E+03   -0.28929E-01   -0.13190E+00 45936   0.205E+00    0.625E+00
DAV:   4    -0.384622539858E+03    0.40002E-01   -0.43568E-01 45656   0.135E+00    0.348E+00
DAV:   5    -0.384607402242E+03    0.15138E-01   -0.12089E-01 46928   0.731E-01    0.134E+00
DAV:   6    -0.384608615644E+03   -0.12134E-02   -0.24956E-02 47208   0.409E-01    0.127E+00
DAV:   7    -0.384606795740E+03    0.18199E-02   -0.17219E-02 47960   0.329E-01    0.966E-01
DAV:   8    -0.384605174106E+03    0.16216E-02   -0.77381E-03 44504   0.243E-01    0.455E-01
DAV:   9    -0.384605290965E+03   -0.11686E-03   -0.32599E-03 48904   0.152E-01    0.444E-01
DAV:  10    -0.384605340244E+03   -0.49279E-04   -0.25133E-03 48520   0.124E-01    0.328E-01
DAV:  11    -0.384605333735E+03    0.65090E-05   -0.76693E-04 46672   0.779E-02    0.242E-01
DAV:  12    -0.384605291923E+03    0.41812E-04   -0.47350E-04 49504   0.534E-02    0.178E-01
DAV:  13    -0.384605265718E+03    0.26206E-04   -0.41474E-04 43056   0.525E-02    0.135E-01
DAV:  14    -0.384605285437E+03   -0.19719E-04   -0.21515E-04 37424   0.345E-02    0.108E-01
DAV:  15    -0.384605290185E+03   -0.47476E-05   -0.48273E-05 32008   0.198E-02
  14 F= -.38460529E+03 E0= -.38459817E+03  d E =-.580389E-01  mag=    46.0000
       N       E                     dE             d eps       ncg     rms          rms(c)
DAV:   1    -0.384336900859E+03    0.26838E+00   -0.17954E+01 45952   0.148E+01    0.256E+00
DAV:   2    -0.384643832096E+03   -0.30693E+00   -0.28607E+00 37592   0.245E+00    0.240E+00
DAV:   3    -0.384665899211E+03   -0.22067E-01   -0.15575E-01 46688   0.761E-01    0.315E+00
DAV:   4    -0.384653373168E+03    0.12526E-01   -0.71024E-02 44152   0.549E-01    0.116E+00
DAV:   5    -0.384655704999E+03   -0.23318E-02   -0.16265E-02 43872   0.333E-01    0.999E-01
DAV:   6    -0.384654619968E+03    0.10850E-02   -0.88340E-03 45496   0.207E-01    0.627E-01
DAV:   7    -0.384654281324E+03    0.33864E-03   -0.26670E-03 47328   0.142E-01    0.324E-01
DAV:   8    -0.384654252979E+03    0.28345E-04   -0.14300E-03 44088   0.131E-01    0.278E-01
DAV:   9    -0.384654174749E+03    0.78230E-04   -0.97082E-04 47408   0.907E-02    0.132E-01
DAV:  10    -0.384654189359E+03   -0.14610E-04   -0.29737E-04 46632   0.391E-02    0.826E-02
DAV:  11    -0.384654177837E+03    0.11522E-04   -0.95550E-05 38736   0.251E-02    0.679E-02
DAV:  12    -0.384654168981E+03    0.88560E-05   -0.49714E-05 31800   0.171E-02
  15 F= -.38465417E+03 E0= -.38464710E+03  d E =-.488788E-01  mag=    46.0000
       N       E                     dE             d eps       ncg     rms          rms(c)
DAV:   1    -0.384654158970E+03    0.18867E-04   -0.78310E-01 40904   0.287E+00    0.333E-01
DAV:   2    -0.384660183067E+03   -0.60241E-02   -0.58111E-02 37296   0.473E-01    0.275E-01
DAV:   3    -0.384660460659E+03   -0.27759E-03   -0.26268E-03 49392   0.114E-01    0.312E-01
DAV:   4    -0.384660372969E+03    0.87690E-04   -0.73868E-04 45736   0.678E-02    0.227E-01
DAV:   5    -0.384660335757E+03    0.37212E-04   -0.29585E-04 38584   0.486E-02    0.134E-01
DAV:   6    -0.384660320698E+03    0.15059E-04   -0.19459E-04 37696   0.312E-02    0.956E-02
DAV:   7    -0.384660307651E+03    0.13047E-04   -0.73654E-05 32224   0.235E-02    0.526E-02
DAV:   8    -0.384660302032E+03    0.56195E-05   -0.32032E-05 34024   0.185E-02
  16 F= -.38466030E+03 E0= -.38465326E+03  d E =-.613305E-02  mag=    46.0000
       N       E                     dE             d eps       ncg     rms          rms(c)
DAV:   1    -0.384613003606E+03    0.47304E-01   -0.14778E+01 39992   0.106E+01    0.101E+00
DAV:   2    -0.384681274690E+03   -0.68271E-01   -0.67389E-01 37008   0.174E+00    0.138E+00
DAV:   3    -0.384686358114E+03   -0.50834E-02   -0.93428E-02 49616   0.521E-01    0.222E+00
DAV:   4    -0.384679149338E+03    0.72088E-02   -0.12374E-02 43208   0.317E-01    0.635E-01
DAV:   5    -0.384679789067E+03   -0.63973E-03   -0.49091E-03 49792   0.147E-01    0.362E-01
DAV:   6    -0.384679767478E+03    0.21589E-04   -0.15067E-03 42008   0.106E-01    0.404E-01
DAV:   7    -0.384679536149E+03    0.23133E-03   -0.11756E-03 48368   0.818E-02    0.210E-01
DAV:   8    -0.384679503172E+03    0.32978E-04   -0.44596E-04 44248   0.605E-02    0.158E-01
DAV:   9    -0.384679461599E+03    0.41573E-04   -0.22757E-04 47264   0.467E-02    0.892E-02
DAV:  10    -0.384679464629E+03   -0.30308E-05   -0.10840E-04 42440   0.294E-02    0.101E-01
DAV:  11    -0.384679459169E+03    0.54599E-05   -0.87813E-05 34384   0.222E-02
  17 F= -.38467946E+03 E0= -.38467255E+03  d E =-.191571E-01  mag=    46.0000
       N       E                     dE             d eps       ncg     rms          rms(c)
DAV:   1    -0.384635101139E+03    0.44363E-01   -0.22370E+01 38752   0.119E+01    0.103E+00
DAV:   2    -0.384716303146E+03   -0.81202E-01   -0.80655E-01 36672   0.193E+00    0.204E+00
DAV:   3    -0.384715357199E+03    0.94595E-03   -0.11584E-01 47736   0.560E-01    0.189E+00
DAV:   4    -0.384711754181E+03    0.36030E-02   -0.99145E-03 44296   0.305E-01    0.772E-01
DAV:   5    -0.384711320684E+03    0.43350E-03   -0.55375E-03 49544   0.155E-01    0.327E-01
DAV:   6    -0.384711558175E+03   -0.23749E-03   -0.23881E-03 43448   0.108E-01    0.526E-01
DAV:   7    -0.384711121988E+03    0.43619E-03   -0.13726E-03 44008   0.996E-02    0.288E-01
DAV:   8    -0.384711063301E+03    0.58686E-04   -0.47813E-04 47768   0.564E-02    0.124E-01
DAV:   9    -0.384711075942E+03   -0.12641E-04   -0.16458E-04 41720   0.401E-02    0.110E-01
DAV:  10    -0.384711073768E+03    0.21741E-05   -0.12390E-04 41416   0.284E-02    0.108E-01
DAV:  11    -0.384711076343E+03   -0.25748E-05   -0.10919E-04 32712   0.229E-02    0.616E-02
DAV:  12    -0.384711082687E+03   -0.63436E-05   -0.19560E-05 28536   0.140E-02
  18 F= -.38471108E+03 E0= -.38470425E+03  d E =-.316235E-01  mag=    46.0000
       N       E                     dE             d eps       ncg     rms          rms(c)
DAV:   1    -0.382812195309E+03    0.18989E+01   -0.20427E+02 40464   0.466E+01    0.633E+00
DAV:   2    -0.384663439026E+03   -0.18512E+01   -0.17875E+01 37440   0.808E+00    0.885E+00
DAV:   3    -0.384813346084E+03   -0.14991E+00   -0.32339E+00 47984   0.270E+00    0.101E+01
DAV:   4    -0.384658584126E+03    0.15476E+00   -0.12296E+00 45592   0.198E+00    0.513E+00
DAV:   5    -0.384641514426E+03    0.17070E-01   -0.21666E-01 49480   0.975E-01    0.197E+00
DAV:   6    -0.384647956292E+03   -0.64419E-02   -0.46881E-02 47616   0.608E-01    0.189E+00
DAV:   7    -0.384642885753E+03    0.50705E-02   -0.24150E-02 46712   0.421E-01    0.128E+00
DAV:   8    -0.384639763908E+03    0.31218E-02   -0.15662E-02 49664   0.332E-01    0.912E-01
DAV:   9    -0.384637789272E+03    0.19746E-02   -0.10079E-02 47688   0.327E-01    0.705E-01
DAV:  10    -0.384637566871E+03    0.22240E-03   -0.53561E-03 47808   0.196E-01    0.526E-01
DAV:  11    -0.384637504363E+03    0.62508E-04   -0.37908E-03 51872   0.137E-01    0.456E-01
DAV:  12    -0.384637452538E+03    0.51825E-04   -0.92879E-04 47016   0.980E-02    0.308E-01
DAV:  13    -0.384637347421E+03    0.10512E-03   -0.85303E-04 51304   0.737E-02    0.334E-01
DAV:  14    -0.384637180987E+03    0.16643E-03   -0.51483E-04 45008   0.591E-02    0.210E-01
DAV:  15    -0.384637147556E+03    0.33430E-04   -0.30649E-04 43056   0.523E-02    0.120E-01
DAV:  16    -0.384637165344E+03   -0.17788E-04   -0.10763E-04 40880   0.257E-02    0.108E-01
DAV:  17    -0.384637141216E+03    0.24127E-04   -0.33876E-05 36504   0.196E-02    0.653E-02
DAV:  18    -0.384637132349E+03    0.88670E-05   -0.70476E-05 35184   0.205E-02
  19 F= -.38463713E+03 E0= -.38463007E+03  d E =0.739503E-01  mag=    46.0000
       N       E                     dE             d eps       ncg     rms          rms(c)
DAV:   1    -0.384090863439E+03    0.54628E+00   -0.44362E+01 44424   0.255E+01    0.391E+00
DAV:   2    -0.384779753797E+03   -0.68889E+00   -0.64410E+00 37744   0.426E+00    0.353E+00
DAV:   3    -0.384833065421E+03   -0.53312E-01   -0.50014E-01 50168   0.127E+00    0.479E+00
DAV:   4    -0.384800654855E+03    0.32411E-01   -0.27164E-01 44336   0.945E-01    0.192E+00
DAV:   5    -0.384805644713E+03   -0.49899E-02   -0.36743E-02 47560   0.497E-01    0.155E+00
DAV:   6    -0.384802727955E+03    0.29168E-02   -0.16461E-02 45616   0.332E-01    0.877E-01
DAV:   7    -0.384802035510E+03    0.69244E-03   -0.89868E-03 45256   0.250E-01    0.606E-01
DAV:   8    -0.384801371779E+03    0.66373E-03   -0.33806E-03 45176   0.252E-01    0.445E-01
DAV:   9    -0.384801049619E+03    0.32216E-03   -0.27068E-03 47544   0.144E-01    0.169E-01
DAV:  10    -0.384801081053E+03   -0.31434E-04   -0.66603E-04 47720   0.749E-02    0.141E-01
DAV:  11    -0.384801060689E+03    0.20363E-04   -0.22869E-04 50080   0.458E-02    0.863E-02
DAV:  12    -0.384801044000E+03    0.16690E-04   -0.76047E-05 41456   0.241E-02    0.585E-02
DAV:  13    -0.384801025040E+03    0.18960E-04   -0.40136E-05 33304   0.193E-02    0.557E-02
DAV:  14    -0.384801019440E+03    0.55994E-05   -0.51840E-05 32584   0.171E-02
  20 F= -.38480102E+03 E0= -.38479420E+03  d E =-.163887E+00  mag=    46.0000
       N       E                     dE             d eps       ncg     rms          rms(c)
DAV:   1    -0.384792485203E+03    0.85398E-02   -0.12183E+00 40728   0.351E+00    0.443E-01
DAV:   2    -0.384802992457E+03   -0.10507E-01   -0.99550E-02 37656   0.582E-01    0.581E-01
DAV:   3    -0.384804294080E+03   -0.13016E-02   -0.11439E-02 48496   0.214E-01    0.107E+00
DAV:   4    -0.384802731102E+03    0.15630E-02   -0.26950E-03 42160   0.143E-01    0.330E-01
DAV:   5    -0.384802954635E+03   -0.22353E-03   -0.76305E-04 48424   0.582E-02    0.226E-01
DAV:   6    -0.384803095630E+03   -0.14099E-03   -0.44525E-04 38192   0.466E-02    0.325E-01
DAV:   7    -0.384802917151E+03    0.17848E-03   -0.17435E-04 37520   0.394E-02    0.137E-01
DAV:   8    -0.384802940754E+03   -0.23603E-04   -0.18139E-04 43224   0.338E-02    0.120E-01
DAV:   9    -0.384802951519E+03   -0.10766E-04   -0.70027E-05 38144   0.251E-02    0.117E-01
DAV:  10    -0.384802941988E+03    0.95308E-05   -0.19590E-05 30224   0.143E-02
  21 F= -.38480294E+03 E0= -.38479616E+03  d E =-.192255E-02  mag=    46.0000
       N       E                     dE             d eps       ncg     rms          rms(c)
DAV:   1    -0.384752825655E+03    0.50126E-01   -0.11195E+01 39984   0.897E+00    0.892E-01
DAV:   2    -0.384805692349E+03   -0.52867E-01   -0.50549E-01 36992   0.146E+00    0.220E+00
DAV:   3    -0.384801149039E+03    0.45433E-02   -0.79688E-02 49544   0.481E-01    0.118E+00
DAV:   4    -0.384801714719E+03   -0.56568E-03   -0.45769E-03 41696   0.208E-01    0.684E-01
DAV:   5    -0.384800998571E+03    0.71615E-03   -0.28164E-03 50656   0.123E-01    0.345E-01
DAV:   6    -0.384801296917E+03   -0.29835E-03   -0.23516E-03 44672   0.947E-02    0.521E-01
DAV:   7    -0.384800791098E+03    0.50582E-03   -0.81130E-04 42112   0.886E-02    0.244E-01
DAV:   8    -0.384800807485E+03   -0.16388E-04   -0.56311E-04 46792   0.571E-02    0.160E-01
DAV:   9    -0.384800817639E+03   -0.10154E-04   -0.17256E-04 43000   0.387E-02    0.856E-02
DAV:  10    -0.384800811595E+03    0.60442E-05   -0.66047E-05 35040   0.212E-02
  22 F= -.38480081E+03 E0= -.38479402E+03  d E =0.213039E-02  mag=    46.0000
       N       E                     dE             d eps       ncg     rms          rms(c)
DAV:   1    -0.384801156322E+03   -0.33868E-03   -0.78053E-01 40856   0.251E+00    0.262E-01
DAV:   2    -0.384805140179E+03   -0.39839E-02   -0.36950E-02 37400   0.411E-01    0.499E-01
DAV:   3    -0.384805117113E+03    0.23066E-04   -0.29911E-03 46256   0.135E-01    0.487E-01
DAV:   4    -0.384804935175E+03    0.18194E-03   -0.80127E-04 41328   0.793E-02    0.219E-01
DAV:   5    -0.384804919894E+03    0.15281E-04   -0.28836E-04 40888   0.360E-02    0.724E-02
DAV:   6    -0.384804939208E+03   -0.19314E-04   -0.10190E-04 31672   0.229E-02    0.882E-02
DAV:   7    -0.384804932352E+03    0.68551E-05   -0.41889E-05 30856   0.204E-02
  23 F= -.38480493E+03 E0= -.38479815E+03  d E =-.412076E-02  mag=    46.0000
       N       E                     dE             d eps       ncg     rms          rms(c)
DAV:   1    -0.384265324845E+03    0.53961E+00   -0.14345E+02 39632   0.316E+01    0.302E+00
DAV:   2    -0.384876560518E+03   -0.61124E+00   -0.60252E+00 36888   0.522E+00    0.476E+00
DAV:   3    -0.384905287109E+03   -0.28727E-01   -0.96093E-01 47576   0.156E+00    0.673E+00
DAV:   4    -0.384848431365E+03    0.56856E-01   -0.25692E-01 44528   0.101E+00    0.264E+00
DAV:   5    -0.384852047498E+03   -0.36161E-02   -0.79339E-02 45960   0.459E-01    0.111E+00
DAV:   6    -0.384853793380E+03   -0.17459E-02   -0.10787E-02 45392   0.275E-01    0.991E-01
DAV:   7    -0.384851880971E+03    0.19124E-02   -0.50555E-03 49424   0.215E-01    0.682E-01
DAV:   8    -0.384850957676E+03    0.92330E-03   -0.59743E-03 47008   0.175E-01    0.549E-01
DAV:   9    -0.384850643228E+03    0.31445E-03   -0.29239E-03 47176   0.161E-01    0.410E-01
DAV:  10    -0.384850627856E+03    0.15372E-04   -0.19365E-03 49400   0.104E-01    0.335E-01
DAV:  11    -0.384850486663E+03    0.14119E-03   -0.93312E-04 46936   0.794E-02    0.215E-01
DAV:  12    -0.384850535945E+03   -0.49281E-04   -0.30895E-04 43352   0.440E-02    0.167E-01
DAV:  13    -0.384850508819E+03    0.27126E-04   -0.11527E-04 39320   0.314E-02    0.611E-02
DAV:  14    -0.384850520274E+03   -0.11455E-04   -0.50113E-05 34048   0.153E-02    0.411E-02
DAV:  15    -0.384850519960E+03    0.31431E-06   -0.12900E-05 25328   0.114E-02
  24 F= -.38485052E+03 E0= -.38484369E+03  d E =-.455876E-01  mag=    46.0000
       N       E                     dE             d eps       ncg     rms          rms(c)
DAV:   1    -0.383420102432E+03    0.14304E+01   -0.13316E+02 41784   0.406E+01    0.528E+00
DAV:   2    -0.384692172269E+03   -0.12721E+01   -0.11839E+01 37304   0.674E+00    0.521E+00
DAV:   3    -0.384864628526E+03   -0.17246E+00   -0.14287E+00 48864   0.219E+00    0.984E+00
DAV:   4    -0.384709426228E+03    0.15520E+00   -0.43873E-01 43832   0.148E+00    0.335E+00
DAV:   5    -0.384725968054E+03   -0.16542E-01   -0.19369E-01 48176   0.659E-01    0.213E+00
DAV:   6    -0.384727927395E+03   -0.19593E-02   -0.20524E-02 45128   0.416E-01    0.174E+00
DAV:   7    -0.384721679892E+03    0.62475E-02   -0.18229E-02 48136   0.372E-01    0.776E-01
DAV:   8    -0.384723856354E+03   -0.21765E-02   -0.21413E-02 45456   0.337E-01    0.151E+00
DAV:   9    -0.384720994304E+03    0.28620E-02   -0.81400E-03 46240   0.253E-01    0.989E-01
DAV:  10    -0.384719700999E+03    0.12933E-02   -0.46025E-03 51312   0.164E-01    0.259E-01
DAV:  11    -0.384720519426E+03   -0.81843E-03   -0.21117E-03 44240   0.931E-02    0.464E-01
DAV:  12    -0.384720326875E+03    0.19255E-03   -0.44020E-04 46472   0.709E-02    0.299E-01
DAV:  13    -0.384720218162E+03    0.10871E-03   -0.36016E-04 49880   0.476E-02    0.110E-01
DAV:  14    -0.384720249120E+03   -0.30958E-04   -0.16106E-04 39632   0.339E-02    0.901E-02
DAV:  15    -0.384720242586E+03    0.65336E-05   -0.69174E-05 36520   0.269E-02
  25 F= -.38472024E+03 E0= -.38471336E+03  d E =0.130277E+00  mag=    46.0000
       N       E                     dE             d eps       ncg     rms          rms(c)
DAV:   1    -0.384023325915E+03    0.69692E+00   -0.53929E+01 45168   0.292E+01    0.449E+00
DAV:   2    -0.384879795565E+03   -0.85647E+00   -0.79632E+00 37712   0.486E+00    0.468E+00
DAV:   3    -0.384962390439E+03   -0.82595E-01   -0.10815E+00 47792   0.173E+00    0.641E+00
DAV:   4    -0.384893462575E+03    0.68928E-01   -0.31215E-01 43496   0.121E+00    0.213E+00
DAV:   5    -0.384903172786E+03   -0.97102E-02   -0.80071E-02 46856   0.568E-01    0.176E+00
DAV:   6    -0.384899593176E+03    0.35796E-02   -0.18290E-02 44424   0.391E-01    0.980E-01
DAV:   7    -0.384897772274E+03    0.18209E-02   -0.72237E-03 47296   0.276E-01    0.518E-01
DAV:   8    -0.384897937987E+03   -0.16571E-03   -0.82497E-03 46080   0.305E-01    0.967E-01
DAV:   9    -0.384896651199E+03    0.12868E-02   -0.40227E-03 45128   0.190E-01    0.521E-01
DAV:  10    -0.384896562761E+03    0.88437E-04   -0.31562E-03 52248   0.111E-01    0.269E-01
DAV:  11    -0.384896665662E+03   -0.10290E-03   -0.78043E-04 41808   0.884E-02    0.136E-01
DAV:  12    -0.384896672376E+03   -0.67139E-05   -0.33873E-04 50680   0.496E-02    0.175E-01
DAV:  13    -0.384896610638E+03    0.61737E-04   -0.12852E-04 42496   0.324E-02    0.800E-02
DAV:  14    -0.384896600098E+03    0.10541E-04   -0.86284E-05 35848   0.270E-02    0.724E-02
DAV:  15    -0.384896589742E+03    0.10356E-04   -0.10111E-04 34312   0.270E-02    0.561E-02
DAV:  16    -0.384896591349E+03   -0.16067E-05   -0.28109E-05 31368   0.165E-02
  26 F= -.38489659E+03 E0= -.38488983E+03  d E =-.176349E+00  mag=    46.0000
       N       E                     dE             d eps       ncg     rms          rms(c)
DAV:   1    -0.384876355659E+03    0.20234E-01   -0.24089E+00 41664   0.550E+00    0.762E-01
DAV:   2    -0.384901244374E+03   -0.24889E-01   -0.22606E-01 37352   0.890E-01    0.821E-01
DAV:   3    -0.384905943874E+03   -0.46995E-02   -0.38405E-02 48080   0.349E-01    0.185E+00
DAV:   4    -0.384900935998E+03    0.50079E-02   -0.81687E-03 43040   0.245E-01    0.487E-01
DAV:   5    -0.384901763406E+03   -0.82741E-03   -0.35288E-03 48200   0.780E-02    0.287E-01
DAV:   6    -0.384901986532E+03   -0.22313E-03   -0.48919E-04 39040   0.574E-02    0.380E-01
DAV:   7    -0.384901733743E+03    0.25279E-03   -0.66320E-04 42944   0.581E-02    0.707E-02
DAV:   8    -0.384901858906E+03   -0.12516E-03   -0.32508E-04 44008   0.407E-02    0.231E-01
DAV:   9    -0.384901801522E+03    0.57384E-04   -0.84404E-05 40448   0.287E-02    0.164E-01
DAV:  10    -0.384901787291E+03    0.14231E-04   -0.49775E-05 31696   0.175E-02    0.105E-01
DAV:  11    -0.384901785027E+03    0.22634E-05   -0.42161E-05 26824   0.128E-02
  27 F= -.38490179E+03 E0= -.38489498E+03  d E =-.519368E-02  mag=    46.0000
       N       E                     dE             d eps       ncg     rms          rms(c)
DAV:   1    -0.384872277811E+03    0.29509E-01   -0.46584E+00 40376   0.659E+00    0.740E-01
DAV:   2    -0.384901241105E+03   -0.28963E-01   -0.27716E-01 37384   0.108E+00    0.910E-01
DAV:   3    -0.384904906972E+03   -0.36659E-02   -0.39788E-02 49352   0.366E-01    0.175E+00
DAV:   4    -0.384900484073E+03    0.44229E-02   -0.72782E-03 42640   0.243E-01    0.484E-01
DAV:   5    -0.384901155488E+03   -0.67142E-03   -0.36774E-03 48216   0.868E-02    0.326E-01
DAV:   6    -0.384901326079E+03   -0.17059E-03   -0.65936E-04 39912   0.650E-02    0.410E-01
DAV:   7    -0.384901010785E+03    0.31529E-03   -0.79990E-04 43944   0.683E-02    0.845E-02
DAV:   8    -0.384901123530E+03   -0.11274E-03   -0.34436E-04 44560   0.465E-02    0.210E-01
DAV:   9    -0.384901064656E+03    0.58874E-04   -0.11034E-04 42824   0.310E-02    0.120E-01
DAV:  10    -0.384901059358E+03    0.52971E-05   -0.61454E-05 33120   0.183E-02
  28 F= -.38490106E+03 E0= -.38489425E+03  d E =0.725669E-03  mag=    46.0000
       N       E                     dE             d eps       ncg     rms          rms(c)
DAV:   1    -0.384886365350E+03    0.14699E-01   -0.28306E+00 39616   0.436E+00    0.385E-01
DAV:   2    -0.384896875441E+03   -0.10510E-01   -0.10492E-01 36848   0.700E-01    0.393E-01
DAV:   3    -0.384897368042E+03   -0.49260E-03   -0.63627E-03 49800   0.164E-01    0.660E-01
DAV:   4    -0.384896728556E+03    0.63949E-03   -0.22232E-03 45552   0.107E-01    0.233E-01
DAV:   5    -0.384896796127E+03   -0.67571E-04   -0.58111E-04 42488   0.543E-02    0.167E-01
DAV:   6    -0.384896746706E+03    0.49421E-04   -0.20987E-04 40744   0.402E-02    0.111E-01
DAV:   7    -0.384896719700E+03    0.27006E-04   -0.12867E-04 42256   0.356E-02    0.712E-02
DAV:   8    -0.384896712655E+03    0.70448E-05   -0.49366E-05 38448   0.210E-02
  29 F= -.38489671E+03 E0= -.38488991E+03  d E =0.434670E-02  mag=    46.0000
       N       E                     dE             d eps       ncg     rms          rms(c)
DAV:   1    -0.384844553739E+03    0.52166E-01   -0.12109E+01 39584   0.945E+00    0.831E-01
DAV:   2    -0.384893080779E+03   -0.48527E-01   -0.47988E-01 36704   0.152E+00    0.717E-01
DAV:   3    -0.384895527168E+03   -0.24464E-02   -0.25424E-02 49024   0.326E-01    0.135E+00
DAV:   4    -0.384892702732E+03    0.28244E-02   -0.88698E-03 45096   0.217E-01    0.381E-01
DAV:   5    -0.384893128670E+03   -0.42594E-03   -0.22124E-03 46080   0.104E-01    0.362E-01
DAV:   6    -0.384892892335E+03    0.23633E-03   -0.89696E-04 43048   0.822E-02    0.252E-01
DAV:   7    -0.384892759459E+03    0.13288E-03   -0.65803E-04 45664   0.761E-02    0.161E-01
DAV:   8    -0.384892753112E+03    0.63473E-05   -0.25306E-04 43816   0.493E-02    0.146E-01
DAV:   9    -0.384892722812E+03    0.30300E-04   -0.21321E-04 43400   0.314E-02    0.621E-02
DAV:  10    -0.384892740802E+03   -0.17990E-04   -0.61844E-05 31320   0.172E-02    0.756E-02
DAV:  11    -0.384892734300E+03    0.65016E-05   -0.22542E-05 27392   0.142E-02
  30 F= -.38489273E+03 E0= -.38488590E+03  d E =0.397835E-02  mag=    46.0000
       N       E                     dE             d eps       ncg     rms          rms(c)
DAV:   1    -0.384330084588E+03    0.56266E+00   -0.14598E+02 39504   0.316E+01    0.279E+00
DAV:   2    -0.384898234748E+03   -0.56815E+00   -0.56482E+00 36864   0.516E+00    0.300E+00
DAV:   3    -0.384941881608E+03   -0.43647E-01   -0.62521E-01 48960   0.131E+00    0.637E+00
DAV:   4    -0.384884253064E+03    0.57629E-01   -0.20886E-01 43416   0.903E-01    0.212E+00
DAV:   5    -0.384891411838E+03   -0.71588E-02   -0.64511E-02 45640   0.379E-01    0.110E+00
DAV:   6    -0.384891877253E+03   -0.46542E-03   -0.69620E-03 42320   0.255E-01    0.105E+00
DAV:   7    -0.384889287062E+03    0.25902E-02   -0.67734E-03 47160   0.225E-01    0.517E-01
DAV:   8    -0.384889492014E+03   -0.20495E-03   -0.65124E-03 45888   0.178E-01    0.657E-01
DAV:   9    -0.384889063017E+03    0.42900E-03   -0.32266E-03 47136   0.132E-01    0.428E-01
DAV:  10    -0.384888842323E+03    0.22069E-03   -0.10168E-03 50448   0.765E-02    0.146E-01
DAV:  11    -0.384889051546E+03   -0.20922E-03   -0.53083E-04 42216   0.459E-02    0.248E-01
DAV:  12    -0.384888982254E+03    0.69292E-04   -0.13229E-04 39936   0.370E-02    0.136E-01
DAV:  13    -0.384888974914E+03    0.73404E-05   -0.14580E-04 41400   0.237E-02    0.497E-02
DAV:  14    -0.384888989233E+03   -0.14319E-04   -0.40004E-05 26528   0.154E-02    0.568E-02
DAV:  15    -0.384888986019E+03    0.32140E-05   -0.11321E-05 23400   0.932E-03
  31 F= -.38488899E+03 E0= -.38488204E+03  d E =0.374828E-02  mag=    46.0000
       N       E                     dE             d eps       ncg     rms          rms(c)
DAV:   1    -0.382706421100E+03    0.21826E+01   -0.13383E+02 43632   0.458E+01    0.687E+00
DAV:   2    -0.384724374465E+03   -0.20180E+01   -0.18996E+01 37384   0.799E+00    0.943E+00
DAV:   3    -0.385007333848E+03   -0.28296E+00   -0.48241E+00 45984   0.323E+00    0.141E+01
DAV:   4    -0.384706023861E+03    0.30131E+00   -0.93831E-01 44032   0.199E+00    0.532E+00
DAV:   5    -0.384727856529E+03   -0.21833E-01   -0.42578E-01 52512   0.103E+00    0.334E+00
DAV:   6    -0.384737574978E+03   -0.97184E-02   -0.68329E-02 41176   0.709E-01    0.220E+00
DAV:   7    -0.384734775832E+03    0.27991E-02   -0.27567E-02 48560   0.433E-01    0.127E+00
DAV:   8    -0.384733820331E+03    0.95550E-03   -0.94102E-03 49952   0.302E-01    0.968E-01
DAV:   9    -0.384731993712E+03    0.18266E-02   -0.54246E-03 46280   0.275E-01    0.847E-01
DAV:  10    -0.384730811363E+03    0.11823E-02   -0.57729E-03 47592   0.264E-01    0.394E-01
DAV:  11    -0.384730975968E+03   -0.16460E-03   -0.32831E-03 48272   0.170E-01    0.381E-01
DAV:  12    -0.384730947483E+03    0.28484E-04   -0.11482E-03 48896   0.105E-01    0.335E-01
DAV:  13    -0.384730800031E+03    0.14745E-03   -0.42455E-04 51072   0.543E-02    0.240E-01
DAV:  14    -0.384730752669E+03    0.47362E-04   -0.55113E-04 41856   0.482E-02    0.149E-01
DAV:  15    -0.384730828450E+03   -0.75781E-04   -0.15269E-04 39808   0.290E-02    0.232E-01
DAV:  16    -0.384730755488E+03    0.72962E-04   -0.49708E-05 35312   0.234E-02    0.145E-01
DAV:  17    -0.384730755303E+03    0.18557E-06   -0.29153E-04 40608   0.319E-02    0.126E-01
DAV:  18    -0.384730775841E+03   -0.20539E-04   -0.52003E-05 33216   0.219E-02    0.158E-01
DAV:  19    -0.384730734370E+03    0.41471E-04   -0.75991E-05 33136   0.207E-02    0.387E-02
DAV:  20    -0.384730756335E+03   -0.21965E-04   -0.63183E-05 31232   0.150E-02    0.863E-02
DAV:  21    -0.384730753286E+03    0.30488E-05   -0.11047E-05 26352   0.111E-02
  32 F= -.38473075E+03 E0= -.38472302E+03  d E =0.158233E+00  mag=    46.0000
       N       E                     dE             d eps       ncg     rms          rms(c)
DAV:   1    -0.384309288665E+03    0.42147E+00   -0.38834E+01 46128   0.247E+01    0.382E+00
DAV:   2    -0.384945007035E+03   -0.63572E+00   -0.58814E+00 37960   0.413E+00    0.469E+00
DAV:   3    -0.385000061026E+03   -0.55054E-01   -0.83416E-01 47064   0.157E+00    0.681E+00
DAV:   4    -0.384957919826E+03    0.42141E-01   -0.41805E-01 43608   0.109E+00    0.376E+00
DAV:   5    -0.384953676414E+03    0.42434E-02   -0.79017E-02 44304   0.630E-01    0.122E+00
DAV:   6    -0.384955280826E+03   -0.16044E-02   -0.14514E-02 46368   0.300E-01    0.856E-01
DAV:   7    -0.384954509078E+03    0.77175E-03   -0.75461E-03 45088   0.235E-01    0.564E-01
DAV:   8    -0.384953785388E+03    0.72369E-03   -0.27789E-03 48592   0.178E-01    0.420E-01
DAV:   9    -0.384953570700E+03    0.21469E-03   -0.25976E-03 45584   0.163E-01    0.235E-01
DAV:  10    -0.384953716203E+03   -0.14550E-03   -0.15811E-03 50128   0.107E-01    0.313E-01
DAV:  11    -0.384953623047E+03    0.93155E-04   -0.34714E-04 50296   0.587E-02    0.244E-01
DAV:  12    -0.384953517134E+03    0.10591E-03   -0.25509E-04 44128   0.353E-02    0.895E-02
DAV:  13    -0.384953517159E+03   -0.25168E-07   -0.16328E-04 37408   0.334E-02    0.762E-02
DAV:  14    -0.384953519235E+03   -0.20755E-05   -0.69693E-05 36888   0.241E-02
  33 F= -.38495352E+03 E0= -.38494648E+03  d E =-.222766E+00  mag=    46.0000
       N       E                     dE             d eps       ncg     rms          rms(c)
DAV:   1    -0.384850978856E+03    0.10254E+00   -0.78770E+00 45304   0.113E+01    0.159E+00
DAV:   2    -0.384967528592E+03   -0.11655E+00   -0.10850E+00 37832   0.183E+00    0.190E+00
DAV:   3    -0.384985382294E+03   -0.17854E-01   -0.20813E-01 46640   0.715E-01    0.392E+00
DAV:   4    -0.384965810281E+03    0.19572E-01   -0.60871E-02 42832   0.514E-01    0.951E-01
DAV:   5    -0.384970278993E+03   -0.44687E-02   -0.11366E-02 46656   0.210E-01    0.574E-01
DAV:   6    -0.384970610503E+03   -0.33151E-03   -0.31621E-03 41648   0.143E-01    0.638E-01
DAV:   7    -0.384969903795E+03    0.70671E-03   -0.22239E-03 49528   0.119E-01    0.218E-01
DAV:   8    -0.384970224788E+03   -0.32099E-03   -0.16011E-03 43880   0.116E-01    0.520E-01
DAV:   9    -0.384970044081E+03    0.18071E-03   -0.54881E-04 44128   0.791E-02    0.475E-01
DAV:  10    -0.384969804527E+03    0.23955E-03   -0.30197E-04 51568   0.486E-02    0.287E-01
DAV:  11    -0.384969788691E+03    0.15836E-04   -0.23104E-04 41888   0.300E-02    0.991E-02
DAV:  12    -0.384969841095E+03   -0.52405E-04   -0.15559E-04 31624   0.203E-02    0.881E-02
DAV:  13    -0.384969864305E+03   -0.23210E-04   -0.37965E-05 29952   0.156E-02    0.135E-01
DAV:  14    -0.384969840343E+03    0.23962E-04   -0.13183E-05 27752   0.117E-02    0.919E-02
DAV:  15    -0.384969833687E+03    0.66566E-05   -0.64392E-05 29960   0.139E-02
  34 F= -.38496983E+03 E0= -.38496286E+03  d E =-.163145E-01  mag=    46.0000
       N       E                     dE             d eps       ncg     rms          rms(c)
DAV:   1    -0.384963207261E+03    0.66331E-02   -0.58123E-01 40672   0.243E+00    0.266E-01
DAV:   2    -0.384966950954E+03   -0.37437E-02   -0.34852E-02 37416   0.403E-01    0.587E-01
DAV:   3    -0.384966756253E+03    0.19470E-03   -0.49926E-03 44992   0.144E-01    0.443E-01
DAV:   4    -0.384966719901E+03    0.36351E-04   -0.61813E-04 42880   0.698E-02    0.245E-01
DAV:   5    -0.384966666931E+03    0.52970E-04   -0.26710E-04 37888   0.359E-02    0.995E-02
DAV:   6    -0.384966695561E+03   -0.28629E-04   -0.20025E-04 36400   0.263E-02    0.129E-01
DAV:   7    -0.384966670678E+03    0.24882E-04   -0.65786E-05 33920   0.268E-02    0.506E-02
DAV:   8    -0.384966673845E+03   -0.31669E-05   -0.40046E-05 31264   0.144E-02
  35 F= -.38496667E+03 E0= -.38495971E+03  d E =0.315984E-02  mag=    46.0000
       N       E                     dE             d eps       ncg     rms          rms(c)
DAV:   1    -0.384951249975E+03    0.15421E-01   -0.17878E+00 40016   0.385E+00    0.390E-01
DAV:   2    -0.384960292747E+03   -0.90428E-02   -0.90307E-02 37008   0.641E-01    0.424E-01
DAV:   3    -0.384961107559E+03   -0.81481E-03   -0.79820E-03 48768   0.174E-01    0.886E-01
DAV:   4    -0.384960040542E+03    0.10670E-02   -0.28761E-03 42624   0.122E-01    0.250E-01
DAV:   5    -0.384960251957E+03   -0.21141E-03   -0.89284E-04 45448   0.541E-02    0.195E-01
DAV:   6    -0.384960249011E+03    0.29460E-05   -0.29534E-04 39096   0.431E-02    0.194E-01
DAV:   7    -0.384960179314E+03    0.69696E-04   -0.18751E-04 43720   0.390E-02    0.623E-02
DAV:   8    -0.384960183856E+03   -0.45418E-05   -0.72866E-05 41912   0.249E-02
  36 F= -.38496018E+03 E0= -.38495325E+03  d E =0.648999E-02  mag=    46.0000
       N       E                     dE             d eps       ncg     rms          rms(c)
DAV:   1    -0.384951617536E+03    0.85618E-02   -0.91595E-01 39824   0.282E+00    0.286E-01
DAV:   2    -0.384956305164E+03   -0.46876E-02   -0.46213E-02 36880   0.465E-01    0.178E-01
DAV:   3    -0.384956392349E+03   -0.87186E-04   -0.11497E-03 45984   0.795E-02    0.130E-01
DAV:   4    -0.384956392811E+03   -0.46192E-06   -0.29926E-04 44960   0.393E-02    0.175E-01
DAV:   5    -0.384956354818E+03    0.37993E-04   -0.22676E-04 33920   0.334E-02    0.107E-01
DAV:   6    -0.384956342096E+03    0.12722E-04   -0.58904E-05 38880   0.275E-02    0.640E-02
DAV:   7    -0.384956339429E+03    0.26662E-05   -0.87388E-05 33512   0.225E-02
  37 F= -.38495634E+03 E0= -.38494938E+03  d E =0.384443E-02  mag=    46.0000
       N       E                     dE             d eps       ncg     rms          rms(c)
DAV:   1    -0.384943010247E+03    0.13332E-01   -0.22671E+00 39984   0.446E+00    0.463E-01
DAV:   2    -0.384956151984E+03   -0.13142E-01   -0.12263E-01 36672   0.742E-01    0.117E+00
DAV:   3    -0.384954919826E+03    0.12322E-02   -0.18743E-02 42904   0.257E-01    0.636E-01
DAV:   4    -0.384955119208E+03   -0.19938E-03   -0.11072E-03 42232   0.113E-01    0.365E-01
DAV:   5    -0.384954965923E+03    0.15328E-03   -0.96874E-04 47880   0.533E-02    0.159E-01
DAV:   6    -0.384955054965E+03   -0.89042E-04   -0.39451E-04 39728   0.397E-02    0.246E-01
DAV:   7    -0.384954954157E+03    0.10081E-03   -0.20226E-04 39712   0.397E-02    0.837E-02
DAV:   8    -0.384954968726E+03   -0.14569E-04   -0.10092E-04 43136   0.259E-02    0.455E-02
DAV:   9    -0.384954972145E+03   -0.34189E-05   -0.24234E-05 27176   0.149E-02
  38 F= -.38495497E+03 E0= -.38494798E+03  d E =0.136728E-02  mag=    46.0000
       N       E                     dE             d eps       ncg     rms          rms(c)
DAV:   1    -0.384905387696E+03    0.49581E-01   -0.11078E+01 40144   0.939E+00    0.872E-01
DAV:   2    -0.384954846843E+03   -0.49459E-01   -0.48335E-01 36624   0.151E+00    0.517E-01
DAV:   3    -0.384956476039E+03   -0.16292E-02   -0.14302E-02 45136   0.251E-01    0.902E-01
DAV:   4    -0.384955301832E+03    0.11742E-02   -0.47029E-03 47296   0.158E-01    0.309E-01
DAV:   5    -0.384955469112E+03   -0.16728E-03   -0.10034E-03 44120   0.802E-02    0.321E-01
DAV:   6    -0.384955272943E+03    0.19617E-03   -0.77264E-04 45112   0.673E-02    0.201E-01
DAV:   7    -0.384955241871E+03    0.31072E-04   -0.62505E-04 44888   0.706E-02    0.226E-01
DAV:   8    -0.384955214125E+03    0.27746E-04   -0.25733E-04 42128   0.483E-02    0.176E-01
DAV:   9    -0.384955173592E+03    0.40534E-04   -0.13171E-04 38984   0.239E-02    0.303E-02
DAV:  10    -0.384955191939E+03   -0.18348E-04   -0.25973E-05 26216   0.128E-02    0.263E-02
DAV:  11    -0.384955195483E+03   -0.35439E-05   -0.14502E-05 21976   0.875E-03
  39 F= -.38495520E+03 E0= -.38494818E+03  d E =-.223338E-03  mag=    46.0000
       N       E                     dE             d eps       ncg     rms          rms(c)
DAV:   1    -0.383951139860E+03    0.10041E+01   -0.10862E+02 41544   0.367E+01    0.436E+00
DAV:   2    -0.384905971343E+03   -0.95483E+00   -0.90313E+00 37264   0.615E+00    0.702E+00
DAV:   3    -0.384959136418E+03   -0.53165E-01   -0.23241E+00 43680   0.223E+00    0.893E+00
DAV:   4    -0.384852542310E+03    0.10659E+00   -0.28538E-01 44520   0.133E+00    0.258E+00
DAV:   5    -0.384870399440E+03   -0.17857E-01   -0.10070E-01 50840   0.531E-01    0.190E+00
DAV:   6    -0.384873168087E+03   -0.27686E-02   -0.16906E-02 43368   0.415E-01    0.179E+00
DAV:   7    -0.384868177256E+03    0.49908E-02   -0.12656E-02 50512   0.280E-01    0.865E-01
DAV:   8    -0.384869287883E+03   -0.11106E-02   -0.19523E-02 47808   0.255E-01    0.120E+00
DAV:   9    -0.384867992468E+03    0.12954E-02   -0.47905E-03 45864   0.206E-01    0.964E-01
DAV:  10    -0.384866489166E+03    0.15033E-02   -0.26616E-03 52616   0.177E-01    0.380E-01
DAV:  11    -0.384866758954E+03   -0.26979E-03   -0.20248E-03 45080   0.116E-01    0.205E-01
DAV:  12    -0.384866899816E+03   -0.14086E-03   -0.10223E-03 50592   0.612E-02    0.239E-01
DAV:  13    -0.384866911057E+03   -0.11241E-04   -0.14073E-04 43512   0.302E-02    0.283E-01
DAV:  14    -0.384866775152E+03    0.13590E-03   -0.26061E-04 39080   0.296E-02    0.111E-01
DAV:  15    -0.384866827570E+03   -0.52418E-04   -0.39719E-04 39800   0.313E-02    0.191E-01
DAV:  16    -0.384866811004E+03    0.16566E-04   -0.48821E-05 35000   0.236E-02    0.177E-01
DAV:  17    -0.384866764819E+03    0.46184E-04   -0.75167E-05 33520   0.185E-02    0.537E-02
DAV:  18    -0.384866782560E+03   -0.17740E-04   -0.71354E-05 31008   0.148E-02    0.536E-02
DAV:  19    -0.384866787879E+03   -0.53198E-05   -0.13397E-05 27752   0.113E-02
  40 F= -.38486679E+03 E0= -.38485942E+03  d E =0.884076E-01  mag=    46.0000
       N       E                     dE             d eps       ncg     rms          rms(c)
DAV:   1    -0.384227081015E+03    0.63970E+00   -0.46019E+01 46016   0.284E+01    0.452E+00
DAV:   2    -0.385169025000E+03   -0.94194E+00   -0.86753E+00 38424   0.497E+00    0.117E+01
DAV:   3    -0.384996198422E+03    0.17283E+00   -0.14377E+00 42312   0.254E+00    0.592E+00
DAV:   4    -0.385006783342E+03   -0.10585E-01   -0.14822E-01 43104   0.110E+00    0.221E+00
DAV:   5    -0.385013236068E+03   -0.64527E-02   -0.12964E-01 52656   0.564E-01    0.236E+00
DAV:   6    -0.385016040125E+03   -0.28041E-02   -0.26533E-02 43496   0.405E-01    0.214E+00
DAV:   7    -0.385010414621E+03    0.56255E-02   -0.77300E-03 51608   0.215E-01    0.125E+00
DAV:   8    -0.385009194896E+03    0.12197E-02   -0.44932E-03 51336   0.172E-01    0.611E-01
DAV:   9    -0.385008778914E+03    0.41598E-03   -0.47773E-03 45120   0.197E-01    0.385E-01
DAV:  10    -0.385009704604E+03   -0.92569E-03   -0.56242E-03 45120   0.189E-01    0.984E-01
DAV:  11    -0.385009265900E+03    0.43870E-03   -0.13000E-03 45576   0.110E-01    0.105E+00
DAV:  12    -0.385007708867E+03    0.15570E-02   -0.25860E-03 53784   0.978E-02    0.360E-01
DAV:  13    -0.385008240055E+03   -0.53119E-03   -0.22718E-03 42064   0.841E-02    0.299E-01
DAV:  14    -0.385008368645E+03   -0.12859E-03   -0.36613E-04 40704   0.601E-02    0.310E-01
DAV:  15    -0.385008213611E+03    0.15503E-03   -0.24433E-04 49544   0.376E-02    0.941E-02
DAV:  16    -0.385008253049E+03   -0.39438E-04   -0.14410E-04 36136   0.191E-02    0.710E-02
DAV:  17    -0.385008256572E+03   -0.35233E-05   -0.21928E-05 29992   0.187E-02
  41 F= -.38500826E+03 E0= -.38500120E+03  d E =-.141469E+00  mag=    46.0000
       N       E                     dE             d eps       ncg     rms          rms(c)
DAV:   1    -0.385003871452E+03    0.43816E-02   -0.29200E-01 41112   0.185E+00    0.238E-01
DAV:   2    -0.385006847654E+03   -0.29762E-02   -0.23855E-02 37496   0.322E-01    0.861E-01
DAV:   3    -0.385005830132E+03    0.10175E-02   -0.32705E-03 40696   0.144E-01    0.142E-01
DAV:   4    -0.385006212758E+03   -0.38263E-03   -0.55012E-04 42176   0.495E-02    0.238E-01
DAV:   5    -0.385006156116E+03    0.56642E-04   -0.21025E-04 36232   0.372E-02    0.179E-01
DAV:   6    -0.385006117560E+03    0.38556E-04   -0.17796E-04 32832   0.250E-02    0.512E-02
DAV:   7    -0.385006140318E+03   -0.22759E-04   -0.67636E-05 37344   0.223E-02    0.113E-01
DAV:   8    -0.385006129178E+03    0.11140E-04   -0.29466E-05 31264   0.170E-02    0.961E-02
DAV:   9    -0.385006125479E+03    0.36986E-05   -0.10109E-05 24328   0.109E-02
  42 F= -.38500613E+03 E0= -.38499904E+03  d E =0.213109E-02  mag=    46.0000
       N       E                     dE             d eps       ncg     rms          rms(c)
DAV:   1    -0.384980602940E+03    0.25526E-01   -0.30014E+00 40480   0.522E+00    0.575E-01
DAV:   2    -0.384999869348E+03   -0.19266E-01   -0.18210E-01 36848   0.884E-01    0.152E+00
DAV:   3    -0.384997439743E+03    0.24296E-02   -0.30623E-02 44520   0.318E-01    0.748E-01
DAV:   4    -0.384998153865E+03   -0.71412E-03   -0.13682E-03 42856   0.122E-01    0.564E-01
DAV:   5    -0.384997661513E+03    0.49235E-03   -0.17679E-03 51416   0.821E-02    0.178E-01
DAV:   6    -0.384997783303E+03   -0.12179E-03   -0.41358E-04 40040   0.559E-02    0.197E-01
DAV:   7    -0.384997750398E+03    0.32905E-04   -0.20249E-04 46064   0.408E-02    0.113E-01
DAV:   8    -0.384997768612E+03   -0.18214E-04   -0.14135E-04 40568   0.275E-02    0.130E-01
DAV:   9    -0.384997760612E+03    0.80000E-05   -0.52037E-05 28392   0.171E-02
  43 F= -.38499776E+03 E0= -.38499069E+03  d E =0.836487E-02  mag=    46.0000
       N       E                     dE             d eps       ncg     rms          rms(c)
DAV:   1    -0.384997281928E+03    0.48668E-03   -0.67196E-02 43128   0.988E-01    0.129E-01
DAV:   2    -0.384998114251E+03   -0.83232E-03   -0.66629E-03 38128   0.165E-01    0.415E-01
DAV:   3    -0.384997890963E+03    0.22329E-03   -0.10388E-03 40624   0.754E-02    0.983E-02
DAV:   4    -0.384997978534E+03   -0.87571E-04   -0.11893E-04 35944   0.274E-02    0.115E-01
DAV:   5    -0.384997960687E+03    0.17846E-04   -0.64031E-05 29688   0.174E-02    0.651E-02
DAV:   6    -0.384997959587E+03    0.10999E-05   -0.44398E-05 26232   0.135E-02
  44 F= -.38499796E+03 E0= -.38499088E+03  d E =-.198975E-03  mag=    46.0000
       N       E                     dE             d eps       ncg     rms          rms(c)
DAV:   1    -0.384994976433E+03    0.29843E-02   -0.16282E-01 40304   0.129E+00    0.147E-01
DAV:   2    -0.384996355055E+03   -0.13786E-02   -0.11463E-02 37280   0.228E-01    0.666E-01
DAV:   3    -0.384995730934E+03    0.62412E-03   -0.18324E-03 40440   0.985E-02    0.117E-01
DAV:   4    -0.384995944007E+03   -0.21307E-03   -0.42333E-04 38280   0.287E-02    0.201E-01
DAV:   5    -0.384995915008E+03    0.28999E-04   -0.84318E-05 31392   0.287E-02    0.136E-01
DAV:   6    -0.384995897696E+03    0.17312E-04   -0.65483E-05 29224   0.144E-02    0.548E-02
DAV:   7    -0.384995900181E+03   -0.24855E-05   -0.21494E-05 28048   0.128E-02
  45 F= -.38499590E+03 E0= -.38498883E+03  d E =0.205941E-02  mag=    46.0000
       N       E                     dE             d eps       ncg     rms          rms(c)
DAV:   1    -0.384991040052E+03    0.48576E-02   -0.50448E-01 39728   0.218E+00    0.218E-01
DAV:   2    -0.384993939316E+03   -0.28993E-02   -0.27943E-02 36672   0.359E-01    0.292E-01
DAV:   3    -0.384994249065E+03   -0.30975E-03   -0.33384E-03 46928   0.112E-01    0.583E-01
DAV:   4    -0.384993821436E+03    0.42763E-03   -0.96278E-04 40848   0.759E-02    0.206E-01
DAV:   5    -0.384993872399E+03   -0.50963E-04   -0.24001E-04 35048   0.268E-02    0.601E-02
DAV:   6    -0.384993899379E+03   -0.26980E-04   -0.63490E-05 28944   0.190E-02    0.880E-02
DAV:   7    -0.384993886660E+03    0.12719E-04   -0.28731E-05 30344   0.188E-02    0.455E-02
DAV:   8    -0.384993885410E+03    0.12505E-05   -0.19405E-05 23872   0.120E-02
  46 F= -.38499389E+03 E0= -.38498682E+03  d E =0.201477E-02  mag=    46.0000
       N       E                     dE             d eps       ncg     rms          rms(c)
DAV:   1    -0.384992928463E+03    0.95820E-03   -0.33608E-01 40184   0.167E+00    0.177E-01
DAV:   2    -0.384994969998E+03   -0.20415E-02   -0.17837E-02 36848   0.285E-01    0.675E-01
DAV:   3    -0.384994342639E+03    0.62736E-03   -0.26130E-03 40528   0.113E-01    0.975E-02
DAV:   4    -0.384994575415E+03   -0.23278E-03   -0.29187E-04 38184   0.335E-02    0.195E-01
DAV:   5    -0.384994533687E+03    0.41728E-04   -0.88572E-05 31080   0.260E-02    0.142E-01
DAV:   6    -0.384994510681E+03    0.23006E-04   -0.84848E-05 29024   0.171E-02    0.341E-02
DAV:   7    -0.384994522538E+03   -0.11856E-04   -0.32507E-05 26456   0.134E-02    0.597E-02
DAV:   8    -0.384994526320E+03   -0.37824E-05   -0.23769E-05 23872   0.107E-02
  47 F= -.38499453E+03 E0= -.38498747E+03  d E =-.640910E-03  mag=    46.0000
       N       E                     dE             d eps       ncg     rms          rms(c)
DAV:   1    -0.384951670699E+03    0.42852E-01   -0.10840E+01 40144   0.929E+00    0.879E-01
DAV:   2    -0.385002508922E+03   -0.50838E-01   -0.48946E-01 36608   0.151E+00    0.168E+00
DAV:   3    -0.385003985837E+03   -0.14769E-02   -0.83084E-02 46992   0.480E-01    0.197E+00
DAV:   4    -0.384999963403E+03    0.40224E-02   -0.80417E-03 42584   0.275E-01    0.793E-01
DAV:   5    -0.385000100047E+03   -0.13664E-03   -0.49138E-03 49520   0.102E-01    0.296E-01
DAV:   6    -0.385000529987E+03   -0.42994E-03   -0.13466E-03 40352   0.727E-02    0.461E-01
DAV:   7    -0.385000257966E+03    0.27202E-03   -0.67460E-04 45264   0.748E-02    0.244E-01
DAV:   8    -0.385000225211E+03    0.32755E-04   -0.33327E-04 46800   0.435E-02    0.103E-01
DAV:   9    -0.385000241639E+03   -0.16428E-04   -0.12156E-04 39976   0.313E-02    0.108E-01
DAV:  10    -0.385000236745E+03    0.48936E-05   -0.14895E-04 38424   0.257E-02    0.688E-02
DAV:  11    -0.385000247451E+03   -0.10706E-04   -0.64570E-05 29040   0.186E-02    0.801E-02
DAV:  12    -0.385000246306E+03    0.11451E-05   -0.13556E-05 26304   0.105E-02
  48 F= -.38500025E+03 E0= -.38499318E+03  d E =-.571999E-02  mag=    46.0000
       N       E                     dE             d eps       ncg     rms          rms(c)
DAV:   1    -0.384862491897E+03    0.13776E+00   -0.31170E+01 40104   0.165E+01    0.177E+00
DAV:   2    -0.385062437662E+03   -0.19995E+00   -0.18482E+00 37392   0.283E+00    0.641E+00
DAV:   3    -0.384997585932E+03    0.64852E-01   -0.32774E-01 39384   0.114E+00    0.105E+00
DAV:   4    -0.385017850903E+03   -0.20265E-01   -0.37981E-02 43056   0.357E-01    0.212E+00
DAV:   5    -0.385012847484E+03    0.50034E-02   -0.94360E-03 43896   0.262E-01    0.138E+00
DAV:   6    -0.385010910271E+03    0.19372E-02   -0.59165E-03 51592   0.147E-01    0.407E-01
DAV:   7    -0.385012145497E+03   -0.12352E-02   -0.38678E-03 41968   0.113E-01    0.608E-01
DAV:   8    -0.385011868721E+03    0.27678E-03   -0.12623E-03 44688   0.958E-02    0.478E-01
DAV:   9    -0.385011947771E+03   -0.79051E-04   -0.75982E-04 45352   0.658E-02    0.540E-01
DAV:  10    -0.385011770574E+03    0.17720E-03   -0.56957E-04 49296   0.540E-02    0.470E-01
DAV:  11    -0.385011533579E+03    0.23700E-03   -0.92761E-04 42544   0.476E-02    0.630E-02
DAV:  12    -0.385011782062E+03   -0.24848E-03   -0.46824E-04 35568   0.270E-02    0.250E-01
DAV:  13    -0.385011781072E+03    0.99020E-06   -0.60900E-05 29976   0.212E-02
  49 F= -.38501178E+03 E0= -.38500478E+03  d E =-.115348E-01  mag=    46.0000
       N       E                     dE             d eps       ncg     rms          rms(c)
DAV:   1    -0.384952644233E+03    0.59138E-01   -0.14818E+01 39784   0.111E+01    0.151E+00
DAV:   2    -0.385091656201E+03   -0.13901E+00   -0.12824E+00 38456   0.213E+00    0.721E+00
DAV:   3    -0.385003780807E+03    0.87875E-01   -0.28546E-01 38240   0.114E+00    0.171E+00
DAV:   4    -0.385021293074E+03   -0.17512E-01   -0.69770E-02 48864   0.376E-01    0.152E+00
DAV:   5    -0.385022931463E+03   -0.16384E-02   -0.10107E-02 38624   0.259E-01    0.141E+00
DAV:   6    -0.385020429633E+03    0.25018E-02   -0.25459E-03 49280   0.124E-01    0.836E-01
DAV:   7    -0.385020055879E+03    0.37375E-03   -0.26001E-03 50328   0.879E-02    0.260E-01
DAV:   8    -0.385020541318E+03   -0.48544E-03   -0.96534E-04 40752   0.636E-02    0.262E-01
DAV:   9    -0.385020770439E+03   -0.22912E-03   -0.91721E-04 45392   0.552E-02    0.494E-01
DAV:  10    -0.385020831221E+03   -0.60782E-04   -0.51777E-04 43872   0.480E-02    0.621E-01
DAV:  11    -0.385020426588E+03    0.40463E-03   -0.24854E-04 38488   0.348E-02    0.412E-01
DAV:  12    -0.385020345426E+03    0.81161E-04   -0.83663E-04 39472   0.369E-02    0.621E-02
DAV:  13    -0.385020550560E+03   -0.20513E-03   -0.28592E-04 33496   0.222E-02    0.220E-01
DAV:  14    -0.385020536956E+03    0.13604E-04   -0.25661E-05 27056   0.157E-02    0.234E-01
DAV:  15    -0.385020472394E+03    0.64562E-04   -0.44506E-05 27512   0.141E-02    0.135E-01
DAV:  16    -0.385020472661E+03   -0.26705E-06   -0.74353E-05 26488   0.104E-02
  50 F= -.38502047E+03 E0= -.38501365E+03  d E =-.869159E-02  mag=    46.0000
       N       E                     dE             d eps       ncg     rms          rms(c)
DAV:   1    -0.384992179259E+03    0.28293E-01   -0.64163E+00 40504   0.750E+00    0.687E-01
DAV:   2    -0.385022860482E+03   -0.30681E-01   -0.29538E-01 36616   0.121E+00    0.122E+00
DAV:   3    -0.385023716507E+03   -0.85602E-03   -0.42342E-02 46248   0.373E-01    0.142E+00
DAV:   4    -0.385021567558E+03    0.21489E-02   -0.93243E-03 43232   0.230E-01    0.574E-01
DAV:   5    -0.385021658149E+03   -0.90591E-04   -0.20663E-03 48824   0.960E-02    0.180E-01
DAV:   6    -0.385021706802E+03   -0.48653E-04   -0.44491E-04 40208   0.506E-02    0.161E-01
DAV:   7    -0.385021699660E+03    0.71421E-05   -0.22710E-04 47224   0.490E-02    0.149E-01
DAV:   8    -0.385021668195E+03    0.31464E-04   -0.11292E-04 41600   0.290E-02    0.832E-02
DAV:   9    -0.385021660606E+03    0.75895E-05   -0.63355E-05 34184   0.200E-02
  51 F= -.38502166E+03 E0= -.38501497E+03  d E =-.118794E-02  mag=    46.0000
       N       E                     dE             d eps       ncg     rms          rms(c)
DAV:   1    -0.385001048275E+03    0.20620E-01   -0.40459E+00 40240   0.615E+00    0.625E-01
DAV:   2    -0.385024219124E+03   -0.23171E-01   -0.21726E-01 36608   0.101E+00    0.134E+00
DAV:   3    -0.385023809077E+03    0.41005E-03   -0.40384E-02 43520   0.354E-01    0.119E+00
DAV:   4    -0.385022773100E+03    0.10360E-02   -0.40142E-03 41552   0.181E-01    0.530E-01
DAV:   5    -0.385022676903E+03    0.96198E-04   -0.11631E-03 52456   0.622E-02    0.161E-01
DAV:   6    -0.385022856465E+03   -0.17956E-03   -0.68831E-04 38096   0.506E-02    0.236E-01
DAV:   7    -0.385022815453E+03    0.41012E-04   -0.26086E-04 41152   0.424E-02    0.160E-01
DAV:   8    -0.385022788436E+03    0.27017E-04   -0.98013E-05 39640   0.280E-02    0.733E-02
DAV:   9    -0.385022794449E+03   -0.60122E-05   -0.68759E-05 35832   0.224E-02
  52 F= -.38502279E+03 E0= -.38501617E+03  d E =-.113384E-02  mag=    46.0000
       N       E                     dE             d eps       ncg     rms          rms(c)
DAV:   1    -0.384916005294E+03    0.10678E+00   -0.18891E+01 40224   0.132E+01    0.130E+00
DAV:   2    -0.385016895410E+03   -0.10089E+00   -0.97445E-01 36608   0.212E+00    0.757E-01
DAV:   3    -0.385020173006E+03   -0.32776E-02   -0.29949E-02 43688   0.353E-01    0.109E+00
DAV:   4    -0.385018657680E+03    0.15153E-02   -0.11145E-02 48688   0.210E-01    0.522E-01
DAV:   5    -0.385018848299E+03   -0.19062E-03   -0.44210E-03 44896   0.134E-01    0.537E-01
DAV:   6    -0.385018359012E+03    0.48929E-03   -0.15277E-03 46472   0.963E-02    0.203E-01
DAV:   7    -0.385018344386E+03    0.14625E-04   -0.11198E-03 44456   0.899E-02    0.240E-01
DAV:   8    -0.385018278350E+03    0.66037E-04   -0.58608E-04 47944   0.632E-02    0.141E-01
DAV:   9    -0.385018273487E+03    0.48625E-05   -0.16831E-04 39120   0.294E-02    0.577E-02
DAV:  10    -0.385018289678E+03   -0.16191E-04   -0.92208E-05 32232   0.212E-02    0.595E-02
DAV:  11    -0.385018286172E+03    0.35061E-05   -0.29171E-05 25784   0.149E-02
  53 F= -.38501829E+03 E0= -.38501181E+03  d E =0.450828E-02  mag=    46.0000
       N       E                     dE             d eps       ncg     rms          rms(c)
DAV:   1    -0.384880588796E+03    0.13770E+00   -0.25430E+01 40120   0.153E+01    0.140E+00
DAV:   2    -0.385008631042E+03   -0.12804E+00   -0.12369E+00 36608   0.245E+00    0.154E+00
DAV:   3    -0.385022395398E+03   -0.13764E-01   -0.20147E-01 48064   0.659E-01    0.349E+00
DAV:   4    -0.385005170970E+03    0.17224E-01   -0.42366E-02 41888   0.461E-01    0.981E-01
DAV:   5    -0.385008017848E+03   -0.28469E-02   -0.10249E-02 48392   0.170E-01    0.390E-01
DAV:   6    -0.385008509909E+03   -0.49206E-03   -0.23357E-03 38632   0.117E-01    0.502E-01
DAV:   7    -0.385008177166E+03    0.33274E-03   -0.13591E-03 49096   0.980E-02    0.279E-01
DAV:   8    -0.385008080457E+03    0.96709E-04   -0.67480E-04 43992   0.739E-02    0.185E-01
DAV:   9    -0.385008067508E+03    0.12949E-04   -0.35715E-04 42848   0.506E-02    0.110E-01
DAV:  10    -0.385008089288E+03   -0.21780E-04   -0.13240E-04 41600   0.275E-02    0.108E-01
DAV:  11    -0.385008083755E+03    0.55329E-05   -0.24403E-05 28560   0.149E-02
  54 F= -.38500808E+03 E0= -.38500168E+03  d E =0.102024E-01  mag=    46.0000
       N       E                     dE             d eps       ncg     rms          rms(c)
DAV:   1    -0.384999854649E+03    0.82346E-02   -0.12170E+00 41264   0.361E+00    0.508E-01
DAV:   2    -0.385015237310E+03   -0.15383E-01   -0.11879E-01 37728   0.670E-01    0.252E+00
DAV:   3    -0.385006625185E+03    0.86121E-02   -0.20722E-02 37944   0.355E-01    0.460E-01
DAV:   4    -0.385009165445E+03   -0.25403E-02   -0.54195E-03 42344   0.961E-02    0.446E-01
DAV:   5    -0.385009202112E+03   -0.36667E-04   -0.79810E-04 40240   0.790E-02    0.351E-01
DAV:   6    -0.385009031805E+03    0.17031E-03   -0.40615E-04 41696   0.440E-02    0.124E-01
DAV:   7    -0.385009096231E+03   -0.64427E-04   -0.26789E-04 39680   0.322E-02    0.160E-01
DAV:   8    -0.385009087630E+03    0.86013E-05   -0.11634E-04 37488   0.256E-02    0.159E-01
DAV:   9    -0.385009112729E+03   -0.25099E-04   -0.68599E-05 34600   0.217E-02    0.208E-01
DAV:  10    -0.385009070729E+03    0.42000E-04   -0.28038E-05 27680   0.140E-02    0.145E-01
DAV:  11    -0.385009058193E+03    0.12536E-04   -0.46210E-05 23592   0.963E-03    0.481E-02
DAV:  12    -0.385009070574E+03   -0.12381E-04   -0.25941E-05 23144   0.663E-03    0.189E-02
DAV:  13    -0.385009074122E+03   -0.35478E-05   -0.32519E-06 20232   0.460E-03
  55 F= -.38500907E+03 E0= -.38500265E+03  d E =-.990367E-03  mag=    46.0000
       N       E                     dE             d eps       ncg     rms          rms(c)
DAV:   1    -0.385008398732E+03    0.67184E-03   -0.33119E-01 41136   0.209E+00    0.266E-01
DAV:   2    -0.385011863530E+03   -0.34648E-02   -0.32967E-02 36880   0.354E-01    0.264E-01
DAV:   3    -0.385012366706E+03   -0.50318E-03   -0.36229E-03 47448   0.117E-01    0.626E-01
DAV:   4    -0.385011802069E+03    0.56464E-03   -0.12623E-03 41296   0.859E-02    0.174E-01
DAV:   5    -0.385011907454E+03   -0.10539E-03   -0.31804E-04 35872   0.294E-02    0.881E-02
DAV:   6    -0.385011936796E+03   -0.29342E-04   -0.95705E-05 30744   0.232E-02    0.116E-01
DAV:   7    -0.385011920202E+03    0.16594E-04   -0.38911E-05 28872   0.179E-02    0.565E-02
DAV:   8    -0.385011920333E+03   -0.13097E-06   -0.26854E-05 26088   0.129E-02
  56 F= -.38501192E+03 E0= -.38500552E+03  d E =-.284621E-02  mag=    46.0000
