       N       E                     dE             d eps       ncg     rms          ort
DAV:   1     0.733810317403E+04    0.73381E+04   -0.35098E+05  9568   0.175E+03
DAV:   2     0.481140517833E+03   -0.68570E+04   -0.64337E+04  9568   0.512E+02
DAV:   3    -0.319557940853E+03   -0.80070E+03   -0.77627E+03  9568   0.195E+02
DAV:   4    -0.352412691309E+03   -0.32855E+02   -0.32437E+02  9568   0.383E+01
DAV:   5    -0.354665701722E+03   -0.22530E+01   -0.22286E+01  9568   0.764E+00
SDA:   6    -0.176228126458E+03    0.17844E+03   -0.22286E+01  9568   0.157E+04 0.000E+00
CGA:   7    -0.259680398305E+03   -0.83452E+02   -0.98892E+02  9568   0.524E+03 0.306E+03
CGA:   8    -0.274868834537E+03   -0.15188E+02   -0.76862E+01  9568   0.453E+03 0.813E+03
CGA:   9    -0.282185853427E+03   -0.73170E+01   -0.87332E+01  9568   0.511E+03 0.514E+02
CGA:  10    -0.288873365375E+03   -0.66875E+01   -0.23173E+02  9568   0.515E+03 0.351E+02
CGA:  11    -0.287058063925E+03    0.18153E+01   -0.19531E+02  9568   0.168E+04-0.288E+03
CGA:  12    -0.298759658133E+03   -0.11702E+02   -0.55525E+02  9568   0.823E+03-0.258E+03
CGA:  13    -0.292787469523E+03    0.59722E+01   -0.33913E+02  9568   0.487E+03-0.229E+02
CGA:  14    -0.299846256188E+03   -0.70588E+01   -0.79533E+01  9568   0.423E+03-0.300E+03
CGA:  15    -0.303835647828E+03   -0.39894E+01   -0.90461E+01  9568   0.495E+03-0.496E+02
CGA:  16    -0.293488072518E+03    0.10348E+02   -0.15203E+02  9568   0.278E+03-0.715E+02
CGA:  17    -0.300206593246E+03   -0.67185E+01   -0.26617E+01  9568   0.266E+03 0.380E+03
CGA:  18    -0.305243164185E+03   -0.50366E+01   -0.26745E+01  9568   0.202E+03 0.235E+03
CGA:  19    -0.295244041114E+03    0.99991E+01   -0.85635E+01  9568   0.546E+03-0.144E+02
CGA:  20    -0.283805801257E+03    0.11438E+02   -0.71007E+01  9568   0.220E+04-0.748E+03
CGA:  21    -0.269092343638E+03    0.14713E+02   -0.94890E+02  9568   0.738E+04-0.425E+04
CGA:  22    -0.283633640159E+03   -0.14541E+02   -0.33608E+03  9568   0.151E+04-0.128E+04
CGA:  23    -0.286988282048E+03   -0.33546E+01   -0.26978E+02  9568   0.169E+04-0.135E+03
CGA:  24    -0.292237822999E+03   -0.52495E+01   -0.32572E+02  9568   0.904E+03 0.494E+02
CGA:  25    -0.303537153016E+03   -0.11299E+02   -0.29060E+02  9568   0.344E+03-0.162E+03
CGA:  26    -0.299125658835E+03    0.44115E+01   -0.96935E+01  9568   0.535E+03-0.263E+02
CGA:  27    -0.299951720077E+03   -0.82606E+00   -0.16441E+02  9568   0.112E+04 0.184E+03
CGA:  28    -0.299290837014E+03    0.66088E+00   -0.48552E+02  9568   0.144E+03-0.117E+03
CGA:  29    -0.301450724215E+03   -0.21599E+01   -0.11238E+01  9568   0.115E+03 0.122E+03
CGA:  30    -0.303505417505E+03   -0.20547E+01   -0.95617E+00  9568   0.119E+03 0.138E+03
CGA:  31    -0.307475044138E+03   -0.39696E+01   -0.14310E+01  9568   0.146E+03 0.223E+03
CGA:  32    -0.308632063435E+03   -0.11570E+01   -0.28385E+01  9568   0.280E+03-0.263E+03
CGA:  33    -0.306139834388E+03    0.24922E+01   -0.77645E+01  9568   0.258E+03-0.141E+03
CGA:  34    -0.306513813025E+03   -0.37398E+00   -0.54181E+01  9568   0.441E+03-0.402E+03
CGA:  35    -0.304213759574E+03    0.23001E+01   -0.11834E+02  9568   0.285E+03-0.209E+03
CGA:  36    -0.310932664422E+03   -0.67189E+01   -0.28739E+01  9568   0.360E+02-0.101E+02
CGA:  37    -0.311208791819E+03   -0.27613E+00   -0.15396E+00  9568   0.218E+02 0.255E+02
CGA:  38    -0.311428772266E+03   -0.21998E+00   -0.27704E+00  9568   0.503E+01-0.335E+01
CGA:  39    -0.311553651157E+03   -0.12488E+00   -0.12265E+00  9568   0.108E+02 0.895E-03
CGA:  40    -0.311650601448E+03   -0.96950E-01   -0.52830E-01  9568   0.697E+01 0.903E+01
CGA:  41    -0.311709965542E+03   -0.59364E-01   -0.81858E-01  9568   0.413E+01-0.168E+01
CGA:  42    -0.311333752720E+03    0.37621E+00   -0.39161E+00  9568   0.117E+03-0.159E+02
CGA:  43    -0.311612516603E+03   -0.27876E+00   -0.21161E+01  9568   0.812E+02-0.579E+02
CGA:  44    -0.312102657232E+03   -0.49014E+00   -0.36386E+00  9568   0.148E+02 0.113E+02
CGA:  45    -0.312243257703E+03   -0.14060E+00   -0.11852E+00  9568   0.604E+01 0.304E+01
CGA:  46    -0.312287762110E+03   -0.44504E-01   -0.24173E-01  9568   0.489E+01 0.601E+01
CGA:  47    -0.312366163715E+03   -0.78402E-01   -0.71616E-01  9568   0.161E+01 0.450E+00
CGA:  48    -0.312390125384E+03   -0.23962E-01   -0.19172E-01  9568   0.980E+00 0.375E+00
CGA:  49    -0.312478184477E+03   -0.88059E-01   -0.84320E-01  9568   0.994E+01 0.138E+00
CGA:  50    -0.312533890698E+03   -0.55706E-01   -0.27261E-01  9568   0.940E+01 0.119E+02
CGA:  51    -0.312610004895E+03   -0.76114E-01   -0.85735E-01  9568   0.718E+00-0.100E+01
CGA:  52    -0.312641313301E+03   -0.31308E-01   -0.30846E-01  9568   0.190E+01 0.408E-01
CGA:  53    -0.312724162100E+03   -0.82849E-01   -0.76108E-01  9568   0.315E+01-0.684E+00
CGA:  54    -0.312735486907E+03   -0.11325E-01   -0.80305E-02  9568   0.321E+01 0.755E+00
CGA:  55    -0.312763457081E+03   -0.27970E-01   -0.23261E-01  9568   0.124E+01 0.874E+00
CGA:  56    -0.312776414583E+03   -0.12958E-01   -0.15532E-01  9568   0.121E+01-0.226E+00
CGA:  57    -0.312791840344E+03   -0.15426E-01   -0.11153E-01  9568   0.149E+01 0.362E+00
CGA:  58    -0.312800475098E+03   -0.86348E-02   -0.49283E-02  9568   0.110E+01 0.141E+01
CGA:  59    -0.312819771903E+03   -0.19297E-01   -0.18039E-01  9568   0.769E+00 0.403E-01
CGA:  60    -0.312844988971E+03   -0.25217E-01   -0.25258E-01  9568   0.138E+01 0.257E-01
CGA:  61    -0.312906279735E+03   -0.61291E-01   -0.58233E-01  9568   0.617E+00 0.222E+00
CGA:  62    -0.312927171054E+03   -0.20891E-01   -0.21086E-01  9568   0.586E+00 0.224E-01
CGA:  63    -0.312938578110E+03   -0.11407E-01   -0.10486E-01  9568   0.415E+00 0.260E-01
CGA:  64    -0.312958703463E+03   -0.20125E-01   -0.19920E-01  9568   0.525E+00 0.833E-02
CGA:  65    -0.312972777956E+03   -0.14074E-01   -0.14127E-01  9568   0.455E+00 0.461E-02
CGA:  66    -0.312980417110E+03   -0.76392E-02   -0.68148E-02  9568   0.201E+00 0.352E-01
CGA:  67    -0.312987948104E+03   -0.75310E-02   -0.75352E-02  9568   0.281E+00-0.208E-02
CGA:  68    -0.312994144538E+03   -0.61964E-02   -0.63347E-02  9568   0.243E+00 0.232E-03
CGA:  69    -0.313000065360E+03   -0.59208E-02   -0.59207E-02  9568   0.219E+00-0.323E-03
CGA:  70    -0.313006474678E+03   -0.64093E-02   -0.64299E-02  9568   0.110E+00 0.657E-02
CGA:  71    -0.313009619219E+03   -0.31445E-02   -0.31686E-02  9568   0.895E-01 0.240E-02
CGA:  72    -0.313011122271E+03   -0.15031E-02   -0.14947E-02  9568   0.372E-01-0.142E-02
CGA:  73    -0.313012838606E+03   -0.17163E-02   -0.16326E-02  9568   0.526E-01 0.346E-02
CGA:  74    -0.313014751963E+03   -0.19134E-02   -0.19152E-02  9568   0.271E-01-0.119E-02
CGA:  75    -0.313015666503E+03   -0.91454E-03   -0.90763E-03  9568   0.238E-01 0.667E-03
CGA:  76    -0.313016285001E+03   -0.61850E-03   -0.61755E-03  9568   0.239E-01-0.435E-03
CGA:  77    -0.313017038771E+03   -0.75377E-03   -0.75188E-03  9568   0.115E-01 0.469E-03
CGA:  78    -0.313017623717E+03   -0.58495E-03   -0.57867E-03  9568   0.128E-01 0.209E-03
CGA:  79    -0.313018070929E+03   -0.44721E-03   -0.44615E-03  9568   0.926E-02 0.170E-03
CGA:  80    -0.313018313503E+03   -0.24257E-03   -0.24250E-03  9568   0.916E-02-0.655E-04
CGA:  81    -0.313018597890E+03   -0.28439E-03   -0.28445E-03  9568   0.419E-02 0.168E-03
CGA:  82    -0.313018775187E+03   -0.17730E-03   -0.17813E-03  9568   0.395E-02-0.783E-04
CGA:  83    -0.313018944946E+03   -0.16976E-03   -0.16865E-03  9568   0.517E-02 0.594E-04
CGA:  84    -0.313019075242E+03   -0.13030E-03   -0.13003E-03  9568   0.351E-02-0.379E-04
CGA:  85    -0.313019176643E+03   -0.10140E-03   -0.10141E-03  9568   0.138E-02-0.174E-04
CGA:  86    -0.313019237059E+03   -0.60415E-04   -0.60511E-04  9568   0.151E-02-0.117E-04
CGA:  87    -0.313019281783E+03   -0.44724E-04   -0.44709E-04  9568   0.157E-02-0.117E-04
CGA:  88    -0.313019334432E+03   -0.52650E-04   -0.52674E-04  9568   0.134E-02-0.195E-04
SDA:  89    -0.313019392863E+03   -0.58430E-04   -0.58463E-04  9568   0.109E-02-0.716E-05
CGA:  90    -0.313019408637E+03   -0.15775E-04   -0.15724E-04  9568   0.323E-03-0.132E-05
CGA:  91    -0.313019418331E+03   -0.96937E-05   -0.96936E-05  9568   0.336E-03-0.123E-05
CGA:  92    -0.313019437851E+03   -0.19520E-04   -0.19457E-04  9568   0.600E-03 0.179E-05
CGA:  93    -0.313019483373E+03   -0.45522E-04   -0.45282E-04  9568   0.598E-03 0.593E-05
CGA:  94    -0.313019544738E+03   -0.61365E-04   -0.61825E-04  9568   0.128E-02-0.664E-05
CGA:  95    -0.313019574740E+03   -0.30002E-04   -0.29815E-04  9568   0.106E-02-0.266E-05
CGA:  96    -0.313019603532E+03   -0.28792E-04   -0.28910E-04  9568   0.283E-03-0.395E-05
CGA:  97    -0.313019612967E+03   -0.94346E-05   -0.94309E-05  9568   0.302E-03-0.127E-05
CGA:  98    -0.313019645731E+03   -0.32764E-04   -0.33305E-04  9568   0.337E-03-0.796E-05
CGA:  99    -0.313019654109E+03   -0.83785E-05   -0.83996E-05  9568   0.459E-03-0.240E-05
CGA: 100    -0.313019679438E+03   -0.25329E-04   -0.25497E-04  9568   0.447E-03-0.955E-05
CGA: 101    -0.313019706010E+03   -0.26572E-04   -0.26582E-04  9568   0.451E-03-0.204E-05
CGA: 102    -0.313019719996E+03   -0.13986E-04   -0.13864E-04  9568   0.444E-03-0.508E-05
CGA: 103    -0.313019740421E+03   -0.20425E-04   -0.20382E-04  9568   0.827E-03 0.146E-05
CGA: 104    -0.313019764278E+03   -0.23857E-04   -0.23507E-04  9568   0.341E-03-0.103E-04
CGA: 105    -0.313019783622E+03   -0.19344E-04   -0.19410E-04  9568   0.338E-03-0.527E-05
CGA: 106    -0.313019790461E+03   -0.68394E-05   -0.67224E-05  9568   0.246E-03-0.866E-06
CGA: 107    -0.313019810250E+03   -0.19789E-04   -0.19639E-04  9568   0.322E-03 0.337E-05
CGA: 108    -0.313019827706E+03   -0.17457E-04   -0.17640E-04  9568   0.365E-03-0.128E-04
CGA: 109    -0.313019834675E+03   -0.69691E-05   -0.70427E-05  9568   0.182E-03-0.513E-05
   1 F= -.31301983E+03 E0= -.31299912E+03  d E =-.313020E+03  mag=    25.8718
       N       E                     dE             d eps       ncg     rms          ort
SDA:   1    -0.313008486130E+03    0.11342E-01    0.00000E+00  9568   0.101E+01 0.000E+00
CGA:   2    -0.313020151557E+03   -0.11665E-01   -0.12284E-01  9568   0.571E-01-0.419E-01
CGA:   3    -0.313020766208E+03   -0.61465E-03   -0.60117E-03  9568   0.245E-02 0.983E-03
CGA:   4    -0.313020846333E+03   -0.80125E-04   -0.80108E-04  9568   0.133E-02 0.733E-06
CGA:   5    -0.313020875435E+03   -0.29102E-04   -0.29164E-04  9568   0.122E-02 0.167E-05
CGA:   6    -0.313020920450E+03   -0.45015E-04   -0.45009E-04  9568   0.559E-03-0.942E-06
CGA:   7    -0.313020936695E+03   -0.16245E-04   -0.16262E-04  9568   0.440E-03 0.212E-05
CGA:   8    -0.313020954045E+03   -0.17350E-04   -0.17347E-04  9568   0.624E-03 0.202E-05
CGA:   9    -0.313020966763E+03   -0.12717E-04   -0.12719E-04  9568   0.208E-03 0.133E-05
CGA:  10    -0.313020976901E+03   -0.10139E-04   -0.10109E-04  9568   0.131E-03 0.255E-05
CGA:  11    -0.313020980446E+03   -0.35443E-05   -0.35601E-05  9568   0.163E-03 0.149E-05
   2 F= -.31302098E+03 E0= -.31300026E+03  d E =-.114577E-02  mag=    25.8715
       N       E                     dE             d eps       ncg     rms          ort
SDA:   1    -0.312959979842E+03    0.60997E-01    0.00000E+00  9568   0.685E+00 0.000E+00
CGA:   2    -0.312974736158E+03   -0.14756E-01   -0.14505E-01  9568   0.348E+00 0.401E-02
CGA:   3    -0.313011859349E+03   -0.37123E-01   -0.37995E-01  9568   0.757E+00-0.143E-01
CGA:   4    -0.313022990948E+03   -0.11132E-01   -0.11144E-01  9568   0.257E+00-0.836E-03
CGA:   5    -0.313035549938E+03   -0.12559E-01   -0.12531E-01  9568   0.107E+00 0.185E-02
CGA:   6    -0.313041772490E+03   -0.62226E-02   -0.62825E-02  9568   0.187E+00-0.258E-02
CGA:   7    -0.313045632775E+03   -0.38603E-02   -0.38524E-02  9568   0.112E+00 0.164E-03
CGA:   8    -0.313048854291E+03   -0.32215E-02   -0.32355E-02  9568   0.396E-01 0.211E-03
CGA:   9    -0.313049759917E+03   -0.90563E-03   -0.91759E-03  9568   0.151E-01-0.111E-03
CGA:  10    -0.313050759612E+03   -0.99970E-03   -0.10007E-02  9568   0.331E-01-0.327E-04
CGA:  11    -0.313051319637E+03   -0.56002E-03   -0.55783E-03  9568   0.858E-02 0.767E-04
CGA:  12    -0.313051657712E+03   -0.33808E-03   -0.33817E-03  9568   0.220E-02-0.353E-04
CGA:  13    -0.313051773730E+03   -0.11602E-03   -0.11585E-03  9568   0.509E-02 0.946E-05
CGA:  14    -0.313051911898E+03   -0.13817E-03   -0.13818E-03  9568   0.313E-02 0.198E-05
CGA:  15    -0.313051998478E+03   -0.86580E-04   -0.86741E-04  9568   0.173E-02 0.608E-05
CGA:  16    -0.313052053575E+03   -0.55097E-04   -0.55100E-04  9568   0.471E-03 0.100E-05
CGA:  17    -0.313052091577E+03   -0.38002E-04   -0.37883E-04  9568   0.123E-02 0.259E-05
CGA:  18    -0.313052117213E+03   -0.25636E-04   -0.25710E-04  9568   0.751E-03 0.307E-05
CGA:  19    -0.313052151422E+03   -0.34209E-04   -0.34178E-04  9568   0.305E-03 0.410E-05
CGA:  20    -0.313052161416E+03   -0.99937E-05   -0.10005E-04  9568   0.264E-03 0.142E-05
CGA:  21    -0.313052178399E+03   -0.16983E-04   -0.16967E-04  9568   0.257E-03 0.553E-06
CGA:  22    -0.313052186655E+03   -0.82558E-05   -0.82582E-05  9568   0.354E-03 0.105E-06
   3 F= -.31305219E+03 E0= -.31303144E+03  d E =-.312062E-01  mag=    25.8719
       N       E                     dE             d eps       ncg     rms          ort
SDA:   1    -0.312432025210E+03    0.62015E+00    0.00000E+00  9568   0.798E+01 0.000E+00
CGA:   2    -0.312545738167E+03   -0.11371E+00   -0.10968E+00  9568   0.270E+01 0.120E+00
CGA:   3    -0.312664764764E+03   -0.11903E+00   -0.11780E+00  9568   0.497E+01 0.146E+00
CGA:   4    -0.312890626670E+03   -0.22586E+00   -0.22334E+00  9568   0.288E+01 0.323E+00
CGA:   5    -0.312953678587E+03   -0.63052E-01   -0.60791E-01  9568   0.212E+01 0.523E-01
CGA:   6    -0.313007743155E+03   -0.54065E-01   -0.52272E-01  9568   0.856E+00 0.570E-02
CGA:   7    -0.313037094635E+03   -0.29351E-01   -0.29428E-01  9568   0.167E+01 0.143E-01
CGA:   8    -0.313078618562E+03   -0.41524E-01   -0.42208E-01  9568   0.659E+00 0.170E-02
CGA:   9    -0.313098303032E+03   -0.19684E-01   -0.19353E-01  9568   0.418E+00-0.136E-01
CGA:  10    -0.313106843519E+03   -0.85405E-02   -0.85250E-02  9568   0.201E+00 0.172E-03
CGA:  11    -0.313110947094E+03   -0.41036E-02   -0.40761E-02  9568   0.111E+00 0.394E-03
CGA:  12    -0.313118459763E+03   -0.75127E-02   -0.74989E-02  9568   0.107E+00 0.417E-03
CGA:  13    -0.313120611883E+03   -0.21521E-02   -0.21429E-02  9568   0.731E-01 0.183E-03
CGA:  14    -0.313122315580E+03   -0.17037E-02   -0.17070E-02  9568   0.145E-01 0.194E-05
CGA:  15    -0.313123259291E+03   -0.94371E-03   -0.94653E-03  9568   0.356E-01-0.882E-04
CGA:  16    -0.313123942312E+03   -0.68302E-03   -0.68616E-03  9568   0.166E-01-0.513E-04
CGA:  17    -0.313124623219E+03   -0.68091E-03   -0.68029E-03  9568   0.152E-01 0.716E-04
CGA:  18    -0.313125000377E+03   -0.37716E-03   -0.37536E-03  9568   0.533E-02-0.606E-05
CGA:  19    -0.313125144404E+03   -0.14403E-03   -0.14412E-03  9568   0.751E-02 0.667E-05
CGA:  20    -0.313125443179E+03   -0.29877E-03   -0.29867E-03  9568   0.375E-02 0.151E-04
CGA:  21    -0.313125662550E+03   -0.21937E-03   -0.21907E-03  9568   0.674E-02 0.122E-04
CGA:  22    -0.313125779424E+03   -0.11687E-03   -0.11688E-03  9568   0.285E-02 0.107E-04
CGA:  23    -0.313125933795E+03   -0.15437E-03   -0.15403E-03  9568   0.254E-02 0.157E-04
CGA:  24    -0.313126000228E+03   -0.66432E-04   -0.66317E-04  9568   0.170E-02-0.251E-05
CGA:  25    -0.313126062679E+03   -0.62451E-04   -0.62451E-04  9568   0.286E-02 0.533E-06
CGA:  26    -0.313126149562E+03   -0.86884E-04   -0.86900E-04  9568   0.173E-02 0.186E-05
CGA:  27    -0.313126239407E+03   -0.89844E-04   -0.89746E-04  9568   0.106E-02 0.504E-05
CGA:  28    -0.313126261794E+03   -0.22388E-04   -0.22413E-04  9568   0.955E-03 0.135E-05
CGA:  29    -0.313126296674E+03   -0.34880E-04   -0.34881E-04  9568   0.493E-03-0.124E-06
CGA:  30    -0.313126327743E+03   -0.31069E-04   -0.31033E-04  9568   0.106E-02 0.131E-05
CGA:  31    -0.313126357727E+03   -0.29984E-04   -0.30033E-04  9568   0.598E-03 0.440E-05
SDA:  32    -0.313126369271E+03   -0.11544E-04   -0.11552E-04  9568   0.308E-03 0.890E-06
CGA:  33    -0.313126375189E+03   -0.59180E-05   -0.59116E-05  9568   0.161E-03-0.339E-06
   4 F= -.31312638E+03 E0= -.31310554E+03  d E =-.741885E-01  mag=    25.8727
       N       E                     dE             d eps       ncg     rms          ort
SDA:   1    -0.311656413203E+03    0.14700E+01    0.00000E+00  9568   0.102E+02 0.000E+00
CGA:   2    -0.311870621544E+03   -0.21421E+00   -0.22543E+00  9568   0.769E+01-0.472E-01
CGA:   3    -0.312267821265E+03   -0.39720E+00   -0.40191E+00  9568   0.202E+02-0.213E+00
CGA:   4    -0.312697429114E+03   -0.42961E+00   -0.45187E+00  9568   0.539E+01-0.798E-01
CGA:   5    -0.312811860189E+03   -0.11443E+00   -0.11930E+00  9568   0.508E+01-0.195E-01
CGA:   6    -0.312917736822E+03   -0.10588E+00   -0.10497E+00  9568   0.268E+01-0.500E-02
CGA:   7    -0.313011386520E+03   -0.93650E-01   -0.93890E-01  9568   0.409E+01-0.682E-01
CGA:   8    -0.313086007043E+03   -0.74621E-01   -0.73192E-01  9568   0.262E+01 0.277E-01
CGA:   9    -0.313141104578E+03   -0.55098E-01   -0.53626E-01  9568   0.770E+00 0.817E-02
CGA:  10    -0.313162237439E+03   -0.21133E-01   -0.21165E-01  9568   0.671E+00 0.232E-02
CGA:  11    -0.313173994879E+03   -0.11757E-01   -0.11848E-01  9568   0.310E+00-0.206E-02
CGA:  12    -0.313191286138E+03   -0.17291E-01   -0.17539E-01  9568   0.431E+00-0.911E-02
CGA:  13    -0.313200152851E+03   -0.88667E-02   -0.87491E-02  9568   0.169E+00 0.513E-03
CGA:  14    -0.313202779999E+03   -0.26271E-02   -0.26513E-02  9568   0.603E-01-0.767E-03
CGA:  15    -0.313205222285E+03   -0.24423E-02   -0.24347E-02  9568   0.460E-01 0.582E-03
CGA:  16    -0.313207240256E+03   -0.20180E-02   -0.20240E-02  9568   0.979E-01-0.386E-03
CGA:  17    -0.313209515875E+03   -0.22756E-02   -0.22733E-02  9568   0.396E-01-0.103E-03
CGA:  18    -0.313210539203E+03   -0.10233E-02   -0.10222E-02  9568   0.168E-01-0.441E-04
CGA:  19    -0.313210996084E+03   -0.45688E-03   -0.45713E-03  9568   0.135E-01 0.299E-04
CGA:  20    -0.313211327364E+03   -0.33128E-03   -0.33178E-03  9568   0.149E-01 0.240E-04
CGA:  21    -0.313212493735E+03   -0.11664E-02   -0.11640E-02  9568   0.118E-01 0.460E-04
CGA:  22    -0.313212731190E+03   -0.23746E-03   -0.23725E-03  9568   0.647E-02 0.104E-04
CGA:  23    -0.313212905846E+03   -0.17466E-03   -0.17498E-03  9568   0.617E-02 0.223E-04
CGA:  24    -0.313213125970E+03   -0.22012E-03   -0.22017E-03  9568   0.484E-02-0.727E-05
CGA:  25    -0.313213500092E+03   -0.37412E-03   -0.37631E-03  9568   0.951E-02-0.543E-04
CGA:  26    -0.313213662892E+03   -0.16280E-03   -0.16341E-03  9568   0.388E-02-0.123E-04
CGA:  27    -0.313213773079E+03   -0.11019E-03   -0.11018E-03  9568   0.218E-02 0.186E-05
CGA:  28    -0.313213855488E+03   -0.82410E-04   -0.82346E-04  9568   0.202E-02 0.119E-04
CGA:  29    -0.313213956414E+03   -0.10093E-03   -0.10079E-03  9568   0.436E-02 0.748E-05
CGA:  30    -0.313214050642E+03   -0.94228E-04   -0.94190E-04  9568   0.163E-02 0.487E-05
CGA:  31    -0.313214122366E+03   -0.71725E-04   -0.71617E-04  9568   0.120E-02 0.897E-05
SDA:  32    -0.313214155400E+03   -0.33034E-04   -0.33040E-04  9568   0.850E-03 0.172E-06
CGA:  33    -0.313214167878E+03   -0.12478E-04   -0.12456E-04  9568   0.385E-03-0.990E-06
CGA:  34    -0.313214186222E+03   -0.18344E-04   -0.18375E-04  9568   0.488E-03-0.243E-05
CGA:  35    -0.313214220148E+03   -0.33926E-04   -0.34152E-04  9568   0.977E-03-0.628E-05
CGA:  36    -0.313214250625E+03   -0.30477E-04   -0.30470E-04  9568   0.227E-03-0.231E-05
CGA:  37    -0.313214260856E+03   -0.10231E-04   -0.10229E-04  9568   0.118E-03-0.125E-07
CGA:  38    -0.313214265003E+03   -0.41468E-05   -0.41478E-05  9568   0.252E-03 0.145E-05
CGA:  39    -0.313214277857E+03   -0.12854E-04   -0.12783E-04  9568   0.135E-03 0.481E-05
CGA:  40    -0.313214287598E+03   -0.97406E-05   -0.97185E-05  9568   0.176E-03 0.443E-06
   5 F= -.31321429E+03 E0= -.31319335E+03  d E =-.879124E-01  mag=    25.8739
       N       E                     dE             d eps       ncg     rms          ort
SDA:   1    -0.308959415596E+03    0.42549E+01    0.00000E+00  9568   0.603E+02 0.000E+00
CGA:   2    -0.309513025222E+03   -0.55361E+00   -0.10483E+01  9568   0.370E+02-0.144E+02
CGA:   3    -0.310354064584E+03   -0.84104E+00   -0.83707E+00  9568   0.348E+02-0.240E+00
CGA:   4    -0.311383148973E+03   -0.10291E+01   -0.10936E+01  9568   0.160E+02 0.474E+01
CGA:   5    -0.311889535643E+03   -0.50639E+00   -0.51529E+00  9568   0.203E+02 0.174E+00
CGA:   6    -0.312213485108E+03   -0.32395E+00   -0.31644E+00  9568   0.144E+02-0.309E-02
CGA:   7    -0.312475310248E+03   -0.26183E+00   -0.22253E+00  9568   0.123E+02 0.154E+01
CGA:   8    -0.312751264358E+03   -0.27595E+00   -0.29637E+00  9568   0.764E+01-0.112E+00
CGA:   9    -0.312946270928E+03   -0.19501E+00   -0.20275E+00  9568   0.100E+02 0.330E+00
CGA:  10    -0.313064655376E+03   -0.11838E+00   -0.11732E+00  9568   0.319E+01-0.566E-02
CGA:  11    -0.313122160746E+03   -0.57505E-01   -0.55287E-01  9568   0.263E+01 0.493E-01
CGA:  12    -0.313167090790E+03   -0.44930E-01   -0.47683E-01  9568   0.134E+01-0.519E-01
CGA:  13    -0.313200062174E+03   -0.32971E-01   -0.33023E-01  9568   0.179E+01 0.284E-02
CGA:  14    -0.313228652945E+03   -0.28591E-01   -0.27706E-01  9568   0.104E+01 0.259E-01
CGA:  15    -0.313248150767E+03   -0.19498E-01   -0.19405E-01  9568   0.942E+00 0.434E-03
CGA:  16    -0.313261813607E+03   -0.13663E-01   -0.13967E-01  9568   0.373E+00-0.102E-01
CGA:  17    -0.313269628751E+03   -0.78151E-02   -0.79055E-02  9568   0.372E+00 0.250E-02
CGA:  18    -0.313275259181E+03   -0.56304E-02   -0.56979E-02  9568   0.171E+00-0.174E-02
CGA:  19    -0.313279261241E+03   -0.40021E-02   -0.39881E-02  9568   0.209E+00-0.127E-02
CGA:  20    -0.313283149820E+03   -0.38886E-02   -0.38919E-02  9568   0.149E+00 0.744E-04
CGA:  21    -0.313287215234E+03   -0.40654E-02   -0.40639E-02  9568   0.162E+00 0.120E-02
CGA:  22    -0.313289540019E+03   -0.23248E-02   -0.23263E-02  9568   0.796E-01-0.331E-04
CGA:  23    -0.313291596398E+03   -0.20564E-02   -0.20565E-02  9568   0.869E-01 0.314E-03
CGA:  24    -0.313292968721E+03   -0.13723E-02   -0.13834E-02  9568   0.508E-01-0.127E-03
CGA:  25    -0.313294369745E+03   -0.14010E-02   -0.14008E-02  9568   0.512E-01 0.881E-04
CGA:  26    -0.313295365668E+03   -0.99592E-03   -0.99409E-03  9568   0.515E-01-0.470E-04
CGA:  27    -0.313296826962E+03   -0.14613E-02   -0.14607E-02  9568   0.446E-01 0.141E-03
CGA:  28    -0.313297532043E+03   -0.70508E-03   -0.70969E-03  9568   0.308E-01-0.276E-04
CGA:  29    -0.313298258228E+03   -0.72618E-03   -0.72613E-03  9568   0.213E-01-0.874E-05
CGA:  30    -0.313298702408E+03   -0.44418E-03   -0.44401E-03  9568   0.230E-01-0.937E-05
CGA:  31    -0.313299234006E+03   -0.53160E-03   -0.53195E-03  9568   0.155E-01 0.107E-03
SDA:  32    -0.313299601999E+03   -0.36799E-03   -0.36812E-03  9568   0.192E-01 0.658E-04
CGA:  33    -0.313299804786E+03   -0.20279E-03   -0.20304E-03  9568   0.295E-02-0.187E-04
CGA:  34    -0.313300014708E+03   -0.20992E-03   -0.20940E-03  9568   0.563E-02 0.113E-04
CGA:  35    -0.313300306853E+03   -0.29215E-03   -0.29129E-03  9568   0.927E-02 0.341E-04
CGA:  36    -0.313300766060E+03   -0.45921E-03   -0.45948E-03  9568   0.210E-02-0.119E-04
CGA:  37    -0.313300859993E+03   -0.93933E-04   -0.93829E-04  9568   0.135E-02 0.577E-05
CGA:  38    -0.313300916511E+03   -0.56518E-04   -0.56486E-04  9568   0.392E-02 0.217E-05
CGA:  39    -0.313301161990E+03   -0.24548E-03   -0.24571E-03  9568   0.170E-02-0.721E-05
CGA:  40    -0.313301222477E+03   -0.60487E-04   -0.60449E-04  9568   0.117E-02 0.708E-05
CGA:  41    -0.313301261257E+03   -0.38781E-04   -0.38779E-04  9568   0.853E-03 0.116E-05
CGA:  42    -0.313301316817E+03   -0.55559E-04   -0.55447E-04  9568   0.182E-02 0.323E-05
CGA:  43    -0.313301355609E+03   -0.38792E-04   -0.38826E-04  9568   0.111E-02 0.302E-05
CGA:  44    -0.313301408714E+03   -0.53105E-04   -0.52968E-04  9568   0.326E-03 0.850E-05
CGA:  45    -0.313301432212E+03   -0.23498E-04   -0.23393E-04  9568   0.356E-03 0.266E-05
CGA:  46    -0.313301438441E+03   -0.62290E-05   -0.62467E-05  9568   0.176E-03 0.282E-06
   6 F= -.31330144E+03 E0= -.31328051E+03  d E =-.871508E-01  mag=    25.8765
       N       E                     dE             d eps       ncg     rms          ort
SDA:   1    -0.309473463695E+03    0.38280E+01    0.00000E+00  9568   0.226E+02 0.000E+00
CGA:   2    -0.309983598366E+03   -0.51013E+00   -0.52713E+00  9568   0.203E+02-0.144E+00
CGA:   3    -0.310826740382E+03   -0.84314E+00   -0.85183E+00  9568   0.461E+02-0.779E+00
CGA:   4    -0.311802222851E+03   -0.97548E+00   -0.10554E+01  9568   0.246E+02-0.118E+00
CGA:   5    -0.312189049253E+03   -0.38683E+00   -0.40951E+00  9568   0.196E+02-0.768E+00
CGA:   6    -0.312519822583E+03   -0.33077E+00   -0.35372E+00  9568   0.767E+01-0.641E+00
CGA:   7    -0.312675243538E+03   -0.15542E+00   -0.14700E+00  9568   0.826E+01 0.114E+00
CGA:   8    -0.312982218837E+03   -0.30698E+00   -0.31513E+00  9568   0.663E+01-0.102E+01
CGA:   9    -0.313121431986E+03   -0.13921E+00   -0.14233E+00  9568   0.525E+01 0.654E-01
CGA:  10    -0.313199269097E+03   -0.77837E-01   -0.86204E-01  9568   0.217E+01-0.236E+00
CGA:  11    -0.313236071890E+03   -0.36803E-01   -0.38995E-01  9568   0.670E+00-0.286E-01
CGA:  12    -0.313261290313E+03   -0.25218E-01   -0.25297E-01  9568   0.153E+01-0.728E-02
CGA:  13    -0.313296362317E+03   -0.35072E-01   -0.34862E-01  9568   0.576E+00-0.379E-02
CGA:  14    -0.313316886815E+03   -0.20524E-01   -0.20494E-01  9568   0.377E+00 0.402E-02
CGA:  15    -0.313321683360E+03   -0.47965E-02   -0.49950E-02  9568   0.115E+00-0.940E-02
CGA:  16    -0.313327037363E+03   -0.53540E-02   -0.53836E-02  9568   0.154E+00-0.149E-02
CGA:  17    -0.313332091262E+03   -0.50539E-02   -0.50527E-02  9568   0.148E+00 0.300E-03
CGA:  18    -0.313336367288E+03   -0.42760E-02   -0.42817E-02  9568   0.137E+00 0.106E-02
CGA:  19    -0.313338802239E+03   -0.24350E-02   -0.24486E-02  9568   0.170E-01-0.251E-03
CGA:  20    -0.313340552904E+03   -0.17507E-02   -0.17487E-02  9568   0.453E-01 0.198E-04
CGA:  21    -0.313341524005E+03   -0.97110E-03   -0.97880E-03  9568   0.351E-01-0.244E-04
CGA:  22    -0.313342658567E+03   -0.11346E-02   -0.11349E-02  9568   0.141E-01 0.152E-03
CGA:  23    -0.313343089924E+03   -0.43136E-03   -0.43196E-03  9568   0.111E-01 0.999E-04
CGA:  24    -0.313343696864E+03   -0.60694E-03   -0.60742E-03  9568   0.687E-02-0.216E-04
CGA:  25    -0.313344028289E+03   -0.33143E-03   -0.33112E-03  9568   0.152E-01 0.191E-04
CGA:  26    -0.313344382948E+03   -0.35466E-03   -0.35579E-03  9568   0.626E-02 0.138E-04
CGA:  27    -0.313344717223E+03   -0.33427E-03   -0.33492E-03  9568   0.533E-02-0.259E-04
CGA:  28    -0.313344869482E+03   -0.15226E-03   -0.15252E-03  9568   0.285E-02 0.176E-04
CGA:  29    -0.313345044901E+03   -0.17542E-03   -0.17464E-03  9568   0.281E-02 0.280E-04
CGA:  30    -0.313345181491E+03   -0.13659E-03   -0.13647E-03  9568   0.676E-02 0.796E-05
CGA:  31    -0.313345350120E+03   -0.16863E-03   -0.16833E-03  9568   0.165E-02 0.624E-05
SDA:  32    -0.313345419308E+03   -0.69189E-04   -0.69161E-04  9568   0.161E-02 0.315E-05
CGA:  33    -0.313345448599E+03   -0.29291E-04   -0.29409E-04  9568   0.583E-03-0.240E-05
CGA:  34    -0.313345528063E+03   -0.79463E-04   -0.80048E-04  9568   0.158E-02-0.611E-05
CGA:  35    -0.313345558550E+03   -0.30487E-04   -0.30461E-04  9568   0.116E-02-0.168E-05
CGA:  36    -0.313345616910E+03   -0.58360E-04   -0.58374E-04  9568   0.422E-03-0.180E-05
CGA:  37    -0.313345644367E+03   -0.27457E-04   -0.27417E-04  9568   0.249E-03 0.152E-05
CGA:  38    -0.313345656208E+03   -0.11842E-04   -0.11832E-04  9568   0.442E-03 0.147E-05
CGA:  39    -0.313345670494E+03   -0.14286E-04   -0.14307E-04  9568   0.469E-03 0.949E-06
CGA:  40    -0.313345689992E+03   -0.19498E-04   -0.19498E-04  9568   0.764E-03 0.468E-06
CGA:  41    -0.313345721118E+03   -0.31126E-04   -0.31128E-04  9568   0.216E-03 0.143E-05
CGA:  42    -0.313345739345E+03   -0.18227E-04   -0.18413E-04  9568   0.254E-03-0.431E-05
CGA:  43    -0.313345749338E+03   -0.99924E-05   -0.99790E-05  9568   0.523E-03-0.346E-05
CGA:  44    -0.313345763847E+03   -0.14509E-04   -0.14518E-04  9568   0.168E-03-0.503E-05
CGA:  45    -0.313345775137E+03   -0.11290E-04   -0.11333E-04  9568   0.328E-03-0.172E-05
CGA:  46    -0.313345786791E+03   -0.11654E-04   -0.11644E-04  9568   0.191E-03 0.287E-07
CGA:  47    -0.313345794427E+03   -0.76358E-05   -0.76452E-05  9568   0.128E-03 0.181E-05
   7 F= -.31334579E+03 E0= -.31332523E+03  d E =-.443560E-01  mag=    25.8799
       N       E                     dE             d eps       ncg     rms          ort
SDA:   1    -0.301644446034E+03    0.11701E+02    0.00000E+00  9568   0.403E+02 0.000E+00
CGA:   2    -0.303314168057E+03   -0.16697E+01   -0.16725E+01  9568   0.956E+02 0.224E+01
CGA:   3    -0.308757689420E+03   -0.54435E+01   -0.52572E+01  9568   0.456E+02 0.104E+02
CGA:   4    -0.310518543512E+03   -0.17609E+01   -0.16941E+01  9568   0.300E+02-0.158E+01
CGA:   5    -0.311019865292E+03   -0.50132E+00   -0.37083E+00  9568   0.155E+02 0.807E+01
CGA:   6    -0.311695635783E+03   -0.67577E+00   -0.39629E+00  9568   0.128E+02 0.909E+01
CGA:   7    -0.311855755617E+03   -0.16012E+00   -0.18828E+00  9568   0.110E+02-0.140E+01
CGA:   8    -0.312366270870E+03   -0.51052E+00   -0.49018E+00  9568   0.953E+01 0.120E+01
CGA:   9    -0.312727478219E+03   -0.36121E+00   -0.36816E+00  9568   0.120E+02 0.638E+00
CGA:  10    -0.312934579312E+03   -0.20710E+00   -0.17318E+00  9568   0.279E+01 0.187E+01
CGA:  11    -0.313024239040E+03   -0.89660E-01   -0.85757E-01  9568   0.280E+01-0.240E-01
CGA:  12    -0.313101856827E+03   -0.77618E-01   -0.80644E-01  9568   0.463E+01 0.929E-01
CGA:  13    -0.313275591319E+03   -0.17373E+00   -0.17377E+00  9568   0.166E+01 0.961E-01
CGA:  14    -0.313312008459E+03   -0.36417E-01   -0.37227E-01  9568   0.539E+00-0.120E-01
CGA:  15    -0.313330522296E+03   -0.18514E-01   -0.18483E-01  9568   0.361E+00-0.116E-01
CGA:  16    -0.313339590227E+03   -0.90679E-02   -0.91661E-02  9568   0.420E+00 0.146E-02
CGA:  17    -0.313356850480E+03   -0.17260E-01   -0.17271E-01  9568   0.198E+00-0.114E-02
CGA:  18    -0.313363850024E+03   -0.69995E-02   -0.70000E-02  9568   0.125E+00 0.580E-02
CGA:  19    -0.313366732705E+03   -0.28827E-02   -0.28812E-02  9568   0.815E-01-0.910E-05
CGA:  20    -0.313369510515E+03   -0.27778E-02   -0.27784E-02  9568   0.743E-01 0.363E-03
CGA:  21    -0.313372539996E+03   -0.30295E-02   -0.30291E-02  9568   0.616E-01 0.453E-04
CGA:  22    -0.313374869040E+03   -0.23290E-02   -0.23245E-02  9568   0.507E-01 0.101E-02
CGA:  23    -0.313376427632E+03   -0.15586E-02   -0.15576E-02  9568   0.616E-01-0.583E-04
CGA:  24    -0.313378789406E+03   -0.23618E-02   -0.23584E-02  9568   0.297E-01 0.594E-03
CGA:  25    -0.313379931101E+03   -0.11417E-02   -0.11424E-02  9568   0.200E-01-0.126E-03
CGA:  26    -0.313380552149E+03   -0.62105E-03   -0.62163E-03  9568   0.201E-01 0.639E-04
CGA:  27    -0.313381351709E+03   -0.79956E-03   -0.79910E-03  9568   0.272E-01 0.729E-04
CGA:  28    -0.313382194907E+03   -0.84320E-03   -0.84326E-03  9568   0.952E-02 0.212E-04
CGA:  29    -0.313382568345E+03   -0.37344E-03   -0.37362E-03  9568   0.615E-02-0.268E-04
CGA:  30    -0.313382760215E+03   -0.19187E-03   -0.19188E-03  9568   0.733E-02 0.211E-05
CGA:  31    -0.313383032105E+03   -0.27189E-03   -0.27183E-03  9568   0.589E-02 0.195E-04
CGA:  32    -0.313383217781E+03   -0.18568E-03   -0.18584E-03  9568   0.297E-02 0.166E-04
CGA:  33    -0.313383332056E+03   -0.11427E-03   -0.11425E-03  9568   0.228E-02 0.502E-05
CGA:  34    -0.313383407399E+03   -0.75343E-04   -0.75351E-04  9568   0.316E-02 0.432E-05
CGA:  35    -0.313383531679E+03   -0.12428E-03   -0.12422E-03  9568   0.180E-02 0.130E-04
CGA:  36    -0.313383598068E+03   -0.66389E-04   -0.66362E-04  9568   0.132E-02 0.132E-04
SDA:  37    -0.313383646010E+03   -0.47942E-04   -0.47939E-04  9568   0.119E-02 0.271E-05
CGA:  38    -0.313383663862E+03   -0.17852E-04   -0.17808E-04  9568   0.528E-03-0.858E-06
CGA:  39    -0.313383689063E+03   -0.25201E-04   -0.25260E-04  9568   0.552E-03-0.474E-05
CGA:  40    -0.313383742143E+03   -0.53080E-04   -0.53756E-04  9568   0.120E-02-0.108E-04
CGA:  41    -0.313383774465E+03   -0.32323E-04   -0.32304E-04  9568   0.512E-03-0.410E-05
CGA:  42    -0.313383819382E+03   -0.44916E-04   -0.45061E-04  9568   0.397E-03-0.315E-05
CGA:  43    -0.313383834391E+03   -0.15009E-04   -0.15010E-04  9568   0.663E-03 0.633E-06
CGA:  44    -0.313383851128E+03   -0.16737E-04   -0.16787E-04  9568   0.186E-03 0.159E-05
CGA:  45    -0.313383868267E+03   -0.17139E-04   -0.17118E-04  9568   0.452E-03 0.159E-06
CGA:  46    -0.313383884038E+03   -0.15771E-04   -0.15770E-04  9568   0.282E-03-0.125E-05
CGA:  47    -0.313383896582E+03   -0.12544E-04   -0.12553E-04  9568   0.188E-03-0.270E-05
CGA:  48    -0.313383902744E+03   -0.61615E-05   -0.61437E-05  9568   0.311E-03-0.248E-05
CGA:  49    -0.313383915193E+03   -0.12450E-04   -0.12444E-04  9568   0.775E-04-0.659E-05
CGA:  50    -0.313383921283E+03   -0.60895E-05   -0.60907E-05  9568   0.110E-03-0.186E-06
   8 F= -.31338392E+03 E0= -.31336393E+03  d E =-.381269E-01  mag=    25.8812
       N       E                     dE             d eps       ncg     rms          ort
SDA:   1    -0.298812717833E+03    0.14571E+02    0.00000E+00  9568   0.957E+02 0.000E+00
CGA:   2    -0.301351422619E+03   -0.25387E+01   -0.28094E+01  9568   0.696E+02-0.234E+01
CGA:   3    -0.304803178535E+03   -0.34518E+01   -0.46563E+01  9568   0.240E+03-0.355E+02
CGA:   4    -0.306422139610E+03   -0.16190E+01   -0.44635E+01  9568   0.104E+03-0.888E+02
CGA:   5    -0.308650950105E+03   -0.22288E+01   -0.15789E+01  9568   0.146E+02 0.206E+02
CGA:   6    -0.308989298818E+03   -0.33835E+00   -0.31807E+00  9568   0.271E+02 0.410E+00
CGA:   7    -0.310778150581E+03   -0.17889E+01   -0.17013E+01  9568   0.787E+02 0.303E+01
CGA:   8    -0.312040032438E+03   -0.12619E+01   -0.15687E+01  9568   0.304E+02-0.120E+02
CGA:   9    -0.312669735882E+03   -0.62970E+00   -0.35214E+00  9568   0.117E+02 0.169E+02
CGA:  10    -0.312890317001E+03   -0.22058E+00   -0.18216E+00  9568   0.365E+01 0.164E+01
CGA:  11    -0.312983317180E+03   -0.93000E-01   -0.91221E-01  9568   0.421E+01 0.170E-01
CGA:  12    -0.313111998272E+03   -0.12868E+00   -0.12878E+00  9568   0.430E+01 0.236E-02
CGA:  13    -0.313201752059E+03   -0.89754E-01   -0.90849E-01  9568   0.360E+01-0.200E-01
CGA:  14    -0.313249906034E+03   -0.48154E-01   -0.53963E-01  9568   0.744E+00-0.240E+00
CGA:  15    -0.313274368451E+03   -0.24462E-01   -0.24460E-01  9568   0.893E+00 0.217E-02
CGA:  16    -0.313290222325E+03   -0.15854E-01   -0.15496E-01  9568   0.559E+00 0.101E-01
CGA:  17    -0.313326619050E+03   -0.36397E-01   -0.36878E-01  9568   0.664E+00-0.153E-01
CGA:  18    -0.313343833966E+03   -0.17215E-01   -0.17420E-01  9568   0.494E+00 0.495E-02
CGA:  19    -0.313355865867E+03   -0.12032E-01   -0.12133E-01  9568   0.373E+00 0.723E-03
CGA:  20    -0.313365645929E+03   -0.97801E-02   -0.97408E-02  9568   0.251E+00-0.774E-03
CGA:  21    -0.313373841796E+03   -0.81959E-02   -0.81976E-02  9568   0.101E+00 0.638E-03
CGA:  22    -0.313381816580E+03   -0.79748E-02   -0.79990E-02  9568   0.219E+00-0.583E-03
CGA:  23    -0.313386497916E+03   -0.46813E-02   -0.48218E-02  9568   0.174E+00-0.120E-02
CGA:  24    -0.313392414316E+03   -0.59164E-02   -0.59208E-02  9568   0.634E-01 0.161E-02
CGA:  25    -0.313394864918E+03   -0.24506E-02   -0.24540E-02  9568   0.426E-01-0.683E-03
CGA:  26    -0.313396392701E+03   -0.15278E-02   -0.15276E-02  9568   0.450E-01 0.146E-03
CGA:  27    -0.313398728001E+03   -0.23353E-02   -0.23242E-02  9568   0.519E-01 0.557E-03
CGA:  28    -0.313399712408E+03   -0.98441E-03   -0.98315E-03  9568   0.281E-01 0.263E-04
CGA:  29    -0.313401360724E+03   -0.16483E-02   -0.16359E-02  9568   0.215E-01 0.490E-03
CGA:  30    -0.313402368016E+03   -0.10073E-02   -0.10107E-02  9568   0.118E-01-0.242E-03
CGA:  31    -0.313402825816E+03   -0.45780E-03   -0.45765E-03  9568   0.123E-01 0.483E-04
CGA:  32    -0.313403304936E+03   -0.47912E-03   -0.47914E-03  9568   0.761E-02-0.676E-07
CGA:  33    -0.313403580082E+03   -0.27515E-03   -0.27519E-03  9568   0.116E-01 0.212E-04
CGA:  34    -0.313403882753E+03   -0.30267E-03   -0.30260E-03  9568   0.336E-02 0.215E-06
CGA:  35    -0.313404104551E+03   -0.22180E-03   -0.22249E-03  9568   0.407E-02-0.232E-04
CGA:  36    -0.313404275813E+03   -0.17126E-03   -0.17124E-03  9568   0.361E-02-0.132E-05
CGA:  37    -0.313404343399E+03   -0.67586E-04   -0.67952E-04  9568   0.115E-02-0.161E-04
CGA:  38    -0.313404386709E+03   -0.43310E-04   -0.43310E-04  9568   0.177E-02-0.569E-07
CGA:  39    -0.313404487382E+03   -0.10067E-03   -0.10045E-03  9568   0.151E-02 0.105E-04
SDA:  40    -0.313404566125E+03   -0.78742E-04   -0.78746E-04  9568   0.128E-02-0.636E-07
CGA:  41    -0.313404584981E+03   -0.18856E-04   -0.18916E-04  9568   0.539E-03-0.368E-05
CGA:  42    -0.313404609362E+03   -0.24381E-04   -0.24393E-04  9568   0.468E-03-0.215E-05
CGA:  43    -0.313404638123E+03   -0.28760E-04   -0.28945E-04  9568   0.667E-03-0.778E-05
CGA:  44    -0.313404655888E+03   -0.17766E-04   -0.17716E-04  9568   0.279E-03-0.369E-05
CGA:  45    -0.313404675508E+03   -0.19620E-04   -0.19671E-04  9568   0.594E-03-0.176E-05
CGA:  46    -0.313404687506E+03   -0.11998E-04   -0.11976E-04  9568   0.303E-03-0.151E-05
CGA:  47    -0.313404706358E+03   -0.18852E-04   -0.18869E-04  9568   0.152E-03-0.928E-06
CGA:  48    -0.313404723357E+03   -0.16999E-04   -0.16983E-04  9568   0.625E-03 0.754E-07
CGA:  49    -0.313404739054E+03   -0.15697E-04   -0.15759E-04  9568   0.213E-03-0.121E-05
CGA:  50    -0.313404744782E+03   -0.57277E-05   -0.57145E-05  9568   0.199E-03-0.963E-06
   9 F= -.31340474E+03 E0= -.31338444E+03  d E =-.208235E-01  mag=    25.8945
       N       E                     dE             d eps       ncg     rms          ort
SDA:   1    -0.312524108523E+03    0.88063E+00    0.00000E+00  9568   0.446E+01 0.000E+00
CGA:   2    -0.312674485574E+03   -0.15038E+00   -0.14922E+00  9568   0.654E+01-0.325E-01
CGA:   3    -0.312901815606E+03   -0.22733E+00   -0.22023E+00  9568   0.748E+01-0.224E+00
CGA:   4    -0.313078491775E+03   -0.17668E+00   -0.17355E+00  9568   0.353E+01 0.203E-01
CGA:   5    -0.313183208836E+03   -0.10472E+00   -0.10772E+00  9568   0.132E+01 0.482E-01
CGA:   6    -0.313260527390E+03   -0.77319E-01   -0.77533E-01  9568   0.376E+01-0.946E-02
CGA:   7    -0.313345053784E+03   -0.84526E-01   -0.85007E-01  9568   0.857E+00-0.762E-02
CGA:   8    -0.313367757439E+03   -0.22704E-01   -0.23485E-01  9568   0.580E+00 0.293E-02
CGA:   9    -0.313383924275E+03   -0.16167E-01   -0.16107E-01  9568   0.401E+00-0.308E-03
CGA:  10    -0.313392363436E+03   -0.84392E-02   -0.85202E-02  9568   0.265E+00-0.159E-02
CGA:  11    -0.313406452789E+03   -0.14089E-01   -0.14016E-01  9568   0.181E+00 0.381E-02
CGA:  12    -0.313409439141E+03   -0.29864E-02   -0.30026E-02  9568   0.661E-01-0.642E-03
CGA:  13    -0.313411182783E+03   -0.17436E-02   -0.17465E-02  9568   0.487E-01 0.260E-04
CGA:  14    -0.313413250650E+03   -0.20679E-02   -0.20643E-02  9568   0.473E-01 0.430E-03
CGA:  15    -0.313414914007E+03   -0.16634E-02   -0.16624E-02  9568   0.549E-01-0.158E-03
CGA:  16    -0.313415925727E+03   -0.10117E-02   -0.10110E-02  9568   0.115E-01 0.194E-04
CGA:  17    -0.313416315739E+03   -0.39001E-03   -0.39039E-03  9568   0.112E-01 0.728E-04
CGA:  18    -0.313416701119E+03   -0.38538E-03   -0.38550E-03  9568   0.131E-01 0.272E-04
CGA:  19    -0.313417038316E+03   -0.33720E-03   -0.33743E-03  9568   0.101E-01 0.509E-05
CGA:  20    -0.313417496391E+03   -0.45807E-03   -0.45815E-03  9568   0.519E-02-0.361E-05
CGA:  21    -0.313417594602E+03   -0.98211E-04   -0.98164E-04  9568   0.307E-02 0.109E-05
CGA:  22    -0.313417711143E+03   -0.11654E-03   -0.11653E-03  9568   0.454E-02 0.263E-05
CGA:  23    -0.313417903685E+03   -0.19254E-03   -0.19230E-03  9568   0.273E-02 0.252E-04
CGA:  24    -0.313417979076E+03   -0.75391E-04   -0.75378E-04  9568   0.297E-02-0.293E-06
CGA:  25    -0.313418061543E+03   -0.82467E-04   -0.82431E-04  9568   0.180E-02 0.480E-07
CGA:  26    -0.313418129912E+03   -0.68369E-04   -0.68336E-04  9568   0.165E-02 0.863E-05
CGA:  27    -0.313418180028E+03   -0.50117E-04   -0.50154E-04  9568   0.136E-02 0.454E-05
CGA:  28    -0.313418209494E+03   -0.29465E-04   -0.29516E-04  9568   0.853E-03 0.177E-05
CGA:  29    -0.313418257784E+03   -0.48290E-04   -0.48174E-04  9568   0.978E-03 0.523E-05
CGA:  30    -0.313418285550E+03   -0.27766E-04   -0.27777E-04  9568   0.908E-03 0.159E-05
CGA:  31    -0.313418308992E+03   -0.23442E-04   -0.23470E-04  9568   0.547E-03 0.226E-05
SDA:  32    -0.313418323597E+03   -0.14605E-04   -0.14625E-04  9568   0.230E-03 0.210E-05
CGA:  33    -0.313418329258E+03   -0.56603E-05   -0.56501E-05  9568   0.172E-03-0.103E-05
  10 F= -.31341833E+03 E0= -.31339836E+03  d E =-.135845E-01  mag=    25.8888
       N       E                     dE             d eps       ncg     rms          ort
SDA:   1    -0.313354893272E+03    0.63430E-01    0.00000E+00  9568   0.391E+01 0.000E+00
CGA:   2    -0.313393056946E+03   -0.38164E-01   -0.42268E-01  9568   0.214E+00-0.300E+00
CGA:   3    -0.313398716784E+03   -0.56598E-02   -0.56513E-02  9568   0.144E+00-0.543E-03
CGA:   4    -0.313403850435E+03   -0.51337E-02   -0.51353E-02  9568   0.146E+00-0.338E-03
CGA:   5    -0.313410482912E+03   -0.66325E-02   -0.66297E-02  9568   0.141E+00 0.184E-03
CGA:   6    -0.313413292796E+03   -0.28099E-02   -0.28381E-02  9568   0.373E-01-0.373E-03
CGA:   7    -0.313415387602E+03   -0.20948E-02   -0.21000E-02  9568   0.620E-01-0.202E-03
CGA:   8    -0.313417001543E+03   -0.16139E-02   -0.16133E-02  9568   0.374E-01-0.137E-04
CGA:   9    -0.313418502939E+03   -0.15014E-02   -0.14989E-02  9568   0.175E-01 0.263E-03
CGA:  10    -0.313418826801E+03   -0.32386E-03   -0.32448E-03  9568   0.526E-02-0.110E-04
CGA:  11    -0.313419130182E+03   -0.30338E-03   -0.30359E-03  9568   0.124E-01-0.761E-05
CGA:  12    -0.313419501112E+03   -0.37093E-03   -0.37096E-03  9568   0.208E-02 0.230E-05
CGA:  13    -0.313419552475E+03   -0.51363E-04   -0.51347E-04  9568   0.159E-02 0.435E-06
CGA:  14    -0.313419612192E+03   -0.59716E-04   -0.59710E-04  9568   0.114E-02 0.189E-05
CGA:  15    -0.313419659159E+03   -0.46967E-04   -0.46966E-04  9568   0.149E-02 0.374E-06
CGA:  16    -0.313419708097E+03   -0.48938E-04   -0.48940E-04  9568   0.561E-03 0.143E-05
CGA:  17    -0.313419720639E+03   -0.12542E-04   -0.12547E-04  9568   0.350E-03 0.655E-06
CGA:  18    -0.313419741943E+03   -0.21303E-04   -0.21276E-04  9568   0.406E-03 0.105E-05
CGA:  19    -0.313419753026E+03   -0.11083E-04   -0.11084E-04  9568   0.314E-03 0.247E-06
CGA:  20    -0.313419765246E+03   -0.12220E-04   -0.12219E-04  9568   0.238E-03 0.302E-06
CGA:  21    -0.313419773888E+03   -0.86417E-05   -0.86415E-05  9568   0.252E-03 0.166E-06
  11 F= -.31341977E+03 E0= -.31339982E+03  d E =-.144463E-02  mag=    25.8893
       N       E                     dE             d eps       ncg     rms          ort
SDA:   1    -0.313267458521E+03    0.15231E+00    0.00000E+00  9568   0.298E+01 0.000E+00
CGA:   2    -0.313298340420E+03   -0.30882E-01   -0.34489E-01  9568   0.481E+00-0.236E+00
CGA:   3    -0.313349494866E+03   -0.51154E-01   -0.51287E-01  9568   0.170E+01-0.176E-02
CGA:   4    -0.313382751748E+03   -0.33257E-01   -0.33618E-01  9568   0.319E+00-0.817E-02
CGA:   5    -0.313394532493E+03   -0.11781E-01   -0.11781E-01  9568   0.363E+00-0.437E-02
CGA:   6    -0.313404993254E+03   -0.10461E-01   -0.10462E-01  9568   0.198E+00 0.501E-04
CGA:   7    -0.313414066338E+03   -0.90731E-02   -0.90739E-02  9568   0.224E+00-0.401E-04
CGA:   8    -0.313418473924E+03   -0.44076E-02   -0.44193E-02  9568   0.345E-01-0.214E-03
CGA:   9    -0.313419810448E+03   -0.13365E-02   -0.13366E-02  9568   0.520E-01-0.252E-04
CGA:  10    -0.313421636230E+03   -0.18258E-02   -0.18259E-02  9568   0.239E-01 0.395E-04
CGA:  11    -0.313422356476E+03   -0.72025E-03   -0.71925E-03  9568   0.165E-01-0.438E-04
CGA:  12    -0.313422747295E+03   -0.39082E-03   -0.39068E-03  9568   0.529E-02 0.266E-05
CGA:  13    -0.313422973577E+03   -0.22628E-03   -0.22633E-03  9568   0.727E-02-0.420E-05
CGA:  14    -0.313423180331E+03   -0.20675E-03   -0.20688E-03  9568   0.319E-02 0.609E-05
CGA:  15    -0.313423311836E+03   -0.13151E-03   -0.13151E-03  9568   0.383E-02-0.265E-07
CGA:  16    -0.313423410150E+03   -0.98314E-04   -0.98351E-04  9568   0.129E-02 0.104E-05
CGA:  17    -0.313423463256E+03   -0.53106E-04   -0.53107E-04  9568   0.169E-02 0.264E-06
CGA:  18    -0.313423509638E+03   -0.46382E-04   -0.46392E-04  9568   0.678E-03 0.145E-05
CGA:  19    -0.313423545678E+03   -0.36040E-04   -0.36022E-04  9568   0.149E-02 0.914E-06
CGA:  20    -0.313423594806E+03   -0.49129E-04   -0.49136E-04  9568   0.556E-03 0.186E-05
CGA:  21    -0.313423611954E+03   -0.17148E-04   -0.17146E-04  9568   0.494E-03 0.860E-07
CGA:  22    -0.313423628291E+03   -0.16337E-04   -0.16339E-04  9568   0.361E-03 0.820E-06
CGA:  23    -0.313423648169E+03   -0.19878E-04   -0.19846E-04  9568   0.686E-03 0.168E-05
CGA:  24    -0.313423668734E+03   -0.20564E-04   -0.20585E-04  9568   0.300E-03 0.242E-05
CGA:  25    -0.313423678664E+03   -0.99302E-05   -0.99312E-05  9568   0.229E-03 0.408E-06
  12 F= -.31342368E+03 E0= -.31340373E+03  d E =-.390478E-02  mag=    25.8880
       N       E                     dE             d eps       ncg     rms          ort
SDA:   1    -0.312690560786E+03    0.73311E+00    0.00000E+00  9568   0.788E+01 0.000E+00
CGA:   2    -0.312782985284E+03   -0.92424E-01   -0.10796E+00  9568   0.287E+01-0.795E+00
CGA:   3    -0.313071336791E+03   -0.28835E+00   -0.29610E+00  9568   0.860E+01-0.118E+00
CGA:   4    -0.313239104143E+03   -0.16777E+00   -0.17037E+00  9568   0.178E+01-0.600E-01
CGA:   5    -0.313289592754E+03   -0.50489E-01   -0.50798E-01  9568   0.142E+01 0.667E-02
CGA:   6    -0.313337481560E+03   -0.47889E-01   -0.48053E-01  9568   0.114E+01 0.203E-01
CGA:   7    -0.313387287204E+03   -0.49806E-01   -0.50330E-01  9568   0.971E+00-0.521E-01
CGA:   8    -0.313403893174E+03   -0.16606E-01   -0.16825E-01  9568   0.215E+00-0.633E-02
CGA:   9    -0.313411781845E+03   -0.78887E-02   -0.78867E-02  9568   0.194E+00 0.172E-02
CGA:  10    -0.313417905774E+03   -0.61239E-02   -0.61412E-02  9568   0.141E+00 0.122E-02
CGA:  11    -0.313423207257E+03   -0.53015E-02   -0.53063E-02  9568   0.121E+00-0.190E-02
CGA:  12    -0.313425647532E+03   -0.24403E-02   -0.24284E-02  9568   0.177E-01 0.214E-03
CGA:  13    -0.313426437534E+03   -0.79000E-03   -0.78993E-03  9568   0.352E-01 0.935E-05
CGA:  14    -0.313427711258E+03   -0.12737E-02   -0.12736E-02  9568   0.187E-01 0.148E-03
CGA:  15    -0.313428305405E+03   -0.59415E-03   -0.59383E-03  9568   0.127E-01-0.247E-04
CGA:  16    -0.313428627839E+03   -0.32243E-03   -0.32251E-03  9568   0.563E-02 0.479E-05
CGA:  17    -0.313428828699E+03   -0.20086E-03   -0.20086E-03  9568   0.652E-02 0.366E-05
CGA:  18    -0.313429058125E+03   -0.22943E-03   -0.22943E-03  9568   0.371E-02 0.189E-04
CGA:  19    -0.313429214991E+03   -0.15687E-03   -0.15688E-03  9568   0.543E-02-0.990E-06
CGA:  20    -0.313429365988E+03   -0.15100E-03   -0.15104E-03  9568   0.235E-02 0.365E-05
CGA:  21    -0.313429480586E+03   -0.11460E-03   -0.11457E-03  9568   0.299E-02 0.211E-05
CGA:  22    -0.313429550320E+03   -0.69734E-04   -0.69792E-04  9568   0.123E-02 0.379E-05
CGA:  23    -0.313429612835E+03   -0.62515E-04   -0.62487E-04  9568   0.262E-02 0.174E-05
CGA:  24    -0.313429724875E+03   -0.11204E-03   -0.11202E-03  9568   0.141E-02 0.348E-05
CGA:  25    -0.313429761503E+03   -0.36628E-04   -0.36652E-04  9568   0.107E-02 0.215E-05
CGA:  26    -0.313429798333E+03   -0.36830E-04   -0.36837E-04  9568   0.690E-03 0.381E-05
CGA:  27    -0.313429832807E+03   -0.34475E-04   -0.34477E-04  9568   0.989E-03-0.351E-07
CGA:  28    -0.313429856526E+03   -0.23718E-04   -0.23724E-04  9568   0.414E-03 0.710E-06
CGA:  29    -0.313429876174E+03   -0.19648E-04   -0.19626E-04  9568   0.612E-03 0.174E-05
CGA:  30    -0.313429894542E+03   -0.18368E-04   -0.18382E-04  9568   0.249E-03 0.142E-05
CGA:  31    -0.313429901969E+03   -0.74276E-05   -0.74301E-05  9568   0.223E-03 0.454E-06
  13 F= -.31342990E+03 E0= -.31340987E+03  d E =-.622331E-02  mag=    25.8869
       N       E                     dE             d eps       ncg     rms          ort
SDA:   1    -0.313122096122E+03    0.30780E+00    0.00000E+00  9568   0.281E+01 0.000E+00
CGA:   2    -0.313159877676E+03   -0.37782E-01   -0.39971E-01  9568   0.122E+01-0.105E+00
CGA:   3    -0.313300356837E+03   -0.14048E+00   -0.14251E+00  9568   0.148E+01-0.294E-01
CGA:   4    -0.313335703894E+03   -0.35347E-01   -0.36434E-01  9568   0.103E+01-0.197E-02
CGA:   5    -0.313362761664E+03   -0.27058E-01   -0.27401E-01  9568   0.583E+00 0.222E-02
CGA:   6    -0.313397630298E+03   -0.34869E-01   -0.35038E-01  9568   0.850E+00-0.648E-02
CGA:   7    -0.313414822408E+03   -0.17192E-01   -0.16524E-01  9568   0.142E+00 0.166E-01
CGA:   8    -0.313419698889E+03   -0.48765E-02   -0.48745E-02  9568   0.165E+00-0.178E-03
CGA:   9    -0.313424833061E+03   -0.51342E-02   -0.51351E-02  9568   0.719E-01 0.515E-04
CGA:  10    -0.313428201216E+03   -0.33682E-02   -0.33733E-02  9568   0.912E-01-0.368E-03
CGA:  11    -0.313429833046E+03   -0.16318E-02   -0.16229E-02  9568   0.107E-01 0.269E-03
CGA:  12    -0.313430596322E+03   -0.76328E-03   -0.76167E-03  9568   0.275E-01 0.473E-04
CGA:  13    -0.313431235232E+03   -0.63891E-03   -0.63870E-03  9568   0.998E-02 0.504E-05
CGA:  14    -0.313431662734E+03   -0.42750E-03   -0.42780E-03  9568   0.625E-02-0.355E-04
CGA:  15    -0.313431793425E+03   -0.13069E-03   -0.13056E-03  9568   0.332E-02 0.409E-05
CGA:  16    -0.313431953676E+03   -0.16025E-03   -0.16002E-03  9568   0.354E-02 0.165E-04
CGA:  17    -0.313432057522E+03   -0.10385E-03   -0.10383E-03  9568   0.284E-02 0.556E-06
CGA:  18    -0.313432175887E+03   -0.11836E-03   -0.11840E-03  9568   0.201E-02-0.389E-05
CGA:  19    -0.313432227646E+03   -0.51760E-04   -0.51747E-04  9568   0.166E-02 0.121E-05
CGA:  20    -0.313432297549E+03   -0.69902E-04   -0.69904E-04  9568   0.640E-03 0.451E-06
CGA:  21    -0.313432318868E+03   -0.21319E-04   -0.21320E-04  9568   0.109E-02 0.223E-06
CGA:  22    -0.313432386356E+03   -0.67488E-04   -0.67441E-04  9568   0.680E-03 0.183E-05
CGA:  23    -0.313432408531E+03   -0.22175E-04   -0.22178E-04  9568   0.742E-03 0.630E-06
CGA:  24    -0.313432427068E+03   -0.18537E-04   -0.18548E-04  9568   0.205E-03 0.622E-06
CGA:  25    -0.313432442277E+03   -0.15209E-04   -0.15227E-04  9568   0.616E-03-0.582E-06
CGA:  26    -0.313432458669E+03   -0.16392E-04   -0.16393E-04  9568   0.294E-03-0.196E-06
CGA:  27    -0.313432470315E+03   -0.11646E-04   -0.11645E-04  9568   0.134E-03 0.337E-06
CGA:  28    -0.313432473239E+03   -0.29242E-05   -0.29252E-05  9568   0.958E-04-0.499E-07
  14 F= -.31343247E+03 E0= -.31341239E+03  d E =-.257127E-02  mag=    25.8879
       N       E                     dE             d eps       ncg     rms          ort
SDA:   1    -0.312018124508E+03    0.14143E+01    0.00000E+00  9568   0.564E+01 0.000E+00
CGA:   2    -0.312204775917E+03   -0.18665E+00   -0.18503E+00  9568   0.967E+01-0.846E-01
CGA:   3    -0.312712176623E+03   -0.50740E+00   -0.51085E+00  9568   0.153E+02-0.174E+00
CGA:   4    -0.312971836151E+03   -0.25966E+00   -0.30765E+00  9568   0.491E+01-0.108E+01
CGA:   5    -0.313108288268E+03   -0.13645E+00   -0.13828E+00  9568   0.321E+01 0.525E-01
CGA:   6    -0.313198539468E+03   -0.90251E-01   -0.93648E-01  9568   0.351E+01 0.707E-01
CGA:   7    -0.313352191526E+03   -0.15365E+00   -0.15434E+00  9568   0.913E+00-0.781E-01
CGA:   8    -0.313376927947E+03   -0.24736E-01   -0.24187E-01  9568   0.499E+00-0.551E-02
CGA:   9    -0.313398991608E+03   -0.22064E-01   -0.22156E-01  9568   0.532E+00-0.816E-02
CGA:  10    -0.313411986736E+03   -0.12995E-01   -0.13096E-01  9568   0.405E+00-0.369E-04
CGA:  11    -0.313424185217E+03   -0.12198E-01   -0.12226E-01  9568   0.774E-01 0.118E-02
CGA:  12    -0.313426464507E+03   -0.22793E-02   -0.22795E-02  9568   0.698E-01 0.142E-04
CGA:  13    -0.313430310167E+03   -0.38457E-02   -0.38386E-02  9568   0.114E+00 0.307E-03
CGA:  14    -0.313432663991E+03   -0.23538E-02   -0.23613E-02  9568   0.322E-01-0.144E-03
CGA:  15    -0.313433773069E+03   -0.11091E-02   -0.11097E-02  9568   0.142E-01 0.151E-03
CGA:  16    -0.313434256664E+03   -0.48359E-03   -0.48355E-03  9568   0.166E-01-0.789E-05
CGA:  17    -0.313434922044E+03   -0.66538E-03   -0.66527E-03  9568   0.192E-01 0.178E-04
CGA:  18    -0.313435454536E+03   -0.53249E-03   -0.53249E-03  9568   0.792E-02 0.474E-05
CGA:  19    -0.313435717927E+03   -0.26339E-03   -0.26359E-03  9568   0.351E-02 0.329E-04
CGA:  20    -0.313435829278E+03   -0.11135E-03   -0.11139E-03  9568   0.480E-02 0.553E-05
CGA:  21    -0.313436062936E+03   -0.23366E-03   -0.23357E-03  9568   0.457E-02 0.656E-05
CGA:  22    -0.313436189346E+03   -0.12641E-03   -0.12634E-03  9568   0.222E-02 0.147E-05
CGA:  23    -0.313436287382E+03   -0.98036E-04   -0.97975E-04  9568   0.229E-02 0.650E-05
CGA:  24    -0.313436339574E+03   -0.52192E-04   -0.52265E-04  9568   0.139E-02 0.198E-05
CGA:  25    -0.313436418952E+03   -0.79378E-04   -0.79243E-04  9568   0.156E-02 0.585E-05
CGA:  26    -0.313436465722E+03   -0.46770E-04   -0.46789E-04  9568   0.102E-02 0.298E-05
CGA:  27    -0.313436506626E+03   -0.40904E-04   -0.40896E-04  9568   0.138E-02 0.177E-05
CGA:  28    -0.313436545226E+03   -0.38600E-04   -0.38615E-04  9568   0.597E-03 0.127E-05
CGA:  29    -0.313436570273E+03   -0.25048E-04   -0.25031E-04  9568   0.469E-03 0.241E-05
CGA:  30    -0.313436584668E+03   -0.14395E-04   -0.14397E-04  9568   0.487E-03 0.217E-06
CGA:  31    -0.313436607041E+03   -0.22373E-04   -0.22373E-04  9568   0.648E-03-0.266E-07
SDA:  32    -0.313436625119E+03   -0.18078E-04   -0.18082E-04  9568   0.167E-03 0.759E-06
CGA:  33    -0.313436628653E+03   -0.35339E-05   -0.35305E-05  9568   0.139E-03-0.311E-06
  15 F= -.31343663E+03 E0= -.31341658E+03  d E =-.415541E-02  mag=    25.8893
       N       E                     dE             d eps       ncg     rms          ort
SDA:   1    -0.298760552083E+03    0.14676E+02    0.00000E+00  9568   0.657E+02 0.000E+00
CGA:   2    -0.301342325733E+03   -0.25818E+01   -0.26920E+01  9568   0.131E+03-0.139E+02
CGA:   3    -0.305433508549E+03   -0.40912E+01   -0.40742E+01  9568   0.955E+02 0.268E+01
CGA:   4    -0.307370605287E+03   -0.19371E+01   -0.23507E+01  9568   0.125E+03-0.159E+00
CGA:   5    -0.308510764135E+03   -0.11402E+01   -0.15115E+01  9568   0.418E+02-0.410E+02
CGA:   6    -0.305921115247E+03    0.25896E+01   -0.19567E+01  9568   0.668E+03-0.141E+03
CGA:   7    -0.310451054350E+03   -0.45299E+01   -0.12880E+02  9568   0.600E+02-0.483E+02
CGA:   8    -0.311316165874E+03   -0.86511E+00   -0.54464E+00  9568   0.147E+02 0.253E+02
CGA:   9    -0.311619026022E+03   -0.30286E+00   -0.20982E+00  9568   0.158E+02 0.933E+01
CGA:  10    -0.311979910900E+03   -0.36088E+00   -0.26501E+00  9568   0.101E+02 0.394E+01
CGA:  11    -0.312084338586E+03   -0.10443E+00   -0.68184E-01  9568   0.609E+01 0.603E+01
CGA:  12    -0.312202077515E+03   -0.11774E+00   -0.11101E+00  9568   0.623E+01 0.962E-01
CGA:  13    -0.312894176146E+03   -0.69210E+00   -0.66936E+00  9568   0.759E+01 0.344E+00
CGA:  14    -0.313050905151E+03   -0.15673E+00   -0.12229E+00  9568   0.118E+01 0.133E+01
CGA:  15    -0.313086749461E+03   -0.35844E-01   -0.35387E-01  9568   0.199E+01-0.125E-01
CGA:  16    -0.313129693527E+03   -0.42944E-01   -0.43486E-01  9568   0.158E+01 0.416E-02
CGA:  17    -0.313157148998E+03   -0.27455E-01   -0.28220E-01  9568   0.200E+01-0.144E-01
CGA:  18    -0.313234573976E+03   -0.77425E-01   -0.77009E-01  9568   0.272E+01 0.357E-01
CGA:  19    -0.313273825327E+03   -0.39251E-01   -0.41998E-01  9568   0.127E+01-0.114E+00
CGA:  20    -0.313295181056E+03   -0.21356E-01   -0.20291E-01  9568   0.556E+00 0.311E-01
CGA:  21    -0.313306467643E+03   -0.11287E-01   -0.11268E-01  9568   0.427E+00 0.178E-03
CGA:  22    -0.313313782816E+03   -0.73152E-02   -0.74061E-02  9568   0.311E+00-0.172E-02
CGA:  23    -0.313328142205E+03   -0.14359E-01   -0.14062E-01  9568   0.454E+00 0.152E-01
CGA:  24    -0.313335516959E+03   -0.73748E-02   -0.75013E-02  9568   0.234E+00-0.365E-02
CGA:  25    -0.313346433172E+03   -0.10916E-01   -0.10861E-01  9568   0.216E+00 0.274E-02
CGA:  26    -0.313350810199E+03   -0.43770E-02   -0.43120E-02  9568   0.190E+00 0.209E-03
CGA:  27    -0.313356572095E+03   -0.57619E-02   -0.57642E-02  9568   0.123E+00-0.165E-02
CGA:  28    -0.313359742363E+03   -0.31703E-02   -0.31698E-02  9568   0.110E+00-0.450E-04
CGA:  29    -0.313362511363E+03   -0.27690E-02   -0.27701E-02  9568   0.100E+00 0.126E-03
CGA:  30    -0.313364733575E+03   -0.22222E-02   -0.22242E-02  9568   0.471E-01 0.103E-03
CGA:  31    -0.313366859586E+03   -0.21260E-02   -0.21217E-02  9568   0.949E-01 0.227E-03
CGA:  32    -0.313368511070E+03   -0.16515E-02   -0.16571E-02  9568   0.282E-01-0.822E-04
CGA:  33    -0.313369951559E+03   -0.14405E-02   -0.14345E-02  9568   0.515E-01 0.249E-03
CGA:  34    -0.313370846052E+03   -0.89449E-03   -0.89887E-03  9568   0.241E-01-0.104E-03
CGA:  35    -0.313371795824E+03   -0.94977E-03   -0.94888E-03  9568   0.131E-01 0.572E-04
CGA:  36    -0.313372027225E+03   -0.23140E-03   -0.23132E-03  9568   0.106E-01-0.673E-05
CGA:  37    -0.313372603504E+03   -0.57628E-03   -0.57378E-03  9568   0.787E-02 0.956E-04
CGA:  38    -0.313372813276E+03   -0.20977E-03   -0.20983E-03  9568   0.107E-01 0.306E-05
CGA:  39    -0.313373116967E+03   -0.30369E-03   -0.30370E-03  9568   0.443E-02 0.183E-06
CGA:  40    -0.313373295103E+03   -0.17814E-03   -0.17801E-03  9568   0.657E-02 0.937E-05
CGA:  41    -0.313373411046E+03   -0.11594E-03   -0.11597E-03  9568   0.260E-02 0.133E-05
SDA:  42    -0.313373585632E+03   -0.17459E-03   -0.17390E-03  9568   0.429E-02 0.190E-04
CGA:  43    -0.313373642758E+03   -0.57125E-04   -0.57040E-04  9568   0.113E-02-0.258E-06
CGA:  44    -0.313373686944E+03   -0.44186E-04   -0.44233E-04  9568   0.115E-02-0.534E-05
CGA:  45    -0.313373741295E+03   -0.54351E-04   -0.54296E-04  9568   0.156E-02 0.257E-05
CGA:  46    -0.313373831863E+03   -0.90568E-04   -0.90415E-04  9568   0.686E-03 0.534E-05
CGA:  47    -0.313373898155E+03   -0.66292E-04   -0.65599E-04  9568   0.150E-02 0.117E-04
CGA:  48    -0.313373927867E+03   -0.29712E-04   -0.29737E-04  9568   0.869E-03 0.439E-05
CGA:  49    -0.313373968890E+03   -0.41023E-04   -0.40880E-04  9568   0.309E-03 0.105E-04
CGA:  50    -0.313374004695E+03   -0.35805E-04   -0.35916E-04  9568   0.462E-03-0.173E-05
CGA:  51    -0.313374025981E+03   -0.21286E-04   -0.21285E-04  9568   0.773E-03-0.116E-05
CGA:  52    -0.313374043276E+03   -0.17295E-04   -0.17198E-04  9568   0.251E-03-0.220E-05
CGA:  53    -0.313374053651E+03   -0.10375E-04   -0.10379E-04  9568   0.358E-03-0.264E-05
CGA:  54    -0.313374074326E+03   -0.20675E-04   -0.20782E-04  9568   0.297E-03-0.596E-05
CGA:  55    -0.313374088767E+03   -0.14441E-04   -0.14454E-04  9568   0.256E-03-0.186E-05
CGA:  56    -0.313374093784E+03   -0.50165E-05   -0.50053E-05  9568   0.176E-03 0.217E-06
CGA:  57    -0.313374110699E+03   -0.16915E-04   -0.16676E-04  9568   0.122E-03 0.439E-05
CGA:  58    -0.313374119225E+03   -0.85259E-05   -0.84728E-05  9568   0.139E-03 0.212E-05
  16 F= -.31337412E+03 E0= -.31335452E+03  d E =0.625094E-01  mag=    25.8873
       N       E                     dE             d eps       ncg     rms          ort
SDA:   1    -0.306592425209E+03    0.67817E+01    0.00000E+00  9568   0.305E+02 0.000E+00
CGA:   2    -0.308297690825E+03   -0.17053E+01   -0.17035E+01  9568   0.647E+02 0.382E+00
CGA:   3    -0.310162149047E+03   -0.18645E+01   -0.14256E+01  9568   0.162E+02 0.104E+02
CGA:   4    -0.311003351902E+03   -0.84120E+00   -0.83450E+00  9568   0.186E+02 0.215E+01
CGA:   5    -0.311618474519E+03   -0.61512E+00   -0.57070E+00  9568   0.182E+02 0.225E+00
CGA:   6    -0.312180918957E+03   -0.56244E+00   -0.51092E+00  9568   0.195E+02 0.131E+00
CGA:   7    -0.312714638087E+03   -0.53372E+00   -0.52241E+00  9568   0.141E+02 0.139E+00
CGA:   8    -0.312886524731E+03   -0.17189E+00   -0.13753E+00  9568   0.378E+01 0.286E+01
CGA:   9    -0.312981400989E+03   -0.94876E-01   -0.10088E+00  9568   0.745E+01-0.822E-01
CGA:  10    -0.313120083578E+03   -0.13868E+00   -0.15036E+00  9568   0.534E+01-0.188E+00
CGA:  11    -0.313205300606E+03   -0.85217E-01   -0.87869E-01  9568   0.443E+01-0.911E-01
CGA:  12    -0.313301974468E+03   -0.96674E-01   -0.91747E-01  9568   0.322E+01 0.861E-01
CGA:  13    -0.313334816086E+03   -0.32842E-01   -0.28210E-01  9568   0.883E+00 0.462E+00
CGA:  14    -0.313346868325E+03   -0.12052E-01   -0.11518E-01  9568   0.596E+00 0.353E-01
CGA:  15    -0.313356299654E+03   -0.94313E-02   -0.91880E-02  9568   0.735E+00 0.934E-02
CGA:  16    -0.313370976096E+03   -0.14676E-01   -0.14808E-01  9568   0.130E+01-0.115E-02
CGA:  17    -0.313390326386E+03   -0.19350E-01   -0.20261E-01  9568   0.110E+01-0.279E-01
CGA:  18    -0.313401677894E+03   -0.11352E-01   -0.11096E-01  9568   0.568E+00 0.181E-01
CGA:  19    -0.313410173487E+03   -0.84956E-02   -0.86297E-02  9568   0.535E+00-0.446E-02
CGA:  20    -0.313415586871E+03   -0.54134E-02   -0.52433E-02  9568   0.146E+00 0.127E-01
CGA:  21    -0.313416903844E+03   -0.13170E-02   -0.13254E-02  9568   0.754E-01-0.752E-03
CGA:  22    -0.313418797504E+03   -0.18937E-02   -0.18948E-02  9568   0.200E+00 0.291E-03
CGA:  23    -0.313422890318E+03   -0.40928E-02   -0.41163E-02  9568   0.211E+00 0.786E-03
CGA:  24    -0.313425737814E+03   -0.28475E-02   -0.28796E-02  9568   0.175E+00-0.111E-02
CGA:  25    -0.313428664570E+03   -0.29268E-02   -0.29021E-02  9568   0.141E+00 0.174E-03
CGA:  26    -0.313430347092E+03   -0.16825E-02   -0.16934E-02  9568   0.753E-01-0.541E-03
CGA:  27    -0.313431320906E+03   -0.97381E-03   -0.98257E-03  9568   0.414E-01-0.261E-03
CGA:  28    -0.313431820718E+03   -0.49981E-03   -0.50216E-03  9568   0.262E-01-0.660E-04
CGA:  29    -0.313432428636E+03   -0.60792E-03   -0.60795E-03  9568   0.476E-01 0.376E-04
CGA:  30    -0.313433216684E+03   -0.78805E-03   -0.78896E-03  9568   0.316E-01 0.356E-04
CGA:  31    -0.313433693727E+03   -0.47704E-03   -0.47819E-03  9568   0.346E-01 0.114E-04
SDA:  32    -0.313434529033E+03   -0.83531E-03   -0.83525E-03  9568   0.404E-01 0.405E-04
CGA:  33    -0.313434984341E+03   -0.45531E-03   -0.45339E-03  9568   0.685E-02 0.781E-04
CGA:  34    -0.313435482087E+03   -0.49775E-03   -0.50583E-03  9568   0.642E-02-0.183E-03
CGA:  35    -0.313435672858E+03   -0.19077E-03   -0.19050E-03  9568   0.517E-02 0.320E-04
CGA:  36    -0.313436048689E+03   -0.37583E-03   -0.37636E-03  9568   0.472E-02-0.906E-05
CGA:  37    -0.313436406167E+03   -0.35748E-03   -0.35650E-03  9568   0.273E-02 0.230E-04
CGA:  38    -0.313436455828E+03   -0.49662E-04   -0.49690E-04  9568   0.181E-02 0.294E-05
CGA:  39    -0.313436550588E+03   -0.94759E-04   -0.94362E-04  9568   0.128E-02 0.171E-04
CGA:  40    -0.313436654914E+03   -0.10433E-03   -0.10387E-03  9568   0.128E-02 0.839E-05
CGA:  41    -0.313436713755E+03   -0.58841E-04   -0.58666E-04  9568   0.178E-02 0.124E-04
CGA:  42    -0.313436802694E+03   -0.88939E-04   -0.88947E-04  9568   0.130E-02 0.433E-07
CGA:  43    -0.313436879560E+03   -0.76865E-04   -0.76903E-04  9568   0.146E-02-0.174E-05
CGA:  44    -0.313436901887E+03   -0.22328E-04   -0.22277E-04  9568   0.426E-03-0.400E-06
CGA:  45    -0.313436944242E+03   -0.42355E-04   -0.42564E-04  9568   0.449E-03-0.336E-05
CGA:  46    -0.313436966498E+03   -0.22256E-04   -0.22238E-04  9568   0.386E-03 0.120E-05
CGA:  47    -0.313436977993E+03   -0.11495E-04   -0.11496E-04  9568   0.307E-03 0.238E-06
CGA:  48    -0.313436992026E+03   -0.14033E-04   -0.14024E-04  9568   0.411E-03 0.101E-05
CGA:  49    -0.313436999573E+03   -0.75463E-05   -0.75684E-05  9568   0.653E-04 0.737E-06
  17 F= -.31343700E+03 E0= -.31341706E+03  d E =-.628803E-01  mag=    25.8920
       N       E                     dE             d eps       ncg     rms          ort
SDA:   1    -0.313379777828E+03    0.57214E-01    0.00000E+00  9568   0.255E+00 0.000E+00
CGA:   2    -0.313392389902E+03   -0.12612E-01   -0.12627E-01  9568   0.596E+00-0.997E-03
CGA:   3    -0.313409864903E+03   -0.17475E-01   -0.17533E-01  9568   0.285E+00 0.827E-03
CGA:   4    -0.313417157456E+03   -0.72926E-02   -0.74061E-02  9568   0.171E+00-0.344E-04
CGA:   5    -0.313424464233E+03   -0.73068E-02   -0.73021E-02  9568   0.976E-01 0.682E-03
CGA:   6    -0.313432625159E+03   -0.81609E-02   -0.81847E-02  9568   0.104E+00-0.542E-03
CGA:   7    -0.313434811694E+03   -0.21865E-02   -0.21940E-02  9568   0.634E-01-0.166E-03
CGA:   8    -0.313436357229E+03   -0.15455E-02   -0.15697E-02  9568   0.202E-01-0.174E-03
CGA:   9    -0.313437148894E+03   -0.79166E-03   -0.79168E-03  9568   0.239E-01 0.123E-03
CGA:  10    -0.313438314921E+03   -0.11660E-02   -0.11668E-02  9568   0.467E-02-0.523E-04
CGA:  11    -0.313438548153E+03   -0.23323E-03   -0.23321E-03  9568   0.506E-02 0.280E-05
CGA:  12    -0.313438658964E+03   -0.11081E-03   -0.11092E-03  9568   0.309E-02-0.235E-05
CGA:  13    -0.313438790037E+03   -0.13107E-03   -0.13108E-03  9568   0.389E-02-0.163E-05
CGA:  14    -0.313438900751E+03   -0.11071E-03   -0.11076E-03  9568   0.691E-03 0.324E-05
CGA:  15    -0.313438941632E+03   -0.40881E-04   -0.40872E-04  9568   0.580E-03 0.529E-06
CGA:  16    -0.313438975046E+03   -0.33414E-04   -0.33373E-04  9568   0.852E-03 0.223E-05
CGA:  17    -0.313439004591E+03   -0.29545E-04   -0.29541E-04  9568   0.285E-03-0.294E-06
CGA:  18    -0.313439016276E+03   -0.11685E-04   -0.11684E-04  9568   0.402E-03 0.708E-06
CGA:  19    -0.313439025183E+03   -0.89071E-05   -0.89165E-05  9568   0.178E-03 0.288E-06
CGA:  20    -0.313439036542E+03   -0.11359E-04   -0.11380E-04  9568   0.189E-03-0.762E-06
CGA:  21    -0.313439042320E+03   -0.57777E-05   -0.57831E-05  9568   0.115E-03 0.405E-06
  18 F= -.31343904E+03 E0= -.31341916E+03  d E =-.204275E-02  mag=    25.8910
       N       E                     dE             d eps       ncg     rms          ort
SDA:   1    -0.313312366719E+03    0.12667E+00    0.00000E+00  9568   0.167E+01 0.000E+00
CGA:   2    -0.313333101254E+03   -0.20735E-01   -0.23562E-01  9568   0.640E+00-0.150E+00
CGA:   3    -0.313371880160E+03   -0.38779E-01   -0.38807E-01  9568   0.104E+01-0.902E-03
CGA:   4    -0.313396848301E+03   -0.24968E-01   -0.25035E-01  9568   0.276E+00-0.923E-03
CGA:   5    -0.313407268780E+03   -0.10420E-01   -0.10372E-01  9568   0.379E+00-0.635E-02
CGA:   6    -0.313418886301E+03   -0.11618E-01   -0.11608E-01  9568   0.304E+00-0.201E-03
CGA:   7    -0.313431946227E+03   -0.13060E-01   -0.13039E-01  9568   0.140E+00 0.437E-02
CGA:   8    -0.313435329079E+03   -0.33829E-02   -0.34262E-02  9568   0.660E-01-0.459E-03
CGA:   9    -0.313437708417E+03   -0.23793E-02   -0.23780E-02  9568   0.823E-01-0.156E-03
CGA:  10    -0.313440030797E+03   -0.23224E-02   -0.23194E-02  9568   0.354E-01-0.249E-04
CGA:  11    -0.313441509297E+03   -0.14785E-02   -0.14782E-02  9568   0.177E-01 0.589E-04
CGA:  12    -0.313441888334E+03   -0.37904E-03   -0.37937E-03  9568   0.764E-02-0.403E-06
CGA:  13    -0.313442161499E+03   -0.27317E-03   -0.27312E-03  9568   0.108E-01-0.689E-05
CGA:  14    -0.313442614110E+03   -0.45261E-03   -0.45262E-03  9568   0.464E-02-0.863E-06
CGA:  15    -0.313442772386E+03   -0.15828E-03   -0.15830E-03  9568   0.339E-02 0.488E-05
CGA:  16    -0.313442854392E+03   -0.82006E-04   -0.82090E-04  9568   0.176E-02 0.868E-06
CGA:  17    -0.313442911282E+03   -0.56890E-04   -0.56887E-04  9568   0.188E-02 0.137E-06
CGA:  18    -0.313443033234E+03   -0.12195E-03   -0.12183E-03  9568   0.161E-02 0.457E-05
CGA:  19    -0.313443074443E+03   -0.41210E-04   -0.41221E-04  9568   0.957E-03 0.488E-06
CGA:  20    -0.313443099357E+03   -0.24914E-04   -0.24952E-04  9568   0.604E-03 0.857E-06
CGA:  21    -0.313443126818E+03   -0.27460E-04   -0.27444E-04  9568   0.820E-03 0.180E-05
CGA:  22    -0.313443170358E+03   -0.43540E-04   -0.43552E-04  9568   0.610E-03-0.498E-06
CGA:  23    -0.313443183322E+03   -0.12964E-04   -0.12964E-04  9568   0.350E-03 0.503E-06
CGA:  24    -0.313443195988E+03   -0.12666E-04   -0.12667E-04  9568   0.254E-03 0.794E-06
CGA:  25    -0.313443205597E+03   -0.96096E-05   -0.96098E-05  9568   0.230E-03-0.442E-06
CGA:  26    -0.313443216648E+03   -0.11050E-04   -0.11049E-04  9568   0.262E-03 0.180E-06
CGA:  27    -0.313443222066E+03   -0.54184E-05   -0.54169E-05  9568   0.112E-03 0.154E-06
  19 F= -.31344322E+03 E0= -.31342331E+03  d E =-.417975E-02  mag=    25.8908
       N       E                     dE             d eps       ncg     rms          ort
SDA:   1    -0.313300792298E+03    0.14242E+00    0.00000E+00  9568   0.236E+01 0.000E+00
CGA:   2    -0.313329723530E+03   -0.28931E-01   -0.30709E-01  9568   0.587E+00-0.108E+00
CGA:   3    -0.313357361615E+03   -0.27638E-01   -0.27697E-01  9568   0.117E+01-0.329E-02
CGA:   4    -0.313400403439E+03   -0.43042E-01   -0.43044E-01  9568   0.200E+00 0.935E-02
CGA:   5    -0.313413876739E+03   -0.13473E-01   -0.13790E-01  9568   0.479E+00-0.965E-02
CGA:   6    -0.313432420429E+03   -0.18544E-01   -0.18523E-01  9568   0.128E+00 0.537E-02
CGA:   7    -0.313437737298E+03   -0.53169E-02   -0.53212E-02  9568   0.153E+00-0.105E-02
CGA:   8    -0.313440429111E+03   -0.26918E-02   -0.26926E-02  9568   0.467E-01-0.411E-04
CGA:   9    -0.313443779676E+03   -0.33506E-02   -0.33275E-02  9568   0.394E-01 0.666E-03
CGA:  10    -0.313444825305E+03   -0.10456E-02   -0.10338E-02  9568   0.164E-01 0.207E-04
CGA:  11    -0.313445393277E+03   -0.56797E-03   -0.56746E-03  9568   0.953E-02-0.466E-04
CGA:  12    -0.313445611818E+03   -0.21854E-03   -0.21789E-03  9568   0.921E-02 0.954E-05
CGA:  13    -0.313446153614E+03   -0.54180E-03   -0.54144E-03  9568   0.353E-02 0.155E-04
CGA:  14    -0.313446301313E+03   -0.14770E-03   -0.14768E-03  9568   0.256E-02 0.479E-05
CGA:  15    -0.313446374881E+03   -0.73568E-04   -0.73444E-04  9568   0.158E-02-0.206E-05
CGA:  16    -0.313446450715E+03   -0.75834E-04   -0.75796E-04  9568   0.333E-02 0.350E-05
CGA:  17    -0.313446536167E+03   -0.85452E-04   -0.85495E-04  9568   0.103E-02 0.343E-05
CGA:  18    -0.313446587964E+03   -0.51796E-04   -0.51824E-04  9568   0.523E-03-0.169E-05
CGA:  19    -0.313446613261E+03   -0.25297E-04   -0.25277E-04  9568   0.735E-03 0.181E-05
CGA:  20    -0.313446644275E+03   -0.31014E-04   -0.31015E-04  9568   0.588E-03-0.380E-06
CGA:  21    -0.313446662926E+03   -0.18651E-04   -0.18654E-04  9568   0.745E-03 0.253E-06
CGA:  22    -0.313446683451E+03   -0.20525E-04   -0.20507E-04  9568   0.194E-03 0.154E-06
CGA:  23    -0.313446697606E+03   -0.14156E-04   -0.14171E-04  9568   0.240E-03-0.438E-06
CGA:  24    -0.313446704901E+03   -0.72949E-05   -0.73038E-05  9568   0.152E-03 0.627E-06
CGA:  25    -0.313446716904E+03   -0.12003E-04   -0.11990E-04  9568   0.129E-03 0.255E-06
CGA:  26    -0.313446720120E+03   -0.32156E-05   -0.32209E-05  9568   0.130E-03 0.271E-06
  20 F= -.31344672E+03 E0= -.31342677E+03  d E =-.349805E-02  mag=    25.8906
       N       E                     dE             d eps       ncg     rms          ort
SDA:   1    -0.313042948103E+03    0.40377E+00    0.00000E+00  9568   0.141E+01 0.000E+00
CGA:   2    -0.313214684972E+03   -0.17174E+00   -0.17376E+00  9568   0.237E+01-0.290E-01
CGA:   3    -0.313282975136E+03   -0.68290E-01   -0.66431E-01  9568   0.125E+01 0.598E-02
CGA:   4    -0.313334688677E+03   -0.51714E-01   -0.51824E-01  9568   0.796E+00 0.198E-01
CGA:   5    -0.313398109191E+03   -0.63421E-01   -0.63641E-01  9568   0.164E+01-0.593E-02
CGA:   6    -0.313420600661E+03   -0.22491E-01   -0.23706E-01  9568   0.199E+00-0.640E-01
CGA:   7    -0.313433872928E+03   -0.13272E-01   -0.13166E-01  9568   0.293E+00 0.368E-02
CGA:   8    -0.313441830463E+03   -0.79575E-02   -0.78672E-02  9568   0.107E+00 0.942E-03
CGA:   9    -0.313444975543E+03   -0.31451E-02   -0.31535E-02  9568   0.777E-01-0.250E-05
CGA:  10    -0.313446561694E+03   -0.15862E-02   -0.15991E-02  9568   0.273E-01-0.342E-03
CGA:  11    -0.313448483385E+03   -0.19217E-02   -0.19284E-02  9568   0.320E-01-0.208E-03
CGA:  12    -0.313449333923E+03   -0.85054E-03   -0.85247E-03  9568   0.204E-01-0.728E-05
CGA:  13    -0.313449833588E+03   -0.49966E-03   -0.50107E-03  9568   0.813E-02-0.122E-04
CGA:  14    -0.313450051896E+03   -0.21831E-03   -0.21853E-03  9568   0.587E-02 0.297E-06
CGA:  15    -0.313450514519E+03   -0.46262E-03   -0.46299E-03  9568   0.675E-02-0.910E-05
CGA:  16    -0.313450638109E+03   -0.12359E-03   -0.12393E-03  9568   0.290E-02-0.804E-05
CGA:  17    -0.313450742459E+03   -0.10435E-03   -0.10441E-03  9568   0.170E-02 0.534E-05
CGA:  18    -0.313450814384E+03   -0.71926E-04   -0.71923E-04  9568   0.244E-02 0.387E-05
CGA:  19    -0.313450927915E+03   -0.11353E-03   -0.11354E-03  9568   0.216E-02-0.941E-06
CGA:  20    -0.313450967294E+03   -0.39379E-04   -0.39443E-04  9568   0.728E-03-0.196E-05
CGA:  21    -0.313451009158E+03   -0.41864E-04   -0.41793E-04  9568   0.701E-03 0.385E-05
CGA:  22    -0.313451035040E+03   -0.25882E-04   -0.25883E-04  9568   0.104E-02 0.272E-06
CGA:  23    -0.313451075510E+03   -0.40470E-04   -0.40468E-04  9568   0.736E-03-0.120E-06
CGA:  24    -0.313451092556E+03   -0.17046E-04   -0.17066E-04  9568   0.302E-03 0.108E-05
CGA:  25    -0.313451111093E+03   -0.18537E-04   -0.18514E-04  9568   0.391E-03 0.109E-05
CGA:  26    -0.313451120231E+03   -0.91378E-05   -0.91562E-05  9568   0.296E-03 0.713E-06
CGA:  27    -0.313451136233E+03   -0.16002E-04   -0.15988E-04  9568   0.265E-03 0.118E-05
CGA:  28    -0.313451143997E+03   -0.77648E-05   -0.77683E-05  9568   0.180E-03 0.533E-06
  21 F= -.31345114E+03 E0= -.31343118E+03  d E =-.442388E-02  mag=    25.8907
       N       E                     dE             d eps       ncg     rms          ort
SDA:   1    -0.313298690933E+03    0.15245E+00    0.00000E+00  9568   0.310E+01 0.000E+00
CGA:   2    -0.313332229230E+03   -0.33538E-01   -0.31733E-01  9568   0.346E+00 0.141E+00
CGA:   3    -0.313368843350E+03   -0.36614E-01   -0.36994E-01  9568   0.158E+01-0.654E-02
CGA:   4    -0.313408965202E+03   -0.40122E-01   -0.40190E-01  9568   0.561E+00-0.540E-03
CGA:   5    -0.313419505378E+03   -0.10540E-01   -0.10288E-01  9568   0.269E+00 0.815E-02
CGA:   6    -0.313430620630E+03   -0.11115E-01   -0.11122E-01  9568   0.236E+00-0.504E-02
CGA:   7    -0.313440354619E+03   -0.97340E-02   -0.97260E-02  9568   0.364E+00 0.242E-02
CGA:   8    -0.313446500032E+03   -0.61454E-02   -0.62275E-02  9568   0.350E-01-0.309E-02
CGA:   9    -0.313447711720E+03   -0.12117E-02   -0.12130E-02  9568   0.475E-01 0.135E-03
CGA:  10    -0.313450063589E+03   -0.23519E-02   -0.23524E-02  9568   0.304E-01-0.327E-04
CGA:  11    -0.313450638543E+03   -0.57495E-03   -0.57595E-03  9568   0.184E-01-0.325E-04
CGA:  12    -0.313451177364E+03   -0.53882E-03   -0.53824E-03  9568   0.372E-02-0.123E-04
CGA:  13    -0.313451480252E+03   -0.30289E-03   -0.30265E-03  9568   0.134E-01 0.530E-05
CGA:  14    -0.313451809125E+03   -0.32887E-03   -0.32865E-03  9568   0.388E-02-0.555E-06
CGA:  15    -0.313451875032E+03   -0.65907E-04   -0.65844E-04  9568   0.123E-02 0.149E-05
CGA:  16    -0.313451932777E+03   -0.57744E-04   -0.57730E-04  9568   0.110E-02 0.155E-05
CGA:  17    -0.313452020076E+03   -0.87299E-04   -0.87337E-04  9568   0.268E-02-0.108E-05
CGA:  18    -0.313452060566E+03   -0.40490E-04   -0.40513E-04  9568   0.368E-03-0.118E-05
CGA:  19    -0.313452079558E+03   -0.18992E-04   -0.18984E-04  9568   0.460E-03 0.641E-06
CGA:  20    -0.313452094510E+03   -0.14952E-04   -0.14965E-04  9568   0.363E-03 0.125E-05
CGA:  21    -0.313452111240E+03   -0.16730E-04   -0.16733E-04  9568   0.474E-03-0.422E-06
CGA:  22    -0.313452119950E+03   -0.87091E-05   -0.87030E-05  9568   0.176E-03-0.373E-06
CGA:  23    -0.313452134042E+03   -0.14093E-04   -0.14042E-04  9568   0.128E-03 0.121E-05
CGA:  24    -0.313452138713E+03   -0.46711E-05   -0.46723E-05  9568   0.159E-03 0.257E-06
  22 F= -.31345214E+03 E0= -.31343215E+03  d E =-.994716E-03  mag=    25.8915
       N       E                     dE             d eps       ncg     rms          ort
SDA:   1    -0.311259625033E+03    0.21925E+01    0.00000E+00  9568   0.102E+02 0.000E+00
CGA:   2    -0.311523646813E+03   -0.26402E+00   -0.24086E+00  9568   0.962E+01 0.135E+00
CGA:   3    -0.312286988569E+03   -0.76334E+00   -0.76964E+00  9568   0.304E+02-0.138E+00
CGA:   4    -0.312833050140E+03   -0.54606E+00   -0.55492E+00  9568   0.390E+01-0.169E+00
CGA:   5    -0.312959347396E+03   -0.12630E+00   -0.12773E+00  9568   0.807E+01 0.592E-01
CGA:   6    -0.313234452003E+03   -0.27510E+00   -0.27419E+00  9568   0.288E+01-0.473E-01
CGA:   7    -0.313315467160E+03   -0.81015E-01   -0.81469E-01  9568   0.265E+01 0.329E-02
CGA:   8    -0.313359300119E+03   -0.43833E-01   -0.44061E-01  9568   0.950E+00-0.776E-02
CGA:   9    -0.313381271577E+03   -0.21971E-01   -0.21403E-01  9568   0.620E+00 0.581E-02
CGA:  10    -0.313411380512E+03   -0.30109E-01   -0.29979E-01  9568   0.853E+00 0.853E-02
CGA:  11    -0.313425396788E+03   -0.14016E-01   -0.14194E-01  9568   0.311E+00-0.667E-02
CGA:  12    -0.313435731316E+03   -0.10335E-01   -0.10330E-01  9568   0.851E-01-0.684E-03
CGA:  13    -0.313438271947E+03   -0.25406E-02   -0.25393E-02  9568   0.155E+00-0.248E-04
CGA:  14    -0.313443939040E+03   -0.56671E-02   -0.56641E-02  9568   0.764E-01 0.228E-02
CGA:  15    -0.313446879194E+03   -0.29402E-02   -0.29412E-02  9568   0.797E-01-0.293E-03
CGA:  16    -0.313448170643E+03   -0.12914E-02   -0.12580E-02  9568   0.189E-01 0.129E-02
CGA:  17    -0.313448701342E+03   -0.53070E-03   -0.53162E-03  9568   0.191E-01 0.325E-04
CGA:  18    -0.313449902178E+03   -0.12008E-02   -0.11967E-02  9568   0.302E-01 0.143E-03
CGA:  19    -0.313450396534E+03   -0.49436E-03   -0.49706E-03  9568   0.129E-01-0.844E-04
CGA:  20    -0.313450901510E+03   -0.50498E-03   -0.50488E-03  9568   0.503E-02 0.143E-04
CGA:  21    -0.313451043539E+03   -0.14203E-03   -0.14213E-03  9568   0.751E-02 0.477E-05
CGA:  22    -0.313451305550E+03   -0.26201E-03   -0.26201E-03  9568   0.479E-02 0.247E-04
CGA:  23    -0.313451480621E+03   -0.17507E-03   -0.17503E-03  9568   0.502E-02 0.158E-04
CGA:  24    -0.313451632035E+03   -0.15141E-03   -0.15142E-03  9568   0.399E-02 0.175E-05
CGA:  25    -0.313451715723E+03   -0.83687E-04   -0.83843E-04  9568   0.255E-02-0.218E-06
CGA:  26    -0.313451839819E+03   -0.12410E-03   -0.12390E-03  9568   0.129E-02 0.118E-04
CGA:  27    -0.313451874096E+03   -0.34277E-04   -0.34295E-04  9568   0.190E-02 0.867E-06
CGA:  28    -0.313451959947E+03   -0.85851E-04   -0.85736E-04  9568   0.138E-02 0.881E-05
CGA:  29    -0.313452012846E+03   -0.52898E-04   -0.52866E-04  9568   0.157E-02 0.740E-05
CGA:  30    -0.313452051191E+03   -0.38345E-04   -0.38402E-04  9568   0.861E-03 0.257E-05
CGA:  31    -0.313452069195E+03   -0.18005E-04   -0.18027E-04  9568   0.483E-03 0.617E-06
SDA:  32    -0.313452102715E+03   -0.33520E-04   -0.33391E-04  9568   0.609E-03 0.340E-05
CGA:  33    -0.313452113876E+03   -0.11161E-04   -0.11191E-04  9568   0.318E-03-0.664E-06
CGA:  34    -0.313452122432E+03   -0.85554E-05   -0.85587E-05  9568   0.198E-03 0.701E-07
CGA:  35    -0.313452140836E+03   -0.18404E-04   -0.18413E-04  9568   0.596E-03-0.407E-06
[...]
CGA:  26    -0.313501595800E+03   -0.24363E-04   -0.24333E-04  9568   0.690E-03-0.180E-06
CGA:  27    -0.313501637216E+03   -0.41416E-04   -0.41373E-04  9568   0.806E-03 0.199E-05
CGA:  28    -0.313501662764E+03   -0.25548E-04   -0.25539E-04  9568   0.428E-03-0.927E-06
CGA:  29    -0.313501676431E+03   -0.13667E-04   -0.13666E-04  9568   0.350E-03-0.198E-06
CGA:  30    -0.313501684683E+03   -0.82516E-05   -0.82444E-05  9568   0.199E-03-0.543E-07
CGA:  31    -0.313501696817E+03   -0.12135E-04   -0.12148E-04  9568   0.209E-03-0.586E-06
SDA:  32    -0.313501702828E+03   -0.60110E-05   -0.60158E-05  9568   0.127E-03 0.285E-06
 158 F= -.31350170E+03 E0= -.31348164E+03  d E =0.139653E-02  mag=    25.8723
       N       E                     dE             d eps       ncg     rms          ort
SDA:   1    -0.312964914549E+03    0.53678E+00    0.00000E+00  9568   0.222E+01 0.000E+00
CGA:   2    -0.313069866618E+03   -0.10495E+00   -0.10603E+00  9568   0.468E+01-0.764E-01
CGA:   3    -0.313240035001E+03   -0.17017E+00   -0.17014E+00  9568   0.391E+01-0.384E-01
CGA:   4    -0.313305414917E+03   -0.65380E-01   -0.65465E-01  9568   0.125E+01-0.204E-01
CGA:   5    -0.313374267691E+03   -0.68853E-01   -0.70083E-01  9568   0.114E+01-0.559E-01
CGA:   6    -0.313418675839E+03   -0.44408E-01   -0.44555E-01  9568   0.194E+01-0.278E-01
CGA:   7    -0.313460845069E+03   -0.42169E-01   -0.41649E-01  9568   0.354E+00 0.733E-02
CGA:   8    -0.313473316442E+03   -0.12471E-01   -0.12498E-01  9568   0.246E+00 0.575E-02
CGA:   9    -0.313481191810E+03   -0.78754E-02   -0.78748E-02  9568   0.205E+00-0.269E-04
CGA:  10    -0.313487820830E+03   -0.66290E-02   -0.66302E-02  9568   0.228E+00 0.109E-03
CGA:  11    -0.313492929028E+03   -0.51082E-02   -0.50913E-02  9568   0.266E-01 0.159E-03
CGA:  12    -0.313494281837E+03   -0.13528E-02   -0.13566E-02  9568   0.503E-01-0.203E-03
CGA:  13    -0.313495593570E+03   -0.13117E-02   -0.13111E-02  9568   0.330E-01-0.733E-05
CGA:  14    -0.313496460664E+03   -0.86709E-03   -0.87024E-03  9568   0.197E-01 0.473E-04
CGA:  15    -0.313497179325E+03   -0.71866E-03   -0.71872E-03  9568   0.731E-02-0.460E-04
CGA:  16    -0.313497416783E+03   -0.23746E-03   -0.23747E-03  9568   0.109E-01 0.163E-05
CGA:  17    -0.313497728488E+03   -0.31171E-03   -0.31185E-03  9568   0.481E-02 0.525E-05
CGA:  18    -0.313497915942E+03   -0.18745E-03   -0.18757E-03  9568   0.495E-02-0.173E-04
CGA:  19    -0.313498108959E+03   -0.19302E-03   -0.19293E-03  9568   0.361E-02 0.157E-04
CGA:  20    -0.313498191125E+03   -0.82166E-04   -0.82120E-04  9568   0.310E-02 0.923E-06
CGA:  21    -0.313498307976E+03   -0.11685E-03   -0.11690E-03  9568   0.109E-02-0.108E-04
CGA:  22    -0.313498362116E+03   -0.54140E-04   -0.54074E-04  9568   0.209E-02 0.421E-05
CGA:  23    -0.313498443542E+03   -0.81426E-04   -0.81422E-04  9568   0.215E-02 0.160E-05
CGA:  24    -0.313498486916E+03   -0.43374E-04   -0.43365E-04  9568   0.898E-03 0.168E-05
CGA:  25    -0.313498531098E+03   -0.44181E-04   -0.44129E-04  9568   0.476E-03 0.366E-05
CGA:  26    -0.313498549129E+03   -0.18031E-04   -0.18030E-04  9568   0.782E-03 0.101E-05
CGA:  27    -0.313498578241E+03   -0.29112E-04   -0.29106E-04  9568   0.884E-03 0.408E-05
CGA:  28    -0.313498602965E+03   -0.24724E-04   -0.24760E-04  9568   0.382E-03 0.371E-05
CGA:  29    -0.313498618023E+03   -0.15058E-04   -0.15057E-04  9568   0.205E-03 0.379E-06
CGA:  30    -0.313498625292E+03   -0.72695E-05   -0.72696E-05  9568   0.353E-03 0.186E-06
CGA:  31    -0.313498637125E+03   -0.11833E-04   -0.11833E-04  9568   0.194E-03-0.120E-06
SDA:  32    -0.313498643230E+03   -0.61047E-05   -0.61004E-05  9568   0.135E-03-0.926E-06
 159 F= -.31349864E+03 E0= -.31347876E+03  d E =0.305960E-02  mag=    25.8675
       N       E                     dE             d eps       ncg     rms          ort
SDA:   1    -0.313105220746E+03    0.39342E+00    0.00000E+00  9568   0.154E+01 0.000E+00
CGA:   2    -0.313214712532E+03   -0.10949E+00   -0.11274E+00  9568   0.432E+01-0.840E-01
CGA:   3    -0.313331010486E+03   -0.11630E+00   -0.11772E+00  9568   0.928E+00 0.411E-01
CGA:   4    -0.313380214056E+03   -0.49204E-01   -0.48263E-01  9568   0.109E+01 0.487E-01
CGA:   5    -0.313416812615E+03   -0.36599E-01   -0.36421E-01  9568   0.101E+01-0.106E-01
CGA:   6    -0.313461524995E+03   -0.44712E-01   -0.44553E-01  9568   0.853E+00 0.141E-01
CGA:   7    -0.313474328494E+03   -0.12803E-01   -0.12910E-01  9568   0.137E+00-0.582E-02
CGA:   8    -0.313489399596E+03   -0.15071E-01   -0.15186E-01  9568   0.134E+00-0.180E-02
CGA:   9    -0.313493811237E+03   -0.44116E-02   -0.44176E-02  9568   0.576E-01 0.288E-03
CGA:  10    -0.313495082515E+03   -0.12713E-02   -0.12814E-02  9568   0.284E-01-0.145E-03
CGA:  11    -0.313496329609E+03   -0.12471E-02   -0.12480E-02  9568   0.496E-01-0.966E-04
CGA:  12    -0.313497738037E+03   -0.14084E-02   -0.14051E-02  9568   0.140E-01-0.387E-04
CGA:  13    -0.313498399530E+03   -0.66149E-03   -0.66115E-03  9568   0.562E-02 0.280E-04
CGA:  14    -0.313498555400E+03   -0.15587E-03   -0.15602E-03  9568   0.776E-02 0.301E-05
CGA:  15    -0.313498951610E+03   -0.39621E-03   -0.39617E-03  9568   0.345E-02 0.304E-05
CGA:  16    -0.313499143610E+03   -0.19200E-03   -0.19196E-03  9568   0.390E-02 0.276E-05
CGA:  17    -0.313499215409E+03   -0.71799E-04   -0.71836E-04  9568   0.132E-02-0.136E-05
CGA:  18    -0.313499278837E+03   -0.63428E-04   -0.63453E-04  9568   0.238E-02-0.157E-05
CGA:  19    -0.313499364715E+03   -0.85878E-04   -0.85900E-04  9568   0.837E-03 0.481E-05
CGA:  20    -0.313499409756E+03   -0.45041E-04   -0.45056E-04  9568   0.143E-02-0.776E-06
CGA:  21    -0.313499441366E+03   -0.31610E-04   -0.31602E-04  9568   0.724E-03 0.199E-06
CGA:  22    -0.313499482230E+03   -0.40864E-04   -0.40827E-04  9568   0.268E-03 0.208E-05
CGA:  23    -0.313499493380E+03   -0.11150E-04   -0.11151E-04  9568   0.583E-03-0.208E-06
CGA:  24    -0.313499517049E+03   -0.23669E-04   -0.23670E-04  9568   0.370E-03-0.447E-06
CGA:  25    -0.313499530965E+03   -0.13915E-04   -0.13918E-04  9568   0.317E-03 0.899E-06
CGA:  26    -0.313499539991E+03   -0.90257E-05   -0.90181E-05  9568   0.967E-04-0.223E-06
 160 F= -.31349954E+03 E0= -.31347953E+03  d E =-.896761E-03  mag=    25.8660
       N       E                     dE             d eps       ncg     rms          ort
SDA:   1    -0.313275733535E+03    0.22380E+00    0.00000E+00  9568   0.184E+01 0.000E+00
CGA:   2    -0.313307251452E+03   -0.31518E-01   -0.29108E-01  9568   0.102E+01 0.975E-01
CGA:   3    -0.313393825555E+03   -0.86574E-01   -0.85641E-01  9568   0.106E+01 0.227E-01
CGA:   4    -0.313420278821E+03   -0.26453E-01   -0.25233E-01  9568   0.432E+00 0.157E-01
CGA:   5    -0.313443644286E+03   -0.23365E-01   -0.23758E-01  9568   0.707E+00-0.203E-01
CGA:   6    -0.313458646105E+03   -0.15002E-01   -0.15027E-01  9568   0.527E+00-0.446E-03
CGA:   7    -0.313483544059E+03   -0.24898E-01   -0.24829E-01  9568   0.134E+00 0.564E-02
CGA:   8    -0.313486869262E+03   -0.33252E-02   -0.33241E-02  9568   0.167E+00 0.131E-04
CGA:   9    -0.313493069411E+03   -0.62001E-02   -0.62068E-02  9568   0.760E-01 0.196E-02
CGA:  10    -0.313496939042E+03   -0.38696E-02   -0.38757E-02  9568   0.604E-01-0.378E-03
CGA:  11    -0.313497789181E+03   -0.85014E-03   -0.83637E-03  9568   0.184E-01 0.715E-03
CGA:  12    -0.313498800217E+03   -0.10110E-02   -0.10105E-02  9568   0.129E-01 0.245E-04
CGA:  13    -0.313499221278E+03   -0.42106E-03   -0.42108E-03  9568   0.212E-01 0.153E-05
CGA:  14    -0.313499873523E+03   -0.65224E-03   -0.65241E-03  9568   0.689E-02 0.300E-05
CGA:  15    -0.313500018099E+03   -0.14458E-03   -0.14398E-03  9568   0.308E-02 0.889E-05
CGA:  16    -0.313500190664E+03   -0.17257E-03   -0.17233E-03  9568   0.517E-02 0.107E-04
CGA:  17    -0.313500286606E+03   -0.95942E-04   -0.95989E-04  9568   0.232E-02-0.902E-07
CGA:  18    -0.313500429801E+03   -0.14319E-03   -0.14345E-03  9568   0.128E-02-0.922E-05
CGA:  19    -0.313500469743E+03   -0.39942E-04   -0.39966E-04  9568   0.183E-02 0.106E-05
CGA:  20    -0.313500517447E+03   -0.47704E-04   -0.47747E-04  9568   0.655E-03 0.818E-06
CGA:  21    -0.313500562252E+03   -0.44805E-04   -0.44782E-04  9568   0.590E-03 0.672E-06
CGA:  22    -0.313500575038E+03   -0.12786E-04   -0.12792E-04  9568   0.578E-03-0.272E-06
CGA:  23    -0.313500607335E+03   -0.32297E-04   -0.32299E-04  9568   0.443E-03-0.858E-07
CGA:  24    -0.313500617947E+03   -0.10612E-04   -0.10637E-04  9568   0.208E-03 0.940E-06
CGA:  25    -0.313500626574E+03   -0.86271E-05   -0.86258E-05  9568   0.220E-03 0.261E-06
 161 F= -.31350063E+03 E0= -.31348073E+03  d E =-.108658E-02  mag=    25.8658
       N       E                     dE             d eps       ncg     rms          ort
SDA:   1    -0.313447676230E+03    0.52942E-01    0.00000E+00  9568   0.991E+00 0.000E+00
CGA:   2    -0.313461061295E+03   -0.13385E-01   -0.13391E-01  9568   0.217E+00-0.430E-03
CGA:   3    -0.313468995753E+03   -0.79345E-02   -0.79347E-02  9568   0.326E+00-0.152E-02
CGA:   4    -0.313482347296E+03   -0.13352E-01   -0.13361E-01  9568   0.214E+00-0.119E-02
CGA:   5    -0.313492012871E+03   -0.96656E-02   -0.96671E-02  9568   0.599E-01-0.111E-03
CGA:   6    -0.313494717629E+03   -0.27048E-02   -0.27105E-02  9568   0.141E+00-0.469E-03
CGA:   7    -0.313499047683E+03   -0.43301E-02   -0.43181E-02  9568   0.574E-01-0.507E-03
CGA:   8    -0.313501002673E+03   -0.19550E-02   -0.19551E-02  9568   0.260E-01 0.104E-04
CGA:   9    -0.313501645457E+03   -0.64278E-03   -0.64633E-03  9568   0.894E-02 0.108E-04
CGA:  10    -0.313502629554E+03   -0.98410E-03   -0.98617E-03  9568   0.572E-02-0.296E-04
CGA:  11    -0.313502773959E+03   -0.14441E-03   -0.14476E-03  9568   0.429E-02 0.737E-06
CGA:  12    -0.313502878522E+03   -0.10456E-03   -0.10479E-03  9568   0.197E-02-0.307E-06
CGA:  13    -0.313502955276E+03   -0.76754E-04   -0.76756E-04  9568   0.248E-02-0.363E-05
CGA:  14    -0.313503077651E+03   -0.12237E-03   -0.12237E-03  9568   0.774E-03 0.709E-06
CGA:  15    -0.313503114908E+03   -0.37257E-04   -0.37247E-04  9568   0.701E-03 0.113E-05
CGA:  16    -0.313503130064E+03   -0.15156E-04   -0.15158E-04  9568   0.522E-03 0.699E-06
CGA:  17    -0.313503159290E+03   -0.29226E-04   -0.29193E-04  9568   0.549E-03 0.166E-05
CGA:  18    -0.313503175506E+03   -0.16216E-04   -0.16205E-04  9568   0.311E-03-0.374E-06
CGA:  19    -0.313503193634E+03   -0.18128E-04   -0.18104E-04  9568   0.217E-03 0.125E-05
CGA:  20    -0.313503201057E+03   -0.74230E-05   -0.74234E-05  9568   0.310E-03 0.155E-07
 162 F= -.31350320E+03 E0= -.31348327E+03  d E =-.257448E-02  mag=    25.8659
       N       E                     dE             d eps       ncg     rms          ort
SDA:   1    -0.313431624780E+03    0.71569E-01    0.00000E+00  9568   0.794E+00 0.000E+00
CGA:   2    -0.313442774158E+03   -0.11149E-01   -0.11268E-01  9568   0.287E+00-0.710E-02
CGA:   3    -0.313459750175E+03   -0.16976E-01   -0.17164E-01  9568   0.627E+00-0.721E-02
CGA:   4    -0.313481903239E+03   -0.22153E-01   -0.22184E-01  9568   0.331E+00 0.482E-02
CGA:   5    -0.313493306241E+03   -0.11403E-01   -0.11428E-01  9568   0.940E-01 0.202E-02
CGA:   6    -0.313495679155E+03   -0.23729E-02   -0.23628E-02  9568   0.119E+00 0.388E-04
CGA:   7    -0.313501585025E+03   -0.59059E-02   -0.59006E-02  9568   0.588E-01 0.331E-03
CGA:   8    -0.313504170056E+03   -0.25850E-02   -0.25892E-02  9568   0.374E-01-0.475E-03
CGA:   9    -0.313504962746E+03   -0.79269E-03   -0.80299E-03  9568   0.131E-01-0.165E-03
CGA:  10    -0.313505406337E+03   -0.44359E-03   -0.44365E-03  9568   0.195E-01 0.624E-05
CGA:  11    -0.313505993358E+03   -0.58702E-03   -0.58585E-03  9568   0.449E-02-0.402E-04
CGA:  12    -0.313506282358E+03   -0.28900E-03   -0.28772E-03  9568   0.300E-02 0.446E-04
CGA:  13    -0.313506385881E+03   -0.10352E-03   -0.10342E-03  9568   0.306E-02-0.865E-05
CGA:  14    -0.313506477632E+03   -0.91751E-04   -0.91728E-04  9568   0.194E-02-0.156E-05
CGA:  15    -0.313506520012E+03   -0.42381E-04   -0.42412E-04  9568   0.113E-02 0.148E-07
CGA:  16    -0.313506606397E+03   -0.86385E-04   -0.86312E-04  9568   0.778E-03 0.179E-05
CGA:  17    -0.313506646059E+03   -0.39662E-04   -0.39653E-04  9568   0.506E-03 0.565E-06
CGA:  18    -0.313506658051E+03   -0.11992E-04   -0.11989E-04  9568   0.425E-03-0.152E-06
CGA:  19    -0.313506682253E+03   -0.24202E-04   -0.24193E-04  9568   0.103E-02 0.643E-06
CGA:  20    -0.313506716284E+03   -0.34031E-04   -0.34059E-04  9568   0.282E-03 0.290E-05
CGA:  21    -0.313506732806E+03   -0.16522E-04   -0.16522E-04  9568   0.233E-03 0.439E-07
CGA:  22    -0.313506747374E+03   -0.14568E-04   -0.14533E-04  9568   0.470E-03 0.156E-05
CGA:  23    -0.313506758924E+03   -0.11550E-04   -0.11566E-04  9568   0.259E-03-0.271E-08
CGA:  24    -0.313506767493E+03   -0.85693E-05   -0.85663E-05  9568   0.275E-03-0.319E-06
CGA:  25    -0.313506779252E+03   -0.11759E-04   -0.11757E-04  9568   0.106E-03 0.431E-06
CGA:  26    -0.313506787050E+03   -0.77983E-05   -0.78127E-05  9568   0.697E-04-0.440E-06
 163 F= -.31350679E+03 E0= -.31348688E+03  d E =-.358599E-02  mag=    25.8650
       N       E                     dE             d eps       ncg     rms          ort
SDA:   1    -0.313488452220E+03    0.18327E-01    0.00000E+00  9568   0.520E+00 0.000E+00
CGA:   2    -0.313494756976E+03   -0.63048E-02   -0.64842E-02  9568   0.638E-01-0.119E-01
CGA:   3    -0.313496846594E+03   -0.20896E-02   -0.20907E-02  9568   0.963E-01 0.642E-04
CGA:   4    -0.313502195198E+03   -0.53486E-02   -0.53568E-02  9568   0.611E-01-0.402E-03
CGA:   5    -0.313504768495E+03   -0.25733E-02   -0.25735E-02  9568   0.429E-01-0.578E-04
CGA:   6    -0.313505560633E+03   -0.79214E-03   -0.78895E-03  9568   0.202E-01 0.100E-03
CGA:   7    -0.313506700497E+03   -0.11399E-02   -0.11400E-02  9568   0.229E-01-0.471E-05
CGA:   8    -0.313507384618E+03   -0.68412E-03   -0.68597E-03  9568   0.114E-01 0.313E-04
CGA:   9    -0.313507752038E+03   -0.36742E-03   -0.36668E-03  9568   0.564E-02-0.240E-04
CGA:  10    -0.313507855088E+03   -0.10305E-03   -0.10283E-03  9568   0.258E-02 0.498E-05
CGA:  11    -0.313508033318E+03   -0.17823E-03   -0.17805E-03  9568   0.183E-02 0.615E-05
CGA:  12    -0.313508084690E+03   -0.51372E-04   -0.51321E-04  9568   0.132E-02-0.128E-05
CGA:  13    -0.313508124497E+03   -0.39808E-04   -0.39790E-04  9568   0.898E-03-0.749E-06
CGA:  14    -0.313508148037E+03   -0.23539E-04   -0.23559E-04  9568   0.539E-03 0.518E-06
CGA:  15    -0.313508172079E+03   -0.24043E-04   -0.24046E-04  9568   0.226E-03-0.319E-06
CGA:  16    -0.313508181332E+03   -0.92522E-05   -0.92522E-05  9568   0.449E-03 0.324E-07
CGA:  17    -0.313508197932E+03   -0.16600E-04   -0.16601E-04  9568   0.230E-03 0.192E-06
CGA:  18    -0.313508203991E+03   -0.60593E-05   -0.60572E-05  9568   0.116E-03-0.274E-07
 164 F= -.31350820E+03 E0= -.31348829E+03  d E =-.141694E-02  mag=    25.8647
       N       E                     dE             d eps       ncg     rms          ort
SDA:   1    -0.313472716004E+03    0.35482E-01    0.00000E+00  9568   0.560E+00 0.000E+00
CGA:   2    -0.313479032152E+03   -0.63161E-02   -0.66480E-02  9568   0.118E+00-0.217E-01
CGA:   3    -0.313488650836E+03   -0.96187E-02   -0.94193E-02  9568   0.204E+00 0.456E-02
CGA:   4    -0.313498013379E+03   -0.93625E-02   -0.93714E-02  9568   0.291E+00-0.103E-02
CGA:   5    -0.313504784418E+03   -0.67710E-02   -0.66449E-02  9568   0.572E-01 0.171E-02
CGA:   6    -0.313505975039E+03   -0.11906E-02   -0.11979E-02  9568   0.271E-01-0.133E-03
CGA:   7    -0.313507657346E+03   -0.16823E-02   -0.16826E-02  9568   0.269E-01-0.121E-04
CGA:   8    -0.313508533300E+03   -0.87595E-03   -0.87612E-03  9568   0.283E-01 0.790E-05
CGA:   9    -0.313509148663E+03   -0.61536E-03   -0.60997E-03  9568   0.438E-02 0.915E-04
CGA:  10    -0.313509421380E+03   -0.27272E-03   -0.27240E-03  9568   0.490E-02 0.118E-04
CGA:  11    -0.313509516293E+03   -0.94913E-04   -0.94879E-04  9568   0.210E-02 0.166E-05
CGA:  12    -0.313509596392E+03   -0.80099E-04   -0.80099E-04  9568   0.183E-02 0.215E-05
CGA:  13    -0.313509654951E+03   -0.58559E-04   -0.58542E-04  9568   0.125E-02-0.100E-05
CGA:  14    -0.313509711423E+03   -0.56472E-04   -0.56462E-04  9568   0.683E-03 0.115E-05
CGA:  15    -0.313509721916E+03   -0.10493E-04   -0.10491E-04  9568   0.218E-03 0.480E-06
CGA:  16    -0.313509745176E+03   -0.23260E-04   -0.23277E-04  9568   0.332E-03-0.253E-06
CGA:  17    -0.313509753905E+03   -0.87293E-05   -0.87349E-05  9568   0.262E-03 0.427E-06
 165 F= -.31350975E+03 E0= -.31348983E+03  d E =-.154991E-02  mag=    25.8646
       N       E                     dE             d eps       ncg     rms          ort
SDA:   1    -0.313494117399E+03    0.15628E-01    0.00000E+00  9568   0.476E+00 0.000E+00
CGA:   2    -0.313499794215E+03   -0.56768E-02   -0.57694E-02  9568   0.521E-01-0.598E-02
CGA:   3    -0.313501246179E+03   -0.14520E-02   -0.14578E-02  9568   0.571E-01 0.116E-03
CGA:   4    -0.313504769260E+03   -0.35231E-02   -0.35076E-02  9568   0.613E-01 0.575E-03
CGA:   5    -0.313507627174E+03   -0.28579E-02   -0.28644E-02  9568   0.189E-01-0.569E-03
CGA:   6    -0.313507992823E+03   -0.36565E-03   -0.36681E-03  9568   0.146E-01-0.299E-04
CGA:   7    -0.313508905074E+03   -0.91225E-03   -0.91539E-03  9568   0.947E-02-0.114E-03
CGA:   8    -0.313509183319E+03   -0.27825E-03   -0.27850E-03  9568   0.658E-02 0.920E-05
CGA:   9    -0.313509420849E+03   -0.23753E-03   -0.23749E-03  9568   0.371E-02-0.661E-05
CGA:  10    -0.313509497341E+03   -0.76492E-04   -0.76599E-04  9568   0.221E-02-0.242E-05
CGA:  11    -0.313509586620E+03   -0.89279E-04   -0.89290E-04  9568   0.653E-03-0.201E-05
CGA:  12    -0.313509622087E+03   -0.35467E-04   -0.35487E-04  9568   0.113E-02-0.942E-06
CGA:  13    -0.313509647696E+03   -0.25609E-04   -0.25572E-04  9568   0.424E-03 0.191E-06
CGA:  14    -0.313509660633E+03   -0.12937E-04   -0.12945E-04  9568   0.311E-03 0.750E-06
CGA:  15    -0.313509670901E+03   -0.10267E-04   -0.10265E-04  9568   0.114E-03-0.419E-06
CGA:  16    -0.313509676925E+03   -0.60249E-05   -0.60271E-05  9568   0.217E-03-0.128E-06
 166 F= -.31350968E+03 E0= -.31348974E+03  d E =0.769797E-04  mag=    25.8648
       N       E                     dE             d eps       ncg     rms          ort
SDA:   1    -0.313433216260E+03    0.76455E-01    0.00000E+00  9568   0.536E+01 0.000E+00
CGA:   2    -0.313496191007E+03   -0.62975E-01   -0.62470E-01  9568   0.381E+00-0.349E-01
CGA:   3    -0.313500934434E+03   -0.47434E-02   -0.46540E-02  9568   0.377E-01 0.539E-02
CGA:   4    -0.313502746218E+03   -0.18118E-02   -0.18095E-02  9568   0.694E-01 0.141E-03
CGA:   5    -0.313504274129E+03   -0.15279E-02   -0.15297E-02  9568   0.499E-01-0.175E-04
CGA:   6    -0.313506804038E+03   -0.25299E-02   -0.25288E-02  9568   0.362E-01 0.614E-04
CGA:   7    -0.313507509143E+03   -0.70511E-03   -0.70724E-03  9568   0.167E-01-0.368E-04
CGA:   8    -0.313507930277E+03   -0.42113E-03   -0.42119E-03  9568   0.133E-01 0.112E-05
CGA:   9    -0.313508384358E+03   -0.45408E-03   -0.45405E-03  9568   0.896E-02-0.799E-04
CGA:  10    -0.313508802785E+03   -0.41843E-03   -0.41813E-03  9568   0.105E-01 0.180E-04
CGA:  11    -0.313508951120E+03   -0.14834E-03   -0.14912E-03  9568   0.161E-02-0.350E-04
CGA:  12    -0.313509035993E+03   -0.84873E-04   -0.84933E-04  9568   0.215E-02-0.234E-05
CGA:  13    -0.313509097186E+03   -0.61192E-04   -0.61203E-04  9568   0.139E-02 0.157E-05
CGA:  14    -0.313509133599E+03   -0.36414E-04   -0.36425E-04  9568   0.126E-02 0.528E-06
CGA:  15    -0.313509168135E+03   -0.34535E-04   -0.34519E-04  9568   0.239E-03-0.126E-05
CGA:  16    -0.313509180939E+03   -0.12804E-04   -0.12785E-04  9568   0.456E-03 0.959E-06
CGA:  17    -0.313509190644E+03   -0.97053E-05   -0.97084E-05  9568   0.201E-03 0.277E-06
 167 F= -.31350919E+03 E0= -.31348923E+03  d E =0.486281E-03  mag=    25.8653
