       N       E                     dE             d eps       ncg     rms          ort
DAV:   1     0.702199938358E+04    0.70220E+04   -0.26893E+05  8112   0.170E+03
DAV:   2     0.768384916032E+03   -0.62536E+04   -0.59576E+04  8112   0.510E+02
DAV:   3    -0.364869405247E+03   -0.11333E+04   -0.11100E+04  8112   0.210E+02
DAV:   4    -0.430030968659E+03   -0.65162E+02   -0.63239E+02  8112   0.531E+01
DAV:   5    -0.435326776166E+03   -0.52958E+01   -0.51455E+01  8112   0.126E+01
SDA:   6    -0.216029962339E+03    0.21930E+03   -0.51455E+01  8112   0.213E+04 0.000E+00
CGA:   7    -0.268110904508E+03   -0.52081E+02   -0.10725E+03  8112   0.447E+04-0.194E+04
CGA:   8    -0.139720154580E+03    0.12839E+03   -0.29829E+03  8112   0.398E+04-0.155E+04
CGA:   9    -0.281349818585E+03   -0.14163E+03   -0.99813E+02  8112   0.309E+04-0.450E+04
CGA:  10    -0.125806832355E+03    0.15554E+03   -0.15117E+03  8112   0.543E+04-0.338E+04
CGA:  11    -0.233982119076E+02    0.10241E+03   -0.25978E+03  8112   0.127E+05-0.926E+04
CGA:  12     0.443330877664E+02    0.67731E+02   -0.86889E+03  8112   0.276E+04-0.207E+04
CGA:  13    -0.215181243884E+03   -0.25951E+03   -0.70999E+02  8112   0.135E+04 0.162E+04
CGA:  14    -0.358910653091E+03   -0.14373E+03   -0.23319E+02  8112   0.499E+03-0.147E+04
CGA:  15    -0.364478203149E+03   -0.55676E+01   -0.11819E+02  8112   0.113E+04-0.823E+03
CGA:  16    -0.342397540393E+03    0.22081E+02   -0.41693E+02  8112   0.129E+04-0.612E+03
CGA:  17    -0.307459670671E+03    0.34938E+02   -0.36445E+02  8112   0.426E+04-0.283E+04
CGA:  18    -0.245432268464E+03    0.62027E+02   -0.14148E+03  8112   0.499E+04-0.326E+04
CGA:  19    -0.108969035094E+03    0.13646E+03   -0.22866E+03  8112   0.109E+05-0.714E+04
CGA:  20    -0.801443736735E+02    0.28825E+02   -0.46517E+03  8112   0.198E+04-0.193E+04
CGA:  21    -0.318867155089E+03   -0.23872E+03   -0.44726E+02  8112   0.355E+04-0.790E+04
CGA:  22    -0.319939491331E+03   -0.10723E+01   -0.10121E+03  8112   0.436E+04-0.477E+04
CGA:  23    -0.204668495368E+03    0.11527E+03   -0.15389E+03  8112   0.109E+05-0.633E+04
CGA:  24    -0.108138040222E+03    0.96530E+02   -0.37593E+03  8112   0.582E+04-0.451E+04
CGA:  25    -0.186735526699E+03   -0.78597E+02   -0.11570E+03  8112   0.522E+04-0.549E+04
CGA:  26    -0.324213334306E+03   -0.13748E+03   -0.12615E+03  8112   0.211E+04-0.415E+04
CGA:  27    -0.335820289802E+03   -0.11607E+02   -0.45211E+02  8112   0.367E+04-0.368E+04
CGA:  28    -0.267283252870E+03    0.68537E+02   -0.95446E+02  8112   0.801E+04-0.465E+04
CGA:  29    -0.165013280358E+03    0.10227E+03   -0.27887E+03  8112   0.472E+04-0.265E+04
CGA:  30    -0.362151645689E+03   -0.19714E+03   -0.53914E+02  8112   0.123E+04 0.314E+04
CGA:  31    -0.360522288448E+03    0.16294E+01   -0.26741E+02  8112   0.329E+04-0.231E+04
CGA:  32    -0.298189284399E+03    0.62333E+02   -0.89744E+02  8112   0.733E+04-0.357E+04
CGA:  33    -0.210074460163E+03    0.88115E+02   -0.18322E+03  8112   0.698E+04-0.455E+04
CGA:  34    -0.170865431909E+03    0.39209E+02   -0.19223E+03  8112   0.419E+04-0.262E+04
CGA:  35    -0.364143048523E+03   -0.19328E+03   -0.37527E+02  8112   0.123E+04 0.279E+04
CGA:  36    -0.375608060048E+03   -0.11465E+02   -0.23942E+02  8112   0.105E+04-0.109E+04
CGA:  37    -0.379572543654E+03   -0.39645E+01   -0.14801E+02  8112   0.452E+03-0.586E+03
CGA:  38    -0.383841884592E+03   -0.42693E+01   -0.39970E+01  8112   0.493E+01-0.976E+01
CGA:  39    -0.383995135566E+03   -0.15325E+00   -0.14263E+00  8112   0.577E+01 0.180E+00
CGA:  40    -0.384252001104E+03   -0.25687E+00   -0.25594E+00  8112   0.146E+02 0.255E-02
CGA:  41    -0.384934278274E+03   -0.68228E+00   -0.53775E+00  8112   0.668E+01 0.359E+01
CGA:  42    -0.385123874485E+03   -0.18960E+00   -0.17068E+00  8112   0.439E+01 0.390E+00
CGA:  43    -0.385207783394E+03   -0.83909E-01   -0.84112E-01  8112   0.394E+01-0.175E-01
CGA:  44    -0.385288331392E+03   -0.80548E-01   -0.83576E-01  8112   0.374E+01-0.112E+00
CGA:  45    -0.385383855245E+03   -0.95524E-01   -0.90359E-01  8112   0.531E+01 0.153E+00
CGA:  46    -0.385510147897E+03   -0.12629E+00   -0.11391E+00  8112   0.495E+01 0.585E+00
CGA:  47    -0.385631734286E+03   -0.12159E+00   -0.11649E+00  8112   0.342E+01 0.276E+00
CGA:  48    -0.385682877023E+03   -0.51143E-01   -0.54616E-01  8112   0.185E+01-0.180E+00
CGA:  49    -0.385732298264E+03   -0.49421E-01   -0.51931E-01  8112   0.177E+01-0.561E-02
CGA:  50    -0.385786991977E+03   -0.54694E-01   -0.57401E-01  8112   0.156E+01 0.272E-01
CGA:  51    -0.385824875965E+03   -0.37884E-01   -0.38598E-01  8112   0.160E+01-0.924E-02
CGA:  52    -0.385875090795E+03   -0.50215E-01   -0.51514E-01  8112   0.783E+00 0.216E-01
CGA:  53    -0.385908709374E+03   -0.33619E-01   -0.33676E-01  8112   0.798E+00 0.416E-01
CGA:  54    -0.385931385333E+03   -0.22676E-01   -0.23498E-01  8112   0.562E+00-0.160E-02
CGA:  55    -0.385955696486E+03   -0.24311E-01   -0.24269E-01  8112   0.417E+00 0.223E-01
CGA:  56    -0.385981649406E+03   -0.25953E-01   -0.25034E-01  8112   0.474E+00 0.437E-01
CGA:  57    -0.385997939844E+03   -0.16290E-01   -0.16228E-01  8112   0.281E+00-0.107E-02
CGA:  58    -0.386013839507E+03   -0.15900E-01   -0.15718E-01  8112   0.217E+00 0.937E-02
CGA:  59    -0.386023517834E+03   -0.96783E-02   -0.96786E-02  8112   0.265E+00-0.344E-02
CGA:  60    -0.386035367609E+03   -0.11850E-01   -0.11823E-01  8112   0.127E+00 0.621E-02
CGA:  61    -0.386041665946E+03   -0.62983E-02   -0.63081E-02  8112   0.130E+00-0.137E-02
CGA:  62    -0.386046652681E+03   -0.49867E-02   -0.50015E-02  8112   0.918E-01 0.827E-03
CGA:  63    -0.386051037166E+03   -0.43845E-02   -0.43875E-02  8112   0.666E-01-0.587E-03
CGA:  64    -0.386053372481E+03   -0.23353E-02   -0.23393E-02  8112   0.563E-01-0.180E-04
CGA:  65    -0.386056959793E+03   -0.35873E-02   -0.35906E-02  8112   0.358E-01-0.173E-03
CGA:  66    -0.386058219448E+03   -0.12597E-02   -0.12608E-02  8112   0.367E-01-0.150E-04
CGA:  67    -0.386060310167E+03   -0.20907E-02   -0.20943E-02  8112   0.243E-01-0.203E-03
SDA:  68    -0.386061313596E+03   -0.10034E-02   -0.10043E-02  8112   0.242E-01 0.151E-03
CGA:  69    -0.386061741796E+03   -0.42820E-03   -0.42520E-03  8112   0.791E-02 0.143E-03
CGA:  70    -0.386062285560E+03   -0.54376E-03   -0.54069E-03  8112   0.975E-02 0.116E-03
CGA:  71    -0.386062861790E+03   -0.57623E-03   -0.57404E-03  8112   0.198E-01 0.151E-03
CGA:  72    -0.386064486225E+03   -0.16244E-02   -0.16126E-02  8112   0.701E-02 0.340E-03
CGA:  73    -0.386064805051E+03   -0.31883E-03   -0.31901E-03  8112   0.714E-02 0.945E-04
CGA:  74    -0.386065027388E+03   -0.22234E-03   -0.22336E-03  8112   0.573E-02 0.680E-04
CGA:  75    -0.386065671565E+03   -0.64418E-03   -0.63201E-03  8112   0.444E-02 0.190E-03
CGA:  76    -0.386065947592E+03   -0.27603E-03   -0.27490E-03  8112   0.222E-02 0.944E-04
CGA:  77    -0.386066065173E+03   -0.11758E-03   -0.11754E-03  8112   0.455E-02 0.197E-04
CGA:  78    -0.386066460483E+03   -0.39531E-03   -0.39293E-03  8112   0.619E-02 0.653E-04
CGA:  79    -0.386066656230E+03   -0.19575E-03   -0.19618E-03  8112   0.467E-02 0.197E-04
CGA:  80    -0.386066894449E+03   -0.23822E-03   -0.23822E-03  8112   0.275E-02 0.304E-05
CGA:  81    -0.386067578300E+03   -0.68385E-03   -0.67990E-03  8112   0.100E-01 0.312E-04
CGA:  82    -0.386068300576E+03   -0.72228E-03   -0.72479E-03  8112   0.184E-01-0.164E-03
CGA:  83    -0.386068773967E+03   -0.47339E-03   -0.48337E-03  8112   0.766E-02-0.269E-03
CGA:  84    -0.386069904323E+03   -0.11304E-02   -0.11559E-02  8112   0.254E-01-0.328E-03
CGA:  85    -0.386071080625E+03   -0.11763E-02   -0.11436E-02  8112   0.384E-01-0.233E-03
CGA:  86    -0.386073663967E+03   -0.25833E-02   -0.26295E-02  8112   0.377E-01-0.451E-02
CGA:  87    -0.386074497291E+03   -0.83332E-03   -0.79235E-03  8112   0.304E-01 0.155E-02
CGA:  88    -0.386075949610E+03   -0.14523E-02   -0.14398E-02  8112   0.425E-01 0.176E-03
CGA:  89    -0.386076978153E+03   -0.10285E-02   -0.96302E-03  8112   0.318E-01 0.273E-02
CGA:  90    -0.386078157296E+03   -0.11791E-02   -0.11656E-02  8112   0.458E-01 0.524E-03
CGA:  91    -0.386079100574E+03   -0.94328E-03   -0.86766E-03  8112   0.266E-01 0.377E-02
CGA:  92    -0.386079630581E+03   -0.53001E-03   -0.51090E-03  8112   0.252E-01 0.120E-02
CGA:  93    -0.386080337847E+03   -0.70727E-03   -0.68731E-03  8112   0.428E-01 0.745E-03
CGA:  94    -0.386081098443E+03   -0.76060E-03   -0.74064E-03  8112   0.366E-01 0.157E-02
CGA:  95    -0.386081629999E+03   -0.53156E-03   -0.54315E-03  8112   0.285E-01-0.597E-04
CGA:  96    -0.386082136612E+03   -0.50661E-03   -0.51678E-03  8112   0.354E-01 0.719E-04
CGA:  97    -0.386082739482E+03   -0.60287E-03   -0.60426E-03  8112   0.334E-01 0.488E-03
CGA:  98    -0.386083197528E+03   -0.45805E-03   -0.45867E-03  8112   0.255E-01 0.442E-03
SDA:  99    -0.386083624436E+03   -0.42691E-03   -0.42853E-03  8112   0.316E-01 0.270E-03
CGA: 100    -0.386085421988E+03   -0.17976E-02   -0.17996E-02  8112   0.683E-01-0.112E-03
CGA: 101    -0.386092515852E+03   -0.70939E-02   -0.71747E-02  8112   0.115E+00-0.146E-02
CGA: 102    -0.386099246056E+03   -0.67302E-02   -0.66420E-02  8112   0.142E+00 0.491E-02
CGA: 103    -0.386103249536E+03   -0.40035E-02   -0.39152E-02  8112   0.445E-01 0.123E-02
CGA: 104    -0.386107359200E+03   -0.41097E-02   -0.40733E-02  8112   0.559E-01 0.793E-03
CGA: 105    -0.386109570185E+03   -0.22110E-02   -0.21979E-02  8112   0.568E-01-0.341E-03
CGA: 106    -0.386112000870E+03   -0.24307E-02   -0.24348E-02  8112   0.217E-01 0.330E-03
CGA: 107    -0.386112996374E+03   -0.99550E-03   -0.99512E-03  8112   0.120E-01-0.105E-03
CGA: 108    -0.386113626230E+03   -0.62986E-03   -0.62989E-03  8112   0.198E-01-0.195E-04
CGA: 109    -0.386114739481E+03   -0.11133E-02   -0.11156E-02  8112   0.120E-01-0.202E-03
CGA: 110    -0.386115128010E+03   -0.38853E-03   -0.38844E-03  8112   0.809E-02-0.258E-04
CGA: 111    -0.386115554720E+03   -0.42671E-03   -0.42708E-03  8112   0.778E-02-0.500E-04
CGA: 112    -0.386116465297E+03   -0.91058E-03   -0.90745E-03  8112   0.143E-01 0.499E-04
CGA: 113    -0.386116878107E+03   -0.41281E-03   -0.40844E-03  8112   0.819E-02 0.407E-04
CGA: 114    -0.386117290644E+03   -0.41254E-03   -0.41254E-03  8112   0.479E-02-0.110E-04
CGA: 115    -0.386117616735E+03   -0.32609E-03   -0.32742E-03  8112   0.993E-02-0.614E-04
CGA: 116    -0.386118112232E+03   -0.49550E-03   -0.49550E-03  8112   0.568E-02-0.177E-04
CGA: 117    -0.386118402349E+03   -0.29012E-03   -0.29014E-03  8112   0.518E-02-0.406E-04
CGA: 118    -0.386118552402E+03   -0.15005E-03   -0.15007E-03  8112   0.278E-02-0.926E-05
CGA: 119    -0.386118740228E+03   -0.18783E-03   -0.18797E-03  8112   0.292E-02-0.641E-05
CGA: 120    -0.386119014087E+03   -0.27386E-03   -0.27380E-03  8112   0.493E-02 0.948E-06
CGA: 121    -0.386119177255E+03   -0.16317E-03   -0.16289E-03  8112   0.368E-02 0.308E-05
CGA: 122    -0.386119364326E+03   -0.18707E-03   -0.18707E-03  8112   0.179E-02 0.475E-06
CGA: 123    -0.386119438437E+03   -0.74111E-04   -0.74035E-04  8112   0.247E-02-0.674E-05
CGA: 124    -0.386119744454E+03   -0.30602E-03   -0.30864E-03  8112   0.317E-02-0.353E-04
CGA: 125    -0.386119876716E+03   -0.13226E-03   -0.13209E-03  8112   0.268E-02-0.156E-04
CGA: 126    -0.386119957038E+03   -0.80322E-04   -0.80235E-04  8112   0.132E-02-0.969E-05
CGA: 127    -0.386120056264E+03   -0.99226E-04   -0.99382E-04  8112   0.155E-02-0.714E-05
CGA: 128    -0.386120168854E+03   -0.11259E-03   -0.11266E-03  8112   0.284E-02-0.433E-05
CGA: 129    -0.386120270360E+03   -0.10151E-03   -0.10126E-03  8112   0.117E-02-0.466E-05
SDA: 130    -0.386120323827E+03   -0.53468E-04   -0.53458E-04  8112   0.105E-02-0.220E-05
CGA: 131    -0.386120344262E+03   -0.20434E-04   -0.20385E-04  8112   0.438E-03 0.161E-06
CGA: 132    -0.386120394245E+03   -0.49983E-04   -0.50096E-04  8112   0.109E-02-0.182E-05
CGA: 133    -0.386120440500E+03   -0.46256E-04   -0.46226E-04  8112   0.102E-02-0.206E-05
CGA: 134    -0.386120490498E+03   -0.49998E-04   -0.49990E-04  8112   0.322E-03-0.153E-05
CGA: 135    -0.386120519728E+03   -0.29230E-04   -0.29187E-04  8112   0.418E-03 0.121E-05
CGA: 136    -0.386120598733E+03   -0.79004E-04   -0.77739E-04  8112   0.671E-03 0.988E-05
CGA: 137    -0.386120618803E+03   -0.20070E-04   -0.20103E-04  8112   0.412E-03 0.108E-05
CGA: 138    -0.386120634799E+03   -0.15996E-04   -0.16010E-04  8112   0.322E-03 0.364E-06
CGA: 139    -0.386120661527E+03   -0.26728E-04   -0.26729E-04  8112   0.417E-03-0.186E-06
CGA: 140    -0.386120680082E+03   -0.18554E-04   -0.18550E-04  8112   0.485E-03-0.598E-06
CGA: 141    -0.386120713634E+03   -0.33552E-04   -0.33565E-04  8112   0.182E-03-0.108E-05
CGA: 142    -0.386120727201E+03   -0.13567E-04   -0.13537E-04  8112   0.163E-03 0.223E-05
CGA: 143    -0.386120732935E+03   -0.57334E-05   -0.57813E-05  8112   0.220E-03 0.193E-05
CGA: 144    -0.386120758744E+03   -0.25810E-04   -0.25164E-04  8112   0.242E-03 0.122E-04
CGA: 145    -0.386120773714E+03   -0.14969E-04   -0.14990E-04  8112   0.113E-03 0.513E-05
CGA: 146    -0.386120783247E+03   -0.95330E-05   -0.95372E-05  8112   0.116E-03-0.221E-06
CGA: 147    -0.386120799054E+03   -0.15807E-04   -0.16067E-04  8112   0.383E-03-0.346E-05
CGA: 148    -0.386120808378E+03   -0.93240E-05   -0.92793E-05  8112   0.774E-04-0.153E-05
   1 F= -.38612081E+03 E0= -.38609928E+03  d E =-.386121E+03  mag=    16.0000
       N       E                     dE             d eps       ncg     rms          ort
SDA:   1    -0.386111706960E+03    0.90921E-02    0.00000E+00  8112   0.516E+00 0.000E+00
CGA:   2    -0.386119174486E+03   -0.74675E-02   -0.72847E-02  8112   0.187E-01 0.106E-01
CGA:   3    -0.386119906203E+03   -0.73172E-03   -0.73307E-03  8112   0.246E-01-0.782E-05
CGA:   4    -0.386121438217E+03   -0.15320E-02   -0.15321E-02  8112   0.209E-01-0.146E-04
CGA:   5    -0.386122374593E+03   -0.93638E-03   -0.93650E-03  8112   0.659E-02 0.122E-05
CGA:   6    -0.386122750406E+03   -0.37581E-03   -0.37582E-03  8112   0.873E-02 0.181E-05
CGA:   7    -0.386123019040E+03   -0.26863E-03   -0.26831E-03  8112   0.456E-02 0.682E-05
CGA:   8    -0.386123254033E+03   -0.23499E-03   -0.23506E-03  8112   0.272E-02 0.687E-05
CGA:   9    -0.386123316957E+03   -0.62924E-04   -0.62934E-04  8112   0.732E-03 0.219E-05
CGA:  10    -0.386123360464E+03   -0.43507E-04   -0.43505E-04  8112   0.395E-03 0.805E-06
CGA:  11    -0.386123396040E+03   -0.35576E-04   -0.35548E-04  8112   0.401E-03 0.837E-06
CGA:  12    -0.386123409759E+03   -0.13719E-04   -0.13725E-04  8112   0.324E-03 0.368E-06
CGA:  13    -0.386123422517E+03   -0.12758E-04   -0.12778E-04  8112   0.116E-03 0.104E-05
CGA:  14    -0.386123426781E+03   -0.42642E-05   -0.42773E-05  8112   0.121E-03 0.681E-06
   2 F= -.38612343E+03 E0= -.38610183E+03  d E =-.261840E-02  mag=    16.0000
       N       E                     dE             d eps       ncg     rms          ort
SDA:   1    -0.385790195194E+03    0.33323E+00    0.00000E+00  8112   0.121E+01 0.000E+00
CGA:   2    -0.385885051456E+03   -0.94856E-01   -0.93957E-01  8112   0.358E+01 0.315E-01
CGA:   3    -0.386012111078E+03   -0.12706E+00   -0.12473E+00  8112   0.797E+00 0.137E-01
CGA:   4    -0.386064587590E+03   -0.52477E-01   -0.52285E-01  8112   0.828E+00 0.122E-01
CGA:   5    -0.386093576435E+03   -0.28989E-01   -0.28644E-01  8112   0.595E+00 0.202E-02
CGA:   6    -0.386120287263E+03   -0.26711E-01   -0.26715E-01  8112   0.314E+00 0.940E-04
CGA:   7    -0.386131102359E+03   -0.10815E-01   -0.10809E-01  8112   0.158E+00-0.277E-05
CGA:   8    -0.386135338429E+03   -0.42361E-02   -0.42696E-02  8112   0.494E-01-0.585E-03
CGA:   9    -0.386138782698E+03   -0.34443E-02   -0.34479E-02  8112   0.405E-01-0.147E-03
CGA:  10    -0.386140392260E+03   -0.16096E-02   -0.16122E-02  8112   0.463E-01 0.376E-04
CGA:  11    -0.386142080301E+03   -0.16880E-02   -0.16862E-02  8112   0.762E-02-0.185E-04
CGA:  12    -0.386142458843E+03   -0.37854E-03   -0.37855E-03  8112   0.752E-02 0.188E-05
CGA:  13    -0.386142731813E+03   -0.27297E-03   -0.27294E-03  8112   0.582E-02 0.178E-05
CGA:  14    -0.386143102300E+03   -0.37049E-03   -0.37036E-03  8112   0.499E-02 0.864E-05
CGA:  15    -0.386143246913E+03   -0.14461E-03   -0.14438E-03  8112   0.235E-02 0.611E-05
CGA:  16    -0.386143337761E+03   -0.90848E-04   -0.90879E-04  8112   0.936E-03 0.320E-05
CGA:  17    -0.386143422248E+03   -0.84487E-04   -0.84372E-04  8112   0.219E-02 0.284E-05
CGA:  18    -0.386143492109E+03   -0.69861E-04   -0.69992E-04  8112   0.107E-02 0.324E-05
CGA:  19    -0.386143536168E+03   -0.44059E-04   -0.44069E-04  8112   0.428E-03 0.161E-05
CGA:  20    -0.386143565491E+03   -0.29323E-04   -0.29328E-04  8112   0.818E-03-0.291E-06
CGA:  21    -0.386143595644E+03   -0.30154E-04   -0.30122E-04  8112   0.446E-03-0.178E-05
CGA:  22    -0.386143629585E+03   -0.33940E-04   -0.34004E-04  8112   0.742E-03-0.244E-05
CGA:  23    -0.386143649814E+03   -0.20229E-04   -0.20170E-04  8112   0.234E-03-0.145E-05
CGA:  24    -0.386143666356E+03   -0.16542E-04   -0.16556E-04  8112   0.208E-03-0.697E-06
CGA:  25    -0.386143675810E+03   -0.94539E-05   -0.94511E-05  8112   0.299E-03-0.445E-06
CGA:  26    -0.386143689984E+03   -0.14174E-04   -0.14173E-04  8112   0.197E-03-0.438E-06
CGA:  27    -0.386143699559E+03   -0.95750E-05   -0.95725E-05  8112   0.944E-04-0.138E-05
   3 F= -.38614370E+03 E0= -.38612161E+03  d E =-.202728E-01  mag=    16.0000
       N       E                     dE             d eps       ncg     rms          ort
SDA:   1    -0.375868140401E+03    0.10276E+02    0.00000E+00  8112   0.512E+02 0.000E+00
CGA:   2    -0.378258940376E+03   -0.23908E+01   -0.24212E+01  8112   0.646E+02 0.459E+01
CGA:   3    -0.381288275722E+03   -0.30293E+01   -0.29444E+01  8112   0.373E+02-0.313E+01
CGA:   4    -0.383473210808E+03   -0.21849E+01   -0.21270E+01  8112   0.172E+02 0.380E+01
CGA:   5    -0.384656782720E+03   -0.11836E+01   -0.13572E+01  8112   0.293E+02-0.626E+01
CGA:   6    -0.385031285151E+03   -0.37450E+00   -0.39242E+00  8112   0.155E+02-0.533E+00
CGA:   7    -0.385443775926E+03   -0.41249E+00   -0.45134E+00  8112   0.150E+02-0.572E+00
CGA:   8    -0.385721617433E+03   -0.27784E+00   -0.25859E+00  8112   0.606E+01 0.603E+00
CGA:   9    -0.385885555353E+03   -0.16394E+00   -0.15225E+00  8112   0.535E+01 0.221E+00
CGA:  10    -0.385976954894E+03   -0.91400E-01   -0.97270E-01  8112   0.166E+01-0.246E+00
CGA:  11    -0.386008349833E+03   -0.31395E-01   -0.32708E-01  8112   0.164E+01-0.356E-01
CGA:  12    -0.386078866505E+03   -0.70517E-01   -0.70503E-01  8112   0.217E+01 0.115E-01
CGA:  13    -0.386116307052E+03   -0.37441E-01   -0.36647E-01  8112   0.936E+00 0.302E-01
CGA:  14    -0.386142419459E+03   -0.26112E-01   -0.26281E-01  8112   0.703E+00 0.772E-04
CGA:  15    -0.386154286243E+03   -0.11867E-01   -0.12062E-01  8112   0.280E+00-0.770E-02
CGA:  16    -0.386165001335E+03   -0.10715E-01   -0.10715E-01  8112   0.461E+00-0.145E-03
CGA:  17    -0.386174010935E+03   -0.90096E-02   -0.89577E-02  8112   0.153E+00 0.141E-02
CGA:  18    -0.386179174249E+03   -0.51633E-02   -0.51843E-02  8112   0.266E+00 0.139E-02
CGA:  19    -0.386187343845E+03   -0.81696E-02   -0.81892E-02  8112   0.143E+00 0.579E-03
CGA:  20    -0.386191170553E+03   -0.38267E-02   -0.38114E-02  8112   0.135E+00-0.575E-04
CGA:  21    -0.386194092344E+03   -0.29218E-02   -0.29169E-02  8112   0.387E-01 0.963E-04
CGA:  22    -0.386195172911E+03   -0.10806E-02   -0.10849E-02  8112   0.535E-01 0.977E-04
CGA:  23    -0.386197402826E+03   -0.22299E-02   -0.22283E-02  8112   0.519E-01 0.205E-03
CGA:  24    -0.386198827663E+03   -0.14248E-02   -0.14229E-02  8112   0.528E-01-0.219E-04
CGA:  25    -0.386200427397E+03   -0.15997E-02   -0.15979E-02  8112   0.314E-01-0.841E-04
CGA:  26    -0.386201079949E+03   -0.65255E-03   -0.65571E-03  8112   0.188E-01-0.371E-04
CGA:  27    -0.386201810363E+03   -0.73041E-03   -0.73034E-03  8112   0.249E-01 0.946E-05
CGA:  28    -0.386202428005E+03   -0.61764E-03   -0.61649E-03  8112   0.170E-01-0.178E-04
CGA:  29    -0.386203196438E+03   -0.76843E-03   -0.76926E-03  8112   0.300E-01-0.641E-04
CGA:  30    -0.386203857505E+03   -0.66107E-03   -0.66283E-03  8112   0.122E-01-0.326E-04
CGA:  31    -0.386204346822E+03   -0.48932E-03   -0.48938E-03  8112   0.212E-01-0.139E-04
SDA:  32    -0.386204855287E+03   -0.50846E-03   -0.50857E-03  8112   0.844E-02-0.172E-04
CGA:  33    -0.386205133960E+03   -0.27867E-03   -0.27867E-03  8112   0.356E-02-0.161E-05
CGA:  34    -0.386205347262E+03   -0.21330E-03   -0.21382E-03  8112   0.100E-01-0.192E-04
CGA:  35    -0.386205854894E+03   -0.50763E-03   -0.50759E-03  8112   0.460E-02-0.879E-06
CGA:  36    -0.386206204437E+03   -0.34954E-03   -0.34986E-03  8112   0.406E-02-0.820E-05
CGA:  37    -0.386206309870E+03   -0.10543E-03   -0.10534E-03  8112   0.234E-02-0.578E-05
CGA:  38    -0.386206566821E+03   -0.25695E-03   -0.25763E-03  8112   0.368E-02-0.830E-05
CGA:  39    -0.386206715230E+03   -0.14841E-03   -0.14839E-03  8112   0.545E-02-0.134E-04
CGA:  40    -0.386206933759E+03   -0.21853E-03   -0.21852E-03  8112   0.177E-02-0.124E-04
CGA:  41    -0.386207134851E+03   -0.20109E-03   -0.20303E-03  8112   0.280E-02-0.279E-04
CGA:  42    -0.386207298237E+03   -0.16339E-03   -0.16370E-03  8112   0.585E-02-0.208E-04
CGA:  43    -0.386207492962E+03   -0.19472E-03   -0.19478E-03  8112   0.226E-02-0.182E-04
CGA:  44    -0.386207608500E+03   -0.11554E-03   -0.11564E-03  8112   0.224E-02-0.158E-04
CGA:  45    -0.386207674502E+03   -0.66002E-04   -0.65903E-04  8112   0.130E-02-0.860E-05
CGA:  46    -0.386207860290E+03   -0.18579E-03   -0.18934E-03  8112   0.189E-02-0.373E-04
CGA:  47    -0.386207953897E+03   -0.93608E-04   -0.93632E-04  8112   0.242E-02-0.149E-04
CGA:  48    -0.386208017302E+03   -0.63405E-04   -0.63354E-04  8112   0.989E-03-0.902E-05
CGA:  49    -0.386208065957E+03   -0.48655E-04   -0.48656E-04  8112   0.700E-03-0.257E-05
CGA:  50    -0.386208188145E+03   -0.12219E-03   -0.12362E-03  8112   0.163E-02-0.115E-04
CGA:  51    -0.386208219274E+03   -0.31128E-04   -0.31079E-04  8112   0.288E-03-0.293E-05
CGA:  52    -0.386208251921E+03   -0.32648E-04   -0.32862E-04  8112   0.864E-03-0.354E-05
CGA:  53    -0.386208277705E+03   -0.25783E-04   -0.25722E-04  8112   0.715E-03-0.288E-05
CGA:  54    -0.386208339058E+03   -0.61353E-04   -0.61643E-04  8112   0.431E-03-0.898E-05
CGA:  55    -0.386208367505E+03   -0.28447E-04   -0.28475E-04  8112   0.587E-03-0.265E-05
CGA:  56    -0.386208384390E+03   -0.16885E-04   -0.16861E-04  8112   0.341E-03-0.206E-05
CGA:  57    -0.386208421702E+03   -0.37312E-04   -0.37572E-04  8112   0.899E-03-0.472E-05
CGA:  58    -0.386208448368E+03   -0.26665E-04   -0.26608E-04  8112   0.613E-03-0.474E-05
CGA:  59    -0.386208475936E+03   -0.27568E-04   -0.27499E-04  8112   0.202E-03-0.497E-05
CGA:  60    -0.386208492135E+03   -0.16199E-04   -0.16273E-04  8112   0.270E-03-0.296E-05
CGA:  61    -0.386208506772E+03   -0.14638E-04   -0.14629E-04  8112   0.471E-03-0.310E-05
CGA:  62    -0.386208524359E+03   -0.17587E-04   -0.17491E-04  8112   0.236E-03-0.465E-05
SDA:  63    -0.386208533465E+03   -0.91053E-05   -0.90599E-05  8112   0.145E-03-0.273E-05
   4 F= -.38620853E+03 E0= -.38618504E+03  d E =-.648339E-01  mag=    16.0000
       N       E                     dE             d eps       ncg     rms          ort
SDA:   1    -0.326387681293E+03    0.59821E+02    0.00000E+00  8112   0.317E+03 0.000E+00
CGA:   2    -0.341215080800E+03   -0.14827E+02   -0.15361E+02  8112   0.262E+03 0.285E+02
CGA:   3    -0.355617779390E+03   -0.14403E+02   -0.11547E+02  8112   0.267E+03-0.883E+01
CGA:   4    -0.362229035169E+03   -0.66113E+01   -0.79251E+01  8112   0.406E+03-0.321E+02
CGA:   5    -0.368700734272E+03   -0.64717E+01   -0.88356E+01  8112   0.361E+03-0.618E+02
CGA:   6    -0.376290767607E+03   -0.75900E+01   -0.42322E+01  8112   0.116E+03 0.157E+03
CGA:   7    -0.377625746464E+03   -0.13350E+01   -0.15530E+01  8112   0.106E+03-0.364E+02
CGA:   8    -0.378179310976E+03   -0.55356E+00   -0.81814E+00  8112   0.224E+03-0.242E+02
CGA:   9    -0.379136776377E+03   -0.95747E+00   -0.22918E+01  8112   0.166E+03-0.579E+02
CGA:  10    -0.379920217818E+03   -0.78344E+00   -0.13958E+01  8112   0.994E+02-0.508E+02
CGA:  11    -0.381132514244E+03   -0.12123E+01   -0.93695E+00  8112   0.102E+03 0.216E+02
CGA:  12    -0.382282046095E+03   -0.11495E+01   -0.11238E+01  8112   0.668E+02-0.365E+02
CGA:  13    -0.382493823568E+03   -0.21178E+00   -0.27817E+00  8112   0.993E+02-0.104E+02
CGA:  14    -0.382896693649E+03   -0.40287E+00   -0.62616E+00  8112   0.983E+02-0.358E+02
CGA:  15    -0.383014139663E+03   -0.11745E+00   -0.40769E+00  8112   0.519E+02-0.322E+02
CGA:  16    -0.383141807861E+03   -0.12767E+00   -0.24449E+00  8112   0.358E+02-0.159E+02
CGA:  17    -0.383363210921E+03   -0.22140E+00   -0.27414E+00  8112   0.375E+02-0.351E+01
CGA:  18    -0.383624294414E+03   -0.26108E+00   -0.17668E+00  8112   0.285E+02 0.151E+02
CGA:  19    -0.383915533978E+03   -0.29124E+00   -0.19484E+00  8112   0.239E+02 0.170E+02
CGA:  20    -0.384384171549E+03   -0.46864E+00   -0.47699E+00  8112   0.150E+02 0.122E-01
CGA:  21    -0.384577209749E+03   -0.19304E+00   -0.17801E+00  8112   0.905E+01 0.781E+00
CGA:  22    -0.384930903413E+03   -0.35369E+00   -0.35231E+00  8112   0.118E+02 0.137E+00
CGA:  23    -0.385103439686E+03   -0.17254E+00   -0.18758E+00  8112   0.120E+02-0.384E+00
CGA:  24    -0.385430214881E+03   -0.32678E+00   -0.32760E+00  8112   0.119E+02-0.729E+00
CGA:  25    -0.385705460325E+03   -0.27525E+00   -0.27624E+00  8112   0.947E+01 0.121E+00
CGA:  26    -0.385854076671E+03   -0.14862E+00   -0.16092E+00  8112   0.557E+01-0.149E+00
CGA:  27    -0.385948104424E+03   -0.94028E-01   -0.89417E-01  8112   0.803E+00 0.652E-01
CGA:  28    -0.385977799197E+03   -0.29695E-01   -0.29669E-01  8112   0.122E+01 0.240E-02
CGA:  29    -0.386012582464E+03   -0.34783E-01   -0.34577E-01  8112   0.169E+01 0.870E-01
CGA:  30    -0.386100505543E+03   -0.87923E-01   -0.87716E-01  8112   0.553E+00-0.245E-02
CGA:  31    -0.386123841075E+03   -0.23336E-01   -0.22735E-01  8112   0.514E+00 0.366E-01
CGA:  32    -0.386136672540E+03   -0.12831E-01   -0.12849E-01  8112   0.174E+00 0.945E-03
CGA:  33    -0.386145646390E+03   -0.89739E-02   -0.87601E-02  8112   0.186E+00 0.888E-02
CGA:  34    -0.386154225814E+03   -0.85794E-02   -0.85290E-02  8112   0.226E+00 0.292E-02
CGA:  35    -0.386165713665E+03   -0.11488E-01   -0.11404E-01  8112   0.134E+00 0.369E-02
CGA:  36    -0.386170732942E+03   -0.50193E-02   -0.50006E-02  8112   0.974E-01 0.223E-02
CGA:  37    -0.386174292533E+03   -0.35596E-02   -0.35497E-02  8112   0.616E-01 0.141E-02
CGA:  38    -0.386178828280E+03   -0.45357E-02   -0.45064E-02  8112   0.101E+00 0.746E-03
CGA:  39    -0.386183021437E+03   -0.41932E-02   -0.41741E-02  8112   0.711E-01 0.183E-02
CGA:  40    -0.386185951531E+03   -0.29301E-02   -0.29278E-02  8112   0.309E-01 0.253E-03
CGA:  41    -0.386186994046E+03   -0.10425E-02   -0.10427E-02  8112   0.228E-01 0.118E-03
CGA:  42    -0.386188892284E+03   -0.18982E-02   -0.18978E-02  8112   0.399E-01 0.583E-05
CGA:  43    -0.386190814618E+03   -0.19223E-02   -0.19156E-02  8112   0.401E-01 0.455E-03
CGA:  44    -0.386192423818E+03   -0.16092E-02   -0.16092E-02  8112   0.138E-01 0.906E-05
CGA:  45    -0.386192952623E+03   -0.52880E-03   -0.52873E-03  8112   0.128E-01 0.375E-04
CGA:  46    -0.386193926594E+03   -0.97397E-03   -0.97536E-03  8112   0.208E-01-0.358E-04
CGA:  47    -0.386194933064E+03   -0.10065E-02   -0.10056E-02  8112   0.168E-01 0.470E-04
CGA:  48    -0.386195531048E+03   -0.59798E-03   -0.59736E-03  8112   0.695E-02-0.754E-04
CGA:  49    -0.386195927286E+03   -0.39624E-03   -0.39605E-03  8112   0.108E-01 0.640E-05
SDA:  50    -0.386196499184E+03   -0.57190E-03   -0.57287E-03  8112   0.879E-02-0.599E-04
CGA:  51    -0.386196684418E+03   -0.18523E-03   -0.18552E-03  8112   0.390E-02-0.260E-05
CGA:  52    -0.386196887810E+03   -0.20339E-03   -0.20322E-03  8112   0.245E-02 0.131E-04
CGA:  53    -0.386197170382E+03   -0.28257E-03   -0.28159E-03  8112   0.531E-02 0.123E-04
CGA:  54    -0.386197389873E+03   -0.21949E-03   -0.21948E-03  8112   0.342E-02 0.595E-05
CGA:  55    -0.386197600793E+03   -0.21092E-03   -0.21111E-03  8112   0.197E-02-0.862E-05
CGA:  56    -0.386197756135E+03   -0.15534E-03   -0.15627E-03  8112   0.535E-02-0.267E-04
CGA:  57    -0.386197965706E+03   -0.20957E-03   -0.20949E-03  8112   0.405E-02-0.262E-04
CGA:  58    -0.386198314846E+03   -0.34914E-03   -0.35240E-03  8112   0.206E-02-0.798E-04
CGA:  59    -0.386198479350E+03   -0.16450E-03   -0.16567E-03  8112   0.172E-02-0.334E-04
CGA:  60    -0.386198720126E+03   -0.24078E-03   -0.24202E-03  8112   0.256E-02-0.148E-04
CGA:  61    -0.386198886628E+03   -0.16650E-03   -0.16642E-03  8112   0.298E-02 0.546E-05
CGA:  62    -0.386198957838E+03   -0.71210E-04   -0.71329E-04  8112   0.988E-03 0.202E-06
CGA:  63    -0.386199054588E+03   -0.96750E-04   -0.96514E-04  8112   0.249E-02 0.548E-05
CGA:  64    -0.386199176734E+03   -0.12215E-03   -0.12229E-03  8112   0.199E-02 0.132E-04
CGA:  65    -0.386199280918E+03   -0.10418E-03   -0.10420E-03  8112   0.472E-03 0.652E-05
CGA:  66    -0.386199345446E+03   -0.64528E-04   -0.64633E-04  8112   0.147E-02-0.132E-05
CGA:  67    -0.386199396940E+03   -0.51494E-04   -0.51419E-04  8112   0.132E-02-0.293E-05
CGA:  68    -0.386199464810E+03   -0.67871E-04   -0.67860E-04  8112   0.314E-03-0.396E-05
CGA:  69    -0.386199489300E+03   -0.24490E-04   -0.24502E-04  8112   0.496E-03-0.472E-06
CGA:  70    -0.386199510152E+03   -0.20852E-04   -0.20898E-04  8112   0.366E-03 0.226E-05
CGA:  71    -0.386199554831E+03   -0.44678E-04   -0.44170E-04  8112   0.310E-03 0.818E-05
CGA:  72    -0.386199563227E+03   -0.83958E-05   -0.84330E-05  8112   0.186E-03 0.693E-06
   5 F= -.38619956E+03 E0= -.38617875E+03  d E =0.897024E-02  mag=    16.0000
       N       E                     dE             d eps       ncg     rms          ort
SDA:   1    -0.347326380900E+03    0.38873E+02    0.00000E+00  8112   0.180E+03 0.000E+00
CGA:   2    -0.356491929397E+03   -0.91655E+01   -0.94153E+01  8112   0.176E+03 0.158E+02
CGA:   3    -0.367104749350E+03   -0.10613E+02   -0.93805E+01  8112   0.229E+03-0.542E+02
CGA:   4    -0.375576191858E+03   -0.84714E+01   -0.84378E+01  8112   0.186E+03-0.286E+01
CGA:   5    -0.377797836505E+03   -0.22216E+01   -0.38286E+01  8112   0.104E+03-0.548E+02
CGA:   6    -0.379824486636E+03   -0.20267E+01   -0.20853E+01  8112   0.604E+02-0.195E+01
CGA:   7    -0.381608275050E+03   -0.17838E+01   -0.16402E+01  8112   0.376E+02 0.301E+01
CGA:   8    -0.383953899457E+03   -0.23456E+01   -0.23546E+01  8112   0.432E+02-0.834E+00
CGA:   9    -0.384684105107E+03   -0.73021E+00   -0.72880E+00  8112   0.117E+02 0.182E-01
CGA:  10    -0.385038598179E+03   -0.35449E+00   -0.33402E+00  8112   0.437E+01 0.290E+00
CGA:  11    -0.385252846073E+03   -0.21425E+00   -0.21396E+00  8112   0.116E+02-0.428E-01
CGA:  12    -0.385655004495E+03   -0.40216E+00   -0.40793E+00  8112   0.593E+01 0.438E-01
CGA:  13    -0.385774509508E+03   -0.11951E+00   -0.11770E+00  8112   0.359E+01 0.115E-01
CGA:  14    -0.385867144272E+03   -0.92635E-01   -0.89995E-01  8112   0.124E+01 0.364E-01
CGA:  15    -0.385902677738E+03   -0.35533E-01   -0.35832E-01  8112   0.218E+01-0.227E-02
CGA:  16    -0.386025129002E+03   -0.12245E+00   -0.12150E+00  8112   0.233E+01 0.660E-01
CGA:  17    -0.386072706756E+03   -0.47578E-01   -0.52395E-01  8112   0.995E+00-0.109E+00
CGA:  18    -0.386102374199E+03   -0.29667E-01   -0.29611E-01  8112   0.358E+00-0.495E-03
CGA:  19    -0.386114297391E+03   -0.11923E-01   -0.11980E-01  8112   0.444E+00 0.971E-03
CGA:  20    -0.386142944711E+03   -0.28647E-01   -0.28455E-01  8112   0.352E+00 0.742E-02
CGA:  21    -0.386161671132E+03   -0.18726E-01   -0.18702E-01  8112   0.316E+00 0.216E-02
CGA:  22    -0.386167938217E+03   -0.62671E-02   -0.62970E-02  8112   0.523E-01-0.962E-03
CGA:  23    -0.386175544230E+03   -0.76060E-02   -0.75972E-02  8112   0.162E+00 0.632E-04
CGA:  24    -0.386180383012E+03   -0.48388E-02   -0.48704E-02  8112   0.874E-01-0.847E-04
CGA:  25    -0.386183730230E+03   -0.33472E-02   -0.33565E-02  8112   0.256E-01 0.290E-03
CGA:  26    -0.386184584923E+03   -0.85469E-03   -0.85572E-03  8112   0.271E-01 0.175E-04
CGA:  27    -0.386187188645E+03   -0.26037E-02   -0.25912E-02  8112   0.317E-01 0.257E-03
CGA:  28    -0.386188719066E+03   -0.15304E-02   -0.15309E-02  8112   0.304E-01 0.126E-03
CGA:  29    -0.386189490222E+03   -0.77116E-03   -0.77451E-03  8112   0.781E-02-0.689E-04
CGA:  30    -0.386190180648E+03   -0.69043E-03   -0.69006E-03  8112   0.124E-01 0.796E-05
CGA:  31    -0.386191207762E+03   -0.10271E-02   -0.10262E-02  8112   0.235E-01 0.230E-04
SDA:  32    -0.386191784505E+03   -0.57674E-03   -0.57900E-03  8112   0.509E-02-0.588E-04
CGA:  33    -0.386192107971E+03   -0.32347E-03   -0.32371E-03  8112   0.720E-02-0.125E-04
CGA:  34    -0.386192399702E+03   -0.29173E-03   -0.29182E-03  8112   0.741E-02 0.414E-05
CGA:  35    -0.386192890777E+03   -0.49108E-03   -0.49100E-03  8112   0.471E-02 0.623E-05
CGA:  36    -0.386193146588E+03   -0.25581E-03   -0.25581E-03  8112   0.151E-02 0.164E-05
CGA:  37    -0.386193285853E+03   -0.13927E-03   -0.13956E-03  8112   0.417E-02-0.711E-05
CGA:  38    -0.386193448001E+03   -0.16215E-03   -0.16206E-03  8112   0.177E-02-0.950E-05
CGA:  39    -0.386193609240E+03   -0.16124E-03   -0.16173E-03  8112   0.208E-02-0.129E-04
CGA:  40    -0.386193664744E+03   -0.55503E-04   -0.55359E-04  8112   0.128E-02-0.280E-05
CGA:  41    -0.386193903120E+03   -0.23838E-03   -0.23949E-03  8112   0.740E-03-0.863E-05
CGA:  42    -0.386193963787E+03   -0.60667E-04   -0.60672E-04  8112   0.608E-03-0.407E-06
CGA:  43    -0.386194028539E+03   -0.64753E-04   -0.64763E-04  8112   0.137E-02-0.280E-06
CGA:  44    -0.386194065425E+03   -0.36886E-04   -0.36916E-04  8112   0.442E-03-0.100E-05
CGA:  45    -0.386194092534E+03   -0.27109E-04   -0.27109E-04  8112   0.290E-03 0.710E-06
CGA:  46    -0.386194109796E+03   -0.17262E-04   -0.17265E-04  8112   0.451E-03 0.134E-05
CGA:  47    -0.386194131999E+03   -0.22203E-04   -0.22242E-04  8112   0.344E-03 0.284E-05
CGA:  48    -0.386194153566E+03   -0.21567E-04   -0.21563E-04  8112   0.778E-04 0.284E-05
CGA:  49    -0.386194162142E+03   -0.85760E-05   -0.85397E-05  8112   0.159E-03 0.704E-06
CGA:  50    -0.386194172874E+03   -0.10733E-04   -0.10728E-04  8112   0.225E-03 0.112E-05
CGA:  51    -0.386194179353E+03   -0.64789E-05   -0.65027E-05  8112   0.729E-04 0.673E-06
   6 F= -.38619418E+03 E0= -.38617345E+03  d E =0.538387E-02  mag=    16.0000
       N       E                     dE             d eps       ncg     rms          ort
SDA:   1    -0.382271265655E+03    0.39229E+01    0.00000E+00  8112   0.130E+02 0.000E+00
CGA:   2    -0.384106612719E+03   -0.18353E+01   -0.18579E+01  8112   0.248E+02-0.274E+00
CGA:   3    -0.384790829966E+03   -0.68422E+00   -0.69125E+00  8112   0.150E+02-0.542E+00
CGA:   4    -0.385402451803E+03   -0.61162E+00   -0.61562E+00  8112   0.590E+01-0.465E-01
CGA:   5    -0.385792325051E+03   -0.38987E+00   -0.39010E+00  8112   0.808E+01-0.394E-01
CGA:   6    -0.386055329247E+03   -0.26300E+00   -0.26544E+00  8112   0.323E+01-0.459E-01
CGA:   7    -0.386182067352E+03   -0.12674E+00   -0.12773E+00  8112   0.417E+00-0.274E-02
CGA:   8    -0.386226918654E+03   -0.44851E-01   -0.44787E-01  8112   0.642E+00 0.138E-02
CGA:   9    -0.386256888982E+03   -0.29970E-01   -0.30057E-01  8112   0.342E+00 0.739E-03
CGA:  10    -0.386265459733E+03   -0.85708E-02   -0.85143E-02  8112   0.838E-01 0.149E-02
CGA:  11    -0.386271734218E+03   -0.62745E-02   -0.62648E-02  8112   0.645E-01 0.488E-03
CGA:  12    -0.386275836224E+03   -0.41020E-02   -0.41020E-02  8112   0.115E+00 0.156E-04
CGA:  13    -0.386279367662E+03   -0.35314E-02   -0.35390E-02  8112   0.250E-01-0.900E-04
CGA:  14    -0.386280779077E+03   -0.14114E-02   -0.14112E-02  8112   0.960E-02-0.227E-04
CGA:  15    -0.386281630453E+03   -0.85138E-03   -0.85071E-03  8112   0.251E-01 0.206E-04
CGA:  16    -0.386282626635E+03   -0.99618E-03   -0.99711E-03  8112   0.858E-02 0.134E-04
CGA:  17    -0.386283013708E+03   -0.38707E-03   -0.38738E-03  8112   0.272E-02 0.761E-05
CGA:  18    -0.386283348466E+03   -0.33476E-03   -0.33482E-03  8112   0.506E-02-0.118E-05
CGA:  19    -0.386283693439E+03   -0.34497E-03   -0.34493E-03  8112   0.691E-02 0.482E-05
CGA:  20    -0.386283867308E+03   -0.17387E-03   -0.17410E-03  8112   0.145E-02-0.317E-05
CGA:  21    -0.386283974957E+03   -0.10765E-03   -0.10763E-03  8112   0.184E-02 0.139E-05
CGA:  22    -0.386284092402E+03   -0.11745E-03   -0.11744E-03  8112   0.324E-02 0.876E-06
CGA:  23    -0.386284225618E+03   -0.13322E-03   -0.13316E-03  8112   0.755E-03 0.594E-06
CGA:  24    -0.386284282457E+03   -0.56839E-04   -0.56855E-04  8112   0.517E-03-0.126E-05
CGA:  25    -0.386284332198E+03   -0.49741E-04   -0.49837E-04  8112   0.126E-02-0.273E-05
CGA:  26    -0.386284371058E+03   -0.38860E-04   -0.38798E-04  8112   0.551E-03-0.137E-05
CGA:  27    -0.386284400975E+03   -0.29916E-04   -0.29916E-04  8112   0.235E-03-0.127E-06
CGA:  28    -0.386284419632E+03   -0.18657E-04   -0.18630E-04  8112   0.378E-03 0.141E-05
CGA:  29    -0.386284438811E+03   -0.19179E-04   -0.19200E-04  8112   0.426E-03 0.165E-05
CGA:  30    -0.386284457862E+03   -0.19051E-04   -0.19062E-04  8112   0.979E-04 0.736E-06
CGA:  31    -0.386284472102E+03   -0.14240E-04   -0.14498E-04  8112   0.164E-03-0.295E-05
SDA:  32    -0.386284487248E+03   -0.15146E-04   -0.15271E-04  8112   0.937E-04-0.401E-05
CGA:  33    -0.386284490809E+03   -0.35609E-05   -0.35682E-05  8112   0.546E-04 0.249E-06
   7 F= -.38628449E+03 E0= -.38626353E+03  d E =-.903115E-01  mag=    16.0000
       N       E                     dE             d eps       ncg     rms          ort
SDA:   1    -0.385988761949E+03    0.29573E+00    0.00000E+00  8112   0.116E+01 0.000E+00
CGA:   2    -0.386065746328E+03   -0.76984E-01   -0.77009E-01  8112   0.264E+01-0.630E-02
CGA:   3    -0.386170926596E+03   -0.10518E+00   -0.10555E+00  8112   0.129E+01-0.247E-02
CGA:   4    -0.386229298501E+03   -0.58372E-01   -0.58594E-01  8112   0.390E+00 0.982E-03
CGA:   5    -0.386250669081E+03   -0.21371E-01   -0.21355E-01  8112   0.436E+00-0.714E-03
CGA:   6    -0.386269100715E+03   -0.18432E-01   -0.18507E-01  8112   0.322E+00 0.162E-03
CGA:   7    -0.386285262145E+03   -0.16161E-01   -0.16135E-01  8112   0.574E-01-0.633E-03
CGA:   8    -0.386287005535E+03   -0.17434E-02   -0.17464E-02  8112   0.494E-01-0.444E-04
CGA:   9    -0.386289910254E+03   -0.29047E-02   -0.29047E-02  8112   0.330E-01-0.758E-04
CGA:  10    -0.386292078675E+03   -0.21684E-02   -0.21681E-02  8112   0.122E-01 0.272E-04
CGA:  11    -0.386292390913E+03   -0.31224E-03   -0.31262E-03  8112   0.473E-02-0.636E-05
CGA:  12    -0.386292730893E+03   -0.33998E-03   -0.33984E-03  8112   0.521E-02 0.849E-05
CGA:  13    -0.386293204206E+03   -0.47331E-03   -0.47283E-03  8112   0.232E-02 0.151E-04
CGA:  14    -0.386293278646E+03   -0.74440E-04   -0.74505E-04  8112   0.168E-02 0.292E-05
CGA:  15    -0.386293365507E+03   -0.86860E-04   -0.86895E-04  8112   0.110E-02 0.410E-05
CGA:  16    -0.386293442851E+03   -0.77344E-04   -0.77305E-04  8112   0.232E-02 0.334E-05
CGA:  17    -0.386293540190E+03   -0.97339E-04   -0.97402E-04  8112   0.923E-03 0.271E-05
CGA:  18    -0.386293583549E+03   -0.43359E-04   -0.43373E-04  8112   0.450E-03 0.572E-06
CGA:  19    -0.386293653073E+03   -0.69524E-04   -0.69773E-04  8112   0.135E-02-0.251E-05
CGA:  20    -0.386293697519E+03   -0.44446E-04   -0.44443E-04  8112   0.613E-03-0.972E-06
CGA:  21    -0.386293732097E+03   -0.34578E-04   -0.34579E-04  8112   0.219E-03 0.327E-06
CGA:  22    -0.386293756332E+03   -0.24235E-04   -0.24234E-04  8112   0.689E-03 0.371E-07
CGA:  23    -0.386293778023E+03   -0.21691E-04   -0.21687E-04  8112   0.217E-03 0.834E-07
CGA:  24    -0.386293789039E+03   -0.11016E-04   -0.11014E-04  8112   0.114E-03-0.236E-06
CGA:  25    -0.386293794409E+03   -0.53704E-05   -0.53680E-05  8112   0.158E-03-0.186E-06
CGA:  26    -0.386293806070E+03   -0.11661E-04   -0.11675E-04  8112   0.880E-04-0.107E-05
CGA:  27    -0.386293810726E+03   -0.46562E-05   -0.46531E-05  8112   0.403E-04-0.343E-06
   8 F= -.38629381E+03 E0= -.38627300E+03  d E =-.931992E-02  mag=    16.0000
       N       E                     dE             d eps       ncg     rms          ort
SDA:   1    -0.367554469291E+03    0.18739E+02    0.00000E+00  8112   0.891E+02 0.000E+00
CGA:   2    -0.372351316507E+03   -0.47968E+01   -0.48239E+01  8112   0.117E+03 0.347E+00
CGA:   3    -0.377825672911E+03   -0.54744E+01   -0.48414E+01  8112   0.753E+02-0.299E+01
CGA:   4    -0.381865774202E+03   -0.40401E+01   -0.39726E+01  8112   0.652E+02-0.398E+01
CGA:   5    -0.383138020857E+03   -0.12722E+01   -0.14213E+01  8112   0.259E+02-0.506E+01
CGA:   6    -0.384085933670E+03   -0.94791E+00   -0.93165E+00  8112   0.171E+02-0.373E+00
CGA:   7    -0.384946850721E+03   -0.86092E+00   -0.85521E+00  8112   0.207E+02-0.337E+00
CGA:   8    -0.385624944365E+03   -0.67809E+00   -0.63576E+00  8112   0.621E+01 0.362E+00
CGA:   9    -0.385780906502E+03   -0.15596E+00   -0.15250E+00  8112   0.354E+01 0.657E-01
CGA:  10    -0.385902303919E+03   -0.12140E+00   -0.12342E+00  8112   0.235E+01-0.905E-02
CGA:  11    -0.386005655703E+03   -0.10335E+00   -0.10436E+00  8112   0.245E+01 0.353E-01
CGA:  12    -0.386085435582E+03   -0.79780E-01   -0.79570E-01  8112   0.124E+01 0.135E-02
CGA:  13    -0.386120448622E+03   -0.35013E-01   -0.36265E-01  8112   0.613E+00-0.139E-01
CGA:  14    -0.386140806644E+03   -0.20358E-01   -0.20395E-01  8112   0.353E+00-0.113E-04
CGA:  15    -0.386157668641E+03   -0.16862E-01   -0.16875E-01  8112   0.439E+00 0.297E-02
CGA:  16    -0.386177101261E+03   -0.19433E-01   -0.19631E-01  8112   0.329E+00 0.146E-01
CGA:  17    -0.386188465256E+03   -0.11364E-01   -0.11350E-01  8112   0.133E+00-0.311E-04
CGA:  18    -0.386193858651E+03   -0.53934E-02   -0.54298E-02  8112   0.109E+00 0.149E-02
CGA:  19    -0.386201516804E+03   -0.76582E-02   -0.76455E-02  8112   0.161E+00 0.470E-03
CGA:  20    -0.386207319135E+03   -0.58023E-02   -0.58244E-02  8112   0.924E-01 0.302E-03
CGA:  21    -0.386211824959E+03   -0.45058E-02   -0.45055E-02  8112   0.634E-01 0.283E-02
CGA:  22    -0.386214840484E+03   -0.30155E-02   -0.30158E-02  8112   0.543E-01 0.633E-04
CGA:  23    -0.386219326801E+03   -0.44863E-02   -0.44152E-02  8112   0.732E-01 0.191E-02
CGA:  24    -0.386222369758E+03   -0.30430E-02   -0.30429E-02  8112   0.441E-01 0.970E-05
CGA:  25    -0.386223906647E+03   -0.15369E-02   -0.15394E-02  8112   0.239E-01 0.196E-04
CGA:  26    -0.386225714253E+03   -0.18076E-02   -0.17967E-02  8112   0.327E-01 0.352E-03
CGA:  27    -0.386227287077E+03   -0.15728E-02   -0.15731E-02  8112   0.154E-01 0.461E-04
CGA:  28    -0.386228183883E+03   -0.89681E-03   -0.89683E-03  8112   0.103E-01 0.133E-05
CGA:  29    -0.386228721988E+03   -0.53811E-03   -0.53808E-03  8112   0.105E-01 0.991E-05
CGA:  30    -0.386229289459E+03   -0.56747E-03   -0.56746E-03  8112   0.956E-02 0.581E-05
CGA:  31    -0.386229666646E+03   -0.37719E-03   -0.37737E-03  8112   0.612E-02 0.775E-05
SDA:  32    -0.386229967995E+03   -0.30135E-03   -0.30133E-03  8112   0.327E-02-0.701E-05
CGA:  33    -0.386230070298E+03   -0.10230E-03   -0.10230E-03  8112   0.211E-02-0.127E-06
CGA:  34    -0.386230272093E+03   -0.20179E-03   -0.20229E-03  8112   0.354E-02-0.104E-04
CGA:  35    -0.386230515095E+03   -0.24300E-03   -0.24311E-03  8112   0.398E-02-0.653E-05
CGA:  36    -0.386230627704E+03   -0.11261E-03   -0.11266E-03  8112   0.137E-02-0.345E-05
CGA:  37    -0.386230726867E+03   -0.99163E-04   -0.99183E-04  8112   0.119E-02-0.105E-05
CGA:  38    -0.386230967894E+03   -0.24103E-03   -0.24012E-03  8112   0.815E-03 0.613E-05
CGA:  39    -0.386231011308E+03   -0.43414E-04   -0.43416E-04  8112   0.103E-02 0.382E-07
CGA:  40    -0.386231055046E+03   -0.43737E-04   -0.43691E-04  8112   0.663E-03-0.118E-05
CGA:  41    -0.386231114911E+03   -0.59865E-04   -0.59932E-04  8112   0.105E-02-0.224E-05
CGA:  42    -0.386231148834E+03   -0.33923E-04   -0.33897E-04  8112   0.346E-03-0.355E-06
CGA:  43    -0.386231169354E+03   -0.20520E-04   -0.20521E-04  8112   0.162E-03-0.290E-06
CGA:  44    -0.386231202743E+03   -0.33389E-04   -0.32882E-04  8112   0.368E-03 0.351E-05
CGA:  45    -0.386231216140E+03   -0.13397E-04   -0.13445E-04  8112   0.208E-03 0.138E-05
CGA:  46    -0.386231222974E+03   -0.68344E-05   -0.68713E-05  8112   0.924E-04 0.997E-06
CGA:  47    -0.386231237986E+03   -0.15012E-04   -0.14649E-04  8112   0.152E-03 0.380E-05
CGA:  48    -0.386231248109E+03   -0.10123E-04   -0.10135E-04  8112   0.112E-03 0.308E-05
CGA:  49    -0.386231251581E+03   -0.34721E-05   -0.35048E-05  8112   0.471E-04 0.791E-06
   9 F= -.38623125E+03 E0= -.38621215E+03  d E =0.625591E-01  mag=    16.0000
       N       E                     dE             d eps       ncg     rms          ort
SDA:   1    -0.380115404333E+03    0.61158E+01    0.00000E+00  8112   0.233E+02 0.000E+00
CGA:   2    -0.381756816776E+03   -0.16414E+01   -0.16408E+01  8112   0.506E+02 0.134E+00
CGA:   3    -0.383825435798E+03   -0.20686E+01   -0.20875E+01  8112   0.213E+02 0.433E-01
CGA:   4    -0.385002179938E+03   -0.11767E+01   -0.11409E+01  8112   0.783E+01-0.803E+00
CGA:   5    -0.385330383724E+03   -0.32820E+00   -0.32814E+00  8112   0.129E+02-0.190E-01
CGA:   6    -0.385928043136E+03   -0.59766E+00   -0.59664E+00  8112   0.498E+01-0.132E-01
CGA:   7    -0.386063679817E+03   -0.13564E+00   -0.13476E+00  8112   0.177E+01-0.145E-02
CGA:   8    -0.386129801456E+03   -0.66122E-01   -0.65657E-01  8112   0.955E+00 0.167E-02
CGA:   9    -0.386194477886E+03   -0.64676E-01   -0.64881E-01  8112   0.127E+01-0.175E-01
CGA:  10    -0.386226894448E+03   -0.32417E-01   -0.33751E-01  8112   0.629E+00-0.288E-01
CGA:  11    -0.386251040054E+03   -0.24146E-01   -0.24170E-01  8112   0.114E+00 0.137E-04
CGA:  12    -0.386257801915E+03   -0.67619E-02   -0.67610E-02  8112   0.158E+00 0.482E-03
CGA:  13    -0.386265202601E+03   -0.74007E-02   -0.74255E-02  8112   0.111E+00 0.538E-03
CGA:  14    -0.386272848160E+03   -0.76456E-02   -0.76470E-02  8112   0.322E-01-0.120E-03
CGA:  15    -0.386274411163E+03   -0.15630E-02   -0.15653E-02  8112   0.247E-01 0.620E-04
CGA:  16    -0.386275791664E+03   -0.13805E-02   -0.13805E-02  8112   0.350E-01 0.742E-05
CGA:  17    -0.386278363870E+03   -0.25722E-02   -0.25721E-02  8112   0.133E-01 0.650E-06
CGA:  18    -0.386278938451E+03   -0.57458E-03   -0.57635E-03  8112   0.114E-01 0.218E-04
CGA:  19    -0.386279406369E+03   -0.46792E-03   -0.46772E-03  8112   0.105E-01 0.476E-05
CGA:  20    -0.386280591558E+03   -0.11852E-02   -0.11736E-02  8112   0.128E-01 0.205E-03
CGA:  21    -0.386281020695E+03   -0.42914E-03   -0.42972E-03  8112   0.570E-02 0.407E-05
CGA:  22    -0.386281288112E+03   -0.26742E-03   -0.26756E-03  8112   0.352E-02 0.322E-05
CGA:  23    -0.386281746174E+03   -0.45806E-03   -0.45784E-03  8112   0.518E-02 0.340E-05
CGA:  24    -0.386281956765E+03   -0.21059E-03   -0.21068E-03  8112   0.273E-02-0.672E-06
CGA:  25    -0.386282058694E+03   -0.10193E-03   -0.10200E-03  8112   0.124E-02 0.162E-05
CGA:  26    -0.386282238646E+03   -0.17995E-03   -0.17952E-03  8112   0.188E-02 0.511E-05
CGA:  27    -0.386282303150E+03   -0.64504E-04   -0.64550E-04  8112   0.117E-02 0.218E-05
CGA:  28    -0.386282359654E+03   -0.56504E-04   -0.56518E-04  8112   0.655E-03 0.660E-06
CGA:  29    -0.386282404595E+03   -0.44941E-04   -0.44951E-04  8112   0.139E-02-0.119E-05
CGA:  30    -0.386282470963E+03   -0.66368E-04   -0.66314E-04  8112   0.373E-03-0.218E-05
CGA:  31    -0.386282499575E+03   -0.28612E-04   -0.28618E-04  8112   0.390E-03-0.480E-06
SDA:  32    -0.386282517044E+03   -0.17469E-04   -0.17462E-04  8112   0.418E-03-0.290E-06
CGA:  33    -0.386282527574E+03   -0.10529E-04   -0.10518E-04  8112   0.175E-03-0.242E-06
CGA:  34    -0.386282539412E+03   -0.11838E-04   -0.11840E-04  8112   0.177E-03-0.224E-06
CGA:  35    -0.386282565289E+03   -0.25877E-04   -0.25853E-04  8112   0.231E-03 0.256E-06
CGA:  36    -0.386282571730E+03   -0.64410E-05   -0.64327E-05  8112   0.129E-03-0.218E-06
  10 F= -.38628257E+03 E0= -.38626242E+03  d E =-.513201E-01  mag=    16.0000
       N       E                     dE             d eps       ncg     rms          ort
SDA:   1    -0.385973141792E+03    0.30942E+00    0.00000E+00  8112   0.113E+01 0.000E+00
CGA:   2    -0.386115303150E+03   -0.14216E+00   -0.14228E+00  8112   0.201E+01-0.151E-02
CGA:   3    -0.386172122047E+03   -0.56819E-01   -0.58410E-01  8112   0.990E+00-0.342E-01
CGA:   4    -0.386213834450E+03   -0.41712E-01   -0.42145E-01  8112   0.365E+00 0.116E-02
CGA:   5    -0.386246785448E+03   -0.32951E-01   -0.32916E-01  8112   0.587E+00 0.102E-02
CGA:   6    -0.386264870365E+03   -0.18085E-01   -0.18014E-01  8112   0.153E+00 0.122E-02
CGA:   7    -0.386271839567E+03   -0.69692E-02   -0.69893E-02  8112   0.449E-01 0.188E-03
CGA:   8    -0.386275740260E+03   -0.39007E-02   -0.39041E-02  8112   0.770E-01-0.997E-04
CGA:   9    -0.386278035250E+03   -0.22950E-02   -0.23022E-02  8112   0.302E-01-0.129E-03
CGA:  10    -0.386279507315E+03   -0.14721E-02   -0.14724E-02  8112   0.587E-02 0.910E-05
CGA:  11    -0.386280043145E+03   -0.53583E-03   -0.53537E-03  8112   0.692E-02 0.139E-04
CGA:  12    -0.386280472340E+03   -0.42920E-03   -0.42920E-03  8112   0.864E-02 0.450E-05
CGA:  13    -0.386280724091E+03   -0.25175E-03   -0.25202E-03  8112   0.196E-02-0.443E-06
CGA:  14    -0.386280838833E+03   -0.11474E-03   -0.11474E-03  8112   0.144E-02 0.212E-05
CGA:  15    -0.386280943659E+03   -0.10483E-03   -0.10477E-03  8112   0.288E-02 0.422E-05
CGA:  16    -0.386281078605E+03   -0.13495E-03   -0.13505E-03  8112   0.839E-03 0.628E-05
CGA:  17    -0.386281127830E+03   -0.49225E-04   -0.49226E-04  8112   0.483E-03 0.127E-05
CGA:  18    -0.386281164983E+03   -0.37154E-04   -0.37161E-04  8112   0.145E-02-0.318E-06
CGA:  19    -0.386281247499E+03   -0.82516E-04   -0.82509E-04  8112   0.307E-03-0.186E-05
CGA:  20    -0.386281271340E+03   -0.23840E-04   -0.23841E-04  8112   0.255E-03-0.626E-07
CGA:  21    -0.386281293488E+03   -0.22148E-04   -0.22138E-04  8112   0.505E-03 0.383E-06
CGA:  22    -0.386281311840E+03   -0.18352E-04   -0.18359E-04  8112   0.203E-03 0.183E-06
CGA:  23    -0.386281321896E+03   -0.10055E-04   -0.10056E-04  8112   0.984E-04 0.449E-07
CGA:  24    -0.386281326334E+03   -0.44382E-05   -0.44371E-05  8112   0.129E-03-0.500E-07
  11 F= -.38628133E+03 E0= -.38626152E+03  d E =0.124540E-02  mag=    16.0000
       N       E                     dE             d eps       ncg     rms          ort
SDA:   1    -0.385842184956E+03    0.43914E+00    0.00000E+00  8112   0.156E+01 0.000E+00
CGA:   2    -0.385999588436E+03   -0.15740E+00   -0.15699E+00  8112   0.443E+01 0.100E-01
CGA:   3    -0.386154122045E+03   -0.15453E+00   -0.15310E+00  8112   0.690E+00 0.149E-01
CGA:   4    -0.386188310027E+03   -0.34188E-01   -0.34507E-01  8112   0.677E+00 0.754E-02
CGA:   5    -0.386218838711E+03   -0.30529E-01   -0.30597E-01  8112   0.579E+00 0.558E-03
CGA:   6    -0.386251029622E+03   -0.32191E-01   -0.32175E-01  8112   0.139E+00-0.151E-02
CGA:   7    -0.386258593452E+03   -0.75638E-02   -0.75598E-02  8112   0.803E-01-0.303E-03
CGA:   8    -0.386262186232E+03   -0.35928E-02   -0.35970E-02  8112   0.906E-01 0.618E-04
CGA:   9    -0.386266621509E+03   -0.44353E-02   -0.44365E-02  8112   0.295E-01 0.528E-04
CGA:  10    -0.386267925059E+03   -0.13035E-02   -0.13038E-02  8112   0.174E-01 0.676E-05
CGA:  11    -0.386268488192E+03   -0.56313E-03   -0.56251E-03  8112   0.755E-02 0.462E-05
CGA:  12    -0.386269317025E+03   -0.82883E-03   -0.82866E-03  8112   0.879E-02 0.343E-05
CGA:  13    -0.386269732808E+03   -0.41578E-03   -0.41572E-03  8112   0.624E-02-0.213E-05
CGA:  14    -0.386269907644E+03   -0.17484E-03   -0.17505E-03  8112   0.189E-02-0.537E-05
CGA:  15    -0.386270188194E+03   -0.28055E-03   -0.28048E-03  8112   0.520E-02 0.784E-06
CGA:  16    -0.386270401387E+03   -0.21319E-03   -0.21330E-03  8112   0.288E-02 0.472E-08
CGA:  17    -0.386270518678E+03   -0.11729E-03   -0.11729E-03  8112   0.127E-02 0.106E-05
CGA:  18    -0.386270705237E+03   -0.18656E-03   -0.18650E-03  8112   0.401E-02 0.982E-06
CGA:  19    -0.386270826984E+03   -0.12175E-03   -0.12179E-03  8112   0.147E-02-0.107E-06
CGA:  20    -0.386270930108E+03   -0.10312E-03   -0.10310E-03  8112   0.755E-03 0.188E-05
CGA:  21    -0.386270975406E+03   -0.45298E-04   -0.45299E-04  8112   0.117E-02 0.333E-06
CGA:  22    -0.386271039359E+03   -0.63953E-04   -0.63964E-04  8112   0.690E-03 0.109E-05
CGA:  23    -0.386271071945E+03   -0.32586E-04   -0.32591E-04  8112   0.293E-03 0.462E-06
CGA:  24    -0.386271083043E+03   -0.11098E-04   -0.11097E-04  8112   0.268E-03-0.154E-07
CGA:  25    -0.386271101350E+03   -0.18307E-04   -0.18305E-04  8112   0.213E-03 0.295E-06
CGA:  26    -0.386271117526E+03   -0.16176E-04   -0.16169E-04  8112   0.117E-03 0.483E-06
CGA:  27    -0.386271120912E+03   -0.33856E-05   -0.33903E-05  8112   0.646E-04 0.141E-06
  12 F= -.38627112E+03 E0= -.38625150E+03  d E =0.102054E-01  mag=    16.0000
       N       E                     dE             d eps       ncg     rms          ort
SDA:   1    -0.383136842952E+03    0.31343E+01    0.00000E+00  8112   0.112E+02 0.000E+00
CGA:   2    -0.383817160346E+03   -0.68032E+00   -0.68179E+00  8112   0.240E+02 0.283E+00
CGA:   3    -0.385414315756E+03   -0.15972E+01   -0.15986E+01  8112   0.632E+01-0.464E+00
CGA:   4    -0.385634878184E+03   -0.22056E+00   -0.22873E+00  8112   0.533E+01-0.593E-01
CGA:   5    -0.385893738003E+03   -0.25886E+00   -0.25616E+00  8112   0.330E+01-0.445E-01
CGA:   6    -0.386129770111E+03   -0.23603E+00   -0.23547E+00  8112   0.121E+01 0.337E-01
CGA:   7    -0.386168008645E+03   -0.38239E-01   -0.37282E-01  8112   0.673E+00 0.168E-01
CGA:   8    -0.386197797734E+03   -0.29789E-01   -0.29870E-01  8112   0.344E+00 0.719E-03
CGA:   9    -0.386225198124E+03   -0.27400E-01   -0.27392E-01  8112   0.287E+00 0.339E-03
CGA:  10    -0.386234239170E+03   -0.90410E-02   -0.91210E-02  8112   0.123E+00-0.968E-03
CGA:  11    -0.386239148941E+03   -0.49098E-02   -0.49118E-02  8112   0.371E-01-0.433E-05
CGA:  12    -0.386242192759E+03   -0.30438E-02   -0.30346E-02  8112   0.832E-01 0.303E-03
CGA:  13    -0.386245462227E+03   -0.32695E-02   -0.32695E-02  8112   0.270E-01-0.251E-04
CGA:  14    -0.386246817632E+03   -0.13554E-02   -0.13566E-02  8112   0.949E-02 0.432E-04
CGA:  15    -0.386247344819E+03   -0.52719E-03   -0.52715E-03  8112   0.174E-01-0.919E-05
CGA:  16    -0.386248756785E+03   -0.14120E-02   -0.14086E-02  8112   0.105E-01 0.111E-03
CGA:  17    -0.386249217874E+03   -0.46109E-03   -0.46147E-03  8112   0.755E-02 0.518E-05
CGA:  18    -0.386249555393E+03   -0.33752E-03   -0.33791E-03  8112   0.744E-02 0.860E-05
CGA:  19    -0.386250445239E+03   -0.88985E-03   -0.88899E-03  8112   0.758E-02 0.135E-04
CGA:  20    -0.386250788159E+03   -0.34292E-03   -0.34328E-03  8112   0.569E-02 0.542E-05
CGA:  21    -0.386251008385E+03   -0.22023E-03   -0.22006E-03  8112   0.367E-02 0.114E-05
CGA:  22    -0.386251313175E+03   -0.30479E-03   -0.30458E-03  8112   0.345E-02 0.749E-05
CGA:  23    -0.386251492666E+03   -0.17949E-03   -0.17950E-03  8112   0.359E-02 0.282E-05
CGA:  24    -0.386251624823E+03   -0.13216E-03   -0.13220E-03  8112   0.749E-03 0.209E-05
CGA:  25    -0.386251711208E+03   -0.86385E-04   -0.86379E-04  8112   0.203E-02 0.818E-07
CGA:  26    -0.386251783192E+03   -0.71984E-04   -0.71988E-04  8112   0.774E-03-0.354E-06
CGA:  27    -0.386251818977E+03   -0.35785E-04   -0.35788E-04  8112   0.308E-03 0.322E-07
CGA:  28    -0.386251847856E+03   -0.28878E-04   -0.28860E-04  8112   0.796E-03 0.528E-06
CGA:  29    -0.386251882327E+03   -0.34472E-04   -0.34465E-04  8112   0.287E-03 0.252E-06
CGA:  30    -0.386251899442E+03   -0.17114E-04   -0.17114E-04  8112   0.204E-03-0.564E-06
CGA:  31    -0.386251908032E+03   -0.85900E-05   -0.85864E-05  8112   0.211E-03-0.237E-06
SDA:  32    -0.386251923846E+03   -0.15815E-04   -0.15824E-04  8112   0.175E-03-0.576E-06
CGA:  33    -0.386251929492E+03   -0.56454E-05   -0.56561E-05  8112   0.901E-04 0.353E-06
  13 F= -.38625193E+03 E0= -.38623232E+03  d E =0.191914E-01  mag=    16.0000
       N       E                     dE             d eps       ncg     rms          ort
SDA:   1    -0.371645730508E+03    0.14606E+02    0.00000E+00  8112   0.464E+02 0.000E+00
CGA:   2    -0.377062267609E+03   -0.54165E+01   -0.51375E+01  8112   0.122E+03 0.422E+01
CGA:   3    -0.381857648852E+03   -0.47954E+01   -0.40683E+01  8112   0.212E+02 0.203E+02
CGA:   4    -0.383426977963E+03   -0.15693E+01   -0.15803E+01  8112   0.245E+02-0.127E+01
CGA:   5    -0.384453439699E+03   -0.10265E+01   -0.10183E+01  8112   0.223E+02-0.815E-01
CGA:   6    -0.385416185800E+03   -0.96275E+00   -0.94223E+00  8112   0.865E+01-0.174E+00
CGA:   7    -0.385708255854E+03   -0.29207E+00   -0.28889E+00  8112   0.605E+01 0.368E-01
CGA:   8    -0.385865334124E+03   -0.15708E+00   -0.15930E+00  8112   0.166E+01-0.590E-01
CGA:   9    -0.385963127320E+03   -0.97793E-01   -0.97849E-01  8112   0.312E+01-0.678E-02
CGA:  10    -0.386059821967E+03   -0.96695E-01   -0.96760E-01  8112   0.119E+01 0.250E-02
CGA:  11    -0.386106984098E+03   -0.47162E-01   -0.47441E-01  8112   0.544E+00 0.290E-02
CGA:  12    -0.386119989087E+03   -0.13005E-01   -0.12950E-01  8112   0.257E+00 0.159E-02
CGA:  13    -0.386137395448E+03   -0.17406E-01   -0.17331E-01  8112   0.284E+00 0.350E-02
CGA:  14    -0.386148560079E+03   -0.11165E-01   -0.11229E-01  8112   0.296E+00 0.740E-03
CGA:  15    -0.386160064033E+03   -0.11504E-01   -0.11546E-01  8112   0.877E-01 0.524E-03
CGA:  16    -0.386164003714E+03   -0.39397E-02   -0.39391E-02  8112   0.930E-01-0.429E-04
CGA:  17    -0.386167049444E+03   -0.30457E-02   -0.30593E-02  8112   0.457E-01-0.396E-04
CGA:  18    -0.386171884889E+03   -0.48354E-02   -0.48055E-02  8112   0.113E+00 0.544E-03
CGA:  19    -0.386175087332E+03   -0.32024E-02   -0.32333E-02  8112   0.393E-01-0.389E-03
CGA:  20    -0.386177191409E+03   -0.21041E-02   -0.21038E-02  8112   0.265E-01 0.747E-04
CGA:  21    -0.386178661419E+03   -0.14700E-02   -0.14699E-02  8112   0.505E-01 0.165E-04
CGA:  22    -0.386181586340E+03   -0.29249E-02   -0.29230E-02  8112   0.266E-01 0.194E-03
CGA:  23    -0.386183107217E+03   -0.15209E-02   -0.15198E-02  8112   0.285E-01 0.137E-03
CGA:  24    -0.386183944619E+03   -0.83740E-03   -0.84032E-03  8112   0.112E-01-0.238E-04
CGA:  25    -0.386185027244E+03   -0.10826E-02   -0.10801E-02  8112   0.150E-01 0.540E-04
CGA:  26    -0.386185598806E+03   -0.57156E-03   -0.57143E-03  8112   0.139E-01 0.107E-04
CGA:  27    -0.386186284276E+03   -0.68547E-03   -0.68548E-03  8112   0.351E-02 0.850E-05
CGA:  28    -0.386186490188E+03   -0.20591E-03   -0.20590E-03  8112   0.653E-02 0.150E-05
CGA:  29    -0.386186808727E+03   -0.31854E-03   -0.31851E-03  8112   0.363E-02-0.213E-05
CGA:  30    -0.386187040023E+03   -0.23130E-03   -0.23131E-03  8112   0.257E-02-0.145E-05
CGA:  31    -0.386187119158E+03   -0.79136E-04   -0.79082E-04  8112   0.160E-02-0.101E-05
SDA:  32    -0.386187220790E+03   -0.10163E-03   -0.10165E-03  8112   0.102E-02-0.154E-05
CGA:  33    -0.386187272302E+03   -0.51512E-04   -0.51515E-04  8112   0.627E-03 0.120E-05
CGA:  34    -0.386187306707E+03   -0.34405E-04   -0.34404E-04  8112   0.967E-03 0.503E-06
CGA:  35    -0.386187388473E+03   -0.81766E-04   -0.81729E-04  8112   0.867E-03 0.116E-05
CGA:  36    -0.386187449430E+03   -0.60957E-04   -0.61000E-04  8112   0.232E-03-0.243E-05
CGA:  37    -0.386187466826E+03   -0.17396E-04   -0.17432E-04  8112   0.609E-03-0.177E-05
CGA:  38    -0.386187500931E+03   -0.34105E-04   -0.34106E-04  8112   0.527E-03-0.373E-05
CGA:  39    -0.386187534317E+03   -0.33386E-04   -0.33416E-04  8112   0.120E-03-0.391E-05
CGA:  40    -0.386187546263E+03   -0.11946E-04   -0.11954E-04  8112   0.188E-03-0.209E-06
CGA:  41    -0.386187572864E+03   -0.26601E-04   -0.26565E-04  8112   0.148E-03 0.403E-06
CGA:  42    -0.386187577386E+03   -0.45215E-05   -0.45339E-05  8112   0.876E-04 0.430E-06
  14 F= -.38618758E+03 E0= -.38616776E+03  d E =0.643521E-01  mag=    16.0000
       N       E                     dE             d eps       ncg     rms          ort
SDA:   1    -0.383724907273E+03    0.24627E+01    0.00000E+00  8112   0.738E+01 0.000E+00
CGA:   2    -0.384661477348E+03   -0.93657E+00   -0.94920E+00  8112   0.261E+02-0.154E+00
CGA:   3    -0.385443831603E+03   -0.78235E+00   -0.79815E+00  8112   0.527E+01-0.326E+00
CGA:   4    -0.385720568962E+03   -0.27674E+00   -0.27790E+00  8112   0.353E+01 0.457E-01
CGA:   5    -0.385893225149E+03   -0.17266E+00   -0.17334E+00  8112   0.409E+01 0.107E-01
CGA:   6    -0.386071649472E+03   -0.17842E+00   -0.17671E+00  8112   0.867E+00-0.776E-02
CGA:   7    -0.386115099008E+03   -0.43450E-01   -0.43278E-01  8112   0.276E+00-0.492E-02
CGA:   8    -0.386142336168E+03   -0.27237E-01   -0.27283E-01  8112   0.508E+00-0.101E-02
CGA:   9    -0.386156929711E+03   -0.14594E-01   -0.14722E-01  8112   0.135E+00-0.251E-02
CGA:  10    -0.386162640795E+03   -0.57111E-02   -0.57105E-02  8112   0.375E-01-0.177E-05
CGA:  11    -0.386165713211E+03   -0.30724E-02   -0.30737E-02  8112   0.717E-01-0.453E-04
CGA:  12    -0.386168543236E+03   -0.28300E-02   -0.28308E-02  8112   0.336E-01-0.125E-04
CGA:  13    -0.386170195910E+03   -0.16527E-02   -0.16527E-02  8112   0.636E-02-0.542E-05
CGA:  14    -0.386170779261E+03   -0.58335E-03   -0.58383E-03  8112   0.180E-01-0.122E-04
CGA:  15    -0.386171540833E+03   -0.76157E-03   -0.76163E-03  8112   0.775E-02-0.350E-06
CGA:  16    -0.386172050686E+03   -0.50985E-03   -0.50978E-03  8112   0.268E-02 0.935E-05
CGA:  17    -0.386172332209E+03   -0.28152E-03   -0.28126E-03  8112   0.626E-02 0.590E-05
CGA:  18    -0.386172646490E+03   -0.31428E-03   -0.31440E-03  8112   0.697E-02 0.794E-05
CGA:  19    -0.386172996857E+03   -0.35037E-03   -0.35052E-03  8112   0.194E-02 0.937E-05
CGA:  20    -0.386173144000E+03   -0.14714E-03   -0.14711E-03  8112   0.256E-02 0.269E-05
CGA:  21    -0.386173279173E+03   -0.13517E-03   -0.13521E-03  8112   0.337E-02 0.166E-05
CGA:  22    -0.386173481502E+03   -0.20233E-03   -0.20233E-03  8112   0.683E-03-0.574E-06
CGA:  23    -0.386173530559E+03   -0.49057E-04   -0.49058E-04  8112   0.118E-02-0.153E-06
CGA:  24    -0.386173588816E+03   -0.58257E-04   -0.58254E-04  8112   0.110E-02-0.229E-06
CGA:  25    -0.386173642041E+03   -0.53225E-04   -0.53226E-04  8112   0.279E-03-0.657E-07
CGA:  26    -0.386173670833E+03   -0.28792E-04   -0.28752E-04  8112   0.330E-03 0.911E-06
CGA:  27    -0.386173689880E+03   -0.19048E-04   -0.19046E-04  8112   0.541E-03-0.292E-06
CGA:  28    -0.386173714509E+03   -0.24628E-04   -0.24616E-04  8112   0.118E-03-0.712E-06
CGA:  29    -0.386173725201E+03   -0.10692E-04   -0.10700E-04  8112   0.151E-03-0.272E-06
CGA:  30    -0.386173739673E+03   -0.14472E-04   -0.14483E-04  8112   0.294E-03-0.365E-06
CGA:  31    -0.386173748446E+03   -0.87727E-05   -0.87663E-05  8112   0.776E-04-0.215E-06
  15 F= -.38617375E+03 E0= -.38615423E+03  d E =0.138289E-01  mag=    16.0000
       N       E                     dE             d eps       ncg     rms          ort
SDA:   1    -0.385164638903E+03    0.10091E+01    0.00000E+00  8112   0.347E+01 0.000E+00
CGA:   2    -0.385427590353E+03   -0.26295E+00   -0.26401E+00  8112   0.907E+01-0.528E-01
CGA:   3    -0.385865747479E+03   -0.43816E+00   -0.43877E+00  8112   0.232E+01 0.553E-02
CGA:   4    -0.385972459990E+03   -0.10671E+00   -0.10584E+00  8112   0.120E+01-0.591E-02
CGA:   5    -0.386029370710E+03   -0.56911E-01   -0.57157E-01  8112   0.144E+01 0.351E-02
CGA:   6    -0.386100925619E+03   -0.71555E-01   -0.71359E-01  8112   0.531E+00-0.414E-02
CGA:   7    -0.386131723907E+03   -0.30798E-01   -0.30828E-01  8112   0.119E+00 0.481E-02
CGA:   8    -0.386137877511E+03   -0.61536E-02   -0.61511E-02  8112   0.146E+00-0.646E-04
CGA:   9    -0.386144566035E+03   -0.66885E-02   -0.67001E-02  8112   0.815E-01 0.158E-03
CGA:  10    -0.386149491883E+03   -0.49258E-02   -0.49259E-02  8112   0.231E-01-0.189E-04
CGA:  11    -0.386150217263E+03   -0.72538E-03   -0.72389E-03  8112   0.147E-01 0.185E-04
CGA:  12    -0.386151185610E+03   -0.96835E-03   -0.96824E-03  8112   0.160E-01 0.624E-05
CGA:  13    -0.386152497806E+03   -0.13122E-02   -0.13125E-02  8112   0.334E-02-0.109E-04
CGA:  14    -0.386152711122E+03   -0.21332E-03   -0.21335E-03  8112   0.549E-02-0.368E-05
CGA:  15    -0.386152962704E+03   -0.25158E-03   -0.25156E-03  8112   0.472E-02 0.105E-05
CGA:  16    -0.386153424066E+03   -0.46136E-03   -0.46076E-03  8112   0.258E-02 0.148E-04
CGA:  17    -0.386153571683E+03   -0.14762E-03   -0.14764E-03  8112   0.276E-02 0.295E-05
CGA:  18    -0.386153721072E+03   -0.14939E-03   -0.14940E-03  8112   0.347E-02-0.344E-06
CGA:  19    -0.386154000767E+03   -0.27969E-03   -0.27978E-03  8112   0.242E-02-0.394E-05
CGA:  20    -0.386154147800E+03   -0.14703E-03   -0.14703E-03  8112   0.118E-02-0.271E-05
CGA:  21    -0.386154192664E+03   -0.44864E-04   -0.44891E-04  8112   0.132E-02 0.736E-07
CGA:  22    -0.386154329766E+03   -0.13710E-03   -0.13694E-03  8112   0.579E-03 0.376E-05
CGA:  23    -0.386154368724E+03   -0.38958E-04   -0.38946E-04  8112   0.342E-03 0.259E-05
CGA:  24    -0.386154384863E+03   -0.16139E-04   -0.16146E-04  8112   0.469E-03 0.443E-06
CGA:  25    -0.386154417384E+03   -0.32521E-04   -0.32522E-04  8112   0.292E-03-0.865E-07
CGA:  26    -0.386154432970E+03   -0.15586E-04   -0.15582E-04  8112   0.113E-03-0.399E-06
CGA:  27    -0.386154438296E+03   -0.53257E-05   -0.53206E-05  8112   0.152E-03-0.427E-06
CGA:  28    -0.386154450423E+03   -0.12127E-04   -0.12140E-04  8112   0.117E-03-0.669E-06
CGA:  29    -0.386154458636E+03   -0.82126E-05   -0.82149E-05  8112   0.664E-04-0.255E-06
  16 F= -.38615446E+03 E0= -.38613503E+03  d E =0.192898E-01  mag=    16.0000
       N       E                     dE             d eps       ncg     rms          ort
SDA:   1    -0.360297365679E+03    0.25857E+02    0.00000E+00  8112   0.846E+02 0.000E+00
CGA:   2    -0.370569286479E+03   -0.10272E+02   -0.94905E+01  8112   0.169E+03 0.133E+02
CGA:   3    -0.377867750086E+03   -0.72985E+01   -0.62818E+01  8112   0.626E+02 0.805E+01
CGA:   4    -0.381106855106E+03   -0.32391E+01   -0.32161E+01  8112   0.320E+02-0.931E+00
CGA:   5    -0.383235192531E+03   -0.21283E+01   -0.21351E+01  8112   0.441E+02-0.670E+00
CGA:   6    -0.384245111379E+03   -0.10099E+01   -0.92340E+00  8112   0.184E+02 0.177E+01
CGA:   7    -0.384943822163E+03   -0.69871E+00   -0.69375E+00  8112   0.160E+02-0.304E-01
CGA:   8    -0.385298956883E+03   -0.35513E+00   -0.38050E+00  8112   0.655E+01-0.786E+00
CGA:   9    -0.385532250433E+03   -0.23329E+00   -0.23173E+00  8112   0.626E+01-0.141E-01
CGA:  10    -0.385679363982E+03   -0.14711E+00   -0.14823E+00  8112   0.261E+01-0.587E-01
CGA:  11    -0.385807899778E+03   -0.12854E+00   -0.12870E+00  8112   0.175E+01 0.154E-01
CGA:  12    -0.385846033103E+03   -0.38133E-01   -0.40423E-01  8112   0.118E+01-0.619E-01
CGA:  13    -0.385902861145E+03   -0.56828E-01   -0.56947E-01  8112   0.577E+00 0.234E-01
CGA:  14    -0.385930253517E+03   -0.27392E-01   -0.27522E-01  8112   0.627E+00 0.897E-02
CGA:  15    -0.385946377109E+03   -0.16124E-01   -0.16588E-01  8112   0.252E+00-0.872E-02
CGA:  16    -0.385965789803E+03   -0.19413E-01   -0.19179E-01  8112   0.195E+00 0.734E-02
CGA:  17    -0.385975128211E+03   -0.93384E-02   -0.93797E-02  8112   0.207E+00 0.296E-02
CGA:  18    -0.385981888427E+03   -0.67602E-02   -0.68332E-02  8112   0.101E+00-0.326E-03
CGA:  19    -0.385991994014E+03   -0.10106E-01   -0.99394E-02  8112   0.934E-01 0.336E-02
CGA:  20    -0.385996069202E+03   -0.40752E-02   -0.40810E-02  8112   0.107E+00 0.158E-03
CGA:  21    -0.386001474831E+03   -0.54056E-02   -0.54081E-02  8112   0.727E-01 0.543E-03
CGA:  22    -0.386007185270E+03   -0.57104E-02   -0.56618E-02  8112   0.669E-01 0.158E-02
CGA:  23    -0.386009922758E+03   -0.27375E-02   -0.27453E-02  8112   0.623E-01 0.102E-03
CGA:  24    -0.386013518075E+03   -0.35953E-02   -0.35932E-02  8112   0.374E-01 0.275E-03
CGA:  25    -0.386015550220E+03   -0.20321E-02   -0.20320E-02  8112   0.455E-01 0.918E-04
CGA:  26    -0.386017507217E+03   -0.19570E-02   -0.19599E-02  8112   0.200E-01 0.825E-04
CGA:  27    -0.386019019903E+03   -0.15127E-02   -0.15103E-02  8112   0.131E-01 0.911E-04
CGA:  28    -0.386019845491E+03   -0.82559E-03   -0.82538E-03  8112   0.184E-01 0.251E-04
CGA:  29    -0.386020506825E+03   -0.66133E-03   -0.66177E-03  8112   0.808E-02 0.186E-04
CGA:  30    -0.386021107106E+03   -0.60028E-03   -0.59959E-03  8112   0.552E-02 0.307E-04
CGA:  31    -0.386021372457E+03   -0.26535E-03   -0.26530E-03  8112   0.593E-02-0.646E-06
SDA:  32    -0.386021706481E+03   -0.33402E-03   -0.33405E-03  8112   0.318E-02-0.528E-05
CGA:  33    -0.386021816440E+03   -0.10996E-03   -0.11009E-03  8112   0.152E-02-0.191E-05
CGA:  34    -0.386021894876E+03   -0.78436E-04   -0.78430E-04  8112   0.227E-02-0.323E-05
CGA:  35    -0.386022159432E+03   -0.26456E-03   -0.26557E-03  8112   0.225E-02-0.160E-04
CGA:  36    -0.386022257374E+03   -0.97943E-04   -0.97781E-04  8112   0.151E-02-0.739E-05
CGA:  37    -0.386022310110E+03   -0.52736E-04   -0.52648E-04  8112   0.554E-03-0.823E-06
CGA:  38    -0.386022410068E+03   -0.99959E-04   -0.99031E-04  8112   0.114E-02 0.724E-05
CGA:  39    -0.386022502143E+03   -0.92074E-04   -0.91969E-04  8112   0.305E-03 0.613E-05
CGA:  40    -0.386022525471E+03   -0.23328E-04   -0.23338E-04  8112   0.330E-03-0.574E-06
CGA:  41    -0.386022554024E+03   -0.28553E-04   -0.28616E-04  8112   0.845E-03-0.249E-05
CGA:  42    -0.386022592674E+03   -0.38649E-04   -0.38563E-04  8112   0.153E-03-0.415E-05
CGA:  43    -0.386022603238E+03   -0.10564E-04   -0.10564E-04  8112   0.224E-03 0.773E-07
CGA:  44    -0.386022612527E+03   -0.92894E-05   -0.93174E-05  8112   0.199E-03 0.126E-05
CGA:  45    -0.386022638368E+03   -0.25841E-04   -0.25349E-04  8112   0.754E-04 0.764E-05
CGA:  46    -0.386022643738E+03   -0.53700E-05   -0.53631E-05  8112   0.732E-04 0.222E-05
CGA:  47    -0.386022655103E+03   -0.11365E-04   -0.10949E-04  8112   0.143E-03 0.519E-05
CGA:  48    -0.386022659691E+03   -0.45882E-05   -0.46653E-05  8112   0.654E-04 0.198E-05
  17 F= -.38602266E+03 E0= -.38600331E+03  d E =0.131799E+00  mag=    16.0000
       N       E                     dE             d eps       ncg     rms          ort
SDA:   1    -0.365754096818E+03    0.20269E+02    0.00000E+00  8112   0.653E+02 0.000E+00
CGA:   2    -0.373025299271E+03   -0.72712E+01   -0.70018E+01  8112   0.169E+03 0.689E+01
CGA:   3    -0.379825497600E+03   -0.68002E+01   -0.58560E+01  8112   0.403E+02 0.125E+02
CGA:   4    -0.381921612571E+03   -0.20961E+01   -0.20906E+01  8112   0.267E+02-0.442E+00
CGA:   5    -0.383572886232E+03   -0.16513E+01   -0.16494E+01  8112   0.396E+02-0.195E+00
CGA:   6    -0.384865527742E+03   -0.12926E+01   -0.12243E+01  8112   0.785E+01 0.406E+00
CGA:   7    -0.385267766722E+03   -0.40224E+00   -0.40568E+00  8112   0.646E+01 0.568E-01
CGA:   8    -0.385424422421E+03   -0.15666E+00   -0.16580E+00  8112   0.394E+01-0.265E+00
CGA:   9    -0.385639997398E+03   -0.21557E+00   -0.21586E+00  8112   0.222E+01 0.252E-01
CGA:  10    -0.385734180539E+03   -0.94183E-01   -0.93815E-01  8112   0.142E+01-0.260E-03
CGA:  11    -0.385770494421E+03   -0.36314E-01   -0.37374E-01  8112   0.455E+00-0.238E-01
CGA:  12    -0.385809708497E+03   -0.39214E-01   -0.38494E-01  8112   0.397E+00 0.215E-01
CGA:  13    -0.385838806990E+03   -0.29098E-01   -0.29001E-01  8112   0.191E+00 0.644E-02
CGA:  14    -0.385846180717E+03   -0.73737E-02   -0.74709E-02  8112   0.182E+00-0.277E-03
CGA:  15    -0.385854877910E+03   -0.86972E-02   -0.87161E-02  8112   0.123E+00 0.433E-03
CGA:  16    -0.385864561733E+03   -0.96838E-02   -0.95930E-02  8112   0.966E-01 0.355E-02
CGA:  17    -0.385868191170E+03   -0.36294E-02   -0.36389E-02  8112   0.859E-01-0.354E-04
CGA:  18    -0.385873395479E+03   -0.52043E-02   -0.51976E-02  8112   0.578E-01 0.192E-02
CGA:  19    -0.385879826480E+03   -0.64310E-02   -0.63604E-02  8112   0.485E-01 0.136E-02
CGA:  20    -0.385883332693E+03   -0.35062E-02   -0.35031E-02  8112   0.566E-01 0.207E-03
CGA:  21    -0.385885508248E+03   -0.21756E-02   -0.21875E-02  8112   0.416E-01-0.260E-04
CGA:  22    -0.385888731777E+03   -0.32235E-02   -0.32212E-02  8112   0.265E-01 0.102E-03
CGA:  23    -0.385890214347E+03   -0.14826E-02   -0.14829E-02  8112   0.254E-01 0.363E-04
CGA:  24    -0.385891163799E+03   -0.94945E-03   -0.95043E-03  8112   0.132E-01 0.108E-04
CGA:  25    -0.385892386558E+03   -0.12228E-02   -0.12218E-02  8112   0.800E-02 0.273E-04
CGA:  26    -0.385893046988E+03   -0.66043E-03   -0.65998E-03  8112   0.505E-02 0.197E-04
CGA:  27    -0.385893344435E+03   -0.29745E-03   -0.29743E-03  8112   0.657E-02 0.417E-06
CGA:  28    -0.385893620337E+03   -0.27590E-03   -0.27593E-03  8112   0.363E-02 0.171E-05
CGA:  29    -0.385893901544E+03   -0.28121E-03   -0.28135E-03  8112   0.207E-02-0.653E-05
CGA:  30    -0.385894032547E+03   -0.13100E-03   -0.13101E-03  8112   0.249E-02-0.375E-05
CGA:  31    -0.385894140773E+03   -0.10823E-03   -0.10800E-03  8112   0.167E-02-0.384E-05
SDA:  32    -0.385894281446E+03   -0.14067E-03   -0.14083E-03  8112   0.990E-03-0.596E-05
CGA:  33    -0.385894320020E+03   -0.38573E-04   -0.38593E-04  8112   0.432E-03 0.888E-06
CGA:  34    -0.385894358140E+03   -0.38120E-04   -0.38064E-04  8112   0.134E-02 0.215E-05
CGA:  35    -0.385894441308E+03   -0.83168E-04   -0.83173E-04  8112   0.526E-03 0.532E-05
CGA:  36    -0.385894479259E+03   -0.37951E-04   -0.37959E-04  8112   0.266E-03-0.670E-06
CGA:  37    -0.385894490180E+03   -0.10922E-04   -0.10903E-04  8112   0.305E-03-0.694E-06
CGA:  38    -0.385894533288E+03   -0.43108E-04   -0.43599E-04  8112   0.382E-03-0.608E-05
CGA:  39    -0.385894555873E+03   -0.22585E-04   -0.22571E-04  8112   0.995E-04-0.250E-05
CGA:  40    -0.385894568756E+03   -0.12884E-04   -0.12825E-04  8112   0.275E-03 0.913E-06
CGA:  41    -0.385894583400E+03   -0.14643E-04   -0.14676E-04  8112   0.273E-03 0.217E-05
CGA:  42    -0.385894594905E+03   -0.11506E-04   -0.11557E-04  8112   0.596E-04 0.196E-05
CGA:  43    -0.385894599411E+03   -0.45059E-05   -0.44965E-05  8112   0.101E-03 0.122E-05
  18 F= -.38589460E+03 E0= -.38587547E+03  d E =0.128060E+00  mag=    16.0000
       N       E                     dE             d eps       ncg     rms          ort
SDA:   1    -0.380609157103E+03    0.52854E+01    0.00000E+00  8112   0.164E+02 0.000E+00
CGA:   2    -0.382547839382E+03   -0.19387E+01   -0.19596E+01  8112   0.540E+02-0.261E+00
CGA:   3    -0.384323698401E+03   -0.17759E+01   -0.17760E+01  8112   0.135E+02-0.413E+00
CGA:   4    -0.384863527322E+03   -0.53983E+00   -0.54981E+00  8112   0.590E+01-0.682E-01
CGA:   5    -0.385216703091E+03   -0.35318E+00   -0.35311E+00  8112   0.911E+01-0.273E-03
CGA:   6    -0.385593340132E+03   -0.37664E+00   -0.37182E+00  8112   0.219E+01 0.224E-01
CGA:   7    -0.385722491498E+03   -0.12915E+00   -0.13004E+00  8112   0.571E+00 0.717E-01
CGA:   8    -0.385754642764E+03   -0.32151E-01   -0.32298E-01  8112   0.842E+00 0.524E-02
CGA:   9    -0.385795182088E+03   -0.40539E-01   -0.40561E-01  8112   0.468E+00 0.226E-03
CGA:  10    -0.385815004040E+03   -0.19822E-01   -0.19800E-01  8112   0.849E-01-0.576E-05
CGA:  11    -0.385818879263E+03   -0.38752E-02   -0.38765E-02  8112   0.102E+00-0.438E-06
CGA:  12    -0.385825797296E+03   -0.69180E-02   -0.69117E-02  8112   0.906E-01 0.578E-03
CGA:  13    -0.385830918085E+03   -0.51208E-02   -0.51234E-02  8112   0.163E-01 0.206E-03
CGA:  14    -0.385831869325E+03   -0.95124E-03   -0.95122E-03  8112   0.304E-01 0.119E-05
CGA:  15    -0.385833698475E+03   -0.18292E-02   -0.18293E-02  8112   0.243E-01 0.776E-04
CGA:  16    -0.385835439994E+03   -0.17415E-02   -0.17409E-02  8112   0.121E-01 0.425E-04
CGA:  17    -0.385836013126E+03   -0.57313E-03   -0.57376E-03  8112   0.133E-01 0.113E-04
CGA:  18    -0.385836844443E+03   -0.83132E-03   -0.83124E-03  8112   0.136E-01 0.211E-04
CGA:  19    -0.385838331210E+03   -0.14868E-02   -0.14871E-02  8112   0.103E-01-0.684E-05
CGA:  20    -0.385838654906E+03   -0.32370E-03   -0.32396E-03  8112   0.650E-02-0.324E-05
CGA:  21    -0.385839052464E+03   -0.39756E-03   -0.39756E-03  8112   0.526E-02 0.152E-04
CGA:  22    -0.385839726046E+03   -0.67358E-03   -0.67103E-03  8112   0.325E-02 0.390E-04
CGA:  23    -0.385839817173E+03   -0.91127E-04   -0.91372E-04  8112   0.157E-02-0.139E-05
CGA:  24    -0.385840022393E+03   -0.20522E-03   -0.20547E-03  8112   0.229E-02-0.362E-05
CGA:  25    -0.385840151791E+03   -0.12940E-03   -0.12934E-03  8112   0.105E-02-0.412E-05
CGA:  26    -0.385840188402E+03   -0.36611E-04   -0.36583E-04  8112   0.783E-03-0.114E-07
CGA:  27    -0.385840245344E+03   -0.56941E-04   -0.56943E-04  8112   0.662E-03-0.135E-06
CGA:  28    -0.385840303279E+03   -0.57936E-04   -0.57910E-04  8112   0.929E-03 0.130E-05
CGA:  29    -0.385840331222E+03   -0.27942E-04   -0.27961E-04  8112   0.210E-03 0.140E-05
CGA:  30    -0.385840353461E+03   -0.22239E-04   -0.22229E-04  8112   0.297E-03 0.254E-06
CGA:  31    -0.385840384742E+03   -0.31282E-04   -0.31202E-04  8112   0.386E-03 0.209E-05
SDA:  32    -0.385840395560E+03   -0.10818E-04   -0.10833E-04  8112   0.878E-04 0.559E-06
CGA:  33    -0.385840399914E+03   -0.43534E-05   -0.43444E-05  8112   0.116E-03-0.523E-06
  19 F= -.38584040E+03 E0= -.38582127E+03  d E =0.541995E-01  mag=    16.0000
       N       E                     dE             d eps       ncg     rms          ort
SDA:   1    -0.378923736527E+03    0.69167E+01    0.00000E+00  8112   0.210E+02 0.000E+00
CGA:   2    -0.381560152151E+03   -0.26364E+01   -0.26558E+01  8112   0.725E+02-0.119E+00
CGA:   3    -0.383852911432E+03   -0.22928E+01   -0.21981E+01  8112   0.150E+02 0.174E+01
CGA:   4    -0.384516480530E+03   -0.66357E+00   -0.64884E+00  8112   0.804E+01 0.460E-01
CGA:   5    -0.384904502954E+03   -0.38802E+00   -0.39078E+00  8112   0.105E+02 0.316E-01
CGA:   6    -0.385479622498E+03   -0.57512E+00   -0.56901E+00  8112   0.243E+01-0.170E+00
CGA:   7    -0.385604119701E+03   -0.12450E+00   -0.12520E+00  8112   0.947E+00 0.168E-01
CGA:   8    -0.385640095735E+03   -0.35976E-01   -0.36607E-01  8112   0.978E+00-0.447E-02
CGA:   9    -0.385703991460E+03   -0.63896E-01   -0.63884E-01  8112   0.465E+00 0.194E-02
CGA:  10    -0.385724320429E+03   -0.20329E-01   -0.20397E-01  8112   0.149E+00 0.367E-03
CGA:  11    -0.385729698769E+03   -0.53783E-02   -0.53764E-02  8112   0.116E+00-0.101E-04
CGA:  12    -0.385737366262E+03   -0.76675E-02   -0.76638E-02  8112   0.107E+00 0.379E-03
CGA:  13    -0.385745707188E+03   -0.83409E-02   -0.83275E-02  8112   0.187E-01 0.560E-03
CGA:  14    -0.385746826677E+03   -0.11195E-02   -0.11198E-02  8112   0.381E-01 0.824E-04
CGA:  15    -0.385749912126E+03   -0.30854E-02   -0.30848E-02  8112   0.329E-01 0.375E-04
CGA:  16    -0.385751545470E+03   -0.16333E-02   -0.16360E-02  8112   0.125E-01 0.649E-04
CGA:  17    -0.385752305545E+03   -0.76008E-03   -0.76014E-03  8112   0.226E-01 0.294E-04
CGA:  18    -0.385753839065E+03   -0.15335E-02   -0.15336E-02  8112   0.218E-01-0.220E-04
CGA:  19    -0.385755501409E+03   -0.16623E-02   -0.16618E-02  8112   0.730E-02 0.186E-04
CGA:  20    -0.385756021453E+03   -0.52004E-03   -0.51985E-03  8112   0.121E-01 0.196E-04
CGA:  21    -0.385756607524E+03   -0.58607E-03   -0.58633E-03  8112   0.936E-02 0.238E-04
CGA:  22    -0.385757232223E+03   -0.62470E-03   -0.62453E-03  8112   0.387E-02 0.339E-04
CGA:  23    -0.385757402941E+03   -0.17072E-03   -0.17079E-03  8112   0.311E-02 0.409E-05
[...]
CGA:  10    -0.386707566121E+03   -0.51689E-01   -0.53331E-01  8112   0.102E+01-0.413E-02
CGA:  11    -0.386735748904E+03   -0.28183E-01   -0.30549E-01  8112   0.996E+00-0.170E-01
CGA:  12    -0.386774255802E+03   -0.38507E-01   -0.38328E-01  8112   0.808E+00-0.366E-02
CGA:  13    -0.386799928929E+03   -0.25673E-01   -0.26583E-01  8112   0.301E+00 0.130E-02
CGA:  14    -0.386812433539E+03   -0.12505E-01   -0.12607E-01  8112   0.105E+00 0.505E-02
CGA:  15    -0.386817584383E+03   -0.51508E-02   -0.51511E-02  8112   0.122E+00 0.904E-03
CGA:  16    -0.386824169047E+03   -0.65847E-02   -0.65360E-02  8112   0.911E-01 0.592E-02
CGA:  17    -0.386827135808E+03   -0.29668E-02   -0.29720E-02  8112   0.474E-01-0.488E-04
CGA:  18    -0.386829584904E+03   -0.24491E-02   -0.24417E-02  8112   0.266E-01 0.108E-02
CGA:  19    -0.386830927114E+03   -0.13422E-02   -0.13420E-02  8112   0.178E-01 0.807E-04
CGA:  20    -0.386831781200E+03   -0.85409E-03   -0.85422E-03  8112   0.126E-01 0.273E-03
CGA:  21    -0.386832619748E+03   -0.83855E-03   -0.83867E-03  8112   0.134E-01-0.103E-04
CGA:  22    -0.386833077001E+03   -0.45725E-03   -0.45887E-03  8112   0.747E-02 0.153E-04
CGA:  23    -0.386833600871E+03   -0.52387E-03   -0.52389E-03  8112   0.564E-02-0.219E-05
CGA:  24    -0.386833880518E+03   -0.27965E-03   -0.27962E-03  8112   0.466E-02 0.509E-04
CGA:  25    -0.386834184406E+03   -0.30389E-03   -0.30379E-03  8112   0.367E-02 0.436E-05
CGA:  26    -0.386834407435E+03   -0.22303E-03   -0.22299E-03  8112   0.568E-02 0.212E-05
CGA:  27    -0.386834648956E+03   -0.24152E-03   -0.24156E-03  8112   0.193E-02 0.442E-05
CGA:  28    -0.386834752247E+03   -0.10329E-03   -0.10327E-03  8112   0.154E-02 0.399E-05
CGA:  29    -0.386834851659E+03   -0.99413E-04   -0.99436E-04  8112   0.153E-02-0.197E-05
CGA:  30    -0.386834953620E+03   -0.10196E-03   -0.10193E-03  8112   0.126E-02 0.155E-05
CGA:  31    -0.386835004481E+03   -0.50861E-04   -0.50917E-04  8112   0.100E-02 0.300E-05
SDA:  32    -0.386835052228E+03   -0.47747E-04   -0.47752E-04  8112   0.462E-03 0.110E-05
CGA:  33    -0.386835072394E+03   -0.20166E-04   -0.20160E-04  8112   0.376E-03-0.988E-06
CGA:  34    -0.386835091140E+03   -0.18745E-04   -0.18745E-04  8112   0.476E-03-0.793E-06
CGA:  35    -0.386835126807E+03   -0.35667E-04   -0.35653E-04  8112   0.478E-03 0.327E-06
CGA:  36    -0.386835153223E+03   -0.26416E-04   -0.26423E-04  8112   0.254E-03-0.197E-05
CGA:  37    -0.386835170580E+03   -0.17357E-04   -0.17378E-04  8112   0.197E-03-0.145E-05
CGA:  38    -0.386835189268E+03   -0.18687E-04   -0.18804E-04  8112   0.315E-03-0.296E-05
CGA:  39    -0.386835201152E+03   -0.11884E-04   -0.11852E-04  8112   0.254E-03-0.202E-05
CGA:  40    -0.386835214202E+03   -0.13050E-04   -0.13046E-04  8112   0.985E-04-0.135E-05
CGA:  41    -0.386835225659E+03   -0.11457E-04   -0.11513E-04  8112   0.177E-03-0.107E-05
CGA:  42    -0.386835233311E+03   -0.76519E-05   -0.76401E-05  8112   0.639E-04-0.758E-06
  96 F= -.38683523E+03 E0= -.38681949E+03  d E =0.191241E-01  mag=    12.0000
       N       E                     dE             d eps       ncg     rms          ort
SDA:   1    -0.376687662005E+03    0.10148E+02    0.00000E+00  8112   0.455E+02 0.000E+00
CGA:   2    -0.378328205287E+03   -0.16405E+01   -0.19304E+01  8112   0.492E+02 0.225E+01
CGA:   3    -0.382664561768E+03   -0.43364E+01   -0.49630E+01  8112   0.117E+03-0.239E+02
CGA:   4    -0.384106882459E+03   -0.14423E+01   -0.12982E+01  8112   0.883E+02 0.625E+01
CGA:   5    -0.384976588527E+03   -0.86971E+00   -0.80599E+00  8112   0.109E+02 0.329E+01
CGA:   6    -0.385228915143E+03   -0.25233E+00   -0.27441E+00  8112   0.206E+02-0.448E+00
CGA:   7    -0.385939625148E+03   -0.71071E+00   -0.72393E+00  8112   0.167E+02 0.842E-01
CGA:   8    -0.386236976140E+03   -0.29735E+00   -0.26544E+00  8112   0.102E+02 0.170E+01
CGA:   9    -0.386472328681E+03   -0.23535E+00   -0.18409E+00  8112   0.470E+01 0.269E+01
CGA:  10    -0.386549800083E+03   -0.77471E-01   -0.80083E-01  8112   0.195E+01-0.164E+00
CGA:  11    -0.386606221285E+03   -0.56421E-01   -0.56677E-01  8112   0.196E+01 0.596E-04
CGA:  12    -0.386650143143E+03   -0.43922E-01   -0.44888E-01  8112   0.203E+01-0.186E-01
CGA:  13    -0.386720141368E+03   -0.69998E-01   -0.68963E-01  8112   0.217E+01-0.125E-01
CGA:  14    -0.386757044882E+03   -0.36904E-01   -0.40802E-01  8112   0.121E+01-0.130E+00
CGA:  15    -0.386788218525E+03   -0.31174E-01   -0.32168E-01  8112   0.576E+00-0.298E-02
CGA:  16    -0.386798585979E+03   -0.10367E-01   -0.10681E-01  8112   0.273E+00-0.995E-02
CGA:  17    -0.386811149057E+03   -0.12563E-01   -0.12548E-01  8112   0.403E+00 0.190E-02
CGA:  18    -0.386825455631E+03   -0.14307E-01   -0.14524E-01  8112   0.274E+00 0.112E-01
CGA:  19    -0.386833822369E+03   -0.83667E-02   -0.83329E-02  8112   0.181E+00-0.129E-03
CGA:  20    -0.386840746498E+03   -0.69241E-02   -0.69562E-02  8112   0.113E+00 0.478E-02
CGA:  21    -0.386845484348E+03   -0.47378E-02   -0.47405E-02  8112   0.105E+00 0.227E-02
CGA:  22    -0.386848741156E+03   -0.32568E-02   -0.32294E-02  8112   0.433E-01-0.364E-03
CGA:  23    -0.386850457686E+03   -0.17165E-02   -0.17179E-02  8112   0.313E-01 0.692E-03
CGA:  24    -0.386851863423E+03   -0.14057E-02   -0.13997E-02  8112   0.261E-01 0.101E-02
CGA:  25    -0.386853403473E+03   -0.15401E-02   -0.15491E-02  8112   0.392E-01-0.425E-03
CGA:  26    -0.386854780684E+03   -0.13772E-02   -0.13802E-02  8112   0.126E-01 0.181E-03
CGA:  27    -0.386855225427E+03   -0.44474E-03   -0.44572E-03  8112   0.694E-02 0.543E-04
CGA:  28    -0.386855506819E+03   -0.28139E-03   -0.28138E-03  8112   0.784E-02-0.752E-05
CGA:  29    -0.386856015438E+03   -0.50862E-03   -0.50715E-03  8112   0.101E-01 0.525E-04
CGA:  30    -0.386856413349E+03   -0.39791E-03   -0.39835E-03  8112   0.452E-02 0.659E-04
CGA:  31    -0.386856570915E+03   -0.15757E-03   -0.15767E-03  8112   0.333E-02 0.802E-05
SDA:  32    -0.386856713722E+03   -0.14281E-03   -0.14280E-03  8112   0.230E-02 0.341E-05
CGA:  33    -0.386856819272E+03   -0.10555E-03   -0.10557E-03  8112   0.148E-02-0.507E-05
CGA:  34    -0.386856921502E+03   -0.10223E-03   -0.10225E-03  8112   0.200E-02-0.127E-05
CGA:  35    -0.386857076338E+03   -0.15484E-03   -0.15493E-03  8112   0.303E-02-0.284E-05
CGA:  36    -0.386857166881E+03   -0.90544E-04   -0.90556E-04  8112   0.876E-03 0.137E-06
CGA:  37    -0.386857259391E+03   -0.92510E-04   -0.92336E-04  8112   0.967E-03 0.248E-05
CGA:  38    -0.386857336958E+03   -0.77567E-04   -0.77359E-04  8112   0.108E-02 0.610E-05
CGA:  39    -0.386857398850E+03   -0.61892E-04   -0.61898E-04  8112   0.608E-03-0.192E-06
CGA:  40    -0.386857445338E+03   -0.46488E-04   -0.46449E-04  8112   0.882E-03 0.120E-05
CGA:  41    -0.386857481846E+03   -0.36508E-04   -0.36522E-04  8112   0.731E-03 0.108E-05
CGA:  42    -0.386857519245E+03   -0.37400E-04   -0.37401E-04  8112   0.345E-03-0.659E-06
CGA:  43    -0.386857552212E+03   -0.32966E-04   -0.32895E-04  8112   0.282E-03 0.141E-05
CGA:  44    -0.386857576109E+03   -0.23898E-04   -0.23884E-04  8112   0.188E-03 0.290E-06
CGA:  45    -0.386857583600E+03   -0.74902E-05   -0.74921E-05  8112   0.133E-03-0.468E-07
  97 F= -.38685758E+03 E0= -.38684161E+03  d E =-.223503E-01  mag=    12.0000
       N       E                     dE             d eps       ncg     rms          ort
SDA:   1    -0.380281407934E+03    0.65762E+01    0.00000E+00  8112   0.175E+02 0.000E+00
CGA:   2    -0.383627273476E+03   -0.33459E+01   -0.31145E+01  8112   0.398E+02 0.222E+01
CGA:   3    -0.385135925218E+03   -0.15087E+01   -0.12522E+01  8112   0.110E+02 0.411E+01
CGA:   4    -0.385782420222E+03   -0.64650E+00   -0.62718E+00  8112   0.915E+01-0.101E+01
CGA:   5    -0.386284327864E+03   -0.50191E+00   -0.50117E+00  8112   0.890E+01 0.172E+00
CGA:   6    -0.386572369466E+03   -0.28804E+00   -0.26835E+00  8112   0.377E+01 0.349E+00
CGA:   7    -0.386687933706E+03   -0.11556E+00   -0.11035E+00  8112   0.102E+01 0.899E-01
CGA:   8    -0.386737277267E+03   -0.49344E-01   -0.49527E-01  8112   0.123E+01 0.793E-02
CGA:   9    -0.386775959279E+03   -0.38682E-01   -0.39175E-01  8112   0.608E+00-0.481E-02
CGA:  10    -0.386809324732E+03   -0.33365E-01   -0.33366E-01  8112   0.413E+00-0.157E-03
CGA:  11    -0.386822662311E+03   -0.13338E-01   -0.13306E-01  8112   0.209E+00 0.172E-03
CGA:  12    -0.386828758397E+03   -0.60961E-02   -0.61163E-02  8112   0.866E-01-0.215E-03
CGA:  13    -0.386833358467E+03   -0.46001E-02   -0.45993E-02  8112   0.826E-01 0.246E-03
CGA:  14    -0.386837837914E+03   -0.44794E-02   -0.44776E-02  8112   0.780E-01 0.419E-03
CGA:  15    -0.386839809262E+03   -0.19713E-02   -0.19789E-02  8112   0.243E-01-0.138E-03
CGA:  16    -0.386841640933E+03   -0.18317E-02   -0.18313E-02  8112   0.213E-01 0.119E-04
CGA:  17    -0.386842391227E+03   -0.75029E-03   -0.75047E-03  8112   0.156E-01 0.616E-05
CGA:  18    -0.386842989611E+03   -0.59838E-03   -0.59861E-03  8112   0.933E-02 0.380E-05
CGA:  19    -0.386843536781E+03   -0.54717E-03   -0.54665E-03  8112   0.992E-02 0.392E-04
CGA:  20    -0.386844202322E+03   -0.66554E-03   -0.66472E-03  8112   0.117E-01 0.373E-04
CGA:  21    -0.386844526740E+03   -0.32442E-03   -0.32418E-03  8112   0.498E-02 0.270E-05
CGA:  22    -0.386844838575E+03   -0.31184E-03   -0.31169E-03  8112   0.326E-02 0.852E-05
CGA:  23    -0.386845064197E+03   -0.22562E-03   -0.22552E-03  8112   0.705E-02 0.516E-05
CGA:  24    -0.386845369734E+03   -0.30554E-03   -0.30552E-03  8112   0.424E-02 0.215E-05
CGA:  25    -0.386845547510E+03   -0.17778E-03   -0.17796E-03  8112   0.203E-02 0.719E-05
CGA:  26    -0.386845653776E+03   -0.10627E-03   -0.10626E-03  8112   0.149E-02 0.470E-05
CGA:  27    -0.386845712089E+03   -0.58313E-04   -0.58320E-04  8112   0.177E-02 0.153E-05
CGA:  28    -0.386845848206E+03   -0.13612E-03   -0.13590E-03  8112   0.105E-02 0.778E-05
CGA:  29    -0.386845892559E+03   -0.44353E-04   -0.44376E-04  8112   0.691E-03 0.210E-05
CGA:  30    -0.386845919109E+03   -0.26550E-04   -0.26542E-04  8112   0.639E-03-0.457E-06
CGA:  31    -0.386845956985E+03   -0.37876E-04   -0.37890E-04  8112   0.576E-03-0.148E-05
SDA:  32    -0.386845989620E+03   -0.32636E-04   -0.32639E-04  8112   0.442E-03-0.758E-06
CGA:  33    -0.386846001652E+03   -0.12032E-04   -0.12016E-04  8112   0.189E-03-0.641E-06
CGA:  34    -0.386846010970E+03   -0.93175E-05   -0.93172E-05  8112   0.200E-03-0.682E-07
CGA:  35    -0.386846026000E+03   -0.15030E-04   -0.15034E-04  8112   0.273E-03-0.159E-06
CGA:  36    -0.386846045468E+03   -0.19469E-04   -0.19501E-04  8112   0.217E-03-0.164E-05
CGA:  37    -0.386846058788E+03   -0.13320E-04   -0.13329E-04  8112   0.786E-04-0.107E-05
CGA:  38    -0.386846071281E+03   -0.12493E-04   -0.12740E-04  8112   0.173E-03-0.228E-05
CGA:  39    -0.386846076074E+03   -0.47928E-05   -0.47657E-05  8112   0.910E-04-0.873E-06
  98 F= -.38684608E+03 E0= -.38682958E+03  d E =0.115075E-01  mag=    12.0000
       N       E                     dE             d eps       ncg     rms          ort
SDA:   1    -0.384711789941E+03    0.21343E+01    0.00000E+00  8112   0.660E+01 0.000E+00
CGA:   2    -0.385231019551E+03   -0.51923E+00   -0.51795E+00  8112   0.198E+02 0.465E-01
CGA:   3    -0.386211317984E+03   -0.98030E+00   -0.98209E+00  8112   0.617E+01 0.695E-01
CGA:   4    -0.386473292036E+03   -0.26197E+00   -0.24979E+00  8112   0.264E+01-0.399E-01
CGA:   5    -0.386638011876E+03   -0.16472E+00   -0.16380E+00  8112   0.205E+01 0.984E-01
CGA:   6    -0.386783297916E+03   -0.14529E+00   -0.14583E+00  8112   0.731E+00-0.331E-01
CGA:   7    -0.386812331576E+03   -0.29034E-01   -0.29155E-01  8112   0.488E+00 0.488E-03
CGA:   8    -0.386827062223E+03   -0.14731E-01   -0.14783E-01  8112   0.195E+00-0.632E-03
CGA:   9    -0.386842780929E+03   -0.15719E-01   -0.15775E-01  8112   0.129E+00-0.178E-02
CGA:  10    -0.386851061414E+03   -0.82805E-02   -0.82615E-02  8112   0.646E-01 0.151E-02
CGA:  11    -0.386852885799E+03   -0.18244E-02   -0.18199E-02  8112   0.252E-01 0.896E-04
CGA:  12    -0.386854294922E+03   -0.14091E-02   -0.14091E-02  8112   0.328E-01-0.898E-04
CGA:  13    -0.386856206142E+03   -0.19112E-02   -0.19107E-02  8112   0.154E-01 0.937E-04
CGA:  14    -0.386856966159E+03   -0.76002E-03   -0.76021E-03  8112   0.529E-02 0.235E-05
CGA:  15    -0.386857232620E+03   -0.26646E-03   -0.26647E-03  8112   0.689E-02-0.593E-06
CGA:  16    -0.386857567922E+03   -0.33530E-03   -0.33541E-03  8112   0.484E-02 0.432E-05
CGA:  17    -0.386857879920E+03   -0.31200E-03   -0.31192E-03  8112   0.251E-02 0.546E-05
CGA:  18    -0.386858014474E+03   -0.13455E-03   -0.13458E-03  8112   0.261E-02 0.568E-05
CGA:  19    -0.386858179433E+03   -0.16496E-03   -0.16491E-03  8112   0.251E-02 0.569E-05
CGA:  20    -0.386858268973E+03   -0.89540E-04   -0.89616E-04  8112   0.156E-02 0.113E-05
CGA:  21    -0.386858382958E+03   -0.11399E-03   -0.11390E-03  8112   0.133E-02 0.388E-05
CGA:  22    -0.386858503042E+03   -0.12008E-03   -0.11991E-03  8112   0.110E-02 0.482E-05
CGA:  23    -0.386858536785E+03   -0.33742E-04   -0.33767E-04  8112   0.607E-03 0.798E-06
CGA:  24    -0.386858572709E+03   -0.35925E-04   -0.35926E-04  8112   0.492E-03-0.418E-06
CGA:  25    -0.386858600643E+03   -0.27934E-04   -0.27933E-04  8112   0.455E-03 0.182E-05
CGA:  26    -0.386858633735E+03   -0.33092E-04   -0.33096E-04  8112   0.202E-03-0.319E-06
CGA:  27    -0.386858640361E+03   -0.66262E-05   -0.66391E-05  8112   0.162E-03 0.319E-06
CGA:  28    -0.386858652381E+03   -0.12020E-04   -0.11999E-04  8112   0.139E-03 0.110E-05
CGA:  29    -0.386858665332E+03   -0.12951E-04   -0.12912E-04  8112   0.947E-04 0.994E-06
CGA:  30    -0.386858668769E+03   -0.34373E-05   -0.34428E-05  8112   0.739E-04 0.161E-06
  99 F= -.38685867E+03 E0= -.38684251E+03  d E =-.125927E-01  mag=    12.0000
       N       E                     dE             d eps       ncg     rms          ort
SDA:   1    -0.386460724201E+03    0.39794E+00    0.00000E+00  8112   0.142E+01 0.000E+00
CGA:   2    -0.386537571361E+03   -0.76847E-01   -0.76890E-01  8112   0.226E+01 0.471E-02
CGA:   3    -0.386717572623E+03   -0.18000E+00   -0.18063E+00  8112   0.265E+01-0.222E-01
CGA:   4    -0.386785838761E+03   -0.68266E-01   -0.66153E-01  8112   0.447E+00 0.489E-01
CGA:   5    -0.386816828882E+03   -0.30990E-01   -0.30989E-01  8112   0.342E+00 0.550E-04
CGA:   6    -0.386842832738E+03   -0.26004E-01   -0.25977E-01  8112   0.160E+00 0.112E-02
CGA:   7    -0.386850254043E+03   -0.74213E-02   -0.74190E-02  8112   0.105E+00 0.100E-04
CGA:   8    -0.386853230604E+03   -0.29766E-02   -0.29838E-02  8112   0.347E-01-0.113E-03
CGA:   9    -0.386855163119E+03   -0.19325E-02   -0.19328E-02  8112   0.282E-01 0.150E-03
CGA:  10    -0.386856849380E+03   -0.16863E-02   -0.16866E-02  8112   0.158E-01-0.697E-04
CGA:  11    -0.386857703825E+03   -0.85444E-03   -0.85468E-03  8112   0.392E-02 0.444E-04
CGA:  12    -0.386857964902E+03   -0.26108E-03   -0.26120E-03  8112   0.589E-02-0.965E-05
CGA:  13    -0.386858173263E+03   -0.20836E-03   -0.20838E-03  8112   0.292E-02-0.303E-05
CGA:  14    -0.386858342333E+03   -0.16907E-03   -0.16907E-03  8112   0.119E-02-0.187E-05
CGA:  15    -0.386858431471E+03   -0.89138E-04   -0.89181E-04  8112   0.108E-02-0.214E-05
CGA:  16    -0.386858487184E+03   -0.55713E-04   -0.55725E-04  8112   0.558E-03 0.108E-05
CGA:  17    -0.386858517031E+03   -0.29848E-04   -0.29851E-04  8112   0.460E-03 0.862E-06
CGA:  18    -0.386858539520E+03   -0.22489E-04   -0.22495E-04  8112   0.647E-03 0.666E-06
CGA:  19    -0.386858584418E+03   -0.44898E-04   -0.44839E-04  8112   0.256E-03 0.424E-05
CGA:  20    -0.386858600861E+03   -0.16442E-04   -0.16431E-04  8112   0.206E-03 0.142E-05
CGA:  21    -0.386858615995E+03   -0.15135E-04   -0.15131E-04  8112   0.276E-03 0.228E-06
CGA:  22    -0.386858636838E+03   -0.20843E-04   -0.20827E-04  8112   0.200E-03 0.879E-06
CGA:  23    -0.386858643683E+03   -0.68448E-05   -0.68579E-05  8112   0.152E-03 0.389E-06
 100 F= -.38685864E+03 E0= -.38684252E+03  d E =0.250864E-04  mag=    12.0000
       N       E                     dE             d eps       ncg     rms          ort
SDA:   1    -0.386589488213E+03    0.26915E+00    0.00000E+00  8112   0.784E+00 0.000E+00
CGA:   2    -0.386683138036E+03   -0.93650E-01   -0.96260E-01  8112   0.243E+01-0.415E-01
CGA:   3    -0.386780611150E+03   -0.97473E-01   -0.98038E-01  8112   0.869E+00 0.304E-02
CGA:   4    -0.386807376513E+03   -0.26765E-01   -0.27621E-01  8112   0.448E+00-0.124E-01
CGA:   5    -0.386828868278E+03   -0.21492E-01   -0.21508E-01  8112   0.237E+00 0.567E-03
CGA:   6    -0.386845256367E+03   -0.16388E-01   -0.16386E-01  8112   0.166E+00 0.131E-03
CGA:   7    -0.386851895413E+03   -0.66390E-02   -0.66402E-02  8112   0.813E-01 0.480E-04
CGA:   8    -0.386854421352E+03   -0.25259E-02   -0.25250E-02  8112   0.251E-01 0.253E-04
CGA:   9    -0.386855731174E+03   -0.13098E-02   -0.13089E-02  8112   0.249E-01-0.956E-04
CGA:  10    -0.386857160900E+03   -0.14297E-02   -0.14296E-02  8112   0.114E-01 0.294E-04
CGA:  11    -0.386857759853E+03   -0.59895E-03   -0.59900E-03  8112   0.628E-02 0.382E-05
CGA:  12    -0.386857941738E+03   -0.18189E-03   -0.18169E-03  8112   0.279E-02 0.184E-05
CGA:  13    -0.386858150632E+03   -0.20889E-03   -0.20902E-03  8112   0.281E-02-0.551E-05
CGA:  14    -0.386858281039E+03   -0.13041E-03   -0.13045E-03  8112   0.147E-02 0.174E-05
CGA:  15    -0.386858350485E+03   -0.69447E-04   -0.69439E-04  8112   0.821E-03-0.979E-06
CGA:  16    -0.386858389770E+03   -0.39284E-04   -0.39283E-04  8112   0.817E-03 0.152E-06
CGA:  17    -0.386858424378E+03   -0.34608E-04   -0.34608E-04  8112   0.317E-03 0.115E-06
CGA:  18    -0.386858447077E+03   -0.22699E-04   -0.22685E-04  8112   0.309E-03 0.645E-06
CGA:  19    -0.386858466636E+03   -0.19559E-04   -0.19557E-04  8112   0.427E-03 0.133E-06
CGA:  20    -0.386858485585E+03   -0.18950E-04   -0.18966E-04  8112   0.209E-03 0.143E-05
CGA:  21    -0.386858494792E+03   -0.92070E-05   -0.92160E-05  8112   0.161E-03 0.700E-06
CGA:  22    -0.386858505422E+03   -0.10629E-04   -0.10625E-04  8112   0.126E-03 0.349E-06
CGA:  23    -0.386858517927E+03   -0.12505E-04   -0.12499E-04  8112   0.241E-03 0.121E-06
CGA:  24    -0.386858525256E+03   -0.73289E-05   -0.73496E-05  8112   0.673E-04 0.648E-06
 101 F= -.38685853E+03 E0= -.38684238E+03  d E =0.118427E-03  mag=    12.0000
       N       E                     dE             d eps       ncg     rms          ort
SDA:   1    -0.386825932863E+03    0.32585E-01    0.00000E+00  8112   0.229E+00 0.000E+00
CGA:   2    -0.386832472440E+03   -0.65396E-02   -0.66667E-02  8112   0.127E+00-0.186E-02
CGA:   3    -0.386842494171E+03   -0.10022E-01   -0.99831E-02  8112   0.235E+00 0.126E-02
CGA:   4    -0.386851415585E+03   -0.89214E-02   -0.88691E-02  8112   0.449E-01-0.820E-04
CGA:   5    -0.386854638982E+03   -0.32234E-02   -0.32209E-02  8112   0.343E-01 0.114E-03
CGA:   6    -0.386856852617E+03   -0.22136E-02   -0.22139E-02  8112   0.323E-01-0.194E-04
CGA:   7    -0.386857798287E+03   -0.94567E-03   -0.94817E-03  8112   0.120E-01-0.315E-04
CGA:   8    -0.386858349160E+03   -0.55087E-03   -0.55091E-03  8112   0.347E-02 0.155E-05
CGA:   9    -0.386858570379E+03   -0.22122E-03   -0.22131E-03  8112   0.320E-02-0.729E-05
CGA:  10    -0.386858734853E+03   -0.16447E-03   -0.16449E-03  8112   0.222E-02 0.259E-05
CGA:  11    -0.386858819377E+03   -0.84524E-04   -0.84586E-04  8112   0.121E-02 0.255E-05
CGA:  12    -0.386858859833E+03   -0.40456E-04   -0.40443E-04  8112   0.304E-03 0.595E-06
CGA:  13    -0.386858895291E+03   -0.35458E-04   -0.35273E-04  8112   0.385E-03 0.288E-05
CGA:  14    -0.386858912269E+03   -0.16978E-04   -0.16991E-04  8112   0.284E-03 0.108E-05
CGA:  15    -0.386858922361E+03   -0.10092E-04   -0.10114E-04  8112   0.108E-03 0.115E-05
CGA:  16    -0.386858927950E+03   -0.55896E-05   -0.55907E-05  8112   0.100E-03 0.562E-06
 102 F= -.38685893E+03 E0= -.38684276E+03  d E =-.402694E-03  mag=    12.0000
