       N       E                     dE             d eps       ncg     rms          ort
DAV:   1     0.719721194512E+04    0.71972E+04   -0.36036E+05 36064   0.183E+03
DAV:   2     0.881733996200E+02   -0.71090E+04   -0.66873E+04 36064   0.540E+02
DAV:   3    -0.718335409975E+03   -0.80651E+03   -0.78524E+03 36064   0.199E+02
DAV:   4    -0.756522362149E+03   -0.38187E+02   -0.37903E+02 36064   0.402E+01
DAV:   5    -0.759332886685E+03   -0.28105E+01   -0.28014E+01 36064   0.809E+00
SDA:   6    -0.607150615126E+03    0.15218E+03   -0.28014E+01 36064   0.762E+02 0.000E+00
CGA:   7    -0.618023106922E+03   -0.10872E+02   -0.10996E+02 36064   0.121E+02 0.857E+00
CGA:   8    -0.620023413274E+03   -0.20003E+01   -0.20074E+01 36064   0.515E+01 0.827E-01
CGA:   9    -0.621194009948E+03   -0.11706E+01   -0.11669E+01 36064   0.250E+01 0.760E-01
CGA:  10    -0.621615682164E+03   -0.42167E+00   -0.42297E+00 36064   0.109E+01 0.256E-01
CGA:  11    -0.621842412724E+03   -0.22673E+00   -0.22644E+00 36064   0.393E+00 0.231E-01
CGA:  12    -0.621923602187E+03   -0.81189E-01   -0.81079E-01 36064   0.149E+00 0.165E-01
CGA:  13    -0.621955921375E+03   -0.32319E-01   -0.32101E-01 36064   0.435E-01 0.193E-01
CGA:  14    -0.621965847570E+03   -0.99262E-02   -0.98845E-02 36064   0.156E-01 0.960E-02
CGA:  15    -0.621970982063E+03   -0.51345E-02   -0.49429E-02 36064   0.776E-02 0.302E-02
CGA:  16    -0.621973190595E+03   -0.22085E-02   -0.21183E-02 36064   0.399E-02 0.315E-02
CGA:  17    -0.621974467053E+03   -0.12765E-02   -0.12315E-02 36064   0.215E-02 0.248E-02
CGA:  18    -0.621975301667E+03   -0.83461E-03   -0.84404E-03 36064   0.180E-02-0.509E-04
CGA:  19    -0.621975493539E+03   -0.19187E-03   -0.26571E-03 36064   0.960E-03 0.121E-02
CGA:  20    -0.621975605644E+03   -0.11210E-03   -0.14430E-03 36064   0.411E-03 0.549E-03
CGA:  21    -0.621975745455E+03   -0.13981E-03   -0.11549E-03 36064   0.277E-03 0.324E-03
CGA:  22    -0.621975798950E+03   -0.53495E-04   -0.55711E-04 36064   0.225E-03 0.258E-03
CGA:  23    -0.621975849521E+03   -0.50570E-04   -0.48934E-04 36064   0.186E-03 0.212E-03
CGA:  24    -0.621975888328E+03   -0.38807E-04   -0.38913E-04 36064   0.156E-03 0.176E-03
CGA:  25    -0.621975921312E+03   -0.32984E-04   -0.32900E-04 36064   0.133E-03 0.149E-03
CGA:  26    -0.621975949739E+03   -0.28427E-04   -0.28164E-04 36064   0.114E-03 0.127E-03
CGA:  27    -0.621975974734E+03   -0.24995E-04   -0.24465E-04 36064   0.983E-04 0.109E-03
CGA:  28    -0.621975997052E+03   -0.22319E-04   -0.21500E-04 36064   0.852E-04 0.943E-04
CGA:  29    -0.621976017202E+03   -0.20150E-04   -0.19064E-04 36064   0.741E-04 0.818E-04
CGA:  30    -0.621976035576E+03   -0.18373E-04   -0.17040E-04 36064   0.647E-04 0.713E-04
CGA:  31    -0.621976052467E+03   -0.16891E-04   -0.15337E-04 36064   0.566E-04 0.622E-04
CGA:  32    -0.621976068058E+03   -0.15592E-04   -0.13867E-04 36064   0.496E-04 0.544E-04
CGA:  33    -0.621976082676E+03   -0.14618E-04   -0.12682E-04 36064   0.436E-04 0.476E-04
CGA:  34    -0.621976095923E+03   -0.13247E-04   -0.11400E-04 36064   0.387E-04 0.416E-04
CGA:  35    -0.621976109131E+03   -0.13209E-04   -0.10932E-04 36064   0.352E-04 0.359E-04
CGA:  36    -0.621976118512E+03   -0.93805E-05   -0.86572E-05 36064   0.333E-04 0.304E-04
CGA:  37    -0.621976131291E+03   -0.12779E-04   -0.10573E-04 36064   0.380E-04 0.235E-04
CGA:  38    -0.621976135676E+03   -0.43852E-05   -0.59574E-05 36064   0.271E-04 0.220E-04
CGA:  39    -0.621976151070E+03   -0.15394E-04   -0.11711E-04 36064   0.383E-04 0.178E-04
CGA:  40    -0.621976153608E+03   -0.25379E-05   -0.47688E-05 36064   0.206E-04 0.201E-04
   1 F= -.62197615E+03 E0= -.62197615E+03  d E =-.621976E+03  mag=    24.0000
