       N       E                     dE             d eps       ncg     rms          ort
DAV:   1     0.897498494676E+04    0.89750E+04   -0.41405E+05  8208   0.179E+03
DAV:   2     0.626607600445E+03   -0.83484E+04   -0.78197E+04  8208   0.528E+02
DAV:   3    -0.354326021107E+03   -0.98093E+03   -0.94525E+03  8208   0.203E+02
DAV:   4    -0.397555362447E+03   -0.43229E+02   -0.42716E+02  8208   0.400E+01
DAV:   5    -0.399757701202E+03   -0.22023E+01   -0.21860E+01  8208   0.768E+00
SDA:   6    -0.192630775653E+03    0.20713E+03   -0.21860E+01  8208   0.139E+04 0.000E+00
CGA:   7    -0.303540727533E+03   -0.11091E+03   -0.10934E+03  8208   0.442E+03 0.169E+03
CGA:   8    -0.320132971226E+03   -0.16592E+02   -0.10622E+02  8208   0.216E+03 0.329E+03
CGA:   9    -0.327187044282E+03   -0.70541E+01   -0.63282E+01  8208   0.975E+02 0.165E+02
CGA:  10    -0.336217210128E+03   -0.90302E+01   -0.11240E+02  8208   0.187E+03-0.569E+01
CGA:  11    -0.338491009338E+03   -0.22738E+01   -0.50814E+01  8208   0.150E+03-0.105E+03
CGA:  12    -0.341243866491E+03   -0.27529E+01   -0.43418E+01  8208   0.104E+03-0.150E+02
CGA:  13    -0.327523628941E+03    0.13720E+02   -0.42045E+01  8208   0.519E+03-0.882E+02
CGA:  14    -0.333851458201E+03   -0.63278E+01   -0.14018E+02  8208   0.876E+03-0.155E+03
CGA:  15    -0.328034395823E+03    0.58171E+01   -0.21078E+02  8208   0.468E+03-0.153E+03
CGA:  16    -0.343488031922E+03   -0.15454E+02   -0.74815E+01  8208   0.481E+02 0.587E+02
CGA:  17    -0.345448135203E+03   -0.19601E+01   -0.14879E+01  8208   0.979E+02-0.120E+03
CGA:  18    -0.341301760591E+03    0.41464E+01   -0.36645E+01  8208   0.803E+03-0.997E+02
CGA:  19    -0.330867838496E+03    0.10434E+02   -0.38435E+02  8208   0.114E+04-0.303E+03
CGA:  20    -0.319317505918E+03    0.11550E+02   -0.18344E+02  8208   0.118E+04-0.273E+03
CGA:  21    -0.327659170498E+03   -0.83417E+01   -0.32237E+02  8208   0.109E+04-0.368E+03
CGA:  22    -0.326803474686E+03    0.85570E+00   -0.25057E+02  8208   0.342E+03-0.139E+03
CGA:  23    -0.334697586988E+03   -0.78941E+01   -0.30270E+01  8208   0.486E+03 0.541E+03
CGA:  24    -0.344638384909E+03   -0.99408E+01   -0.77535E+01  8208   0.156E+03-0.139E+03
CGA:  25    -0.344812349958E+03   -0.17397E+00   -0.19715E+01  8208   0.352E+03-0.343E+03
CGA:  26    -0.334032540575E+03    0.10780E+02   -0.12392E+02  8208   0.485E+03-0.203E+03
CGA:  27    -0.344538729361E+03   -0.10506E+02   -0.71539E+01  8208   0.431E+03-0.519E+03
CGA:  28    -0.342102443569E+03    0.24363E+01   -0.15306E+02  8208   0.178E+03-0.114E+03
CGA:  29    -0.347789919580E+03   -0.56875E+01   -0.25948E+01  8208   0.123E+03 0.159E+03
CGA:  30    -0.348162999840E+03   -0.37308E+00   -0.22497E+01  8208   0.928E+02-0.102E+03
CGA:  31    -0.348938681368E+03   -0.77568E+00   -0.12798E+01  8208   0.287E+02-0.511E+02
CGA:  32    -0.349161530609E+03   -0.22285E+00   -0.34453E+00  8208   0.697E+01-0.833E+01
CGA:  33    -0.349245638104E+03   -0.84107E-01   -0.72252E-01  8208   0.362E+01 0.680E+00
CGA:  34    -0.349333310696E+03   -0.87673E-01   -0.10348E+00  8208   0.709E+01-0.457E+00
CGA:  35    -0.349436820155E+03   -0.10351E+00   -0.53935E-01  8208   0.686E+01 0.566E+01
CGA:  36    -0.349509027620E+03   -0.72207E-01   -0.64470E-01  8208   0.134E+01 0.729E+00
CGA:  37    -0.349647437042E+03   -0.13841E+00   -0.12992E+00  8208   0.106E+02 0.258E+00
CGA:  38    -0.348543366374E+03    0.11041E+01   -0.23396E+00  8208   0.775E+02-0.910E+02
CGA:  39    -0.349624737718E+03   -0.10814E+01   -0.11663E+01  8208   0.127E+02-0.209E+02
CGA:  40    -0.349727928268E+03   -0.10319E+00   -0.16563E+00  8208   0.997E+01-0.279E+01
CGA:  41    -0.349862085360E+03   -0.13416E+00   -0.16183E+00  8208   0.600E+01-0.922E+00
CGA:  42    -0.350083384136E+03   -0.22130E+00   -0.23952E+00  8208   0.908E+01 0.389E+00
CGA:  43    -0.350233510422E+03   -0.15013E+00   -0.14908E+00  8208   0.339E+01 0.349E+00
CGA:  44    -0.350311083302E+03   -0.77573E-01   -0.76239E-01  8208   0.167E+01 0.667E-01
CGA:  45    -0.350383417519E+03   -0.72334E-01   -0.74760E-01  8208   0.238E+01 0.121E+00
CGA:  46    -0.350459280978E+03   -0.75863E-01   -0.79360E-01  8208   0.181E+01 0.821E-01
CGA:  47    -0.350513219896E+03   -0.53939E-01   -0.50179E-01  8208   0.866E+00 0.129E+00
CGA:  48    -0.350549536644E+03   -0.36317E-01   -0.37152E-01  8208   0.777E+00 0.337E-01
CGA:  49    -0.350598533406E+03   -0.48997E-01   -0.47915E-01  8208   0.835E+00 0.693E-01
CGA:  50    -0.350628806173E+03   -0.30273E-01   -0.29584E-01  8208   0.336E+00 0.218E-01
CGA:  51    -0.350645036480E+03   -0.16230E-01   -0.16263E-01  8208   0.311E+00 0.231E-01
CGA:  52    -0.350658731778E+03   -0.13695E-01   -0.13813E-01  8208   0.195E+00 0.572E-02
CGA:  53    -0.350668816139E+03   -0.10084E-01   -0.10023E-01  8208   0.918E-01 0.101E-01
CGA:  54    -0.350674329668E+03   -0.55135E-02   -0.54476E-02  8208   0.684E-01 0.409E-02
CGA:  55    -0.350678305338E+03   -0.39757E-02   -0.39443E-02  8208   0.711E-01 0.237E-02
CGA:  56    -0.350682354455E+03   -0.40491E-02   -0.40377E-02  8208   0.493E-01 0.876E-03
CGA:  57    -0.350685570101E+03   -0.32156E-02   -0.31441E-02  8208   0.289E-01 0.353E-02
CGA:  58    -0.350687382636E+03   -0.18125E-02   -0.18086E-02  8208   0.292E-01 0.243E-03
CGA:  59    -0.350689180494E+03   -0.17979E-02   -0.17924E-02  8208   0.255E-01 0.324E-03
CGA:  60    -0.350690900648E+03   -0.17202E-02   -0.16960E-02  8208   0.126E-01 0.115E-02
CGA:  61    -0.350691604938E+03   -0.70429E-03   -0.70372E-03  8208   0.902E-02 0.136E-03
CGA:  62    -0.350692185338E+03   -0.58040E-03   -0.57961E-03  8208   0.939E-02 0.406E-04
CGA:  63    -0.350692965109E+03   -0.77977E-03   -0.76493E-03  8208   0.705E-02 0.429E-03
CGA:  64    -0.350693359874E+03   -0.39476E-03   -0.39476E-03  8208   0.429E-02-0.429E-05
CGA:  65    -0.350693628430E+03   -0.26856E-03   -0.26848E-03  8208   0.393E-02-0.165E-06
CGA:  66    -0.350693945223E+03   -0.31679E-03   -0.31492E-03  8208   0.426E-02 0.543E-04
CGA:  67    -0.350694234991E+03   -0.28977E-03   -0.28886E-03  8208   0.310E-02 0.471E-04
CGA:  68    -0.350694434664E+03   -0.19967E-03   -0.19991E-03  8208   0.269E-02-0.196E-04
SDA:  69    -0.350694616900E+03   -0.18224E-03   -0.18181E-03  8208   0.258E-02 0.244E-04
CGA:  70    -0.350694678410E+03   -0.61509E-04   -0.61471E-04  8208   0.576E-03 0.175E-05
CGA:  71    -0.350694759860E+03   -0.81450E-04   -0.80410E-04  8208   0.186E-02 0.120E-04
CGA:  72    -0.350694942278E+03   -0.18242E-03   -0.18211E-03  8208   0.171E-02 0.949E-05
CGA:  73    -0.350695108521E+03   -0.16624E-03   -0.16577E-03  8208   0.894E-03 0.147E-04
CGA:  74    -0.350695160146E+03   -0.51625E-04   -0.51723E-04  8208   0.482E-03 0.119E-04
CGA:  75    -0.350695199616E+03   -0.39469E-04   -0.39304E-04  8208   0.632E-03 0.872E-05
CGA:  76    -0.350695228545E+03   -0.28930E-04   -0.29017E-04  8208   0.320E-03 0.572E-05
CGA:  77    -0.350695259865E+03   -0.31319E-04   -0.30988E-04  8208   0.233E-03 0.909E-05
CGA:  78    -0.350695299370E+03   -0.39505E-04   -0.38831E-04  8208   0.560E-03 0.668E-05
CGA:  79    -0.350695334189E+03   -0.34819E-04   -0.34859E-04  8208   0.205E-03 0.503E-05
CGA:  80    -0.350695350998E+03   -0.16809E-04   -0.16776E-04  8208   0.339E-03 0.191E-05
CGA:  81    -0.350695370018E+03   -0.19021E-04   -0.19050E-04  8208   0.175E-03 0.118E-05
CGA:  82    -0.350695388183E+03   -0.18165E-04   -0.18187E-04  8208   0.136E-03-0.861E-06
CGA:  83    -0.350695397089E+03   -0.89056E-05   -0.89013E-05  8208   0.788E-04-0.168E-05
   1 F= -.35069540E+03 E0= -.35067327E+03  d E =-.350695E+03  mag=    31.6427
       N       E                     dE             d eps       ncg     rms          ort
SDA:   1    -0.350690095004E+03    0.52932E-02    0.00000E+00  8208   0.312E+00 0.000E+00
CGA:   2    -0.350696222732E+03   -0.61277E-02   -0.57717E-02  8208   0.430E-02 0.153E-01
CGA:   3    -0.350696369387E+03   -0.14665E-03   -0.14708E-03  8208   0.957E-03-0.942E-05
CGA:   4    -0.350696405359E+03   -0.35972E-04   -0.35922E-04  8208   0.618E-03-0.191E-06
CGA:   5    -0.350696451270E+03   -0.45911E-04   -0.45916E-04  8208   0.246E-03-0.675E-06
CGA:   6    -0.350696467503E+03   -0.16232E-04   -0.16235E-04  8208   0.319E-03-0.255E-05
CGA:   7    -0.350696480142E+03   -0.12640E-04   -0.12579E-04  8208   0.897E-04-0.242E-05
CGA:   8    -0.350696488335E+03   -0.81923E-05   -0.82214E-05  8208   0.870E-04-0.101E-05
   2 F= -.35069649E+03 E0= -.35067447E+03  d E =-.109125E-02  mag=    31.6309
       N       E                     dE             d eps       ncg     rms          ort
SDA:   1    -0.350401370459E+03    0.29511E+00    0.00000E+00  8208   0.106E+01 0.000E+00
CGA:   2    -0.350592865884E+03   -0.19150E+00   -0.18756E+00  8208   0.143E+01 0.381E-01
CGA:   3    -0.350658016562E+03   -0.65151E-01   -0.66602E-01  8208   0.873E+00-0.583E-02
CGA:   4    -0.350701528353E+03   -0.43512E-01   -0.42991E-01  8208   0.554E+00-0.325E-02
CGA:   5    -0.350740820619E+03   -0.39292E-01   -0.39249E-01  8208   0.167E+00 0.650E-02
CGA:   6    -0.350748338955E+03   -0.75183E-02   -0.75748E-02  8208   0.145E+00-0.582E-04
CGA:   7    -0.350755815299E+03   -0.74763E-02   -0.74776E-02  8208   0.522E-01 0.348E-04
CGA:   8    -0.350759180941E+03   -0.33656E-02   -0.33659E-02  8208   0.266E-01 0.903E-04
CGA:   9    -0.350760285547E+03   -0.11046E-02   -0.11025E-02  8208   0.161E-01 0.905E-05
CGA:  10    -0.350761123977E+03   -0.83843E-03   -0.83884E-03  8208   0.969E-02 0.130E-04
CGA:  11    -0.350761796314E+03   -0.67234E-03   -0.67226E-03  8208   0.509E-02 0.987E-05
CGA:  12    -0.350762020653E+03   -0.22434E-03   -0.22399E-03  8208   0.247E-02 0.128E-05
CGA:  13    -0.350762153780E+03   -0.13313E-03   -0.13321E-03  8208   0.262E-02 0.529E-05
CGA:  14    -0.350762340390E+03   -0.18661E-03   -0.18658E-03  8208   0.856E-03 0.546E-05
CGA:  15    -0.350762393691E+03   -0.53301E-04   -0.53304E-04  8208   0.719E-03 0.204E-05
CGA:  16    -0.350762428708E+03   -0.35017E-04   -0.35029E-04  8208   0.619E-03 0.907E-06
CGA:  17    -0.350762474158E+03   -0.45450E-04   -0.45426E-04  8208   0.326E-03 0.224E-05
CGA:  18    -0.350762499832E+03   -0.25674E-04   -0.25677E-04  8208   0.233E-03-0.188E-06
CGA:  19    -0.350762509785E+03   -0.99531E-05   -0.99509E-05  8208   0.187E-03-0.107E-06
CGA:  20    -0.350762525481E+03   -0.15697E-04   -0.15687E-04  8208   0.145E-03 0.415E-06
CGA:  21    -0.350762533677E+03   -0.81955E-05   -0.81964E-05  8208   0.649E-04 0.149E-06
   3 F= -.35076253E+03 E0= -.35074058E+03  d E =-.660453E-01  mag=    31.6112
       N       E                     dE             d eps       ncg     rms          ort
SDA:   1    -0.348328656701E+03    0.24339E+01    0.00000E+00  8208   0.840E+01 0.000E+00
CGA:   2    -0.349503506426E+03   -0.11748E+01   -0.10328E+01  8208   0.626E+01 0.208E+01
CGA:   3    -0.350174461564E+03   -0.67096E+00   -0.78093E+00  8208   0.101E+02-0.332E+01
CGA:   4    -0.350475205235E+03   -0.30074E+00   -0.36857E+00  8208   0.171E+01-0.685E+00
CGA:   5    -0.350633677478E+03   -0.15847E+00   -0.16147E+00  8208   0.323E+01-0.722E-01
CGA:   6    -0.350758158337E+03   -0.12448E+00   -0.12866E+00  8208   0.140E+01-0.330E-01
CGA:   7    -0.350834845916E+03   -0.76688E-01   -0.79534E-01  8208   0.669E+00 0.109E+00
CGA:   8    -0.350870032291E+03   -0.35186E-01   -0.35260E-01  8208   0.716E+00 0.143E-03
CGA:   9    -0.350906155626E+03   -0.36123E-01   -0.36069E-01  8208   0.235E+00-0.824E-03
CGA:  10    -0.350916849645E+03   -0.10694E-01   -0.10727E-01  8208   0.846E-01 0.137E-03
CGA:  11    -0.350919490248E+03   -0.26406E-02   -0.26034E-02  8208   0.368E-01 0.626E-03
CGA:  12    -0.350923124875E+03   -0.36346E-02   -0.36513E-02  8208   0.316E-01-0.393E-03
CGA:  13    -0.350924557312E+03   -0.14324E-02   -0.14330E-02  8208   0.187E-01 0.375E-05
CGA:  14    -0.350925270449E+03   -0.71314E-03   -0.71265E-03  8208   0.829E-02 0.617E-05
CGA:  15    -0.350926316789E+03   -0.10463E-02   -0.10451E-02  8208   0.124E-01 0.199E-04
CGA:  16    -0.350926927911E+03   -0.61112E-03   -0.61004E-03  8208   0.788E-02-0.843E-05
CGA:  17    -0.350927253490E+03   -0.32558E-03   -0.32600E-03  8208   0.335E-02 0.106E-05
CGA:  18    -0.350927475707E+03   -0.22222E-03   -0.22223E-03  8208   0.281E-02-0.733E-06
CGA:  19    -0.350927703562E+03   -0.22786E-03   -0.22783E-03  8208   0.296E-02 0.228E-05
CGA:  20    -0.350927829662E+03   -0.12610E-03   -0.12611E-03  8208   0.161E-02 0.212E-05
CGA:  21    -0.350927906511E+03   -0.76849E-04   -0.76866E-04  8208   0.490E-03 0.229E-05
CGA:  22    -0.350927953843E+03   -0.47332E-04   -0.47130E-04  8208   0.643E-03 0.564E-05
CGA:  23    -0.350927986069E+03   -0.32226E-04   -0.32265E-04  8208   0.567E-03 0.271E-05
CGA:  24    -0.350928018093E+03   -0.32024E-04   -0.32042E-04  8208   0.163E-03 0.191E-05
CGA:  25    -0.350928030380E+03   -0.12287E-04   -0.12280E-04  8208   0.157E-03 0.365E-06
CGA:  26    -0.350928039492E+03   -0.91120E-05   -0.91111E-05  8208   0.196E-03-0.515E-06
CGA:  27    -0.350928052183E+03   -0.12691E-04   -0.12691E-04  8208   0.934E-04-0.210E-06
CGA:  28    -0.350928057750E+03   -0.55664E-05   -0.55714E-05  8208   0.630E-04 0.123E-05
   4 F= -.35092806E+03 E0= -.35090626E+03  d E =-.165524E+00  mag=    31.5742
       N       E                     dE             d eps       ncg     rms          ort
SDA:   1    -0.346388620525E+03    0.45394E+01    0.00000E+00  8208   0.165E+02 0.000E+00
CGA:   2    -0.348202585187E+03   -0.18140E+01   -0.16417E+01  8208   0.172E+02 0.377E+01
CGA:   3    -0.349399652634E+03   -0.11971E+01   -0.12058E+01  8208   0.187E+02 0.275E+00
CGA:   4    -0.350100134223E+03   -0.70048E+00   -0.54379E+00  8208   0.680E+01 0.350E+01
CGA:   5    -0.350424685238E+03   -0.32455E+00   -0.32612E+00  8208   0.645E+01-0.939E-01
CGA:   6    -0.350775419544E+03   -0.35073E+00   -0.35077E+00  8208   0.446E+01-0.413E-02
CGA:   7    -0.350905069389E+03   -0.12965E+00   -0.13026E+00  8208   0.296E+01-0.445E-01
CGA:   8    -0.350984080374E+03   -0.79011E-01   -0.74398E-01  8208   0.132E+01 0.102E+00
CGA:   9    -0.351019859055E+03   -0.35779E-01   -0.37334E-01  8208   0.827E+00-0.351E-01
CGA:  10    -0.351054474031E+03   -0.34615E-01   -0.36059E-01  8208   0.642E+00 0.308E-01
CGA:  11    -0.351076259872E+03   -0.21786E-01   -0.21437E-01  8208   0.446E+00 0.289E-02
CGA:  12    -0.351092040475E+03   -0.15781E-01   -0.14987E-01  8208   0.168E+00 0.671E-02
CGA:  13    -0.351096405239E+03   -0.43648E-02   -0.44063E-02  8208   0.990E-01-0.895E-03
CGA:  14    -0.351102329411E+03   -0.59242E-02   -0.58566E-02  8208   0.139E+00 0.584E-02
CGA:  15    -0.351107443579E+03   -0.51142E-02   -0.51031E-02  8208   0.759E-01 0.456E-04
CGA:  16    -0.351110415000E+03   -0.29714E-02   -0.29469E-02  8208   0.291E-01-0.273E-03
CGA:  17    -0.351111560416E+03   -0.11454E-02   -0.11466E-02  8208   0.294E-01 0.344E-04
CGA:  18    -0.351113291990E+03   -0.17316E-02   -0.17212E-02  8208   0.204E-01 0.837E-03
CGA:  19    -0.351114238925E+03   -0.94694E-03   -0.94628E-03  8208   0.207E-01-0.317E-04
CGA:  20    -0.351115070305E+03   -0.83138E-03   -0.82889E-03  8208   0.910E-02-0.420E-04
CGA:  21    -0.351115491109E+03   -0.42080E-03   -0.42190E-03  8208   0.890E-02 0.128E-03
CGA:  22    -0.351115871084E+03   -0.37998E-03   -0.38150E-03  8208   0.562E-02 0.679E-04
CGA:  23    -0.351116313049E+03   -0.44196E-03   -0.44557E-03  8208   0.593E-02-0.106E-03
CGA:  24    -0.351116499909E+03   -0.18686E-03   -0.18692E-03  8208   0.304E-02 0.375E-05
CGA:  25    -0.351116689734E+03   -0.18983E-03   -0.18841E-03  8208   0.242E-02 0.819E-04
CGA:  26    -0.351116792277E+03   -0.10254E-03   -0.10268E-03  8208   0.191E-02 0.732E-05
CGA:  27    -0.351116894426E+03   -0.10215E-03   -0.10216E-03  8208   0.154E-02-0.911E-06
CGA:  28    -0.351116988945E+03   -0.94520E-04   -0.94537E-04  8208   0.134E-02 0.193E-05
CGA:  29    -0.351117036475E+03   -0.47530E-04   -0.47664E-04  8208   0.684E-03 0.507E-05
CGA:  30    -0.351117074980E+03   -0.38505E-04   -0.38444E-04  8208   0.563E-03 0.894E-05
CGA:  31    -0.351117113307E+03   -0.38328E-04   -0.38226E-04  8208   0.791E-03 0.622E-05
SDA:  32    -0.351117145024E+03   -0.31717E-04   -0.31759E-04  8208   0.335E-03 0.488E-05
CGA:  33    -0.351117160106E+03   -0.15081E-04   -0.15070E-04  8208   0.131E-03-0.191E-05
CGA:  34    -0.351117179795E+03   -0.19690E-04   -0.19966E-04  8208   0.288E-03-0.280E-05
CGA:  35    -0.351117201336E+03   -0.21541E-04   -0.21595E-04  8208   0.241E-03-0.254E-05
CGA:  36    -0.351117212076E+03   -0.10740E-04   -0.10741E-04  8208   0.108E-03-0.746E-06
CGA:  37    -0.351117217144E+03   -0.50678E-05   -0.50729E-05  8208   0.576E-04 0.198E-06
CGA:  38    -0.351117232135E+03   -0.14991E-04   -0.14084E-04  8208   0.481E-04 0.462E-05
CGA:  39    -0.351117240003E+03   -0.78676E-05   -0.77984E-05  8208   0.402E-04 0.769E-06
   5 F= -.35111724E+03 E0= -.35109571E+03  d E =-.189182E+00  mag=    31.5346
       N       E                     dE             d eps       ncg     rms          ort
SDA:   1    -0.344048103719E+03    0.70691E+01    0.00000E+00  8208   0.259E+02 0.000E+00
CGA:   2    -0.346639001931E+03   -0.25909E+01   -0.24424E+01  8208   0.320E+02 0.436E+01
CGA:   3    -0.348622100130E+03   -0.19831E+01   -0.19957E+01  8208   0.279E+02-0.793E+00
CGA:   4    -0.349766950228E+03   -0.11449E+01   -0.89448E+00  8208   0.883E+01 0.310E+01
CGA:   5    -0.350278426291E+03   -0.51148E+00   -0.51111E+00  8208   0.965E+01-0.691E-01
CGA:   6    -0.350825521015E+03   -0.54709E+00   -0.52971E+00  8208   0.450E+01-0.522E+00
CGA:   7    -0.351021946683E+03   -0.19643E+00   -0.19042E+00  8208   0.244E+01-0.253E-01
CGA:   8    -0.351108724992E+03   -0.86778E-01   -0.87736E-01  8208   0.110E+01-0.107E-01
CGA:   9    -0.351163334356E+03   -0.54609E-01   -0.55348E-01  8208   0.726E+00 0.142E-01
CGA:  10    -0.351211835605E+03   -0.48501E-01   -0.48608E-01  8208   0.404E+00-0.168E-01
CGA:  11    -0.351222840971E+03   -0.11005E-01   -0.11162E-01  8208   0.138E+00-0.352E-02
CGA:  12    -0.351234480014E+03   -0.11639E-01   -0.11360E-01  8208   0.173E+00 0.969E-02
CGA:  13    -0.351243608882E+03   -0.91289E-02   -0.90977E-02  8208   0.896E-01-0.493E-03
CGA:  14    -0.351246949200E+03   -0.33403E-02   -0.33580E-02  8208   0.516E-01-0.689E-04
CGA:  15    -0.351250537460E+03   -0.35883E-02   -0.35620E-02  8208   0.350E-01 0.188E-02
CGA:  16    -0.351252509791E+03   -0.19723E-02   -0.19693E-02  8208   0.397E-01-0.165E-03
CGA:  17    -0.351254440347E+03   -0.19306E-02   -0.19243E-02  8208   0.245E-01-0.116E-03
CGA:  18    -0.351255787103E+03   -0.13468E-02   -0.13599E-02  8208   0.139E-01 0.135E-02
CGA:  19    -0.351256443364E+03   -0.65626E-03   -0.65449E-03  8208   0.141E-01-0.949E-05
CGA:  20    -0.351257426235E+03   -0.98287E-03   -0.99103E-03  8208   0.995E-02-0.459E-03
CGA:  21    -0.351258078342E+03   -0.65211E-03   -0.64526E-03  8208   0.106E-01 0.550E-03
CGA:  22    -0.351258509992E+03   -0.43165E-03   -0.43603E-03  8208   0.384E-02 0.902E-05
CGA:  23    -0.351258795651E+03   -0.28566E-03   -0.28680E-03  8208   0.328E-02-0.474E-04
CGA:  24    -0.351259201829E+03   -0.40618E-03   -0.39808E-03  8208   0.302E-02 0.121E-03
CGA:  25    -0.351259305228E+03   -0.10340E-03   -0.10389E-03  8208   0.109E-02 0.915E-06
CGA:  26    -0.351259453273E+03   -0.14804E-03   -0.14756E-03  8208   0.171E-02 0.545E-05
CGA:  27    -0.351259540711E+03   -0.87438E-04   -0.87765E-04  8208   0.973E-03 0.105E-04
CGA:  28    -0.351259604599E+03   -0.63887E-04   -0.63876E-04  8208   0.721E-03 0.652E-05
CGA:  29    -0.351259652639E+03   -0.48040E-04   -0.48048E-04  8208   0.587E-03-0.257E-05
CGA:  30    -0.351259693444E+03   -0.40805E-04   -0.40830E-04  8208   0.524E-03-0.339E-05
CGA:  31    -0.351259731341E+03   -0.37898E-04   -0.37850E-04  8208   0.442E-03 0.274E-05
SDA:  32    -0.351259755387E+03   -0.24045E-04   -0.24069E-04  8208   0.259E-03 0.576E-06
CGA:  33    -0.351259763821E+03   -0.84342E-05   -0.84636E-05  8208   0.140E-03 0.584E-06
CGA:  34    -0.351259778874E+03   -0.15053E-04   -0.14964E-04  8208   0.238E-03 0.190E-05
CGA:  35    -0.351259800971E+03   -0.22097E-04   -0.22100E-04  8208   0.149E-03-0.270E-06
CGA:  36    -0.351259809836E+03   -0.88646E-05   -0.88520E-05  8208   0.624E-04-0.188E-05
   6 F= -.35125981E+03 E0= -.35123876E+03  d E =-.142570E+00  mag=    31.4906
       N       E                     dE             d eps       ncg     rms          ort
SDA:   1    -0.344764224783E+03    0.64956E+01    0.00000E+00  8208   0.205E+02 0.000E+00
CGA:   2    -0.347110713582E+03   -0.23465E+01   -0.22557E+01  8208   0.363E+02 0.227E+01
CGA:   3    -0.349280882141E+03   -0.21702E+01   -0.20607E+01  8208   0.157E+02-0.210E+01
CGA:   4    -0.350264397029E+03   -0.98351E+00   -0.97716E+00  8208   0.871E+01-0.120E+01
CGA:   5    -0.350844914212E+03   -0.58052E+00   -0.58403E+00  8208   0.428E+01-0.446E+00
CGA:   6    -0.351060535111E+03   -0.21562E+00   -0.22103E+00  8208   0.242E+01 0.855E-01
CGA:   7    -0.351163849056E+03   -0.10331E+00   -0.10391E+00  8208   0.973E+00-0.944E-02
CGA:   8    -0.351232151931E+03   -0.68303E-01   -0.68125E-01  8208   0.529E+00 0.257E-01
CGA:   9    -0.351264548782E+03   -0.32397E-01   -0.32297E-01  8208   0.209E+00-0.520E-02
CGA:  10    -0.351275352326E+03   -0.10804E-01   -0.10826E-01  8208   0.173E+00 0.400E-03
CGA:  11    -0.351286477704E+03   -0.11125E-01   -0.11126E-01  8208   0.997E-01 0.237E-03
CGA:  12    -0.351291832913E+03   -0.53552E-02   -0.53608E-02  8208   0.372E-01 0.170E-03
CGA:  13    -0.351294645203E+03   -0.28123E-02   -0.28125E-02  8208   0.473E-01 0.705E-06
CGA:  14    -0.351297292830E+03   -0.26476E-02   -0.26575E-02  8208   0.190E-01 0.381E-03
CGA:  15    -0.351298290015E+03   -0.99718E-03   -0.99868E-03  8208   0.112E-01 0.388E-04
CGA:  16    -0.351299352826E+03   -0.10628E-02   -0.10620E-02  8208   0.136E-01 0.240E-04
CGA:  17    -0.351300054904E+03   -0.70208E-03   -0.70370E-03  8208   0.676E-02 0.353E-04
CGA:  18    -0.351300440843E+03   -0.38594E-03   -0.38637E-03  8208   0.447E-02 0.230E-04
CGA:  19    -0.351300866689E+03   -0.42585E-03   -0.42677E-03  8208   0.468E-02-0.232E-04
CGA:  20    -0.351301092559E+03   -0.22587E-03   -0.22650E-03  8208   0.248E-02 0.101E-04
CGA:  21    -0.351301247512E+03   -0.15495E-03   -0.15504E-03  8208   0.153E-02 0.150E-04
CGA:  22    -0.351301363929E+03   -0.11642E-03   -0.11634E-03  8208   0.137E-02 0.694E-05
CGA:  23    -0.351301445697E+03   -0.81768E-04   -0.81796E-04  8208   0.852E-03 0.535E-05
CGA:  24    -0.351301492500E+03   -0.46804E-04   -0.46847E-04  8208   0.551E-03 0.350E-05
CGA:  25    -0.351301535382E+03   -0.42882E-04   -0.42821E-04  8208   0.376E-03 0.426E-05
CGA:  26    -0.351301558981E+03   -0.23599E-04   -0.23607E-04  8208   0.316E-03 0.228E-05
CGA:  27    -0.351301579036E+03   -0.20055E-04   -0.20060E-04  8208   0.247E-03 0.165E-05
CGA:  28    -0.351301597683E+03   -0.18647E-04   -0.18639E-04  8208   0.158E-03 0.507E-06
CGA:  29    -0.351301607722E+03   -0.10039E-04   -0.10039E-04  8208   0.149E-03-0.242E-06
CGA:  30    -0.351301619859E+03   -0.12136E-04   -0.12142E-04  8208   0.161E-03-0.502E-06
CGA:  31    -0.351301628834E+03   -0.89752E-05   -0.89684E-05  8208   0.714E-04-0.849E-06
   7 F= -.35130163E+03 E0= -.35128129E+03  d E =-.418190E-01  mag=    31.4257
       N       E                     dE             d eps       ncg     rms          ort
SDA:   1    -0.340012002579E+03    0.11290E+02    0.00000E+00  8208   0.510E+02 0.000E+00
CGA:   2    -0.342322189484E+03   -0.23102E+01   -0.26195E+01  8208   0.438E+02 0.462E+01
CGA:   3    -0.346165111179E+03   -0.38429E+01   -0.60259E+01  8208   0.132E+03-0.319E+02
CGA:   4    -0.348231534521E+03   -0.20664E+01   -0.45233E+01  8208   0.284E+02-0.245E+02
CGA:   5    -0.349504195381E+03   -0.12727E+01   -0.70887E+00  8208   0.845E+01 0.151E+02
CGA:   6    -0.349786362057E+03   -0.28217E+00   -0.21621E+00  8208   0.433E+01 0.157E+01
CGA:   7    -0.350452169403E+03   -0.66581E+00   -0.65113E+00  8208   0.122E+02 0.226E+00
CGA:   8    -0.350769904376E+03   -0.31773E+00   -0.37294E+00  8208   0.693E+01-0.121E+01
CGA:   9    -0.350973615798E+03   -0.20371E+00   -0.19696E+00  8208   0.200E+01 0.123E+00
CGA:  10    -0.351055320014E+03   -0.81704E-01   -0.82945E-01  8208   0.251E+01-0.806E-02
CGA:  11    -0.351203803260E+03   -0.14848E+00   -0.14853E+00  8208   0.122E+01 0.890E-02
CGA:  12    -0.351237823721E+03   -0.34020E-01   -0.33507E-01  8208   0.445E+00 0.942E-02
CGA:  13    -0.351256819651E+03   -0.18996E-01   -0.19285E-01  8208   0.236E+00 0.213E-02
CGA:  14    -0.351270638640E+03   -0.13819E-01   -0.13819E-01  8208   0.280E+00 0.174E-03
CGA:  15    -0.351281172881E+03   -0.10534E-01   -0.10703E-01  8208   0.171E+00-0.325E-03
CGA:  16    -0.351292695281E+03   -0.11522E-01   -0.11518E-01  8208   0.109E+00 0.257E-03
CGA:  17    -0.351295864993E+03   -0.31697E-02   -0.31498E-02  8208   0.483E-01 0.340E-03
CGA:  18    -0.351300658230E+03   -0.47932E-02   -0.47737E-02  8208   0.724E-01 0.430E-03
CGA:  19    -0.351303985236E+03   -0.33270E-02   -0.33433E-02  8208   0.428E-01 0.265E-03
CGA:  20    -0.351305538744E+03   -0.15535E-02   -0.15612E-02  8208   0.161E-01-0.327E-04
CGA:  21    -0.351306749806E+03   -0.12111E-02   -0.12120E-02  8208   0.136E-01-0.401E-04
CGA:  22    -0.351307268975E+03   -0.51917E-03   -0.51919E-03  8208   0.873E-02-0.462E-05
CGA:  23    -0.351307964191E+03   -0.69522E-03   -0.69464E-03  8208   0.101E-01 0.208E-04
CGA:  24    -0.351308501866E+03   -0.53768E-03   -0.53799E-03  8208   0.381E-02 0.321E-04
CGA:  25    -0.351308627817E+03   -0.12595E-03   -0.12669E-03  8208   0.204E-02-0.252E-06
CGA:  26    -0.351308907545E+03   -0.27973E-03   -0.27820E-03  8208   0.304E-02 0.187E-04
CGA:  27    -0.351309048599E+03   -0.14105E-03   -0.14113E-03  8208   0.144E-02 0.339E-05
CGA:  28    -0.351309108053E+03   -0.59454E-04   -0.59422E-04  8208   0.979E-03-0.846E-06
CGA:  29    -0.351309221709E+03   -0.11366E-03   -0.11363E-03  8208   0.955E-03 0.317E-06
CGA:  30    -0.351309261625E+03   -0.39915E-04   -0.39991E-04  8208   0.704E-03 0.151E-05
CGA:  31    -0.351309307088E+03   -0.45463E-04   -0.45446E-04  8208   0.521E-03 0.410E-05
CGA:  32    -0.351309341615E+03   -0.34527E-04   -0.34515E-04  8208   0.383E-03 0.250E-05
CGA:  33    -0.351309363189E+03   -0.21574E-04   -0.21584E-04  8208   0.404E-03 0.143E-05
CGA:  34    -0.351309386634E+03   -0.23445E-04   -0.23455E-04  8208   0.218E-03 0.216E-05
CGA:  35    -0.351309403492E+03   -0.16858E-04   -0.16862E-04  8208   0.220E-03-0.536E-06
SDA:  36    -0.351309414668E+03   -0.11176E-04   -0.11153E-04  8208   0.167E-03-0.227E-05
CGA:  37    -0.351309421059E+03   -0.63907E-05   -0.63784E-05  8208   0.112E-03-0.655E-06
CGA:  38    -0.351309431545E+03   -0.10486E-04   -0.10519E-04  8208   0.116E-03-0.110E-05
CGA:  39    -0.351309440068E+03   -0.85224E-05   -0.85200E-05  8208   0.703E-04 0.454E-07
   8 F= -.35130944E+03 E0= -.35128986E+03  d E =-.781123E-02  mag=    31.3260
       N       E                     dE             d eps       ncg     rms          ort
SDA:   1    -0.348052723605E+03    0.32567E+01    0.00000E+00  8208   0.103E+02 0.000E+00
CGA:   2    -0.349569808738E+03   -0.15171E+01   -0.15529E+01  8208   0.171E+02-0.337E+00
CGA:   3    -0.350208184080E+03   -0.63838E+00   -0.65349E+00  8208   0.922E+01-0.342E+00
CGA:   4    -0.350701840247E+03   -0.49366E+00   -0.49569E+00  8208   0.443E+01 0.608E-01
CGA:   5    -0.351137490225E+03   -0.43565E+00   -0.43886E+00  8208   0.160E+01-0.834E-01
CGA:   6    -0.351216675300E+03   -0.79185E-01   -0.80759E-01  8208   0.904E+00 0.179E-01
CGA:   7    -0.351284810465E+03   -0.68135E-01   -0.68140E-01  8208   0.458E+00-0.235E-03
CGA:   8    -0.351303127310E+03   -0.18317E-01   -0.18055E-01  8208   0.199E+00 0.162E-02
CGA:   9    -0.351316064879E+03   -0.12938E-01   -0.12931E-01  8208   0.952E-01-0.443E-02
CGA:  10    -0.351325326153E+03   -0.92613E-02   -0.92178E-02  8208   0.397E-01 0.110E-02
CGA:  11    -0.351328045801E+03   -0.27196E-02   -0.27200E-02  8208   0.241E-01-0.349E-03
CGA:  12    -0.351329750072E+03   -0.17043E-02   -0.17036E-02  8208   0.209E-01 0.103E-03
CGA:  13    -0.351331020567E+03   -0.12705E-02   -0.12719E-02  8208   0.111E-01 0.892E-04
CGA:  14    -0.351331485648E+03   -0.46508E-03   -0.46791E-03  8208   0.446E-02-0.675E-06
CGA:  15    -0.351332133416E+03   -0.64777E-03   -0.64653E-03  8208   0.365E-02 0.157E-04
CGA:  16    -0.351332384149E+03   -0.25073E-03   -0.25079E-03  8208   0.221E-02 0.242E-04
CGA:  17    -0.351332539518E+03   -0.15537E-03   -0.15537E-03  8208   0.232E-02 0.806E-05
CGA:  18    -0.351332697578E+03   -0.15806E-03   -0.15807E-03  8208   0.154E-02 0.426E-05
CGA:  19    -0.351332781933E+03   -0.84355E-04   -0.84330E-04  8208   0.784E-03 0.214E-05
CGA:  20    -0.351332854494E+03   -0.72560E-04   -0.72397E-04  8208   0.430E-03 0.657E-05
CGA:  21    -0.351332899027E+03   -0.44533E-04   -0.44480E-04  8208   0.508E-03 0.164E-05
CGA:  22    -0.351332923447E+03   -0.24420E-04   -0.24459E-04  8208   0.250E-03 0.129E-05
CGA:  23    -0.351332940277E+03   -0.16830E-04   -0.16838E-04  8208   0.171E-03 0.196E-05
CGA:  24    -0.351332952464E+03   -0.12187E-04   -0.12186E-04  8208   0.116E-03 0.141E-05
CGA:  25    -0.351332963808E+03   -0.11343E-04   -0.11318E-04  8208   0.876E-04 0.970E-06
CGA:  26    -0.351332970846E+03   -0.70379E-05   -0.70239E-05  8208   0.773E-04 0.171E-05
   9 F= -.35133297E+03 E0= -.35131399E+03  d E =-.235308E-01  mag=    31.2531
       N       E                     dE             d eps       ncg     rms          ort
SDA:   1    -0.345982565977E+03    0.53504E+01    0.00000E+00  8208   0.163E+02 0.000E+00
CGA:   2    -0.347685613185E+03   -0.17030E+01   -0.16416E+01  8208   0.295E+02 0.168E+01
CGA:   3    -0.349934839344E+03   -0.22492E+01   -0.22084E+01  8208   0.142E+02-0.391E+01
CGA:   4    -0.350576506337E+03   -0.64167E+00   -0.68451E+00  8208   0.545E+01 0.482E+00
CGA:   5    -0.350966986633E+03   -0.39048E+00   -0.38700E+00  8208   0.541E+01-0.592E+00
CGA:   6    -0.351201648061E+03   -0.23466E+00   -0.23834E+00  8208   0.824E+00 0.319E-02
CGA:   7    -0.351276917159E+03   -0.75269E-01   -0.74757E-01  8208   0.865E+00 0.184E-01
CGA:   8    -0.351317331502E+03   -0.40414E-01   -0.41303E-01  8208   0.284E+00-0.922E-03
CGA:   9    -0.351332695576E+03   -0.15364E-01   -0.15239E-01  8208   0.118E+00-0.150E-02
CGA:  10    -0.351344726050E+03   -0.12030E-01   -0.11908E-01  8208   0.107E+00 0.307E-02
CGA:  11    -0.351349091867E+03   -0.43658E-02   -0.43429E-02  8208   0.326E-01 0.232E-03
CGA:  12    -0.351352282488E+03   -0.31906E-02   -0.31764E-02  8208   0.227E-01 0.395E-03
CGA:  13    -0.351353553184E+03   -0.12707E-02   -0.12680E-02  8208   0.170E-01-0.270E-04
CGA:  14    -0.351354755374E+03   -0.12022E-02   -0.12019E-02  8208   0.575E-02 0.143E-03
CGA:  15    -0.351355226362E+03   -0.47099E-03   -0.47142E-03  8208   0.750E-02-0.228E-04
CGA:  16    -0.351355710405E+03   -0.48404E-03   -0.48462E-03  8208   0.336E-02 0.487E-04
CGA:  17    -0.351355983010E+03   -0.27261E-03   -0.27246E-03  8208   0.274E-02 0.134E-04
CGA:  18    -0.351356170748E+03   -0.18774E-03   -0.18782E-03  8208   0.222E-02 0.197E-04
CGA:  19    -0.351356317038E+03   -0.14629E-03   -0.14629E-03  8208   0.112E-02 0.400E-05
CGA:  20    -0.351356420446E+03   -0.10341E-03   -0.10313E-03  8208   0.104E-02 0.116E-04
CGA:  21    -0.351356473985E+03   -0.53539E-04   -0.53624E-04  8208   0.520E-03 0.412E-05
CGA:  22    -0.351356526064E+03   -0.52078E-04   -0.51950E-04  8208   0.371E-03 0.413E-05
CGA:  23    -0.351356549066E+03   -0.23002E-04   -0.23024E-04  8208   0.326E-03 0.214E-05
CGA:  24    -0.351356574002E+03   -0.24936E-04   -0.24917E-04  8208   0.117E-03 0.361E-05
CGA:  25    -0.351356584800E+03   -0.10799E-04   -0.10773E-04  8208   0.201E-03 0.130E-05
CGA:  26    -0.351356600535E+03   -0.15734E-04   -0.15720E-04  8208   0.815E-04 0.256E-05
CGA:  27    -0.351356607651E+03   -0.71164E-05   -0.70958E-05  8208   0.102E-03 0.147E-05
  10 F= -.35135661E+03 E0= -.35133840E+03  d E =-.236368E-01  mag=    31.1554
       N       E                     dE             d eps       ncg     rms          ort
SDA:   1    -0.337951697952E+03    0.13405E+02    0.00000E+00  8208   0.758E+02 0.000E+00
CGA:   2    -0.341086119948E+03   -0.31344E+01   -0.38933E+01  8208   0.455E+02 0.664E+01
CGA:   3    -0.344655135832E+03   -0.35690E+01   -0.50627E+01  8208   0.114E+03-0.224E+02
CGA:   4    -0.347014449255E+03   -0.23593E+01   -0.21446E+01  8208   0.571E+02 0.378E+01
CGA:   5    -0.348403278736E+03   -0.13888E+01   -0.16784E+01  8208   0.271E+02-0.282E+02
CGA:   6    -0.349340254524E+03   -0.93698E+00   -0.93750E+00  8208   0.326E+02 0.137E+00
CGA:   7    -0.350216820472E+03   -0.87657E+00   -0.76763E+00  8208   0.437E+01 0.260E+01
CGA:   8    -0.350540864170E+03   -0.32404E+00   -0.32422E+00  8208   0.944E+01-0.938E-01
CGA:   9    -0.350837320756E+03   -0.29646E+00   -0.26937E+00  8208   0.337E+01 0.535E+00
CGA:  10    -0.350944132483E+03   -0.10681E+00   -0.10214E+00  8208   0.302E+01 0.927E-01
CGA:  11    -0.351040652336E+03   -0.96520E-01   -0.91451E-01  8208   0.229E+01 0.122E+00
CGA:  12    -0.351090152405E+03   -0.49500E-01   -0.49909E-01  8208   0.117E+01-0.347E-01
CGA:  13    -0.351143079724E+03   -0.52927E-01   -0.52277E-01  8208   0.233E+01-0.861E-02
CGA:  14    -0.351203356966E+03   -0.60277E-01   -0.59345E-01  8208   0.139E+01 0.201E-01
CGA:  15    -0.351233928325E+03   -0.30571E-01   -0.31296E-01  8208   0.931E+00-0.366E-01
CGA:  16    -0.351257574405E+03   -0.23646E-01   -0.25326E-01  8208   0.620E+00-0.284E-01
CGA:  17    -0.351271304004E+03   -0.13730E-01   -0.13980E-01  8208   0.475E+00-0.792E-02
CGA:  18    -0.351295860464E+03   -0.24556E-01   -0.24563E-01  8208   0.701E+00 0.494E-02
CGA:  19    -0.351311590785E+03   -0.15730E-01   -0.17021E-01  8208   0.294E+00-0.311E-01
CGA:  20    -0.351325102291E+03   -0.13512E-01   -0.13514E-01  8208   0.334E+00 0.319E-03
CGA:  21    -0.351333724082E+03   -0.86218E-02   -0.90094E-02  8208   0.102E+00-0.643E-02
CGA:  22    -0.351340440896E+03   -0.67168E-02   -0.66115E-02  8208   0.181E+00 0.490E-02
CGA:  23    -0.351347966946E+03   -0.75260E-02   -0.75768E-02  8208   0.878E-01 0.103E-02
CGA:  24    -0.351353486846E+03   -0.55199E-02   -0.54835E-02  8208   0.528E-01 0.212E-02
CGA:  25    -0.351355653259E+03   -0.21664E-02   -0.21776E-02  8208   0.409E-01 0.260E-03
CGA:  26    -0.351358426743E+03   -0.27735E-02   -0.27601E-02  8208   0.279E-01 0.607E-03
CGA:  27    -0.351360488397E+03   -0.20617E-02   -0.20548E-02  8208   0.267E-01 0.260E-03
CGA:  28    -0.351361769345E+03   -0.12809E-02   -0.12821E-02  8208   0.143E-01 0.103E-03
CGA:  29    -0.351362526825E+03   -0.75748E-03   -0.75751E-03  8208   0.125E-01-0.216E-04
CGA:  30    -0.351363696302E+03   -0.11695E-02   -0.11636E-02  8208   0.746E-02 0.136E-03
CGA:  31    -0.351364237076E+03   -0.54077E-03   -0.54034E-03  8208   0.110E-01 0.173E-04
SDA:  32    -0.351364770371E+03   -0.53329E-03   -0.53374E-03  8208   0.410E-02 0.275E-04
CGA:  33    -0.351365130364E+03   -0.35999E-03   -0.35875E-03  8208   0.450E-02 0.346E-04
CGA:  34    -0.351365497802E+03   -0.36744E-03   -0.36715E-03  8208   0.695E-02 0.932E-05
CGA:  35    -0.351365930737E+03   -0.43293E-03   -0.43303E-03  8208   0.335E-02-0.114E-04
CGA:  36    -0.351366150879E+03   -0.22014E-03   -0.21999E-03  8208   0.125E-02 0.137E-04
CGA:  37    -0.351366259289E+03   -0.10841E-03   -0.10813E-03  8208   0.183E-02 0.849E-05
CGA:  38    -0.351366612509E+03   -0.35322E-03   -0.35384E-03  8208   0.190E-02-0.847E-05
CGA:  39    -0.351366983048E+03   -0.37054E-03   -0.35622E-03  8208   0.183E-02 0.128E-03
CGA:  40    -0.351367143489E+03   -0.16044E-03   -0.16080E-03  8208   0.375E-02-0.173E-04
CGA:  41    -0.351367430192E+03   -0.28670E-03   -0.28592E-03  8208   0.207E-02 0.115E-03
CGA:  42    -0.351367588730E+03   -0.15854E-03   -0.15836E-03  8208   0.275E-02 0.888E-04
CGA:  43    -0.351367763196E+03   -0.17447E-03   -0.17336E-03  8208   0.166E-02-0.181E-04
CGA:  44    -0.351367898314E+03   -0.13512E-03   -0.13475E-03  8208   0.175E-02 0.276E-04
CGA:  45    -0.351368014020E+03   -0.11571E-03   -0.11604E-03  8208   0.531E-03 0.223E-04
CGA:  46    -0.351368055574E+03   -0.41555E-04   -0.41523E-04  8208   0.746E-03 0.775E-05
CGA:  47    -0.351368119164E+03   -0.63590E-04   -0.63067E-04  8208   0.403E-03 0.364E-04
CGA:  48    -0.351368153156E+03   -0.33992E-04   -0.33975E-04  8208   0.305E-03 0.252E-05
CGA:  49    -0.351368177399E+03   -0.24243E-04   -0.24262E-04  8208   0.352E-03-0.197E-05
CGA:  50    -0.351368201686E+03   -0.24287E-04   -0.24331E-04  8208   0.141E-03 0.421E-05
CGA:  51    -0.351368217994E+03   -0.16308E-04   -0.16175E-04  8208   0.240E-03 0.307E-05
CGA:  52    -0.351368233860E+03   -0.15866E-04   -0.15859E-04  8208   0.107E-03 0.122E-05
CGA:  53    -0.351368241912E+03   -0.80525E-05   -0.80537E-05  8208   0.988E-04 0.236E-05
  11 F= -.35136824E+03 E0= -.35135167E+03  d E =-.116343E-01  mag=    30.9159
       N       E                     dE             d eps       ncg     rms          ort
SDA:   1    -0.348641198251E+03    0.27270E+01    0.00000E+00  8208   0.106E+02 0.000E+00
CGA:   2    -0.349986395823E+03   -0.13452E+01   -0.13612E+01  8208   0.856E+01-0.265E+00
CGA:   3    -0.350438981258E+03   -0.45259E+00   -0.46044E+00  8208   0.592E+01 0.314E-02
CGA:   4    -0.350878257621E+03   -0.43928E+00   -0.44074E+00  8208   0.348E+01 0.344E+00
CGA:   5    -0.351207921874E+03   -0.32966E+00   -0.32960E+00  8208   0.117E+01 0.263E-03
CGA:   6    -0.351294884003E+03   -0.86962E-01   -0.87077E-01  8208   0.107E+01 0.215E-01
CGA:   7    -0.351345536674E+03   -0.50653E-01   -0.53581E-01  8208   0.242E+00-0.467E-02
CGA:   8    -0.351365266028E+03   -0.19729E-01   -0.19755E-01  8208   0.130E+00-0.231E-02
CGA:   9    -0.351374146126E+03   -0.88801E-02   -0.89109E-02  8208   0.954E-01 0.187E-02
CGA:  10    -0.351380018699E+03   -0.58726E-02   -0.58965E-02  8208   0.283E-01 0.440E-03
CGA:  11    -0.351382278235E+03   -0.22595E-02   -0.22598E-02  8208   0.256E-01-0.316E-04
CGA:  12    -0.351384041162E+03   -0.17629E-02   -0.17611E-02  8208   0.123E-01-0.113E-03
CGA:  13    -0.351385041907E+03   -0.10007E-02   -0.10002E-02  8208   0.507E-02 0.571E-04
CGA:  14    -0.351385475428E+03   -0.43352E-03   -0.43402E-03  8208   0.633E-02-0.271E-04
CGA:  15    -0.351385913576E+03   -0.43815E-03   -0.43821E-03  8208   0.231E-02 0.760E-05
CGA:  16    -0.351386131843E+03   -0.21827E-03   -0.21803E-03  8208   0.140E-02 0.105E-04
CGA:  17    -0.351386260041E+03   -0.12820E-03   -0.12812E-03  8208   0.158E-02 0.472E-05
CGA:  18    -0.351386367514E+03   -0.10747E-03   -0.10747E-03  8208   0.580E-03-0.343E-06
CGA:  19    -0.351386414668E+03   -0.47153E-04   -0.47130E-04  8208   0.421E-03 0.358E-05
CGA:  20    -0.351386447266E+03   -0.32598E-04   -0.32598E-04  8208   0.343E-03 0.131E-05
CGA:  21    -0.351386478479E+03   -0.31213E-04   -0.31213E-04  8208   0.111E-03-0.898E-07
CGA:  22    -0.351386488749E+03   -0.10270E-04   -0.10258E-04  8208   0.120E-03 0.687E-06
CGA:  23    -0.351386497253E+03   -0.85042E-05   -0.85104E-05  8208   0.755E-04 0.417E-06
  12 F= -.35138650E+03 E0= -.35137022E+03  d E =-.182553E-01  mag=    30.8905
       N       E                     dE             d eps       ncg     rms          ort
SDA:   1    -0.351272450625E+03    0.11404E+00    0.00000E+00  8208   0.366E+00 0.000E+00
CGA:   2    -0.351331032603E+03   -0.58582E-01   -0.58691E-01  8208   0.491E+00-0.123E-02
CGA:   3    -0.351357932191E+03   -0.26900E-01   -0.26817E-01  8208   0.201E+00-0.294E-03
CGA:   4    -0.351378257319E+03   -0.20325E-01   -0.20246E-01  8208   0.117E+00 0.277E-02
CGA:   5    -0.351386283314E+03   -0.80260E-02   -0.79886E-02  8208   0.409E-01-0.690E-03
CGA:   6    -0.351388911714E+03   -0.26284E-02   -0.26314E-02  8208   0.232E-01 0.437E-04
CGA:   7    -0.351390739271E+03   -0.18276E-02   -0.18278E-02  8208   0.482E-02 0.535E-04
CGA:   8    -0.351391314850E+03   -0.57558E-03   -0.57612E-03  8208   0.352E-02-0.114E-04
CGA:   9    -0.351391551101E+03   -0.23625E-03   -0.23624E-03  8208   0.169E-02 0.260E-05
CGA:  10    -0.351391670724E+03   -0.11962E-03   -0.11970E-03  8208   0.624E-03 0.321E-05
CGA:  11    -0.351391757654E+03   -0.86929E-04   -0.86974E-04  8208   0.377E-03-0.676E-06
CGA:  12    -0.351391783952E+03   -0.26299E-04   -0.26326E-04  8208   0.189E-03 0.142E-05
CGA:  13    -0.351391801191E+03   -0.17239E-04   -0.17231E-04  8208   0.175E-03 0.106E-05
CGA:  14    -0.351391818186E+03   -0.16994E-04   -0.16985E-04  8208   0.615E-04 0.739E-06
CGA:  15    -0.351391824886E+03   -0.67006E-05   -0.66850E-05  8208   0.819E-04 0.608E-06
  13 F= -.35139182E+03 E0= -.35137569E+03  d E =-.532763E-02  mag=    30.8737
       N       E                     dE             d eps       ncg     rms          ort
SDA:   1    -0.348931779662E+03    0.24600E+01    0.00000E+00  8208   0.649E+01 0.000E+00
CGA:   2    -0.350646488197E+03   -0.17147E+01   -0.17134E+01  8208   0.435E+01 0.921E-02
CGA:   3    -0.351005149532E+03   -0.35866E+00   -0.35815E+00  8208   0.455E+01-0.187E-01
CGA:   4    -0.351258543203E+03   -0.25339E+00   -0.26779E+00  8208   0.928E+00-0.241E-01
CGA:   5    -0.351342994614E+03   -0.84451E-01   -0.84450E-01  8208   0.671E+00-0.425E-02
CGA:   6    -0.351380474126E+03   -0.37480E-01   -0.38258E-01  8208   0.228E+00-0.269E-02
CGA:   7    -0.351395412975E+03   -0.14939E-01   -0.15033E-01  8208   0.958E-01 0.583E-03
CGA:   8    -0.351404774063E+03   -0.93611E-02   -0.93862E-02  8208   0.679E-01-0.165E-02
CGA:   9    -0.351408219152E+03   -0.34451E-02   -0.33992E-02  8208   0.205E-01 0.302E-03
CGA:  10    -0.351410338831E+03   -0.21197E-02   -0.21172E-02  8208   0.135E-01 0.109E-03
CGA:  11    -0.351411466534E+03   -0.11277E-02   -0.11277E-02  8208   0.877E-02 0.371E-05
CGA:  12    -0.351411944832E+03   -0.47830E-03   -0.47755E-03  8208   0.278E-02 0.531E-05
CGA:  13    -0.351412380154E+03   -0.43532E-03   -0.43367E-03  8208   0.345E-02 0.232E-04
CGA:  14    -0.351412581133E+03   -0.20098E-03   -0.20071E-03  8208   0.140E-02 0.504E-05
CGA:  15    -0.351412726384E+03   -0.14525E-03   -0.14524E-03  8208   0.120E-02 0.162E-05
CGA:  16    -0.351412857921E+03   -0.13154E-03   -0.13132E-03  8208   0.965E-03 0.938E-05
CGA:  17    -0.351412920077E+03   -0.62155E-04   -0.62383E-04  8208   0.502E-03 0.270E-05
CGA:  18    -0.351412967682E+03   -0.47605E-04   -0.47599E-04  8208   0.312E-03 0.157E-05
CGA:  19    -0.351413002484E+03   -0.34802E-04   -0.34755E-04  8208   0.285E-03 0.205E-05
CGA:  20    -0.351413018550E+03   -0.16066E-04   -0.16107E-04  8208   0.909E-04 0.103E-05
CGA:  21    -0.351413031063E+03   -0.12512E-04   -0.12452E-04  8208   0.900E-04 0.125E-05
CGA:  22    -0.351413038112E+03   -0.70490E-05   -0.70658E-05  8208   0.638E-04 0.953E-06
  14 F= -.35141304E+03 E0= -.35139728E+03  d E =-.212132E-01  mag=    30.8158
       N       E                     dE             d eps       ncg     rms          ort
SDA:   1    -0.337293786995E+03    0.14119E+02    0.00000E+00  8208   0.539E+02 0.000E+00
CGA:   2    -0.341491013314E+03   -0.41972E+01   -0.43254E+01  8208   0.520E+02 0.619E+01
CGA:   3    -0.346595658728E+03   -0.51046E+01   -0.50426E+01  8208   0.583E+02-0.159E+02
CGA:   4    -0.349426332366E+03   -0.28307E+01   -0.27371E+01  8208   0.107E+02-0.457E+00
CGA:   5    -0.350262522005E+03   -0.83619E+00   -0.82729E+00  8208   0.202E+02-0.343E+00
CGA:   6    -0.350854478005E+03   -0.59196E+00   -0.63639E+00  8208   0.588E+01-0.136E+01
CGA:   7    -0.351071401530E+03   -0.21692E+00   -0.20126E+00  8208   0.131E+01 0.229E+00
CGA:   8    -0.351260794010E+03   -0.18939E+00   -0.18939E+00  8208   0.129E+01 0.213E-03
CGA:   9    -0.351307357501E+03   -0.46563E-01   -0.47254E-01  8208   0.514E+00-0.134E-01
CGA:  10    -0.351328899305E+03   -0.21542E-01   -0.20751E-01  8208   0.454E+00 0.938E-02
CGA:  11    -0.351368723619E+03   -0.39824E-01   -0.39776E-01  8208   0.165E+00 0.503E-02
CGA:  12    -0.351382122344E+03   -0.13399E-01   -0.13400E-01  8208   0.122E+00 0.142E-02
CGA:  13    -0.351386690758E+03   -0.45684E-02   -0.46773E-02  8208   0.916E-01-0.161E-02
CGA:  14    -0.351394259452E+03   -0.75687E-02   -0.75673E-02  8208   0.770E-01 0.182E-03
CGA:  15    -0.351399085389E+03   -0.48259E-02   -0.48508E-02  8208   0.190E-01 0.433E-03
CGA:  16    -0.351401606749E+03   -0.25214E-02   -0.24504E-02  8208   0.542E-01 0.126E-02
CGA:  17    -0.351404108981E+03   -0.25022E-02   -0.24565E-02  8208   0.137E-01 0.543E-03
CGA:  18    -0.351405562440E+03   -0.14535E-02   -0.14439E-02  8208   0.129E-01 0.287E-03
CGA:  19    -0.351406382028E+03   -0.81959E-03   -0.81988E-03  8208   0.111E-01 0.200E-04
CGA:  20    -0.351407189073E+03   -0.80705E-03   -0.81239E-03  8208   0.961E-02 0.388E-03
CGA:  21    -0.351407969754E+03   -0.78068E-03   -0.78062E-03  8208   0.513E-02-0.109E-03
CGA:  22    -0.351408429148E+03   -0.45939E-03   -0.45597E-03  8208   0.649E-02 0.196E-03
CGA:  23    -0.351408895742E+03   -0.46659E-03   -0.46513E-03  8208   0.495E-02-0.376E-04
CGA:  24    -0.351409389028E+03   -0.49329E-03   -0.48392E-03  8208   0.423E-02 0.338E-03
CGA:  25    -0.351409760521E+03   -0.37149E-03   -0.37195E-03  8208   0.334E-02-0.898E-04
CGA:  26    -0.351410184958E+03   -0.42444E-03   -0.40308E-03  8208   0.471E-02 0.412E-03
CGA:  27    -0.351410538397E+03   -0.35344E-03   -0.34874E-03  8208   0.316E-02-0.601E-04
CGA:  28    -0.351410923213E+03   -0.38482E-03   -0.36661E-03  8208   0.196E-02 0.397E-03
CGA:  29    -0.351411227884E+03   -0.30467E-03   -0.32047E-03  8208   0.350E-02-0.240E-03
CGA:  30    -0.351411479974E+03   -0.25209E-03   -0.25354E-03  8208   0.230E-02 0.195E-03
CGA:  31    -0.351411676333E+03   -0.19636E-03   -0.19727E-03  8208   0.124E-02 0.875E-04
SDA:  32    -0.351411820886E+03   -0.14455E-03   -0.14604E-03  8208   0.155E-02-0.407E-04
CGA:  33    -0.351411913478E+03   -0.92592E-04   -0.92341E-04  8208   0.810E-03 0.204E-06
CGA:  34    -0.351412012944E+03   -0.99467E-04   -0.99294E-04  8208   0.853E-03 0.441E-05
CGA:  35    -0.351412133891E+03   -0.12095E-03   -0.12066E-03  8208   0.337E-03 0.489E-05
CGA:  36    -0.351412157738E+03   -0.23846E-04   -0.23866E-04  8208   0.244E-03 0.141E-06
CGA:  37    -0.351412196196E+03   -0.38459E-04   -0.38497E-04  8208   0.255E-03-0.712E-06
CGA:  38    -0.351412248221E+03   -0.52025E-04   -0.51940E-04  8208   0.158E-03 0.555E-06
CGA:  39    -0.351412265948E+03   -0.17727E-04   -0.17669E-04  8208   0.132E-03 0.393E-05
CGA:  40    -0.351412291116E+03   -0.25168E-04   -0.24881E-04  8208   0.110E-03 0.338E-05
CGA:  41    -0.351412308910E+03   -0.17794E-04   -0.17779E-04  8208   0.495E-04 0.240E-06
CGA:  42    -0.351412317744E+03   -0.88342E-05   -0.88501E-05  8208   0.736E-04-0.252E-06
  15 F= -.35141232E+03 E0= -.35139723E+03  d E =0.720368E-03  mag=    30.5520
       N       E                     dE             d eps       ncg     rms          ort
SDA:   1    -0.349044139763E+03    0.23682E+01    0.00000E+00  8208   0.866E+01 0.000E+00
CGA:   2    -0.350353176132E+03   -0.13090E+01   -0.13082E+01  8208   0.395E+01 0.155E-01
CGA:   3    -0.350905506807E+03   -0.55233E+00   -0.55342E+00  8208   0.478E+01-0.297E-01
CGA:   4    -0.351188998655E+03   -0.28349E+00   -0.30368E+00  8208   0.147E+01-0.524E-01
CGA:   5    -0.351343124723E+03   -0.15413E+00   -0.15420E+00  8208   0.706E+00 0.102E-01
CGA:   6    -0.351384579876E+03   -0.41455E-01   -0.41857E-01  8208   0.225E+00-0.391E-02
CGA:   7    -0.351408465367E+03   -0.23885E-01   -0.23886E-01  8208   0.128E+00-0.410E-03
CGA:   8    -0.351417061753E+03   -0.85964E-02   -0.83304E-02  8208   0.422E-01 0.103E-02
CGA:   9    -0.351421249788E+03   -0.41880E-02   -0.41829E-02  8208   0.319E-01-0.377E-03
CGA:  10    -0.351423781110E+03   -0.25313E-02   -0.25396E-02  8208   0.101E-01 0.809E-04
CGA:  11    -0.351424720195E+03   -0.93909E-03   -0.94004E-03  8208   0.792E-02 0.433E-04
CGA:  12    -0.351425419067E+03   -0.69887E-03   -0.69856E-03  8208   0.358E-02-0.536E-05
CGA:  13    -0.351425740193E+03   -0.32113E-03   -0.32147E-03  8208   0.205E-02 0.145E-04
CGA:  14    -0.351425929620E+03   -0.18943E-03   -0.18940E-03  8208   0.148E-02 0.577E-06
CGA:  15    -0.351426089367E+03   -0.15975E-03   -0.15975E-03  8208   0.696E-03 0.282E-06
CGA:  16    -0.351426149121E+03   -0.59754E-04   -0.59814E-04  8208   0.504E-03 0.243E-05
CGA:  17    -0.351426202775E+03   -0.53654E-04   -0.53646E-04  8208   0.311E-03 0.765E-06
CGA:  18    -0.351426230512E+03   -0.27737E-04   -0.27745E-04  8208   0.158E-03 0.492E-06
CGA:  19    -0.351426244945E+03   -0.14433E-04   -0.14432E-04  8208   0.109E-03-0.599E-07
CGA:  20    -0.351426257502E+03   -0.12557E-04   -0.12551E-04  8208   0.634E-04 0.341E-06
CGA:  21    -0.351426262273E+03   -0.47714E-05   -0.47861E-05  8208   0.291E-04 0.556E-06
  16 F= -.35142626E+03 E0= -.35141156E+03  d E =-.139445E-01  mag=    30.5295
       N       E                     dE             d eps       ncg     rms          ort
SDA:   1    -0.351304125676E+03    0.12213E+00    0.00000E+00  8208   0.495E+00 0.000E+00
CGA:   2    -0.351362345540E+03   -0.58220E-01   -0.58217E-01  8208   0.404E+00 0.379E-04
CGA:   3    -0.351389587561E+03   -0.27242E-01   -0.27215E-01  8208   0.178E+00 0.292E-03
CGA:   4    -0.351418531562E+03   -0.28944E-01   -0.28937E-01  8208   0.643E-01 0.959E-04
CGA:   5    -0.351426456786E+03   -0.79252E-02   -0.79339E-02  8208   0.369E-01-0.279E-03
CGA:   6    -0.351428526829E+03   -0.20700E-02   -0.20883E-02  8208   0.927E-02-0.125E-03
CGA:   7    -0.351429714430E+03   -0.11876E-02   -0.11869E-02  8208   0.467E-02 0.206E-04
CGA:   8    -0.351430067628E+03   -0.35320E-03   -0.35273E-03  8208   0.174E-02-0.280E-05
CGA:   9    -0.351430283801E+03   -0.21617E-03   -0.21607E-03  8208   0.117E-02 0.405E-05
CGA:  10    -0.351430362146E+03   -0.78344E-04   -0.78532E-04  8208   0.392E-03 0.131E-06
CGA:  11    -0.351430416997E+03   -0.54851E-04   -0.54856E-04  8208   0.224E-03-0.927E-08
CGA:  12    -0.351430439481E+03   -0.22484E-04   -0.22484E-04  8208   0.141E-03-0.108E-06
CGA:  13    -0.351430451017E+03   -0.11537E-04   -0.11547E-04  8208   0.712E-04 0.432E-06
CGA:  14    -0.351430461557E+03   -0.10539E-04   -0.10541E-04  8208   0.436E-04-0.285E-07
CGA:  15    -0.351430465259E+03   -0.37019E-05   -0.37126E-05  8208   0.231E-04 0.548E-06
  17 F= -.35143047E+03 E0= -.35141581E+03  d E =-.420299E-02  mag=    30.5185
       N       E                     dE             d eps       ncg     rms          ort
SDA:   1    -0.351394017697E+03    0.36444E-01    0.00000E+00  8208   0.138E+00 0.000E+00
CGA:   2    -0.351413022449E+03   -0.19005E-01   -0.18884E-01  8208   0.157E+00 0.266E-02
CGA:   3    -0.351424355818E+03   -0.11333E-01   -0.11190E-01  8208   0.522E-01 0.143E-03
CGA:   4    -0.351431328319E+03   -0.69725E-02   -0.69828E-02  8208   0.269E-01-0.249E-03
CGA:   5    -0.351433494140E+03   -0.21658E-02   -0.21701E-02  8208   0.908E-02 0.436E-04
CGA:   6    -0.351434514400E+03   -0.10203E-02   -0.10205E-02  8208   0.371E-02-0.158E-04
CGA:   7    -0.351434754570E+03   -0.24017E-03   -0.23952E-03  8208   0.158E-02 0.297E-05
CGA:   8    -0.351434945655E+03   -0.19109E-03   -0.19102E-03  8208   0.541E-03 0.221E-05
CGA:   9    -0.351435001146E+03   -0.55491E-04   -0.55490E-04  8208   0.318E-03-0.474E-06
CGA:  10    -0.351435034934E+03   -0.33789E-04   -0.33787E-04  8208   0.212E-03 0.248E-06
CGA:  11    -0.351435051319E+03   -0.16385E-04   -0.16409E-04  8208   0.808E-04 0.813E-06
CGA:  12    -0.351435062844E+03   -0.11525E-04   -0.11522E-04  8208   0.728E-04 0.948E-07
CGA:  13    -0.351435070474E+03   -0.76295E-05   -0.76290E-05  8208   0.312E-04 0.847E-06
  18 F= -.35143507E+03 E0= -.35142050E+03  d E =-.460522E-02  mag=    30.5098
       N       E                     dE             d eps       ncg     rms          ort
SDA:   1    -0.351259147431E+03    0.17592E+00    0.00000E+00  8208   0.569E+00 0.000E+00
CGA:   2    -0.351352971922E+03   -0.93824E-01   -0.92733E-01  8208   0.674E+00 0.157E-01
CGA:   3    -0.351399537040E+03   -0.46565E-01   -0.45041E-01  8208   0.216E+00 0.809E-02
CGA:   4    -0.351429811989E+03   -0.30275E-01   -0.30317E-01  8208   0.887E-01-0.925E-03
CGA:   5    -0.351437558082E+03   -0.77461E-02   -0.77586E-02  8208   0.375E-01 0.195E-03
CGA:   6    -0.351441360683E+03   -0.38026E-02   -0.38010E-02  8208   0.121E-01-0.143E-03
CGA:   7    -0.351442256045E+03   -0.89536E-03   -0.89372E-03  8208   0.696E-02-0.153E-05
CGA:   8    -0.351442993477E+03   -0.73743E-03   -0.73737E-03  8208   0.179E-02 0.216E-04
CGA:   9    -0.351443214164E+03   -0.22069E-03   -0.22081E-03  8208   0.137E-02-0.418E-05
CGA:  10    -0.351443345162E+03   -0.13100E-03   -0.13106E-03  8208   0.636E-03 0.315E-05
CGA:  11    -0.351443397457E+03   -0.52294E-04   -0.52366E-04  8208   0.367E-03 0.200E-05
CGA:  12    -0.351443449287E+03   -0.51830E-04   -0.51812E-04  8208   0.243E-03 0.553E-06
CGA:  13    -0.351443475021E+03   -0.25734E-04   -0.25734E-04  8208   0.134E-03 0.167E-05
CGA:  14    -0.351443493466E+03   -0.18445E-04   -0.18436E-04  8208   0.149E-03 0.288E-06
CGA:  15    -0.351443505472E+03   -0.12006E-04   -0.12022E-04  8208   0.489E-04 0.617E-06
CGA:  16    -0.351443512399E+03   -0.69270E-05   -0.69178E-05  8208   0.380E-04 0.241E-06
  19 F= -.35144351E+03 E0= -.35142910E+03  d E =-.844193E-02  mag=    30.4913
       N       E                     dE             d eps       ncg     rms          ort
SDA:   1    -0.351097022986E+03    0.34648E+00    0.00000E+00  8208   0.965E+00 0.000E+00
CGA:   2    -0.351305013120E+03   -0.20799E+00   -0.21086E+00  8208   0.129E+01-0.272E-01
CGA:   3    -0.351375345924E+03   -0.70333E-01   -0.76254E-01  8208   0.472E+00-0.316E-01
CGA:   4    -0.351428763672E+03   -0.53418E-01   -0.53393E-01  8208   0.131E+00 0.256E-02
CGA:   5    -0.351442670002E+03   -0.13906E-01   -0.13884E-01  8208   0.634E-01-0.163E-02
CGA:   6    -0.351447448572E+03   -0.47786E-02   -0.48090E-02  8208   0.223E-01 0.647E-04
CGA:   7    -0.351449447895E+03   -0.19993E-02   -0.19994E-02  8208   0.101E-01-0.717E-06
CGA:   8    -0.351450477546E+03   -0.10297E-02   -0.10291E-02  8208   0.457E-02-0.423E-04
CGA:   9    -0.351450903485E+03   -0.42594E-03   -0.42611E-03  8208   0.176E-02 0.473E-05
CGA:  10    -0.351451116548E+03   -0.21306E-03   -0.21298E-03  8208   0.133E-02 0.475E-05
CGA:  11    -0.351451213260E+03   -0.96713E-04   -0.96661E-04  8208   0.447E-03 0.391E-06
CGA:  12    -0.351451293138E+03   -0.79877E-04   -0.79574E-04  8208   0.335E-03 0.416E-05
CGA:  13    -0.351451327861E+03   -0.34723E-04   -0.34728E-04  8208   0.262E-03 0.769E-06
CGA:  14    -0.351451354389E+03   -0.26528E-04   -0.26541E-04  8208   0.161E-03 0.151E-05
CGA:  15    -0.351451378176E+03   -0.23787E-04   -0.23763E-04  8208   0.848E-04 0.621E-06
CGA:  16    -0.351451387366E+03   -0.91903E-05   -0.91912E-05  8208   0.775E-04 0.413E-06
  20 F= -.35145139E+03 E0= -.35143718E+03  d E =-.787497E-02  mag=    30.4579
       N       E                     dE             d eps       ncg     rms          ort
SDA:   1    -0.344830811056E+03    0.66206E+01    0.00000E+00  8208   0.185E+02 0.000E+00
CGA:   2    -0.348553428266E+03   -0.37226E+01   -0.37211E+01  8208   0.228E+02-0.459E-01
CGA:   3    -0.349990217145E+03   -0.14368E+01   -0.14145E+01  8208   0.799E+01 0.103E+01
CGA:   4    -0.351068540379E+03   -0.10783E+01   -0.10794E+01  8208   0.231E+01-0.467E-01
CGA:   5    -0.351291362669E+03   -0.22282E+00   -0.22475E+00  8208   0.136E+01 0.458E-01
CGA:   6    -0.351384951616E+03   -0.93589E-01   -0.88613E-01  8208   0.407E+00 0.343E-01
CGA:   7    -0.351421686582E+03   -0.36735E-01   -0.36453E-01  8208   0.241E+00-0.285E-02
CGA:   8    -0.351444757864E+03   -0.23071E-01   -0.23139E-01  8208   0.742E-01 0.214E-02
CGA:   9    -0.351451832540E+03   -0.70747E-02   -0.70791E-02  8208   0.516E-01 0.140E-03
CGA:  10    -0.351456611322E+03   -0.47788E-02   -0.47670E-02  8208   0.183E-01-0.244E-03
CGA:  11    -0.351458645220E+03   -0.20339E-02   -0.20327E-02  8208   0.116E-01 0.147E-03
CGA:  12    -0.351459665082E+03   -0.10199E-02   -0.10226E-02  8208   0.811E-02 0.492E-04
CGA:  13    -0.351460566258E+03   -0.90118E-03   -0.90098E-03  8208   0.395E-02 0.308E-04
CGA:  14    -0.351461063006E+03   -0.49675E-03   -0.49551E-03  8208   0.290E-02 0.477E-04
CGA:  15    -0.351461486408E+03   -0.42340E-03   -0.42302E-03  8208   0.152E-02 0.104E-04
CGA:  16    -0.351461667902E+03   -0.18149E-03   -0.18132E-03  8208   0.105E-02 0.134E-04
CGA:  17    -0.351461788744E+03   -0.12084E-03   -0.12079E-03  8208   0.814E-03 0.718E-05
CGA:  18    -0.351461860234E+03   -0.71490E-04   -0.71649E-04  8208   0.318E-03 0.440E-05
CGA:  19    -0.351461910832E+03   -0.50598E-04   -0.50263E-04  8208   0.307E-03 0.628E-05
CGA:  20    -0.351461943945E+03   -0.33113E-04   -0.33140E-04  8208   0.183E-03 0.410E-05
CGA:  21    -0.351461971763E+03   -0.27818E-04   -0.27674E-04  8208   0.184E-03 0.373E-05
CGA:  22    -0.351461999641E+03   -0.27878E-04   -0.27661E-04  8208   0.167E-03 0.561E-05
CGA:  23    -0.351462028703E+03   -0.29062E-04   -0.28946E-04  8208   0.136E-03 0.221E-05
CGA:  24    -0.351462059936E+03   -0.31233E-04   -0.30865E-04  8208   0.154E-03 0.339E-05
CGA:  25    -0.351462079277E+03   -0.19341E-04   -0.19340E-04  8208   0.112E-03 0.212E-05
CGA:  26    -0.351462099083E+03   -0.19805E-04   -0.19774E-04  8208   0.117E-03 0.917E-06
CGA:  27    -0.351462110739E+03   -0.11656E-04   -0.11797E-04  8208   0.706E-04 0.272E-05
CGA:  28    -0.351462121624E+03   -0.10885E-04   -0.10880E-04  8208   0.573E-04 0.492E-06
CGA:  29    -0.351462130603E+03   -0.89794E-05   -0.89000E-05  8208   0.392E-04 0.244E-05
  21 F= -.35146213E+03 E0= -.35145003E+03  d E =-.107432E-01  mag=    30.2115
       N       E                     dE             d eps       ncg     rms          ort
SDA:   1    -0.338274901451E+03    0.13187E+02    0.00000E+00  8208   0.533E+02 0.000E+00
CGA:   2    -0.344154875423E+03   -0.58800E+01   -0.60173E+01  8208   0.330E+02 0.413E+01
CGA:   3    -0.347628326149E+03   -0.34735E+01   -0.27296E+01  8208   0.114E+02 0.690E+01
CGA:   4    -0.349795396012E+03   -0.21671E+01   -0.21674E+01  8208   0.260E+02 0.432E-01
CGA:   5    -0.350313569389E+03   -0.51817E+00   -0.88344E+00  8208   0.196E+02-0.114E+02
CGA:   6    -0.350522337740E+03   -0.20877E+00   -0.24721E+00  8208   0.907E+01-0.219E+01
CGA:   7    -0.350755512199E+03   -0.23317E+00   -0.32799E+00  8208   0.514E+01-0.126E+01
CGA:   8    -0.350917264400E+03   -0.16175E+00   -0.19354E+00  8208   0.433E+01-0.485E+00
CGA:   9    -0.351019955908E+03   -0.10269E+00   -0.83486E-01  8208   0.182E+01 0.754E+00
CGA:  10    -0.351091053437E+03   -0.71098E-01   -0.82995E-01  8208   0.204E+01-0.238E+00
CGA:  11    -0.351144976044E+03   -0.53923E-01   -0.53112E-01  8208   0.218E+01 0.829E-02
CGA:  12    -0.351209550897E+03   -0.64575E-01   -0.60841E-01  8208   0.123E+01 0.983E-01
CGA:  13    -0.351241688278E+03   -0.32137E-01   -0.36419E-01  8208   0.102E+01-0.122E+00
CGA:  14    -0.351269254703E+03   -0.27566E-01   -0.27041E-01  8208   0.758E+00 0.107E-01
CGA:  15    -0.351290848602E+03   -0.21594E-01   -0.25647E-01  8208   0.531E+00-0.830E-01
CGA:  16    -0.351306131617E+03   -0.15283E-01   -0.17046E-01  8208   0.451E+00-0.294E-01
CGA:  17    -0.351324871750E+03   -0.18740E-01   -0.19169E-01  8208   0.298E+00-0.296E-02
CGA:  18    -0.351336175610E+03   -0.11304E-01   -0.11040E-01  8208   0.156E+00 0.417E-02
CGA:  19    -0.351342717782E+03   -0.65422E-02   -0.66266E-02  8208   0.150E+00-0.868E-03
CGA:  20    -0.351351680942E+03   -0.89632E-02   -0.91441E-02  8208   0.137E+00 0.298E-02
CGA:  21    -0.351357658716E+03   -0.59778E-02   -0.61573E-02  8208   0.471E-01-0.997E-03
CGA:  22    -0.351360142143E+03   -0.24834E-02   -0.24971E-02  8208   0.448E-01 0.705E-04
CGA:  23    -0.351364049084E+03   -0.39069E-02   -0.38918E-02  8208   0.473E-01 0.717E-03
CGA:  24    -0.351366254242E+03   -0.22052E-02   -0.22596E-02  8208   0.180E-01-0.113E-03
CGA:  25    -0.351367754267E+03   -0.15000E-02   -0.14970E-02  8208   0.164E-01 0.182E-03
CGA:  26    -0.351368875418E+03   -0.11212E-02   -0.11216E-02  8208   0.121E-01 0.468E-04
CGA:  27    -0.351369918882E+03   -0.10435E-02   -0.10361E-02  8208   0.872E-02 0.376E-03
CGA:  28    -0.351370512020E+03   -0.59314E-03   -0.59444E-03  8208   0.564E-02 0.708E-04
CGA:  29    -0.351371001348E+03   -0.48933E-03   -0.48943E-03  8208   0.448E-02-0.566E-05
CGA:  30    -0.351371422180E+03   -0.42083E-03   -0.41968E-03  8208   0.357E-02 0.348E-04
CGA:  31    -0.351371660317E+03   -0.23814E-03   -0.23875E-03  8208   0.186E-02 0.275E-04
SDA:  32    -0.351371865388E+03   -0.20507E-03   -0.20460E-03  8208   0.146E-02 0.119E-04
CGA:  33    -0.351371972288E+03   -0.10690E-03   -0.10690E-03  8208   0.101E-02-0.951E-07
CGA:  34    -0.351372125427E+03   -0.15314E-03   -0.15314E-03  8208   0.771E-03-0.233E-06
CGA:  35    -0.351372203030E+03   -0.77602E-04   -0.77570E-04  8208   0.241E-03 0.104E-05
CGA:  36    -0.351372224658E+03   -0.21628E-04   -0.21623E-04  8208   0.137E-03 0.491E-06
CGA:  37    -0.351372260425E+03   -0.35767E-04   -0.35284E-04  8208   0.170E-03 0.272E-05
CGA:  38    -0.351372282059E+03   -0.21634E-04   -0.21617E-04  8208   0.746E-04 0.335E-06
CGA:  39    -0.351372294205E+03   -0.12146E-04   -0.12192E-04  8208   0.123E-03-0.703E-06
CGA:  40    -0.351372312289E+03   -0.18083E-04   -0.18036E-04  8208   0.529E-04 0.858E-06
CGA:  41    -0.351372317790E+03   -0.55016E-05   -0.54932E-05  8208   0.465E-04 0.144E-05
  22 F= -.35137232E+03 E0= -.35135882E+03  d E =0.898128E-01  mag=    30.2674
       N       E                     dE             d eps       ncg     rms          ort
SDA:   1    -0.349362671781E+03    0.20096E+01    0.00000E+00  8208   0.786E+01 0.000E+00
CGA:   2    -0.350441379718E+03   -0.10787E+01   -0.10804E+01  8208   0.443E+01-0.341E-01
CGA:   3    -0.350848398112E+03   -0.40702E+00   -0.40965E+00  8208   0.312E+01 0.149E+00
CGA:   4    -0.351233212302E+03   -0.38481E+00   -0.38631E+00  8208   0.111E+01-0.520E-01
CGA:   5    -0.351355498462E+03   -0.12229E+00   -0.12308E+00  8208   0.563E+00-0.436E-01
CGA:   6    -0.351393594490E+03   -0.38096E-01   -0.39281E-01  8208   0.136E+00 0.517E-02
CGA:   7    -0.351411490752E+03   -0.17896E-01   -0.17913E-01  8208   0.714E-01-0.406E-03
CGA:   8    -0.351416887744E+03   -0.53970E-02   -0.53803E-02  8208   0.267E-01-0.842E-04
CGA:   9    -0.351420246077E+03   -0.33583E-02   -0.33496E-02  8208   0.113E-01 0.250E-03
CGA:  10    -0.351421499577E+03   -0.12535E-02   -0.12539E-02  8208   0.596E-02-0.222E-04
CGA:  11    -0.351422058472E+03   -0.55890E-03   -0.55889E-03  8208   0.339E-02 0.383E-05
CGA:  12    -0.351422473625E+03   -0.41515E-03   -0.41472E-03  8208   0.120E-02 0.157E-04
CGA:  13    -0.351422642406E+03   -0.16878E-03   -0.16849E-03  8208   0.114E-02 0.702E-05
CGA:  14    -0.351422749028E+03   -0.10662E-03   -0.10667E-03  8208   0.447E-03 0.245E-05
CGA:  15    -0.351422807459E+03   -0.58431E-04   -0.58322E-04  8208   0.264E-03 0.353E-05
CGA:  16    -0.351422842435E+03   -0.34977E-04   -0.34956E-04  8208   0.185E-03 0.674E-06
CGA:  17    -0.351422858769E+03   -0.16334E-04   -0.16360E-04  8208   0.773E-04 0.952E-06
CGA:  18    -0.351422872126E+03   -0.13357E-04   -0.13328E-04  8208   0.546E-04 0.405E-06
CGA:  19    -0.351422877031E+03   -0.49046E-05   -0.49202E-05  8208   0.287E-04 0.711E-06
  23 F= -.35142288E+03 E0= -.35141011E+03  d E =-.505592E-01  mag=    30.2241
       N       E                     dE             d eps       ncg     rms          ort
SDA:   1    -0.350818163455E+03    0.60471E+00    0.00000E+00  8208   0.234E+01 0.000E+00
CGA:   2    -0.351138699870E+03   -0.32054E+00   -0.32013E+00  8208   0.143E+01 0.101E-01
CGA:   3    -0.351266642741E+03   -0.12794E+00   -0.12788E+00  8208   0.922E+00 0.341E-02
CGA:   4    -0.351386662084E+03   -0.12002E+00   -0.12022E+00  8208   0.279E+00-0.665E-02
CGA:   5    -0.351424359400E+03   -0.37697E-01   -0.37645E-01  8208   0.943E-01 0.144E-02
CGA:   6    -0.351431889584E+03   -0.75302E-02   -0.74748E-02  8208   0.450E-01-0.655E-04
CGA:   7    -0.351436996771E+03   -0.51072E-02   -0.51074E-02  8208   0.114E-01-0.342E-04
CGA:   8    -0.351438433575E+03   -0.14368E-02   -0.14350E-02  8208   0.750E-02 0.811E-04
CGA:   9    -0.351439124415E+03   -0.69084E-03   -0.69000E-03  8208   0.261E-02-0.858E-05
CGA:  10    -0.351439438312E+03   -0.31390E-03   -0.31390E-03  8208   0.149E-02 0.213E-06
CGA:  11    -0.351439605533E+03   -0.16722E-03   -0.16721E-03  8208   0.761E-03 0.719E-05
CGA:  12    -0.351439685321E+03   -0.79788E-04   -0.79795E-04  8208   0.394E-03 0.114E-05
CGA:  13    -0.351439747470E+03   -0.62149E-04   -0.62007E-04  8208   0.226E-03 0.291E-05
CGA:  14    -0.351439769647E+03   -0.22177E-04   -0.22188E-04  8208   0.145E-03 0.444E-06
CGA:  15    -0.351439789843E+03   -0.20196E-04   -0.20168E-04  8208   0.697E-04 0.916E-06
CGA:  16    -0.351439798541E+03   -0.86983E-05   -0.86954E-05  8208   0.452E-04 0.199E-06
  24 F= -.35143980E+03 E0= -.35142756E+03  d E =-.169215E-01  mag=    30.1935
       N       E                     dE             d eps       ncg     rms          ort
SDA:   1    -0.351269029115E+03    0.17076E+00    0.00000E+00  8208   0.591E+00 0.000E+00
CGA:   2    -0.351373509244E+03   -0.10448E+00   -0.10447E+00  8208   0.290E+00 0.810E-04
CGA:   3    -0.351421544738E+03   -0.48035E-01   -0.48109E-01  8208   0.178E+00-0.122E-02
CGA:   4    -0.351436116274E+03   -0.14572E-01   -0.14702E-01  8208   0.812E-01 0.328E-03
CGA:   5    -0.351444276758E+03   -0.81605E-02   -0.81607E-02  8208   0.174E-01 0.121E-04
CGA:   6    -0.351446586478E+03   -0.23097E-02   -0.23122E-02  8208   0.971E-02-0.906E-04
CGA:   7    -0.351447362518E+03   -0.77604E-03   -0.78021E-03  8208   0.282E-02 0.729E-05
CGA:   8    -0.351447791175E+03   -0.42866E-03   -0.42864E-03  8208   0.137E-02 0.311E-06
CGA:   9    -0.351447908181E+03   -0.11701E-03   -0.11695E-03  8208   0.705E-03 0.806E-06
CGA:  10    -0.351448007460E+03   -0.99280E-04   -0.99245E-04  8208   0.280E-03 0.128E-05
CGA:  11    -0.351448044299E+03   -0.36839E-04   -0.36820E-04  8208   0.201E-03 0.124E-05
CGA:  12    -0.351448068678E+03   -0.24379E-04   -0.24377E-04  8208   0.128E-03 0.735E-06
CGA:  13    -0.351448083514E+03   -0.14835E-04   -0.14838E-04  8208   0.627E-04 0.725E-06
CGA:  14    -0.351448092688E+03   -0.91739E-05   -0.91714E-05  8208   0.508E-04 0.948E-07
  25 F= -.35144809E+03 E0= -.35143617E+03  d E =-.829415E-02  mag=    30.1768
       N       E                     dE             d eps       ncg     rms          ort
SDA:   1    -0.351194434615E+03    0.25365E+00    0.00000E+00  8208   0.805E+00 0.000E+00
CGA:   2    -0.351352143553E+03   -0.15771E+00   -0.15752E+00  8208   0.535E+00 0.215E-02
CGA:   3    -0.351406650879E+03   -0.54507E-01   -0.54090E-01  8208   0.356E+00-0.465E-02
CGA:   4    -0.351440288115E+03   -0.33637E-01   -0.33690E-01  8208   0.891E-01 0.593E-03
CGA:   5    -0.351452392370E+03   -0.12104E-01   -0.12094E-01  8208   0.288E-01 0.434E-03
CGA:   6    -0.351455209135E+03   -0.28168E-02   -0.27984E-02  8208   0.138E-01-0.183E-03
CGA:   7    -0.351456658184E+03   -0.14490E-02   -0.14503E-02  8208   0.428E-02 0.344E-04
CGA:   8    -0.351457152017E+03   -0.49383E-03   -0.49385E-03  8208   0.240E-02 0.225E-05
CGA:   9    -0.351457404512E+03   -0.25249E-03   -0.25250E-03  8208   0.114E-02 0.121E-05
CGA:  10    -0.351457531640E+03   -0.12713E-03   -0.12713E-03  8208   0.500E-03 0.923E-06
CGA:  11    -0.351457619556E+03   -0.87917E-04   -0.87788E-04  8208   0.295E-03 0.220E-05
CGA:  12    -0.351457651507E+03   -0.31950E-04   -0.31963E-04  8208   0.240E-03 0.646E-06
CGA:  13    -0.351457685744E+03   -0.34237E-04   -0.34209E-04  8208   0.109E-03 0.122E-05
CGA:  14    -0.351457700512E+03   -0.14768E-04   -0.14768E-04  8208   0.761E-04 0.395E-07
CGA:  15    -0.351457709834E+03   -0.93223E-05   -0.93220E-05  8208   0.424E-04 0.365E-06
  26 F= -.35145771E+03 E0= -.35144606E+03  d E =-.961715E-02  mag=    30.1650
       N       E                     dE             d eps       ncg     rms          ort
SDA:   1    -0.351328495943E+03    0.12920E+00    0.00000E+00  8208   0.392E+00 0.000E+00
CGA:   2    -0.351403309867E+03   -0.74814E-01   -0.75005E-01  8208   0.442E+00-0.249E-02
CGA:   3    -0.351436567700E+03   -0.33258E-01   -0.33587E-01  8208   0.147E+00-0.194E-04
CGA:   4    -0.351457032091E+03   -0.20464E-01   -0.20465E-01  8208   0.373E-01-0.749E-05
CGA:   5    -0.351462201978E+03   -0.51699E-02   -0.51689E-02  8208   0.127E-01 0.410E-04
CGA:   6    -0.351463303612E+03   -0.11016E-02   -0.11024E-02  8208   0.627E-02 0.125E-05
CGA:   7    -0.351463981790E+03   -0.67818E-03   -0.67811E-03  8208   0.181E-02-0.799E-06
CGA:   8    -0.351464227338E+03   -0.24555E-03   -0.24557E-03  8208   0.864E-03-0.838E-06
CGA:   9    -0.351464330821E+03   -0.10348E-03   -0.10349E-03  8208   0.472E-03 0.153E-05
CGA:  10    -0.351464375600E+03   -0.44779E-04   -0.44790E-04  8208   0.229E-03 0.227E-06
CGA:  11    -0.351464413604E+03   -0.38004E-04   -0.37964E-04  8208   0.117E-03 0.878E-06
CGA:  12    -0.351464430747E+03   -0.17143E-04   -0.17137E-04  8208   0.109E-03 0.231E-06
CGA:  13    -0.351464443080E+03   -0.12333E-04   -0.12338E-04  8208   0.576E-04 0.437E-06
CGA:  14    -0.351464450888E+03   -0.78084E-05   -0.78083E-05  8208   0.281E-04-0.342E-08
  27 F= -.35146445E+03 E0= -.35145288E+03  d E =-.674105E-02  mag=    30.1615
       N       E                     dE             d eps       ncg     rms          ort
SDA:   1    -0.351416782320E+03    0.47661E-01    0.00000E+00  8208   0.151E+00 0.000E+00
CGA:   2    -0.351440345174E+03   -0.23563E-01   -0.23617E-01  8208   0.174E+00-0.121E-02
CGA:   3    -0.351455224698E+03   -0.14880E-01   -0.14964E-01  8208   0.594E-01 0.177E-03
CGA:   4    -0.351463688198E+03   -0.84635E-02   -0.84625E-02  8208   0.150E-01 0.384E-04
CGA:   5    -0.351465405027E+03   -0.17168E-02   -0.17151E-02  8208   0.692E-02-0.568E-04
CGA:   6    -0.351465993191E+03   -0.58816E-03   -0.59091E-03  8208   0.181E-02 0.410E-05
CGA:   7    -0.351466270075E+03   -0.27688E-03   -0.27692E-03  8208   0.815E-03-0.805E-06
CGA:   8    -0.351466336257E+03   -0.66182E-04   -0.66229E-04  8208   0.381E-03 0.806E-06
CGA:   9    -0.351466390089E+03   -0.53831E-04   -0.53829E-04  8208   0.102E-03 0.178E-06
CGA:  10    -0.351466404244E+03   -0.14156E-04   -0.14151E-04  8208   0.882E-04 0.334E-06
CGA:  11    -0.351466413775E+03   -0.95303E-05   -0.95323E-05  8208   0.282E-04 0.129E-06
  28 F= -.35146641E+03 E0= -.35145484E+03  d E =-.196289E-02  mag=    30.1601
       N       E                     dE             d eps       ncg     rms          ort
SDA:   1    -0.351369885502E+03    0.96519E-01    0.00000E+00  8208   0.273E+00 0.000E+00
CGA:   2    -0.351415748097E+03   -0.45863E-01   -0.46136E-01  8208   0.402E+00-0.503E-02
CGA:   3    -0.351448314607E+03   -0.32567E-01   -0.32791E-01  8208   0.812E-01 0.169E-03
CGA:   4    -0.351460673807E+03   -0.12359E-01   -0.12360E-01  8208   0.255E-01-0.720E-05
CGA:   5    -0.351463548138E+03   -0.28743E-02   -0.28758E-02  8208   0.111E-01 0.462E-04
CGA:   6    -0.351464534473E+03   -0.98634E-03   -0.98128E-03  8208   0.326E-02-0.827E-05
CGA:   7    -0.351464960088E+03   -0.42562E-03   -0.42557E-03  8208   0.150E-02 0.476E-05
CGA:   8    -0.351465091936E+03   -0.13185E-03   -0.13185E-03  8208   0.706E-03-0.165E-06
CGA:   9    -0.351465174784E+03   -0.82848E-04   -0.82847E-04  8208   0.221E-03 0.316E-06
CGA:  10    -0.351465210263E+03   -0.35479E-04   -0.35458E-04  8208   0.100E-03 0.570E-06
CGA:  11    -0.351465223800E+03   -0.13537E-04   -0.13534E-04  8208   0.799E-04 0.423E-06
CGA:  12    -0.351465234004E+03   -0.10204E-04   -0.10203E-04  8208   0.330E-04 0.506E-06
CGA:  13    -0.351465240374E+03   -0.63703E-05   -0.63584E-05  8208   0.267E-04 0.178E-06
  29 F= -.35146524E+03 E0= -.35145369E+03  d E =0.117340E-02  mag=    30.1559
       N       E                     dE             d eps       ncg     rms          ort
SDA:   1    -0.350927071564E+03    0.53816E+00    0.00000E+00  8208   0.144E+01 0.000E+00
CGA:   2    -0.351263476396E+03   -0.33640E+00   -0.33660E+00  8208   0.988E+00-0.173E-02
CGA:   3    -0.351385878487E+03   -0.12240E+00   -0.12260E+00  8208   0.572E+00 0.107E-01
CGA:   4    -0.351431290163E+03   -0.45412E-01   -0.44926E-01  8208   0.146E+00 0.313E-02
CGA:   5    -0.351449879011E+03   -0.18589E-01   -0.18586E-01  8208   0.375E-01-0.373E-03
CGA:   6    -0.351454260901E+03   -0.43819E-02   -0.43857E-02  8208   0.215E-01 0.137E-03
CGA:   7    -0.351456308788E+03   -0.20479E-02   -0.20459E-02  8208   0.575E-02-0.161E-05
CGA:   8    -0.351457136697E+03   -0.82791E-03   -0.82797E-03  8208   0.328E-02-0.132E-05
CGA:   9    -0.351457421792E+03   -0.28510E-03   -0.28566E-03  8208   0.124E-02 0.285E-05
CGA:  10    -0.351457590768E+03   -0.16898E-03   -0.16899E-03  8208   0.671E-03-0.554E-06
CGA:  11    -0.351457678671E+03   -0.87904E-04   -0.87895E-04  8208   0.344E-03 0.163E-05
CGA:  12    -0.351457727550E+03   -0.48879E-04   -0.48888E-04  8208   0.302E-03-0.312E-06
CGA:  13    -0.351457763149E+03   -0.35599E-04   -0.35611E-04  8208   0.129E-03 0.104E-05
CGA:  14    -0.351457781850E+03   -0.18702E-04   -0.18695E-04  8208   0.108E-03 0.388E-06
CGA:  15    -0.351457793900E+03   -0.12050E-04   -0.12058E-04  8208   0.424E-04 0.583E-06
CGA:  16    -0.351457799400E+03   -0.55000E-05   -0.54991E-05  8208   0.240E-04 0.414E-06
  30 F= -.35145780E+03 E0= -.35144627E+03  d E =0.744097E-02  mag=    30.1467
       N       E                     dE             d eps       ncg     rms          ort
SDA:   1    -0.343481748157E+03    0.79760E+01    0.00000E+00  8208   0.215E+02 0.000E+00
CGA:   2    -0.348426843413E+03   -0.49451E+01   -0.49266E+01  8208   0.147E+02 0.165E+00
CGA:   3    -0.350284160356E+03   -0.18573E+01   -0.18241E+01  8208   0.124E+02-0.134E+01
CGA:   4    -0.350986413255E+03   -0.70225E+00   -0.80984E+00  8208   0.266E+01-0.317E+00
CGA:   5    -0.351270041835E+03   -0.28363E+00   -0.28329E+00  8208   0.101E+01-0.173E-02
CGA:   6    -0.351351043769E+03   -0.81002E-01   -0.82025E-01  8208   0.378E+00 0.330E-02
CGA:   7    -0.351400408725E+03   -0.49365E-01   -0.49340E-01  8208   0.131E+00 0.320E-02
CGA:   8    -0.351413928107E+03   -0.13519E-01   -0.13500E-01  8208   0.729E-01-0.152E-03
CGA:   9    -0.351421242579E+03   -0.73145E-02   -0.72911E-02  8208   0.315E-01-0.212E-03
CGA:  10    -0.351424461147E+03   -0.32186E-02   -0.32320E-02  8208   0.128E-01 0.212E-03
CGA:  11    -0.351426137835E+03   -0.16767E-02   -0.16766E-02  8208   0.841E-02 0.133E-04
CGA:  12    -0.351427108109E+03   -0.97027E-03   -0.97073E-03  8208   0.342E-02 0.317E-04
CGA:  13    -0.351427773725E+03   -0.66562E-03   -0.66381E-03  8208   0.266E-02 0.235E-04
CGA:  14    -0.351428050377E+03   -0.27665E-03   -0.27672E-03  8208   0.156E-02 0.460E-05
CGA:  15    -0.351428239669E+03   -0.18929E-03   -0.18934E-03  8208   0.953E-03 0.902E-05
CGA:  16    -0.351428364593E+03   -0.12492E-03   -0.12491E-03  8208   0.417E-03 0.369E-05
CGA:  17    -0.351428416809E+03   -0.52217E-04   -0.52218E-04  8208   0.275E-03 0.329E-05
CGA:  18    -0.351428456685E+03   -0.39876E-04   -0.39833E-04  8208   0.927E-04 0.223E-05
CGA:  19    -0.351428474511E+03   -0.17826E-04   -0.17785E-04  8208   0.860E-04 0.649E-06
CGA:  20    -0.351428485014E+03   -0.10503E-04   -0.10507E-04  8208   0.529E-04 0.482E-06
CGA:  21    -0.351428492041E+03   -0.70271E-05   -0.70284E-05  8208   0.431E-04-0.393E-06
  31 F= -.35142849E+03 E0= -.35141687E+03  d E =0.293074E-01  mag=    30.1283
       N       E                     dE             d eps       ncg     rms          ort
SDA:   1    -0.333302379736E+03    0.18126E+02    0.00000E+00  8208   0.500E+02 0.000E+00
CGA:   2    -0.343968272298E+03   -0.10666E+02   -0.10757E+02  8208   0.450E+02-0.127E+01
CGA:   3    -0.348036161529E+03   -0.40679E+01   -0.41552E+01  8208   0.257E+02 0.123E+01
CGA:   4    -0.350293367785E+03   -0.22572E+01   -0.23570E+01  8208   0.710E+01 0.171E+01
CGA:   5    -0.350803303104E+03   -0.50994E+00   -0.54439E+00  8208   0.611E+01-0.530E-01
CGA:   6    -0.351062377122E+03   -0.25907E+00   -0.28053E+00  8208   0.374E+01-0.405E+00
CGA:   7    -0.351201629174E+03   -0.13925E+00   -0.12820E+00  8208   0.121E+01 0.292E+00
CGA:   8    -0.351270968432E+03   -0.69339E-01   -0.71585E-01  8208   0.680E+00-0.150E-01
CGA:   9    -0.351336790273E+03   -0.65822E-01   -0.66249E-01  8208   0.532E+00 0.845E-02
CGA:  10    -0.351357047568E+03   -0.20257E-01   -0.24316E-01  8208   0.162E+00-0.585E-01
CGA:  11    -0.351370546865E+03   -0.13499E-01   -0.13527E-01  8208   0.134E+00 0.574E-03
CGA:  12    -0.351379255316E+03   -0.87085E-02   -0.88326E-02  8208   0.666E-01-0.476E-03
CGA:  13    -0.351384083116E+03   -0.48278E-02   -0.49440E-02  8208   0.314E-01 0.264E-03
CGA:  14    -0.351387001604E+03   -0.29185E-02   -0.29360E-02  8208   0.230E-01 0.491E-03
CGA:  15    -0.351389234220E+03   -0.22326E-02   -0.22321E-02  8208   0.141E-01 0.389E-05
CGA:  16    -0.351390535623E+03   -0.13014E-02   -0.13086E-02  8208   0.708E-02 0.224E-03
CGA:  17    -0.351391350343E+03   -0.81472E-03   -0.81272E-03  8208   0.629E-02 0.147E-03
CGA:  18    -0.351391962260E+03   -0.61192E-03   -0.61181E-03  8208   0.274E-02 0.492E-05
CGA:  19    -0.351392265147E+03   -0.30289E-03   -0.30251E-03  8208   0.161E-02 0.422E-04
CGA:  20    -0.351392444349E+03   -0.17920E-03   -0.17913E-03  8208   0.114E-02 0.108E-04
CGA:  21    -0.351392552618E+03   -0.10827E-03   -0.10835E-03  8208   0.576E-03 0.485E-05
CGA:  22    -0.351392619176E+03   -0.66557E-04   -0.66471E-04  8208   0.350E-03 0.545E-05
CGA:  23    -0.351392663794E+03   -0.44618E-04   -0.44554E-04  8208   0.257E-03 0.268E-05
CGA:  24    -0.351392690228E+03   -0.26434E-04   -0.26443E-04  8208   0.171E-03 0.185E-05
CGA:  25    -0.351392711292E+03   -0.21064E-04   -0.21044E-04  8208   0.127E-03 0.872E-06
CGA:  26    -0.351392730170E+03   -0.18878E-04   -0.18883E-04  8208   0.963E-04-0.185E-06
CGA:  27    -0.351392741274E+03   -0.11104E-04   -0.11112E-04  8208   0.792E-04-0.117E-05
CGA:  28    -0.351392750873E+03   -0.95989E-05   -0.96187E-05  8208   0.603E-04-0.152E-05
  32 F= -.35139275E+03 E0= -.35138074E+03  d E =0.357412E-01  mag=    30.1406
       N       E                     dE             d eps       ncg     rms          ort
SDA:   1    -0.339511960846E+03    0.11881E+02    0.00000E+00  8208   0.406E+02 0.000E+00
CGA:   2    -0.344803877836E+03   -0.52919E+01   -0.51346E+01  8208   0.330E+02 0.556E+01
CGA:   3    -0.348278613481E+03   -0.34747E+01   -0.30074E+01  8208   0.138E+02 0.181E+01
CGA:   4    -0.350357565612E+03   -0.20790E+01   -0.23393E+01  8208   0.174E+02-0.556E+01
CGA:   5    -0.350842832441E+03   -0.48527E+00   -0.49340E+00  8208   0.419E+01 0.230E+00
CGA:   6    -0.351035274938E+03   -0.19244E+00   -0.18845E+00  8208   0.236E+01 0.927E-01
CGA:   7    -0.351230631565E+03   -0.19536E+00   -0.19543E+00  8208   0.130E+01 0.101E-02
CGA:   8    -0.351295390247E+03   -0.64759E-01   -0.65359E-01  8208   0.754E+00-0.654E-02
CGA:   9    -0.351349932474E+03   -0.54542E-01   -0.53487E-01  8208   0.752E+00-0.202E-02
CGA:  10    -0.351383023172E+03   -0.33091E-01   -0.34591E-01  8208   0.283E+00-0.170E-01
CGA:  11    -0.351404512708E+03   -0.21490E-01   -0.21653E-01  8208   0.150E+00 0.250E-02
CGA:  12    -0.351414625785E+03   -0.10113E-01   -0.10037E-01  8208   0.120E+00-0.391E-04
CGA:  13    -0.351424976553E+03   -0.10351E-01   -0.10403E-01  8208   0.102E+00 0.255E-02
CGA:  14    -0.351430409033E+03   -0.54325E-02   -0.55017E-02  8208   0.274E-01-0.453E-03
CGA:  15    -0.351434029129E+03   -0.36201E-02   -0.36064E-02  8208   0.298E-01 0.268E-03
CGA:  16    -0.351436496390E+03   -0.24673E-02   -0.24766E-02  8208   0.141E-01 0.289E-03
CGA:  17    -0.351437939803E+03   -0.14434E-02   -0.14416E-02  8208   0.732E-02 0.154E-03
CGA:  18    -0.351438984286E+03   -0.10445E-02   -0.10423E-02  8208   0.975E-02 0.424E-04
CGA:  19    -0.351439731777E+03   -0.74749E-03   -0.75407E-03  8208   0.357E-02 0.968E-04
CGA:  20    -0.351440091633E+03   -0.35986E-03   -0.35965E-03  8208   0.502E-02 0.297E-04
CGA:  21    -0.351440735532E+03   -0.64390E-03   -0.63635E-03  8208   0.225E-02 0.182E-03
CGA:  22    -0.351441016155E+03   -0.28062E-03   -0.27960E-03  8208   0.287E-02 0.348E-04
CGA:  23    -0.351441325467E+03   -0.30931E-03   -0.31034E-03  8208   0.250E-02-0.693E-04
CGA:  24    -0.351441565669E+03   -0.24020E-03   -0.24026E-03  8208   0.190E-02 0.129E-03
CGA:  25    -0.351441765494E+03   -0.19983E-03   -0.19983E-03  8208   0.997E-03 0.154E-05
CGA:  26    -0.351441953156E+03   -0.18766E-03   -0.19476E-03  8208   0.161E-02-0.755E-04
CGA:  27    -0.351442058502E+03   -0.10535E-03   -0.10899E-03  8208   0.564E-03 0.171E-04
CGA:  28    -0.351442133400E+03   -0.74898E-04   -0.74109E-04  8208   0.601E-03 0.208E-04
CGA:  29    -0.351442194149E+03   -0.60749E-04   -0.60686E-04  8208   0.490E-03-0.370E-05
CGA:  30    -0.351442248207E+03   -0.54058E-04   -0.54061E-04  8208   0.213E-03-0.126E-05
CGA:  31    -0.351442267748E+03   -0.19541E-04   -0.19545E-04  8208   0.197E-03-0.892E-06
SDA:  32    -0.351442294911E+03   -0.27163E-04   -0.27205E-04  8208   0.155E-03-0.119E-05
CGA:  33    -0.351442308356E+03   -0.13445E-04   -0.13471E-04  8208   0.688E-04 0.138E-05
CGA:  34    -0.351442320593E+03   -0.12237E-04   -0.12053E-04  8208   0.665E-04 0.259E-05
CGA:  35    -0.351442329716E+03   -0.91231E-05   -0.91293E-05  8208   0.289E-04-0.267E-06
  33 F= -.35144233E+03 E0= -.35143036E+03  d E =-.495788E-01  mag=    30.1567
       N       E                     dE             d eps       ncg     rms          ort
SDA:   1    -0.301649469129E+03    0.49793E+02    0.00000E+00  8208   0.445E+03 0.000E+00
CGA:   2    -0.321062069000E+03   -0.19413E+02   -0.29864E+02  8208   0.124E+03 0.173E+02
CGA:   3    -0.334457922760E+03   -0.13396E+02   -0.12210E+02  8208   0.988E+02-0.319E+02
CGA:   4    -0.340256131131E+03   -0.57982E+01   -0.10097E+02  8208   0.422E+03-0.110E+03
CGA:   5    -0.343053414771E+03   -0.27973E+01   -0.22421E+02  8208   0.157E+03-0.250E+02
CGA:   6    -0.346404341513E+03   -0.33509E+01   -0.57645E+01  8208   0.870E+02-0.108E+02
CGA:   7    -0.347512159736E+03   -0.11078E+01   -0.18172E+01  8208   0.798E+02-0.508E+02
CGA:   8    -0.348587437060E+03   -0.10753E+01   -0.21222E+01  8208   0.546E+02-0.673E+02
CGA:   9    -0.349096482048E+03   -0.50904E+00   -0.13727E+01  8208   0.345E+02-0.379E+02
CGA:  10    -0.349541121623E+03   -0.44464E+00   -0.75801E+00  8208   0.148E+02-0.182E+02
CGA:  11    -0.349757079891E+03   -0.21596E+00   -0.31241E+00  8208   0.624E+01-0.455E+01
CGA:  12    -0.350309980950E+03   -0.55290E+00   -0.56148E+00  8208   0.126E+02-0.129E+00
CGA:  13    -0.350683548167E+03   -0.37357E+00   -0.51937E+00  8208   0.686E+01-0.168E+01
CGA:  14    -0.350898881572E+03   -0.21533E+00   -0.26605E+00  8208   0.226E+01-0.473E+00
CGA:  15    -0.350985439580E+03   -0.86558E-01   -0.84496E-01  8208   0.836E+00 0.143E-01
CGA:  16    -0.351060968370E+03   -0.75529E-01   -0.75151E-01  8208   0.122E+01 0.261E-01
CGA:  17    -0.351133959137E+03   -0.72991E-01   -0.74221E-01  8208   0.488E+00 0.567E-02
CGA:  18    -0.351156815868E+03   -0.22857E-01   -0.23214E-01  8208   0.220E+00-0.157E-02
CGA:  19    -0.351175576688E+03   -0.18761E-01   -0.18656E-01  8208   0.249E+00 0.940E-02
CGA:  20    -0.351193594211E+03   -0.18018E-01   -0.18161E-01  8208   0.165E+00 0.633E-02
CGA:  21    -0.351204703831E+03   -0.11110E-01   -0.11229E-01  8208   0.897E-01 0.337E-02
CGA:  22    -0.351211503502E+03   -0.67997E-02   -0.68077E-02  8208   0.706E-01 0.115E-02
CGA:  23    -0.351217853762E+03   -0.63503E-02   -0.62411E-02  8208   0.355E-01 0.680E-02
CGA:  24    -0.351220438853E+03   -0.25851E-02   -0.25901E-02  8208   0.255E-01 0.171E-03
CGA:  25    -0.351223809761E+03   -0.33709E-02   -0.31728E-02  8208   0.163E-01 0.356E-02
CGA:  26    -0.351225468183E+03   -0.16584E-02   -0.16562E-02  8208   0.163E-01 0.147E-03
CGA:  27    -0.351227065526E+03   -0.15973E-02   -0.15658E-02  8208   0.649E-02 0.134E-02
CGA:  28    -0.351228299004E+03   -0.12335E-02   -0.11988E-02  8208   0.544E-02 0.366E-03
CGA:  29    -0.351229099993E+03   -0.80099E-03   -0.78167E-03  8208   0.516E-02 0.321E-03
CGA:  30    -0.351229646966E+03   -0.54697E-03   -0.54500E-03  8208   0.396E-02 0.106E-03
CGA:  31    -0.351230197986E+03   -0.55102E-03   -0.54891E-03  8208   0.341E-02 0.365E-04
CGA:  32    -0.351230674123E+03   -0.47614E-03   -0.46485E-03  8208   0.207E-02 0.213E-03
CGA:  33    -0.351230931242E+03   -0.25712E-03   -0.25786E-03  8208   0.153E-02-0.185E-04
CGA:  34    -0.351231213904E+03   -0.28266E-03   -0.27271E-03  8208   0.160E-02 0.113E-03
CGA:  35    -0.351231371783E+03   -0.15788E-03   -0.15768E-03  8208   0.857E-03-0.113E-04
CGA:  36    -0.351231513434E+03   -0.14165E-03   -0.13890E-03  8208   0.633E-03 0.378E-04
CGA:  37    -0.351231626437E+03   -0.11300E-03   -0.11377E-03  8208   0.625E-03-0.975E-05
CGA:  38    -0.351231701115E+03   -0.74678E-04   -0.74099E-04  8208   0.381E-03 0.253E-04
CGA:  39    -0.351231759183E+03   -0.58068E-04   -0.58293E-04  8208   0.334E-03-0.391E-05
CGA:  40    -0.351231802507E+03   -0.43324E-04   -0.43035E-04  8208   0.220E-03 0.963E-05
SDA:  41    -0.351231839393E+03   -0.36886E-04   -0.36824E-04  8208   0.131E-03 0.122E-05
CGA:  42    -0.351231850593E+03   -0.11200E-04   -0.11216E-04  8208   0.680E-04 0.486E-06
CGA:  43    -0.351231861409E+03   -0.10815E-04   -0.10800E-04  8208   0.937E-04 0.287E-06
CGA:  44    -0.351231878384E+03   -0.16975E-04   -0.16893E-04  8208   0.417E-04 0.117E-05
CGA:  45    -0.351231886737E+03   -0.83528E-05   -0.83398E-05  8208   0.469E-04 0.136E-06
  34 F= -.35123189E+03 E0= -.35122021E+03  d E =0.210443E+00  mag=    30.1167
       N       E                     dE             d eps       ncg     rms          ort
SDA:   1    -0.341339069660E+03    0.98928E+01    0.00000E+00  8208   0.461E+02 0.000E+00
CGA:   2    -0.346054221491E+03   -0.47152E+01   -0.48518E+01  8208   0.205E+02 0.345E+01
CGA:   3    -0.348464687497E+03   -0.24105E+01   -0.20052E+01  8208   0.121E+02-0.408E+00
CGA:   4    -0.350506907490E+03   -0.20422E+01   -0.21083E+01  8208   0.695E+01-0.137E+01
CGA:   5    -0.350929977935E+03   -0.42307E+00   -0.40203E+00  8208   0.366E+01 0.203E+00
CGA:   6    -0.351172794560E+03   -0.24282E+00   -0.24319E+00  8208   0.185E+01-0.135E-01
CGA:   7    -0.351271537600E+03   -0.98743E-01   -0.92737E-01  8208   0.693E+00 0.736E-01
CGA:   8    -0.351347820376E+03   -0.76283E-01   -0.76398E-01  8208   0.271E+00 0.807E-02
CGA:   9    -0.351381072677E+03   -0.33252E-01   -0.33220E-01  8208   0.120E+00 0.205E-02
CGA:  10    -0.351393203070E+03   -0.12130E-01   -0.12218E-01  8208   0.136E+00 0.312E-02
CGA:  11    -0.351402596400E+03   -0.93933E-02   -0.97119E-02  8208   0.420E-01-0.620E-03
CGA:  12    -0.351407334066E+03   -0.47377E-02   -0.47303E-02  8208   0.281E-01 0.119E-02
CGA:  13    -0.351410240036E+03   -0.29060E-02   -0.29133E-02  8208   0.140E-01 0.345E-03
CGA:  14    -0.351412128997E+03   -0.18890E-02   -0.18832E-02  8208   0.679E-02 0.162E-03
CGA:  15    -0.351412922106E+03   -0.79311E-03   -0.79145E-03  8208   0.566E-02 0.195E-03
CGA:  16    -0.351413454071E+03   -0.53197E-03   -0.53233E-03  8208   0.192E-02 0.611E-05
CGA:  17    -0.351413756333E+03   -0.30226E-03   -0.29835E-03  8208   0.119E-02 0.654E-04
CGA:  18    -0.351413892920E+03   -0.13659E-03   -0.13659E-03  8208   0.738E-03 0.215E-05
CGA:  19    -0.351413984642E+03   -0.91722E-04   -0.91503E-04  8208   0.382E-03 0.107E-04
CGA:  20    -0.351414029016E+03   -0.44374E-04   -0.44370E-04  8208   0.267E-03 0.139E-05
CGA:  21    -0.351414060243E+03   -0.31227E-04   -0.31221E-04  8208   0.144E-03 0.107E-05
CGA:  22    -0.351414081499E+03   -0.21256E-04   -0.21164E-04  8208   0.841E-04 0.235E-05
CGA:  23    -0.351414094442E+03   -0.12944E-04   -0.12915E-04  8208   0.781E-04 0.673E-06
CGA:  24    -0.351414102980E+03   -0.85381E-05   -0.85463E-05  8208   0.423E-04 0.817E-06
  35 F= -.35141410E+03 E0= -.35140176E+03  d E =-.182216E+00  mag=    30.1718
       N       E                     dE             d eps       ncg     rms          ort
SDA:   1    -0.348074566058E+03    0.33395E+01    0.00000E+00  8208   0.127E+02 0.000E+00
CGA:   2    -0.349824125058E+03   -0.17496E+01   -0.17449E+01  8208   0.661E+01 0.160E+00
CGA:   3    -0.350599294676E+03   -0.77517E+00   -0.76953E+00  8208   0.561E+01-0.663E+00
CGA:   4    -0.351188604351E+03   -0.58931E+00   -0.58904E+00  8208   0.154E+01-0.705E-01
CGA:   5    -0.351366851967E+03   -0.17825E+00   -0.17827E+00  8208   0.731E+00 0.721E-02
CGA:   6    -0.351415608255E+03   -0.48756E-01   -0.50261E-01  8208   0.212E+00-0.352E-02
CGA:   7    -0.351444429447E+03   -0.28821E-01   -0.28827E-01  8208   0.664E-01-0.173E-03
CGA:   8    -0.351452575029E+03   -0.81456E-02   -0.81459E-02  8208   0.386E-01-0.989E-05
CGA:   9    -0.351456181648E+03   -0.36066E-02   -0.36229E-02  8208   0.193E-01 0.199E-03
CGA:  10    -0.351457986739E+03   -0.18051E-02   -0.18011E-02  8208   0.647E-02-0.382E-04
CGA:  11    -0.351459048481E+03   -0.10617E-02   -0.10591E-02  8208   0.323E-02 0.436E-04
CGA:  12    -0.351459354169E+03   -0.30569E-03   -0.30548E-03  8208   0.203E-02-0.156E-05
CGA:  13    -0.351459631093E+03   -0.27692E-03   -0.27683E-03  8208   0.950E-03 0.315E-05
CGA:  14    -0.351459731763E+03   -0.10067E-03   -0.10070E-03  8208   0.590E-03 0.961E-06
CGA:  15    -0.351459801480E+03   -0.69717E-04   -0.69711E-04  8208   0.312E-03 0.274E-05
CGA:  16    -0.351459841535E+03   -0.40055E-04   -0.40053E-04  8208   0.135E-03-0.431E-07
CGA:  17    -0.351459859136E+03   -0.17602E-04   -0.17588E-04  8208   0.121E-03 0.722E-06
CGA:  18    -0.351459870771E+03   -0.11635E-04   -0.11637E-04  8208   0.380E-04-0.144E-06
CGA:  19    -0.351459876295E+03   -0.55244E-05   -0.55075E-05  8208   0.260E-04 0.510E-06
  36 F= -.35145988E+03 E0= -.35144729E+03  d E =-.457733E-01  mag=    30.1980
       N       E                     dE             d eps       ncg     rms          ort
SDA:   1    -0.351082177971E+03    0.37769E+00    0.00000E+00  8208   0.123E+01 0.000E+00
CGA:   2    -0.351306044319E+03   -0.22387E+00   -0.22384E+00  8208   0.663E+00 0.378E-03
CGA:   3    -0.351409094620E+03   -0.10305E+00   -0.10320E+00  8208   0.415E+00-0.315E-02
CGA:   4    -0.351444104130E+03   -0.35010E-01   -0.35225E-01  8208   0.152E+00 0.707E-03
CGA:   5    -0.351460264509E+03   -0.16160E-01   -0.16139E-01  8208   0.494E-01-0.475E-03
CGA:   6    -0.351464340876E+03   -0.40764E-02   -0.41189E-02  8208   0.233E-01 0.897E-04
CGA:   7    -0.351466912257E+03   -0.25714E-02   -0.25695E-02  8208   0.530E-02-0.920E-04
CGA:   8    -0.351467705132E+03   -0.79288E-03   -0.79163E-03  8208   0.353E-02 0.293E-04
CGA:   9    -0.351468013532E+03   -0.30840E-03   -0.30726E-03  8208   0.119E-02-0.380E-05
CGA:  10    -0.351468179815E+03   -0.16628E-03   -0.16621E-03  8208   0.860E-03 0.304E-05
CGA:  11    -0.351468251243E+03   -0.71428E-04   -0.71382E-04  8208   0.310E-03-0.231E-06
CGA:  12    -0.351468303901E+03   -0.52658E-04   -0.52601E-04  8208   0.225E-03 0.108E-05
CGA:  13    -0.351468327223E+03   -0.23323E-04   -0.23311E-04  8208   0.106E-03-0.282E-06
CGA:  14    -0.351468342495E+03   -0.15272E-04   -0.15259E-04  8208   0.756E-04 0.472E-06
CGA:  15    -0.351468349853E+03   -0.73574E-05   -0.73489E-05  8208   0.342E-04-0.312E-06
  37 F= -.35146835E+03 E0= -.35145568E+03  d E =-.847356E-02  mag=    30.2096
       N       E                     dE             d eps       ncg     rms          ort
SDA:   1    -0.351115379310E+03    0.35296E+00    0.00000E+00  8208   0.108E+01 0.000E+00
CGA:   2    -0.351317809370E+03   -0.20243E+00   -0.20223E+00  8208   0.104E+01 0.137E-02
CGA:   3    -0.351397138637E+03   -0.79329E-01   -0.78416E-01  8208   0.415E+00 0.623E-02
CGA:   4    -0.351449704242E+03   -0.52566E-01   -0.52553E-01  8208   0.127E+00 0.125E-02
CGA:   5    -0.351464342043E+03   -0.14638E-01   -0.14619E-01  8208   0.666E-01-0.150E-02
CGA:   6    -0.351469898433E+03   -0.55564E-02   -0.56038E-02  8208   0.152E-01 0.144E-03
CGA:   7    -0.351472069677E+03   -0.21712E-02   -0.21730E-02  8208   0.613E-02-0.495E-04
CGA:   8    -0.351472621966E+03   -0.55229E-03   -0.55410E-03  8208   0.344E-02 0.142E-04
CGA:   9    -0.351472993077E+03   -0.37111E-03   -0.37102E-03  8208   0.148E-02-0.370E-05
CGA:  10    -0.351473157428E+03   -0.16435E-03   -0.16439E-03  8208   0.731E-03 0.394E-05
CGA:  11    -0.351473241350E+03   -0.83922E-04   -0.83921E-04  8208   0.421E-03 0.282E-06
CGA:  12    -0.351473300303E+03   -0.58953E-04   -0.58931E-04  8208   0.194E-03 0.104E-05
CGA:  13    -0.351473327194E+03   -0.26891E-04   -0.26895E-04  8208   0.182E-03-0.120E-06
CGA:  14    -0.351473345474E+03   -0.18280E-04   -0.18293E-04  8208   0.803E-04 0.654E-06
CGA:  15    -0.351473354619E+03   -0.91442E-05   -0.91425E-05  8208   0.457E-04-0.314E-06
  38 F= -.35147335E+03 E0= -.35146061E+03  d E =-.500477E-02  mag=    30.2199
       N       E                     dE             d eps       ncg     rms          ort
SDA:   1    -0.351380976614E+03    0.92369E-01    0.00000E+00  8208   0.291E+00 0.000E+00
CGA:   2    -0.351429146649E+03   -0.48170E-01   -0.47990E-01  8208   0.292E+00 0.301E-02
CGA:   3    -0.351451984318E+03   -0.22838E-01   -0.22475E-01  8208   0.107E+00 0.944E-03
CGA:   4    -0.351466881338E+03   -0.14897E-01   -0.14898E-01  8208   0.325E-01-0.304E-04
CGA:   5    -0.351471025789E+03   -0.41445E-02   -0.41443E-02  8208   0.150E-01 0.176E-04
CGA:   6    -0.351472206986E+03   -0.11812E-02   -0.11791E-02  8208   0.488E-02 0.580E-05
CGA:   7    -0.351472763598E+03   -0.55661E-03   -0.55657E-03  8208   0.207E-02-0.482E-05
CGA:   8    -0.351472948577E+03   -0.18498E-03   -0.18535E-03  8208   0.909E-03 0.391E-05
CGA:   9    -0.351473058036E+03   -0.10946E-03   -0.10947E-03  8208   0.427E-03-0.973E-06
CGA:  10    -0.351473109408E+03   -0.51372E-04   -0.51369E-04  8208   0.197E-03 0.749E-06
CGA:  11    -0.351473131407E+03   -0.21999E-04   -0.21996E-04  8208   0.149E-03-0.385E-06
CGA:  12    -0.351473148139E+03   -0.16732E-04   -0.16734E-04  8208   0.636E-04 0.421E-06
CGA:  13    -0.351473157160E+03   -0.90208E-05   -0.90221E-05  8208   0.519E-04-0.261E-07
  39 F= -.35147316E+03 E0= -.35146038E+03  d E =0.197458E-03  mag=    30.2243
       N       E                     dE             d eps       ncg     rms          ort
SDA:   1    -0.351238827734E+03    0.23432E+00    0.00000E+00  8208   0.686E+00 0.000E+00
CGA:   2    -0.351359791695E+03   -0.12096E+00   -0.12115E+00  8208   0.805E+00-0.369E-02
CGA:   3    -0.351420178005E+03   -0.60386E-01   -0.60788E-01  8208   0.244E+00 0.207E-02
CGA:   4    -0.351451456942E+03   -0.31279E-01   -0.31231E-01  8208   0.116E+00 0.292E-02
CGA:   5    -0.351461092013E+03   -0.96351E-02   -0.94005E-02  8208   0.386E-01-0.375E-06
CGA:   6    -0.351465842772E+03   -0.47508E-02   -0.47497E-02  8208   0.873E-02 0.934E-04
CGA:   7    -0.351467063673E+03   -0.12209E-02   -0.12203E-02  8208   0.479E-02 0.188E-04
CGA:   8    -0.351467503648E+03   -0.43998E-03   -0.43959E-03  8208   0.184E-02-0.152E-05
CGA:   9    -0.351467729433E+03   -0.22578E-03   -0.22578E-03  8208   0.112E-02 0.164E-05
CGA:  10    -0.351467835946E+03   -0.10651E-03   -0.10645E-03  8208   0.562E-03-0.146E-05
CGA:  11    -0.351467895761E+03   -0.59814E-04   -0.59833E-04  8208   0.309E-03 0.121E-05
CGA:  12    -0.351467945052E+03   -0.49291E-04   -0.49329E-04  8208   0.192E-03-0.630E-06
CGA:  13    -0.351467967630E+03   -0.22579E-04   -0.22579E-04  8208   0.129E-03 0.457E-06
CGA:  14    -0.351467986710E+03   -0.19080E-04   -0.19080E-04  8208   0.756E-04 0.793E-07
CGA:  15    -0.351467995724E+03   -0.90135E-05   -0.90135E-05  8208   0.371E-04 0.644E-07
  40 F= -.35146800E+03 E0= -.35145514E+03  d E =0.516144E-02  mag=    30.2320
       N       E                     dE             d eps       ncg     rms          ort
SDA:   1    -0.351305233051E+03    0.16275E+00    0.00000E+00  8208   0.467E+00 0.000E+00
CGA:   2    -0.351390053403E+03   -0.84820E-01   -0.84971E-01  8208   0.470E+00-0.209E-02
CGA:   3    -0.351425582375E+03   -0.35529E-01   -0.36156E-01  8208   0.218E+00-0.653E-03
CGA:   4    -0.351452574629E+03   -0.26992E-01   -0.26996E-01  8208   0.505E-01-0.570E-03
CGA:   5    -0.351459269040E+03   -0.66944E-02   -0.66921E-02  8208   0.199E-01 0.120E-03
CGA:   6    -0.351460720871E+03   -0.14518E-02   -0.14402E-02  8208   0.797E-02 0.474E-04
CGA:   7    -0.351461746266E+03   -0.10254E-02   -0.10253E-02  8208   0.254E-02 0.588E-05
CGA:   8    -0.351462004556E+03   -0.25829E-03   -0.25846E-03  8208   0.162E-02 0.374E-05
CGA:   9    -0.351462182553E+03   -0.17800E-03   -0.17797E-03  8208   0.511E-03-0.407E-06
CGA:  10    -0.351462240146E+03   -0.57593E-04   -0.57585E-04  8208   0.386E-03-0.592E-06
CGA:  11    -0.351462282852E+03   -0.42705E-04   -0.42710E-04  8208   0.182E-03 0.581E-06
CGA:  12    -0.351462304470E+03   -0.21618E-04   -0.21620E-04  8208   0.117E-03-0.861E-06
CGA:  13    -0.351462322991E+03   -0.18522E-04   -0.18515E-04  8208   0.899E-04 0.206E-06
CGA:  14    -0.351462330705E+03   -0.77131E-05   -0.77018E-05  8208   0.436E-04-0.233E-06
  41 F= -.35146233E+03 E0= -.35144940E+03  d E =0.566502E-02  mag=    30.2383
