       N       E                     dE             d eps       ncg     rms          ort
DAV:   1     0.897105343123E+04    0.89711E+04   -0.41412E+05  8208   0.179E+03
DAV:   2     0.628074178148E+03   -0.83430E+04   -0.78143E+04  8208   0.527E+02
DAV:   3    -0.353556695446E+03   -0.98163E+03   -0.94644E+03  8208   0.203E+02
DAV:   4    -0.396761017536E+03   -0.43204E+02   -0.42690E+02  8208   0.400E+01
DAV:   5    -0.398920293125E+03   -0.21593E+01   -0.21412E+01  8208   0.764E+00
SDA:   6    -0.188317989401E+03    0.21060E+03   -0.21412E+01  8208   0.174E+04 0.000E+00
CGA:   7    -0.262031294203E+03   -0.73713E+02   -0.13379E+03  8208   0.386E+04-0.875E+03
CGA:   8    -0.279867240639E+03   -0.17836E+02   -0.16815E+03  8208   0.473E+04-0.469E+04
CGA:   9    -0.129459298534E+03    0.15041E+03   -0.30442E+03  8208   0.133E+05-0.506E+04
CGA:  10     0.251138799438E+03    0.38060E+03   -0.85826E+03  8208   0.314E+05-0.149E+05
CGA:  11     0.211281392919E+03   -0.39857E+02   -0.22605E+04  8208   0.123E+05-0.733E+04
CGA:  12     0.170491619068E+03   -0.40790E+02   -0.49916E+03  8208   0.134E+05 0.334E+04
CGA:  13     0.134911689379E+03   -0.35580E+02   -0.83323E+03  8208   0.261E+05-0.159E+05
CGA:  14     0.161553616729E+03    0.26642E+02   -0.14806E+04  8208   0.133E+05-0.761E+04
CGA:  15     0.125107161556E+03   -0.36446E+02   -0.36947E+03  8208   0.132E+05-0.824E+04
CGA:  16     0.584122258247E+02   -0.66695E+02   -0.62049E+03  8208   0.581E+04-0.524E+04
CGA:  17    -0.106927298245E+03   -0.16534E+03   -0.82607E+02  8208   0.911E+04 0.501E+04
CGA:  18     0.822714603790E+02    0.18920E+03   -0.32289E+03  8208   0.536E+04-0.365E+04
CGA:  19    -0.260851046079E+03   -0.34312E+03   -0.66230E+02  8208   0.834E+04-0.141E+05
CGA:  20    -0.790462039809E+02    0.18180E+03   -0.31138E+03  8208   0.210E+05-0.119E+05
CGA:  21     0.112002965045E+03    0.19105E+03   -0.88822E+03  8208   0.141E+05-0.752E+04
CGA:  22    -0.170006749200E+03   -0.28201E+03   -0.29888E+03  8208   0.713E+04-0.106E+05
CGA:  23    -0.263333584655E+03   -0.93327E+02   -0.19434E+03  8208   0.434E+04-0.753E+04
CGA:  24    -0.148490170650E+03    0.11484E+03   -0.13514E+03  8208   0.992E+04-0.368E+04
CGA:  25    -0.591710511325E+02    0.89319E+02   -0.27924E+03  8208   0.756E+04-0.504E+04
CGA:  26    -0.762831717889E+02   -0.17112E+02   -0.22454E+03  8208   0.119E+05-0.480E+04
CGA:  27    -0.127594961380E+03   -0.51312E+02   -0.36574E+03  8208   0.106E+05-0.126E+05
CGA:  28    -0.142169471694E+03   -0.14575E+02   -0.27988E+03  8208   0.139E+05-0.159E+05
CGA:  29     0.614068401837E+02    0.20358E+03   -0.47911E+03  8208   0.960E+04-0.482E+04
CGA:  30    -0.222681691209E+03   -0.28409E+03   -0.12684E+03  8208   0.771E+04-0.124E+05
CGA:  31    -0.204152820719E+03    0.18529E+02   -0.21609E+03  8208   0.145E+05-0.117E+05
CGA:  32    -0.165238318929E+03    0.38915E+02   -0.51997E+03  8208   0.391E+04-0.580E+03
CGA:  33    -0.321325300293E+03   -0.15609E+03   -0.75419E+02  8208   0.922E+03-0.176E+03
CGA:  34    -0.333921734184E+03   -0.12596E+02   -0.17116E+02  8208   0.170E+04-0.459E+03
CGA:  35    -0.323903840922E+03    0.10018E+02   -0.15872E+02  8208   0.862E+03-0.238E+03
CGA:  36    -0.334735505580E+03   -0.10832E+02   -0.94713E+01  8208   0.497E+03-0.465E+03
CGA:  37    -0.344043139994E+03   -0.93076E+01   -0.87181E+01  8208   0.133E+03-0.217E+02
CGA:  38    -0.345170010726E+03   -0.11269E+01   -0.12637E+01  8208   0.708E+02-0.229E+02
CGA:  39    -0.345675589262E+03   -0.50558E+00   -0.31946E+00  8208   0.484E+02 0.328E+02
CGA:  40    -0.346142514116E+03   -0.46692E+00   -0.58337E+00  8208   0.336E+02-0.203E+02
CGA:  41    -0.346251734754E+03   -0.10922E+00   -0.21165E+00  8208   0.601E+02-0.924E+01
CGA:  42    -0.346162546152E+03    0.89189E-01   -0.12218E+01  8208   0.178E+03 0.167E+02
CGA:  43    -0.346947798040E+03   -0.78525E+00   -0.25690E+01  8208   0.738E+02-0.141E+02
CGA:  44    -0.347316166754E+03   -0.36837E+00   -0.26433E+00  8208   0.504E+02 0.195E+02
CGA:  45    -0.347561078073E+03   -0.24491E+00   -0.36858E+00  8208   0.585E+02-0.265E+02
CGA:  46    -0.348214452428E+03   -0.65337E+00   -0.11000E+01  8208   0.214E+02-0.141E+02
CGA:  47    -0.348605415695E+03   -0.39096E+00   -0.36450E+00  8208   0.557E+01 0.274E+00
CGA:  48    -0.348845325638E+03   -0.23991E+00   -0.24068E+00  8208   0.684E+01 0.220E+00
CGA:  49    -0.349083942511E+03   -0.23862E+00   -0.22512E+00  8208   0.741E+01 0.275E+00
CGA:  50    -0.349200295952E+03   -0.11635E+00   -0.78688E-01  8208   0.544E+01 0.316E+01
CGA:  51    -0.349278954619E+03   -0.78659E-01   -0.51820E-01  8208   0.336E+01 0.368E+01
CGA:  52    -0.349357075249E+03   -0.78121E-01   -0.82580E-01  8208   0.204E+01-0.351E-01
CGA:  53    -0.349447024575E+03   -0.89949E-01   -0.88890E-01  8208   0.375E+01 0.137E+00
CGA:  54    -0.349608775765E+03   -0.16175E+00   -0.16371E+00  8208   0.589E+01-0.837E+00
CGA:  55    -0.349642000585E+03   -0.33225E-01   -0.21380E-01  8208   0.463E+01 0.230E+01
CGA:  56    -0.349687704124E+03   -0.45704E-01   -0.38049E-01  8208   0.264E+01 0.103E+01
CGA:  57    -0.349711268812E+03   -0.23565E-01   -0.18278E-01  8208   0.268E+01 0.847E+00
CGA:  58    -0.349738217147E+03   -0.26948E-01   -0.21141E-01  8208   0.328E+01 0.895E+00
CGA:  59    -0.349766300014E+03   -0.28083E-01   -0.21169E-01  8208   0.333E+01 0.137E+01
CGA:  60    -0.349793690535E+03   -0.27391E-01   -0.23101E-01  8208   0.266E+01 0.824E+00
CGA:  61    -0.349812650926E+03   -0.18960E-01   -0.22318E-01  8208   0.328E+01-0.427E+00
CGA:  62    -0.349824367588E+03   -0.11717E-01   -0.76900E-02  8208   0.384E+01 0.144E+01
CGA:  63    -0.349851241403E+03   -0.26874E-01   -0.15475E-01  8208   0.362E+01 0.403E+01
CGA:  64    -0.349912203905E+03   -0.60963E-01   -0.62948E-01  8208   0.125E+01-0.143E-01
CGA:  65    -0.349946907477E+03   -0.34704E-01   -0.34586E-01  8208   0.660E+00 0.423E-01
CGA:  66    -0.350022952771E+03   -0.76045E-01   -0.60820E-01  8208   0.406E+00 0.254E+00
CGA:  67    -0.350060463776E+03   -0.37511E-01   -0.34785E-01  8208   0.362E+00 0.783E-01
CGA:  68    -0.350099538635E+03   -0.39075E-01   -0.36033E-01  8208   0.701E+00 0.584E-01
CGA:  69    -0.350126705357E+03   -0.27167E-01   -0.27011E-01  8208   0.448E+00-0.117E+00
CGA:  70    -0.350139415351E+03   -0.12710E-01   -0.12719E-01  8208   0.381E+00-0.165E-01
CGA:  71    -0.350148594985E+03   -0.91796E-02   -0.93749E-02  8208   0.248E+00 0.146E-02
CGA:  72    -0.350160283774E+03   -0.11689E-01   -0.11282E-01  8208   0.237E+00 0.231E-01
CGA:  73    -0.350170561688E+03   -0.10278E-01   -0.10121E-01  8208   0.144E+00 0.174E-01
CGA:  74    -0.350178260539E+03   -0.76989E-02   -0.74252E-02  8208   0.966E-01 0.138E-01
CGA:  75    -0.350183403728E+03   -0.51432E-02   -0.50258E-02  8208   0.522E-01 0.611E-02
CGA:  76    -0.350188022082E+03   -0.46184E-02   -0.42678E-02  8208   0.428E-01 0.802E-02
CGA:  77    -0.350191612974E+03   -0.35909E-02   -0.34263E-02  8208   0.465E-01 0.472E-02
CGA:  78    -0.350195139337E+03   -0.35264E-02   -0.34896E-02  8208   0.383E-01 0.110E-02
CGA:  79    -0.350197927364E+03   -0.27880E-02   -0.26564E-02  8208   0.214E-01 0.426E-02
CGA:  80    -0.350200186968E+03   -0.22596E-02   -0.22486E-02  8208   0.174E-01 0.232E-03
CGA:  81    -0.350201826052E+03   -0.16391E-02   -0.15757E-02  8208   0.144E-01 0.137E-02
CGA:  82    -0.350202941830E+03   -0.11158E-02   -0.11031E-02  8208   0.105E-01 0.431E-03
CGA:  83    -0.350203892585E+03   -0.95075E-03   -0.92211E-03  8208   0.922E-02 0.706E-03
CGA:  84    -0.350204694586E+03   -0.80200E-03   -0.79578E-03  8208   0.856E-02 0.173E-03
CGA:  85    -0.350205702051E+03   -0.10075E-02   -0.97041E-03  8208   0.516E-02 0.618E-03
CGA:  86    -0.350206231335E+03   -0.52928E-03   -0.52764E-03  8208   0.473E-02 0.363E-04
CGA:  87    -0.350206697826E+03   -0.46649E-03   -0.45741E-03  8208   0.412E-02 0.205E-03
CGA:  88    -0.350207111257E+03   -0.41343E-03   -0.41364E-03  8208   0.346E-02-0.588E-05
CGA:  89    -0.350207368139E+03   -0.25688E-03   -0.25554E-03  8208   0.179E-02 0.641E-04
CGA:  90    -0.350207540468E+03   -0.17233E-03   -0.17145E-03  8208   0.121E-02 0.233E-04
CGA:  91    -0.350207666812E+03   -0.12634E-03   -0.12568E-03  8208   0.989E-03 0.161E-04
CGA:  92    -0.350207765995E+03   -0.99184E-04   -0.98646E-04  8208   0.641E-03 0.159E-04
CGA:  93    -0.350207818415E+03   -0.52420E-04   -0.52218E-04  8208   0.418E-03 0.130E-04
SDA:  94    -0.350207863789E+03   -0.45374E-04   -0.44968E-04  8208   0.429E-03 0.105E-04
CGA:  95    -0.350207879406E+03   -0.15617E-04   -0.15623E-04  8208   0.111E-03 0.103E-08
CGA:  96    -0.350207902105E+03   -0.22699E-04   -0.22202E-04  8208   0.250E-03 0.334E-05
CGA:  97    -0.350207942797E+03   -0.40692E-04   -0.40205E-04  8208   0.243E-03 0.573E-05
CGA:  98    -0.350207960038E+03   -0.17241E-04   -0.17266E-04  8208   0.114E-03 0.293E-05
CGA:  99    -0.350207969085E+03   -0.90467E-05   -0.90447E-05  8208   0.383E-04 0.194E-05
   1 F= -.35020797E+03 E0= -.35019160E+03  d E =-.350208E+03  mag=    31.1272
       N       E                     dE             d eps       ncg     rms          ort
SDA:   1    -0.350208934799E+03   -0.97476E-03    0.00000E+00  8208   0.605E-02 0.000E+00
CGA:   2    -0.350209172469E+03   -0.23767E-03   -0.23308E-03  8208   0.797E-03 0.687E-04
CGA:   3    -0.350209215646E+03   -0.43177E-04   -0.43179E-04  8208   0.327E-03-0.463E-06
CGA:   4    -0.350209262337E+03   -0.46691E-04   -0.46730E-04  8208   0.179E-03-0.543E-06
CGA:   5    -0.350209284170E+03   -0.21834E-04   -0.21917E-04  8208   0.605E-04-0.206E-05
CGA:   6    -0.350209292841E+03   -0.86706E-05   -0.86142E-05  8208   0.253E-04 0.956E-06
   2 F= -.35020929E+03 E0= -.35019291E+03  d E =-.132376E-02  mag=    31.1182
       N       E                     dE             d eps       ncg     rms          ort
SDA:   1    -0.349844945150E+03    0.36434E+00    0.00000E+00  8208   0.120E+01 0.000E+00
CGA:   2    -0.350122313346E+03   -0.27737E+00   -0.27675E+00  8208   0.976E+00 0.467E-02
CGA:   3    -0.350207162436E+03   -0.84849E-01   -0.84767E-01  8208   0.736E+00-0.487E-02
CGA:   4    -0.350257110900E+03   -0.49948E-01   -0.50601E-01  8208   0.259E+00 0.396E-02
CGA:   5    -0.350274837096E+03   -0.17726E-01   -0.18037E-01  8208   0.102E+00 0.274E-02
CGA:   6    -0.350282256995E+03   -0.74199E-02   -0.74594E-02  8208   0.613E-01 0.503E-03
CGA:   7    -0.350286380252E+03   -0.41233E-02   -0.41172E-02  8208   0.139E-01-0.258E-04
CGA:   8    -0.350288346718E+03   -0.19665E-02   -0.19671E-02  8208   0.711E-02-0.770E-05
CGA:   9    -0.350288935959E+03   -0.58924E-03   -0.58937E-03  8208   0.353E-02 0.104E-04
CGA:  10    -0.350289201845E+03   -0.26589E-03   -0.26592E-03  8208   0.308E-02 0.211E-05
CGA:  11    -0.350289450442E+03   -0.24860E-03   -0.24842E-03  8208   0.694E-03-0.380E-05
CGA:  12    -0.350289541576E+03   -0.91134E-04   -0.90914E-04  8208   0.658E-03 0.510E-05
CGA:  13    -0.350289599203E+03   -0.57627E-04   -0.57640E-04  8208   0.401E-03 0.201E-05
CGA:  14    -0.350289630067E+03   -0.30864E-04   -0.30874E-04  8208   0.181E-03 0.441E-06
CGA:  15    -0.350289659968E+03   -0.29901E-04   -0.29794E-04  8208   0.136E-03 0.147E-05
CGA:  16    -0.350289669651E+03   -0.96834E-05   -0.96857E-05  8208   0.924E-04 0.175E-06
   3 F= -.35028967E+03 E0= -.35027341E+03  d E =-.803768E-01  mag=    31.0926
       N       E                     dE             d eps       ncg     rms          ort
SDA:   1    -0.347367445456E+03    0.29222E+01    0.00000E+00  8208   0.864E+01 0.000E+00
CGA:   2    -0.349085900055E+03   -0.17185E+01   -0.17708E+01  8208   0.149E+02-0.472E+00
CGA:   3    -0.349708523000E+03   -0.62262E+00   -0.72650E+00  8208   0.556E+01-0.706E+00
CGA:   4    -0.350150941769E+03   -0.44242E+00   -0.42696E+00  8208   0.275E+01-0.244E+00
CGA:   5    -0.350364879683E+03   -0.21394E+00   -0.21590E+00  8208   0.632E+00 0.581E-01
CGA:   6    -0.350426300544E+03   -0.61421E-01   -0.61407E-01  8208   0.491E+00 0.912E-02
CGA:   7    -0.350456141358E+03   -0.29841E-01   -0.29858E-01  8208   0.126E+00 0.104E-03
CGA:   8    -0.350468009807E+03   -0.11868E-01   -0.11872E-01  8208   0.807E-01-0.133E-02
CGA:   9    -0.350474772669E+03   -0.67629E-02   -0.67654E-02  8208   0.405E-01 0.141E-03
CGA:  10    -0.350477343038E+03   -0.25704E-02   -0.25866E-02  8208   0.166E-01 0.465E-04
CGA:  11    -0.350479576012E+03   -0.22330E-02   -0.22315E-02  8208   0.111E-01 0.304E-04
CGA:  12    -0.350480215372E+03   -0.63936E-03   -0.63652E-03  8208   0.451E-02 0.187E-04
CGA:  13    -0.350480730331E+03   -0.51496E-03   -0.51406E-03  8208   0.397E-02 0.286E-04
CGA:  14    -0.350481097879E+03   -0.36755E-03   -0.36755E-03  8208   0.174E-02 0.883E-05
CGA:  15    -0.350481240084E+03   -0.14221E-03   -0.14219E-03  8208   0.152E-02 0.234E-06
CGA:  16    -0.350481408294E+03   -0.16821E-03   -0.16823E-03  8208   0.788E-03 0.196E-06
CGA:  17    -0.350481469293E+03   -0.60999E-04   -0.61099E-04  8208   0.478E-03 0.345E-05
CGA:  18    -0.350481513197E+03   -0.43904E-04   -0.43907E-04  8208   0.345E-03 0.466E-05
CGA:  19    -0.350481545452E+03   -0.32255E-04   -0.32254E-04  8208   0.138E-03 0.346E-05
CGA:  20    -0.350481557981E+03   -0.12529E-04   -0.12535E-04  8208   0.115E-03 0.246E-05
CGA:  21    -0.350481567384E+03   -0.94027E-05   -0.94258E-05  8208   0.573E-04 0.187E-05
   4 F= -.35048157E+03 E0= -.35046567E+03  d E =-.191898E+00  mag=    31.0439
       N       E                     dE             d eps       ncg     rms          ort
SDA:   1    -0.345635977112E+03    0.48456E+01    0.00000E+00  8208   0.146E+02 0.000E+00
CGA:   2    -0.348254602981E+03   -0.26186E+01   -0.26760E+01  8208   0.236E+02-0.468E+00
CGA:   3    -0.349403701424E+03   -0.11491E+01   -0.12287E+01  8208   0.827E+01-0.502E+00
CGA:   4    -0.350125125214E+03   -0.72142E+00   -0.70825E+00  8208   0.471E+01-0.691E+00
CGA:   5    -0.350482705794E+03   -0.35758E+00   -0.36241E+00  8208   0.958E+00 0.188E+00
CGA:   6    -0.350588867374E+03   -0.10616E+00   -0.10627E+00  8208   0.691E+00-0.554E-02
CGA:   7    -0.350632822944E+03   -0.43956E-01   -0.43552E-01  8208   0.215E+00-0.223E-03
CGA:   8    -0.350649978791E+03   -0.17156E-01   -0.17223E-01  8208   0.109E+00 0.186E-02
CGA:   9    -0.350662396791E+03   -0.12418E-01   -0.12389E-01  8208   0.475E-01 0.982E-03
CGA:  10    -0.350665482761E+03   -0.30860E-02   -0.31082E-02  8208   0.304E-01 0.667E-04
CGA:  11    -0.350668765433E+03   -0.32827E-02   -0.32801E-02  8208   0.157E-01 0.110E-03
CGA:  12    -0.350670083108E+03   -0.13177E-02   -0.13177E-02  8208   0.561E-02 0.118E-04
CGA:  13    -0.350670832880E+03   -0.74977E-03   -0.74845E-03  8208   0.821E-02 0.277E-04
CGA:  14    -0.350671406955E+03   -0.57407E-03   -0.57521E-03  8208   0.216E-02 0.162E-04
CGA:  15    -0.350671674687E+03   -0.26773E-03   -0.26762E-03  8208   0.238E-02 0.353E-05
CGA:  16    -0.350671883887E+03   -0.20920E-03   -0.20926E-03  8208   0.139E-02 0.672E-05
CGA:  17    -0.350671987156E+03   -0.10327E-03   -0.10347E-03  8208   0.538E-03 0.571E-05
CGA:  18    -0.350672061912E+03   -0.74756E-04   -0.74460E-04  8208   0.416E-03 0.659E-05
CGA:  19    -0.350672093760E+03   -0.31848E-04   -0.31894E-04  8208   0.266E-03 0.246E-05
CGA:  20    -0.350672116420E+03   -0.22660E-04   -0.22687E-04  8208   0.115E-03 0.280E-05
CGA:  21    -0.350672129723E+03   -0.13304E-04   -0.13267E-04  8208   0.920E-04 0.167E-05
CGA:  22    -0.350672139077E+03   -0.93532E-05   -0.93442E-05  8208   0.772E-04 0.170E-05
   5 F= -.35067214E+03 E0= -.35065663E+03  d E =-.190572E+00  mag=    30.9691
       N       E                     dE             d eps       ncg     rms          ort
SDA:   1    -0.343500257695E+03    0.71719E+01    0.00000E+00  8208   0.224E+02 0.000E+00
CGA:   2    -0.347135048571E+03   -0.36348E+01   -0.37198E+01  8208   0.305E+02-0.851E+00
CGA:   3    -0.348799167544E+03   -0.16641E+01   -0.17401E+01  8208   0.143E+02-0.583E+00
CGA:   4    -0.349767810810E+03   -0.96864E+00   -0.79106E+00  8208   0.643E+01 0.533E+00
CGA:   5    -0.350487150017E+03   -0.71934E+00   -0.71899E+00  8208   0.195E+01 0.123E-01
CGA:   6    -0.350609454762E+03   -0.12230E+00   -0.12342E+00  8208   0.168E+01-0.145E-02
CGA:   7    -0.350719480405E+03   -0.11003E+00   -0.11051E+00  8208   0.395E+00 0.165E-02
CGA:   8    -0.350758187249E+03   -0.38707E-01   -0.38656E-01  8208   0.157E+00 0.503E-02
CGA:   9    -0.350777260276E+03   -0.19073E-01   -0.19031E-01  8208   0.128E+00 0.111E-02
CGA:  10    -0.350783645316E+03   -0.63850E-02   -0.65515E-02  8208   0.449E-01-0.127E-02
CGA:  11    -0.350788290054E+03   -0.46447E-02   -0.46077E-02  8208   0.368E-01 0.187E-02
CGA:  12    -0.350791306020E+03   -0.30160E-02   -0.30235E-02  8208   0.143E-01 0.207E-03
CGA:  13    -0.350792497784E+03   -0.11918E-02   -0.11921E-02  8208   0.105E-01 0.242E-04
CGA:  14    -0.350793895127E+03   -0.13973E-02   -0.13823E-02  8208   0.440E-02 0.299E-03
CGA:  15    -0.350794508609E+03   -0.61348E-03   -0.61221E-03  8208   0.323E-02 0.264E-04
CGA:  16    -0.350794921759E+03   -0.41315E-03   -0.41248E-03  8208   0.285E-02 0.183E-04
CGA:  17    -0.350795095907E+03   -0.17415E-03   -0.17568E-03  8208   0.105E-02 0.206E-05
CGA:  18    -0.350795255713E+03   -0.15981E-03   -0.15947E-03  8208   0.110E-02 0.666E-05
CGA:  19    -0.350795328780E+03   -0.73067E-04   -0.73442E-04  8208   0.470E-03 0.452E-05
CGA:  20    -0.350795388360E+03   -0.59580E-04   -0.59343E-04  8208   0.340E-03 0.719E-05
CGA:  21    -0.350795446543E+03   -0.58183E-04   -0.57825E-04  8208   0.329E-03 0.507E-05
CGA:  22    -0.350795478284E+03   -0.31741E-04   -0.31783E-04  8208   0.352E-03 0.568E-05
CGA:  23    -0.350795526336E+03   -0.48053E-04   -0.47766E-04  8208   0.403E-03 0.799E-05
CGA:  24    -0.350795591122E+03   -0.64786E-04   -0.63822E-04  8208   0.564E-03 0.167E-04
CGA:  25    -0.350795667616E+03   -0.76494E-04   -0.76667E-04  8208   0.857E-03-0.252E-05
CGA:  26    -0.350795841385E+03   -0.17377E-03   -0.16563E-03  8208   0.125E-02 0.846E-04
CGA:  27    -0.350796109559E+03   -0.26817E-03   -0.34257E-03  8208   0.516E-02-0.622E-03
CGA:  28    -0.350796163763E+03   -0.54204E-04   -0.41434E-04  8208   0.556E-02 0.829E-03
CGA:  29    -0.350796378208E+03   -0.21445E-03   -0.21587E-03  8208   0.280E-02 0.219E-03
CGA:  30    -0.350796493052E+03   -0.11484E-03   -0.12549E-03  8208   0.234E-02-0.112E-03
CGA:  31    -0.350796626331E+03   -0.13328E-03   -0.13196E-03  8208   0.265E-02 0.344E-04
SDA:  32    -0.350796745682E+03   -0.11935E-03   -0.11247E-03  8208   0.208E-02 0.130E-03
CGA:  33    -0.350797027930E+03   -0.28225E-03   -0.28216E-03  8208   0.236E-02 0.288E-05
CGA:  34    -0.350797590607E+03   -0.56268E-03   -0.56284E-03  8208   0.170E-02-0.116E-05
CGA:  35    -0.350797781063E+03   -0.19046E-03   -0.19047E-03  8208   0.120E-02-0.119E-05
CGA:  36    -0.350797946745E+03   -0.16568E-03   -0.16572E-03  8208   0.119E-02-0.139E-06
CGA:  37    -0.350798121209E+03   -0.17446E-03   -0.17421E-03  8208   0.585E-03 0.677E-05
CGA:  38    -0.350798225567E+03   -0.10436E-03   -0.10427E-03  8208   0.456E-03 0.138E-05
CGA:  39    -0.350798305339E+03   -0.79772E-04   -0.79873E-04  8208   0.294E-03-0.170E-05
CGA:  40    -0.350798332279E+03   -0.26940E-04   -0.26893E-04  8208   0.119E-03-0.124E-05
CGA:  41    -0.350798364214E+03   -0.31935E-04   -0.31909E-04  8208   0.973E-04 0.173E-06
CGA:  42    -0.350798372247E+03   -0.80325E-05   -0.80412E-05  8208   0.552E-04 0.135E-06
CGA:  43    -0.350798383786E+03   -0.11539E-04   -0.11446E-04  8208   0.251E-04 0.106E-05
CGA:  44    -0.350798389755E+03   -0.59689E-05   -0.60721E-05  8208   0.225E-04-0.949E-06
   6 F= -.35079839E+03 E0= -.35078830E+03  d E =-.126251E+00  mag=    30.2383
       N       E                     dE             d eps       ncg     rms          ort
SDA:   1    -0.343696577897E+03    0.71018E+01    0.00000E+00  8208   0.203E+02 0.000E+00
CGA:   2    -0.347466367718E+03   -0.37698E+01   -0.38667E+01  8208   0.273E+02-0.123E+01
CGA:   3    -0.349366472201E+03   -0.19001E+01   -0.20365E+01  8208   0.847E+01-0.192E-01
CGA:   4    -0.350375836294E+03   -0.10094E+01   -0.10074E+01  8208   0.392E+01-0.552E-01
CGA:   5    -0.350629942358E+03   -0.25411E+00   -0.28156E+00  8208   0.151E+01-0.111E+00
CGA:   6    -0.350756622667E+03   -0.12668E+00   -0.13077E+00  8208   0.567E+00 0.106E-01
CGA:   7    -0.350801407704E+03   -0.44785E-01   -0.45878E-01  8208   0.279E+00-0.118E-02
CGA:   8    -0.350826907121E+03   -0.25499E-01   -0.25874E-01  8208   0.105E+00 0.217E-02
CGA:   9    -0.350837655016E+03   -0.10748E-01   -0.10831E-01  8208   0.670E-01 0.124E-02
CGA:  10    -0.350842878349E+03   -0.52233E-02   -0.53208E-02  8208   0.228E-01-0.599E-04
CGA:  11    -0.350845934084E+03   -0.30557E-02   -0.30494E-02  8208   0.116E-01 0.280E-03
CGA:  12    -0.350847017823E+03   -0.10837E-02   -0.10893E-02  8208   0.708E-02 0.495E-04
CGA:  13    -0.350847874550E+03   -0.85673E-03   -0.85656E-03  8208   0.403E-02 0.699E-04
CGA:  14    -0.350848371629E+03   -0.49708E-03   -0.49682E-03  8208   0.229E-02 0.534E-04
CGA:  15    -0.350848676795E+03   -0.30517E-03   -0.30500E-03  8208   0.153E-02 0.111E-04
CGA:  16    -0.350848853658E+03   -0.17686E-03   -0.17700E-03  8208   0.915E-03 0.145E-04
CGA:  17    -0.350848954854E+03   -0.10120E-03   -0.10128E-03  8208   0.450E-03 0.581E-05
CGA:  18    -0.350849024787E+03   -0.69932E-04   -0.69700E-04  8208   0.246E-03 0.626E-05
CGA:  19    -0.350849053690E+03   -0.28903E-04   -0.28923E-04  8208   0.166E-03 0.284E-05
CGA:  20    -0.350849075997E+03   -0.22307E-04   -0.22291E-04  8208   0.105E-03 0.121E-05
CGA:  21    -0.350849090465E+03   -0.14467E-04   -0.14440E-04  8208   0.722E-04 0.151E-05
CGA:  22    -0.350849101283E+03   -0.10818E-04   -0.10802E-04  8208   0.603E-04 0.524E-06
CGA:  23    -0.350849111979E+03   -0.10696E-04   -0.10724E-04  8208   0.426E-04-0.558E-06
CGA:  24    -0.350849118188E+03   -0.62094E-05   -0.62059E-05  8208   0.419E-04 0.193E-07
   7 F= -.35084912E+03 E0= -.35084064E+03  d E =-.507284E-01  mag=    30.1223
       N       E                     dE             d eps       ncg     rms          ort
SDA:   1    -0.335631667422E+03    0.15217E+02    0.00000E+00  8208   0.394E+02 0.000E+00
CGA:   2    -0.345449237069E+03   -0.98176E+01   -0.10133E+02  8208   0.496E+02-0.245E+01
CGA:   3    -0.348458505697E+03   -0.30093E+01   -0.35065E+01  8208   0.138E+02 0.154E-01
CGA:   4    -0.350222285989E+03   -0.17638E+01   -0.17593E+01  8208   0.360E+01-0.566E+00
CGA:   5    -0.350686155168E+03   -0.46387E+00   -0.46380E+00  8208   0.110E+01 0.105E-01
CGA:   6    -0.350799026107E+03   -0.11287E+00   -0.10972E+00  8208   0.730E+00-0.178E-01
CGA:   7    -0.350857729023E+03   -0.58703E-01   -0.60492E-01  8208   0.206E+00-0.414E-03
CGA:   8    -0.350883750010E+03   -0.26021E-01   -0.26025E-01  8208   0.986E-01 0.260E-02
CGA:   9    -0.350895171437E+03   -0.11421E-01   -0.11434E-01  8208   0.386E-01 0.461E-03
CGA:  10    -0.350900046873E+03   -0.48754E-02   -0.48756E-02  8208   0.216E-01 0.142E-03
CGA:  11    -0.350902522209E+03   -0.24753E-02   -0.24912E-02  8208   0.121E-01 0.561E-03
CGA:  12    -0.350904083704E+03   -0.15615E-02   -0.15615E-02  8208   0.654E-02 0.483E-04
CGA:  13    -0.350905237256E+03   -0.11536E-02   -0.11475E-02  8208   0.290E-02 0.984E-04
CGA:  14    -0.350905766912E+03   -0.52966E-03   -0.52906E-03  8208   0.239E-02 0.117E-04
CGA:  15    -0.350906028504E+03   -0.26159E-03   -0.26272E-03  8208   0.880E-03 0.227E-04
CGA:  16    -0.350906169759E+03   -0.14125E-03   -0.14106E-03  8208   0.564E-03 0.697E-05
CGA:  17    -0.350906236848E+03   -0.67089E-04   -0.67183E-04  8208   0.219E-03 0.471E-05
CGA:  18    -0.350906273336E+03   -0.36488E-04   -0.36433E-04  8208   0.144E-03 0.155E-05
CGA:  19    -0.350906296983E+03   -0.23647E-04   -0.23593E-04  8208   0.719E-04 0.160E-05
CGA:  20    -0.350906311570E+03   -0.14587E-04   -0.14543E-04  8208   0.782E-04 0.622E-06
CGA:  21    -0.350906321992E+03   -0.10421E-04   -0.10421E-04  8208   0.431E-04-0.188E-06
CGA:  22    -0.350906330735E+03   -0.87430E-05   -0.88419E-05  8208   0.397E-04-0.146E-05
   8 F= -.35090633E+03 E0= -.35089877E+03  d E =-.572125E-01  mag=    30.0857
       N       E                     dE             d eps       ncg     rms          ort
SDA:   1    -0.346926190034E+03    0.39801E+01    0.00000E+00  8208   0.116E+02 0.000E+00
CGA:   2    -0.349460020006E+03   -0.25338E+01   -0.25347E+01  8208   0.700E+01-0.103E-01
CGA:   3    -0.350442348607E+03   -0.98233E+00   -0.98338E+00  8208   0.320E+01 0.138E+00
CGA:   4    -0.350769260902E+03   -0.32691E+00   -0.30972E+00  8208   0.103E+01 0.431E-01
CGA:   5    -0.350897463436E+03   -0.12820E+00   -0.12859E+00  8208   0.251E+00 0.748E-02
CGA:   6    -0.350935275803E+03   -0.37812E-01   -0.37828E-01  8208   0.927E-01-0.101E-02
CGA:   7    -0.350945114964E+03   -0.98392E-02   -0.98932E-02  8208   0.436E-01 0.327E-03
CGA:   8    -0.350950721914E+03   -0.56069E-02   -0.56043E-02  8208   0.134E-01-0.868E-04
CGA:   9    -0.350952688416E+03   -0.19665E-02   -0.19657E-02  8208   0.746E-02 0.666E-04
CGA:  10    -0.350953623919E+03   -0.93550E-03   -0.93562E-03  8208   0.328E-02 0.106E-04
CGA:  11    -0.350954132863E+03   -0.50894E-03   -0.50846E-03  8208   0.222E-02 0.213E-04
CGA:  12    -0.350954452840E+03   -0.31998E-03   -0.31996E-03  8208   0.104E-02 0.527E-05
CGA:  13    -0.350954617802E+03   -0.16496E-03   -0.16489E-03  8208   0.721E-03 0.283E-05
CGA:  14    -0.350954709250E+03   -0.91449E-04   -0.91450E-04  8208   0.271E-03 0.132E-06
CGA:  15    -0.350954752704E+03   -0.43454E-04   -0.43425E-04  8208   0.168E-03 0.134E-05
CGA:  16    -0.350954772343E+03   -0.19639E-04   -0.19663E-04  8208   0.602E-04 0.990E-06
CGA:  17    -0.350954783040E+03   -0.10697E-04   -0.10648E-04  8208   0.382E-04 0.133E-05
CGA:  18    -0.350954788074E+03   -0.50337E-05   -0.50416E-05  8208   0.213E-04 0.635E-06
   9 F= -.35095479E+03 E0= -.35094777E+03  d E =-.484573E-01  mag=    30.0589
       N       E                     dE             d eps       ncg     rms          ort
SDA:   1    -0.343757473581E+03    0.71973E+01    0.00000E+00  8208   0.184E+02 0.000E+00
CGA:   2    -0.348925601293E+03   -0.51681E+01   -0.52375E+01  8208   0.157E+02-0.486E+00
CGA:   3    -0.350035476448E+03   -0.11099E+01   -0.12775E+01  8208   0.573E+01-0.192E+00
CGA:   4    -0.350722549613E+03   -0.68707E+00   -0.66816E+00  8208   0.146E+01-0.629E-01
CGA:   5    -0.350912307978E+03   -0.18976E+00   -0.19036E+00  8208   0.473E+00 0.186E-01
CGA:   6    -0.350960007254E+03   -0.47699E-01   -0.45617E-01  8208   0.220E+00 0.202E-02
CGA:   7    -0.350985783359E+03   -0.25776E-01   -0.25975E-01  8208   0.612E-01 0.255E-02
CGA:   8    -0.350994401495E+03   -0.86181E-02   -0.86183E-02  8208   0.345E-01 0.798E-04
CGA:   9    -0.350998089635E+03   -0.36881E-02   -0.37339E-02  8208   0.124E-01 0.329E-03
CGA:  10    -0.350999781509E+03   -0.16919E-02   -0.16919E-02  8208   0.756E-02 0.187E-04
CGA:  11    -0.351000845315E+03   -0.10638E-02   -0.10635E-02  8208   0.325E-02 0.115E-03
CGA:  12    -0.351001399256E+03   -0.55394E-03   -0.55398E-03  8208   0.279E-02 0.173E-05
CGA:  13    -0.351001768913E+03   -0.36966E-03   -0.37007E-03  8208   0.113E-02 0.274E-04
CGA:  14    -0.351001949791E+03   -0.18088E-03   -0.18081E-03  8208   0.800E-03 0.308E-05
CGA:  15    -0.351002054062E+03   -0.10427E-03   -0.10437E-03  8208   0.250E-03 0.509E-05
CGA:  16    -0.351002094924E+03   -0.40862E-04   -0.40806E-04  8208   0.185E-03 0.265E-05
CGA:  17    -0.351002116818E+03   -0.21894E-04   -0.21953E-04  8208   0.605E-04 0.208E-05
CGA:  18    -0.351002129268E+03   -0.12450E-04   -0.12403E-04  8208   0.465E-04 0.722E-06
CGA:  19    -0.351002136132E+03   -0.68643E-05   -0.68629E-05  8208   0.328E-04 0.568E-06
  10 F= -.35100214E+03 E0= -.35099551E+03  d E =-.473481E-01  mag=    30.0492
       N       E                     dE             d eps       ncg     rms          ort
SDA:   1    -0.334165201025E+03    0.16837E+02    0.00000E+00  8208   0.503E+02 0.000E+00
CGA:   2    -0.342573047632E+03   -0.84078E+01   -0.84891E+01  8208   0.597E+02-0.179E+01
CGA:   3    -0.347122409795E+03   -0.45494E+01   -0.45478E+01  8208   0.207E+02 0.483E+00
CGA:   4    -0.350058651457E+03   -0.29362E+01   -0.29336E+01  8208   0.510E+01-0.770E+00
CGA:   5    -0.350673742329E+03   -0.61509E+00   -0.60860E+00  8208   0.232E+01-0.114E+00
CGA:   6    -0.350801967413E+03   -0.12823E+00   -0.13091E+00  8208   0.135E+01-0.644E-01
CGA:   7    -0.350901543413E+03   -0.99576E-01   -0.93443E-01  8208   0.616E+00 0.356E-01
CGA:   8    -0.350954179744E+03   -0.52636E-01   -0.54783E-01  8208   0.234E+00-0.864E-03
CGA:   9    -0.350978417133E+03   -0.24237E-01   -0.24431E-01  8208   0.153E+00 0.199E-02
CGA:  10    -0.350988869084E+03   -0.10452E-01   -0.11102E-01  8208   0.921E-01-0.297E-02
CGA:  11    -0.350997204416E+03   -0.83353E-02   -0.85064E-02  8208   0.320E-01 0.783E-03
CGA:  12    -0.351002197965E+03   -0.49935E-02   -0.49701E-02  8208   0.264E-01 0.572E-03
CGA:  13    -0.351005095396E+03   -0.28974E-02   -0.29522E-02  8208   0.151E-01 0.111E-02
CGA:  14    -0.351006731218E+03   -0.16358E-02   -0.16462E-02  8208   0.108E-01 0.171E-03
CGA:  15    -0.351008394723E+03   -0.16635E-02   -0.16467E-02  8208   0.360E-02 0.430E-03
CGA:  16    -0.351009109831E+03   -0.71511E-03   -0.70053E-03  8208   0.231E-02 0.193E-03
CGA:  17    -0.351009464191E+03   -0.35436E-03   -0.35469E-03  8208   0.101E-02-0.907E-05
CGA:  18    -0.351009642245E+03   -0.17805E-03   -0.17507E-03  8208   0.594E-03 0.495E-04
CGA:  19    -0.351009730754E+03   -0.88509E-04   -0.88531E-04  8208   0.393E-03-0.962E-06
CGA:  20    -0.351009792751E+03   -0.61997E-04   -0.61790E-04  8208   0.284E-03 0.527E-05
CGA:  21    -0.351009834423E+03   -0.41672E-04   -0.41664E-04  8208   0.172E-03 0.132E-06
CGA:  22    -0.351009873207E+03   -0.38784E-04   -0.38863E-04  8208   0.122E-03-0.103E-05
CGA:  23    -0.351009892828E+03   -0.19621E-04   -0.19639E-04  8208   0.826E-04-0.856E-06
CGA:  24    -0.351009908709E+03   -0.15881E-04   -0.15937E-04  8208   0.528E-04-0.109E-05
CGA:  25    -0.351009916930E+03   -0.82210E-05   -0.82348E-05  8208   0.291E-04-0.972E-06
  11 F= -.35100992E+03 E0= -.35100330E+03  d E =-.778080E-02  mag=    30.0686
       N       E                     dE             d eps       ncg     rms          ort
SDA:   1    -0.346670789044E+03    0.43391E+01    0.00000E+00  8208   0.160E+02 0.000E+00
CGA:   2    -0.349095625055E+03   -0.24248E+01   -0.24247E+01  8208   0.669E+01 0.166E-01
CGA:   3    -0.350313659716E+03   -0.12180E+01   -0.12179E+01  8208   0.418E+01-0.879E-02
CGA:   4    -0.350800879426E+03   -0.48722E+00   -0.47478E+00  8208   0.157E+01-0.296E-01
CGA:   5    -0.350960110035E+03   -0.15923E+00   -0.16231E+00  8208   0.376E+00 0.864E-02
CGA:   6    -0.351013511562E+03   -0.53402E-01   -0.53361E-01  8208   0.131E+00-0.394E-02
CGA:   7    -0.351029027231E+03   -0.15516E-01   -0.15594E-01  8208   0.580E-01 0.944E-03
CGA:   8    -0.351036299759E+03   -0.72725E-02   -0.72622E-02  8208   0.200E-01-0.158E-03
CGA:   9    -0.351039015538E+03   -0.27158E-02   -0.27172E-02  8208   0.937E-02 0.965E-04
CGA:  10    -0.351040247364E+03   -0.12318E-02   -0.12321E-02  8208   0.367E-02 0.150E-04
CGA:  11    -0.351040815779E+03   -0.56841E-03   -0.56795E-03  8208   0.227E-02 0.252E-04
CGA:  12    -0.351041116120E+03   -0.30034E-03   -0.30035E-03  8208   0.985E-03 0.226E-05
CGA:  13    -0.351041279081E+03   -0.16296E-03   -0.16286E-03  8208   0.545E-03 0.317E-05
CGA:  14    -0.351041353041E+03   -0.73960E-04   -0.73953E-04  8208   0.266E-03-0.708E-06
CGA:  15    -0.351041393695E+03   -0.40654E-04   -0.40646E-04  8208   0.141E-03 0.483E-06
CGA:  16    -0.351041412406E+03   -0.18711E-04   -0.18717E-04  8208   0.613E-04 0.442E-06
CGA:  17    -0.351041422612E+03   -0.10206E-04   -0.10180E-04  8208   0.316E-04 0.109E-05
CGA:  18    -0.351041426877E+03   -0.42650E-05   -0.42715E-05  8208   0.179E-04 0.540E-06
  12 F= -.35104143E+03 E0= -.35103532E+03  d E =-.315099E-01  mag=    30.0369
       N       E                     dE             d eps       ncg     rms          ort
SDA:   1    -0.350876138849E+03    0.16528E+00    0.00000E+00  8208   0.491E+00 0.000E+00
CGA:   2    -0.350983658444E+03   -0.10752E+00   -0.10749E+00  8208   0.301E+00 0.300E-03
CGA:   3    -0.351027809128E+03   -0.44151E-01   -0.44146E-01  8208   0.139E+00-0.130E-02
CGA:   4    -0.351041464053E+03   -0.13655E-01   -0.13781E-01  8208   0.430E-01 0.917E-04
CGA:   5    -0.351046544169E+03   -0.50801E-02   -0.50719E-02  8208   0.107E-01-0.720E-04
CGA:   6    -0.351048138220E+03   -0.15941E-02   -0.15940E-02  8208   0.358E-02 0.794E-05
CGA:   7    -0.351048565744E+03   -0.42752E-03   -0.42726E-03  8208   0.171E-02-0.296E-05
CGA:   8    -0.351048780101E+03   -0.21436E-03   -0.21443E-03  8208   0.518E-03 0.164E-05
CGA:   9    -0.351048859456E+03   -0.79355E-04   -0.79355E-04  8208   0.276E-03 0.217E-06
CGA:  10    -0.351048894585E+03   -0.35128E-04   -0.35140E-04  8208   0.118E-03 0.623E-06
CGA:  11    -0.351048915922E+03   -0.21338E-04   -0.21326E-04  8208   0.824E-04 0.339E-06
CGA:  12    -0.351048926264E+03   -0.10342E-04   -0.10346E-04  8208   0.387E-04 0.226E-06
CGA:  13    -0.351048933660E+03   -0.73959E-05   -0.74010E-05  8208   0.201E-04-0.103E-06
  13 F= -.35104893E+03 E0= -.35104284E+03  d E =-.750678E-02  mag=    30.0374
       N       E                     dE             d eps       ncg     rms          ort
SDA:   1    -0.347331716457E+03    0.37172E+01    0.00000E+00  8208   0.997E+01 0.000E+00
CGA:   2    -0.349860099382E+03   -0.25284E+01   -0.25272E+01  8208   0.588E+01 0.113E-01
CGA:   3    -0.350717965464E+03   -0.85787E+00   -0.85779E+00  8208   0.210E+01-0.676E-02
CGA:   4    -0.350951193415E+03   -0.23323E+00   -0.23042E+00  8208   0.773E+00-0.191E-02
CGA:   5    -0.351030736316E+03   -0.79543E-01   -0.80606E-01  8208   0.213E+00 0.283E-02
CGA:   6    -0.351060964397E+03   -0.30228E-01   -0.30218E-01  8208   0.667E-01-0.963E-03
CGA:   7    -0.351069735920E+03   -0.87715E-02   -0.87775E-02  8208   0.296E-01 0.193E-03
CGA:   8    -0.351073362375E+03   -0.36265E-02   -0.36217E-02  8208   0.109E-01-0.577E-04
CGA:   9    -0.351074821736E+03   -0.14594E-02   -0.14600E-02  8208   0.533E-02 0.325E-04
CGA:  10    -0.351075584606E+03   -0.76287E-03   -0.76288E-03  8208   0.232E-02 0.107E-04
CGA:  11    -0.351076010580E+03   -0.42597E-03   -0.42552E-03  8208   0.170E-02 0.101E-04
CGA:  12    -0.351076229386E+03   -0.21881E-03   -0.21879E-03  8208   0.867E-03 0.155E-05
CGA:  13    -0.351076374769E+03   -0.14538E-03   -0.14530E-03  8208   0.465E-03 0.304E-05
CGA:  14    -0.351076440589E+03   -0.65820E-04   -0.65822E-04  8208   0.219E-03 0.637E-06
CGA:  15    -0.351076473813E+03   -0.33224E-04   -0.33218E-04  8208   0.110E-03 0.918E-06
CGA:  16    -0.351076487239E+03   -0.13426E-04   -0.13436E-04  8208   0.502E-04 0.430E-06
CGA:  17    -0.351076496267E+03   -0.90283E-05   -0.90072E-05  8208   0.261E-04 0.598E-06
  14 F= -.35107650E+03 E0= -.35107050E+03  d E =-.275626E-01  mag=    30.0390
       N       E                     dE             d eps       ncg     rms          ort
SDA:   1    -0.330792093874E+03    0.20284E+02    0.00000E+00  8208   0.601E+02 0.000E+00
CGA:   2    -0.341895807291E+03   -0.11104E+02   -0.11267E+02  8208   0.557E+02-0.251E+01
CGA:   3    -0.346869275087E+03   -0.49735E+01   -0.52614E+01  8208   0.252E+02 0.116E+01
CGA:   4    -0.349833828385E+03   -0.29646E+01   -0.26527E+01  8208   0.661E+01 0.138E+01
CGA:   5    -0.350575415731E+03   -0.74159E+00   -0.72219E+00  8208   0.274E+01 0.357E-01
CGA:   6    -0.350848582835E+03   -0.27317E+00   -0.27347E+00  8208   0.860E+00 0.176E-01
CGA:   7    -0.350950869340E+03   -0.10229E+00   -0.10272E+00  8208   0.735E+00 0.624E-02
CGA:   8    -0.350995042050E+03   -0.44173E-01   -0.43778E-01  8208   0.207E+00 0.554E-03
CGA:   9    -0.351023804479E+03   -0.28762E-01   -0.28737E-01  8208   0.922E-01 0.352E-02
CGA:  10    -0.351034543652E+03   -0.10739E-01   -0.10812E-01  8208   0.497E-01 0.132E-02
CGA:  11    -0.351039446154E+03   -0.49025E-02   -0.50380E-02  8208   0.315E-01 0.705E-03
CGA:  12    -0.351043228656E+03   -0.37825E-02   -0.38097E-02  8208   0.143E-01 0.835E-03
CGA:  13    -0.351045441913E+03   -0.22133E-02   -0.22011E-02  8208   0.903E-02 0.416E-03
CGA:  14    -0.351046825977E+03   -0.13841E-02   -0.13826E-02  8208   0.476E-02 0.600E-04
CGA:  15    -0.351047423322E+03   -0.59734E-03   -0.60013E-03  8208   0.281E-02 0.155E-03
CGA:  16    -0.351047817806E+03   -0.39448E-03   -0.39453E-03  8208   0.125E-02-0.626E-05
CGA:  17    -0.351048005504E+03   -0.18770E-03   -0.18707E-03  8208   0.642E-03 0.247E-04
CGA:  18    -0.351048094852E+03   -0.89348E-04   -0.89349E-04  8208   0.385E-03 0.106E-05
CGA:  19    -0.351048158738E+03   -0.63885E-04   -0.63556E-04  8208   0.178E-03 0.842E-05
CGA:  20    -0.351048199907E+03   -0.41170E-04   -0.41033E-04  8208   0.162E-03 0.157E-05
CGA:  21    -0.351048227818E+03   -0.27910E-04   -0.27807E-04  8208   0.109E-03 0.249E-05
CGA:  22    -0.351048247264E+03   -0.19447E-04   -0.19507E-04  8208   0.102E-03-0.157E-05
CGA:  23    -0.351048264697E+03   -0.17433E-04   -0.17439E-04  8208   0.493E-04-0.632E-06
CGA:  24    -0.351048273713E+03   -0.90157E-05   -0.90615E-05  8208   0.461E-04-0.116E-05
  15 F= -.35104827E+03 E0= -.35104277E+03  d E =0.282226E-01  mag=    30.0155
       N       E                     dE             d eps       ncg     rms          ort
SDA:   1    -0.338949772993E+03    0.12098E+02    0.00000E+00  8208   0.519E+02 0.000E+00
CGA:   2    -0.345309021611E+03   -0.63592E+01   -0.64717E+01  8208   0.189E+02 0.222E+01
CGA:   3    -0.348168450135E+03   -0.28594E+01   -0.28151E+01  8208   0.253E+02-0.682E+01
CGA:   4    -0.349681151592E+03   -0.15127E+01   -0.14901E+01  8208   0.155E+02 0.153E+00
CGA:   5    -0.350260498732E+03   -0.57935E+00   -0.62868E+00  8208   0.572E+01-0.544E+00
CGA:   6    -0.350709076806E+03   -0.44858E+00   -0.43674E+00  8208   0.323E+01 0.442E-01
CGA:   7    -0.350864830759E+03   -0.15575E+00   -0.14297E+00  8208   0.158E+01 0.235E+00
CGA:   8    -0.350959017799E+03   -0.94187E-01   -0.88661E-01  8208   0.607E+00 0.914E-01
CGA:   9    -0.351025026668E+03   -0.66009E-01   -0.66874E-01  8208   0.434E+00 0.118E-01
CGA:  10    -0.351052463091E+03   -0.27436E-01   -0.27213E-01  8208   0.153E+00 0.186E-02
CGA:  11    -0.351070074918E+03   -0.17612E-01   -0.17670E-01  8208   0.153E+00 0.351E-02
CGA:  12    -0.351082008413E+03   -0.11933E-01   -0.12265E-01  8208   0.467E-01-0.292E-03
CGA:  13    -0.351087467189E+03   -0.54588E-02   -0.54629E-02  8208   0.351E-01 0.760E-03
CGA:  14    -0.351091039265E+03   -0.35721E-02   -0.35861E-02  8208   0.213E-01 0.231E-03
CGA:  15    -0.351093147839E+03   -0.21086E-02   -0.21201E-02  8208   0.723E-02 0.179E-03
CGA:  16    -0.351094410978E+03   -0.12631E-02   -0.12482E-02  8208   0.662E-02 0.223E-03
CGA:  17    -0.351095006415E+03   -0.59544E-03   -0.59674E-03  8208   0.224E-02 0.790E-05
CGA:  18    -0.351095378081E+03   -0.37167E-03   -0.36917E-03  8208   0.168E-02 0.426E-04
CGA:  19    -0.351095613650E+03   -0.23557E-03   -0.23517E-03  8208   0.675E-03 0.155E-04
CGA:  20    -0.351095717283E+03   -0.10363E-03   -0.10366E-03  8208   0.612E-03-0.820E-06
CGA:  21    -0.351095788309E+03   -0.71026E-04   -0.71123E-04  8208   0.236E-03 0.615E-05
CGA:  22    -0.351095830443E+03   -0.42134E-04   -0.42041E-04  8208   0.161E-03 0.156E-05
CGA:  23    -0.351095858120E+03   -0.27677E-04   -0.27634E-04  8208   0.111E-03 0.898E-06
CGA:  24    -0.351095871236E+03   -0.13116E-04   -0.13126E-04  8208   0.623E-04 0.322E-06
CGA:  25    -0.351095882648E+03   -0.11411E-04   -0.11442E-04  8208   0.427E-04-0.591E-06
CGA:  26    -0.351095888662E+03   -0.60149E-05   -0.60091E-05  8208   0.264E-04 0.429E-06
  16 F= -.35109589E+03 E0= -.35108995E+03  d E =-.476149E-01  mag=    30.0414
       N       E                     dE             d eps       ncg     rms          ort
SDA:   1    -0.350353492040E+03    0.74239E+00    0.00000E+00  8208   0.286E+01 0.000E+00
CGA:   2    -0.350769508168E+03   -0.41602E+00   -0.41600E+00  8208   0.105E+01 0.903E-03
CGA:   3    -0.350983394820E+03   -0.21389E+00   -0.21382E+00  8208   0.656E+00 0.788E-03
CGA:   4    -0.351069644126E+03   -0.86249E-01   -0.86199E-01  8208   0.242E+00-0.437E-02
CGA:   5    -0.351092012205E+03   -0.22368E-01   -0.22626E-01  8208   0.635E-01 0.466E-03
CGA:   6    -0.351100515361E+03   -0.85032E-02   -0.85030E-02  8208   0.170E-01-0.143E-03
CGA:   7    -0.351103183087E+03   -0.26677E-02   -0.26667E-02  8208   0.788E-02 0.305E-04
CGA:   8    -0.351104065233E+03   -0.88215E-03   -0.88150E-03  8208   0.299E-02-0.653E-05
CGA:   9    -0.351104501022E+03   -0.43579E-03   -0.43572E-03  8208   0.103E-02 0.418E-05
CGA:  10    -0.351104642236E+03   -0.14121E-03   -0.14121E-03  8208   0.553E-03 0.852E-06
CGA:  11    -0.351104723414E+03   -0.81177E-04   -0.81152E-04  8208   0.221E-03 0.195E-05
CGA:  12    -0.351104756348E+03   -0.32934E-04   -0.32933E-04  8208   0.140E-03 0.177E-06
CGA:  13    -0.351104775412E+03   -0.19064E-04   -0.19064E-04  8208   0.473E-04 0.321E-07
CGA:  14    -0.351104784216E+03   -0.88044E-05   -0.88188E-05  8208   0.319E-04-0.284E-06
  17 F= -.35110478E+03 E0= -.35109901E+03  d E =-.889555E-02  mag=    30.0326
       N       E                     dE             d eps       ncg     rms          ort
SDA:   1    -0.351050580756E+03    0.54195E-01    0.00000E+00  8208   0.184E+00 0.000E+00
CGA:   2    -0.351083569455E+03   -0.32989E-01   -0.32973E-01  8208   0.106E+00 0.278E-03
CGA:   3    -0.351097771020E+03   -0.14202E-01   -0.14193E-01  8208   0.617E-01-0.707E-03
CGA:   4    -0.351104585200E+03   -0.68142E-02   -0.68268E-02  8208   0.161E-01 0.125E-03
CGA:   5    -0.351106808859E+03   -0.22237E-02   -0.22237E-02  8208   0.420E-02-0.163E-04
CGA:   6    -0.351107388137E+03   -0.57928E-03   -0.57928E-03  8208   0.163E-02 0.172E-05
CGA:   7    -0.351107571355E+03   -0.18322E-03   -0.18312E-03  8208   0.639E-03-0.147E-05
CGA:   8    -0.351107663386E+03   -0.92031E-04   -0.92029E-04  8208   0.238E-03 0.414E-09
CGA:   9    -0.351107695820E+03   -0.32434E-04   -0.32434E-04  8208   0.114E-03 0.693E-07
CGA:  10    -0.351107712754E+03   -0.16935E-04   -0.16927E-04  8208   0.502E-04 0.601E-06
CGA:  11    -0.351107720533E+03   -0.77785E-05   -0.77736E-05  8208   0.359E-04 0.315E-06
  18 F= -.35110772E+03 E0= -.35110200E+03  d E =-.293632E-02  mag=    30.0310
       N       E                     dE             d eps       ncg     rms          ort
SDA:   1    -0.350893284222E+03    0.21443E+00    0.00000E+00  8208   0.631E+00 0.000E+00
CGA:   2    -0.351034780121E+03   -0.14150E+00   -0.14130E+00  8208   0.384E+00 0.198E-02
CGA:   3    -0.351082363008E+03   -0.47583E-01   -0.47343E-01  8208   0.193E+00-0.388E-02
CGA:   4    -0.351103343760E+03   -0.20981E-01   -0.21048E-01  8208   0.515E-01 0.495E-03
CGA:   5    -0.351110477413E+03   -0.71337E-02   -0.71333E-02  8208   0.128E-01-0.879E-04
CGA:   6    -0.351112298845E+03   -0.18214E-02   -0.18214E-02  8208   0.512E-02 0.143E-04
CGA:   7    -0.351112848504E+03   -0.54966E-03   -0.54900E-03  8208   0.207E-02-0.448E-05
CGA:   8    -0.351113160465E+03   -0.31196E-03   -0.31192E-03  8208   0.649E-03 0.192E-05
CGA:   9    -0.351113264629E+03   -0.10416E-03   -0.10416E-03  8208   0.411E-03 0.502E-06
CGA:  10    -0.351113315764E+03   -0.51135E-04   -0.51162E-04  8208   0.183E-03 0.127E-05
CGA:  11    -0.351113349862E+03   -0.34098E-04   -0.34070E-04  8208   0.121E-03 0.628E-06
CGA:  12    -0.351113367260E+03   -0.17398E-04   -0.17398E-04  8208   0.621E-04 0.309E-06
CGA:  13    -0.351113377642E+03   -0.10382E-04   -0.10391E-04  8208   0.387E-04-0.365E-06
CGA:  14    -0.351113382459E+03   -0.48176E-05   -0.48130E-05  8208   0.149E-04-0.268E-06
  19 F= -.35111338E+03 E0= -.35110775E+03  d E =-.566193E-02  mag=    30.0294
       N       E                     dE             d eps       ncg     rms          ort
SDA:   1    -0.350644393544E+03    0.46898E+00    0.00000E+00  8208   0.132E+01 0.000E+00
CGA:   2    -0.350951928939E+03   -0.30754E+00   -0.30751E+00  8208   0.752E+00 0.222E-03
CGA:   3    -0.351073190552E+03   -0.12126E+00   -0.12126E+00  8208   0.242E+00 0.275E-04
CGA:   4    -0.351108018238E+03   -0.34828E-01   -0.34828E-01  8208   0.544E-01 0.433E-05
CGA:   5    -0.351116538436E+03   -0.85202E-02   -0.85203E-02  8208   0.147E-01-0.581E-05
CGA:   6    -0.351118638741E+03   -0.21003E-02   -0.21007E-02  8208   0.786E-02 0.264E-04
CGA:   7    -0.351119427795E+03   -0.78905E-03   -0.78748E-03  8208   0.248E-02-0.723E-07
CGA:   8    -0.351119853631E+03   -0.42584E-03   -0.42578E-03  8208   0.736E-03 0.186E-05
CGA:   9    -0.351119992342E+03   -0.13871E-03   -0.13869E-03  8208   0.543E-03 0.761E-06
CGA:  10    -0.351120055998E+03   -0.63655E-04   -0.63702E-04  8208   0.254E-03 0.105E-05
CGA:  11    -0.351120105316E+03   -0.49319E-04   -0.49298E-04  8208   0.151E-03 0.495E-06
CGA:  12    -0.351120126764E+03   -0.21448E-04   -0.21448E-04  8208   0.810E-04-0.316E-07
CGA:  13    -0.351120140662E+03   -0.13898E-04   -0.13904E-04  8208   0.421E-04-0.248E-06
CGA:  14    -0.351120145523E+03   -0.48612E-05   -0.48620E-05  8208   0.184E-04 0.120E-07
  20 F= -.35112015E+03 E0= -.35111457E+03  d E =-.676306E-02  mag=    30.0286
       N       E                     dE             d eps       ncg     rms          ort
SDA:   1    -0.343458650555E+03    0.76615E+01    0.00000E+00  8208   0.208E+02 0.000E+00
CGA:   2    -0.348517792759E+03   -0.50591E+01   -0.50578E+01  8208   0.120E+02 0.136E-01
CGA:   3    -0.350420286598E+03   -0.19025E+01   -0.19025E+01  8208   0.374E+01-0.491E-02
CGA:   4    -0.350937360540E+03   -0.51707E+00   -0.51711E+00  8208   0.983E+00 0.915E-03
CGA:   5    -0.351055881259E+03   -0.11852E+00   -0.11728E+00  8208   0.445E+00-0.605E-02
CGA:   6    -0.351101044697E+03   -0.45163E-01   -0.45695E-01  8208   0.124E+00 0.593E-03
CGA:   7    -0.351121435197E+03   -0.20391E-01   -0.20393E-01  8208   0.397E-01-0.953E-04
CGA:   8    -0.351126977270E+03   -0.55421E-02   -0.55445E-02  8208   0.231E-01 0.100E-03
CGA:   9    -0.351129660891E+03   -0.26836E-02   -0.26822E-02  8208   0.736E-02 0.173E-05
CGA:  10    -0.351131234549E+03   -0.15737E-02   -0.15720E-02  8208   0.452E-02 0.233E-04
CGA:  11    -0.351131846993E+03   -0.61244E-03   -0.61229E-03  8208   0.305E-02 0.707E-06
CGA:  12    -0.351132341851E+03   -0.49486E-03   -0.49471E-03  8208   0.140E-02 0.103E-04
CGA:  13    -0.351132556629E+03   -0.21478E-03   -0.21478E-03  8208   0.845E-03 0.167E-05
CGA:  14    -0.351132682112E+03   -0.12548E-03   -0.12549E-03  8208   0.334E-03 0.280E-05
CGA:  15    -0.351132726835E+03   -0.44723E-04   -0.44748E-04  8208   0.187E-03 0.142E-05
CGA:  16    -0.351132756988E+03   -0.30153E-04   -0.30139E-04  8208   0.676E-04 0.141E-05
CGA:  17    -0.351132768667E+03   -0.11679E-04   -0.11668E-04  8208   0.634E-04 0.543E-06
CGA:  18    -0.351132778004E+03   -0.93371E-05   -0.93388E-05  8208   0.270E-04 0.274E-06
  21 F= -.35113278E+03 E0= -.35112739E+03  d E =-.126325E-01  mag=    30.0284
       N       E                     dE             d eps       ncg     rms          ort
SDA:   1    -0.326141693071E+03    0.24991E+02    0.00000E+00  8208   0.153E+03 0.000E+00
CGA:   2    -0.336921841784E+03   -0.10780E+02   -0.12674E+02  8208   0.545E+02 0.565E+01
CGA:   3    -0.344446497841E+03   -0.75247E+01   -0.58729E+01  8208   0.178E+02 0.142E+02
CGA:   4    -0.347853515271E+03   -0.34070E+01   -0.34144E+01  8208   0.484E+02-0.217E+01
CGA:   5    -0.349050110373E+03   -0.11966E+01   -0.11973E+01  8208   0.253E+02-0.724E+01
CGA:   6    -0.349910011447E+03   -0.85990E+00   -0.70154E+00  8208   0.107E+02 0.509E+01
CGA:   7    -0.350224055506E+03   -0.31404E+00   -0.41333E+00  8208   0.447E+01-0.156E+01
CGA:   8    -0.350529622889E+03   -0.30557E+00   -0.30626E+00  8208   0.362E+01 0.111E-01
CGA:   9    -0.350720619466E+03   -0.19100E+00   -0.19194E+00  8208   0.104E+01 0.815E-01
CGA:  10    -0.350800916145E+03   -0.80297E-01   -0.82807E-01  8208   0.114E+01-0.244E-02
CGA:  11    -0.350875490028E+03   -0.74574E-01   -0.76307E-01  8208   0.444E+00-0.767E-02
CGA:  12    -0.350905132952E+03   -0.29643E-01   -0.30371E-01  8208   0.286E+00-0.329E-02
CGA:  13    -0.350930255713E+03   -0.25123E-01   -0.25343E-01  8208   0.177E+00 0.179E-02
CGA:  14    -0.350946629119E+03   -0.16373E-01   -0.16654E-01  8208   0.119E+00 0.312E-02
CGA:  15    -0.350956163341E+03   -0.95342E-02   -0.97478E-02  8208   0.481E-01 0.533E-03
CGA:  16    -0.350961438664E+03   -0.52753E-02   -0.52692E-02  8208   0.336E-01-0.522E-03
CGA:  17    -0.350965258290E+03   -0.38196E-02   -0.38195E-02  8208   0.229E-01 0.654E-04
CGA:  18    -0.350967198747E+03   -0.19405E-02   -0.19685E-02  8208   0.814E-02 0.193E-03
CGA:  19    -0.350968324867E+03   -0.11261E-02   -0.11180E-02  8208   0.786E-02 0.228E-03
CGA:  20    -0.350969132497E+03   -0.80763E-03   -0.80757E-03  8208   0.268E-02 0.462E-05
CGA:  21    -0.350969540629E+03   -0.40813E-03   -0.40789E-03  8208   0.224E-02 0.381E-05
CGA:  22    -0.350969768710E+03   -0.22808E-03   -0.22838E-03  8208   0.114E-02 0.738E-05
CGA:  23    -0.350969953119E+03   -0.18441E-03   -0.18402E-03  8208   0.668E-03 0.751E-05
CGA:  24    -0.350970025440E+03   -0.72321E-04   -0.72351E-04  8208   0.455E-03 0.235E-05
CGA:  25    -0.350970098444E+03   -0.73004E-04   -0.73018E-04  8208   0.274E-03-0.112E-05
CGA:  26    -0.350970131381E+03   -0.32937E-04   -0.32943E-04  8208   0.166E-03-0.323E-05
CGA:  27    -0.350970154904E+03   -0.23524E-04   -0.23535E-04  8208   0.131E-03-0.555E-06
CGA:  28    -0.350970171138E+03   -0.16233E-04   -0.16226E-04  8208   0.641E-04 0.117E-05
CGA:  29    -0.350970180832E+03   -0.96945E-05   -0.96939E-05  8208   0.498E-04-0.104E-06
  22 F= -.35097018E+03 E0= -.35096383E+03  d E =0.162597E+00  mag=    30.0479
       N       E                     dE             d eps       ncg     rms          ort
SDA:   1    -0.344119966185E+03    0.68502E+01    0.00000E+00  8208   0.253E+02 0.000E+00
CGA:   2    -0.347964570009E+03   -0.38446E+01   -0.38316E+01  8208   0.113E+02 0.305E+00
CGA:   3    -0.349909472899E+03   -0.19449E+01   -0.19886E+01  8208   0.810E+01-0.891E+00
CGA:   4    -0.350701940750E+03   -0.79247E+00   -0.80694E+00  8208   0.217E+01 0.326E+00
CGA:   5    -0.350963124603E+03   -0.26118E+00   -0.26107E+00  8208   0.753E+00-0.409E-02
CGA:   6    -0.351051663784E+03   -0.88539E-01   -0.88454E-01  8208   0.259E+00-0.523E-02
CGA:   7    -0.351085532695E+03   -0.33869E-01   -0.33838E-01  8208   0.784E-01 0.237E-02
CGA:   8    -0.351098491493E+03   -0.12959E-01   -0.12936E-01  8208   0.346E-01 0.439E-03
CGA:   9    -0.351102499799E+03   -0.40083E-02   -0.40102E-02  8208   0.152E-01 0.803E-04
CGA:  10    -0.351104751887E+03   -0.22521E-02   -0.22481E-02  8208   0.525E-02 0.121E-03
CGA:  11    -0.351105705239E+03   -0.95335E-03   -0.95257E-03  8208   0.293E-02 0.141E-04
CGA:  12    -0.351106133192E+03   -0.42795E-03   -0.42765E-03  8208   0.145E-02 0.144E-04
CGA:  13    -0.351106343536E+03   -0.21034E-03   -0.21025E-03  8208   0.770E-03 0.489E-05
CGA:  14    -0.351106463830E+03   -0.12029E-03   -0.12023E-03  8208   0.307E-03 0.186E-05
CGA:  15    -0.351106516810E+03   -0.52980E-04   -0.52949E-04  8208   0.199E-03 0.770E-06
CGA:  16    -0.351106539751E+03   -0.22941E-04   -0.22969E-04  8208   0.744E-04 0.114E-05
CGA:  17    -0.351106553601E+03   -0.13851E-04   -0.13791E-04  8208   0.352E-04 0.112E-05
CGA:  18    -0.351106558836E+03   -0.52346E-05   -0.52286E-05  8208   0.209E-04 0.524E-06
  23 F= -.35110656E+03 E0= -.35110082E+03  d E =-.136378E+00  mag=    30.0313
       N       E                     dE             d eps       ncg     rms          ort
SDA:   1    -0.349866270215E+03    0.12403E+01    0.00000E+00  8208   0.434E+01 0.000E+00
CGA:   2    -0.350583847752E+03   -0.71758E+00   -0.71748E+00  8208   0.196E+01 0.246E-02
CGA:   3    -0.350952333002E+03   -0.36849E+00   -0.36855E+00  8208   0.886E+00-0.102E-02
CGA:   4    -0.351078774126E+03   -0.12644E+00   -0.12644E+00  8208   0.224E+00 0.108E-02
CGA:   5    -0.351109139185E+03   -0.30365E-01   -0.30361E-01  8208   0.872E-01-0.222E-03
CGA:   6    -0.351118760151E+03   -0.96210E-02   -0.96222E-02  8208   0.292E-01 0.303E-04
CGA:   7    -0.351123055452E+03   -0.42953E-02   -0.42950E-02  8208   0.893E-02 0.279E-04
CGA:   8    -0.351124416428E+03   -0.13610E-02   -0.13608E-02  8208   0.461E-02 0.105E-04
CGA:   9    -0.351124955064E+03   -0.53864E-03   -0.53843E-03  8208   0.168E-02-0.920E-06
CGA:  10    -0.351125224835E+03   -0.26977E-03   -0.26966E-03  8208   0.928E-03 0.454E-05
CGA:  11    -0.351125349293E+03   -0.12446E-03   -0.12446E-03  8208   0.407E-03 0.120E-05
CGA:  12    -0.351125426415E+03   -0.77122E-04   -0.77096E-04  8208   0.200E-03 0.530E-06
CGA:  13    -0.351125453926E+03   -0.27511E-04   -0.27510E-04  8208   0.119E-03-0.144E-06
CGA:  14    -0.351125472617E+03   -0.18691E-04   -0.18690E-04  8208   0.417E-04 0.344E-07
CGA:  15    -0.351125479489E+03   -0.68722E-05   -0.68670E-05  8208   0.262E-04 0.243E-06
  24 F= -.35112548E+03 E0= -.35111993E+03  d E =-.189207E-01  mag=    30.0281
       N       E                     dE             d eps       ncg     rms          ort
SDA:   1    -0.350936612320E+03    0.18886E+00    0.00000E+00  8208   0.572E+00 0.000E+00
CGA:   2    -0.351057573047E+03   -0.12096E+00   -0.12087E+00  8208   0.341E+00 0.105E-02
CGA:   3    -0.351102566262E+03   -0.44993E-01   -0.44897E-01  8208   0.167E+00-0.230E-02
CGA:   4    -0.351120576547E+03   -0.18010E-01   -0.18072E-01  8208   0.481E-01 0.293E-03
CGA:   5    -0.351127108635E+03   -0.65321E-02   -0.65303E-02  8208   0.122E-01-0.838E-04
CGA:   6    -0.351128871629E+03   -0.17630E-02   -0.17630E-02  8208   0.446E-02 0.108E-04
CGA:   7    -0.351129370363E+03   -0.49873E-03   -0.49829E-03  8208   0.189E-02-0.303E-05
CGA:   8    -0.351129649257E+03   -0.27889E-03   -0.27888E-03  8208   0.607E-03 0.145E-05
CGA:   9    -0.351129748945E+03   -0.99688E-04   -0.99687E-04  8208   0.372E-03 0.255E-06
CGA:  10    -0.351129795035E+03   -0.46090E-04   -0.46114E-04  8208   0.160E-03 0.919E-06
CGA:  11    -0.351129826593E+03   -0.31557E-04   -0.31527E-04  8208   0.104E-03 0.595E-06
CGA:  12    -0.351129840498E+03   -0.13906E-04   -0.13909E-04  8208   0.555E-04 0.279E-06
CGA:  13    -0.351129850544E+03   -0.10045E-04   -0.10052E-04  8208   0.266E-04-0.192E-06
CGA:  14    -0.351129854060E+03   -0.35161E-05   -0.35149E-05  8208   0.150E-04-0.920E-07
  25 F= -.35112985E+03 E0= -.35112437E+03  d E =-.437457E-02  mag=    30.0277
       N       E                     dE             d eps       ncg     rms          ort
SDA:   1    -0.350833886733E+03    0.29596E+00    0.00000E+00  8208   0.804E+00 0.000E+00
CGA:   2    -0.351050416369E+03   -0.21653E+00   -0.21651E+00  8208   0.368E+00 0.216E-03
CGA:   3    -0.351107866650E+03   -0.57450E-01   -0.57451E-01  8208   0.142E+00-0.742E-04
CGA:   4    -0.351127076481E+03   -0.19210E-01   -0.19213E-01  8208   0.433E-01 0.775E-04
CGA:   5    -0.351131636604E+03   -0.45601E-02   -0.45445E-02  8208   0.155E-01-0.112E-04
CGA:   6    -0.351133511233E+03   -0.18746E-02   -0.18756E-02  8208   0.427E-02 0.922E-05
CGA:   7    -0.351134216505E+03   -0.70527E-03   -0.70533E-03  8208   0.178E-02-0.251E-05
CGA:   8    -0.351134442303E+03   -0.22580E-03   -0.22584E-03  8208   0.858E-03 0.945E-06
CGA:   9    -0.351134564784E+03   -0.12248E-03   -0.12248E-03  8208   0.386E-03 0.431E-06
CGA:  10    -0.351134625476E+03   -0.60692E-04   -0.60684E-04  8208   0.247E-03 0.837E-06
CGA:  11    -0.351134667769E+03   -0.42293E-04   -0.42280E-04  8208   0.129E-03 0.558E-06
CGA:  12    -0.351134689518E+03   -0.21750E-04   -0.21744E-04  8208   0.919E-04 0.308E-06
CGA:  13    -0.351134701534E+03   -0.12015E-04   -0.12013E-04  8208   0.368E-04-0.104E-06
CGA:  14    -0.351134707430E+03   -0.58967E-05   -0.58982E-05  8208   0.186E-04-0.142E-06
  26 F= -.35113471E+03 E0= -.35112930E+03  d E =-.485337E-02  mag=    30.0270
       N       E                     dE             d eps       ncg     rms          ort
SDA:   1    -0.350928626983E+03    0.20607E+00    0.00000E+00  8208   0.611E+00 0.000E+00
CGA:   2    -0.351057758444E+03   -0.12913E+00   -0.12912E+00  8208   0.342E+00 0.141E-03
CGA:   3    -0.351114253895E+03   -0.56495E-01   -0.56497E-01  8208   0.125E+00-0.795E-04
CGA:   4    -0.351131537404E+03   -0.17284E-01   -0.17284E-01  8208   0.330E-01 0.491E-05
CGA:   5    -0.351135580443E+03   -0.40430E-02   -0.40449E-02  8208   0.133E-01 0.190E-04
CGA:   6    -0.351136978135E+03   -0.13977E-02   -0.13951E-02  8208   0.400E-02-0.238E-05
CGA:   7    -0.351137595214E+03   -0.61708E-03   -0.61706E-03  8208   0.144E-02 0.176E-05
CGA:   8    -0.351137801147E+03   -0.20593E-03   -0.20593E-03  8208   0.666E-03 0.134E-07
CGA:   9    -0.351137892639E+03   -0.91492E-04   -0.91497E-04  8208   0.286E-03 0.300E-06
CGA:  10    -0.351137934392E+03   -0.41753E-04   -0.41753E-04  8208   0.185E-03 0.427E-07
CGA:  11    -0.351137962963E+03   -0.28571E-04   -0.28569E-04  8208   0.810E-04 0.331E-06
CGA:  12    -0.351137979211E+03   -0.16248E-04   -0.16233E-04  8208   0.533E-04 0.299E-06
CGA:  13    -0.351137985929E+03   -0.67183E-05   -0.67204E-05  8208   0.273E-04 0.686E-07
  27 F= -.35113799E+03 E0= -.35113262E+03  d E =-.327850E-02  mag=    30.0262
       N       E                     dE             d eps       ncg     rms          ort
SDA:   1    -0.351098233267E+03    0.39746E-01    0.00000E+00  8208   0.127E+00 0.000E+00
CGA:   2    -0.351121188443E+03   -0.22955E-01   -0.22955E-01  8208   0.705E-01-0.336E-05
CGA:   3    -0.351133038846E+03   -0.11850E-01   -0.11849E-01  8208   0.377E-01 0.628E-04
CGA:   4    -0.351137049905E+03   -0.40111E-02   -0.40006E-02  8208   0.116E-01-0.128E-04
CGA:   5    -0.351138317885E+03   -0.12680E-02   -0.12690E-02  8208   0.271E-02 0.314E-05
CGA:   6    -0.351138727282E+03   -0.40940E-03   -0.40940E-03  8208   0.919E-03-0.791E-06
CGA:   7    -0.351138848034E+03   -0.12075E-03   -0.12077E-03  8208   0.448E-03 0.856E-06
CGA:   8    -0.351138902216E+03   -0.54182E-04   -0.54178E-04  8208   0.142E-03 0.660E-07
CGA:   9    -0.351138924218E+03   -0.22002E-04   -0.22001E-04  8208   0.679E-04 0.409E-07
CGA:  10    -0.351138933279E+03   -0.90618E-05   -0.90606E-05  8208   0.313E-04-0.824E-07
  28 F= -.35113893E+03 E0= -.35113358E+03  d E =-.947350E-03  mag=    30.0259
       N       E                     dE             d eps       ncg     rms          ort
SDA:   1    -0.351079444678E+03    0.59480E-01    0.00000E+00  8208   0.186E+00 0.000E+00
CGA:   2    -0.351110807705E+03   -0.31363E-01   -0.31325E-01  8208   0.147E+00 0.114E-02
CGA:   3    -0.351127857091E+03   -0.17049E-01   -0.16973E-01  8208   0.604E-01-0.447E-03
CGA:   4    -0.351136249160E+03   -0.83921E-02   -0.83926E-02  8208   0.141E-01 0.322E-04
CGA:   5    -0.351138233459E+03   -0.19843E-02   -0.19841E-02  8208   0.398E-02-0.129E-04
CGA:   6    -0.351138710874E+03   -0.47741E-03   -0.47766E-03  8208   0.177E-02 0.323E-05
CGA:   7    -0.351138918840E+03   -0.20797E-03   -0.20792E-03  8208   0.512E-03-0.208E-06
CGA:   8    -0.351139004975E+03   -0.86135E-04   -0.86119E-04  8208   0.205E-03 0.547E-06
CGA:   9    -0.351139030078E+03   -0.25103E-04   -0.25103E-04  8208   0.990E-04 0.593E-07
CGA:  10    -0.351139045170E+03   -0.15092E-04   -0.15090E-04  8208   0.426E-04 0.139E-06
CGA:  11    -0.351139051967E+03   -0.67973E-05   -0.67983E-05  8208   0.293E-04-0.532E-07
  29 F= -.35113905E+03 E0= -.35113370E+03  d E =-.118688E-03  mag=    30.0253
       N       E                     dE             d eps       ncg     rms          ort
SDA:   1    -0.350885801383E+03    0.25324E+00    0.00000E+00  8208   0.711E+00 0.000E+00
CGA:   2    -0.351039397840E+03   -0.15360E+00   -0.15349E+00  8208   0.488E+00 0.124E-02
CGA:   3    -0.351102001540E+03   -0.62604E-01   -0.62408E-01  8208   0.239E+00-0.301E-02
CGA:   4    -0.351127204757E+03   -0.25203E-01   -0.25308E-01  8208   0.579E-01 0.339E-03
CGA:   5    -0.351134968272E+03   -0.77635E-02   -0.77617E-02  8208   0.141E-01-0.636E-04
CGA:   6    -0.351137038210E+03   -0.20699E-02   -0.20699E-02  8208   0.583E-02 0.228E-04
CGA:   7    -0.351137671603E+03   -0.63339E-03   -0.63291E-03  8208   0.228E-02-0.752E-06
CGA:   8    -0.351138012267E+03   -0.34066E-03   -0.34064E-03  8208   0.664E-03 0.281E-05
CGA:   9    -0.351138118447E+03   -0.10618E-03   -0.10618E-03  8208   0.409E-03-0.849E-07
CGA:  10    -0.351138167697E+03   -0.49250E-04   -0.49263E-04  8208   0.170E-03 0.347E-06
CGA:  11    -0.351138202228E+03   -0.34531E-04   -0.34528E-04  8208   0.107E-03 0.714E-07
CGA:  12    -0.351138216973E+03   -0.14745E-04   -0.14746E-04  8208   0.628E-04 0.116E-06
CGA:  13    -0.351138227645E+03   -0.10672E-04   -0.10669E-04  8208   0.309E-04 0.139E-06
CGA:  14    -0.351138231848E+03   -0.42025E-05   -0.42053E-05  8208   0.157E-04 0.253E-06
  30 F= -.35113823E+03 E0= -.35113287E+03  d E =0.820120E-03  mag=    30.0251
       N       E                     dE             d eps       ncg     rms          ort
SDA:   1    -0.347559830672E+03    0.35784E+01    0.00000E+00  8208   0.977E+01 0.000E+00
CGA:   2    -0.349785891218E+03   -0.22261E+01   -0.22261E+01  8208   0.618E+01-0.128E-02
CGA:   3    -0.350762794155E+03   -0.97690E+00   -0.97655E+00  8208   0.220E+01 0.273E-01
CGA:   4    -0.351011302737E+03   -0.24851E+00   -0.24521E+00  8208   0.755E+00-0.722E-02
CGA:   5    -0.351087546168E+03   -0.76243E-01   -0.77173E-01  8208   0.199E+00 0.172E-02
CGA:   6    -0.351117762358E+03   -0.30216E-01   -0.30218E-01  8208   0.583E-01-0.194E-03
CGA:   7    -0.351126506599E+03   -0.87442E-02   -0.87435E-02  8208   0.285E-01 0.140E-03
CGA:   8    -0.351129625953E+03   -0.31194E-02   -0.31147E-02  8208   0.959E-02-0.948E-05
CGA:   9    -0.351131187380E+03   -0.15614E-02   -0.15610E-02  8208   0.390E-02 0.184E-04
CGA:  10    -0.351131768447E+03   -0.58107E-03   -0.58107E-03  8208   0.255E-02 0.834E-06
CGA:  11    -0.351132178765E+03   -0.41032E-03   -0.41020E-03  8208   0.120E-02 0.628E-05
CGA:  12    -0.351132374772E+03   -0.19601E-03   -0.19597E-03  8208   0.875E-03 0.252E-05
CGA:  13    -0.351132499613E+03   -0.12484E-03   -0.12486E-03  8208   0.323E-03 0.356E-05
CGA:  14    -0.351132558949E+03   -0.59336E-04   -0.59256E-04  8208   0.199E-03 0.226E-05
CGA:  15    -0.351132582557E+03   -0.23608E-04   -0.23648E-04  8208   0.750E-04 0.115E-05
CGA:  16    -0.351132595811E+03   -0.13254E-04   -0.13240E-04  8208   0.425E-04 0.516E-06
CGA:  17    -0.351132601921E+03   -0.61101E-05   -0.61116E-05  8208   0.218E-04 0.192E-06
  31 F= -.35113260E+03 E0= -.35112722E+03  d E =0.562993E-02  mag=    30.0229
       N       E                     dE             d eps       ncg     rms          ort
SDA:   1    -0.342530879326E+03    0.86017E+01    0.00000E+00  8208   0.243E+02 0.000E+00
CGA:   2    -0.347705164257E+03   -0.51743E+01   -0.51719E+01  8208   0.148E+02 0.315E-01
CGA:   3    -0.350250839359E+03   -0.25457E+01   -0.25458E+01  8208   0.471E+01-0.358E-02
CGA:   4    -0.350901493776E+03   -0.65065E+00   -0.65071E+00  8208   0.982E+00 0.140E-02
CGA:   5    -0.351051247298E+03   -0.14975E+00   -0.14975E+00  8208   0.320E+00 0.109E-03
CGA:   6    -0.351092809642E+03   -0.41562E-01   -0.41608E-01  8208   0.149E+00 0.685E-03
CGA:   7    -0.351109906062E+03   -0.17096E-01   -0.17050E-01  8208   0.482E-01-0.139E-03
CGA:   8    -0.351117098278E+03   -0.71922E-02   -0.71923E-02  8208   0.187E-01 0.458E-04
CGA:   9    -0.351119734705E+03   -0.26364E-02   -0.26369E-02  8208   0.795E-02 0.307E-04
CGA:  10    -0.351121217635E+03   -0.14829E-02   -0.14825E-02  8208   0.419E-02 0.129E-04
CGA:  11    -0.351121826015E+03   -0.60838E-03   -0.60834E-03  8208   0.301E-02 0.844E-06
CGA:  12    -0.351122271691E+03   -0.44568E-03   -0.44571E-03  8208   0.115E-02 0.744E-05
CGA:  13    -0.351122489883E+03   -0.21819E-03   -0.21803E-03  8208   0.670E-03 0.436E-05
CGA:  14    -0.351122582861E+03   -0.92978E-04   -0.93024E-04  8208   0.267E-03 0.289E-05
CGA:  15    -0.351122624908E+03   -0.42047E-04   -0.42041E-04  8208   0.159E-03 0.172E-05
CGA:  16    -0.351122645007E+03   -0.20099E-04   -0.20134E-04  8208   0.622E-04 0.124E-05
CGA:  17    -0.351122657976E+03   -0.12969E-04   -0.12930E-04  8208   0.396E-04 0.726E-06
CGA:  18    -0.351122664873E+03   -0.68973E-05   -0.68955E-05  8208   0.291E-04 0.117E-06
  32 F= -.35112266E+03 E0= -.35111740E+03  d E =0.993705E-02  mag=    30.0152
       N       E                     dE             d eps       ncg     rms          ort
SDA:   1    -0.345702772074E+03    0.54199E+01    0.00000E+00  8208   0.156E+02 0.000E+00
CGA:   2    -0.348996964138E+03   -0.32942E+01   -0.32938E+01  8208   0.913E+01 0.524E-02
CGA:   3    -0.350553457122E+03   -0.15565E+01   -0.15566E+01  8208   0.316E+01-0.660E-02
CGA:   4    -0.350972355908E+03   -0.41890E+00   -0.41913E+00  8208   0.861E+00 0.283E-02
CGA:   5    -0.351070462014E+03   -0.98106E-01   -0.97065E-01  8208   0.350E+00-0.127E-02
CGA:   6    -0.351110494918E+03   -0.40033E-01   -0.40131E-01  8208   0.951E-01 0.392E-03
CGA:   7    -0.351126379144E+03   -0.15884E-01   -0.15886E-01  8208   0.327E-01-0.900E-04
CGA:   8    -0.351130848671E+03   -0.44695E-02   -0.44723E-02  8208   0.177E-01 0.628E-04
CGA:   9    -0.351132972757E+03   -0.21241E-02   -0.21227E-02  8208   0.582E-02-0.330E-05
CGA:  10    -0.351134036153E+03   -0.10634E-02   -0.10630E-02  8208   0.372E-02 0.112E-04
CGA:  11    -0.351134548646E+03   -0.51249E-03   -0.51258E-03  8208   0.182E-02 0.535E-05
CGA:  12    -0.351134879888E+03   -0.33124E-03   -0.33107E-03  8208   0.109E-02 0.549E-05
CGA:  13    -0.351135017398E+03   -0.13751E-03   -0.13752E-03  8208   0.539E-03 0.116E-05
CGA:  14    -0.351135111961E+03   -0.94562E-04   -0.94539E-04  8208   0.206E-03 0.960E-06
CGA:  15    -0.351135141131E+03   -0.29171E-04   -0.29174E-04  8208   0.125E-03 0.273E-06
CGA:  16    -0.351135158649E+03   -0.17517E-04   -0.17524E-04  8208   0.465E-04 0.436E-06
CGA:  17    -0.351135166004E+03   -0.73550E-05   -0.73532E-05  8208   0.298E-04 0.374E-06
  33 F= -.35113517E+03 E0= -.35112988E+03  d E =-.125011E-01  mag=    30.0217
       N       E                     dE             d eps       ncg     rms          ort
SDA:   1    -0.300562967796E+03    0.50572E+02    0.00000E+00  8208   0.339E+03 0.000E+00
CGA:   2    -0.322535766990E+03   -0.21973E+02   -0.21481E+02  8208   0.106E+03 0.346E+01
CGA:   3    -0.336699602087E+03   -0.14164E+02   -0.12208E+02  8208   0.812E+02-0.149E+02
CGA:   4    -0.344280566558E+03   -0.75810E+01   -0.69629E+01  8208   0.417E+02 0.188E+01
CGA:   5    -0.346762287216E+03   -0.24817E+01   -0.21214E+01  8208   0.360E+02 0.167E+01
CGA:   6    -0.349126920542E+03   -0.23646E+01   -0.26234E+01  8208   0.302E+02-0.216E+01
CGA:   7    -0.349700466803E+03   -0.57355E+00   -0.10623E+01  8208   0.110E+02-0.841E+01
CGA:   8    -0.350007885186E+03   -0.30742E+00   -0.30667E+00  8208   0.535E+01-0.191E-01
CGA:   9    -0.350261760479E+03   -0.25388E+00   -0.29562E+00  8208   0.566E+01-0.441E+00
CGA:  10    -0.350495164255E+03   -0.23340E+00   -0.27331E+00  8208   0.290E+01-0.434E+00
CGA:  11    -0.350565367198E+03   -0.70203E-01   -0.98187E-01  8208   0.178E+01-0.630E+00
CGA:  12    -0.350632614265E+03   -0.67247E-01   -0.75724E-01  8208   0.130E+01-0.748E-01
CGA:  13    -0.350688692539E+03   -0.56078E-01   -0.61248E-01  8208   0.102E+01-0.616E-01
CGA:  14    -0.350729638503E+03   -0.40946E-01   -0.42131E-01  8208   0.733E+00-0.201E-01
CGA:  15    -0.350761924948E+03   -0.32286E-01   -0.34870E-01  8208   0.439E+00-0.295E-01
CGA:  16    -0.350782778617E+03   -0.20854E-01   -0.21963E-01  8208   0.386E+00-0.100E-01
CGA:  17    -0.350800635608E+03   -0.17857E-01   -0.18580E-01  8208   0.187E+00-0.793E-02
CGA:  18    -0.350812900111E+03   -0.12265E-01   -0.12383E-01  8208   0.179E+00 0.169E-03
CGA:  19    -0.350824828597E+03   -0.11928E-01   -0.12310E-01  8208   0.125E+00 0.132E-02
CGA:  20    -0.350831672201E+03   -0.68436E-02   -0.70042E-02  8208   0.811E-01-0.930E-03
CGA:  21    -0.350839516785E+03   -0.78446E-02   -0.78261E-02  8208   0.676E-01 0.264E-02
CGA:  22    -0.350845946731E+03   -0.64299E-02   -0.64422E-02  8208   0.717E-01 0.433E-02
CGA:  23    -0.350854024263E+03   -0.80775E-02   -0.79982E-02  8208   0.601E-01 0.426E-02
CGA:  24    -0.350860813535E+03   -0.67893E-02   -0.66856E-02  8208   0.492E-01 0.570E-02
CGA:  25    -0.350868205635E+03   -0.73921E-02   -0.72186E-02  8208   0.374E-01 0.338E-02
CGA:  26    -0.350873925850E+03   -0.57202E-02   -0.55439E-02  8208   0.266E-01 0.322E-02
CGA:  27    -0.350879008668E+03   -0.50828E-02   -0.48477E-02  8208   0.146E-01 0.285E-02
CGA:  28    -0.350882411409E+03   -0.34027E-02   -0.34590E-02  8208   0.122E-01-0.606E-03
CGA:  29    -0.350884386508E+03   -0.19751E-02   -0.19454E-02  8208   0.764E-02 0.396E-03
CGA:  30    -0.350885988519E+03   -0.16020E-02   -0.15799E-02  8208   0.597E-02 0.214E-03
CGA:  31    -0.350887035175E+03   -0.10467E-02   -0.10539E-02  8208   0.455E-02-0.106E-03
SDA:  32    -0.350887857062E+03   -0.82189E-03   -0.82076E-03  8208   0.230E-02 0.150E-04
CGA:  33    -0.350888256242E+03   -0.39918E-03   -0.40002E-03  8208   0.279E-02-0.138E-04
CGA:  34    -0.350888673327E+03   -0.41709E-03   -0.41736E-03  8208   0.100E-02-0.932E-05
CGA:  35    -0.350888843992E+03   -0.17066E-03   -0.17047E-03  8208   0.475E-03 0.501E-05
CGA:  36    -0.350888980498E+03   -0.13651E-03   -0.13635E-03  8208   0.494E-03 0.935E-06
CGA:  37    -0.350889071489E+03   -0.90991E-04   -0.91315E-04  8208   0.290E-03-0.623E-05
CGA:  38    -0.350889133241E+03   -0.61752E-04   -0.62406E-04  8208   0.235E-03-0.756E-05
CGA:  39    -0.350889169476E+03   -0.36235E-04   -0.36232E-04  8208   0.144E-03 0.283E-06
CGA:  40    -0.350889192322E+03   -0.22846E-04   -0.22849E-04  8208   0.115E-03-0.148E-06
CGA:  41    -0.350889213049E+03   -0.20727E-04   -0.20802E-04  8208   0.561E-04-0.194E-05
CGA:  42    -0.350889222481E+03   -0.94325E-05   -0.94410E-05  8208   0.343E-04-0.363E-06
  34 F= -.35088922E+03 E0= -.35088320E+03  d E =0.245944E+00  mag=    30.0402
       N       E                     dE             d eps       ncg     rms          ort
SDA:   1    -0.335079806075E+03    0.15809E+02    0.00000E+00  8208   0.695E+02 0.000E+00
CGA:   2    -0.343207010219E+03   -0.81272E+01   -0.83389E+01  8208   0.280E+02 0.272E+01
CGA:   3    -0.347383762502E+03   -0.41768E+01   -0.37232E+01  8208   0.207E+02-0.357E+01
CGA:   4    -0.349989175691E+03   -0.26054E+01   -0.25453E+01  8208   0.714E+01-0.246E+01
CGA:   5    -0.350624070355E+03   -0.63489E+00   -0.64311E+00  8208   0.398E+01 0.282E-01
CGA:   6    -0.350837648085E+03   -0.21358E+00   -0.21110E+00  8208   0.142E+01 0.823E-01
CGA:   7    -0.350971309077E+03   -0.13366E+00   -0.13112E+00  8208   0.106E+01-0.509E-03
CGA:   8    -0.351039265874E+03   -0.67957E-01   -0.76629E-01  8208   0.373E+00-0.463E-01
CGA:   9    -0.351072448682E+03   -0.33183E-01   -0.35188E-01  8208   0.236E+00 0.887E-02
CGA:  10    -0.351093918460E+03   -0.21470E-01   -0.22122E-01  8208   0.104E+00 0.874E-03
CGA:  11    -0.351106749830E+03   -0.12831E-01   -0.12929E-01  8208   0.434E-01 0.491E-02
CGA:  12    -0.351112362526E+03   -0.56127E-02   -0.56534E-02  8208   0.297E-01 0.241E-02
CGA:  13    -0.351115627316E+03   -0.32648E-02   -0.32951E-02  8208   0.114E-01 0.318E-03
CGA:  14    -0.351117493051E+03   -0.18657E-02   -0.18479E-02  8208   0.693E-02 0.411E-03
CGA:  15    -0.351118380710E+03   -0.88766E-03   -0.88875E-03  8208   0.338E-02 0.643E-04
CGA:  16    -0.351118919475E+03   -0.53876E-03   -0.53549E-03  8208   0.157E-02 0.859E-04
CGA:  17    -0.351119164038E+03   -0.24456E-03   -0.24379E-03  8208   0.103E-02 0.263E-04
CGA:  18    -0.351119324726E+03   -0.16069E-03   -0.16035E-03  8208   0.429E-03 0.108E-04
CGA:  19    -0.351119402043E+03   -0.77317E-04   -0.77032E-04  8208   0.318E-03 0.527E-05
CGA:  20    -0.351119449034E+03   -0.46991E-04   -0.46930E-04  8208   0.151E-03 0.489E-05
CGA:  21    -0.351119477582E+03   -0.28547E-04   -0.28428E-04  8208   0.112E-03 0.229E-05
CGA:  22    -0.351119495703E+03   -0.18122E-04   -0.18093E-04  8208   0.579E-04 0.121E-05
CGA:  23    -0.351119505842E+03   -0.10139E-04   -0.10129E-04  8208   0.486E-04 0.266E-06
CGA:  24    -0.351119513632E+03   -0.77894E-05   -0.77892E-05  8208   0.244E-04-0.696E-07
  35 F= -.35111951E+03 E0= -.35111407E+03  d E =-.230291E+00  mag=    30.0318
       N       E                     dE             d eps       ncg     rms          ort
SDA:   1    -0.348796191825E+03    0.23233E+01    0.00000E+00  8208   0.858E+01 0.000E+00
CGA:   2    -0.350093602199E+03   -0.12974E+01   -0.12973E+01  8208   0.348E+01 0.102E-01
CGA:   3    -0.350780926022E+03   -0.68732E+00   -0.68777E+00  8208   0.187E+01-0.681E-02
CGA:   4    -0.351050888772E+03   -0.26996E+00   -0.27000E+00  8208   0.428E+00 0.541E-02
CGA:   5    -0.351111440670E+03   -0.60552E-01   -0.60533E-01  8208   0.129E+00-0.112E-02
CGA:   6    -0.351127807322E+03   -0.16367E-01   -0.16394E-01  8208   0.544E-01 0.480E-03
CGA:   7    -0.351134432332E+03   -0.66250E-02   -0.66263E-02  8208   0.199E-01 0.280E-04
CGA:   8    -0.351137113126E+03   -0.26808E-02   -0.26807E-02  8208   0.748E-02-0.196E-05
CGA:   9    -0.351138180432E+03   -0.10673E-02   -0.10673E-02  8208   0.265E-02 0.673E-05
CGA:  10    -0.351138607385E+03   -0.42695E-03   -0.42692E-03  8208   0.159E-02 0.288E-05
CGA:  11    -0.351138799178E+03   -0.19179E-03   -0.19189E-03  8208   0.687E-03 0.265E-05
CGA:  12    -0.351138919144E+03   -0.11997E-03   -0.11995E-03  8208   0.309E-03 0.546E-06
CGA:  13    -0.351138968925E+03   -0.49781E-04   -0.49788E-04  8208   0.159E-03-0.420E-06
CGA:  14    -0.351138994458E+03   -0.25533E-04   -0.25532E-04  8208   0.777E-04 0.353E-07
CGA:  15    -0.351139004487E+03   -0.10029E-04   -0.10037E-04  8208   0.401E-04 0.414E-06
CGA:  16    -0.351139010677E+03   -0.61896E-05   -0.61860E-05  8208   0.148E-04 0.539E-06
  36 F= -.35113901E+03 E0= -.35113365E+03  d E =-.194970E-01  mag=    30.0328
       N       E                     dE             d eps       ncg     rms          ort
SDA:   1    -0.350948575284E+03    0.19043E+00    0.00000E+00  8208   0.671E+00 0.000E+00
CGA:   2    -0.351055686548E+03   -0.10711E+00   -0.10709E+00  8208   0.350E+00 0.835E-03
CGA:   3    -0.351107491565E+03   -0.51805E-01   -0.51804E-01  8208   0.210E+00-0.199E-02
CGA:   4    -0.351131437179E+03   -0.23946E-01   -0.23998E-01  8208   0.633E-01 0.368E-03
CGA:   5    -0.351139519271E+03   -0.80821E-02   -0.80764E-02  8208   0.159E-01-0.100E-03
CGA:   6    -0.351141804313E+03   -0.22850E-02   -0.22851E-02  8208   0.547E-02 0.107E-04
CGA:   7    -0.351142440247E+03   -0.63593E-03   -0.63550E-03  8208   0.225E-02-0.404E-05
CGA:   8    -0.351142749122E+03   -0.30888E-03   -0.30890E-03  8208   0.802E-03 0.195E-05
CGA:   9    -0.351142869825E+03   -0.12070E-03   -0.12070E-03  8208   0.376E-03 0.517E-06
CGA:  10    -0.351142921438E+03   -0.51613E-04   -0.51620E-04  8208   0.165E-03 0.925E-06
CGA:  11    -0.351142947879E+03   -0.26441E-04   -0.26435E-04  8208   0.100E-03 0.378E-06
CGA:  12    -0.351142961966E+03   -0.14087E-04   -0.14088E-04  8208   0.448E-04 0.209E-06
CGA:  13    -0.351142969885E+03   -0.79186E-05   -0.79266E-05  8208   0.247E-04-0.245E-06
  37 F= -.35114297E+03 E0= -.35113765E+03  d E =-.395921E-02  mag=    30.0300
       N       E                     dE             d eps       ncg     rms          ort
SDA:   1    -0.350881825872E+03    0.26114E+00    0.00000E+00  8208   0.880E+00 0.000E+00
CGA:   2    -0.351029759003E+03   -0.14793E+00   -0.14790E+00  8208   0.483E+00 0.109E-02
CGA:   3    -0.351100034485E+03   -0.70275E-01   -0.70270E-01  8208   0.269E+00-0.238E-02
CGA:   4    -0.351130315013E+03   -0.30281E-01   -0.30352E-01  8208   0.829E-01 0.502E-03
CGA:   5    -0.351140748415E+03   -0.10433E-01   -0.10425E-01  8208   0.220E-01-0.138E-03
CGA:   6    -0.351143851183E+03   -0.31028E-02   -0.31028E-02  8208   0.718E-02 0.121E-04
CGA:   7    -0.351144732161E+03   -0.88098E-03   -0.88067E-03  8208   0.298E-02-0.454E-05
CGA:   8    -0.351145125140E+03   -0.39298E-03   -0.39305E-03  8208   0.117E-02 0.327E-05
CGA:   9    -0.351145292162E+03   -0.16702E-03   -0.16702E-03  8208   0.507E-03 0.514E-06
CGA:  10    -0.351145368165E+03   -0.76004E-04   -0.75997E-04  8208   0.227E-03 0.796E-06
CGA:  11    -0.351145404094E+03   -0.35929E-04   -0.35927E-04  8208   0.147E-03 0.147E-06
CGA:  12    -0.351145424208E+03   -0.20114E-04   -0.20116E-04  8208   0.651E-04 0.212E-06
CGA:  13    -0.351145435552E+03   -0.11343E-04   -0.11346E-04  8208   0.344E-04-0.863E-07
CGA:  14    -0.351145440601E+03   -0.50489E-05   -0.50489E-05  8208   0.176E-04-0.538E-07
  38 F= -.35114544E+03 E0= -.35114016E+03  d E =-.247072E-02  mag=    30.0266
       N       E                     dE             d eps       ncg     rms          ort
SDA:   1    -0.351104895832E+03    0.40540E-01    0.00000E+00  8208   0.123E+00 0.000E+00
CGA:   2    -0.351129528425E+03   -0.24633E-01   -0.24634E-01  8208   0.671E-01-0.126E-04
CGA:   3    -0.351140389811E+03   -0.10861E-01   -0.10861E-01  8208   0.270E-01 0.569E-06
CGA:   4    -0.351143769488E+03   -0.33797E-02   -0.33786E-02  8208   0.990E-02-0.138E-04
CGA:   5    -0.351144811834E+03   -0.10423E-02   -0.10432E-02  8208   0.305E-02 0.326E-05
CGA:   6    -0.351145214619E+03   -0.40279E-03   -0.40277E-03  8208   0.800E-03-0.366E-06
CGA:   7    -0.351145335462E+03   -0.12084E-03   -0.12084E-03  8208   0.356E-03 0.824E-07
CGA:   8    -0.351145379642E+03   -0.44180E-04   -0.44179E-04  8208   0.153E-03 0.298E-07
CGA:   9    -0.351145401708E+03   -0.22066E-04   -0.22066E-04  8208   0.674E-04 0.193E-06
CGA:  10    -0.351145411548E+03   -0.98399E-05   -0.98398E-05  8208   0.351E-04-0.353E-07
  39 F= -.35114541E+03 E0= -.35114013E+03  d E =0.290530E-04  mag=    30.0255
       N       E                     dE             d eps       ncg     rms          ort
SDA:   1    -0.351023735227E+03    0.12167E+00    0.00000E+00  8208   0.351E+00 0.000E+00
CGA:   2    -0.351095561727E+03   -0.71827E-01   -0.71705E-01  8208   0.275E+00 0.165E-02
CGA:   3    -0.351124775736E+03   -0.29214E-01   -0.28995E-01  8208   0.103E+00-0.351E-03
CGA:   4    -0.351138846315E+03   -0.14071E-01   -0.14072E-01  8208   0.273E-01 0.613E-04
CGA:   5    -0.351142802529E+03   -0.39562E-02   -0.39562E-02  8208   0.780E-02-0.156E-04
CGA:   6    -0.351143776856E+03   -0.97433E-03   -0.97463E-03  8208   0.320E-02 0.622E-05
CGA:   7    -0.351144134557E+03   -0.35770E-03   -0.35757E-03  8208   0.104E-02-0.550E-06
CGA:   8    -0.351144303014E+03   -0.16846E-03   -0.16845E-03  8208   0.413E-03 0.468E-06
CGA:   9    -0.351144362326E+03   -0.59311E-04   -0.59311E-04  8208   0.217E-03 0.181E-06
CGA:  10    -0.351144393619E+03   -0.31293E-04   -0.31293E-04  8208   0.115E-03 0.226E-06
CGA:  11    -0.351144411681E+03   -0.18062E-04   -0.18063E-04  8208   0.663E-04-0.829E-07
CGA:  12    -0.351144423164E+03   -0.11484E-04   -0.11480E-04  8208   0.363E-04 0.116E-06
CGA:  13    -0.351144428490E+03   -0.53254E-05   -0.53256E-05  8208   0.211E-04 0.271E-07
  40 F= -.35114443E+03 E0= -.35113915E+03  d E =0.983058E-03  mag=    30.0237
       N       E                     dE             d eps       ncg     rms          ort
SDA:   1    -0.351058320769E+03    0.86102E-01    0.00000E+00  8208   0.256E+00 0.000E+00
CGA:   2    -0.351109501660E+03   -0.51181E-01   -0.51179E-01  8208   0.138E+00 0.348E-04
CGA:   3    -0.351133793727E+03   -0.24292E-01   -0.24293E-01  8208   0.513E-01-0.140E-04
CGA:   4    -0.351140769111E+03   -0.69754E-02   -0.69757E-02  8208   0.144E-01 0.102E-04
CGA:   5    -0.351142405312E+03   -0.16362E-02   -0.16351E-02  8208   0.595E-02-0.381E-05
CGA:   6    -0.351143067073E+03   -0.66176E-03   -0.66217E-03  8208   0.159E-02 0.315E-05
CGA:   7    -0.351143336945E+03   -0.26987E-03   -0.26986E-03  8208   0.512E-03 0.525E-06
CGA:   8    -0.351143413762E+03   -0.76816E-04   -0.76814E-04  8208   0.302E-03 0.780E-06
CGA:   9    -0.351143447792E+03   -0.34030E-04   -0.34026E-04  8208   0.100E-03 0.238E-07
CGA:  10    -0.351143467763E+03   -0.19972E-04   -0.19986E-04  8208   0.581E-04-0.267E-06
CGA:  11    -0.351143475896E+03   -0.81324E-05   -0.81314E-05  8208   0.352E-04-0.130E-06
  41 F= -.35114348E+03 E0= -.35113818E+03  d E =0.952594E-03  mag=    30.0243
