       N       E                     dE             d eps       ncg     rms          ort
DAV:   1     0.581628740966E+04    0.58163E+04   -0.23474E+05  7072   0.164E+03
DAV:   2     0.570765945087E+03   -0.52455E+04   -0.49145E+04  7072   0.474E+02
DAV:   3    -0.370663342430E+03   -0.94143E+03   -0.91691E+03  7072   0.205E+02
DAV:   4    -0.414064926219E+03   -0.43402E+02   -0.42339E+02  7072   0.488E+01
DAV:   5    -0.415961997841E+03   -0.18971E+01   -0.18033E+01  7072   0.953E+00
SDA:   6    -0.160759189572E+03    0.25520E+03   -0.18033E+01  7072   0.316E+04 0.000E+00
CGA:   7    -0.183549543938E+03   -0.22790E+02   -0.28891E+03  7072   0.279E+04-0.249E+03
CGA:   8    -0.252748035305E+03   -0.69198E+02   -0.19546E+03  7072   0.764E+03-0.546E+03
CGA:   9    -0.289623615817E+03   -0.36876E+02   -0.38354E+02  7072   0.472E+03 0.345E+03
CGA:  10    -0.309838237869E+03   -0.20215E+02   -0.35532E+02  7072   0.869E+03-0.714E+03
CGA:  11    -0.303667283320E+03    0.61710E+01   -0.62798E+02  7072   0.135E+04-0.808E+03
CGA:  12    -0.310206967880E+03   -0.65397E+01   -0.80935E+02  7072   0.170E+04-0.133E+04
CGA:  13    -0.282616630720E+03    0.27590E+02   -0.11588E+03  7072   0.238E+04-0.145E+04
CGA:  14    -0.252576739059E+03    0.30040E+02   -0.15862E+03  7072   0.456E+03-0.298E+03
CGA:  15    -0.315671768035E+03   -0.63095E+02   -0.18893E+02  7072   0.629E+03-0.734E+03
CGA:  16    -0.339286465973E+03   -0.23615E+02   -0.23386E+02  7072   0.107E+03-0.236E+03
CGA:  17    -0.342151109835E+03   -0.28646E+01   -0.30676E+01  7072   0.732E+02-0.349E+01
CGA:  18    -0.342438685630E+03   -0.28758E+00   -0.14799E+01  7072   0.117E+03-0.707E+02
CGA:  19    -0.337721951155E+03    0.47167E+01   -0.34542E+01  7072   0.666E+03-0.240E+03
CGA:  20    -0.297186139873E+03    0.40536E+02   -0.26447E+02  7072   0.200E+04-0.663E+03
CGA:  21    -0.251949208421E+03    0.45237E+02   -0.99876E+02  7072   0.132E+04-0.543E+03
CGA:  22    -0.290602386311E+03   -0.38653E+02   -0.49300E+02  7072   0.137E+04-0.106E+04
CGA:  23    -0.311700416137E+03   -0.21098E+02   -0.56248E+02  7072   0.165E+04-0.198E+04
CGA:  24    -0.270514776196E+03    0.41186E+02   -0.71693E+02  7072   0.164E+04-0.109E+04
CGA:  25    -0.255728830995E+03    0.14786E+02   -0.74308E+02  7072   0.859E+03-0.449E+03
CGA:  26    -0.305832970532E+03   -0.50104E+02   -0.25756E+02  7072   0.759E+03-0.120E+04
CGA:  27    -0.326888694701E+03   -0.21056E+02   -0.20527E+02  7072   0.101E+04-0.137E+04
CGA:  28    -0.286867484442E+03    0.40021E+02   -0.30636E+02  7072   0.120E+04-0.624E+03
CGA:  29    -0.251814106696E+03    0.35053E+02   -0.44950E+02  7072   0.921E+03-0.243E+03
CGA:  30    -0.310447402634E+03   -0.58633E+02   -0.28707E+02  7072   0.872E+03-0.155E+04
CGA:  31    -0.329454106264E+03   -0.19007E+02   -0.21859E+02  7072   0.734E+03-0.112E+04
CGA:  32    -0.308777797109E+03    0.20676E+02   -0.18202E+02  7072   0.269E+04-0.154E+04
CGA:  33    -0.254478808314E+03    0.54299E+02   -0.97440E+02  7072   0.127E+04-0.409E+03
CGA:  34    -0.290760471429E+03   -0.36282E+02   -0.36819E+02  7072   0.182E+04-0.200E+04
CGA:  35    -0.310887640562E+03   -0.20127E+02   -0.56230E+02  7072   0.820E+03-0.154E+04
CGA:  36    -0.328790568571E+03   -0.17903E+02   -0.18341E+02  7072   0.108E+04-0.149E+04
CGA:  37    -0.299306808488E+03    0.29484E+02   -0.21404E+02  7072   0.619E+04-0.358E+04
CGA:  38    -0.288199704440E+03    0.11107E+02   -0.20671E+03  7072   0.132E+04-0.547E+03
CGA:  39    -0.320865057576E+03   -0.32665E+02   -0.33797E+02  7072   0.733E+03-0.141E+04
CGA:  40    -0.336334745293E+03   -0.15470E+02   -0.13307E+02  7072   0.804E+03-0.330E+03
CGA:  41    -0.315400795576E+03    0.20934E+02   -0.61585E+01  7072   0.150E+04-0.674E+03
CGA:  42    -0.303920448205E+03    0.11480E+02   -0.38801E+02  7072   0.260E+04-0.841E+03
CGA:  43    -0.287870384346E+03    0.16050E+02   -0.62353E+02  7072   0.844E+03-0.731E+03
CGA:  44    -0.339210724749E+03   -0.51340E+02   -0.88749E+01  7072   0.700E+03-0.197E+04
CGA:  45    -0.322811374914E+03    0.16399E+02   -0.11511E+02  7072   0.381E+04-0.164E+04
CGA:  46    -0.263108688071E+03    0.59703E+02   -0.84804E+02  7072   0.340E+04-0.131E+04
CGA:  47    -0.292862759333E+03   -0.29754E+02   -0.52196E+02  7072   0.160E+04-0.117E+04
CGA:  48    -0.338481123484E+03   -0.45618E+02   -0.17342E+02  7072   0.647E+03-0.112E+04
CGA:  49    -0.340402866291E+03   -0.19217E+01   -0.89149E+01  7072   0.130E+04-0.870E+03
CGA:  50    -0.325727608790E+03    0.14675E+02   -0.19149E+02  7072   0.305E+04-0.148E+04
CGA:  51    -0.289859858120E+03    0.35868E+02   -0.59490E+02  7072   0.127E+04-0.706E+03
CGA:  52    -0.325875989080E+03   -0.36016E+02   -0.12685E+02  7072   0.394E+04-0.571E+04
CGA:  53    -0.288037261599E+03    0.37839E+02   -0.74164E+02  7072   0.926E+03-0.522E+03
CGA:  54    -0.335445156980E+03   -0.47408E+02   -0.90254E+01  7072   0.257E+04-0.549E+04
CGA:  55    -0.297863164948E+03    0.37582E+02   -0.41222E+02  7072   0.258E+04-0.127E+04
CGA:  56    -0.341649646203E+03   -0.43786E+02   -0.15595E+02  7072   0.173E+04-0.292E+04
CGA:  57    -0.317742984307E+03    0.23907E+02   -0.24053E+02  7072   0.320E+04-0.115E+04
CGA:  58    -0.269955794135E+03    0.47787E+02   -0.41480E+02  7072   0.598E+04-0.336E+04
CGA:  59    -0.284474322324E+03   -0.14519E+02   -0.10729E+03  7072   0.356E+03-0.306E+03
CGA:  60    -0.316651610542E+03   -0.32177E+02   -0.29091E+01  7072   0.819E+03 0.165E+04
CGA:  61    -0.337471246517E+03   -0.20820E+02   -0.51533E+01  7072   0.100E+04 0.211E+04
CGA:  62    -0.344575392985E+03   -0.71041E+01   -0.64723E+01  7072   0.441E+03-0.405E+03
CGA:  63    -0.346312682050E+03   -0.17373E+01   -0.14525E+01  7072   0.305E+03 0.182E+02
CGA:  64    -0.346336983912E+03   -0.24302E-01   -0.15978E+01  7072   0.211E+03-0.327E+03
CGA:  65    -0.347195309663E+03   -0.85833E+00   -0.14503E+01  7072   0.102E+03-0.793E+02
CGA:  66    -0.347482958547E+03   -0.28765E+00   -0.40114E+00  7072   0.125E+02-0.154E+02
CGA:  67    -0.347590717393E+03   -0.10776E+00   -0.10393E+00  7072   0.633E+01 0.249E+00
CGA:  68    -0.347626534413E+03   -0.35817E-01   -0.37486E-01  7072   0.259E+01-0.258E+00
CGA:  69    -0.347745979517E+03   -0.11945E+00   -0.11497E+00  7072   0.890E+01 0.201E+00
CGA:  70    -0.347993673252E+03   -0.24769E+00   -0.24677E+00  7072   0.487E+01 0.164E+01
CGA:  71    -0.348047422384E+03   -0.53749E-01   -0.67249E-01  7072   0.357E+01-0.624E+00
CGA:  72    -0.348193747512E+03   -0.14633E+00   -0.13211E+00  7072   0.192E+01 0.676E+00
CGA:  73    -0.348237711501E+03   -0.43964E-01   -0.45839E-01  7072   0.114E+01 0.804E-01
CGA:  74    -0.348267603453E+03   -0.29892E-01   -0.29913E-01  7072   0.799E+00 0.434E-01
CGA:  75    -0.348299159814E+03   -0.31556E-01   -0.30201E-01  7072   0.491E+00 0.958E-01
CGA:  76    -0.348323384182E+03   -0.24224E-01   -0.23294E-01  7072   0.855E+00 0.494E-01
CGA:  77    -0.348367887997E+03   -0.44504E-01   -0.42167E-01  7072   0.661E+00 0.110E+00
CGA:  78    -0.348397493540E+03   -0.29606E-01   -0.28652E-01  7072   0.208E+00 0.685E-01
CGA:  79    -0.348405741614E+03   -0.82481E-02   -0.81636E-02  7072   0.178E+00 0.812E-02
CGA:  80    -0.348415112531E+03   -0.93709E-02   -0.91810E-02  7072   0.162E+00 0.828E-02
CGA:  81    -0.348425550761E+03   -0.10438E-01   -0.10124E-01  7072   0.127E+00 0.991E-02
CGA:  82    -0.348433299217E+03   -0.77485E-02   -0.75810E-02  7072   0.135E+00 0.636E-02
CGA:  83    -0.348439130582E+03   -0.58314E-02   -0.58163E-02  7072   0.766E-01 0.127E-02
CGA:  84    -0.348442802264E+03   -0.36717E-02   -0.36537E-02  7072   0.373E-01 0.956E-03
CGA:  85    -0.348445113514E+03   -0.23113E-02   -0.22862E-02  7072   0.433E-01 0.862E-03
CGA:  86    -0.348447630523E+03   -0.25170E-02   -0.24898E-02  7072   0.414E-01 0.109E-02
CGA:  87    -0.348449468754E+03   -0.18382E-02   -0.18525E-02  7072   0.208E-01-0.133E-02
CGA:  88    -0.348450814383E+03   -0.13456E-02   -0.13335E-02  7072   0.196E-01 0.371E-03
CGA:  89    -0.348451658474E+03   -0.84409E-03   -0.84583E-03  7072   0.130E-01-0.281E-03
CGA:  90    -0.348452347211E+03   -0.68874E-03   -0.69032E-03  7072   0.101E-01-0.105E-03
CGA:  91    -0.348453072800E+03   -0.72559E-03   -0.72847E-03  7072   0.109E-01-0.924E-04
CGA:  92    -0.348453484700E+03   -0.41190E-03   -0.41193E-03  7072   0.531E-02-0.256E-04
CGA:  93    -0.348453801972E+03   -0.31727E-03   -0.32035E-03  7072   0.571E-02-0.136E-03
CGA:  94    -0.348454168135E+03   -0.36616E-03   -0.36478E-03  7072   0.505E-02 0.445E-04
SDA:  95    -0.348454376745E+03   -0.20861E-03   -0.20857E-03  7072   0.333E-02-0.201E-04
CGA:  96    -0.348454449232E+03   -0.72487E-04   -0.72617E-04  7072   0.121E-02 0.201E-05
CGA:  97    -0.348454559612E+03   -0.11038E-03   -0.10960E-03  7072   0.167E-02 0.149E-04
CGA:  98    -0.348454705452E+03   -0.14584E-03   -0.14315E-03  7072   0.294E-02 0.661E-04
CGA:  99    -0.348455076924E+03   -0.37147E-03   -0.38698E-03  7072   0.251E-02-0.293E-03
CGA: 100    -0.348455180274E+03   -0.10335E-03   -0.10369E-03  7072   0.857E-03 0.573E-04
CGA: 101    -0.348455229092E+03   -0.48818E-04   -0.48725E-04  7072   0.764E-03 0.163E-04
CGA: 102    -0.348455254364E+03   -0.25272E-04   -0.25394E-04  7072   0.406E-03 0.860E-05
CGA: 103    -0.348455293136E+03   -0.38772E-04   -0.38314E-04  7072   0.447E-03 0.991E-05
CGA: 104    -0.348455335835E+03   -0.42699E-04   -0.42882E-04  7072   0.131E-03-0.463E-05
CGA: 105    -0.348455356993E+03   -0.21158E-04   -0.25440E-04  7072   0.544E-03-0.303E-04
CGA: 106    -0.348455381167E+03   -0.24175E-04   -0.24058E-04  7072   0.266E-03-0.382E-04
CGA: 107    -0.348455390759E+03   -0.95917E-05   -0.92892E-05  7072   0.179E-03-0.130E-04
CGA: 108    -0.348455401767E+03   -0.11008E-04   -0.11089E-04  7072   0.223E-03-0.139E-04
CGA: 109    -0.348455411787E+03   -0.10020E-04   -0.99150E-05  7072   0.166E-03-0.955E-05
CGA: 110    -0.348455421799E+03   -0.10012E-04   -0.10034E-04  7072   0.175E-03-0.534E-05
CGA: 111    -0.348455432059E+03   -0.10260E-04   -0.10262E-04  7072   0.132E-03-0.132E-05
CGA: 112    -0.348455437138E+03   -0.50785E-05   -0.51187E-05  7072   0.514E-04 0.174E-05
   1 F= -.34845544E+03 E0= -.34843861E+03  d E =-.348455E+03  mag=     8.0000
       N       E                     dE             d eps       ncg     rms          ort
SDA:   1    -0.348519244010E+03   -0.63812E-01    0.00000E+00  7072   0.129E+00 0.000E+00
CGA:   2    -0.348521852276E+03   -0.26083E-02   -0.26159E-02  7072   0.229E-01-0.275E-03
CGA:   3    -0.348522717622E+03   -0.86535E-03   -0.86643E-03  7072   0.129E-01 0.164E-04
CGA:   4    -0.348523973636E+03   -0.12560E-02   -0.12548E-02  7072   0.140E-01 0.301E-04
CGA:   5    -0.348524595537E+03   -0.62190E-03   -0.62228E-03  7072   0.435E-02 0.184E-04
CGA:   6    -0.348524860935E+03   -0.26540E-03   -0.26542E-03  7072   0.282E-02-0.390E-05
CGA:   7    -0.348525069032E+03   -0.20810E-03   -0.20855E-03  7072   0.187E-02-0.251E-04
CGA:   8    -0.348525144877E+03   -0.75844E-04   -0.75699E-04  7072   0.171E-02-0.985E-05
CGA:   9    -0.348525214870E+03   -0.69993E-04   -0.69833E-04  7072   0.441E-03-0.102E-04
CGA:  10    -0.348525245205E+03   -0.30335E-04   -0.30342E-04  7072   0.157E-03-0.673E-06
CGA:  11    -0.348525255685E+03   -0.10480E-04   -0.10472E-04  7072   0.211E-03 0.846E-06
CGA:  12    -0.348525268786E+03   -0.13101E-04   -0.13094E-04  7072   0.146E-03 0.170E-05
CGA:  13    -0.348525272968E+03   -0.41818E-05   -0.41895E-05  7072   0.481E-04 0.341E-06
   2 F= -.34852527E+03 E0= -.34850847E+03  d E =-.698358E-01  mag=     8.0000
       N       E                     dE             d eps       ncg     rms          ort
SDA:   1    -0.347794403613E+03    0.73087E+00    0.00000E+00  7072   0.708E+01 0.000E+00
CGA:   2    -0.348720702347E+03   -0.92630E+00   -0.90575E+00  7072   0.192E+02 0.319E+00
CGA:   3    -0.349346462829E+03   -0.62576E+00   -0.60919E+00  7072   0.486E+01 0.102E+00
CGA:   4    -0.349549376833E+03   -0.20291E+00   -0.20410E+00  7072   0.252E+01-0.484E-02
CGA:   5    -0.349753385558E+03   -0.20401E+00   -0.21373E+00  7072   0.326E+01-0.311E+00
CGA:   6    -0.349845730919E+03   -0.92345E-01   -0.92154E-01  7072   0.139E+01-0.222E-02
CGA:   7    -0.349916702811E+03   -0.70972E-01   -0.71352E-01  7072   0.641E+00 0.241E-01
CGA:   8    -0.349940723256E+03   -0.24020E-01   -0.23269E-01  7072   0.204E+00 0.378E-02
CGA:   9    -0.349960342811E+03   -0.19620E-01   -0.19721E-01  7072   0.184E+00-0.227E-02
CGA:  10    -0.349970772266E+03   -0.10429E-01   -0.10429E-01  7072   0.143E+00-0.480E-03
CGA:  11    -0.349974951341E+03   -0.41791E-02   -0.42186E-02  7072   0.597E-01-0.644E-03
CGA:  12    -0.349978018152E+03   -0.30668E-02   -0.30650E-02  7072   0.271E-01-0.141E-03
CGA:  13    -0.349981952505E+03   -0.39344E-02   -0.39288E-02  7072   0.333E-01 0.701E-04
CGA:  14    -0.349983884239E+03   -0.19317E-02   -0.19320E-02  7072   0.250E-01 0.474E-04
CGA:  15    -0.349984869850E+03   -0.98561E-03   -0.98750E-03  7072   0.148E-01 0.306E-05
CGA:  16    -0.349985565015E+03   -0.69516E-03   -0.69542E-03  7072   0.148E-01 0.101E-04
CGA:  17    -0.349986663557E+03   -0.10985E-02   -0.10979E-02  7072   0.159E-01 0.354E-04
CGA:  18    -0.349987697823E+03   -0.10343E-02   -0.10342E-02  7072   0.393E-02 0.789E-05
CGA:  19    -0.349988032136E+03   -0.33431E-03   -0.33387E-03  7072   0.622E-02 0.168E-04
CGA:  20    -0.349988386167E+03   -0.35403E-03   -0.35408E-03  7072   0.751E-02 0.110E-04
CGA:  21    -0.349988666278E+03   -0.28011E-03   -0.28033E-03  7072   0.256E-02 0.107E-04
CGA:  22    -0.349988883838E+03   -0.21756E-03   -0.21730E-03  7072   0.155E-02 0.106E-04
CGA:  23    -0.349988951266E+03   -0.67428E-04   -0.67444E-04  7072   0.102E-02 0.453E-05
CGA:  24    -0.349989068819E+03   -0.11755E-03   -0.11703E-03  7072   0.125E-02 0.968E-05
CGA:  25    -0.349989107281E+03   -0.38462E-04   -0.38609E-04  7072   0.661E-03 0.346E-05
CGA:  26    -0.349989142669E+03   -0.35389E-04   -0.35412E-04  7072   0.356E-03 0.301E-05
CGA:  27    -0.349989167761E+03   -0.25091E-04   -0.25074E-04  7072   0.226E-03 0.174E-05
CGA:  28    -0.349989193458E+03   -0.25697E-04   -0.25648E-04  7072   0.426E-03 0.945E-06
CGA:  29    -0.349989206699E+03   -0.13241E-04   -0.13251E-04  7072   0.130E-03 0.341E-06
CGA:  30    -0.349989212178E+03   -0.54787E-05   -0.54619E-05  7072   0.880E-04-0.819E-06
   3 F= -.34998921E+03 E0= -.34997227E+03  d E =-.146394E+01  mag=     8.0000
       N       E                     dE             d eps       ncg     rms          ort
SDA:   1    -0.341857026672E+03    0.81322E+01    0.00000E+00  7072   0.497E+02 0.000E+00
CGA:   2    -0.343977617571E+03   -0.21206E+01   -0.23341E+01  7072   0.645E+02 0.217E+01
CGA:   3    -0.347539089065E+03   -0.35615E+01   -0.33199E+01  7072   0.453E+02-0.426E+01
CGA:   4    -0.349622839664E+03   -0.20838E+01   -0.20964E+01  7072   0.237E+02 0.332E+00
CGA:   5    -0.350303231286E+03   -0.68039E+00   -0.44399E+00  7072   0.509E+01 0.106E+02
CGA:   6    -0.350566705745E+03   -0.26347E+00   -0.22126E+00  7072   0.879E+01 0.596E+00
CGA:   7    -0.350775520373E+03   -0.20881E+00   -0.21018E+00  7072   0.143E+02-0.161E+00
CGA:   8    -0.350970748948E+03   -0.19523E+00   -0.20901E+00  7072   0.160E+02-0.643E+00
CGA:   9    -0.351219502244E+03   -0.24875E+00   -0.28274E+00  7072   0.194E+02-0.133E+01
CGA:  10    -0.351424779453E+03   -0.20528E+00   -0.20212E+00  7072   0.708E+01 0.217E+00
CGA:  11    -0.351489009047E+03   -0.64230E-01   -0.61146E-01  7072   0.249E+01 0.291E+00
CGA:  12    -0.351522688400E+03   -0.33679E-01   -0.32115E-01  7072   0.215E+01 0.111E+00
CGA:  13    -0.351558639358E+03   -0.35951E-01   -0.35115E-01  7072   0.238E+01 0.504E-01
CGA:  14    -0.351595899199E+03   -0.37260E-01   -0.40024E-01  7072   0.245E+01-0.110E+00
CGA:  15    -0.351633243123E+03   -0.37344E-01   -0.40424E-01  7072   0.233E+01-0.108E+00
CGA:  16    -0.351669798777E+03   -0.36556E-01   -0.37944E-01  7072   0.186E+01-0.514E-01
CGA:  17    -0.351703112191E+03   -0.33313E-01   -0.33020E-01  7072   0.169E+01 0.826E-02
CGA:  18    -0.351731320129E+03   -0.28208E-01   -0.28410E-01  7072   0.106E+01-0.921E-02
CGA:  19    -0.351746310648E+03   -0.14991E-01   -0.15141E-01  7072   0.563E+00-0.751E-02
CGA:  20    -0.351755981165E+03   -0.96705E-02   -0.96902E-02  7072   0.440E+00-0.615E-03
CGA:  21    -0.351764261092E+03   -0.82799E-02   -0.83378E-02  7072   0.390E+00-0.114E-02
CGA:  22    -0.351774489316E+03   -0.10228E-01   -0.10248E-01  7072   0.695E+00 0.373E-03
CGA:  23    -0.351796166038E+03   -0.21677E-01   -0.21699E-01  7072   0.920E+00 0.257E-02
CGA:  24    -0.351810132749E+03   -0.13967E-01   -0.14384E-01  7072   0.348E+00-0.148E-01
CGA:  25    -0.351816489377E+03   -0.63566E-02   -0.64389E-02  7072   0.265E+00-0.147E-02
CGA:  26    -0.351822483909E+03   -0.59945E-02   -0.60051E-02  7072   0.174E+00 0.714E-04
CGA:  27    -0.351825745248E+03   -0.32613E-02   -0.32557E-02  7072   0.126E+00 0.771E-04
CGA:  28    -0.351829873433E+03   -0.41282E-02   -0.41276E-02  7072   0.200E+00 0.275E-03
CGA:  29    -0.351834757840E+03   -0.48844E-02   -0.48960E-02  7072   0.159E+00 0.360E-03
CGA:  30    -0.351838405593E+03   -0.36478E-02   -0.36448E-02  7072   0.129E+00-0.232E-04
CGA:  31    -0.351841216923E+03   -0.28113E-02   -0.28045E-02  7072   0.841E-01-0.522E-04
SDA:  32    -0.351842905913E+03   -0.16890E-02   -0.16806E-02  7072   0.516E-01 0.142E-04
CGA:  33    -0.351844586567E+03   -0.16807E-02   -0.16794E-02  7072   0.370E-01 0.266E-03
CGA:  34    -0.351847498755E+03   -0.29122E-02   -0.29129E-02  7072   0.560E-01-0.182E-04
CGA:  35    -0.351849724498E+03   -0.22257E-02   -0.22253E-02  7072   0.247E-01 0.553E-04
CGA:  36    -0.351851669119E+03   -0.19446E-02   -0.19397E-02  7072   0.837E-02 0.108E-03
CGA:  37    -0.351852291453E+03   -0.62233E-03   -0.62249E-03  7072   0.162E-01-0.402E-05
CGA:  38    -0.351852988392E+03   -0.69694E-03   -0.69749E-03  7072   0.105E-01-0.586E-04
CGA:  39    -0.351853618409E+03   -0.63002E-03   -0.62930E-03  7072   0.583E-02 0.288E-04
CGA:  40    -0.351854010394E+03   -0.39199E-03   -0.39097E-03  7072   0.196E-02 0.332E-04
CGA:  41    -0.351854149918E+03   -0.13952E-03   -0.13939E-03  7072   0.310E-02 0.419E-05
CGA:  42    -0.351854333732E+03   -0.18381E-03   -0.18381E-03  7072   0.376E-02-0.117E-06
CGA:  43    -0.351854540470E+03   -0.20674E-03   -0.20661E-03  7072   0.395E-02 0.792E-05
CGA:  44    -0.351854750586E+03   -0.21012E-03   -0.21006E-03  7072   0.135E-02 0.500E-05
CGA:  45    -0.351854844875E+03   -0.94288E-04   -0.94263E-04  7072   0.869E-03 0.751E-06
CGA:  46    -0.351854994639E+03   -0.14976E-03   -0.15051E-03  7072   0.207E-02-0.597E-05
CGA:  47    -0.351855067493E+03   -0.72854E-04   -0.72852E-04  7072   0.152E-02-0.983E-06
CGA:  48    -0.351855144849E+03   -0.77356E-04   -0.77357E-04  7072   0.497E-03-0.142E-05
CGA:  49    -0.351855171072E+03   -0.26224E-04   -0.26221E-04  7072   0.342E-03 0.610E-06
CGA:  50    -0.351855210556E+03   -0.39484E-04   -0.39643E-04  7072   0.637E-03-0.252E-05
CGA:  51    -0.351855241031E+03   -0.30475E-04   -0.30467E-04  7072   0.913E-04-0.194E-05
CGA:  52    -0.351855256207E+03   -0.15176E-04   -0.15051E-04  7072   0.169E-03 0.106E-05
CGA:  53    -0.351855267779E+03   -0.11571E-04   -0.11555E-04  7072   0.199E-03 0.182E-05
CGA:  54    -0.351855276247E+03   -0.84679E-05   -0.84945E-05  7072   0.167E-03 0.146E-05
   4 F= -.35185528E+03 E0= -.35183820E+03  d E =-.186606E+01  mag=     8.0000
       N       E                     dE             d eps       ncg     rms          ort
SDA:   1    -0.341624156188E+03    0.10231E+02    0.00000E+00  7072   0.674E+02 0.000E+00
CGA:   2    -0.343772863540E+03   -0.21487E+01   -0.24247E+01  7072   0.673E+02-0.608E+01
CGA:   3    -0.347350119228E+03   -0.35773E+01   -0.36813E+01  7072   0.772E+02-0.181E+02
CGA:   4    -0.350287177963E+03   -0.29371E+01   -0.29130E+01  7072   0.326E+02-0.112E+01
CGA:   5    -0.351291382089E+03   -0.10042E+01   -0.90449E+00  7072   0.875E+01 0.259E+01
CGA:   6    -0.351586926504E+03   -0.29554E+00   -0.28972E+00  7072   0.833E+01-0.836E-02
CGA:   7    -0.352032929078E+03   -0.44600E+00   -0.44594E+00  7072   0.171E+02-0.627E-01
CGA:   8    -0.352452042165E+03   -0.41911E+00   -0.43424E+00  7072   0.436E+01-0.461E+00
CGA:   9    -0.352572993495E+03   -0.12095E+00   -0.12235E+00  7072   0.126E+01-0.204E-01
CGA:  10    -0.352651520593E+03   -0.78527E-01   -0.77489E-01  7072   0.183E+01 0.670E-01
CGA:  11    -0.352706496019E+03   -0.54975E-01   -0.55254E-01  7072   0.144E+01 0.941E-03
CGA:  12    -0.352766086984E+03   -0.59591E-01   -0.60764E-01  7072   0.988E+00 0.414E-01
CGA:  13    -0.352806298609E+03   -0.40212E-01   -0.39741E-01  7072   0.541E+00-0.842E-02
CGA:  14    -0.352823593053E+03   -0.17294E-01   -0.18195E-01  7072   0.195E+00 0.330E-02
CGA:  15    -0.352834262019E+03   -0.10669E-01   -0.10655E-01  7072   0.370E+00 0.151E-02
CGA:  16    -0.352855140039E+03   -0.20878E-01   -0.20594E-01  7072   0.144E+00 0.280E-01
CGA:  17    -0.352861206460E+03   -0.60664E-02   -0.60963E-02  7072   0.772E-01 0.682E-03
CGA:  18    -0.352864805413E+03   -0.35990E-02   -0.35940E-02  7072   0.968E-01-0.861E-03
CGA:  19    -0.352868702482E+03   -0.38971E-02   -0.39337E-02  7072   0.360E-01 0.153E-02
CGA:  20    -0.352871729339E+03   -0.30269E-02   -0.29971E-02  7072   0.589E-01 0.803E-03
CGA:  21    -0.352873707136E+03   -0.19778E-02   -0.19802E-02  7072   0.352E-01 0.246E-04
CGA:  22    -0.352875211100E+03   -0.15040E-02   -0.15062E-02  7072   0.123E-01 0.130E-03
CGA:  23    -0.352876140706E+03   -0.92961E-03   -0.92442E-03  7072   0.196E-01 0.172E-03
CGA:  24    -0.352876904161E+03   -0.76346E-03   -0.76431E-03  7072   0.148E-01 0.274E-04
CGA:  25    -0.352877720312E+03   -0.81615E-03   -0.81524E-03  7072   0.113E-01 0.114E-03
CGA:  26    -0.352878255275E+03   -0.53496E-03   -0.53506E-03  7072   0.475E-02 0.299E-04
CGA:  27    -0.352878530313E+03   -0.27504E-03   -0.27489E-03  7072   0.755E-02 0.148E-04
CGA:  28    -0.352878911368E+03   -0.38106E-03   -0.38105E-03  7072   0.667E-02 0.289E-04
CGA:  29    -0.352879307136E+03   -0.39577E-03   -0.39558E-03  7072   0.366E-02 0.180E-04
CGA:  30    -0.352879539154E+03   -0.23202E-03   -0.23165E-03  7072   0.289E-02 0.245E-04
CGA:  31    -0.352879643305E+03   -0.10415E-03   -0.10424E-03  7072   0.266E-02 0.527E-05
SDA:  32    -0.352879859390E+03   -0.21608E-03   -0.21643E-03  7072   0.143E-02-0.101E-04
CGA:  33    -0.352879956635E+03   -0.97244E-04   -0.97256E-04  7072   0.854E-03-0.109E-05
CGA:  34    -0.352880004325E+03   -0.47691E-04   -0.47692E-04  7072   0.774E-03-0.681E-06
CGA:  35    -0.352880059196E+03   -0.54870E-04   -0.54932E-04  7072   0.127E-02-0.348E-05
CGA:  36    -0.352880116969E+03   -0.57773E-04   -0.57745E-04  7072   0.785E-03-0.330E-05
CGA:  37    -0.352880154059E+03   -0.37091E-04   -0.37062E-04  7072   0.349E-03-0.396E-05
CGA:  38    -0.352880181012E+03   -0.26952E-04   -0.27003E-04  7072   0.189E-03-0.220E-05
CGA:  39    -0.352880218057E+03   -0.37045E-04   -0.38069E-04  7072   0.417E-03-0.698E-05
CGA:  40    -0.352880246451E+03   -0.28395E-04   -0.28412E-04  7072   0.168E-03-0.206E-05
CGA:  41    -0.352880257543E+03   -0.11092E-04   -0.11091E-04  7072   0.192E-03 0.320E-06
CGA:  42    -0.352880266645E+03   -0.91021E-05   -0.91073E-05  7072   0.232E-03 0.354E-06
CGA:  43    -0.352880284880E+03   -0.18235E-04   -0.18255E-04  7072   0.206E-03-0.127E-05
CGA:  44    -0.352880293424E+03   -0.85440E-05   -0.85253E-05  7072   0.717E-04-0.924E-06
   5 F= -.35288029E+03 E0= -.35286336E+03  d E =-.102502E+01  mag=     8.0000
       N       E                     dE             d eps       ncg     rms          ort
SDA:   1    -0.330612109996E+03    0.22268E+02    0.00000E+00  7072   0.117E+03 0.000E+00
CGA:   2    -0.335708892711E+03   -0.50968E+01   -0.40057E+01  7072   0.997E+02-0.553E+01
CGA:   3    -0.342504832129E+03   -0.67959E+01   -0.77250E+01  7072   0.155E+03-0.404E+02
CGA:   4    -0.347019437197E+03   -0.45146E+01   -0.42669E+01  7072   0.886E+02 0.265E+01
CGA:   5    -0.348929256095E+03   -0.19098E+01   -0.20831E+01  7072   0.106E+03-0.795E+01
CGA:   6    -0.349396650504E+03   -0.46739E+00   -0.19025E+01  7072   0.441E+02-0.508E+02
CGA:   7    -0.350028307871E+03   -0.63166E+00   -0.60972E+00  7072   0.301E+02 0.450E+00
CGA:   8    -0.350955128004E+03   -0.92682E+00   -0.76079E+00  7072   0.358E+02 0.346E+01
CGA:   9    -0.351624727112E+03   -0.66960E+00   -0.79809E+00  7072   0.208E+02-0.513E+01
CGA:  10    -0.351850588501E+03   -0.22586E+00   -0.20756E+00  7072   0.156E+02 0.122E+01
CGA:  11    -0.352152300593E+03   -0.30171E+00   -0.30602E+00  7072   0.161E+02-0.332E+00
CGA:  12    -0.352359709957E+03   -0.20741E+00   -0.19755E+00  7072   0.154E+02 0.473E+00
CGA:  13    -0.352606022652E+03   -0.24631E+00   -0.25478E+00  7072   0.138E+02-0.701E+00
CGA:  14    -0.352724672326E+03   -0.11865E+00   -0.12532E+00  7072   0.789E+01-0.779E+00
CGA:  15    -0.352815279352E+03   -0.90607E-01   -0.10257E+00  7072   0.846E+01-0.718E+00
CGA:  16    -0.352922976414E+03   -0.10770E+00   -0.13004E+00  7072   0.112E+02-0.952E+00
CGA:  17    -0.353088374888E+03   -0.16540E+00   -0.17540E+00  7072   0.718E+01-0.377E+00
CGA:  18    -0.353172250638E+03   -0.83876E-01   -0.90658E-01  7072   0.444E+01-0.441E+00
CGA:  19    -0.353244283536E+03   -0.72033E-01   -0.74346E-01  7072   0.421E+01-0.696E-01
CGA:  20    -0.353329250500E+03   -0.84967E-01   -0.87039E-01  7072   0.405E+01-0.194E-01
CGA:  21    -0.353396110408E+03   -0.66860E-01   -0.68442E-01  7072   0.241E+01-0.591E-01
CGA:  22    -0.353439706203E+03   -0.43596E-01   -0.46914E-01  7072   0.201E+01-0.589E-01
CGA:  23    -0.353506881022E+03   -0.67175E-01   -0.67385E-01  7072   0.214E+01 0.175E+00
CGA:  24    -0.353574355787E+03   -0.67475E-01   -0.68150E-01  7072   0.750E+00 0.383E-01
CGA:  25    -0.353601419970E+03   -0.27064E-01   -0.27059E-01  7072   0.518E+00 0.304E-02
CGA:  26    -0.353624499328E+03   -0.23079E-01   -0.23112E-01  7072   0.449E+00-0.250E-02
CGA:  27    -0.353644197717E+03   -0.19698E-01   -0.19593E-01  7072   0.364E+00 0.826E-02
CGA:  28    -0.353660049584E+03   -0.15852E-01   -0.15791E-01  7072   0.265E+00 0.570E-02
CGA:  29    -0.353671599506E+03   -0.11550E-01   -0.11515E-01  7072   0.161E+00 0.331E-02
CGA:  30    -0.353677951524E+03   -0.63520E-02   -0.63468E-02  7072   0.817E-01 0.113E-02
CGA:  31    -0.353682468666E+03   -0.45171E-02   -0.45035E-02  7072   0.923E-01 0.623E-03
SDA:  32    -0.353687637274E+03   -0.51686E-02   -0.51726E-02  7072   0.677E-01-0.175E-03
CGA:  33    -0.353690229974E+03   -0.25927E-02   -0.25927E-02  7072   0.218E-01 0.375E-05
CGA:  34    -0.353691424201E+03   -0.11942E-02   -0.11942E-02  7072   0.306E-01 0.983E-05
CGA:  35    -0.353693777149E+03   -0.23529E-02   -0.23540E-02  7072   0.402E-01-0.217E-04
CGA:  36    -0.353696566864E+03   -0.27897E-02   -0.28027E-02  7072   0.101E-01-0.411E-03
CGA:  37    -0.353696938697E+03   -0.37183E-03   -0.37213E-03  7072   0.433E-02 0.206E-04
CGA:  38    -0.353697908619E+03   -0.96992E-03   -0.83979E-05  7072   0.276E-01-0.774E-03
CGA:  39    -0.353698581077E+03   -0.67246E-03   -0.65944E-03  7072   0.110E-01 0.297E-03
CGA:  40    -0.353699052166E+03   -0.47109E-03   -0.47124E-03  7072   0.812E-02-0.463E-05
CGA:  41    -0.353699275576E+03   -0.22341E-03   -0.22304E-03  7072   0.438E-02 0.747E-05
CGA:  42    -0.353699524804E+03   -0.24923E-03   -0.24937E-03  7072   0.476E-02 0.550E-05
CGA:  43    -0.353699722383E+03   -0.19758E-03   -0.19710E-03  7072   0.684E-02 0.139E-04
CGA:  44    -0.353700152339E+03   -0.42996E-03   -0.43006E-03  7072   0.401E-02 0.202E-04
CGA:  45    -0.353700239858E+03   -0.87519E-04   -0.87719E-04  7072   0.168E-02 0.181E-05
CGA:  46    -0.353700337346E+03   -0.97488E-04   -0.97540E-04  7072   0.210E-02 0.329E-05
CGA:  47    -0.353700438211E+03   -0.10087E-03   -0.10089E-03  7072   0.328E-02 0.333E-06
CGA:  48    -0.353700583342E+03   -0.14513E-03   -0.14494E-03  7072   0.201E-02-0.287E-05
CGA:  49    -0.353700668967E+03   -0.85626E-04   -0.85589E-04  7072   0.230E-02-0.162E-05
CGA:  50    -0.353700742424E+03   -0.73457E-04   -0.73211E-04  7072   0.855E-03 0.394E-05
CGA:  51    -0.353700776574E+03   -0.34150E-04   -0.34157E-04  7072   0.824E-03 0.160E-06
CGA:  52    -0.353700810473E+03   -0.33899E-04   -0.33881E-04  7072   0.850E-03 0.905E-07
CGA:  53    -0.353700850892E+03   -0.40419E-04   -0.40462E-04  7072   0.683E-03 0.299E-05
CGA:  54    -0.353700879517E+03   -0.28625E-04   -0.28702E-04  7072   0.795E-03 0.441E-05
CGA:  55    -0.353700905906E+03   -0.26390E-04   -0.26465E-04  7072   0.165E-03 0.440E-05
CGA:  56    -0.353700911863E+03   -0.59571E-05   -0.59559E-05  7072   0.217E-03-0.194E-06
CGA:  57    -0.353700925570E+03   -0.13706E-04   -0.13710E-04  7072   0.201E-03-0.715E-06
CGA:  58    -0.353700935330E+03   -0.97603E-05   -0.97607E-05  7072   0.356E-03 0.267E-08
CGA:  59    -0.353700951123E+03   -0.15793E-04   -0.15795E-04  7072   0.158E-03 0.165E-06
CGA:  60    -0.353700956312E+03   -0.51895E-05   -0.51940E-05  7072   0.107E-03 0.211E-07
   6 F= -.35370096E+03 E0= -.35368446E+03  d E =-.820663E+00  mag=     8.0000
       N       E                     dE             d eps       ncg     rms          ort
SDA:   1    -0.332938208802E+03    0.20763E+02    0.00000E+00  7072   0.114E+03 0.000E+00
CGA:   2    -0.337179433704E+03   -0.42412E+01   -0.40718E+01  7072   0.102E+03-0.110E+02
CGA:   3    -0.342872334560E+03   -0.56929E+01   -0.70560E+01  7072   0.195E+03-0.490E+02
CGA:   4    -0.348499093496E+03   -0.56268E+01   -0.57125E+01  7072   0.599E+02-0.177E+02
CGA:   5    -0.349264772179E+03   -0.76568E+00   -0.79652E+00  7072   0.483E+02-0.272E+01
CGA:   6    -0.350451358860E+03   -0.11866E+01   -0.13402E+01  7072   0.393E+02-0.419E+01
CGA:   7    -0.350935448364E+03   -0.48409E+00   -0.46743E+00  7072   0.252E+02 0.998E+00
CGA:   8    -0.351947165719E+03   -0.10117E+01   -0.99373E+00  7072   0.473E+02-0.445E+00
CGA:   9    -0.352468170975E+03   -0.52101E+00   -0.48263E+00  7072   0.182E+02 0.291E+01
CGA:  10    -0.352661241837E+03   -0.19307E+00   -0.14522E+00  7072   0.121E+02 0.585E+01
CGA:  11    -0.352866938960E+03   -0.20570E+00   -0.18047E+00  7072   0.122E+02 0.183E+01
CGA:  12    -0.352990588465E+03   -0.12365E+00   -0.10670E+00  7072   0.787E+01 0.195E+01
CGA:  13    -0.353062392432E+03   -0.71804E-01   -0.63579E-01  7072   0.697E+01 0.108E+01
CGA:  14    -0.353151794887E+03   -0.89402E-01   -0.86976E-01  7072   0.120E+02 0.201E+00
CGA:  15    -0.353256786766E+03   -0.10499E+00   -0.10170E+00  7072   0.119E+02 0.136E+00
CGA:  16    -0.353321634186E+03   -0.64847E-01   -0.74859E-01  7072   0.855E+01-0.193E+01
CGA:  17    -0.353361015598E+03   -0.39381E-01   -0.46562E-01  7072   0.104E+02-0.117E+01
CGA:  18    -0.353415108062E+03   -0.54092E-01   -0.75594E-01  7072   0.147E+02-0.234E+01
CGA:  19    -0.353473179662E+03   -0.58072E-01   -0.68340E-01  7072   0.138E+02-0.163E+01
CGA:  20    -0.353540764453E+03   -0.67585E-01   -0.75533E-01  7072   0.135E+02-0.117E+01
CGA:  21    -0.353614686537E+03   -0.73922E-01   -0.70791E-01  7072   0.121E+02 0.478E+00
CGA:  22    -0.353677860839E+03   -0.63174E-01   -0.69626E-01  7072   0.709E+01-0.102E+01
CGA:  23    -0.353705468765E+03   -0.27608E-01   -0.39020E-01  7072   0.366E+01-0.155E+01
CGA:  24    -0.353721463071E+03   -0.15994E-01   -0.22275E-01  7072   0.288E+01-0.602E+00
CGA:  25    -0.353746698997E+03   -0.25236E-01   -0.28913E-01  7072   0.255E+01-0.143E+00
CGA:  26    -0.353774057902E+03   -0.27359E-01   -0.28280E-01  7072   0.175E+01-0.384E-01
CGA:  27    -0.353805166221E+03   -0.31108E-01   -0.31589E-01  7072   0.254E+01 0.189E-01
CGA:  28    -0.353861967919E+03   -0.56802E-01   -0.57000E-01  7072   0.308E+01 0.664E-01
CGA:  29    -0.353918420376E+03   -0.56452E-01   -0.58464E-01  7072   0.174E+01 0.107E+00
CGA:  30    -0.353956862058E+03   -0.38442E-01   -0.38658E-01  7072   0.119E+01 0.520E-01
CGA:  31    -0.353992785047E+03   -0.35923E-01   -0.35847E-01  7072   0.714E+00 0.826E-02
SDA:  32    -0.354009238078E+03   -0.16453E-01   -0.16448E-01  7072   0.441E+00-0.387E-02
CGA:  33    -0.354027327236E+03   -0.18089E-01   -0.17907E-01  7072   0.240E+00 0.971E-02
CGA:  34    -0.354046413028E+03   -0.19086E-01   -0.19302E-01  7072   0.472E+00-0.464E-02
CGA:  35    -0.354072477715E+03   -0.26065E-01   -0.25997E-01  7072   0.160E+00 0.228E-02
CGA:  36    -0.354082509425E+03   -0.10032E-01   -0.98504E-02  7072   0.817E-01 0.564E-02
CGA:  37    -0.354086671966E+03   -0.41625E-02   -0.41606E-02  7072   0.471E-01 0.869E-04
CGA:  38    -0.354090400505E+03   -0.37285E-02   -0.37116E-02  7072   0.781E-01 0.394E-03
CGA:  39    -0.354093789938E+03   -0.33894E-02   -0.33928E-02  7072   0.291E-01-0.252E-03
CGA:  40    -0.354095635222E+03   -0.18453E-02   -0.18482E-02  7072   0.124E-01-0.941E-04
CGA:  41    -0.354096592094E+03   -0.95687E-03   -0.96190E-03  7072   0.121E-01-0.127E-03
CGA:  42    -0.354097835324E+03   -0.12432E-02   -0.12487E-02  7072   0.115E-01-0.936E-04
CGA:  43    -0.354098620486E+03   -0.78516E-03   -0.78397E-03  7072   0.129E-01 0.400E-04
CGA:  44    -0.354099143689E+03   -0.52320E-03   -0.52308E-03  7072   0.583E-02-0.299E-04
CGA:  45    -0.354099413329E+03   -0.26964E-03   -0.26957E-03  7072   0.386E-02 0.930E-05
CGA:  46    -0.354100149969E+03   -0.73664E-03   -0.73865E-03  7072   0.793E-02-0.118E-04
CGA:  47    -0.354100560911E+03   -0.41094E-03   -0.41093E-03  7072   0.223E-02-0.174E-05
CGA:  48    -0.354100702801E+03   -0.14189E-03   -0.14165E-03  7072   0.184E-02 0.147E-04
CGA:  49    -0.354100788153E+03   -0.85352E-04   -0.85392E-04  7072   0.217E-02 0.104E-04
CGA:  50    -0.354101055231E+03   -0.26708E-03   -0.26577E-03  7072   0.278E-02 0.165E-04
CGA:  51    -0.354101171123E+03   -0.11589E-03   -0.11610E-03  7072   0.583E-03 0.125E-04
CGA:  52    -0.354101256134E+03   -0.85011E-04   -0.85571E-04  7072   0.152E-02-0.641E-05
CGA:  53    -0.354101328657E+03   -0.72523E-04   -0.72413E-04  7072   0.120E-02-0.647E-05
CGA:  54    -0.354101381918E+03   -0.53261E-04   -0.53190E-04  7072   0.614E-03-0.475E-05
CGA:  55    -0.354101415509E+03   -0.33590E-04   -0.33589E-04  7072   0.198E-03-0.134E-05
CGA:  56    -0.354101441327E+03   -0.25818E-04   -0.25631E-04  7072   0.456E-03 0.241E-05
CGA:  57    -0.354101471230E+03   -0.29903E-04   -0.29881E-04  7072   0.257E-03 0.498E-05
CGA:  58    -0.354101479863E+03   -0.86328E-05   -0.86681E-05  7072   0.148E-03 0.142E-05
   7 F= -.35410148E+03 E0= -.35408518E+03  d E =-.400524E+00  mag=     8.0000
       N       E                     dE             d eps       ncg     rms          ort
SDA:   1    -0.331842474081E+03    0.22259E+02    0.00000E+00  7072   0.702E+02 0.000E+00
CGA:   2    -0.338108818292E+03   -0.62663E+01   -0.60501E+01  7072   0.146E+03 0.748E+01
CGA:   3    -0.346588693494E+03   -0.84799E+01   -0.73429E+01  7072   0.908E+02-0.471E+01
CGA:   4    -0.350282426868E+03   -0.36937E+01   -0.32866E+01  7072   0.321E+02 0.109E+01
CGA:   5    -0.351373766681E+03   -0.10913E+01   -0.10733E+01  7072   0.335E+02 0.124E+01
CGA:   6    -0.352224997389E+03   -0.85123E+00   -0.75526E+00  7072   0.257E+02 0.246E+01
CGA:   7    -0.353189461132E+03   -0.96446E+00   -0.91992E+00  7072   0.197E+02 0.991E+00
CGA:   8    -0.353568893532E+03   -0.37943E+00   -0.44085E+00  7072   0.141E+02-0.197E+01
CGA:   9    -0.353962346391E+03   -0.39345E+00   -0.38422E+00  7072   0.308E+01 0.116E+00
CGA:  10    -0.354027941972E+03   -0.65596E-01   -0.65169E-01  7072   0.260E+01 0.761E-02
CGA:  11    -0.354109466123E+03   -0.81524E-01   -0.84298E-01  7072   0.180E+01-0.103E-01
CGA:  12    -0.354198819522E+03   -0.89353E-01   -0.89259E-01  7072   0.289E+01 0.114E+00
CGA:  13    -0.354264075449E+03   -0.65256E-01   -0.66915E-01  7072   0.682E+00-0.487E-01
CGA:  14    -0.354286496977E+03   -0.22422E-01   -0.22716E-01  7072   0.280E+00 0.254E-02
CGA:  15    -0.354302066655E+03   -0.15570E-01   -0.15361E-01  7072   0.318E+00 0.179E-01
CGA:  16    -0.354314841989E+03   -0.12775E-01   -0.12747E-01  7072   0.331E+00-0.631E-03
CGA:  17    -0.354328573855E+03   -0.13732E-01   -0.13841E-01  7072   0.103E+00 0.799E-02
CGA:  18    -0.354333460773E+03   -0.48869E-02   -0.48895E-02  7072   0.820E-01 0.362E-02
CGA:  19    -0.354336053046E+03   -0.25923E-02   -0.25934E-02  7072   0.529E-01-0.100E-05
CGA:  20    -0.354340806868E+03   -0.47538E-02   -0.46739E-02  7072   0.526E-01 0.175E-02
CGA:  21    -0.354343306426E+03   -0.24996E-02   -0.25064E-02  7072   0.348E-01 0.156E-02
CGA:  22    -0.354344438503E+03   -0.11321E-02   -0.11317E-02  7072   0.174E-01 0.416E-05
CGA:  23    -0.354345849429E+03   -0.14109E-02   -0.14006E-02  7072   0.228E-01 0.278E-03
CGA:  24    -0.354347548107E+03   -0.16987E-02   -0.16787E-02  7072   0.132E-01 0.696E-03
CGA:  25    -0.354348200124E+03   -0.65202E-03   -0.65201E-03  7072   0.102E-01 0.335E-05
CGA:  26    -0.354348611236E+03   -0.41111E-03   -0.41213E-03  7072   0.810E-02 0.384E-04
CGA:  27    -0.354349362157E+03   -0.75092E-03   -0.74793E-03  7072   0.643E-02 0.685E-04
CGA:  28    -0.354349817935E+03   -0.45578E-03   -0.45569E-03  7072   0.430E-02 0.635E-05
CGA:  29    -0.354349992166E+03   -0.17423E-03   -0.17436E-03  7072   0.367E-02 0.725E-05
CGA:  30    -0.354350217323E+03   -0.22516E-03   -0.22511E-03  7072   0.351E-02 0.423E-05
CGA:  31    -0.354350468238E+03   -0.25091E-03   -0.25081E-03  7072   0.251E-02 0.560E-05
SDA:  32    -0.354350626157E+03   -0.15792E-03   -0.15784E-03  7072   0.138E-02 0.676E-05
CGA:  33    -0.354350667044E+03   -0.40887E-04   -0.40817E-04  7072   0.684E-03-0.778E-06
CGA:  34    -0.354350716634E+03   -0.49590E-04   -0.49585E-04  7072   0.123E-02-0.772E-08
CGA:  35    -0.354350843463E+03   -0.12683E-03   -0.12712E-03  7072   0.793E-03-0.593E-05
CGA:  36    -0.354350881906E+03   -0.38444E-04   -0.38443E-04  7072   0.425E-03 0.201E-06
CGA:  37    -0.354350924591E+03   -0.42684E-04   -0.42687E-04  7072   0.395E-03-0.147E-06
CGA:  38    -0.354350951833E+03   -0.27242E-04   -0.27257E-04  7072   0.639E-03-0.134E-05
CGA:  39    -0.354350976795E+03   -0.24963E-04   -0.24882E-04  7072   0.186E-03-0.267E-05
CGA:  40    -0.354350993395E+03   -0.16600E-04   -0.16610E-04  7072   0.170E-03-0.376E-06
CGA:  41    -0.354351008773E+03   -0.15378E-04   -0.15405E-04  7072   0.130E-03-0.889E-06
CGA:  42    -0.354351019945E+03   -0.11172E-04   -0.11193E-04  7072   0.224E-03-0.803E-06
CGA:  43    -0.354351027797E+03   -0.78518E-05   -0.78255E-05  7072   0.657E-04-0.822E-06
   8 F= -.35435103E+03 E0= -.35433480E+03  d E =-.249548E+00  mag=     8.0000
       N       E                     dE             d eps       ncg     rms          ort
SDA:   1    -0.306358104408E+03    0.47993E+02    0.00000E+00  7072   0.167E+03 0.000E+00
CGA:   2    -0.319655900641E+03   -0.13298E+02   -0.12511E+02  7072   0.267E+03 0.353E+02
CGA:   3    -0.336303911586E+03   -0.16648E+02   -0.10815E+02  7072   0.509E+02 0.124E+03
CGA:   4    -0.341327974123E+03   -0.50241E+01   -0.52053E+01  7072   0.281E+03-0.112E+02
CGA:   5    -0.343420276047E+03   -0.20923E+01   -0.28801E+01  7072   0.371E+03-0.479E+02
CGA:   6    -0.344255132124E+03   -0.83486E+00   -0.30681E+01  7072   0.419E+03-0.209E+03
CGA:   7    -0.348658782787E+03   -0.44037E+01   -0.80242E+01  7072   0.270E+03-0.171E+03
CGA:   8    -0.350687107722E+03   -0.20283E+01   -0.23487E+01  7072   0.762E+02-0.323E+02
CGA:   9    -0.351635399142E+03   -0.94829E+00   -0.11565E+01  7072   0.435E+02-0.491E+01
CGA:  10    -0.352234134102E+03   -0.59873E+00   -0.67899E+00  7072   0.254E+02-0.441E+01
CGA:  11    -0.352726889533E+03   -0.49276E+00   -0.48858E+00  7072   0.134E+02 0.119E+00
CGA:  12    -0.353181335946E+03   -0.45445E+00   -0.46145E+00  7072   0.184E+02 0.306E-01
CGA:  13    -0.353591571087E+03   -0.41024E+00   -0.45981E+00  7072   0.108E+02-0.824E+00
CGA:  14    -0.354001256628E+03   -0.40969E+00   -0.41296E+00  7072   0.369E+01 0.238E+00
CGA:  15    -0.354113515239E+03   -0.11226E+00   -0.11162E+00  7072   0.216E+01 0.100E-01
CGA:  16    -0.354203547940E+03   -0.90033E-01   -0.90200E-01  7072   0.243E+01 0.293E-01
CGA:  17    -0.354287148476E+03   -0.83601E-01   -0.86675E-01  7072   0.269E+01 0.892E-01
CGA:  18    -0.354441459053E+03   -0.15431E+00   -0.15202E+00  7072   0.665E+00 0.144E+00
CGA:  19    -0.354470277813E+03   -0.28819E-01   -0.28904E-01  7072   0.441E+00 0.126E-01
CGA:  20    -0.354489651429E+03   -0.19374E-01   -0.19376E-01  7072   0.376E+00 0.123E-02
CGA:  21    -0.354509520288E+03   -0.19869E-01   -0.19662E-01  7072   0.329E+00 0.165E-01
CGA:  22    -0.354524215693E+03   -0.14695E-01   -0.14704E-01  7072   0.142E+00 0.236E-02
CGA:  23    -0.354533110367E+03   -0.88947E-02   -0.88112E-02  7072   0.118E+00 0.378E-02
CGA:  24    -0.354539492943E+03   -0.63826E-02   -0.63717E-02  7072   0.148E+00 0.973E-03
CGA:  25    -0.354548547159E+03   -0.90542E-02   -0.89308E-02  7072   0.945E-01 0.634E-02
CGA:  26    -0.354555043309E+03   -0.64961E-02   -0.64761E-02  7072   0.515E-01 0.836E-03
CGA:  27    -0.354557447391E+03   -0.24041E-02   -0.24049E-02  7072   0.506E-01 0.459E-03
CGA:  28    -0.354561276784E+03   -0.38294E-02   -0.38149E-02  7072   0.496E-01 0.469E-03
CGA:  29    -0.354563743833E+03   -0.24670E-02   -0.24663E-02  7072   0.254E-01 0.566E-03
CGA:  30    -0.354564996268E+03   -0.12524E-02   -0.12524E-02  7072   0.936E-02 0.137E-04
CGA:  31    -0.354565717396E+03   -0.72113E-03   -0.72020E-03  7072   0.170E-01 0.303E-04
CGA:  32    -0.354566621829E+03   -0.90443E-03   -0.90447E-03  7072   0.101E-01-0.333E-05
CGA:  33    -0.354567229268E+03   -0.60744E-03   -0.60752E-03  7072   0.403E-02-0.226E-05
CGA:  34    -0.354567526276E+03   -0.29701E-03   -0.29730E-03  7072   0.579E-02-0.101E-04
CGA:  35    -0.354567839513E+03   -0.31324E-03   -0.31323E-03  7072   0.523E-02 0.204E-05
CGA:  36    -0.354568178952E+03   -0.33944E-03   -0.33970E-03  7072   0.269E-02-0.146E-04
SDA:  37    -0.354568339286E+03   -0.16033E-03   -0.16033E-03  7072   0.240E-02 0.127E-05
CGA:  38    -0.354568401458E+03   -0.62172E-04   -0.62020E-04  7072   0.817E-03 0.239E-05
CGA:  39    -0.354568486410E+03   -0.84953E-04   -0.84907E-04  7072   0.248E-02 0.765E-06
CGA:  40    -0.354568661710E+03   -0.17530E-03   -0.17542E-03  7072   0.894E-03-0.586E-05
CGA:  41    -0.354568716885E+03   -0.55175E-04   -0.55208E-04  7072   0.731E-03-0.415E-05
CGA:  42    -0.354568816440E+03   -0.99556E-04   -0.10042E-03  7072   0.792E-03-0.108E-04
CGA:  43    -0.354568850223E+03   -0.33783E-04   -0.33730E-04  7072   0.752E-03-0.198E-05
CGA:  44    -0.354568889694E+03   -0.39471E-04   -0.39480E-04  7072   0.338E-03 0.111E-05
CGA:  45    -0.354568923180E+03   -0.33486E-04   -0.33450E-04  7072   0.268E-03 0.891E-06
CGA:  46    -0.354568951286E+03   -0.28106E-04   -0.27924E-04  7072   0.312E-03 0.418E-05
CGA:  47    -0.354568970934E+03   -0.19648E-04   -0.19650E-04  7072   0.197E-03 0.485E-05
CGA:  48    -0.354568979921E+03   -0.89872E-05   -0.90229E-05  7072   0.116E-03 0.215E-05
   9 F= -.35456898E+03 E0= -.35455299E+03  d E =-.217952E+00  mag=     8.0000
       N       E                     dE             d eps       ncg     rms          ort
SDA:   1    -0.348723938023E+03    0.58450E+01    0.00000E+00  7072   0.302E+02 0.000E+00
CGA:   2    -0.349865513128E+03   -0.11416E+01   -0.12449E+01  7072   0.328E+02-0.314E+00
CGA:   3    -0.352368337687E+03   -0.25028E+01   -0.27366E+01  7072   0.366E+02-0.931E+01
CGA:   4    -0.353325660752E+03   -0.95732E+00   -0.10087E+01  7072   0.985E+01-0.357E+00
CGA:   5    -0.353679395441E+03   -0.35373E+00   -0.28330E+00  7072   0.591E+01 0.112E+01
CGA:   6    -0.354080560540E+03   -0.40117E+00   -0.40060E+00  7072   0.666E+01 0.175E+00
CGA:   7    -0.354445916618E+03   -0.36536E+00   -0.36469E+00  7072   0.198E+01-0.407E-01
CGA:   8    -0.354511382969E+03   -0.65466E-01   -0.69203E-01  7072   0.123E+01-0.297E-01
CGA:   9    -0.354554719855E+03   -0.43337E-01   -0.42562E-01  7072   0.104E+01 0.496E-02
CGA:  10    -0.354613155872E+03   -0.58436E-01   -0.58462E-01  7072   0.551E+00 0.192E-01
CGA:  11    -0.354646230666E+03   -0.33075E-01   -0.33108E-01  7072   0.223E+00-0.770E-02
CGA:  12    -0.354655618717E+03   -0.93881E-02   -0.96998E-02  7072   0.141E+00 0.550E-02
CGA:  13    -0.354666221729E+03   -0.10603E-01   -0.10734E-01  7072   0.220E+00-0.537E-02
CGA:  14    -0.354673914525E+03   -0.76928E-02   -0.80532E-02  7072   0.825E-01 0.100E-02
CGA:  15    -0.354677919180E+03   -0.40047E-02   -0.40068E-02  7072   0.418E-01 0.883E-04
CGA:  16    -0.354680276572E+03   -0.23574E-02   -0.23571E-02  7072   0.272E-01 0.201E-03
CGA:  17    -0.354682400074E+03   -0.21235E-02   -0.20719E-02  7072   0.387E-01 0.192E-02
CGA:  18    -0.354684197504E+03   -0.17974E-02   -0.17919E-02  7072   0.237E-01-0.849E-04
CGA:  19    -0.354685533740E+03   -0.13362E-02   -0.13360E-02  7072   0.958E-02 0.231E-03
CGA:  20    -0.354686274321E+03   -0.74058E-03   -0.74233E-03  7072   0.108E-01-0.679E-04
CGA:  21    -0.354686801607E+03   -0.52729E-03   -0.52850E-03  7072   0.102E-01 0.584E-04
CGA:  22    -0.354687642210E+03   -0.84060E-03   -0.83899E-03  7072   0.958E-02 0.541E-04
CGA:  23    -0.354688222957E+03   -0.58075E-03   -0.58054E-03  7072   0.440E-02 0.544E-04
CGA:  24    -0.354688429817E+03   -0.20686E-03   -0.20678E-03  7072   0.401E-02-0.172E-05
CGA:  25    -0.354688694842E+03   -0.26502E-03   -0.26485E-03  7072   0.325E-02 0.146E-04
CGA:  26    -0.354688989876E+03   -0.29503E-03   -0.29482E-03  7072   0.273E-02 0.673E-05
CGA:  27    -0.354689101541E+03   -0.11167E-03   -0.11180E-03  7072   0.156E-02 0.460E-05
CGA:  28    -0.354689185365E+03   -0.83824E-04   -0.83821E-04  7072   0.902E-03-0.202E-06
CGA:  29    -0.354689262629E+03   -0.77264E-04   -0.77156E-04  7072   0.150E-02 0.369E-05
CGA:  30    -0.354689353692E+03   -0.91063E-04   -0.91062E-04  7072   0.599E-03 0.165E-05
CGA:  31    -0.354689377203E+03   -0.23511E-04   -0.23566E-04  7072   0.379E-03 0.216E-05
SDA:  32    -0.354689407100E+03   -0.29897E-04   -0.29895E-04  7072   0.445E-03 0.126E-06
CGA:  33    -0.354689423683E+03   -0.16583E-04   -0.16554E-04  7072   0.253E-03-0.167E-05
CGA:  34    -0.354689435002E+03   -0.11319E-04   -0.11278E-04  7072   0.183E-03-0.279E-05
CGA:  35    -0.354689460413E+03   -0.25411E-04   -0.25647E-04  7072   0.295E-03-0.296E-05
CGA:  36    -0.354689472237E+03   -0.11824E-04   -0.11799E-04  7072   0.670E-04-0.940E-06
CGA:  37    -0.354689480598E+03   -0.83615E-05   -0.83538E-05  7072   0.126E-03 0.564E-07
CGA:  38    -0.354689491969E+03   -0.11371E-04   -0.11376E-04  7072   0.122E-03-0.227E-06
CGA:  39    -0.354689499146E+03   -0.71769E-05   -0.71712E-05  7072   0.141E-03-0.855E-06
  10 F= -.35468950E+03 E0= -.35467395E+03  d E =-.120519E+00  mag=     8.0000
       N       E                     dE             d eps       ncg     rms          ort
SDA:   1    -0.354449439431E+03    0.24005E+00    0.00000E+00  7072   0.864E+00 0.000E+00
CGA:   2    -0.354533822887E+03   -0.84383E-01   -0.83569E-01  7072   0.204E+01 0.209E-01
CGA:   3    -0.354618067476E+03   -0.84245E-01   -0.83997E-01  7072   0.661E+00-0.290E-04
CGA:   4    -0.354660054676E+03   -0.41987E-01   -0.41984E-01  7072   0.384E+00-0.253E-02
CGA:   5    -0.354688530595E+03   -0.28476E-01   -0.28519E-01  7072   0.352E+00-0.262E-02
CGA:   6    -0.354701569380E+03   -0.13039E-01   -0.13238E-01  7072   0.152E+00-0.151E-02
CGA:   7    -0.354707295853E+03   -0.57265E-02   -0.57241E-02  7072   0.325E-01-0.336E-05
CGA:   8    -0.354710564516E+03   -0.32687E-02   -0.32633E-02  7072   0.396E-01 0.126E-03
CGA:   9    -0.354711958186E+03   -0.13937E-02   -0.13900E-02  7072   0.176E-01 0.401E-04
CGA:  10    -0.354712977832E+03   -0.10196E-02   -0.10194E-02  7072   0.522E-02-0.128E-04
CGA:  11    -0.354713293114E+03   -0.31528E-03   -0.31527E-03  7072   0.617E-02-0.483E-05
CGA:  12    -0.354713688171E+03   -0.39506E-03   -0.39506E-03  7072   0.475E-02-0.201E-05
CGA:  13    -0.354713877061E+03   -0.18889E-03   -0.18871E-03  7072   0.126E-02-0.390E-05
CGA:  14    -0.354713936091E+03   -0.59030E-04   -0.59071E-04  7072   0.836E-03 0.208E-05
CGA:  15    -0.354714013948E+03   -0.77856E-04   -0.77852E-04  7072   0.103E-02 0.304E-06
CGA:  16    -0.354714056667E+03   -0.42720E-04   -0.42731E-04  7072   0.553E-03 0.380E-06
CGA:  17    -0.354714084480E+03   -0.27813E-04   -0.27790E-04  7072   0.170E-03-0.170E-05
CGA:  18    -0.354714099826E+03   -0.15346E-04   -0.15299E-04  7072   0.316E-03 0.156E-05
CGA:  19    -0.354714115575E+03   -0.15748E-04   -0.15761E-04  7072   0.195E-03 0.989E-06
CGA:  20    -0.354714128032E+03   -0.12458E-04   -0.12454E-04  7072   0.136E-03 0.142E-05
CGA:  21    -0.354714137330E+03   -0.92974E-05   -0.92962E-05  7072   0.104E-03 0.230E-06
  11 F= -.35471414E+03 E0= -.35469844E+03  d E =-.246382E-01  mag=     8.0000
       N       E                     dE             d eps       ncg     rms          ort
SDA:   1    -0.353490664320E+03    0.12235E+01    0.00000E+00  7072   0.477E+01 0.000E+00
CGA:   2    -0.353717081643E+03   -0.22642E+00   -0.22741E+00  7072   0.744E+01 0.560E-02
CGA:   3    -0.354422212979E+03   -0.70513E+00   -0.70226E+00  7072   0.171E+01 0.666E-01
CGA:   4    -0.354566599956E+03   -0.14439E+00   -0.14827E+00  7072   0.159E+01-0.129E+00
CGA:   5    -0.354688871510E+03   -0.12227E+00   -0.12215E+00  7072   0.637E+00 0.430E-02
CGA:   6    -0.354717536106E+03   -0.28665E-01   -0.28830E-01  7072   0.158E+00 0.591E-03
CGA:   7    -0.354731021704E+03   -0.13486E-01   -0.13468E-01  7072   0.177E+00 0.623E-03
CGA:   8    -0.354739888208E+03   -0.88665E-02   -0.88849E-02  7072   0.647E-01 0.302E-03
CGA:   9    -0.354742697668E+03   -0.28095E-02   -0.28069E-02  7072   0.425E-01 0.905E-05
CGA:  10    -0.354744405912E+03   -0.17082E-02   -0.17062E-02  7072   0.204E-01 0.146E-04
CGA:  11    -0.354746169466E+03   -0.17636E-02   -0.17626E-02  7072   0.163E-01 0.245E-04
CGA:  12    -0.354747145450E+03   -0.97598E-03   -0.97598E-03  7072   0.361E-02-0.106E-04
CGA:  13    -0.354747434910E+03   -0.28946E-03   -0.28929E-03  7072   0.570E-02 0.665E-05
CGA:  14    -0.354747741248E+03   -0.30634E-03   -0.30645E-03  7072   0.406E-02 0.405E-05
CGA:  15    -0.354747922558E+03   -0.18131E-03   -0.18132E-03  7072   0.233E-02-0.121E-05
CGA:  16    -0.354748046990E+03   -0.12443E-03   -0.12442E-03  7072   0.934E-03-0.293E-05
CGA:  17    -0.354748160146E+03   -0.11316E-03   -0.11297E-03  7072   0.161E-02 0.264E-05
CGA:  18    -0.354748288319E+03   -0.12817E-03   -0.12807E-03  7072   0.762E-03 0.547E-05
CGA:  19    -0.354748354709E+03   -0.66390E-04   -0.66359E-04  7072   0.644E-03 0.122E-05
CGA:  20    -0.354748393590E+03   -0.38881E-04   -0.38892E-04  7072   0.510E-03 0.170E-05
CGA:  21    -0.354748442760E+03   -0.49170E-04   -0.49033E-04  7072   0.766E-03 0.438E-05
CGA:  22    -0.354748472096E+03   -0.29336E-04   -0.29378E-04  7072   0.314E-03 0.144E-05
CGA:  23    -0.354748486962E+03   -0.14866E-04   -0.14902E-04  7072   0.184E-03 0.152E-05
CGA:  24    -0.354748506802E+03   -0.19840E-04   -0.19766E-04  7072   0.148E-03 0.169E-05
CGA:  25    -0.354748520729E+03   -0.13927E-04   -0.13869E-04  7072   0.123E-03 0.216E-05
CGA:  26    -0.354748527722E+03   -0.69933E-05   -0.69944E-05  7072   0.798E-04 0.634E-07
  12 F= -.35474853E+03 E0= -.35473265E+03  d E =-.343904E-01  mag=     8.0000
       N       E                     dE             d eps       ncg     rms          ort
SDA:   1    -0.349662140849E+03    0.50864E+01    0.00000E+00  7072   0.143E+02 0.000E+00
CGA:   2    -0.352392524092E+03   -0.27304E+01   -0.26828E+01  7072   0.337E+02 0.529E+00
CGA:   3    -0.353539246331E+03   -0.11467E+01   -0.10933E+01  7072   0.839E+01 0.225E+00
CGA:   4    -0.353992702725E+03   -0.45346E+00   -0.45574E+00  7072   0.649E+01 0.303E-01
CGA:   5    -0.354435798926E+03   -0.44310E+00   -0.44139E+00  7072   0.647E+01-0.325E+00
CGA:   6    -0.354663204511E+03   -0.22741E+00   -0.24315E+00  7072   0.155E+01-0.144E+00
CGA:   7    -0.354709351899E+03   -0.46147E-01   -0.45607E-01  7072   0.597E+00 0.808E-02
CGA:   8    -0.354750361709E+03   -0.41010E-01   -0.40992E-01  7072   0.550E+00 0.549E-02
CGA:   9    -0.354785726337E+03   -0.35365E-01   -0.35357E-01  7072   0.226E+00-0.115E-02
CGA:  10    -0.354795584951E+03   -0.98586E-02   -0.99060E-02  7072   0.127E+00 0.405E-04
CGA:  11    -0.354800486391E+03   -0.49014E-02   -0.48821E-02  7072   0.561E-01 0.167E-03
CGA:  12    -0.354804894756E+03   -0.44084E-02   -0.43952E-02  7072   0.765E-01 0.634E-03
CGA:  13    -0.354808542309E+03   -0.36476E-02   -0.36534E-02  7072   0.198E-01 0.257E-04
CGA:  14    -0.354809770021E+03   -0.12277E-02   -0.12286E-02  7072   0.122E-01 0.208E-03
CGA:  15    -0.354810411018E+03   -0.64100E-03   -0.64092E-03  7072   0.153E-01 0.228E-05
CGA:  16    -0.354811424691E+03   -0.10137E-02   -0.10134E-02  7072   0.788E-02 0.534E-04
CGA:  17    -0.354811970183E+03   -0.54549E-03   -0.54542E-03  7072   0.602E-02 0.836E-05
CGA:  18    -0.354812336071E+03   -0.36589E-03   -0.36602E-03  7072   0.495E-02 0.240E-04
CGA:  19    -0.354812613763E+03   -0.27769E-03   -0.27765E-03  7072   0.496E-02-0.209E-05
CGA:  20    -0.354812975826E+03   -0.36206E-03   -0.36184E-03  7072   0.602E-02 0.161E-04
CGA:  21    -0.354813267731E+03   -0.29191E-03   -0.29186E-03  7072   0.213E-02 0.250E-05
CGA:  22    -0.354813446277E+03   -0.17855E-03   -0.17823E-03  7072   0.181E-02 0.128E-04
CGA:  23    -0.354813567112E+03   -0.12083E-03   -0.12083E-03  7072   0.286E-02 0.316E-05
CGA:  24    -0.354813718605E+03   -0.15149E-03   -0.15162E-03  7072   0.120E-02 0.872E-05
CGA:  25    -0.354813795411E+03   -0.76807E-04   -0.76805E-04  7072   0.706E-03 0.488E-05
CGA:  26    -0.354813841325E+03   -0.45913E-04   -0.45909E-04  7072   0.781E-03 0.337E-05
CGA:  27    -0.354813896251E+03   -0.54926E-04   -0.54916E-04  7072   0.743E-03 0.172E-05
CGA:  28    -0.354813931415E+03   -0.35164E-04   -0.35206E-04  7072   0.486E-03 0.246E-05
CGA:  29    -0.354813954653E+03   -0.23238E-04   -0.23241E-04  7072   0.188E-03 0.486E-06
CGA:  30    -0.354813976421E+03   -0.21768E-04   -0.21685E-04  7072   0.257E-03 0.154E-05
CGA:  31    -0.354813992437E+03   -0.16016E-04   -0.16011E-04  7072   0.321E-03-0.130E-05
SDA:  32    -0.354814005922E+03   -0.13485E-04   -0.13454E-04  7072   0.686E-04-0.116E-05
CGA:  33    -0.354814009118E+03   -0.31961E-05   -0.31892E-05  7072   0.602E-04-0.379E-06
  13 F= -.35481401E+03 E0= -.35479804E+03  d E =-.654814E-01  mag=     8.0000
       N       E                     dE             d eps       ncg     rms          ort
SDA:   1    -0.319451478118E+03    0.35363E+02    0.00000E+00  7072   0.169E+03 0.000E+00
CGA:   2    -0.326880005042E+03   -0.74285E+01   -0.77987E+01  7072   0.168E+03-0.268E+01
CGA:   3    -0.335814019950E+03   -0.89340E+01   -0.11631E+02  7072   0.628E+03-0.234E+03
CGA:   4    -0.337566471122E+03   -0.17525E+01   -0.16205E+02  7072   0.339E+03-0.263E+03
CGA:   5    -0.340528396944E+03   -0.29619E+01   -0.15905E+01  7072   0.229E+03 0.172E+03
CGA:   6    -0.343516579399E+03   -0.29882E+01   -0.16810E+01  7072   0.103E+03 0.172E+03
CGA:   7    -0.344864795613E+03   -0.13482E+01   -0.84599E+00  7072   0.307E+02 0.539E+02
CGA:   8    -0.345643867508E+03   -0.77907E+00   -0.66206E+00  7072   0.343E+02 0.325E+01
CGA:   9    -0.350533267577E+03   -0.48894E+01   -0.45515E+01  7072   0.577E+02 0.538E+01
CGA:  10    -0.352099335165E+03   -0.15661E+01   -0.19685E+01  7072   0.457E+02-0.396E+01
CGA:  11    -0.353536367293E+03   -0.14370E+01   -0.11967E+01  7072   0.623E+01 0.590E+01
CGA:  12    -0.353773522669E+03   -0.23716E+00   -0.22386E+00  7072   0.567E+01 0.980E-01
CGA:  13    -0.353965979379E+03   -0.19246E+00   -0.20301E+00  7072   0.417E+01 0.347E-01
CGA:  14    -0.354158534634E+03   -0.19256E+00   -0.19217E+00  7072   0.172E+01-0.293E-01
CGA:  15    -0.354232876807E+03   -0.74342E-01   -0.73565E-01  7072   0.166E+01-0.359E-01
CGA:  16    -0.354276287842E+03   -0.43411E-01   -0.46213E-01  7072   0.679E+00-0.323E-01
CGA:  17    -0.354328726300E+03   -0.52438E-01   -0.51717E-01  7072   0.115E+01 0.212E-01
CGA:  18    -0.354368323392E+03   -0.39597E-01   -0.39358E-01  7072   0.500E+00 0.369E-03
CGA:  19    -0.354386425894E+03   -0.18103E-01   -0.18252E-01  7072   0.256E+00 0.168E-02
CGA:  20    -0.354400692892E+03   -0.14267E-01   -0.14177E-01  7072   0.164E+00 0.884E-02
CGA:  21    -0.354409006649E+03   -0.83138E-02   -0.83142E-02  7072   0.200E+00 0.123E-02
CGA:  22    -0.354418662927E+03   -0.96563E-02   -0.96692E-02  7072   0.995E-01 0.463E-02
CGA:  23    -0.354425553648E+03   -0.68907E-02   -0.68462E-02  7072   0.804E-01 0.189E-02
CGA:  24    -0.354428676867E+03   -0.31232E-02   -0.31130E-02  7072   0.588E-01-0.146E-03
CGA:  25    -0.354431770729E+03   -0.30939E-02   -0.30916E-02  7072   0.359E-01 0.387E-03
CGA:  26    -0.354435621251E+03   -0.38505E-02   -0.37915E-02  7072   0.836E-01 0.108E-02
CGA:  27    -0.354438647946E+03   -0.30267E-02   -0.30365E-02  7072   0.269E-01-0.121E-06
CGA:  28    -0.354440015727E+03   -0.13678E-02   -0.13679E-02  7072   0.144E-01 0.727E-04
CGA:  29    -0.354441075659E+03   -0.10599E-02   -0.10590E-02  7072   0.196E-01 0.384E-04
CGA:  30    -0.354441959693E+03   -0.88403E-03   -0.88394E-03  7072   0.131E-01-0.125E-05
CGA:  31    -0.354442780337E+03   -0.82064E-03   -0.81979E-03  7072   0.110E-01 0.569E-04
CGA:  32    -0.354443343061E+03   -0.56272E-03   -0.56276E-03  7072   0.414E-02 0.113E-04
CGA:  33    -0.354443569794E+03   -0.22673E-03   -0.22673E-03  7072   0.540E-02 0.112E-05
CGA:  34    -0.354443886441E+03   -0.31665E-03   -0.31651E-03  7072   0.388E-02 0.167E-04
CGA:  35    -0.354444238089E+03   -0.35165E-03   -0.35169E-03  7072   0.256E-02-0.978E-06
CGA:  36    -0.354444327486E+03   -0.89397E-04   -0.89277E-04  7072   0.170E-02-0.212E-05
CGA:  37    -0.354444469525E+03   -0.14204E-03   -0.14196E-03  7072   0.234E-02 0.264E-05
SDA:  38    -0.354444638345E+03   -0.16882E-03   -0.16868E-03  7072   0.153E-02 0.794E-05
CGA:  39    -0.354444683477E+03   -0.45132E-04   -0.45039E-04  7072   0.492E-03 0.156E-07
CGA:  40    -0.354444718426E+03   -0.34950E-04   -0.34923E-04  7072   0.611E-03 0.156E-05
CGA:  41    -0.354444758496E+03   -0.40070E-04   -0.40077E-04  7072   0.694E-03-0.452E-06
CGA:  42    -0.354444824084E+03   -0.65587E-04   -0.65608E-04  7072   0.419E-03-0.643E-06
CGA:  43    -0.354444850957E+03   -0.26873E-04   -0.26881E-04  7072   0.199E-03-0.118E-05
CGA:  44    -0.354444884003E+03   -0.33046E-04   -0.33190E-04  7072   0.234E-03-0.140E-05
CGA:  45    -0.354444910598E+03   -0.26595E-04   -0.26592E-04  7072   0.221E-03 0.344E-07
CGA:  46    -0.354444921007E+03   -0.10409E-04   -0.10408E-04  7072   0.150E-03 0.383E-08
CGA:  47    -0.354444929379E+03   -0.83720E-05   -0.83794E-05  7072   0.137E-03 0.708E-06
CGA:  48    -0.354444939699E+03   -0.10321E-04   -0.10315E-04  7072   0.104E-03 0.583E-06
CGA:  49    -0.354444946674E+03   -0.69741E-05   -0.69719E-05  7072   0.739E-04 0.171E-05
  14 F= -.35444495E+03 E0= -.35443016E+03  d E =0.369062E+00  mag=     8.0000
       N       E                     dE             d eps       ncg     rms          ort
SDA:   1    -0.344422771227E+03    0.10022E+02    0.00000E+00  7072   0.922E+02 0.000E+00
CGA:   2    -0.346884576583E+03   -0.24618E+01   -0.30498E+01  7072   0.656E+02-0.203E+02
CGA:   3    -0.349735155722E+03   -0.28506E+01   -0.26060E+01  7072   0.329E+02-0.324E+01
CGA:   4    -0.352258234458E+03   -0.25231E+01   -0.25435E+01  7072   0.290E+02-0.269E+01
CGA:   5    -0.353000901624E+03   -0.74267E+00   -0.66280E+00  7072   0.159E+02 0.243E+01
CGA:   6    -0.353592495276E+03   -0.59159E+00   -0.56298E+00  7072   0.136E+02 0.347E+00
CGA:   7    -0.354150824816E+03   -0.55833E+00   -0.56355E+00  7072   0.790E+01 0.103E+00
CGA:   8    -0.354473750991E+03   -0.32293E+00   -0.32653E+00  7072   0.712E+01 0.409E-01
CGA:   9    -0.354655971852E+03   -0.18222E+00   -0.14057E+00  7072   0.145E+01 0.158E+01
CGA:  10    -0.354701078795E+03   -0.45107E-01   -0.44514E-01  7072   0.134E+01 0.164E-01
CGA:  11    -0.354746063949E+03   -0.44985E-01   -0.46692E-01  7072   0.157E+01-0.747E-02
CGA:  12    -0.354805443892E+03   -0.59380E-01   -0.61287E-01  7072   0.157E+01 0.186E-01
CGA:  13    -0.354850558524E+03   -0.45115E-01   -0.44724E-01  7072   0.704E+00 0.659E-02
CGA:  14    -0.354864949248E+03   -0.14391E-01   -0.15088E-01  7072   0.232E+00-0.208E-01
CGA:  15    -0.354874491673E+03   -0.95424E-02   -0.96452E-02  7072   0.260E+00 0.441E-02
CGA:  16    -0.354882965232E+03   -0.84736E-02   -0.85038E-02  7072   0.156E+00-0.105E-03
CGA:  17    -0.354891969669E+03   -0.90044E-02   -0.89804E-02  7072   0.164E+00 0.179E-02
CGA:  18    -0.354896139586E+03   -0.41699E-02   -0.43775E-02  7072   0.397E-01-0.296E-02
CGA:  19    -0.354898271117E+03   -0.21315E-02   -0.21262E-02  7072   0.360E-01 0.530E-03
CGA:  20    -0.354900026907E+03   -0.17558E-02   -0.17560E-02  7072   0.330E-01 0.929E-04
CGA:  21    -0.354902013524E+03   -0.19866E-02   -0.19731E-02  7072   0.245E-01 0.848E-03
CGA:  22    -0.354902833133E+03   -0.81961E-03   -0.81902E-03  7072   0.862E-02 0.197E-04
CGA:  23    -0.354903439698E+03   -0.60657E-03   -0.60508E-03  7072   0.846E-02 0.549E-04
CGA:  24    -0.354903985857E+03   -0.54616E-03   -0.54395E-03  7072   0.100E-01 0.112E-03
CGA:  25    -0.354904415903E+03   -0.43005E-03   -0.42994E-03  7072   0.478E-02-0.133E-05
CGA:  26    -0.354904711522E+03   -0.29562E-03   -0.29508E-03  7072   0.323E-02 0.347E-04
CGA:  27    -0.354904834469E+03   -0.12295E-03   -0.12315E-03  7072   0.132E-02 0.438E-05
CGA:  28    -0.354904962760E+03   -0.12829E-03   -0.12855E-03  7072   0.209E-02-0.568E-05
CGA:  29    -0.354905053220E+03   -0.90460E-04   -0.90546E-04  7072   0.145E-02 0.330E-05
CGA:  30    -0.354905135928E+03   -0.82708E-04   -0.82711E-04  7072   0.634E-03-0.717E-06
CGA:  31    -0.354905170286E+03   -0.34358E-04   -0.34361E-04  7072   0.455E-03-0.158E-05
SDA:  32    -0.354905196325E+03   -0.26039E-04   -0.26047E-04  7072   0.462E-03-0.184E-05
CGA:  33    -0.354905212245E+03   -0.15920E-04   -0.15889E-04  7072   0.192E-03-0.141E-05
CGA:  34    -0.354905224219E+03   -0.11974E-04   -0.11981E-04  7072   0.280E-03-0.767E-06
CGA:  35    -0.354905247698E+03   -0.23479E-04   -0.23576E-04  7072   0.243E-03-0.309E-05
CGA:  36    -0.354905264574E+03   -0.16876E-04   -0.16884E-04  7072   0.225E-03-0.574E-06
CGA:  37    -0.354905276782E+03   -0.12208E-04   -0.12208E-04  7072   0.860E-04 0.503E-06
CGA:  38    -0.354905289353E+03   -0.12571E-04   -0.12653E-04  7072   0.878E-04-0.101E-05
CGA:  39    -0.354905294987E+03   -0.56347E-05   -0.56290E-05  7072   0.148E-03 0.952E-06
  15 F= -.35490529E+03 E0= -.35488969E+03  d E =-.460348E+00  mag=     8.0000
       N       E                     dE             d eps       ncg     rms          ort
SDA:   1    -0.354762703961E+03    0.14259E+00    0.00000E+00  7072   0.492E+00 0.000E+00
CGA:   2    -0.354837376180E+03   -0.74672E-01   -0.75320E-01  7072   0.993E+00-0.759E-02
CGA:   3    -0.354873110553E+03   -0.35734E-01   -0.36629E-01  7072   0.335E+00-0.662E-02
CGA:   4    -0.354892692609E+03   -0.19582E-01   -0.19501E-01  7072   0.322E+00-0.890E-02
CGA:   5    -0.354908123408E+03   -0.15431E-01   -0.15463E-01  7072   0.199E+00 0.586E-03
CGA:   6    -0.354918895923E+03   -0.10773E-01   -0.10772E-01  7072   0.271E-01-0.323E-04
CGA:   7    -0.354921793830E+03   -0.28979E-02   -0.28956E-02  7072   0.246E-01 0.472E-04
CGA:   8    -0.354923495385E+03   -0.17016E-02   -0.17020E-02  7072   0.812E-02-0.463E-04
CGA:   9    -0.354924057985E+03   -0.56260E-03   -0.56268E-03  7072   0.381E-02-0.734E-05
CGA:  10    -0.354924322158E+03   -0.26417E-03   -0.26423E-03  7072   0.427E-02-0.729E-05
CGA:  11    -0.354924595886E+03   -0.27373E-03   -0.27373E-03  7072   0.182E-02-0.309E-05
CGA:  12    -0.354924672956E+03   -0.77070E-04   -0.76970E-04  7072   0.107E-02-0.437E-05
CGA:  13    -0.354924723092E+03   -0.50137E-04   -0.50091E-04  7072   0.744E-03-0.351E-05
CGA:  14    -0.354924778426E+03   -0.55333E-04   -0.55412E-04  7072   0.410E-03-0.650E-05
CGA:  15    -0.354924824077E+03   -0.45652E-04   -0.45843E-04  7072   0.187E-03-0.385E-05
CGA:  16    -0.354924837321E+03   -0.13243E-04   -0.13244E-04  7072   0.220E-03-0.633E-07
CGA:  17    -0.354924847684E+03   -0.10363E-04   -0.10383E-04  7072   0.172E-03 0.954E-06
CGA:  18    -0.354924861230E+03   -0.13547E-04   -0.13530E-04  7072   0.169E-03 0.128E-05
CGA:  19    -0.354924869946E+03   -0.87154E-05   -0.87468E-05  7072   0.881E-04 0.224E-05
  16 F= -.35492487E+03 E0= -.35490912E+03  d E =-.195750E-01  mag=     8.0000
       N       E                     dE             d eps       ncg     rms          ort
SDA:   1    -0.353957469138E+03    0.96739E+00    0.00000E+00  7072   0.286E+01 0.000E+00
CGA:   2    -0.354385997576E+03   -0.42853E+00   -0.42858E+00  7072   0.818E+01 0.131E-02
CGA:   3    -0.354659573700E+03   -0.27358E+00   -0.27402E+00  7072   0.194E+01-0.445E-01
CGA:   4    -0.354761904106E+03   -0.10233E+00   -0.10246E+00  7072   0.134E+01 0.220E-02
CGA:   5    -0.354868613928E+03   -0.10671E+00   -0.10750E+00  7072   0.115E+01-0.393E-01
CGA:   6    -0.354908974060E+03   -0.40360E-01   -0.41567E-01  7072   0.257E+00-0.120E-01
CGA:   7    -0.354919660934E+03   -0.10687E-01   -0.10677E-01  7072   0.184E+00-0.229E-04
CGA:   8    -0.354931010981E+03   -0.11350E-01   -0.11353E-01  7072   0.140E+00 0.501E-03
CGA:   9    -0.354938575141E+03   -0.75642E-02   -0.75402E-02  7072   0.241E-01-0.677E-03
CGA:  10    -0.354940579236E+03   -0.20041E-02   -0.20042E-02  7072   0.339E-01-0.264E-05
CGA:  11    -0.354941874121E+03   -0.12949E-02   -0.12943E-02  7072   0.180E-01-0.101E-04
CGA:  12    -0.354943332111E+03   -0.14580E-02   -0.14580E-02  7072   0.599E-02-0.949E-05
CGA:  13    -0.354943625927E+03   -0.29382E-03   -0.29354E-03  7072   0.399E-02-0.115E-04
CGA:  14    -0.354943933196E+03   -0.30727E-03   -0.30730E-03  7072   0.581E-02-0.598E-05
CGA:  15    -0.354944241726E+03   -0.30853E-03   -0.30828E-03  7072   0.303E-02-0.210E-04
CGA:  16    -0.354944363717E+03   -0.12199E-03   -0.12195E-03  7072   0.137E-02-0.399E-05
CGA:  17    -0.354944475593E+03   -0.11188E-03   -0.11186E-03  7072   0.112E-02 0.428E-06
CGA:  18    -0.354944586347E+03   -0.11075E-03   -0.11052E-03  7072   0.188E-02 0.662E-05
CGA:  19    -0.354944667610E+03   -0.81263E-04   -0.81312E-04  7072   0.114E-02 0.268E-05
CGA:  20    -0.354944732004E+03   -0.64395E-04   -0.64428E-04  7072   0.452E-03 0.424E-05
CGA:  21    -0.354944778977E+03   -0.46972E-04   -0.46767E-04  7072   0.622E-03 0.525E-05
CGA:  22    -0.354944812395E+03   -0.33419E-04   -0.33499E-04  7072   0.516E-03 0.574E-05
CGA:  23    -0.354944838278E+03   -0.25883E-04   -0.25946E-04  7072   0.285E-03 0.391E-05
CGA:  24    -0.354944853781E+03   -0.15503E-04   -0.15537E-04  7072   0.174E-03 0.301E-05
CGA:  25    -0.354944863551E+03   -0.97696E-05   -0.97786E-05  7072   0.109E-03 0.111E-05
CGA:  26    -0.354944876117E+03   -0.12566E-04   -0.12395E-04  7072   0.155E-03 0.349E-05
CGA:  27    -0.354944881234E+03   -0.51175E-05   -0.51356E-05  7072   0.548E-04 0.572E-06
  17 F= -.35494488E+03 E0= -.35492893E+03  d E =-.200113E-01  mag=     8.0000
       N       E                     dE             d eps       ncg     rms          ort
SDA:   1    -0.354814301473E+03    0.13057E+00    0.00000E+00  7072   0.577E+00 0.000E+00
CGA:   2    -0.354837293774E+03   -0.22992E-01   -0.23030E-01  7072   0.679E+00-0.356E-03
CGA:   3    -0.354912584560E+03   -0.75291E-01   -0.75388E-01  7072   0.415E+00-0.197E-02
CGA:   4    -0.354930499555E+03   -0.17915E-01   -0.17977E-01  7072   0.109E+00-0.895E-04
CGA:   5    -0.354947729397E+03   -0.17230E-01   -0.17250E-01  7072   0.516E-01-0.240E-03
CGA:   6    -0.354949455149E+03   -0.17258E-02   -0.17331E-02  7072   0.318E-01-0.116E-03
CGA:   7    -0.354951140380E+03   -0.16852E-02   -0.16879E-02  7072   0.115E-01 0.282E-04
CGA:   8    -0.354952192418E+03   -0.10520E-02   -0.10520E-02  7072   0.905E-02 0.894E-06
CGA:   9    -0.354952575303E+03   -0.38288E-03   -0.38274E-03  7072   0.314E-02-0.120E-05
CGA:  10    -0.354952717584E+03   -0.14228E-03   -0.14235E-03  7072   0.237E-02 0.260E-06
CGA:  11    -0.354952882639E+03   -0.16506E-03   -0.16507E-03  7072   0.241E-02-0.504E-05
CGA:  12    -0.354952982396E+03   -0.99757E-04   -0.99863E-04  7072   0.559E-03-0.314E-05
CGA:  13    -0.354953022244E+03   -0.39848E-04   -0.39854E-04  7072   0.413E-03-0.111E-05
CGA:  14    -0.354953054234E+03   -0.31990E-04   -0.32007E-04  7072   0.569E-03-0.155E-05
CGA:  15    -0.354953076187E+03   -0.21954E-04   -0.21878E-04  7072   0.252E-03-0.223E-05
CGA:  16    -0.354953098921E+03   -0.22733E-04   -0.22733E-04  7072   0.110E-03-0.255E-06
CGA:  17    -0.354953109022E+03   -0.10101E-04   -0.10105E-04  7072   0.220E-03-0.339E-06
CGA:  18    -0.354953122104E+03   -0.13082E-04   -0.13089E-04  7072   0.221E-03 0.796E-06
CGA:  19    -0.354953133263E+03   -0.11159E-04   -0.11158E-04  7072   0.708E-04-0.444E-07
CGA:  20    -0.354953139401E+03   -0.61383E-05   -0.61378E-05  7072   0.987E-04-0.647E-07
  18 F= -.35495314E+03 E0= -.35493718E+03  d E =-.825817E-02  mag=     8.0000
       N       E                     dE             d eps       ncg     rms          ort
SDA:   1    -0.349561563357E+03    0.53916E+01    0.00000E+00  7072   0.157E+02 0.000E+00
CGA:   2    -0.351191272930E+03   -0.16297E+01   -0.15930E+01  7072   0.390E+02 0.102E+01
CGA:   3    -0.353609609209E+03   -0.24183E+01   -0.23281E+01  7072   0.164E+02-0.120E+01
CGA:   4    -0.354058446314E+03   -0.44884E+00   -0.49101E+00  7072   0.666E+01-0.617E+00
CGA:   5    -0.354511283708E+03   -0.45284E+00   -0.45414E+00  7072   0.668E+01-0.153E+00
CGA:   6    -0.354759681288E+03   -0.24840E+00   -0.22488E+00  7072   0.250E+01 0.345E+00
CGA:   7    -0.354842840560E+03   -0.83159E-01   -0.87854E-01  7072   0.146E+01-0.617E-01
CGA:   8    -0.354913413556E+03   -0.70573E-01   -0.70702E-01  7072   0.540E+00 0.357E-02
CGA:   9    -0.354940714036E+03   -0.27300E-01   -0.27468E-01  7072   0.407E+00 0.396E-02
CGA:  10    -0.354964647739E+03   -0.23934E-01   -0.24047E-01  7072   0.238E+00 0.159E-01
CGA:  11    -0.354972856168E+03   -0.82084E-02   -0.82197E-02  7072   0.129E+00-0.176E-03
CGA:  12    -0.354979373474E+03   -0.65173E-02   -0.65619E-02  7072   0.806E-01 0.152E-02
CGA:  13    -0.354983813605E+03   -0.44401E-02   -0.44542E-02  7072   0.469E-01 0.112E-02
CGA:  14    -0.354986675676E+03   -0.28621E-02   -0.28620E-02  7072   0.267E-01 0.198E-04
CGA:  15    -0.354988106209E+03   -0.14305E-02   -0.14376E-02  7072   0.156E-01 0.500E-03
CGA:  16    -0.354988780731E+03   -0.67452E-03   -0.67403E-03  7072   0.131E-01-0.130E-04
CGA:  17    -0.354989616278E+03   -0.83555E-03   -0.83477E-03  7072   0.102E-01 0.757E-04
CGA:  18    -0.354990128118E+03   -0.51184E-03   -0.51416E-03  7072   0.403E-02 0.842E-04
CGA:  19    -0.354990489929E+03   -0.36181E-03   -0.36237E-03  7072   0.449E-02-0.165E-04
CGA:  20    -0.354990785515E+03   -0.29559E-03   -0.29460E-03  7072   0.325E-02 0.979E-04
CGA:  21    -0.354991013685E+03   -0.22817E-03   -0.22830E-03  7072   0.435E-02-0.884E-05
CGA:  22    -0.354991196316E+03   -0.18263E-03   -0.18333E-03  7072   0.198E-02 0.871E-05
CGA:  23    -0.354991328699E+03   -0.13238E-03   -0.13224E-03  7072   0.201E-02 0.145E-04
CGA:  24    -0.354991494749E+03   -0.16605E-03   -0.16599E-03  7072   0.114E-02 0.253E-05
CGA:  25    -0.354991562188E+03   -0.67439E-04   -0.67458E-04  7072   0.101E-02 0.722E-05
CGA:  26    -0.354991619195E+03   -0.57007E-04   -0.57021E-04  7072   0.982E-03 0.304E-05
CGA:  27    -0.354991663137E+03   -0.43943E-04   -0.44029E-04  7072   0.469E-03 0.422E-05
CGA:  28    -0.354991701176E+03   -0.38039E-04   -0.37957E-04  7072   0.417E-03 0.393E-05
CGA:  29    -0.354991727497E+03   -0.26321E-04   -0.26318E-04  7072   0.229E-03 0.168E-05
CGA:  30    -0.354991745223E+03   -0.17726E-04   -0.17687E-04  7072   0.330E-03 0.245E-05
CGA:  31    -0.354991760669E+03   -0.15446E-04   -0.15457E-04  7072   0.205E-03 0.933E-06
SDA:  32    -0.354991771339E+03   -0.10669E-04   -0.10673E-04  7072   0.131E-03 0.445E-06
CGA:  33    -0.354991775581E+03   -0.42419E-05   -0.42284E-05  7072   0.558E-04-0.450E-06
  19 F= -.35499178E+03 E0= -.35497580E+03  d E =-.386362E-01  mag=     8.0000
       N       E                     dE             d eps       ncg     rms          ort
SDA:   1    -0.326746685953E+03    0.28245E+02    0.00000E+00  7072   0.129E+03 0.000E+00
CGA:   2    -0.331496665937E+03   -0.47500E+01   -0.54003E+01  7072   0.142E+03-0.652E+00
CGA:   3    -0.334964093403E+03   -0.34674E+01   -0.12963E+02  7072   0.127E+04-0.310E+03
CGA:   4    -0.332781007845E+03    0.21831E+01   -0.35436E+02  7072   0.618E+03-0.503E+03
CGA:   5    -0.339087974136E+03   -0.63070E+01   -0.28852E+01  7072   0.549E+03 0.439E+03
CGA:   6    -0.348465166798E+03   -0.93772E+01   -0.60244E+01  7072   0.307E+02 0.140E+03
CGA:   7    -0.348860201954E+03   -0.39504E+00   -0.33368E+00  7072   0.137E+02 0.591E+01
CGA:   8    -0.349482795103E+03   -0.62259E+00   -0.60974E+00  7072   0.737E+02-0.124E+00
CGA:   9    -0.350915583237E+03   -0.14328E+01   -0.15735E+01  7072   0.151E+03-0.438E+01
CGA:  10    -0.351907936884E+03   -0.99235E+00   -0.15201E+01  7072   0.528E+02-0.385E+02
CGA:  11    -0.352259736205E+03   -0.35180E+00   -0.55606E+00  7072   0.336E+02-0.980E+01
CGA:  12    -0.352715271591E+03   -0.45554E+00   -0.41676E+00  7072   0.191E+02 0.196E+01
CGA:  13    -0.353064818464E+03   -0.34955E+00   -0.34018E+00  7072   0.132E+02 0.345E+00
CGA:  14    -0.353323602485E+03   -0.25878E+00   -0.27693E+00  7072   0.989E+01-0.474E+00
CGA:  15    -0.353522428989E+03   -0.19883E+00   -0.21679E+00  7072   0.879E+01-0.311E+00
CGA:  16    -0.353841496580E+03   -0.31907E+00   -0.32051E+00  7072   0.786E+01 0.127E+00
CGA:  17    -0.354003221953E+03   -0.16173E+00   -0.15677E+00  7072   0.305E+01 0.138E+00
CGA:  18    -0.354088118904E+03   -0.84897E-01   -0.84139E-01  7072   0.254E+01-0.367E-02
CGA:  19    -0.354155141685E+03   -0.67023E-01   -0.67092E-01  7072   0.222E+01 0.224E-02
CGA:  20    -0.354250910221E+03   -0.95769E-01   -0.95687E-01  7072   0.421E+01 0.123E-01
CGA:  21    -0.354373008665E+03   -0.12210E+00   -0.12238E+00  7072   0.275E+01 0.375E-02
CGA:  22    -0.354442494966E+03   -0.69486E-01   -0.70583E-01  7072   0.181E+01-0.693E-03
CGA:  23    -0.354488722090E+03   -0.46227E-01   -0.46777E-01  7072   0.958E+00 0.284E-03
CGA:  24    -0.354523997199E+03   -0.35275E-01   -0.35290E-01  7072   0.122E+01 0.712E-02
CGA:  25    -0.354572453111E+03   -0.48456E-01   -0.48446E-01  7072   0.929E+00 0.341E-02
CGA:  26    -0.354608416235E+03   -0.35963E-01   -0.35959E-01  7072   0.104E+01 0.261E-02
CGA:  27    -0.354641105343E+03   -0.32689E-01   -0.32760E-01  7072   0.401E+00 0.360E-02
CGA:  28    -0.354652607125E+03   -0.11502E-01   -0.11463E-01  7072   0.295E+00-0.511E-03
CGA:  29    -0.354663993816E+03   -0.11387E-01   -0.11393E-01  7072   0.239E+00-0.218E-02
CGA:  30    -0.354673412189E+03   -0.94184E-02   -0.94244E-02  7072   0.341E+00-0.127E-02
CGA:  31    -0.354687799572E+03   -0.14387E-01   -0.14384E-01  7072   0.279E+00 0.392E-03
CGA:  32    -0.354695913548E+03   -0.81140E-02   -0.81419E-02  7072   0.208E+00 0.745E-03
CGA:  33    -0.354703020949E+03   -0.71074E-02   -0.71162E-02  7072   0.116E+00 0.117E-02
CGA:  34    -0.354706624399E+03   -0.36034E-02   -0.36049E-02  7072   0.952E-01 0.552E-04
CGA:  35    -0.354710770110E+03   -0.41457E-02   -0.41428E-02  7072   0.101E+00 0.258E-03
SDA:  36    -0.354714983238E+03   -0.42131E-02   -0.42133E-02  7072   0.112E+00-0.378E-04
CGA:  37    -0.354718856761E+03   -0.38735E-02   -0.38694E-02  7072   0.689E-01-0.635E-03
CGA:  38    -0.354722417070E+03   -0.35603E-02   -0.35640E-02  7072   0.381E-01-0.194E-03
CGA:  39    -0.354725234397E+03   -0.28173E-02   -0.28194E-02  7072   0.370E-01-0.572E-04
CGA:  40    -0.354729376671E+03   -0.41423E-02   -0.41389E-02  7072   0.164E-01 0.511E-04
CGA:  41    -0.354730026859E+03   -0.65019E-03   -0.65027E-03  7072   0.916E-02 0.694E-05
CGA:  42    -0.354730413447E+03   -0.38659E-03   -0.38656E-03  7072   0.417E-02-0.177E-04
CGA:  43    -0.354730666850E+03   -0.25340E-03   -0.25348E-03  7072   0.470E-02-0.392E-05
CGA:  44    -0.354731129818E+03   -0.46297E-03   -0.46395E-03  7072   0.547E-02-0.182E-04
CGA:  45    -0.354731440057E+03   -0.31024E-03   -0.31030E-03  7072   0.163E-02-0.434E-05
CGA:  46    -0.354731635242E+03   -0.19519E-03   -0.19518E-03  7072   0.353E-02-0.298E-06
CGA:  47    -0.354731802292E+03   -0.16705E-03   -0.16704E-03  7072   0.288E-02 0.106E-05
CGA:  48    -0.354731939873E+03   -0.13758E-03   -0.13763E-03  7072   0.921E-03 0.129E-04
CGA:  49    -0.354732033888E+03   -0.94016E-04   -0.93726E-04  7072   0.102E-02 0.551E-05
CGA:  50    -0.354732165623E+03   -0.13173E-03   -0.13222E-03  7072   0.248E-02-0.663E-05
CGA:  51    -0.354732264659E+03   -0.99035E-04   -0.98978E-04  7072   0.112E-02-0.278E-05
CGA:  52    -0.354732308696E+03   -0.44037E-04   -0.43993E-04  7072   0.393E-03-0.182E-05
CGA:  53    -0.354732362347E+03   -0.53651E-04   -0.53699E-04  7072   0.844E-03-0.696E-06
CGA:  54    -0.354732406491E+03   -0.44144E-04   -0.44139E-04  7072   0.463E-03-0.101E-05
CGA:  55    -0.354732431876E+03   -0.25385E-04   -0.25384E-04  7072   0.298E-03-0.350E-06
CGA:  56    -0.354732441650E+03   -0.97738E-05   -0.97962E-05  7072   0.118E-03 0.607E-06
  20 F= -.35473244E+03 E0= -.35471632E+03  d E =0.259334E+00  mag=     8.0000
       N       E                     dE             d eps       ncg     rms          ort
SDA:   1    -0.343380592797E+03    0.11352E+02    0.00000E+00  7072   0.749E+02 0.000E+00
CGA:   2    -0.345997189708E+03   -0.26166E+01   -0.27752E+01  7072   0.530E+02-0.209E+01
CGA:   3    -0.349274603605E+03   -0.32774E+01   -0.34057E+01  7072   0.552E+02-0.100E+02
CGA:   4    -0.351506988529E+03   -0.22324E+01   -0.22094E+01  7072   0.444E+02-0.476E+00
CGA:   5    -0.352589461445E+03   -0.10825E+01   -0.11091E+01  7072   0.283E+02 0.874E+00
CGA:   6    -0.353282765518E+03   -0.69330E+00   -0.57456E+00  7072   0.149E+02 0.399E+01
CGA:   7    -0.353837161919E+03   -0.55440E+00   -0.55696E+00  7072   0.134E+02-0.193E+00
CGA:   8    -0.354143907575E+03   -0.30675E+00   -0.34393E+00  7072   0.122E+02-0.691E+00
CGA:   9    -0.354633876666E+03   -0.48997E+00   -0.48731E+00  7072   0.441E+01-0.871E-01
CGA:  10    -0.354706729989E+03   -0.72853E-01   -0.65350E-01  7072   0.184E+01 0.388E+00
CGA:  11    -0.354766570612E+03   -0.59841E-01   -0.61297E-01  7072   0.171E+01-0.761E-02
CGA:  12    -0.354835764075E+03   -0.69193E-01   -0.70404E-01  7072   0.288E+01 0.619E-01
CGA:  13    -0.354913048611E+03   -0.77285E-01   -0.79134E-01  7072   0.102E+01-0.166E-01
CGA:  14    -0.354943564479E+03   -0.30516E-01   -0.30919E-01  7072   0.405E+00-0.141E-03
CGA:  15    -0.354962687280E+03   -0.19123E-01   -0.19075E-01  7072   0.422E+00 0.203E-01
CGA:  16    -0.354975023203E+03   -0.12336E-01   -0.12263E-01  7072   0.203E+00 0.896E-03
CGA:  17    -0.354995148300E+03   -0.20125E-01   -0.19711E-01  7072   0.174E+00 0.722E-02
CGA:  18    -0.355002206659E+03   -0.70584E-02   -0.71828E-02  7072   0.101E+00 0.501E-02
CGA:  19    -0.355005797441E+03   -0.35908E-02   -0.36032E-02  7072   0.466E-01 0.154E-03
CGA:  20    -0.355008477378E+03   -0.26799E-02   -0.26570E-02  7072   0.232E-01 0.149E-02
CGA:  21    -0.355011378581E+03   -0.29012E-02   -0.29368E-02  7072   0.457E-01-0.514E-03
CGA:  22    -0.355013376268E+03   -0.19977E-02   -0.20108E-02  7072   0.135E-01 0.845E-03
CGA:  23    -0.355013935618E+03   -0.55935E-03   -0.56010E-03  7072   0.656E-02 0.215E-04
CGA:  24    -0.355014388737E+03   -0.45312E-03   -0.45084E-03  7072   0.992E-02 0.940E-04
CGA:  25    -0.355015056840E+03   -0.66810E-03   -0.66799E-03  7072   0.559E-02 0.275E-05
CGA:  26    -0.355015474722E+03   -0.41788E-03   -0.41705E-03  7072   0.319E-02 0.290E-04
CGA:  27    -0.355015605990E+03   -0.13127E-03   -0.13133E-03  7072   0.186E-02 0.404E-06
[...]
CGA:   3    -0.355220244978E+03   -0.14327E-01   -0.14340E-01  7072   0.837E-01-0.114E-03
CGA:   4    -0.355225466552E+03   -0.52216E-02   -0.52211E-02  7072   0.671E-01-0.363E-04
CGA:   5    -0.355228557957E+03   -0.30914E-02   -0.30889E-02  7072   0.251E-01 0.411E-05
CGA:   6    -0.355229748692E+03   -0.11907E-02   -0.11899E-02  7072   0.209E-01 0.453E-06
CGA:   7    -0.355230761121E+03   -0.10124E-02   -0.10118E-02  7072   0.990E-02-0.740E-05
CGA:   8    -0.355231276952E+03   -0.51583E-03   -0.51622E-03  7072   0.172E-02 0.121E-04
CGA:   9    -0.355231464119E+03   -0.18717E-03   -0.18719E-03  7072   0.317E-02-0.297E-06
CGA:  10    -0.355231578137E+03   -0.11402E-03   -0.11407E-03  7072   0.104E-02 0.242E-05
CGA:  11    -0.355231620649E+03   -0.42512E-04   -0.42478E-04  7072   0.383E-03-0.346E-06
CGA:  12    -0.355231657022E+03   -0.36373E-04   -0.36451E-04  7072   0.401E-03-0.248E-05
CGA:  13    -0.355231676654E+03   -0.19632E-04   -0.19615E-04  7072   0.238E-03-0.958E-06
CGA:  14    -0.355231691445E+03   -0.14791E-04   -0.14792E-04  7072   0.155E-03 0.617E-07
CGA:  15    -0.355231696212E+03   -0.47665E-05   -0.47599E-05  7072   0.524E-04-0.172E-06
  68 F= -.35523170E+03 E0= -.35521573E+03  d E =-.154917E-02  mag=     8.0000
       N       E                     dE             d eps       ncg     rms          ort
SDA:   1    -0.355198475145E+03    0.33216E-01    0.00000E+00  7072   0.221E+00 0.000E+00
CGA:   2    -0.355206223220E+03   -0.77481E-02   -0.78012E-02  7072   0.123E+00-0.579E-03
CGA:   3    -0.355214384790E+03   -0.81616E-02   -0.81615E-02  7072   0.185E+00 0.323E-04
CGA:   4    -0.355225684737E+03   -0.11300E-01   -0.11301E-01  7072   0.669E-01 0.210E-03
CGA:   5    -0.355228451145E+03   -0.27664E-02   -0.27560E-02  7072   0.275E-01 0.160E-04
CGA:   6    -0.355230789923E+03   -0.23388E-02   -0.23378E-02  7072   0.190E-01 0.274E-04
CGA:   7    -0.355231903174E+03   -0.11133E-02   -0.11134E-02  7072   0.524E-02 0.148E-04
CGA:   8    -0.355232376020E+03   -0.47285E-03   -0.47357E-03  7072   0.300E-02-0.220E-04
CGA:   9    -0.355232474410E+03   -0.98390E-04   -0.98273E-04  7072   0.174E-02-0.123E-05
CGA:  10    -0.355232597982E+03   -0.12357E-03   -0.12358E-03  7072   0.122E-02-0.125E-05
CGA:  11    -0.355232652010E+03   -0.54028E-04   -0.53972E-04  7072   0.450E-03-0.292E-05
CGA:  12    -0.355232679411E+03   -0.27402E-04   -0.27400E-04  7072   0.274E-03-0.134E-05
CGA:  13    -0.355232705550E+03   -0.26139E-04   -0.26271E-04  7072   0.213E-03-0.389E-05
CGA:  14    -0.355232715053E+03   -0.95028E-05   -0.94707E-05  7072   0.166E-03-0.173E-05
  69 F= -.35523272E+03 E0= -.35521676E+03  d E =-.101884E-02  mag=     8.0000
       N       E                     dE             d eps       ncg     rms          ort
SDA:   1    -0.355219931866E+03    0.12774E-01    0.00000E+00  7072   0.120E+00 0.000E+00
CGA:   2    -0.355223096820E+03   -0.31650E-02   -0.31521E-02  7072   0.405E-01 0.299E-03
CGA:   3    -0.355225861585E+03   -0.27648E-02   -0.27637E-02  7072   0.607E-01 0.857E-04
CGA:   4    -0.355230365242E+03   -0.45037E-02   -0.45027E-02  7072   0.242E-01 0.496E-04
CGA:   5    -0.355231362357E+03   -0.99712E-03   -0.99697E-03  7072   0.103E-01 0.159E-05
CGA:   6    -0.355232235256E+03   -0.87290E-03   -0.87248E-03  7072   0.418E-02 0.119E-04
CGA:   7    -0.355232597516E+03   -0.36226E-03   -0.36229E-03  7072   0.325E-02-0.207E-05
CGA:   8    -0.355232743951E+03   -0.14643E-03   -0.14639E-03  7072   0.171E-02-0.341E-05
CGA:   9    -0.355232795049E+03   -0.51099E-04   -0.50965E-04  7072   0.420E-03-0.151E-05
CGA:  10    -0.355232838880E+03   -0.43831E-04   -0.43839E-04  7072   0.458E-03-0.124E-06
CGA:  11    -0.355232860673E+03   -0.21793E-04   -0.21770E-04  7072   0.162E-03-0.152E-05
CGA:  12    -0.355232870975E+03   -0.10303E-04   -0.10306E-04  7072   0.105E-03-0.164E-05
CGA:  13    -0.355232877766E+03   -0.67911E-05   -0.68010E-05  7072   0.761E-04-0.255E-05
  70 F= -.35523288E+03 E0= -.35521693E+03  d E =-.162714E-03  mag=     8.0000
       N       E                     dE             d eps       ncg     rms          ort
SDA:   1    -0.355193507826E+03    0.39363E-01    0.00000E+00  7072   0.315E+00 0.000E+00
CGA:   2    -0.355200854919E+03   -0.73471E-02   -0.74189E-02  7072   0.120E+00-0.225E-02
CGA:   3    -0.355216673133E+03   -0.15818E-01   -0.15881E-01  7072   0.177E+00-0.887E-03
CGA:   4    -0.355225793383E+03   -0.91202E-02   -0.91310E-02  7072   0.532E-01 0.278E-03
CGA:   5    -0.355228773863E+03   -0.29805E-02   -0.29823E-02  7072   0.346E-01 0.110E-03
CGA:   6    -0.355230505290E+03   -0.17314E-02   -0.17337E-02  7072   0.177E-01 0.522E-04
CGA:   7    -0.355231429009E+03   -0.92372E-03   -0.92324E-03  7072   0.177E-01-0.220E-04
CGA:   8    -0.355232169979E+03   -0.74097E-03   -0.74122E-03  7072   0.224E-02-0.623E-05
CGA:   9    -0.355232328018E+03   -0.15804E-03   -0.15801E-03  7072   0.160E-02 0.216E-05
CGA:  10    -0.355232476120E+03   -0.14810E-03   -0.14815E-03  7072   0.176E-02-0.143E-05
CGA:  11    -0.355232524687E+03   -0.48567E-04   -0.48448E-04  7072   0.409E-03-0.634E-06
CGA:  12    -0.355232555116E+03   -0.30430E-04   -0.30454E-04  7072   0.315E-03-0.169E-05
CGA:  13    -0.355232574533E+03   -0.19417E-04   -0.19419E-04  7072   0.229E-03-0.287E-05
CGA:  14    -0.355232589518E+03   -0.14985E-04   -0.14995E-04  7072   0.155E-03-0.217E-05
CGA:  15    -0.355232595880E+03   -0.63623E-05   -0.63349E-05  7072   0.729E-04-0.138E-05
  71 F= -.35523260E+03 E0= -.35521665E+03  d E =0.281886E-03  mag=     8.0000
       N       E                     dE             d eps       ncg     rms          ort
SDA:   1    -0.355089914503E+03    0.14268E+00    0.00000E+00  7072   0.497E+00 0.000E+00
CGA:   2    -0.355117769021E+03   -0.27855E-01   -0.27879E-01  7072   0.838E+00 0.285E-02
CGA:   3    -0.355183859861E+03   -0.66091E-01   -0.66133E-01  7072   0.625E+00-0.165E-02
CGA:   4    -0.355206108862E+03   -0.22249E-01   -0.22133E-01  7072   0.170E+00 0.101E-02
CGA:   5    -0.355217812231E+03   -0.11703E-01   -0.11718E-01  7072   0.122E+00-0.955E-03
CGA:   6    -0.355225682447E+03   -0.78702E-02   -0.78712E-02  7072   0.531E-01-0.114E-03
CGA:   7    -0.355228789876E+03   -0.31074E-02   -0.31071E-02  7072   0.336E-01-0.105E-03
CGA:   8    -0.355229771007E+03   -0.98113E-03   -0.98137E-03  7072   0.100E-01-0.475E-05
CGA:   9    -0.355230454017E+03   -0.68301E-03   -0.68266E-03  7072   0.667E-02 0.244E-04
CGA:  10    -0.355231040196E+03   -0.58618E-03   -0.58645E-03  7072   0.377E-02-0.740E-05
CGA:  11    -0.355231189837E+03   -0.14964E-03   -0.14950E-03  7072   0.181E-02 0.511E-06
CGA:  12    -0.355231303928E+03   -0.11409E-03   -0.11409E-03  7072   0.149E-02-0.417E-06
CGA:  13    -0.355231357207E+03   -0.53279E-04   -0.53223E-04  7072   0.712E-03-0.284E-05
CGA:  14    -0.355231430970E+03   -0.73764E-04   -0.73962E-04  7072   0.384E-03-0.447E-05
CGA:  15    -0.355231453234E+03   -0.22264E-04   -0.22258E-04  7072   0.230E-03-0.251E-05
CGA:  16    -0.355231466685E+03   -0.13451E-04   -0.13451E-04  7072   0.334E-03-0.577E-07
CGA:  17    -0.355231487891E+03   -0.21206E-04   -0.21207E-04  7072   0.187E-03-0.288E-06
CGA:  18    -0.355231499070E+03   -0.11179E-04   -0.11179E-04  7072   0.143E-03-0.318E-06
CGA:  19    -0.355231509463E+03   -0.10394E-04   -0.10397E-04  7072   0.122E-03-0.325E-06
CGA:  20    -0.355231518119E+03   -0.86558E-05   -0.86531E-05  7072   0.154E-03 0.223E-06
  72 F= -.35523152E+03 E0= -.35521553E+03  d E =0.107776E-02  mag=     8.0000
       N       E                     dE             d eps       ncg     rms          ort
SDA:   1    -0.355024939673E+03    0.20657E+00    0.00000E+00  7072   0.111E+01 0.000E+00
CGA:   2    -0.355058066557E+03   -0.33127E-01   -0.32866E-01  7072   0.749E+00 0.314E-02
CGA:   3    -0.355151446731E+03   -0.93380E-01   -0.93006E-01  7072   0.983E+00 0.582E-02
CGA:   4    -0.355194722262E+03   -0.43276E-01   -0.43013E-01  7072   0.197E+00-0.496E-03
CGA:   5    -0.355208675499E+03   -0.13953E-01   -0.13935E-01  7072   0.236E+00 0.128E-02
CGA:   6    -0.355223486971E+03   -0.14811E-01   -0.14811E-01  7072   0.548E-01-0.273E-03
CGA:   7    -0.355225231984E+03   -0.17450E-02   -0.17393E-02  7072   0.307E-01 0.820E-04
CGA:   8    -0.355227124484E+03   -0.18925E-02   -0.18925E-02  7072   0.189E-01 0.148E-04
CGA:   9    -0.355228422465E+03   -0.12980E-02   -0.12978E-02  7072   0.727E-02 0.149E-04
CGA:  10    -0.355228926251E+03   -0.50379E-03   -0.50358E-03  7072   0.416E-02 0.170E-04
CGA:  11    -0.355229145383E+03   -0.21913E-03   -0.21911E-03  7072   0.258E-02 0.121E-05
CGA:  12    -0.355229352253E+03   -0.20687E-03   -0.20680E-03  7072   0.248E-02 0.225E-05
CGA:  13    -0.355229443700E+03   -0.91447E-04   -0.91489E-04  7072   0.101E-02 0.118E-05
CGA:  14    -0.355229483627E+03   -0.39927E-04   -0.39990E-04  7072   0.429E-03 0.219E-05
CGA:  15    -0.355229541361E+03   -0.57734E-04   -0.57750E-04  7072   0.397E-03-0.473E-06
CGA:  16    -0.355229570927E+03   -0.29566E-04   -0.29558E-04  7072   0.329E-03 0.392E-06
CGA:  17    -0.355229586639E+03   -0.15712E-04   -0.15706E-04  7072   0.181E-03-0.689E-06
CGA:  18    -0.355229596635E+03   -0.99957E-05   -0.99976E-05  7072   0.208E-03 0.151E-06
CGA:  19    -0.355229611222E+03   -0.14586E-04   -0.14584E-04  7072   0.241E-03 0.187E-06
CGA:  20    -0.355229627889E+03   -0.16667E-04   -0.16667E-04  7072   0.727E-04-0.114E-06
CGA:  21    -0.355229635712E+03   -0.78238E-05   -0.78448E-05  7072   0.929E-04-0.569E-06
  73 F= -.35522964E+03 E0= -.35521368E+03  d E =0.188241E-02  mag=     8.0000
       N       E                     dE             d eps       ncg     rms          ort
SDA:   1    -0.354806230173E+03    0.42340E+00    0.00000E+00  7072   0.126E+01 0.000E+00
CGA:   2    -0.354919000404E+03   -0.11277E+00   -0.11160E+00  7072   0.324E+01 0.400E-01
CGA:   3    -0.355106221770E+03   -0.18722E+00   -0.18716E+00  7072   0.122E+01-0.156E-02
CGA:   4    -0.355149455269E+03   -0.43233E-01   -0.43543E-01  7072   0.542E+00-0.414E-02
CGA:   5    -0.355195893673E+03   -0.46438E-01   -0.46503E-01  7072   0.303E+00-0.213E-02
CGA:   6    -0.355213401674E+03   -0.17508E-01   -0.17503E-01  7072   0.149E+00-0.254E-03
CGA:   7    -0.355219217787E+03   -0.58161E-02   -0.58342E-02  7072   0.824E-01-0.144E-03
CGA:   8    -0.355222630715E+03   -0.34129E-02   -0.34353E-02  7072   0.320E-01-0.275E-04
CGA:   9    -0.355224977196E+03   -0.23465E-02   -0.23477E-02  7072   0.276E-01-0.692E-04
CGA:  10    -0.355226377795E+03   -0.14006E-02   -0.14017E-02  7072   0.969E-02 0.241E-04
CGA:  11    -0.355226870846E+03   -0.49305E-03   -0.49284E-03  7072   0.744E-02-0.439E-05
CGA:  12    -0.355227220570E+03   -0.34972E-03   -0.35004E-03  7072   0.515E-02 0.637E-05
CGA:  13    -0.355227495598E+03   -0.27503E-03   -0.27503E-03  7072   0.232E-02 0.689E-06
CGA:  14    -0.355227695341E+03   -0.19974E-03   -0.19963E-03  7072   0.127E-02 0.443E-05
CGA:  15    -0.355227742053E+03   -0.46711E-04   -0.46653E-04  7072   0.755E-03-0.157E-05
CGA:  16    -0.355227804660E+03   -0.62608E-04   -0.62647E-04  7072   0.117E-02-0.189E-05
CGA:  17    -0.355227860691E+03   -0.56031E-04   -0.56005E-04  7072   0.392E-03-0.148E-05
CGA:  18    -0.355227887337E+03   -0.26646E-04   -0.26641E-04  7072   0.288E-03 0.554E-06
CGA:  19    -0.355227908033E+03   -0.20697E-04   -0.20688E-04  7072   0.384E-03 0.748E-06
CGA:  20    -0.355227926217E+03   -0.18184E-04   -0.18204E-04  7072   0.276E-03 0.112E-05
CGA:  21    -0.355227948983E+03   -0.22765E-04   -0.22759E-04  7072   0.209E-03 0.196E-06
CGA:  22    -0.355227958907E+03   -0.99245E-05   -0.99330E-05  7072   0.903E-04 0.486E-06
  74 F= -.35522796E+03 E0= -.35521198E+03  d E =0.167681E-02  mag=     8.0000
       N       E                     dE             d eps       ncg     rms          ort
SDA:   1    -0.353951382827E+03    0.12766E+01    0.00000E+00  7072   0.405E+01 0.000E+00
CGA:   2    -0.354199541444E+03   -0.24816E+00   -0.24827E+00  7072   0.853E+01 0.371E-01
CGA:   3    -0.354906130840E+03   -0.70659E+00   -0.70773E+00  7072   0.292E+01-0.561E-01
CGA:   4    -0.355022960426E+03   -0.11683E+00   -0.11417E+00  7072   0.123E+01 0.124E-01
CGA:   5    -0.355135874785E+03   -0.11291E+00   -0.11315E+00  7072   0.136E+01-0.675E-02
CGA:   6    -0.355188790644E+03   -0.52916E-01   -0.52958E-01  7072   0.315E+00-0.431E-03
CGA:   7    -0.355198541421E+03   -0.97508E-02   -0.97628E-02  7072   0.156E+00-0.230E-03
CGA:   8    -0.355211503464E+03   -0.12962E-01   -0.12914E-01  7072   0.100E+00 0.168E-02
CGA:   9    -0.355217805485E+03   -0.63020E-02   -0.63020E-02  7072   0.427E-01-0.600E-04
CGA:  10    -0.355219883210E+03   -0.20777E-02   -0.20786E-02  7072   0.325E-01 0.269E-04
CGA:  11    -0.355221193269E+03   -0.13101E-02   -0.13086E-02  7072   0.153E-01 0.772E-05
CGA:  12    -0.355222428160E+03   -0.12349E-02   -0.12333E-02  7072   0.149E-01 0.591E-04
CGA:  13    -0.355223040637E+03   -0.61248E-03   -0.61306E-03  7072   0.320E-02-0.116E-04
CGA:  14    -0.355223275273E+03   -0.23464E-03   -0.23458E-03  7072   0.406E-02 0.206E-05
CGA:  15    -0.355223471403E+03   -0.19613E-03   -0.19607E-03  7072   0.307E-02-0.392E-05
CGA:  16    -0.355223634029E+03   -0.16263E-03   -0.16267E-03  7072   0.134E-02-0.178E-05
CGA:  17    -0.355223734391E+03   -0.10036E-03   -0.10033E-03  7072   0.736E-03 0.567E-06
CGA:  18    -0.355223772057E+03   -0.37666E-04   -0.37660E-04  7072   0.800E-03-0.166E-05
CGA:  19    -0.355223837527E+03   -0.65470E-04   -0.65446E-04  7072   0.106E-02 0.693E-06
CGA:  20    -0.355223886561E+03   -0.49034E-04   -0.49090E-04  7072   0.407E-03 0.195E-05
CGA:  21    -0.355223909475E+03   -0.22914E-04   -0.22919E-04  7072   0.247E-03 0.604E-06
CGA:  22    -0.355223935104E+03   -0.25628E-04   -0.25655E-04  7072   0.337E-03-0.832E-06
CGA:  23    -0.355223947681E+03   -0.12577E-04   -0.12581E-04  7072   0.212E-03-0.102E-07
CGA:  24    -0.355223964805E+03   -0.17124E-04   -0.17108E-04  7072   0.101E-03 0.521E-06
CGA:  25    -0.355223969627E+03   -0.48224E-05   -0.48333E-05  7072   0.643E-04 0.585E-06
  75 F= -.35522397E+03 E0= -.35520797E+03  d E =0.398928E-02  mag=     8.0000
       N       E                     dE             d eps       ncg     rms          ort
SDA:   1    -0.354059650133E+03    0.11643E+01    0.00000E+00  7072   0.353E+01 0.000E+00
CGA:   2    -0.354318291252E+03   -0.25864E+00   -0.25783E+00  7072   0.863E+01 0.583E-01
CGA:   3    -0.354925387321E+03   -0.60710E+00   -0.60739E+00  7072   0.262E+01-0.345E-01
CGA:   4    -0.355035281482E+03   -0.10989E+00   -0.10818E+00  7072   0.123E+01 0.390E-02
CGA:   5    -0.355140732464E+03   -0.10545E+00   -0.10512E+00  7072   0.122E+01 0.116E-01
CGA:   6    -0.355187354319E+03   -0.46622E-01   -0.46509E-01  7072   0.314E+00 0.774E-03
CGA:   7    -0.355198583551E+03   -0.11229E-01   -0.11308E-01  7072   0.180E+00-0.761E-03
CGA:   8    -0.355210759378E+03   -0.12176E-01   -0.12162E-01  7072   0.845E-01 0.140E-02
CGA:   9    -0.355217068217E+03   -0.63088E-02   -0.63145E-02  7072   0.524E-01-0.313E-03
CGA:  10    -0.355219372337E+03   -0.23041E-02   -0.23093E-02  7072   0.330E-01 0.436E-04
CGA:  11    -0.355220639295E+03   -0.12670E-02   -0.12718E-02  7072   0.134E-01-0.744E-05
CGA:  12    -0.355222007251E+03   -0.13680E-02   -0.13661E-02  7072   0.127E-01 0.403E-04
CGA:  13    -0.355222522287E+03   -0.51504E-03   -0.51598E-03  7072   0.437E-02 0.806E-07
CGA:  14    -0.355222748577E+03   -0.22629E-03   -0.22642E-03  7072   0.337E-02 0.365E-05
CGA:  15    -0.355222924468E+03   -0.17589E-03   -0.17596E-03  7072   0.274E-02 0.323E-05
CGA:  16    -0.355223099071E+03   -0.17460E-03   -0.17458E-03  7072   0.175E-02 0.246E-05
CGA:  17    -0.355223221237E+03   -0.12217E-03   -0.12214E-03  7072   0.729E-03 0.181E-05
CGA:  18    -0.355223251705E+03   -0.30467E-04   -0.30467E-04  7072   0.720E-03-0.116E-05
CGA:  19    -0.355223326486E+03   -0.74782E-04   -0.74793E-04  7072   0.871E-03-0.558E-06
CGA:  20    -0.355223380391E+03   -0.53905E-04   -0.53906E-04  7072   0.416E-03 0.148E-05
CGA:  21    -0.355223401630E+03   -0.21239E-04   -0.21239E-04  7072   0.366E-03-0.440E-06
CGA:  22    -0.355223427717E+03   -0.26086E-04   -0.26095E-04  7072   0.377E-03-0.118E-05
CGA:  23    -0.355223444945E+03   -0.17228E-04   -0.17226E-04  7072   0.249E-03-0.261E-06
CGA:  24    -0.355223467302E+03   -0.22357E-04   -0.22392E-04  7072   0.123E-03-0.144E-05
CGA:  25    -0.355223473410E+03   -0.61076E-05   -0.61084E-05  7072   0.977E-04-0.711E-07
  76 F= -.35522347E+03 E0= -.35520761E+03  d E =0.496217E-03  mag=     8.0000
       N       E                     dE             d eps       ncg     rms          ort
SDA:   1    -0.355045749444E+03    0.17772E+00    0.00000E+00  7072   0.112E+01 0.000E+00
CGA:   2    -0.355077718352E+03   -0.31969E-01   -0.31562E-01  7072   0.628E+00 0.698E-02
CGA:   3    -0.355144961194E+03   -0.67243E-01   -0.67368E-01  7072   0.938E+00-0.235E-02
CGA:   4    -0.355188524804E+03   -0.43564E-01   -0.43785E-01  7072   0.280E+00 0.230E-02
CGA:   5    -0.355203737806E+03   -0.15213E-01   -0.15235E-01  7072   0.179E+00 0.102E-02
CGA:   6    -0.355215891582E+03   -0.12154E-01   -0.12150E-01  7072   0.973E-01 0.320E-03
CGA:   7    -0.355219937394E+03   -0.40458E-02   -0.40334E-02  7072   0.714E-01-0.279E-04
CGA:   8    -0.355222898525E+03   -0.29611E-02   -0.29607E-02  7072   0.176E-01-0.657E-05
CGA:   9    -0.355224167294E+03   -0.12688E-02   -0.12685E-02  7072   0.900E-02 0.153E-04
CGA:  10    -0.355225039349E+03   -0.87206E-03   -0.87200E-03  7072   0.582E-02 0.139E-05
CGA:  11    -0.355225268844E+03   -0.22949E-03   -0.22968E-03  7072   0.309E-02-0.332E-05
CGA:  12    -0.355225447471E+03   -0.17863E-03   -0.17862E-03  7072   0.265E-02-0.156E-05
CGA:  13    -0.355225555855E+03   -0.10838E-03   -0.10842E-03  7072   0.132E-02 0.893E-06
CGA:  14    -0.355225663184E+03   -0.10733E-03   -0.10742E-03  7072   0.863E-03-0.452E-05
CGA:  15    -0.355225710372E+03   -0.47188E-04   -0.47176E-04  7072   0.215E-03-0.217E-05
CGA:  16    -0.355225744813E+03   -0.34440E-04   -0.34460E-04  7072   0.413E-03-0.336E-06
CGA:  17    -0.355225759171E+03   -0.14358E-04   -0.14342E-04  7072   0.190E-03-0.514E-06
CGA:  18    -0.355225769273E+03   -0.10102E-04   -0.10098E-04  7072   0.117E-03-0.455E-06
CGA:  19    -0.355225775514E+03   -0.62410E-05   -0.62360E-05  7072   0.798E-04-0.561E-06
  77 F= -.35522578E+03 E0= -.35520984E+03  d E =-.230210E-02  mag=     8.0000
       N       E                     dE             d eps       ncg     rms          ort
SDA:   1    -0.355154846374E+03    0.70923E-01    0.00000E+00  7072   0.261E+00 0.000E+00
CGA:   2    -0.355174279916E+03   -0.19434E-01   -0.19359E-01  7072   0.294E+00 0.494E-02
CGA:   3    -0.355202836429E+03   -0.28557E-01   -0.28537E-01  7072   0.314E+00 0.562E-03
CGA:   4    -0.355213968883E+03   -0.11132E-01   -0.11063E-01  7072   0.939E-01 0.866E-03
CGA:   5    -0.355218214616E+03   -0.42457E-02   -0.42303E-02  7072   0.731E-01-0.311E-04
CGA:   6    -0.355222390526E+03   -0.41759E-02   -0.41759E-02  7072   0.308E-01 0.140E-04
CGA:   7    -0.355224278767E+03   -0.18882E-02   -0.18882E-02  7072   0.111E-01 0.470E-05
CGA:   8    -0.355224996966E+03   -0.71820E-03   -0.71820E-03  7072   0.368E-02 0.122E-05
CGA:   9    -0.355225262653E+03   -0.26569E-03   -0.26567E-03  7072   0.595E-02 0.249E-05
CGA:  10    -0.355225505873E+03   -0.24322E-03   -0.24325E-03  7072   0.168E-02 0.524E-05
CGA:  11    -0.355225589538E+03   -0.83665E-04   -0.83681E-04  7072   0.869E-03 0.855E-06
CGA:  12    -0.355225643328E+03   -0.53790E-04   -0.53791E-04  7072   0.615E-03 0.173E-05
CGA:  13    -0.355225687668E+03   -0.44340E-04   -0.44341E-04  7072   0.346E-03-0.914E-07
CGA:  14    -0.355225708188E+03   -0.20520E-04   -0.20527E-04  7072   0.236E-03 0.180E-05
CGA:  15    -0.355225715664E+03   -0.74757E-05   -0.74879E-05  7072   0.900E-04 0.389E-06
  78 F= -.35522572E+03 E0= -.35520977E+03  d E =0.598495E-04  mag=     8.0000
