       N       E                     dE             d eps       ncg     rms          ort
DAV:   1     0.602146266202E+04    0.60215E+04   -0.27005E+05  8112   0.166E+03
DAV:   2     0.347439243407E+03   -0.56740E+04   -0.51852E+04  8112   0.463E+02
DAV:   3    -0.365180641990E+03   -0.71262E+03   -0.69799E+03  8112   0.183E+02
DAV:   4    -0.387027026584E+03   -0.21846E+02   -0.21712E+02  8112   0.333E+01
DAV:   5    -0.387366659702E+03   -0.33963E+00   -0.33809E+00  8112   0.398E+00
SDA:   6    -0.121222778773E+03    0.26614E+03   -0.33809E+00  8112   0.118E+04 0.000E+00
CGA:   7    -0.259959700951E+03   -0.13874E+03   -0.13995E+03  8112   0.435E+03-0.274E+01
CGA:   8    -0.277568565886E+03   -0.17609E+02   -0.29798E+02  8112   0.315E+03-0.140E+03
CGA:   9    -0.286744407501E+03   -0.91758E+01   -0.11784E+02  8112   0.352E+03-0.673E+02
CGA:  10    -0.293054243166E+03   -0.63098E+01   -0.16867E+02  8112   0.232E+03-0.148E+02
CGA:  11    -0.292276173152E+03    0.77807E+00   -0.14230E+02  8112   0.237E+03-0.413E+02
CGA:  12    -0.295148109404E+03   -0.28719E+01   -0.60746E+01  8112   0.420E+03-0.186E+03
CGA:  13    -0.301524056055E+03   -0.63759E+01   -0.21503E+02  8112   0.132E+03-0.477E+02
CGA:  14    -0.307082296543E+03   -0.55582E+01   -0.48101E+01  8112   0.209E+03 0.519E+02
CGA:  15    -0.292562575794E+03    0.14520E+02   -0.14593E+02  8112   0.246E+03-0.104E+03
CGA:  16    -0.298718434575E+03   -0.61559E+01   -0.26989E+01  8112   0.265E+03 0.318E+03
CGA:  17    -0.306983165275E+03   -0.82647E+01   -0.39904E+01  8112   0.163E+03 0.249E+03
CGA:  18    -0.312978828333E+03   -0.59957E+01   -0.53070E+01  8112   0.907E+02-0.188E+03
CGA:  19    -0.312475341597E+03    0.50349E+00   -0.34917E+01  8112   0.925E+02-0.684E+02
CGA:  20    -0.311385179945E+03    0.10902E+01   -0.39206E+01  8112   0.117E+03-0.813E+02
CGA:  21    -0.312593548346E+03   -0.12084E+01   -0.41233E+01  8112   0.100E+03-0.112E+03
CGA:  22    -0.312448040222E+03    0.14551E+00   -0.39830E+01  8112   0.108E+03-0.900E+02
CGA:  23    -0.313721120406E+03   -0.12731E+01   -0.36831E+01  8112   0.749E+02-0.906E+02
CGA:  24    -0.314396145454E+03   -0.67503E+00   -0.25349E+01  8112   0.616E+02-0.680E+02
CGA:  25    -0.314986013464E+03   -0.58987E+00   -0.19725E+01  8112   0.362E+02-0.427E+02
CGA:  26    -0.315519719231E+03   -0.53371E+00   -0.10525E+01  8112   0.151E+02-0.209E+02
CGA:  27    -0.315793924994E+03   -0.27421E+00   -0.39162E+00  8112   0.398E+01-0.445E+01
CGA:  28    -0.316107412047E+03   -0.31349E+00   -0.30685E+00  8112   0.477E+01 0.293E+00
CGA:  29    -0.316411553986E+03   -0.30414E+00   -0.30350E+00  8112   0.301E+01 0.183E+00
CGA:  30    -0.316696104218E+03   -0.28455E+00   -0.28421E+00  8112   0.160E+01-0.570E-01
CGA:  31    -0.316788008167E+03   -0.91904E-01   -0.90717E-01  8112   0.820E+00 0.151E-01
CGA:  32    -0.316883429297E+03   -0.95421E-01   -0.91748E-01  8112   0.545E+00 0.121E+00
CGA:  33    -0.316934280858E+03   -0.50852E-01   -0.52071E-01  8112   0.270E+00 0.577E-01
CGA:  34    -0.316962160416E+03   -0.27880E-01   -0.27805E-01  8112   0.148E+00 0.266E-01
CGA:  35    -0.316983147402E+03   -0.20987E-01   -0.20275E-01  8112   0.918E-01 0.153E-01
CGA:  36    -0.316995445891E+03   -0.12298E-01   -0.11944E-01  8112   0.484E-01 0.101E-01
CGA:  37    -0.317002204264E+03   -0.67584E-02   -0.67243E-02  8112   0.361E-01 0.788E-03
CGA:  38    -0.317008144817E+03   -0.59406E-02   -0.56896E-02  8112   0.160E-01 0.367E-02
CGA:  39    -0.317010167812E+03   -0.20230E-02   -0.20281E-02  8112   0.110E-01-0.237E-03
CGA:  40    -0.317012226191E+03   -0.20584E-02   -0.19715E-02  8112   0.595E-02 0.971E-03
CGA:  41    -0.317012954023E+03   -0.72783E-03   -0.73025E-03  8112   0.277E-02-0.195E-03
CGA:  42    -0.317013395652E+03   -0.44163E-03   -0.43706E-03  8112   0.200E-02 0.577E-04
CGA:  43    -0.317013684365E+03   -0.28871E-03   -0.29120E-03  8112   0.946E-03-0.612E-04
CGA:  44    -0.317013812035E+03   -0.12767E-03   -0.12722E-03  8112   0.526E-03 0.878E-05
CGA:  45    -0.317013891678E+03   -0.79642E-04   -0.79979E-04  8112   0.322E-03-0.605E-05
CGA:  46    -0.317013943928E+03   -0.52250E-04   -0.51689E-04  8112   0.174E-03 0.105E-04
CGA:  47    -0.317013965449E+03   -0.21521E-04   -0.21504E-04  8112   0.853E-04 0.484E-05
CGA:  48    -0.317013982172E+03   -0.16723E-04   -0.16239E-04  8112   0.514E-04 0.684E-05
CGA:  49    -0.317013990031E+03   -0.78593E-05   -0.78083E-05  8112   0.314E-04 0.238E-05
   1 F= -.31701399E+03 E0= -.31700959E+03  d E =-.317014E+03  mag=    44.0000
       N       E                     dE             d eps       ncg     rms          ort
SDA:   1    -0.317026704757E+03   -0.12723E-01    0.00000E+00  8112   0.746E-02 0.000E+00
CGA:   2    -0.317027141489E+03   -0.43673E-03   -0.43997E-03  8112   0.146E-02-0.304E-04
CGA:   3    -0.317027453264E+03   -0.31178E-03   -0.31209E-03  8112   0.953E-03-0.321E-05
CGA:   4    -0.317027560848E+03   -0.10758E-03   -0.10760E-03  8112   0.214E-03 0.108E-05
CGA:   5    -0.317027598810E+03   -0.37962E-04   -0.37917E-04  8112   0.762E-04 0.834E-06
CGA:   6    -0.317027606846E+03   -0.80353E-05   -0.80321E-05  8112   0.253E-04-0.151E-06
   2 F= -.31702761E+03 E0= -.31702320E+03  d E =-.136168E-01  mag=    44.0000
       N       E                     dE             d eps       ncg     rms          ort
SDA:   1    -0.316944034844E+03    0.83564E-01    0.00000E+00  8112   0.105E+01 0.000E+00
CGA:   2    -0.317246712524E+03   -0.30268E+00   -0.30348E+00  8112   0.555E+00-0.537E-02
CGA:   3    -0.317300327200E+03   -0.53615E-01   -0.54489E-01  8112   0.320E+00 0.382E-02
CGA:   4    -0.317340886208E+03   -0.40559E-01   -0.40534E-01  8112   0.567E-01-0.207E-02
CGA:   5    -0.317348913618E+03   -0.80274E-02   -0.80264E-02  8112   0.265E-01 0.505E-04
CGA:   6    -0.317351794864E+03   -0.28812E-02   -0.28789E-02  8112   0.973E-02-0.310E-04
CGA:   7    -0.317353090254E+03   -0.12954E-02   -0.12953E-02  8112   0.422E-02 0.246E-04
CGA:   8    -0.317353586194E+03   -0.49594E-03   -0.49584E-03  8112   0.218E-02-0.736E-06
CGA:   9    -0.317353940232E+03   -0.35404E-03   -0.35379E-03  8112   0.995E-03 0.693E-05
CGA:  10    -0.317354082215E+03   -0.14198E-03   -0.14196E-03  8112   0.696E-03 0.229E-05
CGA:  11    -0.317354182498E+03   -0.10028E-03   -0.10025E-03  8112   0.347E-03 0.246E-05
CGA:  12    -0.317354231434E+03   -0.48936E-04   -0.48928E-04  8112   0.219E-03 0.117E-05
CGA:  13    -0.317354262141E+03   -0.30707E-04   -0.30695E-04  8112   0.981E-04 0.189E-05
CGA:  14    -0.317354276240E+03   -0.14099E-04   -0.14086E-04  8112   0.514E-04 0.153E-05
CGA:  15    -0.317354283211E+03   -0.69714E-05   -0.69722E-05  8112   0.255E-04 0.137E-05
   3 F= -.31735428E+03 E0= -.31734982E+03  d E =-.326676E+00  mag=    44.0000
       N       E                     dE             d eps       ncg     rms          ort
SDA:   1    -0.315209180329E+03    0.21451E+01    0.00000E+00  8112   0.725E+01 0.000E+00
CGA:   2    -0.317320581827E+03   -0.21114E+01   -0.21169E+01  8112   0.341E+01-0.336E-01
CGA:   3    -0.317681795312E+03   -0.36121E+00   -0.37031E+00  8112   0.211E+01 0.609E-01
CGA:   4    -0.317921315443E+03   -0.23952E+00   -0.23563E+00  8112   0.441E+00-0.260E-01
CGA:   5    -0.317976845069E+03   -0.55530E-01   -0.55571E-01  8112   0.188E+00 0.147E-02
CGA:   6    -0.317998097916E+03   -0.21253E-01   -0.21202E-01  8112   0.708E-01-0.535E-03
CGA:   7    -0.318007327027E+03   -0.92291E-02   -0.92342E-02  8112   0.317E-01 0.388E-03
CGA:   8    -0.318010844454E+03   -0.35174E-02   -0.35118E-02  8112   0.159E-01-0.483E-04
CGA:   9    -0.318013232646E+03   -0.23882E-02   -0.23863E-02  8112   0.739E-02 0.786E-04
CGA:  10    -0.318014296794E+03   -0.10641E-02   -0.10642E-02  8112   0.473E-02 0.358E-07
CGA:  11    -0.318014928916E+03   -0.63212E-03   -0.63220E-03  8112   0.259E-02 0.179E-04
CGA:  12    -0.318015284813E+03   -0.35590E-03   -0.35590E-03  8112   0.154E-02 0.163E-05
CGA:  13    -0.318015490579E+03   -0.20577E-03   -0.20579E-03  8112   0.742E-03 0.637E-05
CGA:  14    -0.318015599456E+03   -0.10888E-03   -0.10884E-03  8112   0.364E-03 0.392E-05
CGA:  15    -0.318015646215E+03   -0.46759E-04   -0.46793E-04  8112   0.213E-03 0.357E-05
CGA:  16    -0.318015673355E+03   -0.27139E-04   -0.27166E-04  8112   0.941E-04 0.270E-05
CGA:  17    -0.318015687328E+03   -0.13974E-04   -0.13957E-04  8112   0.586E-04 0.154E-05
CGA:  18    -0.318015695965E+03   -0.86369E-05   -0.86297E-05  8112   0.306E-04 0.831E-06
   4 F= -.31801570E+03 E0= -.31801111E+03  d E =-.661413E+00  mag=    44.0000
       N       E                     dE             d eps       ncg     rms          ort
SDA:   1    -0.314190604007E+03    0.38251E+01    0.00000E+00  8112   0.112E+02 0.000E+00
CGA:   2    -0.317486795843E+03   -0.32962E+01   -0.32962E+01  8112   0.445E+01 0.659E-02
CGA:   3    -0.318137131987E+03   -0.65034E+00   -0.65023E+00  8112   0.265E+01 0.729E-01
CGA:   4    -0.318380440997E+03   -0.24331E+00   -0.23230E+00  8112   0.705E+00 0.299E-01
CGA:   5    -0.318468060313E+03   -0.87619E-01   -0.87775E-01  8112   0.267E+00 0.272E-02
CGA:   6    -0.318498224437E+03   -0.30164E-01   -0.30172E-01  8112   0.107E+00 0.105E-03
CGA:   7    -0.318513315658E+03   -0.15091E-01   -0.15091E-01  8112   0.338E-01 0.211E-03
CGA:   8    -0.318518363261E+03   -0.50476E-02   -0.50493E-02  8112   0.255E-01-0.100E-03
CGA:   9    -0.318520903154E+03   -0.25399E-02   -0.25484E-02  8112   0.100E-01 0.263E-04
CGA:  10    -0.318522435460E+03   -0.15323E-02   -0.15325E-02  8112   0.593E-02-0.314E-05
CGA:  11    -0.318523276879E+03   -0.84142E-03   -0.84137E-03  8112   0.292E-02 0.112E-04
CGA:  12    -0.318523748713E+03   -0.47183E-03   -0.47178E-03  8112   0.190E-02 0.364E-05
CGA:  13    -0.318523963585E+03   -0.21487E-03   -0.21512E-03  8112   0.105E-02 0.518E-05
CGA:  14    -0.318524096774E+03   -0.13319E-03   -0.13323E-03  8112   0.447E-03 0.373E-05
CGA:  15    -0.318524160864E+03   -0.64090E-04   -0.64072E-04  8112   0.235E-03 0.408E-05
CGA:  16    -0.318524193857E+03   -0.32993E-04   -0.32991E-04  8112   0.103E-03 0.286E-05
CGA:  17    -0.318524208452E+03   -0.14595E-04   -0.14592E-04  8112   0.811E-04 0.167E-05
CGA:  18    -0.318524218087E+03   -0.96350E-05   -0.96551E-05  8112   0.357E-04 0.947E-06
   5 F= -.31852422E+03 E0= -.31851953E+03  d E =-.508522E+00  mag=    44.0000
       N       E                     dE             d eps       ncg     rms          ort
SDA:   1    -0.311037087660E+03    0.74871E+01    0.00000E+00  8112   0.202E+02 0.000E+00
CGA:   2    -0.316668615148E+03   -0.56315E+01   -0.56258E+01  8112   0.138E+02 0.760E-01
CGA:   3    -0.317841809271E+03   -0.11732E+01   -0.12318E+01  8112   0.622E+01-0.196E+00
CGA:   4    -0.318571919206E+03   -0.73011E+00   -0.71022E+00  8112   0.160E+01-0.156E+00
CGA:   5    -0.318775693526E+03   -0.20377E+00   -0.20424E+00  8112   0.560E+00 0.167E-01
CGA:   6    -0.318832953507E+03   -0.57260E-01   -0.56604E-01  8112   0.266E+00-0.927E-03
CGA:   7    -0.318864373770E+03   -0.31420E-01   -0.31513E-01  8112   0.102E+00 0.160E-02
CGA:   8    -0.318875347903E+03   -0.10974E-01   -0.10953E-01  8112   0.491E-01-0.922E-04
CGA:   9    -0.318882391397E+03   -0.70435E-02   -0.70382E-02  8112   0.197E-01 0.453E-03
CGA:  10    -0.318884860927E+03   -0.24695E-02   -0.24695E-02  8112   0.137E-01 0.326E-05
CGA:  11    -0.318886544686E+03   -0.16838E-02   -0.16858E-02  8112   0.638E-02 0.624E-04
CGA:  12    -0.318887409745E+03   -0.86506E-03   -0.86506E-03  8112   0.349E-02 0.537E-05
CGA:  13    -0.318887965152E+03   -0.55541E-03   -0.55483E-03  8112   0.214E-02 0.187E-04
CGA:  14    -0.318888192391E+03   -0.22724E-03   -0.22737E-03  8112   0.105E-02 0.495E-05
CGA:  15    -0.318888339358E+03   -0.14697E-03   -0.14693E-03  8112   0.512E-03 0.722E-05
CGA:  16    -0.318888408518E+03   -0.69159E-04   -0.69165E-04  8112   0.228E-03 0.440E-05
CGA:  17    -0.318888436211E+03   -0.27693E-04   -0.27736E-04  8112   0.135E-03 0.261E-05
CGA:  18    -0.318888454246E+03   -0.18035E-04   -0.18040E-04  8112   0.667E-04 0.189E-05
CGA:  19    -0.318888463155E+03   -0.89091E-05   -0.89115E-05  8112   0.361E-04 0.780E-06
   6 F= -.31888846E+03 E0= -.31888372E+03  d E =-.364245E+00  mag=    44.0000
       N       E                     dE             d eps       ncg     rms          ort
SDA:   1    -0.303702627226E+03    0.15186E+02    0.00000E+00  8112   0.405E+02 0.000E+00
CGA:   2    -0.313887929330E+03   -0.10185E+02   -0.10042E+02  8112   0.350E+02 0.109E+01
CGA:   3    -0.316975214882E+03   -0.30873E+01   -0.29123E+01  8112   0.110E+02 0.168E+00
CGA:   4    -0.318473752904E+03   -0.14985E+01   -0.14923E+01  8112   0.374E+01-0.712E+00
CGA:   5    -0.318891925682E+03   -0.41817E+00   -0.41972E+00  8112   0.148E+01 0.295E-01
CGA:   6    -0.319011604252E+03   -0.11968E+00   -0.11654E+00  8112   0.582E+00 0.168E-01
CGA:   7    -0.319083570556E+03   -0.71966E-01   -0.72193E-01  8112   0.266E+00 0.809E-02
CGA:   8    -0.319111849706E+03   -0.28279E-01   -0.28250E-01  8112   0.105E+00-0.149E-03
CGA:   9    -0.319124512583E+03   -0.12663E-01   -0.12717E-01  8112   0.663E-01 0.214E-02
CGA:  10    -0.319131720138E+03   -0.72076E-02   -0.72223E-02  8112   0.248E-01 0.170E-03
CGA:  11    -0.319135004588E+03   -0.32844E-02   -0.32834E-02  8112   0.169E-01 0.325E-03
CGA:  12    -0.319137338616E+03   -0.23340E-02   -0.23337E-02  8112   0.788E-02 0.393E-04
CGA:  13    -0.319138270806E+03   -0.93219E-03   -0.93380E-03  8112   0.534E-02 0.565E-04
CGA:  14    -0.319139032723E+03   -0.76192E-03   -0.76147E-03  8112   0.232E-02 0.276E-04
CGA:  15    -0.319139327213E+03   -0.29449E-03   -0.29459E-03  8112   0.116E-02 0.139E-04
CGA:  16    -0.319139473692E+03   -0.14648E-03   -0.14652E-03  8112   0.692E-03 0.718E-05
CGA:  17    -0.319139552303E+03   -0.78611E-04   -0.78718E-04  8112   0.217E-03 0.523E-05
CGA:  18    -0.319139583526E+03   -0.31224E-04   -0.31191E-04  8112   0.128E-03 0.245E-05
CGA:  19    -0.319139599609E+03   -0.16083E-04   -0.16093E-04  8112   0.706E-04 0.141E-05
CGA:  20    -0.319139608053E+03   -0.84433E-05   -0.84510E-05  8112   0.285E-04 0.658E-06
   7 F= -.31913961E+03 E0= -.31913481E+03  d E =-.251145E+00  mag=    44.0000
       N       E                     dE             d eps       ncg     rms          ort
SDA:   1    -0.302868725531E+03    0.16271E+02    0.00000E+00  8112   0.404E+02 0.000E+00
CGA:   2    -0.315007354594E+03   -0.12139E+02   -0.12180E+02  8112   0.245E+02-0.224E+00
CGA:   3    -0.317689918194E+03   -0.26826E+01   -0.27105E+01  8112   0.857E+01 0.750E+00
CGA:   4    -0.318735740146E+03   -0.10458E+01   -0.10391E+01  8112   0.274E+01-0.729E-01
CGA:   5    -0.319036800371E+03   -0.30106E+00   -0.30257E+00  8112   0.119E+01 0.160E-01
CGA:   6    -0.319148977968E+03   -0.11218E+00   -0.11090E+00  8112   0.464E+00-0.219E-02
CGA:   7    -0.319207575707E+03   -0.58598E-01   -0.58639E-01  8112   0.163E+00 0.273E-02
CGA:   8    -0.319228861928E+03   -0.21286E-01   -0.21277E-01  8112   0.658E-01-0.110E-02
CGA:   9    -0.319238815944E+03   -0.99540E-02   -0.99305E-02  8112   0.296E-01 0.778E-03
CGA:  10    -0.319242408460E+03   -0.35925E-02   -0.35926E-02  8112   0.194E-01 0.135E-04
CGA:  11    -0.319244743833E+03   -0.23354E-02   -0.23369E-02  8112   0.108E-01 0.613E-04
CGA:  12    -0.319246086132E+03   -0.13423E-02   -0.13429E-02  8112   0.473E-02 0.387E-04
CGA:  13    -0.319246990757E+03   -0.90463E-03   -0.90198E-03  8112   0.271E-02 0.398E-04
CGA:  14    -0.319247307096E+03   -0.31634E-03   -0.31646E-03  8112   0.150E-02 0.625E-05
CGA:  15    -0.319247493573E+03   -0.18648E-03   -0.18657E-03  8112   0.831E-03 0.747E-05
CGA:  16    -0.319247584157E+03   -0.90584E-04   -0.90717E-04  8112   0.270E-03 0.511E-05
CGA:  17    -0.319247623520E+03   -0.39363E-04   -0.39326E-04  8112   0.121E-03 0.283E-05
CGA:  18    -0.319247641106E+03   -0.17586E-04   -0.17573E-04  8112   0.640E-04 0.121E-05
CGA:  19    -0.319247647308E+03   -0.62021E-05   -0.62172E-05  8112   0.297E-04 0.377E-06
   8 F= -.31924765E+03 E0= -.31924268E+03  d E =-.108039E+00  mag=    44.0000
       N       E                     dE             d eps       ncg     rms          ort
SDA:   1    -0.292523438130E+03    0.26724E+02    0.00000E+00  8112   0.661E+02 0.000E+00
CGA:   2    -0.311718004463E+03   -0.19195E+02   -0.19369E+02  8112   0.530E+02-0.978E+00
CGA:   3    -0.316291084823E+03   -0.45731E+01   -0.46414E+01  8112   0.146E+02 0.276E+01
CGA:   4    -0.318378811400E+03   -0.20877E+01   -0.20858E+01  8112   0.550E+01-0.362E+00
CGA:   5    -0.318846371474E+03   -0.46756E+00   -0.47822E+00  8112   0.242E+01-0.397E-01
CGA:   6    -0.319102228670E+03   -0.25586E+00   -0.25460E+00  8112   0.776E+00-0.924E-02
CGA:   7    -0.319201000826E+03   -0.98772E-01   -0.98863E-01  8112   0.325E+00 0.651E-02
CGA:   8    -0.319240155835E+03   -0.39155E-01   -0.39102E-01  8112   0.132E+00-0.131E-02
CGA:   9    -0.319255644640E+03   -0.15489E-01   -0.15535E-01  8112   0.820E-01 0.111E-02
CGA:  10    -0.319264060559E+03   -0.84159E-02   -0.84300E-02  8112   0.307E-01 0.103E-03
CGA:  11    -0.319269274634E+03   -0.52141E-02   -0.51967E-02  8112   0.173E-01 0.342E-03
CGA:  12    -0.319271449565E+03   -0.21749E-02   -0.21756E-02  8112   0.116E-01 0.523E-04
CGA:  13    -0.319272903673E+03   -0.14541E-02   -0.14552E-02  8112   0.629E-02 0.758E-04
CGA:  14    -0.319273701385E+03   -0.79771E-03   -0.79788E-03  8112   0.297E-02 0.198E-04
CGA:  15    -0.319274124900E+03   -0.42352E-03   -0.42334E-03  8112   0.158E-02 0.138E-04
CGA:  16    -0.319274309344E+03   -0.18444E-03   -0.18457E-03  8112   0.784E-03 0.776E-05
CGA:  17    -0.319274393721E+03   -0.84377E-04   -0.84560E-04  8112   0.303E-03 0.628E-05
CGA:  18    -0.319274436835E+03   -0.43114E-04   -0.43073E-04  8112   0.137E-03 0.371E-05
CGA:  19    -0.319274453201E+03   -0.16366E-04   -0.16381E-04  8112   0.670E-04 0.119E-05
CGA:  20    -0.319274461144E+03   -0.79437E-05   -0.79496E-05  8112   0.374E-04 0.446E-06
   9 F= -.31927446E+03 E0= -.31926943E+03  d E =-.268138E-01  mag=    44.0000
       N       E                     dE             d eps       ncg     rms          ort
SDA:   1    -0.315267016750E+03    0.40074E+01    0.00000E+00  8112   0.103E+02 0.000E+00
CGA:   2    -0.318112121667E+03   -0.28451E+01   -0.28565E+01  8112   0.705E+01-0.901E-01
CGA:   3    -0.318885633090E+03   -0.77351E+00   -0.77456E+00  8112   0.241E+01 0.902E-01
CGA:   4    -0.319193547626E+03   -0.30791E+00   -0.30814E+00  8112   0.897E+00 0.947E-02
CGA:   5    -0.319275193599E+03   -0.81646E-01   -0.80783E-01  8112   0.355E+00-0.673E-03
CGA:   6    -0.319313247838E+03   -0.38054E-01   -0.38108E-01  8112   0.110E+00 0.590E-03
CGA:   7    -0.319328309257E+03   -0.15061E-01   -0.15058E-01  8112   0.356E-01 0.383E-03
CGA:   8    -0.319333519965E+03   -0.52107E-02   -0.52114E-02  8112   0.173E-01-0.322E-04
CGA:   9    -0.319335358684E+03   -0.18387E-02   -0.18372E-02  8112   0.902E-02-0.145E-04
CGA:  10    -0.319336401730E+03   -0.10430E-02   -0.10436E-02  8112   0.414E-02 0.146E-04
CGA:  11    -0.319336998784E+03   -0.59705E-03   -0.59694E-03  8112   0.194E-02 0.801E-05
CGA:  12    -0.319337308456E+03   -0.30967E-03   -0.30936E-03  8112   0.121E-02 0.877E-05
CGA:  13    -0.319337467718E+03   -0.15926E-03   -0.15927E-03  8112   0.808E-03 0.356E-05
CGA:  14    -0.319337552474E+03   -0.84756E-04   -0.84846E-04  8112   0.338E-03 0.253E-05
CGA:  15    -0.319337611233E+03   -0.58760E-04   -0.58681E-04  8112   0.134E-03 0.185E-05
CGA:  16    -0.319337629013E+03   -0.17780E-04   -0.17781E-04  8112   0.811E-04 0.108E-05
CGA:  17    -0.319337638251E+03   -0.92374E-05   -0.92513E-05  8112   0.353E-04 0.693E-06
  10 F= -.31933764E+03 E0= -.31933273E+03  d E =-.631771E-01  mag=    44.0000
       N       E                     dE             d eps       ncg     rms          ort
SDA:   1    -0.299777636040E+03    0.19560E+02    0.00000E+00  8112   0.503E+02 0.000E+00
CGA:   2    -0.313502981805E+03   -0.13725E+02   -0.13897E+02  8112   0.390E+02-0.122E+01
CGA:   3    -0.317039690474E+03   -0.35367E+01   -0.35559E+01  8112   0.107E+02 0.229E+01
CGA:   4    -0.318769913002E+03   -0.17302E+01   -0.17306E+01  8112   0.290E+01-0.195E-01
CGA:   5    -0.319170994884E+03   -0.40108E+00   -0.40112E+00  8112   0.118E+01-0.120E-01
CGA:   6    -0.319289449539E+03   -0.11845E+00   -0.11868E+00  8112   0.524E+00 0.139E-02
CGA:   7    -0.319344758293E+03   -0.55309E-01   -0.55603E-01  8112   0.192E+00 0.244E-02
CGA:   8    -0.319367989973E+03   -0.23232E-01   -0.23227E-01  8112   0.877E-01-0.119E-03
CGA:   9    -0.319379700289E+03   -0.11710E-01   -0.11709E-01  8112   0.323E-01 0.911E-03
CGA:  10    -0.319384892771E+03   -0.51925E-02   -0.51847E-02  8112   0.219E-01 0.211E-03
CGA:  11    -0.319387231943E+03   -0.23392E-02   -0.23440E-02  8112   0.109E-01 0.608E-04
CGA:  12    -0.319388834469E+03   -0.16025E-02   -0.16020E-02  8112   0.623E-02 0.302E-04
CGA:  13    -0.319389741921E+03   -0.90745E-03   -0.90674E-03  8112   0.296E-02 0.419E-04
CGA:  14    -0.319390172006E+03   -0.43008E-03   -0.43003E-03  8112   0.184E-02 0.630E-05
CGA:  15    -0.319390380207E+03   -0.20820E-03   -0.20842E-03  8112   0.832E-03 0.745E-05
CGA:  16    -0.319390482282E+03   -0.10207E-03   -0.10215E-03  8112   0.333E-03 0.620E-05
CGA:  17    -0.319390533882E+03   -0.51601E-04   -0.51505E-04  8112   0.133E-03 0.452E-05
CGA:  18    -0.319390550037E+03   -0.16155E-04   -0.16172E-04  8112   0.835E-04 0.123E-05
CGA:  19    -0.319390560242E+03   -0.10205E-04   -0.10214E-04  8112   0.322E-04 0.679E-06
CGA:  20    -0.319390565666E+03   -0.54241E-05   -0.54066E-05  8112   0.176E-04 0.509E-06
  11 F= -.31939057E+03 E0= -.31938588E+03  d E =-.529274E-01  mag=    44.0000
       N       E                     dE             d eps       ncg     rms          ort
SDA:   1    -0.316196045060E+03    0.31945E+01    0.00000E+00  8112   0.800E+01 0.000E+00
CGA:   2    -0.318334766959E+03   -0.21387E+01   -0.21562E+01  8112   0.725E+01-0.153E+00
CGA:   3    -0.319051490642E+03   -0.71672E+00   -0.71494E+00  8112   0.165E+01 0.175E+00
CGA:   4    -0.319314814682E+03   -0.26332E+00   -0.26350E+00  8112   0.459E+00-0.632E-02
CGA:   5    -0.319365753580E+03   -0.50939E-01   -0.51124E-01  8112   0.241E+00 0.165E-02
CGA:   6    -0.319388246399E+03   -0.22493E-01   -0.22413E-01  8112   0.710E-01 0.304E-04
CGA:   7    -0.319398856122E+03   -0.10610E-01   -0.10606E-01  8112   0.211E-01 0.154E-03
CGA:   8    -0.319402247352E+03   -0.33912E-02   -0.33912E-02  8112   0.966E-02-0.297E-05
CGA:   9    -0.319403316787E+03   -0.10694E-02   -0.10707E-02  8112   0.500E-02 0.109E-04
CGA:  10    -0.319403948554E+03   -0.63177E-03   -0.63180E-03  8112   0.251E-02 0.422E-05
CGA:  11    -0.319404270273E+03   -0.32172E-03   -0.32179E-03  8112   0.117E-02 0.621E-05
CGA:  12    -0.319404478304E+03   -0.20803E-03   -0.20773E-03  8112   0.660E-03 0.613E-05
CGA:  13    -0.319404570126E+03   -0.91823E-04   -0.91822E-04  8112   0.409E-03 0.245E-05
CGA:  14    -0.319404618740E+03   -0.48614E-04   -0.48639E-04  8112   0.217E-03 0.133E-05
CGA:  15    -0.319404647297E+03   -0.28557E-04   -0.28566E-04  8112   0.757E-04 0.135E-05
CGA:  16    -0.319404658732E+03   -0.11434E-04   -0.11418E-04  8112   0.366E-04 0.123E-05
CGA:  17    -0.319404663234E+03   -0.45024E-05   -0.45105E-05  8112   0.154E-04 0.483E-06
  12 F= -.31940466E+03 E0= -.31940001E+03  d E =-.140976E-01  mag=    44.0000
       N       E                     dE             d eps       ncg     rms          ort
SDA:   1    -0.317818597403E+03    0.15861E+01    0.00000E+00  8112   0.408E+01 0.000E+00
CGA:   2    -0.318802936943E+03   -0.98434E+00   -0.98987E+00  8112   0.421E+01-0.565E-01
CGA:   3    -0.319212072153E+03   -0.40914E+00   -0.41101E+00  8112   0.106E+01 0.418E-01
CGA:   4    -0.319333158838E+03   -0.12109E+00   -0.12063E+00  8112   0.567E+00-0.477E-02
CGA:   5    -0.319384499051E+03   -0.51340E-01   -0.51642E-01  8112   0.112E+00 0.622E-04
CGA:   6    -0.319401970427E+03   -0.17471E-01   -0.17469E-01  8112   0.368E-01 0.103E-03
CGA:   7    -0.319407329222E+03   -0.53588E-02   -0.53574E-02  8112   0.156E-01 0.915E-04
CGA:   8    -0.319408950707E+03   -0.16215E-02   -0.16230E-02  8112   0.780E-02 0.507E-05
CGA:   9    -0.319409843922E+03   -0.89322E-03   -0.89311E-03  8112   0.291E-02-0.445E-05
CGA:  10    -0.319410231150E+03   -0.38723E-03   -0.38724E-03  8112   0.134E-02 0.873E-05
CGA:  11    -0.319410462583E+03   -0.23143E-03   -0.23118E-03  8112   0.540E-03 0.596E-05
CGA:  12    -0.319410565770E+03   -0.10319E-03   -0.10295E-03  8112   0.325E-03 0.358E-05
CGA:  13    -0.319410621997E+03   -0.56227E-04   -0.56178E-04  8112   0.146E-03 0.136E-05
CGA:  14    -0.319410646064E+03   -0.24067E-04   -0.24041E-04  8112   0.841E-04 0.936E-06
CGA:  15    -0.319410656674E+03   -0.10611E-04   -0.10622E-04  8112   0.443E-04 0.702E-06
CGA:  16    -0.319410661133E+03   -0.44589E-05   -0.44758E-05  8112   0.164E-04 0.407E-06
  13 F= -.31941066E+03 E0= -.31940608E+03  d E =-.599790E-02  mag=    44.0000
       N       E                     dE             d eps       ncg     rms          ort
SDA:   1    -0.308506458737E+03    0.10904E+02    0.00000E+00  8112   0.282E+02 0.000E+00
CGA:   2    -0.315092458588E+03   -0.65860E+01   -0.67884E+01  8112   0.349E+02-0.193E+01
CGA:   3    -0.317964274426E+03   -0.28718E+01   -0.28274E+01  8112   0.683E+01 0.199E+01
CGA:   4    -0.318890349625E+03   -0.92608E+00   -0.92558E+00  8112   0.405E+01-0.160E-01
CGA:   5    -0.319211975136E+03   -0.32163E+00   -0.33039E+00  8112   0.107E+01-0.286E-01
CGA:   6    -0.319342657069E+03   -0.13068E+00   -0.13067E+00  8112   0.408E+00-0.188E-03
CGA:   7    -0.319385916321E+03   -0.43259E-01   -0.43386E-01  8112   0.215E+00 0.999E-03
CGA:   8    -0.319407086047E+03   -0.21170E-01   -0.21309E-01  8112   0.699E-01 0.521E-03
CGA:   9    -0.319416361302E+03   -0.92753E-02   -0.92754E-02  8112   0.304E-01 0.218E-04
CGA:  10    -0.319420649972E+03   -0.42887E-02   -0.42880E-02  8112   0.129E-01 0.476E-04
CGA:  11    -0.319422204331E+03   -0.15544E-02   -0.15565E-02  8112   0.946E-02 0.700E-04
CGA:  12    -0.319423427702E+03   -0.12234E-02   -0.12236E-02  8112   0.320E-02 0.350E-04
CGA:  13    -0.319423990108E+03   -0.56241E-03   -0.56115E-03  8112   0.260E-02 0.245E-04
CGA:  14    -0.319424347393E+03   -0.35729E-03   -0.35722E-03  8112   0.857E-03 0.260E-04
CGA:  15    -0.319424505828E+03   -0.15844E-03   -0.15820E-03  8112   0.493E-03 0.496E-05
CGA:  16    -0.319424566034E+03   -0.60206E-04   -0.60292E-04  8112   0.281E-03 0.470E-05
CGA:  17    -0.319424595854E+03   -0.29820E-04   -0.29924E-04  8112   0.745E-04 0.306E-05
CGA:  18    -0.319424610894E+03   -0.15040E-04   -0.14933E-04  8112   0.343E-04 0.170E-05
CGA:  19    -0.319424615286E+03   -0.43923E-05   -0.44005E-05  8112   0.137E-04 0.608E-06
  14 F= -.31942462E+03 E0= -.31942033E+03  d E =-.139542E-01  mag=    44.0000
       N       E                     dE             d eps       ncg     rms          ort
SDA:   1    -0.296209892132E+03    0.23215E+02    0.00000E+00  8112   0.602E+02 0.000E+00
CGA:   2    -0.310088223441E+03   -0.13878E+02   -0.14508E+02  8112   0.820E+02-0.575E+01
CGA:   3    -0.316086801941E+03   -0.59986E+01   -0.58558E+01  8112   0.155E+02 0.681E+01
CGA:   4    -0.318173867068E+03   -0.20871E+01   -0.20962E+01  8112   0.902E+01 0.175E+00
CGA:   5    -0.318910727862E+03   -0.73686E+00   -0.73107E+00  8112   0.273E+01 0.167E+00
CGA:   6    -0.319209808876E+03   -0.29908E+00   -0.29877E+00  8112   0.108E+01-0.111E-02
CGA:   7    -0.319324617855E+03   -0.11481E+00   -0.11532E+00  8112   0.546E+00 0.454E-02
CGA:   8    -0.319379238930E+03   -0.54621E-01   -0.55208E-01  8112   0.188E+00 0.379E-02
CGA:   9    -0.319403249805E+03   -0.24011E-01   -0.24021E-01  8112   0.898E-01 0.682E-03
CGA:  10    -0.319413609054E+03   -0.10359E-01   -0.10403E-01  8112   0.428E-01 0.857E-03
CGA:  11    -0.319418958668E+03   -0.53496E-02   -0.53539E-02  8112   0.193E-01 0.230E-03
CGA:  12    -0.319422179424E+03   -0.32208E-02   -0.32152E-02  8112   0.114E-01 0.129E-03
CGA:  13    -0.319423564500E+03   -0.13851E-02   -0.13882E-02  8112   0.580E-02 0.109E-03
CGA:  14    -0.319424652567E+03   -0.10881E-02   -0.10858E-02  8112   0.301E-02 0.358E-04
CGA:  15    -0.319425060649E+03   -0.40808E-03   -0.40809E-03  8112   0.140E-02 0.112E-04
CGA:  16    -0.319425263958E+03   -0.20331E-03   -0.20315E-03  8112   0.773E-03 0.144E-04
CGA:  17    -0.319425365376E+03   -0.10142E-03   -0.10148E-03  8112   0.211E-03 0.988E-05
CGA:  18    -0.319425397448E+03   -0.32072E-04   -0.32023E-04  8112   0.139E-03 0.333E-05
CGA:  19    -0.319425415586E+03   -0.18137E-04   -0.18153E-04  8112   0.421E-04 0.190E-05
CGA:  20    -0.319425422641E+03   -0.70552E-05   -0.70267E-05  8112   0.221E-04 0.963E-06
  15 F= -.31942542E+03 E0= -.31942148E+03  d E =-.807355E-03  mag=    44.0000
       N       E                     dE             d eps       ncg     rms          ort
SDA:   1    -0.316426820957E+03    0.29986E+01    0.00000E+00  8112   0.809E+01 0.000E+00
CGA:   2    -0.318369603663E+03   -0.19428E+01   -0.19424E+01  8112   0.473E+01 0.464E-02
CGA:   3    -0.319095904148E+03   -0.72630E+00   -0.72642E+00  8112   0.205E+01-0.694E-02
CGA:   4    -0.319310249914E+03   -0.21435E+00   -0.21552E+00  8112   0.692E+00 0.833E-02
CGA:   5    -0.319392147776E+03   -0.81898E-01   -0.81841E-01  8112   0.186E+00-0.249E-03
CGA:   6    -0.319419919831E+03   -0.27772E-01   -0.27779E-01  8112   0.664E-01-0.509E-03
CGA:   7    -0.319428692448E+03   -0.87726E-02   -0.87749E-02  8112   0.253E-01 0.111E-03
CGA:   8    -0.319432307380E+03   -0.36149E-02   -0.36149E-02  8112   0.115E-01 0.147E-04
CGA:   9    -0.319433754434E+03   -0.14471E-02   -0.14470E-02  8112   0.497E-02 0.156E-05
CGA:  10    -0.319434523277E+03   -0.76884E-03   -0.76861E-03  8112   0.234E-02 0.104E-04
CGA:  11    -0.319434879315E+03   -0.35604E-03   -0.35602E-03  8112   0.110E-02 0.204E-05
CGA:  12    -0.319435073392E+03   -0.19408E-03   -0.19388E-03  8112   0.609E-03 0.565E-05
CGA:  13    -0.319435151771E+03   -0.78379E-04   -0.78419E-04  8112   0.331E-03 0.241E-05
CGA:  14    -0.319435205744E+03   -0.53973E-04   -0.53963E-04  8112   0.131E-03 0.439E-06
CGA:  15    -0.319435226796E+03   -0.21053E-04   -0.21061E-04  8112   0.642E-04-0.510E-06
CGA:  16    -0.319435236127E+03   -0.93302E-05   -0.93304E-05  8112   0.292E-04-0.527E-07
  16 F= -.31943524E+03 E0= -.31943134E+03  d E =-.981349E-02  mag=    44.0000
       N       E                     dE             d eps       ncg     rms          ort
SDA:   1    -0.317135778853E+03    0.22994E+01    0.00000E+00  8112   0.606E+01 0.000E+00
CGA:   2    -0.318622885584E+03   -0.14871E+01   -0.14925E+01  8112   0.499E+01-0.648E-01
CGA:   3    -0.319182442553E+03   -0.55956E+00   -0.56802E+00  8112   0.149E+01 0.855E-01
CGA:   4    -0.319386069060E+03   -0.20363E+00   -0.20357E+00  8112   0.473E+00-0.166E-02
CGA:   5    -0.319434319627E+03   -0.48251E-01   -0.48491E-01  8112   0.174E+00 0.768E-03
CGA:   6    -0.319456550697E+03   -0.22231E-01   -0.22218E-01  8112   0.525E-01-0.250E-03
CGA:   7    -0.319464443113E+03   -0.78924E-02   -0.78933E-02  8112   0.174E-01-0.661E-04
CGA:   8    -0.319467231560E+03   -0.27884E-02   -0.27882E-02  8112   0.663E-02 0.937E-05
CGA:   9    -0.319468166778E+03   -0.93522E-03   -0.93526E-03  8112   0.362E-02 0.781E-05
CGA:  10    -0.319468609763E+03   -0.44299E-03   -0.44303E-03  8112   0.165E-02 0.347E-05
CGA:  11    -0.319468878301E+03   -0.26854E-03   -0.26842E-03  8112   0.740E-03 0.491E-05
CGA:  12    -0.319469008281E+03   -0.12998E-03   -0.12991E-03  8112   0.414E-03 0.193E-05
CGA:  13    -0.319469073554E+03   -0.65273E-04   -0.65261E-04  8112   0.223E-03 0.887E-06
CGA:  14    -0.319469104092E+03   -0.30538E-04   -0.30550E-04  8112   0.112E-03 0.128E-05
CGA:  15    -0.319469118899E+03   -0.14807E-04   -0.14826E-04  8112   0.450E-04 0.130E-05
CGA:  16    -0.319469125696E+03   -0.67966E-05   -0.67937E-05  8112   0.171E-04 0.718E-06
  17 F= -.31946913E+03 E0= -.31946513E+03  d E =-.338896E-01  mag=    44.0000
       N       E                     dE             d eps       ncg     rms          ort
SDA:   1    -0.318943324278E+03    0.52579E+00    0.00000E+00  8112   0.137E+01 0.000E+00
CGA:   2    -0.319288066192E+03   -0.34474E+00   -0.34530E+00  8112   0.120E+01-0.551E-02
CGA:   3    -0.319410999000E+03   -0.12293E+00   -0.12312E+00  8112   0.356E+00 0.308E-02
CGA:   4    -0.319456541694E+03   -0.45543E-01   -0.45543E-01  8112   0.127E+00 0.714E-05
CGA:   5    -0.319469935825E+03   -0.13394E-01   -0.13376E-01  8112   0.337E-01-0.752E-05
CGA:   6    -0.319474916134E+03   -0.49803E-02   -0.49800E-02  8112   0.107E-01 0.786E-04
CGA:   7    -0.319476537777E+03   -0.16216E-02   -0.16217E-02  8112   0.388E-02-0.858E-05
CGA:   8    -0.319477064906E+03   -0.52713E-03   -0.52713E-03  8112   0.186E-02-0.247E-05
CGA:   9    -0.319477276386E+03   -0.21148E-03   -0.21145E-03  8112   0.705E-03-0.701E-06
CGA:  10    -0.319477391125E+03   -0.11474E-03   -0.11470E-03  8112   0.318E-03 0.214E-05
CGA:  11    -0.319477444545E+03   -0.53420E-04   -0.53395E-04  8112   0.163E-03 0.100E-05
CGA:  12    -0.319477471435E+03   -0.26891E-04   -0.26899E-04  8112   0.106E-03-0.494E-06
CGA:  13    -0.319477485610E+03   -0.14174E-04   -0.14172E-04  8112   0.509E-04-0.175E-06
CGA:  14    -0.319477493050E+03   -0.74406E-05   -0.74405E-05  8112   0.248E-04 0.428E-06
  18 F= -.31947749E+03 E0= -.31947351E+03  d E =-.836735E-02  mag=    44.0000
       N       E                     dE             d eps       ncg     rms          ort
SDA:   1    -0.286673501273E+03    0.32804E+02    0.00000E+00  8112   0.841E+02 0.000E+00
CGA:   2    -0.307063666846E+03   -0.20390E+02   -0.20758E+02  8112   0.105E+03-0.457E+01
CGA:   3    -0.314923765394E+03   -0.78601E+01   -0.78636E+01  8112   0.212E+02 0.167E+01
CGA:   4    -0.318236898288E+03   -0.33131E+01   -0.33124E+01  8112   0.704E+01 0.546E-01
CGA:   5    -0.318990604877E+03   -0.75371E+00   -0.74513E+00  8112   0.263E+01 0.632E-01
CGA:   6    -0.319251889426E+03   -0.26128E+00   -0.26919E+00  8112   0.148E+01 0.239E-01
CGA:   7    -0.319379850398E+03   -0.12796E+00   -0.13061E+00  8112   0.487E+00 0.311E-03
CGA:   8    -0.319444662349E+03   -0.64812E-01   -0.64805E-01  8112   0.189E+00-0.195E-03
CGA:   9    -0.319470443664E+03   -0.25781E-01   -0.25806E-01  8112   0.754E-01 0.290E-02
CGA:  10    -0.319480647511E+03   -0.10204E-01   -0.10221E-01  8112   0.543E-01 0.115E-02
CGA:  11    -0.319486422086E+03   -0.57746E-02   -0.58031E-02  8112   0.226E-01 0.185E-03
CGA:  12    -0.319490164186E+03   -0.37421E-02   -0.37345E-02  8112   0.110E-01 0.206E-03
CGA:  13    -0.319492357763E+03   -0.21936E-02   -0.21852E-02  8112   0.545E-02 0.122E-03
CGA:  14    -0.319493122938E+03   -0.76518E-03   -0.76526E-03  8112   0.391E-02 0.171E-04
CGA:  15    -0.319493587325E+03   -0.46439E-03   -0.46537E-03  8112   0.145E-02 0.199E-04
CGA:  16    -0.319493803914E+03   -0.21659E-03   -0.21647E-03  8112   0.510E-03 0.144E-04
CGA:  17    -0.319493893450E+03   -0.89536E-04   -0.89278E-04  8112   0.225E-03 0.802E-05
CGA:  18    -0.319493921326E+03   -0.27876E-04   -0.27932E-04  8112   0.110E-03 0.243E-05
CGA:  19    -0.319493935998E+03   -0.14673E-04   -0.14684E-04  8112   0.527E-04 0.105E-05
CGA:  20    -0.319493943891E+03   -0.78923E-05   -0.78888E-05  8112   0.237E-04 0.493E-06
  19 F= -.31949394E+03 E0= -.31948999E+03  d E =-.164508E-01  mag=    44.0000
       N       E                     dE             d eps       ncg     rms          ort
SDA:   1    -0.303915642069E+03    0.15578E+02    0.00000E+00  8112   0.414E+02 0.000E+00
CGA:   2    -0.313541841859E+03   -0.96262E+01   -0.96205E+01  8112   0.360E+02 0.514E-01
CGA:   3    -0.317115649584E+03   -0.35738E+01   -0.35427E+01  8112   0.135E+02-0.167E+01
CGA:   4    -0.318793215916E+03   -0.16776E+01   -0.16685E+01  8112   0.403E+01-0.153E+00
CGA:   5    -0.319200333281E+03   -0.40712E+00   -0.39337E+00  8112   0.140E+01 0.207E-01
CGA:   6    -0.319392761403E+03   -0.19243E+00   -0.19266E+00  8112   0.347E+00 0.183E-01
CGA:   7    -0.319451665570E+03   -0.58904E-01   -0.58892E-01  8112   0.188E+00 0.318E-03
CGA:   8    -0.319468375958E+03   -0.16710E-01   -0.17085E-01  8112   0.849E-01-0.537E-03
CGA:   9    -0.319479239568E+03   -0.10864E-01   -0.10892E-01  8112   0.351E-01 0.978E-03
CGA:  10    -0.319483816231E+03   -0.45767E-02   -0.45905E-02  8112   0.151E-01 0.553E-03
CGA:  11    -0.319486619316E+03   -0.28031E-02   -0.27886E-02  8112   0.763E-02 0.256E-03
CGA:  12    -0.319487728941E+03   -0.11096E-02   -0.11093E-02  8112   0.505E-02 0.117E-03
CGA:  13    -0.319488363302E+03   -0.63436E-03   -0.63492E-03  8112   0.276E-02 0.140E-04
CGA:  14    -0.319488755552E+03   -0.39225E-03   -0.39223E-03  8112   0.111E-02 0.160E-04
CGA:  15    -0.319488948966E+03   -0.19341E-03   -0.19312E-03  8112   0.469E-03 0.841E-05
CGA:  16    -0.319489021221E+03   -0.72254E-04   -0.72196E-04  8112   0.242E-03 0.500E-05
CGA:  17    -0.319489049013E+03   -0.27793E-04   -0.27848E-04  8112   0.101E-03 0.168E-05
CGA:  18    -0.319489063278E+03   -0.14265E-04   -0.14266E-04  8112   0.493E-04 0.793E-06
CGA:  19    -0.319489070291E+03   -0.70132E-05   -0.70136E-05  8112   0.175E-04 0.572E-06
  20 F= -.31948907E+03 E0= -.31948493E+03  d E =0.487360E-02  mag=    44.0000
       N       E                     dE             d eps       ncg     rms          ort
SDA:   1    -0.304410721338E+03    0.15078E+02    0.00000E+00  8112   0.394E+02 0.000E+00
CGA:   2    -0.313674368170E+03   -0.92636E+01   -0.96849E+01  8112   0.506E+02-0.434E+01
CGA:   3    -0.317162038153E+03   -0.34877E+01   -0.34418E+01  8112   0.108E+02 0.365E+01
CGA:   4    -0.318740970682E+03   -0.15789E+01   -0.15740E+01  8112   0.537E+01-0.191E+00
CGA:   5    -0.319192341820E+03   -0.45137E+00   -0.38466E+00  8112   0.128E+01 0.691E+00
CGA:   6    -0.319382377978E+03   -0.19004E+00   -0.19024E+00  8112   0.899E+00 0.878E-02
CGA:   7    -0.319446528509E+03   -0.64151E-01   -0.69720E-01  8112   0.352E+00-0.202E-01
CGA:   8    -0.319487156701E+03   -0.40628E-01   -0.40640E-01  8112   0.168E+00 0.247E-03
CGA:   9    -0.319503787795E+03   -0.16631E-01   -0.16821E-01  8112   0.779E-01 0.691E-03
CGA:  10    -0.319512362900E+03   -0.85751E-02   -0.85908E-02  8112   0.329E-01 0.188E-03
CGA:  11    -0.319516949407E+03   -0.45865E-02   -0.45854E-02  8112   0.177E-01 0.131E-03
CGA:  12    -0.319519024320E+03   -0.20749E-02   -0.20778E-02  8112   0.984E-02 0.684E-04
CGA:  13    -0.319520347028E+03   -0.13227E-02   -0.13227E-02  8112   0.515E-02 0.324E-04
CGA:  14    -0.319521122702E+03   -0.77567E-03   -0.77492E-03  8112   0.283E-02 0.326E-04
CGA:  15    -0.319521493496E+03   -0.37079E-03   -0.37090E-03  8112   0.149E-02 0.152E-04
CGA:  16    -0.319521704022E+03   -0.21053E-03   -0.21048E-03  8112   0.757E-03 0.578E-05
CGA:  17    -0.319521794080E+03   -0.90058E-04   -0.90143E-04  8112   0.321E-03 0.396E-05
CGA:  18    -0.319521837296E+03   -0.43216E-04   -0.43216E-04  8112   0.149E-03 0.315E-05
CGA:  19    -0.319521857689E+03   -0.20393E-04   -0.20390E-04  8112   0.547E-04 0.190E-05
CGA:  20    -0.319521866898E+03   -0.92092E-05   -0.91808E-05  8112   0.323E-04 0.875E-06
  21 F= -.31952187E+03 E0= -.31951782E+03  d E =-.327966E-01  mag=    44.0000
       N       E                     dE             d eps       ncg     rms          ort
SDA:   1    -0.317641723173E+03    0.18801E+01    0.00000E+00  8112   0.512E+01 0.000E+00
CGA:   2    -0.318796838826E+03   -0.11551E+01   -0.11542E+01  8112   0.337E+01 0.893E-02
CGA:   3    -0.319225275387E+03   -0.42844E+00   -0.42755E+00  8112   0.179E+01-0.271E-01
CGA:   4    -0.319413671740E+03   -0.18840E+00   -0.18940E+00  8112   0.455E+00 0.759E-02
CGA:   5    -0.319476018799E+03   -0.62347E-01   -0.62347E-01  8112   0.141E+00-0.947E-04
CGA:   6    -0.319494940266E+03   -0.18921E-01   -0.18921E-01  8112   0.505E-01-0.343E-04
CGA:   7    -0.319501880893E+03   -0.69406E-02   -0.69406E-02  8112   0.176E-01 0.295E-04
CGA:   8    -0.319504283748E+03   -0.24029E-02   -0.24029E-02  8112   0.938E-02 0.272E-04
CGA:   9    -0.319505400660E+03   -0.11169E-02   -0.11169E-02  8112   0.333E-02 0.240E-05
CGA:  10    -0.319505954150E+03   -0.55349E-03   -0.55319E-03  8112   0.160E-02 0.637E-05
CGA:  11    -0.319506207641E+03   -0.25349E-03   -0.25356E-03  8112   0.745E-03-0.183E-05
CGA:  12    -0.319506324294E+03   -0.11665E-03   -0.11658E-03  8112   0.466E-03 0.335E-05
CGA:  13    -0.319506383391E+03   -0.59097E-04   -0.59128E-04  8112   0.206E-03 0.225E-05
CGA:  14    -0.319506418603E+03   -0.35212E-04   -0.35182E-04  8112   0.970E-04 0.938E-06
CGA:  15    -0.319506433801E+03   -0.15197E-04   -0.15194E-04  8112   0.438E-04 0.230E-06
CGA:  16    -0.319506440197E+03   -0.63960E-05   -0.63953E-05  8112   0.218E-04 0.172E-06
  22 F= -.31950644E+03 E0= -.31950247E+03  d E =0.154267E-01  mag=    44.0000
       N       E                     dE             d eps       ncg     rms          ort
SDA:   1    -0.316859995649E+03    0.26464E+01    0.00000E+00  8112   0.682E+01 0.000E+00
CGA:   2    -0.318670964203E+03   -0.18110E+01   -0.18151E+01  8112   0.457E+01-0.324E-01
CGA:   3    -0.319243204272E+03   -0.57224E+00   -0.57132E+00  8112   0.154E+01 0.190E-01
CGA:   4    -0.319451550225E+03   -0.20835E+00   -0.20831E+00  8112   0.377E+00-0.112E-02
CGA:   5    -0.319503253410E+03   -0.51703E-01   -0.51703E-01  8112   0.152E+00 0.243E-04
CGA:   6    -0.319519157072E+03   -0.15904E-01   -0.15927E-01  8112   0.586E-01 0.107E-03
CGA:   7    -0.319526792904E+03   -0.76358E-02   -0.76303E-02  8112   0.194E-01-0.175E-03
CGA:   8    -0.319529635596E+03   -0.28427E-02   -0.28423E-02  8112   0.735E-02 0.420E-04
CGA:   9    -0.319530782203E+03   -0.11466E-02   -0.11467E-02  8112   0.319E-02-0.111E-05
CGA:  10    -0.319531242003E+03   -0.45980E-03   -0.45978E-03  8112   0.187E-02 0.110E-04
CGA:  11    -0.319531491104E+03   -0.24910E-03   -0.24913E-03  8112   0.939E-03 0.289E-05
CGA:  12    -0.319531633445E+03   -0.14234E-03   -0.14232E-03  8112   0.466E-03 0.160E-05
CGA:  13    -0.319531716013E+03   -0.82568E-04   -0.82513E-04  8112   0.217E-03 0.136E-05
CGA:  14    -0.319531749479E+03   -0.33466E-04   -0.33453E-04  8112   0.124E-03 0.133E-05
CGA:  15    -0.319531764773E+03   -0.15294E-04   -0.15318E-04  8112   0.529E-04 0.110E-05
CGA:  16    -0.319531772007E+03   -0.72340E-05   -0.72397E-05  8112   0.201E-04 0.659E-06
  23 F= -.31953177E+03 E0= -.31952775E+03  d E =-.253318E-01  mag=    44.0000
       N       E                     dE             d eps       ncg     rms          ort
SDA:   1    -0.319399817397E+03    0.13195E+00    0.00000E+00  8112   0.318E+00 0.000E+00
CGA:   2    -0.319497410108E+03   -0.97593E-01   -0.97574E-01  8112   0.186E+00 0.117E-03
CGA:   3    -0.319519170772E+03   -0.21761E-01   -0.21776E-01  8112   0.672E-01 0.609E-04
CGA:   4    -0.319527127906E+03   -0.79571E-02   -0.79398E-02  8112   0.223E-01-0.136E-03
CGA:   5    -0.319529469678E+03   -0.23418E-02   -0.23431E-02  8112   0.707E-02 0.389E-05
CGA:   6    -0.319530416144E+03   -0.94647E-03   -0.94652E-03  8112   0.234E-02 0.376E-05
CGA:   7    -0.319530740431E+03   -0.32429E-03   -0.32425E-03  8112   0.748E-03-0.312E-05
CGA:   8    -0.319530857561E+03   -0.11713E-03   -0.11713E-03  8112   0.319E-03-0.271E-06
CGA:   9    -0.319530895490E+03   -0.37929E-04   -0.37939E-04  8112   0.169E-03 0.285E-06
CGA:  10    -0.319530918760E+03   -0.23270E-04   -0.23272E-04  8112   0.661E-04 0.274E-06
CGA:  11    -0.319530931000E+03   -0.12239E-04   -0.12246E-04  8112   0.379E-04-0.180E-06
CGA:  12    -0.319530937190E+03   -0.61903E-05   -0.61963E-05  8112   0.228E-04-0.351E-06
  24 F= -.31953094E+03 E0= -.31952690E+03  d E =0.834816E-03  mag=    44.0000
       N       E                     dE             d eps       ncg     rms          ort
SDA:   1    -0.304764942848E+03    0.14766E+02    0.00000E+00  8112   0.364E+02 0.000E+00
CGA:   2    -0.315089917225E+03   -0.10325E+02   -0.10276E+02  8112   0.274E+02 0.360E+00
CGA:   3    -0.317834796446E+03   -0.27449E+01   -0.26809E+01  8112   0.929E+01-0.442E+00
CGA:   4    -0.318992969784E+03   -0.11582E+01   -0.11468E+01  8112   0.308E+01-0.113E+00
CGA:   5    -0.319310013345E+03   -0.31704E+00   -0.31147E+00  8112   0.951E+00 0.931E-02
CGA:   6    -0.319439734319E+03   -0.12972E+00   -0.13003E+00  8112   0.288E+00 0.125E-01
CGA:   7    -0.319481801222E+03   -0.42067E-01   -0.42056E-01  8112   0.146E+00-0.219E-02
CGA:   8    -0.319495618972E+03   -0.13818E-01   -0.13960E-01  8112   0.582E-01-0.266E-04
CGA:   9    -0.319503803440E+03   -0.81845E-02   -0.81871E-02  8112   0.198E-01 0.373E-03
CGA:  10    -0.319507151088E+03   -0.33476E-02   -0.33407E-02  8112   0.117E-01 0.195E-03
CGA:  11    -0.319508676745E+03   -0.15257E-02   -0.15279E-02  8112   0.623E-02 0.700E-04
CGA:  12    -0.319509592288E+03   -0.91554E-03   -0.91540E-03  8112   0.404E-02 0.464E-04
CGA:  13    -0.319510121877E+03   -0.52959E-03   -0.52987E-03  8112   0.159E-02 0.117E-04
CGA:  14    -0.319510416389E+03   -0.29451E-03   -0.29414E-03  8112   0.815E-03 0.884E-05
CGA:  15    -0.319510519510E+03   -0.10312E-03   -0.10327E-03  8112   0.417E-03 0.688E-05
CGA:  16    -0.319510570061E+03   -0.50551E-04   -0.50699E-04  8112   0.156E-03 0.542E-05
CGA:  17    -0.319510593336E+03   -0.23275E-04   -0.23266E-04  8112   0.562E-04 0.273E-05
CGA:  18    -0.319510601525E+03   -0.81885E-05   -0.81886E-05  8112   0.284E-04 0.782E-06
  25 F= -.31951060E+03 E0= -.31950651E+03  d E =0.203357E-01  mag=    44.0000
       N       E                     dE             d eps       ncg     rms          ort
SDA:   1    -0.285999723129E+03    0.33511E+02    0.00000E+00  8112   0.102E+03 0.000E+00
CGA:   2    -0.305054974553E+03   -0.19055E+02   -0.19084E+02  8112   0.584E+02-0.100E+01
CGA:   3    -0.313393263249E+03   -0.83383E+01   -0.83345E+01  8112   0.311E+02-0.197E+01
CGA:   4    -0.316614214882E+03   -0.32210E+01   -0.27835E+01  8112   0.878E+01 0.216E+01
CGA:   5    -0.317909916524E+03   -0.12957E+01   -0.12957E+01  8112   0.373E+01 0.525E-02
CGA:   6    -0.318244880052E+03   -0.33496E+00   -0.34127E+00  8112   0.194E+01-0.253E-01
CGA:   7    -0.318438648919E+03   -0.19377E+00   -0.19456E+00  8112   0.746E+00-0.507E-03
CGA:   8    -0.318513567230E+03   -0.74918E-01   -0.77114E-01  8112   0.348E+00 0.138E-01
CGA:   9    -0.318552264262E+03   -0.38697E-01   -0.38907E-01  8112   0.184E+00 0.241E-02
CGA:  10    -0.318573793314E+03   -0.21529E-01   -0.21661E-01  8112   0.644E-01 0.269E-02
CGA:  11    -0.318584350039E+03   -0.10557E-01   -0.10493E-01  8112   0.379E-01 0.160E-02
CGA:  12    -0.318589666468E+03   -0.53164E-02   -0.53122E-02  8112   0.160E-01 0.122E-02
CGA:  13    -0.318592376332E+03   -0.27099E-02   -0.26990E-02  8112   0.834E-02 0.263E-03
CGA:  14    -0.318593681320E+03   -0.13050E-02   -0.13036E-02  8112   0.487E-02 0.514E-04
CGA:  15    -0.318594255533E+03   -0.57421E-03   -0.57544E-03  8112   0.259E-02 0.223E-04
CGA:  16    -0.318594655381E+03   -0.39985E-03   -0.39971E-03  8112   0.959E-03 0.518E-05
CGA:  17    -0.318594820916E+03   -0.16553E-03   -0.16548E-03  8112   0.398E-03 0.115E-05
CGA:  18    -0.318594897581E+03   -0.76666E-04   -0.76551E-04  8112   0.175E-03 0.203E-05
CGA:  19    -0.318594922956E+03   -0.25375E-04   -0.25371E-04  8112   0.116E-03 0.140E-05
CGA:  20    -0.318594938981E+03   -0.16025E-04   -0.16030E-04  8112   0.633E-04 0.118E-05
CGA:  21    -0.318594948245E+03   -0.92642E-05   -0.92611E-05  8112   0.292E-04 0.906E-06
  26 F= -.31859495E+03 E0= -.31859095E+03  d E =0.915653E+00  mag=    44.0000
       N       E                     dE             d eps       ncg     rms          ort
SDA:   1    -0.313721855164E+03    0.48731E+01    0.00000E+00  8112   0.165E+02 0.000E+00
CGA:   2    -0.317043195257E+03   -0.33213E+01   -0.33205E+01  8112   0.899E+01 0.134E-01
CGA:   3    -0.318470252633E+03   -0.14271E+01   -0.14265E+01  8112   0.501E+01 0.240E-01
CGA:   4    -0.318974321477E+03   -0.50407E+00   -0.49914E+00  8112   0.156E+01 0.335E-01
CGA:   5    -0.319174297904E+03   -0.19998E+00   -0.19980E+00  8112   0.440E+00-0.307E-02
CGA:   6    -0.319238453260E+03   -0.64155E-01   -0.64156E-01  8112   0.170E+00-0.268E-03
CGA:   7    -0.319259650183E+03   -0.21197E-01   -0.21229E-01  8112   0.633E-01 0.607E-03
CGA:   8    -0.319268157676E+03   -0.85075E-02   -0.85082E-02  8112   0.330E-01 0.490E-04
CGA:   9    -0.319272035184E+03   -0.38775E-02   -0.38814E-02  8112   0.111E-01 0.583E-04
CGA:  10    -0.319273999520E+03   -0.19643E-02   -0.19640E-02  8112   0.565E-02 0.101E-04
CGA:  11    -0.319274814185E+03   -0.81467E-03   -0.81465E-03  8112   0.286E-02 0.148E-04
CGA:  12    -0.319275216490E+03   -0.40230E-03   -0.40232E-03  8112   0.160E-02 0.419E-05
CGA:  13    -0.319275434342E+03   -0.21785E-03   -0.21789E-03  8112   0.678E-03 0.416E-05
CGA:  14    -0.319275553722E+03   -0.11938E-03   -0.11931E-03  8112   0.366E-03 0.197E-05
CGA:  15    -0.319275605708E+03   -0.51986E-04   -0.51985E-04  8112   0.176E-03-0.478E-06
CGA:  16    -0.319275631015E+03   -0.25307E-04   -0.25306E-04  8112   0.973E-04-0.851E-06
CGA:  17    -0.319275643480E+03   -0.12464E-04   -0.12460E-04  8112   0.371E-04-0.316E-06
CGA:  18    -0.319275649898E+03   -0.64187E-05   -0.64117E-05  8112   0.179E-04 0.239E-06
  27 F= -.31927565E+03 E0= -.31927168E+03  d E =-.680702E+00  mag=    44.0000
       N       E                     dE             d eps       ncg     rms          ort
SDA:   1    -0.317157333713E+03    0.21183E+01    0.00000E+00  8112   0.684E+01 0.000E+00
CGA:   2    -0.318586149735E+03   -0.14288E+01   -0.14280E+01  8112   0.341E+01 0.116E-01
CGA:   3    -0.319227378801E+03   -0.64123E+00   -0.64157E+00  8112   0.133E+01-0.649E-02
CGA:   4    -0.319413320018E+03   -0.18594E+00   -0.18600E+00  8112   0.367E+00 0.237E-02
CGA:   5    -0.319465249945E+03   -0.51930E-01   -0.51914E-01  8112   0.126E+00-0.763E-03
CGA:   6    -0.319482685261E+03   -0.17435E-01   -0.17432E-01  8112   0.453E-01-0.111E-03
CGA:   7    -0.319488016072E+03   -0.53308E-02   -0.53371E-02  8112   0.234E-01 0.563E-04
CGA:   8    -0.319490910880E+03   -0.28948E-02   -0.28944E-02  8112   0.746E-02 0.390E-05
CGA:   9    -0.319492116610E+03   -0.12057E-02   -0.12057E-02  8112   0.351E-02 0.523E-05
CGA:  10    -0.319492670677E+03   -0.55407E-03   -0.55399E-03  8112   0.150E-02 0.616E-05
CGA:  11    -0.319492925829E+03   -0.25515E-03   -0.25509E-03  8112   0.849E-03 0.226E-05
CGA:  12    -0.319493029229E+03   -0.10340E-03   -0.10343E-03  8112   0.455E-03 0.114E-05
CGA:  13    -0.319493097230E+03   -0.68002E-04   -0.67999E-04  8112   0.217E-03 0.122E-05
CGA:  14    -0.319493132010E+03   -0.34780E-04   -0.34777E-04  8112   0.902E-04 0.281E-06
CGA:  15    -0.319493148950E+03   -0.16940E-04   -0.16932E-04  8112   0.447E-04 0.188E-06
CGA:  16    -0.319493154770E+03   -0.58202E-05   -0.58215E-05  8112   0.242E-04 0.732E-07
  28 F= -.31949315E+03 E0= -.31948917E+03  d E =-.217505E+00  mag=    44.0000
       N       E                     dE             d eps       ncg     rms          ort
SDA:   1    -0.318479191288E+03    0.10140E+01    0.00000E+00  8112   0.308E+01 0.000E+00
CGA:   2    -0.319141245306E+03   -0.66205E+00   -0.66173E+00  8112   0.159E+01 0.425E-02
CGA:   3    -0.319417250272E+03   -0.27600E+00   -0.27594E+00  8112   0.816E+00 0.188E-02
CGA:   4    -0.319500304958E+03   -0.83055E-01   -0.83136E-01  8112   0.284E+00 0.207E-03
CGA:   5    -0.319533263716E+03   -0.32959E-01   -0.32900E-01  8112   0.817E-01-0.299E-03
CGA:   6    -0.319544803463E+03   -0.11540E-01   -0.11541E-01  8112   0.303E-01 0.107E-03
CGA:   7    -0.319548736870E+03   -0.39334E-02   -0.39323E-02  8112   0.104E-01-0.220E-04
CGA:   8    -0.319550304076E+03   -0.15672E-02   -0.15671E-02  8112   0.561E-02 0.116E-04
CGA:   9    -0.319550908249E+03   -0.60417E-03   -0.60419E-03  8112   0.210E-02 0.424E-05
CGA:  10    -0.319551271179E+03   -0.36293E-03   -0.36279E-03  8112   0.941E-03 0.477E-05
CGA:  11    -0.319551413435E+03   -0.14226E-03   -0.14225E-03  8112   0.514E-03 0.118E-05
CGA:  12    -0.319551488588E+03   -0.75153E-04   -0.75153E-04  8112   0.267E-03-0.281E-06
CGA:  13    -0.319551522617E+03   -0.34029E-04   -0.34030E-04  8112   0.137E-03 0.975E-07
CGA:  14    -0.319551545576E+03   -0.22959E-04   -0.22939E-04  8112   0.578E-04 0.914E-06
CGA:  15    -0.319551554593E+03   -0.90167E-05   -0.90107E-05  8112   0.319E-04 0.767E-06
  29 F= -.31955155E+03 E0= -.31954754E+03  d E =-.583998E-01  mag=    44.0000
       N       E                     dE             d eps       ncg     rms          ort
SDA:   1    -0.319421266040E+03    0.13028E+00    0.00000E+00  8112   0.373E+00 0.000E+00
CGA:   2    -0.319502603449E+03   -0.81337E-01   -0.81315E-01  8112   0.304E+00 0.282E-03
CGA:   3    -0.319533191604E+03   -0.30588E-01   -0.30534E-01  8112   0.131E+00-0.182E-04
CGA:   4    -0.319550834777E+03   -0.17643E-01   -0.17647E-01  8112   0.291E-01 0.917E-04
CGA:   5    -0.319555088285E+03   -0.42535E-02   -0.42534E-02  8112   0.108E-01-0.432E-04
CGA:   6    -0.319556354028E+03   -0.12657E-02   -0.12667E-02  8112   0.400E-02 0.556E-05
CGA:   7    -0.319556864050E+03   -0.51002E-03   -0.50992E-03  8112   0.159E-02-0.375E-05
CGA:   8    -0.319557053534E+03   -0.18948E-03   -0.18946E-03  8112   0.678E-03-0.903E-06
CGA:   9    -0.319557158308E+03   -0.10477E-03   -0.10476E-03  8112   0.223E-03 0.168E-05
CGA:  10    -0.319557195256E+03   -0.36948E-04   -0.36916E-04  8112   0.156E-03 0.153E-05
CGA:  11    -0.319557214494E+03   -0.19239E-04   -0.19244E-04  8112   0.667E-04 0.244E-06
CGA:  12    -0.319557224835E+03   -0.10341E-04   -0.10349E-04  8112   0.359E-04-0.805E-06
CGA:  13    -0.319557230496E+03   -0.56607E-05   -0.56673E-05  8112   0.163E-04-0.435E-06
  30 F= -.31955723E+03 E0= -.31955320E+03  d E =-.567590E-02  mag=    44.0000
       N       E                     dE             d eps       ncg     rms          ort
SDA:   1    -0.319253246162E+03    0.30398E+00    0.00000E+00  8112   0.761E+00 0.000E+00
CGA:   2    -0.319458606269E+03   -0.20536E+00   -0.20529E+00  8112   0.664E+00 0.553E-03
CGA:   3    -0.319515116302E+03   -0.56510E-01   -0.56280E-01  8112   0.210E+00 0.677E-03
CGA:   4    -0.319546791409E+03   -0.31675E-01   -0.31674E-01  8112   0.472E-01 0.203E-03
CGA:   5    -0.319553835634E+03   -0.70442E-02   -0.70444E-02  8112   0.172E-01-0.713E-04
CGA:   6    -0.319555864005E+03   -0.20284E-02   -0.20295E-02  8112   0.696E-02 0.645E-05
CGA:   7    -0.319556699933E+03   -0.83593E-03   -0.83577E-03  8112   0.260E-02-0.368E-05
CGA:   8    -0.319557034093E+03   -0.33416E-03   -0.33415E-03  8112   0.106E-02-0.892E-06
CGA:   9    -0.319557197140E+03   -0.16305E-03   -0.16303E-03  8112   0.405E-03 0.216E-05
CGA:  10    -0.319557261613E+03   -0.64473E-04   -0.64459E-04  8112   0.268E-03 0.102E-05
CGA:  11    -0.319557295518E+03   -0.33905E-04   -0.33889E-04  8112   0.128E-03-0.807E-06
CGA:  12    -0.319557315527E+03   -0.20009E-04   -0.20031E-04  8112   0.660E-04-0.178E-05
CGA:  13    -0.319557325803E+03   -0.10276E-04   -0.10281E-04  8112   0.312E-04-0.370E-06
CGA:  14    -0.319557330046E+03   -0.42424E-05   -0.42530E-05  8112   0.151E-04 0.117E-05
  31 F= -.31955733E+03 E0= -.31955329E+03  d E =-.995501E-04  mag=    44.0000
       N       E                     dE             d eps       ncg     rms          ort
SDA:   1    -0.319487582281E+03    0.69744E-01    0.00000E+00  8112   0.185E+00 0.000E+00
CGA:   2    -0.319532616132E+03   -0.45034E-01   -0.45033E-01  8112   0.111E+00 0.155E-04
CGA:   3    -0.319549266266E+03   -0.16650E-01   -0.16650E-01  8112   0.423E-01 0.246E-04
CGA:   4    -0.319554414079E+03   -0.51478E-02   -0.51466E-02  8112   0.139E-01-0.203E-04
CGA:   5    -0.319555937965E+03   -0.15239E-02   -0.15235E-02  8112   0.517E-02-0.123E-04
CGA:   6    -0.319556537936E+03   -0.59997E-03   -0.59938E-03  8112   0.177E-02-0.978E-05
CGA:   7    -0.319556785509E+03   -0.24757E-03   -0.24759E-03  8112   0.542E-03 0.101E-05
CGA:   8    -0.319556877561E+03   -0.92052E-04   -0.92031E-04  8112   0.239E-03 0.992E-06
CGA:   9    -0.319556907849E+03   -0.30287E-04   -0.30293E-04  8112   0.123E-03 0.277E-06
CGA:  10    -0.319556924566E+03   -0.16717E-04   -0.16712E-04  8112   0.613E-04-0.494E-06
CGA:  11    -0.319556933128E+03   -0.85619E-05   -0.85594E-05  8112   0.276E-04-0.618E-06
  32 F= -.31955693E+03 E0= -.31955291E+03  d E =0.396918E-03  mag=    44.0000
       N       E                     dE             d eps       ncg     rms          ort
SDA:   1    -0.319496853249E+03    0.60071E-01    0.00000E+00  8112   0.151E+00 0.000E+00
CGA:   2    -0.319531736299E+03   -0.34883E-01   -0.34884E-01  8112   0.104E+00-0.118E-04
CGA:   3    -0.319544157864E+03   -0.12422E-01   -0.12427E-01  8112   0.506E-01 0.451E-04
CGA:   4    -0.319549688810E+03   -0.55309E-02   -0.55288E-02  8112   0.141E-01-0.828E-05
CGA:   5    -0.319551462984E+03   -0.17742E-02   -0.17742E-02  8112   0.399E-02-0.405E-05
CGA:   6    -0.319552011763E+03   -0.54878E-03   -0.54869E-03  8112   0.153E-02-0.696E-05
CGA:   7    -0.319552214135E+03   -0.20237E-03   -0.20241E-03  8112   0.557E-03 0.136E-05
CGA:   8    -0.319552285960E+03   -0.71824E-04   -0.71832E-04  8112   0.293E-03 0.636E-06
CGA:   9    -0.319552320702E+03   -0.34742E-04   -0.34747E-04  8112   0.987E-04 0.178E-06
CGA:  10    -0.319552338865E+03   -0.18163E-04   -0.18178E-04  8112   0.476E-04-0.353E-06
CGA:  11    -0.319552346219E+03   -0.73545E-05   -0.73593E-05  8112   0.294E-04-0.443E-06
  33 F= -.31955235E+03 E0= -.31954833E+03  d E =0.458691E-02  mag=    44.0000
       N       E                     dE             d eps       ncg     rms          ort
SDA:   1    -0.319425684158E+03    0.12665E+00    0.00000E+00  8112   0.314E+00 0.000E+00
CGA:   2    -0.319497546601E+03   -0.71862E-01   -0.71981E-01  8112   0.293E+00-0.119E-02
CGA:   3    -0.319525002375E+03   -0.27456E-01   -0.27643E-01  8112   0.950E-01-0.248E-03
CGA:   4    -0.319537830178E+03   -0.12828E-01   -0.12823E-01  8112   0.296E-01-0.172E-03
CGA:   5    -0.319541374823E+03   -0.35446E-02   -0.35450E-02  8112   0.721E-02 0.417E-05
CGA:   6    -0.319542424828E+03   -0.10500E-02   -0.10500E-02  8112   0.308E-02 0.533E-05
CGA:   7    -0.319542794952E+03   -0.37012E-03   -0.37015E-03  8112   0.117E-02 0.123E-05
CGA:   8    -0.319542936159E+03   -0.14121E-03   -0.14118E-03  8112   0.523E-03-0.349E-06
CGA:   9    -0.319543007142E+03   -0.70982E-04   -0.70982E-04  8112   0.178E-03-0.162E-06
CGA:  10    -0.319543040674E+03   -0.33532E-04   -0.33542E-04  8112   0.102E-03-0.204E-06
CGA:  11    -0.319543054066E+03   -0.13392E-04   -0.13390E-04  8112   0.594E-04-0.176E-06
CGA:  12    -0.319543063209E+03   -0.91437E-05   -0.91447E-05  8112   0.357E-04-0.918E-07
  34 F= -.31954306E+03 E0= -.31953904E+03  d E =0.928301E-02  mag=    44.0000
       N       E                     dE             d eps       ncg     rms          ort
SDA:   1    -0.319080065626E+03    0.46299E+00    0.00000E+00  8112   0.113E+01 0.000E+00
CGA:   2    -0.319390393369E+03   -0.31033E+00   -0.31036E+00  8112   0.670E+00-0.309E-03
CGA:   3    -0.319483085441E+03   -0.92692E-01   -0.92715E-01  8112   0.240E+00 0.988E-03
CGA:   4    -0.319514324919E+03   -0.31239E-01   -0.31235E-01  8112   0.606E-01-0.517E-04
CGA:   5    -0.319521824782E+03   -0.74999E-02   -0.75019E-02  8112   0.233E-01 0.380E-04
CGA:   6    -0.319524434630E+03   -0.26098E-02   -0.26120E-02  8112   0.101E-01 0.180E-04
CGA:   7    -0.319525645536E+03   -0.12109E-02   -0.12101E-02  8112   0.288E-02-0.686E-05
CGA:   8    -0.319526138171E+03   -0.49263E-03   -0.49261E-03  8112   0.103E-02 0.443E-06
CGA:   9    -0.319526302360E+03   -0.16419E-03   -0.16421E-03  8112   0.587E-03-0.832E-06
CGA:  10    -0.319526379832E+03   -0.77472E-04   -0.77480E-04  8112   0.305E-03 0.222E-06
CGA:  11    -0.319526421108E+03   -0.41277E-04   -0.41279E-04  8112   0.177E-03 0.287E-06
CGA:  12    -0.319526450062E+03   -0.28954E-04   -0.28945E-04  8112   0.794E-04 0.432E-06
CGA:  13    -0.319526464165E+03   -0.14103E-04   -0.14092E-04  8112   0.416E-04 0.349E-06
CGA:  14    -0.319526470560E+03   -0.63950E-05   -0.63956E-05  8112   0.233E-04-0.140E-06
  35 F= -.31952647E+03 E0= -.31952244E+03  d E =0.165926E-01  mag=    44.0000
       N       E                     dE             d eps       ncg     rms          ort
SDA:   1    -0.319395706946E+03    0.13076E+00    0.00000E+00  8112   0.340E+00 0.000E+00
CGA:   2    -0.319473735146E+03   -0.78028E-01   -0.78103E-01  8112   0.288E+00-0.753E-03
CGA:   3    -0.319503420490E+03   -0.29685E-01   -0.29861E-01  8112   0.120E+00 0.199E-03
CGA:   4    -0.319517982992E+03   -0.14563E-01   -0.14546E-01  8112   0.299E-01-0.181E-03
CGA:   5    -0.319521819562E+03   -0.38366E-02   -0.38370E-02  8112   0.100E-01 0.129E-04
CGA:   6    -0.319523122145E+03   -0.13026E-02   -0.13027E-02  8112   0.345E-02 0.776E-05
CGA:   7    -0.319523582280E+03   -0.46014E-03   -0.46012E-03  8112   0.153E-02-0.655E-06
CGA:   8    -0.319523752188E+03   -0.16991E-03   -0.16981E-03  8112   0.623E-03-0.165E-05
CGA:   9    -0.319523843294E+03   -0.91107E-04   -0.91106E-04  8112   0.204E-03 0.603E-07
CGA:  10    -0.319523878433E+03   -0.35139E-04   -0.35112E-04  8112   0.116E-03 0.940E-06
CGA:  11    -0.319523892823E+03   -0.14390E-04   -0.14397E-04  8112   0.625E-04 0.328E-06
CGA:  12    -0.319523902066E+03   -0.92429E-05   -0.92434E-05  8112   0.290E-04-0.120E-06
  36 F= -.31952390E+03 E0= -.31951986E+03  d E =0.256849E-02  mag=    44.0000
       N       E                     dE             d eps       ncg     rms          ort
SDA:   1    -0.319182875103E+03    0.34102E+00    0.00000E+00  8112   0.816E+00 0.000E+00
CGA:   2    -0.319426284448E+03   -0.24341E+00   -0.24352E+00  8112   0.499E+00-0.705E-03
CGA:   3    -0.319489083005E+03   -0.62799E-01   -0.62958E-01  8112   0.181E+00 0.183E-02
CGA:   4    -0.319508797106E+03   -0.19714E-01   -0.19613E-01  8112   0.609E-01-0.218E-03
CGA:   5    -0.319515351784E+03   -0.65547E-02   -0.65687E-02  8112   0.194E-01 0.540E-04
CGA:   6    -0.319517883055E+03   -0.25313E-02   -0.25314E-02  8112   0.663E-02 0.830E-05
CGA:   7    -0.319518840449E+03   -0.95739E-03   -0.95739E-03  8112   0.202E-02-0.283E-05
CGA:   8    -0.319519161873E+03   -0.32142E-03   -0.32144E-03  8112   0.103E-02-0.121E-05
CGA:   9    -0.319519267973E+03   -0.10610E-03   -0.10613E-03  8112   0.437E-03-0.198E-06
CGA:  10    -0.319519338357E+03   -0.70385E-04   -0.70380E-04  8112   0.185E-03 0.385E-06
CGA:  11    -0.319519368399E+03   -0.30042E-04   -0.30030E-04  8112   0.109E-03 0.612E-06
CGA:  12    -0.319519386219E+03   -0.17820E-04   -0.17815E-04  8112   0.596E-04 0.340E-06
CGA:  13    -0.319519393871E+03   -0.76518E-05   -0.76549E-05  8112   0.348E-04 0.155E-06
  37 F= -.31951939E+03 E0= -.31951537E+03  d E =0.450819E-02  mag=    44.0000
       N       E                     dE             d eps       ncg     rms          ort
SDA:   1    -0.317384503616E+03    0.21349E+01    0.00000E+00  8112   0.523E+01 0.000E+00
CGA:   2    -0.318785224203E+03   -0.14007E+01   -0.14001E+01  8112   0.511E+01 0.152E-01
CGA:   3    -0.319231124072E+03   -0.44590E+00   -0.44272E+00  8112   0.150E+01 0.254E-01
CGA:   4    -0.319434708367E+03   -0.20358E+00   -0.20314E+00  8112   0.363E+00-0.130E-01
CGA:   5    -0.319484014944E+03   -0.49307E-01   -0.49363E-01  8112   0.120E+00 0.227E-02
CGA:   6    -0.319498953136E+03   -0.14938E-01   -0.14926E-01  8112   0.526E-01-0.133E-03
CGA:   7    -0.319504882511E+03   -0.59294E-02   -0.59344E-02  8112   0.196E-01 0.330E-04
CGA:   8    -0.319507350721E+03   -0.24682E-02   -0.24677E-02  8112   0.725E-02-0.137E-04
CGA:   9    -0.319508436162E+03   -0.10854E-02   -0.10853E-02  8112   0.273E-02 0.112E-04
CGA:  10    -0.319508846729E+03   -0.41057E-03   -0.41056E-03  8112   0.184E-02 0.229E-05
CGA:  11    -0.319509058718E+03   -0.21199E-03   -0.21215E-03  8112   0.749E-03 0.321E-05
CGA:  12    -0.319509203046E+03   -0.14433E-03   -0.14419E-03  8112   0.407E-03 0.252E-05
CGA:  13    -0.319509263606E+03   -0.60560E-04   -0.60556E-04  8112   0.249E-03 0.945E-06
CGA:  14    -0.319509296437E+03   -0.32831E-04   -0.32846E-04  8112   0.119E-03 0.102E-05
CGA:  15    -0.319509312442E+03   -0.16004E-04   -0.16015E-04  8112   0.497E-04 0.106E-05
CGA:  16    -0.319509319474E+03   -0.70325E-05   -0.70355E-05  8112   0.189E-04 0.792E-06
  38 F= -.31950932E+03 E0= -.31950529E+03  d E =0.100744E-01  mag=    44.0000
       N       E                     dE             d eps       ncg     rms          ort
SDA:   1    -0.296846414402E+03    0.22663E+02    0.00000E+00  8112   0.571E+02 0.000E+00
CGA:   2    -0.311372546158E+03   -0.14526E+02   -0.14351E+02  8112   0.517E+02 0.998E+00
CGA:   3    -0.316210307469E+03   -0.48378E+01   -0.46084E+01  8112   0.182E+02-0.213E+01
CGA:   4    -0.318571336147E+03   -0.23610E+01   -0.22853E+01  8112   0.547E+01-0.166E+01
CGA:   5    -0.319032434484E+03   -0.46110E+00   -0.48924E+00  8112   0.308E+01 0.446E-03
CGA:   6    -0.319251397463E+03   -0.21896E+00   -0.20165E+00  8112   0.965E+00 0.102E+00
CGA:   7    -0.319363145125E+03   -0.11175E+00   -0.11465E+00  8112   0.496E+00 0.364E-01
CGA:   8    -0.319408956379E+03   -0.45811E-01   -0.45921E-01  8112   0.257E+00-0.778E-03
CGA:   9    -0.319430726575E+03   -0.21770E-01   -0.23089E-01  8112   0.115E+00 0.105E-02
CGA:  10    -0.319444124637E+03   -0.13398E-01   -0.13435E-01  8112   0.440E-01 0.796E-03
CGA:  11    -0.319449621526E+03   -0.54969E-02   -0.55269E-02  8112   0.305E-01 0.177E-02
CGA:  12    -0.319453085606E+03   -0.34641E-02   -0.34814E-02  8112   0.130E-01 0.250E-03
CGA:  13    -0.319455075481E+03   -0.19899E-02   -0.19776E-02  8112   0.810E-02 0.388E-03
CGA:  14    -0.319456156875E+03   -0.10814E-02   -0.10818E-02  8112   0.458E-02 0.908E-04
CGA:  15    -0.319456751858E+03   -0.59498E-03   -0.59540E-03  8112   0.218E-02 0.675E-04
CGA:  16    -0.319457063955E+03   -0.31210E-03   -0.31181E-03  8112   0.105E-02 0.211E-04
CGA:  17    -0.319457202980E+03   -0.13902E-03   -0.13905E-03  8112   0.487E-03 0.126E-04
CGA:  18    -0.319457261926E+03   -0.58947E-04   -0.59026E-04  8112   0.206E-03 0.542E-05
CGA:  19    -0.319457289668E+03   -0.27741E-04   -0.27736E-04  8112   0.842E-04 0.263E-05
CGA:  20    -0.319457301863E+03   -0.12195E-04   -0.12182E-04  8112   0.442E-04 0.111E-05
CGA:  21    -0.319457307520E+03   -0.56570E-05   -0.56597E-05  8112   0.226E-04 0.424E-06
  39 F= -.31945731E+03 E0= -.31945328E+03  d E =0.520120E-01  mag=    44.0000
       N       E                     dE             d eps       ncg     rms          ort
SDA:   1    -0.314199359896E+03    0.52579E+01    0.00000E+00  8112   0.145E+02 0.000E+00
CGA:   2    -0.317548015751E+03   -0.33487E+01   -0.33560E+01  8112   0.919E+01-0.901E-01
CGA:   3    -0.318925410662E+03   -0.13774E+01   -0.13755E+01  8112   0.340E+01 0.699E-01
CGA:   4    -0.319337210666E+03   -0.41180E+00   -0.41057E+00  8112   0.112E+01-0.140E-01
CGA:   5    -0.319459795165E+03   -0.12258E+00   -0.12256E+00  8112   0.419E+00-0.173E-03
CGA:   6    -0.319505047442E+03   -0.45252E-01   -0.44954E-01  8112   0.158E+00-0.242E-02
CGA:   7    -0.319526669405E+03   -0.21622E-01   -0.21617E-01  8112   0.421E-01 0.103E-02
CGA:   8    -0.319534556358E+03   -0.78870E-02   -0.78930E-02  8112   0.193E-01-0.873E-04
CGA:   9    -0.319536704910E+03   -0.21486E-02   -0.21526E-02  8112   0.993E-02 0.486E-04
CGA:  10    -0.319538108934E+03   -0.14040E-02   -0.14040E-02  8112   0.485E-02 0.742E-05
CGA:  11    -0.319538752298E+03   -0.64336E-03   -0.64346E-03  8112   0.211E-02 0.137E-04
CGA:  12    -0.319539156388E+03   -0.40409E-03   -0.40331E-03  8112   0.109E-02 0.131E-04
CGA:  13    -0.319539305766E+03   -0.14938E-03   -0.14940E-03  8112   0.732E-03 0.466E-05
CGA:  14    -0.319539399918E+03   -0.94153E-04   -0.94163E-04  8112   0.319E-03 0.113E-05
CGA:  15    -0.319539449703E+03   -0.49784E-04   -0.49787E-04  8112   0.126E-03-0.307E-06
CGA:  16    -0.319539469374E+03   -0.19672E-04   -0.19674E-04  8112   0.686E-04-0.112E-06
CGA:  17    -0.319539477738E+03   -0.83632E-05   -0.83703E-05  8112   0.307E-04 0.360E-06
  40 F= -.31953948E+03 E0= -.31953551E+03  d E =-.821702E-01  mag=    44.0000
       N       E                     dE             d eps       ncg     rms          ort
SDA:   1    -0.318610048893E+03    0.92942E+00    0.00000E+00  8112   0.254E+01 0.000E+00
CGA:   2    -0.319204337607E+03   -0.59429E+00   -0.59378E+00  8112   0.166E+01 0.526E-02
CGA:   3    -0.319407360609E+03   -0.20302E+00   -0.20192E+00  8112   0.990E+00-0.176E-01
CGA:   4    -0.319504444437E+03   -0.97084E-01   -0.97912E-01  8112   0.212E+00 0.170E-02
CGA:   5    -0.319537078484E+03   -0.32634E-01   -0.32642E-01  8112   0.547E-01-0.341E-03
CGA:   6    -0.319545827687E+03   -0.87492E-02   -0.87441E-02  8112   0.237E-01 0.161E-03
CGA:   7    -0.319548169277E+03   -0.23416E-02   -0.23382E-02  8112   0.100E-01-0.249E-05
CGA:   8    -0.319549610093E+03   -0.14408E-02   -0.14407E-02  8112   0.333E-02 0.122E-04
CGA:   9    -0.319550104351E+03   -0.49426E-03   -0.49427E-03  8112   0.168E-02 0.461E-06
CGA:  10    -0.319550343823E+03   -0.23947E-03   -0.23946E-03  8112   0.775E-03 0.315E-05
CGA:  11    -0.319550449228E+03   -0.10541E-03   -0.10540E-03  8112   0.478E-03 0.229E-06
CGA:  12    -0.319550513297E+03   -0.64070E-04   -0.64071E-04  8112   0.200E-03 0.145E-06
CGA:  13    -0.319550547638E+03   -0.34340E-04   -0.34316E-04  8112   0.991E-04 0.735E-06
CGA:  14    -0.319550562959E+03   -0.15321E-04   -0.15313E-04  8112   0.618E-04 0.625E-06
CGA:  15    -0.319550569903E+03   -0.69440E-05   -0.69580E-05  8112   0.243E-04 0.470E-06
  41 F= -.31955057E+03 E0= -.31954654E+03  d E =-.110922E-01  mag=    44.0000
       N       E                     dE             d eps       ncg     rms          ort
SDA:   1    -0.318872973415E+03    0.67759E+00    0.00000E+00  8112   0.171E+01 0.000E+00
CGA:   2    -0.319319786131E+03   -0.44681E+00   -0.44701E+00  8112   0.143E+01-0.117E-02
CGA:   3    -0.319457335352E+03   -0.13755E+00   -0.13918E+00  8112   0.569E+00-0.106E-02
CGA:   4    -0.319524034426E+03   -0.66699E-01   -0.66365E-01  8112   0.133E+00-0.288E-02
CGA:   5    -0.319542093859E+03   -0.18059E-01   -0.18068E-01  8112   0.426E-01 0.586E-03
CGA:   6    -0.319547572025E+03   -0.54782E-02   -0.54724E-02  8112   0.175E-01-0.133E-03
CGA:   7    -0.319549586504E+03   -0.20145E-02   -0.20160E-02  8112   0.715E-02 0.150E-04
CGA:   8    -0.319550442616E+03   -0.85611E-03   -0.85574E-03  8112   0.263E-02-0.649E-05
CGA:   9    -0.319550836835E+03   -0.39422E-03   -0.39417E-03  8112   0.983E-03 0.276E-05
CGA:  10    -0.319550983859E+03   -0.14702E-03   -0.14702E-03  8112   0.622E-03 0.969E-06
CGA:  11    -0.319551057021E+03   -0.73163E-04   -0.73196E-04  8112   0.276E-03 0.977E-06
CGA:  12    -0.319551103983E+03   -0.46962E-04   -0.46946E-04  8112   0.144E-03 0.560E-06
CGA:  13    -0.319551126243E+03   -0.22261E-04   -0.22255E-04  8112   0.848E-04 0.365E-06
CGA:  14    -0.319551137475E+03   -0.11231E-04   -0.11233E-04  8112   0.428E-04 0.208E-06
CGA:  15    -0.319551143197E+03   -0.57223E-05   -0.57238E-05  8112   0.193E-04 0.178E-06
  42 F= -.31955114E+03 E0= -.31954715E+03  d E =-.573294E-03  mag=    44.0000
       N       E                     dE             d eps       ncg     rms          ort
SDA:   1    -0.319427838257E+03    0.12330E+00    0.00000E+00  8112   0.332E+00 0.000E+00
CGA:   2    -0.319519870872E+03   -0.92033E-01   -0.92079E-01  8112   0.236E+00-0.324E-03
CGA:   3    -0.319541720014E+03   -0.21849E-01   -0.22041E-01  8112   0.105E+00-0.326E-03
CGA:   4    -0.319554910428E+03   -0.13190E-01   -0.13179E-01  8112   0.211E-01-0.203E-03
CGA:   5    -0.319557867280E+03   -0.29569E-02   -0.29570E-02  8112   0.721E-02 0.251E-04
CGA:   6    -0.319558771153E+03   -0.90387E-03   -0.90345E-03  8112   0.312E-02-0.978E-05
CGA:   7    -0.319559124912E+03   -0.35376E-03   -0.35376E-03  8112   0.120E-02-0.224E-05
CGA:   8    -0.319559270067E+03   -0.14515E-03   -0.14513E-03  8112   0.434E-03-0.656E-06
CGA:   9    -0.319559341646E+03   -0.71579E-04   -0.71559E-04  8112   0.180E-03 0.768E-06
CGA:  10    -0.319559367014E+03   -0.25368E-04   -0.25368E-04  8112   0.125E-03 0.636E-06
CGA:  11    -0.319559382811E+03   -0.15798E-04   -0.15802E-04  8112   0.549E-04 0.270E-06
CGA:  12    -0.319559392632E+03   -0.98209E-05   -0.98274E-05  8112   0.315E-04-0.169E-06
  43 F= -.31955939E+03 E0= -.31955540E+03  d E =-.824944E-02  mag=    44.0000
       N       E                     dE             d eps       ncg     rms          ort
SDA:   1    -0.297200028986E+03    0.22359E+02    0.00000E+00  8112   0.564E+02 0.000E+00
CGA:   2    -0.313211662681E+03   -0.16012E+02   -0.15907E+02  8112   0.318E+02 0.960E+00
CGA:   3    -0.317025958314E+03   -0.38143E+01   -0.36719E+01  8112   0.175E+02-0.870E+00
CGA:   4    -0.318858824819E+03   -0.18329E+01   -0.16714E+01  8112   0.345E+01 0.591E+00
CGA:   5    -0.319368238141E+03   -0.50941E+00   -0.50959E+00  8112   0.118E+01 0.280E-01
CGA:   6    -0.319530015133E+03   -0.16178E+00   -0.16194E+00  8112   0.481E+00 0.799E-02
CGA:   7    -0.319585403371E+03   -0.55388E-01   -0.55171E-01  8112   0.273E+00-0.174E-02
CGA:   8    -0.319607389772E+03   -0.21986E-01   -0.22805E-01  8112   0.989E-01-0.249E-02
CGA:   9    -0.319622150466E+03   -0.14761E-01   -0.14761E-01  8112   0.346E-01-0.379E-04
CGA:  10    -0.319628578325E+03   -0.64279E-02   -0.64196E-02  8112   0.159E-01 0.147E-03
CGA:  11    -0.319631712429E+03   -0.31341E-02   -0.31269E-02  8112   0.888E-02 0.111E-03
CGA:  12    -0.319633260221E+03   -0.15478E-02   -0.15462E-02  8112   0.469E-02 0.445E-04
CGA:  13    -0.319634116094E+03   -0.85587E-03   -0.85477E-03  8112   0.199E-02 0.250E-04
CGA:  14    -0.319634447261E+03   -0.33117E-03   -0.33100E-03  8112   0.110E-02 0.977E-05
CGA:  15    -0.319634574654E+03   -0.12739E-03   -0.12775E-03  8112   0.578E-03 0.649E-05
CGA:  16    -0.319634636479E+03   -0.61826E-04   -0.61973E-04  8112   0.206E-03 0.332E-05
CGA:  17    -0.319634670227E+03   -0.33748E-04   -0.33719E-04  8112   0.888E-04 0.170E-05
CGA:  18    -0.319634685232E+03   -0.15005E-04   -0.14991E-04  8112   0.391E-04 0.653E-06
CGA:  19    -0.319634693740E+03   -0.85085E-05   -0.85259E-05  8112   0.266E-04-0.259E-06
  44 F= -.31963469E+03 E0= -.31963068E+03  d E =-.753011E-01  mag=    44.0000
       N       E                     dE             d eps       ncg     rms          ort
SDA:   1    -0.293728654652E+03    0.25906E+02    0.00000E+00  8112   0.166E+03 0.000E+00
CGA:   2    -0.304839039543E+03   -0.11110E+02   -0.15563E+02  8112   0.525E+02 0.629E+01
CGA:   3    -0.312383440826E+03   -0.75444E+01   -0.66636E+01  8112   0.362E+02-0.777E+01
CGA:   4    -0.316695462528E+03   -0.43120E+01   -0.36776E+01  8112   0.167E+02-0.530E+01
CGA:   5    -0.317852803759E+03   -0.11573E+01   -0.12060E+01  8112   0.931E+01-0.716E+00
CGA:   6    -0.318385575958E+03   -0.53277E+00   -0.65695E+00  8112   0.459E+01-0.655E+00
CGA:   7    -0.318664340602E+03   -0.27876E+00   -0.27495E+00  8112   0.161E+01 0.369E-01
CGA:   8    -0.318820451557E+03   -0.15611E+00   -0.15923E+00  8112   0.878E+00 0.107E-01
CGA:   9    -0.318896183741E+03   -0.75732E-01   -0.76673E-01  8112   0.541E+00-0.422E-02
CGA:  10    -0.318943891272E+03   -0.47708E-01   -0.50577E-01  8112   0.273E+00 0.103E-01
CGA:  11    -0.318966645998E+03   -0.22755E-01   -0.23807E-01  8112   0.134E+00-0.474E-03
CGA:  12    -0.318982648150E+03   -0.16002E-01   -0.16070E-01  8112   0.616E-01 0.471E-02
CGA:  13    -0.318990568777E+03   -0.79206E-02   -0.79343E-02  8112   0.265E-01 0.343E-02
CGA:  14    -0.318993973178E+03   -0.34044E-02   -0.34103E-02  8112   0.165E-01 0.667E-03
CGA:  15    -0.318996092138E+03   -0.21190E-02   -0.21191E-02  8112   0.604E-02 0.154E-03
CGA:  16    -0.318996969680E+03   -0.87754E-03   -0.87545E-03  8112   0.427E-02 0.747E-04
CGA:  17    -0.318997514230E+03   -0.54455E-03   -0.54459E-03  8112   0.174E-02 0.264E-04
CGA:  18    -0.318997759524E+03   -0.24529E-03   -0.24510E-03  8112   0.108E-02 0.838E-05
CGA:  19    -0.318997903329E+03   -0.14381E-03   -0.14379E-03  8112   0.457E-03 0.120E-05
CGA:  20    -0.318997962590E+03   -0.59261E-04   -0.59257E-04  8112   0.255E-03 0.136E-05
CGA:  21    -0.318997998121E+03   -0.35531E-04   -0.35502E-04  8112   0.123E-03 0.242E-05
CGA:  22    -0.318998015851E+03   -0.17730E-04   -0.17700E-04  8112   0.700E-04 0.204E-05
CGA:  23    -0.318998025196E+03   -0.93446E-05   -0.93416E-05  8112   0.388E-04 0.129E-05
  45 F= -.31899803E+03 E0= -.31899391E+03  d E =0.636669E+00  mag=    44.0000
       N       E                     dE             d eps       ncg     rms          ort
SDA:   1    -0.314934132918E+03    0.40639E+01    0.00000E+00  8112   0.143E+02 0.000E+00
CGA:   2    -0.317563995726E+03   -0.26299E+01   -0.26246E+01  8112   0.732E+01 0.608E-01
CGA:   3    -0.318831745728E+03   -0.12678E+01   -0.12823E+01  8112   0.399E+01-0.354E+00
CGA:   4    -0.319256845001E+03   -0.42510E+00   -0.42953E+00  8112   0.117E+01 0.666E-01
CGA:   5    -0.319388261185E+03   -0.13142E+00   -0.13064E+00  8112   0.557E+00-0.935E-02
CGA:   6    -0.319443820226E+03   -0.55559E-01   -0.55814E-01  8112   0.168E+00 0.131E-02
CGA:   7    -0.319469413997E+03   -0.25594E-01   -0.25599E-01  8112   0.464E-01-0.156E-03
CGA:   8    -0.319477307107E+03   -0.78931E-02   -0.78836E-02  8112   0.302E-01 0.190E-03
CGA:   9    -0.319480036410E+03   -0.27293E-02   -0.27192E-02  8112   0.106E-01 0.809E-05
CGA:  10    -0.319481769417E+03   -0.17330E-02   -0.17319E-02  8112   0.522E-02 0.248E-04
CGA:  11    -0.319482505135E+03   -0.73572E-03   -0.73558E-03  8112   0.244E-02 0.130E-04
CGA:  12    -0.319482865514E+03   -0.36038E-03   -0.36023E-03  8112   0.160E-02 0.813E-05
CGA:  13    -0.319483039077E+03   -0.17356E-03   -0.17357E-03  8112   0.669E-03 0.201E-05
CGA:  14    -0.319483150337E+03   -0.11126E-03   -0.11119E-03  8112   0.349E-03 0.190E-05
CGA:  15    -0.319483203756E+03   -0.53419E-04   -0.53415E-04  8112   0.174E-03 0.238E-06
CGA:  16    -0.319483224511E+03   -0.20755E-04   -0.20749E-04  8112   0.111E-03-0.467E-06
CGA:  17    -0.319483239112E+03   -0.14601E-04   -0.14600E-04  8112   0.352E-04-0.542E-06
CGA:  18    -0.319483244951E+03   -0.58386E-05   -0.58362E-05  8112   0.216E-04 0.611E-07
  46 F= -.31948324E+03 E0= -.31947915E+03  d E =-.485220E+00  mag=    44.0000
       N       E                     dE             d eps       ncg     rms          ort
SDA:   1    -0.318718328069E+03    0.76491E+00    0.00000E+00  8112   0.260E+01 0.000E+00
CGA:   2    -0.319236790161E+03   -0.51846E+00   -0.51839E+00  8112   0.134E+01 0.123E-02
CGA:   3    -0.319459591396E+03   -0.22280E+00   -0.22242E+00  8112   0.816E+00 0.943E-02
CGA:   4    -0.319534903855E+03   -0.75312E-01   -0.73886E-01  8112   0.272E+00 0.254E-03
CGA:   5    -0.319567351742E+03   -0.32448E-01   -0.32467E-01  8112   0.795E-01 0.370E-03
CGA:   6    -0.319578354250E+03   -0.11003E-01   -0.11003E-01  8112   0.295E-01-0.841E-04
CGA:   7    -0.319582117727E+03   -0.37635E-02   -0.37642E-02  8112   0.117E-01 0.331E-04
CGA:   8    -0.319583410761E+03   -0.12930E-02   -0.12921E-02  8112   0.656E-02-0.619E-05
CGA:   9    -0.319584219890E+03   -0.80913E-03   -0.80931E-03  8112   0.172E-02 0.914E-05
CGA:  10    -0.319584545386E+03   -0.32550E-03   -0.32551E-03  8112   0.111E-02 0.125E-06
CGA:  11    -0.319584669215E+03   -0.12383E-03   -0.12390E-03  8112   0.538E-03 0.110E-05
CGA:  12    -0.319584741476E+03   -0.72260E-04   -0.72262E-04  8112   0.300E-03 0.833E-06
CGA:  13    -0.319584783169E+03   -0.41694E-04   -0.41692E-04  8112   0.112E-03 0.630E-06
CGA:  14    -0.319584803000E+03   -0.19831E-04   -0.19812E-04  8112   0.860E-04 0.479E-06
CGA:  15    -0.319584812151E+03   -0.91501E-05   -0.91574E-05  8112   0.355E-04 0.191E-06
  47 F= -.31958481E+03 E0= -.31958073E+03  d E =-.101567E+00  mag=    44.0000
       N       E                     dE             d eps       ncg     rms          ort
[...]
CGA:  11    -0.319631682012E+03   -0.13382E-04   -0.13380E-04  8112   0.581E-04-0.111E-06
CGA:  12    -0.319631690134E+03   -0.81220E-05   -0.81210E-05  8112   0.279E-04 0.182E-06
  60 F= -.31963169E+03 E0= -.31962750E+03  d E =0.585211E-03  mag=    44.0000
       N       E                     dE             d eps       ncg     rms          ort
SDA:   1    -0.319509365662E+03    0.12232E+00    0.00000E+00  8112   0.306E+00 0.000E+00
CGA:   2    -0.319591740412E+03   -0.82375E-01   -0.82269E-01  8112   0.231E+00 0.680E-03
CGA:   3    -0.319618728198E+03   -0.26988E-01   -0.26972E-01  8112   0.735E-01-0.406E-04
CGA:   4    -0.319627262948E+03   -0.85347E-02   -0.85237E-02  8112   0.313E-01-0.128E-03
CGA:   5    -0.319629890474E+03   -0.26275E-02   -0.26376E-02  8112   0.860E-02-0.310E-04
CGA:   6    -0.319631097146E+03   -0.12067E-02   -0.12067E-02  8112   0.271E-02-0.296E-05
CGA:   7    -0.319631514019E+03   -0.41687E-03   -0.41689E-03  8112   0.924E-03-0.721E-06
CGA:   8    -0.319631629481E+03   -0.11546E-03   -0.11546E-03  8112   0.562E-03 0.423E-06
CGA:   9    -0.319631684771E+03   -0.55289E-04   -0.55322E-04  8112   0.186E-03 0.379E-06
CGA:  10    -0.319631713546E+03   -0.28776E-04   -0.28775E-04  8112   0.908E-04 0.593E-07
CGA:  11    -0.319631727527E+03   -0.13981E-04   -0.13977E-04  8112   0.447E-04 0.217E-06
CGA:  12    -0.319631733867E+03   -0.63398E-05   -0.63387E-05  8112   0.347E-04 0.279E-06
  61 F= -.31963173E+03 E0= -.31962753E+03  d E =-.437334E-04  mag=    44.0000
       N       E                     dE             d eps       ncg     rms          ort
SDA:   1    -0.298715628531E+03    0.20916E+02    0.00000E+00  8112   0.627E+02 0.000E+00
CGA:   2    -0.310238235173E+03   -0.11523E+02   -0.11452E+02  8112   0.418E+02 0.139E+01
CGA:   3    -0.316334594479E+03   -0.60964E+01   -0.61279E+01  8112   0.175E+02-0.359E+01
CGA:   4    -0.318477157011E+03   -0.21426E+01   -0.21405E+01  8112   0.495E+01-0.165E+00
CGA:   5    -0.319000253146E+03   -0.52310E+00   -0.52973E+00  8112   0.235E+01 0.393E-01
CGA:   6    -0.319224271437E+03   -0.22402E+00   -0.21818E+00  8112   0.715E+00 0.575E-02
CGA:   7    -0.319331468515E+03   -0.10720E+00   -0.10703E+00  8112   0.217E+00 0.689E-02
CGA:   8    -0.319366364115E+03   -0.34896E-01   -0.34787E-01  8112   0.103E+00 0.290E-02
CGA:   9    -0.319380321064E+03   -0.13957E-01   -0.13967E-01  8112   0.438E-01 0.186E-02
CGA:  10    -0.319386281815E+03   -0.59608E-02   -0.59589E-02  8112   0.309E-01-0.269E-03
CGA:  11    -0.319389608795E+03   -0.33270E-02   -0.33405E-02  8112   0.120E-01 0.140E-03
CGA:  12    -0.319391699455E+03   -0.20907E-02   -0.20828E-02  8112   0.537E-02 0.153E-03
CGA:  13    -0.319392768756E+03   -0.10693E-02   -0.10673E-02  8112   0.296E-02 0.288E-04
CGA:  14    -0.319393137338E+03   -0.36858E-03   -0.36871E-03  8112   0.202E-02 0.568E-05
CGA:  15    -0.319393379843E+03   -0.24250E-03   -0.24273E-03  8112   0.782E-03 0.514E-05
CGA:  16    -0.319393500552E+03   -0.12071E-03   -0.12068E-03  8112   0.297E-03 0.141E-05
CGA:  17    -0.319393549730E+03   -0.49177E-04   -0.49112E-04  8112   0.151E-03 0.231E-05
CGA:  18    -0.319393570172E+03   -0.20442E-04   -0.20451E-04  8112   0.850E-04 0.139E-05
CGA:  19    -0.319393579903E+03   -0.97312E-05   -0.97494E-05  8112   0.439E-04 0.591E-06
  62 F= -.31939358E+03 E0= -.31938944E+03  d E =0.238154E+00  mag=    44.0000
       N       E                     dE             d eps       ncg     rms          ort
SDA:   1    -0.302763321852E+03    0.16630E+02    0.00000E+00  8112   0.569E+02 0.000E+00
CGA:   2    -0.311903998493E+03   -0.91407E+01   -0.91214E+01  8112   0.326E+02 0.812E+00
CGA:   3    -0.316161538562E+03   -0.42575E+01   -0.42382E+01  8112   0.207E+02-0.487E+00
CGA:   4    -0.318317672328E+03   -0.21561E+01   -0.20540E+01  8112   0.745E+01-0.436E+00
CGA:   5    -0.319147789225E+03   -0.83012E+00   -0.83146E+00  8112   0.256E+01-0.341E-02
CGA:   6    -0.319411634698E+03   -0.26385E+00   -0.26817E+00  8112   0.128E+01 0.206E-01
CGA:   7    -0.319504072705E+03   -0.92438E-01   -0.92931E-01  8112   0.668E+00-0.123E-01
CGA:   8    -0.319572849954E+03   -0.68777E-01   -0.69486E-01  8112   0.179E+00 0.639E-02
CGA:   9    -0.319594364398E+03   -0.21514E-01   -0.21673E-01  8112   0.152E+00 0.578E-02
CGA:  10    -0.319606896318E+03   -0.12532E-01   -0.12606E-01  8112   0.543E-01-0.913E-04
CGA:  11    -0.319613844721E+03   -0.69484E-02   -0.69485E-02  8112   0.228E-01 0.553E-03
CGA:  12    -0.319617472329E+03   -0.36276E-02   -0.36053E-02  8112   0.147E-01 0.538E-03
CGA:  13    -0.319618850283E+03   -0.13780E-02   -0.13838E-02  8112   0.793E-02 0.241E-04
CGA:  14    -0.319619881442E+03   -0.10312E-02   -0.10310E-02  8112   0.339E-02 0.497E-04
CGA:  15    -0.319620489307E+03   -0.60786E-03   -0.60620E-03  8112   0.158E-02 0.272E-04
CGA:  16    -0.319620721504E+03   -0.23220E-03   -0.23202E-03  8112   0.128E-02 0.800E-05
CGA:  17    -0.319620849854E+03   -0.12835E-03   -0.12861E-03  8112   0.560E-03 0.258E-05
CGA:  18    -0.319620926031E+03   -0.76177E-04   -0.76170E-04  8112   0.206E-03 0.114E-05
CGA:  19    -0.319620961507E+03   -0.35475E-04   -0.35433E-04  8112   0.105E-03 0.903E-06
CGA:  20    -0.319620975760E+03   -0.14254E-04   -0.14251E-04  8112   0.653E-04 0.601E-06
CGA:  21    -0.319620982530E+03   -0.67701E-05   -0.67830E-05  8112   0.365E-04 0.413E-06
  63 F= -.31962098E+03 E0= -.31961690E+03  d E =-.227403E+00  mag=    44.0000
       N       E                     dE             d eps       ncg     rms          ort
SDA:   1    -0.317915156987E+03    0.17058E+01    0.00000E+00  8112   0.527E+01 0.000E+00
CGA:   2    -0.318970978253E+03   -0.10558E+01   -0.10553E+01  8112   0.271E+01 0.663E-02
CGA:   3    -0.319438993226E+03   -0.46801E+00   -0.46842E+00  8112   0.149E+01-0.686E-02
CGA:   4    -0.319585145636E+03   -0.14615E+00   -0.14795E+00  8112   0.569E+00 0.318E-02
CGA:   5    -0.319644011648E+03   -0.58866E-01   -0.58539E-01  8112   0.179E+00-0.175E-02
CGA:   6    -0.319666825410E+03   -0.22814E-01   -0.22824E-01  8112   0.604E-01 0.779E-03
CGA:   7    -0.319675532065E+03   -0.87067E-02   -0.87100E-02  8112   0.195E-01-0.188E-03
CGA:   8    -0.319678190679E+03   -0.26586E-02   -0.26584E-02  8112   0.132E-01 0.463E-04
CGA:   9    -0.319679482607E+03   -0.12919E-02   -0.12902E-02  8112   0.390E-02 0.316E-06
CGA:  10    -0.319680148163E+03   -0.66556E-03   -0.66519E-03  8112   0.201E-02 0.762E-05
CGA:  11    -0.319680431207E+03   -0.28304E-03   -0.28305E-03  8112   0.979E-03 0.320E-06
CGA:  12    -0.319680559770E+03   -0.12856E-03   -0.12857E-03  8112   0.637E-03 0.161E-05
CGA:  13    -0.319680634857E+03   -0.75088E-04   -0.75105E-04  8112   0.247E-03 0.121E-05
CGA:  14    -0.319680678583E+03   -0.43726E-04   -0.43688E-04  8112   0.136E-03 0.860E-06
CGA:  15    -0.319680698366E+03   -0.19783E-04   -0.19780E-04  8112   0.777E-04 0.259E-06
CGA:  16    -0.319680707001E+03   -0.86349E-05   -0.86326E-05  8112   0.400E-04-0.114E-06
  64 F= -.31968071E+03 E0= -.31967658E+03  d E =-.597245E-01  mag=    44.0000
       N       E                     dE             d eps       ncg     rms          ort
SDA:   1    -0.319641332763E+03    0.39366E-01    0.00000E+00  8112   0.126E+00 0.000E+00
CGA:   2    -0.319666357305E+03   -0.25025E-01   -0.25034E-01  8112   0.802E-01-0.117E-03
CGA:   3    -0.319676932282E+03   -0.10575E-01   -0.10578E-01  8112   0.440E-01 0.192E-03
CGA:   4    -0.319681652547E+03   -0.47203E-02   -0.47116E-02  8112   0.163E-01-0.688E-04
CGA:   5    -0.319683264330E+03   -0.16118E-02   -0.16129E-02  8112   0.481E-02-0.129E-05
CGA:   6    -0.319683953978E+03   -0.68965E-03   -0.68966E-03  8112   0.132E-02-0.104E-05
CGA:   7    -0.319684156084E+03   -0.20211E-03   -0.20213E-03  8112   0.635E-03-0.130E-05
CGA:   8    -0.319684218280E+03   -0.62196E-04   -0.62158E-04  8112   0.294E-03-0.513E-06
CGA:   9    -0.319684257565E+03   -0.39285E-04   -0.39285E-04  8112   0.108E-03 0.214E-06
CGA:  10    -0.319684273317E+03   -0.15752E-04   -0.15742E-04  8112   0.490E-04 0.899E-06
CGA:  11    -0.319684281061E+03   -0.77443E-05   -0.77359E-05  8112   0.295E-04 0.384E-06
  65 F= -.31968428E+03 E0= -.31968015E+03  d E =-.357406E-02  mag=    44.0000
       N       E                     dE             d eps       ncg     rms          ort
SDA:   1    -0.319429609692E+03    0.25466E+00    0.00000E+00  8112   0.709E+00 0.000E+00
CGA:   2    -0.319587633083E+03   -0.15802E+00   -0.15801E+00  8112   0.414E+00 0.172E-03
CGA:   3    -0.319649115673E+03   -0.61483E-01   -0.61458E-01  8112   0.212E+00 0.146E-02
CGA:   4    -0.319670920471E+03   -0.21805E-01   -0.21698E-01  8112   0.798E-01-0.454E-03
CGA:   5    -0.319678761547E+03   -0.78411E-02   -0.78643E-02  8112   0.252E-01 0.595E-04
CGA:   6    -0.319681993000E+03   -0.32315E-02   -0.32308E-02  8112   0.749E-02-0.378E-04
CGA:   7    -0.319683138230E+03   -0.11452E-02   -0.11452E-02  8112   0.270E-02-0.642E-06
CGA:   8    -0.319683468931E+03   -0.33070E-03   -0.33067E-03  8112   0.171E-02-0.122E-05
CGA:   9    -0.319683650310E+03   -0.18138E-03   -0.18149E-03  8112   0.564E-03 0.127E-05
CGA:  10    -0.319683738867E+03   -0.88557E-04   -0.88514E-04  8112   0.276E-03 0.204E-05
CGA:  11    -0.319683780634E+03   -0.41767E-04   -0.41752E-04  8112   0.136E-03 0.944E-06
CGA:  12    -0.319683798633E+03   -0.17998E-04   -0.17997E-04  8112   0.935E-04-0.214E-06
CGA:  13    -0.319683809558E+03   -0.10925E-04   -0.10919E-04  8112   0.384E-04-0.360E-06
CGA:  14    -0.319683816223E+03   -0.66654E-05   -0.66499E-05  8112   0.178E-04 0.402E-06
  66 F= -.31968382E+03 E0= -.31967969E+03  d E =0.464838E-03  mag=    44.0000
       N       E                     dE             d eps       ncg     rms          ort
SDA:   1    -0.319591636354E+03    0.92173E-01    0.00000E+00  8112   0.265E+00 0.000E+00
CGA:   2    -0.319636424575E+03   -0.44788E-01   -0.44612E-01  8112   0.285E+00 0.384E-02
CGA:   3    -0.319666375272E+03   -0.29951E-01   -0.29801E-01  8112   0.791E-01-0.624E-03
CGA:   4    -0.319674900962E+03   -0.85257E-02   -0.85390E-02  8112   0.335E-01 0.994E-04
CGA:   5    -0.319679530004E+03   -0.46290E-02   -0.46293E-02  8112   0.632E-02-0.524E-04
CGA:   6    -0.319680465619E+03   -0.93562E-03   -0.93547E-03  8112   0.278E-02 0.497E-05
CGA:   7    -0.319680740633E+03   -0.27501E-03   -0.27468E-03  8112   0.124E-02-0.234E-05
CGA:   8    -0.319680878920E+03   -0.13829E-03   -0.13829E-03  8112   0.387E-03-0.168E-06
CGA:   9    -0.319680943436E+03   -0.64516E-04   -0.64480E-04  8112   0.170E-03 0.107E-05
CGA:  10    -0.319680966995E+03   -0.23559E-04   -0.23558E-04  8112   0.102E-03 0.103E-06
CGA:  11    -0.319680980211E+03   -0.13217E-04   -0.13215E-04  8112   0.622E-04-0.203E-06
CGA:  12    -0.319680987447E+03   -0.72360E-05   -0.72336E-05  8112   0.269E-04-0.136E-06
  67 F= -.31968099E+03 E0= -.31967685E+03  d E =0.282878E-02  mag=    44.0000
       N       E                     dE             d eps       ncg     rms          ort
SDA:   1    -0.319130927805E+03    0.55005E+00    0.00000E+00  8112   0.153E+01 0.000E+00
CGA:   2    -0.319448827802E+03   -0.31790E+00   -0.31718E+00  8112   0.133E+01 0.881E-02
CGA:   3    -0.319608172699E+03   -0.15934E+00   -0.15912E+00  8112   0.268E+00-0.309E-02
CGA:   4    -0.319656925832E+03   -0.48753E-01   -0.48779E-01  8112   0.806E-01-0.449E-03
CGA:   5    -0.319667871220E+03   -0.10945E-01   -0.10946E-01  8112   0.206E-01 0.614E-04
CGA:   6    -0.319670844445E+03   -0.29732E-02   -0.29732E-02  8112   0.114E-01-0.839E-05
CGA:   7    -0.319671790574E+03   -0.94613E-03   -0.94150E-03  8112   0.359E-02 0.147E-04
CGA:   8    -0.319672311349E+03   -0.52078E-03   -0.52075E-03  8112   0.162E-02 0.391E-05
CGA:   9    -0.319672535932E+03   -0.22458E-03   -0.22458E-03  8112   0.596E-03 0.131E-05
CGA:  10    -0.319672659040E+03   -0.12311E-03   -0.12311E-03  8112   0.355E-03-0.980E-08
CGA:  11    -0.319672696094E+03   -0.37054E-04   -0.37051E-04  8112   0.246E-03 0.764E-07
CGA:  12    -0.319672733385E+03   -0.37291E-04   -0.37285E-04  8112   0.107E-03 0.536E-06
CGA:  13    -0.319672750917E+03   -0.17532E-04   -0.17511E-04  8112   0.479E-04 0.961E-06
CGA:  14    -0.319672758837E+03   -0.79191E-05   -0.79027E-05  8112   0.287E-04 0.770E-06
  68 F= -.31967276E+03 E0= -.31966858E+03  d E =0.822861E-02  mag=    44.0000
       N       E                     dE             d eps       ncg     rms          ort
SDA:   1    -0.319508265333E+03    0.16449E+00    0.00000E+00  8112   0.430E+00 0.000E+00
CGA:   2    -0.319611966338E+03   -0.10370E+00   -0.10369E+00  8112   0.339E+00 0.106E-03
CGA:   3    -0.319648412686E+03   -0.36446E-01   -0.36539E-01  8112   0.128E+00 0.333E-03
CGA:   4    -0.319661805609E+03   -0.13393E-01   -0.13315E-01  8112   0.572E-01-0.208E-03
CGA:   5    -0.319667404422E+03   -0.55988E-02   -0.56145E-02  8112   0.134E-01 0.238E-04
CGA:   6    -0.319669359394E+03   -0.19550E-02   -0.19551E-02  8112   0.415E-02-0.960E-05
CGA:   7    -0.319669963038E+03   -0.60364E-03   -0.60366E-03  8112   0.184E-02-0.268E-05
CGA:   8    -0.319670136714E+03   -0.17368E-03   -0.17353E-03  8112   0.940E-03 0.760E-06
CGA:   9    -0.319670260211E+03   -0.12350E-03   -0.12351E-03  8112   0.273E-03 0.163E-05
CGA:  10    -0.319670308978E+03   -0.48767E-04   -0.48774E-04  8112   0.172E-03-0.139E-06
CGA:  11    -0.319670330898E+03   -0.21920E-04   -0.21918E-04  8112   0.936E-04-0.207E-06
CGA:  12    -0.319670341711E+03   -0.10812E-04   -0.10815E-04  8112   0.583E-04 0.141E-06
CGA:  13    -0.319670350229E+03   -0.85189E-05   -0.85159E-05  8112   0.226E-04 0.391E-06
  69 F= -.31967035E+03 E0= -.31966612E+03  d E =0.240861E-02  mag=    44.0000
       N       E                     dE             d eps       ncg     rms          ort
SDA:   1    -0.319641472363E+03    0.28869E-01    0.00000E+00  8112   0.968E-01 0.000E+00
CGA:   2    -0.319656341904E+03   -0.14870E-01   -0.14885E-01  8112   0.103E+00-0.691E-03
CGA:   3    -0.319666677078E+03   -0.10335E-01   -0.10362E-01  8112   0.342E-01 0.650E-04
CGA:   4    -0.319670559073E+03   -0.38820E-02   -0.38803E-02  8112   0.131E-01-0.123E-04
CGA:   5    -0.319672268192E+03   -0.17091E-02   -0.17093E-02  8112   0.283E-02 0.102E-04
CGA:   6    -0.319672714912E+03   -0.44672E-03   -0.44674E-03  8112   0.103E-02 0.458E-06
CGA:   7    -0.319672826412E+03   -0.11150E-03   -0.11160E-03  8112   0.555E-03 0.141E-05
CGA:   8    -0.319672881160E+03   -0.54748E-04   -0.54763E-04  8112   0.184E-03 0.464E-06
CGA:   9    -0.319672910969E+03   -0.29809E-04   -0.29814E-04  8112   0.615E-04-0.168E-06
CGA:  10    -0.319672921476E+03   -0.10507E-04   -0.10514E-04  8112   0.430E-04-0.207E-06
CGA:  11    -0.319672926072E+03   -0.45953E-05   -0.45972E-05  8112   0.212E-04 0.444E-07
  70 F= -.31967293E+03 E0= -.31966872E+03  d E =-.257584E-02  mag=    44.0000
       N       E                     dE             d eps       ncg     rms          ort
SDA:   1    -0.319671143060E+03    0.17784E-02    0.00000E+00  8112   0.106E-01 0.000E+00
CGA:   2    -0.319672062824E+03   -0.91976E-03   -0.91804E-03  8112   0.733E-02 0.349E-05
CGA:   3    -0.319673258558E+03   -0.11957E-02   -0.11955E-02  8112   0.255E-02 0.661E-05
CGA:   4    -0.319673569899E+03   -0.31134E-03   -0.31129E-03  8112   0.886E-03-0.199E-05
CGA:   5    -0.319673691444E+03   -0.12155E-03   -0.12154E-03  8112   0.211E-03 0.152E-05
CGA:   6    -0.319673721686E+03   -0.30241E-04   -0.30232E-04  8112   0.687E-04 0.117E-05
CGA:   7    -0.319673731169E+03   -0.94836E-05   -0.94836E-05  8112   0.380E-04-0.539E-07
  71 F= -.31967373E+03 E0= -.31966952E+03  d E =-.805098E-03  mag=    44.0000
       N       E                     dE             d eps       ncg     rms          ort
SDA:   1    -0.319524344687E+03    0.14938E+00    0.00000E+00  8112   0.384E+00 0.000E+00
CGA:   2    -0.319624259296E+03   -0.99915E-01   -0.10018E+00  8112   0.509E+00-0.177E-02
CGA:   3    -0.319659314268E+03   -0.35055E-01   -0.35709E-01  8112   0.960E-01-0.585E-02
CGA:   4    -0.319673238876E+03   -0.13925E-01   -0.13929E-01  8112   0.336E-01-0.237E-03
CGA:   5    -0.319677233621E+03   -0.39947E-02   -0.39963E-02  8112   0.826E-02 0.372E-04
CGA:   6    -0.319678342808E+03   -0.11092E-02   -0.11092E-02  8112   0.459E-02 0.117E-05
CGA:   7    -0.319678786427E+03   -0.44362E-03   -0.44389E-03  8112   0.166E-02 0.973E-06
CGA:   8    -0.319678960632E+03   -0.17421E-03   -0.17417E-03  8112   0.513E-03-0.717E-06
CGA:   9    -0.319679058677E+03   -0.98045E-04   -0.98085E-04  8112   0.184E-03-0.664E-06
CGA:  10    -0.319679082201E+03   -0.23524E-04   -0.23527E-04  8112   0.152E-03 0.416E-06
CGA:  11    -0.319679100238E+03   -0.18037E-04   -0.18047E-04  8112   0.604E-04 0.585E-06
CGA:  12    -0.319679109466E+03   -0.92273E-05   -0.92210E-05  8112   0.375E-04 0.350E-06
  72 F= -.31967911E+03 E0= -.31967487E+03  d E =-.537830E-02  mag=    44.0000
       N       E                     dE             d eps       ncg     rms          ort
SDA:   1    -0.319635066020E+03    0.44034E-01    0.00000E+00  8112   0.136E+00 0.000E+00
CGA:   2    -0.319662920230E+03   -0.27854E-01   -0.27836E-01  8112   0.902E-01 0.221E-03
CGA:   3    -0.319674200032E+03   -0.11280E-01   -0.11271E-01  8112   0.511E-01-0.231E-03
CGA:   4    -0.319679173049E+03   -0.49730E-02   -0.49827E-02  8112   0.187E-01 0.190E-04
CGA:   5    -0.319681133139E+03   -0.19601E-02   -0.19598E-02  8112   0.492E-02 0.185E-05
CGA:   6    -0.319681843921E+03   -0.71078E-03   -0.71079E-03  8112   0.155E-02-0.858E-06
CGA:   7    -0.319682066480E+03   -0.22256E-03   -0.22257E-03  8112   0.745E-03-0.163E-05
CGA:   8    -0.319682137224E+03   -0.70744E-04   -0.70781E-04  8112   0.359E-03 0.133E-06
CGA:   9    -0.319682182641E+03   -0.45417E-04   -0.45421E-04  8112   0.115E-03 0.620E-06
CGA:  10    -0.319682201565E+03   -0.18924E-04   -0.18925E-04  8112   0.593E-04-0.549E-07
CGA:  11    -0.319682209548E+03   -0.79834E-05   -0.79834E-05  8112   0.343E-04 0.104E-06
  73 F= -.31968221E+03 E0= -.31967798E+03  d E =-.310008E-02  mag=    44.0000
       N       E                     dE             d eps       ncg     rms          ort
SDA:   1    -0.319675202333E+03    0.69992E-02    0.00000E+00  8112   0.269E-01 0.000E+00
CGA:   2    -0.319678376680E+03   -0.31743E-02   -0.31776E-02  8112   0.251E-01 0.734E-04
CGA:   3    -0.319681395791E+03   -0.30191E-02   -0.30183E-02  8112   0.856E-02-0.244E-04
CGA:   4    -0.319682479938E+03   -0.10841E-02   -0.10842E-02  8112   0.323E-02 0.729E-06
CGA:   5    -0.319682885946E+03   -0.40601E-03   -0.40599E-03  8112   0.773E-03-0.137E-05
CGA:   6    -0.319682997305E+03   -0.11136E-03   -0.11136E-03  8112   0.368E-03 0.522E-07
CGA:   7    -0.319683029745E+03   -0.32441E-04   -0.32416E-04  8112   0.148E-03-0.262E-06
CGA:   8    -0.319683048692E+03   -0.18947E-04   -0.18946E-04  8112   0.478E-04-0.478E-06
CGA:   9    -0.319683056595E+03   -0.79027E-05   -0.79048E-05  8112   0.199E-04-0.567E-07
  74 F= -.31968306E+03 E0= -.31967882E+03  d E =-.847047E-03  mag=    44.0000
       N       E                     dE             d eps       ncg     rms          ort
SDA:   1    -0.319673104341E+03    0.99444E-02    0.00000E+00  8112   0.332E-01 0.000E+00
CGA:   2    -0.319678294459E+03   -0.51901E-02   -0.51829E-02  8112   0.441E-01 0.197E-03
CGA:   3    -0.319682844468E+03   -0.45500E-02   -0.45442E-02  8112   0.907E-02-0.394E-04
CGA:   4    -0.319684126837E+03   -0.12824E-02   -0.12825E-02  8112   0.307E-02-0.100E-04
CGA:   5    -0.319684522075E+03   -0.39524E-03   -0.39524E-03  8112   0.785E-03 0.560E-06
CGA:   6    -0.319684613258E+03   -0.91182E-04   -0.91173E-04  8112   0.451E-03-0.104E-05
CGA:   7    -0.319684657880E+03   -0.44622E-04   -0.44586E-04  8112   0.149E-03-0.885E-06
CGA:   8    -0.319684676290E+03   -0.18410E-04   -0.18410E-04  8112   0.506E-04-0.719E-07
CGA:   9    -0.319684684732E+03   -0.84423E-05   -0.84331E-05  8112   0.198E-04 0.241E-06
  75 F= -.31968468E+03 E0= -.31968044E+03  d E =-.162814E-02  mag=    44.0000
