       N       E                     dE             d eps       ncg     rms          rms(c)
DAV:   1     0.540873698871E+04    0.54087E+04   -0.23795E+05 30984   0.153E+03
DAV:   2     0.283897001783E+03   -0.51248E+04   -0.48691E+04 30608   0.452E+02
DAV:   3    -0.371830295949E+03   -0.65573E+03   -0.64042E+03 32472   0.174E+02
DAV:   4    -0.398341234728E+03   -0.26511E+02   -0.25951E+02 38840   0.395E+01
DAV:   5    -0.399261752199E+03   -0.92052E+00   -0.90114E+00 40976   0.659E+00    0.929E+01
DAV:   6    -0.298477935549E+03    0.10078E+03   -0.37973E+02 38760   0.660E+01    0.890E+01
DAV:   7    -0.321386933673E+03   -0.22909E+02   -0.31946E+02 37504   0.910E+01    0.832E+01
DAV:   8    -0.332808611056E+03   -0.11422E+02   -0.22346E+02 39152   0.589E+01    0.905E+01
DAV:   9    -0.305164573914E+03    0.27644E+02   -0.11651E+02 39552   0.363E+01    0.684E+01
DAV:  10    -0.272298428831E+03    0.32866E+02   -0.47940E+01 39936   0.251E+01    0.475E+01
DAV:  11    -0.276438614255E+03   -0.41402E+01   -0.52354E+01 40688   0.192E+01    0.481E+01
DAV:  12    -0.291784181193E+03   -0.15346E+02   -0.58851E+01 39336   0.151E+01    0.540E+01
DAV:  13    -0.288007739764E+03    0.37764E+01   -0.42715E+01 39920   0.144E+01    0.400E+01
DAV:  14    -0.293161734993E+03   -0.51540E+01   -0.30635E+01 40088   0.102E+01    0.381E+01
DAV:  15    -0.307567955859E+03   -0.14406E+02   -0.22825E+01 38120   0.109E+01    0.476E+01
DAV:  16    -0.308047999158E+03   -0.48004E+00   -0.73081E+00 36392   0.668E+00    0.337E+01
DAV:  17    -0.308767196825E+03   -0.71920E+00   -0.38787E+00 35648   0.303E+00    0.288E+01
DAV:  18    -0.310104483321E+03   -0.13373E+01   -0.88715E-01 35816   0.187E+00    0.298E+01
DAV:  19    -0.312456193505E+03   -0.23517E+01   -0.22840E+00 39360   0.306E+00    0.352E+01
DAV:  20    -0.315971540882E+03   -0.35153E+01   -0.32251E+00 37264   0.342E+00    0.314E+01
DAV:  21    -0.319101354306E+03   -0.31298E+01   -0.16372E+00 37032   0.321E+00    0.276E+01
DAV:  22    -0.323285043489E+03   -0.41837E+01   -0.59164E+00 39776   0.580E+00    0.281E+01
DAV:  23    -0.325395235784E+03   -0.21102E+01   -0.34582E+00 38672   0.499E+00    0.192E+01
DAV:  24    -0.327144446379E+03   -0.17492E+01   -0.79837E-01 35296   0.257E+00    0.177E+01
DAV:  25    -0.326927740157E+03    0.21671E+00   -0.12676E-01 32064   0.910E-01    0.192E+01
DAV:  26    -0.329006408680E+03   -0.20787E+01   -0.10853E+00 38376   0.220E+00    0.231E+01
DAV:  27    -0.332650079488E+03   -0.36437E+01   -0.27923E+00 37296   0.411E+00    0.205E+01
DAV:  28    -0.333673281804E+03   -0.10232E+01   -0.63281E-01 38704   0.244E+00    0.176E+01
DAV:  29    -0.334956242809E+03   -0.12830E+01   -0.20819E+00 37336   0.277E+00    0.126E+01
DAV:  30    -0.335374013091E+03   -0.41777E+00   -0.31747E-01 36984   0.183E+00    0.105E+01
DAV:  31    -0.335835002752E+03   -0.46099E+00   -0.38504E-01 38696   0.161E+00    0.162E+01
DAV:  32    -0.336010968418E+03   -0.17597E+00   -0.17488E-01 34280   0.111E+00    0.172E+01
DAV:  33    -0.335806846013E+03    0.20412E+00   -0.24419E-02 31920   0.533E-01    0.109E+01
DAV:  34    -0.336007865315E+03   -0.20102E+00   -0.71585E-02 37208   0.740E-01    0.859E+00
DAV:  35    -0.336230691562E+03   -0.22283E+00   -0.14002E-01 37800   0.757E-01    0.867E+00
DAV:  36    -0.336229392488E+03    0.12991E-02   -0.12357E-02 32520   0.361E-01    0.857E+00
DAV:  37    -0.336227028908E+03    0.23636E-02   -0.92354E-03 39216   0.213E-01    0.813E+00
DAV:  38    -0.336393019051E+03   -0.16599E+00   -0.17161E-01 37688   0.122E+00    0.548E+00
DAV:  39    -0.336453205777E+03   -0.60187E-01   -0.68128E-02 37376   0.607E-01    0.518E+00
DAV:  40    -0.336497203972E+03   -0.43998E-01   -0.33984E-02 37048   0.512E-01    0.505E+00
DAV:  41    -0.336533742710E+03   -0.36539E-01   -0.21247E-02 36656   0.409E-01    0.460E+00
DAV:  42    -0.336611718120E+03   -0.77975E-01   -0.60854E-02 37048   0.725E-01    0.317E+00
DAV:  43    -0.336636703195E+03   -0.24985E-01   -0.25991E-02 37704   0.539E-01    0.283E+00
DAV:  44    -0.336650727455E+03   -0.14024E-01   -0.13862E-02 36600   0.337E-01    0.258E+00
DAV:  45    -0.336656278346E+03   -0.55509E-02   -0.82857E-03 39104   0.254E-01    0.255E+00
DAV:  46    -0.336661331585E+03   -0.50532E-02   -0.17068E-02 37952   0.373E-01    0.181E+00
DAV:  47    -0.336667281095E+03   -0.59495E-02   -0.92582E-03 35400   0.280E-01    0.178E+00
DAV:  48    -0.336664033359E+03    0.32477E-02   -0.61310E-03 38064   0.201E-01    0.146E+00
DAV:  49    -0.336661571958E+03    0.24614E-02   -0.62415E-03 38848   0.207E-01    0.140E+00
DAV:  50    -0.336661128366E+03    0.44359E-03   -0.24543E-03 37104   0.140E-01    0.136E+00
DAV:  51    -0.336657054058E+03    0.40743E-02   -0.30368E-03 39088   0.169E-01    0.153E+00
DAV:  52    -0.336653655484E+03    0.33986E-02   -0.21885E-03 39392   0.125E-01    0.139E+00
DAV:  53    -0.336649677313E+03    0.39782E-02   -0.16130E-03 38168   0.119E-01    0.149E+00
DAV:  54    -0.336645243613E+03    0.44337E-02   -0.77902E-04 37552   0.871E-02    0.158E+00
DAV:  55    -0.336642691908E+03    0.25517E-02   -0.33069E-04 36712   0.425E-02    0.165E+00
DAV:  56    -0.336643422030E+03   -0.73012E-03   -0.24971E-04 34120   0.479E-02    0.162E+00
DAV:  57    -0.336640044401E+03    0.33776E-02   -0.25514E-04 35928   0.607E-02    0.169E+00
DAV:  58    -0.336637216528E+03    0.28279E-02   -0.57226E-04 36824   0.525E-02    0.179E+00
DAV:  59    -0.336634753832E+03    0.24627E-02   -0.22491E-04 34896   0.420E-02    0.186E+00
DAV:  60    -0.336631953690E+03    0.28001E-02   -0.14819E-04 35360   0.404E-02    0.189E+00
DAV:  61    -0.336625684954E+03    0.62687E-02   -0.13314E-03 38544   0.922E-02    0.205E+00
DAV:  62    -0.336624131906E+03    0.15530E-02   -0.38244E-04 35344   0.561E-02    0.209E+00
DAV:  63    -0.336621593628E+03    0.25383E-02   -0.16865E-04 33400   0.391E-02    0.210E+00
DAV:  64    -0.336616312249E+03    0.52814E-02   -0.16770E-04 35576   0.482E-02    0.216E+00
DAV:  65    -0.336614804681E+03    0.15076E-02   -0.46997E-05 30384   0.187E-02    0.218E+00
DAV:  66    -0.336624095152E+03   -0.92905E-02   -0.79399E-04 37848   0.812E-02    0.203E+00
DAV:  67    -0.336628728947E+03   -0.46338E-02   -0.38592E-04 38376   0.560E-02    0.191E+00
DAV:  68    -0.336641222686E+03   -0.12494E-01   -0.15449E-03 40360   0.121E-01    0.166E+00
DAV:  69    -0.336651930150E+03   -0.10707E-01   -0.24987E-03 39840   0.122E-01    0.135E+00
DAV:  70    -0.336660952416E+03   -0.90223E-02   -0.21357E-03 40600   0.120E-01    0.106E+00
DAV:  71    -0.336666759404E+03   -0.58070E-02   -0.15008E-03 38520   0.968E-02    0.843E-01
DAV:  72    -0.336667615310E+03   -0.85591E-03   -0.20938E-04 30728   0.400E-02    0.822E-01
DAV:  73    -0.336667661367E+03   -0.46057E-04   -0.11377E-05 21632   0.111E-02    0.823E-01
DAV:  74    -0.336669783498E+03   -0.21221E-02   -0.15875E-04 35912   0.580E-02    0.739E-01
DAV:  75    -0.336674153820E+03   -0.43703E-02   -0.15494E-03 39088   0.148E-01    0.525E-01
DAV:  76    -0.336675395899E+03   -0.12421E-02   -0.27233E-03 40264   0.171E-01    0.468E-01
DAV:  77    -0.336675915807E+03   -0.51991E-03   -0.43649E-04 30424   0.509E-02    0.447E-01
DAV:  78    -0.336675976389E+03   -0.60582E-04   -0.86320E-06 20896   0.924E-03    0.444E-01
DAV:  79    -0.336675987130E+03   -0.10741E-04   -0.18228E-06 16800   0.453E-03    0.441E-01
DAV:  80    -0.336675909950E+03    0.77180E-04   -0.95999E-05 25136   0.280E-02    0.364E-01
DAV:  81    -0.336675887079E+03    0.22871E-04   -0.54760E-05 23520   0.207E-02    0.340E-01
DAV:  82    -0.336675896597E+03   -0.95182E-05   -0.45189E-05 23472   0.194E-02
   1 F= -.33667590E+03 E0= -.33665858E+03  d E =-.336676E+03  mag=    18.0316
       N       E                     dE             d eps       ncg     rms          rms(c)
DAV:   1    -0.336749982924E+03   -0.74096E-01   -0.28810E-02 31096   0.304E-01    0.232E-01
DAV:   2    -0.336753093955E+03   -0.31110E-02   -0.11899E-02 40408   0.273E-01    0.128E+00
DAV:   3    -0.336749809133E+03    0.32848E-02   -0.87313E-03 39000   0.241E-01    0.553E-01
DAV:   4    -0.336750033907E+03   -0.22477E-03   -0.63116E-04 36104   0.798E-02    0.205E-01
DAV:   5    -0.336750158314E+03   -0.12441E-03   -0.43385E-05 26544   0.212E-02    0.193E-01
DAV:   6    -0.336750160619E+03   -0.23050E-05   -0.50631E-06 18096   0.751E-03
   2 F= -.33675016E+03 E0= -.33673285E+03  d E =-.742640E-01  mag=    18.0250
       N       E                     dE             d eps       ncg     rms          rms(c)
DAV:   1    -0.338276292534E+03   -0.15261E+01   -0.19824E+01 31576   0.794E+00    0.158E+00
DAV:   2    -0.338401836797E+03   -0.12554E+00   -0.10998E+00 34088   0.190E+00    0.704E+00
DAV:   3    -0.338350555708E+03    0.51281E-01   -0.45189E-01 42240   0.120E+00    0.278E+00
DAV:   4    -0.338376444967E+03   -0.25889E-01   -0.11638E-01 38720   0.660E-01    0.361E+00
DAV:   5    -0.338348204863E+03    0.28240E-01   -0.78956E-02 38760   0.557E-01    0.181E+00
DAV:   6    -0.338352882415E+03   -0.46776E-02   -0.34590E-02 39736   0.495E-01    0.281E+00
DAV:   7    -0.338344767408E+03    0.81150E-02   -0.43982E-02 40456   0.531E-01    0.220E+00
DAV:   8    -0.338341449487E+03    0.33179E-02   -0.15590E-02 38136   0.375E-01    0.764E-01
DAV:   9    -0.338345567291E+03   -0.41178E-02   -0.45056E-03 35424   0.181E-01    0.116E+00
DAV:  10    -0.338345665337E+03   -0.98046E-04   -0.23927E-03 38952   0.127E-01    0.121E+00
DAV:  11    -0.338345119302E+03    0.54604E-03   -0.36072E-04 33024   0.554E-02    0.120E+00
DAV:  12    -0.338345224397E+03   -0.10509E-03   -0.10892E-03 39752   0.986E-02    0.109E+00
DAV:  13    -0.338345234971E+03   -0.10574E-04   -0.54469E-03 39888   0.235E-01    0.937E-01
DAV:  14    -0.338344063863E+03    0.11711E-02   -0.59495E-03 39904   0.218E-01    0.679E-01
DAV:  15    -0.338344062239E+03    0.16238E-05   -0.14834E-03 38952   0.151E-01    0.412E-01
DAV:  16    -0.338344378174E+03   -0.31593E-03   -0.98120E-04 39608   0.101E-01    0.361E-01
DAV:  17    -0.338344221727E+03    0.15645E-03   -0.82567E-04 38848   0.791E-02    0.247E-01
DAV:  18    -0.338344295356E+03   -0.73630E-04   -0.35714E-04 34712   0.616E-02    0.172E-01
DAV:  19    -0.338344429074E+03   -0.13372E-03   -0.54547E-04 27776   0.476E-02    0.295E-01
DAV:  20    -0.338344313832E+03    0.11524E-03   -0.30911E-04 28184   0.460E-02    0.132E-01
DAV:  21    -0.338344358861E+03   -0.45029E-04   -0.42741E-05 24768   0.223E-02    0.122E-01
DAV:  22    -0.338344377810E+03   -0.18949E-04   -0.30052E-05 21888   0.187E-02    0.774E-02
DAV:  23    -0.338344391959E+03   -0.14148E-04   -0.32896E-05 23600   0.172E-02    0.412E-02
DAV:  24    -0.338344394904E+03   -0.29457E-05   -0.14536E-05 19104   0.100E-02
   3 F= -.33834439E+03 E0= -.33832727E+03  d E =-.159423E+01  mag=    17.9998
       N       E                     dE             d eps       ncg     rms          rms(c)
DAV:   1    -0.339834296654E+03   -0.14899E+01   -0.78282E+01 31880   0.176E+01    0.271E+00
DAV:   2    -0.340447614390E+03   -0.61332E+00   -0.44701E+00 33640   0.381E+00    0.192E+01
DAV:   3    -0.340131547726E+03    0.31607E+00   -0.55965E-01 39944   0.166E+00    0.473E+00
DAV:   4    -0.340288454087E+03   -0.15691E+00   -0.52050E-01 39008   0.144E+00    0.123E+01
DAV:   5    -0.340401971211E+03   -0.11352E+00   -0.85634E-02 35480   0.756E-01    0.184E+01
DAV:   6    -0.340154740991E+03    0.24723E+00   -0.89064E-02 36128   0.742E-01    0.138E+01
DAV:   7    -0.340196636407E+03   -0.41895E-01   -0.23384E-02 35296   0.494E-01    0.110E+01
DAV:   8    -0.340135373550E+03    0.61263E-01   -0.50785E-02 38224   0.538E-01    0.792E+00
DAV:   9    -0.340137804704E+03   -0.24312E-02   -0.12920E-01 39152   0.694E-01    0.279E+00
DAV:  10    -0.340202175022E+03   -0.64370E-01   -0.10682E-01 37872   0.914E-01    0.371E+00
DAV:  11    -0.340185052467E+03    0.17123E-01   -0.15850E-01 38840   0.789E-01    0.162E+00
DAV:  12    -0.340209327897E+03   -0.24275E-01   -0.57091E-02 40624   0.765E-01    0.444E+00
DAV:  13    -0.340181711501E+03    0.27616E-01   -0.62435E-02 39880   0.683E-01    0.196E+00
DAV:  14    -0.340184695507E+03   -0.29840E-02   -0.32054E-02 38880   0.508E-01    0.196E+00
DAV:  15    -0.340181846252E+03    0.28493E-02   -0.14711E-02 39992   0.412E-01    0.132E+00
DAV:  16    -0.340182661674E+03   -0.81542E-03   -0.14328E-02 40352   0.344E-01    0.140E+00
DAV:  17    -0.340179904903E+03    0.27568E-02   -0.72504E-03 39480   0.296E-01    0.567E-01
DAV:  18    -0.340182175607E+03   -0.22707E-02   -0.58152E-03 39984   0.187E-01    0.113E+00
DAV:  19    -0.340180186527E+03    0.19891E-02   -0.63857E-03 38816   0.187E-01    0.500E-01
DAV:  20    -0.340181212953E+03   -0.10264E-02   -0.18448E-03 38672   0.127E-01    0.654E-01
DAV:  21    -0.340180613684E+03    0.59927E-03   -0.16752E-03 38984   0.109E-01    0.372E-01
DAV:  22    -0.340180639924E+03   -0.26240E-04   -0.19460E-04 33136   0.494E-02    0.365E-01
DAV:  23    -0.340180286130E+03    0.35379E-03   -0.89939E-05 29336   0.276E-02    0.382E-01
DAV:  24    -0.340179775264E+03    0.51087E-03   -0.13356E-04 29312   0.264E-02    0.419E-01
DAV:  25    -0.340179823221E+03   -0.47957E-04   -0.14693E-05 20712   0.134E-02    0.418E-01
DAV:  26    -0.340178982141E+03    0.84108E-03   -0.24138E-04 33568   0.364E-02    0.500E-01
DAV:  27    -0.340178517123E+03    0.46502E-03   -0.84327E-05 29216   0.202E-02    0.543E-01
DAV:  28    -0.340179455501E+03   -0.93838E-03   -0.24927E-04 34688   0.430E-02    0.477E-01
DAV:  29    -0.340180518861E+03   -0.10634E-02   -0.59262E-04 36976   0.522E-02    0.356E-01
DAV:  30    -0.340181426442E+03   -0.90758E-03   -0.60304E-04 38272   0.541E-02    0.259E-01
DAV:  31    -0.340181749226E+03   -0.32278E-03   -0.14127E-04 31144   0.265E-02    0.217E-01
DAV:  32    -0.340181539942E+03    0.20928E-03   -0.60683E-05 28008   0.266E-02    0.236E-01
DAV:  33    -0.340181724089E+03   -0.18415E-03   -0.39127E-05 24784   0.199E-02    0.226E-01
DAV:  34    -0.340182006142E+03   -0.28205E-03   -0.28166E-04 35568   0.418E-02    0.207E-01
DAV:  35    -0.340182060538E+03   -0.54396E-04   -0.48421E-05 27752   0.180E-02    0.207E-01
DAV:  36    -0.340182013760E+03    0.46778E-04   -0.82824E-06 17952   0.101E-02    0.210E-01
DAV:  37    -0.340181989972E+03    0.23787E-04   -0.36949E-06 17456   0.525E-03    0.215E-01
DAV:  38    -0.340181954896E+03    0.35076E-04   -0.99225E-06 18776   0.769E-03    0.225E-01
DAV:  39    -0.340181942515E+03    0.12381E-04   -0.45048E-06 17520   0.456E-03    0.230E-01
DAV:  40    -0.340181908214E+03    0.34301E-04   -0.16725E-06 15992   0.429E-03    0.233E-01
DAV:  41    -0.340181926191E+03   -0.17977E-04   -0.55074E-07 15624   0.297E-03    0.229E-01
DAV:  42    -0.340181932884E+03   -0.66928E-05   -0.13063E-07 15584   0.994E-04
   4 F= -.34018193E+03 E0= -.34016480E+03  d E =-.183754E+01  mag=    18.0360
       N       E                     dE             d eps       ncg     rms          rms(c)
DAV:   1    -0.340746011698E+03   -0.56409E+00   -0.92315E+01 32576   0.228E+01    0.281E+00
DAV:   2    -0.341408847110E+03   -0.66284E+00   -0.54876E+00 34328   0.466E+00    0.154E+01
DAV:   3    -0.341190356138E+03    0.21849E+00   -0.39948E-01 40104   0.178E+00    0.479E+00
DAV:   4    -0.341350030748E+03   -0.15967E+00   -0.34300E-01 39832   0.162E+00    0.173E+01
DAV:   5    -0.341299342994E+03    0.50688E-01   -0.96729E-02 30976   0.815E-01    0.191E+01
DAV:   6    -0.341073821154E+03    0.22552E+00   -0.84301E-02 39736   0.637E-01    0.132E+01
DAV:   7    -0.341081133890E+03   -0.73127E-02   -0.15790E-01 40352   0.875E-01    0.559E+00
DAV:   8    -0.341176469838E+03   -0.95336E-01   -0.32167E-02 31432   0.552E-01    0.490E+00
DAV:   9    -0.341210968298E+03   -0.34498E-01   -0.18987E-02 40368   0.415E-01    0.847E+00
DAV:  10    -0.341203901458E+03    0.70668E-02   -0.11978E-02 33608   0.345E-01    0.100E+01
DAV:  11    -0.341190338086E+03    0.13563E-01   -0.30518E-03 31576   0.168E-01    0.105E+01
DAV:  12    -0.341181168250E+03    0.91698E-02   -0.18756E-03 39848   0.117E-01    0.105E+01
DAV:  13    -0.341178080025E+03    0.30882E-02   -0.33595E-03 41016   0.162E-01    0.106E+01
DAV:  14    -0.341148316552E+03    0.29763E-01   -0.38118E-02 41144   0.670E-01    0.982E+00
DAV:  15    -0.341068174366E+03    0.80142E-01   -0.82096E-02 40976   0.893E-01    0.496E+00
DAV:  16    -0.341087294727E+03   -0.19120E-01   -0.54556E-02 37840   0.743E-01    0.322E+00
DAV:  17    -0.341119559899E+03   -0.32265E-01   -0.19583E-02 36520   0.506E-01    0.287E+00
DAV:  18    -0.341141777737E+03   -0.22218E-01   -0.14997E-02 40832   0.423E-01    0.247E+00
DAV:  19    -0.341149078381E+03   -0.73006E-02   -0.86556E-03 40344   0.284E-01    0.254E+00
DAV:  20    -0.341154524712E+03   -0.54463E-02   -0.61708E-03 40384   0.252E-01    0.237E+00
DAV:  21    -0.341158114766E+03   -0.35901E-02   -0.32160E-03 38712   0.200E-01    0.224E+00
DAV:  22    -0.341193213794E+03   -0.35099E-01   -0.46741E-02 39736   0.720E-01    0.496E+00
DAV:  23    -0.341206532702E+03   -0.13319E-01   -0.28777E-02 31720   0.297E-01    0.623E+00
DAV:  24    -0.341184844292E+03    0.21688E-01   -0.56721E-03 36856   0.242E-01    0.586E+00
DAV:  25    -0.341192533880E+03   -0.76896E-02   -0.58836E-03 40408   0.170E-01    0.647E+00
DAV:  26    -0.341181480849E+03    0.11053E-01   -0.23886E-03 39504   0.135E-01    0.649E+00
DAV:  27    -0.341147891569E+03    0.33589E-01   -0.14224E-02 39720   0.172E-01    0.515E+00
DAV:  28    -0.341140087961E+03    0.78036E-02   -0.21226E-02 38032   0.147E-01    0.386E+00
DAV:  29    -0.341140552582E+03   -0.46462E-03   -0.84757E-03 35800   0.133E-01    0.336E+00
DAV:  30    -0.341126275304E+03    0.14277E-01   -0.74114E-03 39032   0.159E-01    0.310E+00
DAV:  31    -0.341112343395E+03    0.13932E-01   -0.46360E-03 37944   0.137E-01    0.323E+00
DAV:  32    -0.341107780663E+03    0.45627E-02   -0.73084E-04 35640   0.604E-02    0.326E+00
DAV:  33    -0.341109373832E+03   -0.15932E-02   -0.17239E-04 31352   0.413E-02    0.324E+00
DAV:  34    -0.341109468282E+03   -0.94450E-04   -0.12590E-05 21704   0.106E-02    0.324E+00
DAV:  35    -0.341111023374E+03   -0.15551E-02   -0.83656E-05 28480   0.226E-02    0.321E+00
DAV:  36    -0.341120319862E+03   -0.92965E-02   -0.13463E-03 38776   0.853E-02    0.314E+00
DAV:  37    -0.341134184188E+03   -0.13864E-01   -0.39393E-03 40008   0.129E-01    0.308E+00
DAV:  38    -0.341142082130E+03   -0.78979E-02   -0.50814E-03 40464   0.110E-01    0.281E+00
DAV:  39    -0.341148521938E+03   -0.64398E-02   -0.29180E-03 38992   0.916E-02    0.252E+00
DAV:  40    -0.341158115539E+03   -0.95936E-02   -0.30605E-03 39824   0.123E-01    0.228E+00
DAV:  41    -0.341166444137E+03   -0.83286E-02   -0.31278E-03 40192   0.121E-01    0.210E+00
DAV:  42    -0.341167596233E+03   -0.11521E-02   -0.32851E-04 29872   0.465E-02    0.207E+00
DAV:  43    -0.341172777753E+03   -0.51815E-02   -0.35654E-03 38704   0.111E-01    0.191E+00
DAV:  44    -0.341171895504E+03    0.88225E-03   -0.32103E-04 31000   0.529E-02    0.186E+00
DAV:  45    -0.341168221481E+03    0.36740E-02   -0.67533E-04 36920   0.589E-02    0.182E+00
DAV:  46    -0.341168554860E+03   -0.33338E-03   -0.44784E-04 34592   0.482E-02    0.190E+00
DAV:  47    -0.341177056355E+03   -0.85015E-02   -0.58599E-02 38368   0.583E-01    0.244E+00
DAV:  48    -0.341185509229E+03   -0.84529E-02   -0.44328E-03 30896   0.169E-01    0.264E+00
DAV:  49    -0.341185983192E+03   -0.47396E-03   -0.26964E-04 31488   0.480E-02    0.275E+00
DAV:  50    -0.341185651614E+03    0.33158E-03   -0.88873E-05 29480   0.283E-02    0.273E+00
DAV:  51    -0.341184615979E+03    0.10356E-02   -0.10181E-03 34656   0.386E-02    0.251E+00
DAV:  52    -0.341185133704E+03   -0.51773E-03   -0.33506E-03 37736   0.659E-02    0.222E+00
DAV:  53    -0.341186867066E+03   -0.17334E-02   -0.89362E-03 38272   0.131E-01    0.194E+00
DAV:  54    -0.341188352323E+03   -0.14853E-02   -0.92385E-04 31512   0.629E-02    0.196E+00
DAV:  55    -0.341188126928E+03    0.22540E-03   -0.76977E-05 28296   0.251E-02    0.197E+00
DAV:  56    -0.341187908683E+03    0.21824E-03   -0.90941E-05 20888   0.123E-02    0.197E+00
DAV:  57    -0.341187604808E+03    0.30388E-03   -0.39930E-04 35728   0.505E-02    0.192E+00
DAV:  58    -0.341186887501E+03    0.71731E-03   -0.52311E-04 33664   0.412E-02    0.192E+00
DAV:  59    -0.341187455321E+03   -0.56782E-03   -0.13834E-04 30528   0.292E-02    0.190E+00
DAV:  60    -0.341188063087E+03   -0.60777E-03   -0.75277E-03 37168   0.160E-01    0.176E+00
DAV:  61    -0.341187834789E+03    0.22830E-03   -0.44494E-03 38576   0.111E-01    0.168E+00
DAV:  62    -0.341185444594E+03    0.23902E-02   -0.29650E-03 38688   0.107E-01    0.149E+00
DAV:  63    -0.341185764010E+03   -0.31942E-03   -0.36483E-04 30096   0.575E-02    0.145E+00
DAV:  64    -0.341186366403E+03   -0.60239E-03   -0.76028E-05 28992   0.229E-02    0.149E+00
DAV:  65    -0.341184762030E+03    0.16044E-02   -0.78246E-04 36736   0.701E-02    0.139E+00
DAV:  66    -0.341179444357E+03    0.53177E-02   -0.38822E-03 38240   0.150E-01    0.126E+00
DAV:  67    -0.341171462589E+03    0.79818E-02   -0.50185E-03 39472   0.175E-01    0.127E+00
DAV:  68    -0.341171346877E+03    0.11571E-03   -0.15535E-03 34096   0.855E-02    0.130E+00
DAV:  69    -0.341171538109E+03   -0.19123E-03   -0.10021E-04 29376   0.291E-02    0.130E+00
DAV:  70    -0.341171482080E+03    0.56028E-04   -0.76567E-06 19048   0.753E-03    0.130E+00
DAV:  71    -0.341172180150E+03   -0.69807E-03   -0.29190E-04 33000   0.330E-02    0.126E+00
DAV:  72    -0.341163528917E+03    0.86512E-02   -0.12662E-02 36992   0.171E-01    0.155E+00
DAV:  73    -0.341158489923E+03    0.50390E-02   -0.14320E-03 39416   0.896E-02    0.165E+00
DAV:  74    -0.341159709149E+03   -0.12192E-02   -0.31666E-04 30904   0.427E-02    0.163E+00
DAV:  75    -0.341157781778E+03    0.19274E-02   -0.44024E-04 36816   0.488E-02    0.163E+00
DAV:  76    -0.341157151998E+03    0.62978E-03   -0.49530E-04 34648   0.393E-02    0.161E+00
DAV:  77    -0.341161315283E+03   -0.41633E-02   -0.11886E-03 37048   0.869E-02    0.157E+00
DAV:  78    -0.341161293993E+03    0.21291E-04   -0.10256E-04 29744   0.271E-02    0.157E+00
DAV:  79    -0.341164151971E+03   -0.28580E-02   -0.12536E-04 32600   0.420E-02    0.154E+00
DAV:  80    -0.341163951927E+03    0.20004E-03   -0.18417E-05 22536   0.124E-02    0.154E+00
DAV:  81    -0.341163516697E+03    0.43523E-03   -0.81121E-06 17904   0.854E-03    0.154E+00
DAV:  82    -0.341159131919E+03    0.43848E-02   -0.58075E-03 36864   0.108E-01    0.157E+00
DAV:  83    -0.341161839891E+03   -0.27080E-02   -0.53935E-03 37856   0.103E-01    0.142E+00
DAV:  84    -0.341159565351E+03    0.22745E-02   -0.22750E-03 37248   0.725E-02    0.140E+00
DAV:  85    -0.341146952288E+03    0.12613E-01   -0.39877E-03 38664   0.159E-01    0.155E+00
DAV:  86    -0.341135893130E+03    0.11059E-01   -0.54276E-03 38944   0.143E-01    0.166E+00
DAV:  87    -0.341114008374E+03    0.21885E-01   -0.19561E-02 38608   0.251E-01    0.198E+00
DAV:  88    -0.341115615634E+03   -0.16073E-02   -0.14180E-03 30016   0.874E-02    0.198E+00
DAV:  89    -0.341113174947E+03    0.24407E-02   -0.15464E-04 34920   0.330E-02    0.202E+00
DAV:  90    -0.341113205041E+03   -0.30094E-04   -0.18986E-05 22704   0.128E-02    0.202E+00
DAV:  91    -0.341115805341E+03   -0.26003E-02   -0.69905E-05 28624   0.236E-02    0.197E+00
DAV:  92    -0.341163881518E+03   -0.48076E-01   -0.22859E-02 38840   0.505E-01    0.135E+00
DAV:  93    -0.341167974864E+03   -0.40933E-02   -0.35084E-03 32352   0.136E-01    0.138E+00
DAV:  94    -0.341168059101E+03   -0.84237E-04   -0.15211E-04 31024   0.297E-02    0.138E+00
DAV:  95    -0.341168031302E+03    0.27799E-04   -0.45382E-06 19032   0.619E-03    0.138E+00
DAV:  96    -0.341167021138E+03    0.10102E-02   -0.30499E-05 22056   0.184E-02    0.139E+00
DAV:  97    -0.341196001965E+03   -0.28981E-01   -0.81413E-02 38680   0.586E-01    0.512E+00
DAV:  98    -0.341218869666E+03   -0.22868E-01   -0.14207E-02 30576   0.315E-01    0.937E+00
DAV:  99    -0.341169702777E+03    0.49167E-01   -0.23158E-02 30288   0.272E-01    0.100E+01
DAV: 100    -0.341137910896E+03    0.31792E-01   -0.11078E-03 32096   0.109E-01    0.955E+00
DAV: 101    -0.341098261972E+03    0.39649E-01   -0.61818E-03 39168   0.144E-01    0.531E+00
DAV: 102    -0.341146798256E+03   -0.48536E-01   -0.15736E-02 31696   0.263E-01    0.310E+00
DAV: 103    -0.341171051744E+03   -0.24253E-01   -0.79548E-03 30080   0.180E-01    0.158E+00
DAV: 104    -0.341182085893E+03   -0.11034E-01   -0.34764E-03 31240   0.137E-01    0.147E+00
DAV: 105    -0.341182604228E+03   -0.51833E-03   -0.14578E-03 35672   0.650E-02    0.130E+00
DAV: 106    -0.341183111757E+03   -0.50753E-03   -0.12580E-04 29352   0.294E-02    0.124E+00
DAV: 107    -0.341181660547E+03    0.14512E-02   -0.21493E-03 38608   0.803E-02    0.829E-01
DAV: 108    -0.341183153809E+03   -0.14933E-02   -0.44677E-04 29264   0.594E-02    0.885E-01
DAV: 109    -0.341183246057E+03   -0.92248E-04   -0.25252E-05 26576   0.155E-02    0.885E-01
DAV: 110    -0.341183283071E+03   -0.37014E-04   -0.42423E-06 17304   0.662E-03    0.892E-01
DAV: 111    -0.341183324565E+03   -0.41494E-04   -0.78324E-06 17056   0.643E-03    0.913E-01
DAV: 112    -0.341182925647E+03    0.39892E-03   -0.23376E-04 36368   0.445E-02    0.858E-01
DAV: 113    -0.341183041666E+03   -0.11602E-03   -0.16136E-04 32832   0.394E-02    0.856E-01
DAV: 114    -0.341182988018E+03    0.53648E-04   -0.42646E-05 25904   0.188E-02    0.865E-01
DAV: 115    -0.341183224551E+03   -0.23653E-03   -0.13116E-04 31176   0.269E-02    0.845E-01
DAV: 116    -0.341183322313E+03   -0.97762E-04   -0.14696E-04 28552   0.194E-02    0.816E-01
DAV: 117    -0.341183105945E+03    0.21637E-03   -0.88614E-04 37208   0.584E-02    0.766E-01
DAV: 118    -0.341183127738E+03   -0.21793E-04   -0.84669E-04 34200   0.558E-02    0.758E-01
DAV: 119    -0.341183253122E+03   -0.12538E-03   -0.26100E-04 33264   0.376E-02    0.713E-01
DAV: 120    -0.341183758568E+03   -0.50545E-03   -0.96395E-04 35664   0.526E-02    0.623E-01
DAV: 121    -0.341184865075E+03   -0.11065E-02   -0.30897E-03 37328   0.962E-02    0.497E-01
DAV: 122    -0.341185591502E+03   -0.72643E-03   -0.46623E-03 38768   0.120E-01    0.442E-01
DAV: 123    -0.341186954454E+03   -0.13630E-02   -0.13255E-03 36848   0.102E-01    0.797E-01
DAV: 124    -0.341189379213E+03   -0.24248E-02   -0.22737E-03 34352   0.825E-02    0.192E+00
DAV: 125    -0.341186116962E+03    0.32623E-02   -0.15041E-03 30016   0.986E-02    0.182E+00
DAV: 126    -0.341185747516E+03    0.36945E-03   -0.11797E-03 33984   0.466E-02    0.206E+00
DAV: 127    -0.341181973005E+03    0.37745E-02   -0.66392E-04 34240   0.499E-02    0.118E+00
DAV: 128    -0.341183984957E+03   -0.20120E-02   -0.22534E-03 32832   0.802E-02    0.650E-01
DAV: 129    -0.341186022363E+03   -0.20374E-02   -0.10139E-03 30064   0.750E-02    0.539E-01
DAV: 130    -0.341186395905E+03   -0.37354E-03   -0.43927E-04 33312   0.425E-02    0.474E-01
DAV: 131    -0.341186468273E+03   -0.72368E-04   -0.21359E-04 30096   0.253E-02    0.433E-01
DAV: 132    -0.341186569147E+03   -0.10087E-03   -0.77273E-04 35128   0.450E-02    0.435E-01
DAV: 133    -0.341186729680E+03   -0.16053E-03   -0.14911E-04 28120   0.213E-02    0.437E-01
DAV: 134    -0.341186863844E+03   -0.13416E-03   -0.14602E-04 22104   0.162E-02    0.489E-01
DAV: 135    -0.341186932436E+03   -0.68592E-04   -0.43341E-05 22072   0.127E-02    0.537E-01
DAV: 136    -0.341186899387E+03    0.33049E-04   -0.47892E-06 17752   0.832E-03    0.549E-01
DAV: 137    -0.341186902910E+03   -0.35228E-05   -0.13597E-04 21440   0.158E-02    0.557E-01
DAV: 138    -0.341186834378E+03    0.68532E-04   -0.26338E-05 20912   0.155E-02    0.512E-01
DAV: 139    -0.341186849050E+03   -0.14672E-04   -0.10906E-05 19864   0.928E-03    0.498E-01
DAV: 140    -0.341186831376E+03    0.17674E-04   -0.57427E-06 17856   0.622E-03    0.488E-01
DAV: 141    -0.341186836197E+03   -0.48205E-05   -0.95204E-06 18800   0.108E-02
   5 F= -.34118684E+03 E0= -.34116712E+03  d E =-.100490E+01  mag=    17.9424
       N       E                     dE             d eps       ncg     rms          rms(c)
DAV:   1    -0.340918978846E+03    0.26785E+00   -0.17509E+02 32928   0.354E+01    0.450E+00
DAV:   2    -0.343411280422E+03   -0.24923E+01   -0.14139E+01 35944   0.817E+00    0.306E+01
DAV:   3    -0.341956918983E+03    0.14544E+01   -0.31814E+00 39520   0.410E+00    0.113E+01
DAV:   4    -0.342067078661E+03   -0.11016E+00   -0.14285E+00 39936   0.260E+00    0.174E+01
DAV:   5    -0.342134355852E+03   -0.67277E-01   -0.29215E-01 34752   0.127E+00    0.193E+01
DAV:   6    -0.342085090422E+03    0.49265E-01   -0.18693E-02 30912   0.444E-01    0.192E+01
DAV:   7    -0.342011507470E+03    0.73583E-01   -0.11258E-02 42400   0.240E-01    0.195E+01
DAV:   8    -0.341970699170E+03    0.40808E-01   -0.64223E-02 40880   0.497E-01    0.192E+01
DAV:   9    -0.342017534725E+03   -0.46836E-01   -0.21989E-02 39392   0.383E-01    0.198E+01
DAV:  10    -0.342079170853E+03   -0.61636E-01   -0.95209E-02 40168   0.693E-01    0.184E+01
DAV:  11    -0.342146707358E+03   -0.67537E-01   -0.34778E-02 39104   0.613E-01    0.177E+01
DAV:  12    -0.342233349041E+03   -0.86642E-01   -0.32278E-02 40760   0.659E-01    0.170E+01
DAV:  13    -0.342297105026E+03   -0.63756E-01   -0.59849E-02 40616   0.867E-01    0.165E+01
DAV:  14    -0.342267235267E+03    0.29870E-01   -0.10163E-01 41088   0.104E+00    0.159E+01
DAV:  15    -0.342093444533E+03    0.17379E+00   -0.90262E-02 41024   0.114E+00    0.137E+01
DAV:  16    -0.341968564768E+03    0.12488E+00   -0.22801E-02 40752   0.597E-01    0.135E+01
DAV:  17    -0.341839212485E+03    0.12935E+00   -0.21113E-02 41496   0.599E-01    0.125E+01
DAV:  18    -0.341738652876E+03    0.10056E+00   -0.49068E-02 41688   0.805E-01    0.627E+00
DAV:  19    -0.341832432556E+03   -0.93780E-01   -0.32496E-02 33008   0.575E-01    0.490E+00
DAV:  20    -0.341909891271E+03   -0.77459E-01   -0.12373E-02 40400   0.545E-01    0.623E+00
DAV:  21    -0.341906330966E+03    0.35603E-02   -0.19718E-02 38744   0.635E-01    0.718E+00
DAV:  22    -0.341987393598E+03   -0.81063E-01   -0.38274E-02 36000   0.854E-01    0.581E+00
DAV:  23    -0.341976363745E+03    0.11030E-01   -0.19758E-02 40824   0.522E-01    0.504E+00
DAV:  24    -0.341967532247E+03    0.88315E-02   -0.19529E-02 41472   0.570E-01    0.226E+00
DAV:  25    -0.341981804734E+03   -0.14272E-01   -0.15640E-02 39776   0.450E-01    0.356E+00
DAV:  26    -0.341982994283E+03   -0.11895E-02   -0.63041E-03 30504   0.236E-01    0.492E+00
DAV:  27    -0.341968149560E+03    0.14845E-01   -0.31596E-03 31960   0.163E-01    0.491E+00
DAV:  28    -0.341960348625E+03    0.78009E-02   -0.12241E-03 39000   0.938E-02    0.361E+00
DAV:  29    -0.341964684050E+03   -0.43354E-02   -0.16033E-03 35688   0.107E-01    0.273E+00
DAV:  30    -0.341969166107E+03   -0.44821E-02   -0.20458E-03 36096   0.132E-01    0.101E+00
DAV:  31    -0.341976034979E+03   -0.68689E-02   -0.27810E-03 31944   0.124E-01    0.464E-01
DAV:  32    -0.341977421495E+03   -0.13865E-02   -0.86429E-04 31728   0.798E-02    0.329E-01
DAV:  33    -0.341977517223E+03   -0.95727E-04   -0.28539E-04 34160   0.531E-02    0.256E-01
DAV:  34    -0.341977646070E+03   -0.12885E-03   -0.20357E-04 34576   0.540E-02    0.206E-01
DAV:  35    -0.341977617756E+03    0.28315E-04   -0.94423E-05 30728   0.261E-02    0.215E-01
DAV:  36    -0.341977606225E+03    0.11530E-04   -0.25373E-05 23104   0.199E-02    0.217E-01
DAV:  37    -0.341977533037E+03    0.73188E-04   -0.25858E-05 24648   0.186E-02    0.218E-01
DAV:  38    -0.341977572306E+03   -0.39269E-04   -0.15563E-05 20480   0.147E-02    0.350E-01
DAV:  39    -0.341977557798E+03    0.14508E-04   -0.37839E-05 25032   0.183E-02    0.317E-01
DAV:  40    -0.341977584340E+03   -0.26541E-04   -0.12990E-05 18472   0.805E-03    0.301E-01
DAV:  41    -0.341977591931E+03   -0.75913E-05   -0.20830E-05 18360   0.879E-03
   6 F= -.34197759E+03 E0= -.34195028E+03  d E =-.790756E+00  mag=    17.3560
       N       E                     dE             d eps       ncg     rms          rms(c)
DAV:   1    -0.341088880915E+03    0.88870E+00   -0.24576E+02 32248   0.428E+01    0.602E+00
DAV:   2    -0.344516244137E+03   -0.34274E+01   -0.18670E+01 35120   0.101E+01    0.277E+01
DAV:   3    -0.342556676439E+03    0.19596E+01   -0.48122E+00 38696   0.605E+00    0.164E+01
DAV:   4    -0.342391646505E+03    0.16503E+00   -0.30129E+00 40568   0.275E+00    0.840E+00
DAV:   5    -0.342507024580E+03   -0.11538E+00   -0.97821E-01 39904   0.175E+00    0.120E+01
DAV:   6    -0.342382204139E+03    0.12482E+00   -0.15693E-01 38432   0.129E+00    0.500E+00
DAV:   7    -0.342453162087E+03   -0.70958E-01   -0.17002E-01 39416   0.111E+00    0.815E+00
DAV:   8    -0.342440220074E+03    0.12942E-01   -0.70243E-02 37968   0.663E-01    0.794E+00
DAV:   9    -0.342435820274E+03    0.43998E-02   -0.24873E-02 39360   0.496E-01    0.853E+00
DAV:  10    -0.342432256424E+03    0.35639E-02   -0.49439E-02 41424   0.607E-01    0.857E+00
DAV:  11    -0.342398181882E+03    0.34075E-01   -0.10677E-01 40952   0.640E-01    0.691E+00
DAV:  12    -0.342393391755E+03    0.47901E-02   -0.92276E-02 39944   0.551E-01    0.504E+00
DAV:  13    -0.342403558634E+03   -0.10167E-01   -0.63709E-02 39840   0.569E-01    0.329E+00
DAV:  14    -0.342427225280E+03   -0.23667E-01   -0.56508E-02 39360   0.769E-01    0.427E+00
DAV:  15    -0.342415663890E+03    0.11561E-01   -0.44742E-02 40104   0.671E-01    0.379E+00
DAV:  16    -0.342421549059E+03   -0.58852E-02   -0.43254E-02 39136   0.566E-01    0.468E+00
DAV:  17    -0.342408908458E+03    0.12641E-01   -0.63107E-02 39792   0.566E-01    0.333E+00
DAV:  18    -0.342408660978E+03    0.24748E-03   -0.24702E-02 39048   0.504E-01    0.281E+00
DAV:  19    -0.342417255229E+03   -0.85943E-02   -0.31210E-02 40808   0.490E-01    0.329E+00
DAV:  20    -0.342415949556E+03    0.13057E-02   -0.14009E-02 39504   0.420E-01    0.388E+00
DAV:  21    -0.342409533977E+03    0.64156E-02   -0.26684E-03 34360   0.159E-01    0.369E+00
DAV:  22    -0.342403938316E+03    0.55957E-02   -0.21738E-03 40320   0.169E-01    0.197E+00
DAV:  23    -0.342411946272E+03   -0.80080E-02   -0.29116E-03 34224   0.153E-01    0.622E-01
DAV:  24    -0.342417557422E+03   -0.56112E-02   -0.22687E-03 34672   0.176E-01    0.896E-01
DAV:  25    -0.342417135777E+03    0.42165E-03   -0.73540E-04 38016   0.803E-02    0.819E-01
DAV:  26    -0.342417105751E+03    0.30026E-04   -0.54529E-04 38880   0.673E-02    0.483E-01
DAV:  27    -0.342417623058E+03   -0.51731E-03   -0.38874E-04 38248   0.586E-02    0.302E-01
DAV:  28    -0.342417943902E+03   -0.32084E-03   -0.21947E-04 32304   0.525E-02    0.193E-01
DAV:  29    -0.342417961931E+03   -0.18029E-04   -0.13577E-04 31392   0.286E-02    0.143E-01
DAV:  30    -0.342417998104E+03   -0.36173E-04   -0.95809E-05 29688   0.287E-02    0.245E-01
DAV:  31    -0.342417971561E+03    0.26544E-04   -0.62304E-05 27504   0.268E-02    0.136E-01
DAV:  32    -0.342417993283E+03   -0.21723E-04   -0.15805E-05 21184   0.134E-02    0.634E-02
DAV:  33    -0.342418012097E+03   -0.18814E-04   -0.11970E-05 19552   0.120E-02    0.423E-02
DAV:  34    -0.342418015092E+03   -0.29943E-05   -0.80808E-06 17376   0.887E-03
   7 F= -.34241802E+03 E0= -.34239115E+03  d E =-.440423E+00  mag=    17.1722
       N       E                     dE             d eps       ncg     rms          rms(c)
DAV:   1    -0.341609498301E+03    0.80851E+00   -0.17573E+02 32576   0.389E+01    0.570E+00
DAV:   2    -0.346319922278E+03   -0.47104E+01   -0.10733E+01 35360   0.950E+00    0.336E+01
DAV:   3    -0.342471373996E+03    0.38485E+01   -0.29381E+00 39304   0.629E+00    0.811E+00
DAV:   4    -0.342904330981E+03   -0.43296E+00   -0.27577E+00 40448   0.280E+00    0.147E+01
DAV:   5    -0.342580768896E+03    0.32356E+00   -0.12481E+00 39400   0.214E+00    0.103E+01
DAV:   6    -0.342500530701E+03    0.80238E-01   -0.56505E-01 39096   0.959E-01    0.404E+00
DAV:   7    -0.342533582487E+03   -0.33052E-01   -0.89196E-02 37880   0.748E-01    0.478E+00
DAV:   8    -0.342512135830E+03    0.21447E-01   -0.11449E-01 40416   0.697E-01    0.364E+00
DAV:   9    -0.342509788310E+03    0.23475E-02   -0.15274E-01 40864   0.760E-01    0.415E+00
DAV:  10    -0.342510382554E+03   -0.59424E-03   -0.25390E-01 40920   0.983E-01    0.527E+00
DAV:  11    -0.342508396582E+03    0.19860E-02   -0.91872E-02 38584   0.798E-01    0.688E+00
DAV:  12    -0.342501633892E+03    0.67627E-02   -0.99607E-03 30568   0.344E-01    0.853E+00
DAV:  13    -0.342466938257E+03    0.34696E-01   -0.68642E-03 35472   0.239E-01    0.918E+00
DAV:  14    -0.342453328196E+03    0.13610E-01   -0.35288E-03 38488   0.152E-01    0.948E+00
DAV:  15    -0.342457010261E+03   -0.36821E-02   -0.27487E-03 39584   0.150E-01    0.989E+00
DAV:  16    -0.342451037022E+03    0.59732E-02   -0.15618E-03 30688   0.808E-02    0.988E+00
DAV:  17    -0.342447902812E+03    0.31342E-02   -0.61465E-03 38680   0.120E-01    0.935E+00
DAV:  18    -0.342461817326E+03   -0.13915E-01   -0.10175E-02 40816   0.332E-01    0.988E+00
DAV:  19    -0.342458881691E+03    0.29356E-02   -0.10773E-02 40512   0.326E-01    0.100E+01
DAV:  20    -0.342458694814E+03    0.18688E-03   -0.15289E-02 40608   0.369E-01    0.103E+01
DAV:  21    -0.342466405838E+03   -0.77110E-02   -0.14631E-02 41320   0.378E-01    0.105E+01
DAV:  22    -0.342467166913E+03   -0.76107E-03   -0.46022E-03 36672   0.157E-01    0.106E+01
DAV:  23    -0.342466375218E+03    0.79170E-03   -0.83472E-04 30488   0.822E-02    0.107E+01
DAV:  24    -0.342434607748E+03    0.31767E-01   -0.19073E-02 38760   0.255E-01    0.110E+01
DAV:  25    -0.342402729993E+03    0.31878E-01   -0.12807E-01 39056   0.402E-01    0.851E+00
DAV:  26    -0.342453314812E+03   -0.50585E-01   -0.13523E-02 30616   0.355E-01    0.918E+00
DAV:  27    -0.342438580236E+03    0.14735E-01   -0.90711E-03 40048   0.158E-01    0.937E+00
DAV:  28    -0.342430331650E+03    0.82486E-02   -0.83133E-03 38616   0.143E-01    0.964E+00
DAV:  29    -0.342397537843E+03    0.32794E-01   -0.20359E-02 40664   0.297E-01    0.888E+00
DAV:  30    -0.342334096706E+03    0.63441E-01   -0.14976E-02 41144   0.416E-01    0.659E+00
DAV:  31    -0.342325844572E+03    0.82521E-02   -0.79423E-03 32944   0.268E-01    0.550E+00
DAV:  32    -0.342357639498E+03   -0.31795E-01   -0.76291E-03 36456   0.231E-01    0.524E+00
DAV:  33    -0.342358169813E+03   -0.53032E-03   -0.63639E-03 39224   0.141E-01    0.499E+00
DAV:  34    -0.342355905604E+03    0.22642E-02   -0.24205E-02 39456   0.240E-01    0.405E+00
DAV:  35    -0.342368463087E+03   -0.12557E-01   -0.82184E-03 37920   0.154E-01    0.409E+00
DAV:  36    -0.342367644104E+03    0.81898E-03   -0.52751E-04 30976   0.649E-02    0.426E+00
DAV:  37    -0.342378381859E+03   -0.10738E-01   -0.89056E-04 39464   0.711E-02    0.466E+00
DAV:  38    -0.342379274118E+03   -0.89226E-03   -0.35317E-04 30656   0.556E-02    0.494E+00
DAV:  39    -0.342379342140E+03   -0.68022E-04   -0.15024E-04 29752   0.383E-02    0.503E+00
DAV:  40    -0.342379665058E+03   -0.32292E-03   -0.24975E-05 23080   0.150E-02    0.514E+00
DAV:  41    -0.342381093539E+03   -0.14285E-02   -0.77615E-04 37832   0.503E-02    0.551E+00
DAV:  42    -0.342381284207E+03   -0.19067E-03   -0.41176E-04 31904   0.555E-02    0.573E+00
DAV:  43    -0.342382195566E+03   -0.91136E-03   -0.76223E-03 39200   0.184E-01    0.614E+00
DAV:  44    -0.342401047932E+03   -0.18852E-01   -0.17000E-02 39712   0.318E-01    0.683E+00
DAV:  45    -0.342401632830E+03   -0.58490E-03   -0.49760E-03 36320   0.187E-01    0.688E+00
DAV:  46    -0.342398142340E+03    0.34905E-02   -0.28804E-03 39160   0.125E-01    0.614E+00
DAV:  47    -0.342397496164E+03    0.64618E-03   -0.25793E-02 40696   0.561E-01    0.323E+00
DAV:  48    -0.342459879441E+03   -0.62383E-01   -0.14671E-02 30552   0.293E-01    0.319E+00
DAV:  49    -0.342447298964E+03    0.12580E-01   -0.35355E-02 32352   0.306E-01    0.208E+00
DAV:  50    -0.342431536504E+03    0.15762E-01   -0.21315E-02 38288   0.252E-01    0.220E+00
DAV:  51    -0.342449847589E+03   -0.18311E-01   -0.75219E-03 33800   0.228E-01    0.298E+00
DAV:  52    -0.342492128900E+03   -0.42281E-01   -0.33368E-02 38024   0.340E-01    0.575E+00
DAV:  53    -0.342498852367E+03   -0.67235E-02   -0.22247E-02 30472   0.249E-01    0.702E+00
DAV:  54    -0.342476773174E+03    0.22079E-01   -0.15258E-03 31392   0.116E-01    0.718E+00
DAV:  55    -0.342465213325E+03    0.11560E-01   -0.61771E-04 33000   0.408E-02    0.704E+00
DAV:  56    -0.342466405326E+03   -0.11920E-02   -0.29200E-05 22776   0.126E-02    0.704E+00
DAV:  57    -0.342483578732E+03   -0.17173E-01   -0.31125E-03 37256   0.655E-02    0.752E+00
DAV:  58    -0.342478812716E+03    0.47660E-02   -0.18325E-04 28744   0.305E-02    0.760E+00
DAV:  59    -0.342474321105E+03    0.44916E-02   -0.76805E-05 22696   0.151E-02    0.751E+00
DAV:  60    -0.342471714453E+03    0.26067E-02   -0.24444E-04 28072   0.219E-02    0.734E+00
DAV:  61    -0.342457756008E+03    0.13958E-01   -0.39349E-03 38096   0.911E-02    0.652E+00
DAV:  62    -0.342454413573E+03    0.33424E-02   -0.56021E-03 38040   0.118E-01    0.577E+00
DAV:  63    -0.342464724480E+03   -0.10311E-01   -0.11715E-03 33208   0.695E-02    0.587E+00
DAV:  64    -0.342465360809E+03   -0.63633E-03   -0.82319E-05 28440   0.268E-02    0.586E+00
DAV:  65    -0.342466892406E+03   -0.15316E-02   -0.22344E-04 29248   0.265E-02    0.600E+00
DAV:  66    -0.342466875812E+03    0.16593E-04   -0.11951E-04 26264   0.188E-02    0.608E+00
DAV:  67    -0.342474089224E+03   -0.72134E-02   -0.19226E-03 37176   0.602E-02    0.653E+00
DAV:  68    -0.342468617746E+03    0.54715E-02   -0.24843E-04 30128   0.367E-02    0.649E+00
DAV:  69    -0.342467726425E+03    0.89132E-03   -0.20075E-05 20704   0.110E-02    0.647E+00
DAV:  70    -0.342467721190E+03    0.52347E-05   -0.49834E-06 16936   0.530E-03
   8 F= -.34246772E+03 E0= -.34244786E+03  d E =-.497061E-01  mag=    18.1769
       N       E                     dE             d eps       ncg     rms          rms(c)
DAV:   1    -0.341510122477E+03    0.95760E+00   -0.23758E+02 31120   0.458E+01    0.968E+00
DAV:   2    -0.348158458508E+03   -0.66483E+01   -0.39247E+01 39064   0.148E+01    0.259E+01
DAV:   3    -0.344250939620E+03    0.39075E+01   -0.72899E+00 40184   0.861E+00    0.249E+01
DAV:   4    -0.342712413201E+03    0.15385E+01   -0.45810E+00 40672   0.414E+00    0.148E+01
DAV:   5    -0.342395011287E+03    0.31740E+00   -0.63182E-01 40184   0.217E+00    0.108E+01
DAV:   6    -0.342444207901E+03   -0.49197E-01   -0.42053E-01 40920   0.183E+00    0.973E+00
DAV:   7    -0.342531903099E+03   -0.87695E-01   -0.11373E+00 39448   0.226E+00    0.115E+01
DAV:   8    -0.342524821026E+03    0.70821E-02   -0.34237E-01 41152   0.198E+00    0.110E+01
DAV:   9    -0.342561560501E+03   -0.36739E-01   -0.36052E-01 39032   0.151E+00    0.114E+01
DAV:  10    -0.342376329700E+03    0.18523E+00   -0.65770E-01 40128   0.136E+00    0.866E+00
DAV:  11    -0.342395524945E+03   -0.19195E-01   -0.43813E-01 39744   0.110E+00    0.670E+00
DAV:  12    -0.342426656740E+03   -0.31132E-01   -0.52195E-02 38024   0.681E-01    0.566E+00
DAV:  13    -0.342436304663E+03   -0.96479E-02   -0.13242E-02 31224   0.366E-01    0.531E+00
DAV:  14    -0.342432715530E+03    0.35891E-02   -0.82550E-04 31032   0.916E-02    0.533E+00
DAV:  15    -0.342433742297E+03   -0.10268E-02   -0.96021E-05 31088   0.307E-02    0.530E+00
DAV:  16    -0.342438728290E+03   -0.49860E-02   -0.93514E-04 40560   0.937E-02    0.539E+00
DAV:  17    -0.342461065321E+03   -0.22337E-01   -0.59791E-03 41496   0.248E-01    0.510E+00
DAV:  18    -0.342484462382E+03   -0.23397E-01   -0.99511E-03 40896   0.327E-01    0.467E+00
DAV:  19    -0.342507999899E+03   -0.23538E-01   -0.28445E-02 41088   0.601E-01    0.365E+00
DAV:  20    -0.342522702464E+03   -0.14703E-01   -0.31246E-02 39912   0.572E-01    0.317E+00
DAV:  21    -0.342517466683E+03    0.52358E-02   -0.35811E-02 39864   0.459E-01    0.270E+00
DAV:  22    -0.342510579628E+03    0.68871E-02   -0.12910E-02 39536   0.367E-01    0.168E+00
DAV:  23    -0.342513625593E+03   -0.30460E-02   -0.37775E-03 36808   0.197E-01    0.149E+00
DAV:  24    -0.342510484061E+03    0.31415E-02   -0.35510E-03 40704   0.201E-01    0.737E-01
DAV:  25    -0.342511952728E+03   -0.14687E-02   -0.16601E-03 34584   0.110E-01    0.639E-01
DAV:  26    -0.342511921362E+03    0.31365E-04   -0.86473E-04 39288   0.812E-02    0.437E-01
DAV:  27    -0.342512030450E+03   -0.10909E-03   -0.83337E-04 37824   0.667E-02    0.372E-01
DAV:  28    -0.342512017193E+03    0.13258E-04   -0.58902E-04 38416   0.562E-02    0.212E-01
DAV:  29    -0.342512154026E+03   -0.13683E-03   -0.38101E-04 38104   0.448E-02    0.166E-01
DAV:  30    -0.342512222689E+03   -0.68663E-04   -0.19649E-04 28816   0.231E-02    0.143E-01
DAV:  31    -0.342512223756E+03   -0.10676E-05   -0.38809E-04 32888   0.327E-02    0.108E-01
DAV:  32    -0.342512257947E+03   -0.34190E-04   -0.26235E-04 30400   0.265E-02    0.111E-01
DAV:  33    -0.342512284002E+03   -0.26056E-04   -0.18897E-04 23160   0.185E-02    0.105E-01
DAV:  34    -0.342512293065E+03   -0.90625E-05   -0.12558E-04 22368   0.145E-02    0.896E-02
DAV:  35    -0.342512295577E+03   -0.25119E-05   -0.10879E-04 22728   0.158E-02    0.791E-02
DAV:  36    -0.342512316873E+03   -0.21296E-04   -0.35249E-05 22056   0.161E-02    0.572E-02
DAV:  37    -0.342512310495E+03    0.63778E-05   -0.39917E-05 19712   0.119E-02
   9 F= -.34251231E+03 E0= -.34249300E+03  d E =-.445893E-01  mag=    18.0078
       N       E                     dE             d eps       ncg     rms          rms(c)
DAV:   1    -0.342074183959E+03    0.43813E+00   -0.10970E+02 32320   0.337E+01    0.336E+00
DAV:   2    -0.343226894253E+03   -0.11527E+01   -0.63920E+00 30976   0.624E+00    0.225E+01
DAV:   3    -0.342563686666E+03    0.66321E+00   -0.93141E-01 33920   0.229E+00    0.464E+00
DAV:   4    -0.343049861436E+03   -0.48617E+00   -0.90282E-01 39464   0.193E+00    0.211E+01
DAV:   5    -0.342986223855E+03    0.63638E-01   -0.10445E-01 32392   0.900E-01    0.198E+01
DAV:   6    -0.342609489051E+03    0.37673E+00   -0.13508E-01 41328   0.964E-01    0.158E+01
DAV:   7    -0.342512395654E+03    0.97093E-01   -0.11596E-01 39688   0.897E-01    0.652E+00
DAV:   8    -0.342635365776E+03   -0.12297E+00   -0.72299E-02 34664   0.710E-01    0.500E+00
DAV:   9    -0.342660593416E+03   -0.25228E-01   -0.10274E-01 39320   0.708E-01    0.395E+00
DAV:  10    -0.342662477354E+03   -0.18839E-02   -0.70784E-02 38104   0.621E-01    0.277E+00
DAV:  11    -0.342664269707E+03   -0.17924E-02   -0.52049E-02 39320   0.457E-01    0.259E+00
DAV:  12    -0.342678668222E+03   -0.14399E-01   -0.11704E-01 40016   0.696E-01    0.394E+00
DAV:  13    -0.342643436910E+03    0.35231E-01   -0.18002E-01 40632   0.973E-01    0.398E+00
DAV:  14    -0.342625940315E+03    0.17497E-01   -0.45513E-02 39696   0.579E-01    0.318E+00
DAV:  15    -0.342618105666E+03    0.78346E-02   -0.29787E-02 40096   0.418E-01    0.343E+00
DAV:  16    -0.342607117855E+03    0.10988E-01   -0.21989E-02 39936   0.384E-01    0.286E+00
DAV:  17    -0.342609190179E+03   -0.20723E-02   -0.76118E-03 39568   0.265E-01    0.277E+00
DAV:  18    -0.342607834320E+03    0.13559E-02   -0.37435E-03 40320   0.193E-01    0.285E+00
DAV:  19    -0.342605634693E+03    0.21996E-02   -0.30575E-03 40216   0.173E-01    0.285E+00
DAV:  20    -0.342603289550E+03    0.23451E-02   -0.48830E-03 40424   0.183E-01    0.283E+00
DAV:  21    -0.342597080969E+03    0.62086E-02   -0.45772E-03 39936   0.211E-01    0.275E+00
DAV:  22    -0.342565212408E+03    0.31869E-01   -0.10392E-02 38544   0.380E-01    0.283E+00
DAV:  23    -0.342542737821E+03    0.22475E-01   -0.66993E-03 37672   0.244E-01    0.316E+00
DAV:  24    -0.342525419701E+03    0.17318E-01   -0.32098E-03 40080   0.142E-01    0.338E+00
DAV:  25    -0.342517830331E+03    0.75894E-02   -0.83303E-04 36984   0.655E-02    0.347E+00
DAV:  26    -0.342520031548E+03   -0.22012E-02   -0.13373E-04 29432   0.402E-02    0.345E+00
DAV:  27    -0.342541585479E+03   -0.21554E-01   -0.17991E-03 38776   0.121E-01    0.318E+00
DAV:  28    -0.342599915829E+03   -0.58330E-01   -0.17709E-02 40288   0.386E-01    0.230E+00
DAV:  29    -0.342617182652E+03   -0.17267E-01   -0.42518E-03 38040   0.159E-01    0.203E+00
DAV:  30    -0.342629933984E+03   -0.12751E-01   -0.12649E-03 37504   0.105E-01    0.179E+00
DAV:  31    -0.342644595672E+03   -0.14662E-01   -0.25782E-03 38824   0.170E-01    0.147E+00
DAV:  32    -0.342667037946E+03   -0.22442E-01   -0.20896E-02 39848   0.520E-01    0.716E-01
DAV:  33    -0.342672016873E+03   -0.49789E-02   -0.74275E-03 37792   0.217E-01    0.243E+00
DAV:  34    -0.342689188749E+03   -0.17172E-01   -0.21485E-03 31016   0.143E-01    0.661E+00
DAV:  35    -0.342683590108E+03    0.55986E-02   -0.44688E-03 30776   0.208E-01    0.900E+00
DAV:  36    -0.342671097910E+03    0.12492E-01   -0.21735E-03 31496   0.136E-01    0.101E+01
DAV:  37    -0.342653669594E+03    0.17428E-01   -0.53297E-04 31216   0.696E-02    0.102E+01
DAV:  38    -0.342654915842E+03   -0.12462E-02   -0.60902E-05 27752   0.207E-02    0.103E+01
DAV:  39    -0.342656913358E+03   -0.19975E-02   -0.29185E-04 22352   0.171E-02    0.104E+01
DAV:  40    -0.342662628230E+03   -0.57149E-02   -0.33381E-05 21904   0.170E-02    0.105E+01
DAV:  41    -0.342633533634E+03    0.29095E-01   -0.12894E-03 35592   0.572E-02    0.988E+00
DAV:  42    -0.342597111608E+03    0.36422E-01   -0.81178E-04 39320   0.988E-02    0.609E+00
DAV:  43    -0.342625884112E+03   -0.28773E-01   -0.40144E-03 30408   0.178E-01    0.214E+00
DAV:  44    -0.342661937669E+03   -0.36054E-01   -0.40910E-03 30680   0.209E-01    0.167E+00
DAV:  45    -0.342666434257E+03   -0.44966E-02   -0.88888E-04 32968   0.816E-02    0.107E+00
DAV:  46    -0.342668565367E+03   -0.21311E-02   -0.59012E-04 30288   0.623E-02    0.886E-01
DAV:  47    -0.342668825154E+03   -0.25979E-03   -0.93426E-04 38496   0.878E-02    0.816E-01
DAV:  48    -0.342669099876E+03   -0.27472E-03   -0.22826E-04 29488   0.448E-02    0.860E-01
DAV:  49    -0.342669275917E+03   -0.17604E-03   -0.39159E-05 26960   0.221E-02    0.863E-01
DAV:  50    -0.342669776624E+03   -0.50071E-03   -0.21381E-04 34528   0.341E-02    0.801E-01
DAV:  51    -0.342670096035E+03   -0.31941E-03   -0.14300E-04 31392   0.245E-02    0.744E-01
DAV:  52    -0.342670522151E+03   -0.42612E-03   -0.11902E-03 37792   0.975E-02    0.677E-01
DAV:  53    -0.342670348220E+03    0.17393E-03   -0.22916E-04 32376   0.387E-02    0.638E-01
DAV:  54    -0.342670209901E+03    0.13832E-03   -0.14153E-04 28080   0.232E-02    0.600E-01
DAV:  55    -0.342671283572E+03   -0.10737E-02   -0.16506E-03 36880   0.786E-02    0.158E+00
DAV:  56    -0.342684316904E+03   -0.13033E-01   -0.15245E-03 31552   0.112E-01    0.529E+00
DAV:  57    -0.342679069177E+03    0.52477E-02   -0.50156E-03 30696   0.213E-01    0.788E+00
DAV:  58    -0.342653331194E+03    0.25738E-01   -0.27422E-03 31344   0.161E-01    0.885E+00
DAV:  59    -0.342636541503E+03    0.16790E-01   -0.57870E-04 30728   0.737E-02    0.921E+00
DAV:  60    -0.342627201953E+03    0.93395E-02   -0.13872E-04 29264   0.306E-02    0.926E+00
DAV:  61    -0.342592277871E+03    0.34924E-01   -0.23311E-02 37688   0.917E-02    0.651E+00
DAV:  62    -0.342627763009E+03   -0.35485E-01   -0.25060E-02 30472   0.155E-01    0.587E+00
DAV:  63    -0.342645253403E+03   -0.17490E-01   -0.13653E-03 30440   0.113E-01    0.562E+00
DAV:  64    -0.342646161415E+03   -0.90801E-03   -0.28019E-03 33224   0.616E-02    0.468E+00
DAV:  65    -0.342652354915E+03   -0.61935E-02   -0.28346E-04 29232   0.538E-02    0.409E+00
DAV:  66    -0.342658325257E+03   -0.59703E-02   -0.23551E-03 32472   0.550E-02    0.392E+00
DAV:  67    -0.342652781841E+03    0.55434E-02   -0.48248E-03 36744   0.612E-02    0.187E+00
DAV:  68    -0.342666954859E+03   -0.14173E-01   -0.19113E-03 30136   0.116E-01    0.205E+00
DAV:  69    -0.342667551242E+03   -0.59638E-03   -0.14278E-04 29640   0.301E-02    0.211E+00
DAV:  70    -0.342668159171E+03   -0.60793E-03   -0.75761E-05 21552   0.138E-02    0.236E+00
DAV:  71    -0.342667643399E+03    0.51577E-03   -0.26556E-04 30240   0.292E-02    0.259E+00
DAV:  72    -0.342663829687E+03    0.38137E-02   -0.26828E-04 31696   0.372E-02    0.191E+00
DAV:  73    -0.342666047575E+03   -0.22179E-02   -0.22498E-04 28768   0.394E-02    0.156E+00
DAV:  74    -0.342667129559E+03   -0.10820E-02   -0.48752E-04 29240   0.323E-02    0.132E+00
DAV:  75    -0.342667866236E+03   -0.73668E-03   -0.14039E-04 27288   0.242E-02    0.121E+00
DAV:  76    -0.342668622756E+03   -0.75652E-03   -0.66676E-05 24656   0.189E-02    0.129E+00
DAV:  77    -0.342672105488E+03   -0.34827E-02   -0.15900E-03 35752   0.510E-02    0.266E+00
DAV:  78    -0.342666576729E+03    0.55288E-02   -0.71589E-04 29448   0.870E-02    0.263E+00
DAV:  79    -0.342664985396E+03    0.15913E-02   -0.72155E-05 29472   0.236E-02    0.253E+00
DAV:  80    -0.342663020423E+03    0.19650E-02   -0.53966E-05 21920   0.180E-02    0.178E+00
DAV:  81    -0.342666919454E+03   -0.38990E-02   -0.34751E-04 28048   0.460E-02    0.176E+00
DAV:  82    -0.342665898330E+03    0.10211E-02   -0.14900E-03 34408   0.455E-02    0.115E+00
DAV:  83    -0.342668016341E+03   -0.21180E-02   -0.23069E-04 28440   0.472E-02    0.977E-01
DAV:  84    -0.342668773381E+03   -0.75704E-03   -0.49725E-05 28296   0.238E-02    0.100E+00
DAV:  85    -0.342668855972E+03   -0.82591E-04   -0.21850E-05 20112   0.110E-02    0.105E+00
DAV:  86    -0.342668814832E+03    0.41141E-04   -0.42402E-06 17000   0.599E-03    0.105E+00
DAV:  87    -0.342668489757E+03    0.32507E-03   -0.56898E-04 33656   0.367E-02    0.832E-01
DAV:  88    -0.342668595056E+03   -0.10530E-03   -0.87287E-05 26336   0.215E-02    0.608E-01
DAV:  89    -0.342669035911E+03   -0.44085E-03   -0.18537E-04 28024   0.272E-02    0.497E-01
DAV:  90    -0.342669259666E+03   -0.22376E-03   -0.63538E-04 34320   0.434E-02    0.423E-01
DAV:  91    -0.342669559399E+03   -0.29973E-03   -0.29723E-04 33296   0.444E-02    0.428E-01
DAV:  92    -0.342669877957E+03   -0.31856E-03   -0.36530E-04 33288   0.393E-02    0.401E-01
DAV:  93    -0.342669934899E+03   -0.56942E-04   -0.39277E-05 25208   0.184E-02    0.386E-01
DAV:  94    -0.342670047501E+03   -0.11260E-03   -0.92002E-05 22600   0.170E-02    0.353E-01
DAV:  95    -0.342670085361E+03   -0.37859E-04   -0.34505E-05 20816   0.132E-02    0.319E-01
DAV:  96    -0.342670210092E+03   -0.12473E-03   -0.69489E-05 22288   0.132E-02    0.291E-01
DAV:  97    -0.342670279034E+03   -0.68942E-04   -0.28471E-05 19808   0.116E-02    0.272E-01
DAV:  98    -0.342670340935E+03   -0.61901E-04   -0.38502E-05 20736   0.927E-03    0.252E-01
DAV:  99    -0.342670356031E+03   -0.15095E-04   -0.11552E-05 18544   0.559E-03    0.242E-01
DAV: 100    -0.342670343846E+03    0.12185E-04   -0.20692E-05 18664   0.768E-03    0.227E-01
DAV: 101    -0.342670350859E+03   -0.70128E-05   -0.45498E-05 21096   0.110E-02
  10 F= -.34267035E+03 E0= -.34265082E+03  d E =-.158040E+00  mag=    17.9617
       N       E                     dE             d eps       ncg     rms          rms(c)
DAV:   1    -0.341689092651E+03    0.98125E+00   -0.24723E+02 31880   0.485E+01    0.340E+00
DAV:   2    -0.342794039894E+03   -0.11049E+01   -0.10946E+01 30592   0.842E+00    0.696E+00
DAV:   3    -0.342809056746E+03   -0.15017E-01   -0.55939E-01 40984   0.245E+00    0.883E+00
DAV:   4    -0.342729372934E+03    0.79684E-01   -0.57996E-01 40160   0.142E+00    0.434E+00
DAV:   5    -0.342726946921E+03    0.24260E-02   -0.84097E-02 38488   0.802E-01    0.264E+00
DAV:   6    -0.342762439927E+03   -0.35493E-01   -0.93367E-02 40232   0.849E-01    0.710E+00
DAV:   7    -0.342735070262E+03    0.27370E-01   -0.35563E-02 35744   0.599E-01    0.734E+00
DAV:   8    -0.342704730573E+03    0.30340E-01   -0.71580E-03 32616   0.253E-01    0.681E+00
DAV:   9    -0.342680604906E+03    0.24126E-01   -0.36479E-02 40584   0.515E-01    0.417E+00
DAV:  10    -0.342749340182E+03   -0.68735E-01   -0.64920E-02 39336   0.730E-01    0.919E+00
DAV:  11    -0.342658769262E+03    0.90571E-01   -0.64402E-02 37616   0.715E-01    0.442E+00
DAV:  12    -0.342708968098E+03   -0.50199E-01   -0.10206E-01 36168   0.803E-01    0.258E+00
DAV:  13    -0.342720195939E+03   -0.11228E-01   -0.37989E-02 38856   0.527E-01    0.270E+00
DAV:  14    -0.342713749101E+03    0.64468E-02   -0.38974E-02 39136   0.452E-01    0.115E+00
DAV:  15    -0.342725203722E+03   -0.11455E-01   -0.45540E-02 39928   0.397E-01    0.246E+00
DAV:  16    -0.342715791286E+03    0.94124E-02   -0.29360E-02 38800   0.369E-01    0.115E+00
DAV:  17    -0.342718347465E+03   -0.25562E-02   -0.64856E-03 39240   0.251E-01    0.127E+00
DAV:  18    -0.342717203752E+03    0.11437E-02   -0.55501E-03 40272   0.216E-01    0.113E+00
DAV:  19    -0.342716139594E+03    0.10642E-02   -0.17478E-03 39776   0.167E-01    0.100E+00
DAV:  20    -0.342716841927E+03   -0.70233E-03   -0.64363E-03 41136   0.204E-01    0.125E+00
DAV:  21    -0.342714555248E+03    0.22867E-02   -0.57361E-03 39968   0.192E-01    0.677E-01
DAV:  22    -0.342714788659E+03   -0.23341E-03   -0.53370E-04 34608   0.711E-02    0.668E-01
DAV:  23    -0.342714213581E+03    0.57508E-03   -0.15692E-04 36232   0.449E-02    0.637E-01
DAV:  24    -0.342713748660E+03    0.46492E-03   -0.13201E-04 31200   0.323E-02    0.672E-01
DAV:  25    -0.342713004237E+03    0.74442E-03   -0.65772E-05 25296   0.247E-02    0.702E-01
DAV:  26    -0.342712216037E+03    0.78820E-03   -0.11885E-04 29264   0.231E-02    0.762E-01
DAV:  27    -0.342712141178E+03    0.74859E-04   -0.13803E-05 21048   0.119E-02    0.767E-01
DAV:  28    -0.342711998353E+03    0.14282E-03   -0.47608E-06 17008   0.637E-03    0.778E-01
DAV:  29    -0.342711611219E+03    0.38713E-03   -0.22722E-05 19440   0.124E-02    0.804E-01
DAV:  30    -0.342711358343E+03    0.25288E-03   -0.90555E-05 24704   0.170E-02    0.859E-01
DAV:  31    -0.342711088897E+03    0.26945E-03   -0.29171E-05 21776   0.158E-02    0.859E-01
DAV:  32    -0.342711092512E+03   -0.36155E-05   -0.27636E-06 16696   0.608E-03
  11 F= -.34271109E+03 E0= -.34269271E+03  d E =-.407417E-01  mag=    18.1082
       N       E                     dE             d eps       ncg     rms          rms(c)
DAV:   1    -0.342445474463E+03    0.26561E+00   -0.56873E+01 32584   0.261E+01    0.244E+00
DAV:   2    -0.342878472385E+03   -0.43300E+00   -0.38252E+00 33648   0.506E+00    0.639E+00
DAV:   3    -0.342787016609E+03    0.91456E-01   -0.37811E-01 37648   0.241E+00    0.520E+00
DAV:   4    -0.342755435658E+03    0.31581E-01   -0.12813E-01 39928   0.997E-01    0.218E+00
DAV:   5    -0.342766655278E+03   -0.11220E-01   -0.36238E-02 38104   0.519E-01    0.228E+00
DAV:   6    -0.342764724822E+03    0.19305E-02   -0.34772E-02 39976   0.417E-01    0.200E+00
DAV:   7    -0.342777684887E+03   -0.12960E-01   -0.97183E-02 39904   0.628E-01    0.336E+00
DAV:   8    -0.342760875674E+03    0.16809E-01   -0.85111E-02 39952   0.768E-01    0.194E+00
DAV:   9    -0.342762541948E+03   -0.16663E-02   -0.35374E-02 38800   0.509E-01    0.127E+00
DAV:  10    -0.342767125460E+03   -0.45835E-02   -0.42134E-02 39928   0.395E-01    0.199E+00
DAV:  11    -0.342763488524E+03    0.36369E-02   -0.18980E-02 39304   0.327E-01    0.140E+00
DAV:  12    -0.342764917000E+03   -0.14285E-02   -0.18632E-03 32064   0.147E-01    0.198E+00
DAV:  13    -0.342759766473E+03    0.51505E-02   -0.23106E-03 34976   0.137E-01    0.182E+00
DAV:  14    -0.342758180531E+03    0.15859E-02   -0.10986E-03 40128   0.959E-02    0.125E+00
DAV:  15    -0.342759245139E+03   -0.10646E-02   -0.45754E-04 34400   0.700E-02    0.785E-01
DAV:  16    -0.342760699927E+03   -0.14548E-02   -0.10903E-03 35856   0.946E-02    0.655E-01
DAV:  17    -0.342761912234E+03   -0.12123E-02   -0.21849E-03 39000   0.123E-01    0.829E-01
DAV:  18    -0.342761556409E+03    0.35582E-03   -0.30142E-03 39664   0.142E-01    0.754E-01
DAV:  19    -0.342761057495E+03    0.49891E-03   -0.23276E-03 39928   0.146E-01    0.496E-01
DAV:  20    -0.342761625602E+03   -0.56811E-03   -0.17898E-03 38088   0.129E-01    0.425E-01
DAV:  21    -0.342761628803E+03   -0.32007E-05   -0.68489E-04 39152   0.105E-01    0.298E-01
DAV:  22    -0.342761467670E+03    0.16113E-03   -0.12480E-04 33384   0.420E-02    0.171E-01
DAV:  23    -0.342761475254E+03   -0.75836E-05   -0.54857E-05 24008   0.218E-02
  12 F= -.34276148E+03 E0= -.34274278E+03  d E =-.503827E-01  mag=    17.9995
       N       E                     dE             d eps       ncg     rms          rms(c)
DAV:   1    -0.342730721840E+03    0.30746E-01   -0.10024E+01 32720   0.115E+01    0.121E+00
DAV:   2    -0.342907640619E+03   -0.17692E+00   -0.82487E-01 31328   0.232E+00    0.125E+01
DAV:   3    -0.342746816196E+03    0.16082E+00   -0.14260E-01 32144   0.912E-01    0.611E+00
DAV:   4    -0.342803338678E+03   -0.56522E-01   -0.71946E-03 32112   0.272E-01    0.909E+00
DAV:   5    -0.342746986760E+03    0.56352E-01   -0.54638E-02 39424   0.490E-01    0.789E+00
DAV:   6    -0.342735091232E+03    0.11896E-01   -0.71301E-02 40168   0.575E-01    0.411E+00
DAV:   7    -0.342779619199E+03   -0.44528E-01   -0.61623E-02 36256   0.529E-01    0.212E+00
DAV:   8    -0.342798753104E+03   -0.19134E-01   -0.41832E-02 36200   0.414E-01    0.160E+00
DAV:   9    -0.342801931268E+03   -0.31782E-02   -0.14022E-02 36240   0.282E-01    0.105E+00
DAV:  10    -0.342803016134E+03   -0.10849E-02   -0.40217E-03 37864   0.186E-01    0.949E-01
DAV:  11    -0.342803369995E+03   -0.35386E-03   -0.24451E-03 39456   0.133E-01    0.918E-01
DAV:  12    -0.342803534025E+03   -0.16403E-03   -0.19301E-03 40008   0.131E-01    0.820E-01
DAV:  13    -0.342804802979E+03   -0.12690E-02   -0.49912E-03 41080   0.186E-01    0.989E-01
DAV:  14    -0.342803679871E+03    0.11231E-02   -0.84511E-03 40280   0.237E-01    0.799E-01
DAV:  15    -0.342803242980E+03    0.43689E-03   -0.49458E-03 39680   0.189E-01    0.744E-01
DAV:  16    -0.342803240809E+03    0.21709E-05   -0.38360E-03 40400   0.161E-01    0.865E-01
DAV:  17    -0.342802746150E+03    0.49466E-03   -0.40056E-03 39432   0.177E-01    0.673E-01
DAV:  18    -0.342803250715E+03   -0.50457E-03   -0.42065E-03 40424   0.170E-01    0.575E-01
DAV:  19    -0.342803507675E+03   -0.25696E-03   -0.21351E-03 39280   0.122E-01    0.440E-01
DAV:  20    -0.342803576185E+03   -0.68510E-04   -0.89610E-04 39088   0.808E-02    0.351E-01
DAV:  21    -0.342803800258E+03   -0.22407E-03   -0.78485E-04 38328   0.920E-02    0.158E-01
DAV:  22    -0.342803962159E+03   -0.16190E-03   -0.25037E-04 36376   0.481E-02    0.120E-01
DAV:  23    -0.342803980018E+03   -0.17859E-04   -0.15939E-04 33488   0.445E-02    0.106E-01
DAV:  24    -0.342803947799E+03    0.32219E-04   -0.38941E-05 26280   0.216E-02    0.109E-01
DAV:  25    -0.342803957549E+03   -0.97499E-05   -0.16828E-05 21328   0.145E-02
  13 F= -.34280396E+03 E0= -.34278587E+03  d E =-.424823E-01  mag=    18.0156
       N       E                     dE             d eps       ncg     rms          rms(c)
DAV:   1    -0.342759103435E+03    0.44844E-01   -0.17663E+01 32072   0.126E+01    0.860E-01
DAV:   2    -0.342825367216E+03   -0.66264E-01   -0.66689E-01 30184   0.210E+00    0.166E+00
DAV:   3    -0.342831986240E+03   -0.66190E-02   -0.96460E-02 40688   0.667E-01    0.268E+00
DAV:   4    -0.342822369646E+03    0.96166E-02   -0.55363E-02 38800   0.446E-01    0.137E+00
DAV:   5    -0.342822192368E+03    0.17728E-03   -0.10710E-02 38136   0.221E-01    0.534E-01
DAV:   6    -0.342823904044E+03   -0.17117E-02   -0.42522E-03 38552   0.194E-01    0.805E-01
DAV:   7    -0.342822856512E+03    0.10475E-02   -0.40695E-03 40224   0.199E-01    0.476E-01
DAV:   8    -0.342823437323E+03   -0.58081E-03   -0.38314E-03 40312   0.196E-01    0.646E-01
DAV:   9    -0.342823383030E+03    0.54294E-04   -0.47858E-03 40072   0.171E-01    0.665E-01
DAV:  10    -0.342822842726E+03    0.54030E-03   -0.18463E-03 38920   0.135E-01    0.291E-01
DAV:  11    -0.342822935229E+03   -0.92503E-04   -0.52244E-04 36784   0.734E-02    0.245E-01
DAV:  12    -0.342822911368E+03    0.23861E-04   -0.20230E-04 28816   0.489E-02    0.189E-01
DAV:  13    -0.342822881353E+03    0.30015E-04   -0.64041E-05 24096   0.336E-02    0.127E-01
DAV:  14    -0.342822940288E+03   -0.58935E-04   -0.15460E-04 25640   0.394E-02    0.210E-01
DAV:  15    -0.342822921103E+03    0.19185E-04   -0.32289E-04 26520   0.447E-02    0.174E-01
DAV:  16    -0.342822901494E+03    0.19609E-04   -0.23202E-04 26224   0.465E-02    0.675E-02
DAV:  17    -0.342822964590E+03   -0.63096E-04   -0.27239E-04 23152   0.324E-02    0.180E-01
DAV:  18    -0.342822903001E+03    0.61588E-04   -0.17551E-04 22424   0.306E-02    0.379E-02
DAV:  19    -0.342822923032E+03   -0.20030E-04   -0.13577E-05 17728   0.124E-02    0.442E-02
DAV:  20    -0.342822921286E+03    0.17454E-05   -0.10620E-05 17672   0.118E-02
  14 F= -.34282292E+03 E0= -.34280473E+03  d E =-.189637E-01  mag=    18.0014
       N       E                     dE             d eps       ncg     rms          rms(c)
DAV:   1    -0.342669050850E+03    0.15387E+00   -0.49782E+01 31912   0.206E+01    0.133E+00
DAV:   2    -0.342851662559E+03   -0.18261E+00   -0.18310E+00 30040   0.344E+00    0.250E+00
DAV:   3    -0.342868899764E+03   -0.17237E-01   -0.22387E-01 40496   0.103E+00    0.417E+00
DAV:   4    -0.342847081341E+03    0.21818E-01   -0.15385E-01 39096   0.736E-01    0.209E+00
DAV:   5    -0.342845244631E+03    0.18367E-02   -0.50321E-02 39528   0.431E-01    0.959E-01
DAV:   6    -0.342847302219E+03   -0.20576E-02   -0.11296E-02 38712   0.265E-01    0.100E+00
DAV:   7    -0.342846746747E+03    0.55547E-03   -0.76621E-03 39560   0.279E-01    0.102E+00
DAV:   8    -0.342846755033E+03   -0.82866E-05   -0.10321E-02 39352   0.281E-01    0.105E+00
DAV:   9    -0.342846962736E+03   -0.20770E-03   -0.74822E-03 39568   0.261E-01    0.829E-01
DAV:  10    -0.342846264047E+03    0.69869E-03   -0.43353E-03 39280   0.221E-01    0.526E-01
DAV:  11    -0.342846388209E+03   -0.12416E-03   -0.15566E-03 39648   0.137E-01    0.473E-01
DAV:  12    -0.342846159890E+03    0.22832E-03   -0.71894E-04 37728   0.870E-02    0.281E-01
DAV:  13    -0.342846155953E+03    0.39374E-05   -0.26947E-04 33464   0.613E-02    0.224E-01
DAV:  14    -0.342846230356E+03   -0.74404E-04   -0.54178E-04 28832   0.573E-02    0.298E-01
DAV:  15    -0.342846237482E+03   -0.71252E-05   -0.62804E-04 33560   0.653E-02    0.261E-01
DAV:  16    -0.342846207187E+03    0.30294E-04   -0.45753E-04 35944   0.660E-02    0.184E-01
DAV:  17    -0.342846234405E+03   -0.27218E-04   -0.53245E-04 29768   0.595E-02    0.161E-01
DAV:  18    -0.342846266177E+03   -0.31771E-04   -0.31881E-04 28320   0.473E-02    0.198E-01
DAV:  19    -0.342846208313E+03    0.57864E-04   -0.13748E-04 24920   0.377E-02    0.496E-02
DAV:  20    -0.342846231652E+03   -0.23340E-04   -0.14844E-05 19000   0.158E-02    0.397E-02
DAV:  21    -0.342846230986E+03    0.66627E-06   -0.48808E-06 16968   0.785E-03
  15 F= -.34284623E+03 E0= -.34282803E+03  d E =-.233097E-01  mag=    17.9975
       N       E                     dE             d eps       ncg     rms          rms(c)
DAV:   1    -0.339324712072E+03    0.35215E+01   -0.33833E+02 32880   0.679E+01    0.936E+00
DAV:   2    -0.342801176229E+03   -0.34765E+01   -0.30678E+01 31536   0.143E+01    0.251E+01
DAV:   3    -0.342006164847E+03    0.79501E+00   -0.46023E+00 40296   0.650E+00    0.112E+01
DAV:   4    -0.343483483143E+03   -0.14773E+01   -0.26293E+00 41072   0.454E+00    0.308E+01
DAV:   5    -0.342082038148E+03    0.14014E+01   -0.21859E+00 38952   0.435E+00    0.115E+01
DAV:   6    -0.341966683304E+03    0.11535E+00   -0.16972E+00 40064   0.283E+00    0.838E+00
DAV:   7    -0.342049686834E+03   -0.83004E-01   -0.13813E+00 40256   0.226E+00    0.112E+01
DAV:   8    -0.342115416957E+03   -0.65730E-01   -0.67379E-01 39752   0.167E+00    0.119E+01
DAV:   9    -0.342040368979E+03    0.75048E-01   -0.12083E-01 38144   0.996E-01    0.950E+00
DAV:  10    -0.342045718472E+03   -0.53495E-02   -0.59197E-03 31056   0.250E-01    0.961E+00
DAV:  11    -0.342029916167E+03    0.15802E-01   -0.10520E-02 40536   0.262E-01    0.878E+00
DAV:  12    -0.342038142241E+03   -0.82261E-02   -0.10692E-02 37040   0.223E-01    0.909E+00
DAV:  13    -0.342033249294E+03    0.48929E-02   -0.14983E-03 34896   0.122E-01    0.918E+00
DAV:  14    -0.342019841403E+03    0.13408E-01   -0.41915E-02 41400   0.607E-01    0.954E+00
DAV:  15    -0.342022350822E+03   -0.25094E-02   -0.60986E-02 40104   0.556E-01    0.958E+00
DAV:  16    -0.342002629999E+03    0.19721E-01   -0.30314E-02 39960   0.530E-01    0.905E+00
DAV:  17    -0.342082004527E+03   -0.79375E-01   -0.18590E-01 41016   0.108E+00    0.117E+01
DAV:  18    -0.341980842865E+03    0.10116E+00   -0.67055E-01 40328   0.139E+00    0.118E+01
DAV:  19    -0.341811151848E+03    0.16969E+00   -0.17973E-01 40600   0.148E+00    0.115E+01
DAV:  20    -0.341602785912E+03    0.20837E+00   -0.72422E-02 40104   0.988E-01    0.964E+00
DAV:  21    -0.341533284155E+03    0.69502E-01   -0.49589E-02 40736   0.655E-01    0.702E+00
DAV:  22    -0.341613637668E+03   -0.80354E-01   -0.86158E-02 37832   0.679E-01    0.622E+00
DAV:  23    -0.341718762478E+03   -0.10512E+00   -0.53498E-02 40304   0.581E-01    0.431E+00
DAV:  24    -0.341760810368E+03   -0.42048E-01   -0.15216E-02 39000   0.350E-01    0.523E+00
DAV:  25    -0.341786226722E+03   -0.25416E-01   -0.27204E-02 36472   0.343E-01    0.681E+00
DAV:  26    -0.341768656216E+03    0.17571E-01   -0.36729E-02 37040   0.396E-01    0.572E+00
DAV:  27    -0.341757753197E+03    0.10903E-01   -0.23613E-02 40424   0.378E-01    0.409E+00
DAV:  28    -0.341788806110E+03   -0.31053E-01   -0.14179E-02 34640   0.318E-01    0.440E+00
DAV:  29    -0.341795304076E+03   -0.64980E-02   -0.97840E-03 39544   0.262E-01    0.433E+00
DAV:  30    -0.341799853822E+03   -0.45497E-02   -0.26130E-03 40568   0.142E-01    0.410E+00
DAV:  31    -0.341814017332E+03   -0.14164E-01   -0.40785E-03 37256   0.177E-01    0.394E+00
DAV:  32    -0.341825942028E+03   -0.11925E-01   -0.64819E-03 39192   0.263E-01    0.414E+00
DAV:  33    -0.341822662621E+03    0.32794E-02   -0.23623E-03 40200   0.154E-01    0.408E+00
DAV:  34    -0.341818575720E+03    0.40869E-02   -0.22795E-03 40720   0.139E-01    0.399E+00
DAV:  35    -0.341812299993E+03    0.62757E-02   -0.34957E-03 41312   0.116E-01    0.395E+00
DAV:  36    -0.341809360438E+03    0.29396E-02   -0.13403E-03 36520   0.709E-02    0.398E+00
DAV:  37    -0.341807880129E+03    0.14803E-02   -0.13692E-04 32864   0.422E-02    0.396E+00
DAV:  38    -0.341807193967E+03    0.68616E-03   -0.25907E-05 25952   0.140E-02    0.396E+00
DAV:  39    -0.341808816049E+03   -0.16221E-02   -0.19254E-05 20824   0.160E-02    0.395E+00
DAV:  40    -0.341823941934E+03   -0.15126E-01   -0.34072E-03 38776   0.134E-01    0.380E+00
DAV:  41    -0.341847733414E+03   -0.23791E-01   -0.11146E-02 40736   0.334E-01    0.355E+00
DAV:  42    -0.341892217595E+03   -0.44484E-01   -0.68814E-03 41096   0.253E-01    0.748E+00
DAV:  43    -0.341892409882E+03   -0.19229E-03   -0.11356E-02 30208   0.358E-01    0.924E+00
DAV:  44    -0.341852761167E+03    0.39649E-01   -0.27373E-03 31264   0.167E-01    0.929E+00
DAV:  45    -0.341836853075E+03    0.15908E-01   -0.47145E-04 37056   0.766E-02    0.909E+00
DAV:  46    -0.341823624663E+03    0.13228E-01   -0.16762E-03 40600   0.117E-01    0.859E+00
DAV:  47    -0.341767930054E+03    0.55695E-01   -0.97729E-03 39456   0.291E-01    0.396E+00
DAV:  48    -0.341839950713E+03   -0.72021E-01   -0.11177E-02 30592   0.356E-01    0.418E+00
DAV:  49    -0.341913583789E+03   -0.73633E-01   -0.15054E-02 41336   0.348E-01    0.906E+00
DAV:  50    -0.341915019080E+03   -0.14353E-02   -0.21696E-02 31488   0.343E-01    0.990E+00
DAV:  51    -0.341898503669E+03    0.16515E-01   -0.19908E-03 32264   0.107E-01    0.988E+00
DAV:  52    -0.342093807088E+03   -0.19530E+00   -0.73063E-02 41376   0.773E-01    0.996E+00
DAV:  53    -0.342181694567E+03   -0.87887E-01   -0.38165E-02 39944   0.461E-01    0.178E+01
DAV:  54    -0.342092768406E+03    0.88926E-01   -0.22081E-02 30176   0.448E-01    0.181E+01
DAV:  55    -0.342068736619E+03    0.24032E-01   -0.15954E-03 33456   0.124E-01    0.182E+01
DAV:  56    -0.342159038668E+03   -0.90302E-01   -0.54419E-03 40952   0.227E-01    0.181E+01
DAV:  57    -0.342291333818E+03   -0.13230E+00   -0.11694E-02 40648   0.344E-01    0.179E+01
DAV:  58    -0.342291339682E+03   -0.58633E-05   -0.18277E-03 30928   0.894E-02    0.180E+01
DAV:  59    -0.342294659648E+03   -0.33200E-02   -0.52970E-05 31064   0.246E-02    0.180E+01
DAV:  60    -0.342204710932E+03    0.89949E-01   -0.51483E-03 40488   0.230E-01    0.183E+01
DAV:  61    -0.342199062436E+03    0.56485E-02   -0.72709E-04 30904   0.637E-02    0.184E+01
DAV:  62    -0.342394249124E+03   -0.19519E+00   -0.10875E-02 39304   0.323E-01    0.177E+01
DAV:  63    -0.342318975598E+03    0.75274E-01   -0.20910E-03 36824   0.173E-01    0.179E+01
DAV:  64    -0.342175760956E+03    0.14321E+00   -0.29327E-03 40112   0.209E-01    0.182E+01
DAV:  65    -0.342086885189E+03    0.88876E-01   -0.36167E-03 41104   0.187E-01    0.184E+01
DAV:  66    -0.342075751718E+03    0.11133E-01   -0.68956E-04 34736   0.789E-02    0.184E+01
DAV:  67    -0.342153404906E+03   -0.77653E-01   -0.15346E-03 40344   0.150E-01    0.181E+01
DAV:  68    -0.342075629408E+03    0.77775E-01   -0.11726E-03 39912   0.155E-01    0.182E+01
DAV:  69    -0.342030868938E+03    0.44760E-01   -0.83342E-04 38264   0.921E-02    0.183E+01
DAV:  70    -0.342038717669E+03   -0.78487E-02   -0.31070E-04 37160   0.603E-02    0.182E+01
DAV:  71    -0.342084629091E+03   -0.45911E-01   -0.75593E-04 38360   0.893E-02    0.181E+01
DAV:  72    -0.341990142792E+03    0.94486E-01   -0.19715E-03 39528   0.173E-01    0.182E+01
DAV:  73    -0.342188773652E+03   -0.19863E+00   -0.43263E-03 39344   0.252E-01    0.177E+01
DAV:  74    -0.342305502112E+03   -0.11673E+00   -0.37886E-03 39656   0.197E-01    0.174E+01
DAV:  75    -0.342284665092E+03    0.20837E-01   -0.27489E-03 40648   0.194E-01    0.172E+01
DAV:  76    -0.342306178259E+03   -0.21513E-01   -0.11891E-03 37216   0.986E-02    0.170E+01
DAV:  77    -0.342207037827E+03    0.99140E-01   -0.52078E-03 39224   0.250E-01    0.175E+01
DAV:  78    -0.342195827889E+03    0.11210E-01   -0.70469E-04 32072   0.611E-02    0.176E+01
DAV:  79    -0.342236718117E+03   -0.40890E-01   -0.78154E-04 39344   0.863E-02    0.173E+01
DAV:  80    -0.342295176478E+03   -0.58458E-01   -0.50735E-03 41224   0.242E-01    0.167E+01
DAV:  81    -0.342366736486E+03   -0.71560E-01   -0.47986E-03 40984   0.219E-01    0.162E+01
DAV:  82    -0.342201448860E+03    0.16529E+00   -0.48084E-03 39144   0.261E-01    0.167E+01
DAV:  83    -0.342183939778E+03    0.17509E-01   -0.10069E-03 38288   0.821E-02    0.168E+01
DAV:  84    -0.342144064483E+03    0.39875E-01   -0.39965E-04 39552   0.598E-02    0.169E+01
DAV:  85    -0.342022821033E+03    0.12124E+00   -0.19766E-03 39784   0.146E-01    0.173E+01
DAV:  86    -0.341915626291E+03    0.10719E+00   -0.20506E-03 40560   0.126E-01    0.158E+01
DAV:  87    -0.341764770635E+03    0.15086E+00   -0.12822E-01 42352   0.824E-01    0.519E+00
DAV:  88    -0.341956066966E+03   -0.19130E+00   -0.88740E-02 31312   0.695E-01    0.937E+00
DAV:  89    -0.341950640899E+03    0.54261E-02   -0.40048E-02 33168   0.277E-01    0.997E+00
DAV:  90    -0.341937180641E+03    0.13460E-01   -0.45223E-03 31032   0.123E-01    0.101E+01
DAV:  91    -0.341972577087E+03   -0.35396E-01   -0.39455E-03 41112   0.196E-01    0.960E+00
DAV:  92    -0.342268821755E+03   -0.29624E+00   -0.40823E-01 39848   0.207E+00    0.140E+01
DAV:  93    -0.342189708651E+03    0.79113E-01   -0.66585E-02 30400   0.711E-01    0.142E+01
DAV:  94    -0.342157979534E+03    0.31729E-01   -0.24252E-03 34448   0.173E-01    0.141E+01
DAV:  95    -0.342146538077E+03    0.11441E-01   -0.31106E-04 36664   0.614E-02    0.140E+01
DAV:  96    -0.342105302224E+03    0.41236E-01   -0.40300E-04 42248   0.104E-01    0.139E+01
DAV:  97    -0.342186900404E+03   -0.81598E-01   -0.13963E-02 40392   0.463E-01    0.146E+01
DAV:  98    -0.342174367447E+03    0.12533E-01   -0.20283E-03 31560   0.106E-01    0.146E+01
DAV:  99    -0.342198390207E+03   -0.24023E-01   -0.24162E-03 40008   0.177E-01    0.144E+01
DAV: 100    -0.342163254932E+03    0.35135E-01   -0.36883E-03 39736   0.200E-01    0.146E+01
DAV: 101    -0.342176234428E+03   -0.12979E-01   -0.17768E-03 40160   0.144E-01    0.143E+01
DAV: 102    -0.342151805651E+03    0.24429E-01   -0.72774E-04 38384   0.976E-02    0.143E+01
DAV: 103    -0.342155588419E+03   -0.37828E-02   -0.29552E-04 37104   0.707E-02    0.144E+01
DAV: 104    -0.342155702373E+03   -0.11395E-03   -0.48794E-05 29496   0.171E-02    0.144E+01
DAV: 105    -0.342157747409E+03   -0.20450E-02   -0.12872E-03 41136   0.131E-01    0.144E+01
DAV: 106    -0.342105928266E+03    0.51819E-01   -0.57945E-03 40984   0.280E-01    0.142E+01
DAV: 107    -0.342015947978E+03    0.89980E-01   -0.56550E-03 41064   0.257E-01    0.133E+01
DAV: 108    -0.342003683671E+03    0.12264E-01   -0.22032E-03 38720   0.157E-01    0.121E+01
DAV: 109    -0.341993928818E+03    0.97549E-02   -0.11461E-03 36992   0.121E-01    0.101E+01
DAV: 110    -0.342009699794E+03   -0.15771E-01   -0.25328E-03 35880   0.166E-01    0.831E+00
DAV: 111    -0.342044166488E+03   -0.34467E-01   -0.65831E-03 39984   0.288E-01    0.720E+00
DAV: 112    -0.342035859814E+03    0.83067E-02   -0.15578E-02 40400   0.413E-01    0.515E+00
DAV: 113    -0.342036503971E+03   -0.64416E-03   -0.50867E-03 34184   0.198E-01    0.499E+00
DAV: 114    -0.342040946621E+03   -0.44427E-02   -0.28722E-04 30896   0.524E-02    0.499E+00
DAV: 115    -0.342040986920E+03   -0.40299E-04   -0.11105E-05 22104   0.111E-02    0.499E+00
DAV: 116    -0.342040834901E+03    0.15202E-03   -0.10133E-05 19848   0.103E-02    0.498E+00
DAV: 117    -0.342038189518E+03    0.26454E-02   -0.11869E-03 39136   0.972E-02    0.491E+00
DAV: 118    -0.342010298986E+03    0.27891E-01   -0.12034E-03 40680   0.144E-01    0.485E+00
DAV: 119    -0.341992746222E+03    0.17553E-01   -0.13428E-03 40208   0.121E-01    0.483E+00
DAV: 120    -0.341975429815E+03    0.17316E-01   -0.87813E-04 40176   0.103E-01    0.480E+00
DAV: 121    -0.341943233211E+03    0.32197E-01   -0.14535E-03 40920   0.144E-01    0.478E+00
DAV: 122    -0.341767409917E+03    0.17582E+00   -0.79653E-02 40304   0.904E-01    0.485E+00
DAV: 123    -0.341767474535E+03   -0.64618E-04   -0.10389E-02 31736   0.237E-01    0.479E+00
DAV: 124    -0.341774592777E+03   -0.71182E-02   -0.57632E-04 36616   0.889E-02    0.466E+00
DAV: 125    -0.341779834990E+03   -0.52422E-02   -0.47167E-04 39728   0.724E-02    0.462E+00
DAV: 126    -0.341832619144E+03   -0.52784E-01   -0.58516E-03 40544   0.278E-01    0.483E+00
DAV: 127    -0.341860276863E+03   -0.27658E-01   -0.12131E-02 39096   0.455E-01    0.811E+00
DAV: 128    -0.341873047864E+03   -0.12771E-01   -0.13442E-02 33024   0.451E-01    0.735E+00
DAV: 129    -0.341847044442E+03    0.26003E-01   -0.23459E-03 39632   0.189E-01    0.717E+00
DAV: 130    -0.341846802668E+03    0.24177E-03   -0.71522E-03 41488   0.395E-01    0.406E+00
DAV: 131    -0.341913422436E+03   -0.66620E-01   -0.10777E-02 38760   0.383E-01    0.489E+00
DAV: 132    -0.341954044682E+03   -0.40622E-01   -0.15233E-02 32160   0.407E-01    0.605E+00
DAV: 133    -0.341949051222E+03    0.49935E-02   -0.40686E-03 34392   0.200E-01    0.618E+00
DAV: 134    -0.341943755327E+03    0.52959E-02   -0.35050E-04 30648   0.562E-02    0.618E+00
DAV: 135    -0.341942309192E+03    0.14461E-02   -0.67088E-05 29792   0.265E-02    0.612E+00
[...]
DAV:  26    -0.343051187692E+03   -0.19330E-04   -0.22391E-05 21416   0.159E-02    0.285E-01
DAV:  27    -0.343051098032E+03    0.89660E-04   -0.11660E-05 19040   0.151E-02    0.212E-01
DAV:  28    -0.343051105561E+03   -0.75282E-05   -0.49379E-06 17536   0.719E-03
  49 F= -.34305111E+03 E0= -.34302500E+03  d E =0.638528E-03  mag=    17.0778
       N       E                     dE             d eps       ncg     rms          rms(c)
DAV:   1    -0.343042906191E+03    0.81918E-02   -0.16321E+00 32240   0.398E+00    0.485E-01
DAV:   2    -0.343076326429E+03   -0.33420E-01   -0.78580E-02 35176   0.865E-01    0.532E+00
DAV:   3    -0.343033677758E+03    0.42649E-01   -0.16050E-02 35728   0.528E-01    0.235E+00
DAV:   4    -0.343042398573E+03   -0.87208E-02   -0.22061E-03 32800   0.122E-01    0.108E+00
DAV:   5    -0.343047950208E+03   -0.55516E-02   -0.46652E-03 34896   0.153E-01    0.606E-01
DAV:   6    -0.343050216560E+03   -0.22664E-02   -0.12798E-03 32488   0.127E-01    0.915E-01
DAV:   7    -0.343049463450E+03    0.75311E-03   -0.63643E-04 33256   0.793E-02    0.862E-01
DAV:   8    -0.343049280365E+03    0.18309E-03   -0.58302E-05 27760   0.231E-02    0.880E-01
DAV:   9    -0.343049337083E+03   -0.56719E-04   -0.11699E-03 29264   0.683E-02    0.775E-01
DAV:  10    -0.343049435145E+03   -0.98061E-04   -0.11944E-03 38304   0.835E-02    0.553E-01
DAV:  11    -0.343050172763E+03   -0.73762E-03   -0.11428E-03 37448   0.993E-02    0.954E-01
DAV:  12    -0.343049905070E+03    0.26769E-03   -0.88856E-04 37768   0.106E-01    0.133E+00
DAV:  13    -0.343049104258E+03    0.80081E-03   -0.89101E-04 35816   0.947E-02    0.157E+00
DAV:  14    -0.343048067158E+03    0.10371E-02   -0.47759E-04 37656   0.669E-02    0.151E+00
DAV:  15    -0.343047665599E+03    0.40156E-03   -0.29297E-04 32720   0.487E-02    0.129E+00
DAV:  16    -0.343048014377E+03   -0.34878E-03   -0.26393E-04 27192   0.452E-02    0.112E+00
DAV:  17    -0.343048445132E+03   -0.43075E-03   -0.76261E-05 27040   0.263E-02    0.102E+00
DAV:  18    -0.343048673186E+03   -0.22805E-03   -0.47680E-05 21384   0.213E-02    0.950E-01
DAV:  19    -0.343048727477E+03   -0.54291E-04   -0.54387E-05 23288   0.259E-02    0.755E-01
DAV:  20    -0.343049005714E+03   -0.27824E-03   -0.63540E-05 27768   0.298E-02    0.560E-01
DAV:  21    -0.343049274807E+03   -0.26909E-03   -0.57298E-05 27984   0.256E-02    0.343E-01
DAV:  22    -0.343049525420E+03   -0.25061E-03   -0.35809E-05 24720   0.220E-02    0.662E-02
DAV:  23    -0.343049734955E+03   -0.20953E-03   -0.32452E-05 23624   0.214E-02    0.521E-02
DAV:  24    -0.343049755336E+03   -0.20381E-04   -0.88293E-06 18416   0.112E-02    0.652E-02
DAV:  25    -0.343049751405E+03    0.39304E-05   -0.37202E-06 17096   0.672E-03
  50 F= -.34304975E+03 E0= -.34302375E+03  d E =0.135416E-02  mag=    17.0784
       N       E                     dE             d eps       ncg     rms          rms(c)
DAV:   1    -0.343048018474E+03    0.17369E-02   -0.56613E-01 32312   0.258E+00    0.346E-01
DAV:   2    -0.343067692672E+03   -0.19674E-01   -0.33628E-02 35896   0.576E-01    0.509E+00
DAV:   3    -0.343033127303E+03    0.34565E-01   -0.10250E-02 34216   0.421E-01    0.203E+00
DAV:   4    -0.343044369159E+03   -0.11242E-01   -0.22766E-03 33152   0.115E-01    0.875E-01
DAV:   5    -0.343049351276E+03   -0.49821E-02   -0.40337E-03 33960   0.133E-01    0.367E-01
DAV:   6    -0.343050912403E+03   -0.15611E-02   -0.15574E-03 34280   0.104E-01    0.441E-01
DAV:   7    -0.343050722623E+03    0.18978E-03   -0.85264E-04 38712   0.816E-02    0.193E-01
DAV:   8    -0.343050818228E+03   -0.95605E-04   -0.24288E-04 32032   0.466E-02    0.288E-01
DAV:   9    -0.343051031031E+03   -0.21280E-03   -0.26028E-04 31168   0.484E-02    0.776E-01
DAV:  10    -0.343050827259E+03    0.20377E-03   -0.24089E-04 32664   0.557E-02    0.115E+00
DAV:  11    -0.343049815770E+03    0.10115E-02   -0.18543E-04 33448   0.540E-02    0.101E+00
DAV:  12    -0.343049640485E+03    0.17528E-03   -0.19625E-04 25904   0.433E-02    0.706E-01
DAV:  13    -0.343050025941E+03   -0.38546E-03   -0.14317E-04 31128   0.454E-02    0.309E-01
DAV:  14    -0.343050585312E+03   -0.55937E-03   -0.16265E-04 28976   0.393E-02    0.230E-01
DAV:  15    -0.343050711944E+03   -0.12663E-03   -0.70290E-05 21672   0.251E-02    0.249E-01
DAV:  16    -0.343050745928E+03   -0.33984E-04   -0.35560E-05 19752   0.172E-02    0.346E-01
DAV:  17    -0.343050695529E+03    0.50399E-04   -0.10656E-05 18064   0.116E-02    0.399E-01
DAV:  18    -0.343050642942E+03    0.52587E-04   -0.17351E-05 18016   0.118E-02    0.418E-01
DAV:  19    -0.343050594043E+03    0.48899E-04   -0.10402E-05 17392   0.114E-02    0.367E-01
DAV:  20    -0.343050610333E+03   -0.16289E-04   -0.13658E-05 20240   0.139E-02    0.299E-01
DAV:  21    -0.343050653717E+03   -0.43384E-04   -0.23398E-05 22680   0.156E-02    0.240E-01
DAV:  22    -0.343050704806E+03   -0.51090E-04   -0.11600E-05 18368   0.970E-03    0.231E-01
DAV:  23    -0.343050719494E+03   -0.14687E-04   -0.23483E-06 16680   0.570E-03    0.225E-01
DAV:  24    -0.343050719256E+03    0.23736E-06   -0.28645E-06 16776   0.573E-03
  51 F= -.34305072E+03 E0= -.34302474E+03  d E =-.967851E-03  mag=    17.0777
       N       E                     dE             d eps       ncg     rms          rms(c)
DAV:   1    -0.343050501718E+03    0.21778E-03   -0.68110E-01 31696   0.247E+00    0.192E-01
DAV:   2    -0.343054326444E+03   -0.38247E-02   -0.26953E-02 31712   0.428E-01    0.140E+00
DAV:   3    -0.343051614551E+03    0.27119E-02   -0.19437E-03 35712   0.157E-01    0.266E-01
DAV:   4    -0.343053014064E+03   -0.13995E-02   -0.70864E-04 35864   0.807E-02    0.357E-01
DAV:   5    -0.343053009222E+03    0.48414E-05   -0.59769E-04 35080   0.613E-02    0.243E-01
DAV:   6    -0.343053101770E+03   -0.92547E-04   -0.65728E-04 31784   0.505E-02    0.348E-01
DAV:   7    -0.343052990997E+03    0.11077E-03   -0.16787E-04 27136   0.352E-02    0.226E-01
DAV:   8    -0.343053018343E+03   -0.27346E-04   -0.18417E-04 23400   0.328E-02    0.240E-01
DAV:   9    -0.343053127774E+03   -0.10943E-03   -0.42458E-04 28504   0.429E-02    0.470E-01
DAV:  10    -0.343052905763E+03    0.22201E-03   -0.18821E-04 31328   0.404E-02    0.393E-01
DAV:  11    -0.343052876429E+03    0.29334E-04   -0.16539E-04 24928   0.430E-02    0.351E-01
DAV:  12    -0.343052877656E+03   -0.12275E-05   -0.23226E-04 28744   0.486E-02    0.204E-01
DAV:  13    -0.343053082617E+03   -0.20496E-03   -0.26912E-04 31848   0.533E-02    0.418E-01
DAV:  14    -0.343052912714E+03    0.16990E-03   -0.14645E-04 30144   0.418E-02    0.390E-01
DAV:  15    -0.343052813138E+03    0.99575E-04   -0.41482E-05 20608   0.264E-02    0.160E-01
DAV:  16    -0.343052970292E+03   -0.15715E-03   -0.41576E-05 22776   0.247E-02    0.166E-01
DAV:  17    -0.343053041694E+03   -0.71402E-04   -0.39292E-05 24424   0.238E-02    0.323E-01
DAV:  18    -0.343052964856E+03    0.76838E-04   -0.33390E-05 23240   0.220E-02    0.363E-01
DAV:  19    -0.343052891187E+03    0.73669E-04   -0.43903E-05 18448   0.163E-02    0.301E-01
DAV:  20    -0.343052902597E+03   -0.11410E-04   -0.41702E-05 19168   0.150E-02    0.228E-01
DAV:  21    -0.343052938575E+03   -0.35978E-04   -0.50387E-06 17208   0.797E-03    0.153E-01
DAV:  22    -0.343052974700E+03   -0.36126E-04   -0.75066E-06 18576   0.896E-03    0.721E-02
DAV:  23    -0.343053002944E+03   -0.28244E-04   -0.94393E-06 17888   0.934E-03    0.249E-02
DAV:  24    -0.343053014884E+03   -0.11940E-04   -0.43865E-06 17408   0.766E-03    0.514E-02
DAV:  25    -0.343053013793E+03    0.10908E-05   -0.19168E-06 16560   0.514E-03
  52 F= -.34305301E+03 E0= -.34302698E+03  d E =-.229454E-02  mag=    17.0737
       N       E                     dE             d eps       ncg     rms          rms(c)
DAV:   1    -0.343050212409E+03    0.28025E-02   -0.19903E+00 32016   0.390E+00    0.262E-01
DAV:   2    -0.343057485411E+03   -0.72730E-02   -0.62896E-02 30776   0.656E-01    0.127E+00
DAV:   3    -0.343055317386E+03    0.21680E-02   -0.41530E-03 38344   0.197E-01    0.458E-01
DAV:   4    -0.343056490500E+03   -0.11731E-02   -0.12085E-03 37248   0.126E-01    0.580E-01
DAV:   5    -0.343056015661E+03    0.47484E-03   -0.70801E-04 37832   0.840E-02    0.293E-01
DAV:   6    -0.343056166427E+03   -0.15077E-03   -0.48183E-04 35552   0.629E-02    0.318E-01
DAV:   7    -0.343056197768E+03   -0.31340E-04   -0.71371E-04 34352   0.522E-02    0.348E-01
DAV:   8    -0.343056142358E+03    0.55410E-04   -0.15513E-03 37976   0.656E-02    0.379E-01
DAV:   9    -0.343056096270E+03    0.46088E-04   -0.10505E-03 39240   0.638E-02    0.439E-01
DAV:  10    -0.343055988586E+03    0.10768E-03   -0.58145E-04 37384   0.652E-02    0.315E-01
DAV:  11    -0.343055965745E+03    0.22841E-04   -0.34671E-04 33576   0.528E-02    0.169E-01
DAV:  12    -0.343056068331E+03   -0.10259E-03   -0.22912E-04 27976   0.421E-02    0.189E-01
DAV:  13    -0.343056061123E+03    0.72083E-05   -0.12659E-04 27008   0.350E-02    0.183E-01
DAV:  14    -0.343056034646E+03    0.26477E-04   -0.24380E-05 19984   0.203E-02    0.144E-01
DAV:  15    -0.343056040387E+03   -0.57408E-05   -0.32601E-05 18824   0.169E-02
  53 F= -.34305604E+03 E0= -.34302998E+03  d E =-.302659E-02  mag=    17.0696
       N       E                     dE             d eps       ncg     rms          rms(c)
DAV:   1    -0.343042897077E+03    0.13138E-01   -0.37579E+00 32192   0.642E+00    0.651E-01
DAV:   2    -0.343098111815E+03   -0.55215E-01   -0.17429E-01 34104   0.124E+00    0.573E+00
DAV:   3    -0.343039902191E+03    0.58210E-01   -0.42451E-02 36960   0.680E-01    0.244E+00
DAV:   4    -0.343050676229E+03   -0.10774E-01   -0.10577E-02 34112   0.200E-01    0.890E-01
DAV:   5    -0.343057641464E+03   -0.69652E-02   -0.73144E-03 34400   0.203E-01    0.929E-01
DAV:   6    -0.343058824522E+03   -0.11831E-02   -0.29656E-03 35880   0.176E-01    0.131E+00
DAV:   7    -0.343057164611E+03    0.16599E-02   -0.15821E-03 37664   0.133E-01    0.817E-01
DAV:   8    -0.343057455053E+03   -0.29044E-03   -0.97761E-04 38008   0.893E-02    0.305E-01
DAV:   9    -0.343058197193E+03   -0.74214E-03   -0.49196E-04 35840   0.658E-02    0.339E-01
DAV:  10    -0.343058603850E+03   -0.40666E-03   -0.74326E-04 38104   0.767E-02    0.827E-01
DAV:  11    -0.343058066808E+03    0.53704E-03   -0.58606E-04 33080   0.700E-02    0.946E-01
DAV:  12    -0.343057431561E+03    0.63525E-03   -0.21856E-04 36520   0.586E-02    0.674E-01
DAV:  13    -0.343057604772E+03   -0.17321E-03   -0.32407E-04 28296   0.520E-02    0.289E-01
DAV:  14    -0.343058110494E+03   -0.50572E-03   -0.21646E-04 31112   0.493E-02    0.161E-01
DAV:  15    -0.343058259265E+03   -0.14877E-03   -0.12236E-04 27560   0.362E-02    0.145E-01
DAV:  16    -0.343058270376E+03   -0.11111E-04   -0.53899E-05 20904   0.242E-02    0.258E-01
DAV:  17    -0.343058260799E+03    0.95769E-05   -0.41386E-05 22056   0.197E-02
  54 F= -.34305826E+03 E0= -.34303213E+03  d E =-.222041E-02  mag=    17.0653
       N       E                     dE             d eps       ncg     rms          rms(c)
DAV:   1    -0.343048276801E+03    0.99936E-02   -0.28536E+00 32104   0.550E+00    0.118E+00
DAV:   2    -0.343192208314E+03   -0.14393E+00   -0.14499E-01 39112   0.142E+00    0.120E+01
DAV:   3    -0.343001349165E+03    0.19086E+00   -0.60615E-02 36952   0.124E+00    0.168E+00
DAV:   4    -0.343063217370E+03   -0.61868E-01   -0.39216E-02 31880   0.478E-01    0.281E+00
DAV:   5    -0.343054058512E+03    0.91589E-02   -0.19441E-02 34376   0.280E-01    0.151E+00
DAV:   6    -0.343056532213E+03   -0.24737E-02   -0.11779E-02 38960   0.211E-01    0.137E+00
DAV:   7    -0.343059357487E+03   -0.28253E-02   -0.11598E-02 38952   0.234E-01    0.153E+00
DAV:   8    -0.343059274059E+03    0.83428E-04   -0.52368E-03 37304   0.202E-01    0.186E+00
DAV:   9    -0.343057649511E+03    0.16245E-02   -0.17918E-03 34200   0.121E-01    0.197E+00
DAV:  10    -0.343056305125E+03    0.13444E-02   -0.19822E-04 31192   0.483E-02    0.196E+00
DAV:  11    -0.343055629055E+03    0.67607E-03   -0.59452E-04 30656   0.616E-02    0.162E+00
DAV:  12    -0.343056214215E+03   -0.58516E-03   -0.85155E-04 36744   0.764E-02    0.110E+00
DAV:  13    -0.343058004202E+03   -0.17900E-02   -0.96739E-04 37456   0.954E-02    0.898E-01
DAV:  14    -0.343058510042E+03   -0.50584E-03   -0.83919E-04 38576   0.989E-02    0.715E-01
DAV:  15    -0.343059026560E+03   -0.51652E-03   -0.93999E-04 38720   0.920E-02    0.727E-01
DAV:  16    -0.343059014622E+03    0.11938E-04   -0.10467E-03 39400   0.108E-01    0.348E-01
DAV:  17    -0.343059451420E+03   -0.43680E-03   -0.67714E-04 37240   0.969E-02    0.526E-01
DAV:  18    -0.343059498454E+03   -0.47035E-04   -0.46074E-04 34760   0.681E-02    0.916E-01
DAV:  19    -0.343058976261E+03    0.52219E-03   -0.18380E-04 29120   0.451E-02    0.114E+00
DAV:  20    -0.343058428439E+03    0.54782E-03   -0.39794E-05 24424   0.235E-02    0.126E+00
DAV:  21    -0.343058053674E+03    0.37477E-03   -0.15213E-05 20832   0.146E-02    0.133E+00
DAV:  22    -0.343057523700E+03    0.52997E-03   -0.13186E-04 32128   0.420E-02    0.898E-01
DAV:  23    -0.343058153450E+03   -0.62975E-03   -0.27308E-04 37272   0.627E-02    0.135E-01
DAV:  24    -0.343059577247E+03   -0.14238E-02   -0.26726E-04 30056   0.577E-02    0.739E-01
DAV:  25    -0.343059275886E+03    0.30136E-03   -0.19734E-04 30328   0.529E-02    0.847E-01
DAV:  26    -0.343058695047E+03    0.58084E-03   -0.41548E-05 28104   0.278E-02    0.567E-01
DAV:  27    -0.343058908179E+03   -0.21313E-03   -0.49898E-05 30344   0.257E-02    0.152E-01
DAV:  28    -0.343059320935E+03   -0.41276E-03   -0.57378E-05 26968   0.269E-02    0.742E-02
DAV:  29    -0.343059393125E+03   -0.72190E-04   -0.23092E-05 22736   0.186E-02    0.506E-02
DAV:  30    -0.343059393077E+03    0.47643E-07   -0.56429E-06 18128   0.884E-03
  55 F= -.34305939E+03 E0= -.34303334E+03  d E =-.113228E-02  mag=    17.0830
       N       E                     dE             d eps       ncg     rms          rms(c)
DAV:   1    -0.343053336704E+03    0.60564E-02   -0.10276E+00 32336   0.340E+00    0.795E-01
DAV:   2    -0.343120078726E+03   -0.66742E-01   -0.70311E-02 38776   0.970E-01    0.596E+00
DAV:   3    -0.343041981947E+03    0.78097E-01   -0.24945E-02 38312   0.762E-01    0.279E+00
DAV:   4    -0.343048950747E+03   -0.69688E-02   -0.35793E-03 33928   0.161E-01    0.134E+00
DAV:   5    -0.343055550275E+03   -0.65995E-02   -0.32498E-03 34256   0.146E-01    0.616E-01
DAV:   6    -0.343058468347E+03   -0.29181E-02   -0.30570E-03 34088   0.139E-01    0.625E-01
DAV:   7    -0.343058517669E+03   -0.49321E-04   -0.22130E-03 37984   0.118E-01    0.458E-01
DAV:   8    -0.343058909504E+03   -0.39184E-03   -0.20866E-03 37696   0.973E-02    0.966E-01
DAV:   9    -0.343058478715E+03    0.43079E-03   -0.11183E-03 34392   0.843E-02    0.129E+00
DAV:  10    -0.343057489507E+03    0.98921E-03   -0.65409E-04 36528   0.807E-02    0.127E+00
DAV:  11    -0.343057026630E+03    0.46288E-03   -0.39697E-04 37408   0.615E-02    0.106E+00
DAV:  12    -0.343057211509E+03   -0.18488E-03   -0.17242E-04 30056   0.457E-02    0.818E-01
DAV:  13    -0.343057547869E+03   -0.33636E-03   -0.91744E-05 26984   0.355E-02    0.545E-01
DAV:  14    -0.343057980134E+03   -0.43227E-03   -0.94696E-05 26696   0.343E-02    0.361E-01
DAV:  15    -0.343058238639E+03   -0.25850E-03   -0.49139E-05 23632   0.251E-02    0.282E-01
DAV:  16    -0.343058349830E+03   -0.11119E-03   -0.43493E-05 20720   0.235E-02    0.274E-01
DAV:  17    -0.343058365255E+03   -0.15426E-04   -0.46784E-05 21528   0.219E-02    0.244E-01
DAV:  18    -0.343058403128E+03   -0.37873E-04   -0.13495E-04 21864   0.239E-02    0.250E-01
DAV:  19    -0.343058386588E+03    0.16540E-04   -0.10397E-04 20936   0.246E-02    0.198E-01
DAV:  20    -0.343058406247E+03   -0.19659E-04   -0.10260E-05 17408   0.111E-02    0.152E-01
DAV:  21    -0.343058428802E+03   -0.22555E-04   -0.34480E-06 17200   0.728E-03    0.163E-01
DAV:  22    -0.343058426101E+03    0.27007E-05   -0.81014E-07 15768   0.321E-03
  56 F= -.34305843E+03 E0= -.34303242E+03  d E =0.966976E-03  mag=    17.0770
       N       E                     dE             d eps       ncg     rms          rms(c)
DAV:   1    -0.343057848370E+03    0.58043E-03   -0.26804E-01 32400   0.193E+00    0.360E-01
DAV:   2    -0.343080138233E+03   -0.22290E-01   -0.20293E-02 38880   0.518E-01    0.549E+00
DAV:   3    -0.343039838603E+03    0.40300E-01   -0.94530E-03 34856   0.436E-01    0.231E+00
DAV:   4    -0.343051417211E+03   -0.11579E-01   -0.16141E-03 33560   0.110E-01    0.104E+00
DAV:   5    -0.343057442157E+03   -0.60249E-02   -0.25555E-03 34000   0.129E-01    0.395E-01
DAV:   6    -0.343059533203E+03   -0.20910E-02   -0.11243E-03 32960   0.102E-01    0.606E-01
DAV:   7    -0.343059461311E+03    0.71891E-04   -0.52767E-04 33824   0.753E-02    0.689E-01
DAV:   8    -0.343059115300E+03    0.34601E-03   -0.15666E-04 29968   0.409E-02    0.658E-01
DAV:   9    -0.343058961632E+03    0.15367E-03   -0.10939E-04 22888   0.278E-02    0.460E-01
DAV:  10    -0.343059127488E+03   -0.16586E-03   -0.11566E-04 22856   0.306E-02    0.223E-01
DAV:  11    -0.343059376570E+03   -0.24908E-03   -0.17402E-04 25784   0.306E-02    0.175E-01
DAV:  12    -0.343059429177E+03   -0.52607E-04   -0.24347E-04 23536   0.334E-02    0.142E-01
DAV:  13    -0.343059467805E+03   -0.38628E-04   -0.14357E-04 23448   0.376E-02    0.195E-01
DAV:  14    -0.343059451169E+03    0.16636E-04   -0.11522E-04 22520   0.342E-02    0.194E-01
DAV:  15    -0.343059428060E+03    0.23109E-04   -0.63954E-05 20744   0.262E-02    0.104E-01
DAV:  16    -0.343059453522E+03   -0.25462E-04   -0.24717E-05 18552   0.188E-02    0.111E-01
DAV:  17    -0.343059481088E+03   -0.27566E-04   -0.24799E-05 19800   0.165E-02    0.231E-01
DAV:  18    -0.343059458165E+03    0.22923E-04   -0.19720E-05 19056   0.157E-02    0.325E-01
DAV:  19    -0.343059393239E+03    0.64926E-04   -0.12777E-05 17560   0.137E-02    0.353E-01
DAV:  20    -0.343059310494E+03    0.82745E-04   -0.12917E-05 20240   0.152E-02    0.182E-01
DAV:  21    -0.343059398438E+03   -0.87945E-04   -0.11899E-05 19904   0.117E-02    0.285E-02
DAV:  22    -0.343059462021E+03   -0.63583E-04   -0.13338E-05 20400   0.129E-02    0.844E-02
DAV:  23    -0.343059464341E+03   -0.23198E-05   -0.52628E-06 17352   0.880E-03
  57 F= -.34305946E+03 E0= -.34303342E+03  d E =-.103824E-02  mag=    17.0740
       N       E                     dE             d eps       ncg     rms          rms(c)
DAV:   1    -0.343058465209E+03    0.99681E-03   -0.42730E-01 32256   0.211E+00    0.178E-01
DAV:   2    -0.343062868773E+03   -0.44036E-02   -0.17211E-02 31288   0.373E-01    0.231E+00
DAV:   3    -0.343056211105E+03    0.66577E-02   -0.17127E-03 34376   0.188E-01    0.784E-01
DAV:   4    -0.343059110470E+03   -0.28994E-02   -0.85711E-04 34720   0.794E-02    0.339E-01
DAV:   5    -0.343060171686E+03   -0.10612E-02   -0.11795E-03 33736   0.846E-02    0.454E-01
DAV:   6    -0.343060225159E+03   -0.53473E-04   -0.81413E-04 32384   0.634E-02    0.579E-01
DAV:   7    -0.343059924382E+03    0.30078E-03   -0.33254E-04 33864   0.448E-02    0.465E-01
DAV:   8    -0.343059906644E+03    0.17738E-04   -0.67491E-05 20440   0.250E-02    0.345E-01
DAV:   9    -0.343059982025E+03   -0.75381E-04   -0.75475E-05 21392   0.247E-02    0.126E-01
DAV:  10    -0.343060154064E+03   -0.17204E-03   -0.69283E-05 24424   0.283E-02    0.169E-01
DAV:  11    -0.343060181801E+03   -0.27737E-04   -0.61948E-05 23952   0.255E-02    0.235E-01
DAV:  12    -0.343060116979E+03    0.64822E-04   -0.33409E-05 19352   0.209E-02    0.140E-01
DAV:  13    -0.343060137762E+03   -0.20783E-04   -0.23602E-05 17856   0.167E-02    0.605E-02
DAV:  14    -0.343060168449E+03   -0.30687E-04   -0.20805E-05 18080   0.162E-02    0.935E-02
DAV:  15    -0.343060168955E+03   -0.50624E-06   -0.17779E-05 18088   0.157E-02
  58 F= -.34306017E+03 E0= -.34303412E+03  d E =-.704614E-03  mag=    17.0743
