       N       E                     dE             d eps       ncg     rms          rms(c)
DAV:   1     0.670246647969E+04    0.67025E+04   -0.27344E+05 36296   0.155E+03
DAV:   2     0.432570965616E+03   -0.62699E+04   -0.60138E+04 36544   0.479E+02
DAV:   3    -0.361818036018E+03   -0.79439E+03   -0.77522E+03 39432   0.179E+02
DAV:   4    -0.407794705873E+03   -0.45977E+02   -0.44483E+02 52896   0.434E+01
DAV:   5    -0.411333004902E+03   -0.35383E+01   -0.34835E+01 64504   0.868E+00    0.648E+01
DAV:   6    -0.346281947361E+03    0.65051E+02   -0.33157E+02 48696   0.406E+01    0.385E+01
DAV:   7    -0.366755777521E+03   -0.20474E+02   -0.52468E+01 48760   0.190E+01    0.230E+01
DAV:   8    -0.370609654005E+03   -0.38539E+01   -0.55894E+00 49968   0.617E+00    0.148E+01
DAV:   9    -0.375494700402E+03   -0.48850E+01   -0.33936E+00 41816   0.417E+00    0.610E+00
DAV:  10    -0.377727356542E+03   -0.22327E+01   -0.12269E+00 47808   0.220E+00    0.352E+00
DAV:  11    -0.379492388202E+03   -0.17650E+01   -0.71294E-01 44096   0.144E+00    0.278E+00
DAV:  12    -0.382264991691E+03   -0.27726E+01   -0.21505E+00 40304   0.196E+00    0.171E+00
DAV:  13    -0.383570377228E+03   -0.13054E+01   -0.14101E+00 42008   0.161E+00    0.817E-01
DAV:  14    -0.383753716212E+03   -0.18334E+00   -0.23986E-01 41968   0.835E-01    0.419E-01
DAV:  15    -0.383757444470E+03   -0.37283E-02   -0.23697E-02 46664   0.327E-01    0.228E-01
DAV:  16    -0.383756678443E+03    0.76603E-03   -0.82932E-03 41440   0.238E-01    0.135E-01
DAV:  17    -0.383756342468E+03    0.33597E-03   -0.23056E-03 40104   0.126E-01    0.893E-02
DAV:  18    -0.383756033194E+03    0.30927E-03   -0.76879E-04 41392   0.659E-02    0.426E-02
DAV:  19    -0.383755999250E+03    0.33943E-04   -0.44520E-04 40312   0.474E-02    0.296E-02
DAV:  20    -0.383755981268E+03    0.17982E-04   -0.79277E-05 39032   0.286E-02    0.141E-02
DAV:  21    -0.383755979160E+03    0.21080E-05   -0.55058E-05 35232   0.171E-02
   1 F= -.38375598E+03 E0= -.38375598E+03  d E =-.383756E+03  mag=    35.9997
       N       E                     dE             d eps       ncg     rms          rms(c)
DAV:   1    -0.383871781693E+03   -0.11580E+00   -0.69510E-02 37984   0.295E-01    0.676E-02
DAV:   2    -0.383871934492E+03   -0.15280E-03   -0.26270E-03 41728   0.632E-02    0.468E-02
DAV:   3    -0.383871925581E+03    0.89108E-05   -0.15608E-04 41312   0.188E-02    0.282E-02
DAV:   4    -0.383871916798E+03    0.87834E-05   -0.31662E-05 33424   0.155E-02
   2 F= -.38387192E+03 E0= -.38387192E+03  d E =-.115938E+00  mag=    35.9999
       N       E                     dE             d eps       ncg     rms          rms(c)
DAV:   1    -0.386193461013E+03   -0.23215E+01   -0.58664E+01 37024   0.859E+00    0.183E+00
DAV:   2    -0.386360946733E+03   -0.16749E+00   -0.23098E+00 43264   0.190E+00    0.126E+00
DAV:   3    -0.386355605835E+03    0.53409E-02   -0.12654E-01 60376   0.540E-01    0.754E-01
DAV:   4    -0.386348234301E+03    0.73715E-02   -0.17032E-02 52416   0.412E-01    0.250E-01
DAV:   5    -0.386348684852E+03   -0.45055E-03   -0.82561E-03 47400   0.209E-01    0.105E-01
DAV:   6    -0.386348638124E+03    0.46728E-04   -0.11308E-03 49552   0.927E-02    0.637E-02
DAV:   7    -0.386348571903E+03    0.66220E-04   -0.16275E-04 48336   0.464E-02    0.376E-02
DAV:   8    -0.386348530704E+03    0.41199E-04   -0.60859E-05 41112   0.515E-02    0.125E-02
DAV:   9    -0.386348526374E+03    0.43306E-05   -0.73666E-05 43576   0.315E-02
   3 F= -.38634853E+03 E0= -.38634853E+03  d E =-.247661E+01  mag=    36.0000
       N       E                     dE             d eps       ncg     rms          rms(c)
DAV:   1    -0.387772583247E+03   -0.14241E+01   -0.16372E+02 37312   0.192E+01    0.255E+00
DAV:   2    -0.388439685729E+03   -0.66710E+00   -0.73726E+00 42792   0.380E+00    0.201E+00
DAV:   3    -0.388431836122E+03    0.78496E-02   -0.25890E-01 57672   0.777E-01    0.140E+00
DAV:   4    -0.388407390206E+03    0.24446E-01   -0.86365E-02 48896   0.735E-01    0.569E-01
DAV:   5    -0.388409065510E+03   -0.16753E-02   -0.26589E-02 47488   0.348E-01    0.343E-01
DAV:   6    -0.388407741090E+03    0.13244E-02   -0.12141E-02 46960   0.241E-01    0.109E-01
DAV:   7    -0.388407753344E+03   -0.12253E-04   -0.10489E-03 46320   0.736E-02    0.541E-02
DAV:   8    -0.388407712207E+03    0.41137E-04   -0.23786E-04 50816   0.475E-02    0.339E-02
DAV:   9    -0.388407687218E+03    0.24989E-04   -0.54288E-05 40888   0.452E-02    0.176E-02
DAV:  10    -0.388407678079E+03    0.91398E-05   -0.60728E-05 43560   0.323E-02
   4 F= -.38840768E+03 E0= -.38840768E+03  d E =-.205915E+01  mag=    36.0000
       N       E                     dE             d eps       ncg     rms          rms(c)
DAV:   1    -0.388610555926E+03   -0.20287E+00   -0.21026E+02 37872   0.265E+01    0.315E+00
DAV:   2    -0.389569421974E+03   -0.95887E+00   -0.10061E+01 37688   0.488E+00    0.223E+00
DAV:   3    -0.389569728192E+03   -0.30622E-03   -0.26526E-01 58984   0.903E-01    0.147E+00
DAV:   4    -0.389550154244E+03    0.19574E-01   -0.84675E-02 49400   0.591E-01    0.722E-01
DAV:   5    -0.389552332874E+03   -0.21786E-02   -0.19141E-02 48584   0.301E-01    0.358E-01
DAV:   6    -0.389551204787E+03    0.11281E-02   -0.10933E-02 46960   0.240E-01    0.136E-01
DAV:   7    -0.389551368587E+03   -0.16380E-03   -0.14339E-03 43704   0.773E-02    0.568E-02
DAV:   8    -0.389551350671E+03    0.17916E-04   -0.20288E-04 47480   0.372E-02    0.342E-02
DAV:   9    -0.389551352540E+03   -0.18692E-05   -0.63236E-05 40280   0.251E-02
   5 F= -.38955135E+03 E0= -.38955135E+03  d E =-.114367E+01  mag=    36.0000
       N       E                     dE             d eps       ncg     rms          rms(c)
DAV:   1    -0.388662177894E+03    0.88917E+00   -0.23095E+02 38480   0.348E+01    0.458E+00
DAV:   2    -0.390089957248E+03   -0.14278E+01   -0.14452E+01 36040   0.632E+00    0.252E+00
DAV:   3    -0.390137746465E+03   -0.47789E-01   -0.36083E-01 56936   0.118E+00    0.141E+00
DAV:   4    -0.390129821752E+03    0.79247E-02   -0.76463E-02 48008   0.547E-01    0.792E-01
DAV:   5    -0.390133719620E+03   -0.38979E-02   -0.12531E-02 45688   0.265E-01    0.297E-01
DAV:   6    -0.390133818622E+03   -0.99002E-04   -0.64867E-03 47856   0.192E-01    0.133E-01
DAV:   7    -0.390133984059E+03   -0.16544E-03   -0.94683E-04 43136   0.613E-02    0.556E-02
DAV:   8    -0.390133976976E+03    0.70828E-05   -0.13761E-04 50472   0.278E-02    0.337E-02
DAV:   9    -0.390133981877E+03   -0.49005E-05   -0.51537E-05 34720   0.163E-02
   6 F= -.39013398E+03 E0= -.39013398E+03  d E =-.582629E+00  mag=    36.0000
       N       E                     dE             d eps       ncg     rms          rms(c)
DAV:   1    -0.389288317633E+03    0.84566E+00   -0.17860E+02 37848   0.337E+01    0.416E+00
DAV:   2    -0.390364166380E+03   -0.10758E+01   -0.10821E+01 35856   0.610E+00    0.222E+00
DAV:   3    -0.390418472281E+03   -0.54306E-01   -0.26058E-01 56376   0.105E+00    0.127E+00
DAV:   4    -0.390415716255E+03    0.27560E-02   -0.40742E-02 49176   0.424E-01    0.758E-01
DAV:   5    -0.390419003775E+03   -0.32875E-02   -0.82219E-03 44448   0.251E-01    0.225E-01
DAV:   6    -0.390419376100E+03   -0.37233E-03   -0.35519E-03 47760   0.144E-01    0.105E-01
DAV:   7    -0.390419458198E+03   -0.82098E-04   -0.61068E-04 45328   0.515E-02    0.504E-02
DAV:   8    -0.390419450472E+03    0.77256E-05   -0.72450E-05 45720   0.229E-02
   7 F= -.39041945E+03 E0= -.39041945E+03  d E =-.285469E+00  mag=    36.0000
       N       E                     dE             d eps       ncg     rms          rms(c)
DAV:   1    -0.389317845842E+03    0.11016E+01   -0.27500E+02 37472   0.421E+01    0.417E+00
DAV:   2    -0.390605660391E+03   -0.12878E+01   -0.13155E+01 36088   0.761E+00    0.234E+00
DAV:   3    -0.390647922201E+03   -0.42262E-01   -0.31650E-01 57920   0.127E+00    0.149E+00
DAV:   4    -0.390639976268E+03    0.79459E-02   -0.51762E-02 49192   0.504E-01    0.908E-01
DAV:   5    -0.390641719081E+03   -0.17428E-02   -0.13896E-02 44056   0.367E-01    0.256E-01
DAV:   6    -0.390642010490E+03   -0.29141E-03   -0.58971E-03 47200   0.199E-01    0.142E-01
DAV:   7    -0.390642104429E+03   -0.93939E-04   -0.14594E-03 46904   0.820E-02    0.685E-02
DAV:   8    -0.390642089426E+03    0.15003E-04   -0.14987E-04 51952   0.325E-02    0.462E-02
DAV:   9    -0.390642083533E+03    0.58931E-05   -0.62534E-05 38136   0.273E-02
   8 F= -.39064208E+03 E0= -.39064208E+03  d E =-.222633E+00  mag=    36.0000
       N       E                     dE             d eps       ncg     rms          rms(c)
DAV:   1    -0.387846535794E+03    0.27956E+01   -0.48028E+02 38000   0.573E+01    0.617E+00
DAV:   2    -0.390599516556E+03   -0.27530E+01   -0.28314E+01 37584   0.106E+01    0.356E+00
DAV:   3    -0.390651914611E+03   -0.52398E-01   -0.58722E-01 49568   0.194E+00    0.228E+00
DAV:   4    -0.390628367742E+03    0.23547E-01   -0.17430E-01 49376   0.923E-01    0.139E+00
DAV:   5    -0.390624022428E+03    0.43453E-02   -0.38295E-02 46808   0.728E-01    0.445E-01
DAV:   6    -0.390624421293E+03   -0.39886E-03   -0.17725E-02 47288   0.427E-01    0.221E-01
DAV:   7    -0.390624644263E+03   -0.22297E-03   -0.55152E-03 45296   0.183E-01    0.116E-01
DAV:   8    -0.390624556246E+03    0.88016E-04   -0.89000E-04 58176   0.623E-02    0.888E-02
DAV:   9    -0.390624427395E+03    0.12885E-03   -0.21330E-04 45000   0.683E-02    0.401E-02
DAV:  10    -0.390624365458E+03    0.61937E-04   -0.94708E-05 45736   0.740E-02    0.230E-02
DAV:  11    -0.390624367057E+03   -0.15995E-05   -0.18518E-04 43648   0.402E-02    0.164E-02
DAV:  12    -0.390624366812E+03    0.24567E-06   -0.27626E-05 34176   0.163E-02
   9 F= -.39062437E+03 E0= -.39062437E+03  d E =0.177167E-01  mag=    36.0000
       N       E                     dE             d eps       ncg     rms          rms(c)
DAV:   1    -0.389800246626E+03    0.82412E+00   -0.18132E+02 38000   0.307E+01    0.354E+00
DAV:   2    -0.390760047304E+03   -0.95980E+00   -0.10577E+01 36968   0.637E+00    0.207E+00
DAV:   3    -0.390775856701E+03   -0.15809E-01   -0.38577E-01 59488   0.136E+00    0.126E+00
DAV:   4    -0.390758159547E+03    0.17697E-01   -0.79920E-02 51040   0.881E-01    0.662E-01
DAV:   5    -0.390756422231E+03    0.17373E-02   -0.16948E-02 47376   0.566E-01    0.302E-01
DAV:   6    -0.390755563805E+03    0.85843E-03   -0.13630E-02 48520   0.344E-01    0.148E-01
DAV:   7    -0.390755336416E+03    0.22739E-03   -0.21998E-03 44616   0.129E-01    0.781E-02
DAV:   8    -0.390755133151E+03    0.20327E-03   -0.53591E-04 57952   0.983E-02    0.583E-02
DAV:   9    -0.390755040476E+03    0.92675E-04   -0.27224E-04 45328   0.868E-02    0.327E-02
DAV:  10    -0.390754983608E+03    0.56868E-04   -0.12046E-04 47448   0.803E-02    0.162E-02
DAV:  11    -0.390755000639E+03   -0.17031E-04   -0.23836E-04 39648   0.355E-02    0.188E-02
DAV:  12    -0.390754997573E+03    0.30660E-05   -0.13166E-05 31128   0.109E-02
  10 F= -.39075500E+03 E0= -.39075500E+03  d E =-.130631E+00  mag=    36.0000
       N       E                     dE             d eps       ncg     rms          rms(c)
DAV:   1    -0.390782770845E+03   -0.27770E-01   -0.91369E+00 36880   0.784E+00    0.103E+00
DAV:   2    -0.390831251955E+03   -0.48481E-01   -0.54972E-01 36896   0.148E+00    0.561E-01
DAV:   3    -0.390834021036E+03   -0.27691E-02   -0.18488E-02 54616   0.316E-01    0.327E-01
DAV:   4    -0.390833333730E+03    0.68731E-03   -0.23977E-03 49192   0.176E-01    0.173E-01
DAV:   5    -0.390833308313E+03    0.25417E-04   -0.83170E-04 47912   0.145E-01    0.493E-02
DAV:   6    -0.390833334401E+03   -0.26088E-04   -0.75486E-04 44848   0.697E-02    0.378E-02
DAV:   7    -0.390833317170E+03    0.17231E-04   -0.93024E-05 43616   0.217E-02    0.213E-02
DAV:   8    -0.390833299472E+03    0.17698E-04   -0.89630E-06 29264   0.275E-02    0.129E-02
DAV:   9    -0.390833287368E+03    0.12104E-04   -0.20314E-05 34640   0.359E-02    0.610E-03
DAV:  10    -0.390833288745E+03   -0.13764E-05   -0.35682E-05 38832   0.157E-02
  11 F= -.39083329E+03 E0= -.39083329E+03  d E =-.782912E-01  mag=    36.0000
       N       E                     dE             d eps       ncg     rms          rms(c)
DAV:   1    -0.390771814428E+03    0.61473E-01   -0.17207E+01 37096   0.108E+01    0.131E+00
DAV:   2    -0.390861328013E+03   -0.89514E-01   -0.96960E-01 36376   0.200E+00    0.686E-01
DAV:   3    -0.390865892364E+03   -0.45644E-02   -0.27995E-02 54856   0.390E-01    0.398E-01
DAV:   4    -0.390864910754E+03    0.98161E-03   -0.32908E-03 50248   0.198E-01    0.210E-01
DAV:   5    -0.390864941215E+03   -0.30461E-04   -0.12715E-03 47560   0.173E-01    0.599E-02
DAV:   6    -0.390864999406E+03   -0.58191E-04   -0.10678E-03 45008   0.808E-02    0.463E-02
DAV:   7    -0.390864980644E+03    0.18762E-04   -0.12423E-04 46000   0.236E-02    0.282E-02
DAV:   8    -0.390864959317E+03    0.21327E-04   -0.12739E-05 29544   0.296E-02    0.157E-02
DAV:   9    -0.390864945324E+03    0.13993E-04   -0.25165E-05 36288   0.368E-02    0.753E-03
DAV:  10    -0.390864946429E+03   -0.11052E-05   -0.37245E-05 39784   0.168E-02
  12 F= -.39086495E+03 E0= -.39086495E+03  d E =-.316577E-01  mag=    36.0000
       N       E                     dE             d eps       ncg     rms          rms(c)
DAV:   1    -0.390777567591E+03    0.87378E-01   -0.25626E+01 37248   0.130E+01    0.118E+00
DAV:   2    -0.390877393469E+03   -0.99826E-01   -0.10287E+00 36120   0.226E+00    0.589E-01
DAV:   3    -0.390881315968E+03   -0.39225E-02   -0.22664E-02 53296   0.362E-01    0.348E-01
DAV:   4    -0.390880690391E+03    0.62558E-03   -0.25297E-03 50080   0.132E-01    0.203E-01
DAV:   5    -0.390880786767E+03   -0.96377E-04   -0.10404E-03 45256   0.117E-01    0.518E-02
DAV:   6    -0.390880842518E+03   -0.55751E-04   -0.55808E-04 45400   0.526E-02    0.369E-02
DAV:   7    -0.390880837435E+03    0.50836E-05   -0.62226E-05 43120   0.181E-02
  13 F= -.39088084E+03 E0= -.39088084E+03  d E =-.158910E-01  mag=    36.0000
       N       E                     dE             d eps       ncg     rms          rms(c)
DAV:   1    -0.384029239468E+03    0.68516E+01   -0.63132E+02 38240   0.664E+01    0.799E+00
DAV:   2    -0.389577626669E+03   -0.55484E+01   -0.59648E+01 36216   0.140E+01    0.487E+00
DAV:   3    -0.389719644074E+03   -0.14202E+00   -0.16958E+00 54448   0.258E+00    0.289E+00
DAV:   4    -0.389677066501E+03    0.42578E-01   -0.19306E-01 48832   0.116E+00    0.164E+00
DAV:   5    -0.389676970686E+03    0.95814E-04   -0.62513E-02 47928   0.911E-01    0.502E-01
DAV:   6    -0.389678391034E+03   -0.14203E-02   -0.31177E-02 48336   0.446E-01    0.307E-01
DAV:   7    -0.389678468326E+03   -0.77292E-04   -0.49435E-03 53456   0.158E-01    0.181E-01
DAV:   8    -0.389678399169E+03    0.69157E-04   -0.73823E-04 51640   0.791E-02    0.122E-01
DAV:   9    -0.389678385652E+03    0.13517E-04   -0.26987E-04 44040   0.720E-02    0.537E-02
DAV:  10    -0.389678398712E+03   -0.13060E-04   -0.16796E-04 47056   0.472E-02    0.303E-02
DAV:  11    -0.389678407870E+03   -0.91582E-05   -0.94509E-05 42288   0.223E-02
  14 F= -.38967841E+03 E0= -.38967733E+03  d E =0.120243E+01  mag=    35.9700
       N       E                     dE             d eps       ncg     rms          rms(c)
DAV:   1    -0.386262660498E+03    0.34157E+01   -0.47630E+02 38104   0.463E+01    0.751E+00
DAV:   2    -0.390900161827E+03   -0.46375E+01   -0.49895E+01 36552   0.115E+01    0.429E+00
DAV:   3    -0.390984575048E+03   -0.84413E-01   -0.14975E+00 60256   0.227E+00    0.240E+00
DAV:   4    -0.390942444289E+03    0.42131E-01   -0.31650E-01 48856   0.141E+00    0.129E+00
DAV:   5    -0.390945340178E+03   -0.28959E-02   -0.48954E-02 50048   0.765E-01    0.581E-01
DAV:   6    -0.390942978706E+03    0.23615E-02   -0.35528E-02 48112   0.570E-01    0.244E-01
DAV:   7    -0.390943082419E+03   -0.10371E-03   -0.61096E-03 44088   0.220E-01    0.142E-01
DAV:   8    -0.390942706471E+03    0.37595E-03   -0.16666E-03 54712   0.136E-01    0.837E-02
DAV:   9    -0.390942550059E+03    0.15641E-03   -0.48972E-04 47216   0.119E-01    0.437E-02
DAV:  10    -0.390942453875E+03    0.96184E-04   -0.22852E-04 51072   0.110E-01    0.213E-02
DAV:  11    -0.390942475513E+03   -0.21638E-04   -0.40792E-04 40920   0.513E-02    0.253E-02
DAV:  12    -0.390942470822E+03    0.46909E-05   -0.34601E-05 38680   0.160E-02
  15 F= -.39094247E+03 E0= -.39094247E+03  d E =-.126406E+01  mag=    35.9990
       N       E                     dE             d eps       ncg     rms          rms(c)
DAV:   1    -0.390946789969E+03   -0.43145E-02   -0.16158E+00 38280   0.344E+00    0.343E-01
DAV:   2    -0.390954357259E+03   -0.75673E-02   -0.77642E-02 37768   0.601E-01    0.203E-01
DAV:   3    -0.390954852679E+03   -0.49542E-03   -0.17786E-03 55296   0.101E-01    0.128E-01
DAV:   4    -0.390954795138E+03    0.57542E-04   -0.16948E-04 50008   0.352E-02    0.808E-02
DAV:   5    -0.390954799689E+03   -0.45518E-05   -0.12367E-04 43680   0.430E-02    0.181E-02
DAV:   6    -0.390954804791E+03   -0.51018E-05   -0.75214E-05 41568   0.194E-02
  16 F= -.39095480E+03 E0= -.39095480E+03  d E =-.123340E-01  mag=    35.9997
       N       E                     dE             d eps       ncg     rms          rms(c)
DAV:   1    -0.390931698620E+03    0.23101E-01   -0.16223E+01 37088   0.943E+00    0.815E-01
DAV:   2    -0.390984540437E+03   -0.52842E-01   -0.56243E-01 37640   0.162E+00    0.477E-01
DAV:   3    -0.390985324366E+03   -0.78393E-03   -0.12315E-02 56264   0.249E-01    0.322E-01
DAV:   4    -0.390984458468E+03    0.86590E-03   -0.20711E-03 49280   0.119E-01    0.181E-01
DAV:   5    -0.390984411494E+03    0.46973E-04   -0.89119E-04 48136   0.907E-02    0.434E-02
DAV:   6    -0.390984435131E+03   -0.23637E-04   -0.36863E-04 44688   0.394E-02    0.286E-02
DAV:   7    -0.390984431997E+03    0.31337E-05   -0.58354E-05 42976   0.149E-02
  17 F= -.39098443E+03 E0= -.39098443E+03  d E =-.296272E-01  mag=    35.9999
       N       E                     dE             d eps       ncg     rms          rms(c)
DAV:   1    -0.390966318695E+03    0.18116E-01   -0.91369E+00 37240   0.726E+00    0.631E-01
DAV:   2    -0.390996542364E+03   -0.30224E-01   -0.32093E-01 36944   0.125E+00    0.328E-01
DAV:   3    -0.390996975413E+03   -0.43305E-03   -0.67123E-03 56144   0.187E-01    0.211E-01
DAV:   4    -0.390996559683E+03    0.41573E-03   -0.10249E-03 49768   0.840E-02    0.116E-01
DAV:   5    -0.390996541674E+03    0.18009E-04   -0.43025E-04 47504   0.590E-02    0.304E-02
DAV:   6    -0.390996552490E+03   -0.10817E-04   -0.14552E-04 42624   0.240E-02    0.186E-02
DAV:   7    -0.390996551354E+03    0.11361E-05   -0.22800E-05 33016   0.103E-02
  18 F= -.39099655E+03 E0= -.39099655E+03  d E =-.121194E-01  mag=    36.0000
       N       E                     dE             d eps       ncg     rms          rms(c)
DAV:   1    -0.390561186687E+03    0.43537E+00   -0.10658E+02 37656   0.273E+01    0.258E+00
DAV:   2    -0.391003628700E+03   -0.44244E+00   -0.46410E+00 35872   0.484E+00    0.128E+00
DAV:   3    -0.391014936034E+03   -0.11307E-01   -0.89048E-02 54056   0.750E-01    0.768E-01
DAV:   4    -0.391011446101E+03    0.34899E-02   -0.14597E-02 49424   0.318E-01    0.416E-01
DAV:   5    -0.391011715391E+03   -0.26929E-03   -0.44273E-03 50048   0.194E-01    0.126E-01
DAV:   6    -0.391011792534E+03   -0.77143E-04   -0.13390E-03 47360   0.844E-02    0.654E-02
DAV:   7    -0.391011798071E+03   -0.55368E-05   -0.24128E-04 48808   0.333E-02    0.323E-02
DAV:   8    -0.391011792304E+03    0.57668E-05   -0.38026E-05 37952   0.209E-02
  19 F= -.39101179E+03 E0= -.39101179E+03  d E =-.152409E-01  mag=    36.0000
       N       E                     dE             d eps       ncg     rms          rms(c)
DAV:   1    -0.385390114842E+03    0.56217E+01   -0.66412E+02 37728   0.618E+01    0.743E+00
DAV:   2    -0.390524131832E+03   -0.51340E+01   -0.53945E+01 36352   0.134E+01    0.447E+00
DAV:   3    -0.390531813563E+03   -0.76817E-02   -0.13641E+00 53232   0.268E+00    0.276E+00
DAV:   4    -0.390466963712E+03    0.64850E-01   -0.52412E-01 49000   0.181E+00    0.147E+00
DAV:   5    -0.390467164511E+03   -0.20080E-03   -0.80899E-02 50728   0.932E-01    0.839E-01
DAV:   6    -0.390459226036E+03    0.79385E-02   -0.47206E-02 50256   0.723E-01    0.358E-01
DAV:   7    -0.390459721386E+03   -0.49535E-03   -0.16839E-02 45544   0.332E-01    0.154E-01
DAV:   8    -0.390459421813E+03    0.29957E-03   -0.26636E-03 54280   0.141E-01    0.106E-01
DAV:   9    -0.390459273396E+03    0.14842E-03   -0.71957E-04 46176   0.910E-02    0.584E-02
DAV:  10    -0.390459136390E+03    0.13701E-03   -0.16283E-04 51312   0.102E-01    0.271E-02
DAV:  11    -0.390459130304E+03    0.60859E-05   -0.30005E-04 44008   0.589E-02    0.250E-02
DAV:  12    -0.390459131295E+03   -0.99083E-06   -0.10590E-04 43720   0.305E-02    0.165E-02
DAV:  13    -0.390459129280E+03    0.20147E-05   -0.20284E-05 33584   0.120E-02
  20 F= -.39045913E+03 E0= -.39045913E+03  d E =0.552663E+00  mag=    36.0000
       N       E                     dE             d eps       ncg     rms          rms(c)
DAV:   1    -0.389702049804E+03    0.75708E+00   -0.11496E+02 37976   0.344E+01    0.473E+00
DAV:   2    -0.390824917411E+03   -0.11229E+01   -0.11397E+01 36048   0.704E+00    0.278E+00
DAV:   3    -0.390900611946E+03   -0.75695E-01   -0.27651E-01 49384   0.135E+00    0.159E+00
DAV:   4    -0.390895405350E+03    0.52066E-02   -0.37651E-02 52264   0.680E-01    0.947E-01
DAV:   5    -0.390894495865E+03    0.90948E-03   -0.12827E-02 46328   0.762E-01    0.233E-01
DAV:   6    -0.390895176027E+03   -0.68016E-03   -0.15591E-02 45568   0.334E-01    0.174E-01
DAV:   7    -0.390894957104E+03    0.21892E-03   -0.24732E-03 47056   0.109E-01    0.104E-01
DAV:   8    -0.390894701261E+03    0.25584E-03   -0.35772E-04 46624   0.902E-02    0.723E-02
DAV:   9    -0.390894504536E+03    0.19672E-03   -0.27332E-04 53872   0.121E-01    0.374E-02
DAV:  10    -0.390894444509E+03    0.60027E-04   -0.25849E-04 47016   0.102E-01    0.268E-02
DAV:  11    -0.390894479984E+03   -0.35475E-04   -0.46956E-04 42968   0.496E-02    0.291E-02
DAV:  12    -0.390894475337E+03    0.46469E-05   -0.47917E-05 40016   0.171E-02
  21 F= -.39089448E+03 E0= -.39089448E+03  d E =-.435346E+00  mag=    36.0000
       N       E                     dE             d eps       ncg     rms          rms(c)
DAV:   1    -0.390875863753E+03    0.18616E-01   -0.19610E+01 37160   0.119E+01    0.136E+00
DAV:   2    -0.390971313686E+03   -0.95450E-01   -0.10667E+00 36832   0.219E+00    0.723E-01
DAV:   3    -0.390974422518E+03   -0.31088E-02   -0.26846E-02 54008   0.416E-01    0.446E-01
DAV:   4    -0.390973037991E+03    0.13845E-02   -0.56626E-03 50816   0.248E-01    0.219E-01
DAV:   5    -0.390972947520E+03    0.90470E-04   -0.14463E-03 49160   0.184E-01    0.776E-02
DAV:   6    -0.390972957820E+03   -0.10300E-04   -0.12539E-03 45592   0.921E-02    0.501E-02
DAV:   7    -0.390972929940E+03    0.27880E-04   -0.22072E-04 43976   0.373E-02    0.239E-02
DAV:   8    -0.390972909866E+03    0.20074E-04   -0.28008E-05 37368   0.324E-02    0.185E-02
DAV:   9    -0.390972896116E+03    0.13750E-04   -0.21885E-05 32216   0.356E-02    0.920E-03
DAV:  10    -0.390972891932E+03    0.41836E-05   -0.28020E-05 35744   0.293E-02
  22 F= -.39097289E+03 E0= -.39097289E+03  d E =-.784166E-01  mag=    36.0000
       N       E                     dE             d eps       ncg     rms          rms(c)
DAV:   1    -0.390978315371E+03   -0.54193E-02   -0.72853E+00 37136   0.696E+00    0.743E-01
DAV:   2    -0.391011513429E+03   -0.33198E-01   -0.34345E-01 37408   0.121E+00    0.393E-01
DAV:   3    -0.391013243476E+03   -0.17300E-02   -0.72809E-03 52736   0.199E-01    0.230E-01
DAV:   4    -0.391012992818E+03    0.25066E-03   -0.10210E-03 49816   0.808E-02    0.130E-01
DAV:   5    -0.391013034522E+03   -0.41704E-04   -0.38602E-04 44856   0.662E-02    0.343E-02
DAV:   6    -0.391013051517E+03   -0.16996E-04   -0.18381E-04 44368   0.300E-02    0.185E-02
DAV:   7    -0.391013049840E+03    0.16772E-05   -0.16498E-05 29440   0.105E-02
  23 F= -.39101305E+03 E0= -.39101305E+03  d E =-.401579E-01  mag=    36.0000
       N       E                     dE             d eps       ncg     rms          rms(c)
DAV:   1    -0.390794501264E+03    0.21855E+00   -0.70454E+01 36976   0.196E+01    0.188E+00
DAV:   2    -0.391060814884E+03   -0.26631E+00   -0.28083E+00 37624   0.333E+00    0.103E+00
DAV:   3    -0.391064941505E+03   -0.41266E-02   -0.61203E-02 55640   0.555E-01    0.662E-01
DAV:   4    -0.391061551576E+03    0.33899E-02   -0.16386E-02 48960   0.297E-01    0.358E-01
DAV:   5    -0.391061430671E+03    0.12091E-03   -0.31628E-03 47272   0.169E-01    0.118E-01
DAV:   6    -0.391061458974E+03   -0.28303E-04   -0.15595E-03 48072   0.906E-02    0.585E-02
DAV:   7    -0.391061475399E+03   -0.16425E-04   -0.19756E-04 48672   0.291E-02    0.294E-02
DAV:   8    -0.391061470276E+03    0.51224E-05   -0.28102E-05 38248   0.167E-02
  24 F= -.39106147E+03 E0= -.39106147E+03  d E =-.484204E-01  mag=    36.0000
       N       E                     dE             d eps       ncg     rms          rms(c)
DAV:   1    -0.391056678323E+03    0.47971E-02   -0.17742E+00 37704   0.376E+00    0.388E-01
DAV:   2    -0.391065652332E+03   -0.89740E-02   -0.92447E-02 36608   0.672E-01    0.205E-01
DAV:   3    -0.391066123109E+03   -0.47078E-03   -0.21202E-03 56360   0.108E-01    0.124E-01
DAV:   4    -0.391066074456E+03    0.48653E-04   -0.27134E-04 49704   0.423E-02    0.719E-02
DAV:   5    -0.391066085135E+03   -0.10679E-04   -0.84660E-05 44960   0.357E-02    0.180E-02
DAV:   6    -0.391066089012E+03   -0.38766E-05   -0.54622E-05 39648   0.178E-02
  25 F= -.39106609E+03 E0= -.39106609E+03  d E =-.461874E-02  mag=    36.0000
       N       E                     dE             d eps       ncg     rms          rms(c)
DAV:   1    -0.390990755222E+03    0.75330E-01   -0.17034E+01 37760   0.116E+01    0.110E+00
DAV:   2    -0.391068552161E+03   -0.77797E-01   -0.78450E-01 35896   0.202E+00    0.559E-01
DAV:   3    -0.391072482721E+03   -0.39306E-02   -0.14870E-02 50464   0.311E-01    0.325E-01
DAV:   4    -0.391072264108E+03    0.21861E-03   -0.18756E-03 52456   0.105E-01    0.194E-01
DAV:   5    -0.391072431221E+03   -0.16711E-03   -0.69417E-04 42928   0.813E-02    0.486E-02
DAV:   6    -0.391072463526E+03   -0.32306E-04   -0.26852E-04 44856   0.361E-02    0.255E-02
DAV:   7    -0.391072463252E+03    0.27412E-06   -0.31099E-05 35080   0.132E-02
  26 F= -.39107246E+03 E0= -.39107246E+03  d E =-.637424E-02  mag=    36.0000
       N       E                     dE             d eps       ncg     rms          rms(c)
DAV:   1    -0.390557217256E+03    0.51525E+00   -0.12584E+02 37752   0.299E+01    0.272E+00
DAV:   2    -0.391061938414E+03   -0.50472E+00   -0.51178E+00 35776   0.527E+00    0.135E+00
DAV:   3    -0.391079262457E+03   -0.17324E-01   -0.99248E-02 51576   0.811E-01    0.791E-01
DAV:   4    -0.391076569346E+03    0.26931E-02   -0.13605E-02 50880   0.285E-01    0.464E-01
DAV:   5    -0.391076735788E+03   -0.16644E-03   -0.45368E-03 44800   0.241E-01    0.134E-01
DAV:   6    -0.391076947474E+03   -0.21169E-03   -0.26440E-03 46312   0.125E-01    0.790E-02
DAV:   7    -0.391076947216E+03    0.25807E-06   -0.40325E-04 50560   0.473E-02    0.441E-02
DAV:   8    -0.391076933128E+03    0.14089E-04   -0.47410E-05 39456   0.263E-02    0.268E-02
DAV:   9    -0.391076923449E+03    0.96788E-05   -0.20010E-05 33664   0.292E-02
  27 F= -.39107692E+03 E0= -.39107692E+03  d E =-.446020E-02  mag=    36.0000
       N       E                     dE             d eps       ncg     rms          rms(c)
DAV:   1    -0.387166431398E+03    0.39105E+01   -0.37243E+02 38632   0.603E+01    0.730E+00
DAV:   2    -0.390325466325E+03   -0.31590E+01   -0.33238E+01 36528   0.122E+01    0.404E+00
DAV:   3    -0.390460830601E+03   -0.13536E+00   -0.88482E-01 54488   0.247E+00    0.227E+00
DAV:   4    -0.390436417409E+03    0.24413E-01   -0.12226E-01 51384   0.126E+00    0.129E+00
DAV:   5    -0.390431862005E+03    0.45554E-02   -0.38228E-02 48400   0.108E+00    0.370E-01
DAV:   6    -0.390432879215E+03   -0.10172E-02   -0.35468E-02 45976   0.515E-01    0.250E-01
DAV:   7    -0.390432213450E+03    0.66577E-03   -0.50322E-03 52192   0.150E-01    0.152E-01
DAV:   8    -0.390431419163E+03    0.79429E-03   -0.78332E-04 46712   0.153E-01    0.812E-02
DAV:   9    -0.390431113343E+03    0.30582E-03   -0.74179E-04 47168   0.154E-01    0.469E-02
DAV:  10    -0.390431139509E+03   -0.26166E-04   -0.81719E-04 48168   0.819E-02    0.362E-02
DAV:  11    -0.390431163508E+03   -0.23999E-04   -0.20818E-04 42000   0.313E-02    0.269E-02
DAV:  12    -0.390431164290E+03   -0.78225E-06   -0.42018E-05 38688   0.162E-02
  28 F= -.39043116E+03 E0= -.39043088E+03  d E =0.645759E+00  mag=    35.9948
       N       E                     dE             d eps       ncg     rms          rms(c)
DAV:   1    -0.390325407313E+03    0.10576E+00   -0.88753E+01 38032   0.288E+01    0.343E+00
DAV:   2    -0.390905574027E+03   -0.58017E+00   -0.62432E+00 36560   0.551E+00    0.181E+00
DAV:   3    -0.390941311382E+03   -0.35737E-01   -0.18506E-01 56064   0.112E+00    0.105E+00
DAV:   4    -0.390934419770E+03    0.68916E-02   -0.18926E-02 51328   0.562E-01    0.579E-01
DAV:   5    -0.390933020012E+03    0.13998E-02   -0.93297E-03 49952   0.573E-01    0.166E-01
DAV:   6    -0.390933535921E+03   -0.51591E-03   -0.10701E-02 46376   0.258E-01    0.129E-01
DAV:   7    -0.390933411058E+03    0.12486E-03   -0.14469E-03 54712   0.726E-02    0.921E-02
DAV:   8    -0.390933193223E+03    0.21783E-03   -0.16629E-04 47208   0.736E-02    0.521E-02
DAV:   9    -0.390933017527E+03    0.17570E-03   -0.27849E-04 49208   0.128E-01    0.278E-02
DAV:  10    -0.390933023235E+03   -0.57081E-05   -0.28205E-04 45120   0.499E-02    0.236E-02
DAV:  11    -0.390933030946E+03   -0.77111E-05   -0.12753E-04 40584   0.242E-02    0.174E-02
DAV:  12    -0.390933027678E+03    0.32676E-05   -0.23033E-05 31600   0.154E-02
  29 F= -.39093303E+03 E0= -.39093303E+03  d E =-.501863E+00  mag=    35.9998
       N       E                     dE             d eps       ncg     rms          rms(c)
DAV:   1    -0.390791445915E+03    0.14159E+00   -0.39313E+01 37760   0.199E+01    0.239E+00
DAV:   2    -0.391051001270E+03   -0.25956E+00   -0.28043E+00 36928   0.380E+00    0.128E+00
DAV:   3    -0.391071340223E+03   -0.20339E-01   -0.83879E-02 54080   0.806E-01    0.747E-01
DAV:   4    -0.391068256847E+03    0.30834E-02   -0.93266E-03 51776   0.421E-01    0.418E-01
DAV:   5    -0.391067424707E+03    0.83214E-03   -0.41466E-03 49720   0.471E-01    0.116E-01
DAV:   6    -0.391067748822E+03   -0.32412E-03   -0.64262E-03 46360   0.208E-01    0.100E-01
DAV:   7    -0.391067699684E+03    0.49138E-04   -0.88133E-04 50800   0.579E-02    0.734E-02
DAV:   8    -0.391067582308E+03    0.11738E-03   -0.12687E-04 44488   0.562E-02    0.463E-02
DAV:   9    -0.391067477997E+03    0.10431E-03   -0.14171E-04 49552   0.101E-01    0.237E-02
DAV:  10    -0.391067469934E+03    0.80628E-05   -0.14483E-04 45248   0.530E-02    0.221E-02
DAV:  11    -0.391067479877E+03   -0.99431E-05   -0.16507E-04 41056   0.273E-02    0.173E-02
DAV:  12    -0.391067476516E+03    0.33605E-05   -0.22294E-05 29456   0.142E-02
  30 F= -.39106748E+03 E0= -.39106748E+03  d E =-.134449E+00  mag=    36.0000
       N       E                     dE             d eps       ncg     rms          rms(c)
DAV:   1    -0.391071773849E+03   -0.42940E-02   -0.19682E+00 37552   0.369E+00    0.398E-01
DAV:   2    -0.391080720696E+03   -0.89468E-02   -0.97354E-02 36880   0.674E-01    0.225E-01
DAV:   3    -0.391081050268E+03   -0.32957E-03   -0.25602E-03 57912   0.112E-01    0.141E-01
DAV:   4    -0.391080934983E+03    0.11529E-03   -0.38193E-04 48776   0.570E-02    0.742E-02
DAV:   5    -0.391080945267E+03   -0.10284E-04   -0.12705E-04 45992   0.409E-02    0.210E-02
DAV:   6    -0.391080947254E+03   -0.19871E-05   -0.70248E-05 41056   0.206E-02
  31 F= -.39108095E+03 E0= -.39108095E+03  d E =-.134707E-01  mag=    36.0000
       N       E                     dE             d eps       ncg     rms          rms(c)
DAV:   1    -0.391021376106E+03    0.59569E-01   -0.16062E+01 37376   0.107E+01    0.108E+00
DAV:   2    -0.391094505201E+03   -0.73129E-01   -0.77131E-01 36656   0.188E+00    0.578E-01
DAV:   3    -0.391097342874E+03   -0.28377E-02   -0.18160E-02 57832   0.309E-01    0.361E-01
DAV:   4    -0.391096648205E+03    0.69467E-03   -0.31233E-03 49152   0.147E-01    0.195E-01
DAV:   5    -0.391096743493E+03   -0.95288E-04   -0.89226E-04 46944   0.919E-02    0.575E-02
DAV:   6    -0.391096750291E+03   -0.67986E-05   -0.37176E-04 45824   0.467E-02    0.302E-02
DAV:   7    -0.391096751851E+03   -0.15599E-05   -0.78465E-05 39576   0.188E-02
  32 F= -.39109675E+03 E0= -.39109675E+03  d E =-.158046E-01  mag=    36.0000
       N       E                     dE             d eps       ncg     rms          rms(c)
DAV:   1    -0.391097330295E+03   -0.58000E-03   -0.85434E-01 37296   0.230E+00    0.234E-01
DAV:   2    -0.391100564185E+03   -0.32339E-02   -0.35963E-02 36936   0.421E-01    0.129E-01
DAV:   3    -0.391100641893E+03   -0.77708E-04   -0.96079E-04 57240   0.724E-02    0.800E-02
DAV:   4    -0.391100588109E+03    0.53784E-04   -0.15253E-04 48552   0.391E-02    0.419E-02
DAV:   5    -0.391100589922E+03   -0.18126E-05   -0.53303E-05 42784   0.298E-02
  33 F= -.39110059E+03 E0= -.39110059E+03  d E =-.383807E-02  mag=    36.0000
       N       E                     dE             d eps       ncg     rms          rms(c)
DAV:   1    -0.391091171826E+03    0.94163E-02   -0.27707E+00 38096   0.448E+00    0.429E-01
DAV:   2    -0.391102697942E+03   -0.11526E-01   -0.11944E-01 36696   0.789E-01    0.219E-01
DAV:   3    -0.391103145870E+03   -0.44793E-03   -0.25364E-03 57264   0.122E-01    0.130E-01
DAV:   4    -0.391103056865E+03    0.89005E-04   -0.35303E-04 48952   0.497E-02    0.728E-02
DAV:   5    -0.391103063813E+03   -0.69485E-05   -0.11291E-04 46560   0.423E-02    0.189E-02
DAV:   6    -0.391103070692E+03   -0.68785E-05   -0.74910E-05 41360   0.194E-02
  34 F= -.39110307E+03 E0= -.39110307E+03  d E =-.248077E-02  mag=    36.0000
       N       E                     dE             d eps       ncg     rms          rms(c)
DAV:   1    -0.391093539919E+03    0.95239E-02   -0.29959E+00 37776   0.458E+00    0.396E-01
DAV:   2    -0.391104527279E+03   -0.10987E-01   -0.11157E-01 36024   0.791E-01    0.194E-01
DAV:   3    -0.391104922433E+03   -0.39515E-03   -0.20581E-03 53536   0.115E-01    0.114E-01
DAV:   4    -0.391104865907E+03    0.56526E-04   -0.25495E-04 53536   0.383E-02    0.673E-02
DAV:   5    -0.391104874895E+03   -0.89884E-05   -0.11193E-04 41600   0.321E-02    0.166E-02
DAV:   6    -0.391104880083E+03   -0.51879E-05   -0.42246E-05 35288   0.138E-02
  35 F= -.39110488E+03 E0= -.39110488E+03  d E =-.180939E-02  mag=    36.0000
       N       E                     dE             d eps       ncg     rms          rms(c)
DAV:   1    -0.390794797675E+03    0.31008E+00   -0.63020E+01 38056   0.231E+01    0.221E+00
DAV:   2    -0.391093848190E+03   -0.29905E+00   -0.29752E+00 35776   0.404E+00    0.108E+00
DAV:   3    -0.391107971698E+03   -0.14124E-01   -0.52302E-02 49360   0.603E-01    0.602E-01
DAV:   4    -0.391107240045E+03    0.73165E-03   -0.61515E-03 54464   0.191E-01    0.359E-01
DAV:   5    -0.391107751054E+03   -0.51101E-03   -0.26372E-03 42568   0.153E-01    0.966E-02
DAV:   6    -0.391107859417E+03   -0.10836E-03   -0.87804E-04 44568   0.666E-02    0.495E-02
DAV:   7    -0.391107854072E+03    0.53448E-05   -0.12583E-04 47472   0.260E-02    0.276E-02
DAV:   8    -0.391107850432E+03    0.36405E-05   -0.15341E-05 26376   0.129E-02
  36 F= -.39110785E+03 E0= -.39110785E+03  d E =-.297035E-02  mag=    36.0000
       N       E                     dE             d eps       ncg     rms          rms(c)
DAV:   1    -0.390779341011E+03    0.32851E+00   -0.65478E+01 37512   0.238E+01    0.223E+00
DAV:   2    -0.391100323457E+03   -0.32098E+00   -0.31980E+00 35776   0.422E+00    0.109E+00
DAV:   3    -0.391114051602E+03   -0.13728E-01   -0.57581E-02 48192   0.633E-01    0.611E-01
DAV:   4    -0.391113331796E+03    0.71981E-03   -0.63244E-03 55440   0.201E-01    0.373E-01
DAV:   5    -0.391113737601E+03   -0.40580E-03   -0.25353E-03 43912   0.166E-01    0.946E-02
DAV:   6    -0.391113871624E+03   -0.13402E-03   -0.10518E-03 45816   0.748E-02    0.533E-02
DAV:   7    -0.391113861926E+03    0.96978E-05   -0.14107E-04 47288   0.289E-02    0.293E-02
DAV:   8    -0.391113856155E+03    0.57709E-05   -0.14983E-05 28136   0.160E-02
  37 F= -.39111386E+03 E0= -.39111386E+03  d E =-.600572E-02  mag=    36.0000
       N       E                     dE             d eps       ncg     rms          rms(c)
DAV:   1    -0.390915753958E+03    0.19811E+00   -0.27755E+01 38616   0.166E+01    0.176E+00
DAV:   2    -0.391099816061E+03   -0.18406E+00   -0.18197E+00 35792   0.299E+00    0.870E-01
DAV:   3    -0.391111437437E+03   -0.11621E-01   -0.35506E-02 49728   0.500E-01    0.478E-01
DAV:   4    -0.391111227422E+03    0.21001E-03   -0.38317E-03 56328   0.171E-01    0.298E-01
DAV:   5    -0.391111544936E+03   -0.31751E-03   -0.14290E-03 46080   0.184E-01    0.803E-02
DAV:   6    -0.391111631445E+03   -0.86509E-04   -0.10403E-03 46920   0.833E-02    0.449E-02
DAV:   7    -0.391111619400E+03    0.12045E-04   -0.16305E-04 45512   0.302E-02    0.254E-02
DAV:   8    -0.391111611133E+03    0.82671E-05   -0.17779E-05 32768   0.191E-02
  38 F= -.39111161E+03 E0= -.39111161E+03  d E =0.224502E-02  mag=    36.0000
       N       E                     dE             d eps       ncg     rms          rms(c)
DAV:   1    -0.391055177740E+03    0.56442E-01   -0.11149E+01 37968   0.104E+01    0.103E+00
DAV:   2    -0.391115103645E+03   -0.59926E-01   -0.61158E-01 35784   0.186E+00    0.502E-01
DAV:   3    -0.391119509815E+03   -0.44062E-02   -0.12097E-02 45920   0.304E-01    0.277E-01
DAV:   4    -0.391119400002E+03    0.10981E-03   -0.12729E-03 55952   0.101E-01    0.163E-01
DAV:   5    -0.391119565590E+03   -0.16559E-03   -0.55901E-04 45376   0.882E-02    0.445E-02
DAV:   6    -0.391119588189E+03   -0.22600E-04   -0.26421E-04 44504   0.411E-02    0.242E-02
DAV:   7    -0.391119586021E+03    0.21687E-05   -0.41699E-05 37160   0.161E-02
  39 F= -.39111959E+03 E0= -.39111959E+03  d E =-.797489E-02  mag=    36.0000
       N       E                     dE             d eps       ncg     rms          rms(c)
DAV:   1    -0.391099701193E+03    0.19887E-01   -0.31683E+00 38552   0.573E+00    0.600E-01
DAV:   2    -0.391119465043E+03   -0.19764E-01   -0.19270E-01 35784   0.995E-01    0.286E-01
DAV:   3    -0.391120719359E+03   -0.12543E-02   -0.33052E-03 46680   0.152E-01    0.151E-01
DAV:   4    -0.391120726304E+03   -0.69454E-05   -0.31067E-04 54888   0.440E-02    0.908E-02
DAV:   5    -0.391120778766E+03   -0.52462E-04   -0.13740E-04 41944   0.379E-02    0.253E-02
DAV:   6    -0.391120784847E+03   -0.60810E-05   -0.47693E-05 39656   0.167E-02
  40 F= -.39112078E+03 E0= -.39112078E+03  d E =-.119883E-02  mag=    36.0000
       N       E                     dE             d eps       ncg     rms          rms(c)
DAV:   1    -0.390784801446E+03    0.33598E+00   -0.63878E+01 38328   0.241E+01    0.230E+00
DAV:   2    -0.391106391903E+03   -0.32159E+00   -0.31800E+00 35776   0.417E+00    0.110E+00
DAV:   3    -0.391122436921E+03   -0.16045E-01   -0.54807E-02 47552   0.620E-01    0.600E-01
DAV:   4    -0.391122018211E+03    0.41871E-03   -0.58100E-03 55008   0.181E-01    0.359E-01
DAV:   5    -0.391122661575E+03   -0.64336E-03   -0.25109E-03 41888   0.148E-01    0.965E-02
DAV:   6    -0.391122776719E+03   -0.11514E-03   -0.80184E-04 45960   0.616E-02    0.482E-02
DAV:   7    -0.391122770310E+03    0.64098E-05   -0.90082E-05 44520   0.229E-02
  41 F= -.39112277E+03 E0= -.39112277E+03  d E =-.198546E-02  mag=    36.0000
       N       E                     dE             d eps       ncg     rms          rms(c)
DAV:   1    -0.390066071369E+03    0.10567E+01   -0.18431E+02 38312   0.420E+01    0.411E+00
DAV:   2    -0.391055477772E+03   -0.98941E+00   -0.97651E+00 35776   0.734E+00    0.198E+00
DAV:   3    -0.391107701010E+03   -0.52223E-01   -0.17285E-01 47264   0.113E+00    0.107E+00
DAV:   4    -0.391106845736E+03    0.85527E-03   -0.20014E-02 54768   0.341E-01    0.647E-01
DAV:   5    -0.391109131300E+03   -0.22856E-02   -0.72807E-03 45312   0.270E-01    0.182E-01
DAV:   6    -0.391109502736E+03   -0.37144E-03   -0.26229E-03 47040   0.118E-01    0.865E-02
DAV:   7    -0.391109501596E+03    0.11397E-05   -0.38615E-04 52496   0.452E-02    0.507E-02
DAV:   8    -0.391109487940E+03    0.13656E-04   -0.53618E-05 37792   0.229E-02    0.254E-02
DAV:   9    -0.391109486317E+03    0.16222E-05   -0.24055E-05 31160   0.183E-02
  42 F= -.39110949E+03 E0= -.39110949E+03  d E =0.132840E-01  mag=    36.0000
       N       E                     dE             d eps       ncg     rms          rms(c)
DAV:   1    -0.390481931976E+03    0.62756E+00   -0.89690E+01 38024   0.308E+01    0.331E+00
DAV:   2    -0.391070265840E+03   -0.58833E+00   -0.57943E+00 35776   0.553E+00    0.161E+00
DAV:   3    -0.391112060629E+03   -0.41795E-01   -0.11555E-01 47192   0.922E-01    0.847E-01
DAV:   4    -0.391112379402E+03   -0.31877E-03   -0.11243E-02 56048   0.275E-01    0.515E-01
DAV:   5    -0.391114168488E+03   -0.17891E-02   -0.44302E-03 45344   0.243E-01    0.141E-01
DAV:   6    -0.391114366294E+03   -0.19781E-03   -0.20666E-03 46632   0.119E-01    0.709E-02
DAV:   7    -0.391114353260E+03    0.13034E-04   -0.38167E-04 50088   0.494E-02    0.404E-02
DAV:   8    -0.391114342112E+03    0.11149E-04   -0.55349E-05 43904   0.231E-02    0.255E-02
DAV:   9    -0.391114333382E+03    0.87291E-05   -0.18495E-05 31360   0.248E-02
  43 F= -.39111433E+03 E0= -.39111433E+03  d E =-.484707E-02  mag=    36.0000
       N       E                     dE             d eps       ncg     rms          rms(c)
DAV:   1    -0.390537949547E+03    0.57639E+00   -0.91857E+01 38160   0.301E+01    0.304E+00
DAV:   2    -0.391083195747E+03   -0.54525E+00   -0.53785E+00 35776   0.536E+00    0.152E+00
DAV:   3    -0.391115521187E+03   -0.32325E-01   -0.10010E-01 47592   0.849E-01    0.828E-01
DAV:   4    -0.391115154723E+03    0.36646E-03   -0.10562E-02 56088   0.277E-01    0.515E-01
DAV:   5    -0.391116438846E+03   -0.12841E-02   -0.41042E-03 45968   0.257E-01    0.128E-01
DAV:   6    -0.391116678484E+03   -0.23964E-03   -0.22260E-03 45376   0.118E-01    0.714E-02
DAV:   7    -0.391116655233E+03    0.23251E-04   -0.31430E-04 48944   0.422E-02    0.406E-02
DAV:   8    -0.391116640052E+03    0.15181E-04   -0.37996E-05 39480   0.226E-02    0.233E-02
DAV:   9    -0.391116632126E+03    0.79259E-05   -0.16527E-05 30688   0.238E-02
  44 F= -.39111663E+03 E0= -.39111663E+03  d E =-.229874E-02  mag=    36.0000
       N       E                     dE             d eps       ncg     rms          rms(c)
DAV:   1    -0.390904938547E+03    0.21170E+00   -0.37467E+01 38272   0.187E+01    0.186E+00
DAV:   2    -0.391109036478E+03   -0.20410E+00   -0.20308E+00 35776   0.332E+00    0.935E-01
DAV:   3    -0.391121181473E+03   -0.12145E-01   -0.38431E-02 48448   0.531E-01    0.527E-01
DAV:   4    -0.391120808952E+03    0.37252E-03   -0.39216E-03 57952   0.179E-01    0.328E-01
DAV:   5    -0.391121158013E+03   -0.34906E-03   -0.17432E-03 46424   0.187E-01    0.769E-02
DAV:   6    -0.391121273380E+03   -0.11537E-03   -0.12446E-03 44816   0.874E-02    0.500E-02
DAV:   7    -0.391121260529E+03    0.12851E-04   -0.13270E-04 48256   0.258E-02    0.318E-02
DAV:   8    -0.391121247149E+03    0.13381E-04   -0.19729E-05 30544   0.180E-02    0.175E-02
DAV:   9    -0.391121240009E+03    0.71394E-05   -0.11690E-05 30808   0.213E-02
  45 F= -.39112124E+03 E0= -.39112124E+03  d E =-.460788E-02  mag=    36.0000
       N       E                     dE             d eps       ncg     rms          rms(c)
DAV:   1    -0.390913039780E+03    0.20821E+00   -0.33612E+01 38672   0.183E+01    0.186E+00
DAV:   2    -0.391108295665E+03   -0.19526E+00   -0.19281E+00 35776   0.321E+00    0.906E-01
DAV:   3    -0.391120607034E+03   -0.12311E-01   -0.35157E-02 45512   0.505E-01    0.492E-01
DAV:   4    -0.391120562043E+03    0.44992E-04   -0.34769E-03 56944   0.158E-01    0.295E-01
DAV:   5    -0.391121076340E+03   -0.51430E-03   -0.15895E-03 45120   0.149E-01    0.788E-02
DAV:   6    -0.391121146622E+03   -0.70281E-04   -0.73076E-04 45224   0.659E-02    0.419E-02
DAV:   7    -0.391121137232E+03    0.93900E-05   -0.10034E-04 45104   0.248E-02    0.238E-02
DAV:   8    -0.391121131311E+03    0.59203E-05   -0.10295E-05 27904   0.152E-02
  46 F= -.39112113E+03 E0= -.39112113E+03  d E =0.108698E-03  mag=    36.0000
       N       E                     dE             d eps       ncg     rms          rms(c)
DAV:   1    -0.391080581130E+03    0.40556E-01   -0.60983E+00 38144   0.790E+00    0.831E-01
DAV:   2    -0.391120045820E+03   -0.39465E-01   -0.39147E-01 35776   0.141E+00    0.403E-01
DAV:   3    -0.391122845464E+03   -0.27996E-02   -0.77358E-03 42864   0.237E-01    0.217E-01
DAV:   4    -0.391122885025E+03   -0.39561E-04   -0.69108E-04 56816   0.694E-02    0.134E-01
DAV:   5    -0.391123018236E+03   -0.13321E-03   -0.31852E-04 42408   0.658E-02    0.321E-02
DAV:   6    -0.391123033529E+03   -0.15293E-04   -0.14368E-04 43344   0.305E-02    0.184E-02
DAV:   7    -0.391123031659E+03    0.18697E-05   -0.16327E-05 26400   0.118E-02
  47 F= -.39112303E+03 E0= -.39112303E+03  d E =-.190035E-02  mag=    36.0000
       N       E                     dE             d eps       ncg     rms          rms(c)
DAV:   1    -0.391099572274E+03    0.23461E-01   -0.40442E+00 38096   0.633E+00    0.618E-01
DAV:   2    -0.391121813438E+03   -0.22241E-01   -0.21869E-01 35776   0.110E+00    0.298E-01
DAV:   3    -0.391123082631E+03   -0.12692E-02   -0.39577E-03 47768   0.166E-01    0.162E-01
DAV:   4    -0.391123073397E+03    0.92339E-05   -0.35809E-04 55056   0.475E-02    0.977E-02
DAV:   5    -0.391123126411E+03   -0.53014E-04   -0.17544E-04 42896   0.416E-02    0.250E-02
DAV:   6    -0.391123134172E+03   -0.77604E-05   -0.59385E-05 39080   0.183E-02
  48 F= -.39112313E+03 E0= -.39112313E+03  d E =-.102512E-03  mag=    36.0000
       N       E                     dE             d eps       ncg     rms          rms(c)
DAV:   1    -0.391120108228E+03    0.30182E-02   -0.51407E-01 37960   0.223E+00    0.215E-01
DAV:   2    -0.391122833654E+03   -0.27254E-02   -0.27665E-02 35776   0.396E-01    0.109E-01
DAV:   3    -0.391123022073E+03   -0.18842E-03   -0.51669E-04 44752   0.627E-02    0.620E-02
DAV:   4    -0.391123016812E+03    0.52615E-05   -0.49541E-05 44152   0.201E-02
  49 F= -.39112302E+03 E0= -.39112302E+03  d E =0.117360E-03  mag=    36.0000
