       N       E                     dE             d eps       ncg     rms          ort
DAV:   1     0.585337524833E+04    0.58534E+04   -0.28186E+05 29792   0.170E+03
DAV:   2    -0.264843444344E+02   -0.58799E+04   -0.55193E+04 29792   0.493E+02
DAV:   3    -0.717210646773E+03   -0.69073E+03   -0.67992E+03 29792   0.185E+02
DAV:   4    -0.738060910051E+03   -0.20850E+02   -0.20648E+02 29792   0.320E+01
DAV:   5    -0.739481004013E+03   -0.14201E+01   -0.14120E+01 29792   0.568E+00
SDA:   6    -0.450197914971E+03    0.28928E+03   -0.14120E+01 29792   0.825E+03 0.000E+00
CGA:   7    -0.551592714347E+03   -0.10139E+03   -0.10377E+03 29792   0.761E+02 0.176E+01
CGA:   8    -0.565431548024E+03   -0.13839E+02   -0.13852E+02 29792   0.243E+02 0.374E+00
CGA:   9    -0.570273281568E+03   -0.48417E+01   -0.48412E+01 29792   0.111E+02 0.124E+00
CGA:  10    -0.572837974665E+03   -0.25647E+01   -0.25669E+01 29792   0.544E+01-0.461E-01
CGA:  11    -0.574023397448E+03   -0.11854E+01   -0.11873E+01 29792   0.173E+01-0.723E-01
CGA:  12    -0.574402708042E+03   -0.37931E+00   -0.38025E+00 29792   0.530E+00-0.407E-01
CGA:  13    -0.574521458922E+03   -0.11875E+00   -0.11931E+00 29792   0.155E+00-0.188E-01
CGA:  14    -0.574562468401E+03   -0.41009E-01   -0.41410E-01 29792   0.684E-01-0.544E-02
CGA:  15    -0.574584076153E+03   -0.21608E-01   -0.21646E-01 29792   0.360E-01-0.366E-03
CGA:  16    -0.574596779867E+03   -0.12704E-01   -0.12714E-01 29792   0.212E-01-0.855E-04
CGA:  17    -0.574605188004E+03   -0.84081E-02   -0.92959E-02 29792   0.165E-01-0.405E-02
CGA:  18    -0.574607545830E+03   -0.23578E-02   -0.10076E-01 29792   0.348E-01-0.148E-01
CGA:  19    -0.574617070375E+03   -0.95245E-02   -0.95546E-02 29792   0.839E-02-0.159E-02
CGA:  20    -0.574620448064E+03   -0.33777E-02   -0.38239E-02 29792   0.456E-02-0.203E-02
CGA:  21    -0.574621692683E+03   -0.12446E-02   -0.22817E-02 29792   0.515E-02-0.265E-02
CGA:  22    -0.574622934837E+03   -0.12422E-02   -0.12548E-02 29792   0.973E-03 0.290E-03
CGA:  23    -0.574623426480E+03   -0.49164E-03   -0.49555E-03 29792   0.473E-03-0.199E-04
CGA:  24    -0.574623662434E+03   -0.23595E-03   -0.34350E-03 29792   0.813E-03-0.242E-03
CGA:  25    -0.574623935871E+03   -0.27344E-03   -0.45765E-03 29792   0.160E-02-0.750E-03
CGA:  26    -0.574624248293E+03   -0.31242E-03   -0.32175E-03 29792   0.116E-03 0.730E-04
CGA:  27    -0.574624355359E+03   -0.10707E-03    0.54156E-04 29792   0.959E-04 0.707E-04
CGA:  28    -0.574624470828E+03   -0.11547E-03    0.17950E-04 29792   0.864E-04 0.728E-04
CGA:  29    -0.574624563856E+03   -0.93029E-04    0.20960E-04 29792   0.850E-04 0.739E-04
CGA:  30    -0.574624671051E+03   -0.10719E-03    0.14439E-04 29792   0.849E-04 0.717E-04
CGA:  31    -0.574624763172E+03   -0.92122E-04    0.20209E-04 29792   0.866E-04 0.664E-04
CGA:  32    -0.574624863730E+03   -0.10056E-03    0.17575E-04 29792   0.931E-04 0.546E-04
CGA:  33    -0.574624939358E+03   -0.75628E-04    0.58668E-04 29792   0.112E-03 0.289E-04
CGA:  34    -0.574625114589E+03   -0.17523E-03    0.27993E-04 29792   0.658E-04 0.121E-03
CGA:  35    -0.574625185807E+03   -0.71218E-04    0.15795E-04 29792   0.710E-04 0.202E-04
CGA:  36    -0.574625302461E+03   -0.11665E-03    0.15896E-04 29792   0.531E-04 0.765E-04
CGA:  37    -0.574625267863E+03    0.34598E-04   -0.70317E-04 29792   0.872E-03-0.105E-03
CGA:  38    -0.574625495578E+03   -0.22772E-03   -0.19197E-03 29792   0.135E-03-0.233E-03
CGA:  39    -0.574625508131E+03   -0.12553E-04   -0.16158E-04 29792   0.345E-04 0.178E-04
CGA:  40    -0.574625518861E+03   -0.10730E-04   -0.10794E-04 29792   0.296E-04 0.798E-06
CGA:  41    -0.574625565930E+03   -0.47069E-04    0.43813E-05 29792   0.419E-04 0.105E-04
CGA:  42    -0.574625657388E+03   -0.91458E-04    0.77065E-05 29792   0.263E-04 0.242E-04
CGA:  43    -0.574625660108E+03   -0.27197E-05   -0.41642E-05 29792   0.614E-05 0.746E-05
   1 F= -.57462566E+03 E0= -.57462566E+03  d E =-.574626E+03  mag=    36.0000
       N       E                     dE             d eps       ncg     rms          ort
SDA:   1    -0.574131596734E+03    0.49406E+00    0.00000E+00 29792   0.141E+01 0.000E+00
CGA:   2    -0.574465885523E+03   -0.33429E+00   -0.33463E+00 29792   0.640E+00 0.176E-02
CGA:   3    -0.574588101741E+03   -0.12222E+00   -0.12220E+00 29792   0.187E+00 0.518E-04
CGA:   4    -0.574618876458E+03   -0.30775E-01   -0.30691E-01 29792   0.442E-01-0.554E-03
CGA:   5    -0.574626787079E+03   -0.79106E-02   -0.78868E-02 29792   0.106E-01-0.183E-03
CGA:   6    -0.574628943351E+03   -0.21563E-02   -0.21530E-02 29792   0.357E-02-0.301E-04
CGA:   7    -0.574629761260E+03   -0.81791E-03   -0.81301E-03 29792   0.114E-02-0.624E-04
CGA:   8    -0.574630053278E+03   -0.29202E-03   -0.29017E-03 29792   0.445E-03-0.410E-04
CGA:   9    -0.574630175794E+03   -0.12252E-03   -0.12219E-03 29792   0.169E-03-0.191E-04
CGA:  10    -0.574630230099E+03   -0.54304E-04   -0.55464E-04 29792   0.846E-04-0.278E-04
CGA:  11    -0.574630256652E+03   -0.26553E-04   -0.33267E-04 29792   0.762E-04-0.403E-04
CGA:  12    -0.574630246854E+03    0.97982E-05   -0.31759E-04 29792   0.211E-03-0.860E-04
CGA:  13    -0.574630296463E+03   -0.49610E-04   -0.48776E-04 29792   0.456E-04-0.792E-05
CGA:  14    -0.574630312059E+03   -0.15596E-04   -0.32036E-04 29792   0.899E-04-0.412E-04
CGA:  15    -0.574630332463E+03   -0.20404E-04   -0.20295E-04 29792   0.117E-04-0.886E-06
CGA:  16    -0.574630244467E+03    0.87996E-04   -0.47381E-04 29792   0.427E-03-0.617E-04
CGA:  17    -0.574630345528E+03   -0.10106E-03   -0.10279E-03 29792   0.530E-04 0.438E-05
CGA:  18    -0.574630364370E+03   -0.18842E-04   -0.17410E-04 29792   0.772E-05-0.506E-05
CGA:  19    -0.574630367169E+03   -0.27985E-05   -0.24049E-05 29792   0.259E-05-0.158E-05
   2 F= -.57463037E+03 E0= -.57463037E+03  d E =-.470706E-02  mag=    36.0000
       N       E                     dE             d eps       ncg     rms          ort
SDA:   1    -0.574606259611E+03    0.24105E-01    0.00000E+00 29792   0.692E-01 0.000E+00
CGA:   2    -0.574622863904E+03   -0.16604E-01   -0.16544E-01 29792   0.317E-01-0.210E-03
CGA:   3    -0.574628850572E+03   -0.59867E-02   -0.59745E-02 29792   0.909E-02-0.542E-04
CGA:   4    -0.574630298241E+03   -0.14477E-02   -0.14697E-02 29792   0.210E-02 0.561E-04
CGA:   5    -0.574630664391E+03   -0.36615E-03   -0.37360E-03 29792   0.490E-03 0.214E-04
CGA:   6    -0.574630764408E+03   -0.10002E-03   -0.10053E-03 29792   0.161E-03 0.196E-05
CGA:   7    -0.574630798494E+03   -0.34086E-04   -0.35377E-04 29792   0.473E-04 0.488E-05
CGA:   8    -0.574630810355E+03   -0.11861E-04   -0.12224E-04 29792   0.177E-04 0.176E-05
CGA:   9    -0.574630816329E+03   -0.59735E-05   -0.57499E-05 29792   0.836E-05-0.126E-05
   3 F= -.57463082E+03 E0= -.57463082E+03  d E =-.515622E-02  mag=    36.0000
       N       E                     dE             d eps       ncg     rms          ort
SDA:   1    -0.574369490167E+03    0.26132E+00    0.00000E+00 29792   0.692E+00 0.000E+00
CGA:   2    -0.574566322161E+03   -0.19683E+00   -0.19689E+00 29792   0.281E+00 0.535E-03
CGA:   3    -0.574619309231E+03   -0.52987E-01   -0.52934E-01 29792   0.683E-01-0.454E-03
CGA:   4    -0.574630356403E+03   -0.11047E-01   -0.11026E-01 29792   0.161E-01-0.102E-03
CGA:   5    -0.574633154652E+03   -0.27982E-02   -0.28060E-02 29792   0.358E-02 0.273E-04
CGA:   6    -0.574633867042E+03   -0.71239E-03   -0.71724E-03 29792   0.106E-02 0.239E-04
CGA:   7    -0.574634104385E+03   -0.23734E-03   -0.23494E-03 29792   0.325E-03-0.133E-04
CGA:   8    -0.574634196898E+03   -0.92513E-04   -0.89621E-04 29792   0.149E-03-0.262E-04
CGA:   9    -0.574634236916E+03   -0.40018E-04   -0.39477E-04 29792   0.612E-04-0.522E-05
CGA:  10    -0.574634250398E+03   -0.13482E-04   -0.14834E-04 29792   0.200E-04 0.110E-04
CGA:  11    -0.574634253233E+03   -0.28349E-05   -0.45716E-05 29792   0.760E-05 0.990E-05
   4 F= -.57463425E+03 E0= -.57463425E+03  d E =-.343690E-02  mag=    36.0000
       N       E                     dE             d eps       ncg     rms          ort
SDA:   1    -0.574628546459E+03    0.57039E-02    0.00000E+00 29792   0.154E-01 0.000E+00
CGA:   2    -0.574632869986E+03   -0.43235E-02   -0.43319E-02 29792   0.623E-02 0.115E-03
CGA:   3    -0.574634075339E+03   -0.12054E-02   -0.11946E-02 29792   0.158E-02-0.702E-04
CGA:   4    -0.574634329444E+03   -0.25411E-03   -0.25055E-03 29792   0.374E-03-0.201E-04
CGA:   5    -0.574634392527E+03   -0.63083E-04   -0.63803E-04 29792   0.796E-04 0.437E-05
CGA:   6    -0.574634408084E+03   -0.15557E-04   -0.16091E-04 29792   0.246E-04 0.434E-05
CGA:   7    -0.574634415087E+03   -0.70031E-05   -0.68312E-05 29792   0.122E-04-0.320E-05
   5 F= -.57463442E+03 E0= -.57463442E+03  d E =-.359876E-02  mag=    36.0000
       N       E                     dE             d eps       ncg     rms          ort
SDA:   1    -0.574428562547E+03    0.20585E+00    0.00000E+00 29792   0.562E+00 0.000E+00
CGA:   2    -0.574576347586E+03   -0.14779E+00   -0.14781E+00 29792   0.252E+00 0.301E-03
CGA:   3    -0.574622389899E+03   -0.46042E-01   -0.46148E-01 29792   0.647E-01 0.646E-03
CGA:   4    -0.574632615926E+03   -0.10226E-01   -0.10233E-01 29792   0.148E-01 0.258E-04
CGA:   5    -0.574635268717E+03   -0.26528E-02   -0.26440E-02 29792   0.345E-02-0.741E-04
CGA:   6    -0.574635927302E+03   -0.65858E-03   -0.66188E-03 29792   0.991E-03 0.309E-04
CGA:   7    -0.574636133990E+03   -0.20669E-03   -0.20994E-03 29792   0.290E-03 0.384E-04
CGA:   8    -0.574636209835E+03   -0.75845E-04   -0.76354E-04 29792   0.117E-03 0.139E-04
CGA:   9    -0.574636243950E+03   -0.34115E-04   -0.34251E-04 29792   0.507E-04 0.136E-04
CGA:  10    -0.574636257521E+03   -0.13572E-04   -0.14165E-04 29792   0.199E-04 0.159E-04
CGA:  11    -0.574636261235E+03   -0.37138E-05   -0.49450E-05 29792   0.862E-05 0.128E-04
   6 F= -.57463626E+03 E0= -.57463626E+03  d E =-.184615E-02  mag=    36.0000
       N       E                     dE             d eps       ncg     rms          ort
SDA:   1    -0.574636148779E+03    0.10874E-03    0.00000E+00 29792   0.281E-03 0.000E+00
CGA:   2    -0.574636221722E+03   -0.72942E-04   -0.72970E-04 29792   0.127E-03 0.171E-05
CGA:   3    -0.574636249168E+03   -0.27446E-04   -0.26547E-04 29792   0.447E-04-0.136E-04
CGA:   4    -0.574636254156E+03   -0.49885E-05   -0.54052E-05 29792   0.975E-05 0.308E-05
CGA:   5    -0.574636254828E+03   -0.67211E-06   -0.12530E-05 29792   0.331E-05 0.405E-05
CGA:   6    -0.574636255052E+03   -0.22424E-06   -0.52106E-06 29792   0.157E-05 0.205E-05
   7 F= -.57463626E+03 E0= -.57463626E+03  d E =-.183997E-02  mag=    36.0000
       N       E                     dE             d eps       ncg     rms          ort
SDA:   1    -0.574433233646E+03    0.20302E+00    0.00000E+00 29792   0.521E+00 0.000E+00
CGA:   2    -0.574588479349E+03   -0.15525E+00   -0.15517E+00 29792   0.210E+00 0.166E-02
CGA:   3    -0.574626627655E+03   -0.38148E-01   -0.38150E-01 29792   0.512E-01-0.497E-04
CGA:   4    -0.574634730010E+03   -0.81024E-02   -0.80614E-02 29792   0.121E-01-0.435E-03
CGA:   5    -0.574636825916E+03   -0.20959E-02   -0.20843E-02 29792   0.276E-02-0.158E-03
CGA:   6    -0.574637332095E+03   -0.50618E-03   -0.50928E-03 29792   0.748E-03 0.529E-04
CGA:   7    -0.574637478078E+03   -0.14598E-03   -0.14877E-03 29792   0.197E-03 0.588E-04
CGA:   8    -0.574637527772E+03   -0.49694E-04   -0.49870E-04 29792   0.765E-04 0.300E-04
CGA:   9    -0.574637552553E+03   -0.24781E-04   -0.24233E-04 29792   0.380E-04 0.154E-04
CGA:  10    -0.574637566889E+03   -0.14336E-04   -0.13833E-04 29792   0.205E-04 0.813E-05
CGA:  11    -0.574637571555E+03   -0.46661E-05   -0.50935E-05 29792   0.828E-05 0.107E-04
   8 F= -.57463757E+03 E0= -.57463757E+03  d E =-.131650E-02  mag=    36.0000
       N       E                     dE             d eps       ncg     rms          ort
SDA:   1    -0.574631479106E+03    0.60878E-02    0.00000E+00 29792   0.158E-01 0.000E+00
CGA:   2    -0.574636112394E+03   -0.46333E-02   -0.46150E-02 29792   0.621E-02 0.332E-03
CGA:   3    -0.574637287637E+03   -0.11752E-02   -0.11743E-02 29792   0.157E-02-0.191E-04
CGA:   4    -0.574637552132E+03   -0.26449E-03   -0.25804E-03 29792   0.407E-03-0.895E-04
CGA:   5    -0.574637621624E+03   -0.69492E-04   -0.67781E-04 29792   0.999E-04-0.303E-04
CGA:   6    -0.574637636239E+03   -0.14615E-04   -0.15296E-04 29792   0.240E-04 0.105E-04
CGA:   7    -0.574637639100E+03   -0.28603E-05   -0.37454E-05 29792   0.789E-05 0.103E-04
   9 F= -.57463764E+03 E0= -.57463764E+03  d E =-.138405E-02  mag=    36.0000
       N       E                     dE             d eps       ncg     rms          ort
SDA:   1    -0.574613067810E+03    0.24568E-01    0.00000E+00 29792   0.631E-01 0.000E+00
CGA:   2    -0.574631595543E+03   -0.18528E-01   -0.18474E-01 29792   0.252E-01 0.692E-03
CGA:   3    -0.574636272002E+03   -0.46765E-02   -0.46751E-02 29792   0.624E-02-0.428E-04
CGA:   4    -0.574637285442E+03   -0.10134E-02   -0.10018E-02 29792   0.158E-02-0.199E-03
CGA:   5    -0.574637553286E+03   -0.26784E-03   -0.26459E-03 29792   0.375E-03-0.755E-04
CGA:   6    -0.574637614459E+03   -0.61173E-04   -0.61992E-04 29792   0.932E-04 0.199E-04
CGA:   7    -0.574637629528E+03   -0.15069E-04   -0.16203E-04 29792   0.244E-04 0.240E-04
CGA:   8    -0.574637633935E+03   -0.44064E-05   -0.50022E-05 29792   0.112E-04 0.126E-04
  10 F= -.57463763E+03 E0= -.57463763E+03  d E =-.137888E-02  mag=    36.0000
       N       E                     dE             d eps       ncg     rms          ort
SDA:   1    -0.574415840630E+03    0.22179E+00    0.00000E+00 29792   0.574E+00 0.000E+00
CGA:   2    -0.574581452481E+03   -0.16561E+00   -0.16539E+00 29792   0.246E+00 0.268E-02
CGA:   3    -0.574625757840E+03   -0.44305E-01   -0.44259E-01 29792   0.593E-01-0.139E-02
CGA:   4    -0.574634989831E+03   -0.92320E-02   -0.91948E-02 29792   0.139E-01-0.668E-03
CGA:   5    -0.574637368577E+03   -0.23787E-02   -0.23748E-02 29792   0.318E-02-0.112E-03
CGA:   6    -0.574637958617E+03   -0.59004E-03   -0.59062E-03 29792   0.855E-03 0.283E-04
CGA:   7    -0.574638127596E+03   -0.16898E-03   -0.16950E-03 29792   0.230E-03 0.519E-04
CGA:   8    -0.574638182937E+03   -0.55341E-04   -0.54615E-04 29792   0.851E-04 0.402E-04
CGA:   9    -0.574638214295E+03   -0.31358E-04   -0.30321E-04 29792   0.502E-04 0.107E-04
CGA:  10    -0.574638236187E+03   -0.21892E-04   -0.27095E-04 29792   0.591E-04-0.195E-04
CGA:  11    -0.574638241514E+03   -0.53263E-05   -0.57633E-05 29792   0.316E-04 0.666E-05
  11 F= -.57463824E+03 E0= -.57463824E+03  d E =-.607579E-03  mag=    36.0000
       N       E                     dE             d eps       ncg     rms          ort
SDA:   1    -0.574625395346E+03    0.12841E-01    0.00000E+00 29792   0.333E-01 0.000E+00
CGA:   2    -0.574635088531E+03   -0.96932E-02   -0.97379E-02 29792   0.149E-01-0.602E-03
CGA:   3    -0.574637567819E+03   -0.24793E-02   -0.24951E-02 29792   0.338E-02 0.313E-03
CGA:   4    -0.574638065101E+03   -0.49728E-03   -0.50919E-03 29792   0.767E-03 0.169E-03
CGA:   5    -0.574638199502E+03   -0.13440E-03   -0.13631E-03 29792   0.182E-03 0.423E-04
CGA:   6    -0.574638236316E+03   -0.36815E-04   -0.36803E-04 29792   0.517E-04-0.559E-06
CGA:   7    -0.574638248752E+03   -0.12436E-04   -0.12801E-04 29792   0.202E-04-0.977E-05
CGA:   8    -0.574638253176E+03   -0.44240E-05   -0.51971E-05 29792   0.135E-04-0.741E-05
  12 F= -.57463825E+03 E0= -.57463825E+03  d E =-.619242E-03  mag=    36.0000
       N       E                     dE             d eps       ncg     rms          ort
SDA:   1    -0.574587621687E+03    0.50627E-01    0.00000E+00 29792   0.134E+00 0.000E+00
CGA:   2    -0.574626270080E+03   -0.38648E-01   -0.38710E-01 29792   0.553E-01-0.873E-03
CGA:   3    -0.574636010837E+03   -0.97408E-02   -0.97725E-02 29792   0.133E-01 0.774E-03
CGA:   4    -0.574638129405E+03   -0.21186E-02   -0.21277E-02 29792   0.314E-02 0.154E-03
CGA:   5    -0.574638688234E+03   -0.55883E-03   -0.55608E-03 29792   0.741E-03-0.729E-04
CGA:   6    -0.574638826021E+03   -0.13779E-03   -0.13750E-03 29792   0.205E-03-0.135E-04
CGA:   7    -0.574638860393E+03   -0.34373E-04   -0.35334E-04 29792   0.477E-04 0.279E-04
CGA:   8    -0.574638867807E+03   -0.74135E-05   -0.85255E-05 29792   0.171E-04 0.217E-04
  13 F= -.57463887E+03 E0= -.57463887E+03  d E =-.614631E-03  mag=    36.0000
       N       E                     dE             d eps       ncg     rms          ort
SDA:   1    -0.574351998612E+03    0.28686E+00    0.00000E+00 29792   0.751E+00 0.000E+00
CGA:   2    -0.574567188567E+03   -0.21519E+00   -0.21537E+00 29792   0.308E+00-0.233E-02
CGA:   3    -0.574622315411E+03   -0.55127E-01   -0.55178E-01 29792   0.759E-01 0.187E-02
CGA:   4    -0.574634248067E+03   -0.11933E-01   -0.11952E-01 29792   0.178E-01 0.388E-03
CGA:   5    -0.574637360546E+03   -0.31125E-02   -0.31083E-02 29792   0.400E-02-0.148E-03
CGA:   6    -0.574638121614E+03   -0.76107E-03   -0.76096E-03 29792   0.110E-02-0.114E-04
CGA:   7    -0.574638334750E+03   -0.21314E-03   -0.21367E-03 29792   0.289E-03 0.789E-04
CGA:   8    -0.574638399141E+03   -0.64391E-04   -0.63981E-04 29792   0.997E-04 0.680E-04
CGA:   9    -0.574638425586E+03   -0.26445E-04   -0.25981E-04 29792   0.484E-04 0.451E-04
CGA:  10    -0.574638441669E+03   -0.16083E-04   -0.15530E-04 29792   0.277E-04 0.281E-04
CGA:  11    -0.574638452863E+03   -0.11194E-04   -0.11986E-04 29792   0.301E-04-0.345E-05
CGA:  12    -0.574638461315E+03   -0.84519E-05   -0.77886E-05 29792   0.134E-04 0.808E-05
  14 F= -.57463846E+03 E0= -.57463846E+03  d E =-.208139E-03  mag=    36.0000
       N       E                     dE             d eps       ncg     rms          ort
SDA:   1    -0.574562556480E+03    0.75896E-01    0.00000E+00 29792   0.201E+00 0.000E+00
CGA:   2    -0.574619550449E+03   -0.56994E-01   -0.56904E-01 29792   0.811E-01 0.124E-02
CGA:   3    -0.574634648664E+03   -0.15098E-01   -0.15069E-01 29792   0.211E-01-0.895E-03
CGA:   4    -0.574637890511E+03   -0.32418E-02   -0.32328E-02 29792   0.483E-02-0.149E-03
CGA:   5    -0.574638690856E+03   -0.80035E-03   -0.80415E-03 29792   0.101E-02 0.823E-04
CGA:   6    -0.574638890735E+03   -0.19988E-03   -0.19997E-03 29792   0.275E-03 0.559E-05
CGA:   7    -0.574638956192E+03   -0.65458E-04   -0.66781E-04 29792   0.104E-03-0.427E-04
CGA:   8    -0.574638979709E+03   -0.23517E-04   -0.29326E-04 29792   0.823E-04-0.474E-04
CGA:   9    -0.574638988319E+03   -0.86099E-05   -0.18816E-04 29792   0.882E-04-0.503E-04
CGA:  10    -0.574639001468E+03   -0.13149E-04   -0.14086E-04 29792   0.173E-04 0.137E-04
CGA:  11    -0.574639003714E+03   -0.22454E-05   -0.29950E-05 29792   0.653E-05 0.100E-04
  15 F= -.57463900E+03 E0= -.57463900E+03  d E =-.750537E-03  mag=    36.0000
       N       E                     dE             d eps       ncg     rms          ort
SDA:   1    -0.574620978178E+03    0.18023E-01    0.00000E+00 29792   0.481E-01 0.000E+00
CGA:   2    -0.574634717245E+03   -0.13739E-01   -0.13763E-01 29792   0.203E-01-0.377E-03
CGA:   3    -0.574638313673E+03   -0.35964E-02   -0.36027E-02 29792   0.503E-02 0.143E-03
CGA:   4    -0.574639077865E+03   -0.76419E-03   -0.77108E-03 29792   0.109E-02 0.103E-03
CGA:   5    -0.574639264887E+03   -0.18702E-03   -0.18855E-03 29792   0.242E-03 0.328E-04
CGA:   6    -0.574639311769E+03   -0.46882E-04   -0.47065E-04 29792   0.643E-04 0.742E-05
CGA:   7    -0.574639323841E+03   -0.12072E-04   -0.12282E-04 29792   0.157E-04 0.777E-05
CGA:   8    -0.574639326503E+03   -0.26617E-05   -0.29410E-05 29792   0.529E-05 0.641E-05
  16 F= -.57463933E+03 E0= -.57463933E+03  d E =-.322789E-03  mag=    36.0000
       N       E                     dE             d eps       ncg     rms          ort
SDA:   1    -0.574474500812E+03    0.16482E+00    0.00000E+00 29792   0.434E+00 0.000E+00
CGA:   2    -0.574597687126E+03   -0.12319E+00   -0.12326E+00 29792   0.181E+00-0.108E-02
CGA:   3    -0.574630247536E+03   -0.32560E-01   -0.32574E-01 29792   0.455E-01 0.429E-03
CGA:   4    -0.574637220281E+03   -0.69727E-02   -0.69906E-02 29792   0.100E-01 0.325E-03
CGA:   5    -0.574638948135E+03   -0.17279E-02   -0.17317E-02 29792   0.225E-02 0.114E-03
CGA:   6    -0.574639381591E+03   -0.43346E-03   -0.43381E-03 29792   0.609E-03 0.280E-04
CGA:   7    -0.574639503917E+03   -0.12233E-03   -0.12244E-03 29792   0.163E-03 0.292E-04
CGA:   8    -0.574639541373E+03   -0.37456E-04   -0.37047E-04 29792   0.566E-04 0.287E-04
CGA:   9    -0.574639557197E+03   -0.15824E-04   -0.15282E-04 29792   0.266E-04 0.203E-04
CGA:  10    -0.574639566640E+03   -0.94438E-05   -0.89134E-05 29792   0.151E-04 0.126E-04
  17 F= -.57463957E+03 E0= -.57463957E+03  d E =-.562927E-03  mag=    36.0000
       N       E                     dE             d eps       ncg     rms          ort
SDA:   1    -0.574624939081E+03    0.14618E-01    0.00000E+00 29792   0.387E-01 0.000E+00
CGA:   2    -0.574635811192E+03   -0.10872E-01   -0.10846E-01 29792   0.158E-01 0.353E-03
CGA:   3    -0.574638756448E+03   -0.29453E-02   -0.29419E-02 29792   0.414E-02-0.118E-03
CGA:   4    -0.574639404408E+03   -0.64796E-03   -0.64305E-03 29792   0.927E-03-0.889E-04
CGA:   5    -0.574639565813E+03   -0.16141E-03   -0.16051E-03 29792   0.216E-03-0.281E-04
CGA:   6    -0.574639604281E+03   -0.38468E-04   -0.38368E-04 29792   0.579E-04-0.418E-05
CGA:   7    -0.574639616291E+03   -0.12011E-04   -0.12040E-04 29792   0.169E-04-0.508E-05
CGA:   8    -0.574639620450E+03   -0.41582E-05   -0.51381E-05 29792   0.131E-04-0.770E-05
  18 F= -.57463962E+03 E0= -.57463962E+03  d E =-.616736E-03  mag=    36.0000
       N       E                     dE             d eps       ncg     rms          ort
SDA:   1    -0.574637656943E+03    0.19593E-02    0.00000E+00 29792   0.517E-02 0.000E+00
CGA:   2    -0.574639125861E+03   -0.14689E-02   -0.14760E-02 29792   0.235E-02-0.116E-03
CGA:   3    -0.574639500939E+03   -0.37508E-03   -0.37736E-03 29792   0.647E-03 0.369E-04
CGA:   4    -0.574639588777E+03   -0.87838E-04   -0.90720E-04 29792   0.143E-03 0.339E-04
CGA:   5    -0.574639612364E+03   -0.23587E-04   -0.24327E-04 29792   0.281E-04 0.129E-04
CGA:   6    -0.574639617801E+03   -0.54366E-05   -0.55189E-05 29792   0.803E-05 0.234E-05
  19 F= -.57463962E+03 E0= -.57463962E+03  d E =-.614087E-03  mag=    36.0000
       N       E                     dE             d eps       ncg     rms          ort
SDA:   1    -0.574623438636E+03    0.16174E-01    0.00000E+00 29792   0.438E-01 0.000E+00
CGA:   2    -0.574635510231E+03   -0.12072E-01   -0.12094E-01 29792   0.196E-01-0.365E-03
CGA:   3    -0.574638987467E+03   -0.34772E-02   -0.34813E-02 29792   0.483E-02 0.112E-03
CGA:   4    -0.574639714941E+03   -0.72747E-03   -0.73250E-03 29792   0.103E-02 0.805E-04
CGA:   5    -0.574639883654E+03   -0.16871E-03   -0.17196E-03 29792   0.226E-03 0.705E-04
CGA:   6    -0.574639924195E+03   -0.40541E-04   -0.41682E-04 29792   0.572E-04 0.328E-04
CGA:   7    -0.574639935784E+03   -0.11589E-04   -0.11899E-04 29792   0.156E-04 0.128E-04
CGA:   8    -0.574639938116E+03   -0.23320E-05   -0.28262E-05 29792   0.630E-05 0.875E-05
  20 F= -.57463994E+03 E0= -.57463994E+03  d E =-.320315E-03  mag=    36.0000
       N       E                     dE             d eps       ncg     rms          ort
SDA:   1    -0.574491782294E+03    0.14815E+00    0.00000E+00 29792   0.394E+00 0.000E+00
CGA:   2    -0.574599832007E+03   -0.10805E+00   -0.10811E+00 29792   0.174E+00-0.976E-03
CGA:   3    -0.574631368427E+03   -0.31536E-01   -0.31544E-01 29792   0.438E-01 0.338E-03
CGA:   4    -0.574637978909E+03   -0.66105E-02   -0.66233E-02 29792   0.949E-02 0.257E-03
CGA:   5    -0.574639595732E+03   -0.16168E-02   -0.16237E-02 29792   0.215E-02 0.242E-03
CGA:   6    -0.574640003004E+03   -0.40727E-03   -0.40857E-03 29792   0.568E-03 0.111E-03
CGA:   7    -0.574640121692E+03   -0.11869E-03   -0.11858E-03 29792   0.154E-03 0.411E-04
CGA:   8    -0.574640156162E+03   -0.34470E-04   -0.34106E-04 29792   0.520E-04 0.362E-04
CGA:   9    -0.574640167753E+03   -0.11592E-04   -0.11904E-04 29792   0.242E-04 0.276E-04
CGA:  10    -0.574640172946E+03   -0.51927E-05   -0.50381E-05 29792   0.129E-04 0.127E-04
  21 F= -.57464017E+03 E0= -.57464017E+03  d E =-.555145E-03  mag=    36.0000
       N       E                     dE             d eps       ncg     rms          ort
SDA:   1    -0.574620143222E+03    0.20025E-01    0.00000E+00 29792   0.528E-01 0.000E+00
CGA:   2    -0.574635375685E+03   -0.15232E-01   -0.15253E-01 29792   0.225E-01-0.241E-03
CGA:   3    -0.574639409815E+03   -0.40341E-02   -0.40349E-02 29792   0.554E-02 0.375E-04
CGA:   4    -0.574640238614E+03   -0.82880E-03   -0.83136E-03 29792   0.120E-02 0.516E-04
CGA:   5    -0.574640435108E+03   -0.19649E-03   -0.19918E-03 29792   0.260E-03 0.838E-04
CGA:   6    -0.574640483708E+03   -0.48600E-04   -0.49273E-04 29792   0.670E-04 0.379E-04
CGA:   7    -0.574640499937E+03   -0.16229E-04   -0.16120E-04 29792   0.220E-04 0.682E-05
CGA:   8    -0.574640505492E+03   -0.55548E-05   -0.54118E-05 29792   0.916E-05 0.507E-05
  22 F= -.57464051E+03 E0= -.57464051E+03  d E =-.332546E-03  mag=    36.0000
       N       E                     dE             d eps       ncg     rms          ort
SDA:   1    -0.574547127786E+03    0.93372E-01    0.00000E+00 29792   0.243E+00 0.000E+00
CGA:   2    -0.574617122677E+03   -0.69995E-01   -0.70030E-01 29792   0.103E+00-0.463E-03
CGA:   3    -0.574635738664E+03   -0.18616E-01   -0.18617E-01 29792   0.257E-01 0.612E-04
CGA:   4    -0.574639571479E+03   -0.38328E-02   -0.38384E-02 29792   0.554E-02 0.112E-03
CGA:   5    -0.574640515932E+03   -0.94445E-03   -0.94940E-03 29792   0.123E-02 0.189E-03
CGA:   6    -0.574640752071E+03   -0.23614E-03   -0.23683E-03 29792   0.316E-03 0.787E-04
CGA:   7    -0.574640823053E+03   -0.70982E-04   -0.70891E-04 29792   0.939E-04 0.544E-05
CGA:   8    -0.574640846501E+03   -0.23448E-04   -0.23198E-04 29792   0.353E-04 0.524E-05
CGA:   9    -0.574640855355E+03   -0.88533E-05   -0.85477E-05 29792   0.146E-04 0.975E-05
  23 F= -.57464086E+03 E0= -.57464086E+03  d E =-.682408E-03  mag=    36.0000
       N       E                     dE             d eps       ncg     rms          ort
SDA:   1    -0.574632618260E+03    0.82282E-02    0.00000E+00 29792   0.238E-01 0.000E+00
CGA:   2    -0.574638639206E+03   -0.60209E-02   -0.60210E-02 29792   0.106E-01-0.169E-04
CGA:   3    -0.574640572517E+03   -0.19333E-02   -0.19333E-02 29792   0.290E-02-0.201E-05
CGA:   4    -0.574641022265E+03   -0.44975E-03   -0.44975E-03 29792   0.642E-03-0.328E-06
CGA:   5    -0.574641128651E+03   -0.10639E-03   -0.10668E-03 29792   0.149E-03 0.878E-05
CGA:   6    -0.574641156533E+03   -0.27882E-04   -0.27955E-04 29792   0.419E-04 0.597E-05
CGA:   7    -0.574641166486E+03   -0.99535E-05   -0.10024E-04 29792   0.150E-04-0.214E-05
  24 F= -.57464117E+03 E0= -.57464117E+03  d E =-.311132E-03  mag=    36.0000
