       N       E                     dE             d eps       ncg     rms          rms(c)
DAV:   1     0.538513187394E+04    0.53851E+04   -0.23795E+05 30904   0.153E+03
DAV:   2     0.275031037342E+03   -0.51101E+04   -0.48550E+04 30560   0.451E+02
DAV:   3    -0.378097888076E+03   -0.65313E+03   -0.63813E+03 32680   0.173E+02
DAV:   4    -0.403330127927E+03   -0.25232E+02   -0.24811E+02 37160   0.392E+01
DAV:   5    -0.404292457140E+03   -0.96233E+00   -0.95840E+00 43640   0.673E+00    0.918E+01
DAV:   6    -0.302199128101E+03    0.10209E+03   -0.33574E+02 38936   0.628E+01    0.882E+01
DAV:   7    -0.322578957811E+03   -0.20380E+02   -0.29688E+02 37400   0.861E+01    0.737E+01
DAV:   8    -0.348330373860E+03   -0.25751E+02   -0.18683E+02 38720   0.503E+01    0.119E+02
DAV:   9    -0.296787696304E+03    0.51543E+02   -0.15786E+02 35880   0.335E+01    0.562E+01
DAV:  10    -0.294311566147E+03    0.24761E+01   -0.38276E+01 40056   0.219E+01    0.638E+01
DAV:  11    -0.295832918915E+03   -0.15214E+01   -0.78595E+01 40656   0.186E+01    0.645E+01
DAV:  12    -0.288388606074E+03    0.74443E+01   -0.26383E+01 39880   0.159E+01    0.498E+01
DAV:  13    -0.288847601300E+03   -0.45900E+00   -0.27544E+01 39896   0.134E+01    0.443E+01
DAV:  14    -0.294063199382E+03   -0.52156E+01   -0.45948E+01 40384   0.111E+01    0.480E+01
DAV:  15    -0.297922692919E+03   -0.38595E+01   -0.19112E+01 39368   0.932E+00    0.330E+01
DAV:  16    -0.300299986143E+03   -0.23773E+01   -0.17553E+01 37976   0.636E+00    0.262E+01
DAV:  17    -0.304022188357E+03   -0.37222E+01   -0.56137E+00 38488   0.503E+00    0.253E+01
DAV:  18    -0.307622878110E+03   -0.36007E+01   -0.17569E+00 35880   0.311E+00    0.238E+01
DAV:  19    -0.308475513894E+03   -0.85264E+00   -0.40972E-01 35968   0.177E+00    0.217E+01
DAV:  20    -0.308885332617E+03   -0.40982E+00   -0.39947E-02 31320   0.570E-01    0.217E+01
DAV:  21    -0.309150903948E+03   -0.26557E+00   -0.35008E-02 40176   0.514E-01    0.214E+01
DAV:  22    -0.309020434750E+03    0.13047E+00   -0.16772E-01 41400   0.115E+00    0.218E+01
DAV:  23    -0.309986329442E+03   -0.96589E+00   -0.85676E-01 41184   0.218E+00    0.216E+01
DAV:  24    -0.311462794939E+03   -0.14765E+01   -0.19298E+00 40816   0.316E+00    0.223E+01
DAV:  25    -0.315245552269E+03   -0.37828E+01   -0.50771E+00 38792   0.393E+00    0.224E+01
DAV:  26    -0.320881844188E+03   -0.56363E+01   -0.21159E+00 36672   0.386E+00    0.230E+01
DAV:  27    -0.322838607844E+03   -0.19568E+01   -0.82245E-01 37368   0.285E+00    0.246E+01
DAV:  28    -0.324913551650E+03   -0.20749E+01   -0.12403E+00 37960   0.275E+00    0.206E+01
DAV:  29    -0.326911957128E+03   -0.19984E+01   -0.10830E+00 37896   0.249E+00    0.188E+01
DAV:  30    -0.329604178433E+03   -0.26922E+01   -0.10762E+00 37352   0.239E+00    0.177E+01
DAV:  31    -0.331909446595E+03   -0.23053E+01   -0.11906E+00 37896   0.260E+00    0.193E+01
DAV:  32    -0.332514589639E+03   -0.60514E+00   -0.21075E-01 35360   0.138E+00    0.186E+01
DAV:  33    -0.333949874930E+03   -0.14353E+01   -0.27772E-01 38320   0.159E+00    0.181E+01
DAV:  34    -0.336088216789E+03   -0.21383E+01   -0.72696E-01 37560   0.225E+00    0.179E+01
DAV:  35    -0.338627783350E+03   -0.25396E+01   -0.85729E-01 38240   0.248E+00    0.204E+01
DAV:  36    -0.339805766042E+03   -0.11780E+01   -0.29949E-01 36912   0.143E+00    0.212E+01
DAV:  37    -0.340480813035E+03   -0.67505E+00   -0.22736E-01 38336   0.145E+00    0.189E+01
DAV:  38    -0.340719317593E+03   -0.23850E+00   -0.57686E-02 32344   0.771E-01    0.193E+01
DAV:  39    -0.340724050793E+03   -0.47332E-02   -0.91887E-03 31352   0.304E-01    0.194E+01
DAV:  40    -0.340664402225E+03    0.59649E-01   -0.15843E-02 39840   0.410E-01    0.180E+01
DAV:  41    -0.341213138685E+03   -0.54874E+00   -0.21126E-01 37672   0.154E+00    0.156E+01
DAV:  42    -0.341461032515E+03   -0.24789E+00   -0.14242E-01 37432   0.101E+00    0.169E+01
DAV:  43    -0.341439024438E+03    0.22008E-01   -0.41652E-02 37232   0.742E-01    0.163E+01
DAV:  44    -0.341603438662E+03   -0.16441E+00   -0.11129E-01 38032   0.104E+00    0.136E+01
DAV:  45    -0.341926855410E+03   -0.32342E+00   -0.15861E-01 38360   0.116E+00    0.115E+01
DAV:  46    -0.342034963008E+03   -0.10811E+00   -0.47004E-02 34000   0.761E-01    0.118E+01
DAV:  47    -0.342037339662E+03   -0.23767E-02   -0.11278E-02 40016   0.343E-01    0.123E+01
DAV:  48    -0.342024915960E+03    0.12424E-01   -0.17836E-02 38688   0.378E-01    0.118E+01
DAV:  49    -0.342051330759E+03   -0.26415E-01   -0.27018E-03 34512   0.147E-01    0.117E+01
DAV:  50    -0.342092151407E+03   -0.40821E-01   -0.56359E-03 39784   0.259E-01    0.111E+01
DAV:  51    -0.342288169799E+03   -0.19602E+00   -0.30156E-01 38864   0.176E+00    0.903E+00
DAV:  52    -0.342496860836E+03   -0.20869E+00   -0.22644E-01 37808   0.135E+00    0.149E+01
DAV:  53    -0.342501391796E+03   -0.45310E-02   -0.54849E-02 30456   0.763E-01    0.166E+01
DAV:  54    -0.342389234709E+03    0.11216E+00   -0.39311E-02 36200   0.437E-01    0.146E+01
DAV:  55    -0.342462793420E+03   -0.73559E-01   -0.28131E-02 38312   0.527E-01    0.113E+01
DAV:  56    -0.342758389147E+03   -0.29560E+00   -0.81302E-01 37584   0.128E+00    0.174E+01
DAV:  57    -0.342630757495E+03    0.12763E+00   -0.50266E-02 30856   0.757E-01    0.163E+01
DAV:  58    -0.342623502109E+03    0.72554E-02   -0.86485E-03 35744   0.280E-01    0.160E+01
DAV:  59    -0.342618226666E+03    0.52754E-02   -0.13209E-02 38216   0.307E-01    0.153E+01
DAV:  60    -0.342569124381E+03    0.49102E-01   -0.19540E-01 38776   0.269E-01    0.103E+01
DAV:  61    -0.342897729861E+03   -0.32861E+00   -0.30573E-01 36960   0.152E+00    0.102E+01
DAV:  62    -0.343001774580E+03   -0.10404E+00   -0.90997E-02 35264   0.970E-01    0.124E+01
DAV:  63    -0.342931052351E+03    0.70722E-01   -0.98622E-02 37776   0.765E-01    0.109E+01
DAV:  64    -0.342944334977E+03   -0.13283E-01   -0.55215E-02 36208   0.456E-01    0.101E+01
DAV:  65    -0.342950935567E+03   -0.66006E-02   -0.82785E-03 31512   0.212E-01    0.101E+01
DAV:  66    -0.342895065055E+03    0.55871E-01   -0.10215E-01 39912   0.879E-01    0.106E+01
DAV:  67    -0.342881989494E+03    0.13076E-01   -0.99455E-02 40688   0.796E-01    0.105E+01
DAV:  68    -0.342876236472E+03    0.57530E-02   -0.56585E-02 39264   0.610E-01    0.937E+00
DAV:  69    -0.342844064899E+03    0.32172E-01   -0.64360E-02 38712   0.562E-01    0.664E+00
DAV:  70    -0.342910916681E+03   -0.66852E-01   -0.30440E-02 35976   0.472E-01    0.602E+00
DAV:  71    -0.342971203163E+03   -0.60286E-01   -0.12127E-01 41120   0.901E-01    0.642E+00
DAV:  72    -0.342963107658E+03    0.80955E-02   -0.17833E-02 34720   0.421E-01    0.668E+00
DAV:  73    -0.342951788643E+03    0.11319E-01   -0.12602E-02 40336   0.295E-01    0.681E+00
DAV:  74    -0.342946459982E+03    0.53287E-02   -0.33505E-02 40712   0.473E-01    0.697E+00
DAV:  75    -0.342938794326E+03    0.76657E-02   -0.72489E-03 34208   0.278E-01    0.699E+00
DAV:  76    -0.342974315007E+03   -0.35521E-01   -0.46966E-02 40304   0.547E-01    0.802E+00
DAV:  77    -0.342974587696E+03   -0.27269E-03   -0.75940E-03 33576   0.312E-01    0.827E+00
DAV:  78    -0.342968363327E+03    0.62244E-02   -0.10110E-03 31384   0.103E-01    0.835E+00
DAV:  79    -0.342973150170E+03   -0.47868E-02   -0.33516E-03 41016   0.223E-01    0.812E+00
DAV:  80    -0.342979308663E+03   -0.61585E-02   -0.72106E-03 38376   0.256E-01    0.822E+00
DAV:  81    -0.342928041320E+03    0.51267E-01   -0.20056E-01 41368   0.118E+00    0.967E+00
DAV:  82    -0.342913851290E+03    0.14190E-01   -0.78963E-02 36600   0.648E-01    0.101E+01
DAV:  83    -0.342896135218E+03    0.17716E-01   -0.11737E-02 33344   0.265E-01    0.104E+01
DAV:  84    -0.342930486827E+03   -0.34352E-01   -0.46135E-02 40968   0.332E-01    0.112E+01
DAV:  85    -0.342948192735E+03   -0.17706E-01   -0.17198E-02 35872   0.322E-01    0.108E+01
DAV:  86    -0.342883223202E+03    0.64970E-01   -0.52463E-02 41032   0.448E-01    0.104E+01
DAV:  87    -0.342868251216E+03    0.14972E-01   -0.12941E-02 35008   0.329E-01    0.998E+00
DAV:  88    -0.342662248448E+03    0.20600E+00   -0.17387E-01 40144   0.931E-01    0.977E+00
DAV:  89    -0.342497407999E+03    0.16484E+00   -0.10758E-01 36592   0.734E-01    0.103E+01
DAV:  90    -0.342468019002E+03    0.29389E-01   -0.17906E-02 31368   0.422E-01    0.104E+01
DAV:  91    -0.342432681166E+03    0.35338E-01   -0.19693E-02 41488   0.409E-01    0.109E+01
DAV:  92    -0.342452628577E+03   -0.19947E-01   -0.11409E-02 33368   0.294E-01    0.119E+01
DAV:  93    -0.342422917840E+03    0.29711E-01   -0.48733E-03 39088   0.226E-01    0.128E+01
DAV:  94    -0.342407785145E+03    0.15133E-01   -0.22859E-03 34344   0.122E-01    0.126E+01
DAV:  95    -0.342372023588E+03    0.35762E-01   -0.33322E-03 40872   0.168E-01    0.119E+01
DAV:  96    -0.342408436995E+03   -0.36413E-01   -0.32392E-02 39448   0.453E-01    0.113E+01
DAV:  97    -0.342416603435E+03   -0.81664E-02   -0.33204E-03 30760   0.183E-01    0.114E+01
DAV:  98    -0.342426908272E+03   -0.10305E-01   -0.65513E-03 38784   0.221E-01    0.112E+01
DAV:  99    -0.342464455726E+03   -0.37547E-01   -0.21385E-02 39736   0.418E-01    0.102E+01
DAV: 100    -0.342495256104E+03   -0.30800E-01   -0.84954E-03 38768   0.275E-01    0.976E+00
DAV: 101    -0.342842695697E+03   -0.34744E+00   -0.27891E-01 39992   0.170E+00    0.743E+00
DAV: 102    -0.342893648971E+03   -0.50953E-01   -0.37985E-02 31296   0.584E-01    0.741E+00
DAV: 103    -0.342903580785E+03   -0.99318E-02   -0.44910E-03 31232   0.208E-01    0.755E+00
DAV: 104    -0.342900339690E+03    0.32411E-02   -0.40057E-04 31448   0.599E-02    0.758E+00
DAV: 105    -0.342869371486E+03    0.30968E-01   -0.88559E-03 37952   0.310E-01    0.737E+00
DAV: 106    -0.342882105588E+03   -0.12734E-01   -0.73988E-01 40824   0.247E+00    0.969E+00
DAV: 107    -0.342879075003E+03    0.30306E-02   -0.11342E-01 34032   0.105E+00    0.939E+00
DAV: 108    -0.342874740626E+03    0.43344E-02   -0.94098E-03 30720   0.277E-01    0.937E+00
DAV: 109    -0.342863328479E+03    0.11412E-01   -0.56059E-03 39632   0.267E-01    0.926E+00
DAV: 110    -0.342843016830E+03    0.20312E-01   -0.21473E-02 38728   0.468E-01    0.895E+00
DAV: 111    -0.342748748851E+03    0.94268E-01   -0.12868E-01 39696   0.127E+00    0.861E+00
DAV: 112    -0.342687699648E+03    0.61049E-01   -0.66066E-02 39168   0.887E-01    0.919E+00
DAV: 113    -0.342702623131E+03   -0.14923E-01   -0.14295E-02 31336   0.377E-01    0.972E+00
DAV: 114    -0.342700692007E+03    0.19311E-02   -0.20548E-02 40640   0.487E-01    0.121E+01
DAV: 115    -0.342654053290E+03    0.46639E-01   -0.81615E-03 31904   0.271E-01    0.124E+01
DAV: 116    -0.342630987653E+03    0.23066E-01   -0.63628E-02 41064   0.729E-01    0.107E+01
DAV: 117    -0.342673042439E+03   -0.42055E-01   -0.96161E-03 35424   0.345E-01    0.109E+01
DAV: 118    -0.342748837335E+03   -0.75795E-01   -0.50702E-02 39968   0.651E-01    0.966E+00
DAV: 119    -0.342876960821E+03   -0.12812E+00   -0.10386E-01 41368   0.861E-01    0.731E+00
DAV: 120    -0.342954736025E+03   -0.77775E-01   -0.40470E-02 34096   0.655E-01    0.726E+00
DAV: 121    -0.342968034238E+03   -0.13298E-01   -0.24726E-02 40008   0.450E-01    0.697E+00
DAV: 122    -0.342979140839E+03   -0.11107E-01   -0.37849E-03 33728   0.204E-01    0.680E+00
DAV: 123    -0.342984983802E+03   -0.58430E-02   -0.75127E-04 32056   0.705E-02    0.679E+00
DAV: 124    -0.342979913179E+03    0.50706E-02   -0.61083E-04 39880   0.714E-02    0.692E+00
DAV: 125    -0.342991841337E+03   -0.11928E-01   -0.36665E-02 40208   0.453E-01    0.611E+00
DAV: 126    -0.343028628261E+03   -0.36787E-01   -0.82759E-02 39496   0.564E-01    0.771E+00
DAV: 127    -0.342976567781E+03    0.52060E-01   -0.29125E-02 32120   0.437E-01    0.635E+00
DAV: 128    -0.342999467171E+03   -0.22899E-01   -0.16218E-02 36280   0.306E-01    0.619E+00
DAV: 129    -0.342996808535E+03    0.26586E-02   -0.74518E-03 35840   0.200E-01    0.595E+00
DAV: 130    -0.342978275088E+03    0.18533E-01   -0.95440E-03 40912   0.162E-01    0.569E+00
DAV: 131    -0.343083942500E+03   -0.10567E+00   -0.10867E-01 39352   0.704E-01    0.629E+00
DAV: 132    -0.343083649601E+03    0.29290E-03   -0.30398E-02 39040   0.423E-01    0.585E+00
DAV: 133    -0.343084821710E+03   -0.11721E-02   -0.32524E-03 31728   0.157E-01    0.578E+00
DAV: 134    -0.343094263499E+03   -0.94418E-02   -0.12786E-02 41456   0.285E-01    0.542E+00
DAV: 135    -0.343109386702E+03   -0.15123E-01   -0.10644E-02 38456   0.274E-01    0.513E+00
DAV: 136    -0.343104791682E+03    0.45950E-02   -0.46210E-02 40672   0.501E-01    0.415E+00
DAV: 137    -0.343110047996E+03   -0.52563E-02   -0.31498E-02 40264   0.391E-01    0.373E+00
DAV: 138    -0.343109158044E+03    0.88995E-03   -0.54431E-03 34320   0.151E-01    0.363E+00
DAV: 139    -0.343099027319E+03    0.10131E-01   -0.73383E-03 40152   0.150E-01    0.370E+00
DAV: 140    -0.343074551365E+03    0.24476E-01   -0.21948E-02 39928   0.290E-01    0.374E+00
DAV: 141    -0.343031146253E+03    0.43405E-01   -0.44787E-02 40336   0.481E-01    0.389E+00
DAV: 142    -0.342985182984E+03    0.45963E-01   -0.32530E-02 40280   0.374E-01    0.428E+00
DAV: 143    -0.342960148936E+03    0.25034E-01   -0.84043E-03 36968   0.187E-01    0.451E+00
DAV: 144    -0.342939434024E+03    0.20715E-01   -0.55233E-03 39336   0.123E-01    0.463E+00
DAV: 145    -0.342949077488E+03   -0.96435E-02   -0.16648E-03 33728   0.109E-01    0.459E+00
DAV: 146    -0.343075591797E+03   -0.12651E+00   -0.29178E-01 39808   0.125E+00    0.373E+00
DAV: 147    -0.343083021113E+03   -0.74293E-02   -0.25347E-02 31544   0.426E-01    0.375E+00
DAV: 148    -0.343045855256E+03    0.37166E-01   -0.32788E-02 38416   0.324E-01    0.415E+00
DAV: 149    -0.343008037904E+03    0.37817E-01   -0.19185E-02 39208   0.279E-01    0.457E+00
DAV: 150    -0.342967744773E+03    0.40293E-01   -0.24943E-02 38880   0.288E-01    0.504E+00
DAV: 151    -0.342984510686E+03   -0.16766E-01   -0.22481E-02 38144   0.450E-01    0.439E+00
DAV: 152    -0.342974356780E+03    0.10154E-01   -0.67377E-03 34808   0.246E-01    0.465E+00
DAV: 153    -0.342956685289E+03    0.17671E-01   -0.54663E-03 39296   0.184E-01    0.494E+00
DAV: 154    -0.342951058160E+03    0.56271E-02   -0.39937E-03 38200   0.136E-01    0.503E+00
DAV: 155    -0.342937375974E+03    0.13682E-01   -0.16340E-03 39424   0.875E-02    0.514E+00
DAV: 156    -0.342926943348E+03    0.10433E-01   -0.26282E-03 40576   0.110E-01    0.520E+00
DAV: 157    -0.342931207360E+03   -0.42640E-02   -0.10131E-03 38920   0.819E-02    0.509E+00
DAV: 158    -0.342918886284E+03    0.12321E-01   -0.47911E-03 40440   0.136E-01    0.514E+00
DAV: 159    -0.342918033904E+03    0.85238E-03   -0.37897E-04 31088   0.485E-02    0.514E+00
DAV: 160    -0.342911540010E+03    0.64939E-02   -0.22759E-03 40072   0.737E-02    0.516E+00
DAV: 161    -0.342895300097E+03    0.16240E-01   -0.13992E-01 38760   0.626E-01    0.474E+00
DAV: 162    -0.342905403778E+03   -0.10104E-01   -0.60199E-03 30816   0.239E-01    0.459E+00
DAV: 163    -0.342887146228E+03    0.18258E-01   -0.21815E-03 36640   0.131E-01    0.484E+00
DAV: 164    -0.342855828680E+03    0.31318E-01   -0.48997E-03 40144   0.210E-01    0.523E+00
DAV: 165    -0.342873679561E+03   -0.17851E-01   -0.39591E-03 34520   0.151E-01    0.505E+00
DAV: 166    -0.342883679829E+03   -0.10000E-01   -0.10556E-02 37976   0.206E-01    0.465E+00
DAV: 167    -0.342881406622E+03    0.22732E-02   -0.37892E-03 34536   0.153E-01    0.474E+00
DAV: 168    -0.342917490341E+03   -0.36084E-01   -0.42709E-03 39000   0.165E-01    0.451E+00
DAV: 169    -0.342922540686E+03   -0.50503E-02   -0.40443E-03 39184   0.146E-01    0.470E+00
DAV: 170    -0.342925741889E+03   -0.32012E-02   -0.11994E-03 33416   0.782E-02    0.462E+00
DAV: 171    -0.343228936882E+03   -0.30319E+00   -0.72722E-01 39120   0.191E+00    0.107E+01
DAV: 172    -0.342654097466E+03    0.57484E+00   -0.67748E+00 37936   0.206E+00    0.575E+00
DAV: 173    -0.342838873257E+03   -0.18478E+00   -0.16743E-01 36216   0.777E-01    0.788E+00
DAV: 174    -0.342852117453E+03   -0.13244E-01   -0.13975E-02 30040   0.366E-01    0.805E+00
DAV: 175    -0.342849333039E+03    0.27844E-02   -0.10760E-03 32128   0.931E-02    0.807E+00
DAV: 176    -0.342855615845E+03   -0.62828E-02   -0.86559E-03 39856   0.253E-01    0.757E+00
DAV: 177    -0.342855873406E+03   -0.25756E-03   -0.35495E-03 40816   0.215E-01    0.744E+00
DAV: 178    -0.342881077832E+03   -0.25204E-01   -0.10749E-02 40048   0.289E-01    0.688E+00
DAV: 179    -0.342913902944E+03   -0.32825E-01   -0.33391E-02 40704   0.357E-01    0.623E+00
DAV: 180    -0.342942845787E+03   -0.28943E-01   -0.17143E-02 39232   0.201E-01    0.588E+00
DAV: 181    -0.342946747546E+03   -0.39018E-02   -0.46221E-03 33168   0.206E-01    0.625E+00
DAV: 182    -0.342969446596E+03   -0.22699E-01   -0.58333E-03 39128   0.176E-01    0.596E+00
DAV: 183    -0.343005978363E+03   -0.36532E-01   -0.24706E-02 39344   0.226E-01    0.531E+00
DAV: 184    -0.343016464972E+03   -0.10487E-01   -0.20810E-03 31368   0.116E-01    0.522E+00
DAV: 185    -0.343016048360E+03    0.41661E-03   -0.62673E-04 34088   0.595E-02    0.526E+00
DAV: 186    -0.343029151602E+03   -0.13103E-01   -0.48107E-03 39376   0.165E-01    0.523E+00
DAV: 187    -0.343046502060E+03   -0.17350E-01   -0.95002E-03 39176   0.177E-01    0.540E+00
DAV: 188    -0.343072057778E+03   -0.25556E-01   -0.33710E-02 38832   0.237E-01    0.526E+00
DAV: 189    -0.343092790440E+03   -0.20733E-01   -0.19782E-02 39968   0.157E-01    0.490E+00
DAV: 190    -0.343096589210E+03   -0.37988E-02   -0.12387E-03 30184   0.884E-02    0.487E+00
DAV: 191    -0.343081465508E+03    0.15124E-01   -0.70354E-03 37320   0.151E-01    0.537E+00
DAV: 192    -0.343080064796E+03    0.14007E-02   -0.52365E-04 30160   0.645E-02    0.543E+00
DAV: 193    -0.343092432537E+03   -0.12368E-01   -0.13175E-02 38008   0.177E-01    0.491E+00
DAV: 194    -0.343101453744E+03   -0.90212E-02   -0.50789E-03 37768   0.984E-02    0.460E+00
DAV: 195    -0.343103787089E+03   -0.23333E-02   -0.92798E-04 31592   0.643E-02    0.452E+00
DAV: 196    -0.343123477355E+03   -0.19690E-01   -0.31134E-02 38912   0.187E-01    0.449E+00
DAV: 197    -0.343126203863E+03   -0.27265E-02   -0.92926E-03 35096   0.131E-01    0.474E+00
DAV: 198    -0.343116286928E+03    0.99169E-02   -0.30662E-02 35960   0.210E-01    0.422E+00
DAV: 199    -0.343118260937E+03   -0.19740E-02   -0.14204E-02 39368   0.149E-01    0.391E+00
DAV: 200    -0.343133463714E+03   -0.15203E-01   -0.28665E-02 39488   0.215E-01
   1 F= -.34313346E+03 E0= -.34311663E+03  d E =-.343133E+03  mag=    14.5428
       N       E                     dE             d eps       ncg     rms          rms(c)
DAV:   1    -0.343173282045E+03   -0.55021E-01   -0.32364E-02 41448   0.280E-01    0.513E+00
DAV:   2    -0.345044627412E+03   -0.18713E+01   -0.89086E+00 41216   0.435E+00    0.281E+01
DAV:   3    -0.343074834036E+03    0.19698E+01   -0.93312E-01 39568   0.379E+00    0.110E+01
DAV:   4    -0.343341979875E+03   -0.26715E+00   -0.10315E-01 32160   0.935E-01    0.125E+01
DAV:   5    -0.343285506053E+03    0.56474E-01   -0.18219E-02 35552   0.415E-01    0.119E+01
DAV:   6    -0.343244494360E+03    0.41012E-01   -0.41886E-02 40952   0.649E-01    0.110E+01
DAV:   7    -0.343224556245E+03    0.19938E-01   -0.17737E-01 40792   0.137E+00    0.116E+01
DAV:   8    -0.343184107194E+03    0.40449E-01   -0.12219E-01 40480   0.133E+00    0.114E+01
DAV:   9    -0.343206624682E+03   -0.22517E-01   -0.37496E-02 30240   0.611E-01    0.132E+01
DAV:  10    -0.343087345431E+03    0.11928E+00   -0.41471E-02 40552   0.484E-01    0.983E+00
DAV:  11    -0.343096086090E+03   -0.87407E-02   -0.68983E-02 40760   0.527E-01    0.904E+00
DAV:  12    -0.343119506117E+03   -0.23420E-01   -0.87919E-02 40128   0.542E-01    0.922E+00
DAV:  13    -0.343121776989E+03   -0.22709E-02   -0.75222E-03 30968   0.236E-01    0.964E+00
DAV:  14    -0.343114300811E+03    0.74762E-02   -0.60599E-04 30896   0.855E-02    0.970E+00
DAV:  15    -0.343120460130E+03   -0.61593E-02   -0.41337E-02 41144   0.402E-01    0.102E+01
DAV:  16    -0.343113049378E+03    0.74108E-02   -0.17083E-02 39648   0.303E-01    0.981E+00
DAV:  17    -0.343115319799E+03   -0.22704E-02   -0.10090E-02 39704   0.191E-01    0.932E+00
DAV:  18    -0.343123890552E+03   -0.85708E-02   -0.56092E-02 41264   0.611E-01    0.904E+00
DAV:  19    -0.343125084181E+03   -0.11936E-02   -0.16697E-02 38512   0.372E-01    0.770E+00
DAV:  20    -0.343130353635E+03   -0.52695E-02   -0.12307E-02 38504   0.306E-01    0.582E+00
DAV:  21    -0.343167243787E+03   -0.36890E-01   -0.81656E-02 40480   0.614E-01    0.579E+00
DAV:  22    -0.343187266320E+03   -0.20023E-01   -0.20239E-02 36904   0.406E-01    0.658E+00
DAV:  23    -0.343180740280E+03    0.65260E-02   -0.13980E-02 39368   0.333E-01    0.764E+00
DAV:  24    -0.343189094058E+03   -0.83538E-02   -0.33485E-03 33896   0.175E-01    0.865E+00
DAV:  25    -0.343171891665E+03    0.17202E-01   -0.40268E-03 33832   0.147E-01    0.922E+00
DAV:  26    -0.343153444916E+03    0.18447E-01   -0.59700E-03 37088   0.210E-01    0.981E+00
DAV:  27    -0.343156767879E+03   -0.33230E-02   -0.37823E-03 35856   0.129E-01    0.101E+01
DAV:  28    -0.343151843446E+03    0.49244E-02   -0.50120E-04 30328   0.686E-02    0.102E+01
DAV:  29    -0.343148821322E+03    0.30221E-02   -0.53361E-05 28816   0.228E-02    0.102E+01
DAV:  30    -0.343153780616E+03   -0.49593E-02   -0.56210E-03 38920   0.252E-01    0.954E+00
DAV:  31    -0.343154830262E+03   -0.10496E-02   -0.51657E-02 40760   0.591E-01    0.824E+00
DAV:  32    -0.343189921337E+03   -0.35091E-01   -0.89509E-02 39176   0.522E-01    0.941E+00
DAV:  33    -0.343182843477E+03    0.70779E-02   -0.83372E-03 31568   0.252E-01    0.973E+00
DAV:  34    -0.343175123043E+03    0.77204E-02   -0.71217E-04 32824   0.793E-02    0.960E+00
DAV:  35    -0.343173047613E+03    0.20754E-02   -0.10205E-04 31712   0.303E-02    0.940E+00
DAV:  36    -0.343176279772E+03   -0.32322E-02   -0.12678E-04 32352   0.363E-02    0.940E+00
DAV:  37    -0.343180125032E+03   -0.38453E-02   -0.31589E-04 38920   0.489E-02    0.948E+00
DAV:  38    -0.343180909821E+03   -0.78479E-03   -0.13143E-04 29664   0.257E-02    0.952E+00
DAV:  39    -0.343186252704E+03   -0.53429E-02   -0.14422E-02 39416   0.250E-01    0.104E+01
DAV:  40    -0.343177647810E+03    0.86049E-02   -0.14320E-03 31472   0.108E-01    0.106E+01
DAV:  41    -0.343175526484E+03    0.21213E-02   -0.69337E-04 37608   0.666E-02    0.105E+01
DAV:  42    -0.343176341241E+03   -0.81476E-03   -0.62304E-04 39656   0.653E-02    0.105E+01
DAV:  43    -0.343171133767E+03    0.52075E-02   -0.31980E-03 39712   0.120E-01    0.102E+01
DAV:  44    -0.343164168351E+03    0.69654E-02   -0.65041E-03 40496   0.174E-01    0.965E+00
DAV:  45    -0.343164521794E+03   -0.35344E-03   -0.25432E-02 40040   0.314E-01    0.919E+00
DAV:  46    -0.343170719467E+03   -0.61977E-02   -0.82134E-03 34656   0.202E-01    0.867E+00
DAV:  47    -0.343189440690E+03   -0.18721E-01   -0.15575E-01 40672   0.838E-01    0.968E+00
DAV:  48    -0.343193283077E+03   -0.38424E-02   -0.14252E-02 31104   0.355E-01    0.977E+00
DAV:  49    -0.343159829826E+03    0.33453E-01   -0.32886E-02 40552   0.393E-01    0.783E+00
DAV:  50    -0.343185418483E+03   -0.25589E-01   -0.17696E-02 35976   0.287E-01    0.817E+00
DAV:  51    -0.343179390297E+03    0.60282E-02   -0.24561E-03 33136   0.122E-01    0.777E+00
DAV:  52    -0.343146638205E+03    0.32752E-01   -0.57657E-02 40032   0.734E-01    0.668E+00
DAV:  53    -0.343162511950E+03   -0.15874E-01   -0.83088E-03 31632   0.261E-01    0.642E+00
DAV:  54    -0.343168138589E+03   -0.56266E-02   -0.21573E-02 39944   0.275E-01    0.619E+00
DAV:  55    -0.343180661705E+03   -0.12523E-01   -0.27831E-02 39832   0.334E-01    0.604E+00
DAV:  56    -0.343183635481E+03   -0.29738E-02   -0.19765E-03 30344   0.118E-01    0.602E+00
DAV:  57    -0.343171249926E+03    0.12386E-01   -0.82514E-02 39024   0.751E-01    0.718E+00
DAV:  58    -0.343161282001E+03    0.99679E-02   -0.19518E-02 36688   0.343E-01    0.758E+00
DAV:  59    -0.343158880603E+03    0.24014E-02   -0.36553E-03 32680   0.177E-01    0.786E+00
DAV:  60    -0.343157822139E+03    0.10585E-02   -0.14327E-02 39656   0.199E-01    0.824E+00
DAV:  61    -0.343179541467E+03   -0.21719E-01   -0.16355E-02 39792   0.317E-01    0.857E+00
DAV:  62    -0.343180563026E+03   -0.10216E-02   -0.19433E-01 39768   0.642E-01    0.843E+00
DAV:  63    -0.343224023345E+03   -0.43460E-01   -0.30241E-02 36848   0.335E-01    0.901E+00
DAV:  64    -0.343220080302E+03    0.39430E-02   -0.17259E-02 37024   0.303E-01    0.868E+00
DAV:  65    -0.343218458026E+03    0.16223E-02   -0.65754E-03 39112   0.219E-01    0.862E+00
DAV:  66    -0.343213994959E+03    0.44631E-02   -0.16199E-02 40080   0.296E-01    0.904E+00
DAV:  67    -0.343204663144E+03    0.93318E-02   -0.34179E-02 39760   0.516E-01    0.105E+01
DAV:  68    -0.343130509894E+03    0.74153E-01   -0.92602E-02 40024   0.691E-01    0.628E+00
DAV:  69    -0.343176297815E+03   -0.45788E-01   -0.13574E-02 31768   0.351E-01    0.522E+00
DAV:  70    -0.343191600200E+03   -0.15302E-01   -0.51958E-03 34808   0.234E-01    0.532E+00
DAV:  71    -0.343187929376E+03    0.36708E-02   -0.11563E-02 39456   0.287E-01    0.468E+00
DAV:  72    -0.343189534799E+03   -0.16054E-02   -0.27182E-01 40336   0.109E+00    0.338E+00
DAV:  73    -0.343198260190E+03   -0.87254E-02   -0.24491E-02 32952   0.436E-01    0.332E+00
DAV:  74    -0.343195845029E+03    0.24152E-02   -0.19121E-03 30744   0.134E-01    0.334E+00
DAV:  75    -0.343193062992E+03    0.27820E-02   -0.76204E-04 38848   0.653E-02    0.334E+00
DAV:  76    -0.343193343547E+03   -0.28055E-03   -0.57510E-05 30216   0.232E-02    0.334E+00
DAV:  77    -0.343191199508E+03    0.21440E-02   -0.31402E-02 40040   0.428E-01    0.310E+00
DAV:  78    -0.343203837207E+03   -0.12638E-01   -0.17080E-02 38864   0.373E-01    0.289E+00
DAV:  79    -0.343206352798E+03   -0.25156E-02   -0.12874E-01 39712   0.536E-01    0.273E+00
DAV:  80    -0.343206023588E+03    0.32921E-03   -0.67922E-02 39720   0.478E-01    0.199E+00
DAV:  81    -0.343208137439E+03   -0.21139E-02   -0.32056E-02 38304   0.357E-01    0.222E+00
DAV:  82    -0.343197990400E+03    0.10147E-01   -0.73160E-02 39984   0.612E-01    0.230E+00
DAV:  83    -0.343206069764E+03   -0.80794E-02   -0.29978E-02 37000   0.401E-01    0.189E+00
DAV:  84    -0.343208937859E+03   -0.28681E-02   -0.12565E-02 39008   0.237E-01    0.212E+00
DAV:  85    -0.343211670453E+03   -0.27326E-02   -0.18216E-02 38104   0.254E-01    0.280E+00
DAV:  86    -0.343209713032E+03    0.19574E-02   -0.19298E-03 30016   0.142E-01    0.313E+00
DAV:  87    -0.343203192212E+03    0.65208E-02   -0.41390E-03 39792   0.198E-01    0.209E+00
DAV:  88    -0.343206315612E+03   -0.31234E-02   -0.10754E-02 36744   0.186E-01    0.218E+00
DAV:  89    -0.343206822222E+03   -0.50661E-03   -0.13209E-03 37400   0.102E-01    0.200E+00
DAV:  90    -0.343207920184E+03   -0.10980E-02   -0.10616E-03 40072   0.752E-02    0.211E+00
DAV:  91    -0.343207955455E+03   -0.35271E-04   -0.10435E-03 38152   0.745E-02    0.219E+00
DAV:  92    -0.343207445699E+03    0.50976E-03   -0.40452E-03 37936   0.141E-01    0.192E+00
DAV:  93    -0.343207785333E+03   -0.33963E-03   -0.28036E-04 32768   0.554E-02    0.189E+00
DAV:  94    -0.343207629179E+03    0.15615E-03   -0.33806E-04 35768   0.447E-02    0.185E+00
DAV:  95    -0.343206897513E+03    0.73167E-03   -0.25241E-04 37272   0.544E-02    0.169E+00
DAV:  96    -0.343206270568E+03    0.62694E-03   -0.23631E-04 37632   0.472E-02    0.147E+00
DAV:  97    -0.343205748159E+03    0.52241E-03   -0.80922E-04 38976   0.921E-02    0.124E+00
DAV:  98    -0.343206748927E+03   -0.10008E-02   -0.47426E-04 38488   0.746E-02    0.119E+00
DAV:  99    -0.343207655125E+03   -0.90620E-03   -0.13337E-03 38176   0.108E-01    0.126E+00
DAV: 100    -0.343208409103E+03   -0.75398E-03   -0.80022E-04 39160   0.864E-02    0.155E+00
DAV: 101    -0.343208052046E+03    0.35706E-03   -0.22974E-04 34688   0.400E-02    0.165E+00
DAV: 102    -0.343207674814E+03    0.37723E-03   -0.61614E-04 37072   0.766E-02    0.189E+00
DAV: 103    -0.343207035631E+03    0.63918E-03   -0.24474E-04 33920   0.458E-02    0.194E+00
DAV: 104    -0.343207005550E+03    0.30081E-04   -0.57759E-05 25472   0.200E-02    0.203E+00
DAV: 105    -0.343206842823E+03    0.16273E-03   -0.10868E-05 19952   0.118E-02    0.204E+00
DAV: 106    -0.343206959550E+03   -0.11673E-03   -0.12058E-05 19672   0.126E-02    0.202E+00
DAV: 107    -0.343207464637E+03   -0.50509E-03   -0.30402E-04 37320   0.535E-02    0.195E+00
DAV: 108    -0.343207375369E+03    0.89268E-04   -0.26880E-04 36616   0.575E-02    0.215E+00
DAV: 109    -0.343206887953E+03    0.48742E-03   -0.20249E-04 37528   0.500E-02    0.231E+00
DAV: 110    -0.343206322758E+03    0.56519E-03   -0.82844E-05 31208   0.269E-02    0.225E+00
DAV: 111    -0.343206077665E+03    0.24509E-03   -0.39206E-05 24592   0.218E-02    0.216E+00
DAV: 112    -0.343202144342E+03    0.39333E-02   -0.22614E-03 38032   0.154E-01    0.227E+00
DAV: 113    -0.343203394299E+03   -0.12500E-02   -0.27829E-04 31496   0.510E-02    0.205E+00
DAV: 114    -0.343204452430E+03   -0.10581E-02   -0.50557E-05 26632   0.224E-02    0.201E+00
DAV: 115    -0.343204771122E+03   -0.31869E-03   -0.78425E-05 31568   0.266E-02    0.194E+00
DAV: 116    -0.343205046310E+03   -0.27519E-03   -0.14023E-04 33608   0.308E-02    0.187E+00
DAV: 117    -0.343204940038E+03    0.10627E-03   -0.93825E-04 36752   0.912E-02    0.155E+00
DAV: 118    -0.343205823832E+03   -0.88379E-03   -0.27424E-04 33744   0.477E-02    0.143E+00
DAV: 119    -0.343206114442E+03   -0.29061E-03   -0.71549E-05 27112   0.225E-02    0.133E+00
DAV: 120    -0.343206496389E+03   -0.38195E-03   -0.40449E-05 22160   0.179E-02    0.132E+00
DAV: 121    -0.343206539911E+03   -0.43522E-04   -0.18467E-05 19568   0.142E-02    0.127E+00
DAV: 122    -0.343206733539E+03   -0.19363E-03   -0.18496E-05 21104   0.130E-02    0.127E+00
DAV: 123    -0.343206723283E+03    0.10256E-04   -0.75228E-06 17984   0.785E-03    0.126E+00
DAV: 124    -0.343206754471E+03   -0.31188E-04   -0.49905E-06 17368   0.513E-03    0.126E+00
DAV: 125    -0.343206778613E+03   -0.24142E-04   -0.17557E-05 18360   0.698E-03    0.124E+00
DAV: 126    -0.343206825030E+03   -0.46417E-04   -0.11522E-05 18448   0.541E-03    0.123E+00
DAV: 127    -0.343206913037E+03   -0.88007E-04   -0.18624E-03 39128   0.134E-01    0.551E-01
DAV: 128    -0.343207970871E+03   -0.10578E-02   -0.61217E-04 35696   0.740E-02    0.346E-01
DAV: 129    -0.343208401946E+03   -0.43108E-03   -0.19366E-04 32240   0.375E-02    0.272E-01
DAV: 130    -0.343208550376E+03   -0.14843E-03   -0.15697E-04 30184   0.311E-02    0.220E-01
DAV: 131    -0.343208605578E+03   -0.55201E-04   -0.87798E-05 28312   0.271E-02    0.214E-01
DAV: 132    -0.343208630366E+03   -0.24788E-04   -0.14242E-04 28336   0.324E-02    0.172E-01
DAV: 133    -0.343208752726E+03   -0.12236E-03   -0.12807E-04 30408   0.279E-02    0.174E-01
DAV: 134    -0.343208807588E+03   -0.54862E-04   -0.14318E-04 26528   0.238E-02    0.185E-01
DAV: 135    -0.343208825705E+03   -0.18117E-04   -0.11925E-04 26024   0.226E-02    0.202E-01
DAV: 136    -0.343208824552E+03    0.11523E-05   -0.36292E-05 20568   0.153E-02
   2 F= -.34320882E+03 E0= -.34319025E+03  d E =-.753608E-01  mag=    13.8298
       N       E                     dE             d eps       ncg     rms          rms(c)
DAV:   1    -0.343230742337E+03   -0.21917E-01   -0.23272E-01 33320   0.163E+00    0.277E-01
DAV:   2    -0.343234048343E+03   -0.33060E-02   -0.18962E-02 32888   0.351E-01    0.127E+00
DAV:   3    -0.343231521362E+03    0.25270E-02   -0.27513E-03 38680   0.215E-01    0.430E-01
DAV:   4    -0.343232696173E+03   -0.11748E-02   -0.25996E-03 36360   0.122E-01    0.530E-01
DAV:   5    -0.343232487074E+03    0.20910E-03   -0.11459E-03 36144   0.885E-02    0.403E-01
DAV:   6    -0.343232331128E+03    0.15595E-03   -0.29119E-04 31648   0.479E-02    0.186E-01
DAV:   7    -0.343232323685E+03    0.74434E-05   -0.23742E-05 22240   0.166E-02
   3 F= -.34323232E+03 E0= -.34321369E+03  d E =-.234991E-01  mag=    13.8326
       N       E                     dE             d eps       ncg     rms          rms(c)
DAV:   1    -0.343282743407E+03   -0.50412E-01   -0.19761E+00 33296   0.469E+00    0.550E-01
DAV:   2    -0.343300144656E+03   -0.17401E-01   -0.15084E-01 31224   0.883E-01    0.181E+00
DAV:   3    -0.343295857049E+03    0.42876E-02   -0.17227E-02 39552   0.412E-01    0.956E-01
DAV:   4    -0.343298183445E+03   -0.23264E-02   -0.10705E-02 39288   0.259E-01    0.122E+00
DAV:   5    -0.343295779497E+03    0.24039E-02   -0.58022E-03 37720   0.182E-01    0.460E-01
DAV:   6    -0.343296159553E+03   -0.38006E-03   -0.69629E-04 36160   0.872E-02    0.356E-01
DAV:   7    -0.343296297691E+03   -0.13814E-03   -0.52238E-04 33720   0.584E-02    0.417E-01
DAV:   8    -0.343296162976E+03    0.13471E-03   -0.31754E-04 31880   0.410E-02    0.345E-01
DAV:   9    -0.343296059750E+03    0.10323E-03   -0.29357E-05 24560   0.178E-02    0.355E-01
DAV:  10    -0.343296032157E+03    0.27593E-04   -0.59937E-04 36912   0.602E-02    0.400E-01
DAV:  11    -0.343296399037E+03   -0.36688E-03   -0.10982E-03 39192   0.940E-02    0.545E-01
DAV:  12    -0.343296165223E+03    0.23381E-03   -0.91933E-04 38480   0.901E-02    0.367E-01
DAV:  13    -0.343296399456E+03   -0.23423E-03   -0.92230E-04 38728   0.846E-02    0.394E-01
DAV:  14    -0.343296486411E+03   -0.86955E-04   -0.95026E-04 37992   0.838E-02    0.381E-01
DAV:  15    -0.343296345718E+03    0.14069E-03   -0.52835E-04 36448   0.667E-02    0.227E-01
DAV:  16    -0.343296403715E+03   -0.57997E-04   -0.13487E-04 27744   0.379E-02    0.260E-01
DAV:  17    -0.343296360993E+03    0.42721E-04   -0.68051E-05 23464   0.258E-02    0.253E-01
DAV:  18    -0.343296293792E+03    0.67201E-04   -0.14965E-05 19408   0.135E-02    0.251E-01
DAV:  19    -0.343296239647E+03    0.54145E-04   -0.16042E-05 18384   0.149E-02    0.272E-01
DAV:  20    -0.343296200808E+03    0.38840E-04   -0.36309E-05 22400   0.237E-02    0.281E-01
DAV:  21    -0.343296091869E+03    0.10894E-03   -0.22782E-04 30240   0.332E-02    0.267E-01
DAV:  22    -0.343295930236E+03    0.16163E-03   -0.45572E-04 33984   0.403E-02    0.343E-01
DAV:  23    -0.343295956163E+03   -0.25928E-04   -0.20510E-04 30808   0.264E-02    0.389E-01
DAV:  24    -0.343296209099E+03   -0.25294E-03   -0.12490E-04 29656   0.345E-02    0.366E-01
DAV:  25    -0.343296171155E+03    0.37944E-04   -0.37240E-04 34928   0.541E-02    0.305E-01
DAV:  26    -0.343296158566E+03    0.12589E-04   -0.30412E-04 36736   0.404E-02    0.233E-01
DAV:  27    -0.343296325993E+03   -0.16743E-03   -0.76677E-05 30968   0.232E-02    0.192E-01
DAV:  28    -0.343296431030E+03   -0.10504E-03   -0.41487E-05 28608   0.228E-02    0.131E-01
DAV:  29    -0.343296464748E+03   -0.33718E-04   -0.57610E-05 26648   0.209E-02    0.684E-02
DAV:  30    -0.343296476076E+03   -0.11327E-04   -0.50731E-05 23728   0.180E-02    0.346E-02
DAV:  31    -0.343296491114E+03   -0.15038E-04   -0.13947E-05 20720   0.128E-02    0.259E-02
DAV:  32    -0.343296492874E+03   -0.17605E-05   -0.49716E-06 17176   0.603E-03
   4 F= -.34329649E+03 E0= -.34327780E+03  d E =-.641692E-01  mag=    13.8439
       N       E                     dE             d eps       ncg     rms          rms(c)
DAV:   1    -0.343352858480E+03   -0.56367E-01   -0.56227E+00 33000   0.775E+00    0.810E-01
DAV:   2    -0.343397553468E+03   -0.44695E-01   -0.39225E-01 31008   0.143E+00    0.265E+00
DAV:   3    -0.343388992310E+03    0.85612E-02   -0.34284E-02 39728   0.603E-01    0.150E+00
DAV:   4    -0.343394563679E+03   -0.55714E-02   -0.32758E-02 40160   0.407E-01    0.196E+00
DAV:   5    -0.343388213701E+03    0.63500E-02   -0.18250E-02 37920   0.309E-01    0.790E-01
DAV:   6    -0.343389150317E+03   -0.93662E-03   -0.32903E-03 36440   0.164E-01    0.512E-01
DAV:   7    -0.343389637568E+03   -0.48725E-03   -0.19230E-03 36728   0.108E-01    0.665E-01
DAV:   8    -0.343389160146E+03    0.47742E-03   -0.96919E-04 37704   0.815E-02    0.430E-01
DAV:   9    -0.343388996856E+03    0.16329E-03   -0.10735E-04 28312   0.336E-02    0.462E-01
DAV:  10    -0.343389037636E+03   -0.40780E-04   -0.10910E-04 25816   0.290E-02    0.524E-01
DAV:  11    -0.343388956884E+03    0.80752E-04   -0.31550E-04 30168   0.542E-02    0.467E-01
DAV:  12    -0.343389545392E+03   -0.58851E-03   -0.17305E-03 39360   0.134E-01    0.799E-01
DAV:  13    -0.343388849751E+03    0.69564E-03   -0.20828E-03 39384   0.146E-01    0.439E-01
DAV:  14    -0.343389516313E+03   -0.66656E-03   -0.13437E-03 39040   0.128E-01    0.586E-01
DAV:  15    -0.343389224833E+03    0.29148E-03   -0.13230E-03 38880   0.121E-01    0.368E-01
DAV:  16    -0.343389248680E+03   -0.23847E-04   -0.35097E-04 38832   0.861E-02    0.253E-01
DAV:  17    -0.343389301340E+03   -0.52660E-04   -0.23361E-04 33096   0.544E-02    0.259E-01
DAV:  18    -0.343389245039E+03    0.56301E-04   -0.14894E-04 26696   0.415E-02    0.191E-01
DAV:  19    -0.343389273936E+03   -0.28896E-04   -0.70118E-05 25840   0.270E-02    0.178E-01
DAV:  20    -0.343389283250E+03   -0.93146E-05   -0.50052E-05 24432   0.215E-02
   5 F= -.34338928E+03 E0= -.34337052E+03  d E =-.927904E-01  mag=    13.8512
       N       E                     dE             d eps       ncg     rms          rms(c)
DAV:   1    -0.343405970567E+03   -0.16697E-01   -0.18986E+01 32544   0.137E+01    0.133E+00
DAV:   2    -0.343532435198E+03   -0.12646E+00   -0.11695E+00 30616   0.250E+00    0.371E+00
DAV:   3    -0.343522082031E+03    0.10353E-01   -0.86154E-02 40920   0.927E-01    0.284E+00
DAV:   4    -0.343530589589E+03   -0.85076E-02   -0.11564E-01 40944   0.689E-01    0.325E+00
DAV:   5    -0.343512862793E+03    0.17727E-01   -0.38946E-02 38720   0.496E-01    0.117E+00
DAV:   6    -0.343516283189E+03   -0.34204E-02   -0.90230E-03 36336   0.262E-01    0.933E-01
DAV:   7    -0.343517820139E+03   -0.15369E-02   -0.75754E-03 37784   0.225E-01    0.123E+00
DAV:   8    -0.343515516224E+03    0.23039E-02   -0.48076E-03 39416   0.185E-01    0.626E-01
DAV:   9    -0.343515447615E+03    0.68610E-04   -0.70926E-04 33232   0.751E-02    0.605E-01
DAV:  10    -0.343515103872E+03    0.34374E-03   -0.96481E-05 29464   0.282E-02    0.628E-01
DAV:  11    -0.343515160053E+03   -0.56181E-04   -0.63098E-05 22528   0.219E-02    0.674E-01
DAV:  12    -0.343515651576E+03   -0.49152E-03   -0.60055E-04 39128   0.849E-02    0.618E-01
DAV:  13    -0.343517618986E+03   -0.19674E-02   -0.24922E-03 40256   0.194E-01    0.126E+00
DAV:  14    -0.343517283776E+03    0.33521E-03   -0.70552E-03 38536   0.262E-01    0.962E-01
DAV:  15    -0.343516473552E+03    0.81022E-03   -0.39384E-03 39264   0.223E-01    0.670E-01
DAV:  16    -0.343516480517E+03   -0.69647E-05   -0.10865E-03 39368   0.135E-01    0.579E-01
DAV:  17    -0.343516510417E+03   -0.29900E-04   -0.72342E-04 39376   0.899E-02    0.438E-01
DAV:  18    -0.343516479070E+03    0.31347E-04   -0.11599E-04 31312   0.329E-02    0.430E-01
DAV:  19    -0.343516257115E+03    0.22196E-03   -0.52791E-04 35056   0.508E-02    0.479E-01
DAV:  20    -0.343516211175E+03    0.45940E-04   -0.47790E-04 35216   0.549E-02    0.451E-01
DAV:  21    -0.343516036229E+03    0.17495E-03   -0.86327E-04 36568   0.533E-02    0.497E-01
DAV:  22    -0.343516152780E+03   -0.11655E-03   -0.12847E-04 30552   0.362E-02    0.495E-01
DAV:  23    -0.343516279091E+03   -0.12631E-03   -0.11633E-03 37576   0.100E-01    0.340E-01
DAV:  24    -0.343516163844E+03    0.11525E-03   -0.15566E-03 37752   0.101E-01    0.226E-01
DAV:  25    -0.343516662003E+03   -0.49816E-03   -0.45430E-04 33592   0.635E-02    0.135E-01
DAV:  26    -0.343516753111E+03   -0.91108E-04   -0.32467E-04 36312   0.521E-02    0.904E-02
DAV:  27    -0.343516761235E+03   -0.81243E-05   -0.10657E-04 30832   0.233E-02    0.718E-02
DAV:  28    -0.343516766885E+03   -0.56495E-05   -0.33096E-05 21568   0.123E-02
   6 F= -.34351677E+03 E0= -.34349796E+03  d E =-.127484E+00  mag=    13.8685
       N       E                     dE             d eps       ncg     rms          rms(c)
DAV:   1    -0.343434329006E+03    0.82432E-01   -0.40077E+01 31560   0.188E+01    0.164E+00
DAV:   2    -0.343642832331E+03   -0.20850E+00   -0.19958E+00 30536   0.337E+00    0.422E+00
DAV:   3    -0.343635066788E+03    0.77655E-02   -0.15621E-01 42696   0.115E+00    0.356E+00
DAV:   4    -0.343639985135E+03   -0.49183E-02   -0.15925E-01 40616   0.808E-01    0.358E+00
DAV:   5    -0.343620412614E+03    0.19573E-01   -0.30854E-02 37896   0.516E-01    0.160E+00
DAV:   6    -0.343622039400E+03   -0.16268E-02   -0.52816E-03 35136   0.205E-01    0.113E+00
DAV:   7    -0.343622389429E+03   -0.35003E-03   -0.53711E-04 31792   0.711E-02    0.111E+00
DAV:   8    -0.343622056790E+03    0.33264E-03   -0.12564E-04 31400   0.301E-02    0.112E+00
DAV:   9    -0.343622005989E+03    0.50801E-04   -0.31293E-05 20896   0.185E-02    0.110E+00
DAV:  10    -0.343622151742E+03   -0.14575E-03   -0.76449E-04 38744   0.872E-02    0.124E+00
DAV:  11    -0.343621050678E+03    0.11011E-02   -0.27185E-03 40640   0.159E-01    0.125E+00
DAV:  12    -0.343620750644E+03    0.30003E-03   -0.42043E-03 39528   0.173E-01    0.146E+00
DAV:  13    -0.343619452524E+03    0.12981E-02   -0.27076E-03 39528   0.136E-01    0.127E+00
DAV:  14    -0.343619462299E+03   -0.97743E-05   -0.15613E-03 40024   0.119E-01    0.135E+00
DAV:  15    -0.343620626515E+03   -0.11642E-02   -0.19964E-04 29928   0.422E-02    0.134E+00
DAV:  16    -0.343624156140E+03   -0.35296E-02   -0.90165E-03 37936   0.280E-01    0.130E+00
DAV:  17    -0.343622961519E+03    0.11946E-02   -0.13885E-02 40928   0.379E-01    0.846E-01
DAV:  18    -0.343624625572E+03   -0.16641E-02   -0.73376E-03 40096   0.342E-01    0.951E-01
DAV:  19    -0.343622599067E+03    0.20265E-02   -0.51673E-03 38776   0.258E-01    0.683E-01
DAV:  20    -0.343623378879E+03   -0.77981E-03   -0.14529E-03 36944   0.148E-01    0.717E-01
DAV:  21    -0.343622812301E+03    0.56658E-03   -0.85328E-04 38008   0.112E-01    0.519E-01
DAV:  22    -0.343622943089E+03   -0.13079E-03   -0.27913E-04 33576   0.428E-02    0.543E-01
DAV:  23    -0.343622743435E+03    0.19965E-03   -0.39702E-05 26640   0.214E-02    0.566E-01
DAV:  24    -0.343623351512E+03   -0.60808E-03   -0.93588E-04 38336   0.984E-02    0.445E-01
DAV:  25    -0.343624644359E+03   -0.12928E-02   -0.28389E-03 37576   0.912E-02    0.111E+00
DAV:  26    -0.343624321323E+03    0.32304E-03   -0.55167E-04 32296   0.687E-02    0.124E+00
DAV:  27    -0.343624122090E+03    0.19923E-03   -0.76511E-05 30920   0.247E-02    0.133E+00
DAV:  28    -0.343624103568E+03    0.18522E-04   -0.64564E-04 38432   0.588E-02    0.150E+00
DAV:  29    -0.343623998322E+03    0.10525E-03   -0.74660E-05 29176   0.282E-02    0.157E+00
DAV:  30    -0.343623103721E+03    0.89460E-03   -0.42561E-04 34088   0.411E-02    0.130E+00
DAV:  31    -0.343623696885E+03   -0.59316E-03   -0.56925E-04 33104   0.420E-02    0.127E+00
DAV:  32    -0.343624026125E+03   -0.32924E-03   -0.34261E-04 31032   0.369E-02    0.131E+00
DAV:  33    -0.343623948187E+03    0.77937E-04   -0.52694E-04 33696   0.404E-02    0.130E+00
DAV:  34    -0.343623844189E+03    0.10400E-03   -0.23944E-04 32656   0.307E-02    0.128E+00
DAV:  35    -0.343623537394E+03    0.30680E-03   -0.74069E-05 26232   0.225E-02    0.117E+00
DAV:  36    -0.343623398126E+03    0.13927E-03   -0.91312E-05 24488   0.179E-02    0.102E+00
DAV:  37    -0.343623626776E+03   -0.22865E-03   -0.19289E-05 21776   0.142E-02    0.962E-01
DAV:  38    -0.343623550038E+03    0.76738E-04   -0.73578E-05 23264   0.208E-02    0.910E-01
DAV:  39    -0.343622972495E+03    0.57754E-03   -0.10824E-03 38216   0.642E-02    0.804E-01
DAV:  40    -0.343622930151E+03    0.42344E-04   -0.54755E-04 35056   0.392E-02    0.702E-01
DAV:  41    -0.343623256430E+03   -0.32628E-03   -0.60644E-05 28152   0.289E-02    0.679E-01
DAV:  42    -0.343623524476E+03   -0.26805E-03   -0.32217E-04 34592   0.430E-02    0.677E-01
DAV:  43    -0.343624393033E+03   -0.86856E-03   -0.45803E-03 38864   0.114E-01    0.116E+00
DAV:  44    -0.343625431364E+03   -0.10383E-02   -0.18359E-03 34440   0.716E-02    0.171E+00
DAV:  45    -0.343624685813E+03    0.74555E-03   -0.38186E-04 30024   0.563E-02    0.202E+00
DAV:  46    -0.343624717295E+03   -0.31482E-04   -0.29373E-04 30864   0.341E-02    0.246E+00
DAV:  47    -0.343621260292E+03    0.34570E-02   -0.49194E-04 30144   0.558E-02    0.239E+00
DAV:  48    -0.343619587324E+03    0.16730E-02   -0.10838E-03 34512   0.385E-02    0.201E+00
DAV:  49    -0.343621395792E+03   -0.18085E-02   -0.44506E-04 29824   0.403E-02    0.172E+00
DAV:  50    -0.343622777790E+03   -0.13820E-02   -0.14961E-04 31256   0.381E-02    0.155E+00
DAV:  51    -0.343622615202E+03    0.16259E-03   -0.16439E-04 31928   0.304E-02    0.131E+00
DAV:  52    -0.343622719295E+03   -0.10409E-03   -0.13725E-04 31168   0.318E-02    0.104E+00
DAV:  53    -0.343623159957E+03   -0.44066E-03   -0.94972E-05 27672   0.256E-02    0.861E-01
DAV:  54    -0.343623428967E+03   -0.26901E-03   -0.41419E-05 23664   0.190E-02    0.754E-01
DAV:  55    -0.343623688694E+03   -0.25973E-03   -0.48536E-05 23000   0.188E-02    0.731E-01
DAV:  56    -0.343623576884E+03    0.11181E-03   -0.34916E-05 20288   0.152E-02    0.679E-01
DAV:  57    -0.343623536646E+03    0.40239E-04   -0.42880E-05 24848   0.153E-02    0.629E-01
DAV:  58    -0.343623446862E+03    0.89783E-04   -0.49317E-05 19608   0.120E-02    0.551E-01
DAV:  59    -0.343623339386E+03    0.10748E-03   -0.11107E-04 21488   0.140E-02    0.450E-01
DAV:  60    -0.343623385313E+03   -0.45927E-04   -0.76594E-05 21496   0.136E-02    0.378E-01
DAV:  61    -0.343623440053E+03   -0.54740E-04   -0.31669E-05 19672   0.113E-02    0.339E-01
DAV:  62    -0.343623519372E+03   -0.79319E-04   -0.19752E-05 19744   0.118E-02    0.335E-01
DAV:  63    -0.343623490467E+03    0.28905E-04   -0.25324E-05 18000   0.909E-03    0.331E-01
DAV:  64    -0.343623457064E+03    0.33402E-04   -0.11423E-04 20936   0.155E-02    0.339E-01
DAV:  65    -0.343623439665E+03    0.17400E-04   -0.14019E-04 20560   0.109E-02    0.340E-01
DAV:  66    -0.343623476162E+03   -0.36497E-04   -0.65949E-05 25056   0.197E-02    0.321E-01
DAV:  67    -0.343623433004E+03    0.43158E-04   -0.47971E-05 20648   0.149E-02    0.304E-01
DAV:  68    -0.343623453695E+03   -0.20691E-04   -0.34911E-06 17264   0.602E-03    0.301E-01
DAV:  69    -0.343623457239E+03   -0.35442E-05   -0.86329E-07 15784   0.288E-03
   7 F= -.34362346E+03 E0= -.34360307E+03  d E =-.106690E+00  mag=    13.8544
       N       E                     dE             d eps       ncg     rms          rms(c)
DAV:   1    -0.343512647626E+03    0.11081E+00   -0.47656E+01 31728   0.193E+01    0.142E+00
DAV:   2    -0.343690132395E+03   -0.17748E+00   -0.17582E+00 30128   0.324E+00    0.356E+00
DAV:   3    -0.343696580329E+03   -0.64479E-02   -0.18036E-01 42416   0.851E-01    0.225E+00
DAV:   4    -0.343703265083E+03   -0.66848E-02   -0.90550E-02 39872   0.713E-01    0.440E+00
DAV:   5    -0.343698418048E+03    0.48470E-02   -0.14845E-02 33936   0.360E-01    0.628E+00
DAV:   6    -0.343681588957E+03    0.16829E-01   -0.17987E-02 37064   0.411E-01    0.753E+00
DAV:   7    -0.343653634835E+03    0.27954E-01   -0.22695E-02 33712   0.268E-01    0.434E+00
DAV:   8    -0.343673304502E+03   -0.19670E-01   -0.63753E-03 30704   0.173E-01    0.360E+00
DAV:   9    -0.343676078993E+03   -0.27745E-02   -0.44516E-03 33304   0.125E-01    0.301E+00
DAV:  10    -0.343677549691E+03   -0.14707E-02   -0.48928E-04 31440   0.655E-02    0.288E+00
DAV:  11    -0.343674134443E+03    0.34152E-02   -0.60487E-03 41464   0.197E-01    0.193E+00
DAV:  12    -0.343677600389E+03   -0.34659E-02   -0.88937E-03 36408   0.234E-01    0.135E+00
DAV:  13    -0.343680280426E+03   -0.26800E-02   -0.49358E-03 34352   0.208E-01    0.139E+00
DAV:  14    -0.343679605688E+03    0.67474E-03   -0.14294E-03 36624   0.130E-01    0.111E+00
DAV:  15    -0.343679792716E+03   -0.18703E-03   -0.16481E-04 30368   0.434E-02    0.111E+00
DAV:  16    -0.343680565416E+03   -0.77270E-03   -0.10730E-03 40000   0.890E-02    0.134E+00
DAV:  17    -0.343679422649E+03    0.11428E-02   -0.34108E-03 40568   0.187E-01    0.109E+00
DAV:  18    -0.343682112783E+03   -0.26901E-02   -0.11426E-02 41376   0.307E-01    0.171E+00
DAV:  19    -0.343681278195E+03    0.83459E-03   -0.15560E-02 39216   0.409E-01    0.162E+00
DAV:  20    -0.343680182725E+03    0.10955E-02   -0.59569E-03 38400   0.275E-01    0.166E+00
DAV:  21    -0.343677453046E+03    0.27297E-02   -0.23477E-03 39112   0.155E-01    0.149E+00
DAV:  22    -0.343676827207E+03    0.62584E-03   -0.76474E-04 38984   0.101E-01    0.147E+00
DAV:  23    -0.343676590836E+03    0.23637E-03   -0.59126E-04 37760   0.611E-02    0.152E+00
DAV:  24    -0.343674117532E+03    0.24733E-02   -0.66871E-04 38784   0.735E-02    0.130E+00
DAV:  25    -0.343672121376E+03    0.19962E-02   -0.23478E-03 38648   0.138E-01    0.101E+00
DAV:  26    -0.343674046676E+03   -0.19253E-02   -0.32940E-03 38968   0.144E-01    0.992E-01
DAV:  27    -0.343676031194E+03   -0.19845E-02   -0.15085E-03 36944   0.103E-01    0.958E-01
DAV:  28    -0.343676941683E+03   -0.91049E-03   -0.67213E-04 36552   0.736E-02    0.852E-01
DAV:  29    -0.343677384987E+03   -0.44330E-03   -0.50546E-04 38208   0.472E-02    0.815E-01
DAV:  30    -0.343677516056E+03   -0.13107E-03   -0.13395E-04 29920   0.239E-02    0.792E-01
DAV:  31    -0.343677476725E+03    0.39332E-04   -0.13634E-04 31448   0.335E-02    0.802E-01
DAV:  32    -0.343677484157E+03   -0.74327E-05   -0.73012E-05 25488   0.198E-02
   8 F= -.34367748E+03 E0= -.34365798E+03  d E =-.540269E-01  mag=    13.9146
       N       E                     dE             d eps       ncg     rms          rms(c)
DAV:   1    -0.343442023388E+03    0.23545E+00   -0.75878E+01 31408   0.243E+01    0.189E+00
DAV:   2    -0.343771044132E+03   -0.32902E+00   -0.27938E+00 30488   0.421E+00    0.875E+00
DAV:   3    -0.343696936356E+03    0.74108E-01   -0.52629E-01 41064   0.150E+00    0.321E+00
DAV:   4    -0.343741863832E+03   -0.44927E-01   -0.14942E-01 38376   0.102E+00    0.514E+00
DAV:   5    -0.343727205610E+03    0.14658E-01   -0.56122E-02 38568   0.679E-01    0.666E+00
DAV:   6    -0.343740728515E+03   -0.13523E-01   -0.16500E-02 32592   0.430E-01    0.101E+01
DAV:   7    -0.343707491716E+03    0.33237E-01   -0.53182E-03 31008   0.244E-01    0.105E+01
DAV:   8    -0.343637501559E+03    0.69990E-01   -0.70588E-03 40696   0.241E-01    0.893E+00
DAV:   9    -0.343644191331E+03   -0.66898E-02   -0.20599E-03 35720   0.157E-01    0.758E+00
DAV:  10    -0.343657724173E+03   -0.13533E-01   -0.54442E-03 39184   0.243E-01    0.630E+00
DAV:  11    -0.343668709282E+03   -0.10985E-01   -0.20073E-02 39064   0.302E-01    0.449E+00
DAV:  12    -0.343692552672E+03   -0.23843E-01   -0.14686E-02 35896   0.333E-01    0.455E+00
DAV:  13    -0.343695130666E+03   -0.25780E-02   -0.15070E-03 30368   0.129E-01    0.474E+00
DAV:  14    -0.343696729394E+03   -0.15987E-02   -0.42233E-03 41088   0.227E-01    0.469E+00
DAV:  15    -0.343694268604E+03    0.24608E-02   -0.80963E-03 40776   0.284E-01    0.457E+00
DAV:  16    -0.343700980140E+03   -0.67115E-02   -0.18540E-02 39184   0.272E-01    0.578E+00
DAV:  17    -0.343694372754E+03    0.66074E-02   -0.13886E-02 38376   0.245E-01    0.633E+00
DAV:  18    -0.343689620910E+03    0.47518E-02   -0.11320E-02 34104   0.166E-01    0.676E+00
DAV:  19    -0.343683146625E+03    0.64743E-02   -0.20987E-03 32280   0.130E-01    0.713E+00
DAV:  20    -0.343676361980E+03    0.67846E-02   -0.61489E-04 31152   0.661E-02    0.727E+00
DAV:  21    -0.343675823176E+03    0.53880E-03   -0.16277E-03 39776   0.558E-02    0.766E+00
DAV:  22    -0.343666915675E+03    0.89075E-02   -0.74184E-03 41240   0.167E-01    0.730E+00
DAV:  23    -0.343658782602E+03    0.81331E-02   -0.44810E-03 39904   0.247E-01    0.588E+00
DAV:  24    -0.343659369974E+03   -0.58737E-03   -0.48031E-03 36992   0.200E-01    0.315E+00
DAV:  25    -0.343684044591E+03   -0.24675E-01   -0.60379E-03 30744   0.205E-01    0.218E+00
DAV:  26    -0.343694919500E+03   -0.10875E-01   -0.50387E-03 37216   0.222E-01    0.206E+00
DAV:  27    -0.343698014947E+03   -0.30954E-02   -0.20703E-03 36432   0.100E-01    0.197E+00
DAV:  28    -0.343698899422E+03   -0.88447E-03   -0.28084E-04 33104   0.378E-02    0.198E+00
DAV:  29    -0.343698530524E+03    0.36890E-03   -0.67674E-05 28136   0.247E-02    0.195E+00
DAV:  30    -0.343698423446E+03    0.10708E-03   -0.50731E-05 25464   0.188E-02    0.198E+00
DAV:  31    -0.343697195144E+03    0.12283E-02   -0.59282E-04 37856   0.545E-02    0.185E+00
DAV:  32    -0.343695442594E+03    0.17526E-02   -0.36322E-03 40120   0.122E-01    0.152E+00
DAV:  33    -0.343690873579E+03    0.45690E-02   -0.12058E-02 39176   0.287E-01    0.130E+00
DAV:  34    -0.343686806369E+03    0.40672E-02   -0.11319E-02 37792   0.286E-01    0.146E+00
DAV:  35    -0.343691159722E+03   -0.43534E-02   -0.33320E-03 30624   0.190E-01    0.149E+00
DAV:  36    -0.343693210366E+03   -0.20506E-02   -0.11374E-02 37032   0.278E-01    0.144E+00
DAV:  37    -0.343695605237E+03   -0.23949E-02   -0.21333E-03 33144   0.121E-01    0.143E+00
DAV:  38    -0.343696073659E+03   -0.46842E-03   -0.22907E-04 30200   0.494E-02    0.142E+00
DAV:  39    -0.343696624236E+03   -0.55058E-03   -0.18708E-04 34032   0.413E-02    0.136E+00
DAV:  40    -0.343698082104E+03   -0.14579E-02   -0.19803E-03 37064   0.107E-01    0.126E+00
DAV:  41    -0.343698712984E+03   -0.63088E-03   -0.17658E-04 30160   0.380E-02    0.125E+00
DAV:  42    -0.343702110436E+03   -0.33975E-02   -0.14857E-02 36432   0.212E-01    0.249E+00
DAV:  43    -0.343705226060E+03   -0.31156E-02   -0.47601E-03 31488   0.160E-01    0.332E+00
DAV:  44    -0.343695620240E+03    0.96058E-02   -0.82940E-03 32232   0.200E-01    0.275E+00
DAV:  45    -0.343686484056E+03    0.91362E-02   -0.51889E-02 37880   0.268E-01    0.238E+00
DAV:  46    -0.343670183208E+03    0.16301E-01   -0.94462E-02 38992   0.480E-01    0.569E+00
DAV:  47    -0.343680635865E+03   -0.10453E-01   -0.26235E-02 32000   0.355E-01    0.867E+00
DAV:  48    -0.343646021938E+03    0.34614E-01   -0.12593E-02 33392   0.270E-01    0.986E+00
DAV:  49    -0.343634418407E+03    0.11604E-01   -0.24033E-03 30384   0.158E-01    0.107E+01
DAV:  50    -0.343617958385E+03    0.16460E-01   -0.47107E-04 31544   0.695E-02    0.109E+01
DAV:  51    -0.343610671934E+03    0.72865E-02   -0.52481E-05 29376   0.214E-02    0.109E+01
DAV:  52    -0.343639972203E+03   -0.29300E-01   -0.32709E-03 41088   0.154E-01    0.115E+01
DAV:  53    -0.343631893249E+03    0.80790E-02   -0.52422E-04 30168   0.540E-02    0.115E+01
DAV:  54    -0.343613071219E+03    0.18822E-01   -0.21375E-03 40480   0.793E-02    0.112E+01
DAV:  55    -0.343578344766E+03    0.34726E-01   -0.11168E-02 40784   0.162E-01    0.889E+00
DAV:  56    -0.343586726398E+03   -0.83816E-02   -0.35492E-02 39064   0.308E-01    0.211E+00
DAV:  57    -0.343675780438E+03   -0.89054E-01   -0.23418E-02 30704   0.459E-01    0.146E+00
DAV:  58    -0.343679286838E+03   -0.35064E-02   -0.50554E-03 31024   0.223E-01    0.146E+00
DAV:  59    -0.343678178332E+03    0.11085E-02   -0.47213E-03 37728   0.110E-01    0.201E+00
DAV:  60    -0.343680743068E+03   -0.25647E-02   -0.14109E-03 32040   0.116E-01    0.236E+00
DAV:  61    -0.343686193992E+03   -0.54509E-02   -0.39600E-03 34560   0.154E-01    0.184E+00
DAV:  62    -0.343693816605E+03   -0.76226E-02   -0.11092E-02 38512   0.204E-01    0.158E+00
DAV:  63    -0.343696310273E+03   -0.24937E-02   -0.94031E-03 38960   0.124E-01    0.148E+00
DAV:  64    -0.343696687955E+03   -0.37768E-03   -0.83950E-03 38848   0.841E-02    0.169E+00
DAV:  65    -0.343696188041E+03    0.49991E-03   -0.60400E-03 36784   0.759E-02    0.212E+00
DAV:  66    -0.343696038471E+03    0.14957E-03   -0.23915E-03 32496   0.734E-02    0.293E+00
DAV:  67    -0.343684984602E+03    0.11054E-01   -0.23086E-02 33368   0.193E-01    0.141E+00
DAV:  68    -0.343694475307E+03   -0.94907E-02   -0.28870E-03 30176   0.157E-01    0.140E+00
DAV:  69    -0.343696154976E+03   -0.16797E-02   -0.45626E-03 35472   0.113E-01    0.152E+00
DAV:  70    -0.343697271570E+03   -0.11166E-02   -0.23269E-03 37216   0.662E-02    0.173E+00
DAV:  71    -0.343696338539E+03    0.93303E-03   -0.93254E-04 31744   0.709E-02    0.118E+00
DAV:  72    -0.343698901150E+03   -0.25626E-02   -0.23035E-03 37360   0.791E-02    0.768E-01
DAV:  73    -0.343701150597E+03   -0.22494E-02   -0.11229E-03 33256   0.762E-02    0.721E-01
DAV:  74    -0.343701707601E+03   -0.55700E-03   -0.38167E-04 34176   0.460E-02    0.732E-01
DAV:  75    -0.343701398899E+03    0.30870E-03   -0.72117E-04 36672   0.615E-02    0.740E-01
DAV:  76    -0.343700930271E+03    0.46863E-03   -0.67716E-04 36064   0.585E-02    0.767E-01
DAV:  77    -0.343699207503E+03    0.17228E-02   -0.10462E-03 35744   0.686E-02    0.819E-01
DAV:  78    -0.343699153675E+03    0.53828E-04   -0.19411E-04 29952   0.417E-02    0.844E-01
DAV:  79    -0.343699178170E+03   -0.24496E-04   -0.17410E-05 23104   0.142E-02    0.844E-01
DAV:  80    -0.343699076782E+03    0.10139E-03   -0.24888E-06 17800   0.462E-03    0.851E-01
DAV:  81    -0.343698956485E+03    0.12030E-03   -0.32944E-06 17776   0.447E-03    0.859E-01
DAV:  82    -0.343700836195E+03   -0.18797E-02   -0.22003E-02 36584   0.352E-01    0.540E-01
DAV:  83    -0.343703872490E+03   -0.30363E-02   -0.35965E-03 31496   0.164E-01    0.549E-01
DAV:  84    -0.343703784276E+03    0.88214E-04   -0.12426E-04 29424   0.365E-02    0.553E-01
DAV:  85    -0.343703030223E+03    0.75405E-03   -0.45080E-04 33960   0.558E-02    0.590E-01
DAV:  86    -0.343700852008E+03    0.21782E-02   -0.34148E-03 35528   0.999E-02    0.861E-01
DAV:  87    -0.343700107642E+03    0.74437E-03   -0.90487E-03 35856   0.219E-01    0.465E+00
DAV:  88    -0.343704641425E+03   -0.45338E-02   -0.61553E-03 30256   0.257E-01    0.691E+00
DAV:  89    -0.343680815184E+03    0.23826E-01   -0.26217E-03 30712   0.168E-01    0.713E+00
DAV:  90    -0.343672887290E+03    0.79279E-02   -0.21547E-04 33224   0.476E-02    0.722E+00
DAV:  91    -0.343669983322E+03    0.29040E-02   -0.10132E-04 28688   0.268E-02    0.728E+00
DAV:  92    -0.343649256972E+03    0.20726E-01   -0.30413E-03 34520   0.135E-01    0.454E+00
DAV:  93    -0.343674438290E+03   -0.25181E-01   -0.36991E-03 31136   0.185E-01    0.291E+00
DAV:  94    -0.343685590729E+03   -0.11152E-01   -0.19016E-03 31648   0.137E-01    0.235E+00
DAV:  95    -0.343689355235E+03   -0.37645E-02   -0.84615E-04 31976   0.771E-02    0.228E+00
DAV:  96    -0.343689570825E+03   -0.21559E-03   -0.85961E-04 36592   0.584E-02    0.189E+00
DAV:  97    -0.343696964971E+03   -0.73941E-02   -0.28597E-02 37512   0.353E-01    0.186E+00
DAV:  98    -0.343696315106E+03    0.64987E-03   -0.33124E-02 37144   0.194E-01    0.118E+00
DAV:  99    -0.343702603178E+03   -0.62881E-02   -0.16144E-02 36816   0.131E-01    0.224E+00
DAV: 100    -0.343702712584E+03   -0.10941E-03   -0.16297E-03 29752   0.123E-01    0.253E+00
DAV: 101    -0.343702992215E+03   -0.27963E-03   -0.40845E-03 35024   0.609E-02    0.322E+00
DAV: 102    -0.343698683607E+03    0.43086E-02   -0.13828E-03 30720   0.959E-02    0.301E+00
DAV: 103    -0.343700727245E+03   -0.20436E-02   -0.96599E-04 32960   0.420E-02    0.345E+00
DAV: 104    -0.343698811428E+03    0.19158E-02   -0.13987E-04 27968   0.337E-02    0.365E+00
DAV: 105    -0.343699003297E+03   -0.19187E-03   -0.44662E-04 34552   0.376E-02    0.400E+00
DAV: 106    -0.343697736153E+03    0.12671E-02   -0.92644E-04 33448   0.428E-02    0.440E+00
DAV: 107    -0.343698047114E+03   -0.31096E-03   -0.56665E-04 33096   0.444E-02    0.522E+00
DAV: 108    -0.343692927723E+03    0.51194E-02   -0.40146E-04 29376   0.563E-02    0.585E+00
DAV: 109    -0.343687053264E+03    0.58745E-02   -0.40513E-04 29960   0.468E-02    0.626E+00
DAV: 110    -0.343680399087E+03    0.66542E-02   -0.15691E-04 30504   0.388E-02    0.632E+00
DAV: 111    -0.343666800481E+03    0.13599E-01   -0.22729E-03 37704   0.597E-02    0.466E+00
DAV: 112    -0.343673903147E+03   -0.71027E-02   -0.32312E-03 33104   0.117E-01    0.185E+00
DAV: 113    -0.343700703688E+03   -0.26801E-01   -0.90843E-03 30048   0.208E-01    0.242E+00
DAV: 114    -0.343701278786E+03   -0.57510E-03   -0.64092E-04 34832   0.702E-02    0.288E+00
DAV: 115    -0.343698305125E+03    0.29737E-02   -0.28792E-04 31088   0.468E-02    0.280E+00
DAV: 116    -0.343697242300E+03    0.10628E-02   -0.11337E-04 28288   0.217E-02    0.258E+00
DAV: 117    -0.343699472656E+03   -0.22304E-02   -0.53635E-04 31360   0.382E-02    0.304E+00
DAV: 118    -0.343698466284E+03    0.10064E-02   -0.21045E-04 28984   0.312E-02    0.343E+00
DAV: 119    -0.343696336275E+03    0.21300E-02   -0.11658E-04 27480   0.309E-02    0.366E+00
DAV: 120    -0.343694061356E+03    0.22749E-02   -0.45240E-05 26424   0.211E-02    0.366E+00
DAV: 121    -0.343692363328E+03    0.16980E-02   -0.33011E-05 21376   0.152E-02    0.336E+00
DAV: 122    -0.343689675499E+03    0.26878E-02   -0.22874E-03 38776   0.866E-02    0.221E+00
DAV: 123    -0.343699260654E+03   -0.95852E-02   -0.11780E-03 30056   0.104E-01    0.272E+00
DAV: 124    -0.343698851456E+03    0.40920E-03   -0.19310E-04 28584   0.336E-02    0.296E+00
DAV: 125    -0.343698156071E+03    0.69538E-03   -0.28011E-04 26728   0.243E-02    0.314E+00
DAV: 126    -0.343696011290E+03    0.21448E-02   -0.73932E-04 30016   0.292E-02    0.286E+00
DAV: 127    -0.343699655411E+03   -0.36441E-02   -0.20362E-03 34640   0.897E-02    0.340E+00
DAV: 128    -0.343696127471E+03    0.35279E-02   -0.26779E-04 30024   0.481E-02    0.334E+00
DAV: 129    -0.343695864593E+03    0.26288E-03   -0.19000E-05 19944   0.100E-02    0.329E+00
DAV: 130    -0.343696014490E+03   -0.14990E-03   -0.19724E-06 17520   0.473E-03    0.326E+00
DAV: 131    -0.343696812250E+03   -0.79776E-03   -0.38778E-05 18216   0.825E-03    0.341E+00
DAV: 132    -0.343695807576E+03    0.10047E-02   -0.30249E-04 32008   0.318E-02    0.361E+00
DAV: 133    -0.343694773023E+03    0.10346E-02   -0.44560E-05 26008   0.202E-02    0.372E+00
DAV: 134    -0.343694242801E+03    0.53022E-03   -0.10843E-04 23608   0.191E-02    0.383E+00
DAV: 135    -0.343693568349E+03    0.67445E-03   -0.41801E-05 21504   0.154E-02    0.394E+00
DAV: 136    -0.343692424290E+03    0.11441E-02   -0.41223E-05 21592   0.126E-02    0.396E+00
DAV: 137    -0.343707749764E+03   -0.15325E-01   -0.19392E-03 38104   0.914E-02    0.653E+00
DAV: 138    -0.343686321300E+03    0.21428E-01   -0.29773E-03 30152   0.152E-01    0.722E+00
DAV: 139    -0.343672105500E+03    0.14216E-01   -0.11847E-03 32040   0.717E-02    0.720E+00
DAV: 140    -0.343673726584E+03   -0.16211E-02   -0.47044E-05 29240   0.224E-02    0.742E+00
DAV: 141    -0.343660079838E+03    0.13647E-01   -0.12077E-03 36712   0.583E-02    0.649E+00
DAV: 142    -0.343642219741E+03    0.17860E-01   -0.10546E-01 37824   0.271E-01    0.356E+00
DAV: 143    -0.343692883099E+03   -0.50663E-01   -0.79856E-03 29960   0.285E-01    0.244E+00
DAV: 144    -0.343699314798E+03   -0.64317E-02   -0.38321E-03 32416   0.133E-01    0.202E+00
DAV: 145    -0.343702947144E+03   -0.36323E-02   -0.52953E-03 34944   0.730E-02    0.240E+00
DAV: 146    -0.343698119351E+03    0.48278E-02   -0.26849E-02 32616   0.171E-01    0.177E+00
DAV: 147    -0.343699108199E+03   -0.98885E-03   -0.34665E-02 39200   0.152E-01    0.263E+00
DAV: 148    -0.343701394131E+03   -0.22859E-02   -0.47906E-03 30632   0.134E-01    0.381E+00
DAV: 149    -0.343697819252E+03    0.35749E-02   -0.18410E-03 30616   0.109E-01    0.467E+00
DAV: 150    -0.343691119649E+03    0.66996E-02   -0.55952E-04 30512   0.700E-02    0.516E+00
DAV: 151    -0.343685953540E+03    0.51661E-02   -0.17447E-04 28744   0.398E-02    0.545E+00
DAV: 152    -0.343687826524E+03   -0.18730E-02   -0.24211E-03 36024   0.536E-02    0.642E+00
DAV: 153    -0.343682456470E+03    0.53701E-02   -0.16102E-03 31328   0.702E-02    0.740E+00
DAV: 154    -0.343669531909E+03    0.12925E-01   -0.54978E-04 30392   0.686E-02    0.781E+00
DAV: 155    -0.343662173503E+03    0.73584E-02   -0.13994E-04 29624   0.347E-02    0.802E+00
DAV: 156    -0.343654651124E+03    0.75224E-02   -0.21741E-04 28848   0.262E-02    0.782E+00
DAV: 157    -0.343655532487E+03   -0.88136E-03   -0.62312E-05 22048   0.197E-02    0.769E+00
DAV: 158    -0.343657327834E+03   -0.17953E-02   -0.23461E-04 23648   0.188E-02    0.756E+00
DAV: 159    -0.343659395711E+03   -0.20679E-02   -0.40084E-05 21928   0.139E-02    0.748E+00
DAV: 160    -0.343654265622E+03    0.51301E-02   -0.15422E-03 33072   0.370E-02    0.669E+00
DAV: 161    -0.343662322385E+03   -0.80568E-02   -0.47416E-04 30136   0.533E-02    0.594E+00
DAV: 162    -0.343667254755E+03   -0.49324E-02   -0.92781E-04 33392   0.609E-02    0.469E+00
DAV: 163    -0.343681666551E+03   -0.14412E-01   -0.82257E-04 29832   0.857E-02    0.410E+00
DAV: 164    -0.343688263253E+03   -0.65967E-02   -0.42066E-04 30168   0.519E-02    0.391E+00
DAV: 165    -0.343690234802E+03   -0.19715E-02   -0.17951E-04 29544   0.257E-02    0.378E+00
DAV: 166    -0.343691854358E+03   -0.16196E-02   -0.11467E-03 34016   0.381E-02    0.399E+00
DAV: 167    -0.343691332247E+03    0.52211E-03   -0.18602E-04 30360   0.391E-02    0.416E+00
DAV: 168    -0.343687399291E+03    0.39330E-02   -0.63929E-03 35544   0.878E-02    0.370E+00
DAV: 169    -0.343691175704E+03   -0.37764E-02   -0.20423E-03 35072   0.564E-02    0.350E+00
DAV: 170    -0.343694150807E+03   -0.29751E-02   -0.86106E-04 31888   0.403E-02    0.351E+00
DAV: 171    -0.343694768736E+03   -0.61793E-03   -0.36491E-04 27776   0.228E-02    0.351E+00
DAV: 172    -0.343694393459E+03    0.37528E-03   -0.81752E-03 35536   0.105E-01    0.362E+00
DAV: 173    -0.343694706016E+03   -0.31256E-03   -0.65625E-04 29736   0.450E-02    0.395E+00
DAV: 174    -0.343692640846E+03    0.20652E-02   -0.19336E-04 28072   0.307E-02    0.414E+00
DAV: 175    -0.343690395535E+03    0.22453E-02   -0.45859E-05 26720   0.204E-02    0.414E+00
DAV: 176    -0.343690167352E+03    0.22818E-03   -0.65281E-06 18448   0.852E-03    0.413E+00
DAV: 177    -0.343690373109E+03   -0.20576E-03   -0.11529E-04 26840   0.258E-02    0.428E+00
DAV: 178    -0.343689510956E+03    0.86215E-03   -0.18068E-05 21272   0.135E-02    0.437E+00
DAV: 179    -0.343688854409E+03    0.65655E-03   -0.17087E-05 18712   0.969E-03    0.443E+00
DAV: 180    -0.343688196904E+03    0.65751E-03   -0.31474E-05 19568   0.110E-02    0.446E+00
DAV: 181    -0.343688008259E+03    0.18864E-03   -0.23703E-06 17680   0.437E-03    0.447E+00
DAV: 182    -0.343688660065E+03   -0.65181E-03   -0.22403E-04 23352   0.200E-02    0.451E+00
DAV: 183    -0.343689263095E+03   -0.60303E-03   -0.42042E-04 28296   0.235E-02    0.467E+00
DAV: 184    -0.343688191547E+03    0.10715E-02   -0.21797E-04 28768   0.259E-02    0.474E+00
DAV: 185    -0.343686503255E+03    0.16883E-02   -0.15722E-04 31704   0.301E-02    0.460E+00
DAV: 186    -0.343685708666E+03    0.79459E-03   -0.10034E-03 34648   0.412E-02    0.417E+00
DAV: 187    -0.343687800412E+03   -0.20917E-02   -0.39733E-02 37392   0.228E-01    0.454E+00
DAV: 188    -0.343692131477E+03   -0.43311E-02   -0.75785E-03 31336   0.164E-01    0.406E+00
DAV: 189    -0.343696083055E+03   -0.39516E-02   -0.23933E-03 29600   0.985E-02    0.373E+00
DAV: 190    -0.343696465442E+03   -0.38239E-03   -0.26844E-03 33768   0.451E-02    0.333E+00
DAV: 191    -0.343698404574E+03   -0.19391E-02   -0.64799E-04 29704   0.383E-02    0.313E+00
DAV: 192    -0.343699275752E+03   -0.87118E-03   -0.12968E-03 34312   0.412E-02    0.309E+00
DAV: 193    -0.343700562126E+03   -0.12864E-02   -0.35407E-03 35880   0.415E-02    0.338E+00
DAV: 194    -0.343699567614E+03    0.99451E-03   -0.62454E-04 28920   0.447E-02    0.366E+00
DAV: 195    -0.343697840932E+03    0.17267E-02   -0.16648E-04 27904   0.289E-02    0.386E+00
DAV: 196    -0.343696314243E+03    0.15267E-02   -0.53231E-05 25360   0.190E-02    0.400E+00
DAV: 197    -0.343694682035E+03    0.16322E-02   -0.23565E-04 28112   0.251E-02    0.398E+00
DAV: 198    -0.343694866594E+03   -0.18456E-03   -0.11658E-05 18592   0.809E-03    0.397E+00
DAV: 199    -0.343694852167E+03    0.14427E-04   -0.32670E-05 20240   0.125E-02    0.393E+00
DAV: 200    -0.343695138590E+03   -0.28642E-03   -0.12907E-03 34536   0.373E-02
   9 F= -.34369514E+03 E0= -.34367119E+03  d E =-.176544E-01  mag=    13.9028
       N       E                     dE             d eps       ncg     rms          rms(c)
DAV:   1    -0.343535609726E+03    0.15924E+00   -0.34424E+01 32304   0.173E+01    0.698E+00
DAV:   2    -0.346672813078E+03   -0.31372E+01   -0.23705E+01 41008   0.843E+00    0.261E+01
DAV:   3    -0.344843301450E+03    0.18295E+01   -0.62325E+00 40200   0.669E+00    0.228E+01
DAV:   4    -0.343591483201E+03    0.12518E+01   -0.28416E+00 40440   0.401E+00    0.900E+00
DAV:   5    -0.343805796169E+03   -0.21431E+00   -0.53144E-01 39352   0.217E+00    0.130E+01
DAV:   6    -0.343703043410E+03    0.10275E+00   -0.46613E-01 37856   0.130E+00    0.681E+00
DAV:   7    -0.343711957174E+03   -0.89138E-02   -0.58067E-02 35968   0.725E-01    0.617E+00
DAV:   8    -0.343697901406E+03    0.14056E-01   -0.15418E-02 34480   0.419E-01    0.666E+00
DAV:   9    -0.343698921807E+03   -0.10204E-02   -0.27766E-03 32472   0.166E-01    0.642E+00
DAV:  10    -0.343763971443E+03   -0.65050E-01   -0.66064E-01 43400   0.119E+00    0.706E+00
DAV:  11    -0.343768618844E+03   -0.46474E-02   -0.13675E-01 38920   0.109E+00    0.524E+00
DAV:  12    -0.343725428846E+03    0.43190E-01   -0.42867E-02 38984   0.815E-01    0.393E+00
DAV:  13    -0.343717202884E+03    0.82260E-02   -0.18126E-02 39032   0.403E-01    0.268E+00
DAV:  14    -0.343721444176E+03   -0.42413E-02   -0.78064E-03 38744   0.318E-01    0.183E+00
DAV:  15    -0.343730691971E+03   -0.92478E-02   -0.65649E-03 33912   0.256E-01    0.229E+00
DAV:  16    -0.343729772663E+03    0.91931E-03   -0.29764E-03 34304   0.182E-01    0.219E+00
DAV:  17    -0.343730324841E+03   -0.55218E-03   -0.10391E-03 38968   0.106E-01    0.200E+00
DAV:  18    -0.343731484569E+03   -0.11597E-02   -0.17808E-03 39920   0.136E-01    0.194E+00
DAV:  19    -0.343730295522E+03    0.11890E-02   -0.17145E-02 39936   0.207E-01    0.148E+00
DAV:  20    -0.343733543482E+03   -0.32480E-02   -0.26723E-03 37016   0.126E-01    0.193E+00
DAV:  21    -0.343732910356E+03    0.63313E-03   -0.69412E-04 30096   0.846E-02    0.229E+00
DAV:  22    -0.343731778421E+03    0.11319E-02   -0.37634E-03 37560   0.181E-01    0.223E+00
DAV:  23    -0.343734527788E+03   -0.27494E-02   -0.49471E-03 40000   0.297E-01    0.226E+00
DAV:  24    -0.343735582084E+03   -0.10543E-02   -0.58752E-03 40240   0.315E-01    0.181E+00
DAV:  25    -0.343736744420E+03   -0.11623E-02   -0.73797E-03 41072   0.205E-01    0.110E+00
DAV:  26    -0.343738796184E+03   -0.20518E-02   -0.20479E-03 31080   0.152E-01    0.126E+00
DAV:  27    -0.343737376879E+03    0.14193E-02   -0.43186E-04 30176   0.660E-02    0.142E+00
DAV:  28    -0.343737087625E+03    0.28925E-03   -0.76899E-04 38520   0.983E-02    0.145E+00
DAV:  29    -0.343735807987E+03    0.12796E-02   -0.17910E-03 38072   0.149E-01    0.566E-01
DAV:  30    -0.343738710365E+03   -0.29024E-02   -0.15795E-03 33928   0.124E-01    0.142E+00
DAV:  31    -0.343737889291E+03    0.82107E-03   -0.14076E-03 30824   0.124E-01    0.180E+00
DAV:  32    -0.343735881161E+03    0.20081E-02   -0.49902E-04 30848   0.630E-02    0.203E+00
DAV:  33    -0.343733757741E+03    0.21234E-02   -0.39152E-04 33872   0.580E-02    0.172E+00
DAV:  34    -0.343733712834E+03    0.44907E-04   -0.62886E-04 38216   0.635E-02    0.136E+00
DAV:  35    -0.343735342439E+03   -0.16296E-02   -0.82679E-04 37608   0.681E-02    0.129E+00
DAV:  36    -0.343736013143E+03   -0.67070E-03   -0.25187E-04 35352   0.351E-02    0.141E+00
DAV:  37    -0.343736098325E+03   -0.85182E-04   -0.69563E-05 26304   0.180E-02    0.150E+00
DAV:  38    -0.343735777266E+03    0.32106E-03   -0.43935E-05 22728   0.144E-02    0.152E+00
DAV:  39    -0.343735660398E+03    0.11687E-03   -0.73395E-06 18496   0.941E-03    0.153E+00
DAV:  40    -0.343735611828E+03    0.48570E-04   -0.79605E-06 18528   0.806E-03    0.155E+00
DAV:  41    -0.343735643797E+03   -0.31969E-04   -0.16796E-04 33680   0.391E-02    0.168E+00
DAV:  42    -0.343735221975E+03    0.42182E-03   -0.11723E-04 31128   0.245E-02    0.181E+00
DAV:  43    -0.343734370453E+03    0.85152E-03   -0.16110E-04 33536   0.331E-02    0.177E+00
DAV:  44    -0.343733787101E+03    0.58335E-03   -0.68677E-04 37704   0.694E-02    0.186E+00
DAV:  45    -0.343733551802E+03    0.23530E-03   -0.76301E-04 40608   0.681E-02    0.238E+00
DAV:  46    -0.343731864823E+03    0.16870E-02   -0.48156E-04 33312   0.520E-02    0.282E+00
DAV:  47    -0.343728976038E+03    0.28888E-02   -0.28879E-04 32808   0.488E-02    0.281E+00
DAV:  48    -0.343727912391E+03    0.10636E-02   -0.87651E-05 27880   0.229E-02    0.267E+00
DAV:  49    -0.343728289781E+03   -0.37739E-03   -0.64776E-05 24608   0.183E-02    0.254E+00
DAV:  50    -0.343728802321E+03   -0.51254E-03   -0.74511E-05 26184   0.189E-02    0.238E+00
DAV:  51    -0.343729609338E+03   -0.80702E-03   -0.91664E-05 27968   0.198E-02    0.226E+00
DAV:  52    -0.343729811431E+03   -0.20209E-03   -0.26753E-04 32864   0.315E-02    0.196E+00
DAV:  53    -0.343731252033E+03   -0.14406E-02   -0.19839E-04 30184   0.292E-02    0.178E+00
DAV:  54    -0.343732261577E+03   -0.10095E-02   -0.80990E-05 25656   0.193E-02    0.165E+00
DAV:  55    -0.343733090497E+03   -0.82892E-03   -0.61901E-05 24544   0.176E-02    0.164E+00
DAV:  56    -0.343732928508E+03    0.16199E-03   -0.34005E-04 33824   0.349E-02    0.159E+00
DAV:  57    -0.343732799656E+03    0.12885E-03   -0.38207E-04 33496   0.289E-02    0.148E+00
DAV:  58    -0.343733154264E+03   -0.35461E-03   -0.22998E-04 30072   0.244E-02    0.133E+00
DAV:  59    -0.343733783104E+03   -0.62884E-03   -0.71585E-05 25544   0.183E-02    0.124E+00
DAV:  60    -0.343734207459E+03   -0.42435E-03   -0.21950E-05 22280   0.125E-02    0.119E+00
DAV:  61    -0.343734309109E+03   -0.10165E-03   -0.10549E-05 18944   0.930E-03    0.114E+00
DAV:  62    -0.343732852500E+03    0.14566E-02   -0.32867E-03 39064   0.118E-01    0.787E-01
DAV:  63    -0.343734325909E+03   -0.14734E-02   -0.52992E-04 30264   0.516E-02    0.628E-01
DAV:  64    -0.343734940705E+03   -0.61480E-03   -0.10719E-04 28368   0.284E-02    0.576E-01
DAV:  65    -0.343734839881E+03    0.10082E-03   -0.68273E-05 24400   0.172E-02    0.466E-01
DAV:  66    -0.343735055013E+03   -0.21513E-03   -0.77812E-05 29216   0.226E-02    0.389E-01
DAV:  67    -0.343735234130E+03   -0.17912E-03   -0.18826E-04 34088   0.342E-02    0.284E-01
DAV:  68    -0.343735478497E+03   -0.24437E-03   -0.68913E-05 28280   0.201E-02    0.249E-01
DAV:  69    -0.343735615724E+03   -0.13723E-03   -0.43792E-05 25392   0.155E-02    0.250E-01
DAV:  70    -0.343735648002E+03   -0.32278E-04   -0.31364E-05 24344   0.114E-02    0.267E-01
DAV:  71    -0.343735601640E+03    0.46362E-04   -0.11927E-04 29952   0.263E-02    0.333E-01
DAV:  72    -0.343735672057E+03   -0.70417E-04   -0.32146E-05 25736   0.199E-02    0.404E-01
DAV:  73    -0.343735531981E+03    0.14008E-03   -0.23484E-05 21920   0.150E-02    0.490E-01
DAV:  74    -0.343735428372E+03    0.10361E-03   -0.13219E-05 19816   0.116E-02    0.536E-01
DAV:  75    -0.343735321479E+03    0.10689E-03   -0.12581E-05 18272   0.871E-03    0.538E-01
DAV:  76    -0.343735335357E+03   -0.13878E-04   -0.11841E-06 16480   0.421E-03    0.542E-01
DAV:  77    -0.343735317094E+03    0.18263E-04   -0.75823E-07 16064   0.259E-03    0.547E-01
DAV:  78    -0.343735284176E+03    0.32918E-04   -0.32391E-06 15760   0.287E-03    0.543E-01
DAV:  79    -0.343735272891E+03    0.11286E-04   -0.44201E-06 16104   0.288E-03    0.546E-01
DAV:  80    -0.343735198894E+03    0.73997E-04   -0.28561E-05 19032   0.745E-03    0.537E-01
DAV:  81    -0.343735189838E+03    0.90557E-05   -0.23425E-05 17896   0.539E-03
  10 F= -.34373519E+03 E0= -.34370989E+03  d E =-.400512E-01  mag=    13.1924
       N       E                     dE             d eps       ncg     rms          rms(c)
DAV:   1    -0.343363231319E+03    0.37197E+00   -0.88685E+01 32072   0.306E+01    0.410E+00
DAV:   2    -0.345985901031E+03   -0.26227E+01   -0.17516E+01 37920   0.710E+00    0.304E+01
DAV:   3    -0.343697067681E+03    0.22888E+01   -0.68284E+00 38624   0.506E+00    0.792E+00
DAV:   4    -0.343865083886E+03   -0.16802E+00   -0.56398E-01 38200   0.184E+00    0.111E+01
DAV:   5    -0.343759019156E+03    0.10606E+00   -0.23670E-01 38560   0.128E+00    0.530E+00
DAV:   6    -0.343757967327E+03    0.10518E-02   -0.98369E-02 36664   0.836E-01    0.419E+00
DAV:   7    -0.343763290407E+03   -0.53231E-02   -0.59548E-02 40208   0.716E-01    0.460E+00
DAV:   8    -0.343743251540E+03    0.20039E-01   -0.41202E-02 39120   0.566E-01    0.379E+00
DAV:   9    -0.343746606476E+03   -0.33549E-02   -0.77875E-03 30792   0.259E-01    0.476E+00
DAV:  10    -0.343731411486E+03    0.15195E-01   -0.15728E-02 34656   0.253E-01    0.501E+00
DAV:  11    -0.343718601954E+03    0.12810E-01   -0.25405E-02 40640   0.373E-01    0.472E+00
DAV:  12    -0.343723574647E+03   -0.49727E-02   -0.31636E-03 30440   0.146E-01    0.506E+00
DAV:  13    -0.343707348608E+03    0.16226E-01   -0.48510E-02 41768   0.583E-01    0.576E+00
DAV:  14    -0.343742692254E+03   -0.35344E-01   -0.90674E-02 38344   0.660E-01    0.790E+00
DAV:  15    -0.343758675877E+03   -0.15984E-01   -0.13383E-02 31552   0.388E-01    0.906E+00
DAV:  16    -0.343734405717E+03    0.24270E-01   -0.88617E-03 36072   0.318E-01    0.948E+00
DAV:  17    -0.343700446056E+03    0.33960E-01   -0.10228E-02 40688   0.461E-01    0.968E+00
DAV:  18    -0.343693769172E+03    0.66769E-02   -0.71527E-03 40248   0.267E-01    0.952E+00
DAV:  19    -0.343692541452E+03    0.12277E-02   -0.12161E-02 40040   0.186E-01    0.945E+00
DAV:  20    -0.343696676339E+03   -0.41349E-02   -0.31857E-02 38104   0.177E-01    0.920E+00
DAV:  21    -0.343700932960E+03   -0.42566E-02   -0.12040E-02 31712   0.132E-01    0.947E+00
DAV:  22    -0.343667452096E+03    0.33481E-01   -0.72992E-03 39104   0.250E-01    0.863E+00
DAV:  23    -0.343642512603E+03    0.24939E-01   -0.43342E-02 40472   0.412E-01    0.529E+00
DAV:  24    -0.343687859070E+03   -0.45346E-01   -0.19974E-02 30632   0.317E-01    0.381E+00
DAV:  25    -0.343704367975E+03   -0.16509E-01   -0.45396E-03 30688   0.196E-01    0.347E+00
DAV:  26    -0.343707266489E+03   -0.28985E-02   -0.47874E-03 32200   0.164E-01    0.383E+00
DAV:  27    -0.343703223845E+03    0.40426E-02   -0.10182E-02 37576   0.169E-01    0.459E+00
DAV:  28    -0.343690631499E+03    0.12592E-01   -0.20731E-03 31840   0.150E-01    0.435E+00
DAV:  29    -0.343702236565E+03   -0.11605E-01   -0.45553E-03 39816   0.175E-01    0.504E+00
DAV:  30    -0.343696757138E+03    0.54794E-02   -0.48492E-04 31232   0.673E-02    0.511E+00
DAV:  31    -0.343694181598E+03    0.25755E-02   -0.12723E-03 40512   0.116E-01    0.501E+00
DAV:  32    -0.343720716858E+03   -0.26535E-01   -0.13030E-02 40696   0.394E-01    0.632E+00
DAV:  33    -0.343719362426E+03    0.13544E-02   -0.48740E-03 30584   0.228E-01    0.664E+00
DAV:  34    -0.343712214010E+03    0.71484E-02   -0.84925E-03 36440   0.283E-01    0.744E+00
DAV:  35    -0.343709448070E+03    0.27659E-02   -0.81835E-03 35848   0.278E-01    0.882E+00
DAV:  36    -0.343691061829E+03    0.18386E-01   -0.32813E-03 30496   0.158E-01    0.933E+00
DAV:  37    -0.343676746156E+03    0.14316E-01   -0.35928E-03 39152   0.227E-01    0.827E+00
[...]
DAV:  24    -0.343870939646E+03   -0.12244E-02   -0.22988E-04 31440   0.429E-02    0.993E-01
DAV:  25    -0.343871252848E+03   -0.31320E-03   -0.26562E-05 23904   0.139E-02    0.103E+00
DAV:  26    -0.343871253360E+03   -0.51167E-06   -0.19980E-05 20552   0.176E-02
  50 F= -.34387125E+03 E0= -.34384726E+03  d E =0.991581E-03  mag=    13.1652
       N       E                     dE             d eps       ncg     rms          rms(c)
DAV:   1    -0.343865175595E+03    0.60773E-02   -0.13922E+00 32088   0.391E+00    0.179E+00
DAV:   2    -0.344073510429E+03   -0.20833E+00   -0.17861E+00 41304   0.194E+00    0.772E+00
DAV:   3    -0.343924016048E+03    0.14949E+00   -0.41070E-01 40256   0.177E+00    0.755E+00
DAV:   4    -0.343855821647E+03    0.68194E-01   -0.14144E-01 39296   0.802E-01    0.438E+00
DAV:   5    -0.343860947486E+03   -0.51258E-02   -0.10762E-02 35632   0.313E-01    0.327E+00
DAV:   6    -0.343863157061E+03   -0.22096E-02   -0.26905E-03 37064   0.195E-01    0.154E+00
DAV:   7    -0.343870464974E+03   -0.73079E-02   -0.12933E-03 30392   0.116E-01    0.842E-01
DAV:   8    -0.343872561477E+03   -0.20965E-02   -0.76077E-04 34104   0.823E-02    0.644E-01
DAV:   9    -0.343873474504E+03   -0.91303E-03   -0.66114E-04 33112   0.880E-02    0.102E+00
DAV:  10    -0.343873028499E+03    0.44601E-03   -0.35311E-04 32528   0.691E-02    0.125E+00
DAV:  11    -0.343872316549E+03    0.71195E-03   -0.17891E-04 33560   0.475E-02    0.134E+00
DAV:  12    -0.343871894817E+03    0.42173E-03   -0.96477E-05 29064   0.329E-02    0.141E+00
DAV:  13    -0.343871639134E+03    0.25568E-03   -0.41393E-05 24176   0.227E-02    0.145E+00
DAV:  14    -0.343871445296E+03    0.19384E-03   -0.57169E-05 23504   0.246E-02    0.149E+00
DAV:  15    -0.343871211605E+03    0.23369E-03   -0.92469E-05 25896   0.285E-02    0.150E+00
DAV:  16    -0.343871013373E+03    0.19823E-03   -0.16949E-04 30280   0.350E-02    0.148E+00
DAV:  17    -0.343871081021E+03   -0.67648E-04   -0.48563E-05 22800   0.193E-02    0.147E+00
DAV:  18    -0.343870957059E+03    0.12396E-03   -0.17886E-04 25992   0.303E-02    0.147E+00
DAV:  19    -0.343871470539E+03   -0.51348E-03   -0.32744E-04 33088   0.489E-02    0.139E+00
DAV:  20    -0.343871957568E+03   -0.48703E-03   -0.93638E-03 39520   0.300E-01    0.119E+00
DAV:  21    -0.343876608445E+03   -0.46509E-02   -0.37964E-03 34056   0.186E-01    0.268E+00
DAV:  22    -0.343871610317E+03    0.49981E-02   -0.16132E-03 32504   0.150E-01    0.262E+00
DAV:  23    -0.343868288519E+03    0.33218E-02   -0.58199E-04 40272   0.876E-02    0.190E+00
DAV:  24    -0.343870121991E+03   -0.18335E-02   -0.32445E-04 33672   0.570E-02    0.152E+00
DAV:  25    -0.343871053280E+03   -0.93129E-03   -0.26700E-04 34112   0.455E-02    0.120E+00
DAV:  26    -0.343871952292E+03   -0.89901E-03   -0.11226E-04 29168   0.305E-02    0.108E+00
DAV:  27    -0.343872400260E+03   -0.44797E-03   -0.22821E-05 22728   0.144E-02    0.105E+00
DAV:  28    -0.343872569200E+03   -0.16894E-03   -0.89345E-06 18968   0.936E-03    0.107E+00
DAV:  29    -0.343872595461E+03   -0.26261E-04   -0.24216E-05 20256   0.138E-02    0.107E+00
DAV:  30    -0.343872461149E+03    0.13431E-03   -0.12775E-04 29144   0.311E-02    0.960E-01
DAV:  31    -0.343872629996E+03   -0.16885E-03   -0.31683E-05 23480   0.167E-02    0.880E-01
DAV:  32    -0.343872671397E+03   -0.41402E-04   -0.14162E-05 19200   0.138E-02    0.692E-01
DAV:  33    -0.343872993799E+03   -0.32240E-03   -0.19545E-05 21840   0.151E-02    0.631E-01
DAV:  34    -0.343873054203E+03   -0.60405E-04   -0.10296E-05 19080   0.150E-02    0.425E-01
DAV:  35    -0.343873316990E+03   -0.26279E-03   -0.26047E-05 22912   0.175E-02    0.331E-01
DAV:  36    -0.343873443876E+03   -0.12689E-03   -0.12437E-05 18712   0.122E-02    0.245E-01
DAV:  37    -0.343873514693E+03   -0.70817E-04   -0.10374E-05 18856   0.102E-02    0.157E-01
DAV:  38    -0.343873568898E+03   -0.54205E-04   -0.54899E-06 17872   0.811E-03    0.968E-02
DAV:  39    -0.343873597547E+03   -0.28649E-04   -0.23533E-06 17152   0.592E-03    0.772E-02
DAV:  40    -0.343873606096E+03   -0.85490E-05   -0.68394E-07 16336   0.333E-03
  51 F= -.34387361E+03 E0= -.34384964E+03  d E =-.235274E-02  mag=    13.1411
       N       E                     dE             d eps       ncg     rms          rms(c)
DAV:   1    -0.343871945966E+03    0.16516E-02   -0.70769E-01 31544   0.260E+00    0.487E-01
DAV:   2    -0.343913129335E+03   -0.41183E-01   -0.43800E-02 38224   0.686E-01    0.680E+00
DAV:   3    -0.343847710466E+03    0.65419E-01   -0.27369E-02 34464   0.625E-01    0.270E+00
DAV:   4    -0.343864506929E+03   -0.16796E-01   -0.37387E-03 31960   0.184E-01    0.126E+00
DAV:   5    -0.343872194434E+03   -0.76875E-02   -0.17676E-03 32832   0.138E-01    0.648E-01
DAV:   6    -0.343874299815E+03   -0.21054E-02   -0.81551E-04 33912   0.104E-01    0.295E-01
DAV:   7    -0.343875098160E+03   -0.79835E-03   -0.47865E-04 37280   0.832E-02    0.340E-01
DAV:   8    -0.343875039758E+03    0.58401E-04   -0.39187E-04 37896   0.672E-02    0.242E-01
DAV:   9    -0.343875004433E+03    0.35326E-04   -0.85768E-05 28176   0.297E-02    0.182E-01
DAV:  10    -0.343875008974E+03   -0.45413E-05   -0.13693E-05 18888   0.126E-02
  52 F= -.34387501E+03 E0= -.34385096E+03  d E =-.140288E-02  mag=    13.1421
       N       E                     dE             d eps       ncg     rms          rms(c)
DAV:   1    -0.343865794506E+03    0.92099E-02   -0.23482E+00 32216   0.472E+00    0.574E-01
DAV:   2    -0.343906273422E+03   -0.40479E-01   -0.14989E-01 35776   0.970E-01    0.561E+00
DAV:   3    -0.343857388907E+03    0.48885E-01   -0.53946E-02 35112   0.657E-01    0.148E+00
DAV:   4    -0.343872591429E+03   -0.15203E-01   -0.39280E-03 31928   0.194E-01    0.966E-01
DAV:   5    -0.343876318128E+03   -0.37267E-02   -0.32677E-03 33464   0.182E-01    0.959E-01
DAV:   6    -0.343875765236E+03    0.55289E-03   -0.58738E-04 31936   0.854E-02    0.105E+00
DAV:   7    -0.343875393933E+03    0.37130E-03   -0.25908E-04 34968   0.551E-02    0.132E+00
DAV:   8    -0.343875033290E+03    0.36064E-03   -0.55402E-04 39688   0.775E-02    0.170E+00
DAV:   9    -0.343874259338E+03    0.77395E-03   -0.13549E-04 28832   0.399E-02    0.183E+00
DAV:  10    -0.343873479608E+03    0.77973E-03   -0.17039E-04 31576   0.488E-02    0.164E+00
DAV:  11    -0.343873209222E+03    0.27039E-03   -0.16286E-03 41064   0.155E-01    0.848E-01
DAV:  12    -0.343876101881E+03   -0.28927E-02   -0.22981E-03 37896   0.152E-01    0.979E-01
DAV:  13    -0.343877012609E+03   -0.91073E-03   -0.19549E-03 35568   0.172E-01    0.159E+00
DAV:  14    -0.343876123094E+03    0.88951E-03   -0.13581E-03 33288   0.138E-01    0.201E+00
DAV:  15    -0.343873707133E+03    0.24160E-02   -0.71689E-04 36080   0.999E-02    0.180E+00
DAV:  16    -0.343873062525E+03    0.64461E-03   -0.22480E-04 37704   0.669E-02    0.134E+00
DAV:  17    -0.343874013924E+03   -0.95140E-03   -0.20317E-04 32184   0.518E-02    0.965E-01
DAV:  18    -0.343874892499E+03   -0.87857E-03   -0.18913E-04 30872   0.457E-02    0.628E-01
DAV:  19    -0.343875606566E+03   -0.71407E-03   -0.12962E-04 30960   0.367E-02    0.427E-01
DAV:  20    -0.343875957877E+03   -0.35131E-03   -0.81278E-05 27968   0.305E-02    0.307E-01
DAV:  21    -0.343876138341E+03   -0.18046E-03   -0.39816E-05 22712   0.195E-02    0.294E-01
DAV:  22    -0.343876211326E+03   -0.72985E-04   -0.34799E-05 22264   0.170E-02    0.388E-01
DAV:  23    -0.343876208974E+03    0.23523E-05   -0.13307E-04 32888   0.372E-02    0.604E-01
DAV:  24    -0.343875973628E+03    0.23535E-03   -0.10612E-04 30384   0.313E-02    0.576E-01
DAV:  25    -0.343875841323E+03    0.13230E-03   -0.68609E-05 25880   0.302E-02    0.244E-01
DAV:  26    -0.343876157651E+03   -0.31633E-03   -0.67829E-05 28640   0.269E-02    0.498E-02
DAV:  27    -0.343876296625E+03   -0.13897E-03   -0.32510E-05 23928   0.199E-02    0.662E-02
DAV:  28    -0.343876304817E+03   -0.81914E-05   -0.89432E-06 17400   0.112E-02
  53 F= -.34387630E+03 E0= -.34385224E+03  d E =-.129584E-02  mag=    13.1420
       N       E                     dE             d eps       ncg     rms          rms(c)
DAV:   1    -0.343846338665E+03    0.29958E-01   -0.65895E+00 32096   0.821E+00    0.610E-01
DAV:   2    -0.343886097138E+03   -0.39758E-01   -0.30266E-01 29960   0.140E+00    0.390E+00
DAV:   3    -0.343865800769E+03    0.20296E-01   -0.13730E-02 35176   0.452E-01    0.829E-01
DAV:   4    -0.343880463572E+03   -0.14663E-01   -0.23668E-02 36488   0.328E-01    0.218E+00
DAV:   5    -0.343874987294E+03    0.54763E-02   -0.10575E-02 35872   0.290E-01    0.101E+00
DAV:   6    -0.343875847096E+03   -0.85980E-03   -0.17244E-03 33672   0.133E-01    0.987E-01
DAV:   7    -0.343875532530E+03    0.31457E-03   -0.19763E-04 30496   0.503E-02    0.102E+00
DAV:   8    -0.343875431624E+03    0.10091E-03   -0.16221E-04 30664   0.404E-02    0.121E+00
DAV:   9    -0.343875242397E+03    0.18923E-03   -0.25882E-04 32976   0.506E-02    0.140E+00
DAV:  10    -0.343874889088E+03    0.35331E-03   -0.79302E-05 28968   0.301E-02    0.156E+00
DAV:  11    -0.343874548799E+03    0.34029E-03   -0.32185E-05 23352   0.200E-02    0.165E+00
DAV:  12    -0.343874503512E+03    0.45288E-04   -0.17097E-04 28536   0.415E-02    0.171E+00
DAV:  13    -0.343874471101E+03    0.32411E-04   -0.36381E-04 36008   0.573E-02    0.184E+00
DAV:  14    -0.343873982201E+03    0.48890E-03   -0.44392E-04 37880   0.690E-02    0.180E+00
DAV:  15    -0.343873397833E+03    0.58437E-03   -0.13382E-03 39864   0.103E-01    0.136E+00
DAV:  16    -0.343874170826E+03   -0.77299E-03   -0.25944E-03 40776   0.164E-01    0.717E-01
DAV:  17    -0.343877655760E+03   -0.34849E-02   -0.23958E-03 34720   0.175E-01    0.170E+00
DAV:  18    -0.343876369160E+03    0.12866E-02   -0.14745E-03 33456   0.146E-01    0.216E+00
DAV:  19    -0.343872257929E+03    0.41112E-02   -0.16831E-03 37496   0.132E-01    0.135E+00
DAV:  20    -0.343873780041E+03   -0.15221E-02   -0.76824E-04 36472   0.836E-02    0.521E-01
DAV:  21    -0.343875830453E+03   -0.20504E-02   -0.49775E-04 31224   0.674E-02    0.118E-01
DAV:  22    -0.343876550862E+03   -0.72041E-03   -0.22382E-04 30384   0.513E-02    0.190E-01
DAV:  23    -0.343876559029E+03   -0.81676E-05   -0.68255E-05 28040   0.278E-02
  54 F= -.34387656E+03 E0= -.34385245E+03  d E =-.254212E-03  mag=    13.1491
       N       E                     dE             d eps       ncg     rms          rms(c)
DAV:   1    -0.343858304284E+03    0.18247E-01   -0.37833E+00 32392   0.653E+00    0.879E-01
DAV:   2    -0.343959823958E+03   -0.10152E+00   -0.21211E-01 36512   0.140E+00    0.887E+00
DAV:   3    -0.343837249525E+03    0.12257E+00   -0.21365E-01 36152   0.102E+00    0.216E+00
DAV:   4    -0.343871709327E+03   -0.34460E-01   -0.15491E-02 31808   0.375E-01    0.127E+00
DAV:   5    -0.343876785461E+03   -0.50761E-02   -0.56506E-03 34216   0.271E-01    0.769E-01
DAV:   6    -0.343876526943E+03    0.25852E-03   -0.17795E-03 37560   0.148E-01    0.516E-01
DAV:   7    -0.343876756894E+03   -0.22995E-03   -0.84937E-04 38792   0.998E-02    0.541E-01
DAV:   8    -0.343876413908E+03    0.34299E-03   -0.58675E-04 38152   0.794E-02    0.347E-01
DAV:   9    -0.343876445803E+03   -0.31895E-04   -0.17414E-04 30944   0.439E-02    0.322E-01
DAV:  10    -0.343876422809E+03    0.22994E-04   -0.88765E-05 26144   0.309E-02    0.304E-01
DAV:  11    -0.343876463076E+03   -0.40267E-04   -0.31317E-04 28664   0.463E-02    0.382E-01
DAV:  12    -0.343876760622E+03   -0.29755E-03   -0.96719E-04 39096   0.995E-02    0.796E-01
DAV:  13    -0.343876440185E+03    0.32044E-03   -0.85687E-04 38216   0.106E-01    0.110E+00
DAV:  14    -0.343876181265E+03    0.25892E-03   -0.69517E-04 38160   0.892E-02    0.140E+00
DAV:  15    -0.343875149011E+03    0.10323E-02   -0.47125E-04 37432   0.747E-02    0.142E+00
DAV:  16    -0.343874237744E+03    0.91127E-03   -0.63331E-04 38376   0.776E-02    0.571E-01
DAV:  17    -0.343876009716E+03   -0.17720E-02   -0.87952E-04 34688   0.925E-02    0.489E-01
DAV:  18    -0.343876527474E+03   -0.51776E-03   -0.55129E-04 33272   0.855E-02    0.417E-01
DAV:  19    -0.343876441268E+03    0.86206E-04   -0.25158E-04 39680   0.593E-02    0.307E-01
DAV:  20    -0.343876920074E+03   -0.47881E-03   -0.29434E-04 34056   0.583E-02    0.911E-01
DAV:  21    -0.343876328446E+03    0.59163E-03   -0.22290E-04 30072   0.498E-02    0.111E+00
DAV:  22    -0.343875444842E+03    0.88360E-03   -0.79164E-05 29040   0.344E-02    0.813E-01
DAV:  23    -0.343875634049E+03   -0.18921E-03   -0.11225E-04 35112   0.372E-02    0.193E-01
DAV:  24    -0.343876525695E+03   -0.89165E-03   -0.18153E-04 29736   0.439E-02    0.298E-01
DAV:  25    -0.343876636156E+03   -0.11046E-03   -0.10836E-04 29112   0.385E-02    0.327E-01
DAV:  26    -0.343876537333E+03    0.98823E-04   -0.18725E-05 21488   0.158E-02    0.247E-01
DAV:  27    -0.343876546324E+03   -0.89910E-05   -0.72772E-06 17736   0.910E-03
  55 F= -.34387655E+03 E0= -.34385258E+03  d E =0.127056E-04  mag=    13.1610
       N       E                     dE             d eps       ncg     rms          rms(c)
DAV:   1    -0.343867034874E+03    0.95025E-02   -0.27712E+00 32064   0.501E+00    0.549E-01
DAV:   2    -0.343898381291E+03   -0.31346E-01   -0.12038E-01 33168   0.936E-01    0.488E+00
DAV:   3    -0.343862725209E+03    0.35656E-01   -0.21465E-02 33128   0.584E-01    0.108E+00
DAV:   4    -0.343877366666E+03   -0.14641E-01   -0.71098E-03 32664   0.225E-01    0.113E+00
DAV:   5    -0.343878474288E+03   -0.11076E-02   -0.26226E-03 33368   0.179E-01    0.102E+00
DAV:   6    -0.343877997417E+03    0.47687E-03   -0.13982E-03 39024   0.128E-01    0.857E-01
DAV:   7    -0.343877988143E+03    0.92744E-05   -0.12848E-03 38952   0.104E-01    0.579E-01
DAV:   8    -0.343878375059E+03   -0.38692E-03   -0.87841E-04 37920   0.958E-02    0.643E-01
DAV:   9    -0.343878674767E+03   -0.29971E-03   -0.45375E-04 31248   0.720E-02    0.104E+00
DAV:  10    -0.343878023267E+03    0.65150E-03   -0.19583E-04 31208   0.524E-02    0.121E+00
DAV:  11    -0.343877167450E+03    0.85582E-03   -0.49193E-04 38768   0.762E-02    0.794E-01
DAV:  12    -0.343877614518E+03   -0.44707E-03   -0.53103E-04 38864   0.873E-02    0.328E-01
DAV:  13    -0.343878598726E+03   -0.98421E-03   -0.57316E-04 35464   0.930E-02    0.656E-01
DAV:  14    -0.343878128044E+03    0.47068E-03   -0.48364E-04 36992   0.880E-02    0.572E-01
DAV:  15    -0.343878124502E+03    0.35425E-05   -0.64849E-04 38424   0.768E-02    0.430E-01
DAV:  16    -0.343878231905E+03   -0.10740E-03   -0.65651E-04 37208   0.675E-02    0.280E-01
DAV:  17    -0.343878365506E+03   -0.13360E-03   -0.15810E-04 31640   0.479E-02    0.351E-01
DAV:  18    -0.343878325888E+03    0.39619E-04   -0.93190E-05 24584   0.275E-02    0.344E-01
DAV:  19    -0.343878313655E+03    0.12232E-04   -0.72378E-05 25200   0.210E-02    0.292E-01
DAV:  20    -0.343878327555E+03   -0.13900E-04   -0.21136E-05 19400   0.157E-02    0.218E-01
DAV:  21    -0.343878366821E+03   -0.39266E-04   -0.60515E-06 17472   0.882E-03    0.189E-01
DAV:  22    -0.343878385620E+03   -0.18799E-04   -0.21634E-06 16904   0.536E-03    0.172E-01
DAV:  23    -0.343878394770E+03   -0.91499E-05   -0.51480E-05 22440   0.201E-02
  56 F= -.34387839E+03 E0= -.34385443E+03  d E =-.184845E-02  mag=    13.1533
       N       E                     dE             d eps       ncg     rms          rms(c)
DAV:   1    -0.343877681851E+03    0.70377E-03   -0.15761E-01 33368   0.149E+00    0.743E-01
DAV:   2    -0.343945484124E+03   -0.67802E-01   -0.29884E-01 41208   0.845E-01    0.604E+00
DAV:   3    -0.343866981714E+03    0.78502E-01   -0.83698E-02 38184   0.848E-01    0.355E+00
DAV:   4    -0.343867128585E+03   -0.14687E-03   -0.10882E-02 35296   0.273E-01    0.172E+00
DAV:   5    -0.343874113039E+03   -0.69845E-02   -0.13072E-03 32112   0.117E-01    0.864E-01
DAV:   6    -0.343877096167E+03   -0.29831E-02   -0.66364E-04 32176   0.904E-02    0.238E-01
DAV:   7    -0.343878428463E+03   -0.13323E-02   -0.42419E-04 33888   0.741E-02    0.344E-01
DAV:   8    -0.343878400829E+03    0.27634E-04   -0.16431E-04 31320   0.475E-02    0.266E-01
DAV:   9    -0.343878354068E+03    0.46761E-04   -0.23468E-05 20992   0.186E-02    0.215E-01
DAV:  10    -0.343878374571E+03   -0.20503E-04   -0.14002E-05 18176   0.128E-02    0.192E-01
DAV:  11    -0.343878408158E+03   -0.33587E-04   -0.30546E-05 21232   0.201E-02    0.199E-01
DAV:  12    -0.343878439985E+03   -0.31827E-04   -0.13535E-04 30240   0.453E-02    0.195E-01
DAV:  13    -0.343878512018E+03   -0.72033E-04   -0.22536E-04 29192   0.538E-02    0.290E-01
DAV:  14    -0.343878443687E+03    0.68331E-04   -0.21727E-04 33304   0.559E-02    0.142E-01
DAV:  15    -0.343878561259E+03   -0.11757E-03   -0.22530E-04 27144   0.484E-02    0.327E-01
DAV:  16    -0.343878532827E+03    0.28432E-04   -0.13497E-04 30528   0.454E-02    0.503E-01
DAV:  17    -0.343878367744E+03    0.16508E-03   -0.90736E-05 27288   0.333E-02    0.584E-01
DAV:  18    -0.343878150958E+03    0.21679E-03   -0.34052E-05 19888   0.210E-02    0.472E-01
DAV:  19    -0.343878224784E+03   -0.73826E-04   -0.11360E-05 18312   0.947E-03    0.415E-01
DAV:  20    -0.343878279219E+03   -0.54436E-04   -0.12128E-05 18952   0.907E-03    0.346E-01
DAV:  21    -0.343878350917E+03   -0.71698E-04   -0.10096E-05 19808   0.932E-03    0.316E-01
DAV:  22    -0.343878377097E+03   -0.26179E-04   -0.18273E-05 19952   0.136E-02    0.251E-01
DAV:  23    -0.343878405896E+03   -0.28799E-04   -0.12090E-05 20528   0.117E-02    0.125E-01
DAV:  24    -0.343878469834E+03   -0.63939E-04   -0.86921E-06 18200   0.113E-02    0.698E-02
DAV:  25    -0.343878492573E+03   -0.22738E-04   -0.41193E-06 17056   0.752E-03    0.357E-02
DAV:  26    -0.343878501077E+03   -0.85041E-05   -0.23429E-06 16736   0.572E-03
  57 F= -.34387850E+03 E0= -.34385455E+03  d E =-.106307E-03  mag=    13.1467
       N       E                     dE             d eps       ncg     rms          rms(c)
DAV:   1    -0.343876789916E+03    0.17027E-02   -0.46142E-01 32048   0.227E+00    0.200E-01
DAV:   2    -0.343882150116E+03   -0.53602E-02   -0.20204E-02 33040   0.398E-01    0.263E+00
DAV:   3    -0.343873637145E+03    0.85130E-02   -0.31406E-03 32560   0.241E-01    0.776E-01
DAV:   4    -0.343877605285E+03   -0.39681E-02   -0.11281E-03 32312   0.978E-02    0.463E-01
DAV:   5    -0.343878557669E+03   -0.95238E-03   -0.79414E-04 32800   0.878E-02    0.322E-01
DAV:   6    -0.343878837232E+03   -0.27956E-03   -0.40124E-04 33752   0.678E-02    0.470E-01
DAV:   7    -0.343878614694E+03    0.22254E-03   -0.19164E-04 32656   0.495E-02    0.357E-01
DAV:   8    -0.343878595836E+03    0.18857E-04   -0.85618E-05 24776   0.304E-02    0.218E-01
DAV:   9    -0.343878684680E+03   -0.88843E-04   -0.61033E-05 21856   0.291E-02    0.138E-01
DAV:  10    -0.343878782230E+03   -0.97550E-04   -0.67310E-05 26768   0.310E-02    0.308E-01
DAV:  11    -0.343878722590E+03    0.59640E-04   -0.45312E-05 24048   0.249E-02    0.385E-01
DAV:  12    -0.343878611921E+03    0.11067E-03   -0.11300E-05 18424   0.136E-02    0.361E-01
DAV:  13    -0.343878592561E+03    0.19360E-04   -0.41864E-06 16288   0.819E-03    0.315E-01
DAV:  14    -0.343878612786E+03   -0.20225E-04   -0.91595E-06 17680   0.104E-02    0.235E-01
DAV:  15    -0.343878665635E+03   -0.52849E-04   -0.22704E-05 19976   0.172E-02    0.172E-01
DAV:  16    -0.343878710460E+03   -0.44825E-04   -0.27873E-05 21952   0.241E-02    0.134E-01
DAV:  17    -0.343878739332E+03   -0.28872E-04   -0.42613E-05 21912   0.245E-02    0.138E-01
DAV:  18    -0.343878728486E+03    0.10846E-04   -0.30988E-05 20072   0.228E-02    0.386E-02
DAV:  19    -0.343878747223E+03   -0.18737E-04   -0.19513E-05 18392   0.136E-02    0.327E-02
DAV:  20    -0.343878750468E+03   -0.32444E-05   -0.73102E-06 17152   0.852E-03
  58 F= -.34387875E+03 E0= -.34385481E+03  d E =-.249391E-03  mag=    13.1485
