       N       E                     dE             d eps       ncg     rms          rms(c)
DAV:   1     0.531541503128E+04    0.53154E+04   -0.22217E+05 28880   0.159E+03
DAV:   2     0.403341470818E+03   -0.49121E+04   -0.45595E+04 30480   0.463E+02
DAV:   3    -0.323140252051E+03   -0.72648E+03   -0.68328E+03 34144   0.183E+02
DAV:   4    -0.353542560873E+03   -0.30402E+02   -0.29870E+02 32592   0.385E+01
DAV:   5    -0.354606748937E+03   -0.10642E+01   -0.10623E+01 45392   0.680E+00    0.227E-01
DAV:   6    -0.354675820752E+03   -0.69072E-01   -0.28651E-01 39728   0.945E-01    0.656E-01
DAV:   7    -0.354675648667E+03    0.17208E-03   -0.13193E-02 41200   0.246E-01    0.353E-01
DAV:   8    -0.354675706403E+03   -0.57736E-04   -0.47810E-03 40192   0.108E-01    0.294E-01
DAV:   9    -0.354675616095E+03    0.90309E-04   -0.17752E-03 38336   0.670E-02    0.136E-01
DAV:  10    -0.354675674800E+03   -0.58705E-04   -0.62100E-04 28000   0.487E-02    0.175E-01
DAV:  11    -0.354675661383E+03    0.13417E-04   -0.55495E-04 25904   0.426E-02    0.107E-01
DAV:  12    -0.354675667572E+03   -0.61889E-05   -0.33870E-04 22976   0.327E-02    0.962E-02
DAV:  13    -0.354675669906E+03   -0.23347E-05   -0.18814E-04 22864   0.294E-02    0.691E-02
DAV:  14    -0.354675678583E+03   -0.86765E-05   -0.12620E-04 23520   0.268E-02    0.555E-02
DAV:  15    -0.354675677540E+03    0.10432E-05   -0.96726E-05 22592   0.224E-02
   1 F= -.35467568E+03 E0= -.35465944E+03  d E =-.354676E+03  mag=     8.0000
