       N       E                     dE             d eps       ncg     rms          ort
DAV:   1     0.695659889960E+04    0.69566E+04   -0.30568E+05  9360   0.164E+03
DAV:   2     0.471654322809E+03   -0.64849E+04   -0.60239E+04  9360   0.473E+02
DAV:   3    -0.371349315775E+03   -0.84300E+03   -0.82770E+03  9360   0.184E+02
DAV:   4    -0.411618940948E+03   -0.40270E+02   -0.39755E+02  9360   0.360E+01
DAV:   5    -0.413859253456E+03   -0.22403E+01   -0.22152E+01  9360   0.636E+00
SDA:   6    -0.267406743489E+03    0.14645E+03   -0.22152E+01  9360   0.876E+03 0.000E+00
CGA:   7    -0.347173680963E+03   -0.79767E+02   -0.94238E+02  9360   0.533E+03-0.799E+02
CGA:   8    -0.356931409194E+03   -0.97577E+01   -0.27984E+02  9360   0.133E+03-0.970E+02
CGA:   9    -0.354782706010E+03    0.21487E+01   -0.75858E+01  9360   0.423E+03-0.130E+03
CGA:  10    -0.357548601201E+03   -0.27659E+01   -0.28969E+02  9360   0.114E+03-0.285E+02
CGA:  11    -0.363837206171E+03   -0.62886E+01   -0.67485E+01  9360   0.153E+03 0.608E+02
CGA:  12    -0.366664569104E+03   -0.28274E+01   -0.10945E+02  9360   0.737E+02-0.575E+02
CGA:  13    -0.368265465132E+03   -0.16009E+01   -0.32282E+01  9360   0.901E+02-0.269E+02
CGA:  14    -0.368239665202E+03    0.25800E-01   -0.39361E+01  9360   0.919E+02-0.282E+02
CGA:  15    -0.371057231656E+03   -0.28176E+01   -0.54916E+01  9360   0.261E+02 0.107E+02
CGA:  16    -0.372210646531E+03   -0.11534E+01   -0.86314E+00  9360   0.214E+02 0.138E+02
CGA:  17    -0.373168059501E+03   -0.95741E+00   -0.45796E+00  9360   0.919E+01 0.185E+02
CGA:  18    -0.373433384353E+03   -0.26532E+00   -0.16852E+00  9360   0.293E+01 0.477E+01
CGA:  19    -0.373607568306E+03   -0.17418E+00   -0.11186E+00  9360   0.198E+01 0.134E+01
CGA:  20    -0.373824112983E+03   -0.21654E+00   -0.16298E+00  9360   0.526E+01 0.500E+00
CGA:  21    -0.373946382279E+03   -0.12227E+00   -0.26669E+00  9360   0.226E+02-0.453E+01
CGA:  22    -0.373933858536E+03    0.12524E-01   -0.10470E+01  9360   0.221E+02-0.155E+02
CGA:  23    -0.373836291371E+03    0.97567E-01   -0.95187E+00  9360   0.306E+02-0.212E+02
CGA:  24    -0.373717659342E+03    0.11863E+00   -0.13488E+01  9360   0.249E+02-0.209E+02
CGA:  25    -0.374296005191E+03   -0.57835E+00   -0.83859E+00  9360   0.152E+02-0.240E+02
CGA:  26    -0.374355395202E+03   -0.59390E-01   -0.57084E+00  9360   0.126E+02-0.123E+02
CGA:  27    -0.374574110746E+03   -0.21872E+00   -0.37035E+00  9360   0.401E+01-0.678E+01
CGA:  28    -0.374646336223E+03   -0.72225E-01   -0.11159E+00  9360   0.109E+01-0.139E+01
CGA:  29    -0.374707819916E+03   -0.61484E-01   -0.61944E-01  9360   0.828E+00 0.186E-01
CGA:  30    -0.374758410148E+03   -0.50590E-01   -0.54401E-01  9360   0.716E+00 0.444E-02
CGA:  31    -0.374828918409E+03   -0.70508E-01   -0.70203E-01  9360   0.628E+00 0.502E-01
CGA:  32    -0.374869867569E+03   -0.40949E-01   -0.43062E-01  9360   0.295E+00 0.183E-02
CGA:  33    -0.374890152061E+03   -0.20284E-01   -0.20435E-01  9360   0.163E+00-0.202E-03
CGA:  34    -0.374902628799E+03   -0.12477E-01   -0.12746E-01  9360   0.892E-01 0.672E-02
CGA:  35    -0.374909759697E+03   -0.71309E-02   -0.71659E-02  9360   0.526E-01 0.745E-03
CGA:  36    -0.374914691040E+03   -0.49313E-02   -0.49194E-02  9360   0.329E-01 0.255E-02
CGA:  37    -0.374917409982E+03   -0.27189E-02   -0.27354E-02  9360   0.187E-01 0.530E-03
CGA:  38    -0.374919226711E+03   -0.18167E-02   -0.18122E-02  9360   0.126E-01 0.451E-03
CGA:  39    -0.374920462336E+03   -0.12356E-02   -0.12328E-02  9360   0.774E-02 0.263E-03
CGA:  40    -0.374921255625E+03   -0.79329E-03   -0.79162E-03  9360   0.546E-02 0.793E-04
CGA:  41    -0.374921845427E+03   -0.58980E-03   -0.58807E-03  9360   0.378E-02 0.445E-04
CGA:  42    -0.374922215814E+03   -0.37039E-03   -0.37012E-03  9360   0.231E-02 0.177E-05
CGA:  43    -0.374922471239E+03   -0.25543E-03   -0.25593E-03  9360   0.176E-02-0.350E-04
CGA:  44    -0.374922657648E+03   -0.18641E-03   -0.18675E-03  9360   0.109E-02-0.313E-04
CGA:  45    -0.374922766075E+03   -0.10843E-03   -0.10873E-03  9360   0.732E-03-0.400E-04
CGA:  46    -0.374922847237E+03   -0.81162E-04   -0.81885E-04  9360   0.557E-03-0.337E-04
CGA:  47    -0.374922900893E+03   -0.53655E-04   -0.53841E-04  9360   0.313E-03-0.280E-04
CGA:  48    -0.374922932544E+03   -0.31652E-04   -0.31776E-04  9360   0.224E-03-0.111E-04
CGA:  49    -0.374922958835E+03   -0.26290E-04   -0.26589E-04  9360   0.203E-03-0.103E-04
CGA:  50    -0.374922981574E+03   -0.22739E-04   -0.22699E-04  9360   0.153E-03 0.137E-06
CGA:  51    -0.374922998809E+03   -0.17235E-04   -0.17483E-04  9360   0.158E-03-0.119E-04
CGA:  52    -0.374923016208E+03   -0.17400E-04   -0.18516E-04  9360   0.401E-04-0.320E-04
CGA:  53    -0.374923018045E+03   -0.18371E-05   -0.18265E-05  9360   0.228E-04 0.630E-06
   1 F= -.37492302E+03 E0= -.37491688E+03  d E =-.374923E+03  mag=    58.0000
       N       E                     dE             d eps       ncg     rms          ort
SDA:   1    -0.374991046800E+03   -0.68031E-01    0.00000E+00  9360   0.179E-01 0.000E+00
CGA:   2    -0.374992440224E+03   -0.13934E-02   -0.13871E-02  9360   0.177E-01-0.331E-04
CGA:   3    -0.374994316143E+03   -0.18759E-02   -0.18757E-02  9360   0.322E-02 0.408E-04
CGA:   4    -0.374994856588E+03   -0.54044E-03   -0.54143E-03  9360   0.389E-02-0.148E-04
CGA:   5    -0.374995108743E+03   -0.25216E-03   -0.25159E-03  9360   0.650E-03-0.325E-05
CGA:   6    -0.374995201934E+03   -0.93191E-04   -0.93159E-04  9360   0.258E-03 0.899E-06
CGA:   7    -0.374995242858E+03   -0.40924E-04   -0.40800E-04  9360   0.100E-03 0.234E-05
CGA:   8    -0.374995253855E+03   -0.10998E-04   -0.10997E-04  9360   0.112E-03-0.211E-06
CGA:   9    -0.374995263809E+03   -0.99541E-05   -0.99662E-05  9360   0.454E-04 0.613E-06
   2 F= -.37499526E+03 E0= -.37498916E+03  d E =-.722458E-01  mag=    58.0000
       N       E                     dE             d eps       ncg     rms          ort
SDA:   1    -0.373654095881E+03    0.13412E+01    0.00000E+00  9360   0.879E+01 0.000E+00
CGA:   2    -0.375549829661E+03   -0.18957E+01   -0.18899E+01  9360   0.694E+01 0.913E-01
CGA:   3    -0.375919227094E+03   -0.36940E+00   -0.42954E+00  9360   0.339E+01-0.953E+00
CGA:   4    -0.376352681283E+03   -0.43345E+00   -0.44854E+00  9360   0.143E+01-0.270E+00
CGA:   5    -0.376429872008E+03   -0.77191E-01   -0.85421E-01  9360   0.538E+00-0.494E-01
CGA:   6    -0.376488649035E+03   -0.58777E-01   -0.58829E-01  9360   0.274E+00-0.142E-01
CGA:   7    -0.376509159961E+03   -0.20511E-01   -0.20809E-01  9360   0.137E+00 0.353E-03
CGA:   8    -0.376521037000E+03   -0.11877E-01   -0.11914E-01  9360   0.601E-01 0.290E-03
CGA:   9    -0.376527701717E+03   -0.66647E-02   -0.66659E-02  9360   0.460E-01-0.282E-03
CGA:  10    -0.376532075942E+03   -0.43742E-02   -0.43774E-02  9360   0.210E-01 0.988E-04
CGA:  11    -0.376534864106E+03   -0.27882E-02   -0.27834E-02  9360   0.253E-01 0.144E-03
CGA:  12    -0.376537065426E+03   -0.22013E-02   -0.21989E-02  9360   0.101E-01-0.128E-04
CGA:  13    -0.376538257368E+03   -0.11919E-02   -0.11909E-02  9360   0.103E-01 0.675E-04
CGA:  14    -0.376539374055E+03   -0.11167E-02   -0.11166E-02  9360   0.445E-02-0.372E-04
CGA:  15    -0.376539840384E+03   -0.46633E-03   -0.46648E-03  9360   0.368E-02 0.238E-04
CGA:  16    -0.376540203789E+03   -0.36340E-03   -0.36340E-03  9360   0.204E-02 0.148E-05
CGA:  17    -0.376540406357E+03   -0.20257E-03   -0.20259E-03  9360   0.130E-02 0.484E-05
CGA:  18    -0.376540531493E+03   -0.12514E-03   -0.12517E-03  9360   0.592E-03 0.241E-05
CGA:  19    -0.376540603704E+03   -0.72211E-04   -0.72167E-04  9360   0.529E-03 0.290E-05
CGA:  20    -0.376540648927E+03   -0.45224E-04   -0.45220E-04  9360   0.206E-03-0.243E-06
CGA:  21    -0.376540669658E+03   -0.20731E-04   -0.20731E-04  9360   0.178E-03-0.138E-06
CGA:  22    -0.376540691232E+03   -0.21574E-04   -0.21599E-04  9360   0.887E-04-0.158E-05
CGA:  23    -0.376540699231E+03   -0.79995E-05   -0.79894E-05  9360   0.588E-04-0.714E-06
   3 F= -.37654070E+03 E0= -.37653446E+03  d E =-.154544E+01  mag=    58.0000
       N       E                     dE             d eps       ncg     rms          ort
SDA:   1    -0.369877271397E+03    0.66634E+01    0.00000E+00  9360   0.252E+02 0.000E+00
CGA:   2    -0.375006380938E+03   -0.51291E+01   -0.49249E+01  9360   0.162E+02 0.199E+01
CGA:   3    -0.376246744308E+03   -0.12404E+01   -0.12926E+01  9360   0.892E+01-0.213E+01
CGA:   4    -0.377288640990E+03   -0.10419E+01   -0.12402E+01  9360   0.925E+01-0.388E+01
CGA:   5    -0.377518176084E+03   -0.22954E+00   -0.25419E+00  9360   0.173E+01-0.398E+00
CGA:   6    -0.377653064928E+03   -0.13489E+00   -0.14011E+00  9360   0.222E+01 0.447E-01
CGA:   7    -0.377787634407E+03   -0.13457E+00   -0.12950E+00  9360   0.513E+00 0.273E-01
CGA:   8    -0.377839315690E+03   -0.51681E-01   -0.51760E-01  9360   0.566E+00 0.638E-02
CGA:   9    -0.377880571304E+03   -0.41256E-01   -0.42322E-01  9360   0.181E+00 0.456E-02
CGA:  10    -0.377895982889E+03   -0.15412E-01   -0.15174E-01  9360   0.160E+00-0.295E-02
CGA:  11    -0.377907463382E+03   -0.11480E-01   -0.11750E-01  9360   0.102E+00 0.168E-02
CGA:  12    -0.377918755581E+03   -0.11292E-01   -0.11248E-01  9360   0.398E-01 0.329E-02
CGA:  13    -0.377922299132E+03   -0.35436E-02   -0.35541E-02  9360   0.482E-01 0.234E-03
CGA:  14    -0.377926794588E+03   -0.44955E-02   -0.44978E-02  9360   0.129E-01 0.132E-03
CGA:  15    -0.377928853675E+03   -0.20591E-02   -0.20512E-02  9360   0.156E-01 0.116E-03
CGA:  16    -0.377929878844E+03   -0.10252E-02   -0.10354E-02  9360   0.829E-02-0.172E-04
CGA:  17    -0.377931015881E+03   -0.11370E-02   -0.11366E-02  9360   0.573E-02 0.117E-04
CGA:  18    -0.377931420202E+03   -0.40432E-03   -0.40402E-03  9360   0.329E-02 0.713E-05
CGA:  19    -0.377932000504E+03   -0.58030E-03   -0.57951E-03  9360   0.186E-02 0.107E-04
CGA:  20    -0.377932169401E+03   -0.16890E-03   -0.16902E-03  9360   0.181E-02 0.531E-05
CGA:  21    -0.377932327357E+03   -0.15796E-03   -0.15790E-03  9360   0.895E-03-0.530E-06
CGA:  22    -0.377932453842E+03   -0.12649E-03   -0.12632E-03  9360   0.414E-03 0.286E-05
CGA:  23    -0.377932513067E+03   -0.59225E-04   -0.59274E-04  9360   0.474E-03-0.129E-05
CGA:  24    -0.377932543649E+03   -0.30581E-04   -0.30506E-04  9360   0.211E-03-0.106E-05
CGA:  25    -0.377932574692E+03   -0.31043E-04   -0.31060E-04  9360   0.116E-03-0.440E-06
CGA:  26    -0.377932584353E+03   -0.96607E-05   -0.96511E-05  9360   0.952E-04-0.476E-06
CGA:  27    -0.377932597854E+03   -0.13501E-04   -0.13516E-04  9360   0.469E-04-0.410E-06
CGA:  28    -0.377932601006E+03   -0.31519E-05   -0.31547E-05  9360   0.355E-04 0.971E-07
   4 F= -.37793260E+03 E0= -.37792604E+03  d E =-.139190E+01  mag=    58.0000
       N       E                     dE             d eps       ncg     rms          ort
SDA:   1    -0.372183580592E+03    0.57490E+01    0.00000E+00  9360   0.200E+02 0.000E+00
CGA:   2    -0.375817121192E+03   -0.36335E+01   -0.35797E+01  9360   0.168E+02 0.754E+00
CGA:   3    -0.376964259375E+03   -0.11471E+01   -0.13170E+01  9360   0.850E+01-0.756E+00
CGA:   4    -0.377986059998E+03   -0.10218E+01   -0.10814E+01  9360   0.475E+01-0.168E+01
CGA:   5    -0.378240634871E+03   -0.25457E+00   -0.25229E+00  9360   0.172E+01-0.934E-01
CGA:   6    -0.378414217639E+03   -0.17358E+00   -0.17374E+00  9360   0.794E+00 0.987E-02
CGA:   7    -0.378462746910E+03   -0.48529E-01   -0.47814E-01  9360   0.296E+00 0.209E-02
CGA:   8    -0.378502516840E+03   -0.39770E-01   -0.39740E-01  9360   0.180E+00 0.864E-03
CGA:   9    -0.378513988180E+03   -0.11471E-01   -0.11562E-01  9360   0.802E-01-0.374E-03
CGA:  10    -0.378523999743E+03   -0.10012E-01   -0.99948E-02  9360   0.606E-01 0.591E-03
CGA:  11    -0.378528785257E+03   -0.47855E-02   -0.48183E-02  9360   0.295E-01 0.213E-03
CGA:  12    -0.378532417170E+03   -0.36319E-02   -0.36327E-02  9360   0.282E-01-0.217E-04
CGA:  13    -0.378535154973E+03   -0.27378E-02   -0.27402E-02  9360   0.135E-01 0.125E-03
CGA:  14    -0.378536576969E+03   -0.14220E-02   -0.14220E-02  9360   0.134E-01 0.540E-04
CGA:  15    -0.378538118474E+03   -0.15415E-02   -0.15412E-02  9360   0.596E-02 0.219E-04
CGA:  16    -0.378538709756E+03   -0.59128E-03   -0.59159E-03  9360   0.559E-02 0.201E-04
CGA:  17    -0.378539377118E+03   -0.66736E-03   -0.66702E-03  9360   0.258E-02 0.199E-04
CGA:  18    -0.378539605228E+03   -0.22811E-03   -0.22814E-03  9360   0.199E-02 0.241E-05
CGA:  19    -0.378539844725E+03   -0.23950E-03   -0.23935E-03  9360   0.103E-02 0.923E-05
CGA:  20    -0.378539939158E+03   -0.94433E-04   -0.94405E-04  9360   0.700E-03 0.468E-07
CGA:  21    -0.378540019110E+03   -0.79952E-04   -0.79931E-04  9360   0.448E-03 0.194E-05
CGA:  22    -0.378540062481E+03   -0.43371E-04   -0.43359E-04  9360   0.295E-03-0.114E-05
CGA:  23    -0.378540094390E+03   -0.31909E-04   -0.31912E-04  9360   0.201E-03-0.629E-06
CGA:  24    -0.378540114323E+03   -0.19933E-04   -0.19923E-04  9360   0.120E-03-0.194E-05
CGA:  25    -0.378540128248E+03   -0.13925E-04   -0.13936E-04  9360   0.951E-04-0.919E-06
CGA:  26    -0.378540136649E+03   -0.84010E-05   -0.83799E-05  9360   0.474E-04-0.123E-05
   5 F= -.37854014E+03 E0= -.37853322E+03  d E =-.607536E+00  mag=    58.0000
       N       E                     dE             d eps       ncg     rms          ort
SDA:   1    -0.360971942128E+03    0.17568E+02    0.00000E+00  9360   0.902E+02 0.000E+00
CGA:   2    -0.368643266297E+03   -0.76713E+01   -0.83094E+01  9360   0.363E+02 0.185E+02
CGA:   3    -0.373385664825E+03   -0.47424E+01   -0.47524E+01  9360   0.329E+02-0.163E+01
CGA:   4    -0.376664164380E+03   -0.32785E+01   -0.32543E+01  9360   0.191E+02-0.579E+01
CGA:   5    -0.377797168924E+03   -0.11330E+01   -0.11524E+01  9360   0.114E+02-0.361E+00
CGA:   6    -0.378226748586E+03   -0.42958E+00   -0.29673E+00  9360   0.418E+01 0.426E+01
CGA:   7    -0.378451427000E+03   -0.22468E+00   -0.21353E+00  9360   0.556E+01 0.882E-01
CGA:   8    -0.378695760589E+03   -0.24433E+00   -0.25963E+00  9360   0.591E+01-0.150E+00
CGA:   9    -0.378811186538E+03   -0.11543E+00   -0.16938E+00  9360   0.261E+01-0.132E+01
CGA:  10    -0.378881557786E+03   -0.70371E-01   -0.64658E-01  9360   0.139E+01 0.132E+00
CGA:  11    -0.378922284865E+03   -0.40727E-01   -0.30845E-01  9360   0.885E+00 0.387E+00
CGA:  12    -0.378958772019E+03   -0.36487E-01   -0.30042E-01  9360   0.116E+01 0.187E+00
CGA:  13    -0.379000543446E+03   -0.41771E-01   -0.38939E-01  9360   0.166E+01 0.752E-01
CGA:  14    -0.379029785948E+03   -0.29243E-01   -0.27947E-01  9360   0.109E+01 0.634E-01
CGA:  15    -0.379044740828E+03   -0.14955E-01   -0.19607E-01  9360   0.772E+00-0.225E+00
CGA:  16    -0.379056183325E+03   -0.11442E-01   -0.15212E-01  9360   0.805E+00-0.996E-01
CGA:  17    -0.379072033161E+03   -0.15850E-01   -0.16721E-01  9360   0.543E+00-0.258E-01
CGA:  18    -0.379085723892E+03   -0.13691E-01   -0.14521E-01  9360   0.412E+00-0.248E-01
CGA:  19    -0.379095793789E+03   -0.10070E-01   -0.10775E-01  9360   0.264E+00-0.164E-01
CGA:  20    -0.379103153892E+03   -0.73601E-02   -0.80566E-02  9360   0.189E+00-0.983E-02
CGA:  21    -0.379111796203E+03   -0.86423E-02   -0.87386E-02  9360   0.223E+00 0.144E-02
CGA:  22    -0.379121354709E+03   -0.95585E-02   -0.95164E-02  9360   0.140E+00-0.682E-04
CGA:  23    -0.379127119760E+03   -0.57651E-02   -0.59177E-02  9360   0.115E+00 0.409E-03
CGA:  24    -0.379133119558E+03   -0.59998E-02   -0.60089E-02  9360   0.828E-01 0.384E-03
CGA:  25    -0.379136462438E+03   -0.33429E-02   -0.33788E-02  9360   0.386E-01 0.823E-04
CGA:  26    -0.379138523961E+03   -0.20615E-02   -0.20641E-02  9360   0.336E-01 0.190E-03
CGA:  27    -0.379140485903E+03   -0.19619E-02   -0.19618E-02  9360   0.325E-01-0.340E-03
CGA:  28    -0.379142600945E+03   -0.21150E-02   -0.21144E-02  9360   0.333E-01 0.427E-04
CGA:  29    -0.379144125805E+03   -0.15249E-02   -0.15348E-02  9360   0.147E-01 0.172E-03
CGA:  30    -0.379144788715E+03   -0.66291E-03   -0.66326E-03  9360   0.995E-02 0.838E-05
CGA:  31    -0.379145565206E+03   -0.77649E-03   -0.77620E-03  9360   0.127E-01 0.117E-04
SDA:  32    -0.379146239734E+03   -0.67453E-03   -0.67424E-03  9360   0.806E-02-0.218E-04
CGA:  33    -0.379146834695E+03   -0.59496E-03   -0.59421E-03  9360   0.533E-02 0.348E-04
CGA:  34    -0.379147444824E+03   -0.61013E-03   -0.61502E-03  9360   0.234E-02-0.875E-04
CGA:  35    -0.379147766137E+03   -0.32131E-03   -0.32223E-03  9360   0.254E-02-0.128E-04
CGA:  36    -0.379147948008E+03   -0.18187E-03   -0.18200E-03  9360   0.967E-03-0.127E-04
CGA:  37    -0.379148070655E+03   -0.12265E-03   -0.12234E-03  9360   0.570E-03 0.487E-05
CGA:  38    -0.379148147542E+03   -0.76887E-04   -0.77075E-04  9360   0.480E-03-0.286E-05
CGA:  39    -0.379148242759E+03   -0.95217E-04   -0.96475E-04  9360   0.758E-03-0.103E-04
CGA:  40    -0.379148285661E+03   -0.42902E-04   -0.42750E-04  9360   0.166E-03-0.453E-05
CGA:  41    -0.379148318785E+03   -0.33125E-04   -0.33241E-04  9360   0.304E-03-0.929E-06
CGA:  42    -0.379148345518E+03   -0.26733E-04   -0.26739E-04  9360   0.179E-03-0.134E-05
CGA:  43    -0.379148369644E+03   -0.24127E-04   -0.24115E-04  9360   0.431E-04 0.194E-06
CGA:  44    -0.379148381976E+03   -0.12332E-04   -0.12337E-04  9360   0.102E-03-0.161E-07
CGA:  45    -0.379148387265E+03   -0.52894E-05   -0.53196E-05  9360   0.203E-04 0.530E-06
   6 F= -.37914839E+03 E0= -.37914120E+03  d E =-.608251E+00  mag=    58.0000
       N       E                     dE             d eps       ncg     rms          ort
SDA:   1    -0.347868386553E+03    0.31280E+02    0.00000E+00  9360   0.977E+02 0.000E+00
CGA:   2    -0.364317135898E+03   -0.16449E+02   -0.16278E+02  9360   0.773E+02 0.100E+02
CGA:   3    -0.372407830193E+03   -0.80907E+01   -0.79844E+01  9360   0.465E+02-0.527E+01
CGA:   4    -0.376392151742E+03   -0.39843E+01   -0.33761E+01  9360   0.245E+02-0.521E+01
CGA:   5    -0.377931813183E+03   -0.15397E+01   -0.11967E+01  9360   0.151E+02 0.141E+01
CGA:   6    -0.378424014691E+03   -0.49220E+00   -0.36410E+00  9360   0.838E+01 0.322E+01
CGA:   7    -0.378647606447E+03   -0.22359E+00   -0.28673E+00  9360   0.131E+02-0.228E+01
CGA:   8    -0.378816620032E+03   -0.16901E+00   -0.28604E+00  9360   0.190E+02-0.247E+01
CGA:   9    -0.379076272659E+03   -0.25965E+00   -0.36687E+00  9360   0.430E+01-0.311E+01
CGA:  10    -0.379175680426E+03   -0.99408E-01   -0.10111E+00  9360   0.318E+01 0.103E+00
CGA:  11    -0.379247054217E+03   -0.71374E-01   -0.37502E-01  9360   0.259E+01 0.268E+01
CGA:  12    -0.379346997866E+03   -0.99944E-01   -0.82008E-01  9360   0.892E+00 0.322E+00
CGA:  13    -0.379451206977E+03   -0.10421E+00   -0.10578E+00  9360   0.182E+01-0.404E-01
CGA:  14    -0.379512062949E+03   -0.60856E-01   -0.62113E-01  9360   0.573E+00-0.261E-01
CGA:  15    -0.379531677625E+03   -0.19615E-01   -0.21053E-01  9360   0.280E+00-0.210E-01
CGA:  16    -0.379547980888E+03   -0.16303E-01   -0.16266E-01  9360   0.264E+00-0.838E-03
CGA:  17    -0.379559276806E+03   -0.11296E-01   -0.11824E-01  9360   0.124E+00-0.221E-02
CGA:  18    -0.379570463742E+03   -0.11187E-01   -0.11040E-01  9360   0.164E+00 0.577E-02
CGA:  19    -0.379578704212E+03   -0.82405E-02   -0.83576E-02  9360   0.507E-01-0.139E-03
CGA:  20    -0.379582922589E+03   -0.42184E-02   -0.42439E-02  9360   0.347E-01-0.135E-02
CGA:  21    -0.379585349943E+03   -0.24274E-02   -0.24280E-02  9360   0.398E-01 0.762E-03
CGA:  22    -0.379589310585E+03   -0.39606E-02   -0.39439E-02  9360   0.102E-01 0.526E-03
CGA:  23    -0.379590129403E+03   -0.81882E-03   -0.81736E-03  9360   0.121E-01 0.152E-03
CGA:  24    -0.379591627279E+03   -0.14979E-02   -0.14854E-02  9360   0.774E-02 0.239E-03
CGA:  25    -0.379592170342E+03   -0.54306E-03   -0.54361E-03  9360   0.505E-02 0.371E-04
CGA:  26    -0.379592967690E+03   -0.79735E-03   -0.79520E-03  9360   0.324E-02 0.269E-04
CGA:  27    -0.379593178848E+03   -0.21116E-03   -0.21180E-03  9360   0.241E-02 0.169E-04
CGA:  28    -0.379593537152E+03   -0.35830E-03   -0.35772E-03  9360   0.147E-02 0.834E-05
CGA:  29    -0.379593764068E+03   -0.22692E-03   -0.22717E-03  9360   0.231E-02-0.349E-05
CGA:  30    -0.379593928519E+03   -0.16445E-03   -0.16446E-03  9360   0.946E-03 0.140E-05
CGA:  31    -0.379594038102E+03   -0.10958E-03   -0.10989E-03  9360   0.110E-02-0.823E-05
CGA:  32    -0.379594168311E+03   -0.13021E-03   -0.13055E-03  9360   0.788E-03-0.904E-05
CGA:  33    -0.379594227935E+03   -0.59624E-04   -0.59605E-04  9360   0.261E-03-0.239E-05
CGA:  34    -0.379594256643E+03   -0.28708E-04   -0.28768E-04  9360   0.414E-03-0.261E-05
CGA:  35    -0.379594297308E+03   -0.40666E-04   -0.40689E-04  9360   0.961E-04-0.207E-05
CGA:  36    -0.379594316010E+03   -0.18702E-04   -0.18765E-04  9360   0.159E-03-0.589E-06
CGA:  37    -0.379594325265E+03   -0.92545E-05   -0.92113E-05  9360   0.507E-04-0.114E-05
   7 F= -.37959433E+03 E0= -.37958723E+03  d E =-.445938E+00  mag=    58.0000
       N       E                     dE             d eps       ncg     rms          ort
SDA:   1    -0.344039473493E+03    0.35555E+02    0.00000E+00  9360   0.991E+02 0.000E+00
CGA:   2    -0.366972197707E+03   -0.22933E+02   -0.23000E+02  9360   0.689E+02 0.123E+01
CGA:   3    -0.374143958266E+03   -0.71718E+01   -0.71722E+01  9360   0.383E+02 0.104E+01
CGA:   4    -0.377698551158E+03   -0.35546E+01   -0.34083E+01  9360   0.162E+02-0.444E+01
CGA:   5    -0.378703365598E+03   -0.10048E+01   -0.86650E+00  9360   0.965E+01 0.583E+00
CGA:   6    -0.379190213306E+03   -0.48685E+00   -0.52961E+00  9360   0.702E+01-0.480E+00
CGA:   7    -0.379501257572E+03   -0.31104E+00   -0.34350E+00  9360   0.244E+01-0.386E+00
CGA:   8    -0.379674067084E+03   -0.17281E+00   -0.13887E+00  9360   0.670E+00 0.916E-01
CGA:   9    -0.379789176890E+03   -0.11511E+00   -0.11331E+00  9360   0.526E+00 0.230E-01
CGA:  10    -0.379815625643E+03   -0.26449E-01   -0.27544E-01  9360   0.208E+00-0.100E-01
CGA:  11    -0.379838634566E+03   -0.23009E-01   -0.22998E-01  9360   0.141E+00 0.441E-03
CGA:  12    -0.379852275016E+03   -0.13640E-01   -0.13642E-01  9360   0.868E-01-0.468E-03
CGA:  13    -0.379857990554E+03   -0.57155E-02   -0.58270E-02  9360   0.412E-01 0.401E-03
CGA:  14    -0.379863958343E+03   -0.59678E-02   -0.59222E-02  9360   0.328E-01 0.765E-03
CGA:  15    -0.379866444953E+03   -0.24866E-02   -0.24927E-02  9360   0.211E-01 0.811E-04
CGA:  16    -0.379868969473E+03   -0.25245E-02   -0.25169E-02  9360   0.102E-01 0.230E-03
CGA:  17    -0.379869896973E+03   -0.92750E-03   -0.92868E-03  9360   0.101E-01 0.864E-04
CGA:  18    -0.379871135468E+03   -0.12385E-02   -0.12380E-02  9360   0.340E-02 0.162E-04
CGA:  19    -0.379871422149E+03   -0.28668E-03   -0.28690E-03  9360   0.327E-02 0.101E-04
CGA:  20    -0.379871875562E+03   -0.45341E-03   -0.45278E-03  9360   0.151E-02 0.133E-04
CGA:  21    -0.379872015184E+03   -0.13962E-03   -0.13970E-03  9360   0.138E-02 0.745E-05
CGA:  22    -0.379872170117E+03   -0.15493E-03   -0.15499E-03  9360   0.912E-03-0.186E-05
CGA:  23    -0.379872287771E+03   -0.11765E-03   -0.11754E-03  9360   0.819E-03 0.341E-05
CGA:  24    -0.379872354422E+03   -0.66651E-04   -0.66595E-04  9360   0.473E-03-0.277E-05
CGA:  25    -0.379872421893E+03   -0.67471E-04   -0.67549E-04  9360   0.396E-03-0.206E-05
CGA:  26    -0.379872458659E+03   -0.36767E-04   -0.36723E-04  9360   0.321E-03-0.421E-05
CGA:  27    -0.379872490608E+03   -0.31948E-04   -0.31946E-04  9360   0.117E-03-0.205E-05
CGA:  28    -0.379872505256E+03   -0.14649E-04   -0.14710E-04  9360   0.175E-03-0.246E-05
CGA:  29    -0.379872521240E+03   -0.15984E-04   -0.15966E-04  9360   0.399E-04-0.175E-05
CGA:  30    -0.379872526463E+03   -0.52230E-05   -0.52618E-05  9360   0.648E-04-0.124E-05
   8 F= -.37987253E+03 E0= -.37986581E+03  d E =-.278201E+00  mag=    58.0000
       N       E                     dE             d eps       ncg     rms          ort
SDA:   1    -0.339768329944E+03    0.40104E+02    0.00000E+00  9360   0.120E+03 0.000E+00
CGA:   2    -0.363514293868E+03   -0.23746E+02   -0.22119E+02  9360   0.721E+02 0.154E+02
CGA:   3    -0.371270378001E+03   -0.77561E+01   -0.75395E+01  9360   0.598E+02-0.125E+02
CGA:   4    -0.376616899357E+03   -0.53465E+01   -0.55666E+01  9360   0.401E+02-0.193E+02
CGA:   5    -0.377974145030E+03   -0.13572E+01   -0.11118E+01  9360   0.908E+01 0.401E+01
CGA:   6    -0.378674860640E+03   -0.70072E+00   -0.64066E+00  9360   0.109E+02-0.905E-02
CGA:   7    -0.379295681263E+03   -0.62082E+00   -0.63406E+00  9360   0.520E+01-0.661E-01
CGA:   8    -0.379462699477E+03   -0.16702E+00   -0.23444E+00  9360   0.262E+01-0.800E+00
CGA:   9    -0.379667855810E+03   -0.20516E+00   -0.20560E+00  9360   0.222E+01 0.476E-01
CGA:  10    -0.379787621903E+03   -0.11977E+00   -0.11665E+00  9360   0.569E+00 0.639E-02
CGA:  11    -0.379856482662E+03   -0.68861E-01   -0.69164E-01  9360   0.761E+00-0.122E-01
CGA:  12    -0.379903867013E+03   -0.47384E-01   -0.49082E-01  9360   0.226E+00 0.512E-02
CGA:  13    -0.379938340102E+03   -0.34473E-01   -0.34666E-01  9360   0.183E+00-0.339E-02
CGA:  14    -0.379952796281E+03   -0.14456E-01   -0.14318E-01  9360   0.852E-01-0.210E-02
CGA:  15    -0.379960508897E+03   -0.77126E-02   -0.77229E-02  9360   0.981E-01 0.105E-02
CGA:  16    -0.379967881851E+03   -0.73730E-02   -0.73777E-02  9360   0.269E-01-0.255E-04
CGA:  17    -0.379973017832E+03   -0.51360E-02   -0.51049E-02  9360   0.138E-01 0.321E-03
CGA:  18    -0.379974692670E+03   -0.16748E-02   -0.16721E-02  9360   0.179E-01 0.956E-04
CGA:  19    -0.379975799894E+03   -0.11072E-02   -0.11155E-02  9360   0.618E-02-0.400E-04
CGA:  20    -0.379976823843E+03   -0.10239E-02   -0.10220E-02  9360   0.345E-02 0.250E-04
CGA:  21    -0.379977278471E+03   -0.45463E-03   -0.45438E-03  9360   0.357E-02 0.579E-05
CGA:  22    -0.379977720924E+03   -0.44245E-03   -0.44237E-03  9360   0.124E-02 0.409E-05
CGA:  23    -0.379978023049E+03   -0.30212E-03   -0.30103E-03  9360   0.150E-02 0.810E-05
CGA:  24    -0.379978110041E+03   -0.86992E-04   -0.86625E-04  9360   0.883E-03 0.140E-05
CGA:  25    -0.379978258882E+03   -0.14884E-03   -0.14901E-03  9360   0.524E-03-0.264E-05
CGA:  26    -0.379978316155E+03   -0.57274E-04   -0.57267E-04  9360   0.435E-03-0.368E-05
CGA:  27    -0.379978379186E+03   -0.63031E-04   -0.63215E-04  9360   0.206E-03-0.532E-05
CGA:  28    -0.379978402777E+03   -0.23591E-04   -0.23599E-04  9360   0.297E-03-0.290E-05
CGA:  29    -0.379978423779E+03   -0.21002E-04   -0.20948E-04  9360   0.972E-04-0.103E-05
CGA:  30    -0.379978440134E+03   -0.16355E-04   -0.16353E-04  9360   0.565E-04 0.228E-07
CGA:  31    -0.379978448235E+03   -0.81014E-05   -0.80864E-05  9360   0.522E-04 0.496E-06
   9 F= -.37997845E+03 E0= -.37997177E+03  d E =-.105922E+00  mag=    58.0000
       N       E                     dE             d eps       ncg     rms          ort
SDA:   1    -0.374531468827E+03    0.54470E+01    0.00000E+00  9360   0.171E+02 0.000E+00
CGA:   2    -0.378173751129E+03   -0.36423E+01   -0.35582E+01  9360   0.774E+01 0.830E+00
CGA:   3    -0.379039484116E+03   -0.86573E+00   -0.74913E+00  9360   0.903E+01-0.142E+01
CGA:   4    -0.379622463758E+03   -0.58298E+00   -0.57947E+00  9360   0.466E+01-0.182E-01
CGA:   5    -0.379860651886E+03   -0.23819E+00   -0.28128E+00  9360   0.175E+01-0.359E+00
CGA:   6    -0.379973294766E+03   -0.11264E+00   -0.10973E+00  9360   0.116E+01 0.188E-03
CGA:   7    -0.380045793470E+03   -0.72499E-01   -0.72048E-01  9360   0.343E+00 0.210E-02
CGA:   8    -0.380064192502E+03   -0.18399E-01   -0.19348E-01  9360   0.313E+00-0.848E-02
CGA:   9    -0.380091194695E+03   -0.27002E-01   -0.26931E-01  9360   0.129E+00-0.106E-02
CGA:  10    -0.380098610235E+03   -0.74155E-02   -0.70261E-02  9360   0.760E-01 0.319E-02
CGA:  11    -0.380104149988E+03   -0.55398E-02   -0.55779E-02  9360   0.498E-01 0.150E-03
CGA:  12    -0.380108779139E+03   -0.46292E-02   -0.46360E-02  9360   0.406E-01 0.365E-03
CGA:  13    -0.380110872390E+03   -0.20933E-02   -0.20916E-02  9360   0.190E-01 0.254E-04
CGA:  14    -0.380112726679E+03   -0.18543E-02   -0.18543E-02  9360   0.149E-01 0.862E-05
CGA:  15    -0.380113812723E+03   -0.10860E-02   -0.10902E-02  9360   0.154E-01 0.327E-04
CGA:  16    -0.380114973649E+03   -0.11609E-02   -0.11618E-02  9360   0.528E-02 0.784E-05
CGA:  17    -0.380115411409E+03   -0.43776E-03   -0.43677E-03  9360   0.673E-02-0.262E-04
CGA:  18    -0.380115988630E+03   -0.57722E-03   -0.57727E-03  9360   0.512E-02 0.628E-05
CGA:  19    -0.380116380600E+03   -0.39197E-03   -0.39238E-03  9360   0.217E-02 0.851E-05
CGA:  20    -0.380116518100E+03   -0.13750E-03   -0.13742E-03  9360   0.210E-02-0.519E-06
CGA:  21    -0.380116792624E+03   -0.27452E-03   -0.27402E-03  9360   0.139E-02 0.116E-04
CGA:  22    -0.380116871996E+03   -0.79372E-04   -0.79792E-04  9360   0.842E-03 0.179E-05
CGA:  23    -0.380116937812E+03   -0.65816E-04   -0.65807E-04  9360   0.593E-03 0.970E-07
CGA:  24    -0.380117004802E+03   -0.66990E-04   -0.66998E-04  9360   0.550E-03 0.402E-07
CGA:  25    -0.380117035876E+03   -0.31074E-04   -0.31132E-04  9360   0.299E-03 0.991E-06
CGA:  26    -0.380117062304E+03   -0.26428E-04   -0.26425E-04  9360   0.156E-03-0.114E-05
CGA:  27    -0.380117077686E+03   -0.15382E-04   -0.15396E-04  9360   0.227E-03-0.167E-05
CGA:  28    -0.380117093580E+03   -0.15895E-04   -0.15882E-04  9360   0.860E-04-0.572E-06
CGA:  29    -0.380117100837E+03   -0.72564E-05   -0.72533E-05  9360   0.638E-04-0.525E-06
  10 F= -.38011710E+03 E0= -.38011027E+03  d E =-.138653E+00  mag=    58.0000
       N       E                     dE             d eps       ncg     rms          ort
SDA:   1    -0.379799375033E+03    0.31772E+00    0.00000E+00  9360   0.103E+01 0.000E+00
CGA:   2    -0.379942275866E+03   -0.14290E+00   -0.14129E+00  9360   0.154E+01 0.310E-01
CGA:   3    -0.380053676568E+03   -0.11140E+00   -0.11174E+00  9360   0.504E+00 0.883E-07
CGA:   4    -0.380096485916E+03   -0.42809E-01   -0.42553E-01  9360   0.300E+00-0.184E-01
CGA:   5    -0.380123260325E+03   -0.26774E-01   -0.26757E-01  9360   0.578E-01 0.376E-02
CGA:   6    -0.380129958882E+03   -0.66986E-02   -0.67198E-02  9360   0.582E-01-0.619E-03
CGA:   7    -0.380133054490E+03   -0.30956E-02   -0.31063E-02  9360   0.105E-01-0.589E-04
CGA:   8    -0.380134491927E+03   -0.14374E-02   -0.14438E-02  9360   0.490E-02-0.114E-03
CGA:   9    -0.380135007295E+03   -0.51537E-03   -0.51502E-03  9360   0.399E-02 0.171E-04
CGA:  10    -0.380135228137E+03   -0.22084E-03   -0.21995E-03  9360   0.980E-03 0.275E-05
CGA:  11    -0.380135423236E+03   -0.19510E-03   -0.19459E-03  9360   0.527E-03 0.479E-05
CGA:  12    -0.380135457016E+03   -0.33780E-04   -0.33726E-04  9360   0.392E-03-0.619E-06
CGA:  13    -0.380135518959E+03   -0.61944E-04   -0.61824E-04  9360   0.180E-03 0.186E-05
CGA:  14    -0.380135539898E+03   -0.20938E-04   -0.20952E-04  9360   0.208E-03-0.638E-06
CGA:  15    -0.380135555451E+03   -0.15553E-04   -0.15575E-04  9360   0.994E-04 0.648E-06
CGA:  16    -0.380135570813E+03   -0.15362E-04   -0.15406E-04  9360   0.620E-04-0.774E-06
CGA:  17    -0.380135575516E+03   -0.47034E-05   -0.47112E-05  9360   0.448E-04 0.346E-06
  11 F= -.38013558E+03 E0= -.38012874E+03  d E =-.184747E-01  mag=    58.0000
       N       E                     dE             d eps       ncg     rms          ort
SDA:   1    -0.358593810331E+03    0.21542E+02    0.00000E+00  9360   0.559E+02 0.000E+00
CGA:   2    -0.374346433624E+03   -0.15753E+02   -0.15736E+02  9360   0.293E+02 0.126E+00
CGA:   3    -0.378387307715E+03   -0.40409E+01   -0.38991E+01  9360   0.764E+01 0.345E+01
CGA:   4    -0.379291455652E+03   -0.90415E+00   -0.12140E+01  9360   0.164E+02-0.679E+01
CGA:   5    -0.379769424308E+03   -0.47797E+00   -0.10020E+01  9360   0.223E+01-0.484E+00
CGA:   6    -0.379946187323E+03   -0.17676E+00   -0.95825E-01  9360   0.135E+01 0.149E+01
CGA:   7    -0.380031379132E+03   -0.85192E-01   -0.67210E-01  9360   0.468E+00 0.169E+00
CGA:   8    -0.380134631530E+03   -0.10325E+00   -0.10177E+00  9360   0.103E+01 0.149E-01
CGA:   9    -0.380201856539E+03   -0.67225E-01   -0.66940E-01  9360   0.166E+00 0.114E-02
CGA:  10    -0.380217638720E+03   -0.15782E-01   -0.15737E-01  9360   0.159E+00-0.147E-02
CGA:  11    -0.380232614156E+03   -0.14975E-01   -0.14988E-01  9360   0.873E-01 0.529E-03
CGA:  12    -0.380239491374E+03   -0.68772E-02   -0.69037E-02  9360   0.433E-01 0.218E-03
CGA:  13    -0.380242559266E+03   -0.30679E-02   -0.30795E-02  9360   0.219E-01 0.380E-04
CGA:  14    -0.380245613858E+03   -0.30546E-02   -0.30550E-02  9360   0.190E-01-0.310E-05
CGA:  15    -0.380246812822E+03   -0.11990E-02   -0.12020E-02  9360   0.682E-02 0.423E-05
CGA:  16    -0.380247713932E+03   -0.90111E-03   -0.90169E-03  9360   0.684E-02-0.136E-04
CGA:  17    -0.380248258898E+03   -0.54497E-03   -0.54669E-03  9360   0.442E-02 0.176E-04
CGA:  18    -0.380248834255E+03   -0.57536E-03   -0.57510E-03  9360   0.270E-02 0.701E-05
CGA:  19    -0.380248993986E+03   -0.15973E-03   -0.15983E-03  9360   0.963E-03 0.413E-05
CGA:  20    -0.380249174792E+03   -0.18081E-03   -0.18016E-03  9360   0.121E-02 0.750E-05
CGA:  21    -0.380249246220E+03   -0.71427E-04   -0.71787E-04  9360   0.285E-03 0.264E-05
CGA:  22    -0.380249289942E+03   -0.43722E-04   -0.43723E-04  9360   0.473E-03 0.223E-07
CGA:  23    -0.380249328627E+03   -0.38686E-04   -0.38705E-04  9360   0.199E-03 0.763E-06
CGA:  24    -0.380249354139E+03   -0.25512E-04   -0.25542E-04  9360   0.227E-03-0.126E-05
CGA:  25    -0.380249374641E+03   -0.20502E-04   -0.20489E-04  9360   0.127E-03-0.961E-06
CGA:  26    -0.380249392747E+03   -0.18106E-04   -0.18207E-04  9360   0.126E-03-0.249E-05
CGA:  27    -0.380249401910E+03   -0.91626E-05   -0.91264E-05  9360   0.626E-04-0.111E-05
  12 F= -.38024940E+03 E0= -.38024256E+03  d E =-.113826E+00  mag=    58.0000
       N       E                     dE             d eps       ncg     rms          ort
SDA:   1    -0.350805896877E+03    0.29443E+02    0.00000E+00  9360   0.123E+03 0.000E+00
CGA:   2    -0.362544353117E+03   -0.11738E+02   -0.12153E+02  9360   0.622E+02 0.250E+02
CGA:   3    -0.370257830360E+03   -0.77135E+01   -0.76562E+01  9360   0.631E+02-0.885E+01
CGA:   4    -0.376314484660E+03   -0.60567E+01   -0.65803E+01  9360   0.263E+02-0.165E+02
CGA:   5    -0.377779799341E+03   -0.14653E+01   -0.12400E+01  9360   0.114E+02 0.108E+01
CGA:   6    -0.378737543330E+03   -0.95774E+00   -0.67847E+00  9360   0.754E+01-0.431E+00
CGA:   7    -0.379240789877E+03   -0.50325E+00   -0.49000E+00  9360   0.119E+02-0.652E-01
CGA:   8    -0.379576044893E+03   -0.33526E+00   -0.39464E+00  9360   0.281E+01-0.181E+01
CGA:   9    -0.379661115862E+03   -0.85071E-01   -0.83782E-01  9360   0.326E+01-0.648E-01
CGA:  10    -0.379850700063E+03   -0.18958E+00   -0.18743E+00  9360   0.243E+01-0.132E-01
CGA:  11    -0.379925340834E+03   -0.74641E-01   -0.89736E-01  9360   0.203E+01-0.268E+00
CGA:  12    -0.379989576223E+03   -0.64235E-01   -0.69964E-01  9360   0.108E+01-0.892E-01
CGA:  13    -0.380051435972E+03   -0.61860E-01   -0.66999E-01  9360   0.813E+00 0.536E-01
CGA:  14    -0.380095737479E+03   -0.44302E-01   -0.46758E-01  9360   0.381E+00-0.279E-02
CGA:  15    -0.380134217651E+03   -0.38480E-01   -0.38423E-01  9360   0.206E+00 0.238E-02
CGA:  16    -0.380157979490E+03   -0.23762E-01   -0.23559E-01  9360   0.103E+00 0.524E-02
CGA:  17    -0.380170707888E+03   -0.12728E-01   -0.12631E-01  9360   0.894E-01 0.226E-02
CGA:  18    -0.380177910411E+03   -0.72025E-02   -0.72223E-02  9360   0.359E-01 0.866E-03
CGA:  19    -0.380181114548E+03   -0.32041E-02   -0.32042E-02  9360   0.289E-01-0.432E-04
CGA:  20    -0.380184763678E+03   -0.36491E-02   -0.36393E-02  9360   0.122E-01 0.205E-03
CGA:  21    -0.380186268241E+03   -0.15046E-02   -0.15055E-02  9360   0.986E-02-0.263E-04
CGA:  22    -0.380187056859E+03   -0.78862E-03   -0.78917E-03  9360   0.635E-02 0.141E-04
CGA:  23    -0.380187850493E+03   -0.79363E-03   -0.79267E-03  9360   0.378E-02 0.190E-04
CGA:  24    -0.380188511453E+03   -0.66096E-03   -0.61395E-03  9360   0.370E-02 0.658E-03
CGA:  25    -0.380188940306E+03   -0.42885E-03   -0.49011E-03  9360   0.140E-01-0.247E-02
CGA:  26    -0.380189440612E+03   -0.50031E-03   -0.50541E-03  9360   0.238E-02-0.939E-04
CGA:  27    -0.380190130057E+03   -0.68944E-03   -0.74842E-03  9360   0.495E-02-0.336E-03
CGA:  28    -0.380190618363E+03   -0.48831E-03   -0.48719E-03  9360   0.345E-02 0.629E-04
CGA:  29    -0.380190850178E+03   -0.23182E-03   -0.22917E-03  9360   0.167E-02-0.456E-05
CGA:  30    -0.380191021151E+03   -0.17097E-03   -0.17097E-03  9360   0.112E-02-0.252E-05
CGA:  31    -0.380191150313E+03   -0.12916E-03   -0.12902E-03  9360   0.835E-03 0.589E-05
CGA:  32    -0.380191218784E+03   -0.68471E-04   -0.68357E-04  9360   0.460E-03-0.888E-06
CGA:  33    -0.380191249340E+03   -0.30556E-04   -0.30593E-04  9360   0.147E-03-0.414E-06
CGA:  34    -0.380191268415E+03   -0.19075E-04   -0.19041E-04  9360   0.126E-03 0.119E-05
CGA:  35    -0.380191278763E+03   -0.10348E-04   -0.10345E-04  9360   0.694E-04-0.174E-06
CGA:  36    -0.380191283893E+03   -0.51299E-05   -0.51344E-05  9360   0.381E-04 0.102E-06
  13 F= -.38019128E+03 E0= -.38018450E+03  d E =0.581180E-01  mag=    58.0000
       N       E                     dE             d eps       ncg     rms          ort
SDA:   1    -0.372943486799E+03    0.72478E+01    0.00000E+00  9360   0.275E+02 0.000E+00
CGA:   2    -0.376445683655E+03   -0.35022E+01   -0.34611E+01  9360   0.219E+02 0.147E+01
CGA:   3    -0.378008506945E+03   -0.15628E+01   -0.17283E+01  9360   0.113E+02 0.109E+00
CGA:   4    -0.379334036606E+03   -0.13255E+01   -0.16234E+01  9360   0.177E+02-0.601E+01
CGA:   5    -0.379682553415E+03   -0.34852E+00   -0.90741E+00  9360   0.576E+01-0.343E+01
CGA:   6    -0.380049087460E+03   -0.36653E+00   -0.28253E+00  9360   0.105E+01 0.453E+00
CGA:   7    -0.380138042610E+03   -0.88955E-01   -0.87145E-01  9360   0.109E+01-0.194E-01
CGA:   8    -0.380200298183E+03   -0.62256E-01   -0.65305E-01  9360   0.966E+00-0.126E-01
CGA:   9    -0.380268257749E+03   -0.67960E-01   -0.67677E-01  9360   0.210E+00-0.171E-02
CGA:  10    -0.380285673731E+03   -0.17416E-01   -0.17160E-01  9360   0.336E+00-0.532E-02
CGA:  11    -0.380313985750E+03   -0.28312E-01   -0.28427E-01  9360   0.130E+00 0.474E-02
CGA:  12    -0.380321248224E+03   -0.72625E-02   -0.75743E-02  9360   0.513E-01-0.125E-02
CGA:  13    -0.380323787851E+03   -0.25396E-02   -0.25280E-02  9360   0.248E-01 0.841E-04
CGA:  14    -0.380326869899E+03   -0.30820E-02   -0.30843E-02  9360   0.209E-01-0.488E-04
CGA:  15    -0.380327861671E+03   -0.99177E-03   -0.10124E-02  9360   0.103E-01-0.175E-03
CGA:  16    -0.380328779019E+03   -0.91735E-03   -0.91736E-03  9360   0.573E-02 0.197E-05
CGA:  17    -0.380329296980E+03   -0.51796E-03   -0.51792E-03  9360   0.634E-02-0.331E-04
CGA:  18    -0.380329702035E+03   -0.40506E-03   -0.40604E-03  9360   0.327E-02 0.166E-05
CGA:  19    -0.380330058423E+03   -0.35639E-03   -0.35626E-03  9360   0.217E-02 0.413E-05
CGA:  20    -0.380330182341E+03   -0.12392E-03   -0.12350E-03  9360   0.148E-02 0.163E-07
CGA:  21    -0.380330333352E+03   -0.15101E-03   -0.15085E-03  9360   0.998E-03 0.953E-05
CGA:  22    -0.380330421170E+03   -0.87818E-04   -0.87843E-04  9360   0.910E-03 0.803E-05
CGA:  23    -0.380330474621E+03   -0.53451E-04   -0.53480E-04  9360   0.422E-03 0.811E-06
CGA:  24    -0.380330533700E+03   -0.59079E-04   -0.58941E-04  9360   0.473E-03 0.258E-05
CGA:  25    -0.380330564957E+03   -0.31257E-04   -0.31340E-04  9360   0.335E-03 0.248E-05
CGA:  26    -0.380330590585E+03   -0.25628E-04   -0.25633E-04  9360   0.140E-03 0.342E-06
CGA:  27    -0.380330609397E+03   -0.18812E-04   -0.18828E-04  9360   0.234E-03-0.325E-06
CGA:  28    -0.380330623726E+03   -0.14329E-04   -0.14365E-04  9360   0.102E-03 0.989E-06
CGA:  29    -0.380330633478E+03   -0.97513E-05   -0.97517E-05  9360   0.642E-04-0.798E-07
  14 F= -.38033063E+03 E0= -.38032391E+03  d E =-.139350E+00  mag=    58.0000
       N       E                     dE             d eps       ncg     rms          ort
SDA:   1    -0.380131945450E+03    0.19868E+00    0.00000E+00  9360   0.700E+00 0.000E+00
CGA:   2    -0.380206617798E+03   -0.74672E-01   -0.74881E-01  9360   0.103E+01-0.741E-02
CGA:   3    -0.380278907385E+03   -0.72290E-01   -0.72894E-01  9360   0.285E+00 0.683E-02
CGA:   4    -0.380315660528E+03   -0.36753E-01   -0.36847E-01  9360   0.175E+00-0.184E-02
CGA:   5    -0.380330008050E+03   -0.14348E-01   -0.14335E-01  9360   0.408E-01-0.541E-03
CGA:   6    -0.380334815700E+03   -0.48076E-02   -0.48032E-02  9360   0.370E-01 0.124E-03
CGA:   7    -0.380336646095E+03   -0.18304E-02   -0.17982E-02  9360   0.608E-02 0.283E-03
CGA:   8    -0.380337794346E+03   -0.11483E-02   -0.11476E-02  9360   0.237E-02 0.683E-05
CGA:   9    -0.380338029515E+03   -0.23517E-03   -0.23518E-03  9360   0.146E-02-0.130E-05
CGA:  10    -0.380338214307E+03   -0.18479E-03   -0.18456E-03  9360   0.749E-03 0.674E-05
CGA:  11    -0.380338256725E+03   -0.42419E-04   -0.42350E-04  9360   0.398E-03-0.272E-06
CGA:  12    -0.380338316730E+03   -0.60005E-04   -0.59939E-04  9360   0.204E-03 0.120E-05
CGA:  13    -0.380338341986E+03   -0.25256E-04   -0.25271E-04  9360   0.124E-03-0.580E-06
CGA:  14    -0.380338355208E+03   -0.13222E-04   -0.13217E-04  9360   0.138E-03 0.598E-06
CGA:  15    -0.380338366902E+03   -0.11694E-04   -0.11688E-04  9360   0.725E-04-0.334E-06
CGA:  16    -0.380338373404E+03   -0.65017E-05   -0.65064E-05  9360   0.313E-04 0.477E-06
  15 F= -.38033837E+03 E0= -.38033165E+03  d E =-.773993E-02  mag=    58.0000
       N       E                     dE             d eps       ncg     rms          ort
SDA:   1    -0.379439713640E+03    0.89865E+00    0.00000E+00  9360   0.238E+01 0.000E+00
CGA:   2    -0.379959586143E+03   -0.51987E+00   -0.53252E+00  9360   0.478E+01-0.977E-01
CGA:   3    -0.380155791179E+03   -0.19621E+00   -0.23158E+00  9360   0.120E+01-0.487E+00
CGA:   4    -0.380294139664E+03   -0.13835E+00   -0.13894E+00  9360   0.397E+00-0.175E-01
CGA:   5    -0.380319934910E+03   -0.25795E-01   -0.26755E-01  9360   0.234E+00-0.227E-02
CGA:   6    -0.380339256276E+03   -0.19321E-01   -0.19206E-01  9360   0.652E-01-0.111E-02
CGA:   7    -0.380345015551E+03   -0.57593E-02   -0.57641E-02  9360   0.376E-01 0.959E-04
CGA:   8    -0.380347964380E+03   -0.29488E-02   -0.29413E-02  9360   0.178E-01-0.544E-04
CGA:   9    -0.380349430916E+03   -0.14665E-02   -0.14717E-02  9360   0.800E-02 0.728E-04
CGA:  10    -0.380350166477E+03   -0.73556E-03   -0.73435E-03  9360   0.383E-02-0.444E-04
CGA:  11    -0.380350476548E+03   -0.31007E-03   -0.31050E-03  9360   0.248E-02 0.953E-05
CGA:  12    -0.380350695398E+03   -0.21885E-03   -0.21879E-03  9360   0.851E-03-0.192E-05
CGA:  13    -0.380350794114E+03   -0.98716E-04   -0.98654E-04  9360   0.983E-03 0.321E-05
CGA:  14    -0.380350873660E+03   -0.79546E-04   -0.79448E-04  9360   0.339E-03-0.224E-05
CGA:  15    -0.380350915672E+03   -0.42012E-04   -0.41951E-04  9360   0.381E-03 0.211E-05
CGA:  16    -0.380350950991E+03   -0.35318E-04   -0.35309E-04  9360   0.210E-03-0.752E-06
CGA:  17    -0.380350969626E+03   -0.18636E-04   -0.18652E-04  9360   0.135E-03 0.131E-05
CGA:  18    -0.380350986517E+03   -0.16891E-04   -0.16887E-04  9360   0.106E-03 0.179E-06
CGA:  19    -0.380350994430E+03   -0.79125E-05   -0.79453E-05  9360   0.570E-04 0.111E-05
  16 F= -.38035099E+03 E0= -.38034428E+03  d E =-.126210E-01  mag=    58.0000
       N       E                     dE             d eps       ncg     rms          ort
SDA:   1    -0.378257342593E+03    0.20936E+01    0.00000E+00  9360   0.535E+01 0.000E+00
CGA:   2    -0.379522070816E+03   -0.12647E+01   -0.12616E+01  9360   0.959E+01 0.994E-01
CGA:   3    -0.379999600077E+03   -0.47753E+00   -0.54035E+00  9360   0.230E+01-0.999E+00
CGA:   4    -0.380224167491E+03   -0.22457E+00   -0.22756E+00  9360   0.159E+01-0.276E+00
CGA:   5    -0.380310323371E+03   -0.86156E-01   -0.91812E-01  9360   0.343E+00-0.176E-01
CGA:   6    -0.380337573429E+03   -0.27250E-01   -0.27179E-01  9360   0.222E+00-0.939E-03
CGA:   7    -0.380356747289E+03   -0.19174E-01   -0.19213E-01  9360   0.618E-01 0.843E-03
CGA:   8    -0.380361652454E+03   -0.49052E-02   -0.48624E-02  9360   0.442E-01-0.413E-03
CGA:   9    -0.380365887641E+03   -0.42352E-02   -0.42377E-02  9360   0.132E-01 0.343E-03
CGA:  10    -0.380366943981E+03   -0.10563E-02   -0.10552E-02  9360   0.855E-02-0.170E-04
CGA:  11    -0.380367713336E+03   -0.76935E-03   -0.76979E-03  9360   0.372E-02 0.242E-04
CGA:  12    -0.380368072279E+03   -0.35894E-03   -0.35891E-03  9360   0.241E-02-0.925E-05
CGA:  13    -0.380368269481E+03   -0.19720E-03   -0.19756E-03  9360   0.128E-02 0.940E-05
CGA:  14    -0.380368424232E+03   -0.15475E-03   -0.15480E-03  9360   0.117E-02-0.177E-05
CGA:  15    -0.380368522877E+03   -0.98645E-04   -0.98718E-04  9360   0.574E-03 0.339E-05
CGA:  16    -0.380368591704E+03   -0.68827E-04   -0.68858E-04  9360   0.592E-03-0.108E-05
CGA:  17    -0.380368641758E+03   -0.50054E-04   -0.50122E-04  9360   0.267E-03 0.299E-05
CGA:  18    -0.380368676795E+03   -0.35037E-04   -0.35040E-04  9360   0.275E-03-0.238E-07
CGA:  19    -0.380368696025E+03   -0.19231E-04   -0.19285E-04  9360   0.971E-04 0.163E-05
CGA:  20    -0.380368710736E+03   -0.14710E-04   -0.14681E-04  9360   0.107E-03 0.580E-06
CGA:  21    -0.380368718035E+03   -0.72995E-05   -0.73399E-05  9360   0.388E-04 0.107E-05
  17 F= -.38036872E+03 E0= -.38036205E+03  d E =-.177236E-01  mag=    58.0000
       N       E                     dE             d eps       ncg     rms          ort
SDA:   1    -0.359907549600E+03    0.20461E+02    0.00000E+00  9360   0.577E+02 0.000E+00
CGA:   2    -0.371824622255E+03   -0.11917E+02   -0.12476E+02  9360   0.509E+02-0.730E+00
CGA:   3    -0.376257171696E+03   -0.44325E+01   -0.46060E+01  9360   0.236E+02 0.361E+01
CGA:   4    -0.378675911575E+03   -0.24187E+01   -0.22598E+01  9360   0.140E+02-0.238E+01
CGA:   5    -0.379401733244E+03   -0.72582E+00   -0.57702E+00  9360   0.957E+01 0.889E+00
CGA:   6    -0.379785700506E+03   -0.38397E+00   -0.42801E+00  9360   0.350E+01-0.853E+00
CGA:   7    -0.380088829190E+03   -0.30313E+00   -0.30405E+00  9360   0.241E+01 0.107E+00
CGA:   8    -0.380180970105E+03   -0.92141E-01   -0.81856E-01  9360   0.507E+00 0.201E+00
CGA:   9    -0.380236883339E+03   -0.55913E-01   -0.56020E-01  9360   0.108E+01-0.976E-02
CGA:  10    -0.380279442398E+03   -0.42559E-01   -0.44403E-01  9360   0.273E+00-0.262E-01
CGA:  11    -0.380292103201E+03   -0.12661E-01   -0.13342E-01  9360   0.202E+00-0.600E-02
CGA:  12    -0.380302647122E+03   -0.10544E-01   -0.10536E-01  9360   0.102E+00-0.260E-04
CGA:  13    -0.380310145768E+03   -0.74986E-02   -0.74445E-02  9360   0.131E+00-0.882E-03
CGA:  14    -0.380316784602E+03   -0.66388E-02   -0.67438E-02  9360   0.399E-01-0.493E-03
CGA:  15    -0.380318895033E+03   -0.21104E-02   -0.21572E-02  9360   0.346E-01-0.113E-03
CGA:  16    -0.380321231367E+03   -0.23363E-02   -0.23342E-02  9360   0.206E-01-0.193E-04
CGA:  17    -0.380322911975E+03   -0.16806E-02   -0.16796E-02  9360   0.284E-01-0.189E-03
CGA:  18    -0.380324485242E+03   -0.15733E-02   -0.15906E-02  9360   0.786E-02 0.335E-04
CGA:  19    -0.380324961282E+03   -0.47604E-03   -0.47950E-03  9360   0.898E-02 0.311E-04
CGA:  20    -0.380325793197E+03   -0.83192E-03   -0.83190E-03  9360   0.638E-02 0.336E-05
CGA:  21    -0.380326186039E+03   -0.39284E-03   -0.39160E-03  9360   0.524E-02-0.888E-05
CGA:  22    -0.380326503329E+03   -0.31729E-03   -0.31799E-03  9360   0.232E-02 0.111E-04
CGA:  23    -0.380326679202E+03   -0.17587E-03   -0.17593E-03  9360   0.266E-02 0.799E-05
CGA:  24    -0.380326841835E+03   -0.16263E-03   -0.16250E-03  9360   0.131E-02-0.301E-05
CGA:  25    -0.380326970266E+03   -0.12843E-03   -0.12853E-03  9360   0.199E-02-0.412E-05
CGA:  26    -0.380327070712E+03   -0.10045E-03   -0.10062E-03  9360   0.480E-03 0.253E-05
CGA:  27    -0.380327111961E+03   -0.41249E-04   -0.41225E-04  9360   0.793E-03 0.255E-05
CGA:  28    -0.380327179509E+03   -0.67548E-04   -0.67567E-04  9360   0.535E-03-0.254E-05
CGA:  29    -0.380327219302E+03   -0.39792E-04   -0.39778E-04  9360   0.408E-03-0.230E-05
CGA:  30    -0.380327239680E+03   -0.20378E-04   -0.20386E-04  9360   0.185E-03 0.112E-06
CGA:  31    -0.380327264838E+03   -0.25159E-04   -0.25273E-04  9360   0.324E-03-0.196E-05
SDA:  32    -0.380327280336E+03   -0.15498E-04   -0.15388E-04  9360   0.112E-03-0.293E-05
CGA:  33    -0.380327289921E+03   -0.95849E-05   -0.95815E-05  9360   0.544E-04 0.422E-06
  18 F= -.38032729E+03 E0= -.38032091E+03  d E =0.414281E-01  mag=    58.0000
       N       E                     dE             d eps       ncg     rms          ort
SDA:   1    -0.378327091041E+03    0.20002E+01    0.00000E+00  9360   0.668E+01 0.000E+00
CGA:   2    -0.379522466582E+03   -0.11954E+01   -0.11938E+01  9360   0.350E+01 0.183E-01
CGA:   3    -0.379929820348E+03   -0.40735E+00   -0.41905E+00  9360   0.563E+01-0.259E+00
CGA:   4    -0.380211876363E+03   -0.28206E+00   -0.29272E+00  9360   0.888E+00-0.516E-01
CGA:   5    -0.380331389666E+03   -0.11951E+00   -0.11935E+00  9360   0.702E+00 0.302E-02
CGA:   6    -0.380364086592E+03   -0.32697E-01   -0.30701E-01  9360   0.157E+00 0.220E-01
CGA:   7    -0.380386303948E+03   -0.22217E-01   -0.22225E-01  9360   0.104E+00-0.123E-03
CGA:   8    -0.380392790480E+03   -0.64865E-02   -0.65063E-02  9360   0.448E-01 0.352E-04
CGA:   9    -0.380395922925E+03   -0.31324E-02   -0.30991E-02  9360   0.276E-01-0.363E-03
CGA:  10    -0.380399269644E+03   -0.33467E-02   -0.33459E-02  9360   0.693E-02 0.248E-04
CGA:  11    -0.380399989025E+03   -0.71938E-03   -0.71827E-03  9360   0.109E-01 0.543E-04
CGA:  12    -0.380400906902E+03   -0.91788E-03   -0.91761E-03  9360   0.192E-02-0.159E-04
CGA:  13    -0.380401279366E+03   -0.37246E-03   -0.37212E-03  9360   0.194E-02 0.337E-05
CGA:  14    -0.380401462172E+03   -0.18281E-03   -0.18281E-03  9360   0.155E-02 0.444E-05
CGA:  15    -0.380401565030E+03   -0.10286E-03   -0.10276E-03  9360   0.653E-03-0.178E-07
CGA:  16    -0.380401662504E+03   -0.97474E-04   -0.97343E-04  9360   0.581E-03 0.229E-05
CGA:  17    -0.380401732762E+03   -0.70258E-04   -0.70225E-04  9360   0.188E-03 0.124E-05
CGA:  18    -0.380401753998E+03   -0.21236E-04   -0.21251E-04  9360   0.340E-03-0.879E-06
CGA:  19    -0.380401785628E+03   -0.31630E-04   -0.31637E-04  9360   0.642E-04 0.126E-05
CGA:  20    -0.380401798279E+03   -0.12651E-04   -0.12570E-04  9360   0.794E-04 0.827E-06
CGA:  21    -0.380401806357E+03   -0.80781E-05   -0.80779E-05  9360   0.642E-04-0.261E-07
  19 F= -.38040181E+03 E0= -.38039536E+03  d E =-.745164E-01  mag=    58.0000
       N       E                     dE             d eps       ncg     rms          ort
SDA:   1    -0.380298088024E+03    0.10371E+00    0.00000E+00  9360   0.347E+00 0.000E+00
CGA:   2    -0.380354423415E+03   -0.56335E-01   -0.56501E-01  9360   0.347E+00-0.226E-02
CGA:   3    -0.380378965996E+03   -0.24543E-01   -0.24721E-01  9360   0.185E+00-0.475E-04
CGA:   4    -0.380394847875E+03   -0.15882E-01   -0.15683E-01  9360   0.105E+00-0.325E-02
CGA:   5    -0.380404012451E+03   -0.91646E-02   -0.91887E-02  9360   0.206E-01 0.657E-03
CGA:   6    -0.380406779124E+03   -0.27667E-02   -0.27723E-02  9360   0.181E-01-0.129E-03
CGA:   7    -0.380407650907E+03   -0.87178E-03   -0.88027E-03  9360   0.338E-02-0.889E-04
CGA:   8    -0.380408258219E+03   -0.60731E-03   -0.60746E-03  9360   0.151E-02-0.174E-05
CGA:   9    -0.380408361640E+03   -0.10342E-03   -0.10367E-03  9360   0.103E-02 0.299E-05
CGA:  10    -0.380408473149E+03   -0.11151E-03   -0.11151E-03  9360   0.510E-03-0.346E-06
CGA:  11    -0.380408519582E+03   -0.46432E-04   -0.46456E-04  9360   0.221E-03 0.148E-05
CGA:  12    -0.380408544721E+03   -0.25139E-04   -0.25155E-04  9360   0.236E-03-0.118E-05
CGA:  13    -0.380408563415E+03   -0.18694E-04   -0.18712E-04  9360   0.103E-03 0.653E-06
CGA:  14    -0.380408575657E+03   -0.12242E-04   -0.12250E-04  9360   0.577E-04-0.426E-06
CGA:  15    -0.380408583201E+03   -0.75444E-05   -0.75270E-05  9360   0.817E-04 0.582E-06
  20 F= -.38040858E+03 E0= -.38040215E+03  d E =-.677684E-02  mag=    58.0000
       N       E                     dE             d eps       ncg     rms          ort
SDA:   1    -0.377827235795E+03    0.25813E+01    0.00000E+00  9360   0.775E+01 0.000E+00
CGA:   2    -0.379216996087E+03   -0.13898E+01   -0.14140E+01  9360   0.915E+01-0.256E+00
CGA:   3    -0.379676618293E+03   -0.45962E+00   -0.57556E+00  9360   0.457E+01-0.321E+00
CGA:   4    -0.380177830037E+03   -0.50121E+00   -0.50599E+00  9360   0.179E+01-0.264E+00
CGA:   5    -0.380301047385E+03   -0.12322E+00   -0.12480E+00  9360   0.719E+00-0.231E-02
CGA:   6    -0.380364603080E+03   -0.63556E-01   -0.62910E-01  9360   0.405E+00-0.137E-01
CGA:   7    -0.380389968629E+03   -0.25366E-01   -0.26473E-01  9360   0.992E-01-0.128E-02
CGA:   8    -0.380402272295E+03   -0.12304E-01   -0.12380E-01  9360   0.938E-01-0.216E-02
CGA:   9    -0.380407625157E+03   -0.53529E-02   -0.54248E-02  9360   0.207E-01-0.365E-03
CGA:  10    -0.380410740409E+03   -0.31153E-02   -0.31165E-02  9360   0.180E-01-0.179E-04
CGA:  11    -0.380411834726E+03   -0.10943E-02   -0.11047E-02  9360   0.658E-02-0.266E-04
CGA:  12    -0.380412633577E+03   -0.79885E-03   -0.80065E-03  9360   0.435E-02-0.562E-04
CGA:  13    -0.380413045490E+03   -0.41191E-03   -0.41223E-03  9360   0.322E-02 0.263E-04
CGA:  14    -0.380413319723E+03   -0.27423E-03   -0.27408E-03  9360   0.146E-02-0.429E-05
CGA:  15    -0.380413507489E+03   -0.18777E-03   -0.18747E-03  9360   0.151E-02 0.842E-05
CGA:  16    -0.380413643093E+03   -0.13560E-03   -0.13554E-03  9360   0.772E-03-0.257E-05
CGA:  17    -0.380413713485E+03   -0.70391E-04   -0.70457E-04  9360   0.538E-03 0.439E-05
CGA:  18    -0.380413789854E+03   -0.76369E-04   -0.76347E-04  9360   0.418E-03 0.723E-06
CGA:  19    -0.380413816778E+03   -0.26924E-04   -0.27042E-04  9360   0.178E-03 0.202E-05
CGA:  20    -0.380413848631E+03   -0.31853E-04   -0.31831E-04  9360   0.174E-03 0.289E-06
CGA:  21    -0.380413860182E+03   -0.11551E-04   -0.11606E-04  9360   0.796E-04 0.110E-05
CGA:  22    -0.380413871967E+03   -0.11785E-04   -0.11789E-04  9360   0.756E-04-0.841E-07
CGA:  23    -0.380413879183E+03   -0.72158E-05   -0.72216E-05  9360   0.521E-04 0.567E-06
  21 F= -.38041388E+03 E0= -.38040751E+03  d E =-.529598E-02  mag=    58.0000
       N       E                     dE             d eps       ncg     rms          ort
SDA:   1    -0.379775185163E+03    0.63869E+00    0.00000E+00  9360   0.195E+01 0.000E+00
CGA:   2    -0.379991753027E+03   -0.21657E+00   -0.21754E+00  9360   0.368E+01-0.673E-01
CGA:   3    -0.380285291831E+03   -0.29354E+00   -0.29704E+00  9360   0.728E+00 0.403E-01
CGA:   4    -0.380354311622E+03   -0.69020E-01   -0.69303E-01  9360   0.507E+00 0.124E-01
CGA:   5    -0.380389425529E+03   -0.35114E-01   -0.34222E-01  9360   0.278E+00 0.699E-03
CGA:   6    -0.380406198604E+03   -0.16773E-01   -0.17167E-01  9360   0.516E-01-0.171E-02
CGA:   7    -0.380412780814E+03   -0.65822E-02   -0.65777E-02  9360   0.466E-01 0.117E-03
CGA:   8    -0.380415019240E+03   -0.22384E-02   -0.21744E-02  9360   0.101E-01 0.763E-03
CGA:   9    -0.380416513221E+03   -0.14940E-02   -0.14951E-02  9360   0.710E-02-0.191E-04
CGA:  10    -0.380417014479E+03   -0.50126E-03   -0.50176E-03  9360   0.350E-02 0.699E-05
CGA:  11    -0.380417229311E+03   -0.21483E-03   -0.21365E-03  9360   0.149E-02 0.239E-05
CGA:  12    -0.380417467619E+03   -0.23831E-03   -0.23843E-03  9360   0.736E-03-0.171E-05
CGA:  13    -0.380417528115E+03   -0.60496E-04   -0.60521E-04  9360   0.724E-03 0.128E-05
CGA:  14    -0.380417593049E+03   -0.64934E-04   -0.64886E-04  9360   0.404E-03-0.273E-05
CGA:  15    -0.380417650020E+03   -0.56971E-04   -0.56982E-04  9360   0.249E-03-0.183E-06
CGA:  16    -0.380417678880E+03   -0.28860E-04   -0.28837E-04  9360   0.263E-03 0.151E-05
CGA:  17    -0.380417697077E+03   -0.18197E-04   -0.18173E-04  9360   0.145E-03-0.590E-07
CGA:  18    -0.380417717717E+03   -0.20640E-04   -0.20584E-04  9360   0.729E-04 0.133E-05
CGA:  19    -0.380417726555E+03   -0.88378E-05   -0.88203E-05  9360   0.539E-04 0.101E-05
  22 F= -.38041773E+03 E0= -.38041141E+03  d E =-.384737E-02  mag=    58.0000
       N       E                     dE             d eps       ncg     rms          ort
SDA:   1    -0.342193237740E+03    0.38224E+02    0.00000E+00  9360   0.116E+03 0.000E+00
CGA:   2    -0.364497066544E+03   -0.22304E+02   -0.22049E+02  9360   0.754E+02 0.151E+01
CGA:   3    -0.373800334125E+03   -0.93033E+01   -0.92404E+01  9360   0.337E+02 0.366E+01
CGA:   4    -0.377641432850E+03   -0.38411E+01   -0.38381E+01  9360   0.141E+02 0.973E+00
CGA:   5    -0.378940825514E+03   -0.12994E+01   -0.69679E+00  9360   0.693E+01 0.978E+01
CGA:   6    -0.379263229592E+03   -0.32240E+00   -0.37422E+00  9360   0.578E+01-0.836E+00
CGA:   7    -0.379863548313E+03   -0.60032E+00   -0.60001E+00  9360   0.130E+01 0.182E-01
CGA:   8    -0.380014670975E+03   -0.15112E+00   -0.15578E+00  9360   0.239E+01-0.164E+00
CGA:   9    -0.380134269502E+03   -0.11960E+00   -0.12429E+00  9360   0.461E+00-0.209E-01
CGA:  10    -0.380176545727E+03   -0.42276E-01   -0.42768E-01  9360   0.463E+00 0.284E-01
CGA:  11    -0.380221084099E+03   -0.44538E-01   -0.44494E-01  9360   0.172E+00-0.188E-02
CGA:  12    -0.380234964448E+03   -0.13880E-01   -0.13989E-01  9360   0.114E+00 0.163E-02
CGA:  13    -0.380245030175E+03   -0.10066E-01   -0.10069E-01  9360   0.317E-01 0.115E-03
CGA:  14    -0.380249822051E+03   -0.47919E-02   -0.47264E-02  9360   0.452E-01 0.109E-02
CGA:  15    -0.380253712518E+03   -0.38905E-02   -0.38918E-02  9360   0.169E-01 0.269E-04
CGA:  16    -0.380255382771E+03   -0.16703E-02   -0.16708E-02  9360   0.163E-01 0.186E-03
CGA:  17    -0.380257683091E+03   -0.23003E-02   -0.22980E-02  9360   0.864E-02 0.455E-04
CGA:  18    -0.380258360960E+03   -0.67787E-03   -0.68028E-03  9360   0.472E-02 0.260E-04
CGA:  19    -0.380258819280E+03   -0.45832E-03   -0.45820E-03  9360   0.321E-02-0.125E-04
CGA:  20    -0.380259253417E+03   -0.43414E-03   -0.43313E-03  9360   0.190E-02 0.245E-04
CGA:  21    -0.380259399279E+03   -0.14586E-03   -0.14575E-03  9360   0.106E-02 0.639E-07
CGA:  22    -0.380259541572E+03   -0.14229E-03   -0.14211E-03  9360   0.101E-02 0.490E-05
CGA:  23    -0.380259644240E+03   -0.10267E-03   -0.10266E-03  9360   0.605E-03-0.522E-05
CGA:  24    -0.380259719254E+03   -0.75013E-04   -0.74956E-04  9360   0.503E-03 0.198E-05
CGA:  25    -0.380259757154E+03   -0.37901E-04   -0.37839E-04  9360   0.215E-03-0.160E-05
CGA:  26    -0.380259800401E+03   -0.43247E-04   -0.43318E-04  9360   0.254E-03-0.731E-06
CGA:  27    -0.380259815960E+03   -0.15559E-04   -0.15439E-04  9360   0.701E-04-0.100E-05
CGA:  28    -0.380259828129E+03   -0.12169E-04   -0.12191E-04  9360   0.977E-04-0.330E-06
CGA:  29    -0.380259836470E+03   -0.83408E-05   -0.83159E-05  9360   0.374E-04-0.102E-05
  23 F= -.38025984E+03 E0= -.38025358E+03  d E =0.157890E+00  mag=    58.0000
       N       E                     dE             d eps       ncg     rms          ort
SDA:   1    -0.361418186707E+03    0.18842E+02    0.00000E+00  9360   0.663E+02 0.000E+00
CGA:   2    -0.369499729197E+03   -0.80815E+01   -0.10969E+02  9360   0.659E+02-0.176E+02
CGA:   3    -0.375023597204E+03   -0.55239E+01   -0.59565E+01  9360   0.388E+02-0.188E+02
CGA:   4    -0.378117716797E+03   -0.30941E+01   -0.30975E+01  9360   0.119E+02-0.177E+01
CGA:   5    -0.379233831430E+03   -0.11161E+01   -0.87124E+00  9360   0.882E+01 0.318E+00
CGA:   6    -0.379622684127E+03   -0.38885E+00   -0.35276E+00  9360   0.518E+01 0.664E+00
CGA:   7    -0.379899205374E+03   -0.27652E+00   -0.30904E+00  9360   0.606E+01-0.291E+00
CGA:   8    -0.380086496040E+03   -0.18729E+00   -0.20609E+00  9360   0.178E+01-0.217E+00
CGA:   9    -0.380144653149E+03   -0.58157E-01   -0.52829E-01  9360   0.117E+01 0.133E+00
CGA:  10    -0.380238654368E+03   -0.94001E-01   -0.94443E-01  9360   0.166E+01 0.474E-02
CGA:  11    -0.380290773324E+03   -0.52119E-01   -0.58422E-01  9360   0.592E+00-0.117E+00
CGA:  12    -0.380322880089E+03   -0.32107E-01   -0.32822E-01  9360   0.517E+00-0.145E-02
CGA:  13    -0.380345074236E+03   -0.22194E-01   -0.22822E-01  9360   0.224E+00-0.603E-02
CGA:  14    -0.380366016376E+03   -0.20942E-01   -0.20897E-01  9360   0.263E+00 0.418E-02
CGA:  15    -0.380377205329E+03   -0.11189E-01   -0.12016E-01  9360   0.876E-01-0.822E-02
CGA:  16    -0.380386530658E+03   -0.93253E-02   -0.91979E-02  9360   0.622E-01 0.396E-02
CGA:  17    -0.380390266466E+03   -0.37358E-02   -0.37367E-02  9360   0.410E-01-0.988E-05
CGA:  18    -0.380394044993E+03   -0.37785E-02   -0.37775E-02  9360   0.198E-01 0.101E-03
CGA:  19    -0.380396361576E+03   -0.23166E-02   -0.23064E-02  9360   0.177E-01 0.253E-03
CGA:  20    -0.380397262109E+03   -0.90053E-03   -0.89004E-03  9360   0.588E-02 0.554E-04
CGA:  21    -0.380398533590E+03   -0.12715E-02   -0.12695E-02  9360   0.534E-02 0.168E-04
CGA:  22    -0.380398787938E+03   -0.25435E-03   -0.25700E-03  9360   0.239E-02-0.175E-04
CGA:  23    -0.380399174209E+03   -0.38627E-03   -0.38596E-03  9360   0.153E-02 0.443E-05
CGA:  24    -0.380399338657E+03   -0.16445E-03   -0.16457E-03  9360   0.206E-02-0.584E-05
CGA:  25    -0.380399480031E+03   -0.14137E-03   -0.14169E-03  9360   0.629E-03 0.531E-05
CGA:  26    -0.380399580054E+03   -0.10002E-03   -0.99775E-04  9360   0.691E-03 0.368E-05
CGA:  27    -0.380399636406E+03   -0.56352E-04   -0.56282E-04  9360   0.724E-03-0.246E-05
CGA:  28    -0.380399706903E+03   -0.70498E-04   -0.70496E-04  9360   0.195E-03 0.213E-06
CGA:  29    -0.380399738240E+03   -0.31337E-04   -0.31391E-04  9360   0.462E-03-0.891E-06
CGA:  30    -0.380399771175E+03   -0.32935E-04   -0.32809E-04  9360   0.136E-03-0.379E-05
CGA:  31    -0.380399784683E+03   -0.13508E-04   -0.13509E-04  9360   0.911E-04-0.677E-06
SDA:  32    -0.380399796305E+03   -0.11622E-04   -0.11611E-04  9360   0.146E-03 0.305E-06
CGA:  33    -0.380399802320E+03   -0.60152E-05   -0.59721E-05  9360   0.373E-04-0.427E-06
  24 F= -.38039980E+03 E0= -.38039388E+03  d E =-.139966E+00  mag=    58.0000
       N       E                     dE             d eps       ncg     rms          ort
SDA:   1    -0.378623002000E+03    0.17768E+01    0.00000E+00  9360   0.586E+01 0.000E+00
CGA:   2    -0.379652012417E+03   -0.10290E+01   -0.10161E+01  9360   0.316E+01 0.165E+00
CGA:   3    -0.380026221198E+03   -0.37421E+00   -0.39960E+00  9360   0.561E+01-0.832E+00
CGA:   4    -0.380248857228E+03   -0.22264E+00   -0.22584E+00  9360   0.177E+01-0.331E-01
CGA:   5    -0.380335284541E+03   -0.86427E-01   -0.10337E+00  9360   0.102E+01-0.104E+00
CGA:   6    -0.380389470109E+03   -0.54186E-01   -0.52717E-01  9360   0.432E+00 0.626E-02
CGA:   7    -0.380420841357E+03   -0.31371E-01   -0.30197E-01  9360   0.345E+00-0.432E-02
CGA:   8    -0.380436642219E+03   -0.15801E-01   -0.16203E-01  9360   0.104E+00-0.475E-02
CGA:   9    -0.380445239310E+03   -0.85971E-02   -0.86461E-02  9360   0.111E+00 0.206E-02
CGA:  10    -0.380451046866E+03   -0.58076E-02   -0.57604E-02  9360   0.279E-01 0.309E-03
CGA:  11    -0.380453311790E+03   -0.22649E-02   -0.22538E-02  9360   0.298E-01-0.398E-03
CGA:  12    -0.380455040118E+03   -0.17283E-02   -0.17373E-02  9360   0.130E-01 0.155E-05
CGA:  13    -0.380456156870E+03   -0.11168E-02   -0.11173E-02  9360   0.106E-01 0.103E-03
CGA:  14    -0.380456661651E+03   -0.50478E-03   -0.50303E-03  9360   0.352E-02 0.930E-05
CGA:  15    -0.380457060706E+03   -0.39906E-03   -0.39978E-03  9360   0.435E-02-0.208E-04
CGA:  16    -0.380457275564E+03   -0.21486E-03   -0.21551E-03  9360   0.150E-02-0.654E-06
CGA:  17    -0.380457411670E+03   -0.13611E-03   -0.13608E-03  9360   0.113E-02 0.382E-05
CGA:  18    -0.380457477677E+03   -0.66007E-04   -0.65945E-04  9360   0.774E-03 0.291E-07
CGA:  19    -0.380457561488E+03   -0.83811E-04   -0.83721E-04  9360   0.474E-03 0.385E-05
CGA:  20    -0.380457584852E+03   -0.23365E-04   -0.23480E-04  9360   0.259E-03 0.158E-05
CGA:  21    -0.380457614164E+03   -0.29311E-04   -0.29326E-04  9360   0.220E-03-0.477E-06
CGA:  22    -0.380457628947E+03   -0.14783E-04   -0.14749E-04  9360   0.179E-03-0.144E-05
CGA:  23    -0.380457641504E+03   -0.12557E-04   -0.12554E-04  9360   0.604E-04-0.275E-06
CGA:  24    -0.380457646411E+03   -0.49069E-05   -0.49074E-05  9360   0.770E-04 0.178E-06
  25 F= -.38045765E+03 E0= -.38045152E+03  d E =-.578441E-01  mag=    58.0000
       N       E                     dE             d eps       ncg     rms          ort
SDA:   1    -0.380293067756E+03    0.16457E+00    0.00000E+00  9360   0.604E+00 0.000E+00
CGA:   2    -0.380354750924E+03   -0.61683E-01   -0.60468E-01  9360   0.569E+00 0.496E-01
CGA:   3    -0.380405974506E+03   -0.51224E-01   -0.51148E-01  9360   0.266E+00-0.229E-01
CGA:   4    -0.380435469897E+03   -0.29495E-01   -0.29323E-01  9360   0.129E+00 0.439E-02
CGA:   5    -0.380447460358E+03   -0.11990E-01   -0.12002E-01  9360   0.598E-01-0.119E-02
CGA:   6    -0.380451364469E+03   -0.39041E-02   -0.39470E-02  9360   0.233E-01 0.450E-03
CGA:   7    -0.380453869147E+03   -0.25047E-02   -0.25151E-02  9360   0.795E-02-0.339E-03
CGA:   8    -0.380454554546E+03   -0.68540E-03   -0.68529E-03  9360   0.503E-02 0.620E-04
CGA:   9    -0.380454960801E+03   -0.40625E-03   -0.40610E-03  9360   0.205E-02-0.120E-04
CGA:  10    -0.380455179155E+03   -0.21835E-03   -0.21816E-03  9360   0.932E-03 0.767E-05
CGA:  11    -0.380455263873E+03   -0.84718E-04   -0.84730E-04  9360   0.707E-03-0.238E-05
CGA:  12    -0.380455326457E+03   -0.62583E-04   -0.62577E-04  9360   0.250E-03 0.319E-05
CGA:  13    -0.380455357710E+03   -0.31253E-04   -0.31326E-04  9360   0.213E-03-0.179E-05
CGA:  14    -0.380455375354E+03   -0.17644E-04   -0.17651E-04  9360   0.116E-03 0.108E-05
CGA:  15    -0.380455387415E+03   -0.12062E-04   -0.12064E-04  9360   0.623E-04-0.175E-06
CGA:  16    -0.380455395629E+03   -0.82133E-05   -0.81589E-05  9360   0.591E-04 0.132E-05
  26 F= -.38045540E+03 E0= -.38044927E+03  d E =0.225078E-02  mag=    58.0000
       N       E                     dE             d eps       ncg     rms          ort
SDA:   1    -0.380060455650E+03    0.39493E+00    0.00000E+00  9360   0.116E+01 0.000E+00
CGA:   2    -0.380250845856E+03   -0.19039E+00   -0.19368E+00  9360   0.187E+01-0.392E-01
CGA:   3    -0.380346302544E+03   -0.95457E-01   -0.10185E+00  9360   0.510E+00-0.357E-01
CGA:   4    -0.380420796440E+03   -0.74494E-01   -0.74662E-01  9360   0.158E+00-0.258E-02
CGA:   5    -0.380437862537E+03   -0.17066E-01   -0.17083E-01  9360   0.640E-01-0.823E-03
CGA:   6    -0.380444852643E+03   -0.69901E-02   -0.69831E-02  9360   0.190E-01 0.331E-03
CGA:   7    -0.380446330522E+03   -0.14779E-02   -0.14725E-02  9360   0.161E-01-0.702E-04
CGA:   8    -0.380447794935E+03   -0.14644E-02   -0.14653E-02  9360   0.332E-02 0.930E-04
CGA:   9    -0.380448288972E+03   -0.49404E-03   -0.49423E-03  9360   0.180E-02-0.286E-05
CGA:  10    -0.380448533178E+03   -0.24421E-03   -0.24420E-03  9360   0.636E-03 0.347E-06
CGA:  11    -0.380448639069E+03   -0.10589E-03   -0.10589E-03  9360   0.495E-03 0.147E-07
CGA:  12    -0.380448704670E+03   -0.65600E-04   -0.65646E-04  9360   0.264E-03-0.151E-05
CGA:  13    -0.380448727213E+03   -0.22543E-04   -0.22582E-04  9360   0.284E-03 0.147E-05
CGA:  14    -0.380448764561E+03   -0.37348E-04   -0.37327E-04  9360   0.913E-04 0.886E-06
CGA:  15    -0.380448779445E+03   -0.14884E-04   -0.14842E-04  9360   0.825E-04 0.726E-06
CGA:  16    -0.380448790941E+03   -0.11496E-04   -0.11492E-04  9360   0.458E-04 0.156E-06
CGA:  17    -0.380448794152E+03   -0.32111E-05   -0.32287E-05  9360   0.317E-04 0.391E-06
  27 F= -.38044879E+03 E0= -.38044274E+03  d E =0.660148E-02  mag=    58.0000
       N       E                     dE             d eps       ncg     rms          ort
SDA:   1    -0.378343214953E+03    0.21056E+01    0.00000E+00  9360   0.599E+01 0.000E+00
CGA:   2    -0.379269564442E+03   -0.92635E+00   -0.93773E+00  9360   0.112E+02-0.626E-01
CGA:   3    -0.379987688663E+03   -0.71812E+00   -0.77661E+00  9360   0.239E+01-0.246E+00
CGA:   4    -0.380281885723E+03   -0.29420E+00   -0.30004E+00  9360   0.123E+01-0.195E+00
CGA:   5    -0.380389924228E+03   -0.10804E+00   -0.10820E+00  9360   0.232E+00 0.347E-02
CGA:   6    -0.380423088643E+03   -0.33164E-01   -0.33240E-01  9360   0.158E+00-0.165E-02
CGA:   7    -0.380431208893E+03   -0.81202E-02   -0.83968E-02  9360   0.472E-01-0.284E-02
CGA:   8    -0.380438178921E+03   -0.69700E-02   -0.69925E-02  9360   0.225E-01-0.412E-03
CGA:   9    -0.380439977564E+03   -0.17986E-02   -0.18141E-02  9360   0.845E-02 0.771E-04
CGA:  10    -0.380440923386E+03   -0.94582E-03   -0.94598E-03  9360   0.846E-02-0.388E-04
CGA:  11    -0.380441555712E+03   -0.63233E-03   -0.63374E-03  9360   0.171E-02 0.442E-05
CGA:  12    -0.380441950335E+03   -0.39462E-03   -0.39505E-03  9360   0.179E-02-0.354E-05
CGA:  13    -0.380442071283E+03   -0.12095E-03   -0.12187E-03  9360   0.101E-02-0.147E-06
CGA:  14    -0.380442217132E+03   -0.14585E-03   -0.14580E-03  9360   0.695E-03 0.168E-05
CGA:  15    -0.380442312499E+03   -0.95366E-04   -0.95255E-04  9360   0.482E-03 0.422E-05
CGA:  16    -0.380442354789E+03   -0.42291E-04   -0.42255E-04  9360   0.367E-03-0.356E-06
CGA:  17    -0.380442394756E+03   -0.39966E-04   -0.39977E-04  9360   0.180E-03 0.203E-05
CGA:  18    -0.380442418648E+03   -0.23892E-04   -0.23894E-04  9360   0.123E-03-0.430E-07
CGA:  19    -0.380442431120E+03   -0.12472E-04   -0.12480E-04  9360   0.882E-04 0.629E-06
CGA:  20    -0.380442438598E+03   -0.74783E-05   -0.74665E-05  9360   0.495E-04-0.336E-06
  28 F= -.38044244E+03 E0= -.38043657E+03  d E =0.635555E-02  mag=    58.0000
       N       E                     dE             d eps       ncg     rms          ort
SDA:   1    -0.279402632047E+03    0.10104E+03    0.00000E+00  9360   0.426E+03 0.000E+00
CGA:   2    -0.314620632637E+03   -0.35218E+02   -0.56269E+02  9360   0.331E+03-0.124E+03
CGA:   3    -0.295208845180E+03    0.19412E+02   -0.36470E+02  9360   0.693E+04-0.421E+04
CGA:   4    -0.361479089275E+03   -0.66270E+02   -0.40373E+03  9360   0.961E+02-0.897E+02
CGA:   5    -0.371974441148E+03   -0.10495E+02   -0.98542E+01  9360   0.367E+02-0.754E+01
CGA:   6    -0.375216013702E+03   -0.32416E+01   -0.31468E+01  9360   0.148E+02-0.185E+01
CGA:   7    -0.376453688741E+03   -0.12377E+01   -0.13322E+01  9360   0.764E+01 0.178E+01
CGA:   8    -0.377200290460E+03   -0.74660E+00   -0.52767E+00  9360   0.520E+01-0.234E-01
CGA:   9    -0.377758448873E+03   -0.55816E+00   -0.55680E+00  9360   0.594E+01-0.234E+00
CGA:  10    -0.377911509749E+03   -0.15306E+00   -0.26323E+00  9360   0.519E+01-0.168E+01
CGA:  11    -0.378071090215E+03   -0.15958E+00   -0.20831E+00  9360   0.271E+01-0.273E+00
CGA:  12    -0.378292489019E+03   -0.22140E+00   -0.21310E+00  9360   0.719E+00-0.842E-01
CGA:  13    -0.378350164677E+03   -0.57676E-01   -0.57402E-01  9360   0.659E+00-0.307E-02
CGA:  14    -0.378399452818E+03   -0.49288E-01   -0.50042E-01  9360   0.362E+00 0.547E-02
CGA:  15    -0.378432157640E+03   -0.32705E-01   -0.32683E-01  9360   0.274E+00-0.756E-03
CGA:  16    -0.378460260748E+03   -0.28103E-01   -0.28119E-01  9360   0.153E+00-0.303E-02
CGA:  17    -0.378474176657E+03   -0.13916E-01   -0.13965E-01  9360   0.101E+00 0.249E-02
CGA:  18    -0.378484088095E+03   -0.99114E-02   -0.99314E-02  9360   0.767E-01 0.290E-02
CGA:  19    -0.378492154612E+03   -0.80665E-02   -0.80633E-02  9360   0.305E-01 0.659E-03
CGA:  20    -0.378495234884E+03   -0.30803E-02   -0.30809E-02  9360   0.307E-01-0.842E-03
CGA:  21    -0.378498944693E+03   -0.37098E-02   -0.37254E-02  9360   0.189E-01-0.552E-03
CGA:  22    -0.378500519221E+03   -0.15745E-02   -0.15983E-02  9360   0.154E-01 0.567E-03
CGA:  23    -0.378502532686E+03   -0.20135E-02   -0.29636E-02  9360   0.260E-01-0.113E-01
CGA:  24    -0.378504776989E+03   -0.22443E-02   -0.22664E-02  9360   0.696E-02 0.390E-03
CGA:  25    -0.378505571644E+03   -0.79466E-03   -0.79525E-03  9360   0.600E-02-0.391E-04
CGA:  26    -0.378506908337E+03   -0.13367E-02   -0.13162E-02  9360   0.313E-02 0.166E-03
CGA:  27    -0.378507484484E+03   -0.57615E-03   -0.57832E-03  9360   0.243E-02-0.331E-04
CGA:  28    -0.378507886908E+03   -0.40242E-03   -0.43256E-03  9360   0.394E-02-0.420E-03
CGA:  29    -0.378508200506E+03   -0.31360E-03   -0.31767E-03  9360   0.257E-02 0.724E-04
CGA:  30    -0.378508409911E+03   -0.20940E-03   -0.21486E-03  9360   0.112E-02 0.147E-04
CGA:  31    -0.378508504446E+03   -0.94535E-04   -0.91993E-04  9360   0.689E-03-0.124E-04
CGA:  32    -0.378508616714E+03   -0.11227E-03   -0.11347E-03  9360   0.755E-03-0.215E-04
CGA:  33    -0.378508670429E+03   -0.53715E-04   -0.55460E-04  9360   0.398E-03-0.116E-05
CGA:  34    -0.378508726032E+03   -0.55603E-04   -0.56567E-04  9360   0.267E-03-0.254E-04
CGA:  35    -0.378508759257E+03   -0.33226E-04   -0.33746E-04  9360   0.369E-03-0.179E-04
CGA:  36    -0.378508788756E+03   -0.29499E-04   -0.29950E-04  9360   0.194E-03 0.307E-05
CGA:  37    -0.378508806817E+03   -0.18061E-04   -0.18217E-04  9360   0.134E-03 0.324E-05
CGA:  38    -0.378508820144E+03   -0.13327E-04   -0.13280E-04  9360   0.132E-03-0.258E-06
CGA:  39    -0.378508835834E+03   -0.15690E-04   -0.15675E-04  9360   0.876E-04 0.283E-05
CGA:  40    -0.378508842189E+03   -0.63546E-05   -0.64941E-05  9360   0.605E-04 0.241E-05
  29 F= -.37850884E+03 E0= -.37850480E+03  d E =0.193360E+01  mag=    58.0000
       N       E                     dE             d eps       ncg     rms          ort
SDA:   1    -0.112950739559E+02    0.36721E+03    0.00000E+00  9360   0.861E+04 0.000E+00
CGA:   2    -0.277816254779E+03   -0.26652E+03   -0.53433E+03  9360   0.245E+03 0.222E+03
CGA:   3    -0.349266019839E+03   -0.71450E+02   -0.66935E+02  9360   0.133E+03-0.143E+02
CGA:   4    -0.368516381236E+03   -0.19250E+02   -0.21561E+02  9360   0.651E+02-0.358E+02
CGA:   5    -0.373876162324E+03   -0.53598E+01   -0.53570E+01  9360   0.259E+02-0.201E+00
CGA:   6    -0.376786281865E+03   -0.29101E+01   -0.29203E+01  9360   0.124E+02 0.714E+00
CGA:   7    -0.378221586106E+03   -0.14353E+01   -0.14172E+01  9360   0.754E+01-0.954E+00
CGA:   8    -0.379000382353E+03   -0.77880E+00   -0.78303E+00  9360   0.663E+01 0.313E+00
CGA:   9    -0.379415285873E+03   -0.41490E+00   -0.47040E+00  9360   0.224E+01-0.339E+00
CGA:  10    -0.379823045682E+03   -0.40776E+00   -0.40085E+00  9360   0.168E+01 0.771E-01
CGA:  11    -0.379927754639E+03   -0.10471E+00   -0.95278E-01  9360   0.105E+01 0.566E-01
CGA:  12    -0.380012953581E+03   -0.85199E-01   -0.86170E-01  9360   0.138E+01-0.176E-02
CGA:  13    -0.380105030495E+03   -0.92077E-01   -0.95431E-01  9360   0.588E+00-0.765E-02
CGA:  14    -0.380147623081E+03   -0.42593E-01   -0.35950E-01  9360   0.224E+00 0.432E-01
CGA:  15    -0.380177233619E+03   -0.29611E-01   -0.29630E-01  9360   0.480E+00-0.775E-03
CGA:  16    -0.380204985335E+03   -0.27752E-01   -0.29064E-01  9360   0.171E+00-0.565E-02
CGA:  17    -0.380214146862E+03   -0.91615E-02   -0.93607E-02  9360   0.112E+00-0.175E-02
CGA:  18    -0.380223739770E+03   -0.95929E-02   -0.96105E-02  9360   0.639E-01 0.280E-03
CGA:  19    -0.380229059167E+03   -0.53194E-02   -0.53070E-02  9360   0.795E-01-0.167E-03
CGA:  20    -0.380235054734E+03   -0.59956E-02   -0.60189E-02  9360   0.306E-01 0.107E-03
CGA:  21    -0.380236867881E+03   -0.18131E-02   -0.18286E-02  9360   0.226E-01-0.698E-04
CGA:  22    -0.380239075123E+03   -0.22072E-02   -0.22073E-02  9360   0.186E-01 0.372E-05
CGA:  23    -0.380240630610E+03   -0.15555E-02   -0.15516E-02  9360   0.136E-01-0.750E-04
CGA:  24    -0.380241414866E+03   -0.78426E-03   -0.79444E-03  9360   0.584E-02-0.398E-04
CGA:  25    -0.380242042264E+03   -0.62740E-03   -0.62750E-03  9360   0.637E-02-0.457E-05
CGA:  26    -0.380242444239E+03   -0.40198E-03   -0.39756E-03  9360   0.363E-02 0.275E-05
CGA:  27    -0.380242798534E+03   -0.35429E-03   -0.35433E-03  9360   0.266E-02-0.135E-04
CGA:  28    -0.380242963978E+03   -0.16544E-03   -0.16612E-03  9360   0.191E-02-0.212E-05
CGA:  29    -0.380243143323E+03   -0.17934E-03   -0.17935E-03  9360   0.114E-02-0.438E-05
CGA:  30    -0.380243219222E+03   -0.75899E-04   -0.75632E-04  9360   0.102E-02-0.358E-05
CGA:  31    -0.380243310978E+03   -0.91757E-04   -0.91751E-04  9360   0.483E-03-0.207E-05
SDA:  32    -0.380243342947E+03   -0.31968E-04   -0.31956E-04  9360   0.469E-03 0.120E-06
CGA:  33    -0.380243370678E+03   -0.27731E-04   -0.27680E-04  9360   0.265E-03-0.464E-06
CGA:  34    -0.380243408421E+03   -0.37743E-04   -0.37651E-04  9360   0.156E-03 0.179E-05
CGA:  35    -0.380243436709E+03   -0.28288E-04   -0.28115E-04  9360   0.125E-03 0.199E-05
CGA:  36    -0.380243449819E+03   -0.13111E-04   -0.13108E-04  9360   0.533E-04 0.692E-06
CGA:  37    -0.380243457050E+03   -0.72311E-05   -0.72378E-05  9360   0.664E-04-0.161E-06
  30 F= -.38024346E+03 E0= -.38023658E+03  d E =-.173461E+01  mag=    58.0000
       N       E                     dE             d eps       ncg     rms          ort
SDA:   1    -0.378995857671E+03    0.12476E+01    0.00000E+00  9360   0.858E+01 0.000E+00
CGA:   2    -0.379450044598E+03   -0.45419E+00   -0.43934E+00  9360   0.419E+01-0.104E+01
CGA:   3    -0.379983869648E+03   -0.53383E+00   -0.52755E+00  9360   0.188E+01 0.113E+00
CGA:   4    -0.380165461546E+03   -0.18159E+00   -0.18195E+00  9360   0.133E+01 0.386E-01
CGA:   5    -0.380264872943E+03   -0.99411E-01   -0.97815E-01  9360   0.847E+00-0.125E-01
CGA:   6    -0.380315610046E+03   -0.50737E-01   -0.52780E-01  9360   0.189E+00-0.468E-02
CGA:   7    -0.380335358490E+03   -0.19748E-01   -0.19728E-01  9360   0.165E+00 0.123E-02
CGA:   8    -0.380344685451E+03   -0.93270E-02   -0.90156E-02  9360   0.389E-01 0.182E-02
CGA:   9    -0.380349139457E+03   -0.44540E-02   -0.44598E-02  9360   0.224E-01-0.195E-03
CGA:  10    -0.380351103151E+03   -0.19637E-02   -0.19636E-02  9360   0.164E-01-0.936E-07
CGA:  11    -0.380352138266E+03   -0.10351E-02   -0.10225E-02  9360   0.484E-02 0.234E-05
CGA:  12    -0.380352816500E+03   -0.67823E-03   -0.67785E-03  9360   0.344E-02 0.764E-05
CGA:  13    -0.380353133466E+03   -0.31697E-03   -0.31694E-03  9360   0.215E-02-0.353E-05
CGA:  14    -0.380353277281E+03   -0.14381E-03   -0.14319E-03  9360   0.112E-02-0.370E-05
CGA:  15    -0.380353436700E+03   -0.15942E-03   -0.15947E-03  9360   0.531E-03-0.105E-05
CGA:  16    -0.380353504559E+03   -0.67860E-04   -0.67886E-04  9360   0.523E-03-0.529E-06
CGA:  17    -0.380353540258E+03   -0.35699E-04   -0.35683E-04  9360   0.265E-03-0.396E-06
CGA:  18    -0.380353568851E+03   -0.28593E-04   -0.28566E-04  9360   0.158E-03 0.203E-05
CGA:  19    -0.380353589933E+03   -0.21082E-04   -0.21024E-04  9360   0.787E-04 0.164E-05
CGA:  20    -0.380353596244E+03   -0.63108E-05   -0.63124E-05  9360   0.719E-04 0.134E-06
  31 F= -.38035360E+03 E0= -.38034679E+03  d E =-.110139E+00  mag=    58.0000
       N       E                     dE             d eps       ncg     rms          ort
SDA:   1    -0.346276164040E+03    0.34077E+02    0.00000E+00  9360   0.118E+03 0.000E+00
CGA:   2    -0.366714082714E+03   -0.20438E+02   -0.20035E+02  9360   0.457E+02 0.482E+01
CGA:   3    -0.375344853722E+03   -0.86308E+01   -0.90044E+01  9360   0.342E+02-0.367E+01
CGA:   4    -0.378496078281E+03   -0.31512E+01   -0.31580E+01  9360   0.885E+01 0.599E+00
CGA:   5    -0.379734733411E+03   -0.12387E+01   -0.12509E+01  9360   0.247E+01-0.280E+00
CGA:   6    -0.380132039087E+03   -0.39731E+00   -0.41213E+00  9360   0.122E+01-0.247E+00
CGA:   7    -0.380243188416E+03   -0.11115E+00   -0.11229E+00  9360   0.522E+00 0.661E-01
[...]
CGA:  20    -0.380607517293E+03   -0.13305E-04   -0.13277E-04  9360   0.635E-04-0.919E-06
CGA:  21    -0.380607528475E+03   -0.11182E-04   -0.11195E-04  9360   0.238E-04-0.108E-05
CGA:  22    -0.380607533440E+03   -0.49645E-05   -0.50226E-05  9360   0.188E-04-0.120E-05
 107 F= -.38060753E+03 E0= -.38060670E+03  d E =-.769477E-02  mag=    58.0000
       N       E                     dE             d eps       ncg     rms          ort
SDA:   1    -0.360769535235E+03    0.19838E+02    0.00000E+00  9360   0.630E+02 0.000E+00
CGA:   2    -0.371954888808E+03   -0.11185E+02   -0.11145E+02  9360   0.306E+02 0.222E+01
CGA:   3    -0.376967751826E+03   -0.50129E+01   -0.49155E+01  9360   0.238E+02-0.346E+01
CGA:   4    -0.379116972105E+03   -0.21492E+01   -0.21383E+01  9360   0.568E+01-0.508E+00
CGA:   5    -0.379923407461E+03   -0.80644E+00   -0.81274E+00  9360   0.131E+01 0.154E+00
CGA:   6    -0.380137585382E+03   -0.21418E+00   -0.21327E+00  9360   0.836E+00-0.115E+00
CGA:   7    -0.380197045674E+03   -0.59460E-01   -0.62953E-01  9360   0.353E+00-0.215E-01
CGA:   8    -0.380234988847E+03   -0.37943E-01   -0.39748E-01  9360   0.123E+00 0.679E-02
CGA:   9    -0.380255261503E+03   -0.20273E-01   -0.20343E-01  9360   0.583E-01-0.606E-02
CGA:  10    -0.380262713207E+03   -0.74517E-02   -0.74973E-02  9360   0.400E-01 0.762E-03
CGA:  11    -0.380266896472E+03   -0.41833E-02   -0.42337E-02  9360   0.143E-01 0.219E-04
CGA:  12    -0.380269817937E+03   -0.29215E-02   -0.29275E-02  9360   0.694E-02-0.925E-04
CGA:  13    -0.380271249109E+03   -0.14312E-02   -0.14224E-02  9360   0.354E-02 0.130E-03
CGA:  14    -0.380271969603E+03   -0.72049E-03   -0.72252E-03  9360   0.189E-02-0.315E-04
CGA:  15    -0.380272291974E+03   -0.32237E-03   -0.32208E-03  9360   0.126E-02 0.177E-04
CGA:  16    -0.380272460804E+03   -0.16883E-03   -0.16922E-03  9360   0.725E-03 0.731E-05
CGA:  17    -0.380272588655E+03   -0.12785E-03   -0.12780E-03  9360   0.332E-03 0.293E-05
CGA:  18    -0.380272667407E+03   -0.78752E-04   -0.78597E-04  9360   0.205E-03 0.176E-05
CGA:  19    -0.380272709112E+03   -0.41705E-04   -0.41780E-04  9360   0.136E-03-0.177E-05
CGA:  20    -0.380272731369E+03   -0.22257E-04   -0.22257E-04  9360   0.938E-04-0.102E-05
CGA:  21    -0.380272744287E+03   -0.12918E-04   -0.12898E-04  9360   0.455E-04-0.706E-06
CGA:  22    -0.380272753720E+03   -0.94330E-05   -0.94717E-05  9360   0.223E-04-0.826E-06
 108 F= -.38027275E+03 E0= -.38027087E+03  d E =0.334780E+00  mag=    58.0000
       N       E                     dE             d eps       ncg     rms          ort
SDA:   1    -0.366377637038E+03    0.13895E+02    0.00000E+00  9360   0.471E+02 0.000E+00
CGA:   2    -0.374616075470E+03   -0.82384E+01   -0.82361E+01  9360   0.224E+02 0.233E+00
CGA:   3    -0.378865579978E+03   -0.42495E+01   -0.42410E+01  9360   0.818E+01 0.267E+00
CGA:   4    -0.379945073065E+03   -0.10795E+01   -0.10732E+01  9360   0.380E+01-0.380E-01
CGA:   5    -0.380315099543E+03   -0.37003E+00   -0.36885E+00  9360   0.111E+01-0.454E-02
CGA:   6    -0.380485329052E+03   -0.17023E+00   -0.17022E+00  9360   0.283E+00-0.151E-03
CGA:   7    -0.380539497449E+03   -0.54168E-01   -0.54329E-01  9360   0.109E+00-0.373E-02
CGA:   8    -0.380554959753E+03   -0.15462E-01   -0.15502E-01  9360   0.628E-01 0.682E-03
CGA:   9    -0.380562608740E+03   -0.76490E-02   -0.76737E-02  9360   0.278E-01 0.104E-03
CGA:  10    -0.380566863469E+03   -0.42547E-02   -0.42529E-02  9360   0.123E-01-0.797E-04
CGA:  11    -0.380569074807E+03   -0.22113E-02   -0.22106E-02  9360   0.512E-02 0.317E-04
CGA:  12    -0.380570122882E+03   -0.10481E-02   -0.10485E-02  9360   0.353E-02-0.484E-05
CGA:  13    -0.380570528775E+03   -0.40589E-03   -0.40568E-03  9360   0.173E-02 0.257E-05
CGA:  14    -0.380570819815E+03   -0.29104E-03   -0.29102E-03  9360   0.874E-03 0.198E-05
CGA:  15    -0.380570957264E+03   -0.13745E-03   -0.13728E-03  9360   0.390E-03-0.148E-04
CGA:  16    -0.380571035850E+03   -0.78587E-04   -0.78475E-04  9360   0.194E-03 0.213E-05
CGA:  17    -0.380571068099E+03   -0.32249E-04   -0.32252E-04  9360   0.164E-03-0.157E-05
CGA:  18    -0.380571091261E+03   -0.23162E-04   -0.23164E-04  9360   0.866E-04 0.335E-06
CGA:  19    -0.380571105976E+03   -0.14715E-04   -0.14715E-04  9360   0.574E-04 0.885E-07
CGA:  20    -0.380571117816E+03   -0.11840E-04   -0.11876E-04  9360   0.276E-04-0.774E-06
CGA:  21    -0.380571123568E+03   -0.57513E-05   -0.57507E-05  9360   0.194E-04 0.217E-07
 109 F= -.38057112E+03 E0= -.38056938E+03  d E =-.298370E+00  mag=    58.0000
       N       E                     dE             d eps       ncg     rms          ort
SDA:   1    -0.379825125400E+03    0.74599E+00    0.00000E+00  9360   0.239E+01 0.000E+00
CGA:   2    -0.380278138963E+03   -0.45301E+00   -0.45299E+00  9360   0.125E+01 0.549E-03
CGA:   3    -0.380481399621E+03   -0.20326E+00   -0.20327E+00  9360   0.705E+00 0.404E-03
CGA:   4    -0.380549179900E+03   -0.67780E-01   -0.67602E-01  9360   0.223E+00-0.442E-03
CGA:   5    -0.380580385587E+03   -0.31206E-01   -0.31203E-01  9360   0.491E-01-0.197E-04
CGA:   6    -0.380588447873E+03   -0.80623E-02   -0.80622E-02  9360   0.205E-01 0.710E-04
CGA:   7    -0.380590646553E+03   -0.21987E-02   -0.21936E-02  9360   0.901E-02-0.254E-05
CGA:   8    -0.380591985464E+03   -0.13389E-02   -0.13389E-02  9360   0.288E-02 0.678E-06
CGA:   9    -0.380592442554E+03   -0.45709E-03   -0.45710E-03  9360   0.184E-02 0.454E-05
CGA:  10    -0.380592682888E+03   -0.24033E-03   -0.24037E-03  9360   0.680E-03 0.144E-05
CGA:  11    -0.380592806722E+03   -0.12383E-03   -0.12381E-03  9360   0.525E-03 0.107E-05
CGA:  12    -0.380592871994E+03   -0.65272E-04   -0.65344E-04  9360   0.215E-03 0.119E-05
CGA:  13    -0.380592922450E+03   -0.50456E-04   -0.50503E-04  9360   0.139E-03-0.602E-06
CGA:  14    -0.380592939436E+03   -0.16986E-04   -0.16979E-04  9360   0.860E-04-0.198E-06
CGA:  15    -0.380592955824E+03   -0.16388E-04   -0.16401E-04  9360   0.399E-04-0.404E-06
CGA:  16    -0.380592961985E+03   -0.61608E-05   -0.61600E-05  9360   0.314E-04-0.121E-06
 110 F= -.38059296E+03 E0= -.38059124E+03  d E =-.218384E-01  mag=    58.0000
       N       E                     dE             d eps       ncg     rms          ort
SDA:   1    -0.380136044171E+03    0.45691E+00    0.00000E+00  9360   0.160E+01 0.000E+00
CGA:   2    -0.380382515686E+03   -0.24647E+00   -0.24427E+00  9360   0.109E+01-0.101E+00
CGA:   3    -0.380522483164E+03   -0.13997E+00   -0.14183E+00  9360   0.421E+00 0.280E-01
CGA:   4    -0.380585651216E+03   -0.63168E-01   -0.63171E-01  9360   0.162E+00 0.630E-04
CGA:   5    -0.380601458073E+03   -0.15807E-01   -0.15781E-01  9360   0.547E-01 0.183E-04
CGA:   6    -0.380609217040E+03   -0.77590E-02   -0.77601E-02  9360   0.126E-01 0.299E-04
CGA:   7    -0.380611487553E+03   -0.22705E-02   -0.22707E-02  9360   0.581E-02-0.653E-05
CGA:   8    -0.380612099076E+03   -0.61152E-03   -0.61067E-03  9360   0.257E-02-0.197E-05
CGA:   9    -0.380612515596E+03   -0.41652E-03   -0.41651E-03  9360   0.832E-03 0.126E-05
CGA:  10    -0.380612660673E+03   -0.14508E-03   -0.14504E-03  9360   0.607E-03 0.194E-05
CGA:  11    -0.380612737918E+03   -0.77245E-04   -0.77239E-04  9360   0.224E-03-0.416E-07
CGA:  12    -0.380612780946E+03   -0.43028E-04   -0.43077E-04  9360   0.189E-03-0.128E-05
CGA:  13    -0.380612805094E+03   -0.24148E-04   -0.24148E-04  9360   0.687E-04-0.975E-07
CGA:  14    -0.380612821257E+03   -0.16163E-04   -0.16138E-04  9360   0.509E-04 0.309E-06
CGA:  15    -0.380612826834E+03   -0.55772E-05   -0.55867E-05  9360   0.237E-04 0.186E-06
 111 F= -.38061283E+03 E0= -.38061127E+03  d E =-.198648E-01  mag=    58.0000
       N       E                     dE             d eps       ncg     rms          ort
SDA:   1    -0.380417526093E+03    0.19530E+00    0.00000E+00  9360   0.665E+00 0.000E+00
CGA:   2    -0.380521785568E+03   -0.10426E+00   -0.10400E+00  9360   0.440E+00-0.346E-01
CGA:   3    -0.380582136164E+03   -0.60351E-01   -0.60680E-01  9360   0.158E+00 0.944E-02
CGA:   4    -0.380607391323E+03   -0.25255E-01   -0.25255E-01  9360   0.531E-01-0.622E-04
CGA:   5    -0.380612773895E+03   -0.53826E-02   -0.53841E-02  9360   0.218E-01-0.563E-05
CGA:   6    -0.380615548178E+03   -0.27743E-02   -0.27752E-02  9360   0.458E-02 0.933E-05
CGA:   7    -0.380616440310E+03   -0.89213E-03   -0.89235E-03  9360   0.172E-02-0.494E-05
CGA:   8    -0.380616654516E+03   -0.21421E-03   -0.21418E-03  9360   0.105E-02-0.658E-06
CGA:   9    -0.380616794688E+03   -0.14017E-03   -0.14020E-03  9360   0.303E-03 0.115E-05
CGA:  10    -0.380616860053E+03   -0.65365E-04   -0.65300E-04  9360   0.190E-03 0.108E-05
CGA:  11    -0.380616884290E+03   -0.24237E-04   -0.24220E-04  9360   0.109E-03-0.553E-06
CGA:  12    -0.380616904249E+03   -0.19959E-04   -0.19992E-04  9360   0.638E-04-0.116E-05
CGA:  13    -0.380616913552E+03   -0.93031E-05   -0.93034E-05  9360   0.355E-04 0.179E-07
 112 F= -.38061691E+03 E0= -.38061552E+03  d E =-.408672E-02  mag=    58.0000
       N       E                     dE             d eps       ncg     rms          ort
SDA:   1    -0.380576022168E+03    0.40882E-01    0.00000E+00  9360   0.125E+00 0.000E+00
CGA:   2    -0.380600237299E+03   -0.24215E-01   -0.24363E-01  9360   0.927E-01-0.283E-02
CGA:   3    -0.380611826214E+03   -0.11589E-01   -0.11688E-01  9360   0.310E-01 0.876E-03
CGA:   4    -0.380615966175E+03   -0.41400E-02   -0.41405E-02  9360   0.127E-01 0.836E-05
CGA:   5    -0.380617242446E+03   -0.12763E-02   -0.12758E-02  9360   0.351E-02 0.722E-06
CGA:   6    -0.380617755048E+03   -0.51260E-03   -0.51261E-03  9360   0.802E-03-0.491E-06
CGA:   7    -0.380617899233E+03   -0.14418E-03   -0.14423E-03  9360   0.417E-03-0.176E-05
CGA:   8    -0.380617941532E+03   -0.42299E-04   -0.42304E-04  9360   0.164E-03 0.684E-07
CGA:   9    -0.380617970723E+03   -0.29191E-04   -0.29162E-04  9360   0.619E-04 0.116E-05
CGA:  10    -0.380617982215E+03   -0.11491E-04   -0.11491E-04  9360   0.482E-04 0.167E-07
CGA:  11    -0.380617989341E+03   -0.71263E-05   -0.71259E-05  9360   0.268E-04-0.458E-07
 113 F= -.38061799E+03 E0= -.38061669E+03  d E =-.107579E-02  mag=    58.0000
       N       E                     dE             d eps       ncg     rms          ort
SDA:   1    -0.380518948315E+03    0.99034E-01    0.00000E+00  9360   0.277E+00 0.000E+00
CGA:   2    -0.380582348250E+03   -0.63400E-01   -0.63851E-01  9360   0.190E+00-0.513E-02
CGA:   3    -0.380607478566E+03   -0.25130E-01   -0.25361E-01  9360   0.564E-01 0.336E-02
CGA:   4    -0.380615923140E+03   -0.84446E-02   -0.84421E-02  9360   0.157E-01-0.920E-04
CGA:   5    -0.380617906950E+03   -0.19838E-02   -0.19851E-02  9360   0.663E-02 0.112E-04
CGA:   6    -0.380618562998E+03   -0.65605E-03   -0.65614E-03  9360   0.187E-02-0.222E-05
CGA:   7    -0.380618882498E+03   -0.31950E-03   -0.31956E-03  9360   0.528E-03-0.277E-05
CGA:   8    -0.380618974188E+03   -0.91690E-04   -0.91649E-04  9360   0.263E-03 0.196E-05
CGA:   9    -0.380619007118E+03   -0.32930E-04   -0.32945E-04  9360   0.130E-03 0.522E-06
CGA:  10    -0.380619026337E+03   -0.19219E-04   -0.19218E-04  9360   0.702E-04-0.848E-07
CGA:  11    -0.380619038611E+03   -0.12274E-04   -0.12276E-04  9360   0.338E-04-0.108E-06
CGA:  12    -0.380619046043E+03   -0.74321E-05   -0.74679E-05  9360   0.264E-04-0.532E-06
 114 F= -.38061905E+03 E0= -.38061787E+03  d E =-.105670E-02  mag=    58.0000
       N       E                     dE             d eps       ncg     rms          ort
SDA:   1    -0.380578945703E+03    0.40093E-01    0.00000E+00  9360   0.111E+00 0.000E+00
CGA:   2    -0.380603464958E+03   -0.24519E-01   -0.24530E-01  9360   0.107E+00-0.136E-03
CGA:   3    -0.380614021902E+03   -0.10557E-01   -0.10567E-01  9360   0.296E-01-0.284E-04
CGA:   4    -0.380618076481E+03   -0.40546E-02   -0.40594E-02  9360   0.967E-02 0.103E-03
CGA:   5    -0.380619253239E+03   -0.11768E-02   -0.11745E-02  9360   0.211E-02-0.157E-04
CGA:   6    -0.380619601737E+03   -0.34850E-03   -0.34850E-03  9360   0.778E-03-0.114E-05
CGA:   7    -0.380619689409E+03   -0.87672E-04   -0.87639E-04  9360   0.375E-03-0.420E-06
CGA:   8    -0.380619738783E+03   -0.49374E-04   -0.49380E-04  9360   0.906E-04 0.429E-06
CGA:   9    -0.380619756614E+03   -0.17832E-04   -0.17791E-04  9360   0.480E-04 0.881E-06
CGA:  10    -0.380619763517E+03   -0.69033E-05   -0.69026E-05  9360   0.315E-04-0.551E-07
 115 F= -.38061976E+03 E0= -.38061862E+03  d E =-.717475E-03  mag=    58.0000
       N       E                     dE             d eps       ncg     rms          ort
SDA:   1    -0.369248801445E+03    0.11371E+02    0.00000E+00  9360   0.294E+02 0.000E+00
CGA:   2    -0.377041286539E+03   -0.77925E+01   -0.81954E+01  9360   0.289E+02-0.376E+01
CGA:   3    -0.379174855322E+03   -0.21336E+01   -0.25872E+01  9360   0.703E+01 0.976E+00
CGA:   4    -0.380229464645E+03   -0.10546E+01   -0.10536E+01  9360   0.217E+01-0.385E-01
CGA:   5    -0.380450322869E+03   -0.22086E+00   -0.22110E+00  9360   0.853E+00-0.146E-02
CGA:   6    -0.380558071614E+03   -0.10775E+00   -0.10790E+00  9360   0.227E+00 0.187E-02
CGA:   7    -0.380596014226E+03   -0.37943E-01   -0.37926E-01  9360   0.875E-01 0.696E-03
CGA:   8    -0.380607934074E+03   -0.11920E-01   -0.11912E-01  9360   0.374E-01-0.171E-03
CGA:   9    -0.380612619163E+03   -0.46851E-02   -0.46913E-02  9360   0.185E-01 0.823E-04
CGA:  10    -0.380615417348E+03   -0.27982E-02   -0.27980E-02  9360   0.690E-02 0.875E-04
CGA:  11    -0.380616938304E+03   -0.15210E-02   -0.15198E-02  9360   0.492E-02 0.154E-04
CGA:  12    -0.380617568737E+03   -0.63043E-03   -0.63076E-03  9360   0.310E-02 0.414E-05
CGA:  13    -0.380618138448E+03   -0.56971E-03   -0.56939E-03  9360   0.124E-02 0.710E-05
CGA:  14    -0.380618395606E+03   -0.25716E-03   -0.25700E-03  9360   0.916E-03 0.327E-05
CGA:  15    -0.380618509966E+03   -0.11436E-03   -0.11449E-03  9360   0.456E-03 0.343E-05
CGA:  16    -0.380618590470E+03   -0.80504E-04   -0.80436E-04  9360   0.220E-03 0.316E-05
CGA:  17    -0.380618639479E+03   -0.49009E-04   -0.48975E-04  9360   0.180E-03 0.543E-06
CGA:  18    -0.380618663540E+03   -0.24061E-04   -0.24053E-04  9360   0.114E-03-0.265E-06
CGA:  19    -0.380618690489E+03   -0.26949E-04   -0.27016E-04  9360   0.625E-04-0.861E-06
CGA:  20    -0.380618702057E+03   -0.11569E-04   -0.11583E-04  9360   0.614E-04-0.556E-06
CGA:  21    -0.380618710484E+03   -0.84268E-05   -0.84114E-05  9360   0.220E-04-0.589E-06
 116 F= -.38061871E+03 E0= -.38061789E+03  d E =0.105303E-02  mag=    58.0000
       N       E                     dE             d eps       ncg     rms          ort
SDA:   1    -0.377469619971E+03    0.31491E+01    0.00000E+00  9360   0.834E+01 0.000E+00
CGA:   2    -0.379645464615E+03   -0.21758E+01   -0.21539E+01  9360   0.477E+01 0.191E+00
CGA:   3    -0.380278171626E+03   -0.63271E+00   -0.62362E+00  9360   0.220E+01-0.142E-01
CGA:   4    -0.380494816954E+03   -0.21665E+00   -0.20808E+00  9360   0.750E+00 0.449E-01
CGA:   5    -0.380584824914E+03   -0.90008E-01   -0.91474E-01  9360   0.190E+00 0.493E-02
CGA:   6    -0.380607774139E+03   -0.22949E-01   -0.22901E-01  9360   0.102E+00-0.147E-03
CGA:   7    -0.380617453688E+03   -0.96795E-02   -0.96251E-02  9360   0.320E-01 0.203E-03
CGA:   8    -0.380621942032E+03   -0.44883E-02   -0.45071E-02  9360   0.123E-01 0.447E-03
CGA:   9    -0.380623390450E+03   -0.14484E-02   -0.14482E-02  9360   0.722E-02-0.675E-05
CGA:  10    -0.380624196453E+03   -0.80600E-03   -0.80483E-03  9360   0.271E-02-0.590E-05
CGA:  11    -0.380624686035E+03   -0.48958E-03   -0.48786E-03  9360   0.156E-02 0.417E-04
CGA:  12    -0.380624898546E+03   -0.21251E-03   -0.21259E-03  9360   0.128E-02 0.320E-05
CGA:  13    -0.380625069839E+03   -0.17129E-03   -0.17133E-03  9360   0.576E-03 0.202E-05
CGA:  14    -0.380625174142E+03   -0.10430E-03   -0.10405E-03  9360   0.319E-03 0.671E-05
CGA:  15    -0.380625218036E+03   -0.43893E-04   -0.43903E-04  9360   0.246E-03 0.547E-06
CGA:  16    -0.380625247126E+03   -0.29091E-04   -0.29094E-04  9360   0.842E-04 0.154E-06
CGA:  17    -0.380625264055E+03   -0.16928E-04   -0.16877E-04  9360   0.549E-04 0.984E-06
CGA:  18    -0.380625272256E+03   -0.82013E-05   -0.82018E-05  9360   0.467E-04 0.939E-07
 117 F= -.38062527E+03 E0= -.38062416E+03  d E =-.656177E-02  mag=    58.0000
       N       E                     dE             d eps       ncg     rms          ort
SDA:   1    -0.380513831266E+03    0.11143E+00    0.00000E+00  9360   0.326E+00 0.000E+00
CGA:   2    -0.380578667511E+03   -0.64836E-01   -0.64391E-01  9360   0.242E+00 0.696E-02
CGA:   3    -0.380609567648E+03   -0.30900E-01   -0.30792E-01  9360   0.878E-01-0.954E-03
CGA:   4    -0.380619252688E+03   -0.96850E-02   -0.96432E-02  9360   0.370E-01-0.107E-03
CGA:   5    -0.380623821239E+03   -0.45686E-02   -0.45722E-02  9360   0.662E-02 0.446E-04
CGA:   6    -0.380624970356E+03   -0.11491E-02   -0.11498E-02  9360   0.172E-02-0.169E-04
CGA:   7    -0.380625243951E+03   -0.27360E-03   -0.27353E-03  9360   0.741E-03 0.431E-05
CGA:   8    -0.380625344343E+03   -0.10039E-03   -0.10037E-03  9360   0.337E-03-0.142E-05
CGA:   9    -0.380625382762E+03   -0.38419E-04   -0.38397E-04  9360   0.156E-03-0.520E-06
CGA:  10    -0.380625408923E+03   -0.26161E-04   -0.26147E-04  9360   0.561E-04 0.679E-06
CGA:  11    -0.380625421974E+03   -0.13051E-04   -0.13046E-04  9360   0.350E-04 0.709E-07
CGA:  12    -0.380625428530E+03   -0.65562E-05   -0.65380E-05  9360   0.184E-04 0.528E-06
 118 F= -.38062543E+03 E0= -.38062421E+03  d E =-.156275E-03  mag=    58.0000
       N       E                     dE             d eps       ncg     rms          ort
SDA:   1    -0.380541449390E+03    0.83973E-01    0.00000E+00  9360   0.222E+00 0.000E+00
CGA:   2    -0.380596809131E+03   -0.55360E-01   -0.55654E-01  9360   0.199E+00-0.283E-02
CGA:   3    -0.380615195873E+03   -0.18387E-01   -0.18602E-01  9360   0.585E-01-0.575E-03
CGA:   4    -0.380623141842E+03   -0.79460E-02   -0.79465E-02  9360   0.179E-01 0.150E-04
CGA:   5    -0.380625241994E+03   -0.21002E-02   -0.20967E-02  9360   0.458E-02-0.145E-04
CGA:   6    -0.380625947362E+03   -0.70537E-03   -0.70537E-03  9360   0.156E-02 0.144E-06
CGA:   7    -0.380626133008E+03   -0.18565E-03   -0.18560E-03  9360   0.766E-03-0.909E-06
CGA:   8    -0.380626229143E+03   -0.96135E-04   -0.96115E-04  9360   0.175E-03-0.453E-06
CGA:   9    -0.380626263821E+03   -0.34678E-04   -0.34622E-04  9360   0.909E-04 0.119E-05
CGA:  10    -0.380626274720E+03   -0.10899E-04   -0.10903E-04  9360   0.494E-04 0.129E-06
CGA:  11    -0.380626283993E+03   -0.92729E-05   -0.92809E-05  9360   0.278E-04-0.223E-06
 119 F= -.38062628E+03 E0= -.38062510E+03  d E =-.855462E-03  mag=    58.0000
       N       E                     dE             d eps       ncg     rms          ort
SDA:   1    -0.380463773736E+03    0.16250E+00    0.00000E+00  9360   0.428E+00 0.000E+00
CGA:   2    -0.380570698251E+03   -0.10692E+00   -0.10674E+00  9360   0.362E+00 0.170E-02
CGA:   3    -0.380606727456E+03   -0.36029E-01   -0.35860E-01  9360   0.116E+00 0.115E-03
CGA:   4    -0.380621402902E+03   -0.14675E-01   -0.14648E-01  9360   0.358E-01-0.242E-03
CGA:   5    -0.380625657957E+03   -0.42551E-02   -0.42760E-02  9360   0.849E-02 0.134E-03
CGA:   6    -0.380627052173E+03   -0.13942E-02   -0.13947E-02  9360   0.249E-02-0.260E-04
CGA:   7    -0.380627435987E+03   -0.38381E-03   -0.38381E-03  9360   0.130E-02 0.715E-07
CGA:   8    -0.380627564178E+03   -0.12819E-03   -0.12818E-03  9360   0.387E-03-0.531E-06
CGA:   9    -0.380627632066E+03   -0.67888E-04   -0.67885E-04  9360   0.162E-03 0.152E-06
CGA:  10    -0.380627658577E+03   -0.26512E-04   -0.26498E-04  9360   0.887E-04 0.109E-05
CGA:  11    -0.380627675142E+03   -0.16564E-04   -0.16564E-04  9360   0.676E-04 0.260E-07
CGA:  12    -0.380627683684E+03   -0.85419E-05   -0.85353E-05  9360   0.354E-04-0.235E-06
 120 F= -.38062768E+03 E0= -.38062647E+03  d E =-.139969E-02  mag=    58.0000
