       N       E                     dE             d eps       ncg     rms          ort
DAV:   1     0.695080706593E+04    0.69508E+04   -0.30546E+05  9360   0.164E+03
DAV:   2     0.465953926126E+03   -0.64849E+04   -0.60214E+04  9360   0.473E+02
DAV:   3    -0.373860489345E+03   -0.83981E+03   -0.82466E+03  9360   0.184E+02
DAV:   4    -0.414134857859E+03   -0.40274E+02   -0.39789E+02  9360   0.358E+01
DAV:   5    -0.416420376151E+03   -0.22855E+01   -0.22608E+01  9360   0.638E+00
SDA:   6    -0.272556410859E+03    0.14386E+03   -0.22608E+01  9360   0.910E+03 0.000E+00
CGA:   7    -0.347707909375E+03   -0.75151E+02   -0.96742E+02  9360   0.684E+03-0.118E+03
CGA:   8    -0.362044613416E+03   -0.14337E+02   -0.26178E+02  9360   0.144E+03-0.144E+03
CGA:   9    -0.356586100752E+03    0.54585E+01   -0.81059E+01  9360   0.259E+03-0.628E+02
CGA:  10    -0.370368115085E+03   -0.13782E+02   -0.38338E+01  9360   0.505E+02 0.452E+02
CGA:  11    -0.370532215504E+03   -0.16410E+00   -0.28382E+01  9360   0.999E+02-0.199E+02
CGA:  12    -0.369572155698E+03    0.96006E+00   -0.25803E+01  9360   0.159E+03-0.169E+02
CGA:  13    -0.370518361799E+03   -0.94621E+00   -0.51111E+01  9360   0.101E+03-0.476E+02
CGA:  14    -0.367860746564E+03    0.26576E+01   -0.25858E+01  9360   0.114E+03-0.928E+02
CGA:  15    -0.369549506172E+03   -0.16888E+01   -0.83941E+01  9360   0.813E+02-0.172E+02
CGA:  16    -0.374194787533E+03   -0.46453E+01   -0.35676E+01  9360   0.134E+03-0.138E+03
CGA:  17    -0.370592456093E+03    0.36023E+01   -0.69032E+01  9360   0.151E+03-0.821E+02
CGA:  18    -0.368743628395E+03    0.18488E+01   -0.82144E+01  9360   0.117E+03-0.810E+02
CGA:  19    -0.371817042262E+03   -0.30734E+01   -0.58590E+01  9360   0.895E+02-0.105E+03
CGA:  20    -0.372454060866E+03   -0.63702E+00   -0.40073E+01  9360   0.130E+03-0.133E+03
CGA:  21    -0.371316037337E+03    0.11380E+01   -0.58904E+01  9360   0.178E+03-0.145E+03
CGA:  22    -0.371358361729E+03   -0.42324E-01   -0.90518E+01  9360   0.796E+02-0.721E+02
CGA:  23    -0.377574953949E+03   -0.62166E+01   -0.16177E+01  9360   0.661E+01-0.905E+01
CGA:  24    -0.377715324803E+03   -0.14037E+00   -0.11218E+00  9360   0.452E+01 0.117E+01
CGA:  25    -0.377797601171E+03   -0.82276E-01   -0.12556E+00  9360   0.232E+01-0.178E+01
CGA:  26    -0.377865333924E+03   -0.67733E-01   -0.85979E-01  9360   0.530E+01-0.338E-01
CGA:  27    -0.378064344650E+03   -0.19901E+00   -0.21639E+00  9360   0.115E+01-0.167E+00
CGA:  28    -0.378131726664E+03   -0.67382E-01   -0.70516E-01  9360   0.353E+00-0.159E-03
CGA:  29    -0.378167887710E+03   -0.36161E-01   -0.36047E-01  9360   0.383E+00 0.114E-01
CGA:  30    -0.378209274826E+03   -0.41387E-01   -0.40888E-01  9360   0.191E+00 0.429E-01
CGA:  31    -0.378221954455E+03   -0.12680E-01   -0.13800E-01  9360   0.132E+00 0.926E-03
CGA:  32    -0.378235652997E+03   -0.13699E-01   -0.13667E-01  9360   0.786E-01 0.257E-02
CGA:  33    -0.378243022264E+03   -0.73693E-02   -0.73987E-02  9360   0.250E-01 0.364E-02
CGA:  34    -0.378245589624E+03   -0.25674E-02   -0.25639E-02  9360   0.180E-01 0.817E-03
CGA:  35    -0.378247983411E+03   -0.23938E-02   -0.23403E-02  9360   0.144E-01 0.129E-02
CGA:  36    -0.378249346059E+03   -0.13626E-02   -0.13663E-02  9360   0.628E-02 0.138E-03
CGA:  37    -0.378250116867E+03   -0.77081E-03   -0.76759E-03  9360   0.436E-02 0.766E-04
CGA:  38    -0.378250722754E+03   -0.60589E-03   -0.60297E-03  9360   0.320E-02 0.424E-04
CGA:  39    -0.378251066865E+03   -0.34411E-03   -0.34390E-03  9360   0.228E-02-0.976E-05
CGA:  40    -0.378251384840E+03   -0.31798E-03   -0.32037E-03  9360   0.179E-02-0.646E-04
CGA:  41    -0.378251604640E+03   -0.21980E-03   -0.22067E-03  9360   0.101E-02-0.457E-04
CGA:  42    -0.378251714436E+03   -0.10980E-03   -0.11000E-03  9360   0.682E-03-0.284E-04
CGA:  43    -0.378251813853E+03   -0.99417E-04   -0.10052E-03  9360   0.621E-03-0.237E-04
CGA:  44    -0.378251876679E+03   -0.62826E-04   -0.62798E-04  9360   0.270E-03-0.157E-04
CGA:  45    -0.378251918867E+03   -0.42188E-04   -0.42809E-04  9360   0.298E-03-0.112E-04
CGA:  46    -0.378251954607E+03   -0.35740E-04   -0.35868E-04  9360   0.173E-03-0.770E-05
CGA:  47    -0.378251973245E+03   -0.18638E-04   -0.18639E-04  9360   0.112E-03-0.774E-06
CGA:  48    -0.378251989922E+03   -0.16677E-04   -0.16550E-04  9360   0.857E-04 0.328E-05
CGA:  49    -0.378252000493E+03   -0.10571E-04   -0.10539E-04  9360   0.493E-04 0.432E-05
CGA:  50    -0.378252006949E+03   -0.64558E-05   -0.64164E-05  9360   0.432E-04 0.347E-05
   1 F= -.37825201E+03 E0= -.37824556E+03  d E =-.378252E+03  mag=    58.0000
       N       E                     dE             d eps       ncg     rms          ort
SDA:   1    -0.378267660353E+03   -0.15660E-01    0.00000E+00  9360   0.147E-01 0.000E+00
CGA:   2    -0.378268331427E+03   -0.67107E-03   -0.67194E-03  9360   0.222E-02-0.113E-04
CGA:   3    -0.378268747968E+03   -0.41654E-03   -0.41635E-03  9360   0.165E-02 0.266E-05
CGA:   4    -0.378268891659E+03   -0.14369E-03   -0.14383E-03  9360   0.516E-03 0.140E-05
CGA:   5    -0.378268975419E+03   -0.83760E-04   -0.83935E-04  9360   0.273E-03-0.324E-05
CGA:   6    -0.378269001168E+03   -0.25749E-04   -0.25756E-04  9360   0.601E-04-0.116E-06
CGA:   7    -0.378269011385E+03   -0.10218E-04   -0.10147E-04  9360   0.560E-04 0.132E-05
CGA:   8    -0.378269015412E+03   -0.40262E-05   -0.40560E-05  9360   0.189E-04 0.601E-06
   2 F= -.37826902E+03 E0= -.37826258E+03  d E =-.170085E-01  mag=    58.0000
       N       E                     dE             d eps       ncg     rms          ort
SDA:   1    -0.378052067731E+03    0.21694E+00    0.00000E+00  9360   0.191E+01 0.000E+00
CGA:   2    -0.378479095516E+03   -0.42703E+00   -0.42491E+00  9360   0.100E+01 0.178E-01
CGA:   3    -0.378570256553E+03   -0.91161E-01   -0.88735E-01  9360   0.634E+00 0.414E-03
CGA:   4    -0.378647293813E+03   -0.77037E-01   -0.77014E-01  9360   0.277E+00-0.511E-02
CGA:   5    -0.378668051538E+03   -0.20758E-01   -0.21042E-01  9360   0.743E-01-0.890E-03
CGA:   6    -0.378678108873E+03   -0.10057E-01   -0.10079E-01  9360   0.326E-01-0.879E-03
CGA:   7    -0.378681589050E+03   -0.34802E-02   -0.34861E-02  9360   0.115E-01 0.166E-03
CGA:   8    -0.378683518239E+03   -0.19292E-02   -0.19329E-02  9360   0.447E-02-0.599E-04
CGA:   9    -0.378684217717E+03   -0.69948E-03   -0.69570E-03  9360   0.432E-02 0.838E-04
CGA:  10    -0.378684736758E+03   -0.51904E-03   -0.51891E-03  9360   0.265E-02-0.437E-05
CGA:  11    -0.378685006844E+03   -0.27009E-03   -0.27047E-03  9360   0.196E-02 0.647E-05
CGA:  12    -0.378685287511E+03   -0.28067E-03   -0.28054E-03  9360   0.125E-02 0.553E-05
CGA:  13    -0.378685439128E+03   -0.15162E-03   -0.15161E-03  9360   0.624E-03 0.957E-06
CGA:  14    -0.378685559346E+03   -0.12022E-03   -0.11992E-03  9360   0.350E-03 0.421E-05
CGA:  15    -0.378685606167E+03   -0.46821E-04   -0.46814E-04  9360   0.183E-03 0.160E-05
CGA:  16    -0.378685632835E+03   -0.26669E-04   -0.26645E-04  9360   0.136E-03 0.136E-05
CGA:  17    -0.378685646508E+03   -0.13672E-04   -0.13686E-04  9360   0.654E-04 0.300E-06
CGA:  18    -0.378685653286E+03   -0.67785E-05   -0.67785E-05  9360   0.489E-04 0.389E-07
   3 F= -.37868565E+03 E0= -.37867912E+03  d E =-.416638E+00  mag=    58.0000
       N       E                     dE             d eps       ncg     rms          ort
SDA:   1    -0.376117653270E+03    0.25680E+01    0.00000E+00  9360   0.997E+01 0.000E+00
CGA:   2    -0.378383820695E+03   -0.22662E+01   -0.22644E+01  9360   0.380E+01 0.156E-01
CGA:   3    -0.378920299247E+03   -0.53648E+00   -0.53851E+00  9360   0.343E+01-0.121E+00
CGA:   4    -0.379195950711E+03   -0.27565E+00   -0.28363E+00  9360   0.115E+01-0.212E-01
CGA:   5    -0.379285395964E+03   -0.89445E-01   -0.94670E-01  9360   0.437E+00 0.113E-01
CGA:   6    -0.379330672498E+03   -0.45277E-01   -0.44889E-01  9360   0.178E+00-0.360E-02
CGA:   7    -0.379348777043E+03   -0.18105E-01   -0.18221E-01  9360   0.731E-01 0.135E-02
CGA:   8    -0.379359138073E+03   -0.10361E-01   -0.10355E-01  9360   0.336E-01 0.226E-03
CGA:   9    -0.379362209909E+03   -0.30718E-02   -0.30634E-02  9360   0.267E-01-0.207E-04
CGA:  10    -0.379365722915E+03   -0.35130E-02   -0.35152E-02  9360   0.149E-01-0.154E-03
CGA:  11    -0.379367472463E+03   -0.17495E-02   -0.17518E-02  9360   0.101E-01 0.157E-03
CGA:  12    -0.379368939767E+03   -0.14673E-02   -0.14686E-02  9360   0.827E-02-0.421E-04
CGA:  13    -0.379369844740E+03   -0.90497E-03   -0.90524E-03  9360   0.420E-02 0.115E-04
CGA:  14    -0.379370313815E+03   -0.46908E-03   -0.46941E-03  9360   0.396E-02 0.126E-04
CGA:  15    -0.379370787195E+03   -0.47338E-03   -0.47337E-03  9360   0.130E-02 0.211E-05
CGA:  16    -0.379370970775E+03   -0.18358E-03   -0.18361E-03  9360   0.106E-02 0.416E-06
CGA:  17    -0.379371086388E+03   -0.11561E-03   -0.11565E-03  9360   0.737E-03 0.249E-05
CGA:  18    -0.379371153404E+03   -0.67016E-04   -0.67095E-04  9360   0.262E-03 0.741E-06
CGA:  19    -0.379371200152E+03   -0.46748E-04   -0.46761E-04  9360   0.270E-03-0.179E-06
CGA:  20    -0.379371225404E+03   -0.25252E-04   -0.25256E-04  9360   0.115E-03-0.152E-06
CGA:  21    -0.379371239471E+03   -0.14068E-04   -0.14068E-04  9360   0.966E-04-0.279E-06
CGA:  22    -0.379371250930E+03   -0.11459E-04   -0.11456E-04  9360   0.592E-04-0.596E-06
CGA:  23    -0.379371257152E+03   -0.62220E-05   -0.62168E-05  9360   0.244E-04-0.318E-06
   4 F= -.37937126E+03 E0= -.37936442E+03  d E =-.685604E+00  mag=    58.0000
       N       E                     dE             d eps       ncg     rms          ort
SDA:   1    -0.375848740551E+03    0.35225E+01    0.00000E+00  9360   0.132E+02 0.000E+00
CGA:   2    -0.378155863499E+03   -0.23071E+01   -0.22412E+01  9360   0.947E+01 0.106E+01
CGA:   3    -0.378894112706E+03   -0.73825E+00   -0.65173E+00  9360   0.368E+01 0.600E+00
CGA:   4    -0.379533000864E+03   -0.63889E+00   -0.64481E+00  9360   0.171E+01-0.128E+00
CGA:   5    -0.379700136775E+03   -0.16714E+00   -0.17039E+00  9360   0.732E+00 0.418E-01
CGA:   6    -0.379756764132E+03   -0.56627E-01   -0.56609E-01  9360   0.370E+00-0.126E-02
CGA:   7    -0.379785718517E+03   -0.28954E-01   -0.27667E-01  9360   0.129E+00 0.637E-02
CGA:   8    -0.379804285431E+03   -0.18567E-01   -0.18506E-01  9360   0.572E-01 0.185E-02
CGA:   9    -0.379810807259E+03   -0.65218E-02   -0.64750E-02  9360   0.328E-01-0.208E-02
CGA:  10    -0.379815967130E+03   -0.51599E-02   -0.51329E-02  9360   0.137E-01 0.491E-03
CGA:  11    -0.379818330108E+03   -0.23630E-02   -0.23603E-02  9360   0.203E-01 0.445E-04
CGA:  12    -0.379819840092E+03   -0.15100E-02   -0.15162E-02  9360   0.840E-02-0.136E-04
CGA:  13    -0.379820984712E+03   -0.11446E-02   -0.11442E-02  9360   0.512E-02 0.229E-04
CGA:  14    -0.379821913627E+03   -0.92892E-03   -0.92865E-03  9360   0.313E-02 0.440E-05
CGA:  15    -0.379822265703E+03   -0.35208E-03   -0.35267E-03  9360   0.171E-02 0.190E-04
CGA:  16    -0.379822563631E+03   -0.29793E-03   -0.29800E-03  9360   0.116E-02-0.310E-06
CGA:  17    -0.379822653934E+03   -0.90304E-04   -0.90317E-04  9360   0.718E-03 0.145E-05
CGA:  18    -0.379822736008E+03   -0.82074E-04   -0.82091E-04  9360   0.412E-03 0.110E-05
CGA:  19    -0.379822797488E+03   -0.61480E-04   -0.61468E-04  9360   0.177E-03 0.596E-06
CGA:  20    -0.379822828360E+03   -0.30871E-04   -0.30877E-04  9360   0.156E-03-0.185E-06
CGA:  21    -0.379822843783E+03   -0.15424E-04   -0.15406E-04  9360   0.102E-03-0.486E-06
CGA:  22    -0.379822854301E+03   -0.10517E-04   -0.10506E-04  9360   0.766E-04-0.512E-06
CGA:  23    -0.379822862165E+03   -0.78644E-05   -0.78573E-05  9360   0.269E-04-0.354E-06
   5 F= -.37982286E+03 E0= -.37981569E+03  d E =-.451605E+00  mag=    58.0000
       N       E                     dE             d eps       ncg     rms          ort
SDA:   1    -0.371232646990E+03    0.85902E+01    0.00000E+00  9360   0.351E+02 0.000E+00
CGA:   2    -0.375380172669E+03   -0.41475E+01   -0.42590E+01  9360   0.223E+02 0.608E+01
CGA:   3    -0.377393826164E+03   -0.20137E+01   -0.14262E+01  9360   0.726E+01 0.910E+01
CGA:   4    -0.378364855335E+03   -0.97103E+00   -0.80865E+00  9360   0.154E+02 0.211E+00
CGA:   5    -0.379058717282E+03   -0.69386E+00   -0.73653E+00  9360   0.192E+02-0.521E+00
CGA:   6    -0.379415477055E+03   -0.35676E+00   -0.45768E+00  9360   0.637E+01-0.552E+01
CGA:   7    -0.379573313345E+03   -0.15784E+00   -0.24018E+00  9360   0.709E+01-0.677E+00
CGA:   8    -0.379718027573E+03   -0.14471E+00   -0.11320E+00  9360   0.244E+01 0.166E+01
CGA:   9    -0.379789332684E+03   -0.71305E-01   -0.64809E-01  9360   0.125E+01 0.294E+00
CGA:  10    -0.379857159457E+03   -0.67827E-01   -0.67213E-01  9360   0.246E+01 0.481E-02
CGA:  11    -0.379943390026E+03   -0.86231E-01   -0.86633E-01  9360   0.234E+01-0.631E-02
CGA:  12    -0.379990811717E+03   -0.47422E-01   -0.47201E-01  9360   0.842E+00 0.128E-01
CGA:  13    -0.380010008164E+03   -0.19196E-01   -0.20333E-01  9360   0.621E+00-0.442E-01
CGA:  14    -0.380035427438E+03   -0.25419E-01   -0.26143E-01  9360   0.988E+00-0.819E-02
CGA:  15    -0.380067976213E+03   -0.32549E-01   -0.32575E-01  9360   0.679E+00 0.521E-03
CGA:  16    -0.380086632334E+03   -0.18656E-01   -0.18944E-01  9360   0.432E+00-0.825E-02
CGA:  17    -0.380101550844E+03   -0.14919E-01   -0.14797E-01  9360   0.365E+00 0.195E-02
CGA:  18    -0.380112363186E+03   -0.10812E-01   -0.11141E-01  9360   0.218E+00-0.739E-02
CGA:  19    -0.380119509190E+03   -0.71460E-02   -0.74336E-02  9360   0.193E+00-0.473E-02
CGA:  20    -0.380128893531E+03   -0.93843E-02   -0.95867E-02  9360   0.228E+00 0.360E-03
CGA:  21    -0.380137937334E+03   -0.90438E-02   -0.92178E-02  9360   0.128E+00-0.160E-02
CGA:  22    -0.380143218110E+03   -0.52808E-02   -0.52592E-02  9360   0.994E-01 0.125E-03
CGA:  23    -0.380147661271E+03   -0.44432E-02   -0.43552E-02  9360   0.653E-01 0.389E-03
CGA:  24    -0.380150041127E+03   -0.23799E-02   -0.23627E-02  9360   0.475E-01 0.211E-03
CGA:  25    -0.380152938545E+03   -0.28974E-02   -0.28998E-02  9360   0.772E-01 0.153E-03
CGA:  26    -0.380156513304E+03   -0.35748E-02   -0.35826E-02  9360   0.438E-01 0.218E-04
CGA:  27    -0.380157821538E+03   -0.13082E-02   -0.13138E-02  9360   0.187E-01-0.111E-03
CGA:  28    -0.380158822013E+03   -0.10005E-02   -0.99879E-03  9360   0.248E-01-0.510E-04
CGA:  29    -0.380160077315E+03   -0.12553E-02   -0.12575E-02  9360   0.204E-01 0.348E-04
CGA:  30    -0.380160876544E+03   -0.79923E-03   -0.80116E-03  9360   0.152E-01-0.159E-04
CGA:  31    -0.380161793940E+03   -0.91740E-03   -0.91746E-03  9360   0.186E-01 0.196E-04
SDA:  32    -0.380162493856E+03   -0.69992E-03   -0.69386E-03  9360   0.670E-02 0.390E-04
CGA:  33    -0.380163003519E+03   -0.50966E-03   -0.50972E-03  9360   0.618E-02-0.124E-05
CGA:  34    -0.380163964665E+03   -0.96115E-03   -0.96225E-03  9360   0.356E-02-0.136E-04
CGA:  35    -0.380164311327E+03   -0.34666E-03   -0.34667E-03  9360   0.448E-03 0.334E-06
CGA:  36    -0.380164411153E+03   -0.99826E-04   -0.10091E-03  9360   0.597E-03-0.669E-05
CGA:  37    -0.380164465768E+03   -0.54615E-04   -0.54688E-04  9360   0.400E-03-0.390E-05
CGA:  38    -0.380164502337E+03   -0.36568E-04   -0.36575E-04  9360   0.229E-03-0.368E-06
CGA:  39    -0.380164526755E+03   -0.24419E-04   -0.24349E-04  9360   0.102E-03 0.234E-05
CGA:  40    -0.380164554475E+03   -0.27720E-04   -0.27313E-04  9360   0.755E-04 0.216E-05
CGA:  41    -0.380164574111E+03   -0.19635E-04   -0.20139E-04  9360   0.604E-04-0.290E-05
CGA:  42    -0.380164582024E+03   -0.79132E-05   -0.79872E-05  9360   0.780E-04-0.181E-05
   6 F= -.38016458E+03 E0= -.38015719E+03  d E =-.341720E+00  mag=    58.0000
       N       E                     dE             d eps       ncg     rms          ort
SDA:   1    -0.365267667239E+03    0.14897E+02    0.00000E+00  9360   0.448E+02 0.000E+00
CGA:   2    -0.373608462686E+03   -0.83408E+01   -0.80916E+01  9360   0.376E+02 0.359E+01
CGA:   3    -0.376895063640E+03   -0.32866E+01   -0.33934E+01  9360   0.232E+02 0.138E+01
CGA:   4    -0.378820412042E+03   -0.19253E+01   -0.16987E+01  9360   0.991E+01 0.148E+01
CGA:   5    -0.379546378908E+03   -0.72597E+00   -0.68099E+00  9360   0.101E+02-0.142E+00
CGA:   6    -0.379930487424E+03   -0.38411E+00   -0.35772E+00  9360   0.304E+01 0.713E+00
CGA:   7    -0.380092585922E+03   -0.16210E+00   -0.18644E+00  9360   0.304E+01-0.117E+00
CGA:   8    -0.380216133585E+03   -0.12355E+00   -0.12460E+00  9360   0.101E+01 0.299E-01
CGA:   9    -0.380267066588E+03   -0.50933E-01   -0.48981E-01  9360   0.808E+00 0.117E-01
CGA:  10    -0.380309326924E+03   -0.42260E-01   -0.41955E-01  9360   0.402E+00 0.467E-02
CGA:  11    -0.380326290859E+03   -0.16964E-01   -0.17551E-01  9360   0.301E+00-0.705E-02
CGA:  12    -0.380344834331E+03   -0.18543E-01   -0.18926E-01  9360   0.176E+00 0.374E-02
CGA:  13    -0.380352210848E+03   -0.73765E-02   -0.74883E-02  9360   0.842E-01-0.121E-02
CGA:  14    -0.380358759103E+03   -0.65483E-02   -0.65480E-02  9360   0.645E-01-0.319E-04
CGA:  15    -0.380362064755E+03   -0.33057E-02   -0.33740E-02  9360   0.431E-01-0.258E-04
CGA:  16    -0.380365875514E+03   -0.38108E-02   -0.37984E-02  9360   0.284E-01 0.849E-03
CGA:  17    -0.380367318927E+03   -0.14434E-02   -0.14474E-02  9360   0.153E-01 0.328E-05
CGA:  18    -0.380368988111E+03   -0.16692E-02   -0.16717E-02  9360   0.152E-01-0.606E-04
CGA:  19    -0.380369952422E+03   -0.96431E-03   -0.97082E-03  9360   0.112E-01 0.118E-03
CGA:  20    -0.380370894751E+03   -0.94233E-03   -0.94101E-03  9360   0.522E-02 0.169E-03
CGA:  21    -0.380371268888E+03   -0.37414E-03   -0.37427E-03  9360   0.520E-02 0.839E-05
CGA:  22    -0.380371799549E+03   -0.53066E-03   -0.53150E-03  9360   0.350E-02-0.257E-04
CGA:  23    -0.380372055193E+03   -0.25564E-03   -0.25575E-03  9360   0.279E-02 0.778E-05
CGA:  24    -0.380372244385E+03   -0.18919E-03   -0.18952E-03  9360   0.120E-02 0.106E-04
CGA:  25    -0.380372379939E+03   -0.13555E-03   -0.13537E-03  9360   0.173E-02 0.499E-05
CGA:  26    -0.380372498985E+03   -0.11905E-03   -0.11901E-03  9360   0.791E-03 0.439E-06
CGA:  27    -0.380372577133E+03   -0.78148E-04   -0.78099E-04  9360   0.648E-03 0.216E-05
CGA:  28    -0.380372616411E+03   -0.39278E-04   -0.39287E-04  9360   0.369E-03 0.280E-06
CGA:  29    -0.380372669085E+03   -0.52674E-04   -0.52796E-04  9360   0.410E-03-0.192E-05
CGA:  30    -0.380372694088E+03   -0.25003E-04   -0.24975E-04  9360   0.222E-03-0.130E-05
CGA:  31    -0.380372713728E+03   -0.19640E-04   -0.19645E-04  9360   0.116E-03-0.980E-06
SDA:  32    -0.380372724395E+03   -0.10667E-04   -0.10681E-04  9360   0.150E-03-0.127E-05
CGA:  33    -0.380372730879E+03   -0.64837E-05   -0.64728E-05  9360   0.329E-04-0.174E-06
   7 F= -.38037273E+03 E0= -.38036531E+03  d E =-.208149E+00  mag=    58.0000
       N       E                     dE             d eps       ncg     rms          ort
SDA:   1    -0.358139393269E+03    0.22233E+02    0.00000E+00  9360   0.596E+02 0.000E+00
CGA:   2    -0.368262520046E+03   -0.10123E+02   -0.12221E+02  9360   0.192E+03-0.109E+02
CGA:   3    -0.375102098461E+03   -0.68396E+01   -0.66593E+01  9360   0.369E+02-0.859E+00
CGA:   4    -0.377399031749E+03   -0.22969E+01   -0.24732E+01  9360   0.251E+02 0.191E+01
CGA:   5    -0.378881710895E+03   -0.14827E+01   -0.11452E+01  9360   0.118E+02 0.441E+01
CGA:   6    -0.379526024827E+03   -0.64431E+00   -0.49781E+00  9360   0.107E+02 0.285E+01
CGA:   7    -0.379945191786E+03   -0.41917E+00   -0.46457E+00  9360   0.660E+01-0.987E+00
CGA:   8    -0.380093602713E+03   -0.14841E+00   -0.17062E+00  9360   0.416E+01-0.519E+00
CGA:   9    -0.380245300950E+03   -0.15170E+00   -0.16011E+00  9360   0.312E+01-0.134E+00
CGA:  10    -0.380339229587E+03   -0.93929E-01   -0.97628E-01  9360   0.106E+01-0.359E-01
CGA:  11    -0.380382838910E+03   -0.43609E-01   -0.43886E-01  9360   0.112E+01-0.485E-02
CGA:  12    -0.380445429815E+03   -0.62591E-01   -0.61569E-01  9360   0.708E+00-0.587E-02
CGA:  13    -0.380470764736E+03   -0.25335E-01   -0.26824E-01  9360   0.385E+00-0.136E-01
CGA:  14    -0.380490892111E+03   -0.20127E-01   -0.20563E-01  9360   0.249E+00 0.385E-02
CGA:  15    -0.380501420025E+03   -0.10528E-01   -0.10783E-01  9360   0.100E+00-0.155E-02
CGA:  16    -0.380510989336E+03   -0.95693E-02   -0.95947E-02  9360   0.124E+00-0.735E-03
CGA:  17    -0.380516877094E+03   -0.58878E-02   -0.60278E-02  9360   0.530E-01 0.341E-03
CGA:  18    -0.380520059750E+03   -0.31827E-02   -0.32059E-02  9360   0.298E-01 0.754E-03
CGA:  19    -0.380521955783E+03   -0.18960E-02   -0.19015E-02  9360   0.206E-01 0.296E-03
CGA:  20    -0.380524517571E+03   -0.25618E-02   -0.25473E-02  9360   0.205E-01 0.262E-03
CGA:  21    -0.380525524849E+03   -0.10073E-02   -0.10149E-02  9360   0.656E-02 0.251E-04
CGA:  22    -0.380526279671E+03   -0.75482E-03   -0.74902E-03  9360   0.764E-02 0.118E-03
CGA:  23    -0.380526840168E+03   -0.56050E-03   -0.56059E-03  9360   0.513E-02 0.343E-04
CGA:  24    -0.380527347141E+03   -0.50697E-03   -0.50657E-03  9360   0.302E-02 0.106E-04
CGA:  25    -0.380527541517E+03   -0.19438E-03   -0.19434E-03  9360   0.199E-02-0.179E-05
CGA:  26    -0.380527778020E+03   -0.23650E-03   -0.23563E-03  9360   0.203E-02 0.179E-04
CGA:  27    -0.380527948769E+03   -0.17075E-03   -0.17062E-03  9360   0.143E-02 0.135E-04
CGA:  28    -0.380528051009E+03   -0.10224E-03   -0.10222E-03  9360   0.775E-03 0.416E-06
CGA:  29    -0.380528158227E+03   -0.10722E-03   -0.10707E-03  9360   0.120E-02 0.241E-05
CGA:  30    -0.380528243095E+03   -0.84868E-04   -0.84921E-04  9360   0.515E-03 0.395E-05
CGA:  31    -0.380528302098E+03   -0.59003E-04   -0.59036E-04  9360   0.503E-03-0.864E-06
SDA:  32    -0.380528340171E+03   -0.38074E-04   -0.38062E-04  9360   0.363E-03-0.203E-05
CGA:  33    -0.380528367376E+03   -0.27205E-04   -0.27216E-04  9360   0.175E-03 0.394E-06
CGA:  34    -0.380528393820E+03   -0.26443E-04   -0.26690E-04  9360   0.227E-03-0.343E-05
CGA:  35    -0.380528420316E+03   -0.26497E-04   -0.26630E-04  9360   0.862E-04-0.374E-05
CGA:  36    -0.380528428788E+03   -0.84714E-05   -0.84845E-05  9360   0.341E-04-0.965E-06
CGA:  37    -0.380528439956E+03   -0.11168E-04   -0.11573E-04  9360   0.447E-04-0.158E-05
CGA:  38    -0.380528446790E+03   -0.68345E-05   -0.68665E-05  9360   0.419E-04-0.532E-06
   8 F= -.38052845E+03 E0= -.38052133E+03  d E =-.155716E+00  mag=    58.0000
       N       E                     dE             d eps       ncg     rms          ort
SDA:   1    -0.351722700792E+03    0.28806E+02    0.00000E+00  9360   0.768E+02 0.000E+00
CGA:   2    -0.372013308827E+03   -0.20291E+02   -0.20616E+02  9360   0.517E+02-0.163E+01
CGA:   3    -0.376892345528E+03   -0.48790E+01   -0.50619E+01  9360   0.227E+02 0.805E+01
CGA:   4    -0.379068890503E+03   -0.21765E+01   -0.20582E+01  9360   0.942E+01 0.122E+01
CGA:   5    -0.380106985138E+03   -0.10381E+01   -0.10405E+01  9360   0.313E+01 0.390E+00
CGA:   6    -0.380365507522E+03   -0.25852E+00   -0.27556E+00  9360   0.172E+01 0.172E+00
CGA:   7    -0.380514671186E+03   -0.14916E+00   -0.15218E+00  9360   0.949E+00 0.305E-01
CGA:   8    -0.380587072337E+03   -0.72401E-01   -0.66770E-01  9360   0.303E+00 0.109E-02
CGA:   9    -0.380625331788E+03   -0.38259E-01   -0.38435E-01  9360   0.267E+00-0.510E-02
CGA:  10    -0.380642588900E+03   -0.17257E-01   -0.17722E-01  9360   0.841E-01-0.712E-03
CGA:  11    -0.380652484170E+03   -0.98953E-02   -0.99542E-02  9360   0.553E-01-0.234E-02
CGA:  12    -0.380659436053E+03   -0.69519E-02   -0.69496E-02  9360   0.283E-01 0.764E-04
CGA:  13    -0.380662466744E+03   -0.30307E-02   -0.30298E-02  9360   0.198E-01 0.266E-03
CGA:  14    -0.380664822269E+03   -0.23555E-02   -0.23516E-02  9360   0.125E-01 0.202E-03
CGA:  15    -0.380666430973E+03   -0.16087E-02   -0.16056E-02  9360   0.652E-02 0.104E-03
CGA:  16    -0.380667258427E+03   -0.82745E-03   -0.82776E-03  9360   0.456E-02-0.933E-05
CGA:  17    -0.380667854732E+03   -0.59630E-03   -0.59586E-03  9360   0.281E-02 0.131E-04
CGA:  18    -0.380668102817E+03   -0.24809E-03   -0.24853E-03  9360   0.140E-02 0.717E-05
CGA:  19    -0.380668366612E+03   -0.26380E-03   -0.26372E-03  9360   0.957E-03 0.118E-05
CGA:  20    -0.380668471414E+03   -0.10480E-03   -0.10481E-03  9360   0.640E-03 0.415E-05
CGA:  21    -0.380668583007E+03   -0.11159E-03   -0.11136E-03  9360   0.642E-03 0.353E-05
CGA:  22    -0.380668650714E+03   -0.67707E-04   -0.67695E-04  9360   0.355E-03-0.103E-05
CGA:  23    -0.380668704609E+03   -0.53894E-04   -0.53934E-04  9360   0.258E-03-0.132E-05
CGA:  24    -0.380668745711E+03   -0.41103E-04   -0.41259E-04  9360   0.168E-03-0.350E-05
CGA:  25    -0.380668762467E+03   -0.16756E-04   -0.16725E-04  9360   0.917E-04-0.174E-05
CGA:  26    -0.380668775816E+03   -0.13348E-04   -0.13402E-04  9360   0.757E-04-0.177E-05
CGA:  27    -0.380668783499E+03   -0.76834E-05   -0.76630E-05  9360   0.281E-04-0.122E-05
   9 F= -.38066878E+03 E0= -.38066277E+03  d E =-.140337E+00  mag=    58.0000
       N       E                     dE             d eps       ncg     rms          ort
SDA:   1    -0.378392196376E+03    0.22766E+01    0.00000E+00  9360   0.688E+01 0.000E+00
CGA:   2    -0.379808235542E+03   -0.14160E+01   -0.14120E+01  9360   0.427E+01 0.406E-01
CGA:   3    -0.380382571208E+03   -0.57434E+00   -0.56929E+00  9360   0.178E+01 0.345E+00
CGA:   4    -0.380610257423E+03   -0.22769E+00   -0.22043E+00  9360   0.869E+00-0.299E+00
CGA:   5    -0.380688045366E+03   -0.77788E-01   -0.78290E-01  9360   0.179E+00 0.112E-01
CGA:   6    -0.380715357498E+03   -0.27312E-01   -0.27369E-01  9360   0.784E-01-0.140E-02
CGA:   7    -0.380722059360E+03   -0.67019E-02   -0.67957E-02  9360   0.388E-01 0.209E-03
CGA:   8    -0.380726911517E+03   -0.48522E-02   -0.48523E-02  9360   0.136E-01-0.433E-04
CGA:   9    -0.380728638545E+03   -0.17270E-02   -0.17269E-02  9360   0.624E-02 0.263E-04
CGA:  10    -0.380729549846E+03   -0.91130E-03   -0.91194E-03  9360   0.419E-02-0.175E-04
CGA:  11    -0.380729932212E+03   -0.38237E-03   -0.38378E-03  9360   0.184E-02 0.816E-05
CGA:  12    -0.380730284832E+03   -0.35262E-03   -0.35277E-03  9360   0.103E-02-0.179E-05
CGA:  13    -0.380730425514E+03   -0.14068E-03   -0.14060E-03  9360   0.800E-03 0.503E-05
CGA:  14    -0.380730522832E+03   -0.97318E-04   -0.97332E-04  9360   0.503E-03 0.176E-05
CGA:  15    -0.380730587984E+03   -0.65152E-04   -0.65145E-04  9360   0.190E-03 0.218E-05
CGA:  16    -0.380730625877E+03   -0.37893E-04   -0.37801E-04  9360   0.172E-03 0.129E-05
CGA:  17    -0.380730641211E+03   -0.15334E-04   -0.15376E-04  9360   0.744E-04 0.849E-06
CGA:  18    -0.380730655867E+03   -0.14656E-04   -0.14638E-04  9360   0.565E-04 0.271E-06
CGA:  19    -0.380730663932E+03   -0.80648E-05   -0.80633E-05  9360   0.349E-04 0.912E-07
  10 F= -.38073066E+03 E0= -.38072458E+03  d E =-.618804E-01  mag=    58.0000
       N       E                     dE             d eps       ncg     rms          ort
SDA:   1    -0.380451967246E+03    0.27869E+00    0.00000E+00  9360   0.791E+00 0.000E+00
CGA:   2    -0.380637551993E+03   -0.18558E+00   -0.18579E+00  9360   0.837E+00-0.106E-02
CGA:   3    -0.380699366200E+03   -0.61814E-01   -0.63160E-01  9360   0.264E+00-0.122E-01
CGA:   4    -0.380736891253E+03   -0.37525E-01   -0.37539E-01  9360   0.628E-01-0.783E-03
CGA:   5    -0.380743858211E+03   -0.69670E-02   -0.70234E-02  9360   0.329E-01 0.752E-03
CGA:   6    -0.380746867150E+03   -0.30089E-02   -0.29745E-02  9360   0.854E-02-0.691E-05
CGA:   7    -0.380748093891E+03   -0.12267E-02   -0.12267E-02  9360   0.410E-02 0.260E-05
CGA:   8    -0.380748506445E+03   -0.41255E-03   -0.41194E-03  9360   0.174E-02-0.376E-05
CGA:   9    -0.380748691822E+03   -0.18538E-03   -0.18540E-03  9360   0.728E-03 0.116E-05
CGA:  10    -0.380748800174E+03   -0.10835E-03   -0.10833E-03  9360   0.344E-03 0.128E-05
CGA:  11    -0.380748843355E+03   -0.43180E-04   -0.43186E-04  9360   0.278E-03 0.101E-05
CGA:  12    -0.380748880605E+03   -0.37250E-04   -0.37250E-04  9360   0.149E-03 0.116E-06
CGA:  13    -0.380748902346E+03   -0.21741E-04   -0.21734E-04  9360   0.101E-03 0.330E-06
CGA:  14    -0.380748917980E+03   -0.15634E-04   -0.15638E-04  9360   0.837E-04-0.106E-06
CGA:  15    -0.380748926632E+03   -0.86519E-05   -0.86641E-05  9360   0.320E-04 0.363E-06
  11 F= -.38074893E+03 E0= -.38074287E+03  d E =-.182627E-01  mag=    58.0000
       N       E                     dE             d eps       ncg     rms          ort
SDA:   1    -0.356283291628E+03    0.24466E+02    0.00000E+00  9360   0.639E+02 0.000E+00
CGA:   2    -0.373573061512E+03   -0.17290E+02   -0.17233E+02  9360   0.383E+02 0.734E+00
CGA:   3    -0.378372843708E+03   -0.47998E+01   -0.48607E+01  9360   0.131E+02 0.241E+01
CGA:   4    -0.380112072253E+03   -0.17392E+01   -0.16628E+01  9360   0.448E+01-0.585E+00
CGA:   5    -0.380523539842E+03   -0.41147E+00   -0.41981E+00  9360   0.245E+01 0.247E+00
CGA:   6    -0.380692848842E+03   -0.16931E+00   -0.19944E+00  9360   0.133E+01-0.132E+00
CGA:   7    -0.380787290753E+03   -0.94442E-01   -0.93079E-01  9360   0.473E+00 0.134E-01
CGA:   8    -0.380834034111E+03   -0.46743E-01   -0.46602E-01  9360   0.289E+00-0.754E-03
CGA:   9    -0.380853763615E+03   -0.19730E-01   -0.20927E-01  9360   0.160E+00-0.646E-02
CGA:  10    -0.380866493742E+03   -0.12730E-01   -0.12921E-01  9360   0.529E-01-0.339E-04
CGA:  11    -0.380872049548E+03   -0.55558E-02   -0.55282E-02  9360   0.567E-01-0.431E-03
CGA:  12    -0.380876861204E+03   -0.48117E-02   -0.48441E-02  9360   0.226E-01 0.822E-04
CGA:  13    -0.380879308304E+03   -0.24471E-02   -0.24508E-02  9360   0.148E-01 0.119E-03
CGA:  14    -0.380880937638E+03   -0.16293E-02   -0.16272E-02  9360   0.147E-01-0.679E-04
CGA:  15    -0.380882401664E+03   -0.14640E-02   -0.14675E-02  9360   0.531E-02 0.628E-04
CGA:  16    -0.380883070191E+03   -0.66853E-03   -0.66810E-03  9360   0.489E-02 0.421E-04
CGA:  17    -0.380883535902E+03   -0.46571E-03   -0.46563E-03  9360   0.319E-02 0.297E-05
CGA:  18    -0.380883878315E+03   -0.34241E-03   -0.34269E-03  9360   0.122E-02 0.141E-04
CGA:  19    -0.380884023047E+03   -0.14473E-03   -0.14472E-03  9360   0.126E-02 0.977E-05
CGA:  20    -0.380884152873E+03   -0.12983E-03   -0.12987E-03  9360   0.741E-03 0.424E-05
CGA:  21    -0.380884241465E+03   -0.88592E-04   -0.88583E-04  9360   0.399E-03 0.342E-05
CGA:  22    -0.380884297761E+03   -0.56296E-04   -0.56235E-04  9360   0.538E-03 0.199E-05
CGA:  23    -0.380884352897E+03   -0.55136E-04   -0.55110E-04  9360   0.240E-03-0.142E-05
CGA:  24    -0.380884386365E+03   -0.33468E-04   -0.33522E-04  9360   0.179E-03-0.235E-05
CGA:  25    -0.380884406805E+03   -0.20440E-04   -0.20437E-04  9360   0.160E-03-0.145E-05
CGA:  26    -0.380884422363E+03   -0.15557E-04   -0.15517E-04  9360   0.742E-04-0.194E-05
CGA:  27    -0.380884432454E+03   -0.10092E-04   -0.10125E-04  9360   0.470E-04-0.160E-05
CGA:  28    -0.380884437187E+03   -0.47325E-05   -0.47231E-05  9360   0.410E-04-0.656E-06
  12 F= -.38088444E+03 E0= -.38087863E+03  d E =-.135511E+00  mag=    58.0000
       N       E                     dE             d eps       ncg     rms          ort
SDA:   1    -0.349353701387E+03    0.31531E+02    0.00000E+00  9360   0.830E+02 0.000E+00
CGA:   2    -0.371287284851E+03   -0.21934E+02   -0.21976E+02  9360   0.513E+02 0.391E+00
CGA:   3    -0.377807693162E+03   -0.65204E+01   -0.64988E+01  9360   0.130E+02 0.704E+01
CGA:   4    -0.379663806901E+03   -0.18561E+01   -0.23227E+01  9360   0.188E+02-0.105E+02
CGA:   5    -0.380365064373E+03   -0.70126E+00   -0.13108E+01  9360   0.246E+01-0.913E+00
CGA:   6    -0.380704447430E+03   -0.33938E+00   -0.19481E+00  9360   0.698E+00 0.434E-01
CGA:   7    -0.380845091206E+03   -0.14064E+00   -0.14089E+00  9360   0.167E+01-0.457E-02
CGA:   8    -0.380914176145E+03   -0.69085E-01   -0.77886E-01  9360   0.435E+00-0.159E+00
CGA:   9    -0.380948579117E+03   -0.34403E-01   -0.34459E-01  9360   0.263E+00 0.229E-02
CGA:  10    -0.380969522949E+03   -0.20944E-01   -0.20961E-01  9360   0.180E+00-0.253E-03
CGA:  11    -0.380985342551E+03   -0.15820E-01   -0.15806E-01  9360   0.632E-01-0.159E-04
CGA:  12    -0.380991792892E+03   -0.64503E-02   -0.64655E-02  9360   0.658E-01 0.417E-03
CGA:  13    -0.380997128702E+03   -0.53358E-02   -0.53349E-02  9360   0.231E-01 0.613E-05
CGA:  14    -0.380999940186E+03   -0.28115E-02   -0.28111E-02  9360   0.174E-01 0.337E-04
CGA:  15    -0.381001055775E+03   -0.11156E-02   -0.11412E-02  9360   0.851E-02-0.119E-03
CGA:  16    -0.381002626392E+03   -0.15706E-02   -0.15668E-02  9360   0.710E-02 0.453E-04
CGA:  17    -0.381003095133E+03   -0.46874E-03   -0.46637E-03  9360   0.352E-02 0.112E-04
CGA:  18    -0.381003590181E+03   -0.49505E-03   -0.49481E-03  9360   0.230E-02 0.779E-05
CGA:  19    -0.381003813446E+03   -0.22326E-03   -0.22365E-03  9360   0.156E-02 0.105E-04
CGA:  20    -0.381003939856E+03   -0.12641E-03   -0.12656E-03  9360   0.661E-03 0.271E-05
CGA:  21    -0.381004040150E+03   -0.10029E-03   -0.10016E-03  9360   0.635E-03 0.334E-05
CGA:  22    -0.381004103381E+03   -0.63231E-04   -0.63297E-04  9360   0.463E-03 0.316E-05
CGA:  23    -0.381004148089E+03   -0.44708E-04   -0.44728E-04  9360   0.228E-03 0.523E-06
CGA:  24    -0.381004198492E+03   -0.50403E-04   -0.50767E-04  9360   0.347E-03-0.332E-05
CGA:  25    -0.381004220576E+03   -0.22085E-04   -0.22029E-04  9360   0.973E-04-0.152E-05
CGA:  26    -0.381004242530E+03   -0.21953E-04   -0.22264E-04  9360   0.132E-03-0.271E-05
CGA:  27    -0.381004251832E+03   -0.93029E-05   -0.92121E-05  9360   0.542E-04-0.153E-05
  13 F= -.38100425E+03 E0= -.38099919E+03  d E =-.119815E+00  mag=    58.0000
       N       E                     dE             d eps       ncg     rms          ort
SDA:   1    -0.379780658216E+03    0.12236E+01    0.00000E+00  9360   0.359E+01 0.000E+00
CGA:   2    -0.380610546467E+03   -0.82989E+00   -0.83046E+00  9360   0.201E+01-0.444E-02
CGA:   3    -0.380881638769E+03   -0.27109E+00   -0.27065E+00  9360   0.895E+00 0.231E-01
CGA:   4    -0.380996554273E+03   -0.11492E+00   -0.11495E+00  9360   0.216E+00-0.607E-02
CGA:   5    -0.381028418302E+03   -0.31864E-01   -0.31842E-01  9360   0.530E-01 0.601E-03
CGA:   6    -0.381036432754E+03   -0.80145E-02   -0.80242E-02  9360   0.315E-01-0.259E-03
CGA:   7    -0.381039018541E+03   -0.25858E-02   -0.26129E-02  9360   0.138E-01-0.148E-04
CGA:   8    -0.381040452489E+03   -0.14339E-02   -0.14344E-02  9360   0.620E-02 0.882E-05
CGA:   9    -0.381041311117E+03   -0.85863E-03   -0.85876E-03  9360   0.219E-02-0.293E-05
CGA:  10    -0.381041763745E+03   -0.45263E-03   -0.45192E-03  9360   0.152E-02 0.820E-05
CGA:  11    -0.381041956395E+03   -0.19265E-03   -0.19266E-03  9360   0.124E-02 0.174E-05
CGA:  12    -0.381042090107E+03   -0.13371E-03   -0.13362E-03  9360   0.846E-03-0.149E-05
CGA:  13    -0.381042212299E+03   -0.12219E-03   -0.12215E-03  9360   0.381E-03 0.205E-05
CGA:  14    -0.381042280008E+03   -0.67709E-04   -0.67661E-04  9360   0.250E-03 0.106E-05
CGA:  15    -0.381042315845E+03   -0.35838E-04   -0.35814E-04  9360   0.159E-03 0.178E-05
CGA:  16    -0.381042330084E+03   -0.14238E-04   -0.14247E-04  9360   0.945E-04 0.380E-06
CGA:  17    -0.381042345328E+03   -0.15244E-04   -0.15225E-04  9360   0.452E-04 0.608E-06
CGA:  18    -0.381042352515E+03   -0.71871E-05   -0.71846E-05  9360   0.320E-04 0.800E-07
  14 F= -.38104235E+03 E0= -.38103715E+03  d E =-.381007E-01  mag=    58.0000
       N       E                     dE             d eps       ncg     rms          ort
SDA:   1    -0.380876014597E+03    0.16633E+00    0.00000E+00  9360   0.492E+00 0.000E+00
CGA:   2    -0.380972814534E+03   -0.96800E-01   -0.95170E-01  9360   0.579E+00 0.226E-01
CGA:   3    -0.381021177752E+03   -0.48363E-01   -0.44503E-01  9360   0.136E+00 0.180E-01
CGA:   4    -0.381045138719E+03   -0.23961E-01   -0.23949E-01  9360   0.419E-01 0.237E-03
CGA:   5    -0.381049497445E+03   -0.43587E-02   -0.43407E-02  9360   0.205E-01-0.107E-03
CGA:   6    -0.381051262561E+03   -0.17651E-02   -0.17794E-02  9360   0.705E-02-0.964E-05
CGA:   7    -0.381052001211E+03   -0.73865E-03   -0.73862E-03  9360   0.290E-02-0.369E-06
CGA:   8    -0.381052384008E+03   -0.38280E-03   -0.38281E-03  9360   0.102E-02-0.282E-05
CGA:   9    -0.381052490110E+03   -0.10610E-03   -0.10606E-03  9360   0.689E-03-0.548E-06
CGA:  10    -0.381052562097E+03   -0.71987E-04   -0.72060E-04  9360   0.275E-03 0.152E-05
CGA:  11    -0.381052607204E+03   -0.45107E-04   -0.45102E-04  9360   0.166E-03 0.232E-06
CGA:  12    -0.381052629567E+03   -0.22363E-04   -0.22358E-04  9360   0.178E-03 0.779E-06
CGA:  13    -0.381052650087E+03   -0.20520E-04   -0.20521E-04  9360   0.731E-04 0.365E-07
CGA:  14    -0.381052662877E+03   -0.12790E-04   -0.12783E-04  9360   0.678E-04 0.151E-06
CGA:  15    -0.381052670745E+03   -0.78685E-05   -0.78684E-05  9360   0.359E-04 0.253E-09
  15 F= -.38105267E+03 E0= -.38104741E+03  d E =-.103182E-01  mag=    58.0000
       N       E                     dE             d eps       ncg     rms          ort
SDA:   1    -0.379849448024E+03    0.12032E+01    0.00000E+00  9360   0.312E+01 0.000E+00
CGA:   2    -0.380734290976E+03   -0.88484E+00   -0.87967E+00  9360   0.184E+01 0.359E-01
CGA:   3    -0.380911110726E+03   -0.17682E+00   -0.16141E+00  9360   0.120E+01-0.103E-01
CGA:   4    -0.381032066914E+03   -0.12096E+00   -0.12149E+00  9360   0.207E+00 0.217E-02
CGA:   5    -0.381063353470E+03   -0.31287E-01   -0.31305E-01  9360   0.622E-01-0.625E-03
CGA:   6    -0.381071340021E+03   -0.79866E-02   -0.79903E-02  9360   0.264E-01 0.361E-03
CGA:   7    -0.381074903808E+03   -0.35638E-02   -0.35640E-02  9360   0.808E-02-0.951E-04
CGA:   8    -0.381075885031E+03   -0.98122E-03   -0.98150E-03  9360   0.587E-02 0.960E-05
CGA:   9    -0.381076348461E+03   -0.46343E-03   -0.46659E-03  9360   0.212E-02-0.745E-05
CGA:  10    -0.381076681335E+03   -0.33287E-03   -0.33299E-03  9360   0.997E-03-0.238E-05
CGA:  11    -0.381076886238E+03   -0.20490E-03   -0.20469E-03  9360   0.727E-03 0.271E-05
CGA:  12    -0.381076974738E+03   -0.88499E-04   -0.88464E-04  9360   0.661E-03-0.104E-05
CGA:  13    -0.381077052314E+03   -0.77577E-04   -0.77603E-04  9360   0.434E-03 0.108E-05
CGA:  14    -0.381077105283E+03   -0.52968E-04   -0.52981E-04  9360   0.179E-03 0.765E-06
CGA:  15    -0.381077142817E+03   -0.37534E-04   -0.37453E-04  9360   0.971E-04 0.108E-05
CGA:  16    -0.381077154508E+03   -0.11691E-04   -0.11695E-04  9360   0.860E-04 0.271E-06
CGA:  17    -0.381077163065E+03   -0.85579E-05   -0.85789E-05  9360   0.393E-04 0.511E-06
  16 F= -.38107716E+03 E0= -.38107176E+03  d E =-.244923E-01  mag=    58.0000
       N       E                     dE             d eps       ncg     rms          ort
SDA:   1    -0.377686785029E+03    0.33904E+01    0.00000E+00  9360   0.851E+01 0.000E+00
CGA:   2    -0.380255879377E+03   -0.25691E+01   -0.25740E+01  9360   0.449E+01-0.308E-01
CGA:   3    -0.380812162389E+03   -0.55628E+00   -0.56214E+00  9360   0.183E+01 0.115E+00
CGA:   4    -0.381022366590E+03   -0.21020E+00   -0.20632E+00  9360   0.571E+00-0.207E-01
CGA:   5    -0.381067433333E+03   -0.45067E-01   -0.48123E-01  9360   0.324E+00-0.102E-01
CGA:   6    -0.381096881297E+03   -0.29448E-01   -0.29431E-01  9360   0.744E-01-0.128E-03
CGA:   7    -0.381108629611E+03   -0.11748E-01   -0.11778E-01  9360   0.285E-01-0.883E-03
CGA:   8    -0.381112256097E+03   -0.36265E-02   -0.36305E-02  9360   0.923E-02 0.206E-03
CGA:   9    -0.381113638207E+03   -0.13821E-02   -0.13827E-02  9360   0.573E-02-0.264E-04
CGA:  10    -0.381114212714E+03   -0.57451E-03   -0.57333E-03  9360   0.381E-02-0.261E-05
CGA:  11    -0.381114589481E+03   -0.37677E-03   -0.37768E-03  9360   0.190E-02 0.660E-05
CGA:  12    -0.381114972157E+03   -0.38268E-03   -0.38277E-03  9360   0.101E-02-0.810E-06
CGA:  13    -0.381115142535E+03   -0.17038E-03   -0.17022E-03  9360   0.959E-03 0.401E-05
CGA:  14    -0.381115256369E+03   -0.11383E-03   -0.11375E-03  9360   0.692E-03-0.102E-05
CGA:  15    -0.381115316722E+03   -0.60353E-04   -0.60430E-04  9360   0.280E-03 0.117E-05
CGA:  16    -0.381115371235E+03   -0.54513E-04   -0.54377E-04  9360   0.143E-03 0.224E-05
CGA:  17    -0.381115393139E+03   -0.21904E-04   -0.21895E-04  9360   0.950E-04 0.748E-06
CGA:  18    -0.381115405400E+03   -0.12261E-04   -0.12263E-04  9360   0.980E-04 0.240E-06
CGA:  19    -0.381115415735E+03   -0.10336E-04   -0.10354E-04  9360   0.459E-04 0.433E-06
CGA:  20    -0.381115423368E+03   -0.76323E-05   -0.76425E-05  9360   0.330E-04-0.346E-06
  17 F= -.38111542E+03 E0= -.38110979E+03  d E =-.382603E-01  mag=    58.0000
       N       E                     dE             d eps       ncg     rms          ort
SDA:   1    -0.357334349087E+03    0.23781E+02    0.00000E+00  9360   0.610E+02 0.000E+00
CGA:   2    -0.374207603306E+03   -0.16873E+02   -0.16841E+02  9360   0.403E+02 0.690E+00
CGA:   3    -0.378652143378E+03   -0.44445E+01   -0.47586E+01  9360   0.117E+02 0.396E+01
CGA:   4    -0.380414260532E+03   -0.17621E+01   -0.15256E+01  9360   0.484E+01-0.214E+01
CGA:   5    -0.380910823183E+03   -0.49656E+00   -0.49327E+00  9360   0.125E+01-0.529E-01
CGA:   6    -0.381080447193E+03   -0.16962E+00   -0.16993E+00  9360   0.626E+00 0.207E-01
CGA:   7    -0.381141656814E+03   -0.61210E-01   -0.61050E-01  9360   0.313E+00-0.107E-02
CGA:   8    -0.381164177751E+03   -0.22521E-01   -0.21970E-01  9360   0.142E+00 0.287E-02
CGA:   9    -0.381182847307E+03   -0.18670E-01   -0.18698E-01  9360   0.400E-01 0.171E-02
CGA:  10    -0.381189819545E+03   -0.69722E-02   -0.70036E-02  9360   0.324E-01-0.625E-03
CGA:  11    -0.381192994540E+03   -0.31750E-02   -0.32160E-02  9360   0.222E-01 0.142E-03
CGA:  12    -0.381194945646E+03   -0.19511E-02   -0.19847E-02  9360   0.108E-01-0.167E-04
CGA:  13    -0.381196833753E+03   -0.18881E-02   -0.18864E-02  9360   0.578E-02 0.349E-04
CGA:  14    -0.381197640346E+03   -0.80659E-03   -0.80636E-03  9360   0.455E-02 0.511E-04
CGA:  15    -0.381198051276E+03   -0.41093E-03   -0.41354E-03  9360   0.268E-02 0.255E-05
CGA:  16    -0.381198412050E+03   -0.36077E-03   -0.36078E-03  9360   0.976E-03 0.925E-05
CGA:  17    -0.381198573708E+03   -0.16166E-03   -0.16133E-03  9360   0.788E-03 0.913E-05
CGA:  18    -0.381198665644E+03   -0.91936E-04   -0.91958E-04  9360   0.594E-03 0.215E-05
CGA:  19    -0.381198725860E+03   -0.60216E-04   -0.60283E-04  9360   0.303E-03 0.213E-05
CGA:  20    -0.381198798088E+03   -0.72228E-04   -0.72155E-04  9360   0.243E-03 0.654E-06
CGA:  21    -0.381198828025E+03   -0.29938E-04   -0.29927E-04  9360   0.218E-03-0.661E-06
CGA:  22    -0.381198853917E+03   -0.25891E-04   -0.25849E-04  9360   0.159E-03-0.193E-05
CGA:  23    -0.381198875910E+03   -0.21993E-04   -0.21997E-04  9360   0.608E-04-0.147E-05
CGA:  24    -0.381198886405E+03   -0.10495E-04   -0.10552E-04  9360   0.660E-04-0.147E-05
CGA:  25    -0.381198892188E+03   -0.57826E-05   -0.57448E-05  9360   0.304E-04-0.753E-06
  18 F= -.38119889E+03 E0= -.38119358E+03  d E =-.834688E-01  mag=    58.0000
       N       E                     dE             d eps       ncg     rms          ort
SDA:   1    -0.380951874909E+03    0.24701E+00    0.00000E+00  9360   0.752E+00 0.000E+00
CGA:   2    -0.381112608737E+03   -0.16073E+00   -0.16070E+00  9360   0.449E+00 0.451E-03
CGA:   3    -0.381170252540E+03   -0.57644E-01   -0.57804E-01  9360   0.303E+00 0.612E-02
CGA:   4    -0.381194262719E+03   -0.24010E-01   -0.22951E-01  9360   0.924E-01 0.540E-02
CGA:   5    -0.381205151099E+03   -0.10888E-01   -0.10865E-01  9360   0.322E-01-0.355E-03
CGA:   6    -0.381208785515E+03   -0.36344E-02   -0.36415E-02  9360   0.934E-02 0.106E-03
CGA:   7    -0.381210008133E+03   -0.12226E-02   -0.12226E-02  9360   0.673E-02-0.444E-05
CGA:   8    -0.381210494044E+03   -0.48591E-03   -0.48199E-03  9360   0.192E-02 0.228E-04
CGA:   9    -0.381210824798E+03   -0.33075E-03   -0.33039E-03  9360   0.796E-03 0.740E-05
CGA:  10    -0.381210925994E+03   -0.10120E-03   -0.10118E-03  9360   0.571E-03-0.939E-06
CGA:  11    -0.381210985682E+03   -0.59689E-04   -0.59736E-04  9360   0.382E-03 0.106E-05
CGA:  12    -0.381211027446E+03   -0.41764E-04   -0.41771E-04  9360   0.163E-03 0.257E-08
CGA:  13    -0.381211060584E+03   -0.33139E-04   -0.33137E-04  9360   0.125E-03 0.274E-07
CGA:  14    -0.381211074323E+03   -0.13738E-04   -0.13736E-04  9360   0.102E-03-0.372E-07
CGA:  15    -0.381211085363E+03   -0.11040E-04   -0.11055E-04  9360   0.510E-04 0.560E-06
CGA:  16    -0.381211093567E+03   -0.82035E-05   -0.81939E-05  9360   0.258E-04 0.338E-06
  19 F= -.38121109E+03 E0= -.38120564E+03  d E =-.122014E-01  mag=    58.0000
       N       E                     dE             d eps       ncg     rms          ort
SDA:   1    -0.381182317282E+03    0.28768E-01    0.00000E+00  9360   0.100E+00 0.000E+00
CGA:   2    -0.381196022251E+03   -0.13705E-01   -0.13692E-01  9360   0.130E+00 0.185E-02
CGA:   3    -0.381207891863E+03   -0.11870E-01   -0.11742E-01  9360   0.303E-01-0.481E-04
CGA:   4    -0.381212709326E+03   -0.48175E-02   -0.48166E-02  9360   0.110E-01 0.207E-04
CGA:   5    -0.381213763193E+03   -0.10539E-02   -0.10506E-02  9360   0.558E-02-0.128E-04
CGA:   6    -0.381214224599E+03   -0.46141E-03   -0.46287E-03  9360   0.174E-02-0.799E-06
CGA:   7    -0.381214410672E+03   -0.18607E-03   -0.18613E-03  9360   0.654E-03 0.118E-05
CGA:   8    -0.381214496888E+03   -0.86215E-04   -0.86219E-04  9360   0.321E-03 0.188E-07
CGA:   9    -0.381214524861E+03   -0.27974E-04   -0.27947E-04  9360   0.180E-03-0.166E-06
CGA:  10    -0.381214545857E+03   -0.20996E-04   -0.21001E-04  9360   0.649E-04 0.489E-06
CGA:  11    -0.381214556993E+03   -0.11136E-04   -0.11138E-04  9360   0.545E-04-0.380E-07
CGA:  12    -0.381214561883E+03   -0.48895E-05   -0.48987E-05  9360   0.339E-04 0.214E-06
  20 F= -.38121456E+03 E0= -.38120905E+03  d E =-.346832E-02  mag=    58.0000
       N       E                     dE             d eps       ncg     rms          ort
SDA:   1    -0.379963384200E+03    0.12512E+01    0.00000E+00  9360   0.341E+01 0.000E+00
CGA:   2    -0.380728369500E+03   -0.76499E+00   -0.77161E+00  9360   0.417E+01-0.547E-01
CGA:   3    -0.380983450087E+03   -0.25508E+00   -0.30899E+00  9360   0.162E+01-0.281E+00
CGA:   4    -0.381146409766E+03   -0.16296E+00   -0.16059E+00  9360   0.501E+00-0.310E-01
CGA:   5    -0.381199771062E+03   -0.53361E-01   -0.52718E-01  9360   0.168E+00-0.889E-02
CGA:   6    -0.381216900773E+03   -0.17130E-01   -0.17155E-01  9360   0.789E-01 0.340E-03
CGA:   7    -0.381223106274E+03   -0.62055E-02   -0.63107E-02  9360   0.293E-01-0.180E-03
CGA:   8    -0.381226933076E+03   -0.38268E-02   -0.38319E-02  9360   0.112E-01-0.374E-03
CGA:   9    -0.381228070203E+03   -0.11371E-02   -0.11408E-02  9360   0.714E-02 0.559E-04
CGA:  10    -0.381228742711E+03   -0.67251E-03   -0.67269E-03  9360   0.250E-02 0.231E-05
CGA:  11    -0.381229096172E+03   -0.35346E-03   -0.35361E-03  9360   0.168E-02-0.363E-05
CGA:  12    -0.381229266074E+03   -0.16990E-03   -0.16977E-03  9360   0.106E-02-0.162E-05
CGA:  13    -0.381229404557E+03   -0.13848E-03   -0.13843E-03  9360   0.702E-03 0.406E-05
CGA:  14    -0.381229498024E+03   -0.93467E-04   -0.93491E-04  9360   0.487E-03-0.139E-05
CGA:  15    -0.381229557104E+03   -0.59080E-04   -0.59082E-04  9360   0.398E-03 0.155E-05
CGA:  16    -0.381229602068E+03   -0.44964E-04   -0.44969E-04  9360   0.183E-03 0.612E-06
CGA:  17    -0.381229629907E+03   -0.27839E-04   -0.27796E-04  9360   0.152E-03 0.141E-05
CGA:  18    -0.381229643913E+03   -0.14006E-04   -0.14014E-04  9360   0.758E-04 0.420E-06
CGA:  19    -0.381229655182E+03   -0.11269E-04   -0.11245E-04  9360   0.478E-04 0.873E-06
CGA:  20    -0.381229660820E+03   -0.56383E-05   -0.56386E-05  9360   0.362E-04 0.517E-07
  21 F= -.38122966E+03 E0= -.38122380E+03  d E =-.150989E-01  mag=    58.0000
       N       E                     dE             d eps       ncg     rms          ort
SDA:   1    -0.380878879966E+03    0.35078E+00    0.00000E+00  9360   0.916E+00 0.000E+00
CGA:   2    -0.381105147090E+03   -0.22627E+00   -0.22659E+00  9360   0.118E+01-0.261E-02
CGA:   3    -0.381182404363E+03   -0.77257E-01   -0.75366E-01  9360   0.295E+00 0.784E-02
CGA:   4    -0.381220323303E+03   -0.37919E-01   -0.37908E-01  9360   0.123E+00 0.254E-02
CGA:   5    -0.381231706942E+03   -0.11384E-01   -0.11213E-01  9360   0.337E-01-0.475E-03
CGA:   6    -0.381235468786E+03   -0.37618E-02   -0.37683E-02  9360   0.214E-01 0.219E-03
CGA:   7    -0.381237078311E+03   -0.16095E-02   -0.16088E-02  9360   0.549E-02-0.557E-06
CGA:   8    -0.381237969756E+03   -0.89145E-03   -0.89258E-03  9360   0.222E-02-0.201E-04
CGA:   9    -0.381238158027E+03   -0.18827E-03   -0.18812E-03  9360   0.132E-02-0.623E-06
CGA:  10    -0.381238299904E+03   -0.14188E-03   -0.14197E-03  9360   0.479E-03 0.348E-05
CGA:  11    -0.381238372285E+03   -0.72381E-04   -0.72443E-04  9360   0.330E-03-0.137E-05
CGA:  12    -0.381238403804E+03   -0.31519E-04   -0.31554E-04  9360   0.231E-03 0.794E-06
CGA:  13    -0.381238437651E+03   -0.33846E-04   -0.33835E-04  9360   0.148E-03 0.279E-06
CGA:  14    -0.381238456102E+03   -0.18451E-04   -0.18451E-04  9360   0.102E-03 0.140E-06
CGA:  15    -0.381238469687E+03   -0.13585E-04   -0.13588E-04  9360   0.900E-04-0.236E-06
CGA:  16    -0.381238478357E+03   -0.86697E-05   -0.86792E-05  9360   0.379E-04 0.295E-06
  22 F= -.38123848E+03 E0= -.38123251E+03  d E =-.881754E-02  mag=    58.0000
       N       E                     dE             d eps       ncg     rms          ort
SDA:   1    -0.362547647444E+03    0.18691E+02    0.00000E+00  9360   0.504E+02 0.000E+00
CGA:   2    -0.373108752930E+03   -0.10561E+02   -0.10160E+02  9360   0.532E+02 0.417E+01
CGA:   3    -0.378371142869E+03   -0.52624E+01   -0.56856E+01  9360   0.119E+02 0.433E+01
CGA:   4    -0.379541187904E+03   -0.11700E+01   -0.23229E+01  9360   0.391E+02-0.172E+02
CGA:   5    -0.380571691672E+03   -0.10305E+01   -0.26431E+01  9360   0.473E+01-0.192E+01
CGA:   6    -0.380849747702E+03   -0.27806E+00   -0.19814E+00  9360   0.218E+01 0.291E+01
CGA:   7    -0.380964363990E+03   -0.11462E+00   -0.47049E-01  9360   0.199E+01 0.287E+01
CGA:   8    -0.381056208976E+03   -0.91845E-01   -0.58370E-01  9360   0.494E+00 0.818E+00
CGA:   9    -0.381088018164E+03   -0.31809E-01   -0.27420E-01  9360   0.697E+00 0.789E-01
CGA:  10    -0.381124618940E+03   -0.36601E-01   -0.28809E-01  9360   0.125E+01 0.168E+00
CGA:  11    -0.381163305787E+03   -0.38687E-01   -0.34654E-01  9360   0.124E+01 0.140E+00
CGA:  12    -0.381190089036E+03   -0.26783E-01   -0.35274E-01  9360   0.120E+01-0.277E+00
CGA:  13    -0.381203504633E+03   -0.13416E-01   -0.19921E-01  9360   0.837E+00-0.247E+00
CGA:  14    -0.381212975328E+03   -0.94707E-02   -0.16481E-01  9360   0.336E+00-0.192E+00
CGA:  15    -0.381218684153E+03   -0.57088E-02   -0.61099E-02  9360   0.168E+00-0.141E-01
CGA:  16    -0.381225290697E+03   -0.66065E-02   -0.67482E-02  9360   0.226E+00-0.193E-02
CGA:  17    -0.381237526116E+03   -0.12235E-01   -0.12309E-01  9360   0.254E+00 0.831E-04
CGA:  18    -0.381246177815E+03   -0.86517E-02   -0.90530E-02  9360   0.146E+00-0.681E-02
CGA:  19    -0.381251846258E+03   -0.56684E-02   -0.58062E-02  9360   0.948E-01-0.156E-02
CGA:  20    -0.381255448770E+03   -0.36025E-02   -0.36707E-02  9360   0.516E-01-0.848E-03
CGA:  21    -0.381257934016E+03   -0.24852E-02   -0.24833E-02  9360   0.557E-01 0.249E-05
CGA:  22    -0.381262000436E+03   -0.40664E-02   -0.40665E-02  9360   0.780E-01 0.133E-04
CGA:  23    -0.381264952963E+03   -0.29525E-02   -0.29569E-02  9360   0.274E-01-0.287E-04
CGA:  24    -0.381265963307E+03   -0.10103E-02   -0.10269E-02  9360   0.185E-01-0.206E-03
CGA:  25    -0.381267312901E+03   -0.13496E-02   -0.13490E-02  9360   0.284E-01 0.152E-03
CGA:  26    -0.381268717628E+03   -0.14047E-02   -0.14077E-02  9360   0.161E-01-0.114E-04
CGA:  27    -0.381269445457E+03   -0.72783E-03   -0.72478E-03  9360   0.125E-01-0.627E-05
CGA:  28    -0.381270190822E+03   -0.74537E-03   -0.74402E-03  9360   0.109E-01-0.552E-04
CGA:  29    -0.381270614290E+03   -0.42347E-03   -0.42105E-03  9360   0.534E-02 0.172E-04
CGA:  30    -0.381270915415E+03   -0.30112E-03   -0.30113E-03  9360   0.653E-02-0.861E-06
CGA:  31    -0.381271324694E+03   -0.40928E-03   -0.40935E-03  9360   0.508E-02 0.593E-05
CGA:  32    -0.381271508940E+03   -0.18425E-03   -0.18358E-03  9360   0.209E-02 0.344E-05
CGA:  33    -0.381271640320E+03   -0.13138E-03   -0.13137E-03  9360   0.299E-02-0.446E-05
CGA:  34    -0.381271843525E+03   -0.20321E-03   -0.20320E-03  9360   0.256E-02 0.146E-05
CGA:  35    -0.381271945523E+03   -0.10200E-03   -0.10187E-03  9360   0.133E-02 0.263E-05
CGA:  36    -0.381272032123E+03   -0.86600E-04   -0.86604E-04  9360   0.165E-02-0.111E-05
CGA:  37    -0.381272120908E+03   -0.88785E-04   -0.88775E-04  9360   0.106E-02-0.616E-06
SDA:  38    -0.381272173249E+03   -0.52341E-04   -0.52285E-04  9360   0.923E-03-0.211E-05
CGA:  39    -0.381272254109E+03   -0.80859E-04   -0.80760E-04  9360   0.614E-03 0.303E-05
CGA:  40    -0.381272320765E+03   -0.66656E-04   -0.66839E-04  9360   0.395E-03-0.406E-05
CGA:  41    -0.381272382262E+03   -0.61498E-04   -0.61894E-04  9360   0.170E-03-0.437E-05
CGA:  42    -0.381272401053E+03   -0.18790E-04   -0.18827E-04  9360   0.524E-04-0.958E-06
CGA:  43    -0.381272415001E+03   -0.13948E-04   -0.13913E-04  9360   0.706E-04 0.187E-06
CGA:  44    -0.381272420192E+03   -0.51913E-05   -0.51890E-05  9360   0.350E-04-0.241E-06
  23 F= -.38127242E+03 E0= -.38126681E+03  d E =-.339418E-01  mag=    58.0000
       N       E                     dE             d eps       ncg     rms          ort
SDA:   1    -0.379897599538E+03    0.13748E+01    0.00000E+00  9360   0.441E+01 0.000E+00
CGA:   2    -0.380653990359E+03   -0.75639E+00   -0.76109E+00  9360   0.333E+01-0.494E-01
CGA:   3    -0.380989084204E+03   -0.33509E+00   -0.33170E+00  9360   0.166E+01 0.257E+00
CGA:   4    -0.381169005920E+03   -0.17992E+00   -0.18185E+00  9360   0.926E+00-0.135E+00
CGA:   5    -0.381248025404E+03   -0.79019E-01   -0.78986E-01  9360   0.223E+00-0.139E-01
CGA:   6    -0.381278390093E+03   -0.30365E-01   -0.30226E-01  9360   0.793E-01 0.255E-02
CGA:   7    -0.381285548872E+03   -0.71588E-02   -0.71704E-02  9360   0.448E-01 0.732E-03
CGA:   8    -0.381289920774E+03   -0.43719E-02   -0.43730E-02  9360   0.158E-01-0.624E-03
CGA:   9    -0.381291869773E+03   -0.19490E-02   -0.19492E-02  9360   0.781E-02-0.191E-05
CGA:  10    -0.381292656191E+03   -0.78642E-03   -0.78620E-03  9360   0.442E-02 0.376E-04
CGA:  11    -0.381293133433E+03   -0.47724E-03   -0.47702E-03  9360   0.228E-02 0.159E-04
CGA:  12    -0.381293376606E+03   -0.24317E-03   -0.24344E-03  9360   0.108E-02-0.186E-04
CGA:  13    -0.381293539055E+03   -0.16245E-03   -0.16221E-03  9360   0.864E-03 0.403E-05
CGA:  14    -0.381293611515E+03   -0.72459E-04   -0.72457E-04  9360   0.390E-03-0.403E-06
CGA:  15    -0.381293683352E+03   -0.71838E-04   -0.71695E-04  9360   0.258E-03 0.172E-05
CGA:  16    -0.381293707897E+03   -0.24545E-04   -0.24544E-04  9360   0.184E-03 0.241E-06
CGA:  17    -0.381293731460E+03   -0.23563E-04   -0.23523E-04  9360   0.766E-04 0.161E-05
CGA:  18    -0.381293742891E+03   -0.11430E-04   -0.11408E-04  9360   0.720E-04 0.524E-06
CGA:  19    -0.381293749143E+03   -0.62526E-05   -0.62662E-05  9360   0.290E-04 0.635E-06
  24 F= -.38129375E+03 E0= -.38128792E+03  d E =-.213290E-01  mag=    58.0000
       N       E                     dE             d eps       ncg     rms          ort
SDA:   1    -0.381279328537E+03    0.14414E-01    0.00000E+00  9360   0.560E-01 0.000E+00
CGA:   2    -0.381284624792E+03   -0.52963E-02   -0.52650E-02  9360   0.588E-01-0.644E-03
CGA:   3    -0.381291463423E+03   -0.68386E-02   -0.68359E-02  9360   0.195E-01 0.191E-03
CGA:   4    -0.381293719137E+03   -0.22557E-02   -0.22544E-02  9360   0.757E-02 0.135E-03
CGA:   5    -0.381294619197E+03   -0.90006E-03   -0.90070E-03  9360   0.182E-02-0.446E-04
CGA:   6    -0.381294858629E+03   -0.23943E-03   -0.23924E-03  9360   0.108E-02 0.596E-05
CGA:   7    -0.381294927671E+03   -0.69043E-04   -0.68841E-04  9360   0.341E-03-0.674E-07
CGA:   8    -0.381294976437E+03   -0.48766E-04   -0.48806E-04  9360   0.123E-03-0.854E-06
CGA:   9    -0.381294992691E+03   -0.16254E-04   -0.16237E-04  9360   0.524E-04 0.625E-06
CGA:  10    -0.381294999854E+03   -0.71629E-05   -0.71554E-05  9360   0.318E-04 0.315E-06
  25 F= -.38129500E+03 E0= -.38128913E+03  d E =-.125071E-02  mag=    58.0000
       N       E                     dE             d eps       ncg     rms          ort
SDA:   1    -0.381269158044E+03    0.25835E-01    0.00000E+00  9360   0.807E-01 0.000E+00
CGA:   2    -0.381281127376E+03   -0.11969E-01   -0.12083E-01  9360   0.127E+00-0.227E-02
CGA:   3    -0.381291281862E+03   -0.10154E-01   -0.10226E-01  9360   0.318E-01 0.261E-03
CGA:   4    -0.381294550090E+03   -0.32682E-02   -0.32758E-02  9360   0.125E-01 0.329E-03
CGA:   5    -0.381296106023E+03   -0.15559E-02   -0.15577E-02  9360   0.316E-02-0.937E-04
CGA:   6    -0.381296424891E+03   -0.31887E-03   -0.31906E-03  9360   0.235E-02 0.763E-05
CGA:   7    -0.381296597045E+03   -0.17215E-03   -0.17204E-03  9360   0.484E-03-0.917E-06
CGA:   8    -0.381296678742E+03   -0.81697E-04   -0.81743E-04  9360   0.182E-03-0.602E-06
CGA:   9    -0.381296703373E+03   -0.24631E-04   -0.24604E-04  9360   0.850E-04 0.987E-06
CGA:  10    -0.381296715305E+03   -0.11932E-04   -0.11925E-04  9360   0.318E-04 0.326E-06
CGA:  11    -0.381296722228E+03   -0.69226E-05   -0.68984E-05  9360   0.201E-04 0.237E-06
  26 F= -.38129672E+03 E0= -.38129081E+03  d E =-.172237E-02  mag=    58.0000
       N       E                     dE             d eps       ncg     rms          ort
SDA:   1    -0.381155640670E+03    0.14107E+00    0.00000E+00  9360   0.380E+00 0.000E+00
CGA:   2    -0.381238058298E+03   -0.82418E-01   -0.83850E-01  9360   0.643E+00-0.136E-01
CGA:   3    -0.381274947612E+03   -0.36889E-01   -0.39656E-01  9360   0.147E+00-0.218E-01
CGA:   4    -0.381291376501E+03   -0.16429E-01   -0.16448E-01  9360   0.583E-01 0.133E-02
CGA:   5    -0.381297654760E+03   -0.62783E-02   -0.62391E-02  9360   0.137E-01-0.831E-03
CGA:   6    -0.381299550680E+03   -0.18959E-02   -0.18947E-02  9360   0.672E-02 0.389E-04
CGA:   7    -0.381300005171E+03   -0.45449E-03   -0.45775E-03  9360   0.286E-02-0.164E-04
CGA:   8    -0.381300388542E+03   -0.38337E-03   -0.38360E-03  9360   0.848E-03-0.963E-05
CGA:   9    -0.381300496011E+03   -0.10747E-03   -0.10741E-03  9360   0.472E-03 0.536E-05
CGA:  10    -0.381300544265E+03   -0.48254E-04   -0.48239E-04  9360   0.279E-03-0.281E-07
CGA:  11    -0.381300569617E+03   -0.25352E-04   -0.25362E-04  9360   0.137E-03 0.683E-06
CGA:  12    -0.381300591917E+03   -0.22300E-04   -0.22293E-04  9360   0.778E-04 0.148E-06
CGA:  13    -0.381300604219E+03   -0.12303E-04   -0.12305E-04  9360   0.859E-04-0.567E-07
CGA:  14    -0.381300612084E+03   -0.78645E-05   -0.78513E-05  9360   0.467E-04-0.353E-06
  27 F= -.38130061E+03 E0= -.38129462E+03  d E =-.388986E-02  mag=    58.0000
       N       E                     dE             d eps       ncg     rms          ort
SDA:   1    -0.380364692198E+03    0.93591E+00    0.00000E+00  9360   0.240E+01 0.000E+00
CGA:   2    -0.381006963310E+03   -0.64227E+00   -0.63218E+00  9360   0.194E+01 0.752E-01
CGA:   3    -0.381162976936E+03   -0.15601E+00   -0.13269E+00  9360   0.778E+00 0.112E+00
CGA:   4    -0.381272980097E+03   -0.11000E+00   -0.10999E+00  9360   0.173E+00 0.639E-03
CGA:   5    -0.381299302271E+03   -0.26322E-01   -0.26315E-01  9360   0.673E-01 0.198E-03
CGA:   6    -0.381303923873E+03   -0.46216E-02   -0.45229E-02  9360   0.354E-01 0.607E-03
CGA:   7    -0.381308368575E+03   -0.44447E-02   -0.44447E-02  9360   0.755E-02 0.404E-04
CGA:   8    -0.381309623124E+03   -0.12545E-02   -0.12568E-02  9360   0.402E-02-0.405E-04
CGA:   9    -0.381310039733E+03   -0.41661E-03   -0.41843E-03  9360   0.145E-02 0.260E-04
CGA:  10    -0.381310302837E+03   -0.26310E-03   -0.26300E-03  9360   0.111E-02 0.223E-05
CGA:  11    -0.381310387473E+03   -0.84636E-04   -0.84336E-04  9360   0.706E-03 0.108E-05
CGA:  12    -0.381310511209E+03   -0.12374E-03   -0.12370E-03  9360   0.349E-03 0.668E-06
CGA:  13    -0.381310586562E+03   -0.75353E-04   -0.75446E-04  9360   0.252E-03-0.104E-05
CGA:  14    -0.381310620315E+03   -0.33754E-04   -0.33752E-04  9360   0.201E-03 0.646E-06
CGA:  15    -0.381310641688E+03   -0.21373E-04   -0.21370E-04  9360   0.140E-03 0.889E-07
CGA:  16    -0.381310654244E+03   -0.12556E-04   -0.12573E-04  9360   0.564E-04 0.524E-06
CGA:  17    -0.381310664445E+03   -0.10201E-04   -0.10170E-04  9360   0.310E-04 0.577E-06
CGA:  18    -0.381310670023E+03   -0.55785E-05   -0.55662E-05  9360   0.219E-04 0.287E-06
  28 F= -.38131067E+03 E0= -.38130455E+03  d E =-.100579E-01  mag=    58.0000
       N       E                     dE             d eps       ncg     rms          ort
SDA:   1    -0.371057904554E+03    0.10253E+02    0.00000E+00  9360   0.273E+02 0.000E+00
CGA:   2    -0.376667825429E+03   -0.56099E+01   -0.56478E+01  9360   0.417E+02 0.692E+00
CGA:   3    -0.379415399677E+03   -0.27476E+01   -0.34932E+01  9360   0.941E+01-0.545E+00
CGA:   4    -0.380654995631E+03   -0.12396E+01   -0.12290E+01  9360   0.769E+01-0.333E+01
CGA:   5    -0.380990064980E+03   -0.33507E+00   -0.31589E+00  9360   0.194E+01 0.175E+00
CGA:   6    -0.381135114937E+03   -0.14505E+00   -0.15288E+00  9360   0.164E+01-0.468E-01
CGA:   7    -0.381227760229E+03   -0.92645E-01   -0.88111E-01  9360   0.543E+00 0.386E-01
CGA:   8    -0.381272139413E+03   -0.44379E-01   -0.45464E-01  9360   0.436E+00 0.511E-04
CGA:   9    -0.381292474411E+03   -0.20335E-01   -0.21883E-01  9360   0.192E+00-0.214E-01
CGA:  10    -0.381310375790E+03   -0.17901E-01   -0.17493E-01  9360   0.114E+00-0.452E-02
CGA:  11    -0.381316695557E+03   -0.63198E-02   -0.63497E-02  9360   0.687E-01-0.370E-03
CGA:  12    -0.381321658116E+03   -0.49626E-02   -0.52970E-02  9360   0.242E-01 0.543E-03
CGA:  13    -0.381324713804E+03   -0.30557E-02   -0.30431E-02  9360   0.289E-01 0.615E-03
CGA:  14    -0.381326405921E+03   -0.16921E-02   -0.16504E-02  9360   0.664E-02 0.396E-03
CGA:  15    -0.381327645267E+03   -0.12393E-02   -0.12394E-02  9360   0.890E-02-0.958E-06
CGA:  16    -0.381328216056E+03   -0.57079E-03   -0.59469E-03  9360   0.400E-02-0.866E-04
CGA:  17    -0.381328655404E+03   -0.43935E-03   -0.43936E-03  9360   0.232E-02 0.783E-05
CGA:  18    -0.381328985241E+03   -0.32984E-03   -0.33132E-03  9360   0.210E-02-0.347E-04
CGA:  19    -0.381329163906E+03   -0.17866E-03   -0.17985E-03  9360   0.132E-02 0.960E-05
CGA:  20    -0.381329285895E+03   -0.12199E-03   -0.12246E-03  9360   0.577E-03 0.754E-05
CGA:  21    -0.381329418473E+03   -0.13258E-03   -0.13222E-03  9360   0.513E-03 0.302E-05
CGA:  22    -0.381329453838E+03   -0.35366E-04   -0.35487E-04  9360   0.287E-03 0.109E-05
CGA:  23    -0.381329507301E+03   -0.53462E-04   -0.53472E-04  9360   0.226E-03-0.145E-06
CGA:  24    -0.381329537272E+03   -0.29971E-04   -0.29971E-04  9360   0.136E-03-0.209E-06
CGA:  25    -0.381329552326E+03   -0.15055E-04   -0.15051E-04  9360   0.121E-03-0.295E-06
CGA:  26    -0.381329565146E+03   -0.12820E-04   -0.12804E-04  9360   0.806E-04-0.953E-06
CGA:  27    -0.381329575316E+03   -0.10170E-04   -0.10171E-04  9360   0.278E-04-0.331E-06
CGA:  28    -0.381329580870E+03   -0.55533E-05   -0.56089E-05  9360   0.444E-04-0.660E-06
  29 F= -.38132958E+03 E0= -.38132384E+03  d E =-.189108E-01  mag=    58.0000
       N       E                     dE             d eps       ncg     rms          ort
SDA:   1    -0.381235017782E+03    0.94558E-01    0.00000E+00  9360   0.290E+00 0.000E+00
CGA:   2    -0.381296518324E+03   -0.61501E-01   -0.61507E-01  9360   0.157E+00-0.546E-04
CGA:   3    -0.381323719840E+03   -0.27202E-01   -0.27132E-01  9360   0.585E-01 0.110E-02
CGA:   4    -0.381330552277E+03   -0.68324E-02   -0.68084E-02  9360   0.301E-01-0.864E-03
CGA:   5    -0.381332960326E+03   -0.24080E-02   -0.23973E-02  9360   0.127E-01 0.104E-04
CGA:   6    -0.381334018464E+03   -0.10581E-02   -0.10666E-02  9360   0.395E-02 0.981E-05
CGA:   7    -0.381334573192E+03   -0.55473E-03   -0.55517E-03  9360   0.114E-02-0.154E-04
CGA:   8    -0.381334751466E+03   -0.17827E-03   -0.17812E-03  9360   0.820E-03 0.382E-05
CGA:   9    -0.381334811586E+03   -0.60120E-04   -0.59991E-04  9360   0.335E-03 0.805E-06
CGA:  10    -0.381334852878E+03   -0.41292E-04   -0.41291E-04  9360   0.176E-03 0.694E-06
CGA:  11    -0.381334876881E+03   -0.24003E-04   -0.23996E-04  9360   0.710E-04 0.359E-06
CGA:  12    -0.381334887227E+03   -0.10346E-04   -0.10344E-04  9360   0.779E-04 0.121E-06
CGA:  13    -0.381334893928E+03   -0.67011E-05   -0.66908E-05  9360   0.307E-04-0.199E-06
  30 F= -.38133489E+03 E0= -.38132910E+03  d E =-.531306E-02  mag=    58.0000
       N       E                     dE             d eps       ncg     rms          ort
SDA:   1    -0.381329522673E+03    0.53646E-02    0.00000E+00  9360   0.249E-01 0.000E+00
CGA:   2    -0.381331983587E+03   -0.24609E-02   -0.24801E-02  9360   0.227E-01 0.219E-03
CGA:   3    -0.381334288543E+03   -0.23050E-02   -0.23021E-02  9360   0.905E-02-0.417E-04
CGA:   4    -0.381335356560E+03   -0.10680E-02   -0.10674E-02  9360   0.400E-02-0.106E-03
CGA:   5    -0.381335808804E+03   -0.45224E-03   -0.45237E-03  9360   0.120E-02 0.822E-05
CGA:   6    -0.381335921594E+03   -0.11279E-03   -0.11289E-03  9360   0.758E-03 0.140E-05
CGA:   7    -0.381335985590E+03   -0.63996E-04   -0.63920E-04  9360   0.173E-03-0.597E-06
CGA:   8    -0.381336010769E+03   -0.25179E-04   -0.25161E-04  9360   0.843E-04 0.594E-06
CGA:   9    -0.381336019390E+03   -0.86208E-05   -0.86184E-05  9360   0.577E-04-0.955E-07
  31 F= -.38133602E+03 E0= -.38133020E+03  d E =-.112546E-02  mag=    58.0000
       N       E                     dE             d eps       ncg     rms          ort
SDA:   1    -0.380952488614E+03    0.38352E+00    0.00000E+00  9360   0.110E+01 0.000E+00
CGA:   2    -0.381181635970E+03   -0.22915E+00   -0.23099E+00  9360   0.103E+01-0.193E-01
CGA:   3    -0.381266645354E+03   -0.85009E-01   -0.87478E-01  9360   0.486E+00 0.108E-01
CGA:   4    -0.381311218700E+03   -0.44573E-01   -0.45149E-01  9360   0.200E+00 0.400E-02
CGA:   5    -0.381330172277E+03   -0.18954E-01   -0.18605E-01  9360   0.569E-01-0.272E-02
CGA:   6    -0.381337451236E+03   -0.72790E-02   -0.72651E-02  9360   0.237E-01 0.656E-03
CGA:   7    -0.381339197514E+03   -0.17463E-02   -0.17299E-02  9360   0.101E-01 0.405E-04
CGA:   8    -0.381340495727E+03   -0.12982E-02   -0.12993E-02  9360   0.346E-02-0.485E-04
CGA:   9    -0.381340907736E+03   -0.41201E-03   -0.41199E-03  9360   0.234E-02 0.242E-05
CGA:  10    -0.381341103706E+03   -0.19597E-03   -0.19648E-03  9360   0.101E-02 0.450E-05
CGA:  11    -0.381341244516E+03   -0.14081E-03   -0.14089E-03  9360   0.452E-03-0.158E-05
CGA:  12    -0.381341298922E+03   -0.54406E-04   -0.54394E-04  9360   0.465E-03 0.182E-05
CGA:  13    -0.381341349708E+03   -0.50786E-04   -0.50781E-04  9360   0.172E-03-0.423E-06
CGA:  14    -0.381341379121E+03   -0.29413E-04   -0.29393E-04  9360   0.198E-03 0.389E-06
CGA:  15    -0.381341397129E+03   -0.18008E-04   -0.18000E-04  9360   0.910E-04-0.124E-06
CGA:  16    -0.381341410326E+03   -0.13197E-04   -0.13176E-04  9360   0.630E-04 0.727E-06
CGA:  17    -0.381341417142E+03   -0.68155E-05   -0.68159E-05  9360   0.399E-04 0.113E-06
  32 F= -.38134142E+03 E0= -.38133538E+03  d E =-.539775E-02  mag=    58.0000
       N       E                     dE             d eps       ncg     rms          ort
SDA:   1    -0.381333448749E+03    0.79616E-02    0.00000E+00  9360   0.352E-01 0.000E+00
CGA:   2    -0.381335999297E+03   -0.25505E-02   -0.25818E-02  9360   0.262E-01-0.788E-04
CGA:   3    -0.381339702570E+03   -0.37033E-02   -0.37072E-02  9360   0.810E-02-0.102E-03
CGA:   4    -0.381340976874E+03   -0.12743E-02   -0.12712E-02  9360   0.293E-02 0.581E-04
CGA:   5    -0.381341283733E+03   -0.30686E-03   -0.30615E-03  9360   0.151E-02-0.168E-04
CGA:   6    -0.381341402745E+03   -0.11901E-03   -0.11920E-03  9360   0.598E-03 0.915E-06
CGA:   7    -0.381341458590E+03   -0.55845E-04   -0.55926E-04  9360   0.188E-03 0.615E-06
CGA:   8    -0.381341483190E+03   -0.24600E-04   -0.24605E-04  9360   0.725E-04-0.289E-06
CGA:   9    -0.381341492675E+03   -0.94849E-05   -0.94894E-05  9360   0.423E-04-0.315E-06
  33 F= -.38134149E+03 E0= -.38133550E+03  d E =-.755333E-04  mag=    58.0000
       N       E                     dE             d eps       ncg     rms          ort
SDA:   1    -0.381334096066E+03    0.73871E-02    0.00000E+00  9360   0.328E-01 0.000E+00
CGA:   2    -0.381336557551E+03   -0.24615E-02   -0.24964E-02  9360   0.270E-01-0.781E-05
CGA:   3    -0.381340597061E+03   -0.40395E-02   -0.40423E-02  9360   0.771E-02-0.564E-04
CGA:   4    -0.381341661697E+03   -0.10646E-02   -0.10651E-02  9360   0.310E-02-0.138E-04
CGA:   5    -0.381341980604E+03   -0.31891E-03   -0.31903E-03  9360   0.120E-02 0.321E-05
CGA:   6    -0.381342077415E+03   -0.96812E-04   -0.96859E-04  9360   0.544E-03 0.780E-06
CGA:   7    -0.381342127062E+03   -0.49646E-04   -0.49609E-04  9360   0.180E-03-0.694E-06
CGA:   8    -0.381342149390E+03   -0.22329E-04   -0.22314E-04  9360   0.644E-04 0.884E-06
CGA:   9    -0.381342158704E+03   -0.93134E-05   -0.93174E-05  9360   0.415E-04-0.916E-07
  34 F= -.38134216E+03 E0= -.38133614E+03  d E =-.666029E-03  mag=    58.0000
       N       E                     dE             d eps       ncg     rms          ort
SDA:   1    -0.381070056465E+03    0.27209E+00    0.00000E+00  9360   0.721E+00 0.000E+00
CGA:   2    -0.381239342895E+03   -0.16929E+00   -0.17053E+00  9360   0.821E+00-0.107E-01
CGA:   3    -0.381295557038E+03   -0.56214E-01   -0.56965E-01  9360   0.314E+00-0.208E-02
CGA:   4    -0.381329301760E+03   -0.33745E-01   -0.33812E-01  9360   0.998E-01 0.351E-02
CGA:   5    -0.381338909271E+03   -0.96075E-02   -0.94605E-02  9360   0.375E-01-0.172E-02
CGA:   6    -0.381342815864E+03   -0.39066E-02   -0.39107E-02  9360   0.179E-01 0.207E-03
CGA:   7    -0.381344123972E+03   -0.13081E-02   -0.13112E-02  9360   0.553E-02-0.606E-05
CGA:   8    -0.381344991375E+03   -0.86740E-03   -0.86781E-03  9360   0.212E-02-0.691E-05
CGA:   9    -0.381345168926E+03   -0.17755E-03   -0.17716E-03  9360   0.136E-02-0.195E-05
CGA:  10    -0.381345328626E+03   -0.15970E-03   -0.15968E-03  9360   0.416E-03 0.375E-05
CGA:  11    -0.381345384532E+03   -0.55906E-04   -0.55915E-04  9360   0.352E-03-0.993E-07
CGA:  12    -0.381345419391E+03   -0.34859E-04   -0.34885E-04  9360   0.203E-03 0.128E-05
CGA:  13    -0.381345445607E+03   -0.26216E-04   -0.26216E-04  9360   0.130E-03 0.735E-08
CGA:  14    -0.381345463371E+03   -0.17764E-04   -0.17766E-04  9360   0.101E-03-0.924E-08
CGA:  15    -0.381345474858E+03   -0.11487E-04   -0.11486E-04  9360   0.744E-04-0.390E-06
CGA:  16    -0.381345482811E+03   -0.79532E-05   -0.79561E-05  9360   0.363E-04 0.312E-06
  35 F= -.38134548E+03 E0= -.38133938E+03  d E =-.332411E-02  mag=    58.0000
       N       E                     dE             d eps       ncg     rms          ort
SDA:   1    -0.380936513549E+03    0.40896E+00    0.00000E+00  9360   0.104E+01 0.000E+00
CGA:   2    -0.381217319895E+03   -0.28081E+00   -0.28246E+00  9360   0.968E+00-0.113E-01
CGA:   3    -0.381281566446E+03   -0.64247E-01   -0.71190E-01  9360   0.495E+00-0.263E-01
CGA:   4    -0.381329792817E+03   -0.48226E-01   -0.47973E-01  9360   0.998E-01-0.325E-02
CGA:   5    -0.381342040259E+03   -0.12247E-01   -0.12258E-01  9360   0.520E-01-0.196E-02
CGA:   6    -0.381345985956E+03   -0.39457E-02   -0.39364E-02  9360   0.180E-01 0.623E-05
CGA:   7    -0.381347817736E+03   -0.18318E-02   -0.18393E-02  9360   0.835E-02 0.154E-03
CGA:   8    -0.381348733679E+03   -0.91594E-03   -0.91495E-03  9360   0.313E-02-0.465E-04
CGA:   9    -0.381349040709E+03   -0.30703E-03   -0.30726E-03  9360   0.187E-02 0.514E-05
CGA:  10    -0.381349218635E+03   -0.17793E-03   -0.17793E-03  9360   0.739E-03 0.364E-06
CGA:  11    -0.381349316950E+03   -0.98316E-04   -0.98284E-04  9360   0.405E-03 0.166E-05
CGA:  12    -0.381349362655E+03   -0.45704E-04   -0.45700E-04  9360   0.378E-03-0.476E-06
CGA:  13    -0.381349407080E+03   -0.44425E-04   -0.44423E-04  9360   0.152E-03 0.117E-05
CGA:  14    -0.381349434316E+03   -0.27237E-04   -0.27279E-04  9360   0.197E-03-0.641E-06
CGA:  15    -0.381349451735E+03   -0.17419E-04   -0.17436E-04  9360   0.824E-04 0.265E-06
CGA:  16    -0.381349463824E+03   -0.12089E-04   -0.12091E-04  9360   0.640E-04-0.725E-07
CGA:  17    -0.381349471266E+03   -0.74415E-05   -0.74419E-05  9360   0.377E-04 0.215E-06
  36 F= -.38134947E+03 E0= -.38134339E+03  d E =-.398846E-02  mag=    58.0000
       N       E                     dE             d eps       ncg     rms          ort
SDA:   1    -0.377130661842E+03    0.42188E+01    0.00000E+00  9360   0.118E+02 0.000E+00
CGA:   2    -0.379300691250E+03   -0.21700E+01   -0.22455E+01  9360   0.189E+02-0.723E+00
CGA:   3    -0.380310588304E+03   -0.10099E+01   -0.12617E+01  9360   0.644E+01-0.133E+01
CGA:   4    -0.381014051387E+03   -0.70346E+00   -0.70303E+00  9360   0.183E+01-0.121E+00
CGA:   5    -0.381218153153E+03   -0.20410E+00   -0.20296E+00  9360   0.686E+00-0.788E-01
CGA:   6    -0.381285452416E+03   -0.67299E-01   -0.67598E-01  9360   0.347E+00 0.676E-02
CGA:   7    -0.381309467131E+03   -0.24015E-01   -0.24973E-01  9360   0.125E+00-0.334E-02
CGA:   8    -0.381325774374E+03   -0.16307E-01   -0.16389E-01  9360   0.495E-01-0.315E-02
CGA:   9    -0.381330247794E+03   -0.44734E-02   -0.45070E-02  9360   0.314E-01 0.367E-03
CGA:  10    -0.381333321436E+03   -0.30736E-02   -0.30737E-02  9360   0.106E-01 0.225E-05
CGA:  11    -0.381334663264E+03   -0.13418E-02   -0.13417E-02  9360   0.704E-02 0.918E-05
CGA:  12    -0.381335272804E+03   -0.60954E-03   -0.60757E-03  9360   0.352E-02-0.831E-05
CGA:  13    -0.381335785589E+03   -0.51278E-03   -0.51144E-03  9360   0.197E-02 0.322E-04
CGA:  14    -0.381335996280E+03   -0.21069E-03   -0.21058E-03  9360   0.170E-02-0.480E-05
CGA:  15    -0.381336211645E+03   -0.21536E-03   -0.21532E-03  9360   0.833E-03 0.303E-05
CGA:  16    -0.381336314162E+03   -0.10252E-03   -0.10251E-03  9360   0.708E-03 0.414E-06
CGA:  17    -0.381336395175E+03   -0.81013E-04   -0.81019E-04  9360   0.422E-03 0.254E-05
CGA:  18    -0.381336439454E+03   -0.44279E-04   -0.44266E-04  9360   0.233E-03-0.227E-06
CGA:  19    -0.381336473547E+03   -0.34093E-04   -0.34041E-04  9360   0.189E-03 0.157E-05
CGA:  20    -0.381336490449E+03   -0.16902E-04   -0.16901E-04  9360   0.943E-04 0.456E-07
CGA:  21    -0.381336506477E+03   -0.16027E-04   -0.16009E-04  9360   0.778E-04 0.336E-06
CGA:  22    -0.381336514133E+03   -0.76569E-05   -0.76489E-05  9360   0.523E-04-0.331E-06
  37 F= -.38133651E+03 E0= -.38133059E+03  d E =0.129571E-01  mag=    58.0000
       N       E                     dE             d eps       ncg     rms          ort
SDA:   1    -0.380319630740E+03    0.10169E+01    0.00000E+00  9360   0.346E+01 0.000E+00
CGA:   2    -0.380873321696E+03   -0.55369E+00   -0.54892E+00  9360   0.211E+01 0.898E-01
CGA:   3    -0.381082640520E+03   -0.20932E+00   -0.19688E+00  9360   0.179E+01-0.963E-01
CGA:   4    -0.381270777737E+03   -0.18814E+00   -0.18825E+00  9360   0.388E+00 0.578E-02
CGA:   5    -0.381328642493E+03   -0.57865E-01   -0.57612E-01  9360   0.162E+00 0.588E-02
CGA:   6    -0.381342497920E+03   -0.13855E-01   -0.13499E-01  9360   0.847E-01-0.316E-03
CGA:   7    -0.381349565076E+03   -0.70672E-02   -0.70498E-02  9360   0.367E-01-0.241E-04
CGA:   8    -0.381353527713E+03   -0.39626E-02   -0.39712E-02  9360   0.977E-02 0.473E-03
CGA:   9    -0.381355048349E+03   -0.15206E-02   -0.15244E-02  9360   0.103E-01-0.727E-04
CGA:  10    -0.381355680261E+03   -0.63191E-03   -0.63611E-03  9360   0.277E-02-0.229E-04
CGA:  11    -0.381356147983E+03   -0.46772E-03   -0.46543E-03  9360   0.178E-02 0.352E-04
CGA:  12    -0.381356364011E+03   -0.21603E-03   -0.21607E-03  9360   0.101E-02-0.103E-04
CGA:  13    -0.381356452830E+03   -0.88819E-04   -0.88946E-04  9360   0.833E-03 0.202E-05
CGA:  14    -0.381356562519E+03   -0.10969E-03   -0.10963E-03  9360   0.292E-03 0.305E-05
CGA:  15    -0.381356614137E+03   -0.51618E-04   -0.51631E-04  9360   0.275E-03-0.106E-06
CGA:  16    -0.381356643488E+03   -0.29351E-04   -0.29368E-04  9360   0.223E-03 0.963E-06
CGA:  17    -0.381356661722E+03   -0.18234E-04   -0.18232E-04  9360   0.801E-04-0.117E-06
CGA:  18    -0.381356678226E+03   -0.16503E-04   -0.16528E-04  9360   0.564E-04-0.264E-06
CGA:  19    -0.381356684829E+03   -0.66033E-05   -0.66047E-05  9360   0.404E-04 0.299E-06
  38 F= -.38135668E+03 E0= -.38135084E+03  d E =-.201707E-01  mag=    58.0000
       N       E                     dE             d eps       ncg     rms          ort
SDA:   1    -0.381345658604E+03    0.11020E-01    0.00000E+00  9360   0.418E-01 0.000E+00
CGA:   2    -0.381350037087E+03   -0.43785E-02   -0.43843E-02  9360   0.441E-01 0.133E-03
CGA:   3    -0.381354492767E+03   -0.44557E-02   -0.44655E-02  9360   0.162E-01 0.168E-03
CGA:   4    -0.381356204169E+03   -0.17114E-02   -0.17049E-02  9360   0.643E-02-0.180E-03
CGA:   5    -0.381357057670E+03   -0.85350E-03   -0.85302E-03  9360   0.148E-02 0.191E-04
CGA:   6    -0.381357225594E+03   -0.16792E-03   -0.16789E-03  9360   0.121E-02-0.437E-05
CGA:   7    -0.381357310503E+03   -0.84908E-04   -0.84966E-04  9360   0.217E-03-0.254E-06
CGA:   8    -0.381357349220E+03   -0.38717E-04   -0.38653E-04  9360   0.104E-03 0.102E-05
CGA:   9    -0.381357359985E+03   -0.10765E-04   -0.10772E-04  9360   0.635E-04 0.538E-06
CGA:  10    -0.381357366383E+03   -0.63983E-05   -0.63981E-05  9360   0.417E-04 0.159E-07
  39 F= -.38135737E+03 E0= -.38135147E+03  d E =-.681554E-03  mag=    58.0000
       N       E                     dE             d eps       ncg     rms          ort
SDA:   1    -0.381215728981E+03    0.14163E+00    0.00000E+00  9360   0.407E+00 0.000E+00
CGA:   2    -0.381292631779E+03   -0.76903E-01   -0.75751E-01  9360   0.464E+00 0.146E-01
CGA:   3    -0.381328809364E+03   -0.36178E-01   -0.33958E-01  9360   0.150E+00 0.766E-02
CGA:   4    -0.381349851786E+03   -0.21042E-01   -0.21095E-01  9360   0.567E-01-0.171E-02
CGA:   5    -0.381355434703E+03   -0.55829E-02   -0.56154E-02  9360   0.192E-01 0.556E-03
CGA:   6    -0.381357480769E+03   -0.20461E-02   -0.20458E-02  9360   0.105E-01-0.654E-05
CGA:   7    -0.381358220143E+03   -0.73937E-03   -0.73277E-03  9360   0.296E-02 0.218E-04
CGA:   8    -0.381358692935E+03   -0.47279E-03   -0.47218E-03  9360   0.104E-02 0.115E-04
CGA:   9    -0.381358814981E+03   -0.12205E-03   -0.12205E-03  9360   0.836E-03-0.278E-05
CGA:  10    -0.381358885955E+03   -0.70974E-04   -0.71065E-04  9360   0.348E-03 0.162E-05
CGA:  11    -0.381358929213E+03   -0.43258E-04   -0.43239E-04  9360   0.179E-03 0.142E-05
CGA:  12    -0.381358958211E+03   -0.28998E-04   -0.29000E-04  9360   0.138E-03 0.240E-07
CGA:  13    -0.381358972474E+03   -0.14262E-04   -0.14256E-04  9360   0.116E-03-0.347E-06
CGA:  14    -0.381358985698E+03   -0.13224E-04   -0.13225E-04  9360   0.573E-04 0.355E-06
CGA:  15    -0.381358995462E+03   -0.97638E-05   -0.97676E-05  9360   0.369E-04-0.703E-07
  40 F= -.38135900E+03 E0= -.38135295E+03  d E =-.162908E-02  mag=    58.0000
       N       E                     dE             d eps       ncg     rms          ort
SDA:   1    -0.381327891391E+03    0.31094E-01    0.00000E+00  9360   0.111E+00 0.000E+00
CGA:   2    -0.381339283034E+03   -0.11392E-01   -0.11473E-01  9360   0.123E+00 0.172E-02
CGA:   3    -0.381352505631E+03   -0.13223E-01   -0.13192E-01  9360   0.354E-01-0.854E-03
CGA:   4    -0.381357962406E+03   -0.54568E-02   -0.54565E-02  9360   0.123E-01 0.618E-05
[...]
CGA:  33    -0.381250235699E+03   -0.21414E-03   -0.21385E-03  9360   0.387E-02 0.942E-06
CGA:  34    -0.381250568218E+03   -0.33252E-03   -0.33269E-03  9360   0.689E-02-0.766E-05
CGA:  35    -0.381250864745E+03   -0.29653E-03   -0.29629E-03  9360   0.278E-02-0.140E-04
CGA:  36    -0.381250989957E+03   -0.12521E-03   -0.12501E-03  9360   0.250E-02-0.706E-05
SDA:  37    -0.381251161053E+03   -0.17110E-03   -0.17115E-03  9360   0.258E-02-0.502E-05
CGA:  38    -0.381251299517E+03   -0.13846E-03   -0.13853E-03  9360   0.119E-02 0.670E-05
CGA:  39    -0.381251460867E+03   -0.16135E-03   -0.16073E-03  9360   0.969E-03 0.841E-05
CGA:  40    -0.381251593368E+03   -0.13250E-03   -0.13235E-03  9360   0.282E-03 0.194E-05
CGA:  41    -0.381251635554E+03   -0.42186E-04   -0.42248E-04  9360   0.138E-03-0.646E-06
CGA:  42    -0.381251659625E+03   -0.24071E-04   -0.24536E-04  9360   0.180E-03-0.441E-05
CGA:  43    -0.381251670561E+03   -0.10936E-04   -0.10926E-04  9360   0.831E-04-0.696E-06
CGA:  44    -0.381251685907E+03   -0.15346E-04   -0.15135E-04  9360   0.400E-04 0.200E-05
CGA:  45    -0.381251692639E+03   -0.67322E-05   -0.65969E-05  9360   0.556E-04 0.170E-05
 108 F= -.38125169E+03 E0= -.38124537E+03  d E =0.126046E+00  mag=    58.0000
       N       E                     dE             d eps       ncg     rms          ort
SDA:   1    -0.379172643150E+03    0.20790E+01    0.00000E+00  9360   0.697E+01 0.000E+00
CGA:   2    -0.380400755566E+03   -0.12281E+01   -0.12274E+01  9360   0.366E+01 0.905E-02
CGA:   3    -0.380900735526E+03   -0.49998E+00   -0.49171E+00  9360   0.372E+01 0.171E+00
CGA:   4    -0.381158149422E+03   -0.25741E+00   -0.24977E+00  9360   0.105E+01-0.864E-01
CGA:   5    -0.381279551894E+03   -0.12140E+00   -0.12208E+00  9360   0.435E+00-0.173E-01
CGA:   6    -0.381313391119E+03   -0.33839E-01   -0.34010E-01  9360   0.206E+00 0.511E-02
CGA:   7    -0.381329647537E+03   -0.16256E-01   -0.16279E-01  9360   0.902E-01 0.556E-03
CGA:   8    -0.381338910161E+03   -0.92626E-02   -0.92967E-02  9360   0.370E-01-0.167E-02
CGA:   9    -0.381341895540E+03   -0.29854E-02   -0.29876E-02  9360   0.236E-01 0.109E-03
CGA:  10    -0.381344150669E+03   -0.22551E-02   -0.22539E-02  9360   0.876E-02 0.137E-03
CGA:  11    -0.381345076563E+03   -0.92589E-03   -0.92628E-03  9360   0.678E-02-0.127E-04
CGA:  12    -0.381345622799E+03   -0.54624E-03   -0.54586E-03  9360   0.296E-02-0.114E-04
CGA:  13    -0.381346006944E+03   -0.38415E-03   -0.38279E-03  9360   0.192E-02 0.285E-04
CGA:  14    -0.381346159394E+03   -0.15245E-03   -0.15245E-03  9360   0.119E-02-0.339E-08
CGA:  15    -0.381346316817E+03   -0.15742E-03   -0.15745E-03  9360   0.725E-03-0.275E-07
CGA:  16    -0.381346382311E+03   -0.65494E-04   -0.65499E-04  9360   0.509E-03 0.103E-05
CGA:  17    -0.381346437276E+03   -0.54964E-04   -0.54925E-04  9360   0.337E-03 0.236E-05
CGA:  18    -0.381346473081E+03   -0.35806E-04   -0.35812E-04  9360   0.184E-03-0.381E-06
CGA:  19    -0.381346489272E+03   -0.16190E-04   -0.16191E-04  9360   0.135E-03 0.965E-07
CGA:  20    -0.381346505740E+03   -0.16468E-04   -0.16484E-04  9360   0.700E-04-0.572E-06
CGA:  21    -0.381346512416E+03   -0.66758E-05   -0.66759E-05  9360   0.594E-04-0.413E-07
 109 F= -.38134651E+03 E0= -.38134006E+03  d E =-.948198E-01  mag=    58.0000
       N       E                     dE             d eps       ncg     rms          ort
SDA:   1    -0.380526245372E+03    0.82026E+00    0.00000E+00  9360   0.268E+01 0.000E+00
CGA:   2    -0.380982475843E+03   -0.45623E+00   -0.45625E+00  9360   0.204E+01 0.145E-02
CGA:   3    -0.381131434548E+03   -0.14896E+00   -0.15131E+00  9360   0.157E+01-0.342E-02
CGA:   4    -0.381296506523E+03   -0.16507E+00   -0.16515E+00  9360   0.400E+00-0.689E-02
CGA:   5    -0.381343410075E+03   -0.46904E-01   -0.47092E-01  9360   0.198E+00-0.666E-02
CGA:   6    -0.381358336416E+03   -0.14926E-01   -0.15031E-01  9360   0.967E-01 0.880E-03
CGA:   7    -0.381365165007E+03   -0.68286E-02   -0.68606E-02  9360   0.343E-01 0.990E-04
CGA:   8    -0.381369322430E+03   -0.41574E-02   -0.41881E-02  9360   0.153E-01-0.890E-03
CGA:   9    -0.381370527569E+03   -0.12051E-02   -0.12075E-02  9360   0.985E-02 0.410E-04
CGA:  10    -0.381371359959E+03   -0.83239E-03   -0.83378E-03  9360   0.378E-02 0.359E-04
CGA:  11    -0.381371854036E+03   -0.49408E-03   -0.49459E-03  9360   0.243E-02-0.105E-04
CGA:  12    -0.381372015554E+03   -0.16152E-03   -0.16141E-03  9360   0.123E-02 0.292E-06
CGA:  13    -0.381372209186E+03   -0.19363E-03   -0.19313E-03  9360   0.653E-03 0.754E-05
CGA:  14    -0.381372262988E+03   -0.53802E-04   -0.53781E-04  9360   0.509E-03-0.361E-06
CGA:  15    -0.381372325593E+03   -0.62605E-04   -0.62597E-04  9360   0.328E-03 0.606E-06
CGA:  16    -0.381372359643E+03   -0.34050E-04   -0.34046E-04  9360   0.188E-03 0.776E-06
CGA:  17    -0.381372377844E+03   -0.18201E-04   -0.18203E-04  9360   0.171E-03 0.533E-06
CGA:  18    -0.381372396646E+03   -0.18802E-04   -0.18806E-04  9360   0.712E-04-0.338E-06
CGA:  19    -0.381372404616E+03   -0.79694E-05   -0.79685E-05  9360   0.647E-04 0.667E-07
 110 F= -.38137240E+03 E0= -.38136588E+03  d E =-.258922E-01  mag=    58.0000
       N       E                     dE             d eps       ncg     rms          ort
SDA:   1    -0.381072831073E+03    0.29957E+00    0.00000E+00  9360   0.915E+00 0.000E+00
CGA:   2    -0.381231460420E+03   -0.15863E+00   -0.15820E+00  9360   0.103E+01 0.624E-02
CGA:   3    -0.381292833205E+03   -0.61373E-01   -0.61541E-01  9360   0.451E+00-0.100E-01
CGA:   4    -0.381355750518E+03   -0.62917E-01   -0.63117E-01  9360   0.111E+00-0.402E-02
CGA:   5    -0.381368352682E+03   -0.12602E-01   -0.12567E-01  9360   0.820E-01 0.203E-02
CGA:   6    -0.381373307276E+03   -0.49546E-02   -0.49402E-02  9360   0.221E-01 0.395E-04
CGA:   7    -0.381375677400E+03   -0.23701E-02   -0.23739E-02  9360   0.108E-01-0.404E-03
CGA:   8    -0.381376732253E+03   -0.10549E-02   -0.10551E-02  9360   0.537E-02 0.365E-04
CGA:   9    -0.381377101431E+03   -0.36918E-03   -0.37038E-03  9360   0.268E-02 0.181E-05
CGA:  10    -0.381377425083E+03   -0.32365E-03   -0.32374E-03  9360   0.112E-02-0.270E-05
CGA:  11    -0.381377533233E+03   -0.10815E-03   -0.10816E-03  9360   0.878E-03 0.162E-05
CGA:  12    -0.381377605019E+03   -0.71786E-04   -0.71792E-04  9360   0.411E-03 0.458E-07
CGA:  13    -0.381377664457E+03   -0.59438E-04   -0.59424E-04  9360   0.259E-03 0.320E-06
CGA:  14    -0.381377684247E+03   -0.19790E-04   -0.19786E-04  9360   0.192E-03-0.184E-06
CGA:  15    -0.381377713486E+03   -0.29239E-04   -0.29197E-04  9360   0.106E-03 0.800E-06
CGA:  16    -0.381377723336E+03   -0.98497E-05   -0.98472E-05  9360   0.902E-04-0.134E-06
 111 F= -.38137772E+03 E0= -.38137117E+03  d E =-.531872E-02  mag=    58.0000
       N       E                     dE             d eps       ncg     rms          ort
SDA:   1    -0.381187419797E+03    0.19029E+00    0.00000E+00  9360   0.549E+00 0.000E+00
CGA:   2    -0.381289937181E+03   -0.10252E+00   -0.10309E+00  9360   0.676E+00-0.621E-02
CGA:   3    -0.381330541972E+03   -0.40605E-01   -0.40893E-01  9360   0.304E+00-0.477E-02
CGA:   4    -0.381362291010E+03   -0.31749E-01   -0.31750E-01  9360   0.103E+00 0.200E-02
CGA:   5    -0.381372840664E+03   -0.10550E-01   -0.10531E-01  9360   0.345E-01-0.232E-02
CGA:   6    -0.381375966243E+03   -0.31256E-02   -0.31322E-02  9360   0.238E-01 0.199E-03
CGA:   7    -0.381377478048E+03   -0.15118E-02   -0.15178E-02  9360   0.591E-02-0.260E-04
CGA:   8    -0.381378237266E+03   -0.75922E-03   -0.76210E-03  9360   0.296E-02-0.772E-04
CGA:   9    -0.381378496303E+03   -0.25904E-03   -0.25910E-03  9360   0.211E-02 0.619E-06
CGA:  10    -0.381378649213E+03   -0.15291E-03   -0.15340E-03  9360   0.613E-03 0.218E-05
CGA:  11    -0.381378746082E+03   -0.96868E-04   -0.97021E-04  9360   0.461E-03-0.232E-05
CGA:  12    -0.381378776945E+03   -0.30863E-04   -0.30892E-04  9360   0.234E-03 0.455E-06
CGA:  13    -0.381378806619E+03   -0.29674E-04   -0.29669E-04  9360   0.177E-03 0.457E-07
CGA:  14    -0.381378827661E+03   -0.21043E-04   -0.21045E-04  9360   0.106E-03-0.123E-06
CGA:  15    -0.381378836526E+03   -0.88641E-05   -0.88590E-05  9360   0.906E-04-0.200E-06
CGA:  16    -0.381378849067E+03   -0.12541E-04   -0.12525E-04  9360   0.419E-04 0.440E-06
CGA:  17    -0.381378853845E+03   -0.47787E-05   -0.47791E-05  9360   0.423E-04-0.548E-07
 112 F= -.38137885E+03 E0= -.38137229E+03  d E =-.113051E-02  mag=    58.0000
       N       E                     dE             d eps       ncg     rms          ort
SDA:   1    -0.381312243166E+03    0.66606E-01    0.00000E+00  9360   0.178E+00 0.000E+00
CGA:   2    -0.381355091060E+03   -0.42848E-01   -0.42933E-01  9360   0.133E+00-0.661E-03
CGA:   3    -0.381370408902E+03   -0.15318E-01   -0.15310E-01  9360   0.628E-01 0.921E-03
CGA:   4    -0.381374800084E+03   -0.43912E-02   -0.43753E-02  9360   0.341E-01 0.312E-04
CGA:   5    -0.381377385941E+03   -0.25859E-02   -0.25744E-02  9360   0.904E-02-0.200E-04
CGA:   6    -0.381378417159E+03   -0.10312E-02   -0.10296E-02  9360   0.286E-02 0.146E-03
CGA:   7    -0.381378790459E+03   -0.37330E-03   -0.37463E-03  9360   0.119E-02-0.421E-04
CGA:   8    -0.381378887793E+03   -0.97333E-04   -0.97403E-04  9360   0.102E-02 0.115E-05
CGA:   9    -0.381378970128E+03   -0.82335E-04   -0.82408E-04  9360   0.219E-03 0.249E-06
CGA:  10    -0.381379004684E+03   -0.34556E-04   -0.34604E-04  9360   0.139E-03-0.762E-06
CGA:  11    -0.381379018407E+03   -0.13724E-04   -0.13723E-04  9360   0.966E-04-0.178E-06
CGA:  12    -0.381379025753E+03   -0.73455E-05   -0.73501E-05  9360   0.602E-04 0.358E-07
 113 F= -.38137903E+03 E0= -.38137246E+03  d E =-.171908E-03  mag=    58.0000
       N       E                     dE             d eps       ncg     rms          ort
SDA:   1    -0.381276462899E+03    0.10256E+00    0.00000E+00  9360   0.356E+00 0.000E+00
CGA:   2    -0.381309984840E+03   -0.33522E-01   -0.33451E-01  9360   0.458E+00-0.189E-02
CGA:   3    -0.381352325580E+03   -0.42341E-01   -0.42333E-01  9360   0.158E+00-0.266E-03
CGA:   4    -0.381369611758E+03   -0.17286E-01   -0.17281E-01  9360   0.488E-01 0.109E-02
CGA:   5    -0.381375926978E+03   -0.63152E-02   -0.63662E-02  9360   0.185E-01-0.155E-02
CGA:   6    -0.381377792077E+03   -0.18651E-02   -0.18687E-02  9360   0.480E-02 0.438E-03
CGA:   7    -0.381378547225E+03   -0.75515E-03   -0.75753E-03  9360   0.120E-02-0.419E-04
CGA:   8    -0.381378753023E+03   -0.20580E-03   -0.20548E-03  9360   0.823E-03 0.451E-05
CGA:   9    -0.381378802876E+03   -0.49854E-04   -0.49783E-04  9360   0.423E-03 0.195E-06
CGA:  10    -0.381378848245E+03   -0.45369E-04   -0.45367E-04  9360   0.157E-03 0.399E-07
CGA:  11    -0.381378870576E+03   -0.22330E-04   -0.22309E-04  9360   0.866E-04 0.403E-06
CGA:  12    -0.381378881465E+03   -0.10889E-04   -0.10894E-04  9360   0.602E-04-0.363E-06
CGA:  13    -0.381378886972E+03   -0.55074E-05   -0.54994E-05  9360   0.587E-04-0.359E-06
 114 F= -.38137889E+03 E0= -.38137230E+03  d E =0.138781E-03  mag=    58.0000
       N       E                     dE             d eps       ncg     rms          ort
SDA:   1    -0.381369263081E+03    0.96184E-02    0.00000E+00  9360   0.320E-01 0.000E+00
CGA:   2    -0.381373623203E+03   -0.43601E-02   -0.43377E-02  9360   0.304E-01 0.614E-03
CGA:   3    -0.381376636981E+03   -0.30138E-02   -0.30064E-02  9360   0.208E-01-0.170E-03
CGA:   4    -0.381377890438E+03   -0.12535E-02   -0.12428E-02  9360   0.592E-02 0.788E-04
CGA:   5    -0.381378711838E+03   -0.82140E-03   -0.82023E-03  9360   0.145E-02 0.292E-04
CGA:   6    -0.381378888604E+03   -0.17677E-03   -0.17710E-03  9360   0.768E-03-0.175E-04
CGA:   7    -0.381378944697E+03   -0.56093E-04   -0.56153E-04  9360   0.454E-03-0.175E-06
CGA:   8    -0.381378976149E+03   -0.31452E-04   -0.31493E-04  9360   0.114E-03-0.835E-06
CGA:   9    -0.381378993481E+03   -0.17332E-04   -0.17343E-04  9360   0.595E-04-0.207E-06
CGA:  10    -0.381379000430E+03   -0.69494E-05   -0.69486E-05  9360   0.176E-04 0.893E-07
 115 F= -.38137900E+03 E0= -.38137241E+03  d E =-.113458E-03  mag=    58.0000
       N       E                     dE             d eps       ncg     rms          ort
SDA:   1    -0.378899877221E+03    0.24791E+01    0.00000E+00  9360   0.675E+01 0.000E+00
CGA:   2    -0.380415008860E+03   -0.15151E+01   -0.14980E+01  9360   0.660E+01 0.172E+00
CGA:   3    -0.380840200521E+03   -0.42519E+00   -0.47098E+00  9360   0.400E+01-0.610E+00
CGA:   4    -0.381211493782E+03   -0.37129E+00   -0.36062E+00  9360   0.103E+01-0.181E+00
CGA:   5    -0.381306116167E+03   -0.94622E-01   -0.98239E-01  9360   0.325E+00 0.756E-01
CGA:   6    -0.381351771384E+03   -0.45655E-01   -0.46565E-01  9360   0.129E+00-0.328E-01
CGA:   7    -0.381361870988E+03   -0.10100E-01   -0.10267E-01  9360   0.680E-01 0.121E-02
CGA:   8    -0.381366665806E+03   -0.47948E-02   -0.48042E-02  9360   0.352E-01-0.536E-04
CGA:   9    -0.381370412079E+03   -0.37463E-02   -0.37431E-02  9360   0.101E-01-0.216E-03
CGA:  10    -0.381371645311E+03   -0.12332E-02   -0.12321E-02  9360   0.868E-02 0.613E-04
CGA:  11    -0.381372252667E+03   -0.60736E-03   -0.60836E-03  9360   0.341E-02 0.333E-07
CGA:  12    -0.381372599944E+03   -0.34728E-03   -0.34676E-03  9360   0.188E-02-0.228E-04
CGA:  13    -0.381372860135E+03   -0.26019E-03   -0.25975E-03  9360   0.146E-02 0.116E-04
CGA:  14    -0.381372965921E+03   -0.10579E-03   -0.10574E-03  9360   0.839E-03 0.844E-07
CGA:  15    -0.381373078951E+03   -0.11303E-03   -0.11306E-03  9360   0.499E-03-0.484E-06
CGA:  16    -0.381373131986E+03   -0.53036E-04   -0.53038E-04  9360   0.377E-03 0.975E-07
CGA:  17    -0.381373164875E+03   -0.32889E-04   -0.32905E-04  9360   0.250E-03 0.433E-06
CGA:  18    -0.381373191630E+03   -0.26754E-04   -0.26752E-04  9360   0.111E-03-0.585E-06
CGA:  19    -0.381373205505E+03   -0.13875E-04   -0.13864E-04  9360   0.108E-03 0.697E-06
CGA:  20    -0.381373213871E+03   -0.83660E-05   -0.83707E-05  9360   0.519E-04 0.143E-06
 116 F= -.38137321E+03 E0= -.38136650E+03  d E =0.578656E-02  mag=    58.0000
       N       E                     dE             d eps       ncg     rms          ort
SDA:   1    -0.380231221897E+03    0.11420E+01    0.00000E+00  9360   0.339E+01 0.000E+00
CGA:   2    -0.380841960761E+03   -0.61074E+00   -0.61140E+00  9360   0.412E+01-0.266E-02
CGA:   3    -0.381084801373E+03   -0.24284E+00   -0.24834E+00  9360   0.169E+01-0.163E+00
CGA:   4    -0.381294780126E+03   -0.20998E+00   -0.20884E+00  9360   0.429E+00 0.392E-01
CGA:   5    -0.381339872666E+03   -0.45093E-01   -0.44482E-01  9360   0.349E+00-0.227E-01
CGA:   6    -0.381361903923E+03   -0.22031E-01   -0.22054E-01  9360   0.109E+00-0.447E-03
CGA:   7    -0.381370831885E+03   -0.89280E-02   -0.92404E-02  9360   0.313E-01 0.295E-02
CGA:   8    -0.381375578815E+03   -0.47469E-02   -0.47696E-02  9360   0.187E-01-0.436E-03
CGA:   9    -0.381376675769E+03   -0.10970E-02   -0.10995E-02  9360   0.976E-02-0.153E-04
CGA:  10    -0.381377678957E+03   -0.10032E-02   -0.10033E-02  9360   0.394E-02 0.153E-04
CGA:  11    -0.381378223446E+03   -0.54449E-03   -0.54500E-03  9360   0.159E-02-0.113E-04
CGA:  12    -0.381378373803E+03   -0.15036E-03   -0.15052E-03  9360   0.169E-02 0.514E-05
CGA:  13    -0.381378519740E+03   -0.14594E-03   -0.14600E-03  9360   0.743E-03 0.665E-06
CGA:  14    -0.381378605730E+03   -0.85989E-04   -0.86078E-04  9360   0.322E-03-0.531E-05
CGA:  15    -0.381378674119E+03   -0.68390E-04   -0.67955E-04  9360   0.180E-03 0.411E-05
CGA:  16    -0.381378696379E+03   -0.22260E-04   -0.22259E-04  9360   0.187E-03 0.382E-06
CGA:  17    -0.381378709781E+03   -0.13402E-04   -0.13439E-04  9360   0.997E-04 0.948E-06
CGA:  18    -0.381378721593E+03   -0.11812E-04   -0.11806E-04  9360   0.444E-04 0.648E-06
CGA:  19    -0.381378728368E+03   -0.67752E-05   -0.67771E-05  9360   0.255E-04-0.322E-07
 117 F= -.38137873E+03 E0= -.38137222E+03  d E =-.551450E-02  mag=    58.0000
       N       E                     dE             d eps       ncg     rms          ort
SDA:   1    -0.381234866171E+03    0.14386E+00    0.00000E+00  9360   0.454E+00 0.000E+00
CGA:   2    -0.381296343936E+03   -0.61478E-01   -0.61340E-01  9360   0.659E+00 0.478E-02
CGA:   3    -0.381340754902E+03   -0.44411E-01   -0.43824E-01  9360   0.177E+00 0.127E-02
CGA:   4    -0.381367782332E+03   -0.27027E-01   -0.27012E-01  9360   0.563E-01 0.301E-03
CGA:   5    -0.381373830026E+03   -0.60477E-02   -0.60457E-02  9360   0.426E-01-0.943E-04
CGA:   6    -0.381376338265E+03   -0.25082E-02   -0.25115E-02  9360   0.117E-01-0.321E-04
CGA:   7    -0.381377726908E+03   -0.13886E-02   -0.13888E-02  9360   0.340E-02-0.188E-04
CGA:   8    -0.381378120615E+03   -0.39371E-03   -0.39367E-03  9360   0.312E-02 0.770E-05
CGA:   9    -0.381378320036E+03   -0.19942E-03   -0.19921E-03  9360   0.881E-03 0.130E-05
CGA:  10    -0.381378430242E+03   -0.11021E-03   -0.11024E-03  9360   0.569E-03-0.119E-05
CGA:  11    -0.381378488312E+03   -0.58071E-04   -0.58089E-04  9360   0.282E-03 0.582E-06
CGA:  12    -0.381378509727E+03   -0.21414E-04   -0.21429E-04  9360   0.196E-03 0.184E-06
CGA:  13    -0.381378534092E+03   -0.24365E-04   -0.24382E-04  9360   0.793E-04-0.831E-06
CGA:  14    -0.381378544456E+03   -0.10363E-04   -0.10357E-04  9360   0.816E-04 0.284E-06
CGA:  15    -0.381378550308E+03   -0.58524E-05   -0.58528E-05  9360   0.381E-04-0.186E-08
 118 F= -.38137855E+03 E0= -.38137191E+03  d E =0.178060E-03  mag=    58.0000
       N       E                     dE             d eps       ncg     rms          ort
SDA:   1    -0.381352201648E+03    0.26343E-01    0.00000E+00  9360   0.798E-01 0.000E+00
CGA:   2    -0.381364320355E+03   -0.12119E-01   -0.12112E-01  9360   0.129E+00 0.146E-03
CGA:   3    -0.381372321429E+03   -0.80011E-02   -0.79591E-02  9360   0.311E-01 0.183E-03
CGA:   4    -0.381377201845E+03   -0.48804E-02   -0.48759E-02  9360   0.851E-02 0.793E-04
CGA:   5    -0.381378182941E+03   -0.98110E-03   -0.98144E-03  9360   0.654E-02-0.810E-04
CGA:   6    -0.381378586982E+03   -0.40404E-03   -0.40495E-03  9360   0.210E-02-0.418E-05
CGA:   7    -0.381378761776E+03   -0.17479E-03   -0.17545E-03  9360   0.738E-03 0.378E-05
CGA:   8    -0.381378861925E+03   -0.10015E-03   -0.10021E-03  9360   0.278E-03-0.162E-05
CGA:   9    -0.381378886132E+03   -0.24206E-04   -0.24196E-04  9360   0.238E-03-0.413E-06
CGA:  10    -0.381378905640E+03   -0.19508E-04   -0.19518E-04  9360   0.783E-04 0.241E-06
CGA:  11    -0.381378915799E+03   -0.10159E-04   -0.10160E-04  9360   0.336E-04-0.454E-07
CGA:  12    -0.381378919654E+03   -0.38554E-05   -0.38537E-05  9360   0.389E-04 0.300E-06
 119 F= -.38137892E+03 E0= -.38137235E+03  d E =-.369346E-03  mag=    58.0000
       N       E                     dE             d eps       ncg     rms          ort
SDA:   1    -0.381330560074E+03    0.48356E-01    0.00000E+00  9360   0.146E+00 0.000E+00
CGA:   2    -0.381349639980E+03   -0.19080E-01   -0.19024E-01  9360   0.225E+00 0.168E-02
CGA:   3    -0.381366686558E+03   -0.17047E-01   -0.17082E-01  9360   0.718E-01-0.594E-04
CGA:   4    -0.381374179298E+03   -0.74927E-02   -0.74815E-02  9360   0.304E-01-0.181E-02
CGA:   5    -0.381377269960E+03   -0.30907E-02   -0.30927E-02  9360   0.761E-02 0.365E-03
CGA:   6    -0.381377906112E+03   -0.63615E-03   -0.63578E-03  9360   0.645E-02-0.454E-05
CGA:   7    -0.381378428811E+03   -0.52270E-03   -0.52245E-03  9360   0.107E-02-0.136E-05
CGA:   8    -0.381378591790E+03   -0.16298E-03   -0.16283E-03  9360   0.726E-03 0.246E-05
CGA:   9    -0.381378641110E+03   -0.49321E-04   -0.49342E-04  9360   0.372E-03 0.512E-06
CGA:  10    -0.381378674448E+03   -0.33338E-04   -0.33310E-04  9360   0.123E-03-0.727E-06
CGA:  11    -0.381378693151E+03   -0.18702E-04   -0.18682E-04  9360   0.847E-04 0.362E-06
CGA:  12    -0.381378698873E+03   -0.57228E-05   -0.57130E-05  9360   0.429E-04-0.213E-06
 120 F= -.38137870E+03 E0= -.38137217E+03  d E =0.220780E-03  mag=    58.0000
