       N       E                     dE             d eps       ncg     rms          ort
DAV:   1     0.736992199554E+04    0.73699E+04   -0.35095E+05  9568   0.175E+03
DAV:   2     0.488675343748E+03   -0.68812E+04   -0.64543E+04  9568   0.513E+02
DAV:   3    -0.316153891383E+03   -0.80483E+03   -0.78040E+03  9568   0.196E+02
DAV:   4    -0.349651316949E+03   -0.33497E+02   -0.33049E+02  9568   0.385E+01
DAV:   5    -0.351807324780E+03   -0.21560E+01   -0.21285E+01  9568   0.746E+00
SDA:   6    -0.171543028097E+03    0.18026E+03   -0.21285E+01  9568   0.145E+04 0.000E+00
CGA:   7    -0.262697031396E+03   -0.91154E+02   -0.12506E+03  9568   0.110E+04 0.133E+02
CGA:   8    -0.275029743698E+03   -0.12333E+02   -0.42076E+02  9568   0.102E+04-0.221E+03
CGA:   9    -0.259168561358E+03    0.15861E+02   -0.19243E+02  9568   0.222E+04-0.455E+03
CGA:  10    -0.262985471526E+03   -0.38169E+01   -0.29665E+02  9568   0.126E+04-0.287E+03
CGA:  11    -0.215950176754E+03    0.47035E+02   -0.42437E+02  9568   0.307E+04-0.484E+03
CGA:  12    -0.157251612749E+03    0.58699E+02   -0.60338E+02  9568   0.626E+04-0.439E+04
CGA:  13    -0.132946900808E+03    0.24305E+02   -0.29934E+03  9568   0.770E+04-0.521E+04
CGA:  14    -0.131842262031E+03    0.11046E+01   -0.29503E+03  9568   0.509E+04-0.445E+04
CGA:  15    -0.141586042143E+03   -0.97438E+01   -0.17975E+03  9568   0.558E+04-0.575E+04
CGA:  16    -0.260086232420E+03   -0.11850E+03   -0.13732E+03  9568   0.456E+04-0.482E+04
CGA:  17    -0.224981320993E+03    0.35105E+02   -0.16972E+03  9568   0.132E+04-0.751E+03
CGA:  18    -0.258154820838E+03   -0.33173E+02   -0.10872E+02  9568   0.162E+04 0.205E+04
CGA:  19    -0.220683478600E+03    0.37471E+02   -0.35591E+02  9568   0.774E+04-0.503E+04
CGA:  20    -0.198266032493E+03    0.22417E+02   -0.26514E+03  9568   0.473E+04-0.421E+04
CGA:  21    -0.284941016485E+03   -0.86675E+02   -0.11178E+03  9568   0.880E+03-0.326E+03
CGA:  22    -0.291297207013E+03   -0.63562E+01   -0.18600E+02  9568   0.154E+04-0.274E+03
CGA:  23    -0.266239943439E+03    0.25057E+02   -0.42638E+02  9568   0.969E+03-0.256E+03
CGA:  24    -0.293298527493E+03   -0.27059E+02   -0.19220E+02  9568   0.825E+03-0.140E+04
CGA:  25    -0.290866520866E+03    0.24320E+01   -0.22407E+02  9568   0.596E+03-0.328E+03
CGA:  26    -0.302335224890E+03   -0.11469E+02   -0.55701E+01  9568   0.142E+03 0.288E+03
CGA:  27    -0.301162977821E+03    0.11722E+01   -0.20847E+01  9568   0.393E+03-0.336E+03
CGA:  28    -0.292509582543E+03    0.86534E+01   -0.10772E+02  9568   0.598E+03-0.226E+03
CGA:  29    -0.291737932645E+03    0.77165E+00   -0.98246E+01  9568   0.153E+04-0.144E+04
CGA:  30    -0.276243155402E+03    0.15495E+02   -0.45807E+02  9568   0.126E+04-0.705E+03
CGA:  31    -0.301036469604E+03   -0.24793E+02   -0.12193E+02  9568   0.572E+03-0.107E+04
CGA:  32    -0.297192581633E+03    0.38439E+01   -0.10790E+02  9568   0.879E+03-0.462E+03
CGA:  33    -0.267904522418E+03    0.29288E+02   -0.15487E+02  9568   0.690E+04-0.298E+04
CGA:  34    -0.238668328864E+03    0.29236E+02   -0.20476E+03  9568   0.145E+04-0.101E+04
CGA:  35    -0.276902382546E+03   -0.38234E+02   -0.25751E+02  9568   0.672E+04-0.851E+04
CGA:  36    -0.249708671116E+03    0.27194E+02   -0.19092E+03  9568   0.160E+04-0.874E+03
CGA:  37    -0.212460737301E+03    0.37248E+02   -0.27342E+02  9568   0.310E+04-0.138E+04
CGA:  38    -0.248712067960E+03   -0.36251E+02   -0.48752E+02  9568   0.156E+04-0.169E+04
CGA:  39    -0.226197809006E+03    0.22514E+02   -0.29190E+02  9568   0.611E+04-0.431E+04
CGA:  40    -0.223101319904E+03    0.30965E+01   -0.14383E+03  9568   0.168E+04-0.154E+04
CGA:  41    -0.293426604408E+03   -0.70325E+02   -0.22397E+02  9568   0.276E+04-0.451E+04
CGA:  42    -0.288392440880E+03    0.50342E+01   -0.66777E+02  9568   0.698E+03-0.316E+03
CGA:  43    -0.301288683134E+03   -0.12896E+02   -0.59867E+01  9568   0.386E+03 0.547E+03
CGA:  44    -0.304870714394E+03   -0.35820E+01   -0.22754E+01  9568   0.981E+02 0.179E+03
CGA:  45    -0.305989683835E+03   -0.11190E+01   -0.67231E+00  9568   0.620E+02 0.890E+02
CGA:  46    -0.306881949131E+03   -0.89227E+00   -0.56766E+00  9568   0.212E+02 0.305E+02
CGA:  47    -0.307058150256E+03   -0.17620E+00   -0.11200E+00  9568   0.704E+01 0.171E+02
CGA:  48    -0.307161804729E+03   -0.10365E+00   -0.93485E-01  9568   0.428E+01 0.605E+00
CGA:  49    -0.307214551330E+03   -0.52747E-01   -0.60039E-01  9568   0.474E+01-0.419E+00
CGA:  50    -0.307347847431E+03   -0.13330E+00   -0.18338E+00  9568   0.297E+02-0.940E+01
CGA:  51    -0.307469497062E+03   -0.12165E+00   -0.18027E+00  9568   0.774E+01-0.906E+01
CGA:  52    -0.307525154808E+03   -0.55658E-01   -0.53422E-01  9568   0.204E+01 0.184E+00
CGA:  53    -0.307587105823E+03   -0.61951E-01   -0.61664E-01  9568   0.480E+01-0.683E-02
CGA:  54    -0.307626080269E+03   -0.38974E-01   -0.21483E-01  9568   0.339E+01 0.387E+01
CGA:  55    -0.307660074759E+03   -0.33994E-01   -0.37983E-01  9568   0.194E+01-0.262E+00
CGA:  56    -0.307697840441E+03   -0.37766E-01   -0.39352E-01  9568   0.574E+01 0.225E-02
CGA:  57    -0.307713253494E+03   -0.15413E-01   -0.78545E-02  9568   0.496E+01 0.553E+01
CGA:  58    -0.307740732109E+03   -0.27479E-01   -0.27194E-01  9568   0.123E+01 0.351E-01
CGA:  59    -0.307774792013E+03   -0.34060E-01   -0.33960E-01  9568   0.299E+01-0.175E-01
CGA:  60    -0.307863104679E+03   -0.88313E-01   -0.53551E-01  9568   0.270E+01 0.151E+01
CGA:  61    -0.307898259721E+03   -0.35155E-01   -0.39063E-01  9568   0.126E+01-0.123E+00
CGA:  62    -0.307955517876E+03   -0.57258E-01   -0.55357E-01  9568   0.316E+01 0.853E-01
CGA:  63    -0.307998634797E+03   -0.43117E-01   -0.24529E-01  9568   0.221E+01 0.253E+01
CGA:  64    -0.308032686912E+03   -0.34052E-01   -0.37196E-01  9568   0.157E+01-0.419E-01
CGA:  65    -0.308055109547E+03   -0.22423E-01   -0.22298E-01  9568   0.220E+01-0.586E-03
CGA:  66    -0.308108172576E+03   -0.53063E-01   -0.52475E-01  9568   0.509E+01-0.569E-01
CGA:  67    -0.308130199888E+03   -0.22027E-01   -0.11020E-01  9568   0.522E+01 0.495E+01
CGA:  68    -0.308180065461E+03   -0.49866E-01   -0.54056E-01  9568   0.226E+01-0.247E+00
CGA:  69    -0.308204858384E+03   -0.24793E-01   -0.25250E-01  9568   0.196E+01-0.202E-01
CGA:  70    -0.308291878964E+03   -0.87021E-01   -0.89722E-01  9568   0.692E+01-0.207E+00
CGA:  71    -0.308419433533E+03   -0.12755E+00   -0.69505E-01  9568   0.196E+02 0.373E+01
CGA:  72    -0.308559848600E+03   -0.14042E+00   -0.16239E+00  9568   0.875E+01-0.195E+01
CGA:  73    -0.308669947560E+03   -0.11010E+00   -0.11741E+00  9568   0.457E+01 0.121E-01
CGA:  74    -0.308755679650E+03   -0.85732E-01   -0.86842E-01  9568   0.647E+01 0.695E-01
CGA:  75    -0.308958240508E+03   -0.20256E+00   -0.19207E+00  9568   0.432E+01 0.114E+01
CGA:  76    -0.309061368340E+03   -0.10313E+00   -0.10561E+00  9568   0.219E+01 0.410E+00
CGA:  77    -0.309107541769E+03   -0.46173E-01   -0.45366E-01  9568   0.124E+01-0.370E-01
CGA:  78    -0.309152632242E+03   -0.45090E-01   -0.44277E-01  9568   0.189E+01 0.472E-01
CGA:  79    -0.309204712410E+03   -0.52080E-01   -0.51442E-01  9568   0.820E+00 0.171E+00
CGA:  80    -0.309225621940E+03   -0.20910E-01   -0.20844E-01  9568   0.545E+00-0.668E-01
CGA:  81    -0.309242554162E+03   -0.16932E-01   -0.16597E-01  9568   0.594E+00 0.250E-01
CGA:  82    -0.309261767085E+03   -0.19213E-01   -0.18929E-01  9568   0.691E+00 0.293E-01
CGA:  83    -0.309277736149E+03   -0.15969E-01   -0.15708E-01  9568   0.244E+00-0.185E-01
CGA:  84    -0.309286352862E+03   -0.86167E-02   -0.84736E-02  9568   0.231E+00 0.935E-02
CGA:  85    -0.309295346672E+03   -0.89938E-02   -0.88655E-02  9568   0.381E+00 0.693E-02
CGA:  86    -0.309306223545E+03   -0.10877E-01   -0.10956E-01  9568   0.181E+00-0.139E-01
CGA:  87    -0.309310417696E+03   -0.41942E-02   -0.42010E-02  9568   0.135E+00 0.177E-02
CGA:  88    -0.309316570165E+03   -0.61525E-02   -0.59383E-02  9568   0.940E-01 0.878E-02
CGA:  89    -0.309320274482E+03   -0.37043E-02   -0.36490E-02  9568   0.963E-01 0.247E-02
CGA:  90    -0.309323404519E+03   -0.31300E-02   -0.31051E-02  9568   0.646E-01 0.212E-02
CGA:  91    -0.309325495311E+03   -0.20908E-02   -0.20778E-02  9568   0.559E-01 0.301E-03
CGA:  92    -0.309327113027E+03   -0.16177E-02   -0.16146E-02  9568   0.307E-01-0.117E-03
CGA:  93    -0.309328464087E+03   -0.13511E-02   -0.13197E-02  9568   0.281E-01 0.945E-03
CGA:  94    -0.309329676345E+03   -0.12123E-02   -0.11974E-02  9568   0.269E-01 0.538E-03
CGA:  95    -0.309330844370E+03   -0.11680E-02   -0.11547E-02  9568   0.211E-01 0.644E-03
CGA:  96    -0.309331650753E+03   -0.80638E-03   -0.80439E-03  9568   0.217E-01 0.668E-04
CGA:  97    -0.309332401353E+03   -0.75060E-03   -0.74786E-03  9568   0.162E-01 0.343E-03
CGA:  98    -0.309332990991E+03   -0.58964E-03   -0.58699E-03  9568   0.132E-01 0.295E-03
CGA:  99    -0.309333540175E+03   -0.54918E-03   -0.55409E-03  9568   0.103E-01-0.355E-03
CGA: 100    -0.309333972992E+03   -0.43282E-03   -0.43013E-03  9568   0.783E-02 0.168E-03
CGA: 101    -0.309334269659E+03   -0.29667E-03   -0.29697E-03  9568   0.721E-02-0.377E-04
SDA: 102    -0.309334566311E+03   -0.29665E-03   -0.29632E-03  9568   0.727E-02 0.215E-04
CGA: 103    -0.309334657763E+03   -0.91452E-04   -0.91315E-04  9568   0.125E-02-0.301E-06
CGA: 104    -0.309334815334E+03   -0.15757E-03   -0.15595E-03  9568   0.426E-02 0.245E-04
CGA: 105    -0.309335204369E+03   -0.38903E-03   -0.39667E-03  9568   0.145E-01-0.153E-03
CGA: 106    -0.309335650602E+03   -0.44623E-03   -0.45077E-03  9568   0.307E-02 0.174E-03
CGA: 107    -0.309335806273E+03   -0.15567E-03   -0.15537E-03  9568   0.230E-02 0.152E-04
CGA: 108    -0.309335885432E+03   -0.79159E-04   -0.79086E-04  9568   0.271E-02-0.524E-05
CGA: 109    -0.309336019032E+03   -0.13360E-03   -0.13314E-03  9568   0.120E-02 0.316E-04
CGA: 110    -0.309336082539E+03   -0.63507E-04   -0.63294E-04  9568   0.209E-02 0.130E-04
CGA: 111    -0.309336136719E+03   -0.54180E-04   -0.53702E-04  9568   0.900E-03 0.830E-05
CGA: 112    -0.309336222140E+03   -0.85421E-04   -0.85696E-04  9568   0.206E-02-0.788E-05
CGA: 113    -0.309336278557E+03   -0.56417E-04   -0.57499E-04  9568   0.141E-02 0.648E-05
CGA: 114    -0.309336371909E+03   -0.93352E-04   -0.94892E-04  9568   0.112E-02-0.563E-04
CGA: 115    -0.309336450447E+03   -0.78539E-04   -0.81114E-04  9568   0.962E-03-0.784E-04
CGA: 116    -0.309336473972E+03   -0.23525E-04   -0.23925E-04  9568   0.729E-03 0.466E-05
CGA: 117    -0.309336508772E+03   -0.34800E-04   -0.34798E-04  9568   0.587E-03 0.508E-05
CGA: 118    -0.309336534431E+03   -0.25660E-04   -0.25660E-04  9568   0.948E-03 0.615E-05
CGA: 119    -0.309336565552E+03   -0.31121E-04   -0.31237E-04  9568   0.416E-03 0.847E-05
CGA: 120    -0.309336597249E+03   -0.31697E-04   -0.31599E-04  9568   0.520E-03 0.288E-05
CGA: 121    -0.309336626684E+03   -0.29435E-04   -0.29397E-04  9568   0.748E-03 0.312E-05
CGA: 122    -0.309336650016E+03   -0.23331E-04   -0.23292E-04  9568   0.479E-03 0.143E-05
CGA: 123    -0.309336683966E+03   -0.33951E-04   -0.33842E-04  9568   0.351E-03 0.423E-05
CGA: 124    -0.309336694961E+03   -0.10995E-04   -0.11031E-04  9568   0.464E-03 0.256E-05
CGA: 125    -0.309336718068E+03   -0.23107E-04   -0.23069E-04  9568   0.223E-03 0.769E-05
CGA: 126    -0.309336731581E+03   -0.13512E-04   -0.13447E-04  9568   0.401E-03 0.418E-05
CGA: 127    -0.309336743859E+03   -0.12278E-04   -0.12328E-04  9568   0.144E-03 0.350E-05
CGA: 128    -0.309336752668E+03   -0.88095E-05   -0.87867E-05  9568   0.142E-03 0.128E-05
CGA: 129    -0.309336763956E+03   -0.11288E-04   -0.11311E-04  9568   0.281E-03-0.767E-06
CGA: 130    -0.309336770179E+03   -0.62232E-05   -0.62104E-05  9568   0.135E-03 0.723E-07
   1 F= -.30933677E+03 E0= -.30931327E+03  d E =-.309337E+03  mag=    24.8532
       N       E                     dE             d eps       ncg     rms          ort
SDA:   1    -0.309374007736E+03   -0.37244E-01    0.00000E+00  9568   0.512E+00 0.000E+00
CGA:   2    -0.309380603969E+03   -0.65962E-02   -0.65565E-02  9568   0.297E-01 0.220E-02
CGA:   3    -0.309381939193E+03   -0.13352E-02   -0.13352E-02  9568   0.444E-01 0.841E-05
CGA:   4    -0.309383422549E+03   -0.14834E-02   -0.14792E-02  9568   0.466E-01-0.379E-04
CGA:   5    -0.309386115189E+03   -0.26926E-02   -0.26888E-02  9568   0.138E-01 0.217E-03
CGA:   6    -0.309386645979E+03   -0.53079E-03   -0.52999E-03  9568   0.738E-02-0.384E-04
CGA:   7    -0.309386819864E+03   -0.17388E-03   -0.17345E-03  9568   0.631E-02 0.514E-05
CGA:   8    -0.309387217456E+03   -0.39759E-03   -0.39806E-03  9568   0.391E-02-0.219E-04
CGA:   9    -0.309387368326E+03   -0.15087E-03   -0.15089E-03  9568   0.212E-02-0.157E-05
CGA:  10    -0.309387419691E+03   -0.51365E-04   -0.51299E-04  9568   0.979E-03-0.267E-05
CGA:  11    -0.309387467020E+03   -0.47329E-04   -0.47328E-04  9568   0.489E-03-0.242E-06
CGA:  12    -0.309387483662E+03   -0.16642E-04   -0.16648E-04  9568   0.711E-03 0.422E-06
CGA:  13    -0.309387509673E+03   -0.26011E-04   -0.26006E-04  9568   0.197E-03 0.291E-07
CGA:  14    -0.309387526372E+03   -0.16699E-04   -0.16606E-04  9568   0.940E-04 0.222E-05
CGA:  15    -0.309387532824E+03   -0.64516E-05   -0.64158E-05  9568   0.136E-03 0.161E-05
   2 F= -.30938753E+03 E0= -.30936372E+03  d E =-.507626E-01  mag=    24.8570
       N       E                     dE             d eps       ncg     rms          ort
SDA:   1    -0.303046309748E+03    0.63412E+01    0.00000E+00  9568   0.204E+02 0.000E+00
CGA:   2    -0.306452280130E+03   -0.34060E+01   -0.34049E+01  9568   0.127E+03 0.444E+00
CGA:   3    -0.308941408306E+03   -0.24891E+01   -0.27865E+01  9568   0.137E+02-0.166E+02
CGA:   4    -0.309303744646E+03   -0.36234E+00   -0.36568E+00  9568   0.120E+02-0.126E+00
CGA:   5    -0.309825383179E+03   -0.52164E+00   -0.52246E+00  9568   0.108E+02 0.384E-01
CGA:   6    -0.310171775088E+03   -0.34639E+00   -0.34075E+00  9568   0.531E+01-0.402E-01
CGA:   7    -0.310314479205E+03   -0.14270E+00   -0.13570E+00  9568   0.221E+01 0.918E-01
CGA:   8    -0.310405518006E+03   -0.91039E-01   -0.91342E-01  9568   0.182E+01 0.160E-01
CGA:   9    -0.310462460930E+03   -0.56943E-01   -0.56882E-01  9568   0.132E+01-0.136E-02
CGA:  10    -0.310513299307E+03   -0.50838E-01   -0.51063E-01  9568   0.672E+00 0.101E-01
CGA:  11    -0.310528864495E+03   -0.15565E-01   -0.15702E-01  9568   0.298E+00-0.279E-02
CGA:  12    -0.310545657868E+03   -0.16793E-01   -0.16852E-01  9568   0.409E+00-0.326E-02
CGA:  13    -0.310557632684E+03   -0.11975E-01   -0.11942E-01  9568   0.250E+00 0.210E-03
CGA:  14    -0.310567110577E+03   -0.94779E-02   -0.94893E-02  9568   0.169E+00 0.722E-03
CGA:  15    -0.310572082890E+03   -0.49723E-02   -0.49691E-02  9568   0.980E-01 0.814E-04
CGA:  16    -0.310576091213E+03   -0.40083E-02   -0.40116E-02  9568   0.905E-01 0.745E-03
CGA:  17    -0.310579846809E+03   -0.37556E-02   -0.37555E-02  9568   0.103E+00 0.190E-04
CGA:  18    -0.310583408356E+03   -0.35615E-02   -0.35659E-02  9568   0.568E-01 0.184E-03
CGA:  19    -0.310585561469E+03   -0.21531E-02   -0.21537E-02  9568   0.518E-01 0.787E-04
CGA:  20    -0.310587318882E+03   -0.17574E-02   -0.17578E-02  9568   0.317E-01 0.384E-04
CGA:  21    -0.310588800469E+03   -0.14816E-02   -0.14820E-02  9568   0.518E-01-0.313E-04
CGA:  22    -0.310590934191E+03   -0.21337E-02   -0.21338E-02  9568   0.324E-01 0.875E-04
CGA:  23    -0.310591913932E+03   -0.97974E-03   -0.97907E-03  9568   0.163E-01 0.129E-04
CGA:  24    -0.310592461926E+03   -0.54799E-03   -0.54870E-03  9568   0.154E-01 0.354E-04
CGA:  25    -0.310593379886E+03   -0.91796E-03   -0.91668E-03  9568   0.222E-01 0.637E-04
CGA:  26    -0.310593947817E+03   -0.56793E-03   -0.56786E-03  9568   0.721E-02 0.169E-04
CGA:  27    -0.310594232009E+03   -0.28419E-03   -0.28422E-03  9568   0.627E-02 0.156E-04
CGA:  28    -0.310594450183E+03   -0.21817E-03   -0.21813E-03  9568   0.566E-02 0.862E-05
CGA:  29    -0.310594727314E+03   -0.27713E-03   -0.27698E-03  9568   0.575E-02 0.215E-04
CGA:  30    -0.310594880670E+03   -0.15336E-03   -0.15360E-03  9568   0.249E-02 0.131E-04
CGA:  31    -0.310594993962E+03   -0.11329E-03   -0.11327E-03  9568   0.274E-02 0.535E-05
SDA:  32    -0.310595094663E+03   -0.10070E-03   -0.10072E-03  9568   0.224E-02 0.362E-05
CGA:  33    -0.310595126738E+03   -0.32075E-04   -0.32048E-04  9568   0.685E-03-0.126E-05
CGA:  34    -0.310595176837E+03   -0.50099E-04   -0.50378E-04  9568   0.117E-02-0.823E-05
CGA:  35    -0.310595271700E+03   -0.94863E-04   -0.95473E-04  9568   0.109E-02-0.149E-04
CGA:  36    -0.310595334530E+03   -0.62830E-04   -0.63019E-04  9568   0.869E-03-0.117E-04
CGA:  37    -0.310595350825E+03   -0.16295E-04   -0.16269E-04  9568   0.299E-03-0.183E-05
CGA:  38    -0.310595367329E+03   -0.16505E-04   -0.16498E-04  9568   0.437E-03 0.228E-06
CGA:  39    -0.310595383741E+03   -0.16412E-04   -0.16409E-04  9568   0.529E-03-0.302E-06
CGA:  40    -0.310595410087E+03   -0.26346E-04   -0.26339E-04  9568   0.217E-03 0.828E-06
CGA:  41    -0.310595426493E+03   -0.16406E-04   -0.16506E-04  9568   0.123E-03-0.307E-05
CGA:  42    -0.310595429682E+03   -0.31886E-05   -0.31610E-05  9568   0.147E-03-0.154E-05
CGA:  43    -0.310595441860E+03   -0.12178E-04   -0.12536E-04  9568   0.906E-04-0.847E-05
CGA:  44    -0.310595447101E+03   -0.52412E-05   -0.52816E-05  9568   0.811E-04-0.260E-05
   3 F= -.31059545E+03 E0= -.31057159E+03  d E =-.120791E+01  mag=    24.8585
       N       E                     dE             d eps       ncg     rms          ort
SDA:   1    -0.283983377690E+03    0.26612E+02    0.00000E+00  9568   0.200E+03 0.000E+00
CGA:   2    -0.288604059927E+03   -0.46207E+01   -0.57975E+01  9568   0.126E+03-0.140E+02
CGA:   3    -0.298127637890E+03   -0.95236E+01   -0.13812E+02  9568   0.127E+03 0.126E+02
CGA:   4    -0.304741939640E+03   -0.66143E+01   -0.60230E+01  9568   0.162E+03-0.606E+02
CGA:   5    -0.305081713579E+03   -0.33977E+00   -0.10321E+01  9568   0.148E+03-0.550E+02
CGA:   6    -0.308227986533E+03   -0.31463E+01   -0.22458E+01  9568   0.487E+02 0.185E+02
CGA:   7    -0.308942982161E+03   -0.71500E+00   -0.77204E+00  9568   0.440E+02-0.102E+02
CGA:   8    -0.309170352656E+03   -0.22737E+00   -0.33709E+00  9568   0.503E+02-0.114E+02
CGA:   9    -0.309450586405E+03   -0.28023E+00   -0.44404E+00  9568   0.509E+02-0.115E+02
CGA:  10    -0.309750788117E+03   -0.30020E+00   -0.40967E+00  9568   0.470E+02-0.109E+02
CGA:  11    -0.309982534023E+03   -0.23175E+00   -0.38106E+00  9568   0.444E+02-0.140E+02
CGA:  12    -0.310253111667E+03   -0.27058E+00   -0.24107E+00  9568   0.303E+02 0.365E+01
CGA:  13    -0.310492663494E+03   -0.23955E+00   -0.20545E+00  9568   0.210E+02 0.407E+01
CGA:  14    -0.310699198628E+03   -0.20654E+00   -0.19470E+00  9568   0.241E+02 0.837E+00
CGA:  15    -0.310854847005E+03   -0.15565E+00   -0.19972E+00  9568   0.218E+02-0.487E+01
CGA:  16    -0.310941679615E+03   -0.86833E-01   -0.11945E+00  9568   0.121E+02-0.348E+01
CGA:  17    -0.310997231109E+03   -0.55551E-01   -0.57842E-01  9568   0.573E+01-0.346E+00
CGA:  18    -0.311039180300E+03   -0.41949E-01   -0.39952E-01  9568   0.533E+01 0.223E+00
CGA:  19    -0.311105743867E+03   -0.66564E-01   -0.63979E-01  9568   0.105E+02 0.130E+00
CGA:  20    -0.311169645335E+03   -0.63901E-01   -0.37332E-01  9568   0.103E+02 0.745E+01
CGA:  21    -0.311269583626E+03   -0.99938E-01   -0.10457E+00  9568   0.830E+00-0.388E+00
CGA:  22    -0.311332178364E+03   -0.62595E-01   -0.62856E-01  9568   0.276E+01-0.498E-02
CGA:  23    -0.311406099924E+03   -0.73922E-01   -0.73758E-01  9568   0.243E+01-0.541E-01
CGA:  24    -0.311527813170E+03   -0.12171E+00   -0.11807E+00  9568   0.543E+00 0.144E+00
CGA:  25    -0.311539828723E+03   -0.12016E-01   -0.12062E-01  9568   0.370E+00 0.483E-03
CGA:  26    -0.311551853094E+03   -0.12024E-01   -0.11963E-01  9568   0.491E+00 0.108E-01
CGA:  27    -0.311578061172E+03   -0.26208E-01   -0.26433E-01  9568   0.375E+00-0.138E-01
CGA:  28    -0.311596973954E+03   -0.18913E-01   -0.18331E-01  9568   0.159E+00 0.244E-01
CGA:  29    -0.311600257151E+03   -0.32832E-02   -0.32710E-02  9568   0.120E+00 0.148E-03
CGA:  30    -0.311612507536E+03   -0.12250E-01   -0.11702E-01  9568   0.141E+00 0.618E-02
CGA:  31    -0.311621543133E+03   -0.90356E-02   -0.93010E-02  9568   0.153E+00-0.986E-02
CGA:  32    -0.311623872638E+03   -0.23295E-02   -0.24990E-02  9568   0.319E-01-0.451E-02
CGA:  33    -0.311626124357E+03   -0.22517E-02   -0.22140E-02  9568   0.538E-01 0.100E-02
CGA:  34    -0.311627608841E+03   -0.14845E-02   -0.14873E-02  9568   0.397E-01 0.574E-04
CGA:  35    -0.311630237580E+03   -0.26287E-02   -0.25583E-02  9568   0.393E-01 0.225E-02
CGA:  36    -0.311631763394E+03   -0.15258E-02   -0.15260E-02  9568   0.137E-01 0.135E-03
CGA:  37    -0.311632206961E+03   -0.44357E-03   -0.44356E-03  9568   0.191E-01 0.123E-04
CGA:  38    -0.311633347378E+03   -0.11404E-02   -0.11290E-02  9568   0.136E-01 0.450E-03
CGA:  39    -0.311633805226E+03   -0.45785E-03   -0.45907E-03  9568   0.141E-01 0.933E-04
CGA:  40    -0.311634483376E+03   -0.67815E-03   -0.67900E-03  9568   0.974E-02-0.563E-04
CGA:  41    -0.311635039759E+03   -0.55638E-03   -0.55383E-03  9568   0.992E-02 0.112E-03
CGA:  42    -0.311635421187E+03   -0.38143E-03   -0.38150E-03  9568   0.129E-01 0.242E-04
CGA:  43    -0.311635814254E+03   -0.39307E-03   -0.39140E-03  9568   0.517E-02-0.361E-04
CGA:  44    -0.311636341786E+03   -0.52753E-03   -0.51986E-03  9568   0.530E-02 0.134E-03
CGA:  45    -0.311636567972E+03   -0.22619E-03   -0.22618E-03  9568   0.811E-02-0.234E-05
CGA:  46    -0.311636843459E+03   -0.27549E-03   -0.27578E-03  9568   0.694E-02 0.299E-04
CGA:  47    -0.311637277966E+03   -0.43451E-03   -0.43092E-03  9568   0.259E-02 0.151E-03
CGA:  48    -0.311637437844E+03   -0.15988E-03   -0.16023E-03  9568   0.228E-02-0.138E-04
CGA:  49    -0.311637623532E+03   -0.18569E-03   -0.18318E-03  9568   0.475E-02 0.644E-04
CGA:  50    -0.311637762332E+03   -0.13880E-03   -0.13810E-03  9568   0.166E-02 0.496E-05
SDA:  51    -0.311637837337E+03   -0.75004E-04   -0.75006E-04  9568   0.164E-02-0.689E-06
CGA:  52    -0.311637867012E+03   -0.29675E-04   -0.29702E-04  9568   0.927E-03 0.765E-06
CGA:  53    -0.311637927195E+03   -0.60183E-04   -0.60068E-04  9568   0.138E-02 0.477E-05
CGA:  54    -0.311638029002E+03   -0.10181E-03   -0.10149E-03  9568   0.101E-02 0.104E-04
CGA:  55    -0.311638087911E+03   -0.58909E-04   -0.58811E-04  9568   0.133E-02 0.692E-05
CGA:  56    -0.311638130030E+03   -0.42119E-04   -0.42283E-04  9568   0.147E-02 0.177E-05
CGA:  57    -0.311638237978E+03   -0.10795E-03   -0.10799E-03  9568   0.232E-02-0.213E-05
CGA:  58    -0.311638290100E+03   -0.52122E-04   -0.52175E-04  9568   0.942E-03 0.295E-05
CGA:  59    -0.311638395012E+03   -0.10491E-03   -0.10446E-03  9568   0.593E-03 0.619E-05
CGA:  60    -0.311638436589E+03   -0.41577E-04   -0.41330E-04  9568   0.155E-02 0.109E-04
CGA:  61    -0.311638482927E+03   -0.46337E-04   -0.46515E-04  9568   0.929E-03 0.949E-05
CGA:  62    -0.311638538652E+03   -0.55725E-04   -0.55553E-04  9568   0.117E-02 0.153E-04
CGA:  63    -0.311638570870E+03   -0.32218E-04   -0.32377E-04  9568   0.543E-03 0.544E-05
CGA:  64    -0.311638603089E+03   -0.32219E-04   -0.32120E-04  9568   0.563E-03 0.765E-05
CGA:  65    -0.311638623984E+03   -0.20896E-04   -0.20904E-04  9568   0.835E-03 0.127E-05
CGA:  66    -0.311638660933E+03   -0.36949E-04   -0.36949E-04  9568   0.394E-03 0.682E-06
CGA:  67    -0.311638681337E+03   -0.20403E-04   -0.20397E-04  9568   0.298E-03 0.153E-05
CGA:  68    -0.311638697319E+03   -0.15982E-04   -0.15958E-04  9568   0.658E-03 0.417E-05
CGA:  69    -0.311638718828E+03   -0.21509E-04   -0.21555E-04  9568   0.304E-03 0.603E-05
CGA:  70    -0.311638736847E+03   -0.18018E-04   -0.17953E-04  9568   0.228E-03 0.626E-05
CGA:  71    -0.311638743504E+03   -0.66569E-05   -0.67138E-05  9568   0.191E-03 0.235E-05
CGA:  72    -0.311638756054E+03   -0.12551E-04   -0.12451E-04  9568   0.256E-03 0.564E-05
CGA:  73    -0.311638761296E+03   -0.52415E-05   -0.52945E-05  9568   0.677E-04 0.228E-05
   4 F= -.31163876E+03 E0= -.31161592E+03  d E =-.104331E+01  mag=    24.5594
       N       E                     dE             d eps       ncg     rms          ort
SDA:   1    -0.281472021071E+03    0.30167E+02    0.00000E+00  9568   0.257E+03 0.000E+00
CGA:   2    -0.288328358464E+03   -0.68563E+01   -0.82371E+01  9568   0.114E+03 0.123E+02
CGA:   3    -0.297205287562E+03   -0.88769E+01   -0.85190E+01  9568   0.122E+03 0.224E+02
CGA:   4    -0.304922093650E+03   -0.77168E+01   -0.75968E+01  9568   0.656E+02 0.232E+02
CGA:   5    -0.306480852914E+03   -0.15588E+01   -0.22716E+01  9568   0.112E+03-0.681E+01
CGA:   6    -0.308407968197E+03   -0.19271E+01   -0.13739E+01  9568   0.576E+02 0.303E+02
CGA:   7    -0.308597496819E+03   -0.18953E+00   -0.87980E+00  9568   0.117E+03-0.600E+02
CGA:   8    -0.309457559341E+03   -0.86006E+00   -0.28097E+01  9568   0.291E+02-0.899E+01
CGA:   9    -0.310102071561E+03   -0.64451E+00   -0.54508E+00  9568   0.122E+02 0.275E+01
CGA:  10    -0.310306162711E+03   -0.20409E+00   -0.13952E+00  9568   0.888E+01 0.522E+01
CGA:  11    -0.310526995259E+03   -0.22083E+00   -0.21384E+00  9568   0.110E+02 0.530E-01
CGA:  12    -0.310654566072E+03   -0.12757E+00   -0.12140E+00  9568   0.153E+02 0.305E+00
CGA:  13    -0.310916366353E+03   -0.26180E+00   -0.29639E+00  9568   0.366E+02-0.944E+00
CGA:  14    -0.311276308604E+03   -0.35994E+00   -0.37272E+00  9568   0.343E+02-0.183E+01
CGA:  15    -0.311507170981E+03   -0.23086E+00   -0.19542E+00  9568   0.141E+02 0.429E+01
CGA:  16    -0.311582241049E+03   -0.75070E-01   -0.87937E-01  9568   0.376E+01-0.244E+01
CGA:  17    -0.311605070501E+03   -0.22829E-01   -0.27049E-01  9568   0.345E+01-0.408E+00
CGA:  18    -0.311642793697E+03   -0.37723E-01   -0.38955E-01  9568   0.457E+01-0.758E-01
CGA:  19    -0.311704911676E+03   -0.62118E-01   -0.70664E-01  9568   0.538E+01-0.270E+00
CGA:  20    -0.311778094689E+03   -0.73183E-01   -0.74379E-01  9568   0.628E+01-0.702E-01
CGA:  21    -0.311879711851E+03   -0.10162E+00   -0.99412E-01  9568   0.429E+01 0.439E-01
CGA:  22    -0.311918790165E+03   -0.39078E-01   -0.38646E-01  9568   0.185E+01 0.319E-01
CGA:  23    -0.311943535176E+03   -0.24745E-01   -0.24726E-01  9568   0.187E+01-0.147E-02
CGA:  24    -0.311969616169E+03   -0.26081E-01   -0.27690E-01  9568   0.131E+01-0.428E-01
CGA:  25    -0.311982016552E+03   -0.12400E-01   -0.12479E-01  9568   0.564E+00-0.645E-02
CGA:  26    -0.311992144718E+03   -0.10128E-01   -0.10232E-01  9568   0.920E+00 0.124E-02
CGA:  27    -0.312014013861E+03   -0.21869E-01   -0.21848E-01  9568   0.151E+01-0.576E-02
CGA:  28    -0.312035927294E+03   -0.21913E-01   -0.22419E-01  9568   0.104E+01-0.910E-02
CGA:  29    -0.312048228281E+03   -0.12301E-01   -0.12965E-01  9568   0.475E+00-0.250E-01
CGA:  30    -0.312055630446E+03   -0.74022E-02   -0.75255E-02  9568   0.392E+00 0.131E-03
CGA:  31    -0.312063303890E+03   -0.76734E-02   -0.76709E-02  9568   0.305E+00-0.250E-03
CGA:  32    -0.312069067337E+03   -0.57634E-02   -0.57657E-02  9568   0.309E+00 0.119E-03
CGA:  33    -0.312076536474E+03   -0.74691E-02   -0.74621E-02  9568   0.257E+00 0.462E-02
CGA:  34    -0.312080923907E+03   -0.43874E-02   -0.44085E-02  9568   0.209E+00 0.404E-03
CGA:  35    -0.312087472389E+03   -0.65485E-02   -0.65647E-02  9568   0.234E+00-0.152E-02
CGA:  36    -0.312090772314E+03   -0.32999E-02   -0.33163E-02  9568   0.875E-01-0.290E-03
CGA:  37    -0.312092740818E+03   -0.19685E-02   -0.19681E-02  9568   0.875E-01-0.455E-03
SDA:  38    -0.312094342124E+03   -0.16013E-02   -0.16061E-02  9568   0.539E-01 0.249E-03
CGA:  39    -0.312095713118E+03   -0.13710E-02   -0.13711E-02  9568   0.347E-01-0.115E-04
CGA:  40    -0.312097846253E+03   -0.21331E-02   -0.21011E-02  9568   0.348E-01 0.945E-03
CGA:  41    -0.312100642573E+03   -0.27963E-02   -0.27646E-02  9568   0.285E-01 0.705E-03
CGA:  42    -0.312102017689E+03   -0.13751E-02   -0.13695E-02  9568   0.362E-01 0.261E-03
CGA:  43    -0.312102887688E+03   -0.87000E-03   -0.87089E-03  9568   0.164E-01 0.784E-04
CGA:  44    -0.312103564833E+03   -0.67714E-03   -0.67770E-03  9568   0.119E-01-0.312E-04
CGA:  45    -0.312104187754E+03   -0.62292E-03   -0.62266E-03  9568   0.154E-01 0.124E-04
CGA:  46    -0.312104714554E+03   -0.52680E-03   -0.52618E-03  9568   0.416E-02 0.956E-04
CGA:  47    -0.312105057629E+03   -0.34308E-03   -0.34162E-03  9568   0.117E-01 0.320E-04
CGA:  48    -0.312105330941E+03   -0.27331E-03   -0.27392E-03  9568   0.473E-02 0.261E-05
CGA:  49    -0.312106031873E+03   -0.70093E-03   -0.69819E-03  9568   0.708E-02 0.295E-04
CGA:  50    -0.312106280668E+03   -0.24879E-03   -0.24870E-03  9568   0.703E-02-0.131E-04
CGA:  51    -0.312106458640E+03   -0.17797E-03   -0.17871E-03  9568   0.302E-02 0.659E-05
CGA:  52    -0.312106802377E+03   -0.34374E-03   -0.33447E-03  9568   0.827E-02 0.134E-03
CGA:  53    -0.312107062598E+03   -0.26022E-03   -0.26114E-03  9568   0.310E-02 0.313E-04
CGA:  54    -0.312107200062E+03   -0.13746E-03   -0.13739E-03  9568   0.411E-02 0.166E-04
CGA:  55    -0.312107320698E+03   -0.12064E-03   -0.12076E-03  9568   0.258E-02 0.790E-05
CGA:  56    -0.312107429342E+03   -0.10864E-03   -0.10864E-03  9568   0.126E-02 0.236E-05
CGA:  57    -0.312107513578E+03   -0.84236E-04   -0.84369E-04  9568   0.186E-02-0.495E-05
CGA:  58    -0.312107561507E+03   -0.47928E-04   -0.47875E-04  9568   0.107E-02-0.335E-05
CGA:  59    -0.312107612183E+03   -0.50677E-04   -0.50653E-04  9568   0.159E-02 0.110E-05
CGA:  60    -0.312107675469E+03   -0.63286E-04   -0.63278E-04  9568   0.562E-03-0.363E-05
CGA:  61    -0.312107709579E+03   -0.34110E-04   -0.34071E-04  9568   0.907E-03 0.174E-05
CGA:  62    -0.312107732445E+03   -0.22865E-04   -0.22876E-04  9568   0.512E-03 0.161E-05
CGA:  63    -0.312107759805E+03   -0.27361E-04   -0.27323E-04  9568   0.461E-03 0.288E-05
CGA:  64    -0.312107774482E+03   -0.14676E-04   -0.14688E-04  9568   0.260E-03 0.685E-06
CGA:  65    -0.312107792863E+03   -0.18381E-04   -0.18363E-04  9568   0.542E-03 0.532E-06
CGA:  66    -0.312107804986E+03   -0.12123E-04   -0.12108E-04  9568   0.165E-03-0.654E-07
CGA:  67    -0.312107814487E+03   -0.95010E-05   -0.95180E-05  9568   0.182E-03-0.117E-05
   5 F= -.31210781E+03 E0= -.31208564E+03  d E =-.469053E+00  mag=    24.5096
       N       E                     dE             d eps       ncg     rms          ort
SDA:   1    -0.291812596984E+03    0.20295E+02    0.00000E+00  9568   0.191E+03 0.000E+00
CGA:   2    -0.295339781768E+03   -0.35272E+01   -0.48804E+01  9568   0.127E+03-0.340E+02
CGA:   3    -0.300008850958E+03   -0.46691E+01   -0.45860E+01  9568   0.194E+03 0.223E+02
CGA:   4    -0.300066350256E+03   -0.57499E-01   -0.43885E+01  9568   0.518E+03-0.114E+03
CGA:   5    -0.303216514802E+03   -0.31502E+01   -0.10756E+02  9568   0.117E+03-0.506E+02
CGA:   6    -0.305340298948E+03   -0.21238E+01   -0.18549E+01  9568   0.109E+03 0.336E+02
CGA:   7    -0.304816293667E+03    0.52401E+00   -0.13239E+01  9568   0.248E+03-0.281E+03
CGA:   8    -0.305960303840E+03   -0.11440E+01   -0.40307E+01  9568   0.843E+02-0.819E+02
CGA:   9    -0.307665062314E+03   -0.17048E+01   -0.95819E+00  9568   0.153E+02 0.239E+02
CGA:  10    -0.307927523850E+03   -0.26246E+00   -0.22400E+00  9568   0.184E+02 0.221E+01
CGA:  11    -0.308790332923E+03   -0.86281E+00   -0.83501E+00  9568   0.817E+02 0.319E+01
CGA:  12    -0.310009967362E+03   -0.12196E+01   -0.14435E+01  9568   0.106E+03-0.120E+02
CGA:  13    -0.311353326690E+03   -0.13434E+01   -0.10946E+01  9568   0.326E+02 0.125E+02
CGA:  14    -0.311583984016E+03   -0.23066E+00   -0.31673E+00  9568   0.854E+01-0.970E+01
CGA:  15    -0.311683070215E+03   -0.99086E-01   -0.87616E-01  9568   0.455E+01 0.544E+00
CGA:  16    -0.311731311220E+03   -0.48241E-01   -0.42136E-01  9568   0.221E+01 0.557E+00
CGA:  17    -0.311785853998E+03   -0.54543E-01   -0.54593E-01  9568   0.587E+01 0.755E-03
CGA:  18    -0.311900686195E+03   -0.11483E+00   -0.11501E+00  9568   0.956E+01 0.222E-03
CGA:  19    -0.311994408215E+03   -0.93722E-01   -0.10034E+00  9568   0.442E+01-0.440E+00
CGA:  20    -0.312038970834E+03   -0.44563E-01   -0.47771E-01  9568   0.333E+01-0.176E+00
CGA:  21    -0.312091254751E+03   -0.52284E-01   -0.54433E-01  9568   0.240E+01 0.957E-03
CGA:  22    -0.312118618478E+03   -0.27364E-01   -0.26761E-01  9568   0.957E+00 0.314E-01
CGA:  23    -0.312134754898E+03   -0.16136E-01   -0.15820E-01  9568   0.100E+01 0.219E-02
CGA:  24    -0.312156511467E+03   -0.21757E-01   -0.21733E-01  9568   0.166E+01-0.255E-02
CGA:  25    -0.312187279495E+03   -0.30768E-01   -0.31022E-01  9568   0.142E+01 0.732E-02
CGA:  26    -0.312206708230E+03   -0.19429E-01   -0.19746E-01  9568   0.920E+00-0.765E-02
CGA:  27    -0.312225745095E+03   -0.19037E-01   -0.19083E-01  9568   0.972E+00 0.536E-02
CGA:  28    -0.312238772300E+03   -0.13027E-01   -0.13061E-01  9568   0.315E+00-0.120E-02
CGA:  29    -0.312243580426E+03   -0.48081E-02   -0.48724E-02  9568   0.293E+00 0.267E-04
CGA:  30    -0.312253163563E+03   -0.95831E-02   -0.95958E-02  9568   0.482E+00-0.103E-02
CGA:  31    -0.312261801530E+03   -0.86380E-02   -0.86625E-02  9568   0.330E+00 0.104E-02
CGA:  32    -0.312267933131E+03   -0.61316E-02   -0.61398E-02  9568   0.220E+00 0.457E-03
CGA:  33    -0.312271295427E+03   -0.33623E-02   -0.33507E-02  9568   0.114E+00 0.246E-04
CGA:  34    -0.312273981403E+03   -0.26860E-02   -0.26873E-02  9568   0.160E+00-0.673E-03
CGA:  35    -0.312277966116E+03   -0.39847E-02   -0.39815E-02  9568   0.169E+00 0.654E-03
CGA:  36    -0.312280955143E+03   -0.29890E-02   -0.29952E-02  9568   0.913E-01 0.145E-03
CGA:  37    -0.312282586248E+03   -0.16311E-02   -0.16308E-02  9568   0.778E-01-0.769E-04
SDA:  38    -0.312284669133E+03   -0.20829E-02   -0.20863E-02  9568   0.680E-01-0.541E-03
CGA:  39    -0.312285888287E+03   -0.12192E-02   -0.12199E-02  9568   0.341E-01 0.617E-04
CGA:  40    -0.312287686596E+03   -0.17983E-02   -0.17953E-02  9568   0.399E-01 0.108E-03
CGA:  41    -0.312289007069E+03   -0.13205E-02   -0.13193E-02  9568   0.202E-01 0.107E-03
CGA:  42    -0.312289904899E+03   -0.89783E-03   -0.90702E-03  9568   0.125E-01-0.427E-03
CGA:  43    -0.312290943390E+03   -0.10385E-02   -0.10406E-02  9568   0.157E-01-0.452E-04
CGA:  44    -0.312291277917E+03   -0.33453E-03   -0.33493E-03  9568   0.819E-02 0.994E-05
CGA:  45    -0.312291542398E+03   -0.26448E-03   -0.26482E-03  9568   0.325E-02-0.527E-04
CGA:  46    -0.312291937451E+03   -0.39505E-03   -0.39868E-03  9568   0.667E-02-0.371E-04
CGA:  47    -0.312292115873E+03   -0.17842E-03   -0.17844E-03  9568   0.317E-02-0.796E-05
CGA:  48    -0.312292248867E+03   -0.13299E-03   -0.13296E-03  9568   0.345E-02 0.142E-05
CGA:  49    -0.312292333007E+03   -0.84140E-04   -0.84154E-04  9568   0.162E-02 0.708E-06
CGA:  50    -0.312292530003E+03   -0.19700E-03   -0.19507E-03  9568   0.174E-02 0.227E-04
CGA:  51    -0.312292625507E+03   -0.95504E-04   -0.95383E-04  9568   0.243E-02 0.640E-05
CGA:  52    -0.312292678976E+03   -0.53468E-04   -0.53471E-04  9568   0.106E-02 0.572E-06
CGA:  53    -0.312292753120E+03   -0.74144E-04   -0.74345E-04  9568   0.121E-02-0.633E-05
CGA:  54    -0.312292810268E+03   -0.57148E-04   -0.57209E-04  9568   0.100E-02-0.707E-05
CGA:  55    -0.312292841591E+03   -0.31323E-04   -0.31308E-04  9568   0.664E-03-0.262E-05
CGA:  56    -0.312292869750E+03   -0.28159E-04   -0.28155E-04  9568   0.977E-03 0.477E-06
CGA:  57    -0.312292903880E+03   -0.34129E-04   -0.34138E-04  9568   0.526E-03 0.128E-05
CGA:  58    -0.312292953116E+03   -0.49236E-04   -0.48889E-04  9568   0.423E-03 0.623E-05
CGA:  59    -0.312292971633E+03   -0.18517E-04   -0.18513E-04  9568   0.664E-03 0.173E-05
CGA:  60    -0.312292987733E+03   -0.16100E-04   -0.16137E-04  9568   0.113E-03 0.114E-05
CGA:  61    -0.312293003239E+03   -0.15506E-04   -0.15797E-04  9568   0.260E-03-0.305E-05
CGA:  62    -0.312293011744E+03   -0.85044E-05   -0.84823E-05  9568   0.172E-03-0.211E-05
   6 F= -.31229301E+03 E0= -.31227062E+03  d E =-.185197E+00  mag=    24.5431
       N       E                     dE             d eps       ncg     rms          ort
SDA:   1    -0.288143568405E+03    0.24149E+02    0.00000E+00  9568   0.144E+03 0.000E+00
CGA:   2    -0.291539601773E+03   -0.33960E+01   -0.38994E+01  9568   0.142E+03-0.254E+02
CGA:   3    -0.298552864538E+03   -0.70133E+01   -0.66301E+01  9568   0.334E+03 0.310E+02
CGA:   4    -0.300361214255E+03   -0.18083E+01   -0.87796E+01  9568   0.245E+03-0.447E+02
CGA:   5    -0.306450342587E+03   -0.60891E+01   -0.54917E+01  9568   0.552E+02 0.130E+02
CGA:   6    -0.307469404473E+03   -0.10191E+01   -0.12643E+01  9568   0.763E+02-0.993E+01
CGA:   7    -0.308529997258E+03   -0.10606E+01   -0.10207E+01  9568   0.500E+02-0.287E+01
CGA:   8    -0.310030269721E+03   -0.15003E+01   -0.15283E+01  9568   0.474E+02 0.743E+00
CGA:   9    -0.311036000048E+03   -0.10057E+01   -0.10656E+01  9568   0.215E+02-0.185E+01
CGA:  10    -0.311273255356E+03   -0.23726E+00   -0.22518E+00  9568   0.108E+02 0.410E-02
CGA:  11    -0.311561616391E+03   -0.28836E+00   -0.28762E+00  9568   0.120E+02-0.541E-01
CGA:  12    -0.311675230403E+03   -0.11361E+00   -0.11364E+00  9568   0.681E+01-0.244E+00
CGA:  13    -0.311779330699E+03   -0.10410E+00   -0.96962E-01  9568   0.824E+01 0.308E+00
CGA:  14    -0.311877874581E+03   -0.98544E-01   -0.82642E-01  9568   0.810E+01 0.124E+01
CGA:  15    -0.311968149921E+03   -0.90275E-01   -0.89011E-01  9568   0.619E+01-0.608E-01
CGA:  16    -0.312014190542E+03   -0.46041E-01   -0.42848E-01  9568   0.518E+01 0.344E+00
CGA:  17    -0.312068634365E+03   -0.54444E-01   -0.60350E-01  9568   0.786E+01-0.450E+00
CGA:  18    -0.312122281659E+03   -0.53647E-01   -0.44950E-01  9568   0.628E+01 0.110E+01
CGA:  19    -0.312160879889E+03   -0.38598E-01   -0.39401E-01  9568   0.375E+01-0.265E+00
CGA:  20    -0.312181404542E+03   -0.20525E-01   -0.20367E-01  9568   0.298E+01-0.229E-02
CGA:  21    -0.312196789804E+03   -0.15385E-01   -0.13260E-01  9568   0.223E+01 0.417E+00
CGA:  22    -0.312210291484E+03   -0.13502E-01   -0.13472E-01  9568   0.191E+01-0.302E-02
CGA:  23    -0.312221135454E+03   -0.10844E-01   -0.11439E-01  9568   0.216E+01-0.908E-01
CGA:  24    -0.312232711439E+03   -0.11576E-01   -0.11551E-01  9568   0.250E+01-0.664E-02
CGA:  25    -0.312247479380E+03   -0.14768E-01   -0.17108E-01  9568   0.317E+01-0.280E+00
CGA:  26    -0.312264324548E+03   -0.16845E-01   -0.17456E-01  9568   0.285E+01-0.749E-01
CGA:  27    -0.312277459250E+03   -0.13135E-01   -0.11060E-01  9568   0.205E+01 0.448E+00
CGA:  28    -0.312289743788E+03   -0.12285E-01   -0.11618E-01  9568   0.207E+01 0.104E+00
CGA:  29    -0.312301471870E+03   -0.11728E-01   -0.11023E-01  9568   0.258E+01 0.106E+00
CGA:  30    -0.312313199468E+03   -0.11728E-01   -0.10482E-01  9568   0.252E+01 0.268E+00
CGA:  31    -0.312323353369E+03   -0.10154E-01   -0.99427E-02  9568   0.210E+01 0.439E-01
SDA:  32    -0.312330639231E+03   -0.72859E-02   -0.82886E-02  9568   0.191E+01-0.222E+00
CGA:  33    -0.312357428988E+03   -0.26790E-01   -0.26934E-01  9568   0.279E+00 0.217E-01
CGA:  34    -0.312365753787E+03   -0.83248E-02   -0.83811E-02  9568   0.217E+00-0.402E-02
CGA:  35    -0.312384223765E+03   -0.18470E-01   -0.99683E-04  9568   0.610E+00-0.433E-01
CGA:  36    -0.312394128781E+03   -0.99050E-02   -0.94379E-02  9568   0.481E+00 0.391E-02
CGA:  37    -0.312406947295E+03   -0.12819E-01   -0.12872E-01  9568   0.223E+00 0.533E-02
CGA:  38    -0.312409930140E+03   -0.29828E-02   -0.31020E-02  9568   0.917E-01-0.495E-02
CGA:  39    -0.312413754981E+03   -0.38248E-02   -0.38319E-02  9568   0.760E-01-0.621E-03
CGA:  40    -0.312416044999E+03   -0.22900E-02   -0.22909E-02  9568   0.127E+00-0.110E-02
CGA:  41    -0.312420194090E+03   -0.41491E-02   -0.41301E-02  9568   0.722E-01 0.360E-02
CGA:  42    -0.312421811829E+03   -0.16177E-02   -0.16357E-02  9568   0.694E-01 0.378E-03
CGA:  43    -0.312424049808E+03   -0.22380E-02   -0.22386E-02  9568   0.490E-01-0.183E-03
CGA:  44    -0.312426003614E+03   -0.19538E-02   -0.19463E-02  9568   0.719E-01 0.459E-03
CGA:  45    -0.312427497152E+03   -0.14935E-02   -0.15017E-02  9568   0.240E-01-0.490E-05
CGA:  46    -0.312428444161E+03   -0.94701E-03   -0.95383E-03  9568   0.330E-01-0.539E-03
CGA:  47    -0.312429492306E+03   -0.10481E-02   -0.10476E-02  9568   0.218E-01 0.116E-03
CGA:  48    -0.312429904735E+03   -0.41243E-03   -0.41769E-03  9568   0.101E-01-0.492E-04
CGA:  49    -0.312430715211E+03   -0.81048E-03   -0.80837E-03  9568   0.160E-01 0.411E-04
CGA:  50    -0.312431040554E+03   -0.32534E-03   -0.32428E-03  9568   0.105E-01 0.239E-04
CGA:  51    -0.312431450509E+03   -0.40996E-03   -0.40878E-03  9568   0.510E-02 0.116E-03
CGA:  52    -0.312431624282E+03   -0.17377E-03   -0.17370E-03  9568   0.841E-02 0.276E-04
CGA:  53    -0.312431966846E+03   -0.34256E-03   -0.34279E-03  9568   0.583E-02-0.133E-04
CGA:  54    -0.312432122048E+03   -0.15520E-03   -0.15510E-03  9568   0.322E-02-0.217E-06
CGA:  55    -0.312432236310E+03   -0.11426E-03   -0.11421E-03  9568   0.316E-02 0.948E-05
CGA:  56    -0.312432320161E+03   -0.83851E-04   -0.83828E-04  9568   0.256E-02-0.194E-05
CGA:  57    -0.312432447589E+03   -0.12743E-03   -0.12755E-03  9568   0.184E-02-0.699E-05
CGA:  58    -0.312432505103E+03   -0.57514E-04   -0.57517E-04  9568   0.247E-02 0.247E-06
CGA:  59    -0.312432583722E+03   -0.78619E-04   -0.78617E-04  9568   0.115E-02 0.802E-07
CGA:  60    -0.312432652442E+03   -0.68719E-04   -0.68584E-04  9568   0.251E-02 0.409E-05
CGA:  61    -0.312432712885E+03   -0.60443E-04   -0.60485E-04  9568   0.139E-02 0.344E-05
CGA:  62    -0.312432768551E+03   -0.55666E-04   -0.55675E-04  9568   0.118E-02-0.119E-05
SDA:  63    -0.312432797826E+03   -0.29275E-04   -0.29225E-04  9568   0.583E-03-0.325E-05
CGA:  64    -0.312432813488E+03   -0.15663E-04   -0.15643E-04  9568   0.629E-03-0.323E-05
CGA:  65    -0.312432839063E+03   -0.25575E-04   -0.25628E-04  9568   0.375E-03-0.765E-05
CGA:  66    -0.312432863842E+03   -0.24779E-04   -0.25071E-04  9568   0.241E-03-0.914E-05
CGA:  67    -0.312432880386E+03   -0.16543E-04   -0.16680E-04  9568   0.271E-03-0.436E-05
CGA:  68    -0.312432893851E+03   -0.13466E-04   -0.13499E-04  9568   0.331E-03-0.287E-05
CGA:  69    -0.312432905553E+03   -0.11701E-04   -0.11699E-04  9568   0.217E-03-0.120E-05
CGA:  70    -0.312432912898E+03   -0.73457E-05   -0.73436E-05  9568   0.253E-03-0.942E-06
   7 F= -.31243291E+03 E0= -.31241028E+03  d E =-.139901E+00  mag=    24.5742
       N       E                     dE             d eps       ncg     rms          ort
SDA:   1    -0.236389147665E+03    0.76044E+02    0.00000E+00  9568   0.466E+03 0.000E+00
CGA:   2    -0.268626365329E+03   -0.32237E+02   -0.38679E+02  9568   0.458E+03 0.167E+02
CGA:   3    -0.277347325060E+03   -0.87210E+01   -0.13128E+02  9568   0.284E+03 0.650E+02
CGA:   4    -0.289303902647E+03   -0.11957E+02   -0.12182E+02  9568   0.179E+03 0.585E+02
CGA:   5    -0.299077716709E+03   -0.97738E+01   -0.10687E+02  9568   0.154E+03-0.529E+02
CGA:   6    -0.303340798116E+03   -0.42631E+01   -0.42760E+01  9568   0.221E+03 0.244E+02
CGA:   7    -0.308353960370E+03   -0.50132E+01   -0.50907E+01  9568   0.364E+02-0.533E+02
CGA:   8    -0.310193500439E+03   -0.18395E+01   -0.18341E+01  9568   0.160E+02 0.384E+00
CGA:   9    -0.310759293333E+03   -0.56579E+00   -0.55969E+00  9568   0.104E+02-0.432E+00
CGA:  10    -0.311518947116E+03   -0.75965E+00   -0.83093E+00  9568   0.130E+02-0.178E+01
CGA:  11    -0.311752119946E+03   -0.23317E+00   -0.24144E+00  9568   0.417E+01-0.229E+00
CGA:  12    -0.311892371201E+03   -0.14025E+00   -0.14019E+00  9568   0.300E+01-0.637E-02
CGA:  13    -0.311987816504E+03   -0.95445E-01   -0.92981E-01  9568   0.182E+01-0.459E-01
CGA:  14    -0.312064396099E+03   -0.76580E-01   -0.76413E-01  9568   0.273E+01 0.371E-01
CGA:  15    -0.312127952825E+03   -0.63557E-01   -0.62145E-01  9568   0.131E+01 0.182E-01
CGA:  16    -0.312176541824E+03   -0.48589E-01   -0.48036E-01  9568   0.157E+01-0.762E-01
CGA:  17    -0.312211168410E+03   -0.34627E-01   -0.34663E-01  9568   0.111E+01-0.285E-02
CGA:  18    -0.312237926734E+03   -0.26758E-01   -0.27460E-01  9568   0.125E+01-0.600E-02
CGA:  19    -0.312269773628E+03   -0.31847E-01   -0.29898E-01  9568   0.573E+00 0.128E-01
CGA:  20    -0.312282045897E+03   -0.12272E-01   -0.12198E-01  9568   0.666E+00 0.113E-02
CGA:  21    -0.312299082478E+03   -0.17037E-01   -0.17604E-01  9568   0.362E+00 0.794E-02
CGA:  22    -0.312305894714E+03   -0.68122E-02   -0.67294E-02  9568   0.268E+00 0.231E-02
CGA:  23    -0.312316157355E+03   -0.10263E-01   -0.10333E-01  9568   0.532E+00-0.120E-01
CGA:  24    -0.312328988574E+03   -0.12831E-01   -0.13260E-01  9568   0.383E+00 0.933E-02
CGA:  25    -0.312335926251E+03   -0.69377E-02   -0.74602E-02  9568   0.236E+00-0.854E-02
CGA:  26    -0.312342276582E+03   -0.63503E-02   -0.63166E-02  9568   0.112E+00-0.130E-02
CGA:  27    -0.312345437812E+03   -0.31612E-02   -0.31708E-02  9568   0.131E+00 0.705E-03
CGA:  28    -0.312349693410E+03   -0.42556E-02   -0.42599E-02  9568   0.117E+00 0.244E-02
CGA:  29    -0.312354189596E+03   -0.44962E-02   -0.44970E-02  9568   0.129E+00-0.108E-03
CGA:  30    -0.312357688912E+03   -0.34993E-02   -0.35220E-02  9568   0.840E-01 0.110E-02
CGA:  31    -0.312360033537E+03   -0.23446E-02   -0.23551E-02  9568   0.715E-01 0.600E-03
SDA:  32    -0.312362944211E+03   -0.29107E-02   -0.29111E-02  9568   0.496E-01-0.573E-04
CGA:  33    -0.312364040596E+03   -0.10964E-02   -0.10994E-02  9568   0.290E-01-0.861E-05
CGA:  34    -0.312365310640E+03   -0.12700E-02   -0.12753E-02  9568   0.325E-01-0.353E-03
CGA:  35    -0.312367026200E+03   -0.17156E-02   -0.17261E-02  9568   0.448E-01-0.465E-03
CGA:  36    -0.312368578064E+03   -0.15519E-02   -0.15503E-02  9568   0.283E-01 0.914E-03
CGA:  37    -0.312370209805E+03   -0.16317E-02   -0.16351E-02  9568   0.185E-01-0.145E-03
CGA:  38    -0.312371533709E+03   -0.13239E-02   -0.12928E-02  9568   0.197E-01 0.866E-03
CGA:  39    -0.312372284961E+03   -0.75125E-03   -0.75104E-03  9568   0.297E-01-0.146E-03
CGA:  40    -0.312373346976E+03   -0.10620E-02   -0.10621E-02  9568   0.801E-02 0.204E-04
CGA:  41    -0.312373873565E+03   -0.52659E-03   -0.52316E-03  9568   0.736E-02 0.106E-03
CGA:  42    -0.312374140764E+03   -0.26720E-03   -0.26703E-03  9568   0.134E-01-0.198E-04
CGA:  43    -0.312374902216E+03   -0.76145E-03   -0.75939E-03  9568   0.674E-02 0.993E-04
CGA:  44    -0.312375093077E+03   -0.19086E-03   -0.19134E-03  9568   0.435E-02 0.131E-04
CGA:  45    -0.312375256207E+03   -0.16313E-03   -0.16316E-03  9568   0.340E-02 0.111E-04
CGA:  46    -0.312375344712E+03   -0.88505E-04   -0.88392E-04  9568   0.305E-02-0.472E-05
CGA:  47    -0.312375605401E+03   -0.26069E-03   -0.26276E-03  9568   0.175E-02-0.459E-04
CGA:  48    -0.312375657444E+03   -0.52043E-04   -0.52058E-04  9568   0.184E-02-0.198E-05
CGA:  49    -0.312375714263E+03   -0.56819E-04   -0.56781E-04  9568   0.122E-02-0.982E-06
CGA:  50    -0.312375793476E+03   -0.79213E-04   -0.79206E-04  9568   0.173E-02 0.558E-06
CGA:  51    -0.312375846019E+03   -0.52543E-04   -0.52760E-04  9568   0.735E-03 0.761E-05
CGA:  52    -0.312375874877E+03   -0.28858E-04   -0.28860E-04  9568   0.113E-02 0.143E-05
CGA:  53    -0.312375911172E+03   -0.36295E-04   -0.36293E-04  9568   0.599E-03 0.189E-05
CGA:  54    -0.312375944899E+03   -0.33728E-04   -0.33674E-04  9568   0.476E-03 0.197E-05
CGA:  55    -0.312375961804E+03   -0.16905E-04   -0.16901E-04  9568   0.551E-03-0.145E-05
CGA:  56    -0.312375975951E+03   -0.14146E-04   -0.14131E-04  9568   0.221E-03-0.241E-05
CGA:  57    -0.312375988760E+03   -0.12809E-04   -0.12871E-04  9568   0.307E-03-0.374E-05
CGA:  58    -0.312375998287E+03   -0.95271E-05   -0.95077E-05  9568   0.137E-03-0.249E-05
   8 F= -.31237600E+03 E0= -.31235396E+03  d E =0.569146E-01  mag=    24.6681
       N       E                     dE             d eps       ncg     rms          ort
SDA:   1    -0.287030392636E+03    0.25346E+02    0.00000E+00  9568   0.274E+03 0.000E+00
CGA:   2    -0.291394609301E+03   -0.43642E+01   -0.67782E+01  9568   0.193E+03-0.142E+02
CGA:   3    -0.295787799168E+03   -0.43932E+01   -0.51798E+01  9568   0.259E+03-0.662E+01
CGA:   4    -0.300735098364E+03   -0.49473E+01   -0.62433E+01  9568   0.197E+03-0.590E+02
CGA:   5    -0.306570457691E+03   -0.58354E+01   -0.58605E+01  9568   0.132E+03-0.350E+02
CGA:   6    -0.308635792824E+03   -0.20653E+01   -0.16753E+01  9568   0.205E+02 0.370E+01
CGA:   7    -0.309539073415E+03   -0.90328E+00   -0.88786E+00  9568   0.279E+02 0.192E+01
CGA:   8    -0.310700422734E+03   -0.11613E+01   -0.11641E+01  9568   0.361E+02-0.159E+01
CGA:   9    -0.311457051782E+03   -0.75663E+00   -0.71506E+00  9568   0.124E+02 0.223E+00
CGA:  10    -0.311789279706E+03   -0.33223E+00   -0.30407E+00  9568   0.601E+01-0.751E-01
CGA:  11    -0.311940210771E+03   -0.15093E+00   -0.15679E+00  9568   0.402E+01 0.718E-01
CGA:  12    -0.312064800453E+03   -0.12459E+00   -0.12310E+00  9568   0.399E+01-0.101E+00
CGA:  13    -0.312261178185E+03   -0.19638E+00   -0.19048E+00  9568   0.145E+01 0.326E+00
CGA:  14    -0.312315412407E+03   -0.54234E-01   -0.54057E-01  9568   0.104E+01-0.577E-01
CGA:  15    -0.312344583361E+03   -0.29171E-01   -0.29211E-01  9568   0.124E+01 0.158E-02
CGA:  16    -0.312384988931E+03   -0.40406E-01   -0.40329E-01  9568   0.696E+00-0.105E-01
CGA:  17    -0.312416258233E+03   -0.31269E-01   -0.31140E-01  9568   0.103E+01 0.102E-01
CGA:  18    -0.312444268649E+03   -0.28010E-01   -0.28213E-01  9568   0.377E+00 0.390E-02
CGA:  19    -0.312457394557E+03   -0.13126E-01   -0.13133E-01  9568   0.420E+00 0.506E-02
CGA:  20    -0.312469024415E+03   -0.11630E-01   -0.11768E-01  9568   0.183E+00 0.405E-02
CGA:  21    -0.312479878055E+03   -0.10854E-01   -0.10497E-01  9568   0.279E+00 0.142E-01
CGA:  22    -0.312489663812E+03   -0.97858E-02   -0.98229E-02  9568   0.239E+00 0.447E-02
CGA:  23    -0.312497381946E+03   -0.77181E-02   -0.77604E-02  9568   0.120E+00 0.408E-02
CGA:  24    -0.312501683739E+03   -0.43018E-02   -0.43030E-02  9568   0.966E-01 0.112E-02
CGA:  25    -0.312505164376E+03   -0.34806E-02   -0.34806E-02  9568   0.738E-01 0.596E-03
CGA:  26    -0.312508038278E+03   -0.28739E-02   -0.28727E-02  9568   0.760E-01 0.271E-03
CGA:  27    -0.312510818196E+03   -0.27799E-02   -0.27796E-02  9568   0.458E-01 0.328E-03
CGA:  28    -0.312512728042E+03   -0.19098E-02   -0.19077E-02  9568   0.460E-01 0.264E-03
CGA:  29    -0.312514101813E+03   -0.13738E-02   -0.13774E-02  9568   0.264E-01 0.185E-03
CGA:  30    -0.312515373158E+03   -0.12713E-02   -0.12698E-02  9568   0.254E-01 0.102E-03
CGA:  31    -0.312516124380E+03   -0.75122E-03   -0.75180E-03  9568   0.153E-01 0.233E-04
SDA:  32    -0.312516843387E+03   -0.71901E-03   -0.71938E-03  9568   0.185E-01-0.245E-04
CGA:  33    -0.312517097593E+03   -0.25421E-03   -0.25595E-03  9568   0.424E-02-0.821E-04
CGA:  34    -0.312517346951E+03   -0.24936E-03   -0.24963E-03  9568   0.653E-02-0.965E-05
CGA:  35    -0.312517646505E+03   -0.29955E-03   -0.29951E-03  9568   0.654E-02 0.631E-05
CGA:  36    -0.312518016686E+03   -0.37018E-03   -0.37045E-03  9568   0.418E-02-0.114E-04
CGA:  37    -0.312518252841E+03   -0.23615E-03   -0.23696E-03  9568   0.386E-02-0.366E-04
CGA:  38    -0.312518338600E+03   -0.85759E-04   -0.85546E-04  9568   0.251E-02-0.668E-05
CGA:  39    -0.312518472988E+03   -0.13439E-03   -0.13459E-03  9568   0.153E-02-0.143E-04
CGA:  40    -0.312518579477E+03   -0.10649E-03   -0.10674E-03  9568   0.145E-02-0.862E-05
CGA:  41    -0.312518649773E+03   -0.70297E-04   -0.70324E-04  9568   0.198E-02-0.186E-05
CGA:  42    -0.312518730338E+03   -0.80565E-04   -0.80565E-04  9568   0.952E-03 0.306E-05
CGA:  43    -0.312518753413E+03   -0.23074E-04   -0.23128E-04  9568   0.803E-03 0.324E-05
CGA:  44    -0.312518804314E+03   -0.50901E-04   -0.50685E-04  9568   0.185E-03 0.938E-05
CGA:  45    -0.312518826155E+03   -0.21841E-04   -0.21760E-04  9568   0.575E-03 0.923E-06
CGA:  46    -0.312518841514E+03   -0.15359E-04   -0.15361E-04  9568   0.264E-03-0.407E-07
CGA:  47    -0.312518850299E+03   -0.87849E-05   -0.87855E-05  9568   0.236E-03-0.632E-07
   9 F= -.31251885E+03 E0= -.31249700E+03  d E =-.142852E+00  mag=    24.6681
       N       E                     dE             d eps       ncg     rms          ort
SDA:   1    -0.311328434863E+03    0.11904E+01    0.00000E+00  9568   0.133E+02 0.000E+00
CGA:   2    -0.311599255057E+03   -0.27082E+00   -0.34310E+00  9568   0.621E+01-0.617E+00
CGA:   3    -0.311923228632E+03   -0.32397E+00   -0.32360E+00  9568   0.694E+01 0.372E-01
CGA:   4    -0.312187612383E+03   -0.26438E+00   -0.26268E+00  9568   0.496E+01-0.122E+00
CGA:   5    -0.312296595802E+03   -0.10898E+00   -0.10665E+00  9568   0.174E+01 0.350E-01
CGA:   6    -0.312391417199E+03   -0.94821E-01   -0.95972E-01  9568   0.202E+01-0.634E-01
CGA:   7    -0.312475987736E+03   -0.84571E-01   -0.84534E-01  9568   0.118E+01 0.169E-01
CGA:   8    -0.312514618954E+03   -0.38631E-01   -0.39230E-01  9568   0.653E+00 0.137E-01
CGA:   9    -0.312530241249E+03   -0.15622E-01   -0.15572E-01  9568   0.414E+00 0.432E-03
CGA:  10    -0.312549323176E+03   -0.19082E-01   -0.19012E-01  9568   0.208E+00 0.851E-02
CGA:  11    -0.312557796250E+03   -0.84731E-02   -0.84722E-02  9568   0.157E+00-0.329E-03
CGA:  12    -0.312564319550E+03   -0.65233E-02   -0.65213E-02  9568   0.581E-01 0.172E-02
CGA:  13    -0.312567223140E+03   -0.29036E-02   -0.29089E-02  9568   0.550E-01-0.420E-03
CGA:  14    -0.312568562090E+03   -0.13390E-02   -0.13327E-02  9568   0.338E-01 0.780E-04
CGA:  15    -0.312569992388E+03   -0.14303E-02   -0.14308E-02  9568   0.374E-01-0.174E-03
CGA:  16    -0.312571517081E+03   -0.15247E-02   -0.15247E-02  9568   0.187E-01-0.302E-04
CGA:  17    -0.312572367773E+03   -0.85069E-03   -0.84959E-03  9568   0.921E-02 0.149E-03
CGA:  18    -0.312572986555E+03   -0.61878E-03   -0.61883E-03  9568   0.153E-01 0.189E-05
CGA:  19    -0.312573764490E+03   -0.77794E-03   -0.77732E-03  9568   0.116E-01 0.504E-04
CGA:  20    -0.312574231467E+03   -0.46698E-03   -0.46696E-03  9568   0.740E-02 0.248E-05
CGA:  21    -0.312574406352E+03   -0.17488E-03   -0.17479E-03  9568   0.555E-02 0.417E-05
CGA:  22    -0.312574808111E+03   -0.40176E-03   -0.40162E-03  9568   0.655E-02 0.528E-05
CGA:  23    -0.312575029533E+03   -0.22142E-03   -0.22155E-03  9568   0.357E-02 0.450E-05
CGA:  24    -0.312575241677E+03   -0.21214E-03   -0.21165E-03  9568   0.228E-02 0.238E-04
CGA:  25    -0.312575347990E+03   -0.10631E-03   -0.10635E-03  9568   0.201E-02-0.658E-05
CGA:  26    -0.312575406524E+03   -0.58534E-04   -0.58545E-04  9568   0.164E-02 0.403E-06
CGA:  27    -0.312575474999E+03   -0.68474E-04   -0.68470E-04  9568   0.178E-02-0.854E-06
CGA:  28    -0.312575540440E+03   -0.65442E-04   -0.65438E-04  9568   0.690E-03 0.592E-06
CGA:  29    -0.312575572521E+03   -0.32081E-04   -0.32080E-04  9568   0.357E-03-0.169E-06
CGA:  30    -0.312575594163E+03   -0.21642E-04   -0.21655E-04  9568   0.539E-03-0.702E-06
CGA:  31    -0.312575616960E+03   -0.22797E-04   -0.22795E-04  9568   0.422E-03-0.130E-05
SDA:  32    -0.312575630067E+03   -0.13108E-04   -0.13107E-04  9568   0.378E-03-0.995E-07
CGA:  33    -0.312575635297E+03   -0.52300E-05   -0.52294E-05  9568   0.875E-04 0.265E-07
  10 F= -.31257564E+03 E0= -.31255374E+03  d E =-.567850E-01  mag=    24.6685
       N       E                     dE             d eps       ncg     rms          ort
SDA:   1    -0.311366813390E+03    0.12088E+01    0.00000E+00  9568   0.112E+02 0.000E+00
CGA:   2    -0.311608428855E+03   -0.24162E+00   -0.28939E+00  9568   0.718E+01-0.417E+00
CGA:   3    -0.311865166202E+03   -0.25674E+00   -0.25701E+00  9568   0.704E+01 0.127E-01
CGA:   4    -0.312161852173E+03   -0.29669E+00   -0.29660E+00  9568   0.543E+01 0.195E+00
CGA:   5    -0.312305495316E+03   -0.14364E+00   -0.14561E+00  9568   0.188E+01-0.263E-01
CGA:   6    -0.312401455426E+03   -0.95960E-01   -0.95724E-01  9568   0.219E+01 0.173E-01
CGA:   7    -0.312469615442E+03   -0.68160E-01   -0.67891E-01  9568   0.169E+01-0.550E-02
CGA:   8    -0.312537046475E+03   -0.67431E-01   -0.67444E-01  9568   0.500E+00 0.669E-02
CGA:   9    -0.312552169999E+03   -0.15124E-01   -0.15109E-01  9568   0.461E+00-0.279E-03
CGA:  10    -0.312569607371E+03   -0.17437E-01   -0.17489E-01  9568   0.230E+00 0.927E-02
CGA:  11    -0.312577475303E+03   -0.78679E-02   -0.78758E-02  9568   0.184E+00 0.348E-03
CGA:  12    -0.312584154366E+03   -0.66791E-02   -0.67012E-02  9568   0.714E-01 0.253E-02
CGA:  13    -0.312586498594E+03   -0.23442E-02   -0.23460E-02  9568   0.720E-01 0.724E-04
CGA:  14    -0.312588818161E+03   -0.23196E-02   -0.23292E-02  9568   0.240E-01 0.389E-03
CGA:  15    -0.312590499529E+03   -0.16814E-02   -0.16854E-02  9568   0.400E-01-0.122E-03
CGA:  16    -0.312591500990E+03   -0.10015E-02   -0.10029E-02  9568   0.221E-01 0.328E-05
CGA:  17    -0.312592426895E+03   -0.92591E-03   -0.92584E-03  9568   0.104E-01 0.284E-04
CGA:  18    -0.312592857099E+03   -0.43020E-03   -0.43017E-03  9568   0.125E-01 0.184E-04
CGA:  19    -0.312593341512E+03   -0.48441E-03   -0.48446E-03  9568   0.127E-01 0.185E-04
CGA:  20    -0.312593957510E+03   -0.61600E-03   -0.61597E-03  9568   0.112E-01 0.734E-05
CGA:  21    -0.312594234879E+03   -0.27737E-03   -0.27811E-03  9568   0.357E-02-0.101E-06
CGA:  22    -0.312594488589E+03   -0.25371E-03   -0.25331E-03  9568   0.873E-02 0.121E-04
CGA:  23    -0.312594731116E+03   -0.24253E-03   -0.24248E-03  9568   0.370E-02-0.368E-06
CGA:  24    -0.312594958303E+03   -0.22719E-03   -0.22704E-03  9568   0.281E-02 0.643E-05
CGA:  25    -0.312595033335E+03   -0.75032E-04   -0.74987E-04  9568   0.234E-02-0.228E-06
CGA:  26    -0.312595140087E+03   -0.10675E-03   -0.10674E-03  9568   0.118E-02 0.184E-05
CGA:  27    -0.312595194475E+03   -0.54388E-04   -0.54372E-04  9568   0.171E-02 0.239E-05
CGA:  28    -0.312595257688E+03   -0.63213E-04   -0.63230E-04  9568   0.105E-02 0.238E-05
CGA:  29    -0.312595290769E+03   -0.33080E-04   -0.33092E-04  9568   0.688E-03 0.144E-06
CGA:  30    -0.312595313307E+03   -0.22539E-04   -0.22536E-04  9568   0.330E-03 0.109E-06
CGA:  31    -0.312595330700E+03   -0.17393E-04   -0.17399E-04  9568   0.479E-03-0.374E-06
SDA:  32    -0.312595345899E+03   -0.15199E-04   -0.15202E-04  9568   0.386E-03 0.240E-06
CGA:  33    -0.312595352438E+03   -0.65391E-05   -0.65316E-05  9568   0.128E-03 0.203E-06
  11 F= -.31259535E+03 E0= -.31257339E+03  d E =-.197171E-01  mag=    24.6681
       N       E                     dE             d eps       ncg     rms          ort
SDA:   1    -0.311267904129E+03    0.13274E+01    0.00000E+00  9568   0.503E+01 0.000E+00
CGA:   2    -0.311461763748E+03   -0.19386E+00   -0.19395E+00  9568   0.933E+01 0.141E+00
CGA:   3    -0.312039759258E+03   -0.57800E+00   -0.58494E+00  9568   0.936E+01-0.251E+00
CGA:   4    -0.312240341086E+03   -0.20058E+00   -0.21000E+00  9568   0.398E+01-0.162E+00
CGA:   5    -0.312361605911E+03   -0.12126E+00   -0.11737E+00  9568   0.196E+01-0.764E-01
CGA:   6    -0.312455525505E+03   -0.93920E-01   -0.93855E-01  9568   0.248E+01 0.518E-02
CGA:   7    -0.312542028063E+03   -0.86503E-01   -0.86695E-01  9568   0.699E+00 0.164E-01
CGA:   8    -0.312563090330E+03   -0.21062E-01   -0.21271E-01  9568   0.469E+00 0.489E-02
CGA:   9    -0.312574686580E+03   -0.11596E-01   -0.11626E-01  9568   0.254E+00-0.309E-03
CGA:  10    -0.312593866842E+03   -0.19180E-01   -0.18820E-01  9568   0.100E+00 0.966E-02
CGA:  11    -0.312597867887E+03   -0.40010E-02   -0.39986E-02  9568   0.802E-01-0.909E-03
CGA:  12    -0.312599542035E+03   -0.16741E-02   -0.16871E-02  9568   0.343E-01-0.239E-03
CGA:  13    -0.312602623136E+03   -0.30811E-02   -0.30864E-02  9568   0.439E-01-0.109E-03
CGA:  14    -0.312603653723E+03   -0.10306E-02   -0.10291E-02  9568   0.132E-01 0.397E-04
CGA:  15    -0.312604315614E+03   -0.66189E-03   -0.66162E-03  9568   0.102E-01 0.200E-04
CGA:  16    -0.312604582429E+03   -0.26682E-03   -0.26679E-03  9568   0.993E-02 0.615E-05
CGA:  17    -0.312605300660E+03   -0.71823E-03   -0.71669E-03  9568   0.387E-02 0.461E-04
CGA:  18    -0.312605540234E+03   -0.23957E-03   -0.23917E-03  9568   0.421E-02 0.173E-04
CGA:  19    -0.312605642915E+03   -0.10268E-03   -0.10261E-03  9568   0.327E-02 0.203E-05
CGA:  20    -0.312605850262E+03   -0.20735E-03   -0.20727E-03  9568   0.254E-02 0.247E-05
CGA:  21    -0.312606024727E+03   -0.17447E-03   -0.17405E-03  9568   0.259E-02 0.145E-04
CGA:  22    -0.312606096205E+03   -0.71478E-04   -0.71656E-04  9568   0.182E-02 0.678E-07
CGA:  23    -0.312606160186E+03   -0.63980E-04   -0.63975E-04  9568   0.135E-02-0.356E-06
CGA:  24    -0.312606226417E+03   -0.66231E-04   -0.66225E-04  9568   0.175E-02 0.784E-06
CGA:  25    -0.312606298139E+03   -0.71722E-04   -0.71730E-04  9568   0.829E-03 0.264E-05
CGA:  26    -0.312606340011E+03   -0.41872E-04   -0.41842E-04  9568   0.924E-03 0.369E-05
CGA:  27    -0.312606358988E+03   -0.18977E-04   -0.18997E-04  9568   0.331E-03 0.206E-05
CGA:  28    -0.312606397034E+03   -0.38046E-04   -0.37627E-04  9568   0.340E-03 0.576E-05
CGA:  29    -0.312606408892E+03   -0.11858E-04   -0.11871E-04  9568   0.396E-03 0.111E-05
CGA:  30    -0.312606420822E+03   -0.11931E-04   -0.11956E-04  9568   0.129E-03 0.116E-05
CGA:  31    -0.312606429331E+03   -0.85087E-05   -0.85096E-05  9568   0.231E-03-0.206E-06
  12 F= -.31260643E+03 E0= -.31258437E+03  d E =-.110769E-01  mag=    24.6638
       N       E                     dE             d eps       ncg     rms          ort
SDA:   1    -0.285555497542E+03    0.27051E+02    0.00000E+00  9568   0.186E+03 0.000E+00
CGA:   2    -0.289036086651E+03   -0.34806E+01   -0.52168E+01  9568   0.174E+03-0.100E+02
CGA:   3    -0.295067740525E+03   -0.60317E+01   -0.57390E+01  9568   0.251E+03-0.188E+02
CGA:   4    -0.302881936623E+03   -0.78142E+01   -0.81088E+01  9568   0.170E+03 0.150E+01
CGA:   5    -0.307414721589E+03   -0.45328E+01   -0.52227E+01  9568   0.344E+02 0.342E+01
CGA:   6    -0.308988722128E+03   -0.15740E+01   -0.16621E+01  9568   0.574E+02-0.107E+02
CGA:   7    -0.310267857857E+03   -0.12791E+01   -0.13453E+01  9568   0.658E+02 0.181E+01
CGA:   8    -0.310923393479E+03   -0.65554E+00   -0.98995E+00  9568   0.549E+02-0.255E+02
CGA:   9    -0.311624087649E+03   -0.70069E+00   -0.47039E+00  9568   0.235E+02 0.131E+02
CGA:  10    -0.311815008793E+03   -0.19092E+00   -0.30189E+00  9568   0.898E+01-0.105E+02
CGA:  11    -0.311957670218E+03   -0.14266E+00   -0.13661E+00  9568   0.861E+01-0.709E-01
CGA:  12    -0.312144288948E+03   -0.18662E+00   -0.17575E+00  9568   0.568E+01 0.139E+00
CGA:  13    -0.312277592176E+03   -0.13330E+00   -0.13417E+00  9568   0.393E+01-0.131E-01
CGA:  14    -0.312339064343E+03   -0.61472E-01   -0.61968E-01  9568   0.339E+01-0.366E-01
CGA:  15    -0.312427170791E+03   -0.88106E-01   -0.87014E-01  9568   0.202E+01-0.988E-02
CGA:  16    -0.312457932160E+03   -0.30761E-01   -0.29975E-01  9568   0.130E+01 0.279E-01
CGA:  17    -0.312487396014E+03   -0.29464E-01   -0.28816E-01  9568   0.120E+01 0.148E-02
CGA:  18    -0.312509088866E+03   -0.21693E-01   -0.21806E-01  9568   0.121E+01-0.363E-02
CGA:  19    -0.312534560769E+03   -0.25472E-01   -0.25111E-01  9568   0.113E+01 0.195E-03
CGA:  20    -0.312552900632E+03   -0.18340E-01   -0.18132E-01  9568   0.885E+00 0.522E-02
CGA:  21    -0.312570142447E+03   -0.17242E-01   -0.17411E-01  9568   0.604E+00-0.212E-02
CGA:  22    -0.312577720492E+03   -0.75780E-02   -0.75854E-02  9568   0.367E+00-0.997E-03
CGA:  23    -0.312586272487E+03   -0.85520E-02   -0.85806E-02  9568   0.441E+00 0.109E-02
CGA:  24    -0.312593331742E+03   -0.70593E-02   -0.73723E-02  9568   0.278E+00-0.557E-02
CGA:  25    -0.312600036537E+03   -0.67048E-02   -0.67454E-02  9568   0.361E+00 0.335E-02
CGA:  26    -0.312607384409E+03   -0.73479E-02   -0.73985E-02  9568   0.220E+00 0.426E-03
CGA:  27    -0.312611732007E+03   -0.43476E-02   -0.43161E-02  9568   0.123E+00-0.234E-03
CGA:  28    -0.312614289794E+03   -0.25578E-02   -0.25747E-02  9568   0.117E+00 0.507E-03
CGA:  29    -0.312617653851E+03   -0.33641E-02   -0.33521E-02  9568   0.103E+00 0.471E-02
CGA:  30    -0.312620086243E+03   -0.24324E-02   -0.24427E-02  9568   0.968E-01 0.734E-03
CGA:  31    -0.312622741872E+03   -0.26556E-02   -0.26562E-02  9568   0.540E-01-0.207E-02
SDA:  32    -0.312623976958E+03   -0.12351E-02   -0.12360E-02  9568   0.538E-01 0.108E-03
CGA:  33    -0.312624717612E+03   -0.74065E-03   -0.74239E-03  9568   0.130E-01-0.582E-04
CGA:  34    -0.312625440917E+03   -0.72330E-03   -0.71903E-03  9568   0.193E-01 0.151E-03
CGA:  35    -0.312627354778E+03   -0.19139E-02   -0.19185E-02  9568   0.224E-01-0.861E-04
CGA:  36    -0.312627950106E+03   -0.59533E-03   -0.59613E-03  9568   0.116E-01 0.690E-04
CGA:  37    -0.312628471728E+03   -0.52162E-03   -0.52011E-03  9568   0.608E-02 0.937E-04
CGA:  38    -0.312628674511E+03   -0.20278E-03   -0.20276E-03  9568   0.848E-02 0.193E-04
CGA:  39    -0.312629076521E+03   -0.40201E-03   -0.40068E-03  9568   0.391E-02 0.769E-04
CGA:  40    -0.312629568824E+03   -0.49230E-03   -0.48796E-03  9568   0.692E-02 0.529E-04
CGA:  41    -0.312629813118E+03   -0.24429E-03   -0.24442E-03  9568   0.637E-02 0.298E-04
CGA:  42    -0.312629964812E+03   -0.15169E-03   -0.15132E-03  9568   0.212E-02 0.236E-05
CGA:  43    -0.312630130971E+03   -0.16616E-03   -0.16538E-03  9568   0.213E-02 0.189E-04
CGA:  44    -0.312630229307E+03   -0.98336E-04   -0.98361E-04  9568   0.250E-02-0.162E-05
CGA:  45    -0.312630315802E+03   -0.86496E-04   -0.86500E-04  9568   0.199E-02 0.256E-05
CGA:  46    -0.312630404078E+03   -0.88275E-04   -0.88170E-04  9568   0.223E-02 0.144E-04
CGA:  47    -0.312630465022E+03   -0.60945E-04   -0.61036E-04  9568   0.726E-03 0.663E-05
CGA:  48    -0.312630524426E+03   -0.59403E-04   -0.59240E-04  9568   0.563E-03 0.357E-05
CGA:  49    -0.312630542046E+03   -0.17620E-04   -0.17621E-04  9568   0.651E-03-0.192E-06
CGA:  50    -0.312630565747E+03   -0.23701E-04   -0.23695E-04  9568   0.176E-03-0.227E-05
CGA:  51    -0.312630578736E+03   -0.12989E-04   -0.13165E-04  9568   0.374E-03-0.523E-05
CGA:  52    -0.312630591267E+03   -0.12532E-04   -0.12494E-04  9568   0.195E-03-0.527E-05
CGA:  53    -0.312630598281E+03   -0.70135E-05   -0.70022E-05  9568   0.162E-03-0.255E-05
  13 F= -.31263060E+03 E0= -.31260814E+03  d E =-.241689E-01  mag=    24.6236
       N       E                     dE             d eps       ncg     rms          ort
SDA:   1    -0.244151151720E+03    0.68479E+02    0.00000E+00  9568   0.425E+03 0.000E+00
CGA:   2    -0.261810073677E+03   -0.17659E+02   -0.19176E+02  9568   0.630E+03-0.161E+03
CGA:   3    -0.272784969902E+03   -0.10975E+02   -0.10249E+02  9568   0.712E+03-0.124E+03
CGA:   4    -0.290827078222E+03   -0.18042E+02   -0.19128E+02  9568   0.326E+03 0.470E+02
CGA:   5    -0.295123186862E+03   -0.42961E+01   -0.74089E+01  9568   0.202E+03-0.825E+02
CGA:   6    -0.300950193389E+03   -0.58270E+01   -0.25007E+01  9568   0.658E+02 0.112E+03
CGA:   7    -0.302664597743E+03   -0.17144E+01   -0.14354E+01  9568   0.684E+02 0.123E+01
CGA:   8    -0.304204680610E+03   -0.15401E+01   -0.15949E+01  9568   0.104E+03-0.429E+01
CGA:   9    -0.307175955278E+03   -0.29713E+01   -0.30820E+01  9568   0.515E+02 0.103E+02
CGA:  10    -0.308209095828E+03   -0.10331E+01   -0.13248E+01  9568   0.101E+03 0.321E+01
CGA:  11    -0.308818821808E+03   -0.60973E+00   -0.41478E+00  9568   0.438E+02 0.476E+01
CGA:  12    -0.308898559277E+03   -0.79737E-01   -0.18039E+00  9568   0.581E+02-0.266E+02
CGA:  13    -0.309472273795E+03   -0.57371E+00   -0.96504E+00  9568   0.226E+02-0.782E+01
CGA:  14    -0.309834318207E+03   -0.36204E+00   -0.34265E+00  9568   0.115E+02 0.270E+00
CGA:  15    -0.310229127763E+03   -0.39481E+00   -0.39225E+00  9568   0.141E+02 0.502E+00
CGA:  16    -0.310627947621E+03   -0.39882E+00   -0.39911E+00  9568   0.150E+02 0.149E-01
CGA:  17    -0.311007708643E+03   -0.37976E+00   -0.37816E+00  9568   0.903E+01-0.140E+00
CGA:  18    -0.311204331832E+03   -0.19662E+00   -0.17036E+00  9568   0.264E+01 0.220E+00
CGA:  19    -0.311299472462E+03   -0.95141E-01   -0.94954E-01  9568   0.527E+01 0.246E-01
CGA:  20    -0.311461570684E+03   -0.16210E+00   -0.16199E+00  9568   0.560E+01 0.141E+00
CGA:  21    -0.311644774515E+03   -0.18320E+00   -0.18235E+00  9568   0.356E+01 0.288E+00
CGA:  22    -0.311706663777E+03   -0.61889E-01   -0.64396E-01  9568   0.168E+01-0.448E-01
CGA:  23    -0.311755259913E+03   -0.48596E-01   -0.48632E-01  9568   0.126E+01 0.841E-01
CGA:  24    -0.311790191053E+03   -0.34931E-01   -0.34968E-01  9568   0.991E+00 0.445E-02
CGA:  25    -0.311826105654E+03   -0.35915E-01   -0.35881E-01  9568   0.146E+01 0.335E-02
CGA:  26    -0.311858035645E+03   -0.31930E-01   -0.31930E-01  9568   0.746E+00-0.108E-03
CGA:  27    -0.311888119226E+03   -0.30084E-01   -0.30159E-01  9568   0.804E+00-0.490E-02
CGA:  28    -0.311904693206E+03   -0.16574E-01   -0.16430E-01  9568   0.495E+00-0.686E-03
CGA:  29    -0.311920609278E+03   -0.15916E-01   -0.15923E-01  9568   0.385E+00-0.134E-02
CGA:  30    -0.311934150068E+03   -0.13541E-01   -0.13474E-01  9568   0.463E+00 0.798E-02
CGA:  31    -0.311951071812E+03   -0.16922E-01   -0.16897E-01  9568   0.614E+00 0.292E-02
CGA:  32    -0.311967680196E+03   -0.16608E-01   -0.16692E-01  9568   0.216E+00 0.108E-01
CGA:  33    -0.311976091912E+03   -0.84117E-02   -0.83215E-02  9568   0.223E+00 0.811E-02
CGA:  34    -0.311981340131E+03   -0.52482E-02   -0.52371E-02  9568   0.130E+00-0.206E-03
CGA:  35    -0.311988007365E+03   -0.66672E-02   -0.66036E-02  9568   0.130E+00 0.279E-02
CGA:  36    -0.311991892222E+03   -0.38849E-02   -0.38856E-02  9568   0.525E-01 0.193E-03
CGA:  37    -0.311994730909E+03   -0.28387E-02   -0.28203E-02  9568   0.698E-01 0.748E-03
CGA:  38    -0.311996347848E+03   -0.16169E-02   -0.16212E-02  9568   0.348E-01 0.689E-04
CGA:  39    -0.311997645455E+03   -0.12976E-02   -0.12961E-02  9568   0.233E-01 0.169E-03
CGA:  40    -0.311998660326E+03   -0.10149E-02   -0.10122E-02  9568   0.201E-01 0.184E-03
CGA:  41    -0.311999724689E+03   -0.10644E-02   -0.10617E-02  9568   0.157E-01 0.115E-03
CGA:  42    -0.312000170286E+03   -0.44560E-03   -0.44567E-03  9568   0.137E-01 0.839E-05
SDA:  43    -0.312000651403E+03   -0.48112E-03   -0.48070E-03  9568   0.105E-01 0.124E-03
CGA:  44    -0.312000846409E+03   -0.19501E-03   -0.19483E-03  9568   0.446E-02 0.231E-05
CGA:  45    -0.312001134442E+03   -0.28803E-03   -0.28670E-03  9568   0.990E-02 0.413E-04
CGA:  46    -0.312001441921E+03   -0.30748E-03   -0.30754E-03  9568   0.664E-02 0.139E-04
CGA:  47    -0.312001851904E+03   -0.40998E-03   -0.40920E-03  9568   0.380E-02 0.274E-04
CGA:  48    -0.312002175780E+03   -0.32388E-03   -0.32323E-03  9568   0.399E-02 0.136E-04
CGA:  49    -0.312002357546E+03   -0.18177E-03   -0.18161E-03  9568   0.512E-02 0.154E-04
CGA:  50    -0.312002468844E+03   -0.11130E-03   -0.11137E-03  9568   0.184E-02 0.131E-05
CGA:  51    -0.312002687853E+03   -0.21901E-03   -0.21702E-03  9568   0.218E-02 0.264E-04
CGA:  52    -0.312002750857E+03   -0.63004E-04   -0.63144E-04  9568   0.169E-02 0.681E-05
CGA:  53    -0.312002870710E+03   -0.11985E-03   -0.11942E-03  9568   0.259E-02 0.148E-04
CGA:  54    -0.312002935508E+03   -0.64797E-04   -0.64923E-04  9568   0.191E-02 0.104E-04
CGA:  55    -0.312003041315E+03   -0.10581E-03   -0.10543E-03  9568   0.538E-03 0.256E-04
CGA:  56    -0.312003085166E+03   -0.43851E-04   -0.43568E-04  9568   0.804E-03 0.728E-05
CGA:  57    -0.312003111293E+03   -0.26127E-04   -0.26190E-04  9568   0.103E-02 0.423E-05
CGA:  58    -0.312003153689E+03   -0.42396E-04   -0.42411E-04  9568   0.515E-03 0.681E-05
CGA:  59    -0.312003199492E+03   -0.45803E-04   -0.45192E-04  9568   0.350E-03 0.137E-04
CGA:  60    -0.312003217578E+03   -0.18086E-04   -0.18053E-04  9568   0.581E-03 0.714E-05
CGA:  61    -0.312003230624E+03   -0.13046E-04   -0.13228E-04  9568   0.168E-03 0.630E-05
CGA:  62    -0.312003253257E+03   -0.22633E-04   -0.21384E-04  9568   0.228E-03 0.153E-04
CGA:  63    -0.312003261786E+03   -0.85287E-05   -0.86048E-05  9568   0.254E-03 0.506E-05
  14 F= -.31200326E+03 E0= -.31198204E+03  d E =0.627336E+00  mag=    24.7043
       N       E                     dE             d eps       ncg     rms          ort
SDA:   1    -0.283379744082E+03    0.28624E+02    0.00000E+00  9568   0.542E+03 0.000E+00
CGA:   2    -0.295682422418E+03   -0.12303E+02   -0.14170E+02  9568   0.188E+03-0.279E+02
CGA:   3    -0.298787748237E+03   -0.31053E+01   -0.46290E+01  9568   0.191E+03-0.388E+02
CGA:   4    -0.302555920434E+03   -0.37682E+01   -0.46656E+01  9568   0.131E+03-0.123E+02
CGA:   5    -0.306560369842E+03   -0.40044E+01   -0.31803E+01  9568   0.595E+02-0.183E+02
CGA:   6    -0.308467992288E+03   -0.19076E+01   -0.17201E+01  9568   0.478E+02-0.475E+01
CGA:   7    -0.309648801652E+03   -0.11808E+01   -0.91782E+00  9568   0.212E+02 0.307E+01
CGA:   8    -0.310513595343E+03   -0.86479E+00   -0.87747E+00  9568   0.241E+02 0.193E+01
CGA:   9    -0.311187816171E+03   -0.67422E+00   -0.63355E+00  9568   0.148E+02 0.365E+00
CGA:  10    -0.311748038701E+03   -0.56022E+00   -0.54139E+00  9568   0.174E+02-0.143E+01
CGA:  11    -0.312008436917E+03   -0.26040E+00   -0.34370E+00  9568   0.819E+01-0.134E+01
CGA:  12    -0.312222128683E+03   -0.21369E+00   -0.22131E+00  9568   0.567E+01 0.107E+00
CGA:  13    -0.312303723900E+03   -0.81595E-01   -0.58588E-01  9568   0.142E+01 0.190E+01
CGA:  14    -0.312331973270E+03   -0.28249E-01   -0.25651E-01  9568   0.137E+01 0.139E+00
CGA:  15    -0.312366479443E+03   -0.34506E-01   -0.33826E-01  9568   0.274E+01 0.403E-02
CGA:  16    -0.312407413696E+03   -0.40934E-01   -0.42401E-01  9568   0.356E+01-0.683E-01
CGA:  17    -0.312451623069E+03   -0.44209E-01   -0.46529E-01  9568   0.338E+01-0.124E+00
CGA:  18    -0.312495651985E+03   -0.44029E-01   -0.44567E-01  9568   0.249E+01-0.134E-01
CGA:  19    -0.312518409129E+03   -0.22757E-01   -0.24127E-01  9568   0.911E+00-0.114E+00
CGA:  20    -0.312527642703E+03   -0.92336E-02   -0.10030E-01  9568   0.590E+00-0.495E-01
CGA:  21    -0.312539186782E+03   -0.11544E-01   -0.11689E-01  9568   0.855E+00 0.507E-03
CGA:  22    -0.312552486751E+03   -0.13300E-01   -0.13542E-01  9568   0.466E+00-0.728E-02
CGA:  23    -0.312562145716E+03   -0.96590E-02   -0.96666E-02  9568   0.708E+00 0.848E-04
CGA:  24    -0.312580562103E+03   -0.18416E-01   -0.18481E-01  9568   0.752E+00 0.941E-02
CGA:  25    -0.312591713005E+03   -0.11151E-01   -0.11404E-01  9568   0.408E+00-0.794E-02
CGA:  26    -0.312602578699E+03   -0.10866E-01   -0.10884E-01  9568   0.478E+00 0.772E-02
CGA:  27    -0.312610586489E+03   -0.80078E-02   -0.79562E-02  9568   0.155E+00 0.955E-03
CGA:  28    -0.312613244019E+03   -0.26575E-02   -0.26747E-02  9568   0.997E-01-0.813E-04
CGA:  29    -0.312616662812E+03   -0.34188E-02   -0.34201E-02  9568   0.192E+00-0.113E-03
CGA:  30    -0.312621865066E+03   -0.52023E-02   -0.52026E-02  9568   0.168E+00 0.157E-02
CGA:  31    -0.312626560160E+03   -0.46951E-02   -0.46923E-02  9568   0.161E+00 0.414E-02
SDA:  32    -0.312629277072E+03   -0.27169E-02   -0.27357E-02  9568   0.328E-01-0.214E-03
CGA:  33    -0.312631104182E+03   -0.18271E-02   -0.18404E-02  9568   0.397E-01-0.462E-03
CGA:  34    -0.312632372076E+03   -0.12679E-02   -0.12677E-02  9568   0.354E-01 0.210E-04
CGA:  35    -0.312633503538E+03   -0.11315E-02   -0.11315E-02  9568   0.197E-01-0.237E-04
CGA:  36    -0.312634205833E+03   -0.70230E-03   -0.70378E-03  9568   0.165E-01-0.150E-03
CGA:  37    -0.312634889644E+03   -0.68381E-03   -0.68222E-03  9568   0.881E-02 0.996E-04
CGA:  38    -0.312635727777E+03   -0.83813E-03   -0.83431E-03  9568   0.123E-01 0.635E-04
CGA:  39    -0.312635981171E+03   -0.25339E-03   -0.25377E-03  9568   0.642E-02 0.542E-05
CGA:  40    -0.312636341192E+03   -0.36002E-03   -0.35990E-03  9568   0.594E-02 0.512E-05
CGA:  41    -0.312636564926E+03   -0.22373E-03   -0.22372E-03  9568   0.659E-02-0.245E-05
CGA:  42    -0.312636946202E+03   -0.38128E-03   -0.38231E-03  9568   0.366E-02-0.405E-04
CGA:  43    -0.312637106773E+03   -0.16057E-03   -0.16072E-03  9568   0.651E-02-0.126E-04
CGA:  44    -0.312637296356E+03   -0.18958E-03   -0.18969E-03  9568   0.117E-02 0.280E-05
CGA:  45    -0.312637378007E+03   -0.81651E-04   -0.81380E-04  9568   0.210E-02 0.726E-05
CGA:  46    -0.312637463670E+03   -0.85662E-04   -0.85607E-04  9568   0.177E-02 0.151E-04
CGA:  47    -0.312637520004E+03   -0.56334E-04   -0.56374E-04  9568   0.799E-03 0.909E-05
CGA:  48    -0.312637540281E+03   -0.20277E-04   -0.20312E-04  9568   0.618E-03 0.214E-05
CGA:  49    -0.312637593197E+03   -0.52916E-04   -0.52916E-04  9568   0.822E-03-0.415E-06
CGA:  50    -0.312637642444E+03   -0.49247E-04   -0.49172E-04  9568   0.444E-03 0.278E-05
CGA:  51    -0.312637651762E+03   -0.93180E-05   -0.93258E-05  9568   0.235E-03-0.253E-06
CGA:  52    -0.312637666331E+03   -0.14569E-04   -0.14529E-04  9568   0.370E-03 0.138E-05
CGA:  53    -0.312637676548E+03   -0.10217E-04   -0.10241E-04  9568   0.172E-03 0.181E-05
CGA:  54    -0.312637688046E+03   -0.11498E-04   -0.11387E-04  9568   0.561E-04 0.390E-05
CGA:  55    -0.312637689970E+03   -0.19244E-05   -0.19302E-05  9568   0.953E-04 0.584E-06
  15 F= -.31263769E+03 E0= -.31261592E+03  d E =-.634428E+00  mag=    24.6899
       N       E                     dE             d eps       ncg     rms          ort
SDA:   1    -0.310108229642E+03    0.25295E+01    0.00000E+00  9568   0.286E+02 0.000E+00
CGA:   2    -0.310638065209E+03   -0.52984E+00   -0.72982E+00  9568   0.139E+02-0.121E+01
CGA:   3    -0.311231317358E+03   -0.59325E+00   -0.58893E+00  9568   0.142E+02 0.812E+00
CGA:   4    -0.311820815382E+03   -0.58950E+00   -0.59006E+00  9568   0.134E+02 0.109E+00
CGA:   5    -0.312153301967E+03   -0.33249E+00   -0.34577E+00  9568   0.405E+01-0.166E+00
CGA:   6    -0.312341907913E+03   -0.18861E+00   -0.19128E+00  9568   0.313E+01-0.231E+00
CGA:   7    -0.312483674850E+03   -0.14177E+00   -0.14101E+00  9568   0.266E+01 0.726E-01
CGA:   8    -0.312585685425E+03   -0.10201E+00   -0.10199E+00  9568   0.872E+00-0.359E-02
CGA:   9    -0.312618391657E+03   -0.32706E-01   -0.32470E-01  9568   0.106E+01-0.253E-01
CGA:  10    -0.312647750087E+03   -0.29358E-01   -0.29831E-01  9568   0.506E+00 0.371E-02
CGA:  11    -0.312664385832E+03   -0.16636E-01   -0.16586E-01  9568   0.292E+00-0.179E-02
CGA:  12    -0.312674976231E+03   -0.10590E-01   -0.10597E-01  9568   0.125E+00 0.763E-03
CGA:  13    -0.312680824759E+03   -0.58485E-02   -0.58590E-02  9568   0.145E+00-0.941E-03
CGA:  14    -0.312684035731E+03   -0.32110E-02   -0.31970E-02  9568   0.663E-01 0.305E-03
CGA:  15    -0.312686909472E+03   -0.28737E-02   -0.28758E-02  9568   0.595E-01-0.282E-03
CGA:  16    -0.312689323748E+03   -0.24143E-02   -0.24142E-02  9568   0.404E-01 0.504E-04
CGA:  17    -0.312691106296E+03   -0.17825E-02   -0.17790E-02  9568   0.266E-01 0.494E-03
CGA:  18    -0.312691840663E+03   -0.73437E-03   -0.73586E-03  9568   0.271E-01 0.220E-04
CGA:  19    -0.312693220559E+03   -0.13799E-02   -0.13811E-02  9568   0.238E-01-0.677E-04
CGA:  20    -0.312694221386E+03   -0.10008E-02   -0.10003E-02  9568   0.178E-01 0.121E-03
CGA:  21    -0.312694905886E+03   -0.68450E-03   -0.68451E-03  9568   0.872E-02 0.868E-05
CGA:  22    -0.312695423437E+03   -0.51755E-03   -0.51663E-03  9568   0.192E-01 0.428E-04
CGA:  23    -0.312695968114E+03   -0.54468E-03   -0.54498E-03  9568   0.940E-02 0.121E-04
CGA:  24    -0.312696325437E+03   -0.35732E-03   -0.35742E-03  9568   0.626E-02 0.256E-04
CGA:  25    -0.312696589847E+03   -0.26441E-03   -0.26434E-03  9568   0.429E-02 0.210E-04
CGA:  26    -0.312696838327E+03   -0.24848E-03   -0.24853E-03  9568   0.312E-02-0.426E-06
[...]
CGA:  12    -0.312852898831E+03   -0.17390E-03   -0.17390E-03  9568   0.173E-02-0.585E-06
CGA:  13    -0.312853023571E+03   -0.12474E-03   -0.12458E-03  9568   0.150E-02 0.530E-05
CGA:  14    -0.312853066067E+03   -0.42496E-04   -0.42472E-04  9568   0.146E-02 0.811E-06
CGA:  15    -0.312853117061E+03   -0.50994E-04   -0.51032E-04  9568   0.714E-03 0.193E-05
CGA:  16    -0.312853151044E+03   -0.33983E-04   -0.33979E-04  9568   0.586E-03 0.113E-05
CGA:  17    -0.312853167420E+03   -0.16376E-04   -0.16374E-04  9568   0.227E-03 0.182E-06
CGA:  18    -0.312853182258E+03   -0.14838E-04   -0.14843E-04  9568   0.562E-03-0.145E-06
CGA:  19    -0.312853196376E+03   -0.14118E-04   -0.14125E-04  9568   0.194E-03 0.265E-06
CGA:  20    -0.312853208351E+03   -0.11974E-04   -0.11965E-04  9568   0.951E-04 0.445E-06
CGA:  21    -0.312853212327E+03   -0.39764E-05   -0.39766E-05  9568   0.141E-03 0.944E-07
  53 F= -.31285321E+03 E0= -.31283069E+03  d E =-.222058E-03  mag=    24.5110
       N       E                     dE             d eps       ncg     rms          ort
SDA:   1    -0.312774953554E+03    0.78255E-01    0.00000E+00  9568   0.856E+00 0.000E+00
CGA:   2    -0.312786400261E+03   -0.11447E-01   -0.11735E-01  9568   0.243E+00-0.171E-01
CGA:   3    -0.312811408263E+03   -0.25008E-01   -0.24932E-01  9568   0.681E+00 0.138E-02
CGA:   4    -0.312833303829E+03   -0.21896E-01   -0.22039E-01  9568   0.271E+00 0.130E-02
CGA:   5    -0.312841292297E+03   -0.79885E-02   -0.81285E-02  9568   0.104E+00 0.371E-03
CGA:   6    -0.312844188261E+03   -0.28960E-02   -0.28985E-02  9568   0.108E+00-0.345E-05
CGA:   7    -0.312849078497E+03   -0.48902E-02   -0.48835E-02  9568   0.357E-01 0.139E-02
CGA:   8    -0.312851277348E+03   -0.21989E-02   -0.22011E-02  9568   0.238E-01-0.950E-04
CGA:   9    -0.312851689460E+03   -0.41211E-03   -0.41393E-03  9568   0.977E-02-0.678E-04
CGA:  10    -0.312852314349E+03   -0.62489E-03   -0.62595E-03  9568   0.743E-02-0.398E-04
CGA:  11    -0.312852602420E+03   -0.28807E-03   -0.28792E-03  9568   0.614E-02-0.139E-04
CGA:  12    -0.312852763542E+03   -0.16112E-03   -0.16068E-03  9568   0.213E-02 0.444E-05
CGA:  13    -0.312852822029E+03   -0.58488E-04   -0.58510E-04  9568   0.159E-02 0.181E-06
CGA:  14    -0.312852882052E+03   -0.60023E-04   -0.60010E-04  9568   0.101E-02-0.154E-05
CGA:  15    -0.312852960862E+03   -0.78809E-04   -0.78644E-04  9568   0.871E-03 0.423E-05
CGA:  16    -0.312852976258E+03   -0.15397E-04   -0.15399E-04  9568   0.353E-03 0.343E-06
CGA:  17    -0.312852996032E+03   -0.19774E-04   -0.19780E-04  9568   0.190E-03-0.395E-06
CGA:  18    -0.312853009389E+03   -0.13357E-04   -0.13360E-04  9568   0.437E-03-0.125E-06
CGA:  19    -0.312853019589E+03   -0.10200E-04   -0.10208E-04  9568   0.177E-03-0.749E-07
CGA:  20    -0.312853029695E+03   -0.10106E-04   -0.10107E-04  9568   0.105E-03-0.111E-06
CGA:  21    -0.312853033899E+03   -0.42040E-05   -0.42039E-05  9568   0.129E-03-0.475E-07
  54 F= -.31285303E+03 E0= -.31283049E+03  d E =0.178428E-03  mag=    24.5101
       N       E                     dE             d eps       ncg     rms          ort
SDA:   1    -0.312771093323E+03    0.81936E-01    0.00000E+00  9568   0.475E+00 0.000E+00
CGA:   2    -0.312781707834E+03   -0.10615E-01   -0.10577E-01  9568   0.436E+00 0.588E-03
CGA:   3    -0.312806518328E+03   -0.24810E-01   -0.24930E-01  9568   0.487E+00-0.594E-02
CGA:   4    -0.312832894235E+03   -0.26376E-01   -0.26386E-01  9568   0.157E+00-0.606E-03
CGA:   5    -0.312838650209E+03   -0.57560E-02   -0.57679E-02  9568   0.156E+00 0.665E-03
CGA:   6    -0.312846913797E+03   -0.82636E-02   -0.82730E-02  9568   0.671E-01-0.645E-03
CGA:   7    -0.312850697579E+03   -0.37838E-02   -0.37866E-02  9568   0.393E-01-0.157E-03
CGA:   8    -0.312851432492E+03   -0.73491E-03   -0.73450E-03  9568   0.209E-01 0.232E-04
CGA:   9    -0.312852546120E+03   -0.11136E-02   -0.11115E-02  9568   0.142E-01 0.144E-03
CGA:  10    -0.312852957612E+03   -0.41149E-03   -0.41202E-03  9568   0.752E-02 0.270E-06
CGA:  11    -0.312853371014E+03   -0.41340E-03   -0.41470E-03  9568   0.233E-02-0.746E-04
CGA:  12    -0.312853503806E+03   -0.13279E-03   -0.13287E-03  9568   0.309E-02-0.465E-05
CGA:  13    -0.312853578893E+03   -0.75087E-04   -0.75099E-04  9568   0.169E-02-0.157E-05
CGA:  14    -0.312853642928E+03   -0.64035E-04   -0.64049E-04  9568   0.162E-02 0.720E-06
CGA:  15    -0.312853696868E+03   -0.53940E-04   -0.53929E-04  9568   0.563E-03-0.160E-05
CGA:  16    -0.312853728719E+03   -0.31851E-04   -0.31869E-04  9568   0.346E-03-0.102E-05
CGA:  17    -0.312853745073E+03   -0.16353E-04   -0.16357E-04  9568   0.431E-03-0.965E-06
CGA:  18    -0.312853758232E+03   -0.13159E-04   -0.13152E-04  9568   0.344E-03-0.682E-06
CGA:  19    -0.312853770921E+03   -0.12689E-04   -0.12691E-04  9568   0.306E-03 0.213E-06
CGA:  20    -0.312853780647E+03   -0.97260E-05   -0.97316E-05  9568   0.844E-04 0.164E-06
  55 F= -.31285378E+03 E0= -.31283123E+03  d E =-.746748E-03  mag=    24.5106
       N       E                     dE             d eps       ncg     rms          ort
SDA:   1    -0.312782722376E+03    0.71049E-01    0.00000E+00  9568   0.108E+01 0.000E+00
CGA:   2    -0.312798017116E+03   -0.15295E-01   -0.15683E-01  9568   0.244E+00-0.222E-01
CGA:   3    -0.312810359519E+03   -0.12342E-01   -0.12315E-01  9568   0.527E+00 0.217E-02
CGA:   4    -0.312832737665E+03   -0.22378E-01   -0.22368E-01  9568   0.202E+00-0.481E-02
CGA:   5    -0.312843426148E+03   -0.10688E-01   -0.10592E-01  9568   0.985E-01 0.662E-02
CGA:   6    -0.312845823150E+03   -0.23970E-02   -0.23922E-02  9568   0.859E-01 0.929E-04
CGA:   7    -0.312850997336E+03   -0.51742E-02   -0.51687E-02  9568   0.678E-01 0.251E-03
CGA:   8    -0.312852518629E+03   -0.15213E-02   -0.15205E-02  9568   0.169E-01 0.227E-04
CGA:   9    -0.312853454094E+03   -0.93547E-03   -0.93529E-03  9568   0.154E-01 0.131E-04
CGA:  10    -0.312853801194E+03   -0.34710E-03   -0.34748E-03  9568   0.102E-01-0.396E-05
CGA:  11    -0.312854318829E+03   -0.51763E-03   -0.51757E-03  9568   0.417E-02 0.631E-05
CGA:  12    -0.312854437874E+03   -0.11904E-03   -0.11890E-03  9568   0.256E-02-0.170E-05
CGA:  13    -0.312854559838E+03   -0.12196E-03   -0.12205E-03  9568   0.210E-02-0.934E-05
CGA:  14    -0.312854603614E+03   -0.43775E-04   -0.43805E-04  9568   0.109E-02-0.174E-05
CGA:  15    -0.312854676093E+03   -0.72480E-04   -0.72442E-04  9568   0.806E-03 0.119E-05
CGA:  16    -0.312854707978E+03   -0.31884E-04   -0.31883E-04  9568   0.768E-03-0.382E-07
CGA:  17    -0.312854731007E+03   -0.23029E-04   -0.23021E-04  9568   0.356E-03-0.420E-06
CGA:  18    -0.312854739829E+03   -0.88222E-05   -0.88134E-05  9568   0.248E-03-0.497E-06
CGA:  19    -0.312854757960E+03   -0.18131E-04   -0.18148E-04  9568   0.228E-03-0.539E-06
CGA:  20    -0.312854768447E+03   -0.10487E-04   -0.10488E-04  9568   0.285E-03-0.157E-06
CGA:  21    -0.312854776150E+03   -0.77033E-05   -0.77081E-05  9568   0.141E-03 0.345E-06
  56 F= -.31285478E+03 E0= -.31283223E+03  d E =-.995504E-03  mag=    24.5150
       N       E                     dE             d eps       ncg     rms          ort
SDA:   1    -0.312791440348E+03    0.63328E-01    0.00000E+00  9568   0.858E+00 0.000E+00
CGA:   2    -0.312803053605E+03   -0.11613E-01   -0.11942E-01  9568   0.195E+00-0.186E-01
CGA:   3    -0.312814644913E+03   -0.11591E-01   -0.11586E-01  9568   0.529E+00 0.301E-03
CGA:   4    -0.312840378452E+03   -0.25734E-01   -0.25744E-01  9568   0.124E+00-0.852E-03
CGA:   5    -0.312846547238E+03   -0.61688E-02   -0.61563E-02  9568   0.921E-01 0.990E-03
CGA:   6    -0.312849614302E+03   -0.30671E-02   -0.30663E-02  9568   0.856E-01-0.538E-05
CGA:   7    -0.312851957917E+03   -0.23436E-02   -0.23374E-02  9568   0.399E-01-0.310E-05
CGA:   8    -0.312853321346E+03   -0.13634E-02   -0.13618E-02  9568   0.262E-01-0.702E-04
CGA:   9    -0.312854252123E+03   -0.93078E-03   -0.93106E-03  9568   0.566E-02 0.262E-04
CGA:  10    -0.312854578637E+03   -0.32651E-03   -0.32601E-03  9568   0.120E-01 0.248E-04
CGA:  11    -0.312854882274E+03   -0.30364E-03   -0.30345E-03  9568   0.367E-02 0.294E-05
CGA:  12    -0.312854998223E+03   -0.11595E-03   -0.11595E-03  9568   0.224E-02 0.532E-07
CGA:  13    -0.312855082232E+03   -0.84010E-04   -0.84017E-04  9568   0.984E-03 0.243E-05
CGA:  14    -0.312855135796E+03   -0.53564E-04   -0.53542E-04  9568   0.145E-02 0.149E-05
CGA:  15    -0.312855167534E+03   -0.31738E-04   -0.31725E-04  9568   0.561E-03 0.968E-07
CGA:  16    -0.312855197293E+03   -0.29759E-04   -0.29763E-04  9568   0.536E-03-0.300E-06
CGA:  17    -0.312855214078E+03   -0.16785E-04   -0.16777E-04  9568   0.229E-03-0.100E-05
CGA:  18    -0.312855223442E+03   -0.93641E-05   -0.93641E-05  9568   0.216E-03-0.173E-06
  57 F= -.31285522E+03 E0= -.31283266E+03  d E =-.447291E-03  mag=    24.5140
       N       E                     dE             d eps       ncg     rms          ort
SDA:   1    -0.312753192131E+03    0.10202E+00    0.00000E+00  9568   0.124E+01 0.000E+00
CGA:   2    -0.312770171342E+03   -0.16979E-01   -0.16983E-01  9568   0.323E+00-0.221E-02
CGA:   3    -0.312792363609E+03   -0.22192E-01   -0.21785E-01  9568   0.663E+00 0.130E-01
CGA:   4    -0.312823993227E+03   -0.31630E-01   -0.31598E-01  9568   0.535E+00 0.319E-02
CGA:   5    -0.312841194941E+03   -0.17202E-01   -0.17277E-01  9568   0.135E+00 0.266E-02
CGA:   6    -0.312844922555E+03   -0.37276E-02   -0.37371E-02  9568   0.149E+00 0.779E-04
CGA:   7    -0.312849760999E+03   -0.48384E-02   -0.48407E-02  9568   0.464E-01 0.123E-03
CGA:   8    -0.312853321305E+03   -0.35603E-02   -0.35729E-02  9568   0.290E-01-0.327E-03
CGA:   9    -0.312854017291E+03   -0.69599E-03   -0.69295E-03  9568   0.215E-01 0.359E-04
CGA:  10    -0.312854785984E+03   -0.76869E-03   -0.76907E-03  9568   0.137E-01 0.419E-04
CGA:  11    -0.312855103917E+03   -0.31793E-03   -0.31779E-03  9568   0.420E-02 0.637E-05
CGA:  12    -0.312855345900E+03   -0.24198E-03   -0.24186E-03  9568   0.362E-02 0.644E-05
CGA:  13    -0.312855560732E+03   -0.21483E-03   -0.21494E-03  9568   0.389E-02-0.393E-05
CGA:  14    -0.312855619944E+03   -0.59212E-04   -0.59278E-04  9568   0.740E-03-0.145E-05
CGA:  15    -0.312855671578E+03   -0.51634E-04   -0.51687E-04  9568   0.845E-03-0.177E-05
CGA:  16    -0.312855703708E+03   -0.32130E-04   -0.32130E-04  9568   0.735E-03 0.274E-06
CGA:  17    -0.312855736556E+03   -0.32847E-04   -0.32852E-04  9568   0.308E-03-0.957E-06
CGA:  18    -0.312855743660E+03   -0.71049E-05   -0.70959E-05  9568   0.265E-03-0.325E-06
CGA:  19    -0.312855756684E+03   -0.13023E-04   -0.13024E-04  9568   0.160E-03-0.267E-06
CGA:  20    -0.312855767350E+03   -0.10667E-04   -0.10658E-04  9568   0.131E-03 0.238E-06
CGA:  21    -0.312855773883E+03   -0.65326E-05   -0.65287E-05  9568   0.167E-03 0.485E-06
  58 F= -.31285577E+03 E0= -.31283320E+03  d E =-.550441E-03  mag=    24.5109
       N       E                     dE             d eps       ncg     rms          ort
SDA:   1    -0.312491595720E+03    0.36417E+00    0.00000E+00  9568   0.227E+01 0.000E+00
CGA:   2    -0.312530444619E+03   -0.38849E-01   -0.40528E-01  9568   0.153E+01-0.648E-01
CGA:   3    -0.312722867504E+03   -0.19242E+00   -0.19137E+00  9568   0.176E+01 0.133E-01
CGA:   4    -0.312764045169E+03   -0.41178E-01   -0.40561E-01  9568   0.648E+00 0.979E-02
CGA:   5    -0.312809519494E+03   -0.45474E-01   -0.46424E-01  9568   0.787E+00-0.317E-01
CGA:   6    -0.312825523816E+03   -0.16004E-01   -0.16192E-01  9568   0.491E+00-0.499E-02
CGA:   7    -0.312842992661E+03   -0.17469E-01   -0.17634E-01  9568   0.104E+00 0.629E-02
CGA:   8    -0.312848004338E+03   -0.50117E-02   -0.50198E-02  9568   0.118E+00-0.112E-02
CGA:   9    -0.312852080420E+03   -0.40761E-02   -0.40823E-02  9568   0.451E-01 0.171E-03
CGA:  10    -0.312853879188E+03   -0.17988E-02   -0.17983E-02  9568   0.647E-01-0.613E-04
CGA:  11    -0.312855342042E+03   -0.14629E-02   -0.14711E-02  9568   0.980E-02-0.159E-03
CGA:  12    -0.312856083678E+03   -0.74164E-03   -0.74249E-03  9568   0.929E-02-0.233E-04
CGA:  13    -0.312856527454E+03   -0.44378E-03   -0.44397E-03  9568   0.806E-02-0.252E-04
CGA:  14    -0.312856765741E+03   -0.23829E-03   -0.23748E-03  9568   0.443E-02-0.459E-06
CGA:  15    -0.312856903591E+03   -0.13785E-03   -0.13773E-03  9568   0.382E-02-0.204E-05
CGA:  16    -0.312857008020E+03   -0.10443E-03   -0.10436E-03  9568   0.162E-02-0.118E-05
CGA:  17    -0.312857116542E+03   -0.10852E-03   -0.10863E-03  9568   0.893E-03-0.428E-05
CGA:  18    -0.312857211931E+03   -0.95389E-04   -0.95247E-04  9568   0.133E-02 0.156E-05
CGA:  19    -0.312857243190E+03   -0.31259E-04   -0.31251E-04  9568   0.377E-03-0.272E-06
CGA:  20    -0.312857271353E+03   -0.28163E-04   -0.28120E-04  9568   0.877E-03 0.692E-06
CGA:  21    -0.312857292120E+03   -0.20767E-04   -0.20782E-04  9568   0.523E-03-0.137E-06
CGA:  22    -0.312857328006E+03   -0.35886E-04   -0.35881E-04  9568   0.258E-03 0.787E-07
CGA:  23    -0.312857339935E+03   -0.11929E-04   -0.11930E-04  9568   0.276E-03 0.107E-05
CGA:  24    -0.312857351505E+03   -0.11570E-04   -0.11574E-04  9568   0.180E-03 0.604E-06
CGA:  25    -0.312857360899E+03   -0.93944E-05   -0.93929E-05  9568   0.253E-03 0.909E-07
  59 F= -.31285736E+03 E0= -.31283476E+03  d E =-.158702E-02  mag=    24.5072
       N       E                     dE             d eps       ncg     rms          ort
SDA:   1    -0.312734441032E+03    0.12291E+00    0.00000E+00  9568   0.127E+01 0.000E+00
CGA:   2    -0.312752338841E+03   -0.17898E-01   -0.18685E-01  9568   0.468E+00-0.430E-01
CGA:   3    -0.312797696361E+03   -0.45358E-01   -0.45274E-01  9568   0.968E+00 0.178E-02
CGA:   4    -0.312821749275E+03   -0.24053E-01   -0.23783E-01  9568   0.224E+00 0.442E-02
CGA:   5    -0.312837802659E+03   -0.16053E-01   -0.16166E-01  9568   0.363E+00-0.363E-02
CGA:   6    -0.312845305130E+03   -0.75025E-02   -0.75729E-02  9568   0.163E+00-0.205E-02
CGA:   7    -0.312852215449E+03   -0.69103E-02   -0.68893E-02  9568   0.767E-01-0.280E-02
CGA:   8    -0.312854828043E+03   -0.26126E-02   -0.26209E-02  9568   0.570E-01 0.162E-03
CGA:   9    -0.312856716624E+03   -0.18886E-02   -0.18875E-02  9568   0.351E-01-0.895E-05
CGA:  10    -0.312857599651E+03   -0.88303E-03   -0.88458E-03  9568   0.183E-01-0.184E-04
CGA:  11    -0.312858229233E+03   -0.62958E-03   -0.63054E-03  9568   0.812E-02 0.285E-04
CGA:  12    -0.312858727146E+03   -0.49791E-03   -0.49739E-03  9568   0.113E-01 0.251E-04
CGA:  13    -0.312858935958E+03   -0.20881E-03   -0.20835E-03  9568   0.223E-02 0.167E-04
CGA:  14    -0.312859046078E+03   -0.11012E-03   -0.11014E-03  9568   0.318E-02-0.109E-05
CGA:  15    -0.312859173305E+03   -0.12723E-03   -0.12720E-03  9568   0.197E-02-0.378E-05
CGA:  16    -0.312859243963E+03   -0.70657E-04   -0.70657E-04  9568   0.194E-02 0.191E-07
CGA:  17    -0.312859289906E+03   -0.45943E-04   -0.45957E-04  9568   0.455E-03 0.641E-07
CGA:  18    -0.312859324849E+03   -0.34943E-04   -0.34961E-04  9568   0.918E-03-0.474E-06
CGA:  19    -0.312859349291E+03   -0.24442E-04   -0.24440E-04  9568   0.508E-03-0.718E-07
CGA:  20    -0.312859369596E+03   -0.20305E-04   -0.20303E-04  9568   0.520E-03-0.706E-06
CGA:  21    -0.312859386788E+03   -0.17192E-04   -0.17189E-04  9568   0.234E-03-0.609E-06
CGA:  22    -0.312859399948E+03   -0.13160E-04   -0.13144E-04  9568   0.349E-03 0.102E-05
CGA:  23    -0.312859408252E+03   -0.83043E-05   -0.83158E-05  9568   0.167E-03 0.712E-06
  60 F= -.31285941E+03 E0= -.31283679E+03  d E =-.204735E-02  mag=    24.5055
       N       E                     dE             d eps       ncg     rms          ort
SDA:   1    -0.312796009881E+03    0.63390E-01    0.00000E+00  9568   0.152E+01 0.000E+00
CGA:   2    -0.312814831826E+03   -0.18822E-01   -0.19093E-01  9568   0.198E+00-0.204E-01
CGA:   3    -0.312822381090E+03   -0.75493E-02   -0.75267E-02  9568   0.271E+00-0.388E-02
CGA:   4    -0.312838851566E+03   -0.16470E-01   -0.16460E-01  9568   0.289E+00 0.453E-03
CGA:   5    -0.312850703264E+03   -0.11852E-01   -0.11844E-01  9568   0.696E-01-0.310E-02
CGA:   6    -0.312853028198E+03   -0.23249E-02   -0.23249E-02  9568   0.918E-01 0.760E-05
CGA:   7    -0.312856095450E+03   -0.30673E-02   -0.30671E-02  9568   0.420E-01-0.544E-07
CGA:   8    -0.312857784538E+03   -0.16891E-02   -0.16891E-02  9568   0.284E-01 0.280E-04
CGA:   9    -0.312858558606E+03   -0.77407E-03   -0.76947E-03  9568   0.749E-02 0.168E-04
CGA:  10    -0.312858867319E+03   -0.30871E-03   -0.30869E-03  9568   0.110E-01 0.126E-04
CGA:  11    -0.312859163714E+03   -0.29639E-03   -0.29666E-03  9568   0.344E-02-0.229E-07
CGA:  12    -0.312859371327E+03   -0.20761E-03   -0.20783E-03  9568   0.305E-02-0.858E-05
CGA:  13    -0.312859439431E+03   -0.68104E-04   -0.68111E-04  9568   0.121E-02-0.194E-05
CGA:  14    -0.312859483529E+03   -0.44098E-04   -0.44094E-04  9568   0.124E-02-0.671E-06
CGA:  15    -0.312859522154E+03   -0.38625E-04   -0.38637E-04  9568   0.531E-03 0.528E-06
CGA:  16    -0.312859556452E+03   -0.34298E-04   -0.34252E-04  9568   0.645E-03 0.166E-05
CGA:  17    -0.312859571519E+03   -0.15066E-04   -0.15076E-04  9568   0.348E-03 0.494E-06
CGA:  18    -0.312859583464E+03   -0.11946E-04   -0.11951E-04  9568   0.169E-03 0.635E-06
CGA:  19    -0.312859590820E+03   -0.73553E-05   -0.73561E-05  9568   0.179E-03-0.334E-06
  61 F= -.31285959E+03 E0= -.31283696E+03  d E =-.182567E-03  mag=    24.5062
       N       E                     dE             d eps       ncg     rms          ort
SDA:   1    -0.312670332787E+03    0.18925E+00    0.00000E+00  9568   0.235E+01 0.000E+00
CGA:   2    -0.312699588183E+03   -0.29255E-01   -0.30832E-01  9568   0.593E+00-0.979E-01
CGA:   3    -0.312786766715E+03   -0.87179E-01   -0.87157E-01  9568   0.115E+01 0.548E-03
CGA:   4    -0.312811334487E+03   -0.24568E-01   -0.23890E-01  9568   0.482E+00 0.168E-01
CGA:   5    -0.312829494824E+03   -0.18160E-01   -0.18125E-01  9568   0.351E+00-0.211E-02
CGA:   6    -0.312840487165E+03   -0.10992E-01   -0.10951E-01  9568   0.244E+00-0.532E-03
CGA:   7    -0.312852949131E+03   -0.12462E-01   -0.12486E-01  9568   0.138E+00-0.174E-02
CGA:   8    -0.312855471225E+03   -0.25221E-02   -0.25353E-02  9568   0.537E-01-0.440E-03
CGA:   9    -0.312857781014E+03   -0.23098E-02   -0.23119E-02  9568   0.324E-01-0.576E-03
CGA:  10    -0.312859268763E+03   -0.14877E-02   -0.14863E-02  9568   0.360E-01 0.178E-03
CGA:  11    -0.312860078371E+03   -0.80961E-03   -0.80778E-03  9568   0.126E-01 0.392E-04
CGA:  12    -0.312860571688E+03   -0.49332E-03   -0.49340E-03  9568   0.835E-02 0.278E-04
CGA:  13    -0.312860801279E+03   -0.22959E-03   -0.22979E-03  9568   0.418E-02-0.282E-06
CGA:  14    -0.312860994718E+03   -0.19344E-03   -0.19338E-03  9568   0.555E-02 0.556E-05
CGA:  15    -0.312861136523E+03   -0.14180E-03   -0.14182E-03  9568   0.218E-02-0.626E-06
CGA:  16    -0.312861274268E+03   -0.13775E-03   -0.13765E-03  9568   0.181E-02 0.333E-05
CGA:  17    -0.312861309533E+03   -0.35265E-04   -0.35246E-04  9568   0.819E-03 0.221E-06
CGA:  18    -0.312861359055E+03   -0.49521E-04   -0.49500E-04  9568   0.875E-03 0.103E-05
CGA:  19    -0.312861385489E+03   -0.26435E-04   -0.26430E-04  9568   0.676E-03-0.527E-06
CGA:  20    -0.312861425081E+03   -0.39591E-04   -0.39603E-04  9568   0.981E-03-0.686E-06
CGA:  21    -0.312861446154E+03   -0.21074E-04   -0.21077E-04  9568   0.264E-03-0.182E-06
CGA:  22    -0.312861463052E+03   -0.16898E-04   -0.16897E-04  9568   0.340E-03 0.167E-07
CGA:  23    -0.312861472927E+03   -0.98747E-05   -0.98819E-05  9568   0.343E-03 0.486E-06
CGA:  24    -0.312861493778E+03   -0.20851E-04   -0.20817E-04  9568   0.341E-03 0.151E-05
CGA:  25    -0.312861504103E+03   -0.10324E-04   -0.10334E-04  9568   0.175E-03 0.573E-06
CGA:  26    -0.312861509079E+03   -0.49762E-05   -0.49848E-05  9568   0.106E-03 0.332E-06
  62 F= -.31286151E+03 E0= -.31283885E+03  d E =-.191826E-02  mag=    24.5019
