       N       E                     dE             d eps       ncg     rms          rms(c)
DAV:   1     0.371992822773E+04    0.37199E+04   -0.15266E+05 28416   0.153E+03
DAV:   2     0.228064050749E+03   -0.34919E+04   -0.33415E+04 27984   0.470E+02
DAV:   3    -0.217581447037E+03   -0.44565E+03   -0.43413E+03 31048   0.176E+02
DAV:   4    -0.238170993650E+03   -0.20590E+02   -0.20100E+02 37016   0.410E+01
DAV:   5    -0.239477325128E+03   -0.13063E+01   -0.12846E+01 49120   0.768E+00    0.499E+01
DAV:   6    -0.219931405569E+03    0.19546E+02   -0.14631E+02 39040   0.377E+01    0.252E+01
DAV:   7    -0.223002404507E+03   -0.30710E+01   -0.15312E+01 37888   0.148E+01    0.208E+01
DAV:   8    -0.222596601944E+03    0.40580E+00   -0.24638E+00 39000   0.706E+00    0.146E+01
DAV:   9    -0.223047430567E+03   -0.45083E+00   -0.56409E+00 38200   0.624E+00    0.971E+00
DAV:  10    -0.223059891948E+03   -0.12461E-01   -0.24849E+00 37984   0.497E+00    0.116E+01
DAV:  11    -0.222969799501E+03    0.90092E-01   -0.29049E+00 37992   0.338E+00    0.980E+00
DAV:  12    -0.222856891305E+03    0.11291E+00   -0.17414E+00 38200   0.239E+00    0.462E+00
DAV:  13    -0.222821887564E+03    0.35004E-01   -0.82155E-02 38256   0.140E+00    0.249E+00
DAV:  14    -0.222820147222E+03    0.17403E-02   -0.79068E-02 39168   0.861E-01    0.145E+00
DAV:  15    -0.222822250476E+03   -0.21033E-02   -0.11688E-02 36720   0.426E-01    0.107E+00
DAV:  16    -0.222824634418E+03   -0.23839E-02   -0.17645E-02 38536   0.471E-01    0.130E+00
DAV:  17    -0.222823353924E+03    0.12805E-02   -0.69890E-03 37696   0.410E-01    0.812E-01
DAV:  18    -0.222825015565E+03   -0.16616E-02   -0.20072E-02 38208   0.497E-01    0.960E-01
DAV:  19    -0.222823672668E+03    0.13429E-02   -0.61175E-03 37624   0.311E-01    0.403E-01
DAV:  20    -0.222823725577E+03   -0.52909E-04   -0.26482E-03 38768   0.170E-01    0.274E-01
DAV:  21    -0.222823723215E+03    0.23618E-05   -0.88516E-04 37832   0.111E-01    0.176E-01
DAV:  22    -0.222823704513E+03    0.18702E-04   -0.44830E-04 35320   0.834E-02    0.112E-01
DAV:  23    -0.222823744174E+03   -0.39662E-04   -0.20046E-04 29568   0.476E-02    0.105E-01
DAV:  24    -0.222823724994E+03    0.19181E-04   -0.11366E-04 26168   0.410E-02    0.473E-02
DAV:  25    -0.222823722800E+03    0.21937E-05   -0.39192E-05 19992   0.211E-02
   1 F= -.22282372E+03 E0= -.22281197E+03  d E =-.222824E+03  mag=    22.0012
       N       E                     dE             d eps       ncg     rms          rms(c)
DAV:   1    -0.222823954889E+03   -0.22990E-03   -0.73721E-03 32040   0.460E-01    0.470E-02
DAV:   2    -0.222824081820E+03   -0.12693E-03   -0.10548E-03 32904   0.101E-01    0.160E-01
DAV:   3    -0.222824038102E+03    0.43718E-04   -0.18717E-04 27032   0.535E-02    0.241E-02
DAV:   4    -0.222824048122E+03   -0.10019E-04   -0.34617E-05 17664   0.174E-02    0.441E-02
DAV:   5    -0.222824045537E+03    0.25850E-05   -0.19162E-05 16264   0.149E-02
   2 F= -.22282405E+03 E0= -.22281230E+03  d E =-.322737E-03  mag=    22.0001
       N       E                     dE             d eps       ncg     rms          rms(c)
DAV:   1    -0.222819195377E+03    0.48527E-02   -0.57464E-01 31496   0.402E+00    0.347E-01
DAV:   2    -0.222826201861E+03   -0.70065E-02   -0.64221E-02 28912   0.759E-01    0.643E-01
DAV:   3    -0.222825833766E+03    0.36809E-03   -0.55544E-03 37976   0.267E-01    0.305E-01
DAV:   4    -0.222825986990E+03   -0.15322E-03   -0.12786E-03 38152   0.115E-01    0.212E-01
DAV:   5    -0.222825946853E+03    0.40137E-04   -0.63193E-04 30456   0.690E-02    0.126E-01
DAV:   6    -0.222825969510E+03   -0.22657E-04   -0.15775E-04 32832   0.633E-02    0.122E-01
DAV:   7    -0.222825957687E+03    0.11823E-04   -0.99622E-05 32928   0.597E-02    0.460E-02
DAV:   8    -0.222825966616E+03   -0.89289E-05   -0.29477E-05 23648   0.289E-02
   3 F= -.22282597E+03 E0= -.22281425E+03  d E =-.192108E-02  mag=    22.0000
       N       E                     dE             d eps       ncg     rms          rms(c)
DAV:   1    -0.222820434405E+03    0.55233E-02   -0.73949E-01 30840   0.411E+00    0.318E-01
DAV:   2    -0.222826909383E+03   -0.64750E-02   -0.58733E-02 29328   0.783E-01    0.713E-01
DAV:   3    -0.222826199277E+03    0.71011E-03   -0.50514E-03 37856   0.265E-01    0.223E-01
DAV:   4    -0.222826423525E+03   -0.22425E-03   -0.87311E-04 38200   0.103E-01    0.217E-01
DAV:   5    -0.222826377182E+03    0.46343E-04   -0.60939E-04 30112   0.716E-02    0.137E-01
DAV:   6    -0.222826394261E+03   -0.17079E-04   -0.19244E-04 32064   0.655E-02    0.140E-01
DAV:   7    -0.222826374122E+03    0.20139E-04   -0.14332E-04 34616   0.628E-02    0.580E-02
DAV:   8    -0.222826390527E+03   -0.16405E-04   -0.90876E-05 26600   0.390E-02    0.736E-02
DAV:   9    -0.222826381642E+03    0.88848E-05   -0.37853E-05 21552   0.266E-02
   4 F= -.22282638E+03 E0= -.22281469E+03  d E =-.415026E-03  mag=    22.0000
       N       E                     dE             d eps       ncg     rms          rms(c)
DAV:   1    -0.222825749660E+03    0.64087E-03   -0.16211E-01 30112   0.145E+00    0.838E-02
DAV:   2    -0.222826369599E+03   -0.61994E-03   -0.58815E-03 29584   0.266E-01    0.181E-01
DAV:   3    -0.222826324220E+03    0.45379E-04   -0.35448E-04 37824   0.730E-02    0.765E-02
DAV:   4    -0.222826331497E+03   -0.72769E-05   -0.91265E-05 24808   0.357E-02
   5 F= -.22282633E+03 E0= -.22281465E+03  d E =0.501451E-04  mag=    22.0000
       N       E                     dE             d eps       ncg     rms          rms(c)
DAV:   1    -0.222765532606E+03    0.60792E-01   -0.10216E+01 29344   0.131E+01    0.847E-01
DAV:   2    -0.222816863643E+03   -0.51331E-01   -0.49564E-01 28944   0.230E+00    0.126E+00
DAV:   3    -0.222816445641E+03    0.41800E-03   -0.28940E-02 39632   0.638E-01    0.888E-01
DAV:   4    -0.222815964435E+03    0.48121E-03   -0.73579E-03 40408   0.316E-01    0.405E-01
DAV:   5    -0.222815957733E+03    0.67016E-05   -0.30523E-03 39288   0.178E-01    0.424E-01
DAV:   6    -0.222815808041E+03    0.14969E-03   -0.34731E-03 39024   0.177E-01    0.398E-01
DAV:   7    -0.222815504302E+03    0.30374E-03   -0.19432E-03 37216   0.191E-01    0.133E-01
DAV:   8    -0.222815588903E+03   -0.84601E-04   -0.37825E-04 37240   0.730E-02    0.697E-02
DAV:   9    -0.222815590635E+03   -0.17318E-05   -0.11238E-04 31648   0.385E-02    0.655E-02
DAV:  10    -0.222815580676E+03    0.99587E-05   -0.37282E-05 21408   0.269E-02
   6 F= -.22281558E+03 E0= -.22280392E+03  d E =0.107508E-01  mag=    22.0000
       N       E                     dE             d eps       ncg     rms          rms(c)
DAV:   1    -0.220197938649E+03    0.26177E+01   -0.17552E+02 31248   0.725E+01    0.662E+00
DAV:   2    -0.222507486758E+03   -0.23095E+01   -0.21807E+01 29024   0.134E+01    0.694E+00
DAV:   3    -0.222698112406E+03   -0.19063E+00   -0.25678E+00 38312   0.395E+00    0.664E+00
DAV:   4    -0.222651525269E+03    0.46587E-01   -0.33973E-01 39392   0.211E+00    0.538E+00
DAV:   5    -0.222609549484E+03    0.41976E-01   -0.28830E-01 38296   0.116E+00    0.264E+00
DAV:   6    -0.222605329969E+03    0.42195E-02   -0.38550E-02 38896   0.102E+00    0.179E+00
DAV:   7    -0.222618975314E+03   -0.13645E-01   -0.66401E-02 38912   0.908E-01    0.265E+00
DAV:   8    -0.222612792835E+03    0.61825E-02   -0.30040E-02 38784   0.768E-01    0.182E+00
DAV:   9    -0.222608671367E+03    0.41215E-02   -0.69620E-02 39264   0.726E-01    0.930E-01
DAV:  10    -0.222610591575E+03   -0.19202E-02   -0.83613E-03 38608   0.434E-01    0.828E-01
DAV:  11    -0.222609748567E+03    0.84301E-03   -0.62578E-03 39000   0.316E-01    0.366E-01
DAV:  12    -0.222609873122E+03   -0.12455E-03   -0.18548E-03 39248   0.204E-01    0.326E-01
DAV:  13    -0.222609719281E+03    0.15384E-03   -0.63667E-04 38456   0.130E-01    0.123E-01
DAV:  14    -0.222609722747E+03   -0.34656E-05   -0.20581E-04 34944   0.753E-02    0.827E-02
DAV:  15    -0.222609715567E+03    0.71796E-05   -0.63516E-05 27984   0.433E-02
   7 F= -.22260972E+03 E0= -.22259783E+03  d E =0.205865E+00  mag=    22.0000
       N       E                     dE             d eps       ncg     rms          rms(c)
DAV:   1    -0.222098711191E+03    0.51101E+00   -0.36368E+01 31152   0.357E+01    0.356E+00
DAV:   2    -0.222758384758E+03   -0.65967E+00   -0.62395E+00 29072   0.679E+00    0.366E+00
DAV:   3    -0.222804826318E+03   -0.46442E-01   -0.51299E-01 38816   0.219E+00    0.470E+00
DAV:   4    -0.222782320775E+03    0.22506E-01   -0.24444E-01 39192   0.121E+00    0.175E+00
DAV:   5    -0.222782672669E+03   -0.35189E-03   -0.47586E-02 38720   0.511E-01    0.120E+00
DAV:   6    -0.222784076717E+03   -0.14040E-02   -0.10396E-02 38624   0.377E-01    0.704E-01
DAV:   7    -0.222786216217E+03   -0.21395E-02   -0.10191E-02 39616   0.405E-01    0.101E+00
DAV:   8    -0.222784581159E+03    0.16351E-02   -0.76066E-03 39096   0.348E-01    0.364E-01
DAV:   9    -0.222784950118E+03   -0.36896E-03   -0.16519E-03 39016   0.225E-01    0.306E-01
DAV:  10    -0.222784973094E+03   -0.22976E-04   -0.91520E-04 38984   0.146E-01    0.166E-01
DAV:  11    -0.222785015817E+03   -0.42723E-04   -0.36149E-04 37264   0.103E-01    0.142E-01
DAV:  12    -0.222784996505E+03    0.19312E-04   -0.97553E-05 29192   0.588E-02    0.589E-02
DAV:  13    -0.222784994707E+03    0.17982E-05   -0.21776E-05 23776   0.259E-02
   8 F= -.22278499E+03 E0= -.22277314E+03  d E =-.175279E+00  mag=    22.0000
       N       E                     dE             d eps       ncg     rms          rms(c)
DAV:   1    -0.222538103145E+03    0.24689E+00   -0.17047E+01 31296   0.239E+01    0.231E+00
DAV:   2    -0.222816418549E+03   -0.27832E+00   -0.26112E+00 29088   0.448E+00    0.294E+00
DAV:   3    -0.222824767140E+03   -0.83486E-02   -0.17897E-01 38704   0.151E+00    0.281E+00
DAV:   4    -0.222820491654E+03    0.42755E-02   -0.95406E-02 38960   0.789E-01    0.112E+00
DAV:   5    -0.222820666729E+03   -0.17508E-03   -0.21645E-02 38936   0.349E-01    0.849E-01
DAV:   6    -0.222820974765E+03   -0.30804E-03   -0.61022E-03 39472   0.299E-01    0.525E-01
DAV:   7    -0.222821598478E+03   -0.62371E-03   -0.47245E-03 38832   0.292E-01    0.621E-01
DAV:   8    -0.222821322463E+03    0.27602E-03   -0.38921E-03 38968   0.227E-01    0.406E-01
DAV:   9    -0.222821169747E+03    0.15272E-03   -0.14712E-03 38864   0.166E-01    0.160E-01
DAV:  10    -0.222821257078E+03   -0.87330E-04   -0.40182E-04 37632   0.949E-02    0.128E-01
DAV:  11    -0.222821257066E+03    0.12238E-07   -0.13105E-04 31992   0.741E-02    0.741E-02
DAV:  12    -0.222821263400E+03   -0.63346E-05   -0.46541E-05 26368   0.413E-02
   9 F= -.22282126E+03 E0= -.22280944E+03  d E =-.362687E-01  mag=    22.0000
       N       E                     dE             d eps       ncg     rms          rms(c)
DAV:   1    -0.222819379822E+03    0.18772E-02   -0.59128E-01 29816   0.339E+00    0.251E-01
DAV:   2    -0.222823703663E+03   -0.43238E-02   -0.38623E-02 30632   0.646E-01    0.675E-01
DAV:   3    -0.222822981045E+03    0.72262E-03   -0.33886E-03 37504   0.220E-01    0.162E-01
DAV:   4    -0.222823156205E+03   -0.17516E-03   -0.38346E-04 34896   0.765E-02    0.176E-01
DAV:   5    -0.222823134700E+03    0.21504E-04   -0.34058E-04 27624   0.577E-02    0.128E-01
DAV:   6    -0.222823149592E+03   -0.14892E-04   -0.20836E-04 30656   0.583E-02    0.138E-01
DAV:   7    -0.222823131754E+03    0.17838E-04   -0.13480E-04 33736   0.567E-02    0.682E-02
DAV:   8    -0.222823137265E+03   -0.55103E-05   -0.66939E-05 24560   0.337E-02
  10 F= -.22282314E+03 E0= -.22281140E+03  d E =-.187386E-02  mag=    22.0000
       N       E                     dE             d eps       ncg     rms          rms(c)
DAV:   1    -0.222815623088E+03    0.75087E-02   -0.17657E+00 29664   0.545E+00    0.359E-01
DAV:   2    -0.222825295563E+03   -0.96725E-02   -0.89396E-02 29032   0.100E+00    0.812E-01
DAV:   3    -0.222824376770E+03    0.91879E-03   -0.55440E-03 38208   0.285E-01    0.280E-01
DAV:   4    -0.222824635108E+03   -0.25834E-03   -0.77526E-04 37920   0.115E-01    0.280E-01
DAV:   5    -0.222824598322E+03    0.36786E-04   -0.69919E-04 33272   0.867E-02    0.239E-01
DAV:   6    -0.222824631455E+03   -0.33133E-04   -0.78711E-04 37544   0.969E-02    0.261E-01
DAV:   7    -0.222824538606E+03    0.92849E-04   -0.54482E-04 33984   0.100E-01    0.103E-01
DAV:   8    -0.222824575973E+03   -0.37366E-04   -0.26965E-04 34808   0.596E-02    0.126E-01
DAV:   9    -0.222824550235E+03    0.25737E-04   -0.10568E-04 25576   0.371E-02    0.289E-02
DAV:  10    -0.222824552332E+03   -0.20961E-05   -0.90882E-06 16288   0.159E-02
  11 F= -.22282455E+03 E0= -.22281284E+03  d E =-.141507E-02  mag=    22.0000
       N       E                     dE             d eps       ncg     rms          rms(c)
DAV:   1    -0.222823735541E+03    0.81469E-03   -0.28535E-01 28904   0.189E+00    0.107E-01
DAV:   2    -0.222824783664E+03   -0.10481E-02   -0.10142E-02 28808   0.338E-01    0.180E-01
DAV:   3    -0.222824756733E+03    0.26931E-04   -0.45983E-04 39512   0.796E-02    0.109E-01
DAV:   4    -0.222824760103E+03   -0.33702E-05   -0.17350E-04 27768   0.442E-02    0.981E-02
DAV:   5    -0.222824753321E+03    0.67820E-05   -0.69396E-05 21984   0.324E-02
  12 F= -.22282475E+03 E0= -.22281309E+03  d E =-.200990E-03  mag=    22.0000
       N       E                     dE             d eps       ncg     rms          rms(c)
DAV:   1    -0.222815221627E+03    0.95385E-02   -0.17493E+00 29488   0.557E+00    0.372E-01
DAV:   2    -0.222824128737E+03   -0.89071E-02   -0.87751E-02 28496   0.947E-01    0.251E-01
DAV:   3    -0.222824671450E+03   -0.54271E-03   -0.30124E-03 41008   0.190E-01    0.375E-01
DAV:   4    -0.222824455935E+03    0.21552E-03   -0.15564E-03 38632   0.117E-01    0.158E-01
DAV:   5    -0.222824486063E+03   -0.30128E-04   -0.39270E-04 38920   0.805E-02    0.193E-01
DAV:   6    -0.222824429909E+03    0.56154E-04   -0.53009E-04 38144   0.886E-02    0.114E-01
DAV:   7    -0.222824466389E+03   -0.36480E-04   -0.33591E-04 36936   0.735E-02    0.133E-01
DAV:   8    -0.222824437965E+03    0.28424E-04   -0.96542E-05 27208   0.515E-02    0.245E-02
DAV:   9    -0.222824439855E+03   -0.18901E-05   -0.12582E-05 17632   0.214E-02
  13 F= -.22282444E+03 E0= -.22281278E+03  d E =0.313466E-03  mag=    22.0000
       N       E                     dE             d eps       ncg     rms          rms(c)
DAV:   1    -0.221209605519E+03    0.16148E+01   -0.14162E+02 30056   0.597E+01    0.544E+00
DAV:   2    -0.222766494430E+03   -0.15569E+01   -0.15022E+01 29392   0.116E+01    0.736E+00
DAV:   3    -0.222652908164E+03    0.11359E+00   -0.77233E-01 38032   0.354E+00    0.393E+00
DAV:   4    -0.222665849104E+03   -0.12941E-01   -0.41357E-01 38928   0.177E+00    0.392E+00
DAV:   5    -0.222654424384E+03    0.11425E-01   -0.85239E-02 38288   0.121E+00    0.206E+00
DAV:   6    -0.222656692263E+03   -0.22679E-02   -0.61878E-02 38576   0.794E-01    0.183E+00
DAV:   7    -0.222659505927E+03   -0.28137E-02   -0.79500E-02 38896   0.787E-01    0.189E+00
DAV:   8    -0.222656645262E+03    0.28607E-02   -0.37090E-02 38736   0.758E-01    0.107E+00
DAV:   9    -0.222656074852E+03    0.57041E-03   -0.94873E-03 38432   0.494E-01    0.391E-01
DAV:  10    -0.222656437907E+03   -0.36305E-03   -0.23456E-03 38776   0.248E-01    0.315E-01
DAV:  11    -0.222656466449E+03   -0.28543E-04   -0.26659E-03 38976   0.144E-01    0.263E-01
DAV:  12    -0.222656394571E+03    0.71878E-04   -0.98147E-04 37600   0.109E-01    0.156E-01
DAV:  13    -0.222656395117E+03   -0.54609E-06   -0.98245E-05 28344   0.439E-02
  14 F= -.22265640E+03 E0= -.22264412E+03  d E =0.168045E+00  mag=    22.0000
       N       E                     dE             d eps       ncg     rms          rms(c)
DAV:   1    -0.222049721101E+03    0.60667E+00   -0.46583E+01 30984   0.385E+01    0.378E+00
DAV:   2    -0.222751329905E+03   -0.70161E+00   -0.66587E+00 28872   0.701E+00    0.224E+00
DAV:   3    -0.222817774236E+03   -0.66444E-01   -0.24054E-01 39552   0.169E+00    0.335E+00
DAV:   4    -0.222802521636E+03    0.15253E-01   -0.10943E-01 39256   0.995E-01    0.138E+00
DAV:   5    -0.222807025898E+03   -0.45043E-02   -0.41361E-02 39448   0.593E-01    0.169E+00
DAV:   6    -0.222805679798E+03    0.13461E-02   -0.47912E-02 39096   0.547E-01    0.108E+00
DAV:   7    -0.222806160561E+03   -0.48076E-03   -0.16246E-02 39128   0.528E-01    0.774E-01
DAV:   8    -0.222806572760E+03   -0.41220E-03   -0.76423E-03 39312   0.357E-01    0.680E-01
DAV:   9    -0.222805866809E+03    0.70595E-03   -0.41077E-03 38832   0.225E-01    0.206E-01
DAV:  10    -0.222805879755E+03   -0.12946E-04   -0.41558E-04 38864   0.108E-01    0.119E-01
DAV:  11    -0.222805871388E+03    0.83668E-05   -0.19280E-04 35384   0.750E-02    0.976E-02
DAV:  12    -0.222805866971E+03    0.44172E-05   -0.97451E-05 27720   0.501E-02
  15 F= -.22280587E+03 E0= -.22279387E+03  d E =-.149472E+00  mag=    22.0000
       N       E                     dE             d eps       ncg     rms          rms(c)
DAV:   1    -0.222753520699E+03    0.52351E-01   -0.63837E+00 30664   0.129E+01    0.111E+00
DAV:   2    -0.222816589359E+03   -0.63069E-01   -0.59571E-01 28912   0.225E+00    0.111E+00
DAV:   3    -0.222822412072E+03   -0.58227E-02   -0.49167E-02 38600   0.722E-01    0.150E+00
DAV:   4    -0.222819419262E+03    0.29928E-02   -0.18101E-02 38280   0.437E-01    0.581E-01
DAV:   5    -0.222819540745E+03   -0.12148E-03   -0.46352E-03 40904   0.197E-01    0.427E-01
DAV:   6    -0.222819724312E+03   -0.18357E-03   -0.27217E-03 38880   0.186E-01    0.428E-01
DAV:   7    -0.222819592302E+03    0.13201E-03   -0.19533E-03 38712   0.197E-01    0.238E-01
DAV:   8    -0.222819769389E+03   -0.17709E-03   -0.17592E-03 39040   0.134E-01    0.314E-01
DAV:   9    -0.222819606041E+03    0.16335E-03   -0.73684E-04 38456   0.934E-02    0.624E-02
DAV:  10    -0.222819619222E+03   -0.13181E-04   -0.46931E-05 29048   0.392E-02    0.457E-02
DAV:  11    -0.222819615413E+03    0.38087E-05   -0.16540E-05 21768   0.265E-02
  16 F= -.22281962E+03 E0= -.22280775E+03  d E =-.137484E-01  mag=    22.0000
       N       E                     dE             d eps       ncg     rms          rms(c)
DAV:   1    -0.222818564896E+03    0.10543E-02   -0.18771E+00 29376   0.446E+00    0.235E-01
DAV:   2    -0.222824594247E+03   -0.60294E-02   -0.57096E-02 31032   0.811E-01    0.601E-01
DAV:   3    -0.222824068111E+03    0.52614E-03   -0.25608E-03 37176   0.180E-01    0.272E-01
DAV:   4    -0.222824135815E+03   -0.67704E-04   -0.56080E-04 36696   0.832E-02    0.296E-01
DAV:   5    -0.222824103701E+03    0.32114E-04   -0.49705E-04 31376   0.761E-02    0.267E-01
DAV:   6    -0.222824088878E+03    0.14823E-04   -0.35803E-04 34160   0.673E-02    0.252E-01
DAV:   7    -0.222823989551E+03    0.99327E-04   -0.44896E-04 32904   0.989E-02    0.113E-01
DAV:   8    -0.222823986076E+03    0.34752E-05   -0.18119E-04 34176   0.579E-02    0.578E-02
DAV:   9    -0.222823986230E+03   -0.15453E-06   -0.31854E-05 22464   0.260E-02
  17 F= -.22282399E+03 E0= -.22281219E+03  d E =-.437082E-02  mag=    22.0000
       N       E                     dE             d eps       ncg     rms          rms(c)
DAV:   1    -0.222817753717E+03    0.62324E-02   -0.25755E+00 29048   0.564E+00    0.321E-01
DAV:   2    -0.222827308926E+03   -0.95552E-02   -0.90788E-02 29496   0.103E+00    0.652E-01
DAV:   3    -0.222826724435E+03    0.58449E-03   -0.37180E-03 38296   0.235E-01    0.299E-01
DAV:   4    -0.222826847239E+03   -0.12280E-03   -0.10727E-03 39504   0.117E-01    0.322E-01
DAV:   5    -0.222826778031E+03    0.69208E-04   -0.74686E-04 36008   0.935E-02    0.267E-01
DAV:   6    -0.222826779944E+03   -0.19128E-05   -0.75892E-04 37760   0.837E-02    0.277E-01
DAV:   7    -0.222826650529E+03    0.12941E-03   -0.68274E-04 33536   0.109E-01    0.100E-01
DAV:   8    -0.222826659194E+03   -0.86653E-05   -0.17271E-04 34216   0.557E-02    0.329E-02
DAV:   9    -0.222826662865E+03   -0.36707E-05   -0.22618E-05 21248   0.209E-02
  18 F= -.22282666E+03 E0= -.22281498E+03  d E =-.267663E-02  mag=    22.0000
       N       E                     dE             d eps       ncg     rms          rms(c)
DAV:   1    -0.222825674746E+03    0.98445E-03   -0.18882E-01 29488   0.189E+00    0.135E-01
DAV:   2    -0.222826838047E+03   -0.11633E-02   -0.10982E-02 28840   0.341E-01    0.221E-01
DAV:   3    -0.222826809396E+03    0.28651E-04   -0.74434E-04 39072   0.979E-02    0.130E-01
DAV:   4    -0.222826807279E+03    0.21168E-05   -0.12275E-04 29040   0.450E-02    0.586E-02
DAV:   5    -0.222826805973E+03    0.13065E-05   -0.26220E-05 22328   0.301E-02
  19 F= -.22282681E+03 E0= -.22281513E+03  d E =-.143108E-03  mag=    22.0000
       N       E                     dE             d eps       ncg     rms          rms(c)
DAV:   1    -0.222825707735E+03    0.10995E-02   -0.31628E-01 29376   0.184E+00    0.107E-01
DAV:   2    -0.222826791729E+03   -0.10840E-02   -0.10575E-02 31840   0.340E-01    0.358E-01
DAV:   3    -0.222826580625E+03    0.21110E-03   -0.14727E-03 39984   0.115E-01    0.813E-02
DAV:   4    -0.222826596374E+03   -0.15749E-04   -0.72110E-05 29592   0.407E-02    0.753E-02
DAV:   5    -0.222826589593E+03    0.67809E-05   -0.41659E-05 23928   0.317E-02
  20 F= -.22282659E+03 E0= -.22281492E+03  d E =0.216380E-03  mag=    22.0000
       N       E                     dE             d eps       ncg     rms          rms(c)
DAV:   1    -0.222825003726E+03    0.15926E-02   -0.41415E-01 28800   0.208E+00    0.126E-01
DAV:   2    -0.222826158206E+03   -0.11545E-02   -0.11759E-02 29560   0.357E-01    0.164E-01
DAV:   3    -0.222826175176E+03   -0.16970E-04   -0.66774E-04 39296   0.103E-01    0.161E-01
DAV:   4    -0.222826133045E+03    0.42130E-04   -0.15704E-04 27392   0.424E-02    0.733E-02
DAV:   5    -0.222826129373E+03    0.36723E-05   -0.44728E-05 22144   0.299E-02
  21 F= -.22282613E+03 E0= -.22281440E+03  d E =0.460220E-03  mag=    22.0000
       N       E                     dE             d eps       ncg     rms          rms(c)
DAV:   1    -0.222811644662E+03    0.14488E-01   -0.42800E+00 28888   0.672E+00    0.364E-01
DAV:   2    -0.222824124782E+03   -0.12480E-01   -0.12453E-01 27888   0.115E+00    0.585E-01
DAV:   3    -0.222823952545E+03    0.17224E-03   -0.69300E-03 39992   0.303E-01    0.428E-01
DAV:   4    -0.222823746297E+03    0.20625E-03   -0.23566E-03 39728   0.148E-01    0.269E-01
DAV:   5    -0.222823667310E+03    0.78987E-04   -0.10309E-03 38976   0.102E-01    0.201E-01
DAV:   6    -0.222823638338E+03    0.28972E-04   -0.68319E-04 38400   0.904E-02    0.217E-01
DAV:   7    -0.222823516134E+03    0.12220E-03   -0.46418E-04 35256   0.101E-01    0.567E-02
DAV:   8    -0.222823541702E+03   -0.25569E-04   -0.10882E-04 33792   0.485E-02    0.475E-02
DAV:   9    -0.222823538279E+03    0.34236E-05   -0.13097E-05 21168   0.263E-02
  22 F= -.22282354E+03 E0= -.22281174E+03  d E =0.259109E-02  mag=    22.0000
       N       E                     dE             d eps       ncg     rms          rms(c)
DAV:   1    -0.222803804886E+03    0.19737E-01   -0.59752E+00 28896   0.786E+00    0.422E-01
DAV:   2    -0.222821105549E+03   -0.17301E-01   -0.17669E-01 27688   0.134E+00    0.390E-01
DAV:   3    -0.222821609227E+03   -0.50368E-03   -0.75000E-03 41056   0.299E-01    0.583E-01
DAV:   4    -0.222820976573E+03    0.63265E-03   -0.30186E-03 40048   0.168E-01    0.193E-01
DAV:   5    -0.222821020134E+03   -0.43561E-04   -0.88810E-04 38936   0.104E-01    0.261E-01
DAV:   6    -0.222820912866E+03    0.10727E-03   -0.12925E-03 38992   0.117E-01    0.239E-01
DAV:   7    -0.222820807060E+03    0.10581E-03   -0.53229E-04 38008   0.997E-02    0.709E-02
DAV:   8    -0.222820833805E+03   -0.26745E-04   -0.98142E-05 35232   0.476E-02    0.647E-02
DAV:   9    -0.222820827184E+03    0.66209E-05   -0.33182E-05 22824   0.309E-02
  23 F= -.22282083E+03 E0= -.22280910E+03  d E =0.271109E-02  mag=    22.0000
       N       E                     dE             d eps       ncg     rms          rms(c)
DAV:   1    -0.222582473849E+03    0.23836E+00   -0.62233E+01 29416   0.285E+01    0.167E+00
DAV:   2    -0.222811847611E+03   -0.22937E+00   -0.22945E+00 27688   0.492E+00    0.240E+00
DAV:   3    -0.222812486123E+03   -0.63851E-03   -0.15802E-01 40496   0.125E+00    0.206E+00
DAV:   4    -0.222807346730E+03    0.51394E-02   -0.50474E-02 38952   0.655E-01    0.879E-01
DAV:   5    -0.222806933118E+03    0.41361E-03   -0.11140E-02 39680   0.357E-01    0.685E-01
DAV:   6    -0.222806209891E+03    0.72323E-03   -0.72280E-03 38912   0.321E-01    0.676E-01
DAV:   7    -0.222805208663E+03    0.10012E-02   -0.43417E-03 37920   0.312E-01    0.303E-01
DAV:   8    -0.222805492732E+03   -0.28407E-03   -0.15901E-03 39616   0.182E-01    0.238E-01
DAV:   9    -0.222805453973E+03    0.38759E-04   -0.66112E-04 38216   0.115E-01    0.144E-01
DAV:  10    -0.222805444695E+03    0.92779E-05   -0.22016E-04 29280   0.595E-02    0.107E-01
DAV:  11    -0.222805428386E+03    0.16309E-04   -0.78389E-05 26784   0.451E-02    0.470E-02
DAV:  12    -0.222805432507E+03   -0.41209E-05   -0.24527E-05 22400   0.308E-02
  24 F= -.22280543E+03 E0= -.22279385E+03  d E =0.153947E-01  mag=    22.0000
       N       E                     dE             d eps       ncg     rms          rms(c)
DAV:   1    -0.222676028963E+03    0.12940E+00   -0.36516E+01 29376   0.201E+01    0.113E+00
DAV:   2    -0.222798348915E+03   -0.12232E+00   -0.12212E+00 27856   0.352E+00    0.141E+00
DAV:   3    -0.222800607607E+03   -0.22587E-02   -0.77221E-02 39840   0.830E-01    0.148E+00
DAV:   4    -0.222797205019E+03    0.34026E-02   -0.23942E-02 39120   0.473E-01    0.749E-01
DAV:   5    -0.222796830286E+03    0.37473E-03   -0.58976E-03 40416   0.257E-01    0.594E-01
DAV:   6    -0.222796648064E+03    0.18222E-03   -0.49426E-03 38656   0.269E-01    0.706E-01
DAV:   7    -0.222795862959E+03    0.78510E-03   -0.39777E-03 36240   0.295E-01    0.430E-01
DAV:   8    -0.222795748476E+03    0.11448E-03   -0.20826E-03 38224   0.162E-01    0.174E-01
DAV:   9    -0.222795776353E+03   -0.27877E-04   -0.36717E-04 38528   0.886E-02    0.116E-01
DAV:  10    -0.222795769982E+03    0.63712E-05   -0.17238E-04 28816   0.526E-02    0.888E-02
DAV:  11    -0.222795760287E+03    0.96944E-05   -0.65973E-05 24880   0.373E-02
  25 F= -.22279576E+03 E0= -.22278407E+03  d E =0.967222E-02  mag=    22.0000
       N       E                     dE             d eps       ncg     rms          rms(c)
DAV:   1    -0.221791247841E+03    0.10045E+01   -0.84099E+01 31560   0.478E+01    0.403E+00
DAV:   2    -0.222707453456E+03   -0.91621E+00   -0.86902E+00 28824   0.885E+00    0.445E+00
DAV:   3    -0.222760335767E+03   -0.52882E-01   -0.61682E-01 37864   0.255E+00    0.471E+00
DAV:   4    -0.222736587152E+03    0.23749E-01   -0.13271E-01 38456   0.133E+00    0.196E+00
DAV:   5    -0.222736413823E+03    0.17333E-03   -0.40722E-02 38952   0.657E-01    0.157E+00
DAV:   6    -0.222740419502E+03   -0.40057E-02   -0.49218E-02 39040   0.684E-01    0.178E+00
DAV:   7    -0.222737662331E+03    0.27572E-02   -0.34852E-02 39064   0.668E-01    0.979E-01
DAV:   8    -0.222738076067E+03   -0.41374E-03   -0.10853E-02 38904   0.494E-01    0.650E-01
DAV:   9    -0.222738150231E+03   -0.74164E-04   -0.62263E-03 38688   0.303E-01    0.526E-01
DAV:  10    -0.222737790590E+03    0.35964E-03   -0.26259E-03 38592   0.179E-01    0.248E-01
DAV:  11    -0.222737805492E+03   -0.14903E-04   -0.76638E-04 38584   0.112E-01    0.171E-01
DAV:  12    -0.222737822487E+03   -0.16994E-04   -0.23761E-04 34800   0.961E-02    0.132E-01
DAV:  13    -0.222737832787E+03   -0.10301E-04   -0.15743E-04 29528   0.638E-02    0.679E-02
DAV:  14    -0.222737835079E+03   -0.22917E-05   -0.31762E-05 24896   0.328E-02
  26 F= -.22273784E+03 E0= -.22272612E+03  d E =0.579252E-01  mag=    22.0000
       N       E                     dE             d eps       ncg     rms          rms(c)
DAV:   1    -0.222571926964E+03    0.16591E+00   -0.14007E+01 31328   0.216E+01    0.205E+00
DAV:   2    -0.222788900056E+03   -0.21697E+00   -0.20441E+00 28952   0.402E+00    0.262E+00
DAV:   3    -0.222798438822E+03   -0.95388E-02   -0.17521E-01 38456   0.137E+00    0.253E+00
DAV:   4    -0.222793948924E+03    0.44899E-02   -0.69153E-02 39128   0.690E-01    0.897E-01
DAV:   5    -0.222794753363E+03   -0.80444E-03   -0.13788E-02 38720   0.367E-01    0.823E-01
DAV:   6    -0.222794718821E+03    0.34543E-04   -0.56336E-03 38792   0.279E-01    0.529E-01
DAV:   7    -0.222794772029E+03   -0.53208E-04   -0.23904E-03 38744   0.283E-01    0.373E-01
DAV:   8    -0.222794894707E+03   -0.12268E-03   -0.12696E-03 38832   0.183E-01    0.217E-01
DAV:   9    -0.222794898464E+03   -0.37565E-05   -0.53410E-04 38952   0.121E-01    0.156E-01
DAV:  10    -0.222794884199E+03    0.14264E-04   -0.25115E-04 31264   0.625E-02    0.107E-01
DAV:  11    -0.222794873859E+03    0.10340E-04   -0.11148E-04 26408   0.433E-02    0.623E-02
DAV:  12    -0.222794869745E+03    0.41145E-05   -0.25440E-05 23024   0.289E-02
  27 F= -.22279487E+03 E0= -.22278317E+03  d E =-.570347E-01  mag=    22.0000
       N       E                     dE             d eps       ncg     rms          rms(c)
DAV:   1    -0.222753427102E+03    0.41447E-01   -0.37863E+00 31552   0.107E+01    0.971E-01
DAV:   2    -0.222804794334E+03   -0.51367E-01   -0.48261E-01 28880   0.202E+00    0.153E+00
DAV:   3    -0.222804611341E+03    0.18299E-03   -0.47281E-02 38200   0.692E-01    0.105E+00
DAV:   4    -0.222804682555E+03   -0.71214E-04   -0.11540E-02 39448   0.314E-01    0.439E-01
DAV:   5    -0.222804767427E+03   -0.84872E-04   -0.34648E-03 39520   0.186E-01    0.407E-01
DAV:   6    -0.222804733633E+03    0.33794E-04   -0.12003E-03 38360   0.138E-01    0.253E-01
DAV:   7    -0.222804776417E+03   -0.42784E-04   -0.72450E-04 38720   0.155E-01    0.197E-01
DAV:   8    -0.222804791982E+03   -0.15565E-04   -0.30061E-04 37344   0.885E-02    0.103E-01
DAV:   9    -0.222804783333E+03    0.86488E-05   -0.10707E-04 28952   0.491E-02    0.584E-02
DAV:  10    -0.222804781882E+03    0.14513E-05   -0.36119E-05 21736   0.256E-02
  28 F= -.22280478E+03 E0= -.22279306E+03  d E =-.991214E-02  mag=    22.0000
       N       E                     dE             d eps       ncg     rms          rms(c)
DAV:   1    -0.222800449028E+03    0.43343E-02   -0.74006E-01 30520   0.395E+00    0.315E-01
DAV:   2    -0.222806655627E+03   -0.62066E-02   -0.58483E-02 28712   0.739E-01    0.587E-01
DAV:   3    -0.222806383716E+03    0.27191E-03   -0.52944E-03 37824   0.242E-01    0.294E-01
DAV:   4    -0.222806470785E+03   -0.87068E-04   -0.84312E-04 37600   0.926E-02    0.160E-01
DAV:   5    -0.222806490772E+03   -0.19987E-04   -0.48706E-04 31200   0.729E-02    0.188E-01
DAV:   6    -0.222806470096E+03    0.20676E-04   -0.28866E-04 34328   0.620E-02    0.129E-01
DAV:   7    -0.222806458873E+03    0.11223E-04   -0.12703E-04 34120   0.695E-02    0.729E-02
DAV:   8    -0.222806464075E+03   -0.52019E-05   -0.46699E-05 24816   0.322E-02
  29 F= -.22280646E+03 E0= -.22279474E+03  d E =-.168219E-02  mag=    22.0000
       N       E                     dE             d eps       ncg     rms          rms(c)
DAV:   1    -0.222799469843E+03    0.69890E-02   -0.13656E+00 30624   0.484E+00    0.334E-01
DAV:   2    -0.222807163432E+03   -0.76936E-02   -0.73335E-02 28680   0.874E-01    0.592E-01
DAV:   3    -0.222806934185E+03    0.22925E-03   -0.52828E-03 37928   0.253E-01    0.331E-01
DAV:   4    -0.222806975011E+03   -0.40826E-04   -0.84375E-04 38616   0.102E-01    0.190E-01
DAV:   5    -0.222807015977E+03   -0.40966E-04   -0.55415E-04 35224   0.836E-02    0.244E-01
DAV:   6    -0.222806988759E+03    0.27218E-04   -0.73897E-04 37000   0.855E-02    0.203E-01
DAV:   7    -0.222806939507E+03    0.49253E-04   -0.41305E-04 37440   0.913E-02    0.944E-02
DAV:   8    -0.222806952107E+03   -0.12601E-04   -0.97977E-05 30264   0.449E-02    0.546E-02
DAV:   9    -0.222806948793E+03    0.33141E-05   -0.17056E-05 21992   0.267E-02
  30 F= -.22280695E+03 E0= -.22279522E+03  d E =-.484719E-03  mag=    22.0000
       N       E                     dE             d eps       ncg     rms          rms(c)
DAV:   1    -0.222801509889E+03    0.54422E-02   -0.17368E+00 29376   0.449E+00    0.244E-01
DAV:   2    -0.222807094622E+03   -0.55847E-02   -0.55834E-02 27816   0.774E-01    0.279E-01
DAV:   3    -0.222807201058E+03   -0.10644E-03   -0.20046E-03 39848   0.172E-01    0.297E-01
DAV:   4    -0.222807080138E+03    0.12092E-03   -0.62637E-04 39184   0.983E-02    0.148E-01
DAV:   5    -0.222807078810E+03    0.13281E-05   -0.11457E-04 34304   0.580E-02    0.153E-01
DAV:   6    -0.222807016823E+03    0.61988E-04   -0.19533E-04 32968   0.672E-02    0.778E-02
DAV:   7    -0.222807035155E+03   -0.18333E-04   -0.12245E-04 35632   0.544E-02    0.781E-02
DAV:   8    -0.222807027074E+03    0.80817E-05   -0.43596E-05 23344   0.340E-02
  31 F= -.22280703E+03 E0= -.22279530E+03  d E =-.782803E-04  mag=    22.0000
       N       E                     dE             d eps       ncg     rms          rms(c)
DAV:   1    -0.222242431605E+03    0.56460E+00   -0.65950E+01 30536   0.371E+01    0.283E+00
DAV:   2    -0.222752083217E+03   -0.50965E+00   -0.48738E+00 28352   0.683E+00    0.369E+00
DAV:   3    -0.222767135951E+03   -0.15053E-01   -0.30768E-01 37656   0.194E+00    0.328E+00
DAV:   4    -0.222758266162E+03    0.88698E-02   -0.57580E-02 38552   0.948E-01    0.133E+00
DAV:   5    -0.222760724616E+03   -0.24585E-02   -0.18856E-02 39968   0.566E-01    0.153E+00
DAV:   6    -0.222761489450E+03   -0.76483E-03   -0.36661E-02 38336   0.594E-01    0.160E+00
DAV:   7    -0.222758673005E+03    0.28164E-02   -0.35830E-02 38976   0.554E-01    0.798E-01
DAV:   8    -0.222759268509E+03   -0.59550E-03   -0.57423E-03 38376   0.351E-01    0.411E-01
DAV:   9    -0.222759098831E+03    0.16968E-03   -0.12706E-03 38096   0.193E-01    0.230E-01
DAV:  10    -0.222759039998E+03    0.58832E-04   -0.54999E-04 38184   0.980E-02    0.185E-01
DAV:  11    -0.222758965819E+03    0.74179E-04   -0.25870E-04 33504   0.661E-02    0.123E-01
DAV:  12    -0.222758969513E+03   -0.36940E-05   -0.19803E-04 30208   0.668E-02    0.118E-01
DAV:  13    -0.222758980018E+03   -0.10505E-04   -0.13684E-04 27232   0.530E-02    0.592E-02
DAV:  14    -0.222758984852E+03   -0.48341E-05   -0.26114E-05 24384   0.318E-02
  32 F= -.22275898E+03 E0= -.22274743E+03  d E =0.480422E-01  mag=    22.0000
       N       E                     dE             d eps       ncg     rms          rms(c)
DAV:   1    -0.222610944720E+03    0.14804E+00   -0.19170E+01 31024   0.215E+01    0.187E+00
DAV:   2    -0.222818957909E+03   -0.20801E+00   -0.19458E+00 29472   0.412E+00    0.383E+00
DAV:   3    -0.222799140787E+03    0.19817E-01   -0.11225E-01 37648   0.133E+00    0.132E+00
DAV:   4    -0.222804577098E+03   -0.54363E-02   -0.16202E-02 39736   0.456E-01    0.738E-01
DAV:   5    -0.222805553330E+03   -0.97623E-03   -0.11733E-02 39296   0.338E-01    0.102E+00
DAV:   6    -0.222804562196E+03    0.99113E-03   -0.10246E-02 38624   0.296E-01    0.543E-01
DAV:   7    -0.222805016478E+03   -0.45428E-03   -0.47623E-03 38504   0.327E-01    0.510E-01
DAV:   8    -0.222804953993E+03    0.62485E-04   -0.25176E-03 38360   0.209E-01    0.334E-01
DAV:   9    -0.222804816803E+03    0.13719E-03   -0.83431E-04 38432   0.122E-01    0.129E-01
DAV:  10    -0.222804814268E+03    0.25357E-05   -0.14324E-04 31616   0.619E-02    0.883E-02
DAV:  11    -0.222804798542E+03    0.15726E-04   -0.37821E-05 24728   0.358E-02    0.483E-02
DAV:  12    -0.222804795333E+03    0.32088E-05   -0.19222E-05 21944   0.264E-02
  33 F= -.22280480E+03 E0= -.22279310E+03  d E =-.458105E-01  mag=    22.0000
       N       E                     dE             d eps       ncg     rms          rms(c)
DAV:   1    -0.222786415940E+03    0.18383E-01   -0.31738E+00 30880   0.803E+00    0.626E-01
DAV:   2    -0.222810903885E+03   -0.24488E-01   -0.23072E-01 28712   0.148E+00    0.123E+00
DAV:   3    -0.222809488456E+03    0.14154E-02   -0.20738E-02 37680   0.475E-01    0.566E-01
DAV:   4    -0.222809914248E+03   -0.42579E-03   -0.31910E-03 39616   0.178E-01    0.335E-01
DAV:   5    -0.222809968994E+03   -0.54746E-04   -0.20453E-03 38920   0.144E-01    0.378E-01
DAV:   6    -0.222809885966E+03    0.83027E-04   -0.10216E-03 37856   0.125E-01    0.270E-01
DAV:   7    -0.222809833162E+03    0.52804E-04   -0.57824E-04 38272   0.138E-01    0.144E-01
DAV:   8    -0.222809864935E+03   -0.31773E-04   -0.19695E-04 34144   0.638E-02    0.677E-02
DAV:   9    -0.222809862388E+03    0.25464E-05   -0.27832E-05 24520   0.327E-02
  34 F= -.22280986E+03 E0= -.22279815E+03  d E =-.506706E-02  mag=    22.0000
       N       E                     dE             d eps       ncg     rms          rms(c)
DAV:   1    -0.222808369403E+03    0.14955E-02   -0.41938E-01 30608   0.246E+00    0.161E-01
DAV:   2    -0.222810306798E+03   -0.19374E-02   -0.18824E-02 28912   0.439E-01    0.188E-01
DAV:   3    -0.222810366717E+03   -0.59919E-04   -0.74631E-04 38304   0.971E-02    0.194E-01
DAV:   4    -0.222810341257E+03    0.25460E-04   -0.39092E-04 31536   0.678E-02    0.134E-01
DAV:   5    -0.222810340059E+03    0.11985E-05   -0.11928E-04 26128   0.383E-02    0.122E-01
DAV:   6    -0.222810347072E+03   -0.70128E-05   -0.25272E-04 31424   0.501E-02    0.138E-01
DAV:   7    -0.222810316821E+03    0.30251E-04   -0.15313E-04 30480   0.516E-02    0.448E-02
DAV:   8    -0.222810323259E+03   -0.64385E-05   -0.26092E-05 21104   0.235E-02
  35 F= -.22281032E+03 E0= -.22279861E+03  d E =-.460871E-03  mag=    22.0000
       N       E                     dE             d eps       ncg     rms          rms(c)
DAV:   1    -0.222808708216E+03    0.16086E-02   -0.38964E-01 29392   0.227E+00    0.136E-01
DAV:   2    -0.222810309209E+03   -0.16010E-02   -0.15541E-02 28888   0.409E-01    0.240E-01
DAV:   3    -0.222810269320E+03    0.39889E-04   -0.94835E-04 37408   0.964E-02    0.148E-01
DAV:   4    -0.222810279471E+03   -0.10152E-04   -0.27894E-04 29152   0.539E-02    0.132E-01
DAV:   5    -0.222810272895E+03    0.65761E-05   -0.65393E-05 25744   0.353E-02
  36 F= -.22281027E+03 E0= -.22279856E+03  d E =0.503639E-04  mag=    22.0000
       N       E                     dE             d eps       ncg     rms          rms(c)
DAV:   1    -0.222809304754E+03    0.97472E-03   -0.28443E-01 29376   0.172E+00    0.181E-01
DAV:   2    -0.222810670478E+03   -0.13657E-02   -0.11242E-02 32480   0.383E-01    0.613E-01
DAV:   3    -0.222810035324E+03    0.63515E-03   -0.34612E-03 36272   0.210E-01    0.175E-01
DAV:   4    -0.222810079360E+03   -0.44036E-04   -0.27259E-04 32184   0.581E-02    0.124E-01
DAV:   5    -0.222810071259E+03    0.81008E-05   -0.84606E-05 24240   0.298E-02
  37 F= -.22281007E+03 E0= -.22279838E+03  d E =0.201636E-03  mag=    22.0000
       N       E                     dE             d eps       ncg     rms          rms(c)
DAV:   1    -0.222791936381E+03    0.18143E-01   -0.55217E+00 29296   0.827E+00    0.485E-01
DAV:   2    -0.222811733651E+03   -0.19797E-01   -0.19213E-01 28760   0.146E+00    0.104E+00
DAV:   3    -0.222810547450E+03    0.11862E-02   -0.20114E-02 39272   0.409E-01    0.511E-01
DAV:   4    -0.222810482142E+03    0.65308E-04   -0.31446E-03 39248   0.177E-01    0.336E-01
DAV:   5    -0.222810355691E+03    0.12645E-03   -0.10889E-03 39248   0.994E-02    0.222E-01
DAV:   6    -0.222810296773E+03    0.58918E-04   -0.61183E-04 36056   0.115E-01    0.242E-01
DAV:   7    -0.222810218109E+03    0.78663E-04   -0.44813E-04 38896   0.108E-01    0.138E-01
DAV:   8    -0.222810220214E+03   -0.21042E-05   -0.20390E-04 35744   0.643E-02    0.753E-02
DAV:   9    -0.222810214721E+03    0.54929E-05   -0.39003E-05 25536   0.389E-02
  38 F= -.22281021E+03 E0= -.22279852E+03  d E =-.143462E-03  mag=    22.0000
       N       E                     dE             d eps       ncg     rms          rms(c)
DAV:   1    -0.222770232914E+03    0.39987E-01   -0.63638E+00 29616   0.114E+01    0.790E-01
DAV:   2    -0.222809944789E+03   -0.39712E-01   -0.38524E-01 27664   0.198E+00    0.894E-01
DAV:   3    -0.222812531943E+03   -0.25872E-02   -0.39468E-02 39704   0.567E-01    0.123E+00
DAV:   4    -0.222810552799E+03    0.19791E-02   -0.14848E-02 38648   0.334E-01    0.383E-01
DAV:   5    -0.222810665747E+03   -0.11295E-03   -0.15898E-03 39784   0.142E-01    0.277E-01
DAV:   6    -0.222810676047E+03   -0.10301E-04   -0.82452E-04 37992   0.127E-01    0.262E-01
DAV:   7    -0.222810626081E+03    0.49967E-04   -0.65429E-04 38392   0.134E-01    0.154E-01
DAV:   8    -0.222810649418E+03   -0.23337E-04   -0.22297E-04 38992   0.683E-02    0.699E-02
DAV:   9    -0.222810644333E+03    0.50844E-05   -0.36937E-05 26256   0.394E-02
  39 F= -.22281064E+03 E0= -.22279895E+03  d E =-.429612E-03  mag=    22.0000
       N       E                     dE             d eps       ncg     rms          rms(c)
DAV:   1    -0.222785817138E+03    0.24832E-01   -0.48251E+00 29344   0.905E+00    0.591E-01
DAV:   2    -0.222810043343E+03   -0.24226E-01   -0.23646E-01 27768   0.157E+00    0.481E-01
DAV:   3    -0.222811385731E+03   -0.13424E-02   -0.10856E-02 39072   0.364E-01    0.723E-01
DAV:   4    -0.222810630262E+03    0.75547E-03   -0.45691E-03 39240   0.198E-01    0.261E-01
DAV:   5    -0.222810710270E+03   -0.80009E-04   -0.83572E-04 39360   0.113E-01    0.276E-01
DAV:   6    -0.222810694269E+03    0.16002E-04   -0.12825E-03 38488   0.121E-01    0.285E-01
DAV:   7    -0.222810577980E+03    0.11629E-03   -0.88322E-04 39352   0.121E-01    0.125E-01
DAV:   8    -0.222810614666E+03   -0.36687E-04   -0.19913E-04 37816   0.826E-02    0.972E-02
DAV:   9    -0.222810600445E+03    0.14222E-04   -0.51716E-05 26536   0.468E-02    0.382E-02
DAV:  10    -0.222810601286E+03   -0.84153E-06   -0.19872E-05 20712   0.252E-02
  40 F= -.22281060E+03 E0= -.22279891E+03  d E =0.430470E-04  mag=    22.0000
       N       E                     dE             d eps       ncg     rms          rms(c)
DAV:   1    -0.222797353825E+03    0.13247E-01   -0.26210E+00 29400   0.664E+00    0.428E-01
DAV:   2    -0.222810574039E+03   -0.13220E-01   -0.12821E-01 27952   0.117E+00    0.495E-01
DAV:   3    -0.222811080426E+03   -0.50639E-03   -0.68079E-03 39016   0.286E-01    0.544E-01
DAV:   4    -0.222810739476E+03    0.34095E-03   -0.23295E-03 38432   0.172E-01    0.252E-01
DAV:   5    -0.222810774541E+03   -0.35065E-04   -0.87024E-04 37728   0.879E-02    0.264E-01
DAV:   6    -0.222810750794E+03    0.23747E-04   -0.10791E-03 36616   0.104E-01    0.241E-01
DAV:   7    -0.222810696840E+03    0.53954E-04   -0.57744E-04 38456   0.105E-01    0.135E-01
DAV:   8    -0.222810697874E+03   -0.10335E-05   -0.18132E-04 31976   0.624E-02    0.650E-02
DAV:   9    -0.222810694572E+03    0.33019E-05   -0.40177E-05 23560   0.299E-02
  41 F= -.22281069E+03 E0= -.22279899E+03  d E =-.932859E-04  mag=    22.0000
       N       E                     dE             d eps       ncg     rms          rms(c)
DAV:   1    -0.222807191705E+03    0.35062E-02   -0.69090E-01 29448   0.369E+00    0.254E-01
DAV:   2    -0.222811435956E+03   -0.42443E-02   -0.40839E-02 27776   0.656E-01    0.279E-01
DAV:   3    -0.222811629167E+03   -0.19321E-03   -0.21750E-03 39176   0.174E-01    0.319E-01
DAV:   4    -0.222811506447E+03    0.12272E-03   -0.77098E-04 37480   0.994E-02    0.120E-01
DAV:   5    -0.222811515703E+03   -0.92564E-05   -0.18155E-04 28112   0.529E-02    0.121E-01
DAV:   6    -0.222811515334E+03    0.36897E-06   -0.27323E-04 28104   0.532E-02    0.118E-01
DAV:   7    -0.222811498753E+03    0.16581E-04   -0.19758E-04 33080   0.551E-02    0.546E-02
DAV:   8    -0.222811503505E+03   -0.47517E-05   -0.31142E-05 23640   0.357E-02
  42 F= -.22281150E+03 E0= -.22279979E+03  d E =-.808933E-03  mag=    22.0000
       N       E                     dE             d eps       ncg     rms          rms(c)
DAV:   1    -0.222811322503E+03    0.17625E-03   -0.27881E-02 30560   0.779E-01    0.612E-02
DAV:   2    -0.222811551135E+03   -0.22863E-03   -0.21066E-03 28656   0.148E-01    0.123E-01
DAV:   3    -0.222811534728E+03    0.16406E-04   -0.17919E-04 27776   0.541E-02    0.494E-02
DAV:   4    -0.222811540575E+03   -0.58465E-05   -0.25120E-05 21048   0.244E-02
  43 F= -.22281154E+03 E0= -.22279982E+03  d E =-.370699E-04  mag=    22.0000
       N       E                     dE             d eps       ncg     rms          rms(c)
DAV:   1    -0.222716076418E+03    0.95458E-01   -0.11198E+01 29512   0.154E+01    0.117E+00
DAV:   2    -0.222800708325E+03   -0.84632E-01   -0.80752E-01 28040   0.282E+00    0.196E+00
DAV:   3    -0.222800937490E+03   -0.22916E-03   -0.10776E-01 38368   0.886E-01    0.148E+00
DAV:   4    -0.222799654737E+03    0.12828E-02   -0.19314E-02 38408   0.418E-01    0.707E-01
DAV:   5    -0.222799545200E+03    0.10954E-03   -0.53172E-03 40456   0.242E-01    0.583E-01
DAV:   6    -0.222799638508E+03   -0.93308E-04   -0.29137E-03 38880   0.227E-01    0.543E-01
DAV:   7    -0.222799241036E+03    0.39747E-03   -0.20061E-03 38376   0.233E-01    0.218E-01
DAV:   8    -0.222799398852E+03   -0.15782E-03   -0.52573E-04 38736   0.985E-02    0.925E-02
DAV:   9    -0.222799403389E+03   -0.45369E-05   -0.11398E-04 35264   0.607E-02    0.768E-02
DAV:  10    -0.222799394748E+03    0.86404E-05   -0.40651E-05 25072   0.385E-02
  44 F= -.22279939E+03 E0= -.22278761E+03  d E =0.121458E-01  mag=    22.0000
       N       E                     dE             d eps       ncg     rms          rms(c)
DAV:   1    -0.222368438926E+03    0.43096E+00   -0.38272E+01 30768   0.319E+01    0.278E+00
DAV:   2    -0.222797134291E+03   -0.42870E+00   -0.40872E+00 28240   0.593E+00    0.373E+00
DAV:   3    -0.222801379971E+03   -0.42457E-02   -0.30902E-01 37816   0.197E+00    0.334E+00
DAV:   4    -0.222796232278E+03    0.51477E-02   -0.15806E-01 38400   0.974E-01    0.159E+00
DAV:   5    -0.222795690395E+03    0.54188E-03   -0.28919E-02 39216   0.551E-01    0.112E+00
DAV:   6    -0.222795932966E+03   -0.24257E-03   -0.11594E-02 39680   0.373E-01    0.916E-01
DAV:   7    -0.222795947643E+03   -0.14677E-04   -0.10215E-02 38184   0.382E-01    0.718E-01
DAV:   8    -0.222795910631E+03    0.37011E-04   -0.37995E-03 37632   0.284E-01    0.368E-01
DAV:   9    -0.222796444064E+03   -0.53343E-03   -0.37747E-03 38120   0.228E-01    0.452E-01
DAV:  10    -0.222796272209E+03    0.17185E-03   -0.18809E-03 38320   0.165E-01    0.196E-01
DAV:  11    -0.222796288035E+03   -0.15826E-04   -0.26175E-04 34216   0.891E-02    0.114E-01
DAV:  12    -0.222796277570E+03    0.10465E-04   -0.81715E-05 27304   0.476E-02    0.979E-02
DAV:  13    -0.222796257408E+03    0.20162E-04   -0.43914E-05 24712   0.371E-02    0.624E-02
DAV:  14    -0.222796245772E+03    0.11635E-04   -0.35551E-05 23952   0.304E-02    0.309E-02
DAV:  15    -0.222796249554E+03   -0.37817E-05   -0.20305E-05 19976   0.229E-02
  45 F= -.22279625E+03 E0= -.22278461E+03  d E =0.314519E-02  mag=    22.0000
       N       E                     dE             d eps       ncg     rms          rms(c)
DAV:   1    -0.222779574973E+03    0.16671E-01   -0.16172E+00 30888   0.739E+00    0.730E-01
DAV:   2    -0.222807055708E+03   -0.27481E-01   -0.25437E-01 28336   0.136E+00    0.123E+00
DAV:   3    -0.222807217943E+03   -0.16224E-03   -0.44321E-02 38040   0.546E-01    0.932E-01
DAV:   4    -0.222806818569E+03    0.39937E-03   -0.78706E-03 38768   0.262E-01    0.320E-01
DAV:   5    -0.222806836291E+03   -0.17723E-04   -0.11986E-03 38696   0.111E-01    0.201E-01
DAV:   6    -0.222806901023E+03   -0.64731E-04   -0.39182E-04 37224   0.786E-02    0.136E-01
DAV:   7    -0.222806950555E+03   -0.49532E-04   -0.20154E-04 36224   0.910E-02    0.127E-01
DAV:   8    -0.222806943246E+03    0.73087E-05   -0.99644E-05 29632   0.544E-02
  46 F= -.22280694E+03 E0= -.22279529E+03  d E =-.106937E-01  mag=    22.0000
       N       E                     dE             d eps       ncg     rms          rms(c)
DAV:   1    -0.222791601230E+03    0.15349E-01   -0.12400E+00 30888   0.640E+00    0.624E-01
DAV:   2    -0.222811700361E+03   -0.20099E-01   -0.18689E-01 28440   0.119E+00    0.110E+00
DAV:   3    -0.222811533179E+03    0.16718E-03   -0.32990E-02 37872   0.478E-01    0.770E-01
DAV:   4    -0.222811408253E+03    0.12493E-03   -0.59158E-03 38576   0.227E-01    0.315E-01
DAV:   5    -0.222811368354E+03    0.39899E-04   -0.10102E-03 37448   0.109E-01    0.171E-01
DAV:   6    -0.222811434355E+03   -0.66001E-04   -0.29872E-04 37280   0.707E-02    0.139E-01
DAV:   7    -0.222811456022E+03   -0.21667E-04   -0.18508E-04 34624   0.822E-02    0.110E-01
DAV:   8    -0.222811459640E+03   -0.36181E-05   -0.79691E-05 28160   0.492E-02
  47 F= -.22281146E+03 E0= -.22279977E+03  d E =-.451639E-02  mag=    22.0000
       N       E                     dE             d eps       ncg     rms          rms(c)
DAV:   1    -0.222809821081E+03    0.16349E-02   -0.18513E-01 30656   0.231E+00    0.209E-01
DAV:   2    -0.222812161288E+03   -0.23402E-02   -0.22098E-02 28680   0.426E-01    0.368E-01
DAV:   3    -0.222812133952E+03    0.27336E-04   -0.35016E-03 37656   0.169E-01    0.254E-01
DAV:   4    -0.222812131483E+03    0.24693E-05   -0.75945E-04 32160   0.794E-02    0.123E-01
DAV:   5    -0.222812120610E+03    0.10873E-04   -0.14856E-04 26624   0.443E-02    0.688E-02
DAV:   6    -0.222812126891E+03   -0.62810E-05   -0.34388E-05 25760   0.281E-02
  48 F= -.22281213E+03 E0= -.22280040E+03  d E =-.667251E-03  mag=    22.0000
       N       E                     dE             d eps       ncg     rms          rms(c)
DAV:   1    -0.222810394111E+03    0.17265E-02   -0.21126E-01 30592   0.225E+00    0.181E-01
DAV:   2    -0.222812325655E+03   -0.19315E-02   -0.18353E-02 28736   0.408E-01    0.267E-01
DAV:   3    -0.222812378486E+03   -0.52831E-04   -0.20459E-03 36736   0.147E-01    0.241E-01
DAV:   4    -0.222812338407E+03    0.40079E-04   -0.67261E-04 30768   0.743E-02    0.113E-01
DAV:   5    -0.222812336097E+03    0.23098E-05   -0.12398E-04 27064   0.448E-02    0.836E-02
DAV:   6    -0.222812344276E+03   -0.81790E-05   -0.68586E-05 25168   0.319E-02
  49 F= -.22281234E+03 E0= -.22280064E+03  d E =-.217385E-03  mag=    22.0000
       N       E                     dE             d eps       ncg     rms          rms(c)
DAV:   1    -0.222811060984E+03    0.12751E-02   -0.26052E-01 29672   0.195E+00    0.122E-01
DAV:   2    -0.222812197434E+03   -0.11365E-02   -0.11268E-02 28880   0.343E-01    0.141E-01
DAV:   3    -0.222812242568E+03   -0.45134E-04   -0.63098E-04 36920   0.807E-02    0.168E-01
DAV:   4    -0.222812210697E+03    0.31871E-04   -0.20424E-04 26416   0.422E-02    0.856E-02
DAV:   5    -0.222812222551E+03   -0.11854E-04   -0.68404E-05 23496   0.355E-02    0.112E-01
DAV:   6    -0.222812209210E+03    0.13341E-04   -0.10800E-04 31224   0.419E-02    0.688E-02
DAV:   7    -0.222812211586E+03   -0.23755E-05   -0.67783E-05 26840   0.427E-02
  50 F= -.22281221E+03 E0= -.22280045E+03  d E =0.132690E-03  mag=    22.0000
       N       E                     dE             d eps       ncg     rms          rms(c)
DAV:   1    -0.222810241614E+03    0.19676E-02   -0.31904E-01 30024   0.248E+00    0.181E-01
DAV:   2    -0.222812341268E+03   -0.20997E-02   -0.20144E-02 27808   0.443E-01    0.292E-01
DAV:   3    -0.222812347668E+03   -0.64007E-05   -0.21874E-03 38920   0.144E-01    0.234E-01
DAV:   4    -0.222812307822E+03    0.39846E-04   -0.67946E-04 34760   0.773E-02    0.107E-01
DAV:   5    -0.222812298845E+03    0.89771E-05   -0.13110E-04 25872   0.363E-02    0.517E-02
DAV:   6    -0.222812299789E+03   -0.94347E-06   -0.26194E-05 22440   0.254E-02
  51 F= -.22281230E+03 E0= -.22280055E+03  d E =-.882032E-04  mag=    22.0000
       N       E                     dE             d eps       ncg     rms          rms(c)
DAV:   1    -0.222187862402E+03    0.62444E+00   -0.39409E+01 31240   0.348E+01    0.337E+00
DAV:   2    -0.222781317804E+03   -0.59346E+00   -0.56348E+00 28488   0.665E+00    0.484E+00
DAV:   3    -0.222763332187E+03    0.17986E-01   -0.44177E-01 37576   0.238E+00    0.336E+00
DAV:   4    -0.222764952104E+03   -0.16199E-02   -0.17782E-01 39232   0.117E+00    0.195E+00
DAV:   5    -0.222763688951E+03    0.12632E-02   -0.35247E-02 38256   0.681E-01    0.118E+00
DAV:   6    -0.222764140979E+03   -0.45203E-03   -0.15882E-02 39656   0.417E-01    0.897E-01
DAV:   7    -0.222764672178E+03   -0.53120E-03   -0.10316E-02 38056   0.389E-01    0.673E-01
DAV:   8    -0.222765621289E+03   -0.94911E-03   -0.66976E-03 38080   0.340E-01    0.769E-01
DAV:   9    -0.222765062938E+03    0.55835E-03   -0.65395E-03 38504   0.295E-01    0.377E-01
DAV:  10    -0.222765322056E+03   -0.25912E-03   -0.17863E-03 37984   0.164E-01    0.229E-01
DAV:  11    -0.222765309940E+03    0.12116E-04   -0.36485E-04 36320   0.108E-01    0.124E-01
DAV:  12    -0.222765299787E+03    0.10153E-04   -0.10724E-04 28288   0.488E-02    0.101E-01
DAV:  13    -0.222765281843E+03    0.17943E-04   -0.50291E-05 25280   0.378E-02    0.684E-02
DAV:  14    -0.222765269209E+03    0.12634E-04   -0.41790E-05 24048   0.295E-02    0.301E-02
DAV:  15    -0.222765274453E+03   -0.52435E-05   -0.22227E-05 18808   0.198E-02
  52 F= -.22276527E+03 E0= -.22275372E+03  d E =0.470253E-01  mag=    22.0000
       N       E                     dE             d eps       ncg     rms          rms(c)
DAV:   1    -0.222611506031E+03    0.15376E+00   -0.11189E+01 31096   0.193E+01    0.196E+00
DAV:   2    -0.222808834044E+03   -0.19733E+00   -0.18191E+00 28224   0.359E+00    0.338E+00
DAV:   3    -0.222808332438E+03    0.50161E-03   -0.31347E-01 37752   0.140E+00    0.237E+00
DAV:   4    -0.222805488945E+03    0.28435E-02   -0.37729E-02 39368   0.623E-01    0.632E-01
DAV:   5    -0.222806693610E+03   -0.12047E-02   -0.80002E-03 41528   0.308E-01    0.742E-01
DAV:   6    -0.222806599206E+03    0.94404E-04   -0.41506E-03 38080   0.238E-01    0.352E-01
DAV:   7    -0.222806969653E+03   -0.37045E-03   -0.10978E-03 37984   0.210E-01    0.287E-01
DAV:   8    -0.222807042361E+03   -0.72708E-04   -0.84353E-04 38320   0.147E-01    0.195E-01
DAV:   9    -0.222807057101E+03   -0.14740E-04   -0.46476E-04 37064   0.100E-01    0.159E-01
DAV:  10    -0.222807054475E+03    0.26262E-05   -0.30505E-04 29864   0.676E-02    0.101E-01
DAV:  11    -0.222807049029E+03    0.54458E-05   -0.95135E-05 26592   0.471E-02
  53 F= -.22280705E+03 E0= -.22279535E+03  d E =-.417746E-01  mag=    22.0000
       N       E                     dE             d eps       ncg     rms          rms(c)
DAV:   1    -0.222778896357E+03    0.28158E-01   -0.21692E+00 31104   0.831E+00    0.806E-01
DAV:   2    -0.222812466152E+03   -0.33570E-01   -0.31453E-01 28248   0.152E+00    0.127E+00
DAV:   3    -0.222813460770E+03   -0.99462E-03   -0.55169E-02 38016   0.602E-01    0.112E+00
DAV:   4    -0.222812435778E+03    0.10250E-02   -0.10181E-02 38832   0.294E-01    0.300E-01
DAV:   5    -0.222812617524E+03   -0.18175E-03   -0.13176E-03 40176   0.116E-01    0.266E-01
DAV:   6    -0.222812652638E+03   -0.35114E-04   -0.56874E-04 38576   0.910E-02    0.153E-01
DAV:   7    -0.222812736964E+03   -0.84326E-04   -0.29983E-04 37760   0.101E-01    0.159E-01
DAV:   8    -0.222812722613E+03    0.14350E-04   -0.17538E-04 31376   0.696E-02    0.663E-02
DAV:   9    -0.222812724368E+03   -0.17553E-05   -0.74379E-05 24928   0.391E-02
  54 F= -.22281272E+03 E0= -.22280103E+03  d E =-.567534E-02  mag=    22.0000
       N       E                     dE             d eps       ncg     rms          rms(c)
DAV:   1    -0.222806536868E+03    0.61857E-02   -0.73756E-01 30704   0.415E+00    0.343E-01
DAV:   2    -0.222813228717E+03   -0.66918E-02   -0.63798E-02 28440   0.746E-01    0.465E-01
DAV:   3    -0.222813556587E+03   -0.32787E-03   -0.78478E-03 38304   0.253E-01    0.487E-01
DAV:   4    -0.222813325207E+03    0.23138E-03   -0.22812E-03 38248   0.132E-01    0.178E-01
DAV:   5    -0.222813344603E+03   -0.19396E-04   -0.36029E-04 31344   0.660E-02    0.153E-01
DAV:   6    -0.222813349360E+03   -0.47572E-05   -0.17884E-04 35160   0.570E-02    0.121E-01
DAV:   7    -0.222813345204E+03    0.41562E-05   -0.13594E-04 33880   0.672E-02    0.718E-02
DAV:   8    -0.222813355369E+03   -0.10165E-04   -0.55708E-05 25888   0.411E-02    0.551E-02
DAV:   9    -0.222813351246E+03    0.41230E-05   -0.26636E-05 20400   0.273E-02
  55 F= -.22281335E+03 E0= -.22280163E+03  d E =-.626878E-03  mag=    22.0000
       N       E                     dE             d eps       ncg     rms          rms(c)
DAV:   1    -0.222812772976E+03    0.58239E-03   -0.15077E-01 29768   0.135E+00    0.871E-02
DAV:   2    -0.222813430903E+03   -0.65793E-03   -0.62227E-03 29336   0.251E-01    0.198E-01
DAV:   3    -0.222813379958E+03    0.50944E-04   -0.45672E-04 34872   0.657E-02    0.832E-02
DAV:   4    -0.222813391055E+03   -0.11096E-04   -0.65088E-05 24688   0.304E-02    0.805E-02
DAV:   5    -0.222813389905E+03    0.11492E-05   -0.35236E-05 18736   0.232E-02
  56 F= -.22281339E+03 E0= -.22280165E+03  d E =-.386593E-04  mag=    22.0000
       N       E                     dE             d eps       ncg     rms          rms(c)
DAV:   1    -0.222812788026E+03    0.60303E-03   -0.87214E-02 29616   0.124E+00    0.116E-01
DAV:   2    -0.222813323485E+03   -0.53546E-03   -0.50023E-03 31600   0.234E-01    0.205E-01
DAV:   3    -0.222813293387E+03    0.30098E-04   -0.64999E-04 34936   0.110E-01    0.124E-01
DAV:   4    -0.222813289076E+03    0.43108E-05   -0.15769E-04 25912   0.376E-02    0.808E-02
DAV:   5    -0.222813286200E+03    0.28756E-05   -0.44608E-05 21792   0.280E-02
  57 F= -.22281329E+03 E0= -.22280156E+03  d E =0.103705E-03  mag=    22.0000
       N       E                     dE             d eps       ncg     rms          rms(c)
DAV:   1    -0.222812935684E+03    0.35339E-03   -0.43455E-02 28872   0.807E-01    0.933E-02
DAV:   2    -0.222813323857E+03   -0.38817E-03   -0.28631E-03 33992   0.201E-01    0.366E-01
DAV:   3    -0.222813087512E+03    0.23634E-03   -0.90168E-04 35736   0.117E-01    0.692E-02
DAV:   4    -0.222813113478E+03   -0.25966E-04   -0.74436E-05 25632   0.306E-02    0.625E-02
DAV:   5    -0.222813112505E+03    0.97280E-06   -0.40280E-05 19080   0.222E-02
  58 F= -.22281311E+03 E0= -.22280139E+03  d E =0.173695E-03  mag=    22.0000
       N       E                     dE             d eps       ncg     rms          rms(c)
DAV:   1    -0.222808448187E+03    0.46653E-02   -0.41459E-01 29656   0.333E+00    0.275E-01
DAV:   2    -0.222812680150E+03   -0.42320E-02   -0.40276E-02 28208   0.614E-01    0.569E-01
DAV:   3    -0.222812399528E+03    0.28062E-03   -0.72775E-03 38664   0.231E-01    0.288E-01
DAV:   4    -0.222812448306E+03   -0.48779E-04   -0.80747E-04 37928   0.986E-02    0.127E-01
DAV:   5    -0.222812443764E+03    0.45426E-05   -0.18363E-04 26584   0.553E-02    0.919E-02
DAV:   6    -0.222812449057E+03   -0.52931E-05   -0.94080E-05 27752   0.477E-02
  59 F= -.22281245E+03 E0= -.22280073E+03  d E =0.663448E-03  mag=    22.0000
       N       E                     dE             d eps       ncg     rms          rms(c)
DAV:   1    -0.222744591688E+03    0.67852E-01   -0.49596E+00 30296   0.123E+01    0.114E+00
DAV:   2    -0.222813838452E+03   -0.69247E-01   -0.63841E-01 28320   0.231E+00    0.253E+00
DAV:   3    -0.222806646926E+03    0.71915E-02   -0.12080E-01 37640   0.891E-01    0.109E+00
DAV:   4    -0.222808329185E+03   -0.16823E-02   -0.11286E-02 39560   0.358E-01    0.516E-01
DAV:   5    -0.222808175128E+03    0.15406E-03   -0.32023E-03 39872   0.192E-01    0.326E-01
DAV:   6    -0.222808291491E+03   -0.11636E-03   -0.78846E-04 37320   0.132E-01    0.239E-01
DAV:   7    -0.222808341643E+03   -0.50152E-04   -0.59323E-04 38184   0.135E-01    0.200E-01
DAV:   8    -0.222808372889E+03   -0.31246E-04   -0.46156E-04 37840   0.960E-02    0.135E-01
DAV:   9    -0.222808362724E+03    0.10164E-04   -0.19024E-04 29640   0.592E-02    0.812E-02
DAV:  10    -0.222808359682E+03    0.30420E-05   -0.65652E-05 25288   0.355E-02
  60 F= -.22280836E+03 E0= -.22279661E+03  d E =0.408937E-02  mag=    22.0000
       N       E                     dE             d eps       ncg     rms          rms(c)
DAV:   1    -0.222780960235E+03    0.27402E-01   -0.25381E+00 30040   0.857E+00    0.781E-01
DAV:   2    -0.222813473439E+03   -0.32513E-01   -0.30375E-01 28168   0.157E+00    0.134E+00
DAV:   3    -0.222813347907E+03    0.12553E-03   -0.52120E-02 37888   0.596E-01    0.975E-01
DAV:   4    -0.222813106290E+03    0.24162E-03   -0.92358E-03 38968   0.284E-01    0.400E-01
DAV:   5    -0.222813046008E+03    0.60282E-04   -0.15786E-03 38576   0.147E-01    0.228E-01
DAV:   6    -0.222813149434E+03   -0.10343E-03   -0.60321E-04 37712   0.109E-01    0.229E-01
DAV:   7    -0.222813106135E+03    0.43299E-04   -0.41786E-04 37944   0.103E-01    0.107E-01
DAV:   8    -0.222813160148E+03   -0.54013E-04   -0.19492E-04 33432   0.636E-02    0.113E-01
DAV:   9    -0.222813138978E+03    0.21170E-04   -0.93023E-05 27032   0.415E-02    0.357E-02
DAV:  10    -0.222813141165E+03   -0.21875E-05   -0.20760E-05 19664   0.222E-02
  61 F= -.22281314E+03 E0= -.22280141E+03  d E =-.478148E-02  mag=    22.0000
       N       E                     dE             d eps       ncg     rms          rms(c)
DAV:   1    -0.222807301266E+03    0.58377E-02   -0.56359E-01 30272   0.385E+00    0.334E-01
DAV:   2    -0.222813483308E+03   -0.61820E-02   -0.58746E-02 28296   0.715E-01    0.684E-01
DAV:   3    -0.222813131809E+03    0.35150E-03   -0.10353E-02 37800   0.275E-01    0.364E-01
DAV:   4    -0.222813228763E+03   -0.96955E-04   -0.15120E-03 38760   0.121E-01    0.218E-01
DAV:   5    -0.222813184338E+03    0.44425E-04   -0.45269E-04 30352   0.744E-02    0.129E-01
DAV:   6    -0.222813197732E+03   -0.13394E-04   -0.96297E-05 32728   0.535E-02    0.108E-01
DAV:   7    -0.222813196730E+03    0.10014E-05   -0.95382E-05 32760   0.566E-02
  62 F= -.22281320E+03 E0= -.22280150E+03  d E =-.555650E-04  mag=    22.0000
       N       E                     dE             d eps       ncg     rms          rms(c)
DAV:   1    -0.222811468517E+03    0.17292E-02   -0.11980E-01 30656   0.201E+00    0.200E-01
DAV:   2    -0.222813569675E+03   -0.21012E-02   -0.19509E-02 29336   0.394E-01    0.514E-01
DAV:   3    -0.222813227045E+03    0.34263E-03   -0.41892E-03 37272   0.177E-01    0.163E-01
DAV:   4    -0.222813334033E+03   -0.10699E-03   -0.44416E-04 32680   0.734E-02    0.142E-01
DAV:   5    -0.222813303499E+03    0.30534E-04   -0.15449E-04 25960   0.494E-02    0.475E-02
DAV:   6    -0.222813311825E+03   -0.83256E-05   -0.19857E-05 21840   0.261E-02
  63 F= -.22281331E+03 E0= -.22280159E+03  d E =-.115094E-03  mag=    22.0000
       N       E                     dE             d eps       ncg     rms          rms(c)
DAV:   1    -0.222813069375E+03    0.23412E-03   -0.22167E-02 29144   0.700E-01    0.567E-02
DAV:   2    -0.222813240483E+03   -0.17111E-03   -0.15813E-03 28400   0.129E-01    0.997E-02
DAV:   3    -0.222813233187E+03    0.72962E-05   -0.13281E-04 26696   0.530E-02    0.545E-02
DAV:   4    -0.222813233863E+03   -0.67603E-06   -0.28065E-05 20728   0.219E-02
  64 F= -.22281323E+03 E0= -.22280150E+03  d E =0.779615E-04  mag=    22.0000
       N       E                     dE             d eps       ncg     rms          rms(c)
DAV:   1    -0.222786820603E+03    0.26413E-01   -0.60717E+00 29032   0.906E+00    0.565E-01
DAV:   2    -0.222810120393E+03   -0.23300E-01   -0.23410E-01 27792   0.153E+00    0.484E-01
DAV:   3    -0.222811501224E+03   -0.13808E-02   -0.16277E-02 40168   0.400E-01    0.857E-01
DAV:   4    -0.222810294848E+03    0.12064E-02   -0.70788E-03 39272   0.237E-01    0.254E-01
DAV:   5    -0.222810371554E+03   -0.76706E-04   -0.10924E-03 39720   0.116E-01    0.241E-01
DAV:   6    -0.222810290280E+03    0.81274E-04   -0.84227E-04 38256   0.113E-01    0.231E-01
DAV:   7    -0.222810203254E+03    0.87026E-04   -0.57420E-04 38384   0.111E-01    0.107E-01
DAV:   8    -0.222810224807E+03   -0.21554E-04   -0.14816E-04 37944   0.640E-02    0.684E-02
DAV:   9    -0.222810218276E+03    0.65316E-05   -0.22977E-05 24096   0.374E-02
  65 F= -.22281022E+03 E0= -.22279850E+03  d E =0.301559E-02  mag=    22.0000
       N       E                     dE             d eps       ncg     rms          rms(c)
DAV:   1    -0.222466597453E+03    0.34363E+00   -0.26596E+01 30328   0.255E+01    0.243E+00
DAV:   2    -0.222767914579E+03   -0.30132E+00   -0.27553E+00 28200   0.477E+00    0.301E+00
DAV:   3    -0.222777503401E+03   -0.95888E-02   -0.24567E-01 38072   0.164E+00    0.269E+00
DAV:   4    -0.222775476501E+03    0.20269E-02   -0.10872E-01 41656   0.852E-01    0.170E+00
DAV:   5    -0.222772899904E+03    0.25766E-02   -0.34298E-02 38144   0.531E-01    0.759E-01
DAV:   6    -0.222773907290E+03   -0.10074E-02   -0.81153E-03 39216   0.326E-01    0.788E-01
DAV:   7    -0.222773511537E+03    0.39575E-03   -0.62034E-03 37728   0.315E-01    0.399E-01
DAV:   8    -0.222773987274E+03   -0.47574E-03   -0.24447E-03 38408   0.260E-01    0.403E-01
DAV:   9    -0.222773816871E+03    0.17040E-03   -0.12446E-03 38784   0.157E-01    0.179E-01
DAV:  10    -0.222773802187E+03    0.14684E-04   -0.36568E-04 36872   0.744E-02    0.105E-01
DAV:  11    -0.222773789240E+03    0.12947E-04   -0.86022E-05 28992   0.488E-02    0.513E-02
DAV:  12    -0.222773786983E+03    0.22564E-05   -0.23884E-05 23712   0.317E-02
  66 F= -.22277379E+03 E0= -.22276216E+03  d E =0.364313E-01  mag=    22.0000
       N       E                     dE             d eps       ncg     rms          rms(c)
DAV:   1    -0.222726480131E+03    0.47309E-01   -0.60899E+00 30264   0.118E+01    0.123E+00
DAV:   2    -0.222802959000E+03   -0.76479E-01   -0.69656E-01 28168   0.220E+00    0.184E+00
DAV:   3    -0.222804443480E+03   -0.14845E-02   -0.10621E-01 38432   0.859E-01    0.162E+00
DAV:   4    -0.222802557638E+03    0.18858E-02   -0.22710E-02 39672   0.431E-01    0.382E-01
DAV:   5    -0.222803133717E+03   -0.57608E-03   -0.25148E-03 38904   0.207E-01    0.426E-01
DAV:   6    -0.222803169595E+03   -0.35878E-04   -0.27126E-03 38360   0.172E-01    0.329E-01
DAV:   7    -0.222803122376E+03    0.47220E-04   -0.77225E-04 37816   0.154E-01    0.126E-01
DAV:   8    -0.222803182360E+03   -0.59984E-04   -0.25004E-04 36656   0.866E-02    0.103E-01
DAV:   9    -0.222803176163E+03    0.61967E-05   -0.12495E-04 29096   0.534E-02    0.651E-02
DAV:  10    -0.222803174611E+03    0.15523E-05   -0.60783E-05 24144   0.327E-02
  67 F= -.22280317E+03 E0= -.22279150E+03  d E =-.293876E-01  mag=    22.0000
       N       E                     dE             d eps       ncg     rms          rms(c)
DAV:   1    -0.222801234386E+03    0.19418E-02   -0.42247E-01 30448   0.327E+00    0.332E-01
DAV:   2    -0.222806537216E+03   -0.53028E-02   -0.48853E-02 28352   0.593E-01    0.431E-01
DAV:   3    -0.222806911125E+03   -0.37391E-03   -0.83637E-03 38200   0.253E-01    0.502E-01
DAV:   4    -0.222806642062E+03    0.26906E-03   -0.24032E-03 38744   0.137E-01    0.124E-01
DAV:   5    -0.222806675832E+03   -0.33770E-04   -0.13784E-04 29936   0.560E-02    0.883E-02
DAV:   6    -0.222806697904E+03   -0.22072E-04   -0.12777E-04 31744   0.458E-02    0.998E-02
DAV:   7    -0.222806692480E+03    0.54238E-05   -0.12074E-04 27696   0.441E-02    0.570E-02
DAV:   8    -0.222806696829E+03   -0.43492E-05   -0.36780E-05 23224   0.311E-02
  68 F= -.22280670E+03 E0= -.22279503E+03  d E =-.352222E-02  mag=    22.0000
       N       E                     dE             d eps       ncg     rms          rms(c)
DAV:   1    -0.222779692443E+03    0.27000E-01   -0.23641E+00 30576   0.779E+00    0.757E-01
DAV:   2    -0.222808540678E+03   -0.28848E-01   -0.26642E-01 28296   0.143E+00    0.123E+00
DAV:   3    -0.222808855334E+03   -0.31466E-03   -0.49051E-02 38176   0.568E-01    0.101E+00
DAV:   4    -0.222808200535E+03    0.65480E-03   -0.81682E-03 39656   0.269E-01    0.236E-01
DAV:   5    -0.222808411381E+03   -0.21085E-03   -0.10853E-03 39184   0.119E-01    0.271E-01
DAV:   6    -0.222808398589E+03    0.12792E-04   -0.70256E-04 38280   0.106E-01    0.170E-01
DAV:   7    -0.222808424910E+03   -0.26321E-04   -0.34079E-04 37824   0.991E-02    0.123E-01
DAV:   8    -0.222808437185E+03   -0.12275E-04   -0.16723E-04 31976   0.651E-02    0.804E-02
DAV:   9    -0.222808430489E+03    0.66959E-05   -0.49240E-05 26192   0.430E-02
  69 F= -.22280843E+03 E0= -.22279671E+03  d E =-.173366E-02  mag=    22.0000
       N       E                     dE             d eps       ncg     rms          rms(c)
DAV:   1    -0.222808070084E+03    0.36710E-03   -0.67480E-02 29744   0.109E+00    0.824E-02
DAV:   2    -0.222808494742E+03   -0.42466E-03   -0.39238E-03 29784   0.208E-01    0.197E-01
DAV:   3    -0.222808443976E+03    0.50765E-04   -0.44124E-04 33520   0.795E-02    0.648E-02
DAV:   4    -0.222808452782E+03   -0.88058E-05   -0.28846E-05 22952   0.253E-02
  70 F= -.22280845E+03 E0= -.22279674E+03  d E =-.222925E-04  mag=    22.0000
       N       E                     dE             d eps       ncg     rms          rms(c)
DAV:   1    -0.222807037116E+03    0.14069E-02   -0.34037E-01 29064   0.214E+00    0.131E-01
DAV:   2    -0.222808374006E+03   -0.13369E-02   -0.12986E-02 27880   0.381E-01    0.267E-01
DAV:   3    -0.222808291370E+03    0.82636E-04   -0.11268E-03 38776   0.104E-01    0.121E-01
DAV:   4    -0.222808298707E+03   -0.73372E-05   -0.21054E-04 30568   0.503E-02    0.104E-01
DAV:   5    -0.222808286301E+03    0.12407E-04   -0.71697E-05 24120   0.299E-02    0.671E-02
DAV:   6    -0.222808277910E+03    0.83902E-05   -0.68726E-05 29896   0.407E-02
  71 F= -.22280828E+03 E0= -.22279655E+03  d E =0.174871E-03  mag=    22.0000
       N       E                     dE             d eps       ncg     rms          rms(c)
DAV:   1    -0.222794064368E+03    0.14222E-01   -0.11303E+00 30512   0.533E+00    0.489E-01
DAV:   2    -0.222806846414E+03   -0.12782E-01   -0.11905E-01 27968   0.966E-01    0.535E-01
DAV:   3    -0.222808026238E+03   -0.11798E-02   -0.17108E-02 38168   0.343E-01    0.784E-01
DAV:   4    -0.222807202969E+03    0.82327E-03   -0.55453E-03 39240   0.206E-01    0.187E-01
DAV:   5    -0.222807305044E+03   -0.10207E-03   -0.52035E-04 35960   0.828E-02    0.157E-01
DAV:   6    -0.222807314438E+03   -0.93939E-05   -0.25999E-04 34504   0.691E-02    0.122E-01
DAV:   7    -0.222807318858E+03   -0.44202E-05   -0.16322E-04 34600   0.659E-02    0.857E-02
DAV:   8    -0.222807323274E+03   -0.44161E-05   -0.75350E-05 28224   0.441E-02
  72 F= -.22280732E+03 E0= -.22279563E+03  d E =0.954636E-03  mag=    22.0000
       N       E                     dE             d eps       ncg     rms          rms(c)
DAV:   1    -0.222153029277E+03    0.65429E+00   -0.43101E+01 30312   0.341E+01    0.325E+00
DAV:   2    -0.222731346446E+03   -0.57832E+00   -0.52887E+00 27928   0.654E+00    0.412E+00
DAV:   3    -0.222745704013E+03   -0.14358E-01   -0.35531E-01 37912   0.217E+00    0.355E+00
DAV:   4    -0.222737335699E+03    0.83683E-02   -0.71648E-02 39864   0.110E+00    0.131E+00
DAV:   5    -0.222738347914E+03   -0.10122E-02   -0.23934E-02 38296   0.561E-01    0.999E-01
DAV:   6    -0.222740262640E+03   -0.19147E-02   -0.26013E-02 38464   0.451E-01    0.124E+00
DAV:   7    -0.222738604471E+03    0.16582E-02   -0.19793E-02 38320   0.402E-01    0.609E-01
DAV:   8    -0.222739751732E+03   -0.11473E-02   -0.95575E-03 38504   0.338E-01    0.702E-01
DAV:   9    -0.222739125122E+03    0.62661E-03   -0.54787E-03 38616   0.225E-01    0.301E-01
DAV:  10    -0.222739064774E+03    0.60348E-04   -0.51882E-04 38576   0.125E-01    0.126E-01
DAV:  11    -0.222739051427E+03    0.13348E-04   -0.18547E-04 34816   0.585E-02    0.590E-02
DAV:  12    -0.222739054660E+03   -0.32333E-05   -0.36629E-05 26864   0.400E-02
  73 F= -.22273905E+03 E0= -.22272722E+03  d E =0.682686E-01  mag=    22.0000
       N       E                     dE             d eps       ncg     rms          rms(c)
DAV:   1    -0.222523558025E+03    0.21549E+00   -0.22537E+01 30120   0.236E+01    0.223E+00
DAV:   2    -0.222795999113E+03   -0.27244E+00   -0.25165E+00 27912   0.440E+00    0.216E+00
DAV:   3    -0.222818902636E+03   -0.22904E-01   -0.24701E-01 37936   0.142E+00    0.326E+00
DAV:   4    -0.222805311210E+03    0.13591E-01   -0.10230E-01 38928   0.811E-01    0.107E+00
DAV:   5    -0.222806286210E+03   -0.97500E-03   -0.15801E-02 39632   0.387E-01    0.767E-01
DAV:   6    -0.222806564453E+03   -0.27824E-03   -0.42547E-03 37888   0.292E-01    0.606E-01
DAV:   7    -0.222806716221E+03   -0.15177E-03   -0.48952E-03 37840   0.295E-01    0.485E-01
DAV:   8    -0.222806845014E+03   -0.12879E-03   -0.32843E-03 38024   0.217E-01    0.399E-01
DAV:   9    -0.222806687537E+03    0.15748E-03   -0.20867E-03 38416   0.155E-01    0.186E-01
DAV:  10    -0.222806695594E+03   -0.80575E-05   -0.26852E-04 35048   0.804E-02    0.108E-01
DAV:  11    -0.222806681270E+03    0.14325E-04   -0.58388E-05 27024   0.482E-02    0.471E-02
DAV:  12    -0.222806679844E+03    0.14256E-05   -0.20728E-05 21824   0.288E-02
  74 F= -.22280668E+03 E0= -.22279492E+03  d E =-.676252E-01  mag=    22.0000
       N       E                     dE             d eps       ncg     rms          rms(c)
DAV:   1    -0.222778470711E+03    0.28211E-01   -0.22538E+00 30640   0.790E+00    0.750E-01
DAV:   2    -0.222807680514E+03   -0.29210E-01   -0.27146E-01 28088   0.144E+00    0.776E-01
DAV:   3    -0.222810462416E+03   -0.27819E-02   -0.36075E-02 38008   0.497E-01    0.116E+00
DAV:   4    -0.222808734871E+03    0.17275E-02   -0.11713E-02 39592   0.302E-01    0.321E-01
DAV:   5    -0.222808917919E+03   -0.18305E-03   -0.15251E-03 39072   0.125E-01    0.240E-01
DAV:   6    -0.222808958644E+03   -0.40725E-04   -0.49713E-04 37328   0.967E-02    0.178E-01
DAV:   7    -0.222808972276E+03   -0.13632E-04   -0.32141E-04 37592   0.962E-02    0.123E-01
DAV:   8    -0.222808983889E+03   -0.11613E-04   -0.15105E-04 32472   0.618E-02    0.638E-02
DAV:   9    -0.222808980827E+03    0.30616E-05   -0.27522E-05 25096   0.357E-02
  75 F= -.22280898E+03 E0= -.22279724E+03  d E =-.230098E-02  mag=    22.0000
       N       E                     dE             d eps       ncg     rms          rms(c)
DAV:   1    -0.222805833843E+03    0.31500E-02   -0.16211E-01 31472   0.235E+00    0.236E-01
DAV:   2    -0.222808762604E+03   -0.29288E-02   -0.27703E-02 28648   0.452E-01    0.455E-01
DAV:   3    -0.222808647632E+03    0.11497E-03   -0.50948E-03 37616   0.190E-01    0.263E-01
DAV:   4    -0.222808685739E+03   -0.38107E-04   -0.85454E-04 35192   0.882E-02    0.145E-01
DAV:   5    -0.222808663203E+03    0.22536E-04   -0.17764E-04 26680   0.482E-02    0.579E-02
DAV:   6    -0.222808672757E+03   -0.95531E-05   -0.25050E-05 21344   0.228E-02
  76 F= -.22280867E+03 E0= -.22279696E+03  d E =0.308071E-03  mag=    22.0000
       N       E                     dE             d eps       ncg     rms          rms(c)
DAV:   1    -0.222807086678E+03    0.15765E-02   -0.19600E-01 29888   0.206E+00    0.192E-01
DAV:   2    -0.222809022536E+03   -0.19359E-02   -0.17720E-02 28080   0.373E-01    0.192E-01
DAV:   3    -0.222809160529E+03   -0.13799E-03   -0.10830E-03 37208   0.137E-01    0.230E-01
DAV:   4    -0.222809088802E+03    0.71727E-04   -0.37326E-04 30440   0.733E-02    0.709E-02
DAV:   5    -0.222809094045E+03   -0.52432E-05   -0.48441E-05 24464   0.332E-02
  77 F= -.22280909E+03 E0= -.22279738E+03  d E =-.421288E-03  mag=    22.0000
       N       E                     dE             d eps       ncg     rms          rms(c)
DAV:   1    -0.222807310700E+03    0.17781E-02   -0.20729E-01 30008   0.202E+00    0.177E-01
DAV:   2    -0.222809132397E+03   -0.18217E-02   -0.16868E-02 29632   0.392E-01    0.529E-01
DAV:   3    -0.222808726078E+03    0.40632E-03   -0.40117E-03 36528   0.180E-01    0.136E-01
DAV:   4    -0.222808811123E+03   -0.85045E-04   -0.29039E-04 32624   0.663E-02    0.123E-01
DAV:   5    -0.222808790637E+03    0.20486E-04   -0.12370E-04 26360   0.466E-02    0.576E-02
DAV:   6    -0.222808794605E+03   -0.39685E-05   -0.36295E-05 24144   0.329E-02
  78 F= -.22280879E+03 E0= -.22279708E+03  d E =0.299440E-03  mag=    22.0000
       N       E                     dE             d eps       ncg     rms          rms(c)
DAV:   1    -0.222808193059E+03    0.59758E-03   -0.60724E-02 29488   0.950E-01    0.604E-02
DAV:   2    -0.222808462379E+03   -0.26932E-03   -0.26556E-03 28232   0.168E-01    0.642E-02
DAV:   3    -0.222808475613E+03   -0.13233E-04   -0.15654E-04 32352   0.494E-02    0.837E-02
DAV:   4    -0.222808465390E+03    0.10223E-04   -0.72622E-05 23232   0.296E-02    0.347E-02
DAV:   5    -0.222808465030E+03    0.36004E-06   -0.15075E-05 15848   0.158E-02
  79 F= -.22280847E+03 E0= -.22279675E+03  d E =0.329576E-03  mag=    22.0000
       N       E                     dE             d eps       ncg     rms          rms(c)
DAV:   1    -0.222803166450E+03    0.52989E-02   -0.54658E-01 29984   0.373E+00    0.310E-01
DAV:   2    -0.222808722968E+03   -0.55565E-02   -0.52170E-02 28680   0.693E-01    0.620E-01
DAV:   3    -0.222808423387E+03    0.29958E-03   -0.82974E-03 37760   0.246E-01    0.315E-01
DAV:   4    -0.222808527147E+03   -0.10376E-03   -0.13927E-03 38792   0.115E-01    0.202E-01
DAV:   5    -0.222808474826E+03    0.52321E-04   -0.36346E-04 29800   0.644E-02    0.889E-02
DAV:   6    -0.222808484149E+03   -0.93231E-05   -0.68646E-05 31800   0.409E-02
  80 F= -.22280848E+03 E0= -.22279679E+03  d E =-.191193E-04  mag=    22.0000
       N       E                     dE             d eps       ncg     rms          rms(c)
DAV:   1    -0.222768759493E+03    0.39715E-01   -0.25815E+00 30616   0.889E+00    0.847E-01
DAV:   2    -0.222805935738E+03   -0.37176E-01   -0.34483E-01 28056   0.164E+00    0.122E+00
DAV:   3    -0.222807078190E+03   -0.11425E-02   -0.48991E-02 38544   0.591E-01    0.109E+00
DAV:   4    -0.222806417559E+03    0.66063E-03   -0.11344E-02 39128   0.315E-01    0.431E-01
DAV:   5    -0.222806372981E+03    0.44578E-04   -0.20991E-03 38592   0.144E-01    0.223E-01
DAV:   6    -0.222806453010E+03   -0.80029E-04   -0.40871E-04 37616   0.918E-02    0.171E-01
DAV:   7    -0.222806495638E+03   -0.42629E-04   -0.27940E-04 38344   0.107E-01    0.150E-01
DAV:   8    -0.222806494479E+03    0.11593E-05   -0.15024E-04 32688   0.653E-02    0.627E-02
DAV:   9    -0.222806492671E+03    0.18083E-05   -0.44651E-05 25648   0.329E-02
  81 F= -.22280649E+03 E0= -.22279477E+03  d E =0.199148E-02  mag=    22.0000
       N       E                     dE             d eps       ncg     rms          rms(c)
DAV:   1    -0.222790981331E+03    0.15513E-01   -0.14190E+00 30576   0.612E+00    0.557E-01
DAV:   2    -0.222807588018E+03   -0.16607E-01   -0.15439E-01 27904   0.108E+00    0.374E-01
DAV:   3    -0.222809350051E+03   -0.17620E-02   -0.11700E-02 38328   0.301E-01    0.761E-01
DAV:   4    -0.222808441050E+03    0.90900E-03   -0.53614E-03 38984   0.199E-01    0.168E-01
DAV:   5    -0.222808625702E+03   -0.18465E-03   -0.66507E-04 37616   0.894E-02    0.237E-01
DAV:   6    -0.222808571126E+03    0.54576E-04   -0.44462E-04 36664   0.800E-02    0.114E-01
DAV:   7    -0.222808603994E+03   -0.32867E-04   -0.17024E-04 35360   0.738E-02    0.102E-01
DAV:   8    -0.222808598643E+03    0.53507E-05   -0.92767E-05 28928   0.473E-02
  82 F= -.22280860E+03 E0= -.22279689E+03  d E =-.210597E-02  mag=    22.0000
       N       E                     dE             d eps       ncg     rms          rms(c)
DAV:   1    -0.222790774967E+03    0.17829E-01   -0.10339E+00 30840   0.589E+00    0.572E-01
DAV:   2    -0.222808102598E+03   -0.17328E-01   -0.16222E-01 28360   0.111E+00    0.904E-01
DAV:   3    -0.222808365316E+03   -0.26272E-03   -0.26629E-02 37992   0.416E-01    0.730E-01
DAV:   4    -0.222808173217E+03    0.19210E-03   -0.56229E-03 38920   0.219E-01    0.313E-01
DAV:   5    -0.222808118678E+03    0.54539E-04   -0.99794E-04 36728   0.102E-01    0.147E-01
DAV:   6    -0.222808170772E+03   -0.52094E-04   -0.17544E-04 36312   0.631E-02    0.115E-01
DAV:   7    -0.222808195209E+03   -0.24438E-04   -0.14062E-04 34072   0.693E-02    0.102E-01
DAV:   8    -0.222808194927E+03    0.28179E-06   -0.85470E-05 27512   0.475E-02
  83 F= -.22280819E+03 E0= -.22279647E+03  d E =0.403715E-03  mag=    22.0000
       N       E                     dE             d eps       ncg     rms          rms(c)
DAV:   1    -0.222799005491E+03    0.91897E-02   -0.83268E-01 30968   0.452E+00    0.418E-01
DAV:   2    -0.222807935961E+03   -0.89305E-02   -0.82697E-02 28160   0.797E-01    0.249E-01
DAV:   3    -0.222808695967E+03   -0.76001E-03   -0.33741E-03 37992   0.195E-01    0.381E-01
DAV:   4    -0.222808492195E+03    0.20377E-03   -0.18212E-03 38840   0.117E-01    0.137E-01
DAV:   5    -0.222808544875E+03   -0.52680E-04   -0.33677E-04 32944   0.663E-02    0.158E-01
DAV:   6    -0.222808537890E+03    0.69844E-05   -0.41612E-04 33640   0.648E-02    0.128E-01
DAV:   7    -0.222808527485E+03    0.10405E-04   -0.14481E-04 33760   0.570E-02    0.425E-02
DAV:   8    -0.222808533109E+03   -0.56237E-05   -0.20759E-05 24256   0.298E-02
  84 F= -.22280853E+03 E0= -.22279682E+03  d E =-.338181E-03  mag=    22.0000
       N       E                     dE             d eps       ncg     rms          rms(c)
DAV:   1    -0.222807754554E+03    0.77293E-03   -0.93056E-02 30568   0.159E+00    0.139E-01
DAV:   2    -0.222808854857E+03   -0.11003E-02   -0.10331E-02 28400   0.294E-01    0.242E-01
DAV:   3    -0.222808841828E+03    0.13029E-04   -0.16086E-03 35784   0.108E-01    0.162E-01
DAV:   4    -0.222808843620E+03   -0.17911E-05   -0.31046E-04 28680   0.569E-02    0.800E-02
DAV:   5    -0.222808838884E+03    0.47352E-05   -0.59815E-05 23176   0.299E-02
  85 F= -.22280884E+03 E0= -.22279712E+03  d E =-.305776E-03  mag=    22.0000
       N       E                     dE             d eps       ncg     rms          rms(c)
DAV:   1    -0.222806540983E+03    0.23026E-02   -0.22586E-01 30144   0.231E+00    0.188E-01
DAV:   2    -0.222808591759E+03   -0.20508E-02   -0.19323E-02 28584   0.419E-01    0.303E-01
DAV:   3    -0.222808586367E+03    0.53923E-05   -0.23702E-03 37656   0.137E-01    0.215E-01
DAV:   4    -0.222808587334E+03   -0.96790E-06   -0.55958E-04 31120   0.735E-02    0.115E-01
DAV:   5    -0.222808580837E+03    0.64970E-05   -0.13646E-04 26224   0.412E-02    0.761E-02
DAV:   6    -0.222808587674E+03   -0.68364E-05   -0.72880E-05 29728   0.418E-02
  86 F= -.22280859E+03 E0= -.22279686E+03  d E =0.251211E-03  mag=    22.0000
       N       E                     dE             d eps       ncg     rms          rms(c)
DAV:   1    -0.222788314615E+03    0.20266E-01   -0.21021E+00 30080   0.689E+00    0.537E-01
DAV:   2    -0.222806061030E+03   -0.17746E-01   -0.16802E-01 27928   0.127E+00    0.577E-01
DAV:   3    -0.222807249598E+03   -0.11886E-02   -0.12447E-02 38160   0.379E-01    0.732E-01
DAV:   4    -0.222806484558E+03    0.76504E-03   -0.41089E-03 38216   0.205E-01    0.260E-01
DAV:   5    -0.222806541112E+03   -0.56554E-04   -0.10934E-03 38792   0.986E-02    0.227E-01
DAV:   6    -0.222806528059E+03    0.13053E-04   -0.74985E-04 38088   0.959E-02    0.188E-01
DAV:   7    -0.222806534316E+03   -0.62572E-05   -0.42279E-04 37544   0.994E-02    0.145E-01
DAV:   8    -0.222806526573E+03    0.77435E-05   -0.22292E-04 34024   0.757E-02    0.801E-02
DAV:   9    -0.222806525313E+03    0.12590E-05   -0.87122E-05 25520   0.385E-02
  87 F= -.22280653E+03 E0= -.22279486E+03  d E =0.206236E-02  mag=    22.0000
       N       E                     dE             d eps       ncg     rms          rms(c)
DAV:   1    -0.222043776940E+03    0.76275E+00   -0.54855E+01 30336   0.386E+01    0.356E+00
DAV:   2    -0.222733227956E+03   -0.68945E+00   -0.63789E+00 28128   0.738E+00    0.445E+00
DAV:   3    -0.222746502580E+03   -0.13275E-01   -0.34367E-01 37584   0.239E+00    0.385E+00
DAV:   4    -0.222737204334E+03    0.92982E-02   -0.11626E-01 38832   0.123E+00    0.158E+00
DAV:   5    -0.222737481780E+03   -0.27745E-03   -0.17441E-02 37880   0.649E-01    0.119E+00
DAV:   6    -0.222738795061E+03   -0.13133E-02   -0.29505E-02 38160   0.483E-01    0.122E+00
DAV:   7    -0.222739198575E+03   -0.40351E-03   -0.36459E-02 38248   0.508E-01    0.104E+00
DAV:   8    -0.222738729150E+03    0.46943E-03   -0.82601E-03 37912   0.386E-01    0.558E-01
DAV:   9    -0.222738567833E+03    0.16132E-03   -0.21253E-03 38136   0.249E-01    0.268E-01
DAV:  10    -0.222738673073E+03   -0.10524E-03   -0.12160E-03 38656   0.136E-01    0.244E-01
DAV:  11    -0.222738634682E+03    0.38391E-04   -0.74722E-04 36192   0.878E-02    0.146E-01
DAV:  12    -0.222738640636E+03   -0.59541E-05   -0.17058E-04 29176   0.582E-02    0.674E-02
DAV:  13    -0.222738646688E+03   -0.60521E-05   -0.43246E-05 25008   0.394E-02
  88 F= -.22273865E+03 E0= -.22272676E+03  d E =0.678786E-01  mag=    22.0000
       N       E                     dE             d eps       ncg     rms          rms(c)
DAV:   1    -0.222712378407E+03    0.26262E-01   -0.60763E+00 30320   0.125E+01    0.115E+00
DAV:   2    -0.222781370682E+03   -0.68992E-01   -0.63653E-01 27928   0.222E+00    0.119E+00
DAV:   3    -0.222786730285E+03   -0.53596E-02   -0.53398E-02 37528   0.765E-01    0.154E+00
DAV:   4    -0.222783724554E+03    0.30057E-02   -0.16027E-02 39264   0.431E-01    0.327E-01
DAV:   5    -0.222784534045E+03   -0.80949E-03   -0.34645E-03 40536   0.185E-01    0.541E-01
DAV:   6    -0.222784250289E+03    0.28376E-03   -0.41008E-03 38208   0.173E-01    0.285E-01
DAV:   7    -0.222784355817E+03   -0.10553E-03   -0.12926E-03 38384   0.148E-01    0.247E-01
DAV:   8    -0.222784323006E+03    0.32811E-04   -0.41116E-04 37624   0.101E-01    0.953E-02
DAV:   9    -0.222784322123E+03    0.88261E-06   -0.12527E-04 29056   0.465E-02    0.669E-02
DAV:  10    -0.222784317714E+03    0.44086E-05   -0.50407E-05 23080   0.286E-02
  89 F= -.22278432E+03 E0= -.22277251E+03  d E =-.456710E-01  mag=    22.0000
       N       E                     dE             d eps       ncg     rms          rms(c)
DAV:   1    -0.222771383618E+03    0.12939E-01   -0.24011E+00 30352   0.800E+00    0.744E-01
DAV:   2    -0.222800017726E+03   -0.28634E-01   -0.26490E-01 27992   0.143E+00    0.810E-01
DAV:   3    -0.222802130334E+03   -0.21126E-02   -0.24890E-02 37736   0.511E-01    0.101E+00
DAV:   4    -0.222800944771E+03    0.11856E-02   -0.75675E-03 39064   0.274E-01    0.223E-01
DAV:   5    -0.222801250768E+03   -0.30600E-03   -0.15767E-03 39616   0.116E-01    0.327E-01
DAV:   6    -0.222801166771E+03    0.83997E-04   -0.13013E-03 38016   0.106E-01    0.160E-01
DAV:   7    -0.222801220994E+03   -0.54223E-04   -0.37467E-04 37392   0.902E-02    0.147E-01
DAV:   8    -0.222801216500E+03    0.44947E-05   -0.17246E-04 32264   0.640E-02    0.775E-02
DAV:   9    -0.222801210904E+03    0.55958E-05   -0.66957E-05 24512   0.340E-02
  90 F= -.22280121E+03 E0= -.22278939E+03  d E =-.168932E-01  mag=    22.0000
       N       E                     dE             d eps       ncg     rms          rms(c)
DAV:   1    -0.222769633825E+03    0.31583E-01   -0.30112E+00 30320   0.920E+00    0.862E-01
DAV:   2    -0.222808680522E+03   -0.39047E-01   -0.36315E-01 28128   0.168E+00    0.112E+00
DAV:   3    -0.222810481616E+03   -0.18011E-02   -0.39763E-02 37800   0.607E-01    0.111E+00
DAV:   4    -0.222809484620E+03    0.99700E-03   -0.11223E-02 39264   0.299E-01    0.360E-01
DAV:   5    -0.222809622356E+03   -0.13774E-03   -0.21145E-03 39184   0.138E-01    0.289E-01
DAV:   6    -0.222809676561E+03   -0.54205E-04   -0.94762E-04 37944   0.112E-01    0.223E-01
DAV:   7    -0.222809678333E+03   -0.17721E-05   -0.48519E-04 37872   0.113E-01    0.144E-01
DAV:   8    -0.222809705355E+03   -0.27022E-04   -0.16105E-04 35024   0.778E-02    0.800E-02
DAV:   9    -0.222809699250E+03    0.61044E-05   -0.69329E-05 27016   0.446E-02
  91 F= -.22280970E+03 E0= -.22279790E+03  d E =-.848835E-02  mag=    22.0000
       N       E                     dE             d eps       ncg     rms          rms(c)
DAV:   1    -0.222806334480E+03    0.33709E-02   -0.28215E-01 31104   0.290E+00    0.272E-01
DAV:   2    -0.222810246262E+03   -0.39118E-02   -0.36890E-02 28424   0.540E-01    0.392E-01
DAV:   3    -0.222810365538E+03   -0.11928E-03   -0.45071E-03 37608   0.202E-01    0.344E-01
DAV:   4    -0.222810299715E+03    0.65824E-04   -0.11854E-03 35992   0.982E-02    0.133E-01
DAV:   5    -0.222810304997E+03   -0.52820E-05   -0.24337E-04 27848   0.502E-02    0.966E-02
DAV:   6    -0.222810311754E+03   -0.67577E-05   -0.86228E-05 26832   0.406E-02
  92 F= -.22281031E+03 E0= -.22279856E+03  d E =-.612504E-03  mag=    22.0000
       N       E                     dE             d eps       ncg     rms          rms(c)
DAV:   1    -0.222807951935E+03    0.23531E-02   -0.21793E-01 31552   0.240E+00    0.205E-01
DAV:   2    -0.222810264523E+03   -0.23126E-02   -0.22041E-02 28760   0.445E-01    0.302E-01
DAV:   3    -0.222810341931E+03   -0.77407E-04   -0.29306E-03 37200   0.172E-01    0.280E-01
DAV:   4    -0.222810288600E+03    0.53331E-04   -0.91010E-04 32600   0.859E-02    0.132E-01
DAV:   5    -0.222810281432E+03    0.71680E-05   -0.10547E-04 26840   0.469E-02    0.783E-02
DAV:   6    -0.222810302142E+03   -0.20710E-04   -0.11000E-04 26512   0.446E-02    0.116E-01
DAV:   7    -0.222810286080E+03    0.16062E-04   -0.11078E-04 29584   0.464E-02    0.346E-02
DAV:   8    -0.222810292719E+03   -0.66396E-05   -0.19106E-05 22848   0.323E-02
  93 F= -.22281029E+03 E0= -.22279855E+03  d E =0.190350E-04  mag=    22.0000
       N       E                     dE             d eps       ncg     rms          rms(c)
DAV:   1    -0.222810117662E+03    0.16842E-03   -0.16835E-02 30056   0.593E-01    0.502E-02
DAV:   2    -0.222810263924E+03   -0.14626E-03   -0.13533E-03 28568   0.112E-01    0.784E-02
DAV:   3    -0.222810262400E+03    0.15238E-05   -0.12308E-04 25880   0.420E-02    0.519E-02
DAV:   4    -0.222810262172E+03    0.22822E-06   -0.20537E-05 18664   0.219E-02
  94 F= -.22281026E+03 E0= -.22279853E+03  d E =0.305478E-04  mag=    22.0000
       N       E                     dE             d eps       ncg     rms          rms(c)
DAV:   1    -0.222809939807E+03    0.32259E-03   -0.38765E-02 29408   0.862E-01    0.625E-02
DAV:   2    -0.222810195048E+03   -0.25524E-03   -0.24208E-03 28840   0.158E-01    0.123E-01
DAV:   3    -0.222810179750E+03    0.15298E-04   -0.24542E-04 29008   0.480E-02    0.533E-02
DAV:   4    -0.222810185660E+03   -0.59099E-05   -0.45534E-05 21096   0.247E-02
  95 F= -.22281019E+03 E0= -.22279846E+03  d E =0.765118E-04  mag=    22.0000
       N       E                     dE             d eps       ncg     rms          rms(c)
DAV:   1    -0.222809937214E+03    0.24254E-03   -0.60354E-02 29664   0.901E-01    0.578E-02
DAV:   2    -0.222810161720E+03   -0.22451E-03   -0.22209E-03 28728   0.157E-01    0.607E-02
DAV:   3    -0.222810170237E+03   -0.85170E-05   -0.11972E-04 29192   0.394E-02    0.771E-02
DAV:   4    -0.222810161386E+03    0.88500E-05   -0.53916E-05 21432   0.259E-02
  96 F= -.22281016E+03 E0= -.22279844E+03  d E =0.242733E-04  mag=    22.0000
       N       E                     dE             d eps       ncg     rms          rms(c)
DAV:   1    -0.222250867699E+03    0.55930E+00   -0.55723E+01 30424   0.336E+01    0.285E+00
DAV:   2    -0.222734758476E+03   -0.48389E+00   -0.44964E+00 27856   0.621E+00    0.288E+00
DAV:   3    -0.222758916094E+03   -0.24158E-01   -0.21242E-01 38352   0.182E+00    0.340E+00
DAV:   4    -0.222747951092E+03    0.10965E-01   -0.12980E-01 39496   0.100E+00    0.144E+00
DAV:   5    -0.222747156348E+03    0.79474E-03   -0.22390E-02 39312   0.461E-01    0.998E-01
DAV:   6    -0.222748163546E+03   -0.10072E-02   -0.21884E-02 39576   0.415E-01    0.112E+00
DAV:   7    -0.222747430999E+03    0.73255E-03   -0.21608E-02 37936   0.417E-01    0.762E-01
DAV:   8    -0.222747262323E+03    0.16868E-03   -0.52065E-03 38144   0.341E-01    0.476E-01
DAV:   9    -0.222747489414E+03   -0.22709E-03   -0.42110E-03 38400   0.221E-01    0.454E-01
DAV:  10    -0.222747185902E+03    0.30351E-03   -0.14925E-03 38368   0.146E-01    0.112E-01
DAV:  11    -0.222747254198E+03   -0.68296E-04   -0.15369E-04 31072   0.715E-02    0.106E-01
DAV:  12    -0.222747244393E+03    0.98049E-05   -0.62404E-05 26496   0.469E-02
  97 F= -.22274724E+03 E0= -.22273550E+03  d E =0.629170E-01  mag=    22.0000
       N       E                     dE             d eps       ncg     rms          rms(c)
DAV:   1    -0.222489728628E+03    0.25753E+00   -0.29559E+01 30552   0.250E+01    0.241E+00
DAV:   2    -0.222807357924E+03   -0.31763E+00   -0.29055E+00 27912   0.466E+00    0.274E+00
DAV:   3    -0.222818778633E+03   -0.11421E-01   -0.15344E-01 37832   0.150E+00    0.310E+00
DAV:   4    -0.222812594091E+03    0.61845E-02   -0.14963E-01 39240   0.851E-01    0.141E+00
DAV:   5    -0.222812049402E+03    0.54469E-03   -0.23695E-02 37984   0.462E-01    0.951E-01
DAV:   6    -0.222812199622E+03   -0.15022E-03   -0.14700E-02 39168   0.346E-01    0.811E-01
DAV:   7    -0.222812026757E+03    0.17286E-03   -0.87337E-03 37752   0.327E-01    0.510E-01
DAV:   8    -0.222812202858E+03   -0.17610E-03   -0.26119E-03 37992   0.235E-01    0.443E-01
DAV:   9    -0.222812011675E+03    0.19118E-03   -0.18210E-03 38352   0.176E-01    0.212E-01
DAV:  10    -0.222812141185E+03   -0.12951E-03   -0.96218E-04 38256   0.114E-01    0.224E-01
DAV:  11    -0.222812098818E+03    0.42368E-04   -0.27699E-04 31288   0.805E-02    0.684E-02
DAV:  12    -0.222812113140E+03   -0.14322E-04   -0.71455E-05 26104   0.347E-02    0.473E-02
DAV:  13    -0.222812109464E+03    0.36759E-05   -0.12358E-05 20664   0.227E-02
  98 F= -.22281211E+03 E0= -.22280033E+03  d E =-.648651E-01  mag=    22.0000
       N       E                     dE             d eps       ncg     rms          rms(c)
DAV:   1    -0.222803199909E+03    0.89132E-02   -0.96180E-01 30544   0.462E+00    0.388E-01
DAV:   2    -0.222812374064E+03   -0.91742E-02   -0.85989E-02 28192   0.857E-01    0.451E-01
DAV:   3    -0.222812834263E+03   -0.46020E-03   -0.59183E-03 38480   0.264E-01    0.519E-01
DAV:   4    -0.222812539984E+03    0.29428E-03   -0.22491E-03 38384   0.156E-01    0.173E-01
DAV:   5    -0.222812571604E+03   -0.31620E-04   -0.65003E-04 33656   0.688E-02    0.159E-01
DAV:   6    -0.222812562757E+03    0.88478E-05   -0.22335E-04 32664   0.566E-02    0.106E-01
DAV:   7    -0.222812566380E+03   -0.36231E-05   -0.11963E-04 34208   0.633E-02    0.784E-02
DAV:   8    -0.222812573122E+03   -0.67423E-05   -0.79689E-05 26400   0.368E-02
  99 F= -.22281257E+03 E0= -.22280077E+03  d E =-.463658E-03  mag=    22.0000
       N       E                     dE             d eps       ncg     rms          rms(c)
DAV:   1    -0.222806615527E+03    0.59509E-02   -0.11015E+00 29896   0.427E+00    0.272E-01
DAV:   2    -0.222812374829E+03   -0.57593E-02   -0.55456E-02 28528   0.770E-01    0.438E-01
DAV:   3    -0.222812293921E+03    0.80908E-04   -0.37847E-03 39856   0.199E-01    0.272E-01
DAV:   4    -0.222812303786E+03   -0.98655E-05   -0.73293E-04 39192   0.995E-02    0.148E-01
DAV:   5    -0.222812307015E+03   -0.32286E-05   -0.21699E-04 28864   0.546E-02    0.148E-01
DAV:   6    -0.222812309966E+03   -0.29507E-05   -0.40215E-04 33856   0.635E-02    0.162E-01
DAV:   7    -0.222812277376E+03    0.32590E-04   -0.19976E-04 35456   0.678E-02    0.742E-02
DAV:   8    -0.222812282043E+03   -0.46672E-05   -0.68945E-05 26904   0.394E-02
 100 F= -.22281228E+03 E0= -.22280055E+03  d E =0.291079E-03  mag=    22.0000
       N       E                     dE             d eps       ncg     rms          rms(c)
DAV:   1    -0.222811236289E+03    0.10411E-02   -0.15445E-01 29544   0.162E+00    0.135E-01
DAV:   2    -0.222812310237E+03   -0.10739E-02   -0.10067E-02 28112   0.292E-01    0.171E-01
DAV:   3    -0.222812362528E+03   -0.52292E-04   -0.13117E-03 37296   0.101E-01    0.195E-01
DAV:   4    -0.222812321430E+03    0.41098E-04   -0.39860E-04 28760   0.584E-02    0.627E-02
DAV:   5    -0.222812324426E+03   -0.29956E-05   -0.45210E-05 22304   0.278E-02
 101 F= -.22281232E+03 E0= -.22280059E+03  d E =-.423827E-04  mag=    22.0000
       N       E                     dE             d eps       ncg     rms          rms(c)
DAV:   1    -0.222811707767E+03    0.61366E-03   -0.87413E-02 28664   0.110E+00    0.821E-02
DAV:   2    -0.222812100437E+03   -0.39267E-03   -0.37539E-03 28160   0.202E-01    0.120E-01
DAV:   3    -0.222812100906E+03   -0.46852E-06   -0.28624E-04 33488   0.698E-02    0.950E-02
DAV:   4    -0.222812092450E+03    0.84561E-05   -0.95025E-05 25520   0.341E-02
 102 F= -.22281209E+03 E0= -.22280039E+03  d E =0.231976E-03  mag=    22.0000
       N       E                     dE             d eps       ncg     rms          rms(c)
DAV:   1    -0.222811765959E+03    0.33495E-03   -0.35150E-02 29264   0.658E-01    0.497E-02
DAV:   2    -0.222811893466E+03   -0.12751E-03   -0.12862E-03 29024   0.120E-01    0.108E-01
DAV:   3    -0.222811878776E+03    0.14690E-04   -0.22025E-04 26344   0.470E-02    0.513E-02
DAV:   4    -0.222811877640E+03    0.11356E-05   -0.24779E-05 18752   0.227E-02
 103 F= -.22281188E+03 E0= -.22280018E+03  d E =0.214809E-03  mag=    22.0000
       N       E                     dE             d eps       ncg     rms          rms(c)
DAV:   1    -0.222811190619E+03    0.68816E-03   -0.97390E-02 29256   0.113E+00    0.661E-02
DAV:   2    -0.222811525659E+03   -0.33504E-03   -0.33660E-03 27688   0.192E-01    0.682E-02
DAV:   3    -0.222811543756E+03   -0.18096E-04   -0.27670E-04 36112   0.538E-02    0.106E-01
DAV:   4    -0.222811524638E+03    0.19117E-04   -0.11107E-04 23976   0.343E-02    0.316E-02
DAV:   5    -0.222811525710E+03   -0.10715E-05   -0.14499E-05 16512   0.172E-02
 104 F= -.22281153E+03 E0= -.22279981E+03  d E =0.351930E-03  mag=    22.0000
       N       E                     dE             d eps       ncg     rms          rms(c)
DAV:   1    -0.222810537162E+03    0.98748E-03   -0.11639E-01 29344   0.147E+00    0.109E-01
DAV:   2    -0.222811257612E+03   -0.72045E-03   -0.67203E-03 27848   0.259E-01    0.207E-01
DAV:   3    -0.222811228686E+03    0.28926E-04   -0.90487E-04 37216   0.988E-02    0.124E-01
DAV:   4    -0.222811227950E+03    0.73676E-06   -0.21344E-04 26136   0.455E-02    0.747E-02
DAV:   5    -0.222811221106E+03    0.68432E-05   -0.53308E-05 21936   0.302E-02
 105 F= -.22281122E+03 E0= -.22279949E+03  d E =0.304604E-03  mag=    22.0000
