       N       E                     dE             d eps       ncg     rms          rms(c)
DAV:   1     0.532976961505E+04    0.53298E+04   -0.22196E+05 28704   0.160E+03
DAV:   2     0.431436998577E+03   -0.48983E+04   -0.45461E+04 30024   0.467E+02
DAV:   3    -0.318290577651E+03   -0.74973E+03   -0.69792E+03 31256   0.187E+02
DAV:   4    -0.354017882248E+03   -0.35727E+02   -0.34874E+02 32824   0.421E+01
DAV:   5    -0.355295336235E+03   -0.12775E+01   -0.12606E+01 42848   0.754E+00    0.305E-01
DAV:   6    -0.355369866411E+03   -0.74530E-01   -0.38309E-01 44224   0.110E+00    0.719E-01
DAV:   7    -0.355370621004E+03   -0.75459E-03   -0.16114E-02 43752   0.317E-01    0.577E-01
DAV:   8    -0.355370467524E+03    0.15348E-03   -0.25828E-03 39448   0.160E-01    0.408E-01
DAV:   9    -0.355370273201E+03    0.19432E-03   -0.89185E-04 39368   0.987E-02    0.225E-01
DAV:  10    -0.355370250642E+03    0.22559E-04   -0.68365E-04 30352   0.521E-02    0.166E-01
DAV:  11    -0.355370234724E+03    0.15918E-04   -0.26200E-04 24280   0.351E-02    0.123E-01
DAV:  12    -0.355370222183E+03    0.12541E-04   -0.60676E-05 21544   0.232E-02    0.797E-02
DAV:  13    -0.355370226548E+03   -0.43650E-05   -0.15261E-05 19328   0.156E-02
   1 F= -.35537023E+03 E0= -.35535433E+03  d E =-.355370E+03  mag=     8.0000
