       N       E                     dE             d eps       ncg     rms          ort
DAV:   1     0.676055328623E+04    0.67606E+04   -0.30690E+05 19264   0.162E+03
DAV:   2     0.422439755144E+03   -0.63381E+04   -0.60220E+04 19264   0.464E+02
DAV:   3    -0.435914019498E+03   -0.85835E+03   -0.83523E+03 19264   0.182E+02
DAV:   4    -0.473785718813E+03   -0.37872E+02   -0.36765E+02 19264   0.423E+01
DAV:   5    -0.475208296773E+03   -0.14226E+01   -0.14081E+01 19264   0.729E+00
SDA:   6    -0.171695502008E+03    0.30351E+03   -0.14081E+01 19264   0.258E+04 0.000E+00
CGA:   7    -0.110676985979E+03    0.61019E+02   -0.13211E+03 19264   0.827E+04-0.347E+04
CGA:   8     0.201697986596E+03    0.31237E+03   -0.40491E+03 19264   0.334E+05-0.218E+05
CGA:   9     0.957580954434E+03    0.75588E+03   -0.20922E+04 19264   0.812E+04-0.452E+04
CGA:  10     0.218070432429E+03   -0.73951E+03   -0.68933E+02 19264   0.224E+05 0.415E+05
CGA:  11     0.529190194077E+03    0.31112E+03   -0.12138E+04 19264   0.410E+05-0.305E+05
CGA:  12     0.481587832471E+03   -0.47602E+02   -0.18439E+04 19264   0.535E+05-0.467E+05
CGA:  13     0.613651059572E+03    0.13206E+03   -0.28525E+04 19264   0.310E+04-0.223E+04
CGA:  14     0.565716479047E+03   -0.47935E+02   -0.20396E+02 19264   0.365E+04 0.367E+04
CGA:  15    -0.237085250843E+02   -0.58943E+03   -0.31109E+02 19264   0.212E+05 0.339E+05
CGA:  16     0.699239144688E+03    0.72295E+03   -0.12556E+04 19264   0.159E+05-0.888E+04
CGA:  17    -0.292826568310E+03   -0.99207E+03   -0.16552E+03 19264   0.687E+04 0.213E+05
CGA:  18    -0.226806347380E+03    0.66020E+02   -0.29223E+03 19264   0.584E+04-0.441E+04
CGA:  19    -0.251629388168E+03   -0.24823E+02   -0.21036E+03 19264   0.593E+04-0.631E+04
CGA:  20    -0.245833494851E+03    0.57959E+01   -0.21957E+03 19264   0.364E+04-0.350E+04
CGA:  21    -0.391622936380E+03   -0.14579E+03   -0.92921E+02 19264   0.106E+04-0.339E+04
CGA:  22    -0.394523835674E+03   -0.29009E+01   -0.29132E+02 19264   0.888E+03-0.940E+03
CGA:  23    -0.399969231030E+03   -0.54454E+01   -0.22470E+02 19264   0.569E+03-0.700E+03
CGA:  24    -0.403438126967E+03   -0.34689E+01   -0.14268E+02 19264   0.354E+03-0.429E+03
CGA:  25    -0.408602182709E+03   -0.51641E+01   -0.57815E+01 19264   0.173E+02-0.519E+02
CGA:  26    -0.409213139896E+03   -0.61096E+00   -0.61191E+00 19264   0.187E+02-0.135E-01
CGA:  27    -0.410722463398E+03   -0.15093E+01   -0.95689E+00 19264   0.852E+01 0.789E+01
CGA:  28    -0.411726530707E+03   -0.10041E+01   -0.86521E+00 19264   0.328E+02-0.736E+00
CGA:  29    -0.412269463734E+03   -0.54293E+00   -0.76740E+00 19264   0.193E+02-0.187E+02
CGA:  30    -0.412445113814E+03   -0.17565E+00   -0.20731E+00 19264   0.699E+01-0.303E+01
CGA:  31    -0.412790342824E+03   -0.34523E+00   -0.35864E+00 19264   0.221E+02 0.921E-01
CGA:  32    -0.413703503246E+03   -0.91316E+00   -0.60217E+00 19264   0.324E+01 0.103E+02
CGA:  33    -0.413838182001E+03   -0.13468E+00   -0.14414E+00 19264   0.992E+01-0.284E+00
CGA:  34    -0.414205234939E+03   -0.36705E+00   -0.39915E+00 19264   0.194E+02 0.780E+00
CGA:  35    -0.414352907759E+03   -0.14767E+00   -0.22652E+00 19264   0.901E+01-0.838E+01
CGA:  36    -0.414374287782E+03   -0.21380E-01   -0.13324E-01 19264   0.691E+01 0.307E+01
CGA:  37    -0.414418163533E+03   -0.43876E-01   -0.30258E-01 19264   0.315E+01 0.412E+01
CGA:  38    -0.414490393837E+03   -0.72230E-01   -0.77450E-01 19264   0.487E+01-0.147E+00
CGA:  39    -0.414850393055E+03   -0.36000E+00   -0.34725E+00 19264   0.252E+01 0.687E+00
CGA:  40    -0.414932296077E+03   -0.81903E-01   -0.87917E-01 19264   0.913E+00-0.101E+00
CGA:  41    -0.414960502267E+03   -0.28206E-01   -0.29791E-01 19264   0.119E+01-0.165E-01
CGA:  42    -0.415025428181E+03   -0.64926E-01   -0.65317E-01 19264   0.118E+01 0.390E-01
CGA:  43    -0.415087069491E+03   -0.61641E-01   -0.62067E-01 19264   0.101E+01 0.164E-01
CGA:  44    -0.415115050305E+03   -0.27981E-01   -0.29574E-01 19264   0.556E+00-0.287E-01
CGA:  45    -0.415135529840E+03   -0.20480E-01   -0.21068E-01 19264   0.265E+00 0.516E-03
CGA:  46    -0.415146643932E+03   -0.11114E-01   -0.11255E-01 19264   0.256E+00 0.155E-02
CGA:  47    -0.415156839049E+03   -0.10195E-01   -0.10368E-01 19264   0.187E+00 0.123E-02
CGA:  48    -0.415168302622E+03   -0.11464E-01   -0.11425E-01 19264   0.148E+00 0.454E-02
CGA:  49    -0.415173820005E+03   -0.55174E-02   -0.56213E-02 19264   0.931E-01 0.821E-04
CGA:  50    -0.415177575996E+03   -0.37560E-02   -0.37902E-02 19264   0.459E-01 0.453E-03
CGA:  51    -0.415179937864E+03   -0.23619E-02   -0.23664E-02 19264   0.425E-01 0.702E-03
CGA:  52    -0.415181804979E+03   -0.18671E-02   -0.18752E-02 19264   0.356E-01 0.245E-03
CGA:  53    -0.415183779850E+03   -0.19749E-02   -0.19730E-02 19264   0.269E-01 0.704E-03
CGA:  54    -0.415184992658E+03   -0.12128E-02   -0.12166E-02 19264   0.182E-01 0.138E-03
CGA:  55    -0.415185742788E+03   -0.75013E-03   -0.75360E-03 19264   0.101E-01 0.631E-04
CGA:  56    -0.415186320738E+03   -0.57795E-03   -0.57785E-03 19264   0.866E-02 0.714E-05
CGA:  57    -0.415186779468E+03   -0.45873E-03   -0.45873E-03 19264   0.915E-02 0.468E-04
CGA:  58    -0.415187267087E+03   -0.48762E-03   -0.48762E-03 19264   0.656E-02-0.551E-04
CGA:  59    -0.415187606956E+03   -0.33987E-03   -0.33992E-03 19264   0.533E-02 0.108E-04
CGA:  60    -0.415187818213E+03   -0.21126E-03   -0.21022E-03 19264   0.306E-02-0.351E-04
CGA:  61    -0.415188015193E+03   -0.19698E-03   -0.19674E-03 19264   0.313E-02 0.559E-05
CGA:  62    -0.415188179381E+03   -0.16419E-03   -0.16416E-03 19264   0.339E-02-0.449E-04
CGA:  63    -0.415188378077E+03   -0.19870E-03   -0.19868E-03 19264   0.229E-02-0.692E-05
CGA:  64    -0.415188490962E+03   -0.11288E-03   -0.11267E-03 19264   0.186E-02-0.305E-04
CGA:  65    -0.415188568390E+03   -0.77428E-04   -0.77493E-04 19264   0.119E-02-0.391E-05
CGA:  66    -0.415188648412E+03   -0.80021E-04   -0.80559E-04 19264   0.146E-02-0.265E-04
CGA:  67    -0.415188718265E+03   -0.69854E-04   -0.69877E-04 19264   0.128E-02 0.139E-05
SDA:  68    -0.415188781938E+03   -0.63673E-04   -0.63581E-04 19264   0.630E-03-0.118E-04
CGA:  69    -0.415188794993E+03   -0.13055E-04   -0.13089E-04 19264   0.193E-03 0.114E-05
CGA:  70    -0.415188810084E+03   -0.15091E-04   -0.14927E-04 19264   0.428E-03 0.597E-05
CGA:  71    -0.415188898937E+03   -0.88852E-04   -0.83863E-04 19264   0.106E-02 0.344E-04
CGA:  72    -0.415188929523E+03   -0.30586E-04   -0.30999E-04 19264   0.288E-03 0.141E-04
CGA:  73    -0.415188943063E+03   -0.13540E-04   -0.13592E-04 19264   0.162E-03 0.457E-05
CGA:  74    -0.415188962321E+03   -0.19258E-04   -0.19029E-04 19264   0.227E-03 0.353E-05
CGA:  75    -0.415188968929E+03   -0.66080E-05   -0.66286E-05 19264   0.704E-04 0.918E-06
   1 F= -.41518897E+03 E0= -.41515583E+03  d E =-.415189E+03  mag=    34.0000
       N       E                     dE             d eps       ncg     rms          ort
SDA:   1    -0.415206273910E+03   -0.17312E-01    0.00000E+00 19264   0.175E+00 0.000E+00
CGA:   2    -0.415209208196E+03   -0.29343E-02   -0.29356E-02 19264   0.255E-01-0.262E-04
CGA:   3    -0.415210248117E+03   -0.10399E-02   -0.10388E-02 19264   0.207E-01 0.405E-05
CGA:   4    -0.415212770577E+03   -0.25225E-02   -0.25227E-02 19264   0.227E-01 0.301E-06
CGA:   5    -0.415213341009E+03   -0.57043E-03   -0.57020E-03 19264   0.735E-02 0.659E-05
CGA:   6    -0.415213659125E+03   -0.31812E-03   -0.31833E-03 19264   0.383E-02 0.679E-05
CGA:   7    -0.415214022034E+03   -0.36291E-03   -0.36237E-03 19264   0.251E-02 0.148E-04
CGA:   8    -0.415214142159E+03   -0.12012E-03   -0.12017E-03 19264   0.109E-02 0.365E-05
CGA:   9    -0.415214169159E+03   -0.27000E-04   -0.27004E-04 19264   0.457E-03 0.519E-06
CGA:  10    -0.415214198985E+03   -0.29826E-04   -0.29842E-04 19264   0.575E-03-0.151E-05
CGA:  11    -0.415214231296E+03   -0.32311E-04   -0.32310E-04 19264   0.320E-03-0.198E-05
CGA:  12    -0.415214238083E+03   -0.67873E-05   -0.67893E-05 19264   0.586E-04 0.638E-07
   2 F= -.41521424E+03 E0= -.41518109E+03  d E =-.252692E-01  mag=    34.0000
       N       E                     dE             d eps       ncg     rms          ort
SDA:   1    -0.385693599166E+03    0.29521E+02    0.00000E+00 19264   0.331E+03 0.000E+00
CGA:   2    -0.392368097519E+03   -0.66745E+01   -0.79107E+01 19264   0.140E+03-0.592E+02
CGA:   3    -0.400053092381E+03   -0.76850E+01   -0.82049E+01 19264   0.240E+03-0.257E+02
CGA:   4    -0.410200246033E+03   -0.10147E+02   -0.10004E+02 19264   0.932E+02-0.585E+01
CGA:   5    -0.411625625941E+03   -0.14254E+01   -0.15912E+01 19264   0.611E+02-0.686E+01
CGA:   6    -0.412840346351E+03   -0.12147E+01   -0.11855E+01 19264   0.281E+02 0.585E+00
CGA:   7    -0.413525501657E+03   -0.68516E+00   -0.68200E+00 19264   0.417E+02 0.693E-01
CGA:   8    -0.414863192516E+03   -0.13377E+01   -0.13349E+01 19264   0.313E+02 0.682E-01
CGA:   9    -0.415354500541E+03   -0.49131E+00   -0.43650E+00 19264   0.173E+02 0.282E+01
CGA:  10    -0.415716865229E+03   -0.36236E+00   -0.35663E+00 19264   0.100E+02-0.465E-01
CGA:  11    -0.415830211143E+03   -0.11335E+00   -0.11636E+00 19264   0.493E+01-0.268E+00
CGA:  12    -0.415976487695E+03   -0.14628E+00   -0.14624E+00 19264   0.106E+02-0.208E-02
CGA:  13    -0.416149604969E+03   -0.17312E+00   -0.17483E+00 19264   0.597E+01-0.239E+00
CGA:  14    -0.416288174005E+03   -0.13857E+00   -0.15750E+00 19264   0.909E+01-0.159E+00
CGA:  15    -0.416425192520E+03   -0.13702E+00   -0.14344E+00 19264   0.157E+01-0.339E+00
CGA:  16    -0.416455952825E+03   -0.30760E-01   -0.30738E-01 19264   0.956E+00 0.581E-03
CGA:  17    -0.416479697871E+03   -0.23745E-01   -0.24474E-01 19264   0.789E+00-0.386E-02
CGA:  18    -0.416510542035E+03   -0.30844E-01   -0.30845E-01 19264   0.124E+01 0.130E-02
CGA:  19    -0.416552103922E+03   -0.41562E-01   -0.41809E-01 19264   0.704E+00 0.156E-01
CGA:  20    -0.416564439026E+03   -0.12335E-01   -0.13279E-01 19264   0.184E+00-0.253E-01
CGA:  21    -0.416569207095E+03   -0.47681E-02   -0.47980E-02 19264   0.119E+00 0.318E-03
CGA:  22    -0.416573794626E+03   -0.45875E-02   -0.45880E-02 19264   0.154E+00-0.375E-03
CGA:  23    -0.416582056110E+03   -0.82615E-02   -0.81025E-02 19264   0.221E+00 0.796E-02
CGA:  24    -0.416587979507E+03   -0.59234E-02   -0.60097E-02 19264   0.515E-01 0.475E-03
CGA:  25    -0.416589561620E+03   -0.15821E-02   -0.15831E-02 19264   0.288E-01 0.805E-05
CGA:  26    -0.416590976428E+03   -0.14148E-02   -0.14116E-02 19264   0.399E-01 0.208E-03
CGA:  27    -0.416592911229E+03   -0.19348E-02   -0.19325E-02 19264   0.395E-01 0.215E-03
CGA:  28    -0.416594036180E+03   -0.11250E-02   -0.11270E-02 19264   0.940E-02 0.149E-04
CGA:  29    -0.416594376756E+03   -0.34058E-03   -0.34065E-03 19264   0.737E-02 0.215E-04
CGA:  30    -0.416594762492E+03   -0.38574E-03   -0.38530E-03 19264   0.109E-01 0.350E-04
CGA:  31    -0.416595264968E+03   -0.50248E-03   -0.50205E-03 19264   0.877E-02 0.568E-04
SDA:  32    -0.416595521784E+03   -0.25682E-03   -0.25715E-03 19264   0.249E-02 0.260E-04
CGA:  33    -0.416595576925E+03   -0.55140E-04   -0.55183E-04 19264   0.114E-02-0.249E-05
CGA:  34    -0.416595747753E+03   -0.17083E-03   -0.16937E-03 19264   0.406E-02 0.119E-04
CGA:  35    -0.416595966735E+03   -0.21898E-03   -0.21890E-03 19264   0.126E-02 0.763E-05
CGA:  36    -0.416596002706E+03   -0.35971E-04   -0.36042E-04 19264   0.118E-02 0.410E-05
CGA:  37    -0.416596186395E+03   -0.18369E-03   -0.17970E-03 19264   0.848E-03 0.360E-04
CGA:  38    -0.416596233186E+03   -0.46790E-04   -0.46762E-04 19264   0.120E-02 0.525E-05
CGA:  39    -0.416596288487E+03   -0.55302E-04   -0.55315E-04 19264   0.136E-02 0.645E-05
CGA:  40    -0.416596386450E+03   -0.97963E-04   -0.97811E-04 19264   0.132E-02 0.602E-05
CGA:  41    -0.416596450312E+03   -0.63863E-04   -0.63852E-04 19264   0.815E-03-0.326E-05
CGA:  42    -0.416596473638E+03   -0.23326E-04   -0.23322E-04 19264   0.470E-03-0.909E-06
CGA:  43    -0.416596537945E+03   -0.64307E-04   -0.64500E-04 19264   0.931E-03-0.241E-05
CGA:  44    -0.416596576805E+03   -0.38860E-04   -0.38839E-04 19264   0.617E-03-0.161E-05
CGA:  45    -0.416596593284E+03   -0.16480E-04   -0.16479E-04 19264   0.248E-03-0.351E-06
CGA:  46    -0.416596630323E+03   -0.37038E-04   -0.36889E-04 19264   0.665E-03 0.140E-05
CGA:  47    -0.416596665827E+03   -0.35504E-04   -0.35506E-04 19264   0.423E-03 0.469E-06
CGA:  48    -0.416596675880E+03   -0.10053E-04   -0.10031E-04 19264   0.171E-03-0.954E-06
CGA:  49    -0.416596705298E+03   -0.29418E-04   -0.30558E-04 19264   0.493E-03-0.907E-05
CGA:  50    -0.416596723467E+03   -0.18169E-04   -0.18020E-04 19264   0.349E-03-0.658E-05
CGA:  51    -0.416596735532E+03   -0.12065E-04   -0.11958E-04 19264   0.142E-03-0.423E-05
CGA:  52    -0.416596743783E+03   -0.82509E-05   -0.82532E-05 19264   0.148E-03-0.338E-05
CGA:  53    -0.416596754735E+03   -0.10953E-04   -0.11031E-04 19264   0.402E-03-0.440E-05
CGA:  54    -0.416596771272E+03   -0.16537E-04   -0.16435E-04 19264   0.722E-04-0.627E-05
CGA:  55    -0.416596774717E+03   -0.34446E-05   -0.34380E-05 19264   0.491E-04-0.785E-06
   3 F= -.41659677E+03 E0= -.41656400E+03  d E =-.138254E+01  mag=    34.0000
       N       E                     dE             d eps       ncg     rms          ort
SDA:   1    -0.330482839239E+03    0.86114E+02    0.00000E+00 19264   0.130E+04 0.000E+00
CGA:   2    -0.353454442184E+03   -0.22972E+02   -0.34652E+02 19264   0.615E+03-0.460E+03
CGA:   3    -0.373383297187E+03   -0.19929E+02   -0.15554E+02 19264   0.351E+03-0.493E+02
CGA:   4    -0.389356571335E+03   -0.15973E+02   -0.15788E+02 19264   0.321E+03-0.367E+01
CGA:   5    -0.395970605293E+03   -0.66140E+01   -0.75813E+01 19264   0.506E+03-0.495E+02
CGA:   6    -0.404848352563E+03   -0.88777E+01   -0.97303E+01 19264   0.256E+03-0.226E+02
CGA:   7    -0.407790797497E+03   -0.29424E+01   -0.28283E+01 19264   0.189E+03-0.145E+00
CGA:   8    -0.410460389755E+03   -0.26696E+01   -0.26950E+01 19264   0.149E+03-0.886E+01
CGA:   9    -0.411494299285E+03   -0.10339E+01   -0.12610E+01 19264   0.634E+02-0.236E+02
CGA:  10    -0.412270279347E+03   -0.77598E+00   -0.71598E+00 19264   0.835E+02 0.439E+01
CGA:  11    -0.413717524436E+03   -0.14472E+01   -0.14292E+01 19264   0.603E+02-0.127E+01
CGA:  12    -0.414290530642E+03   -0.57301E+00   -0.55818E+00 19264   0.402E+02 0.721E+00
CGA:  13    -0.415029669070E+03   -0.73914E+00   -0.69516E+00 19264   0.691E+02 0.137E+01
CGA:  14    -0.415745348219E+03   -0.71568E+00   -0.73436E+00 19264   0.324E+02-0.309E+01
CGA:  15    -0.416016887891E+03   -0.27154E+00   -0.32566E+00 19264   0.348E+02-0.483E+01
CGA:  16    -0.416488562052E+03   -0.47167E+00   -0.52976E+00 19264   0.334E+02-0.141E+01
CGA:  17    -0.416724468714E+03   -0.23591E+00   -0.25601E+00 19264   0.119E+02-0.270E+01
CGA:  18    -0.416860021584E+03   -0.13555E+00   -0.13956E+00 19264   0.998E+01-0.244E+00
CGA:  19    -0.416965019197E+03   -0.10500E+00   -0.11567E+00 19264   0.561E+01-0.681E+00
CGA:  20    -0.417036114944E+03   -0.71096E-01   -0.74449E-01 19264   0.488E+01-0.146E+00
CGA:  21    -0.417118789461E+03   -0.82675E-01   -0.84221E-01 19264   0.618E+01-0.414E-01
CGA:  22    -0.417253177894E+03   -0.13439E+00   -0.13855E+00 19264   0.644E+01 0.599E-01
CGA:  23    -0.417344251097E+03   -0.91073E-01   -0.10295E+00 19264   0.376E+01-0.319E+00
CGA:  24    -0.417425788228E+03   -0.81537E-01   -0.83143E-01 19264   0.173E+01 0.535E-01
CGA:  25    -0.417449949775E+03   -0.24162E-01   -0.25117E-01 19264   0.526E+00-0.348E-01
CGA:  26    -0.417467922904E+03   -0.17973E-01   -0.17910E-01 19264   0.713E+00 0.723E-02
CGA:  27    -0.417490103113E+03   -0.22180E-01   -0.22100E-01 19264   0.698E+00 0.335E-01
CGA:  28    -0.417520099424E+03   -0.29996E-01   -0.29905E-01 19264   0.709E+00 0.622E-02
CGA:  29    -0.417535053483E+03   -0.14954E-01   -0.15053E-01 19264   0.250E+00 0.915E-03
CGA:  30    -0.417542894363E+03   -0.78409E-02   -0.78170E-02 19264   0.182E+00 0.737E-02
CGA:  31    -0.417548243771E+03   -0.53494E-02   -0.53508E-02 19264   0.136E+00 0.735E-03
SDA:  32    -0.417554756363E+03   -0.65126E-02   -0.65093E-02 19264   0.202E+00 0.136E-03
CGA:  33    -0.417557542743E+03   -0.27864E-02   -0.27964E-02 19264   0.185E-01-0.440E-03
CGA:  34    -0.417561826386E+03   -0.42836E-02   -0.69941E-03 19264   0.976E-01 0.393E-02
CGA:  35    -0.417565197466E+03   -0.33711E-02   -0.33738E-02 19264   0.250E-01 0.406E-05
CGA:  36    -0.417566034754E+03   -0.83729E-03   -0.84190E-03 19264   0.148E-01 0.408E-05
CGA:  37    -0.417567056431E+03   -0.10217E-02   -0.10204E-02 19264   0.302E-01 0.741E-04
CGA:  38    -0.417568449003E+03   -0.13926E-02   -0.13940E-02 19264   0.169E-01 0.108E-03
CGA:  39    -0.417568947354E+03   -0.49835E-03   -0.50214E-03 19264   0.714E-02-0.212E-04
CGA:  40    -0.417569352328E+03   -0.40497E-03   -0.40476E-03 19264   0.105E-01 0.322E-04
CGA:  41    -0.417570071925E+03   -0.71960E-03   -0.71609E-03 19264   0.112E-01 0.171E-03
CGA:  42    -0.417570404524E+03   -0.33260E-03   -0.33326E-03 19264   0.393E-02 0.121E-04
CGA:  43    -0.417570584728E+03   -0.18020E-03   -0.18026E-03 19264   0.493E-02 0.830E-05
CGA:  44    -0.417570916542E+03   -0.33181E-03   -0.33141E-03 19264   0.587E-02 0.225E-04
CGA:  45    -0.417571130250E+03   -0.21371E-03   -0.21377E-03 19264   0.230E-02 0.261E-05
CGA:  46    -0.417571220837E+03   -0.90588E-04   -0.90620E-04 19264   0.209E-02 0.112E-05
CGA:  47    -0.417571360486E+03   -0.13965E-03   -0.13962E-03 19264   0.318E-02 0.240E-05
CGA:  48    -0.417571481327E+03   -0.12084E-03   -0.12099E-03 19264   0.141E-02 0.364E-05
CGA:  49    -0.417571534362E+03   -0.53035E-04   -0.53021E-04 19264   0.898E-03 0.102E-05
CGA:  50    -0.417571590097E+03   -0.55736E-04   -0.55689E-04 19264   0.147E-02 0.316E-05
CGA:  51    -0.417571673882E+03   -0.83785E-04   -0.83787E-04 19264   0.147E-02 0.116E-05
CGA:  52    -0.417571724934E+03   -0.51052E-04   -0.51054E-04 19264   0.712E-03 0.104E-05
CGA:  53    -0.417571755105E+03   -0.30171E-04   -0.30161E-04 19264   0.564E-03-0.114E-05
CGA:  54    -0.417571790548E+03   -0.35442E-04   -0.35507E-04 19264   0.845E-03-0.442E-05
CGA:  55    -0.417571831274E+03   -0.40726E-04   -0.40714E-04 19264   0.609E-03-0.659E-05
CGA:  56    -0.417571852198E+03   -0.20925E-04   -0.20857E-04 19264   0.360E-03-0.433E-05
CGA:  57    -0.417571871225E+03   -0.19027E-04   -0.19049E-04 19264   0.462E-03-0.536E-05
CGA:  58    -0.417571900088E+03   -0.28863E-04   -0.28969E-04 19264   0.482E-03-0.784E-05
CGA:  59    -0.417571915881E+03   -0.15793E-04   -0.15708E-04 19264   0.181E-03-0.428E-05
CGA:  60    -0.417571923504E+03   -0.76231E-05   -0.76122E-05 19264   0.200E-03-0.175E-05
CGA:  61    -0.417571937586E+03   -0.14082E-04   -0.14127E-04 19264   0.325E-03-0.216E-05
CGA:  62    -0.417571951298E+03   -0.13712E-04   -0.13697E-04 19264   0.153E-03-0.190E-05
SDA:  63    -0.417571956740E+03   -0.54424E-05   -0.54367E-05 19264   0.102E-03-0.738E-06
   4 F= -.41757196E+03 E0= -.41753959E+03  d E =-.975182E+00  mag=    34.0000
       N       E                     dE             d eps       ncg     rms          ort
SDA:   1    -0.400661074756E+03    0.16911E+02    0.00000E+00 19264   0.869E+03 0.000E+00
CGA:   2    -0.414227318218E+03   -0.13566E+02   -0.13944E+02 19264   0.258E+02-0.126E+03
CGA:   3    -0.414799915048E+03   -0.57260E+00   -0.56030E+00 19264   0.120E+02-0.309E-01
CGA:   4    -0.416205574449E+03   -0.14057E+01   -0.14103E+01 19264   0.295E+02-0.836E-01
CGA:   5    -0.416957753697E+03   -0.75218E+00   -0.74540E+00 19264   0.412E+01-0.809E-01
CGA:   6    -0.417124931733E+03   -0.16718E+00   -0.16721E+00 19264   0.468E+01 0.465E-02
CGA:   7    -0.417442331850E+03   -0.31740E+00   -0.31712E+00 19264   0.459E+01 0.143E-01
CGA:   8    -0.417556750044E+03   -0.11442E+00   -0.11296E+00 19264   0.573E+00 0.255E-01
CGA:   9    -0.417575699384E+03   -0.18949E-01   -0.18969E-01 19264   0.519E+00 0.438E-03
CGA:  10    -0.417621299795E+03   -0.45600E-01   -0.45556E-01 19264   0.542E+00 0.111E-02
CGA:  11    -0.417632543806E+03   -0.11244E-01   -0.11310E-01 19264   0.638E-01-0.189E-02
CGA:  12    -0.417635911248E+03   -0.33674E-02   -0.33672E-02 19264   0.118E+00 0.114E-03
CGA:  13    -0.417643972727E+03   -0.80615E-02   -0.80346E-02 19264   0.723E-01 0.106E-02
CGA:  14    -0.417645699603E+03   -0.17269E-02   -0.17299E-02 19264   0.169E-01-0.407E-04
CGA:  15    -0.417646424829E+03   -0.72523E-03   -0.72542E-03 19264   0.166E-01 0.285E-04
CGA:  16    -0.417647518672E+03   -0.10938E-02   -0.10935E-02 19264   0.245E-01 0.242E-04
CGA:  17    -0.417648461206E+03   -0.94253E-03   -0.94336E-03 19264   0.863E-02 0.304E-04
CGA:  18    -0.417648715374E+03   -0.25417E-03   -0.25432E-03 19264   0.361E-02 0.231E-05
CGA:  19    -0.417648900093E+03   -0.18472E-03   -0.18471E-03 19264   0.460E-02 0.345E-05
CGA:  20    -0.417649176198E+03   -0.27610E-03   -0.27609E-03 19264   0.469E-02 0.426E-05
CGA:  21    -0.417649342763E+03   -0.16657E-03   -0.16664E-03 19264   0.216E-02 0.319E-05
CGA:  22    -0.417649418954E+03   -0.76192E-04   -0.76212E-04 19264   0.929E-03 0.224E-05
CGA:  23    -0.417649456988E+03   -0.38034E-04   -0.38049E-04 19264   0.956E-03 0.295E-05
CGA:  24    -0.417649531263E+03   -0.74274E-04   -0.74007E-04 19264   0.131E-02 0.931E-05
CGA:  25    -0.417649572778E+03   -0.41515E-04   -0.41609E-04 19264   0.408E-03 0.517E-05
CGA:  26    -0.417649586429E+03   -0.13651E-04   -0.13682E-04 19264   0.207E-03 0.198E-05
CGA:  27    -0.417649598357E+03   -0.11928E-04   -0.11898E-04 19264   0.345E-03 0.236E-05
CGA:  28    -0.417649619901E+03   -0.21544E-04   -0.21467E-04 19264   0.237E-03 0.518E-05
CGA:  29    -0.417649626125E+03   -0.62249E-05   -0.62556E-05 19264   0.662E-04 0.105E-05
   5 F= -.41764963E+03 E0= -.41761720E+03  d E =-.776694E-01  mag=    34.0000
       N       E                     dE             d eps       ncg     rms          ort
SDA:   1    -0.406581717514E+03    0.11068E+02    0.00000E+00 19264   0.435E+02 0.000E+00
CGA:   2    -0.408102784875E+03   -0.15211E+01   -0.15352E+01 19264   0.664E+02-0.167E-01
CGA:   3    -0.414445963872E+03   -0.63432E+01   -0.69053E+01 19264   0.921E+02-0.186E+02
CGA:   4    -0.415635083363E+03   -0.11891E+01   -0.11510E+01 19264   0.109E+02 0.117E+01
CGA:   5    -0.416050722039E+03   -0.41564E+00   -0.42009E+00 19264   0.160E+02 0.112E+00
CGA:   6    -0.416657412620E+03   -0.60669E+00   -0.60608E+00 19264   0.263E+02-0.299E-01
CGA:   7    -0.417396766637E+03   -0.73935E+00   -0.73751E+00 19264   0.194E+01-0.674E-02
CGA:   8    -0.417437376865E+03   -0.40610E-01   -0.40814E-01 19264   0.196E+01-0.750E-02
CGA:   9    -0.417528632200E+03   -0.91255E-01   -0.91224E-01 19264   0.218E+01 0.735E-02
CGA:  10    -0.417627917677E+03   -0.99285E-01   -0.99294E-01 19264   0.165E+01-0.445E-02
CGA:  11    -0.417652376792E+03   -0.24459E-01   -0.26736E-01 19264   0.411E+00-0.100E+00
CGA:  12    -0.417666117295E+03   -0.13741E-01   -0.13737E-01 19264   0.274E+00-0.932E-04
CGA:  13    -0.417694182455E+03   -0.28065E-01   -0.27731E-01 19264   0.459E+00 0.410E-02
CGA:  14    -0.417706262284E+03   -0.12080E-01   -0.12371E-01 19264   0.980E-01-0.239E-02
CGA:  15    -0.417710067068E+03   -0.38048E-02   -0.38057E-02 19264   0.462E-01 0.270E-04
CGA:  16    -0.417713629185E+03   -0.35621E-02   -0.34324E-02 19264   0.842E-01 0.378E-02
CGA:  17    -0.417716666505E+03   -0.30373E-02   -0.29961E-02 19264   0.621E-01-0.437E-03
CGA:  18    -0.417718958628E+03   -0.22921E-02   -0.23100E-02 19264   0.196E-01 0.579E-03
CGA:  19    -0.417719691885E+03   -0.73326E-03   -0.73356E-03 19264   0.106E-01 0.524E-05
CGA:  20    -0.417720199669E+03   -0.50778E-03   -0.50774E-03 19264   0.131E-01 0.438E-06
CGA:  21    -0.417721116045E+03   -0.91638E-03   -0.91142E-03 19264   0.846E-02 0.158E-03
CGA:  22    -0.417721401877E+03   -0.28583E-03   -0.28564E-03 19264   0.493E-02-0.925E-05
CGA:  23    -0.417721530636E+03   -0.12876E-03   -0.12920E-03 19264   0.211E-02-0.505E-05
CGA:  24    -0.417721791438E+03   -0.26080E-03   -0.25894E-03 19264   0.342E-02 0.218E-04
CGA:  25    -0.417721894726E+03   -0.10329E-03   -0.10349E-03 19264   0.158E-02 0.663E-05
CGA:  26    -0.417721969908E+03   -0.75182E-04   -0.75179E-04 19264   0.665E-03 0.952E-05
CGA:  27    -0.417722003786E+03   -0.33878E-04   -0.33857E-04 19264   0.917E-03 0.454E-05
CGA:  28    -0.417722046187E+03   -0.42401E-04   -0.42418E-04 19264   0.106E-02 0.904E-05
CGA:  29    -0.417722092230E+03   -0.46043E-04   -0.46087E-04 19264   0.318E-03 0.882E-05
CGA:  30    -0.417722106076E+03   -0.13846E-04   -0.13856E-04 19264   0.291E-03 0.134E-05
CGA:  31    -0.417722121441E+03   -0.15365E-04   -0.15354E-04 19264   0.331E-03 0.914E-06
SDA:  32    -0.417722150878E+03   -0.29437E-04   -0.29324E-04 19264   0.230E-03 0.178E-05
CGA:  33    -0.417722156192E+03   -0.53136E-05   -0.53164E-05 19264   0.103E-03-0.795E-06
   6 F= -.41772216E+03 E0= -.41768956E+03  d E =-.725301E-01  mag=    34.0000
       N       E                     dE             d eps       ncg     rms          ort
SDA:   1    -0.415079862523E+03    0.26423E+01    0.00000E+00 19264   0.576E+02 0.000E+00
CGA:   2    -0.415897507057E+03   -0.81764E+00   -0.84685E+00 19264   0.608E+01-0.390E+01
CGA:   3    -0.416817963125E+03   -0.92046E+00   -0.92410E+00 19264   0.211E+02-0.394E-01
CGA:   4    -0.417309561394E+03   -0.49160E+00   -0.48853E+00 19264   0.281E+01-0.435E-01
CGA:   5    -0.417421790898E+03   -0.11223E+00   -0.11215E+00 19264   0.233E+01-0.211E-02
CGA:   6    -0.417560226547E+03   -0.13844E+00   -0.13842E+00 19264   0.329E+01 0.207E-02
CGA:   7    -0.417669998454E+03   -0.10977E+00   -0.10923E+00 19264   0.564E+00-0.171E-03
CGA:   8    -0.417687991421E+03   -0.17993E-01   -0.18007E-01 19264   0.343E+00 0.460E-04
CGA:   9    -0.417701259136E+03   -0.13268E-01   -0.13261E-01 19264   0.206E+00-0.116E-03
CGA:  10    -0.417713331135E+03   -0.12072E-01   -0.12072E-01 19264   0.210E+00 0.113E-03
CGA:  11    -0.417719892526E+03   -0.65614E-02   -0.65643E-02 19264   0.832E-01 0.309E-04
CGA:  12    -0.417722625178E+03   -0.27327E-02   -0.27350E-02 19264   0.249E-01 0.270E-04
CGA:  13    -0.417723875157E+03   -0.12500E-02   -0.12499E-02 19264   0.411E-01 0.162E-04
CGA:  14    -0.417726288381E+03   -0.24132E-02   -0.24116E-02 19264   0.225E-01 0.107E-03
CGA:  15    -0.417726939552E+03   -0.65117E-03   -0.65174E-03 19264   0.664E-02-0.555E-06
CGA:  16    -0.417727133727E+03   -0.19418E-03   -0.19431E-03 19264   0.350E-02-0.144E-05
CGA:  17    -0.417727502244E+03   -0.36852E-03   -0.36860E-03 19264   0.878E-02-0.115E-05
CGA:  18    -0.417727786810E+03   -0.28457E-03   -0.28489E-03 19264   0.296E-02-0.200E-05
CGA:  19    -0.417727888326E+03   -0.10152E-03   -0.10152E-03 19264   0.119E-02-0.101E-05
CGA:  20    -0.417727939589E+03   -0.51263E-04   -0.51265E-04 19264   0.122E-02-0.637E-07
CGA:  21    -0.417728003244E+03   -0.63655E-04   -0.63654E-04 19264   0.127E-02-0.222E-06
CGA:  22    -0.417728084752E+03   -0.81508E-04   -0.81456E-04 19264   0.117E-02 0.297E-05
CGA:  23    -0.417728112352E+03   -0.27599E-04   -0.27623E-04 19264   0.215E-03 0.814E-06
CGA:  24    -0.417728125603E+03   -0.13252E-04   -0.13220E-04 19264   0.349E-03 0.202E-05
CGA:  25    -0.417728143679E+03   -0.18075E-04   -0.18061E-04 19264   0.393E-03 0.375E-05
CGA:  26    -0.417728162085E+03   -0.18406E-04   -0.18414E-04 19264   0.125E-03 0.454E-05
CGA:  27    -0.417728165226E+03   -0.31412E-05   -0.31614E-05 19264   0.545E-04 0.644E-06
   7 F= -.41772817E+03 E0= -.41769563E+03  d E =-.600903E-02  mag=    34.0000
       N       E                     dE             d eps       ncg     rms          ort
SDA:   1    -0.401190104531E+03    0.16538E+02    0.00000E+00 19264   0.457E+02 0.000E+00
CGA:   2    -0.407472189109E+03   -0.62821E+01   -0.61938E+01 19264   0.192E+03 0.176E+01
CGA:   3    -0.413957621858E+03   -0.64854E+01   -0.60637E+01 19264   0.202E+02 0.828E+01
CGA:   4    -0.414862158995E+03   -0.90454E+00   -0.90256E+00 19264   0.277E+02-0.129E+00
CGA:   5    -0.416221919585E+03   -0.13598E+01   -0.13599E+01 19264   0.254E+02 0.363E-01
CGA:   6    -0.417136031470E+03   -0.91411E+00   -0.90778E+00 19264   0.485E+01-0.627E-02
CGA:   7    -0.417364731176E+03   -0.22870E+00   -0.22980E+00 19264   0.253E+01 0.171E+00
CGA:   8    -0.417445529777E+03   -0.80799E-01   -0.80602E-01 19264   0.207E+01 0.124E-02
CGA:   9    -0.417580752286E+03   -0.13522E+00   -0.13459E+00 19264   0.147E+01 0.295E-01
CGA:  10    -0.417622930176E+03   -0.42178E-01   -0.42426E-01 19264   0.676E+00-0.273E-02
CGA:  11    -0.417640190527E+03   -0.17260E-01   -0.17369E-01 19264   0.214E+00-0.162E-02
CGA:  12    -0.417659179766E+03   -0.18989E-01   -0.18869E-01 19264   0.326E+00 0.286E-02
CGA:  13    -0.417676303897E+03   -0.17124E-01   -0.17120E-01 19264   0.167E+00 0.859E-03
CGA:  14    -0.417679803338E+03   -0.34994E-02   -0.35208E-02 19264   0.356E-01-0.640E-03
CGA:  15    -0.417682017580E+03   -0.22142E-02   -0.22080E-02 19264   0.557E-01 0.329E-03
CGA:  16    -0.417684614573E+03   -0.25970E-02   -0.25964E-02 19264   0.618E-01-0.933E-04
CGA:  17    -0.417687100133E+03   -0.24856E-02   -0.24917E-02 19264   0.180E-01 0.208E-03
CGA:  18    -0.417687984668E+03   -0.88454E-03   -0.88453E-03 19264   0.833E-02 0.666E-05
CGA:  19    -0.417688348349E+03   -0.36368E-03   -0.36387E-03 19264   0.118E-01 0.163E-04
CGA:  20    -0.417689084818E+03   -0.73647E-03   -0.73617E-03 19264   0.138E-01 0.199E-04
CGA:  21    -0.417689665983E+03   -0.58117E-03   -0.58147E-03 19264   0.547E-02 0.248E-04
CGA:  22    -0.417689803350E+03   -0.13737E-03   -0.13758E-03 19264   0.208E-02 0.136E-05
CGA:  23    -0.417689964288E+03   -0.16094E-03   -0.16061E-03 19264   0.295E-02 0.986E-05
CGA:  24    -0.417690194109E+03   -0.22982E-03   -0.22924E-03 19264   0.269E-02 0.194E-04
CGA:  25    -0.417690249792E+03   -0.55683E-04   -0.55835E-04 19264   0.639E-03 0.334E-05
CGA:  26    -0.417690288831E+03   -0.39039E-04   -0.38973E-04 19264   0.594E-03 0.423E-05
CGA:  27    -0.417690319092E+03   -0.30261E-04   -0.30255E-04 19264   0.843E-03 0.446E-05
CGA:  28    -0.417690364621E+03   -0.45529E-04   -0.45492E-04 19264   0.465E-03 0.829E-05
CGA:  29    -0.417690382822E+03   -0.18201E-04   -0.18246E-04 19264   0.181E-03 0.337E-05
CGA:  30    -0.417690388745E+03   -0.59237E-05   -0.59540E-05 19264   0.165E-03 0.110E-05
CGA:  31    -0.417690401320E+03   -0.12574E-04   -0.12458E-04 19264   0.225E-03 0.373E-05
SDA:  32    -0.417690415556E+03   -0.14236E-04   -0.14174E-04 19264   0.144E-03 0.472E-05
CGA:  33    -0.417690418127E+03   -0.25715E-05   -0.25696E-05 19264   0.353E-04-0.557E-06
   8 F= -.41769042E+03 E0= -.41765762E+03  d E =0.377471E-01  mag=    34.0000
       N       E                     dE             d eps       ncg     rms          ort
SDA:   1    -0.413931672057E+03    0.37587E+01    0.00000E+00 19264   0.111E+02 0.000E+00
CGA:   2    -0.415245406582E+03   -0.13137E+01   -0.12955E+01 19264   0.348E+02 0.334E+00
CGA:   3    -0.416455335613E+03   -0.12099E+01   -0.11944E+01 19264   0.163E+02-0.613E-02
CGA:   4    -0.416928008479E+03   -0.47267E+00   -0.47285E+00 19264   0.476E+01-0.812E-01
CGA:   5    -0.417213722125E+03   -0.28571E+00   -0.28673E+00 19264   0.682E+01-0.704E-01
CGA:   6    -0.417453877230E+03   -0.24016E+00   -0.23862E+00 19264   0.268E+01-0.372E-02
CGA:   7    -0.417599816493E+03   -0.14594E+00   -0.14654E+00 19264   0.744E+00-0.924E-01
CGA:   8    -0.417628466671E+03   -0.28650E-01   -0.28513E-01 19264   0.489E+00-0.224E-02
CGA:   9    -0.417649755399E+03   -0.21289E-01   -0.21295E-01 19264   0.450E+00 0.512E-03
CGA:  10    -0.417673217072E+03   -0.23462E-01   -0.23465E-01 19264   0.171E+00-0.908E-03
CGA:  11    -0.417677283364E+03   -0.40663E-02   -0.40632E-02 19264   0.752E-01 0.125E-03
CGA:  12    -0.417680687663E+03   -0.34043E-02   -0.34043E-02 19264   0.611E-01 0.671E-04
CGA:  13    -0.417685427688E+03   -0.47400E-02   -0.47365E-02 19264   0.616E-01 0.129E-03
CGA:  14    -0.417687059150E+03   -0.16315E-02   -0.16344E-02 19264   0.167E-01-0.467E-04
CGA:  15    -0.417687896146E+03   -0.83700E-03   -0.83696E-03 19264   0.855E-02 0.165E-04
CGA:  16    -0.417688440479E+03   -0.54433E-03   -0.54426E-03 19264   0.104E-01 0.317E-05
CGA:  17    -0.417688966050E+03   -0.52557E-03   -0.52557E-03 19264   0.102E-01 0.440E-05
CGA:  18    -0.417689341531E+03   -0.37548E-03   -0.37560E-03 19264   0.200E-02 0.339E-05
CGA:  19    -0.417689422433E+03   -0.80902E-04   -0.80925E-04 19264   0.270E-02 0.227E-05
CGA:  20    -0.417689576893E+03   -0.15446E-03   -0.15439E-03 19264   0.274E-02 0.749E-05
CGA:  21    -0.417689721176E+03   -0.14428E-03   -0.14426E-03 19264   0.172E-02 0.835E-05
CGA:  22    -0.417689773541E+03   -0.52364E-04   -0.52436E-04 19264   0.711E-03 0.247E-05
CGA:  23    -0.417689812312E+03   -0.38772E-04   -0.38760E-04 19264   0.563E-03 0.134E-05
CGA:  24    -0.417689858986E+03   -0.46674E-04   -0.46574E-04 19264   0.740E-03 0.225E-05
CGA:  25    -0.417689887972E+03   -0.28986E-04   -0.29002E-04 19264   0.488E-03 0.134E-05
CGA:  26    -0.417689904936E+03   -0.16964E-04   -0.16977E-04 19264   0.123E-03 0.635E-06
CGA:  27    -0.417689909853E+03   -0.49173E-05   -0.49189E-05 19264   0.180E-03-0.117E-06
CGA:  28    -0.417689923383E+03   -0.13530E-04   -0.13508E-04 19264   0.142E-03 0.595E-06
CGA:  29    -0.417689928541E+03   -0.51583E-05   -0.51620E-05 19264   0.575E-04 0.630E-07
   9 F= -.41768993E+03 E0= -.41765739E+03  d E =0.489586E-03  mag=    34.0000
       N       E                     dE             d eps       ncg     rms          ort
SDA:   1    -0.415762055548E+03    0.19279E+01    0.00000E+00 19264   0.619E+01 0.000E+00
CGA:   2    -0.416193756177E+03   -0.43170E+00   -0.43122E+00 19264   0.184E+02 0.235E-01
CGA:   3    -0.417087404852E+03   -0.89365E+00   -0.89343E+00 19264   0.708E+01-0.735E-01
CGA:   4    -0.417323375914E+03   -0.23597E+00   -0.23348E+00 19264   0.307E+01-0.238E-02
CGA:   5    -0.417433912134E+03   -0.11054E+00   -0.11121E+00 19264   0.257E+01 0.903E-02
CGA:   6    -0.417586481436E+03   -0.15257E+00   -0.15235E+00 19264   0.152E+01 0.142E-01
CGA:   7    -0.417658460432E+03   -0.71979E-01   -0.71946E-01 19264   0.777E+00-0.865E-02
CGA:   8    -0.417675726725E+03   -0.17266E-01   -0.17255E-01 19264   0.263E+00 0.366E-03
CGA:   9    -0.417688210661E+03   -0.12484E-01   -0.12484E-01 19264   0.157E+00-0.129E-02
CGA:  10    -0.417703275719E+03   -0.15065E-01   -0.15083E-01 19264   0.107E+00-0.350E-03
CGA:  11    -0.417705700158E+03   -0.24244E-02   -0.24223E-02 19264   0.389E-01 0.752E-04
CGA:  12    -0.417707186816E+03   -0.14867E-02   -0.14870E-02 19264   0.246E-01 0.902E-05
CGA:  13    -0.417710045155E+03   -0.28583E-02   -0.28563E-02 19264   0.275E-01 0.407E-04
CGA:  14    -0.417710656045E+03   -0.61089E-03   -0.61128E-03 19264   0.765E-02-0.189E-04
CGA:  15    -0.417711020954E+03   -0.36491E-03   -0.36490E-03 19264   0.444E-02-0.258E-05
CGA:  16    -0.417711219696E+03   -0.19874E-03   -0.19875E-03 19264   0.551E-02 0.153E-05
CGA:  17    -0.417711495886E+03   -0.27619E-03   -0.27619E-03 19264   0.517E-02 0.422E-05
CGA:  18    -0.417711744754E+03   -0.24887E-03   -0.24887E-03 19264   0.873E-03 0.404E-05
CGA:  19    -0.417711780068E+03   -0.35315E-04   -0.35326E-04 19264   0.118E-02 0.808E-06
CGA:  20    -0.417711847170E+03   -0.67101E-04   -0.67075E-04 19264   0.128E-02 0.316E-05
CGA:  21    -0.417711926913E+03   -0.79743E-04   -0.79701E-04 19264   0.545E-03 0.290E-05
CGA:  22    -0.417711944751E+03   -0.17838E-04   -0.17831E-04 19264   0.333E-03-0.605E-06
CGA:  23    -0.417711957404E+03   -0.12653E-04   -0.12642E-04 19264   0.249E-03-0.134E-05
CGA:  24    -0.417711976815E+03   -0.19411E-04   -0.19503E-04 19264   0.332E-03-0.319E-05
CGA:  25    -0.417711988336E+03   -0.11522E-04   -0.11491E-04 19264   0.229E-03-0.180E-05
CGA:  26    -0.417711996973E+03   -0.86371E-05   -0.86207E-05 19264   0.351E-04-0.180E-05
  10 F= -.41771200E+03 E0= -.41767970E+03  d E =-.220684E-01  mag=    34.0000
       N       E                     dE             d eps       ncg     rms          ort
SDA:   1    -0.417042693050E+03    0.66930E+00    0.00000E+00 19264   0.200E+02 0.000E+00
CGA:   2    -0.417310567534E+03   -0.26787E+00   -0.27716E+00 19264   0.132E+01-0.858E+00
CGA:   3    -0.417514987328E+03   -0.20442E+00   -0.20438E+00 19264   0.409E+01 0.160E-02
CGA:   4    -0.417602803445E+03   -0.87816E-01   -0.87456E-01 19264   0.566E+00 0.624E-02
CGA:   5    -0.417640038768E+03   -0.37235E-01   -0.37211E-01 19264   0.882E+00 0.153E-02
CGA:   6    -0.417681432156E+03   -0.41393E-01   -0.41390E-01 19264   0.656E+00-0.785E-04
CGA:   7    -0.417698906372E+03   -0.17474E-01   -0.17488E-01 19264   0.127E+00-0.235E-03
CGA:   8    -0.417704917050E+03   -0.60107E-02   -0.60102E-02 19264   0.989E-01-0.217E-04
CGA:   9    -0.417708290337E+03   -0.33733E-02   -0.33734E-02 19264   0.724E-01 0.524E-04
CGA:  10    -0.417712431492E+03   -0.41412E-02   -0.41407E-02 19264   0.323E-01 0.497E-04
CGA:  11    -0.417713368769E+03   -0.93728E-03   -0.93727E-03 19264   0.157E-01 0.635E-05
CGA:  12    -0.417713936942E+03   -0.56817E-03   -0.56853E-03 19264   0.771E-02 0.566E-05
CGA:  13    -0.417714536754E+03   -0.59981E-03   -0.59981E-03 19264   0.140E-01 0.145E-05
CGA:  14    -0.417714993898E+03   -0.45714E-03   -0.45723E-03 19264   0.493E-02-0.196E-05
CGA:  15    -0.417715150953E+03   -0.15706E-03   -0.15709E-03 19264   0.121E-02-0.175E-07
CGA:  16    -0.417715209586E+03   -0.58633E-04   -0.58633E-04 19264   0.211E-02 0.925E-06
CGA:  17    -0.417715361401E+03   -0.15181E-03   -0.15173E-03 19264   0.129E-02 0.463E-05
CGA:  18    -0.417715399532E+03   -0.38131E-04   -0.38161E-04 19264   0.504E-03 0.149E-05
CGA:  19    -0.417715417550E+03   -0.18018E-04   -0.18034E-04 19264   0.351E-03 0.137E-05
CGA:  20    -0.417715441319E+03   -0.23769E-04   -0.23727E-04 19264   0.403E-03 0.227E-05
CGA:  21    -0.417715459913E+03   -0.18593E-04   -0.18600E-04 19264   0.448E-03 0.240E-05
CGA:  22    -0.417715477094E+03   -0.17181E-04   -0.17200E-04 19264   0.857E-04 0.179E-05
CGA:  23    -0.417715480291E+03   -0.31971E-05   -0.31975E-05 19264   0.901E-04-0.392E-08
  11 F= -.41771548E+03 E0= -.41768317E+03  d E =-.348332E-02  mag=    34.0000
       N       E                     dE             d eps       ncg     rms          ort
SDA:   1    -0.417243083999E+03    0.47239E+00    0.00000E+00 19264   0.221E+01 0.000E+00
CGA:   2    -0.417303091048E+03   -0.60007E-01   -0.60152E-01 19264   0.218E+01-0.294E-02
CGA:   3    -0.417529558792E+03   -0.22647E+00   -0.22670E+00 19264   0.273E+01-0.422E-02
CGA:   4    -0.417626750245E+03   -0.97191E-01   -0.96733E-01 19264   0.727E+00-0.248E-02
CGA:   5    -0.417649694382E+03   -0.22944E-01   -0.22866E-01 19264   0.478E+00 0.337E-03
CGA:   6    -0.417681248646E+03   -0.31554E-01   -0.31577E-01 19264   0.416E+00-0.789E-03
CGA:   7    -0.417702489938E+03   -0.21241E-01   -0.21241E-01 19264   0.602E-01 0.172E-03
CGA:   8    -0.417706171449E+03   -0.36815E-02   -0.36788E-02 19264   0.474E-01 0.187E-03
CGA:   9    -0.417707790214E+03   -0.16188E-02   -0.16194E-02 19264   0.489E-01 0.155E-04
CGA:  10    -0.417710237357E+03   -0.24471E-02   -0.24471E-02 19264   0.193E-01 0.188E-04
CGA:  11    -0.417711019753E+03   -0.78240E-03   -0.78182E-03 19264   0.609E-02-0.161E-04
CGA:  12    -0.417711254852E+03   -0.23510E-03   -0.23510E-03 19264   0.655E-02-0.671E-06
CGA:  13    -0.417711730318E+03   -0.47547E-03   -0.47548E-03 19264   0.505E-02-0.414E-06
CGA:  14    -0.417711933213E+03   -0.20289E-03   -0.20292E-03 19264   0.127E-02-0.399E-06
CGA:  15    -0.417711963804E+03   -0.30591E-04   -0.30610E-04 19264   0.757E-03-0.746E-06
CGA:  16    -0.417712031815E+03   -0.68011E-04   -0.67953E-04 19264   0.118E-02 0.106E-05
CGA:  17    -0.417712100811E+03   -0.68996E-04   -0.68965E-04 19264   0.382E-03 0.246E-05
CGA:  18    -0.417712111438E+03   -0.10627E-04   -0.10639E-04 19264   0.228E-03 0.449E-07
CGA:  19    -0.417712124530E+03   -0.13093E-04   -0.13084E-04 19264   0.193E-03 0.578E-06
CGA:  20    -0.417712136017E+03   -0.11487E-04   -0.11477E-04 19264   0.370E-03 0.621E-06
CGA:  21    -0.417712151415E+03   -0.15398E-04   -0.15413E-04 19264   0.123E-03 0.101E-05
CGA:  22    -0.417712155889E+03   -0.44746E-05   -0.44790E-05 19264   0.352E-04-0.506E-08
  12 F= -.41771216E+03 E0= -.41767986E+03  d E =0.332440E-02  mag=    34.0000
       N       E                     dE             d eps       ncg     rms          ort
SDA:   1    -0.412751439762E+03    0.49607E+01    0.00000E+00 19264   0.168E+02 0.000E+00
CGA:   2    -0.413442491315E+03   -0.69105E+00   -0.69632E+00 19264   0.324E+02 0.101E+00
CGA:   3    -0.416510783192E+03   -0.30683E+01   -0.31335E+01 19264   0.161E+02-0.225E+01
CGA:   4    -0.416881737443E+03   -0.37095E+00   -0.36887E+00 19264   0.672E+01 0.251E-01
CGA:   5    -0.417151252440E+03   -0.26951E+00   -0.26817E+00 19264   0.553E+01-0.186E-01
CGA:   6    -0.417427097165E+03   -0.27584E+00   -0.27597E+00 19264   0.639E+01 0.403E-01
CGA:   7    -0.417585602543E+03   -0.15851E+00   -0.15630E+00 19264   0.142E+01 0.458E-01
CGA:   8    -0.417631412393E+03   -0.45810E-01   -0.45738E-01 19264   0.464E+00 0.672E-03
CGA:   9    -0.417650614781E+03   -0.19202E-01   -0.19209E-01 19264   0.705E+00 0.315E-03
CGA:  10    -0.417681925778E+03   -0.31311E-01   -0.31493E-01 19264   0.302E+00 0.180E-01
CGA:  11    -0.417698244731E+03   -0.16319E-01   -0.16330E-01 19264   0.177E+00-0.174E-02
CGA:  12    -0.417702209906E+03   -0.39652E-02   -0.40528E-02 19264   0.647E-01-0.198E-02
CGA:  13    -0.417705516562E+03   -0.33067E-02   -0.33087E-02 19264   0.720E-01-0.287E-03
CGA:  14    -0.417709755239E+03   -0.42387E-02   -0.42019E-02 19264   0.703E-01 0.225E-02
CGA:  15    -0.417711508014E+03   -0.17528E-02   -0.17479E-02 19264   0.104E-01 0.228E-04
CGA:  16    -0.417711999356E+03   -0.49134E-03   -0.49130E-03 19264   0.116E-01 0.509E-04
CGA:  17    -0.417712561772E+03   -0.56242E-03   -0.56254E-03 19264   0.150E-01-0.637E-04
CGA:  18    -0.417713245595E+03   -0.68382E-03   -0.68429E-03 19264   0.497E-02 0.155E-03
CGA:  19    -0.417713452136E+03   -0.20654E-03   -0.20653E-03 19264   0.361E-02-0.273E-05
CGA:  20    -0.417713569681E+03   -0.11755E-03   -0.11783E-03 19264   0.172E-02 0.526E-06
CGA:  21    -0.417713708279E+03   -0.13860E-03   -0.13866E-03 19264   0.358E-02-0.456E-05
CGA:  22    -0.417713844201E+03   -0.13592E-03   -0.13639E-03 19264   0.234E-02 0.126E-04
CGA:  23    -0.417713931938E+03   -0.87737E-04   -0.87738E-04 19264   0.464E-03 0.269E-06
CGA:  24    -0.417713956651E+03   -0.24714E-04   -0.24703E-04 19264   0.903E-03-0.276E-06
CGA:  25    -0.417714015693E+03   -0.59041E-04   -0.59060E-04 19264   0.622E-03-0.260E-05
CGA:  26    -0.417714037929E+03   -0.22237E-04   -0.22261E-04 19264   0.461E-03-0.154E-06
CGA:  27    -0.417714053662E+03   -0.15733E-04   -0.15750E-04 19264   0.134E-03 0.262E-06
CGA:  28    -0.417714060219E+03   -0.65570E-05   -0.65540E-05 19264   0.121E-03 0.476E-06
  13 F= -.41771406E+03 E0= -.41768189E+03  d E =-.190433E-02  mag=    34.0000
       N       E                     dE             d eps       ncg     rms          ort
SDA:   1    -0.409384839245E+03    0.83292E+01    0.00000E+00 19264   0.231E+02 0.000E+00
CGA:   2    -0.412367082759E+03   -0.29822E+01   -0.29983E+01 19264   0.983E+02-0.176E-01
CGA:   3    -0.415722389506E+03   -0.33553E+01   -0.32827E+01 19264   0.159E+02 0.619E+00
CGA:   4    -0.416342864920E+03   -0.62048E+00   -0.62284E+00 19264   0.946E+01 0.221E-01
CGA:   5    -0.417163923998E+03   -0.82106E+00   -0.82296E+00 19264   0.174E+02-0.406E-01
CGA:   6    -0.417520768822E+03   -0.35684E+00   -0.34543E+00 19264   0.174E+01 0.362E+00
CGA:   7    -0.417600843917E+03   -0.80075E-01   -0.80069E-01 19264   0.101E+01 0.718E-04
CGA:   8    -0.417683487220E+03   -0.82643E-01   -0.82611E-01 19264   0.168E+01 0.113E-02
CGA:   9    -0.417723368043E+03   -0.39881E-01   -0.40098E-01 19264   0.444E+00-0.491E-02
CGA:  10    -0.417738652911E+03   -0.15285E-01   -0.15350E-01 19264   0.180E+00 0.392E-03
CGA:  11    -0.417745704430E+03   -0.70515E-02   -0.70475E-02 19264   0.220E+00-0.674E-04
CGA:  12    -0.417758187844E+03   -0.12483E-01   -0.12469E-01 19264   0.115E+00 0.116E-02
CGA:  13    -0.417764113108E+03   -0.59253E-02   -0.59254E-02 19264   0.371E-01-0.608E-05
CGA:  14    -0.417765271729E+03   -0.11586E-02   -0.11594E-02 19264   0.282E-01 0.258E-04
CGA:  15    -0.417766350077E+03   -0.10783E-02   -0.10790E-02 19264   0.244E-01 0.271E-04
CGA:  16    -0.417768908101E+03   -0.25580E-02   -0.25523E-02 19264   0.929E-02 0.998E-04
CGA:  17    -0.417769274188E+03   -0.36609E-03   -0.36622E-03 19264   0.418E-02 0.582E-05
CGA:  18    -0.417769588523E+03   -0.31434E-03   -0.31404E-03 19264   0.113E-01 0.920E-05
CGA:  19    -0.417770165196E+03   -0.57667E-03   -0.57671E-03 19264   0.639E-02 0.323E-04
CGA:  20    -0.417770411265E+03   -0.24607E-03   -0.24620E-03 19264   0.322E-02 0.584E-05
CGA:  21    -0.417770495901E+03   -0.84636E-04   -0.84668E-04 19264   0.182E-02 0.103E-05
CGA:  22    -0.417770668487E+03   -0.17259E-03   -0.17252E-03 19264   0.226E-02 0.101E-05
CGA:  23    -0.417770869748E+03   -0.20126E-03   -0.20104E-03 19264   0.113E-02 0.545E-05
CGA:  24    -0.417770917655E+03   -0.47907E-04   -0.47936E-04 19264   0.392E-03 0.184E-05
CGA:  25    -0.417770957177E+03   -0.39523E-04   -0.39196E-04 19264   0.124E-02 0.672E-05
CGA:  26    -0.417771004504E+03   -0.47327E-04   -0.47491E-04 19264   0.678E-03 0.873E-05
CGA:  27    -0.417771028918E+03   -0.24414E-04   -0.24503E-04 19264   0.212E-03 0.462E-05
CGA:  28    -0.417771035796E+03   -0.68782E-05   -0.69021E-05 19264   0.197E-03 0.811E-06
CGA:  29    -0.417771055427E+03   -0.19632E-04   -0.19519E-04 19264   0.296E-03 0.216E-05
CGA:  30    -0.417771072942E+03   -0.17515E-04   -0.17510E-04 19264   0.926E-04 0.113E-05
CGA:  31    -0.417771077407E+03   -0.44649E-05   -0.44661E-05 19264   0.108E-03-0.610E-07
  14 F= -.41777108E+03 E0= -.41773895E+03  d E =-.570172E-01  mag=    34.0000
       N       E                     dE             d eps       ncg     rms          ort
SDA:   1    -0.384495302920E+03    0.33276E+02    0.00000E+00 19264   0.501E+03 0.000E+00
CGA:   2    -0.393846125661E+03   -0.93508E+01   -0.98019E+01 19264   0.119E+03-0.487E+02
CGA:   3    -0.400695438837E+03   -0.68493E+01   -0.72519E+01 19264   0.209E+03-0.190E+02
CGA:   4    -0.409795339772E+03   -0.90999E+01   -0.90377E+01 19264   0.109E+03-0.209E+02
CGA:   5    -0.411561569980E+03   -0.17662E+01   -0.16212E+01 19264   0.296E+02 0.337E+01
CGA:   6    -0.413829466549E+03   -0.22679E+01   -0.22605E+01 19264   0.541E+02 0.299E+00
CGA:   7    -0.415563033375E+03   -0.17336E+01   -0.17365E+01 19264   0.462E+02-0.226E+00
CGA:   8    -0.416659762759E+03   -0.10967E+01   -0.10189E+01 19264   0.664E+01 0.173E+01
CGA:   9    -0.416834832454E+03   -0.17507E+00   -0.17388E+00 19264   0.738E+01 0.149E-01
CGA:  10    -0.417064680466E+03   -0.22985E+00   -0.23224E+00 19264   0.547E+01-0.128E-01
CGA:  11    -0.417334157086E+03   -0.26948E+00   -0.26933E+00 19264   0.575E+01 0.468E-01
CGA:  12    -0.417449819788E+03   -0.11566E+00   -0.11906E+00 19264   0.138E+01-0.110E+00
CGA:  13    -0.417502095388E+03   -0.52276E-01   -0.52723E-01 19264   0.839E+00 0.185E-01
CGA:  14    -0.417527513844E+03   -0.25418E-01   -0.25964E-01 19264   0.122E+01-0.611E-03
CGA:  15    -0.417585966028E+03   -0.58452E-01   -0.58306E-01 19264   0.891E+00 0.319E-01
CGA:  16    -0.417619772342E+03   -0.33806E-01   -0.34132E-01 19264   0.325E+00 0.122E-01
CGA:  17    -0.417627177175E+03   -0.74048E-02   -0.74899E-02 19264   0.113E+00-0.164E-02
CGA:  18    -0.417634631478E+03   -0.74543E-02   -0.72924E-02 19264   0.143E+00 0.625E-02
CGA:  19    -0.417646278233E+03   -0.11647E-01   -0.12000E-01 19264   0.158E+00-0.931E-02
CGA:  20    -0.417649756133E+03   -0.34779E-02   -0.36409E-02 19264   0.602E-01-0.248E-02
CGA:  21    -0.417651551649E+03   -0.17955E-02   -0.18088E-02 19264   0.211E-01 0.276E-04
CGA:  22    -0.417653319934E+03   -0.17683E-02   -0.17708E-02 19264   0.281E-01-0.648E-04
CGA:  23    -0.417655420431E+03   -0.21005E-02   -0.20755E-02 19264   0.363E-01 0.765E-03
CGA:  24    -0.417656342345E+03   -0.92191E-03   -0.92384E-03 19264   0.112E-01-0.409E-04
CGA:  25    -0.417656743283E+03   -0.40094E-03   -0.40143E-03 19264   0.501E-02 0.639E-05
CGA:  26    -0.417657056916E+03   -0.31363E-03   -0.31341E-03 19264   0.903E-02 0.790E-05
CGA:  27    -0.417657512348E+03   -0.45543E-03   -0.45537E-03 19264   0.704E-02 0.564E-05
CGA:  28    -0.417657833307E+03   -0.32096E-03   -0.32099E-03 19264   0.185E-02 0.796E-05
CGA:  29    -0.417657923618E+03   -0.90311E-04   -0.90309E-04 19264   0.130E-02-0.159E-05
CGA:  30    -0.417658045328E+03   -0.12171E-03   -0.12173E-03 19264   0.300E-02-0.233E-05
CGA:  31    -0.417658150970E+03   -0.10564E-03   -0.10572E-03 19264   0.141E-02 0.818E-07
SDA:  32    -0.417658208094E+03   -0.57125E-04   -0.57134E-04 19264   0.640E-03-0.446E-06
CGA:  33    -0.417658221829E+03   -0.13735E-04   -0.13736E-04 19264   0.286E-03-0.121E-05
CGA:  34    -0.417658241987E+03   -0.20158E-04   -0.20148E-04 19264   0.612E-03-0.887E-06
CGA:  35    -0.417658302261E+03   -0.60274E-04   -0.60195E-04 19264   0.456E-03 0.324E-06
CGA:  36    -0.417658313924E+03   -0.11663E-04   -0.11663E-04 19264   0.196E-03-0.840E-06
CGA:  37    -0.417658325918E+03   -0.11994E-04   -0.11991E-04 19264   0.170E-03-0.842E-06
CGA:  38    -0.417658348749E+03   -0.22831E-04   -0.22872E-04 19264   0.213E-03-0.129E-05
CGA:  39    -0.417658359075E+03   -0.10326E-04   -0.10324E-04 19264   0.972E-04-0.101E-05
CGA:  40    -0.417658362342E+03   -0.32670E-05   -0.32648E-05 19264   0.830E-04-0.690E-06
  15 F= -.41765836E+03 E0= -.41762638E+03  d E =0.112715E+00  mag=    34.0000
       N       E                     dE             d eps       ncg     rms          ort
SDA:   1    -0.410588705773E+03    0.70697E+01    0.00000E+00 19264   0.368E+02 0.000E+00
CGA:   2    -0.412105158150E+03   -0.15165E+01   -0.15384E+01 19264   0.383E+02 0.178E+00
CGA:   3    -0.414403314560E+03   -0.22982E+01   -0.23022E+01 19264   0.508E+02-0.371E+00
CGA:   4    -0.415992446972E+03   -0.15891E+01   -0.15685E+01 19264   0.121E+02-0.249E-01
CGA:   5    -0.416413335407E+03   -0.42089E+00   -0.41707E+00 19264   0.144E+02-0.149E-02
CGA:   6    -0.417355718511E+03   -0.94238E+00   -0.93545E+00 19264   0.748E+01 0.357E+00
CGA:   7    -0.417676411476E+03   -0.32069E+00   -0.31758E+00 19264   0.423E+01-0.652E-01
CGA:   8    -0.417758926793E+03   -0.82515E-01   -0.82158E-01 19264   0.133E+01 0.956E-02
CGA:   9    -0.417834379608E+03   -0.75453E-01   -0.75314E-01 19264   0.110E+01 0.135E-01
CGA:  10    -0.417881013403E+03   -0.46634E-01   -0.46829E-01 19264   0.109E+01 0.730E-02
CGA:  11    -0.417910810570E+03   -0.29797E-01   -0.29933E-01 19264   0.334E+00-0.215E-02
CGA:  12    -0.417922211100E+03   -0.11401E-01   -0.11451E-01 19264   0.179E+00 0.292E-03
CGA:  13    -0.417927986546E+03   -0.57754E-02   -0.58436E-02 19264   0.150E+00 0.195E-03
CGA:  14    -0.417941888884E+03   -0.13902E-01   -0.14037E-01 19264   0.109E+00-0.279E-02
CGA:  15    -0.417944705674E+03   -0.28168E-02   -0.28402E-02 19264   0.535E-01-0.273E-03
CGA:  16    -0.417946301531E+03   -0.15959E-02   -0.15978E-02 19264   0.261E-01 0.113E-04
CGA:  17    -0.417948334978E+03   -0.20334E-02   -0.20351E-02 19264   0.332E-01-0.425E-04
CGA:  18    -0.417949656167E+03   -0.13212E-02   -0.13257E-02 19264   0.277E-01 0.162E-03
CGA:  19    -0.417950750367E+03   -0.10942E-02   -0.10949E-02 19264   0.744E-02 0.381E-04
CGA:  20    -0.417951021308E+03   -0.27094E-03   -0.27113E-03 19264   0.750E-02 0.661E-05
CGA:  21    -0.417951343236E+03   -0.32193E-03   -0.32203E-03 19264   0.673E-02 0.945E-05
CGA:  22    -0.417951892295E+03   -0.54906E-03   -0.54757E-03 19264   0.491E-02 0.373E-04
CGA:  23    -0.417952041722E+03   -0.14943E-03   -0.14963E-03 19264   0.200E-02-0.114E-05
CGA:  24    -0.417952121808E+03   -0.80086E-04   -0.80085E-04 19264   0.159E-02-0.103E-05
CGA:  25    -0.417952264061E+03   -0.14225E-03   -0.14211E-03 19264   0.298E-02 0.241E-05
CGA:  26    -0.417952344867E+03   -0.80806E-04   -0.80836E-04 19264   0.136E-02-0.108E-05
CGA:  27    -0.417952413295E+03   -0.68427E-04   -0.68428E-04 19264   0.444E-03-0.176E-05
CGA:  28    -0.417952433134E+03   -0.19840E-04   -0.19839E-04 19264   0.500E-03-0.129E-05
CGA:  29    -0.417952463677E+03   -0.30543E-04   -0.30550E-04 19264   0.592E-03-0.155E-05
CGA:  30    -0.417952499994E+03   -0.36318E-04   -0.36327E-04 19264   0.299E-03-0.191E-05
CGA:  31    -0.417952508915E+03   -0.89201E-05   -0.89137E-05 19264   0.168E-03-0.113E-05
  16 F= -.41795251E+03 E0= -.41792049E+03  d E =-.294147E+00  mag=    34.0000
       N       E                     dE             d eps       ncg     rms          ort
SDA:   1    -0.417064312663E+03    0.88819E+00    0.00000E+00 19264   0.407E+01 0.000E+00
CGA:   2    -0.417260185034E+03   -0.19587E+00   -0.19587E+00 19264   0.649E+01 0.569E-02
CGA:   3    -0.417571763185E+03   -0.31158E+00   -0.31158E+00 19264   0.474E+01 0.657E-02
CGA:   4    -0.417725597119E+03   -0.15383E+00   -0.15398E+00 19264   0.158E+01-0.265E-02
CGA:   5    -0.417797959737E+03   -0.72363E-01   -0.72323E-01 19264   0.210E+01-0.110E-01
CGA:   6    -0.417906238019E+03   -0.10828E+00   -0.10813E+00 19264   0.882E+00 0.191E-01
CGA:   7    -0.417961689724E+03   -0.55452E-01   -0.55510E-01 19264   0.264E+00-0.290E-02
CGA:   8    -0.417969957134E+03   -0.82674E-02   -0.82982E-02 19264   0.198E+00 0.184E-04
CGA:   9    -0.417977567097E+03   -0.76100E-02   -0.76088E-02 19264   0.127E+00 0.101E-05
CGA:  10    -0.417985137053E+03   -0.75700E-02   -0.75733E-02 19264   0.676E-01-0.174E-03
CGA:  11    -0.417986733944E+03   -0.15969E-02   -0.15977E-02 19264   0.203E-01-0.102E-04
CGA:  12    -0.417987856159E+03   -0.11222E-02   -0.11222E-02 19264   0.180E-01 0.843E-05
CGA:  13    -0.417989223670E+03   -0.13675E-02   -0.13669E-02 19264   0.280E-01 0.244E-04
CGA:  14    -0.417989862997E+03   -0.63933E-03   -0.64004E-03 19264   0.523E-02-0.103E-04
CGA:  15    -0.417990168276E+03   -0.30528E-03   -0.30521E-03 19264   0.366E-02 0.693E-05
CGA:  16    -0.417990343835E+03   -0.17556E-03   -0.17556E-03 19264   0.411E-02 0.717E-05
CGA:  17    -0.417990542263E+03   -0.19843E-03   -0.19842E-03 19264   0.379E-02 0.837E-05
CGA:  18    -0.417990696281E+03   -0.15402E-03   -0.15409E-03 19264   0.106E-02 0.891E-05
CGA:  19    -0.417990722543E+03   -0.26262E-04   -0.26286E-04 19264   0.614E-03 0.115E-05
CGA:  20    -0.417990798137E+03   -0.75593E-04   -0.75357E-04 19264   0.853E-03 0.287E-05
CGA:  21    -0.417990834839E+03   -0.36703E-04   -0.36713E-04 19264   0.536E-03 0.112E-05
CGA:  22    -0.417990850498E+03   -0.15659E-04   -0.15667E-04 19264   0.258E-03 0.342E-06
CGA:  23    -0.417990862881E+03   -0.12383E-04   -0.12383E-04 19264   0.194E-03-0.291E-06
CGA:  24    -0.417990873987E+03   -0.11106E-04   -0.11107E-04 19264   0.328E-03-0.310E-06
CGA:  25    -0.417990889689E+03   -0.15702E-04   -0.15702E-04 19264   0.138E-03-0.510E-06
CGA:  26    -0.417990895510E+03   -0.58210E-05   -0.58197E-05 19264   0.566E-04-0.368E-06
  17 F= -.41799090E+03 E0= -.41795881E+03  d E =-.383866E-01  mag=    34.0000
       N       E                     dE             d eps       ncg     rms          ort
SDA:   1    -0.417652255007E+03    0.33863E+00    0.00000E+00 19264   0.217E+02 0.000E+00
CGA:   2    -0.417930510146E+03   -0.27826E+00   -0.28606E+00 19264   0.331E+00-0.837E+00
CGA:   3    -0.417943636068E+03   -0.13126E-01   -0.13123E-01 19264   0.326E+00-0.157E-03
CGA:   4    -0.417963697769E+03   -0.20062E-01   -0.20057E-01 19264   0.524E+00 0.437E-03
CGA:   5    -0.417982281111E+03   -0.18583E-01   -0.18583E-01 19264   0.994E-01 0.101E-03
CGA:   6    -0.417986935078E+03   -0.46540E-02   -0.46541E-02 19264   0.115E+00-0.350E-04
CGA:   7    -0.417991727665E+03   -0.47926E-02   -0.47925E-02 19264   0.947E-01 0.178E-04
CGA:   8    -0.417996453508E+03   -0.47258E-02   -0.47257E-02 19264   0.220E-01 0.319E-04
CGA:   9    -0.417996952185E+03   -0.49868E-03   -0.49851E-03 19264   0.901E-02 0.889E-05
CGA:  10    -0.417997558203E+03   -0.60602E-03   -0.60592E-03 19264   0.960E-02 0.797E-05
CGA:  11    -0.417997979188E+03   -0.42098E-03   -0.42098E-03 19264   0.584E-02 0.210E-05
CGA:  12    -0.417998133178E+03   -0.15399E-03   -0.15402E-03 19264   0.186E-02 0.133E-05
CGA:  13    -0.417998221966E+03   -0.88789E-04   -0.88787E-04 19264   0.109E-02 0.821E-06
CGA:  14    -0.417998275091E+03   -0.53125E-04   -0.53126E-04 19264   0.174E-02 0.135E-06
CGA:  15    -0.417998369148E+03   -0.94057E-04   -0.94062E-04 19264   0.594E-03-0.378E-06
CGA:  16    -0.417998386849E+03   -0.17701E-04   -0.17702E-04 19264   0.255E-03 0.149E-06
CGA:  17    -0.417998396116E+03   -0.92671E-05   -0.92689E-05 19264   0.216E-03 0.220E-06
CGA:  18    -0.417998418567E+03   -0.22450E-04   -0.22373E-04 19264   0.292E-03 0.154E-05
CGA:  19    -0.417998425824E+03   -0.72578E-05   -0.72677E-05 19264   0.849E-04 0.498E-06
  18 F= -.41799843E+03 E0= -.41796634E+03  d E =-.753031E-02  mag=    34.0000
       N       E                     dE             d eps       ncg     rms          ort
SDA:   1    -0.417590280752E+03    0.40814E+00    0.00000E+00 19264   0.184E+01 0.000E+00
CGA:   2    -0.417667321379E+03   -0.77041E-01   -0.77049E-01 19264   0.244E+01 0.867E-03
CGA:   3    -0.417785285912E+03   -0.11796E+00   -0.11797E+00 19264   0.271E+01 0.149E-03
CGA:   4    -0.417906428381E+03   -0.12114E+00   -0.12113E+00 19264   0.614E+00-0.671E-02
CGA:   5    -0.417940805770E+03   -0.34377E-01   -0.34260E-01 19264   0.533E+00 0.804E-02
CGA:   6    -0.417969524740E+03   -0.28719E-01   -0.28719E-01 19264   0.676E+00 0.154E-03
CGA:   7    -0.417991085025E+03   -0.21560E-01   -0.21543E-01 19264   0.108E+00 0.483E-05
CGA:   8    -0.417994839857E+03   -0.37548E-02   -0.37507E-02 19264   0.807E-01 0.103E-05
CGA:   9    -0.417997628330E+03   -0.27885E-02   -0.27919E-02 19264   0.458E-01 0.898E-04
CGA:  10    -0.418000743112E+03   -0.31148E-02   -0.31154E-02 19264   0.239E-01-0.125E-04
CGA:  11    -0.418001829986E+03   -0.10869E-02   -0.10869E-02 19264   0.127E-01 0.238E-04
CGA:  12    -0.418002124122E+03   -0.29414E-03   -0.29419E-03 19264   0.506E-02 0.227E-05
CGA:  13    -0.418002698485E+03   -0.57436E-03   -0.57421E-03 19264   0.104E-01 0.531E-05
CGA:  14    -0.418002978427E+03   -0.27994E-03   -0.27999E-03 19264   0.246E-02-0.330E-05
CGA:  15    -0.418003055329E+03   -0.76902E-04   -0.76930E-04 19264   0.840E-03 0.321E-06
CGA:  16    -0.418003142233E+03   -0.86903E-04   -0.86797E-04 19264   0.212E-02 0.202E-05
CGA:  17    -0.418003203729E+03   -0.61497E-04   -0.61540E-04 19264   0.899E-03 0.132E-05
CGA:  18    -0.418003243002E+03   -0.39273E-04   -0.39281E-04 19264   0.255E-03 0.159E-05
CGA:  19    -0.418003254975E+03   -0.11973E-04   -0.11974E-04 19264   0.298E-03 0.665E-06
CGA:  20    -0.418003269018E+03   -0.14043E-04   -0.14043E-04 19264   0.282E-03 0.883E-06
CGA:  21    -0.418003287868E+03   -0.18850E-04   -0.18822E-04 19264   0.260E-03 0.156E-05
CGA:  22    -0.418003294389E+03   -0.65204E-05   -0.65270E-05 19264   0.800E-04 0.192E-06
  19 F= -.41800329E+03 E0= -.41797126E+03  d E =-.486856E-02  mag=    34.0000
       N       E                     dE             d eps       ncg     rms          ort
SDA:   1    -0.417939355880E+03    0.63932E-01    0.00000E+00 19264   0.565E+00 0.000E+00
CGA:   2    -0.417949541308E+03   -0.10185E-01   -0.10180E-01 19264   0.174E+00 0.443E-03
CGA:   3    -0.417965804517E+03   -0.16263E-01   -0.16271E-01 19264   0.381E+00-0.896E-04
CGA:   4    -0.417980275800E+03   -0.14471E-01   -0.14468E-01 19264   0.194E+00-0.605E-04
CGA:   5    -0.417985637929E+03   -0.53621E-02   -0.53494E-02 19264   0.517E-01 0.163E-03
CGA:   6    -0.417989578031E+03   -0.39401E-02   -0.39467E-02 19264   0.489E-01-0.195E-03
CGA:   7    -0.417993045962E+03   -0.34679E-02   -0.34682E-02 19264   0.198E-01-0.898E-05
CGA:   8    -0.417993567850E+03   -0.52189E-03   -0.52261E-03 19264   0.109E-01-0.144E-04
CGA:   9    -0.417993917018E+03   -0.34917E-03   -0.34889E-03 19264   0.319E-02 0.332E-05
CGA:  10    -0.417994215763E+03   -0.29874E-03   -0.29867E-03 19264   0.418E-02 0.230E-05
CGA:  11    -0.417994388242E+03   -0.17248E-03   -0.17253E-03 19264   0.174E-02 0.372E-05
CGA:  12    -0.417994427016E+03   -0.38774E-04   -0.38774E-04 19264   0.485E-03 0.471E-06
CGA:  13    -0.417994473166E+03   -0.46151E-04   -0.46146E-04 19264   0.118E-02 0.186E-06
CGA:  14    -0.417994511631E+03   -0.38465E-04   -0.38461E-04 19264   0.509E-03-0.549E-06
CGA:  15    -0.417994528529E+03   -0.16898E-04   -0.16894E-04 19264   0.934E-04-0.377E-06
CGA:  16    -0.417994536702E+03   -0.81731E-05   -0.81932E-05 19264   0.170E-03-0.544E-06
  20 F= -.41799454E+03 E0= -.41796251E+03  d E =0.875769E-02  mag=    34.0000
       N       E                     dE             d eps       ncg     rms          ort
SDA:   1    -0.397937414377E+03    0.20057E+02    0.00000E+00 19264   0.522E+03 0.000E+00
CGA:   2    -0.406004796391E+03   -0.80674E+01   -0.84879E+01 19264   0.564E+02-0.889E+02
CGA:   3    -0.408822209459E+03   -0.28174E+01   -0.29632E+01 19264   0.111E+03-0.692E+01
CGA:   4    -0.414067775251E+03   -0.52456E+01   -0.53089E+01 19264   0.630E+02-0.822E+01
CGA:   5    -0.415242015357E+03   -0.11742E+01   -0.95529E+00 19264   0.851E+01 0.886E+01
CGA:   6    -0.416397742979E+03   -0.11557E+01   -0.11545E+01 19264   0.368E+02 0.281E-01
CGA:   7    -0.417257573067E+03   -0.85983E+00   -0.84810E+00 19264   0.133E+02 0.987E-01
CGA:   8    -0.417550370286E+03   -0.29280E+00   -0.29469E+00 19264   0.180E+01-0.606E-01
CGA:   9    -0.417657033941E+03   -0.10666E+00   -0.10622E+00 19264   0.295E+01 0.285E-01
CGA:  10    -0.417771484176E+03   -0.11445E+00   -0.11579E+00 19264   0.222E+01 0.313E-01
CGA:  11    -0.417826158045E+03   -0.54674E-01   -0.55928E-01 19264   0.755E+00-0.209E-01
CGA:  12    -0.417841134799E+03   -0.14977E-01   -0.15311E-01 19264   0.192E+00-0.973E-02
CGA:  13    -0.417862582912E+03   -0.21448E-01   -0.21292E-01 19264   0.349E+00 0.239E-02
CGA:  14    -0.417878779862E+03   -0.16197E-01   -0.16230E-01 19264   0.173E+00 0.388E-02
CGA:  15    -0.417883244223E+03   -0.44644E-02   -0.44710E-02 19264   0.592E-01-0.173E-03
CGA:  16    -0.417885553836E+03   -0.23096E-02   -0.23175E-02 19264   0.527E-01 0.299E-03
CGA:  17    -0.417887938133E+03   -0.23843E-02   -0.23848E-02 19264   0.629E-01 0.919E-04
CGA:  18    -0.417891053845E+03   -0.31157E-02   -0.31134E-02 19264   0.317E-01 0.615E-03
CGA:  19    -0.417892362644E+03   -0.13088E-02   -0.13098E-02 19264   0.876E-02 0.395E-04
CGA:  20    -0.417892713828E+03   -0.35118E-03   -0.35130E-03 19264   0.903E-02-0.524E-06
CGA:  21    -0.417893467898E+03   -0.75407E-03   -0.75239E-03 19264   0.130E-01 0.390E-04
CGA:  22    -0.417894165567E+03   -0.69767E-03   -0.69745E-03 19264   0.353E-02 0.292E-04
CGA:  23    -0.417894259967E+03   -0.94400E-04   -0.94481E-04 19264   0.214E-02-0.115E-05
CGA:  24    -0.417894459468E+03   -0.19950E-03   -0.19883E-03 19264   0.501E-02 0.111E-04
CGA:  25    -0.417894646198E+03   -0.18673E-03   -0.18699E-03 19264   0.310E-02 0.375E-05
CGA:  26    -0.417894752449E+03   -0.10625E-03   -0.10633E-03 19264   0.912E-03 0.218E-05
CGA:  27    -0.417894792327E+03   -0.39878E-04   -0.39891E-04 19264   0.463E-03 0.113E-05
CGA:  28    -0.417894820205E+03   -0.27878E-04   -0.27845E-04 19264   0.792E-03 0.169E-05
CGA:  29    -0.417894870103E+03   -0.49898E-04   -0.49817E-04 19264   0.520E-03 0.475E-05
CGA:  30    -0.417894892831E+03   -0.22728E-04   -0.22746E-04 19264   0.154E-03 0.192E-05
CGA:  31    -0.417894898368E+03   -0.55375E-05   -0.55482E-05 19264   0.129E-03-0.153E-06
SDA:  32    -0.417894909091E+03   -0.10723E-04   -0.10667E-04 19264   0.241E-03 0.969E-06
CGA:  33    -0.417894913896E+03   -0.48042E-05   -0.48053E-05 19264   0.600E-04-0.657E-06
  21 F= -.41789491E+03 E0= -.41786313E+03  d E =0.996228E-01  mag=    34.0000
       N       E                     dE             d eps       ncg     rms          ort
SDA:   1    -0.412239801006E+03    0.56551E+01    0.00000E+00 19264   0.372E+02 0.000E+00
CGA:   2    -0.413031907245E+03   -0.79211E+00   -0.83088E+00 19264   0.229E+02-0.144E+01
CGA:   3    -0.415267954862E+03   -0.22360E+01   -0.22884E+01 19264   0.429E+02-0.947E+00
CGA:   4    -0.416792695893E+03   -0.15247E+01   -0.15046E+01 19264   0.702E+01-0.151E+00
CGA:   5    -0.417057142120E+03   -0.26445E+00   -0.26367E+00 19264   0.924E+01-0.150E-01
CGA:   6    -0.417683133612E+03   -0.62599E+00   -0.62965E+00 19264   0.566E+01-0.147E+00
CGA:   7    -0.417786733120E+03   -0.10360E+00   -0.10589E+00 19264   0.202E+01-0.860E-01
CGA:   8    -0.417843595392E+03   -0.56862E-01   -0.56610E-01 19264   0.626E+00 0.232E-02
CGA:   9    -0.417907018448E+03   -0.63423E-01   -0.62740E-01 19264   0.708E+00 0.132E-01
CGA:  10    -0.417934436448E+03   -0.27418E-01   -0.27543E-01 19264   0.379E+00 0.227E-02
CGA:  11    -0.417944801968E+03   -0.10366E-01   -0.10344E-01 19264   0.126E+00 0.137E-03
CGA:  12    -0.417952129385E+03   -0.73274E-02   -0.72681E-02 19264   0.143E+00 0.409E-02
CGA:  13    -0.417957138276E+03   -0.50089E-02   -0.49515E-02 19264   0.152E+00-0.201E-03
CGA:  14    -0.417963996297E+03   -0.68580E-02   -0.68730E-02 19264   0.383E-01 0.291E-02
CGA:  15    -0.417965253429E+03   -0.12571E-02   -0.12697E-02 19264   0.218E-01 0.431E-04
CGA:  16    -0.417965879759E+03   -0.62633E-03   -0.62429E-03 19264   0.190E-01 0.109E-04
CGA:  17    -0.417967700140E+03   -0.18204E-02   -0.17994E-02 19264   0.162E-01 0.408E-03
CGA:  18    -0.417968124767E+03   -0.42463E-03   -0.42870E-03 19264   0.812E-02-0.615E-04
CGA:  19    -0.417968372520E+03   -0.24775E-03   -0.24788E-03 19264   0.369E-02-0.828E-06
CGA:  20    -0.417968570059E+03   -0.19754E-03   -0.19740E-03 19264   0.452E-02 0.987E-05
CGA:  21    -0.417968758137E+03   -0.18808E-03   -0.18814E-03 19264   0.440E-02-0.279E-05
CGA:  22    -0.417969026242E+03   -0.26811E-03   -0.26800E-03 19264   0.250E-02 0.116E-05
CGA:  23    -0.417969078406E+03   -0.52164E-04   -0.52281E-04 19264   0.991E-03-0.477E-05
CGA:  24    -0.417969136128E+03   -0.57721E-04   -0.57698E-04 19264   0.956E-03 0.477E-06
CGA:  25    -0.417969225284E+03   -0.89156E-04   -0.89078E-04 19264   0.151E-02-0.576E-07
CGA:  26    -0.417969261057E+03   -0.35773E-04   -0.35854E-04 19264   0.597E-03-0.196E-05
CGA:  27    -0.417969285271E+03   -0.24214E-04   -0.24221E-04 19264   0.266E-03 0.288E-06
CGA:  28    -0.417969296645E+03   -0.11374E-04   -0.11380E-04 19264   0.276E-03 0.376E-06
CGA:  29    -0.417969310086E+03   -0.13441E-04   -0.13438E-04 19264   0.268E-03 0.119E-05
CGA:  30    -0.417969327081E+03   -0.16995E-04   -0.16954E-04 19264   0.256E-03 0.193E-05
CGA:  31    -0.417969332448E+03   -0.53667E-05   -0.53920E-05 19264   0.650E-04 0.174E-06
  22 F= -.41796933E+03 E0= -.41793739E+03  d E =-.744186E-01  mag=    34.0000
       N       E                     dE             d eps       ncg     rms          ort
SDA:   1    -0.417791642164E+03    0.17768E+00    0.00000E+00 19264   0.147E+01 0.000E+00
CGA:   2    -0.417820634462E+03   -0.28992E-01   -0.29014E-01 19264   0.660E+00-0.126E-02
CGA:   3    -0.417880928391E+03   -0.60294E-01   -0.60359E-01 19264   0.131E+01-0.125E-02
CGA:   4    -0.417939867018E+03   -0.58939E-01   -0.58947E-01 19264   0.389E+00 0.121E-02
CGA:   5    -0.417950134832E+03   -0.10268E-01   -0.10238E-01 19264   0.202E+00 0.484E-03
CGA:   6    -0.417970466869E+03   -0.20332E-01   -0.20314E-01 19264   0.169E+00 0.369E-03
CGA:   7    -0.417977377501E+03   -0.69106E-02   -0.69084E-02 19264   0.268E-01-0.674E-04
CGA:   8    -0.417978602666E+03   -0.12252E-02   -0.12251E-02 19264   0.297E-01-0.315E-05
CGA:   9    -0.417979884791E+03   -0.12821E-02   -0.12823E-02 19264   0.188E-01 0.163E-04
CGA:  10    -0.417980807375E+03   -0.92258E-03   -0.92258E-03 19264   0.956E-02 0.706E-05
CGA:  11    -0.417981023617E+03   -0.21624E-03   -0.21617E-03 19264   0.370E-02 0.344E-05
CGA:  12    -0.417981232735E+03   -0.20912E-03   -0.20909E-03 19264   0.252E-02 0.224E-05
CGA:  13    -0.417981455212E+03   -0.22248E-03   -0.22249E-03 19264   0.352E-02-0.561E-06
CGA:  14    -0.417981551845E+03   -0.96633E-04   -0.96673E-04 19264   0.748E-03-0.404E-06
CGA:  15    -0.417981578750E+03   -0.26904E-04   -0.26909E-04 19264   0.372E-03 0.192E-06
CGA:  16    -0.417981629088E+03   -0.50338E-04   -0.50272E-04 19264   0.108E-02 0.767E-06
CGA:  17    -0.417981652728E+03   -0.23641E-04   -0.23645E-04 19264   0.177E-03 0.165E-06
CGA:  18    -0.417981660392E+03   -0.76639E-05   -0.76643E-05 19264   0.120E-03-0.840E-07
  23 F= -.41798166E+03 E0= -.41794967E+03  d E =-.123279E-01  mag=    34.0000
       N       E                     dE             d eps       ncg     rms          ort
SDA:   1    -0.417804640457E+03    0.17701E+00    0.00000E+00 19264   0.161E+01 0.000E+00
CGA:   2    -0.417835789054E+03   -0.31149E-01   -0.31173E-01 19264   0.585E+00-0.706E-03
CGA:   3    -0.417913112241E+03   -0.77323E-01   -0.77240E-01 19264   0.152E+01 0.121E-02
CGA:   4    -0.417952980583E+03   -0.39868E-01   -0.39869E-01 19264   0.491E+00-0.869E-04
CGA:   5    -0.417968772295E+03   -0.15792E-01   -0.15768E-01 19264   0.170E+00 0.174E-03
CGA:   6    -0.417984837438E+03   -0.16065E-01   -0.16039E-01 19264   0.163E+00 0.591E-03
CGA:   7    -0.417993109079E+03   -0.82716E-02   -0.82725E-02 19264   0.454E-01 0.189E-03
CGA:   8    -0.417994494133E+03   -0.13851E-02   -0.13839E-02 19264   0.287E-01 0.203E-04
CGA:   9    -0.417995446065E+03   -0.95193E-03   -0.95210E-03 19264   0.135E-01 0.684E-05
CGA:  10    -0.417996437874E+03   -0.99181E-03   -0.99158E-03 19264   0.193E-01 0.107E-04
CGA:  11    -0.417996980545E+03   -0.54267E-03   -0.54238E-03 19264   0.508E-02 0.474E-05
CGA:  12    -0.417997176308E+03   -0.19576E-03   -0.19569E-03 19264   0.156E-02-0.753E-06
CGA:  13    -0.417997404729E+03   -0.22842E-03   -0.22861E-03 19264   0.429E-02-0.200E-05
CGA:  14    -0.417997496575E+03   -0.91846E-04   -0.91908E-04 19264   0.831E-03-0.217E-05
CGA:  15    -0.417997528041E+03   -0.31466E-04   -0.31466E-04 19264   0.386E-03 0.123E-06
CGA:  16    -0.417997556223E+03   -0.28182E-04   -0.28173E-04 19264   0.675E-03 0.236E-06
CGA:  17    -0.417997584632E+03   -0.28409E-04   -0.28414E-04 19264   0.468E-03 0.840E-08
CGA:  18    -0.417997606939E+03   -0.22307E-04   -0.22309E-04 19264   0.141E-03 0.436E-06
CGA:  19    -0.417997612714E+03   -0.57756E-05   -0.57748E-05 19264   0.145E-03-0.186E-06
  24 F= -.41799761E+03 E0= -.41796559E+03  d E =-.159523E-01  mag=    34.0000
       N       E                     dE             d eps       ncg     rms          ort
SDA:   1    -0.417878919351E+03    0.11869E+00    0.00000E+00 19264   0.359E+01 0.000E+00
CGA:   2    -0.417928266086E+03   -0.49347E-01   -0.49375E-01 19264   0.321E+00-0.119E-01
CGA:   3    -0.417973092147E+03   -0.44826E-01   -0.44670E-01 19264   0.545E+00 0.205E-02
CGA:   4    -0.417997779249E+03   -0.24687E-01   -0.24689E-01 19264   0.252E+00 0.103E-03
CGA:   5    -0.418004710036E+03   -0.69308E-02   -0.69462E-02 19264   0.125E+00-0.232E-03
CGA:   6    -0.418012591247E+03   -0.78812E-02   -0.78863E-02 19264   0.135E+00-0.281E-03
CGA:   7    -0.418017920605E+03   -0.53294E-02   -0.53281E-02 19264   0.103E+00 0.316E-04
CGA:   8    -0.418020822820E+03   -0.29022E-02   -0.29065E-02 19264   0.219E-01-0.530E-04
CGA:   9    -0.418021842071E+03   -0.10193E-02   -0.10193E-02 19264   0.855E-02 0.108E-04
CGA:  10    -0.418022546624E+03   -0.70455E-03   -0.70466E-03 19264   0.162E-01-0.254E-05
CGA:  11    -0.418023009467E+03   -0.46284E-03   -0.46267E-03 19264   0.589E-02-0.127E-05
CGA:  12    -0.418023198768E+03   -0.18930E-03   -0.18934E-03 19264   0.136E-02-0.290E-05
CGA:  13    -0.418023278433E+03   -0.79665E-04   -0.79678E-04 19264   0.285E-02-0.119E-05
CGA:  14    -0.418023447558E+03   -0.16913E-03   -0.16916E-03 19264   0.110E-02-0.281E-05
CGA:  15    -0.418023489336E+03   -0.41778E-04   -0.41777E-04 19264   0.470E-03-0.307E-07
CGA:  16    -0.418023505192E+03   -0.15855E-04   -0.15865E-04 19264   0.477E-03 0.736E-06
CGA:  17    -0.418023540423E+03   -0.35232E-04   -0.35161E-04 19264   0.562E-03 0.301E-05
CGA:  18    -0.418023575803E+03   -0.35380E-04   -0.35345E-04 19264   0.379E-03 0.317E-05
CGA:  19    -0.418023587520E+03   -0.11717E-04   -0.11733E-04 19264   0.209E-03 0.819E-06
CGA:  20    -0.418023596978E+03   -0.94578E-05   -0.94591E-05 19264   0.154E-03 0.236E-06
CGA:  21    -0.418023610294E+03   -0.13316E-04   -0.13335E-04 19264   0.487E-03-0.439E-06
CGA:  22    -0.418023628657E+03   -0.18363E-04   -0.18347E-04 19264   0.782E-04-0.988E-06
CGA:  23    -0.418023632131E+03   -0.34745E-05   -0.34738E-05 19264   0.554E-04-0.133E-06
  25 F= -.41802363E+03 E0= -.41799161E+03  d E =-.260194E-01  mag=    34.0000
       N       E                     dE             d eps       ncg     rms          ort
SDA:   1    -0.417803361652E+03    0.22027E+00    0.00000E+00 19264   0.103E+01 0.000E+00
CGA:   2    -0.417846213656E+03   -0.42852E-01   -0.42833E-01 19264   0.185E+01-0.365E-03
CGA:   3    -0.417971481656E+03   -0.12527E+00   -0.12529E+00 19264   0.111E+01-0.960E-03
CGA:   4    -0.418009770186E+03   -0.38289E-01   -0.38331E-01 19264   0.320E+00 0.133E-04
CGA:   5    -0.418022998066E+03   -0.13228E-01   -0.13225E-01 19264   0.373E+00 0.129E-04
CGA:   6    -0.418047922877E+03   -0.24925E-01   -0.24924E-01 19264   0.230E+00 0.494E-04
CGA:   7    -0.418057192432E+03   -0.92696E-02   -0.92549E-02 19264   0.353E-01-0.225E-03
CGA:   8    -0.418058611024E+03   -0.14186E-02   -0.14185E-02 19264   0.447E-01 0.211E-04
CGA:   9    -0.418060559104E+03   -0.19481E-02   -0.19481E-02 19264   0.303E-01 0.931E-05
CGA:  10    -0.418062059360E+03   -0.15003E-02   -0.15002E-02 19264   0.110E-01-0.292E-04
CGA:  11    -0.418062434504E+03   -0.37514E-03   -0.37540E-03 19264   0.638E-02-0.246E-05
CGA:  12    -0.418062666562E+03   -0.23206E-03   -0.23205E-03 19264   0.328E-02-0.113E-05
CGA:  13    -0.418063025390E+03   -0.35883E-03   -0.35911E-03 19264   0.621E-02-0.242E-05
CGA:  14    -0.418063162423E+03   -0.13703E-03   -0.13703E-03 19264   0.129E-02-0.101E-05
CGA:  15    -0.418063209058E+03   -0.46635E-04   -0.46663E-04 19264   0.671E-03 0.174E-05
CGA:  16    -0.418063320703E+03   -0.11164E-03   -0.11064E-03 19264   0.189E-02 0.902E-05
CGA:  17    -0.418063370430E+03   -0.49727E-04   -0.49852E-04 19264   0.542E-03 0.337E-05
CGA:  18    -0.418063396160E+03   -0.25730E-04   -0.25741E-04 19264   0.402E-03 0.181E-05
CGA:  19    -0.418063414350E+03   -0.18190E-04   -0.18194E-04 19264   0.601E-03 0.814E-06
CGA:  20    -0.418063453446E+03   -0.39096E-04   -0.39098E-04 19264   0.538E-03-0.216E-06
CGA:  21    -0.418063482423E+03   -0.28977E-04   -0.28976E-04 19264   0.224E-03-0.599E-06
CGA:  22    -0.418063490089E+03   -0.76663E-05   -0.76567E-05 19264   0.159E-03-0.431E-06
  26 F= -.41806349E+03 E0= -.41803151E+03  d E =-.398580E-01  mag=    34.0000
       N       E                     dE             d eps       ncg     rms          ort
SDA:   1    -0.417979169704E+03    0.84313E-01    0.00000E+00 19264   0.127E+01 0.000E+00
CGA:   2    -0.417999818453E+03   -0.20649E-01   -0.20760E-01 19264   0.280E+00-0.624E-02
CGA:   3    -0.418016225043E+03   -0.16407E-01   -0.16392E-01 19264   0.314E+00 0.124E-02
CGA:   4    -0.418042011448E+03   -0.25786E-01   -0.25762E-01 19264   0.231E+00 0.715E-03
CGA:   5    -0.418051392382E+03   -0.93809E-02   -0.93862E-02 19264   0.128E+00 0.114E-03
CGA:   6    -0.418055094870E+03   -0.37025E-02   -0.36931E-02 19264   0.520E-01 0.141E-03
CGA:   7    -0.418059292783E+03   -0.41979E-02   -0.41963E-02 19264   0.521E-01 0.610E-04
CGA:   8    -0.418061060016E+03   -0.17672E-02   -0.17679E-02 19264   0.374E-01 0.187E-04
CGA:   9    -0.418062068021E+03   -0.10080E-02   -0.10072E-02 19264   0.412E-02 0.186E-04
CGA:  10    -0.418062346716E+03   -0.27869E-03   -0.27872E-03 19264   0.475E-02 0.117E-06
CGA:  11    -0.418062735960E+03   -0.38924E-03   -0.38934E-03 19264   0.231E-02-0.236E-05
CGA:  12    -0.418062780233E+03   -0.44273E-04   -0.44278E-04 19264   0.688E-03-0.256E-07
CGA:  13    -0.418062831031E+03   -0.50799E-04   -0.50804E-04 19264   0.944E-03-0.230E-06
CGA:  14    -0.418062883481E+03   -0.52450E-04   -0.52451E-04 19264   0.977E-03-0.429E-06
CGA:  15    -0.418062911712E+03   -0.28231E-04   -0.28226E-04 19264   0.215E-03-0.157E-06
CGA:  16    -0.418062922328E+03   -0.10616E-04   -0.10616E-04 19264   0.113E-03 0.557E-07
CGA:  17    -0.418062928357E+03   -0.60292E-05   -0.60289E-05 19264   0.198E-03 0.923E-07
  27 F= -.41806293E+03 E0= -.41803093E+03  d E =0.561732E-03  mag=    34.0000
       N       E                     dE             d eps       ncg     rms          ort
SDA:   1    -0.417850142729E+03    0.21278E+00    0.00000E+00 19264   0.546E+01 0.000E+00
CGA:   2    -0.417923969700E+03   -0.73827E-01   -0.74034E-01 19264   0.377E+00-0.365E-01
CGA:   3    -0.417962969971E+03   -0.39000E-01   -0.38771E-01 19264   0.712E+00 0.445E-02
CGA:   4    -0.418005692646E+03   -0.42723E-01   -0.42747E-01 19264   0.233E+00-0.197E-02
CGA:   5    -0.418012138380E+03   -0.64457E-02   -0.64421E-02 19264   0.152E+00 0.132E-03
CGA:   6    -0.418019633869E+03   -0.74955E-02   -0.74971E-02 19264   0.151E+00 0.525E-03
CGA:   7    -0.418030020070E+03   -0.10386E-01   -0.10395E-01 19264   0.734E-01-0.378E-03
CGA:   8    -0.418031400094E+03   -0.13800E-02   -0.13804E-02 19264   0.109E-01-0.770E-05
CGA:   9    -0.418032401363E+03   -0.10013E-02   -0.10009E-02 19264   0.193E-01 0.132E-04
CGA:  10    -0.418033125826E+03   -0.72446E-03   -0.72462E-03 19264   0.121E-01 0.187E-04
CGA:  11    -0.418033435606E+03   -0.30978E-03   -0.31002E-03 19264   0.250E-02 0.904E-05
CGA:  12    -0.418033594017E+03   -0.15841E-03   -0.15840E-03 19264   0.180E-02 0.206E-05
CGA:  13    -0.418033722488E+03   -0.12847E-03   -0.12845E-03 19264   0.368E-02 0.288E-05
CGA:  14    -0.418033832720E+03   -0.11023E-03   -0.11027E-03 19264   0.102E-02 0.867E-06
CGA:  15    -0.418033876863E+03   -0.44143E-04   -0.44139E-04 19264   0.382E-03-0.423E-06
CGA:  16    -0.418033898584E+03   -0.21721E-04   -0.21728E-04 19264   0.757E-03-0.954E-06
CGA:  17    -0.418033946935E+03   -0.48351E-04   -0.48394E-04 19264   0.769E-03-0.306E-05
CGA:  18    -0.418033974735E+03   -0.27801E-04   -0.27781E-04 19264   0.224E-03-0.182E-05
CGA:  19    -0.418033981161E+03   -0.64257E-05   -0.64264E-05 19264   0.182E-03-0.143E-07
CGA:  20    -0.418034010003E+03   -0.28842E-04   -0.28628E-04 19264   0.323E-03 0.206E-05
CGA:  21    -0.418034022959E+03   -0.12956E-04   -0.12969E-04 19264   0.166E-03 0.945E-06
CGA:  22    -0.418034027100E+03   -0.41416E-05   -0.41488E-05 19264   0.719E-04 0.217E-06
  28 F= -.41803403E+03 E0= -.41800201E+03  d E =0.289013E-01  mag=    34.0000
       N       E                     dE             d eps       ncg     rms          ort
SDA:   1    -0.417966724859E+03    0.67298E-01    0.00000E+00 19264   0.486E+00 0.000E+00
CGA:   2    -0.417978953079E+03   -0.12228E-01   -0.12275E-01 19264   0.262E+00-0.101E-02
CGA:   3    -0.417992303011E+03   -0.13350E-01   -0.13344E-01 19264   0.361E+00-0.127E-02
CGA:   4    -0.418015077589E+03   -0.22775E-01   -0.22765E-01 19264   0.252E+00 0.557E-03
CGA:   5    -0.418020961298E+03   -0.58837E-02   -0.58764E-02 19264   0.679E-01 0.208E-03
CGA:   6    -0.418024848007E+03   -0.38867E-02   -0.38891E-02 19264   0.639E-01-0.237E-03
CGA:   7    -0.418030219394E+03   -0.53714E-02   -0.53688E-02 19264   0.121E-01 0.725E-04
CGA:   8    -0.418030668927E+03   -0.44953E-03   -0.44945E-03 19264   0.734E-02 0.235E-05
CGA:   9    -0.418031040013E+03   -0.37109E-03   -0.37109E-03 19264   0.854E-02 0.231E-05
CGA:  10    -0.418031439984E+03   -0.39997E-03   -0.39999E-03 19264   0.183E-02 0.221E-05
CGA:  11    -0.418031533161E+03   -0.93176E-04   -0.93180E-04 19264   0.123E-02 0.191E-05
CGA:  12    -0.418031570878E+03   -0.37718E-04   -0.37729E-04 19264   0.101E-02 0.590E-06
CGA:  13    -0.418031636914E+03   -0.66035E-04   -0.66025E-04 19264   0.967E-03 0.888E-06
CGA:  14    -0.418031677684E+03   -0.40770E-04   -0.40781E-04 19264   0.386E-03 0.414E-06
CGA:  15    -0.418031687062E+03   -0.93779E-05   -0.93773E-05 19264   0.111E-03-0.117E-06
CGA:  16    -0.418031700773E+03   -0.13711E-04   -0.13761E-04 19264   0.214E-03-0.705E-06
CGA:  17    -0.418031711239E+03   -0.10466E-04   -0.10463E-04 19264   0.133E-03-0.635E-06
CGA:  18    -0.418031714012E+03   -0.27729E-05   -0.27668E-05 19264   0.292E-04-0.213E-06
  29 F= -.41803171E+03 E0= -.41799971E+03  d E =0.231309E-02  mag=    34.0000
