       N       E                     dE             d eps       ncg     rms          rms(c)
DAV:   1     0.709861109971E+04    0.70986E+04   -0.28817E+05 39864   0.157E+03
DAV:   2     0.486843445388E+03   -0.66118E+04   -0.61517E+04 39048   0.476E+02
DAV:   3    -0.378815654922E+03   -0.86566E+03   -0.85022E+03 41240   0.184E+02
DAV:   4    -0.419459395600E+03   -0.40644E+02   -0.40171E+02 48608   0.362E+01
DAV:   5    -0.422207599136E+03   -0.27482E+01   -0.27278E+01 65272   0.678E+00    0.589E+01
DAV:   6    -0.372210499388E+03    0.49997E+02   -0.22532E+02 43128   0.316E+01    0.400E+01
DAV:   7    -0.376876627572E+03   -0.46661E+01   -0.21283E+01 42176   0.109E+01    0.300E+01
DAV:   8    -0.378440694802E+03   -0.15641E+01   -0.21325E+00 48096   0.332E+00    0.168E+01
DAV:   9    -0.382127756630E+03   -0.36871E+01   -0.23085E+00 41488   0.324E+00    0.428E+00
DAV:  10    -0.383414025817E+03   -0.12863E+01   -0.48973E-01 44192   0.121E+00    0.288E+00
DAV:  11    -0.385521631268E+03   -0.21076E+01   -0.96031E-01 41880   0.129E+00    0.213E+00
DAV:  12    -0.387556026074E+03   -0.20344E+01   -0.18951E+00 42168   0.161E+00    0.951E-01
DAV:  13    -0.387774722494E+03   -0.21870E+00   -0.19857E-01 42624   0.679E-01    0.458E-01
DAV:  14    -0.387791299043E+03   -0.16577E-01   -0.17275E-02 41912   0.264E-01    0.249E-01
DAV:  15    -0.387789639103E+03    0.16599E-02   -0.58366E-03 41816   0.175E-01    0.139E-01
DAV:  16    -0.387788684448E+03    0.95466E-03   -0.23274E-03 40192   0.110E-01    0.636E-02
DAV:  17    -0.387788480355E+03    0.20409E-03   -0.31655E-04 43688   0.431E-02    0.343E-02
DAV:  18    -0.387788452869E+03    0.27485E-04   -0.20979E-04 39192   0.330E-02    0.202E-02
DAV:  19    -0.387788428926E+03    0.23943E-04   -0.45200E-05 35176   0.181E-02    0.140E-02
DAV:  20    -0.387788423756E+03    0.51705E-05   -0.19063E-05 31864   0.118E-02
   1 F= -.38778842E+03 E0= -.38778842E+03  d E =-.387788E+03  mag=    59.9999
       N       E                     dE             d eps       ncg     rms          rms(c)
DAV:   1    -0.387789598505E+03   -0.11696E-02   -0.11857E-03 42552   0.106E-01    0.162E-02
DAV:   2    -0.387789608353E+03   -0.98486E-05   -0.99014E-05 40248   0.196E-02    0.761E-03
DAV:   3    -0.387789608585E+03   -0.23142E-06   -0.37050E-06 21432   0.430E-03    0.341E-03
DAV:   4    -0.387789608549E+03    0.36009E-07   -0.56349E-07 20384   0.175E-03
   2 F= -.38778961E+03 E0= -.38778961E+03  d E =-.118479E-02  mag=    59.9999
       N       E                     dE             d eps       ncg     rms          rms(c)
DAV:   1    -0.387819170075E+03   -0.29561E-01   -0.27267E+00 42304   0.505E+00    0.748E-01
DAV:   2    -0.387842843436E+03   -0.23673E-01   -0.22391E-01 39792   0.896E-01    0.341E-01
DAV:   3    -0.387843612846E+03   -0.76941E-03   -0.68484E-03 51768   0.148E-01    0.156E-01
DAV:   4    -0.387843530362E+03    0.82484E-04   -0.47010E-04 52320   0.396E-02    0.110E-01
DAV:   5    -0.387843409697E+03    0.12066E-03   -0.11765E-04 43192   0.487E-02    0.463E-02
DAV:   6    -0.387843403916E+03    0.57811E-05   -0.11332E-04 47240   0.280E-02    0.123E-02
DAV:   7    -0.387843406141E+03   -0.22247E-05   -0.30074E-05 34448   0.121E-02
   3 F= -.38784341E+03 E0= -.38784341E+03  d E =-.537976E-01  mag=    60.0000
       N       E                     dE             d eps       ncg     rms          rms(c)
DAV:   1    -0.387767628543E+03    0.75775E-01   -0.22343E+01 42016   0.146E+01    0.218E+00
DAV:   2    -0.387967314405E+03   -0.19969E+00   -0.18885E+00 39336   0.261E+00    0.100E+00
DAV:   3    -0.387974032338E+03   -0.67179E-02   -0.59351E-02 51848   0.436E-01    0.448E-01
DAV:   4    -0.387973348369E+03    0.68397E-03   -0.39217E-03 52024   0.116E-01    0.320E-01
DAV:   5    -0.387972409792E+03    0.93858E-03   -0.92074E-04 49392   0.135E-01    0.135E-01
DAV:   6    -0.387972358445E+03    0.51346E-04   -0.86129E-04 48184   0.797E-02    0.351E-02
DAV:   7    -0.387972376466E+03   -0.18020E-04   -0.23823E-04 43456   0.338E-02    0.266E-02
DAV:   8    -0.387972374173E+03    0.22925E-05   -0.12057E-05 26696   0.979E-03
   4 F= -.38797237E+03 E0= -.38797237E+03  d E =-.128968E+00  mag=    60.0000
       N       E                     dE             d eps       ncg     rms          rms(c)
DAV:   1    -0.387758109584E+03    0.21427E+00   -0.33002E+01 42000   0.181E+01    0.278E+00
DAV:   2    -0.388074944422E+03   -0.31683E+00   -0.29916E+00 39280   0.327E+00    0.130E+00
DAV:   3    -0.388085713195E+03   -0.10769E-01   -0.88976E-02 51360   0.534E-01    0.551E-01
DAV:   4    -0.388084690205E+03    0.10230E-02   -0.59378E-03 52112   0.142E-01    0.395E-01
DAV:   5    -0.388083409913E+03    0.12803E-02   -0.13470E-03 49224   0.158E-01    0.166E-01
DAV:   6    -0.388083371566E+03    0.38348E-04   -0.11471E-03 47400   0.873E-02    0.438E-02
DAV:   7    -0.388083393872E+03   -0.22307E-04   -0.28676E-04 44384   0.374E-02    0.299E-02
DAV:   8    -0.388083391336E+03    0.25361E-05   -0.15680E-05 28680   0.117E-02
   5 F= -.38808339E+03 E0= -.38808339E+03  d E =-.111017E+00  mag=    60.0000
       N       E                     dE             d eps       ncg     rms          rms(c)
DAV:   1    -0.387640643103E+03    0.44275E+00   -0.54681E+01 42008   0.235E+01    0.349E+00
DAV:   2    -0.388146030976E+03   -0.50539E+00   -0.47922E+00 39064   0.423E+00    0.169E+00
DAV:   3    -0.388161514325E+03   -0.15483E-01   -0.12648E-01 50448   0.660E-01    0.695E-01
DAV:   4    -0.388159956596E+03    0.15577E-02   -0.88893E-03 52488   0.180E-01    0.493E-01
DAV:   5    -0.388158140892E+03    0.18157E-02   -0.18806E-03 48232   0.184E-01    0.211E-01
DAV:   6    -0.388158081640E+03    0.59251E-04   -0.16127E-03 46656   0.105E-01    0.483E-02
DAV:   7    -0.388158113077E+03   -0.31436E-04   -0.42532E-04 44288   0.480E-02    0.345E-02
DAV:   8    -0.388158110806E+03    0.22704E-05   -0.26269E-05 37152   0.142E-02
   6 F= -.38815811E+03 E0= -.38815811E+03  d E =-.747195E-01  mag=    60.0000
       N       E                     dE             d eps       ncg     rms          rms(c)
DAV:   1    -0.387786538375E+03    0.37157E+00   -0.69295E+01 41600   0.235E+01    0.290E+00
DAV:   2    -0.388195517310E+03   -0.40898E+00   -0.39465E+00 39128   0.410E+00    0.140E+00
DAV:   3    -0.388203405503E+03   -0.78882E-02   -0.91095E-02 49432   0.620E-01    0.653E-01
DAV:   4    -0.388201593408E+03    0.18121E-02   -0.79326E-03 51536   0.182E-01    0.471E-01
DAV:   5    -0.388199468238E+03    0.21252E-02   -0.18340E-03 49040   0.189E-01    0.208E-01
DAV:   6    -0.388199301771E+03    0.16647E-03   -0.20858E-03 46824   0.118E-01    0.506E-02
DAV:   7    -0.388199341683E+03   -0.39912E-04   -0.43358E-04 43912   0.448E-02    0.347E-02
DAV:   8    -0.388199339703E+03    0.19798E-05   -0.25235E-05 38560   0.134E-02
   7 F= -.38819934E+03 E0= -.38819934E+03  d E =-.412289E-01  mag=    60.0000
       N       E                     dE             d eps       ncg     rms          rms(c)
DAV:   1    -0.388146261366E+03    0.53080E-01   -0.85064E+00 41592   0.901E+00    0.126E+00
DAV:   2    -0.388214980971E+03   -0.68720E-01   -0.64805E-01 39112   0.161E+00    0.556E-01
DAV:   3    -0.388216913251E+03   -0.19323E-02   -0.16315E-02 47600   0.244E-01    0.247E-01
DAV:   4    -0.388216722440E+03    0.19081E-03   -0.11899E-03 54952   0.633E-02    0.192E-01
DAV:   5    -0.388216400083E+03    0.32236E-03   -0.24220E-04 47544   0.744E-02    0.933E-02
DAV:   6    -0.388216360541E+03    0.39542E-04   -0.30552E-04 48360   0.524E-02    0.165E-02
DAV:   7    -0.388216367360E+03   -0.68191E-05   -0.89721E-05 42752   0.220E-02
   8 F= -.38821637E+03 E0= -.38821637E+03  d E =-.170277E-01  mag=    60.0000
       N       E                     dE             d eps       ncg     rms          rms(c)
DAV:   1    -0.388192939792E+03    0.23421E-01   -0.41476E+00 41600   0.621E+00    0.853E-01
DAV:   2    -0.388225135412E+03   -0.32196E-01   -0.30407E-01 38928   0.110E+00    0.371E-01
DAV:   3    -0.388226056293E+03   -0.92088E-03   -0.76155E-03 47616   0.167E-01    0.162E-01
DAV:   4    -0.388225974447E+03    0.81846E-04   -0.55075E-04 54904   0.423E-02    0.128E-01
DAV:   5    -0.388225831598E+03    0.14285E-03   -0.10479E-04 44568   0.494E-02    0.631E-02
DAV:   6    -0.388225815832E+03    0.15766E-04   -0.13977E-04 48552   0.345E-02    0.106E-02
DAV:   7    -0.388225818529E+03   -0.26977E-05   -0.36753E-05 37720   0.146E-02
   9 F= -.38822582E+03 E0= -.38822582E+03  d E =-.945117E-02  mag=    60.0000
       N       E                     dE             d eps       ncg     rms          rms(c)
DAV:   1    -0.387740209744E+03    0.48561E+00   -0.61124E+01 41600   0.243E+01    0.338E+00
DAV:   2    -0.388236430734E+03   -0.49622E+00   -0.46689E+00 38776   0.435E+00    0.159E+00
DAV:   3    -0.388250851637E+03   -0.14421E-01   -0.11683E-01 46944   0.664E-01    0.665E-01
DAV:   4    -0.388249559302E+03    0.12923E-02   -0.83209E-03 54320   0.171E-01    0.513E-01
DAV:   5    -0.388247693083E+03    0.18662E-02   -0.11637E-03 49824   0.166E-01    0.279E-01
DAV:   6    -0.388247279003E+03    0.41408E-03   -0.18374E-03 49048   0.147E-01    0.474E-02
DAV:   7    -0.388247334428E+03   -0.55424E-04   -0.67837E-04 44152   0.571E-02    0.357E-02
DAV:   8    -0.388247331912E+03    0.25159E-05   -0.32540E-05 39088   0.139E-02
  10 F= -.38824733E+03 E0= -.38824733E+03  d E =-.215134E-01  mag=    60.0000
       N       E                     dE             d eps       ncg     rms          rms(c)
DAV:   1    -0.388234179598E+03    0.13155E-01   -0.15774E+00 42112   0.450E+00    0.650E-01
DAV:   2    -0.388250924179E+03   -0.16745E-01   -0.15429E-01 39056   0.798E-01    0.286E-01
DAV:   3    -0.388251536552E+03   -0.61237E-03   -0.47718E-03 45552   0.141E-01    0.119E-01
DAV:   4    -0.388251499436E+03    0.37116E-04   -0.34497E-04 56160   0.381E-02    0.880E-02
DAV:   5    -0.388251424659E+03    0.74777E-04   -0.41379E-05 40144   0.435E-02    0.461E-02
DAV:   6    -0.388251398227E+03    0.26432E-04   -0.66211E-05 45688   0.485E-02    0.101E-02
DAV:   7    -0.388251401444E+03   -0.32168E-05   -0.71797E-05 42984   0.213E-02
  11 F= -.38825140E+03 E0= -.38825140E+03  d E =-.406953E-02  mag=    60.0000
       N       E                     dE             d eps       ncg     rms          rms(c)
DAV:   1    -0.388251383305E+03    0.14921E-04   -0.68039E-02 41944   0.892E-01    0.126E-01
DAV:   2    -0.388252040327E+03   -0.65702E-03   -0.61200E-03 39104   0.159E-01    0.534E-02
DAV:   3    -0.388252063833E+03   -0.23507E-04   -0.16621E-04 39816   0.260E-02    0.222E-02
DAV:   4    -0.388252062931E+03    0.90235E-06   -0.10281E-05 24704   0.626E-03
  12 F= -.38825206E+03 E0= -.38825206E+03  d E =-.661487E-03  mag=    60.0000
       N       E                     dE             d eps       ncg     rms          rms(c)
DAV:   1    -0.388247774681E+03    0.42892E-02   -0.89654E-01 41632   0.294E+00    0.386E-01
DAV:   2    -0.388254668607E+03   -0.68939E-02   -0.64679E-02 38608   0.519E-01    0.171E-01
DAV:   3    -0.388254865137E+03   -0.19653E-03   -0.16057E-03 46304   0.790E-02    0.761E-02
DAV:   4    -0.388254849805E+03    0.15333E-04   -0.10925E-04 47560   0.186E-02    0.613E-02
DAV:   5    -0.388254819790E+03    0.30015E-04   -0.18768E-05 29432   0.226E-02    0.312E-02
DAV:   6    -0.388254816127E+03    0.36630E-05   -0.33110E-05 38408   0.172E-02
  13 F= -.38825482E+03 E0= -.38825482E+03  d E =-.275320E-02  mag=    60.0000
       N       E                     dE             d eps       ncg     rms          rms(c)
DAV:   1    -0.388240100804E+03    0.14719E-01   -0.22887E+00 41632   0.479E+00    0.655E-01
DAV:   2    -0.388258968546E+03   -0.18868E-01   -0.17670E-01 38432   0.854E-01    0.282E-01
DAV:   3    -0.388259564297E+03   -0.59575E-03   -0.45122E-03 46152   0.130E-01    0.120E-01
DAV:   4    -0.388259529926E+03    0.34371E-04   -0.29857E-04 54416   0.300E-02    0.969E-02
DAV:   5    -0.388259460699E+03    0.69227E-04   -0.42789E-05 38224   0.325E-02    0.530E-02
DAV:   6    -0.388259448658E+03    0.12041E-04   -0.75730E-05 45552   0.279E-02    0.784E-03
DAV:   7    -0.388259450182E+03   -0.15238E-05   -0.20001E-05 27248   0.112E-02
  14 F= -.38825945E+03 E0= -.38825945E+03  d E =-.463405E-02  mag=    60.0000
       N       E                     dE             d eps       ncg     rms          rms(c)
DAV:   1    -0.387929892928E+03    0.32956E+00   -0.49694E+01 41600   0.209E+01    0.271E+00
DAV:   2    -0.388274202615E+03   -0.34431E+00   -0.32591E+00 38608   0.369E+00    0.123E+00
DAV:   3    -0.388282684214E+03   -0.84816E-02   -0.72906E-02 45728   0.544E-01    0.529E-01
DAV:   4    -0.388281723528E+03    0.96069E-03   -0.55531E-03 54472   0.140E-01    0.407E-01
DAV:   5    -0.388280349951E+03    0.13736E-02   -0.10500E-03 48760   0.151E-01    0.200E-01
DAV:   6    -0.388280184869E+03    0.16508E-03   -0.12975E-03 48368   0.105E-01    0.375E-02
DAV:   7    -0.388280210165E+03   -0.25296E-04   -0.34506E-04 44008   0.427E-02    0.247E-02
DAV:   8    -0.388280209326E+03    0.83951E-06   -0.21527E-05 30496   0.136E-02
  15 F= -.38828021E+03 E0= -.38828021E+03  d E =-.207591E-01  mag=    60.0000
       N       E                     dE             d eps       ncg     rms          rms(c)
DAV:   1    -0.388270457105E+03    0.97531E-02   -0.89694E-01 42032   0.325E+00    0.434E-01
DAV:   2    -0.388278407696E+03   -0.79506E-02   -0.75266E-02 39016   0.581E-01    0.189E-01
DAV:   3    -0.388278654862E+03   -0.24717E-03   -0.19563E-03 45960   0.928E-02    0.845E-02
DAV:   4    -0.388278633066E+03    0.21795E-04   -0.12658E-04 49840   0.234E-02    0.627E-02
DAV:   5    -0.388278599684E+03    0.33382E-04   -0.27369E-05 36584   0.282E-02    0.286E-02
DAV:   6    -0.388278596503E+03    0.31815E-05   -0.31033E-05 40624   0.194E-02
  16 F= -.38827860E+03 E0= -.38827860E+03  d E =0.161282E-02  mag=    60.0000
       N       E                     dE             d eps       ncg     rms          rms(c)
DAV:   1    -0.388278364816E+03    0.23487E-03   -0.64558E-02 41800   0.788E-01    0.991E-02
DAV:   2    -0.388278814736E+03   -0.44992E-03   -0.42639E-03 39072   0.139E-01    0.425E-02
DAV:   3    -0.388278827558E+03   -0.12823E-04   -0.10263E-04 38720   0.212E-02    0.186E-02
DAV:   4    -0.388278826486E+03    0.10720E-05   -0.69207E-06 22560   0.569E-03
  17 F= -.38827883E+03 E0= -.38827883E+03  d E =-.229984E-03  mag=    60.0000
       N       E                     dE             d eps       ncg     rms          rms(c)
DAV:   1    -0.388275950438E+03    0.28771E-02   -0.56157E-01 41600   0.218E+00    0.255E-01
DAV:   2    -0.388279300967E+03   -0.33505E-02   -0.31869E-02 38640   0.378E-01    0.114E-01
DAV:   3    -0.388279377422E+03   -0.76455E-04   -0.72264E-04 45944   0.554E-02    0.525E-02
DAV:   4    -0.388279366718E+03    0.10704E-04   -0.48869E-05 38768   0.136E-02    0.410E-02
DAV:   5    -0.388279350546E+03    0.16172E-04   -0.14437E-05 24992   0.180E-02    0.184E-02
DAV:   6    -0.388279350066E+03    0.48061E-06   -0.17589E-05 26096   0.108E-02
  18 F= -.38827935E+03 E0= -.38827935E+03  d E =-.523580E-03  mag=    60.0000
       N       E                     dE             d eps       ncg     rms          rms(c)
DAV:   1    -0.388261435699E+03    0.17915E-01   -0.27875E+00 41840   0.512E+00    0.645E-01
DAV:   2    -0.388280902205E+03   -0.19467E-01   -0.18294E-01 38312   0.898E-01    0.279E-01
DAV:   3    -0.388281457035E+03   -0.55483E-03   -0.44291E-03 45544   0.134E-01    0.120E-01
DAV:   4    -0.388281415186E+03    0.41849E-04   -0.30041E-04 53472   0.313E-02    0.936E-02
DAV:   5    -0.388281342709E+03    0.72477E-04   -0.49024E-05 38104   0.335E-02    0.496E-02
DAV:   6    -0.388281331740E+03    0.10969E-04   -0.77311E-05 43840   0.269E-02    0.758E-03
DAV:   7    -0.388281333381E+03   -0.16403E-05   -0.19009E-05 26632   0.108E-02
  19 F= -.38828133E+03 E0= -.38828133E+03  d E =-.198331E-02  mag=    60.0000
       N       E                     dE             d eps       ncg     rms          rms(c)
DAV:   1    -0.388086426054E+03    0.19491E+00   -0.40313E+01 41600   0.172E+01    0.191E+00
DAV:   2    -0.388289814966E+03   -0.20339E+00   -0.19594E+00 38536   0.298E+00    0.861E-01
DAV:   3    -0.388293175090E+03   -0.33601E-02   -0.38078E-02 45224   0.418E-01    0.397E-01
DAV:   4    -0.388292442443E+03    0.73265E-03   -0.31655E-03 53496   0.111E-01    0.298E-01
DAV:   5    -0.388291496118E+03    0.94633E-03   -0.77260E-04 46560   0.123E-01    0.142E-01
DAV:   6    -0.388291423164E+03    0.72954E-04   -0.92217E-04 47544   0.770E-02    0.286E-02
DAV:   7    -0.388291437824E+03   -0.14659E-04   -0.16606E-04 41448   0.294E-02    0.185E-02
DAV:   8    -0.388291438906E+03   -0.10824E-05   -0.12665E-05 23704   0.107E-02
  20 F= -.38829144E+03 E0= -.38829144E+03  d E =-.101055E-01  mag=    60.0000
       N       E                     dE             d eps       ncg     rms          rms(c)
DAV:   1    -0.388199461368E+03    0.91976E-01   -0.11014E+01 41840   0.110E+01    0.151E+00
DAV:   2    -0.388296366079E+03   -0.96905E-01   -0.90382E-01 39072   0.195E+00    0.667E-01
DAV:   3    -0.388299468601E+03   -0.31025E-02   -0.23249E-02 45720   0.317E-01    0.279E-01
DAV:   4    -0.388299260878E+03    0.20772E-03   -0.16918E-03 55976   0.838E-02    0.213E-01
DAV:   5    -0.388298871689E+03    0.38919E-03   -0.24997E-04 46520   0.922E-02    0.116E-01
DAV:   6    -0.388298756741E+03    0.11495E-03   -0.35659E-04 50056   0.991E-02    0.238E-02
DAV:   7    -0.388298773874E+03   -0.17133E-04   -0.30612E-04 44568   0.431E-02    0.223E-02
DAV:   8    -0.388298771521E+03    0.23532E-05   -0.20228E-05 28432   0.113E-02
  21 F= -.38829877E+03 E0= -.38829877E+03  d E =-.733262E-02  mag=    60.0000
       N       E                     dE             d eps       ncg     rms          rms(c)
DAV:   1    -0.388293977910E+03    0.47960E-02   -0.37053E-01 41952   0.236E+00    0.351E-01
DAV:   2    -0.388298660359E+03   -0.46824E-02   -0.43996E-02 39200   0.431E-01    0.154E-01
DAV:   3    -0.388298827644E+03   -0.16728E-03   -0.13320E-03 45432   0.830E-02    0.686E-02
DAV:   4    -0.388298812514E+03    0.15130E-04   -0.87616E-05 46288   0.233E-02    0.511E-02
DAV:   5    -0.388298784295E+03    0.28219E-04   -0.15330E-05 31336   0.308E-02    0.248E-02
DAV:   6    -0.388298775405E+03    0.88902E-05   -0.24454E-05 39056   0.314E-02
  22 F= -.38829878E+03 E0= -.38829878E+03  d E =-.388410E-05  mag=    60.0000
       N       E                     dE             d eps       ncg     rms          rms(c)
DAV:   1    -0.388296549018E+03    0.22353E-02   -0.24888E-01 41840   0.164E+00    0.218E-01
DAV:   2    -0.388298565347E+03   -0.20163E-02   -0.19476E-02 39392   0.298E-01    0.958E-02
DAV:   3    -0.388298619163E+03   -0.53816E-04   -0.53023E-04 45920   0.541E-02    0.461E-02
DAV:   4    -0.388298608411E+03    0.10752E-04   -0.32787E-05 35304   0.170E-02    0.337E-02
DAV:   5    -0.388298590296E+03    0.18116E-04   -0.93550E-06 28152   0.280E-02    0.153E-02
DAV:   6    -0.388298585247E+03    0.50485E-05   -0.18408E-05 32208   0.248E-02
  23 F= -.38829859E+03 E0= -.38829859E+03  d E =0.190158E-03  mag=    60.0000
       N       E                     dE             d eps       ncg     rms          rms(c)
DAV:   1    -0.388298046360E+03    0.54394E-03   -0.11483E-01 41392   0.932E-01    0.987E-02
DAV:   2    -0.388298589265E+03   -0.54290E-03   -0.53454E-03 39112   0.161E-01    0.437E-02
DAV:   3    -0.388298597914E+03   -0.86482E-05   -0.10991E-04 43880   0.235E-02    0.219E-02
DAV:   4    -0.388298595079E+03    0.28351E-05   -0.70790E-06 22928   0.716E-03
  24 F= -.38829860E+03 E0= -.38829860E+03  d E =-.983130E-05  mag=    60.0000
       N       E                     dE             d eps       ncg     rms          rms(c)
DAV:   1    -0.388290910309E+03    0.76876E-02   -0.17661E+00 41960   0.357E+00    0.370E-01
DAV:   2    -0.388298975329E+03   -0.80650E-02   -0.78509E-02 38392   0.609E-01    0.168E-01
DAV:   3    -0.388299089314E+03   -0.11399E-03   -0.15249E-03 45968   0.843E-02    0.815E-02
DAV:   4    -0.388299052297E+03    0.37017E-04   -0.13025E-04 51592   0.240E-02    0.583E-02
DAV:   5    -0.388299011397E+03    0.40900E-04   -0.43730E-05 38064   0.310E-02    0.203E-02
DAV:   6    -0.388299013370E+03   -0.19731E-05   -0.42120E-05 37392   0.151E-02
  25 F= -.38829901E+03 E0= -.38829901E+03  d E =-.418292E-03  mag=    60.0000
       N       E                     dE             d eps       ncg     rms          rms(c)
DAV:   1    -0.388288257360E+03    0.10754E-01   -0.19972E+00 42432   0.422E+00    0.496E-01
DAV:   2    -0.388300449957E+03   -0.12193E-01   -0.11569E-01 38352   0.730E-01    0.218E-01
DAV:   3    -0.388300752508E+03   -0.30255E-03   -0.26442E-03 45664   0.106E-01    0.947E-02
DAV:   4    -0.388300719294E+03    0.33214E-04   -0.19943E-04 53104   0.264E-02    0.705E-02
DAV:   5    -0.388300671925E+03    0.47370E-04   -0.44115E-05 37264   0.304E-02    0.305E-02
DAV:   6    -0.388300671185E+03    0.73944E-06   -0.45915E-05 38704   0.171E-02
  26 F= -.38830067E+03 E0= -.38830067E+03  d E =-.165781E-02  mag=    60.0000
       N       E                     dE             d eps       ncg     rms          rms(c)
DAV:   1    -0.388054831968E+03    0.24584E+00   -0.29850E+01 41808   0.180E+01    0.238E+00
DAV:   2    -0.388300811391E+03   -0.24598E+00   -0.23103E+00 38704   0.320E+00    0.107E+00
DAV:   3    -0.388308141303E+03   -0.73299E-02   -0.58361E-02 46184   0.522E-01    0.451E-01
DAV:   4    -0.388307498291E+03    0.64301E-03   -0.43734E-03 54360   0.145E-01    0.339E-01
DAV:   5    -0.388306432260E+03    0.10660E-02   -0.64620E-04 50584   0.161E-01    0.180E-01
DAV:   6    -0.388306108873E+03    0.32339E-03   -0.94086E-04 50456   0.172E-01    0.396E-02
DAV:   7    -0.388306154861E+03   -0.45988E-04   -0.91014E-04 44768   0.750E-02    0.362E-02
DAV:   8    -0.388306147586E+03    0.72746E-05   -0.78083E-05 45072   0.205E-02
  27 F= -.38830615E+03 E0= -.38830615E+03  d E =-.547640E-02  mag=    60.0000
       N       E                     dE             d eps       ncg     rms          rms(c)
DAV:   1    -0.388246216035E+03    0.59939E-01   -0.35342E+00 41824   0.811E+00    0.130E+00
DAV:   2    -0.388306635055E+03   -0.60419E-01   -0.56265E-01 39288   0.149E+00    0.572E-01
DAV:   3    -0.388309052591E+03   -0.24175E-02   -0.18706E-02 45800   0.316E-01    0.249E-01
DAV:   4    -0.388308855769E+03    0.19682E-03   -0.12982E-03 54256   0.910E-02    0.188E-01
DAV:   5    -0.388308445972E+03    0.40980E-03   -0.18311E-04 49488   0.114E-01    0.103E-01
DAV:   6    -0.388308223817E+03    0.22215E-03   -0.32460E-04 50952   0.157E-01    0.290E-02
DAV:   7    -0.388308242050E+03   -0.18233E-04   -0.57277E-04 45184   0.614E-02    0.255E-02
DAV:   8    -0.388308240018E+03    0.20328E-05   -0.73701E-05 43296   0.182E-02
  28 F= -.38830824E+03 E0= -.38830824E+03  d E =-.209243E-02  mag=    60.0000
       N       E                     dE             d eps       ncg     rms          rms(c)
DAV:   1    -0.388306563338E+03    0.16787E-02   -0.10346E-01 42464   0.123E+00    0.191E-01
DAV:   2    -0.388307954926E+03   -0.13916E-02   -0.12836E-02 39312   0.220E-01    0.833E-02
DAV:   3    -0.388308008092E+03   -0.53166E-04   -0.38680E-04 45880   0.393E-02    0.356E-02
DAV:   4    -0.388308004577E+03    0.35150E-05   -0.21388E-05 30696   0.996E-03
  29 F= -.38830800E+03 E0= -.38830800E+03  d E =0.235441E-03  mag=    60.0000
       N       E                     dE             d eps       ncg     rms          rms(c)
DAV:   1    -0.388302002828E+03    0.60053E-02   -0.66887E-01 42016   0.249E+00    0.305E-01
DAV:   2    -0.388306489224E+03   -0.44864E-02   -0.43275E-02 39024   0.439E-01    0.141E-01
DAV:   3    -0.388306590177E+03   -0.10095E-03   -0.10729E-03 46928   0.711E-02    0.678E-02
DAV:   4    -0.388306567267E+03    0.22910E-04   -0.79356E-05 48400   0.225E-02    0.482E-02
DAV:   5    -0.388306536405E+03    0.30861E-04   -0.18628E-05 34032   0.347E-02    0.180E-02
DAV:   6    -0.388306533820E+03    0.25852E-05   -0.32785E-05 41224   0.221E-02
  30 F= -.38830653E+03 E0= -.38830653E+03  d E =0.147076E-02  mag=    60.0000
       N       E                     dE             d eps       ncg     rms          rms(c)
DAV:   1    -0.388301957674E+03    0.45787E-02   -0.61895E-01 42016   0.233E+00    0.273E-01
DAV:   2    -0.388305663659E+03   -0.37060E-02   -0.35537E-02 38472   0.407E-01    0.119E-01
DAV:   3    -0.388305751822E+03   -0.88163E-04   -0.81318E-04 45664   0.589E-02    0.541E-02
DAV:   4    -0.388305740066E+03    0.11756E-04   -0.56436E-05 41832   0.152E-02    0.396E-02
DAV:   5    -0.388305725715E+03    0.14351E-04   -0.14471E-05 24992   0.179E-02    0.166E-02
DAV:   6    -0.388305726060E+03   -0.34503E-06   -0.15372E-05 22480   0.946E-03
  31 F= -.38830573E+03 E0= -.38830573E+03  d E =0.807760E-03  mag=    60.0000
       N       E                     dE             d eps       ncg     rms          rms(c)
DAV:   1    -0.388287120399E+03    0.18605E-01   -0.30694E+00 42016   0.520E+00    0.620E-01
DAV:   2    -0.388306085233E+03   -0.18965E-01   -0.18023E-01 38296   0.904E-01    0.271E-01
DAV:   3    -0.388306570880E+03   -0.48565E-03   -0.42416E-03 45832   0.133E-01    0.119E-01
DAV:   4    -0.388306522239E+03    0.48641E-04   -0.31640E-04 53832   0.329E-02    0.906E-02
DAV:   5    -0.388306447487E+03    0.74752E-04   -0.67209E-05 39280   0.376E-02    0.416E-02
DAV:   6    -0.388306444467E+03    0.30206E-05   -0.73981E-05 42728   0.225E-02
  32 F= -.38830644E+03 E0= -.38830644E+03  d E =-.718407E-03  mag=    60.0000
       N       E                     dE             d eps       ncg     rms          rms(c)
DAV:   1    -0.387964919422E+03    0.34153E+00   -0.67533E+01 41800   0.227E+01    0.250E+00
DAV:   2    -0.388309849903E+03   -0.34493E+00   -0.33491E+00 38480   0.396E+00    0.115E+00
DAV:   3    -0.388315368090E+03   -0.55182E-02   -0.65490E-02 45952   0.550E-01    0.533E-01
DAV:   4    -0.388313965814E+03    0.14023E-02   -0.57838E-03 53520   0.156E-01    0.380E-01
DAV:   5    -0.388312506409E+03    0.14594E-02   -0.14842E-03 46848   0.164E-01    0.157E-01
DAV:   6    -0.388312499666E+03    0.67432E-05   -0.13694E-03 47808   0.846E-02    0.380E-02
DAV:   7    -0.388312513752E+03   -0.14086E-04   -0.16188E-04 43184   0.303E-02    0.240E-02
DAV:   8    -0.388312514233E+03   -0.48077E-06   -0.14734E-05 25328   0.116E-02
  33 F= -.38831251E+03 E0= -.38831251E+03  d E =-.606977E-02  mag=    60.0000
       N       E                     dE             d eps       ncg     rms          rms(c)
DAV:   1    -0.388108432983E+03    0.20408E+00   -0.22357E+01 42056   0.157E+01    0.213E+00
DAV:   2    -0.388299158617E+03   -0.19073E+00   -0.18286E+00 39304   0.284E+00    0.986E-01
DAV:   3    -0.388304183908E+03   -0.50253E-02   -0.52358E-02 49144   0.519E-01    0.453E-01
DAV:   4    -0.388303133183E+03    0.10507E-02   -0.43539E-03 54912   0.177E-01    0.316E-01
DAV:   5    -0.388301558955E+03    0.15742E-02   -0.72879E-04 50792   0.239E-01    0.145E-01
DAV:   6    -0.388301076018E+03    0.48294E-03   -0.13149E-03 50136   0.219E-01    0.435E-02
DAV:   7    -0.388301137304E+03   -0.61286E-04   -0.15765E-03 45136   0.988E-02    0.495E-02
DAV:   8    -0.388301120344E+03    0.16960E-04   -0.16174E-04 50416   0.262E-02    0.335E-02
DAV:   9    -0.388301083622E+03    0.36722E-04   -0.80261E-06 29328   0.327E-02    0.231E-02
DAV:  10    -0.388301047866E+03    0.35757E-04   -0.42882E-05 42552   0.561E-02    0.850E-03
DAV:  11    -0.388301041726E+03    0.61398E-05   -0.39890E-05 42848   0.351E-02
  34 F= -.38830104E+03 E0= -.38830104E+03  d E =0.114725E-01  mag=    60.0000
       N       E                     dE             d eps       ncg     rms          rms(c)
DAV:   1    -0.388185044238E+03    0.11600E+00   -0.10667E+01 42408   0.123E+01    0.191E+00
DAV:   2    -0.388317393628E+03   -0.13235E+00   -0.12839E+00 39480   0.227E+00    0.894E-01
DAV:   3    -0.388321598646E+03   -0.42050E-02   -0.46527E-02 48584   0.510E-01    0.414E-01
DAV:   4    -0.388320457339E+03    0.11413E-02   -0.35285E-03 54456   0.193E-01    0.276E-01
DAV:   5    -0.388318760421E+03    0.16969E-02   -0.60360E-04 54616   0.281E-01    0.119E-01
DAV:   6    -0.388318116211E+03    0.64421E-03   -0.13389E-03 50192   0.259E-01    0.441E-02
DAV:   7    -0.388318179528E+03   -0.63317E-04   -0.20469E-03 45136   0.118E-01    0.525E-02
DAV:   8    -0.388318164285E+03    0.15243E-04   -0.25713E-04 49656   0.302E-02    0.413E-02
DAV:   9    -0.388318116739E+03    0.47545E-04   -0.12231E-05 31048   0.367E-02    0.288E-02
DAV:  10    -0.388318063738E+03    0.53002E-04   -0.65879E-05 46752   0.745E-02    0.101E-02
DAV:  11    -0.388318058134E+03    0.56035E-05   -0.61342E-05 43544   0.433E-02
  35 F= -.38831806E+03 E0= -.38831806E+03  d E =-.170164E-01  mag=    60.0000
       N       E                     dE             d eps       ncg     rms          rms(c)
DAV:   1    -0.388311591540E+03    0.64722E-02   -0.54804E-01 41808   0.277E+00    0.389E-01
DAV:   2    -0.388317639610E+03   -0.60481E-02   -0.56941E-02 39536   0.505E-01    0.172E-01
DAV:   3    -0.388317843135E+03   -0.20352E-03   -0.15818E-03 45440   0.905E-02    0.766E-02
DAV:   4    -0.388317826230E+03    0.16904E-04   -0.10601E-04 46608   0.243E-02    0.582E-02
DAV:   5    -0.388317792949E+03    0.33281E-04   -0.19304E-05 33096   0.317E-02    0.294E-02
DAV:   6    -0.388317782419E+03    0.10530E-04   -0.28701E-05 40544   0.338E-02    0.832E-03
DAV:   7    -0.388317783900E+03   -0.14811E-05   -0.36568E-05 37968   0.153E-02
  36 F= -.38831778E+03 E0= -.38831778E+03  d E =0.274234E-03  mag=    60.0000
       N       E                     dE             d eps       ncg     rms          rms(c)
DAV:   1    -0.388304353031E+03    0.13429E-01   -0.14273E+00 41600   0.412E+00    0.563E-01
DAV:   2    -0.388317553796E+03   -0.13201E-01   -0.12617E-01 39112   0.753E-01    0.248E-01
DAV:   3    -0.388317972711E+03   -0.41892E-03   -0.36906E-03 47392   0.138E-01    0.114E-01
DAV:   4    -0.388317918056E+03    0.54655E-04   -0.25890E-04 54936   0.421E-02    0.833E-02
DAV:   5    -0.388317822991E+03    0.95065E-04   -0.35939E-05 41952   0.595E-02    0.423E-02
DAV:   6    -0.388317786541E+03    0.36450E-04   -0.77687E-05 46872   0.638E-02    0.129E-02
DAV:   7    -0.388317791071E+03   -0.45304E-05   -0.11569E-04 44208   0.267E-02    0.122E-02
DAV:   8    -0.388317789951E+03    0.11198E-05   -0.10234E-05 22848   0.819E-03
  37 F= -.38831779E+03 E0= -.38831779E+03  d E =-.605072E-05  mag=    60.0000
       N       E                     dE             d eps       ncg     rms          rms(c)
DAV:   1    -0.388314089089E+03    0.37020E-02   -0.72792E-01 41752   0.263E+00    0.320E-01
DAV:   2    -0.388318917707E+03   -0.48286E-02   -0.46475E-02 39088   0.464E-01    0.141E-01
DAV:   3    -0.388319039273E+03   -0.12157E-03   -0.11986E-03 47656   0.764E-02    0.657E-02
DAV:   4    -0.388319018202E+03    0.21072E-04   -0.89843E-05 49280   0.237E-02    0.476E-02
DAV:   5    -0.388318986364E+03    0.31837E-04   -0.14707E-05 30760   0.333E-02    0.218E-02
DAV:   6    -0.388318979245E+03    0.71195E-05   -0.30924E-05 41552   0.287E-02
  38 F= -.38831898E+03 E0= -.38831898E+03  d E =-.118929E-02  mag=    60.0000
       N       E                     dE             d eps       ncg     rms          rms(c)
DAV:   1    -0.388297001205E+03    0.21985E-01   -0.45910E+00 41496   0.623E+00    0.707E-01
DAV:   2    -0.388322762021E+03   -0.25761E-01   -0.24936E-01 38320   0.109E+00    0.311E-01
DAV:   3    -0.388323319977E+03   -0.55796E-03   -0.56473E-03 46504   0.157E-01    0.147E-01
DAV:   4    -0.388323217644E+03    0.10233E-03   -0.43322E-04 55568   0.430E-02    0.104E-01
DAV:   5    -0.388323107723E+03    0.10992E-03   -0.13228E-04 44912   0.513E-02    0.397E-02
DAV:   6    -0.388323111335E+03   -0.36121E-05   -0.10333E-04 46384   0.240E-02    0.112E-02
DAV:   7    -0.388323111494E+03   -0.15875E-06   -0.13993E-05 22880   0.106E-02
  39 F= -.38832311E+03 E0= -.38832311E+03  d E =-.413225E-02  mag=    60.0000
       N       E                     dE             d eps       ncg     rms          rms(c)
DAV:   1    -0.388067793331E+03    0.25532E+00   -0.55495E+01 41392   0.201E+01    0.213E+00
DAV:   2    -0.388330063320E+03   -0.26227E+00   -0.25850E+00 38424   0.351E+00    0.985E-01
DAV:   3    -0.388333459224E+03   -0.33959E-02   -0.49449E-02 46208   0.485E-01    0.482E-01
DAV:   4    -0.388332080020E+03    0.13792E-02   -0.49702E-03 54608   0.156E-01    0.330E-01
DAV:   5    -0.388330908057E+03    0.11720E-02   -0.13344E-03 47648   0.165E-01    0.118E-01
DAV:   6    -0.388330950075E+03   -0.42018E-04   -0.11674E-03 47368   0.812E-02    0.371E-02
DAV:   7    -0.388330956174E+03   -0.60989E-05   -0.15352E-04 45416   0.308E-02    0.245E-02
DAV:   8    -0.388330952547E+03    0.36264E-05   -0.13974E-05 26144   0.131E-02
  40 F= -.38833095E+03 E0= -.38833095E+03  d E =-.784105E-02  mag=    60.0000
       N       E                     dE             d eps       ncg     rms          rms(c)
DAV:   1    -0.387740479704E+03    0.59048E+00   -0.38547E+01 42528   0.245E+01    0.371E+00
DAV:   2    -0.388245722993E+03   -0.50524E+00   -0.48535E+00 39728   0.449E+00    0.181E+00
DAV:   3    -0.388261382003E+03   -0.15659E-01   -0.16481E-01 47488   0.100E+00    0.781E-01
DAV:   4    -0.388257197883E+03    0.41841E-02   -0.12985E-02 55536   0.377E-01    0.513E-01
DAV:   5    -0.388250982871E+03    0.62150E-02   -0.22982E-03 52584   0.555E-01    0.219E-01
DAV:   6    -0.388248512077E+03    0.24708E-02   -0.49950E-03 50192   0.509E-01    0.836E-02
DAV:   7    -0.388248719963E+03   -0.20789E-03   -0.74460E-03 45376   0.228E-01    0.984E-02
DAV:   8    -0.388248660624E+03    0.59338E-04   -0.97162E-04 50888   0.592E-02    0.767E-02
DAV:   9    -0.388248483768E+03    0.17686E-03   -0.84082E-05 48744   0.679E-02    0.492E-02
DAV:  10    -0.388248291274E+03    0.19249E-03   -0.18895E-04 51784   0.148E-01    0.229E-02
DAV:  11    -0.388248280273E+03    0.11000E-04   -0.23934E-04 46056   0.694E-02    0.276E-02
DAV:  12    -0.388248294827E+03   -0.14554E-04   -0.18832E-04 43280   0.265E-02    0.109E-02
DAV:  13    -0.388248294711E+03    0.11619E-06   -0.58836E-06 23960   0.991E-03
  41 F= -.38824829E+03 E0= -.38824829E+03  d E =0.826578E-01  mag=    60.0000
       N       E                     dE             d eps       ncg     rms          rms(c)
DAV:   1    -0.388171330026E+03    0.76965E-01   -0.11108E+01 42392   0.130E+01    0.198E+00
DAV:   2    -0.388313818667E+03   -0.14249E+00   -0.13615E+00 39552   0.237E+00    0.922E-01
DAV:   3    -0.388318651775E+03   -0.48331E-02   -0.50117E-02 49472   0.538E-01    0.402E-01
DAV:   4    -0.388317457602E+03    0.11942E-02   -0.38538E-03 54944   0.203E-01    0.261E-01
DAV:   5    -0.388315655903E+03    0.18017E-02   -0.67927E-04 54480   0.306E-01    0.107E-01
DAV:   6    -0.388315028003E+03    0.62790E-03   -0.14443E-03 50328   0.259E-01    0.448E-02
DAV:   7    -0.388315084323E+03   -0.56320E-04   -0.20463E-03 45336   0.120E-01    0.527E-02
DAV:   8    -0.388315063444E+03    0.20878E-04   -0.26250E-04 50920   0.327E-02    0.420E-02
DAV:   9    -0.388315005307E+03    0.58137E-04   -0.12867E-05 32464   0.476E-02    0.270E-02
DAV:  10    -0.388314958022E+03    0.47285E-04   -0.71092E-05 46664   0.736E-02    0.973E-03
DAV:  11    -0.388314955506E+03    0.25156E-05   -0.66813E-05 44928   0.386E-02
  42 F= -.38831496E+03 E0= -.38831496E+03  d E =-.666608E-01  mag=    60.0000
       N       E                     dE             d eps       ncg     rms          rms(c)
DAV:   1    -0.388270831850E+03    0.44126E-01   -0.39016E+00 42688   0.809E+00    0.127E+00
DAV:   2    -0.388327484971E+03   -0.56653E-01   -0.54054E-01 39568   0.148E+00    0.571E-01
DAV:   3    -0.388329544657E+03   -0.20597E-02   -0.20632E-02 47512   0.351E-01    0.255E-01
DAV:   4    -0.388329084870E+03    0.45979E-03   -0.16148E-03 54352   0.127E-01    0.173E-01
DAV:   5    -0.388328345691E+03    0.73918E-03   -0.24356E-04 53208   0.184E-01    0.805E-02
DAV:   6    -0.388327999771E+03    0.34592E-03   -0.55417E-04 50536   0.188E-01    0.309E-02
DAV:   7    -0.388328024149E+03   -0.24378E-04   -0.97640E-04 45504   0.841E-02    0.318E-02
DAV:   8    -0.388328021129E+03    0.30203E-05   -0.14857E-04 46184   0.226E-02    0.280E-02
DAV:   9    -0.388328000511E+03    0.20618E-04   -0.86454E-06 28584   0.246E-02    0.182E-02
DAV:  10    -0.388327977933E+03    0.22578E-04   -0.24459E-05 37384   0.477E-02    0.758E-03
DAV:  11    -0.388327976237E+03    0.16962E-05   -0.32696E-05 40136   0.282E-02
  43 F= -.38832798E+03 E0= -.38832798E+03  d E =-.130207E-01  mag=    60.0000
       N       E                     dE             d eps       ncg     rms          rms(c)
DAV:   1    -0.388328864663E+03   -0.88673E-03   -0.15270E-01 41656   0.115E+00    0.141E-01
DAV:   2    -0.388329804568E+03   -0.93990E-03   -0.95776E-03 39256   0.211E-01    0.651E-02
DAV:   3    -0.388329817528E+03   -0.12960E-04   -0.21456E-04 49352   0.330E-02    0.348E-02
DAV:   4    -0.388329808690E+03    0.88379E-05   -0.15696E-05 33176   0.135E-02
  44 F= -.38832981E+03 E0= -.38832981E+03  d E =-.183245E-02  mag=    60.0000
       N       E                     dE             d eps       ncg     rms          rms(c)
DAV:   1    -0.388328103825E+03    0.17137E-02   -0.12117E+00 41120   0.311E+00    0.364E-01
DAV:   2    -0.388334729791E+03   -0.66260E-02   -0.67982E-02 39096   0.561E-01    0.171E-01
DAV:   3    -0.388334807484E+03   -0.77692E-04   -0.13885E-03 50816   0.795E-02    0.928E-02
DAV:   4    -0.388334751693E+03    0.55790E-04   -0.12863E-04 49048   0.302E-02    0.571E-02
DAV:   5    -0.388334725974E+03    0.25719E-04   -0.46650E-05 41112   0.294E-02    0.145E-02
DAV:   6    -0.388334728440E+03   -0.24656E-05   -0.28955E-05 36312   0.128E-02
  45 F= -.38833473E+03 E0= -.38833473E+03  d E =-.491975E-02  mag=    60.0000
       N       E                     dE             d eps       ncg     rms          rms(c)
DAV:   1    -0.388333651027E+03    0.10749E-02   -0.37045E-01 42040   0.178E+00    0.195E-01
DAV:   2    -0.388335640547E+03   -0.19895E-02   -0.19665E-02 38976   0.314E-01    0.878E-02
DAV:   3    -0.388335673673E+03   -0.33126E-04   -0.43176E-04 46352   0.467E-02    0.438E-02
DAV:   4    -0.388335662178E+03    0.11496E-04   -0.31395E-05 36632   0.153E-02    0.300E-02
DAV:   5    -0.388335651250E+03    0.10927E-04   -0.11420E-05 26456   0.205E-02    0.962E-03
DAV:   6    -0.388335651651E+03   -0.40059E-06   -0.15395E-05 25072   0.111E-02
  46 F= -.38833565E+03 E0= -.38833565E+03  d E =-.923211E-03  mag=    60.0000
       N       E                     dE             d eps       ncg     rms          rms(c)
DAV:   1    -0.388286150132E+03    0.49501E-01   -0.73178E+00 41552   0.829E+00    0.981E-01
DAV:   2    -0.388333002021E+03   -0.46852E-01   -0.45305E-01 38280   0.148E+00    0.434E-01
DAV:   3    -0.388334140821E+03   -0.11388E-02   -0.10459E-02 45672   0.215E-01    0.203E-01
DAV:   4    -0.388333971326E+03    0.16950E-03   -0.81647E-04 56064   0.587E-02    0.144E-01
DAV:   5    -0.388333798551E+03    0.17277E-03   -0.21823E-04 44736   0.666E-02    0.522E-02
DAV:   6    -0.388333809893E+03   -0.11342E-04   -0.15429E-04 47088   0.268E-02    0.141E-02
DAV:   7    -0.388333809297E+03    0.59672E-06   -0.14657E-05 23936   0.124E-02
  47 F= -.38833381E+03 E0= -.38833381E+03  d E =0.184235E-02  mag=    60.0000
       N       E                     dE             d eps       ncg     rms          rms(c)
DAV:   1    -0.387600052611E+03    0.73376E+00   -0.10499E+02 42432   0.314E+01    0.372E+00
DAV:   2    -0.388277916670E+03   -0.67786E+00   -0.66469E+00 38560   0.567E+00    0.179E+00
DAV:   3    -0.388290646973E+03   -0.12730E-01   -0.15132E-01 46880   0.865E-01    0.840E-01
DAV:   4    -0.388287162916E+03    0.34841E-02   -0.13361E-02 56104   0.285E-01    0.569E-01
DAV:   5    -0.388283502371E+03    0.36605E-02   -0.29363E-03 50984   0.360E-01    0.194E-01
DAV:   6    -0.388283328183E+03    0.17419E-03   -0.37461E-03 48000   0.218E-01    0.654E-02
DAV:   7    -0.388283378482E+03   -0.50299E-04   -0.15099E-03 45272   0.952E-02    0.620E-02
DAV:   8    -0.388283343243E+03    0.35238E-04   -0.15169E-04 49432   0.272E-02    0.368E-02
DAV:   9    -0.388283281906E+03    0.61338E-04   -0.32726E-05 40272   0.539E-02    0.174E-02
DAV:  10    -0.388283250305E+03    0.31601E-04   -0.39894E-05 43920   0.563E-02    0.112E-02
DAV:  11    -0.388283245820E+03    0.44850E-05   -0.60956E-05 42480   0.321E-02
  48 F= -.38828325E+03 E0= -.38828325E+03  d E =0.505635E-01  mag=    60.0000
       N       E                     dE             d eps       ncg     rms          rms(c)
DAV:   1    -0.388086336173E+03    0.19691E+00   -0.28842E+01 42152   0.180E+01    0.237E+00
DAV:   2    -0.388326143202E+03   -0.23981E+00   -0.23819E+00 39480   0.331E+00    0.111E+00
DAV:   3    -0.388330078214E+03   -0.39350E-02   -0.58378E-02 47352   0.621E-01    0.544E-01
DAV:   4    -0.388327985993E+03    0.20922E-02   -0.55673E-03 54624   0.251E-01    0.360E-01
DAV:   5    -0.388325524290E+03    0.24617E-02   -0.11578E-03 52704   0.357E-01    0.121E-01
DAV:   6    -0.388325087550E+03    0.43674E-03   -0.23703E-03 47672   0.232E-01    0.506E-02
DAV:   7    -0.388325152388E+03   -0.64838E-04   -0.19453E-03 46176   0.109E-01    0.640E-02
DAV:   8    -0.388325116014E+03    0.36373E-04   -0.18745E-04 53072   0.289E-02    0.425E-02
DAV:   9    -0.388325037382E+03    0.78633E-04   -0.23383E-05 37136   0.558E-02    0.262E-02
DAV:  10    -0.388324982459E+03    0.54922E-04   -0.74093E-05 46608   0.793E-02    0.100E-02
DAV:  11    -0.388324982204E+03    0.25582E-06   -0.88937E-05 44048   0.333E-02
  49 F= -.38832498E+03 E0= -.38832498E+03  d E =-.417364E-01  mag=    60.0000
       N       E                     dE             d eps       ncg     rms          rms(c)
DAV:   1    -0.388320692706E+03    0.42898E-02   -0.40062E-01 42520   0.259E+00    0.410E-01
DAV:   2    -0.388326609081E+03   -0.59164E-02   -0.56196E-02 39568   0.476E-01    0.185E-01
DAV:   3    -0.388326825566E+03   -0.21649E-03   -0.20991E-03 48128   0.110E-01    0.823E-02
DAV:   4    -0.388326783604E+03    0.41962E-04   -0.14621E-04 52352   0.376E-02    0.554E-02
DAV:   5    -0.388326712639E+03    0.70964E-04   -0.20288E-05 37856   0.549E-02    0.259E-02
DAV:   6    -0.388326679206E+03    0.33433E-04   -0.58149E-05 44568   0.585E-02    0.965E-03
DAV:   7    -0.388326682017E+03   -0.28109E-05   -0.94558E-05 41840   0.251E-02
  50 F= -.38832668E+03 E0= -.38832668E+03  d E =-.169981E-02  mag=    60.0000
       N       E                     dE             d eps       ncg     rms          rms(c)
DAV:   1    -0.388323908456E+03    0.27707E-02   -0.78160E-01 41976   0.286E+00    0.404E-01
DAV:   2    -0.388330735853E+03   -0.68274E-02   -0.66038E-02 38592   0.519E-01    0.181E-01
DAV:   3    -0.388330941156E+03   -0.20530E-03   -0.17684E-03 48416   0.831E-02    0.854E-02
DAV:   4    -0.388330913708E+03    0.27448E-04   -0.12273E-04 51344   0.250E-02    0.591E-02
DAV:   5    -0.388330882409E+03    0.31299E-04   -0.26233E-05 39024   0.325E-02    0.206E-02
DAV:   6    -0.388330881832E+03    0.57761E-06   -0.29953E-05 41104   0.182E-02
  51 F= -.38833088E+03 E0= -.38833088E+03  d E =-.419981E-02  mag=    60.0000
       N       E                     dE             d eps       ncg     rms          rms(c)
DAV:   1    -0.388319366279E+03    0.11516E-01   -0.19186E+00 41992   0.458E+00    0.647E-01
DAV:   2    -0.388336733646E+03   -0.17367E-01   -0.16762E-01 38304   0.836E-01    0.289E-01
DAV:   3    -0.388337265564E+03   -0.53192E-03   -0.43344E-03 48392   0.127E-01    0.135E-01
DAV:   4    -0.388337203585E+03    0.61979E-04   -0.30629E-04 53744   0.349E-02    0.922E-02
DAV:   5    -0.388337144114E+03    0.59472E-04   -0.84577E-05 44920   0.380E-02    0.302E-02
DAV:   6    -0.388337147464E+03   -0.33502E-05   -0.43762E-05 42112   0.151E-02
  52 F= -.38833715E+03 E0= -.38833715E+03  d E =-.626563E-02  mag=    60.0000
       N       E                     dE             d eps       ncg     rms          rms(c)
DAV:   1    -0.388335153671E+03    0.19904E-02   -0.33270E-01 41856   0.194E+00    0.250E-01
DAV:   2    -0.388337869009E+03   -0.27153E-02   -0.25929E-02 38736   0.349E-01    0.109E-01
DAV:   3    -0.388337957149E+03   -0.88140E-04   -0.68633E-04 46824   0.537E-02    0.497E-02
DAV:   4    -0.388337948770E+03    0.83783E-05   -0.38013E-05 35040   0.134E-02
  53 F= -.38833795E+03 E0= -.38833795E+03  d E =-.801307E-03  mag=    60.0000
       N       E                     dE             d eps       ncg     rms          rms(c)
DAV:   1    -0.388325329287E+03    0.12628E-01   -0.18071E+00 42008   0.392E+00    0.439E-01
DAV:   2    -0.388335306218E+03   -0.99769E-02   -0.97849E-02 38288   0.690E-01    0.199E-01
DAV:   3    -0.388335491491E+03   -0.18527E-03   -0.21161E-03 46672   0.972E-02    0.984E-02
DAV:   4    -0.388335439528E+03    0.51964E-04   -0.17642E-04 54184   0.296E-02    0.665E-02
DAV:   5    -0.388335399003E+03    0.40525E-04   -0.56738E-05 41096   0.334E-02    0.214E-02
DAV:   6    -0.388335402747E+03   -0.37443E-05   -0.41339E-05 39096   0.137E-02
  54 F= -.38833540E+03 E0= -.38833540E+03  d E =0.254602E-02  mag=    60.0000
       N       E                     dE             d eps       ncg     rms          rms(c)
DAV:   1    -0.388059328794E+03    0.27607E+00   -0.41083E+01 42016   0.198E+01    0.230E+00
DAV:   2    -0.388319739415E+03   -0.26041E+00   -0.25183E+00 38480   0.352E+00    0.104E+00
DAV:   3    -0.388325680019E+03   -0.59406E-02   -0.56436E-02 45936   0.508E-01    0.482E-01
DAV:   4    -0.388324681686E+03    0.99833E-03   -0.44714E-03 55440   0.144E-01    0.339E-01
DAV:   5    -0.388323708309E+03    0.97338E-03   -0.11396E-03 48416   0.155E-01    0.128E-01
DAV:   6    -0.388323748492E+03   -0.40184E-04   -0.87634E-04 48024   0.688E-02    0.330E-02
DAV:   7    -0.388323750915E+03   -0.24224E-05   -0.10866E-04 45192   0.287E-02    0.199E-02
DAV:   8    -0.388323749683E+03    0.12321E-05   -0.94397E-06 22904   0.111E-02
  55 F= -.38832375E+03 E0= -.38832375E+03  d E =0.116531E-01  mag=    60.0000
       N       E                     dE             d eps       ncg     rms          rms(c)
DAV:   1    -0.388026560342E+03    0.29719E+00   -0.21296E+01 41608   0.174E+01    0.267E+00
DAV:   2    -0.388296899949E+03   -0.27034E+00   -0.25256E+00 39064   0.317E+00    0.120E+00
DAV:   3    -0.388307151043E+03   -0.10251E-01   -0.78521E-02 47200   0.598E-01    0.503E-01
DAV:   4    -0.388306376094E+03    0.77495E-03   -0.51546E-03 55512   0.164E-01    0.386E-01
DAV:   5    -0.388304915410E+03    0.14607E-02   -0.69324E-04 52424   0.199E-01    0.211E-01
DAV:   6    -0.388304282918E+03    0.63249E-03   -0.12312E-03 51136   0.238E-01    0.498E-02
DAV:   7    -0.388304333457E+03   -0.50539E-04   -0.15955E-03 45136   0.102E-01    0.448E-02
DAV:   8    -0.388304325368E+03    0.80893E-05   -0.19794E-04 47432   0.294E-02    0.308E-02
DAV:   9    -0.388304299860E+03    0.25508E-04   -0.15996E-05 31664   0.243E-02    0.206E-02
DAV:  10    -0.388304270281E+03    0.29579E-04   -0.30188E-05 39872   0.572E-02    0.969E-03
DAV:  11    -0.388304269844E+03    0.43632E-06   -0.46414E-05 41824   0.236E-02
  56 F= -.38830427E+03 E0= -.38830427E+03  d E =0.194798E-01  mag=    60.0000
       N       E                     dE             d eps       ncg     rms          rms(c)
DAV:   1    -0.388274900009E+03    0.29370E-01   -0.22934E+00 42464   0.669E+00    0.111E+00
DAV:   2    -0.388317413323E+03   -0.42513E-01   -0.39396E-01 39408   0.121E+00    0.487E-01
DAV:   3    -0.388319266236E+03   -0.18529E-02   -0.14698E-02 48152   0.275E-01    0.205E-01
DAV:   4    -0.388319098058E+03    0.16818E-03   -0.10203E-03 54344   0.836E-02    0.148E-01
DAV:   5    -0.388318772099E+03    0.32596E-03   -0.11960E-04 49384   0.105E-01    0.771E-02
DAV:   6    -0.388318591481E+03    0.18062E-03   -0.25372E-04 48528   0.132E-01    0.223E-02
DAV:   7    -0.388318603706E+03   -0.12225E-04   -0.45317E-04 45208   0.549E-02    0.224E-02
DAV:   8    -0.388318602278E+03    0.14279E-05   -0.65347E-05 43640   0.165E-02
  57 F= -.38831860E+03 E0= -.38831860E+03  d E =-.143324E-01  mag=    60.0000
       N       E                     dE             d eps       ncg     rms          rms(c)
DAV:   1    -0.388305372286E+03    0.13231E-01   -0.99956E-01 42328   0.434E+00    0.701E-01
DAV:   2    -0.388322745790E+03   -0.17374E-01   -0.16171E-01 39192   0.791E-01    0.306E-01
DAV:   3    -0.388323485606E+03   -0.73982E-03   -0.55875E-03 47512   0.168E-01    0.129E-01
DAV:   4    -0.388323428349E+03    0.57258E-04   -0.38675E-04 55376   0.505E-02    0.954E-02
DAV:   5    -0.388323307322E+03    0.12103E-03   -0.42114E-05 43336   0.654E-02    0.501E-02
DAV:   6    -0.388323241758E+03    0.65564E-04   -0.97845E-05 47072   0.821E-02    0.145E-02
DAV:   7    -0.388323246181E+03   -0.44233E-05   -0.16814E-04 44832   0.340E-02    0.143E-02
DAV:   8    -0.388323245596E+03    0.58476E-06   -0.22425E-05 31288   0.104E-02
  58 F= -.38832325E+03 E0= -.38832325E+03  d E =-.464332E-02  mag=    60.0000
       N       E                     dE             d eps       ncg     rms          rms(c)
DAV:   1    -0.388322719934E+03    0.52625E-03   -0.16760E-01 42120   0.162E+00    0.242E-01
DAV:   2    -0.388324945698E+03   -0.22258E-02   -0.20787E-02 39104   0.294E-01    0.104E-01
DAV:   3    -0.388325036791E+03   -0.91093E-04   -0.61364E-04 47032   0.505E-02    0.444E-02
DAV:   4    -0.388325032629E+03    0.41628E-05   -0.32441E-05 33104   0.122E-02
  59 F= -.38832503E+03 E0= -.38832503E+03  d E =-.178703E-02  mag=    60.0000
       N       E                     dE             d eps       ncg     rms          rms(c)
DAV:   1    -0.388311416374E+03    0.13620E-01   -0.13570E+00 41968   0.459E+00    0.666E-01
DAV:   2    -0.388328936994E+03   -0.17521E-01   -0.16410E-01 38392   0.836E-01    0.296E-01
DAV:   3    -0.388329603726E+03   -0.66673E-03   -0.46693E-03 47128   0.139E-01    0.131E-01
DAV:   4    -0.388329566624E+03    0.37102E-04   -0.29336E-04 54776   0.341E-02    0.962E-02
DAV:   5    -0.388329506327E+03    0.60297E-04   -0.71595E-05 44040   0.412E-02    0.397E-02
DAV:   6    -0.388329505934E+03    0.39316E-06   -0.46274E-05 45056   0.202E-02
  60 F= -.38832951E+03 E0= -.38832951E+03  d E =-.447331E-02  mag=    60.0000
       N       E                     dE             d eps       ncg     rms          rms(c)
DAV:   1    -0.388327684582E+03    0.18217E-02   -0.23059E-01 41600   0.153E+00    0.185E-01
DAV:   2    -0.388329274483E+03   -0.15899E-02   -0.15442E-02 38864   0.277E-01    0.818E-02
DAV:   3    -0.388329316393E+03   -0.41910E-04   -0.37943E-04 47088   0.419E-02    0.389E-02
DAV:   4    -0.388329309437E+03    0.69558E-05   -0.21908E-05 31376   0.115E-02
  61 F= -.38832931E+03 E0= -.38832931E+03  d E =0.196497E-03  mag=    60.0000
       N       E                     dE             d eps       ncg     rms          rms(c)
DAV:   1    -0.388322041687E+03    0.72747E-02   -0.91151E-01 42016   0.279E+00    0.315E-01
DAV:   2    -0.388327153501E+03   -0.51118E-02   -0.50233E-02 38376   0.491E-01    0.144E-01
DAV:   3    -0.388327245513E+03   -0.92012E-04   -0.10901E-03 46472   0.694E-02    0.713E-02
DAV:   4    -0.388327217773E+03    0.27740E-04   -0.95038E-05 50152   0.218E-02    0.479E-02
DAV:   5    -0.388327196773E+03    0.21000E-04   -0.27795E-05 36928   0.243E-02    0.147E-02
DAV:   6    -0.388327198715E+03   -0.19415E-05   -0.21697E-05 28288   0.103E-02
  62 F= -.38832720E+03 E0= -.38832720E+03  d E =0.211072E-02  mag=    60.0000
       N       E                     dE             d eps       ncg     rms          rms(c)
DAV:   1    -0.388256500972E+03    0.70696E-01   -0.98435E+00 42432   0.982E+00    0.114E+00
DAV:   2    -0.388319887552E+03   -0.63387E-01   -0.60959E-01 38520   0.173E+00    0.505E-01
DAV:   3    -0.388321397855E+03   -0.15103E-02   -0.13972E-02 45184   0.252E-01    0.232E-01
DAV:   4    -0.388321174119E+03    0.22374E-03   -0.10916E-03 56952   0.681E-02    0.164E-01
DAV:   5    -0.388320929666E+03    0.24445E-03   -0.29337E-04 47656   0.794E-02    0.580E-02
DAV:   6    -0.388320941415E+03   -0.11750E-04   -0.22004E-04 47512   0.351E-02    0.166E-02
DAV:   7    -0.388320941410E+03    0.53842E-08   -0.28761E-05 33600   0.152E-02
  63 F= -.38832094E+03 E0= -.38832094E+03  d E =0.625730E-02  mag=    60.0000
       N       E                     dE             d eps       ncg     rms          rms(c)
DAV:   1    -0.387684214157E+03    0.63673E+00   -0.62659E+01 42016   0.275E+01    0.367E+00
DAV:   2    -0.388245386684E+03   -0.56117E+00   -0.55247E+00 39256   0.507E+00    0.177E+00
DAV:   3    -0.388256514853E+03   -0.11128E-01   -0.15271E-01 49160   0.982E-01    0.814E-01
DAV:   4    -0.388251598924E+03    0.49159E-02   -0.14276E-02 54096   0.378E-01    0.540E-01
DAV:   5    -0.388245657047E+03    0.59419E-02   -0.26385E-03 52480   0.502E-01    0.209E-01
DAV:   6    -0.388244132383E+03    0.15247E-02   -0.54198E-03 48896   0.383E-01    0.759E-02
DAV:   7    -0.388244301685E+03   -0.16930E-03   -0.52246E-03 45512   0.175E-01    0.977E-02
DAV:   8    -0.388244223247E+03    0.78438E-04   -0.52478E-04 54488   0.444E-02    0.668E-02
DAV:   9    -0.388244049285E+03    0.17396E-03   -0.58900E-05 47368   0.727E-02    0.426E-02
DAV:  10    -0.388243911833E+03    0.13745E-03   -0.14377E-04 48136   0.111E-01    0.153E-02
DAV:  11    -0.388243902647E+03    0.91853E-05   -0.18493E-04 44696   0.536E-02    0.182E-02
DAV:  12    -0.388243912092E+03   -0.94443E-05   -0.11654E-04 43200   0.205E-02    0.959E-03
DAV:  13    -0.388243910998E+03    0.10939E-05   -0.41925E-06 23464   0.973E-03
  64 F= -.38824391E+03 E0= -.38824391E+03  d E =0.770304E-01  mag=    60.0000
       N       E                     dE             d eps       ncg     rms          rms(c)
DAV:   1    -0.388044502142E+03    0.19941E+00   -0.20743E+01 42496   0.183E+01    0.282E+00
DAV:   2    -0.388329610324E+03   -0.28511E+00   -0.27382E+00 39736   0.335E+00    0.132E+00
DAV:   3    -0.388339280940E+03   -0.96706E-02   -0.99667E-02 50072   0.763E-01    0.570E-01
DAV:   4    -0.388336869127E+03    0.24118E-02   -0.74088E-03 53608   0.283E-01    0.381E-01
DAV:   5    -0.388333278678E+03    0.35904E-02   -0.12274E-03 54840   0.400E-01    0.169E-01
DAV:   6    -0.388331810333E+03    0.14683E-02   -0.28549E-03 50176   0.375E-01    0.621E-02
DAV:   7    -0.388331913581E+03   -0.10325E-03   -0.42441E-03 45128   0.170E-01    0.725E-02
DAV:   8    -0.388331875358E+03    0.38223E-04   -0.56910E-04 50640   0.477E-02    0.583E-02
DAV:   9    -0.388331767043E+03    0.10832E-03   -0.37648E-05 42624   0.584E-02    0.376E-02
DAV:  10    -0.388331658277E+03    0.10877E-03   -0.11927E-04 49928   0.115E-01    0.150E-02
DAV:  11    -0.388331657297E+03    0.98009E-06   -0.15623E-04 44512   0.497E-02    0.195E-02
DAV:  12    -0.388331665383E+03   -0.80861E-05   -0.95981E-05 43008   0.193E-02
  65 F= -.38833167E+03 E0= -.38833167E+03  d E =-.877544E-01  mag=    60.0000
       N       E                     dE             d eps       ncg     rms          rms(c)
DAV:   1    -0.388318036349E+03    0.13621E-01   -0.11748E+00 41624   0.429E+00    0.649E-01
DAV:   2    -0.388333412312E+03   -0.15376E-01   -0.14781E-01 39288   0.794E-01    0.285E-01
DAV:   3    -0.388333966447E+03   -0.55414E-03   -0.52339E-03 49512   0.168E-01    0.131E-01
DAV:   4    -0.388333867207E+03    0.99240E-04   -0.36757E-04 54592   0.549E-02    0.919E-02
DAV:   5    -0.388333723419E+03    0.14379E-03   -0.59632E-05 43584   0.770E-02    0.407E-02
DAV:   6    -0.388333676470E+03    0.46949E-04   -0.12044E-04 47040   0.682E-02    0.135E-02
DAV:   7    -0.388333682293E+03   -0.58235E-05   -0.16127E-04 44200   0.324E-02    0.166E-02
DAV:   8    -0.388333680834E+03    0.14595E-05   -0.15062E-05 26872   0.797E-03
  66 F= -.38833368E+03 E0= -.38833368E+03  d E =-.201545E-02  mag=    60.0000
       N       E                     dE             d eps       ncg     rms          rms(c)
DAV:   1    -0.388329808030E+03    0.38743E-02   -0.31989E-01 41760   0.222E+00    0.325E-01
DAV:   2    -0.388333829851E+03   -0.40218E-02   -0.37588E-02 39192   0.405E-01    0.141E-01
DAV:   3    -0.388333991161E+03   -0.16131E-03   -0.11721E-03 48000   0.717E-02    0.625E-02
DAV:   4    -0.388333981213E+03    0.99473E-05   -0.70179E-05 43128   0.174E-02
  67 F= -.38833398E+03 E0= -.38833398E+03  d E =-.300380E-03  mag=    60.0000
       N       E                     dE             d eps       ncg     rms          rms(c)
DAV:   1    -0.388322262821E+03    0.11728E-01   -0.96881E-01 41600   0.370E+00    0.523E-01
DAV:   2    -0.388333241096E+03   -0.10978E-01   -0.10464E-01 39288   0.682E-01    0.240E-01
DAV:   3    -0.388333603706E+03   -0.36261E-03   -0.32590E-03 47256   0.129E-01    0.113E-01
DAV:   4    -0.388333552075E+03    0.51631E-04   -0.24351E-04 55344   0.405E-02    0.837E-02
DAV:   5    -0.388333463204E+03    0.88871E-04   -0.45593E-05 41288   0.606E-02    0.358E-02
DAV:   6    -0.388333444650E+03    0.18553E-04   -0.79375E-05 47072   0.488E-02    0.117E-02
DAV:   7    -0.388333448769E+03   -0.41188E-05   -0.80572E-05 42752   0.218E-02
  68 F= -.38833345E+03 E0= -.38833345E+03  d E =0.532444E-03  mag=    60.0000
       N       E                     dE             d eps       ncg     rms          rms(c)
DAV:   1    -0.388326675175E+03    0.67695E-02   -0.63955E-01 41856   0.260E+00    0.334E-01
DAV:   2    -0.388331573147E+03   -0.48980E-02   -0.47793E-02 38856   0.469E-01    0.149E-01
DAV:   3    -0.388331699280E+03   -0.12613E-03   -0.12002E-03 49728   0.712E-02    0.715E-02
DAV:   4    -0.388331674805E+03    0.24475E-04   -0.89386E-05 47424   0.212E-02    0.490E-02
DAV:   5    -0.388331653456E+03    0.21349E-04   -0.26106E-05 38016   0.237E-02    0.167E-02
DAV:   6    -0.388331654548E+03   -0.10914E-05   -0.18674E-05 29328   0.102E-02
  69 F= -.38833165E+03 E0= -.38833165E+03  d E =0.179422E-02  mag=    60.0000
       N       E                     dE             d eps       ncg     rms          rms(c)
DAV:   1    -0.388322870109E+03    0.87833E-02   -0.69353E-01 42016   0.287E+00    0.384E-01
DAV:   2    -0.388329096096E+03   -0.62260E-02   -0.59599E-02 38448   0.519E-01    0.169E-01
DAV:   3    -0.388329294669E+03   -0.19857E-03   -0.15894E-03 47792   0.807E-02    0.769E-02
DAV:   4    -0.388329273834E+03    0.20835E-04   -0.11027E-04 50232   0.220E-02    0.539E-02
DAV:   5    -0.388329249969E+03    0.23866E-04   -0.23477E-05 35232   0.256E-02    0.204E-02
DAV:   6    -0.388329250296E+03   -0.32703E-06   -0.22348E-05 33136   0.131E-02
  70 F= -.38832925E+03 E0= -.38832925E+03  d E =0.240425E-02  mag=    60.0000
       N       E                     dE             d eps       ncg     rms          rms(c)
DAV:   1    -0.388315985210E+03    0.13265E-01   -0.13343E+00 42000   0.380E+00    0.473E-01
DAV:   2    -0.388326045041E+03   -0.10060E-01   -0.96922E-02 38536   0.685E-01    0.210E-01
DAV:   3    -0.388326318435E+03   -0.27339E-03   -0.24521E-03 45984   0.106E-01    0.984E-02
DAV:   4    -0.388326278684E+03    0.39750E-04   -0.17400E-04 55520   0.306E-02    0.681E-02
DAV:   5    -0.388326232956E+03    0.45729E-04   -0.37674E-05 40064   0.389E-02    0.245E-02
DAV:   6    -0.388326231996E+03    0.95955E-06   -0.46243E-05 43424   0.225E-02
  71 F= -.38832623E+03 E0= -.38832623E+03  d E =0.301830E-02  mag=    60.0000
       N       E                     dE             d eps       ncg     rms          rms(c)
DAV:   1    -0.388197777084E+03    0.12846E+00   -0.16057E+01 42016   0.131E+01    0.159E+00
DAV:   2    -0.388314797465E+03   -0.11702E+00   -0.11165E+00 38272   0.233E+00    0.708E-01
DAV:   3    -0.388318072724E+03   -0.32753E-02   -0.28119E-02 46688   0.358E-01    0.316E-01
DAV:   4    -0.388317698730E+03    0.37399E-03   -0.20948E-03 56624   0.975E-02    0.228E-01
DAV:   5    -0.388317215663E+03    0.48307E-03   -0.42421E-04 48976   0.117E-01    0.924E-02
DAV:   6    -0.388317202591E+03    0.13072E-04   -0.46190E-04 48560   0.699E-02    0.228E-02
DAV:   7    -0.388317208968E+03   -0.63770E-05   -0.15775E-04 45200   0.324E-02    0.199E-02
DAV:   8    -0.388317206049E+03    0.29189E-05   -0.96036E-06 22880   0.859E-03
  72 F= -.38831721E+03 E0= -.38831721E+03  d E =0.902595E-02  mag=    60.0000
       N       E                     dE             d eps       ncg     rms          rms(c)
DAV:   1    -0.388045124206E+03    0.27208E+00   -0.38910E+01 42016   0.198E+01    0.237E+00
DAV:   2    -0.388311537418E+03   -0.26641E+00   -0.25751E+00 38552   0.357E+00    0.108E+00
DAV:   3    -0.388317603583E+03   -0.60662E-02   -0.60241E-02 47352   0.544E-01    0.495E-01
DAV:   4    -0.388316552621E+03    0.10510E-02   -0.50473E-03 56384   0.156E-01    0.353E-01
DAV:   5    -0.388315281383E+03    0.12712E-02   -0.10840E-03 49080   0.189E-01    0.142E-01
DAV:   6    -0.388315210914E+03    0.70469E-04   -0.11741E-03 48760   0.118E-01    0.376E-02
DAV:   7    -0.388315231280E+03   -0.20367E-04   -0.47970E-04 45240   0.562E-02    0.349E-02
DAV:   8    -0.388315223741E+03    0.75397E-05   -0.39527E-05 38672   0.147E-02
  73 F= -.38831522E+03 E0= -.38831522E+03  d E =0.198231E-02  mag=    60.0000
       N       E                     dE             d eps       ncg     rms          rms(c)
DAV:   1    -0.387976353477E+03    0.33888E+00   -0.57859E+01 41984   0.230E+01    0.263E+00
DAV:   2    -0.388327202019E+03   -0.35085E+00   -0.34691E+00 38432   0.412E+00    0.121E+00
DAV:   3    -0.388333011707E+03   -0.58097E-02   -0.75311E-02 48496   0.622E-01    0.594E-01
DAV:   4    -0.388330860141E+03    0.21516E-02   -0.71828E-03 54560   0.223E-01    0.397E-01
DAV:   5    -0.388329047744E+03    0.18124E-02   -0.15983E-03 49496   0.258E-01    0.131E-01
DAV:   6    -0.388329051549E+03   -0.38050E-05   -0.19720E-03 46472   0.134E-01    0.443E-02
DAV:   7    -0.388329055775E+03   -0.42262E-05   -0.47375E-04 46192   0.542E-02    0.401E-02
DAV:   8    -0.388329039452E+03    0.16323E-04   -0.48765E-05 41896   0.186E-02    0.236E-02
DAV:   9    -0.388329014203E+03    0.25249E-04   -0.76082E-06 29696   0.360E-02    0.114E-02
DAV:  10    -0.388329001763E+03    0.12440E-04   -0.18981E-05 34456   0.346E-02    0.621E-03
DAV:  11    -0.388329001133E+03    0.62944E-06   -0.32957E-05 38904   0.196E-02
  74 F= -.38832900E+03 E0= -.38832900E+03  d E =-.137774E-01  mag=    60.0000
       N       E                     dE             d eps       ncg     rms          rms(c)
DAV:   1    -0.387983115795E+03    0.34589E+00   -0.29882E+01 42016   0.199E+01    0.290E+00
DAV:   2    -0.388310977582E+03   -0.32786E+00   -0.30961E+00 39640   0.361E+00    0.135E+00
DAV:   3    -0.388320669945E+03   -0.96924E-02   -0.84239E-02 46440   0.682E-01    0.589E-01
DAV:   4    -0.388319090349E+03    0.15796E-02   -0.64004E-03 55064   0.213E-01    0.430E-01
DAV:   5    -0.388316474942E+03    0.26154E-02   -0.11297E-03 50944   0.296E-01    0.210E-01
DAV:   6    -0.388315452581E+03    0.10224E-02   -0.19837E-03 49776   0.314E-01    0.588E-02
DAV:   7    -0.388315539837E+03   -0.87255E-04   -0.28573E-03 44912   0.143E-01    0.603E-02
DAV:   8    -0.388315528334E+03    0.11503E-04   -0.37953E-04 47056   0.377E-02    0.472E-02
DAV:   9    -0.388315475458E+03    0.52875E-04   -0.31366E-05 40368   0.349E-02    0.321E-02
DAV:  10    -0.388315407467E+03    0.67992E-04   -0.59930E-05 45176   0.849E-02    0.158E-02
DAV:  11    -0.388315397058E+03    0.10408E-04   -0.72373E-05 44248   0.502E-02    0.184E-02
DAV:  12    -0.388315403616E+03   -0.65580E-05   -0.95264E-05 42768   0.201E-02
  75 F= -.38831540E+03 E0= -.38831540E+03  d E =0.135975E-01  mag=    60.0000
       N       E                     dE             d eps       ncg     rms          rms(c)
DAV:   1    -0.388097305038E+03    0.21809E+00   -0.19514E+01 42016   0.168E+01    0.242E+00
DAV:   2    -0.388323430403E+03   -0.22613E+00   -0.21308E+00 39440   0.307E+00    0.110E+00
DAV:   3    -0.388331242343E+03   -0.78119E-02   -0.66361E-02 46456   0.609E-01    0.479E-01
DAV:   4    -0.388330361474E+03    0.88087E-03   -0.51908E-03 54288   0.188E-01    0.356E-01
DAV:   5    -0.388328664379E+03    0.16971E-02   -0.65616E-04 53240   0.235E-01    0.189E-01
DAV:   6    -0.388327795539E+03    0.86884E-03   -0.13180E-03 50056   0.296E-01    0.523E-02
DAV:   7    -0.388327863503E+03   -0.67964E-04   -0.22005E-03 44784   0.122E-01    0.485E-02
DAV:   8    -0.388327852562E+03    0.10941E-04   -0.29441E-04 45680   0.376E-02    0.375E-02
DAV:   9    -0.388327814601E+03    0.37960E-04   -0.26670E-05 37504   0.304E-02    0.249E-02
DAV:  10    -0.388327765202E+03    0.49400E-04   -0.31758E-05 40080   0.729E-02    0.110E-02
DAV:  11    -0.388327759828E+03    0.53731E-05   -0.60924E-05 42824   0.389E-02
  76 F= -.38832776E+03 E0= -.38832776E+03  d E =-.123562E-01  mag=    60.0000
       N       E                     dE             d eps       ncg     rms          rms(c)
DAV:   1    -0.388308090322E+03    0.19675E-01   -0.25350E+00 41320   0.491E+00    0.621E-01
DAV:   2    -0.388325596049E+03   -0.17506E-01   -0.17385E-01 38768   0.891E-01    0.280E-01
DAV:   3    -0.388325966832E+03   -0.37078E-03   -0.40504E-03 50408   0.132E-01    0.140E-01
DAV:   4    -0.388325851984E+03    0.11485E-03   -0.32740E-04 52816   0.443E-02    0.905E-02
DAV:   5    -0.388325781210E+03    0.70775E-04   -0.10390E-04 45328   0.459E-02    0.284E-02
DAV:   6    -0.388325786140E+03   -0.49304E-05   -0.62947E-05 44664   0.185E-02
  77 F= -.38832579E+03 E0= -.38832579E+03  d E =0.197369E-02  mag=    60.0000
       N       E                     dE             d eps       ncg     rms          rms(c)
DAV:   1    -0.388302737748E+03    0.23043E-01   -0.17760E+00 42016   0.503E+00    0.736E-01
DAV:   2    -0.388323580246E+03   -0.20842E-01   -0.19869E-01 39112   0.929E-01    0.326E-01
DAV:   3    -0.388324306607E+03   -0.72636E-03   -0.64155E-03 48464   0.181E-01    0.148E-01
DAV:   4    -0.388324201632E+03    0.10497E-03   -0.43153E-04 55480   0.566E-02    0.105E-01
DAV:   5    -0.388324032085E+03    0.16955E-03   -0.67650E-05 44384   0.799E-02    0.487E-02
DAV:   6    -0.388323973567E+03    0.58518E-04   -0.13572E-04 49576   0.761E-02    0.160E-02
DAV:   7    -0.388323980645E+03   -0.70779E-05   -0.18776E-04 44664   0.339E-02    0.172E-02
DAV:   8    -0.388323978665E+03    0.19796E-05   -0.15030E-05 26824   0.888E-03
  78 F= -.38832398E+03 E0= -.38832398E+03  d E =0.180747E-02  mag=    60.0000
       N       E                     dE             d eps       ncg     rms          rms(c)
DAV:   1    -0.388297611269E+03    0.26369E-01   -0.33099E+00 42352   0.614E+00    0.819E-01
DAV:   2    -0.388326024425E+03   -0.28413E-01   -0.26958E-01 39144   0.109E+00    0.369E-01
DAV:   3    -0.388326863914E+03   -0.83949E-03   -0.80050E-03 47712   0.200E-01    0.163E-01
DAV:   4    -0.388326726002E+03    0.13791E-03   -0.61435E-04 57064   0.626E-02    0.113E-01
DAV:   5    -0.388326509530E+03    0.21647E-03   -0.10025E-04 45696   0.865E-02    0.509E-02
DAV:   6    -0.388326444303E+03    0.65227E-04   -0.17314E-04 49024   0.801E-02    0.167E-02
DAV:   7    -0.388326452611E+03   -0.83078E-05   -0.22375E-04 45320   0.378E-02    0.190E-02
DAV:   8    -0.388326450495E+03    0.21163E-05   -0.20303E-05 30080   0.944E-03
  79 F= -.38832645E+03 E0= -.38832645E+03  d E =-.247183E-02  mag=    60.0000
       N       E                     dE             d eps       ncg     rms          rms(c)
DAV:   1    -0.388250838409E+03    0.75614E-01   -0.14110E+01 41600   0.107E+01    0.120E+00
DAV:   2    -0.388326775379E+03   -0.75937E-01   -0.73440E-01 38512   0.187E+00    0.532E-01
DAV:   3    -0.388328302464E+03   -0.15271E-02   -0.16169E-02 47496   0.272E-01    0.252E-01
DAV:   4    -0.388327992039E+03    0.31043E-03   -0.12853E-03 54872   0.755E-02    0.183E-01
DAV:   5    -0.388327623725E+03    0.36831E-03   -0.33135E-04 46624   0.933E-02    0.751E-02
DAV:   6    -0.388327616070E+03    0.76544E-05   -0.35876E-04 48088   0.543E-02    0.193E-02
DAV:   7    -0.388327621286E+03   -0.52157E-05   -0.86936E-05 42720   0.235E-02
  80 F= -.38832762E+03 E0= -.38832762E+03  d E =-.117079E-02  mag=    60.0000
       N       E                     dE             d eps       ncg     rms          rms(c)
DAV:   1    -0.387987779939E+03    0.33984E+00   -0.73681E+01 41592   0.227E+01    0.235E+00
DAV:   2    -0.388318548641E+03   -0.33077E+00   -0.32288E+00 38320   0.388E+00    0.107E+00
DAV:   3    -0.388322622882E+03   -0.40742E-02   -0.63798E-02 46920   0.560E-01    0.525E-01
DAV:   4    -0.388321120928E+03    0.15020E-02   -0.63239E-03 53192   0.163E-01    0.380E-01
DAV:   5    -0.388319411874E+03    0.17091E-02   -0.13854E-03 46584   0.164E-01    0.172E-01
DAV:   6    -0.388319264110E+03    0.14776E-03   -0.16642E-03 48232   0.105E-01    0.399E-02
DAV:   7    -0.388319293071E+03   -0.28961E-04   -0.30582E-04 44488   0.388E-02    0.294E-02
DAV:   8    -0.388319291961E+03    0.11100E-05   -0.23751E-05 30032   0.127E-02
  81 F= -.38831929E+03 E0= -.38831929E+03  d E =0.832933E-02  mag=    60.0000
       N       E                     dE             d eps       ncg     rms          rms(c)
DAV:   1    -0.384683002412E+03    0.36363E+01   -0.23811E+02 42576   0.550E+01    0.877E+00
DAV:   2    -0.387770355654E+03   -0.30874E+01   -0.30101E+01 39320   0.106E+01    0.512E+00
DAV:   3    -0.387851837743E+03   -0.81482E-01   -0.87996E-01 49800   0.211E+00    0.206E+00
DAV:   4    -0.387831487461E+03    0.20350E-01   -0.74886E-02 52912   0.758E-01    0.136E+00
DAV:   5    -0.387806751640E+03    0.24736E-01   -0.11259E-02 52280   0.820E-01    0.657E-01
DAV:   6    -0.387795245910E+03    0.11506E-01   -0.21895E-02 49688   0.863E-01    0.161E-01
DAV:   7    -0.387795956314E+03   -0.71040E-03   -0.25497E-02 45720   0.375E-01    0.195E-01
DAV:   8    -0.387795692145E+03    0.26417E-03   -0.26290E-03 54536   0.908E-02    0.135E-01
DAV:   9    -0.387795072478E+03    0.61967E-03   -0.38715E-04 52032   0.105E-01    0.800E-02
DAV:  10    -0.387794515849E+03    0.55663E-03   -0.58379E-04 48944   0.189E-01    0.459E-02
DAV:  11    -0.387794471288E+03    0.44561E-04   -0.68635E-04 46264   0.886E-02    0.414E-02
DAV:  12    -0.387794494007E+03   -0.22719E-04   -0.39168E-04 43288   0.387E-02    0.187E-02
DAV:  13    -0.387794487340E+03    0.66672E-05   -0.22966E-05 37008   0.196E-02
  82 F= -.38779449E+03 E0= -.38779449E+03  d E =0.524805E+00  mag=    60.0000
       N       E                     dE             d eps       ncg     rms          rms(c)
DAV:   1    -0.387261920534E+03    0.53257E+00   -0.77556E+01 42336   0.312E+01    0.509E+00
DAV:   2    -0.388252936777E+03   -0.99102E+00   -0.97043E+00 39928   0.579E+00    0.258E+00
DAV:   3    -0.388280240175E+03   -0.27303E-01   -0.30494E-01 51336   0.124E+00    0.110E+00
DAV:   4    -0.388271293147E+03    0.89470E-02   -0.23459E-02 53504   0.477E-01    0.724E-01
DAV:   5    -0.388260337188E+03    0.10956E-01   -0.46526E-03 51984   0.636E-01    0.303E-01
DAV:   6    -0.388256647762E+03    0.36894E-02   -0.95202E-03 49592   0.545E-01    0.994E-02
DAV:   7    -0.388256901685E+03   -0.25392E-03   -0.10511E-02 46160   0.256E-01    0.129E-01
DAV:   8    -0.388256746729E+03    0.15496E-03   -0.11676E-03 54760   0.657E-02    0.949E-02
DAV:   9    -0.388256414554E+03    0.33218E-03   -0.13074E-04 52952   0.985E-02    0.586E-02
DAV:  10    -0.388256156193E+03    0.25836E-03   -0.30202E-04 49256   0.152E-01    0.257E-02
DAV:  11    -0.388256139960E+03    0.16233E-04   -0.34843E-04 45568   0.750E-02    0.296E-02
DAV:  12    -0.388256158009E+03   -0.18049E-04   -0.23409E-04 43440   0.291E-02    0.135E-02
DAV:  13    -0.388256156714E+03    0.12950E-05   -0.68464E-06 26704   0.131E-02
  83 F= -.38825616E+03 E0= -.38825616E+03  d E =-.461669E+00  mag=    60.0000
       N       E                     dE             d eps       ncg     rms          rms(c)
DAV:   1    -0.388064218160E+03    0.19194E+00   -0.19991E+01 42088   0.167E+01    0.259E+00
DAV:   2    -0.388308980525E+03   -0.24476E+00   -0.23694E+00 39328   0.301E+00    0.122E+00
DAV:   3    -0.388317484584E+03   -0.85041E-02   -0.82781E-02 49728   0.635E-01    0.553E-01
DAV:   4    -0.388315661831E+03    0.18228E-02   -0.58747E-03 53024   0.216E-01    0.370E-01
DAV:   5    -0.388313302775E+03    0.23591E-02   -0.11283E-03 53592   0.291E-01    0.159E-01
DAV:   6    -0.388312568015E+03    0.73476E-03   -0.19443E-03 49384   0.249E-01    0.491E-02
DAV:   7    -0.388312631451E+03   -0.63437E-04   -0.22423E-03 45432   0.121E-01    0.657E-02
DAV:   8    -0.388312612481E+03    0.18970E-04   -0.25429E-04 51576   0.278E-02    0.479E-02
DAV:   9    -0.388312557132E+03    0.55349E-04   -0.22734E-05 36848   0.343E-02    0.326E-02
DAV:  10    -0.388312496893E+03    0.60240E-04   -0.75259E-05 46936   0.708E-02    0.131E-02
DAV:  11    -0.388312488295E+03    0.85974E-05   -0.63370E-05 44400   0.410E-02
  84 F= -.38831249E+03 E0= -.38831249E+03  d E =-.563316E-01  mag=    60.0000
       N       E                     dE             d eps       ncg     rms          rms(c)
DAV:   1    -0.388305380998E+03    0.71159E-02   -0.13387E+00 41912   0.391E+00    0.558E-01
DAV:   2    -0.388317894823E+03   -0.12514E-01   -0.11729E-01 40512   0.682E-01    0.247E-01
DAV:   3    -0.388318333927E+03   -0.43910E-03   -0.37239E-03 51904   0.129E-01    0.111E-01
DAV:   4    -0.388318296735E+03    0.37193E-04   -0.25910E-04 50984   0.346E-02    0.853E-02
DAV:   5    -0.388318227120E+03    0.69614E-04   -0.41419E-05 38640   0.412E-02    0.461E-02
DAV:   6    -0.388318203239E+03    0.23881E-04   -0.67358E-05 44408   0.463E-02    0.108E-02
DAV:   7    -0.388318206189E+03   -0.29493E-05   -0.63954E-05 42896   0.193E-02
  85 F= -.38831821E+03 E0= -.38831821E+03  d E =-.571789E-02  mag=    60.0000
       N       E                     dE             d eps       ncg     rms          rms(c)
DAV:   1    -0.388291899355E+03    0.26304E-01   -0.35008E+00 41600   0.618E+00    0.885E-01
DAV:   2    -0.388323323437E+03   -0.31424E-01   -0.29634E-01 41056   0.108E+00    0.390E-01
DAV:   3    -0.388324329527E+03   -0.10061E-02   -0.92144E-03 49992   0.222E-01    0.173E-01
DAV:   4    -0.388324202469E+03    0.12706E-03   -0.69555E-04 51384   0.670E-02    0.133E-01
DAV:   5    -0.388323955669E+03    0.24680E-03   -0.11056E-04 47336   0.891E-02    0.739E-02
DAV:   6    -0.388323824358E+03    0.13131E-03   -0.21581E-04 48712   0.119E-01    0.229E-02
DAV:   7    -0.388323836468E+03   -0.12110E-04   -0.33500E-04 44736   0.443E-02    0.185E-02
DAV:   8    -0.388323834223E+03    0.22445E-05   -0.40108E-05 38176   0.140E-02
  86 F= -.38832383E+03 E0= -.38832383E+03  d E =-.562803E-02  mag=    60.0000
       N       E                     dE             d eps       ncg     rms          rms(c)
DAV:   1    -0.388321214383E+03    0.26221E-02   -0.52418E-01 41376   0.198E+00    0.239E-01
DAV:   2    -0.388324059181E+03   -0.28448E-02   -0.27798E-02 40624   0.341E-01    0.107E-01
DAV:   3    -0.388324116301E+03   -0.57120E-04   -0.73055E-04 53288   0.557E-02    0.521E-02
DAV:   4    -0.388324098390E+03    0.17911E-04   -0.52526E-05 42736   0.177E-02    0.376E-02
DAV:   5    -0.388324075735E+03    0.22655E-04   -0.15188E-05 31480   0.264E-02    0.158E-02
DAV:   6    -0.388324073396E+03    0.23393E-05   -0.24707E-05 36480   0.172E-02
  87 F= -.38832407E+03 E0= -.38832407E+03  d E =-.239172E-03  mag=    60.0000
