       N       E                     dE             d eps       ncg     rms          rms(c)
DAV:   1     0.540505559681E+04    0.54051E+04   -0.23799E+05 30904   0.153E+03
DAV:   2     0.287130068075E+03   -0.51179E+04   -0.48657E+04 30520   0.452E+02
DAV:   3    -0.371151051099E+03   -0.65828E+03   -0.64281E+03 32552   0.173E+02
DAV:   4    -0.397864055009E+03   -0.26713E+02   -0.26153E+02 38792   0.396E+01
DAV:   5    -0.398791201080E+03   -0.92715E+00   -0.90668E+00 41504   0.660E+00    0.928E+01
DAV:   6    -0.296924885255E+03    0.10187E+03   -0.37438E+02 38792   0.658E+01    0.884E+01
DAV:   7    -0.318686567271E+03   -0.21762E+02   -0.31650E+02 37320   0.912E+01    0.786E+01
DAV:   8    -0.338090901774E+03   -0.19404E+02   -0.20178E+02 38520   0.543E+01    0.108E+02
DAV:   9    -0.290441007353E+03    0.47650E+02   -0.12441E+02 36704   0.333E+01    0.539E+01
DAV:  10    -0.284584416110E+03    0.58566E+01   -0.33974E+01 40480   0.212E+01    0.535E+01
DAV:  11    -0.294292036111E+03   -0.97076E+01   -0.72612E+01 40384   0.191E+01    0.550E+01
DAV:  12    -0.291528294981E+03    0.27637E+01   -0.47371E+01 38560   0.141E+01    0.427E+01
DAV:  13    -0.290832584403E+03    0.69571E+00   -0.70293E+00 39120   0.772E+00    0.278E+01
DAV:  14    -0.300744587124E+03   -0.99120E+01   -0.63803E+00 38064   0.651E+00    0.343E+01
DAV:  15    -0.306786244417E+03   -0.60417E+01   -0.22389E+01 39936   0.790E+00    0.303E+01
DAV:  16    -0.314433728174E+03   -0.76475E+01   -0.19463E+01 38848   0.668E+00    0.343E+01
DAV:  17    -0.317559948487E+03   -0.31262E+01   -0.34094E+01 38928   0.881E+00    0.240E+01
DAV:  18    -0.322415438648E+03   -0.48555E+01   -0.33391E+00 37776   0.481E+00    0.218E+01
DAV:  19    -0.323662057751E+03   -0.12466E+01   -0.39079E+00 38680   0.388E+00    0.189E+01
DAV:  20    -0.325109696805E+03   -0.14476E+01   -0.65131E-01 36088   0.244E+00    0.145E+01
DAV:  21    -0.326942740646E+03   -0.18330E+01   -0.10536E+00 38160   0.185E+00    0.173E+01
DAV:  22    -0.327420339147E+03   -0.47760E+00   -0.18831E-01 34872   0.116E+00    0.148E+01
DAV:  23    -0.328475735948E+03   -0.10554E+01   -0.42843E-01 38128   0.171E+00    0.119E+01
DAV:  24    -0.334204501190E+03   -0.57288E+01   -0.54645E+00 37224   0.472E+00    0.165E+01
DAV:  25    -0.335167954609E+03   -0.96345E+00   -0.11123E+00 36736   0.257E+00    0.138E+01
DAV:  26    -0.335347071274E+03   -0.17912E+00   -0.23596E-01 35680   0.127E+00    0.116E+01
DAV:  27    -0.335383329757E+03   -0.36258E-01   -0.37978E-02 34168   0.666E-01    0.114E+01
DAV:  28    -0.335478674787E+03   -0.95345E-01   -0.34082E-02 39976   0.455E-01    0.114E+01
DAV:  29    -0.335521314458E+03   -0.42640E-01   -0.19158E-02 40048   0.418E-01    0.103E+01
DAV:  30    -0.336044731745E+03   -0.52342E+00   -0.38869E-01 36976   0.151E+00    0.771E+00
DAV:  31    -0.336213874225E+03   -0.16914E+00   -0.22864E-01 37024   0.127E+00    0.666E+00
DAV:  32    -0.336344946385E+03   -0.13107E+00   -0.13885E-01 37944   0.105E+00    0.438E+00
DAV:  33    -0.336442584387E+03   -0.97638E-01   -0.15856E-01 40080   0.103E+00    0.441E+00
DAV:  34    -0.336491601808E+03   -0.49017E-01   -0.36558E-02 33600   0.553E-01    0.481E+00
DAV:  35    -0.336534850181E+03   -0.43248E-01   -0.32133E-02 37136   0.475E-01    0.408E+00
DAV:  36    -0.336562791724E+03   -0.27942E-01   -0.67379E-02 36728   0.558E-01    0.284E+00
DAV:  37    -0.336587682111E+03   -0.24890E-01   -0.23050E-02 34512   0.353E-01    0.201E+00
DAV:  38    -0.336610264239E+03   -0.22582E-01   -0.13265E-02 37440   0.329E-01    0.227E+00
DAV:  39    -0.336627288003E+03   -0.17024E-01   -0.17327E-02 36064   0.377E-01    0.157E+00
DAV:  40    -0.336646665938E+03   -0.19378E-01   -0.14662E-02 35704   0.327E-01    0.190E+00
DAV:  41    -0.336652516971E+03   -0.58510E-02   -0.11131E-02 39072   0.356E-01    0.107E+00
DAV:  42    -0.336654844659E+03   -0.23277E-02   -0.28429E-03 35624   0.153E-01    0.976E-01
DAV:  43    -0.336654935382E+03   -0.90723E-04   -0.41068E-04 35288   0.614E-02    0.990E-01
DAV:  44    -0.336654540598E+03    0.39478E-03   -0.67372E-05 29744   0.295E-02    0.101E+00
DAV:  45    -0.336655265677E+03   -0.72508E-03   -0.40047E-04 38312   0.732E-02    0.874E-01
DAV:  46    -0.336657359474E+03   -0.20938E-02   -0.37246E-03 37504   0.214E-01    0.730E-01
DAV:  47    -0.336657403288E+03   -0.43814E-04   -0.26292E-03 35264   0.138E-01    0.427E-01
DAV:  48    -0.336657701181E+03   -0.29789E-03   -0.11224E-03 37664   0.942E-02    0.451E-01
DAV:  49    -0.336657342244E+03    0.35894E-03   -0.59551E-04 37920   0.846E-02    0.267E-01
DAV:  50    -0.336657437578E+03   -0.95334E-04   -0.47843E-04 36448   0.548E-02    0.310E-01
DAV:  51    -0.336657333356E+03    0.10422E-03   -0.57715E-04 39000   0.702E-02    0.205E-01
DAV:  52    -0.336657370181E+03   -0.36825E-04   -0.20017E-04 35744   0.435E-02    0.174E-01
DAV:  53    -0.336657338809E+03    0.31372E-04   -0.12485E-04 31080   0.326E-02    0.134E-01
DAV:  54    -0.336657309713E+03    0.29096E-04   -0.57119E-05 24104   0.235E-02    0.699E-02
DAV:  55    -0.336657313120E+03   -0.34071E-05   -0.23946E-05 20816   0.165E-02
   1 F= -.33665731E+03 E0= -.33663744E+03  d E =-.336657E+03  mag=    20.0229
       N       E                     dE             d eps       ncg     rms          rms(c)
DAV:   1    -0.336753037366E+03   -0.95728E-01   -0.35090E-02 31752   0.330E-01    0.121E-01
DAV:   2    -0.336754656423E+03   -0.16191E-02   -0.86429E-03 39208   0.155E-01    0.121E+00
DAV:   3    -0.336752470163E+03    0.21863E-02   -0.68355E-03 38648   0.137E-01    0.177E-01
DAV:   4    -0.336753127512E+03   -0.65735E-03   -0.29760E-04 31784   0.481E-02    0.127E-01
DAV:   5    -0.336753160802E+03   -0.33290E-04   -0.17066E-04 27032   0.346E-02    0.122E-01
DAV:   6    -0.336753139806E+03    0.20996E-04   -0.13930E-04 23104   0.298E-02    0.821E-02
DAV:   7    -0.336753142423E+03   -0.26169E-05   -0.53870E-05 19856   0.191E-02
   2 F= -.33675314E+03 E0= -.33673326E+03  d E =-.958293E-01  mag=    20.0128
       N       E                     dE             d eps       ncg     rms          rms(c)
DAV:   1    -0.338633602044E+03   -0.18805E+01   -0.23901E+01 31816   0.858E+00    0.232E+00
DAV:   2    -0.339053598848E+03   -0.42000E+00   -0.26748E+00 36976   0.282E+00    0.140E+01
DAV:   3    -0.338675534310E+03    0.37806E+00   -0.34026E-01 40880   0.209E+00    0.253E+00
DAV:   4    -0.338753454443E+03   -0.77920E-01   -0.17263E-01 38040   0.899E-01    0.424E+00
DAV:   5    -0.338720628862E+03    0.32826E-01   -0.14889E-01 39984   0.732E-01    0.159E+00
DAV:   6    -0.338730425973E+03   -0.97971E-02   -0.45657E-02 40056   0.571E-01    0.246E+00
DAV:   7    -0.338730438019E+03   -0.12046E-04   -0.54480E-02 41400   0.599E-01    0.283E+00
DAV:   8    -0.338719440599E+03    0.10997E-01   -0.31699E-02 39240   0.481E-01    0.102E+00
DAV:   9    -0.338723766488E+03   -0.43259E-02   -0.13329E-02 39784   0.308E-01    0.133E+00
DAV:  10    -0.338721478189E+03    0.22883E-02   -0.74643E-03 38816   0.224E-01    0.572E-01
DAV:  11    -0.338721960136E+03   -0.48195E-03   -0.10945E-03 38376   0.109E-01    0.506E-01
DAV:  12    -0.338721904004E+03    0.56132E-04   -0.23207E-04 32512   0.450E-02    0.444E-01
DAV:  13    -0.338721867947E+03    0.36057E-04   -0.12861E-04 23808   0.294E-02    0.442E-01
DAV:  14    -0.338721987582E+03   -0.11963E-03   -0.22297E-04 27296   0.439E-02    0.485E-01
DAV:  15    -0.338721989359E+03   -0.17773E-05   -0.47299E-04 30048   0.484E-02    0.485E-01
DAV:  16    -0.338722042863E+03   -0.53504E-04   -0.59007E-04 32376   0.559E-02    0.517E-01
DAV:  17    -0.338722019703E+03    0.23160E-04   -0.33955E-04 28968   0.446E-02    0.498E-01
DAV:  18    -0.338721933095E+03    0.86608E-04   -0.18363E-04 34040   0.425E-02    0.374E-01
DAV:  19    -0.338721786721E+03    0.14637E-03   -0.14067E-03 38592   0.106E-01    0.292E-01
DAV:  20    -0.338722243781E+03   -0.45706E-03   -0.24313E-03 39464   0.101E-01    0.600E-01
DAV:  21    -0.338721729180E+03    0.51460E-03   -0.15256E-03 38520   0.918E-02    0.274E-01
DAV:  22    -0.338721924716E+03   -0.19554E-03   -0.31220E-04 37056   0.510E-02    0.205E-01
DAV:  23    -0.338722009919E+03   -0.85202E-04   -0.29708E-04 37800   0.536E-02    0.860E-02
DAV:  24    -0.338722027866E+03   -0.17947E-04   -0.75442E-05 30688   0.237E-02    0.532E-02
DAV:  25    -0.338722032222E+03   -0.43565E-05   -0.17371E-05 21632   0.121E-02
   3 F= -.33872203E+03 E0= -.33870227E+03  d E =-.196889E+01  mag=    20.0015
       N       E                     dE             d eps       ncg     rms          rms(c)
DAV:   1    -0.340210334739E+03   -0.14883E+01   -0.74405E+01 32032   0.173E+01    0.377E+00
DAV:   2    -0.341292064785E+03   -0.10817E+01   -0.57664E+00 37296   0.488E+00    0.195E+01
DAV:   3    -0.340519820585E+03    0.77224E+00   -0.10394E+00 41128   0.321E+00    0.511E+00
DAV:   4    -0.340631077233E+03   -0.11126E+00   -0.60064E-01 40080   0.153E+00    0.525E+00
DAV:   5    -0.340590286559E+03    0.40791E-01   -0.34351E-01 39968   0.111E+00    0.370E+00
DAV:   6    -0.340583040964E+03    0.72456E-02   -0.14621E-01 41328   0.808E-01    0.284E+00
DAV:   7    -0.340611502848E+03   -0.28462E-01   -0.18121E-01 40608   0.101E+00    0.537E+00
DAV:   8    -0.340567052269E+03    0.44451E-01   -0.19325E-01 40768   0.972E-01    0.230E+00
DAV:   9    -0.340572643552E+03   -0.55913E-02   -0.38346E-02 38888   0.485E-01    0.167E+00
DAV:  10    -0.340572398581E+03    0.24497E-03   -0.18314E-02 40784   0.348E-01    0.130E+00
DAV:  11    -0.340571145964E+03    0.12526E-02   -0.65340E-03 39536   0.269E-01    0.621E-01
DAV:  12    -0.340572285601E+03   -0.11396E-02   -0.48034E-03 40256   0.186E-01    0.801E-01
DAV:  13    -0.340571317472E+03    0.96813E-03   -0.32918E-03 39544   0.156E-01    0.438E-01
DAV:  14    -0.340572224767E+03   -0.90729E-03   -0.25292E-03 40528   0.143E-01    0.776E-01
DAV:  15    -0.340571405067E+03    0.81970E-03   -0.24434E-03 39736   0.148E-01    0.360E-01
DAV:  16    -0.340572021375E+03   -0.61631E-03   -0.29587E-03 39168   0.128E-01    0.619E-01
DAV:  17    -0.340571583926E+03    0.43745E-03   -0.16007E-03 39880   0.107E-01    0.348E-01
DAV:  18    -0.340571565248E+03    0.18678E-04   -0.52322E-04 38408   0.833E-02    0.147E-01
DAV:  19    -0.340571990578E+03   -0.42533E-03   -0.18821E-03 34936   0.791E-02    0.490E-01
DAV:  20    -0.340571555646E+03    0.43493E-03   -0.11915E-03 35696   0.752E-02    0.153E-01
DAV:  21    -0.340571679653E+03   -0.12401E-03   -0.18046E-04 30528   0.334E-02    0.868E-02
DAV:  22    -0.340571698372E+03   -0.18719E-04   -0.29551E-05 24496   0.183E-02    0.731E-02
DAV:  23    -0.340571698586E+03   -0.21441E-06   -0.16373E-05 22736   0.126E-02
   4 F= -.34057170E+03 E0= -.34055217E+03  d E =-.184967E+01  mag=    20.0002
       N       E                     dE             d eps       ncg     rms          rms(c)
DAV:   1    -0.341039513901E+03   -0.46782E+00   -0.73257E+01 32648   0.219E+01    0.348E+00
DAV:   2    -0.342079728901E+03   -0.10402E+01   -0.52831E+00 36824   0.521E+00    0.197E+01
DAV:   3    -0.341351404502E+03    0.72832E+00   -0.80111E-01 40552   0.317E+00    0.505E+00
DAV:   4    -0.341464286522E+03   -0.11288E+00   -0.52814E-01 38848   0.146E+00    0.505E+00
DAV:   5    -0.341430366712E+03    0.33920E-01   -0.26888E-01 39056   0.998E-01    0.259E+00
DAV:   6    -0.341434350989E+03   -0.39843E-02   -0.78809E-02 39984   0.672E-01    0.262E+00
DAV:   7    -0.341443937775E+03   -0.95868E-02   -0.81926E-02 40536   0.796E-01    0.355E+00
DAV:   8    -0.341422810856E+03    0.21127E-01   -0.58042E-02 39968   0.762E-01    0.187E+00
DAV:   9    -0.341425093452E+03   -0.22826E-02   -0.24959E-02 40184   0.477E-01    0.160E+00
DAV:  10    -0.341425258180E+03   -0.16473E-03   -0.16031E-02 40504   0.347E-01    0.144E+00
DAV:  11    -0.341422798036E+03    0.24601E-02   -0.11763E-02 39392   0.271E-01    0.630E-01
DAV:  12    -0.341424799736E+03   -0.20017E-02   -0.67701E-03 39984   0.203E-01    0.101E+00
DAV:  13    -0.341423168855E+03    0.16309E-02   -0.71551E-03 39600   0.200E-01    0.480E-01
DAV:  14    -0.341424007202E+03   -0.83835E-03   -0.29037E-03 40224   0.152E-01    0.634E-01
DAV:  15    -0.341423739575E+03    0.26763E-03   -0.23952E-03 39048   0.137E-01    0.467E-01
DAV:  16    -0.341423752228E+03   -0.12653E-04   -0.13883E-03 39592   0.113E-01    0.340E-01
DAV:  17    -0.341423735677E+03    0.16551E-04   -0.45924E-04 39552   0.812E-02    0.217E-01
DAV:  18    -0.341423726975E+03    0.87020E-05   -0.21838E-04 35616   0.542E-02    0.152E-01
DAV:  19    -0.341423775748E+03   -0.48773E-04   -0.50102E-04 24512   0.396E-02    0.205E-01
DAV:  20    -0.341423721220E+03    0.54527E-04   -0.18615E-04 23872   0.333E-02    0.798E-02
DAV:  21    -0.341423741602E+03   -0.20382E-04   -0.46464E-05 22056   0.182E-02    0.615E-02
DAV:  22    -0.341423743305E+03   -0.17022E-05   -0.14022E-05 19592   0.123E-02
   5 F= -.34142374E+03 E0= -.34140433E+03  d E =-.852045E+00  mag=    20.0000
       N       E                     dE             d eps       ncg     rms          rms(c)
DAV:   1    -0.341204639812E+03    0.21910E+00   -0.14458E+02 33032   0.346E+01    0.470E+00
DAV:   2    -0.343310883463E+03   -0.21062E+01   -0.12287E+01 36280   0.805E+00    0.254E+01
DAV:   3    -0.341985076405E+03    0.13258E+01   -0.13195E+00 40368   0.427E+00    0.524E+00
DAV:   4    -0.342289216021E+03   -0.30414E+00   -0.13557E+00 39488   0.219E+00    0.977E+00
DAV:   5    -0.342167515262E+03    0.12170E+00   -0.80598E-01 39032   0.170E+00    0.567E+00
DAV:   6    -0.342151602508E+03    0.15913E-01   -0.17212E-01 39816   0.911E-01    0.217E+00
DAV:   7    -0.342174516144E+03   -0.22914E-01   -0.10279E-01 40496   0.741E-01    0.351E+00
DAV:   8    -0.342156816074E+03    0.17700E-01   -0.84202E-02 40864   0.691E-01    0.191E+00
DAV:   9    -0.342160048910E+03   -0.32328E-02   -0.30979E-02 39992   0.594E-01    0.203E+00
DAV:  10    -0.342164192369E+03   -0.41435E-02   -0.47026E-02 40160   0.557E-01    0.269E+00
DAV:  11    -0.342154051658E+03    0.10141E-01   -0.34104E-02 39792   0.464E-01    0.836E-01
DAV:  12    -0.342159179554E+03   -0.51279E-02   -0.16361E-02 39600   0.358E-01    0.140E+00
DAV:  13    -0.342155435484E+03    0.37441E-02   -0.12788E-02 39392   0.299E-01    0.579E-01
DAV:  14    -0.342156551597E+03   -0.11161E-02   -0.55472E-03 39960   0.179E-01    0.743E-01
DAV:  15    -0.342156341036E+03    0.21056E-03   -0.52413E-03 39368   0.161E-01    0.590E-01
DAV:  16    -0.342155992534E+03    0.34850E-03   -0.22515E-03 40432   0.128E-01    0.258E-01
DAV:  17    -0.342156410122E+03   -0.41759E-03   -0.15864E-03 39240   0.113E-01    0.470E-01
DAV:  18    -0.342156238587E+03    0.17153E-03   -0.22331E-03 38336   0.943E-02    0.365E-01
DAV:  19    -0.342156125390E+03    0.11320E-03   -0.63735E-04 36696   0.760E-02    0.136E-01
DAV:  20    -0.342156187270E+03   -0.61879E-04   -0.82503E-05 27920   0.309E-02    0.908E-02
DAV:  21    -0.342156192290E+03   -0.50202E-05   -0.57210E-05 22544   0.213E-02
   6 F= -.34215619E+03 E0= -.34213694E+03  d E =-.732449E+00  mag=    20.0000
       N       E                     dE             d eps       ncg     rms          rms(c)
DAV:   1    -0.341333214342E+03    0.82297E+00   -0.23842E+02 32256   0.426E+01    0.475E+00
DAV:   2    -0.343349413091E+03   -0.20162E+01   -0.16277E+01 33424   0.892E+00    0.179E+01
DAV:   3    -0.342649128847E+03    0.70028E+00   -0.16160E+00 40888   0.408E+00    0.659E+00
DAV:   4    -0.342814537247E+03   -0.16541E+00   -0.10754E+00 38760   0.206E+00    0.921E+00
DAV:   5    -0.342680865945E+03    0.13367E+00   -0.51788E-01 39744   0.142E+00    0.374E+00
DAV:   6    -0.342715103321E+03   -0.34237E-01   -0.11983E-01 40592   0.882E-01    0.478E+00
DAV:   7    -0.342711755499E+03    0.33478E-02   -0.16811E-01 40928   0.795E-01    0.398E+00
DAV:   8    -0.342700956508E+03    0.10799E-01   -0.14935E-01 40880   0.824E-01    0.306E+00
DAV:   9    -0.342730866750E+03   -0.29910E-01   -0.15739E-01 40912   0.934E-01    0.541E+00
DAV:  10    -0.342691028302E+03    0.39838E-01   -0.11773E-01 39640   0.964E-01    0.262E+00
DAV:  11    -0.342709718393E+03   -0.18690E-01   -0.11023E-01 39336   0.859E-01    0.339E+00
DAV:  12    -0.342706357203E+03    0.33612E-02   -0.15109E-01 39880   0.832E-01    0.336E+00
DAV:  13    -0.342693606159E+03    0.12751E-01   -0.47864E-02 39872   0.624E-01    0.177E+00
DAV:  14    -0.342696210057E+03   -0.26039E-02   -0.21336E-02 39600   0.453E-01    0.146E+00
DAV:  15    -0.342695743757E+03    0.46630E-03   -0.13149E-02 40184   0.350E-01    0.106E+00
DAV:  16    -0.342695475258E+03    0.26850E-03   -0.65199E-03 39256   0.275E-01    0.766E-01
DAV:  17    -0.342695194890E+03    0.28037E-03   -0.47374E-03 38680   0.149E-01    0.493E-01
DAV:  18    -0.342695557208E+03   -0.36232E-03   -0.24601E-03 38840   0.126E-01    0.553E-01
DAV:  19    -0.342695158512E+03    0.39870E-03   -0.93535E-04 37608   0.866E-02    0.367E-01
DAV:  20    -0.342695242225E+03   -0.83713E-04   -0.28715E-04 37056   0.568E-02    0.236E-01
DAV:  21    -0.342695300054E+03   -0.57829E-04   -0.35108E-04 38400   0.509E-02    0.142E-01
DAV:  22    -0.342695430118E+03   -0.13006E-03   -0.15565E-04 33304   0.362E-02    0.980E-02
DAV:  23    -0.342695466643E+03   -0.36525E-04   -0.79474E-05 26448   0.251E-02    0.810E-02
DAV:  24    -0.342695468124E+03   -0.14809E-05   -0.29981E-05 22928   0.164E-02
   7 F= -.34269547E+03 E0= -.34267662E+03  d E =-.539276E+00  mag=    20.0000
       N       E                     dE             d eps       ncg     rms          rms(c)
DAV:   1    -0.341468930267E+03    0.12265E+01   -0.20815E+02 32600   0.438E+01    0.585E+00
DAV:   2    -0.345061382084E+03   -0.35925E+01   -0.16758E+01 33032   0.105E+01    0.326E+01
DAV:   3    -0.342766010015E+03    0.22954E+01   -0.36218E+00 40240   0.570E+00    0.589E+00
DAV:   4    -0.343215186910E+03   -0.44918E+00   -0.18923E+00 40176   0.278E+00    0.148E+01
DAV:   5    -0.342829029449E+03    0.38616E+00   -0.12708E+00 39384   0.225E+00    0.506E+00
DAV:   6    -0.342879530676E+03   -0.50501E-01   -0.14552E-01 38368   0.958E-01    0.343E+00
DAV:   7    -0.342910292556E+03   -0.30762E-01   -0.98056E-02 38968   0.803E-01    0.443E+00
DAV:   8    -0.342895877222E+03    0.14415E-01   -0.11829E-01 39872   0.719E-01    0.303E+00
DAV:   9    -0.342913338403E+03   -0.17461E-01   -0.33763E-02 39424   0.418E-01    0.367E+00
DAV:  10    -0.342910738681E+03    0.25997E-02   -0.55396E-03 36640   0.256E-01    0.344E+00
DAV:  11    -0.342910722982E+03    0.15700E-04   -0.12180E-03 38992   0.111E-01    0.346E+00
DAV:  12    -0.342911771443E+03   -0.10485E-02   -0.11586E-03 40632   0.995E-02    0.326E+00
DAV:  13    -0.342917899413E+03   -0.61280E-02   -0.47867E-02 41320   0.489E-01    0.325E+00
DAV:  14    -0.342915710687E+03    0.21887E-02   -0.77443E-02 40144   0.820E-01    0.300E+00
DAV:  15    -0.342903247423E+03    0.12463E-01   -0.46946E-02 39600   0.690E-01    0.168E+00
DAV:  16    -0.342910951613E+03   -0.77042E-02   -0.78670E-02 39960   0.525E-01    0.254E+00
DAV:  17    -0.342901859350E+03    0.90923E-02   -0.60802E-02 38632   0.439E-01    0.119E+00
DAV:  18    -0.342904706375E+03   -0.28470E-02   -0.80284E-03 38688   0.256E-01    0.107E+00
DAV:  19    -0.342906319358E+03   -0.16130E-02   -0.49743E-03 39168   0.215E-01    0.672E-01
DAV:  20    -0.342907288668E+03   -0.96931E-03   -0.13668E-03 38824   0.147E-01    0.533E-01
DAV:  21    -0.342908574713E+03   -0.12860E-02   -0.95308E-04 40552   0.134E-01    0.313E-01
DAV:  22    -0.342909215324E+03   -0.64061E-03   -0.11808E-03 38984   0.124E-01    0.294E-01
DAV:  23    -0.342909318111E+03   -0.10279E-03   -0.28389E-04 33936   0.527E-02    0.228E-01
DAV:  24    -0.342909347297E+03   -0.29187E-04   -0.72320E-05 32904   0.279E-02    0.208E-01
DAV:  25    -0.342909353955E+03   -0.66573E-05   -0.22499E-05 25104   0.166E-02
   8 F= -.34290935E+03 E0= -.34289031E+03  d E =-.213886E+00  mag=    19.9929
       N       E                     dE             d eps       ncg     rms          rms(c)
DAV:   1    -0.341768989814E+03    0.11404E+01   -0.28138E+02 31456   0.493E+01    0.650E+00
DAV:   2    -0.345020129905E+03   -0.32511E+01   -0.20689E+01 34448   0.109E+01    0.248E+01
DAV:   3    -0.343239888835E+03    0.17802E+01   -0.42465E+00 39568   0.601E+00    0.132E+01
DAV:   4    -0.343097373187E+03    0.14252E+00   -0.17434E+00 40096   0.268E+00    0.592E+00
DAV:   5    -0.343153813042E+03   -0.56440E-01   -0.46672E-01 36488   0.152E+00    0.615E+00
DAV:   6    -0.343116105975E+03    0.37707E-01   -0.13947E-01 39320   0.108E+00    0.391E+00
DAV:   7    -0.343187746841E+03   -0.71641E-01   -0.35460E-01 40264   0.123E+00    0.702E+00
DAV:   8    -0.343114948355E+03    0.72798E-01   -0.36671E-01 39648   0.118E+00    0.444E+00
DAV:   9    -0.343132627751E+03   -0.17679E-01   -0.22659E-01 40504   0.109E+00    0.510E+00
DAV:  10    -0.343114849099E+03    0.17779E-01   -0.22757E-01 40112   0.995E-01    0.331E+00
DAV:  11    -0.343116764960E+03   -0.19159E-02   -0.17645E-01 40224   0.883E-01    0.320E+00
DAV:  12    -0.343120932923E+03   -0.41680E-02   -0.81671E-02 40256   0.717E-01    0.340E+00
DAV:  13    -0.343111341345E+03    0.95916E-02   -0.66750E-02 39520   0.628E-01    0.208E+00
DAV:  14    -0.343111649769E+03   -0.30842E-03   -0.17187E-02 38744   0.413E-01    0.170E+00
DAV:  15    -0.343110362015E+03    0.12878E-02   -0.64376E-03 37728   0.244E-01    0.126E+00
DAV:  16    -0.343110178865E+03    0.18315E-03   -0.25747E-03 39896   0.127E-01    0.952E-01
DAV:  17    -0.343110825811E+03   -0.64695E-03   -0.41342E-03 40624   0.144E-01    0.926E-01
DAV:  18    -0.343110473912E+03    0.35190E-03   -0.38638E-03 39728   0.153E-01    0.590E-01
DAV:  19    -0.343110743352E+03   -0.26944E-03   -0.90926E-04 38760   0.123E-01    0.399E-01
DAV:  20    -0.343111035465E+03   -0.29211E-03   -0.90175E-04 40248   0.862E-02    0.486E-01
DAV:  21    -0.343110888295E+03    0.14717E-03   -0.38860E-04 37576   0.513E-02    0.230E-01
DAV:  22    -0.343111002780E+03   -0.11449E-03   -0.11075E-04 33192   0.324E-02    0.143E-01
DAV:  23    -0.343111081295E+03   -0.78515E-04   -0.57136E-05 24184   0.223E-02    0.154E-01
DAV:  24    -0.343111070421E+03    0.10874E-04   -0.45126E-05 22336   0.199E-02    0.993E-02
DAV:  25    -0.343111075587E+03   -0.51658E-05   -0.49338E-05 23280   0.181E-02
   9 F= -.34311108E+03 E0= -.34309187E+03  d E =-.201722E+00  mag=    19.9996
       N       E                     dE             d eps       ncg     rms          rms(c)
DAV:   1    -0.342795299129E+03    0.31577E+00   -0.86808E+01 31840   0.310E+01    0.247E+00
DAV:   2    -0.343337183891E+03   -0.54188E+00   -0.50390E+00 31048   0.559E+00    0.709E+00
DAV:   3    -0.343259852764E+03    0.77331E-01   -0.32935E-01 40400   0.187E+00    0.454E+00
DAV:   4    -0.343311175370E+03   -0.51323E-01   -0.39632E-01 40016   0.119E+00    0.687E+00
DAV:   5    -0.343239071629E+03    0.72104E-01   -0.23854E-01 39176   0.938E-01    0.160E+00
DAV:   6    -0.343261225956E+03   -0.22154E-01   -0.68641E-02 37688   0.504E-01    0.295E+00
DAV:   7    -0.343251403059E+03    0.98229E-02   -0.77344E-02 39424   0.507E-01    0.161E+00
DAV:   8    -0.343253085878E+03   -0.16828E-02   -0.60243E-02 39448   0.469E-01    0.161E+00
DAV:   9    -0.343255900241E+03   -0.28144E-02   -0.29435E-02 39344   0.415E-01    0.208E+00
DAV:  10    -0.343250085421E+03    0.58148E-02   -0.13938E-02 39616   0.334E-01    0.827E-01
DAV:  11    -0.343251510119E+03   -0.14247E-02   -0.58580E-03 39264   0.224E-01    0.766E-01
DAV:  12    -0.343252058923E+03   -0.54880E-03   -0.55347E-03 40032   0.185E-01    0.866E-01
DAV:  13    -0.343251319970E+03    0.73895E-03   -0.26086E-03 39016   0.163E-01    0.429E-01
DAV:  14    -0.343251648269E+03   -0.32830E-03   -0.16500E-03 40272   0.125E-01    0.447E-01
DAV:  15    -0.343251595888E+03    0.52381E-04   -0.14021E-03 39864   0.106E-01    0.360E-01
DAV:  16    -0.343251645243E+03   -0.49355E-04   -0.98704E-04 39688   0.904E-02    0.352E-01
DAV:  17    -0.343251553584E+03    0.91659E-04   -0.42579E-04 35272   0.639E-02    0.231E-01
DAV:  18    -0.343251604621E+03   -0.51037E-04   -0.37889E-04 28624   0.456E-02    0.249E-01
DAV:  19    -0.343251565877E+03    0.38744E-04   -0.40608E-04 25344   0.401E-02    0.147E-01
DAV:  20    -0.343251580085E+03   -0.14208E-04   -0.14253E-04 28560   0.361E-02    0.136E-01
DAV:  21    -0.343251579671E+03    0.41442E-06   -0.11472E-04 27056   0.302E-02    0.813E-02
DAV:  22    -0.343251604078E+03   -0.24407E-04   -0.66116E-05 23296   0.246E-02    0.570E-02
DAV:  23    -0.343251615132E+03   -0.11054E-04   -0.18408E-05 21232   0.143E-02    0.441E-02
DAV:  24    -0.343251616037E+03   -0.90441E-06   -0.77149E-06 18344   0.807E-03
  10 F= -.34325162E+03 E0= -.34323235E+03  d E =-.140540E+00  mag=    20.0000
       N       E                     dE             d eps       ncg     rms          rms(c)
DAV:   1    -0.342126066329E+03    0.11255E+01   -0.27396E+02 31824   0.509E+01    0.425E+00
DAV:   2    -0.343812269892E+03   -0.16862E+01   -0.14667E+01 31912   0.936E+00    0.165E+01
DAV:   3    -0.343406663494E+03    0.40561E+00   -0.14945E+00 37632   0.370E+00    0.720E+00
DAV:   4    -0.343517912796E+03   -0.11125E+00   -0.91862E-01 40576   0.203E+00    0.101E+01
DAV:   5    -0.343372567209E+03    0.14535E+00   -0.41816E-01 39448   0.134E+00    0.261E+00
DAV:   6    -0.343426638018E+03   -0.54071E-01   -0.18762E-01 38880   0.913E-01    0.496E+00
DAV:   7    -0.343392268425E+03    0.34370E-01   -0.19981E-01 39792   0.931E-01    0.310E+00
DAV:   8    -0.343405286561E+03   -0.13018E-01   -0.16693E-01 39688   0.857E-01    0.370E+00
DAV:   9    -0.343400505404E+03    0.47812E-02   -0.14149E-01 39784   0.792E-01    0.322E+00
DAV:  10    -0.343389476028E+03    0.11029E-01   -0.52842E-02 40144   0.636E-01    0.171E+00
DAV:  11    -0.343394850740E+03   -0.53747E-02   -0.22542E-02 39344   0.444E-01    0.203E+00
DAV:  12    -0.343392177893E+03    0.26728E-02   -0.24305E-02 39568   0.334E-01    0.147E+00
DAV:  13    -0.343390947868E+03    0.12300E-02   -0.12161E-02 39008   0.296E-01    0.881E-01
DAV:  14    -0.343392310369E+03   -0.13625E-02   -0.77818E-03 40280   0.262E-01    0.107E+00
DAV:  15    -0.343392223204E+03    0.87165E-04   -0.11872E-02 40080   0.252E-01    0.100E+00
DAV:  16    -0.343391359081E+03    0.86412E-03   -0.86380E-03 39504   0.213E-01    0.587E-01
DAV:  17    -0.343392340906E+03   -0.98183E-03   -0.50720E-03 40600   0.176E-01    0.833E-01
DAV:  18    -0.343391391338E+03    0.94957E-03   -0.26279E-03 38504   0.159E-01    0.326E-01
DAV:  19    -0.343392224885E+03   -0.83355E-03   -0.32651E-03 39848   0.110E-01    0.668E-01
DAV:  20    -0.343391565216E+03    0.65967E-03   -0.19509E-03 38768   0.987E-02    0.200E-01
DAV:  21    -0.343391821264E+03   -0.25605E-03   -0.17993E-04 32816   0.455E-02    0.128E-01
DAV:  22    -0.343391831551E+03   -0.10287E-04   -0.40302E-05 24888   0.225E-02    0.102E-01
DAV:  23    -0.343391835272E+03   -0.37215E-05   -0.28687E-05 24424   0.193E-02
  11 F= -.34339184E+03 E0= -.34337269E+03  d E =-.140219E+00  mag=    20.0000
       N       E                     dE             d eps       ncg     rms          rms(c)
DAV:   1    -0.343217268478E+03    0.17456E+00   -0.51179E+01 31848   0.229E+01    0.178E+00
DAV:   2    -0.343528163133E+03   -0.31089E+00   -0.25179E+00 31440   0.407E+00    0.968E+00
DAV:   3    -0.343412336938E+03    0.11583E+00   -0.50881E-01 36528   0.157E+00    0.245E+00
DAV:   4    -0.343452104347E+03   -0.39767E-01   -0.62147E-02 37336   0.790E-01    0.294E+00
DAV:   5    -0.343436941767E+03    0.15163E-01   -0.47967E-02 38904   0.558E-01    0.104E+00
DAV:   6    -0.343443260953E+03   -0.63192E-02   -0.29132E-02 39272   0.402E-01    0.173E+00
DAV:   7    -0.343441384322E+03    0.18766E-02   -0.32015E-02 39776   0.422E-01    0.183E+00
DAV:   8    -0.343438094663E+03    0.32897E-02   -0.17634E-02 39880   0.360E-01    0.994E-01
DAV:   9    -0.343440083368E+03   -0.19887E-02   -0.13183E-02 39800   0.308E-01    0.124E+00
DAV:  10    -0.343438707662E+03    0.13757E-02   -0.11764E-02 39680   0.246E-01    0.929E-01
DAV:  11    -0.343438274748E+03    0.43291E-03   -0.37686E-03 39104   0.147E-01    0.602E-01
DAV:  12    -0.343438326998E+03   -0.52250E-04   -0.10395E-03 39864   0.105E-01    0.497E-01
DAV:  13    -0.343438443591E+03   -0.11659E-03   -0.19782E-03 39704   0.934E-02    0.501E-01
DAV:  14    -0.343438174404E+03    0.26919E-03   -0.19877E-03 39384   0.102E-01    0.219E-01
DAV:  15    -0.343438714969E+03   -0.54057E-03   -0.17870E-03 39640   0.103E-01    0.529E-01
DAV:  16    -0.343438257349E+03    0.45762E-03   -0.11300E-03 38000   0.884E-02    0.225E-01
DAV:  17    -0.343438441499E+03   -0.18415E-03   -0.35071E-04 33256   0.513E-02    0.267E-01
DAV:  18    -0.343438356661E+03    0.84839E-04   -0.31317E-04 27952   0.421E-02    0.119E-01
DAV:  19    -0.343438420241E+03   -0.63580E-04   -0.28767E-04 23520   0.315E-02    0.181E-01
DAV:  20    -0.343438374602E+03    0.45638E-04   -0.13684E-04 24384   0.318E-02    0.636E-02
DAV:  21    -0.343438390107E+03   -0.15505E-04   -0.27609E-05 19136   0.163E-02    0.466E-02
DAV:  22    -0.343438394624E+03   -0.45173E-05   -0.13767E-05 17400   0.113E-02
  12 F= -.34343839E+03 E0= -.34341928E+03  d E =-.465594E-01  mag=    20.0000
       N       E                     dE             d eps       ncg     rms          rms(c)
DAV:   1    -0.343427359719E+03    0.11030E-01   -0.91421E+00 32120   0.981E+00    0.107E+00
DAV:   2    -0.343526314408E+03   -0.98955E-01   -0.72049E-01 33952   0.204E+00    0.559E+00
DAV:   3    -0.343470203102E+03    0.56111E-01   -0.10955E-01 39040   0.106E+00    0.137E+00
DAV:   4    -0.343481742413E+03   -0.11539E-01   -0.43603E-02 38208   0.446E-01    0.158E+00
DAV:   5    -0.343478552060E+03    0.31904E-02   -0.34632E-02 38352   0.324E-01    0.962E-01
DAV:   6    -0.343478758670E+03   -0.20661E-03   -0.72322E-03 39760   0.190E-01    0.828E-01
DAV:   7    -0.343481195300E+03   -0.24366E-02   -0.15412E-02 40384   0.294E-01    0.145E+00
DAV:   8    -0.343477541805E+03    0.36535E-02   -0.13152E-02 39944   0.292E-01    0.777E-01
DAV:   9    -0.343478182333E+03   -0.64053E-03   -0.63023E-03 39760   0.220E-01    0.720E-01
DAV:  10    -0.343478227928E+03   -0.45595E-04   -0.49441E-03 40008   0.163E-01    0.664E-01
DAV:  11    -0.343477703791E+03    0.52414E-03   -0.21227E-03 39496   0.122E-01    0.243E-01
DAV:  12    -0.343477932682E+03   -0.22889E-03   -0.45849E-04 36048   0.663E-02    0.285E-01
DAV:  13    -0.343477852147E+03    0.80535E-04   -0.22156E-04 28288   0.439E-02    0.179E-01
DAV:  14    -0.343477851497E+03    0.64990E-06   -0.79354E-05 21264   0.254E-02
  13 F= -.34347785E+03 E0= -.34345873E+03  d E =-.394569E-01  mag=    20.0000
       N       E                     dE             d eps       ncg     rms          rms(c)
DAV:   1    -0.343434989983E+03    0.42862E-01   -0.21341E+01 32032   0.132E+01    0.859E-01
DAV:   2    -0.343509659153E+03   -0.74669E-01   -0.72598E-01 30064   0.220E+00    0.227E+00
DAV:   3    -0.343506395584E+03    0.32636E-02   -0.83730E-02 40992   0.596E-01    0.167E+00
DAV:   4    -0.343505125201E+03    0.12704E-02   -0.24967E-02 37776   0.364E-01    0.125E+00
DAV:   5    -0.343503086935E+03    0.20383E-02   -0.11647E-02 38840   0.210E-01    0.476E-01
DAV:   6    -0.343504394045E+03   -0.13071E-02   -0.78534E-03 38600   0.191E-01    0.821E-01
DAV:   7    -0.343503610732E+03    0.78331E-03   -0.85585E-03 40480   0.191E-01    0.748E-01
DAV:   8    -0.343503259764E+03    0.35097E-03   -0.38804E-03 39264   0.172E-01    0.533E-01
DAV:   9    -0.343503502589E+03   -0.24283E-03   -0.36645E-03 39352   0.153E-01    0.516E-01
DAV:  10    -0.343503255968E+03    0.24662E-03   -0.20002E-03 39544   0.116E-01    0.320E-01
DAV:  11    -0.343503262754E+03   -0.67860E-05   -0.54951E-04 35920   0.671E-02    0.205E-01
DAV:  12    -0.343503259118E+03    0.36353E-05   -0.13884E-04 25528   0.347E-02    0.149E-01
DAV:  13    -0.343503257398E+03    0.17202E-05   -0.33783E-05 19656   0.192E-02
  14 F= -.34350326E+03 E0= -.34348415E+03  d E =-.254059E-01  mag=    20.0000
       N       E                     dE             d eps       ncg     rms          rms(c)
DAV:   1    -0.343321773490E+03    0.18149E+00   -0.55616E+01 32032   0.226E+01    0.145E+00
DAV:   2    -0.343533599832E+03   -0.21183E+00   -0.21149E+00 29984   0.378E+00    0.297E+00
DAV:   3    -0.343542169275E+03   -0.85694E-02   -0.26473E-01 41544   0.106E+00    0.365E+00
DAV:   4    -0.343528664960E+03    0.13504E-01   -0.12802E-01 39808   0.748E-01    0.240E+00
DAV:   5    -0.343522989180E+03    0.56758E-02   -0.32680E-02 39760   0.400E-01    0.682E-01
DAV:   6    -0.343527764021E+03   -0.47748E-02   -0.18328E-02 38408   0.324E-01    0.141E+00
DAV:   7    -0.343524675655E+03    0.30884E-02   -0.23541E-02 39568   0.333E-01    0.106E+00
DAV:   8    -0.343525176322E+03   -0.50067E-03   -0.10480E-02 39720   0.264E-01    0.105E+00
DAV:   9    -0.343524930912E+03    0.24541E-03   -0.82643E-03 39520   0.243E-01    0.841E-01
DAV:  10    -0.343524343093E+03    0.58782E-03   -0.35052E-03 39512   0.181E-01    0.429E-01
DAV:  11    -0.343524468766E+03   -0.12567E-03   -0.13229E-03 39144   0.105E-01    0.318E-01
DAV:  12    -0.343524538000E+03   -0.69234E-04   -0.86231E-04 39320   0.795E-02    0.306E-01
DAV:  13    -0.343524518361E+03    0.19640E-04   -0.52127E-04 34544   0.613E-02    0.256E-01
DAV:  14    -0.343524492432E+03    0.25929E-04   -0.44085E-04 30832   0.550E-02    0.199E-01
DAV:  15    -0.343524638590E+03   -0.14616E-03   -0.84263E-04 32368   0.582E-02    0.360E-01
DAV:  16    -0.343524443759E+03    0.19483E-03   -0.76808E-04 33096   0.601E-02    0.140E-01
DAV:  17    -0.343524518344E+03   -0.74585E-04   -0.13917E-04 30848   0.383E-02    0.131E-01
DAV:  18    -0.343524528028E+03   -0.96837E-05   -0.18204E-04 24040   0.301E-02    0.122E-01
DAV:  19    -0.343524536879E+03   -0.88504E-05   -0.94609E-05 24104   0.282E-02
  15 F= -.34352454E+03 E0= -.34350538E+03  d E =-.212795E-01  mag=    20.0000
       N       E                     dE             d eps       ncg     rms          rms(c)
DAV:   1    -0.339901087016E+03    0.36234E+01   -0.33191E+02 31880   0.680E+01    0.100E+01
DAV:   2    -0.345141686671E+03   -0.52406E+01   -0.31464E+01 32952   0.154E+01    0.407E+01
DAV:   3    -0.342379720460E+03    0.27620E+01   -0.65052E+00 39128   0.767E+00    0.980E+00
DAV:   4    -0.343475567200E+03   -0.10958E+01   -0.42770E+00 40424   0.503E+00    0.256E+01
DAV:   5    -0.342539951191E+03    0.93562E+00   -0.33352E+00 39680   0.409E+00    0.139E+01
DAV:   6    -0.342481343800E+03    0.58607E-01   -0.71300E-01 39064   0.212E+00    0.555E+00
DAV:   7    -0.342637434531E+03   -0.15609E+00   -0.10114E+00 39576   0.202E+00    0.900E+00
DAV:   8    -0.342620667611E+03    0.16767E-01   -0.12734E+00 39536   0.213E+00    0.101E+01
DAV:   9    -0.342603964670E+03    0.16703E-01   -0.42490E-01 39392   0.138E+00    0.966E+00
DAV:  10    -0.342522842760E+03    0.81122E-01   -0.13513E-01 39416   0.868E-01    0.650E+00
DAV:  11    -0.342528324542E+03   -0.54818E-02   -0.80773E-02 41712   0.789E-01    0.554E+00
DAV:  12    -0.342513067220E+03    0.15257E-01   -0.92839E-02 40784   0.783E-01    0.375E+00
DAV:  13    -0.342514617989E+03   -0.15508E-02   -0.76933E-02 39728   0.639E-01    0.310E+00
DAV:  14    -0.342513495322E+03    0.11227E-02   -0.37216E-02 40056   0.599E-01    0.206E+00
DAV:  15    -0.342522694135E+03   -0.91988E-02   -0.44291E-02 40224   0.541E-01    0.299E+00
DAV:  16    -0.342512212527E+03    0.10482E-01   -0.39051E-02 40080   0.500E-01    0.143E+00
DAV:  17    -0.342525457816E+03   -0.13245E-01   -0.47556E-02 40072   0.466E-01    0.283E+00
DAV:  18    -0.342513571218E+03    0.11887E-01   -0.33410E-02 39152   0.451E-01    0.998E-01
DAV:  19    -0.342520401212E+03   -0.68300E-02   -0.16040E-02 40000   0.291E-01    0.177E+00
DAV:  20    -0.342517790852E+03    0.26104E-02   -0.10150E-02 38672   0.247E-01    0.138E+00
DAV:  21    -0.342517640615E+03    0.15024E-03   -0.15250E-03 36152   0.126E-01    0.116E+00
DAV:  22    -0.342517679003E+03   -0.38388E-04   -0.81156E-04 37768   0.996E-02    0.985E-01
DAV:  23    -0.342516155106E+03    0.15239E-02   -0.42962E-03 40264   0.155E-01    0.337E-01
DAV:  24    -0.342516917219E+03   -0.76211E-03   -0.66446E-04 35216   0.961E-02    0.250E-01
DAV:  25    -0.342517027993E+03   -0.11077E-03   -0.22209E-04 36736   0.471E-02    0.224E-01
DAV:  26    -0.342516981560E+03    0.46434E-04   -0.20325E-04 31880   0.347E-02    0.124E-01
DAV:  27    -0.342516988708E+03   -0.71480E-05   -0.14893E-04 32392   0.320E-02    0.634E-02
DAV:  28    -0.342517004372E+03   -0.15665E-04   -0.47095E-05 23016   0.217E-02    0.640E-02
DAV:  29    -0.342516995839E+03    0.85336E-05   -0.16426E-05 18416   0.140E-02
  16 F= -.34251700E+03 E0= -.34249799E+03  d E =0.100754E+01  mag=    19.9970
       N       E                     dE             d eps       ncg     rms          rms(c)
DAV:   1    -0.342286575843E+03    0.23043E+00   -0.14024E+02 33504   0.412E+01    0.517E+00
DAV:   2    -0.344056645714E+03   -0.17701E+01   -0.16078E+01 33136   0.953E+00    0.188E+01
DAV:   3    -0.343463697574E+03    0.59295E+00   -0.20224E+00 39936   0.409E+00    0.700E+00
DAV:   4    -0.343580566722E+03   -0.11687E+00   -0.54690E-01 39296   0.183E+00    0.763E+00
DAV:   5    -0.343518161767E+03    0.62405E-01   -0.49650E-01 38656   0.119E+00    0.502E+00
DAV:   6    -0.343544806977E+03   -0.26645E-01   -0.14922E-01 39936   0.954E-01    0.583E+00
DAV:   7    -0.343540527602E+03    0.42794E-02   -0.20057E-01 39880   0.123E+00    0.559E+00
DAV:   8    -0.343525782753E+03    0.14745E-01   -0.30981E-01 40464   0.158E+00    0.570E+00
DAV:   9    -0.343593297900E+03   -0.67515E-01   -0.44548E-01 40864   0.185E+00    0.878E+00
DAV:  10    -0.343520487121E+03    0.72811E-01   -0.41030E-01 39696   0.141E+00    0.590E+00
DAV:  11    -0.343485006597E+03    0.35481E-01   -0.76249E-02 39640   0.921E-01    0.155E+00
DAV:  12    -0.343506623491E+03   -0.21617E-01   -0.45945E-02 39440   0.576E-01    0.291E+00
DAV:  13    -0.343495642437E+03    0.10981E-01   -0.46498E-02 39360   0.530E-01    0.139E+00
DAV:  14    -0.343501694149E+03   -0.60517E-02   -0.24977E-02 39760   0.371E-01    0.213E+00
DAV:  15    -0.343495981830E+03    0.57123E-02   -0.14713E-02 37352   0.260E-01    0.902E-01
DAV:  16    -0.343497908908E+03   -0.19271E-02   -0.88269E-03 39008   0.189E-01    0.110E+00
DAV:  17    -0.343496829871E+03    0.10790E-02   -0.83036E-03 40048   0.194E-01    0.762E-01
DAV:  18    -0.343497360546E+03   -0.53067E-03   -0.39756E-03 40640   0.169E-01    0.860E-01
DAV:  19    -0.343497176831E+03    0.18371E-03   -0.11030E-03 39432   0.104E-01    0.645E-01
DAV:  20    -0.343497436848E+03   -0.26002E-03   -0.13291E-03 39312   0.810E-02    0.750E-01
DAV:  21    -0.343497082388E+03    0.35446E-03   -0.59831E-04 37040   0.644E-02    0.526E-01
DAV:  22    -0.343497226611E+03   -0.14422E-03   -0.17439E-04 34656   0.435E-02    0.511E-01
DAV:  23    -0.343497114908E+03    0.11170E-03   -0.21375E-04 37200   0.501E-02    0.357E-01
DAV:  24    -0.343497156221E+03   -0.41313E-04   -0.61150E-04 40184   0.558E-02    0.193E-01
DAV:  25    -0.343497270625E+03   -0.11440E-03   -0.17589E-04 35624   0.442E-02    0.110E-01
DAV:  26    -0.343497296113E+03   -0.25488E-04   -0.35962E-05 25368   0.189E-02    0.961E-02
DAV:  27    -0.343497297328E+03   -0.12150E-05   -0.19460E-05 22136   0.151E-02
  17 F= -.34349730E+03 E0= -.34347828E+03  d E =-.980301E+00  mag=    19.9998
       N       E                     dE             d eps       ncg     rms          rms(c)
DAV:   1    -0.343493385344E+03    0.39108E-02   -0.49873E+00 32448   0.838E+00    0.898E-01
DAV:   2    -0.343558033893E+03   -0.64649E-01   -0.55939E-01 32648   0.174E+00    0.407E+00
DAV:   3    -0.343530173251E+03    0.27861E-01   -0.62317E-02 39232   0.780E-01    0.117E+00
DAV:   4    -0.343539072864E+03   -0.88996E-02   -0.31119E-02 38920   0.436E-01    0.196E+00
DAV:   5    -0.343532299576E+03    0.67733E-02   -0.22987E-02 37832   0.342E-01    0.626E-01
DAV:   6    -0.343534293980E+03   -0.19944E-02   -0.60201E-03 37744   0.188E-01    0.873E-01
DAV:   7    -0.343533676670E+03    0.61731E-03   -0.61677E-03 39256   0.196E-01    0.760E-01
DAV:   8    -0.343533023922E+03    0.65275E-03   -0.46748E-03 40032   0.165E-01    0.429E-01
DAV:   9    -0.343533414713E+03   -0.39079E-03   -0.19014E-03 40288   0.129E-01    0.491E-01
DAV:  10    -0.343533041993E+03    0.37272E-03   -0.13008E-03 39720   0.108E-01    0.243E-01
DAV:  11    -0.343533038198E+03    0.37951E-05   -0.70887E-04 36632   0.677E-02    0.151E-01
DAV:  12    -0.343533079004E+03   -0.40806E-04   -0.38104E-04 28192   0.451E-02    0.208E-01
DAV:  13    -0.343533016973E+03    0.62030E-04   -0.16331E-04 26048   0.385E-02    0.101E-01
DAV:  14    -0.343533032192E+03   -0.15219E-04   -0.66978E-05 23160   0.315E-02    0.111E-01
DAV:  15    -0.343533039980E+03   -0.77877E-05   -0.18017E-04 23120   0.322E-02    0.130E-01
DAV:  16    -0.343533019530E+03    0.20450E-04   -0.15366E-04 21856   0.314E-02    0.736E-02
DAV:  17    -0.343533033042E+03   -0.13513E-04   -0.86115E-05 21888   0.233E-02    0.945E-02
DAV:  18    -0.343533020693E+03    0.12349E-04   -0.47229E-05 19800   0.188E-02    0.412E-02
DAV:  19    -0.343533030406E+03   -0.97128E-05   -0.34274E-05 17784   0.132E-02
  18 F= -.34353303E+03 E0= -.34351398E+03  d E =-.357331E-01  mag=    20.0000
       N       E                     dE             d eps       ncg     rms          rms(c)
DAV:   1    -0.343535124938E+03   -0.21042E-02   -0.33978E+00 31704   0.614E+00    0.540E-01
DAV:   2    -0.343557582077E+03   -0.22457E-01   -0.19987E-01 31440   0.115E+00    0.216E+00
DAV:   3    -0.343550638982E+03    0.69431E-02   -0.42887E-02 39992   0.479E-01    0.799E-01
DAV:   4    -0.343552997602E+03   -0.23586E-02   -0.13783E-02 37056   0.227E-01    0.105E+00
DAV:   5    -0.343551043440E+03    0.19542E-02   -0.83459E-03 38328   0.174E-01    0.368E-01
DAV:   6    -0.343551852788E+03   -0.80935E-03   -0.18576E-03 38168   0.129E-01    0.571E-01
DAV:   7    -0.343551667261E+03    0.18553E-03   -0.33473E-03 40136   0.160E-01    0.623E-01
DAV:   8    -0.343551185188E+03    0.48207E-03   -0.19144E-03 39200   0.127E-01    0.298E-01
DAV:   9    -0.343551572667E+03   -0.38748E-03   -0.18729E-03 39528   0.108E-01    0.518E-01
DAV:  10    -0.343551113669E+03    0.45900E-03   -0.10580E-03 38552   0.878E-02    0.164E-01
DAV:  11    -0.343551221496E+03   -0.10783E-03   -0.18286E-04 28480   0.395E-02    0.161E-01
DAV:  12    -0.343551226562E+03   -0.50656E-05   -0.10099E-04 24512   0.294E-02    0.124E-01
DAV:  13    -0.343551223467E+03    0.30951E-05   -0.70196E-05 21920   0.265E-02
  19 F= -.34355122E+03 E0= -.34353222E+03  d E =-.181931E-01  mag=    20.0000
       N       E                     dE             d eps       ncg     rms          rms(c)
DAV:   1    -0.343553357956E+03   -0.21314E-02   -0.26901E+00 31752   0.503E+00    0.552E-01
DAV:   2    -0.343576006937E+03   -0.22649E-01   -0.15530E-01 33016   0.980E-01    0.342E+00
DAV:   3    -0.343559963673E+03    0.16043E-01   -0.86490E-02 38064   0.564E-01    0.998E-01
DAV:   4    -0.343564697376E+03   -0.47337E-02   -0.61960E-03 35688   0.238E-01    0.899E-01
DAV:   5    -0.343563525647E+03    0.11717E-02   -0.26990E-03 37920   0.148E-01    0.485E-01
DAV:   6    -0.343563953071E+03   -0.42742E-03   -0.14331E-03 38160   0.121E-01    0.598E-01
DAV:   7    -0.343564086062E+03   -0.13299E-03   -0.39061E-03 40824   0.159E-01    0.748E-01
DAV:   8    -0.343563581902E+03    0.50416E-03   -0.24676E-03 40120   0.171E-01    0.482E-01
DAV:   9    -0.343563562579E+03    0.19322E-04   -0.14237E-03 40096   0.129E-01    0.399E-01
DAV:  10    -0.343563511134E+03    0.51446E-04   -0.65745E-04 39240   0.858E-02    0.297E-01
DAV:  11    -0.343563506481E+03    0.46530E-05   -0.41568E-04 35616   0.623E-02    0.292E-01
DAV:  12    -0.343563462801E+03    0.43680E-04   -0.21405E-04 27656   0.423E-02    0.202E-01
DAV:  13    -0.343563480698E+03   -0.17897E-04   -0.16762E-04 23600   0.330E-02    0.188E-01
DAV:  14    -0.343563467034E+03    0.13664E-04   -0.64313E-05 20408   0.238E-02    0.144E-01
DAV:  15    -0.343563507715E+03   -0.40682E-04   -0.94768E-05 21736   0.196E-02    0.213E-01
DAV:  16    -0.343563479134E+03    0.28581E-04   -0.77155E-05 19624   0.189E-02    0.184E-01
DAV:  17    -0.343563475138E+03    0.39964E-05   -0.40709E-05 18712   0.136E-02
  20 F= -.34356348E+03 E0= -.34354440E+03  d E =-.122517E-01  mag=    20.0000
       N       E                     dE             d eps       ncg     rms          rms(c)
DAV:   1    -0.343555972262E+03    0.75069E-02   -0.26320E+00 31776   0.511E+00    0.484E-01
DAV:   2    -0.343572335527E+03   -0.16363E-01   -0.12981E-01 32392   0.931E-01    0.231E+00
DAV:   3    -0.343565664117E+03    0.66714E-02   -0.34658E-02 38432   0.422E-01    0.926E-01
DAV:   4    -0.343567324926E+03   -0.16608E-02   -0.40751E-03 37392   0.192E-01    0.681E-01
DAV:   5    -0.343566795347E+03    0.52958E-03   -0.21194E-03 38536   0.121E-01    0.421E-01
DAV:   6    -0.343567097026E+03   -0.30168E-03   -0.18522E-03 38192   0.107E-01    0.526E-01
DAV:   7    -0.343567808445E+03   -0.71142E-03   -0.60077E-03 39872   0.156E-01    0.959E-01
DAV:   8    -0.343566306750E+03    0.15017E-02   -0.28612E-03 38360   0.169E-01    0.291E-01
DAV:   9    -0.343566961651E+03   -0.65490E-03   -0.23093E-03 38776   0.117E-01    0.481E-01
DAV:  10    -0.343566666378E+03    0.29527E-03   -0.16678E-03 38640   0.856E-02    0.244E-01
DAV:  11    -0.343566693162E+03   -0.26784E-04   -0.37961E-04 30576   0.507E-02    0.183E-01
DAV:  12    -0.343566678913E+03    0.14249E-04   -0.12644E-04 25080   0.377E-02    0.126E-01
DAV:  13    -0.343566695153E+03   -0.16240E-04   -0.10256E-04 23280   0.288E-02    0.138E-01
DAV:  14    -0.343566677010E+03    0.18143E-04   -0.13856E-04 21400   0.267E-02    0.790E-02
DAV:  15    -0.343566711728E+03   -0.34718E-04   -0.14052E-04 21768   0.274E-02    0.147E-01
DAV:  16    -0.343566682990E+03    0.28738E-04   -0.81399E-05 20064   0.259E-02    0.956E-02
DAV:  17    -0.343566687351E+03   -0.43611E-05   -0.16830E-05 17512   0.109E-02
  21 F= -.34356669E+03 E0= -.34354768E+03  d E =-.321221E-02  mag=    20.0000
       N       E                     dE             d eps       ncg     rms          rms(c)
DAV:   1    -0.343561975625E+03    0.47074E-02   -0.12427E+00 31760   0.350E+00    0.251E-01
DAV:   2    -0.343567524248E+03   -0.55486E-02   -0.52118E-02 30064   0.602E-01    0.871E-01
DAV:   3    -0.343566686270E+03    0.83798E-03   -0.73713E-03 38928   0.202E-01    0.494E-01
DAV:   4    -0.343566971521E+03   -0.28525E-03   -0.14928E-03 37144   0.110E-01    0.417E-01
DAV:   5    -0.343566709449E+03    0.26207E-03   -0.61104E-04 37072   0.709E-02    0.164E-01
DAV:   6    -0.343566838967E+03   -0.12952E-03   -0.34055E-04 27448   0.457E-02    0.220E-01
DAV:   7    -0.343566916761E+03   -0.77794E-04   -0.11125E-03 35160   0.700E-02    0.355E-01
DAV:   8    -0.343566745596E+03    0.17117E-03   -0.66303E-04 39320   0.747E-02    0.174E-01
DAV:   9    -0.343566837554E+03   -0.91959E-04   -0.34192E-04 35736   0.591E-02    0.233E-01
DAV:  10    -0.343566757519E+03    0.80035E-04   -0.21861E-04 27680   0.466E-02    0.988E-02
DAV:  11    -0.343566777262E+03   -0.19743E-04   -0.68720E-05 22536   0.280E-02    0.955E-02
DAV:  12    -0.343566769007E+03    0.82552E-05   -0.29007E-05 19208   0.175E-02
  22 F= -.34356677E+03 E0= -.34354779E+03  d E =-.816559E-04  mag=    20.0000
       N       E                     dE             d eps       ncg     rms          rms(c)
DAV:   1    -0.343541826585E+03    0.24951E-01   -0.80126E+00 32088   0.845E+00    0.508E-01
DAV:   2    -0.343569207892E+03   -0.27381E-01   -0.27346E-01 29960   0.138E+00    0.893E-01
DAV:   3    -0.343571143409E+03   -0.19355E-02   -0.18070E-02 40120   0.377E-01    0.148E+00
DAV:   4    -0.343568578967E+03    0.25644E-02   -0.13161E-02 38568   0.257E-01    0.792E-01
DAV:   5    -0.343568202894E+03    0.37607E-03   -0.39004E-03 38840   0.140E-01    0.271E-01
DAV:   6    -0.343568595001E+03   -0.39211E-03   -0.92438E-04 37832   0.890E-02    0.393E-01
DAV:   7    -0.343568440652E+03    0.15435E-03   -0.12467E-03 39136   0.949E-02    0.356E-01
DAV:   8    -0.343568392205E+03    0.48447E-04   -0.15378E-03 40184   0.101E-01    0.323E-01
DAV:   9    -0.343568489372E+03   -0.97167E-04   -0.13103E-03 39872   0.972E-02    0.375E-01
DAV:  10    -0.343568291951E+03    0.19742E-03   -0.52940E-04 39168   0.772E-02    0.157E-01
DAV:  11    -0.343568372886E+03   -0.80935E-04   -0.51859E-04 28304   0.512E-02    0.199E-01
DAV:  12    -0.343568338148E+03    0.34738E-04   -0.34007E-04 25528   0.409E-02    0.104E-01
DAV:  13    -0.343568350437E+03   -0.12289E-04   -0.74885E-05 21616   0.258E-02    0.928E-02
DAV:  14    -0.343568346831E+03    0.36059E-05   -0.43862E-05 19648   0.190E-02
  23 F= -.34356835E+03 E0= -.34354939E+03  d E =-.157782E-02  mag=    20.0000
       N       E                     dE             d eps       ncg     rms          rms(c)
DAV:   1    -0.343409471574E+03    0.15888E+00   -0.41999E+01 31728   0.199E+01    0.127E+00
DAV:   2    -0.343578454918E+03   -0.16898E+00   -0.16579E+00 29960   0.332E+00    0.343E+00
DAV:   3    -0.343573672545E+03    0.47824E-02   -0.21954E-01 39776   0.949E-01    0.296E+00
DAV:   4    -0.343569559113E+03    0.41134E-02   -0.56811E-02 38992   0.603E-01    0.182E+00
DAV:   5    -0.343565638746E+03    0.39204E-02   -0.12107E-02 38352   0.333E-01    0.529E-01
DAV:   6    -0.343568357827E+03   -0.27191E-02   -0.56753E-03 38728   0.222E-01    0.110E+00
DAV:   7    -0.343566714474E+03    0.16434E-02   -0.73577E-03 40592   0.217E-01    0.753E-01
DAV:   8    -0.343567101190E+03   -0.38672E-03   -0.61160E-03 40176   0.231E-01    0.756E-01
DAV:   9    -0.343567086788E+03    0.14402E-04   -0.65970E-03 39880   0.212E-01    0.749E-01
DAV:  10    -0.343566647494E+03    0.43929E-03   -0.38666E-03 39752   0.170E-01    0.499E-01
DAV:  11    -0.343566770393E+03   -0.12290E-03   -0.22009E-03 39472   0.112E-01    0.464E-01
DAV:  12    -0.343566664416E+03    0.10598E-03   -0.15234E-03 37520   0.876E-02    0.288E-01
DAV:  13    -0.343566719025E+03   -0.54609E-04   -0.43121E-04 32176   0.581E-02    0.238E-01
DAV:  14    -0.343566698324E+03    0.20701E-04   -0.27155E-04 24768   0.382E-02    0.230E-01
DAV:  15    -0.343566832080E+03   -0.13376E-03   -0.46036E-04 30968   0.470E-02    0.361E-01
DAV:  16    -0.343566731657E+03    0.10042E-03   -0.28477E-04 26888   0.419E-02    0.281E-01
DAV:  17    -0.343566712689E+03    0.18968E-04   -0.23144E-04 33608   0.439E-02    0.188E-01
DAV:  18    -0.343566758241E+03   -0.45551E-04   -0.23920E-04 26480   0.382E-02    0.169E-01
DAV:  19    -0.343566761884E+03   -0.36438E-05   -0.21305E-04 32528   0.423E-02    0.117E-01
DAV:  20    -0.343566775643E+03   -0.13758E-04   -0.12440E-04 23552   0.294E-02    0.114E-01
DAV:  21    -0.343566776039E+03   -0.39663E-06   -0.43122E-05 22312   0.235E-02
  24 F= -.34356678E+03 E0= -.34354785E+03  d E =0.157079E-02  mag=    20.0000
       N       E                     dE             d eps       ncg     rms          rms(c)
DAV:   1    -0.343523345875E+03    0.43430E-01   -0.12791E+01 32120   0.115E+01    0.813E-01
DAV:   2    -0.343588936896E+03   -0.65591E-01   -0.59601E-01 31648   0.205E+00    0.345E+00
DAV:   3    -0.343569556311E+03    0.19381E-01   -0.10623E-01 36608   0.756E-01    0.104E+00
DAV:   4    -0.343579579613E+03   -0.10023E-01   -0.45170E-02 37552   0.409E-01    0.186E+00
DAV:   5    -0.343572935662E+03    0.66440E-02   -0.27329E-02 38040   0.312E-01    0.450E-01
DAV:   6    -0.343574818425E+03   -0.18828E-02   -0.44865E-03 38520   0.158E-01    0.774E-01
DAV:   7    -0.343574188485E+03    0.62994E-03   -0.49567E-03 39784   0.178E-01    0.642E-01
DAV:   8    -0.343573893944E+03    0.29454E-03   -0.25126E-03 39816   0.173E-01    0.453E-01
DAV:   9    -0.343574371422E+03   -0.47748E-03   -0.27503E-03 40328   0.142E-01    0.642E-01
DAV:  10    -0.343573862106E+03    0.50932E-03   -0.14377E-03 39344   0.112E-01    0.291E-01
DAV:  11    -0.343573903937E+03   -0.41831E-04   -0.28730E-04 31760   0.484E-02    0.218E-01
DAV:  12    -0.343573887681E+03    0.16255E-04   -0.26748E-05 22800   0.199E-02    0.193E-01
DAV:  13    -0.343573875788E+03    0.11893E-04   -0.99600E-06 17496   0.120E-02    0.196E-01
DAV:  14    -0.343573878558E+03   -0.27701E-05   -0.11599E-05 18008   0.122E-02
  25 F= -.34357388E+03 E0= -.34355504E+03  d E =-.710252E-02  mag=    20.0000
       N       E                     dE             d eps       ncg     rms          rms(c)
DAV:   1    -0.343509413083E+03    0.64463E-01   -0.18602E+01 31984   0.142E+01    0.989E-01
DAV:   2    -0.343599371414E+03   -0.89958E-01   -0.83705E-01 30032   0.243E+00    0.326E+00
DAV:   3    -0.343587854785E+03    0.11517E-01   -0.86271E-02 39032   0.869E-01    0.204E+00
DAV:   4    -0.343591305230E+03   -0.34504E-02   -0.31139E-02 38824   0.449E-01    0.179E+00
DAV:   5    -0.343586455914E+03    0.48493E-02   -0.10872E-02 38680   0.305E-01    0.568E-01
DAV:   6    -0.343588434464E+03   -0.19785E-02   -0.47849E-03 38856   0.183E-01    0.845E-01
DAV:   7    -0.343588465960E+03   -0.31496E-04   -0.81252E-03 40160   0.224E-01    0.971E-01
DAV:   8    -0.343587764840E+03    0.70112E-03   -0.77709E-03 39640   0.224E-01    0.707E-01
DAV:   9    -0.343588632793E+03   -0.86795E-03   -0.78868E-03 39456   0.211E-01    0.887E-01
DAV:  10    -0.343587397618E+03    0.12352E-02   -0.34454E-03 37824   0.155E-01    0.346E-01
DAV:  11    -0.343587577572E+03   -0.17995E-03   -0.47010E-04 35576   0.588E-02    0.254E-01
DAV:  12    -0.343587603279E+03   -0.25707E-04   -0.11537E-04 26440   0.326E-02    0.227E-01
DAV:  13    -0.343587627717E+03   -0.24438E-04   -0.24563E-04 24224   0.328E-02    0.263E-01
DAV:  14    -0.343587601110E+03    0.26607E-04   -0.29614E-04 32112   0.500E-02    0.197E-01
DAV:  15    -0.343587836345E+03   -0.23524E-03   -0.77919E-04 34024   0.686E-02    0.415E-01
DAV:  16    -0.343587617344E+03    0.21900E-03   -0.88514E-04 34152   0.710E-02    0.172E-01
DAV:  17    -0.343587688920E+03   -0.71576E-04   -0.24287E-04 30024   0.517E-02    0.174E-01
DAV:  18    -0.343587663268E+03    0.25652E-04   -0.22401E-04 25176   0.370E-02    0.963E-02
DAV:  19    -0.343587694763E+03   -0.31495E-04   -0.19124E-04 22520   0.302E-02    0.144E-01
DAV:  20    -0.343587665120E+03    0.29643E-04   -0.11650E-04 20648   0.267E-02    0.655E-02
DAV:  21    -0.343587677959E+03   -0.12839E-04   -0.19522E-05 18272   0.136E-02    0.578E-02
DAV:  22    -0.343587676756E+03    0.12026E-05   -0.16205E-05 17832   0.959E-03
  26 F= -.34358768E+03 E0= -.34356894E+03  d E =-.137982E-01  mag=    20.0000
       N       E                     dE             d eps       ncg     rms          rms(c)
DAV:   1    -0.343517047285E+03    0.70631E-01   -0.18780E+01 32104   0.137E+01    0.893E-01
DAV:   2    -0.343599837307E+03   -0.82790E-01   -0.80421E-01 29952   0.231E+00    0.260E+00
DAV:   3    -0.343596267865E+03    0.35694E-02   -0.11525E-01 39248   0.667E-01    0.207E+00
DAV:   4    -0.343594772340E+03    0.14955E-02   -0.21723E-02 38592   0.403E-01    0.125E+00
DAV:   5    -0.343593247261E+03    0.15251E-02   -0.56182E-03 38632   0.230E-01    0.409E-01
DAV:   6    -0.343594662273E+03   -0.14150E-02   -0.35990E-03 38984   0.163E-01    0.795E-01
DAV:   7    -0.343593636262E+03    0.10260E-02   -0.49250E-03 39584   0.169E-01    0.477E-01
DAV:   8    -0.343594038822E+03   -0.40256E-03   -0.31104E-03 40056   0.168E-01    0.566E-01
DAV:   9    -0.343594150011E+03   -0.11119E-03   -0.33325E-03 39464   0.156E-01    0.618E-01
DAV:  10    -0.343593748384E+03    0.40163E-03   -0.28501E-03 38256   0.122E-01    0.360E-01
DAV:  11    -0.343593774520E+03   -0.26136E-04   -0.89960E-04 37216   0.766E-02    0.253E-01
DAV:  12    -0.343593798009E+03   -0.23489E-04   -0.29985E-04 28992   0.485E-02    0.176E-01
DAV:  13    -0.343593787874E+03    0.10136E-04   -0.65270E-05 23624   0.295E-02    0.161E-01
DAV:  14    -0.343593848122E+03   -0.60249E-04   -0.21803E-04 24272   0.315E-02    0.274E-01
DAV:  15    -0.343593813371E+03    0.34751E-04   -0.25660E-04 26592   0.368E-02    0.221E-01
DAV:  16    -0.343593845243E+03   -0.31872E-04   -0.32995E-04 24320   0.355E-02    0.260E-01
DAV:  17    -0.343593777500E+03    0.67744E-04   -0.18251E-04 32000   0.377E-02    0.140E-01
DAV:  18    -0.343593832343E+03   -0.54843E-04   -0.10727E-04 24008   0.296E-02    0.172E-01
DAV:  19    -0.343593808059E+03    0.24284E-04   -0.89677E-05 27840   0.316E-02    0.830E-02
DAV:  20    -0.343593827137E+03   -0.19079E-04   -0.60980E-05 21576   0.213E-02    0.105E-01
DAV:  21    -0.343593821401E+03    0.57365E-05   -0.39372E-05 19464   0.208E-02
  27 F= -.34359382E+03 E0= -.34357517E+03  d E =-.614464E-02  mag=    20.0000
       N       E                     dE             d eps       ncg     rms          rms(c)
DAV:   1    -0.343369689486E+03    0.22414E+00   -0.55219E+01 31984   0.235E+01    0.169E+00
DAV:   2    -0.343666179565E+03   -0.29649E+00   -0.25973E+00 31216   0.407E+00    0.811E+00
DAV:   3    -0.343570600053E+03    0.95580E-01   -0.43957E-01 37168   0.146E+00    0.233E+00
DAV:   4    -0.343616013215E+03   -0.45413E-01   -0.13743E-01 38000   0.829E-01    0.380E+00
DAV:   5    -0.343589503758E+03    0.26509E-01   -0.80551E-02 38336   0.633E-01    0.900E-01
DAV:   6    -0.343596831779E+03   -0.73280E-02   -0.13308E-02 38296   0.322E-01    0.157E+00
DAV:   7    -0.343595163441E+03    0.16683E-02   -0.17016E-02 39464   0.349E-01    0.135E+00
DAV:   8    -0.343595033044E+03    0.13040E-03   -0.16287E-02 40128   0.334E-01    0.118E+00
DAV:   9    -0.343595705763E+03   -0.67272E-03   -0.13641E-02 39424   0.285E-01    0.114E+00
DAV:  10    -0.343594589295E+03    0.11165E-02   -0.51893E-03 39184   0.212E-01    0.747E-01
DAV:  11    -0.343594446794E+03    0.14250E-03   -0.29632E-03 38920   0.132E-01    0.572E-01
DAV:  12    -0.343594588029E+03   -0.14123E-03   -0.15957E-03 39320   0.920E-02    0.484E-01
DAV:  13    -0.343594616733E+03   -0.28704E-04   -0.10321E-03 38472   0.798E-02    0.402E-01
DAV:  14    -0.343594944543E+03   -0.32781E-03   -0.11007E-03 40056   0.108E-01    0.498E-01
DAV:  15    -0.343595245262E+03   -0.30072E-03   -0.21724E-03 40280   0.119E-01    0.715E-01
DAV:  16    -0.343594724729E+03    0.52053E-03   -0.18758E-03 39552   0.114E-01    0.534E-01
DAV:  17    -0.343594786579E+03   -0.61850E-04   -0.78825E-04 38576   0.830E-02    0.512E-01
DAV:  18    -0.343594625378E+03    0.16120E-03   -0.88765E-04 39432   0.771E-02    0.331E-01
DAV:  19    -0.343594906172E+03   -0.28079E-03   -0.14052E-03 38344   0.824E-02    0.398E-01
DAV:  20    -0.343594725391E+03    0.18078E-03   -0.86296E-04 35096   0.671E-02    0.190E-01
DAV:  21    -0.343594879321E+03   -0.15393E-03   -0.24406E-04 32936   0.473E-02    0.195E-01
DAV:  22    -0.343594851199E+03    0.28122E-04   -0.10500E-04 24496   0.265E-02    0.945E-02
DAV:  23    -0.343594861603E+03   -0.10404E-04   -0.50346E-05 29872   0.234E-02    0.517E-02
DAV:  24    -0.343594870231E+03   -0.86278E-05   -0.17786E-05 21560   0.141E-02
  28 F= -.34359487E+03 E0= -.34357646E+03  d E =-.104883E-02  mag=    20.0000
       N       E                     dE             d eps       ncg     rms          rms(c)
DAV:   1    -0.343484668183E+03    0.11019E+00   -0.26226E+01 32144   0.166E+01    0.116E+00
DAV:   2    -0.343612734797E+03   -0.12807E+00   -0.12220E+00 30040   0.280E+00    0.346E+00
DAV:   3    -0.343602245677E+03    0.10489E-01   -0.12638E-01 39568   0.912E-01    0.276E+00
DAV:   4    -0.343602933306E+03   -0.68763E-03   -0.53448E-02 38592   0.551E-01    0.199E+00
DAV:   5    -0.343598316698E+03    0.46166E-02   -0.13101E-02 38712   0.370E-01    0.827E-01
DAV:   6    -0.343599995904E+03   -0.16792E-02   -0.58064E-03 38992   0.205E-01    0.837E-01
DAV:   7    -0.343600243716E+03   -0.24781E-03   -0.11509E-02 40504   0.233E-01    0.933E-01
DAV:   8    -0.343599201925E+03    0.10418E-02   -0.93652E-03 40512   0.237E-01    0.603E-01
DAV:   9    -0.343600460188E+03   -0.12583E-02   -0.61238E-03 40216   0.204E-01    0.931E-01
DAV:  10    -0.343599195009E+03    0.12652E-02   -0.37224E-03 38920   0.170E-01    0.409E-01
DAV:  11    -0.343599307143E+03   -0.11213E-03   -0.12405E-03 37648   0.790E-02    0.239E-01
DAV:  12    -0.343599359073E+03   -0.51929E-04   -0.51183E-04 33216   0.544E-02    0.204E-01
DAV:  13    -0.343599347834E+03    0.11239E-04   -0.34718E-04 26968   0.452E-02    0.184E-01
DAV:  14    -0.343599345894E+03    0.19400E-05   -0.20615E-04 30064   0.490E-02    0.144E-01
DAV:  15    -0.343599425479E+03   -0.79585E-04   -0.41668E-04 34104   0.634E-02    0.257E-01
DAV:  16    -0.343599387904E+03    0.37575E-04   -0.32146E-04 30064   0.537E-02    0.214E-01
DAV:  17    -0.343599385559E+03    0.23448E-05   -0.21896E-04 27048   0.443E-02    0.156E-01
DAV:  18    -0.343599361716E+03    0.23843E-04   -0.14720E-04 22368   0.313E-02    0.471E-02
DAV:  19    -0.343599382974E+03   -0.21258E-04   -0.40969E-05 19424   0.178E-02    0.861E-02
DAV:  20    -0.343599372504E+03    0.10470E-04   -0.29906E-05 18760   0.158E-02    0.292E-02
DAV:  21    -0.343599376888E+03   -0.43841E-05   -0.66026E-06 16888   0.795E-03
  29 F= -.34359938E+03 E0= -.34358098E+03  d E =-.450666E-02  mag=    20.0000
       N       E                     dE             d eps       ncg     rms          rms(c)
DAV:   1    -0.343581118283E+03    0.18254E-01   -0.43347E+00 32408   0.711E+00    0.589E-01
DAV:   2    -0.343612877608E+03   -0.31759E-01   -0.24395E-01 32640   0.131E+00    0.316E+00
DAV:   3    -0.343597871805E+03    0.15006E-01   -0.56104E-02 36424   0.611E-01    0.854E-01
DAV:   4    -0.343603094409E+03   -0.52226E-02   -0.10381E-02 37096   0.254E-01    0.121E+00
DAV:   5    -0.343600978997E+03    0.21154E-02   -0.58829E-03 37528   0.189E-01    0.386E-01
DAV:   6    -0.343602001894E+03   -0.10229E-02   -0.24035E-03 37616   0.124E-01    0.677E-01
DAV:   7    -0.343601773921E+03    0.22797E-03   -0.59151E-03 39616   0.167E-01    0.662E-01
DAV:   8    -0.343601439867E+03    0.33405E-03   -0.63552E-03 39216   0.162E-01    0.461E-01
DAV:   9    -0.343601668284E+03   -0.22842E-03   -0.32774E-03 38904   0.123E-01    0.495E-01
DAV:  10    -0.343601335476E+03    0.33281E-03   -0.17201E-03 39176   0.100E-01    0.261E-01
DAV:  11    -0.343601391966E+03   -0.56491E-04   -0.32376E-04 32608   0.543E-02    0.230E-01
DAV:  12    -0.343601369199E+03    0.22768E-04   -0.17889E-04 26240   0.366E-02    0.165E-01
DAV:  13    -0.343601365012E+03    0.41869E-05   -0.69866E-05 22128   0.284E-02
  30 F= -.34360137E+03 E0= -.34358301E+03  d E =-.198812E-02  mag=    20.0000
       N       E                     dE             d eps       ncg     rms          rms(c)
DAV:   1    -0.343597794765E+03    0.35744E-02   -0.81296E-01 32728   0.324E+00    0.368E-01
DAV:   2    -0.343609510534E+03   -0.11716E-01   -0.71174E-02 34096   0.656E-01    0.247E+00
DAV:   3    -0.343599478101E+03    0.10032E-01   -0.28897E-02 37832   0.391E-01    0.498E-01
DAV:   4    -0.343602921042E+03   -0.34429E-02   -0.59310E-03 33496   0.174E-01    0.594E-01
DAV:   5    -0.343602315397E+03    0.60564E-03   -0.23320E-03 36664   0.110E-01    0.210E-01
DAV:   6    -0.343602537604E+03   -0.22221E-03   -0.43802E-04 33632   0.667E-02    0.324E-01
DAV:   7    -0.343602565296E+03   -0.27692E-04   -0.75186E-04 37824   0.832E-02    0.326E-01
DAV:   8    -0.343602586863E+03   -0.21566E-04   -0.87754E-04 38856   0.928E-02    0.341E-01
DAV:   9    -0.343602448741E+03    0.13812E-03   -0.44675E-04 37072   0.734E-02    0.166E-01
DAV:  10    -0.343602507976E+03   -0.59235E-04   -0.20287E-04 26176   0.423E-02    0.202E-01
DAV:  11    -0.343602461145E+03    0.46831E-04   -0.98417E-05 24064   0.338E-02    0.116E-01
DAV:  12    -0.343602465905E+03   -0.47605E-05   -0.16864E-05 17728   0.138E-02
  31 F= -.34360247E+03 E0= -.34358407E+03  d E =-.110089E-02  mag=    20.0000
       N       E                     dE             d eps       ncg     rms          rms(c)
DAV:   1    -0.343593247387E+03    0.92138E-02   -0.24800E+00 32304   0.486E+00    0.309E-01
DAV:   2    -0.343602732427E+03   -0.94850E-02   -0.95338E-02 29952   0.794E-01    0.421E-01
DAV:   3    -0.343604388796E+03   -0.16564E-02   -0.75476E-03 40640   0.224E-01    0.123E+00
DAV:   4    -0.343602165765E+03    0.22230E-02   -0.44189E-03 38216   0.164E-01    0.254E-01
DAV:   5    -0.343602721221E+03   -0.55546E-03   -0.67048E-04 36560   0.783E-02    0.216E-01
DAV:   6    -0.343602815432E+03   -0.94211E-04   -0.69809E-04 38344   0.656E-02    0.273E-01
DAV:   7    -0.343602748520E+03    0.66912E-04   -0.76628E-04 38048   0.707E-02    0.238E-01
DAV:   8    -0.343602704271E+03    0.44249E-04   -0.36144E-04 35872   0.575E-02    0.135E-01
DAV:   9    -0.343602756219E+03   -0.51948E-04   -0.18526E-04 26840   0.423E-02    0.174E-01
DAV:  10    -0.343602712086E+03    0.44133E-04   -0.14060E-04 23288   0.330E-02    0.725E-02
DAV:  11    -0.343602725205E+03   -0.13119E-04   -0.56875E-05 19520   0.189E-02    0.804E-02
DAV:  12    -0.343602719272E+03    0.59331E-05   -0.26123E-05 17696   0.144E-02
  32 F= -.34360272E+03 E0= -.34358438E+03  d E =-.253366E-03  mag=    20.0000
       N       E                     dE             d eps       ncg     rms          rms(c)
DAV:   1    -0.342492886542E+03    0.11098E+01   -0.25942E+02 32400   0.493E+01    0.338E+00
DAV:   2    -0.343690974788E+03   -0.11981E+01   -0.11609E+01 29952   0.840E+00    0.924E+00
DAV:   3    -0.343633958837E+03    0.57016E-01   -0.12292E+00 39424   0.256E+00    0.624E+00
DAV:   4    -0.343650397507E+03   -0.16439E-01   -0.50809E-01 39616   0.167E+00    0.742E+00
DAV:   5    -0.343577587933E+03    0.72810E-01   -0.39102E-01 38920   0.105E+00    0.193E+00
DAV:   6    -0.343597438729E+03   -0.19851E-01   -0.33779E-02 38928   0.592E-01    0.211E+00
DAV:   7    -0.343597162456E+03    0.27627E-03   -0.44292E-02 39376   0.543E-01    0.221E+00
DAV:   8    -0.343591577976E+03    0.55845E-02   -0.40439E-02 40016   0.457E-01    0.118E+00
DAV:   9    -0.343598753886E+03   -0.71759E-02   -0.33737E-02 39800   0.462E-01    0.224E+00
DAV:  10    -0.343591613313E+03    0.71406E-02   -0.14751E-02 39096   0.376E-01    0.122E+00
DAV:  11    -0.343591772080E+03   -0.15877E-03   -0.63787E-03 38736   0.216E-01    0.103E+00
DAV:  12    -0.343591318294E+03    0.45379E-03   -0.30721E-03 39680   0.159E-01    0.538E-01
DAV:  13    -0.343592331637E+03   -0.10133E-02   -0.32171E-03 40504   0.150E-01    0.774E-01
DAV:  14    -0.343592053762E+03    0.27787E-03   -0.34071E-03 40312   0.176E-01    0.558E-01
DAV:  15    -0.343592614182E+03   -0.56042E-03   -0.29918E-03 39432   0.161E-01    0.772E-01
DAV:  16    -0.343592261755E+03    0.35243E-03   -0.36625E-03 39688   0.172E-01    0.626E-01
DAV:  17    -0.343592350395E+03   -0.88640E-04   -0.29391E-03 38416   0.154E-01    0.687E-01
DAV:  18    -0.343592012086E+03    0.33831E-03   -0.24050E-03 38608   0.118E-01    0.501E-01
DAV:  19    -0.343592182868E+03   -0.17078E-03   -0.25007E-03 37840   0.107E-01    0.442E-01
DAV:  20    -0.343592054923E+03    0.12795E-03   -0.15607E-03 37976   0.740E-02    0.213E-01
DAV:  21    -0.343592215329E+03   -0.16041E-03   -0.41556E-04 34624   0.502E-02    0.203E-01
DAV:  22    -0.343592222536E+03   -0.72071E-05   -0.85361E-05 28672   0.298E-02
  33 F= -.34359222E+03 E0= -.34357373E+03  d E =0.104967E-01  mag=    20.0000
       N       E                     dE             d eps       ncg     rms          rms(c)
DAV:   1    -0.343270487857E+03    0.32173E+00   -0.58015E+01 32536   0.249E+01    0.193E+00
DAV:   2    -0.343593431315E+03   -0.32294E+00   -0.32127E+00 30400   0.437E+00    0.379E+00
DAV:   3    -0.343602842282E+03   -0.94110E-02   -0.40358E-01 40208   0.158E+00    0.412E+00
DAV:   4    -0.343590302601E+03    0.12540E-01   -0.18796E-01 39296   0.104E+00    0.342E+00
DAV:   5    -0.343574781160E+03    0.15521E-01   -0.46034E-02 39856   0.585E-01    0.137E+00
DAV:   6    -0.343575985724E+03   -0.12046E-02   -0.12992E-02 38664   0.290E-01    0.819E-01
DAV:   7    -0.343578594237E+03   -0.26085E-02   -0.95994E-03 39992   0.313E-01    0.146E+00
DAV:   8    -0.343575279679E+03    0.33146E-02   -0.13714E-02 39608   0.330E-01    0.804E-01
DAV:   9    -0.343579404956E+03   -0.41253E-02   -0.21863E-02 40136   0.305E-01    0.158E+00
DAV:  10    -0.343574847435E+03    0.45575E-02   -0.16112E-02 38800   0.280E-01    0.517E-01
DAV:  11    -0.343575803691E+03   -0.95626E-03   -0.30686E-03 38384   0.125E-01    0.485E-01
DAV:  12    -0.343575785872E+03    0.17819E-04   -0.17744E-03 38328   0.111E-01    0.385E-01
DAV:  13    -0.343575870447E+03   -0.84575E-04   -0.10594E-03 38392   0.920E-02    0.430E-01
DAV:  14    -0.343575775626E+03    0.94821E-04   -0.13202E-03 39768   0.922E-02    0.325E-01
DAV:  15    -0.343575864260E+03   -0.88634E-04   -0.10912E-03 38616   0.960E-02    0.322E-01
DAV:  16    -0.343575829147E+03    0.35113E-04   -0.64034E-04 37312   0.705E-02    0.274E-01
DAV:  17    -0.343575808051E+03    0.21096E-04   -0.39492E-04 37640   0.653E-02    0.252E-01
DAV:  18    -0.343575774955E+03    0.33095E-04   -0.40915E-04 30176   0.504E-02    0.153E-01
DAV:  19    -0.343575796668E+03   -0.21713E-04   -0.20492E-04 28328   0.394E-02    0.107E-01
DAV:  20    -0.343575844917E+03   -0.48249E-04   -0.31193E-04 23552   0.356E-02    0.183E-01
DAV:  21    -0.343575799272E+03    0.45645E-04   -0.18040E-04 23040   0.321E-02    0.669E-02
DAV:  22    -0.343575815950E+03   -0.16678E-04   -0.16886E-05 20664   0.151E-02    0.507E-02
DAV:  23    -0.343575817614E+03   -0.16640E-05   -0.58136E-06 17256   0.799E-03
  34 F= -.34357582E+03 E0= -.34355729E+03  d E =0.164049E-01  mag=    20.0000
       N       E                     dE             d eps       ncg     rms          rms(c)
DAV:   1    -0.342651491176E+03    0.92432E+00   -0.20634E+02 32880   0.456E+01    0.321E+00
DAV:   2    -0.343670773278E+03   -0.10193E+01   -0.99033E+00 29952   0.773E+00    0.754E+00
DAV:   3    -0.343662240817E+03    0.85325E-02   -0.97150E-01 40096   0.239E+00    0.603E+00
DAV:   4    -0.343692597766E+03   -0.30357E-01   -0.44561E-01 40576   0.162E+00    0.793E+00
DAV:   5    -0.343597044553E+03    0.95553E-01   -0.24707E-01 39264   0.114E+00    0.205E+00
DAV:   6    -0.343617451249E+03   -0.20407E-01   -0.31817E-02 37808   0.506E-01    0.198E+00
DAV:   7    -0.343616406254E+03    0.10450E-02   -0.32920E-02 39760   0.468E-01    0.165E+00
DAV:   8    -0.343617213436E+03   -0.80718E-03   -0.35434E-02 38992   0.449E-01    0.170E+00
DAV:   9    -0.343620906759E+03   -0.36933E-02   -0.43133E-02 40448   0.500E-01    0.231E+00
DAV:  10    -0.343613914720E+03    0.69920E-02   -0.21924E-02 39192   0.434E-01    0.111E+00
DAV:  11    -0.343615267670E+03   -0.13530E-02   -0.84057E-03 38688   0.297E-01    0.104E+00
DAV:  12    -0.343614929893E+03    0.33778E-03   -0.11704E-02 39968   0.233E-01    0.852E-01
DAV:  13    -0.343614028072E+03    0.90182E-03   -0.71806E-03 39136   0.197E-01    0.409E-01
DAV:  14    -0.343614780443E+03   -0.75237E-03   -0.26888E-03 39600   0.130E-01    0.630E-01
DAV:  15    -0.343614199250E+03    0.58119E-03   -0.16891E-03 38736   0.122E-01    0.278E-01
DAV:  16    -0.343614736990E+03   -0.53774E-03   -0.17615E-03 38840   0.882E-02    0.579E-01
DAV:  17    -0.343614301692E+03    0.43530E-03   -0.15718E-03 37672   0.894E-02    0.185E-01
DAV:  18    -0.343614548994E+03   -0.24730E-03   -0.69090E-04 35416   0.623E-02    0.306E-01
DAV:  19    -0.343614415620E+03    0.13337E-03   -0.44011E-04 31160   0.513E-02    0.999E-02
DAV:  20    -0.343614512279E+03   -0.96659E-04   -0.21887E-04 25280   0.364E-02    0.206E-01
DAV:  21    -0.343614448099E+03    0.64180E-04   -0.20403E-04 25288   0.324E-02    0.751E-02
DAV:  22    -0.343614474509E+03   -0.26410E-04   -0.20431E-05 20360   0.145E-02    0.654E-02
DAV:  23    -0.343614472894E+03    0.16156E-05   -0.12576E-05 17784   0.108E-02
  35 F= -.34361447E+03 E0= -.34359602E+03  d E =-.386553E-01  mag=    20.0000
       N       E                     dE             d eps       ncg     rms          rms(c)
DAV:   1    -0.343457984770E+03    0.15649E+00   -0.19190E+01 32848   0.163E+01    0.174E+00
DAV:   2    -0.343687090475E+03   -0.22911E+00   -0.19303E+00 32928   0.327E+00    0.748E+00
DAV:   3    -0.343583286785E+03    0.10380E+00   -0.30162E-01 37496   0.180E+00    0.289E+00
DAV:   4    -0.343605208690E+03   -0.21922E-01   -0.79928E-02 38760   0.757E-01    0.307E+00
DAV:   5    -0.343592015213E+03    0.13193E-01   -0.38391E-02 38352   0.512E-01    0.138E+00
DAV:   6    -0.343594241221E+03   -0.22260E-02   -0.12982E-02 38112   0.252E-01    0.122E+00
DAV:   7    -0.343595165725E+03   -0.92450E-03   -0.16475E-02 40416   0.275E-01    0.127E+00
DAV:   8    -0.343594630231E+03    0.53549E-03   -0.12843E-02 40408   0.341E-01    0.119E+00
DAV:   9    -0.343598601382E+03   -0.39712E-02   -0.26834E-02 40000   0.393E-01    0.197E+00
DAV:  10    -0.343593008500E+03    0.55929E-02   -0.26067E-02 39648   0.362E-01    0.982E-01
DAV:  11    -0.343593418834E+03   -0.41033E-03   -0.99405E-03 39600   0.231E-01    0.610E-01
DAV:  12    -0.343593773430E+03   -0.35460E-03   -0.26238E-03 39304   0.170E-01    0.497E-01
DAV:  13    -0.343593769142E+03    0.42880E-05   -0.26363E-03 40280   0.145E-01    0.520E-01
DAV:  14    -0.343593590445E+03    0.17870E-03   -0.16548E-03 38784   0.117E-01    0.401E-01
DAV:  15    -0.343594183563E+03   -0.59312E-03   -0.25235E-03 39720   0.114E-01    0.692E-01
DAV:  16    -0.343593613064E+03    0.57050E-03   -0.13924E-03 38328   0.992E-02    0.447E-01
DAV:  17    -0.343593691126E+03   -0.78062E-04   -0.82281E-04 38864   0.782E-02    0.376E-01
DAV:  18    -0.343593640487E+03    0.50639E-04   -0.47647E-04 33928   0.542E-02    0.198E-01
DAV:  19    -0.343593751808E+03   -0.11132E-03   -0.12744E-04 32864   0.417E-02    0.192E-01
DAV:  20    -0.343593828330E+03   -0.76521E-04   -0.30618E-04 28344   0.463E-02    0.297E-01
DAV:  21    -0.343593683318E+03    0.14501E-03   -0.32327E-04 37904   0.610E-02    0.154E-01
DAV:  22    -0.343593791962E+03   -0.10864E-03   -0.29335E-04 32200   0.444E-02    0.140E-01
DAV:  23    -0.343593794923E+03   -0.29608E-05   -0.10071E-04 27384   0.326E-02    0.583E-02
DAV:  24    -0.343593803916E+03   -0.89927E-05   -0.24428E-05 24528   0.162E-02
  36 F= -.34359380E+03 E0= -.34357533E+03  d E =0.206690E-01  mag=    20.0000
       N       E                     dE             d eps       ncg     rms          rms(c)
DAV:   1    -0.343481273186E+03    0.11252E+00   -0.25123E+01 32272   0.176E+01    0.167E+00
DAV:   2    -0.343780857108E+03   -0.29958E+00   -0.21554E+00 33096   0.341E+00    0.125E+01
DAV:   3    -0.343557347450E+03    0.22351E+00   -0.56361E-01 36544   0.171E+00    0.175E+00
DAV:   4    -0.343629461737E+03   -0.72114E-01   -0.55877E-02 36432   0.797E-01    0.288E+00
DAV:   5    -0.343616536846E+03    0.12925E-01   -0.32960E-02 38056   0.588E-01    0.106E+00
DAV:   6    -0.343620587468E+03   -0.40506E-02   -0.13118E-02 37968   0.327E-01    0.131E+00
DAV:   7    -0.343621258642E+03   -0.67117E-03   -0.15294E-02 39712   0.355E-01    0.146E+00
DAV:   8    -0.343618460209E+03    0.27984E-02   -0.12716E-02 40296   0.336E-01    0.900E-01
DAV:   9    -0.343619224321E+03   -0.76411E-03   -0.77588E-03 39744   0.260E-01    0.979E-01
DAV:  10    -0.343618945898E+03    0.27842E-03   -0.67468E-03 39656   0.226E-01    0.867E-01
DAV:  11    -0.343618135553E+03    0.81034E-03   -0.33308E-03 38928   0.166E-01    0.588E-01
DAV:  12    -0.343618245594E+03   -0.11004E-03   -0.13294E-03 39680   0.131E-01    0.481E-01
DAV:  13    -0.343618652965E+03   -0.40737E-03   -0.29934E-03 40240   0.129E-01    0.651E-01
DAV:  14    -0.343618124773E+03    0.52819E-03   -0.17817E-03 38832   0.137E-01    0.280E-01
DAV:  15    -0.343618524483E+03   -0.39971E-03   -0.11346E-03 37904   0.932E-02    0.326E-01
DAV:  16    -0.343618569606E+03   -0.45123E-04   -0.14081E-03 37056   0.701E-02    0.359E-01
DAV:  17    -0.343618488355E+03    0.81251E-04   -0.69450E-04 33584   0.529E-02    0.263E-01
DAV:  18    -0.343618448787E+03    0.39568E-04   -0.18152E-04 23960   0.299E-02    0.193E-01
DAV:  19    -0.343618476220E+03   -0.27433E-04   -0.11848E-05 18896   0.116E-02    0.201E-01
DAV:  20    -0.343618481444E+03   -0.52237E-05   -0.67144E-06 17584   0.641E-03
  37 F= -.34361848E+03 E0= -.34359998E+03  d E =-.246775E-01  mag=    20.0000
       N       E                     dE             d eps       ncg     rms          rms(c)
DAV:   1    -0.343618380771E+03    0.95449E-04   -0.74044E-01 32144   0.273E+00    0.261E-01
DAV:   2    -0.343625310378E+03   -0.69296E-02   -0.49663E-02 32936   0.525E-01    0.178E+00
DAV:   3    -0.343619504110E+03    0.58063E-02   -0.15508E-02 37472   0.270E-01    0.245E-01
DAV:   4    -0.343621444621E+03   -0.19405E-02   -0.16866E-03 35736   0.110E-01    0.475E-01
DAV:   5    -0.343621142212E+03    0.30241E-03   -0.12845E-03 36976   0.949E-02    0.191E-01
DAV:   6    -0.343621290227E+03   -0.14801E-03   -0.49984E-04 32432   0.561E-02    0.286E-01
DAV:   7    -0.343621225873E+03    0.64354E-04   -0.54515E-04 36864   0.621E-02    0.222E-01
DAV:   8    -0.343621240536E+03   -0.14663E-04   -0.38653E-04 36640   0.648E-02    0.207E-01
DAV:   9    -0.343621321924E+03   -0.81387E-04   -0.48013E-04 32840   0.580E-02    0.255E-01
DAV:  10    -0.343621238782E+03    0.83141E-04   -0.45680E-04 31048   0.531E-02    0.116E-01
DAV:  11    -0.343621262707E+03   -0.23925E-04   -0.78985E-05 22416   0.263E-02    0.100E-01
DAV:  12    -0.343621263751E+03   -0.10440E-05   -0.23628E-05 19112   0.164E-02
  38 F= -.34362126E+03 E0= -.34360286E+03  d E =-.278231E-02  mag=    20.0000
       N       E                     dE             d eps       ncg     rms          rms(c)
DAV:   1    -0.343603738965E+03    0.17524E-01   -0.56475E+00 32432   0.777E+00    0.539E-01
DAV:   2    -0.343629025929E+03   -0.25287E-01   -0.25997E-01 29960   0.133E+00    0.796E-01
DAV:   3    -0.343632902096E+03   -0.38762E-02   -0.22336E-02 39608   0.421E-01    0.183E+00
DAV:   4    -0.343627926181E+03    0.49759E-02   -0.12472E-02 38384   0.301E-01    0.724E-01
DAV:   5    -0.343628580539E+03   -0.65436E-03   -0.22660E-03 38568   0.150E-01    0.241E-01
DAV:   6    -0.343629308735E+03   -0.72820E-03   -0.16150E-03 39440   0.122E-01    0.667E-01
DAV:   7    -0.343628457576E+03    0.85116E-03   -0.14375E-03 39768   0.129E-01    0.213E-01
DAV:   8    -0.343628979698E+03   -0.52212E-03   -0.10741E-03 39672   0.961E-02    0.476E-01
DAV:   9    -0.343628678659E+03    0.30104E-03   -0.88487E-04 38512   0.823E-02    0.178E-01
DAV:  10    -0.343628735721E+03   -0.57062E-04   -0.21057E-04 28952   0.469E-02    0.124E-01
DAV:  11    -0.343628728844E+03    0.68764E-05   -0.45189E-05 21992   0.208E-02
  39 F= -.34362873E+03 E0= -.34361045E+03  d E =-.746509E-02  mag=    20.0000
       N       E                     dE             d eps       ncg     rms          rms(c)
DAV:   1    -0.343398484044E+03    0.23025E+00   -0.52806E+01 32488   0.235E+01    0.166E+00
DAV:   2    -0.343644920088E+03   -0.24644E+00   -0.25323E+00 30624   0.413E+00    0.325E+00
DAV:   3    -0.343668764354E+03   -0.23844E-01   -0.51259E-01 39744   0.144E+00    0.520E+00
DAV:   4    -0.343634193084E+03    0.34571E-01   -0.19929E-01 39368   0.857E-01    0.270E+00
DAV:   5    -0.343629739469E+03    0.44536E-02   -0.25510E-02 39360   0.549E-01    0.835E-01
DAV:   6    -0.343634240406E+03   -0.45009E-02   -0.17438E-02 39704   0.349E-01    0.148E+00
DAV:   7    -0.343632033020E+03    0.22074E-02   -0.18972E-02 40176   0.338E-01    0.117E+00
DAV:   8    -0.343630911180E+03    0.11218E-02   -0.11979E-02 39736   0.316E-01    0.848E-01
[...]
DAV:   8    -0.343644749954E+03   -0.67690E-03   -0.38327E-03 39352   0.134E-01    0.624E-01
DAV:   9    -0.343644149109E+03    0.60085E-03   -0.30942E-03 38504   0.128E-01    0.287E-01
DAV:  10    -0.343644322676E+03   -0.17357E-03   -0.81409E-04 37912   0.849E-02    0.282E-01
DAV:  11    -0.343644243239E+03    0.79437E-04   -0.43998E-04 32712   0.561E-02    0.156E-01
DAV:  12    -0.343644278539E+03   -0.35300E-04   -0.98289E-05 25736   0.305E-02    0.150E-01
DAV:  13    -0.343644265562E+03    0.12977E-04   -0.30301E-05 19520   0.172E-02    0.124E-01
DAV:  14    -0.343644261747E+03    0.38149E-05   -0.74779E-06 16824   0.949E-03
  44 F= -.34364426E+03 E0= -.34362604E+03  d E =-.332093E-04  mag=    20.0000
       N       E                     dE             d eps       ncg     rms          rms(c)
DAV:   1    -0.343528683941E+03    0.11558E+00   -0.28151E+01 32448   0.172E+01    0.118E+00
DAV:   2    -0.343655237420E+03   -0.12655E+00   -0.11984E+00 29984   0.291E+00    0.343E+00
DAV:   3    -0.343647048425E+03    0.81890E-02   -0.12634E-01 39240   0.105E+00    0.295E+00
DAV:   4    -0.343645960109E+03    0.10883E-02   -0.56817E-02 38352   0.556E-01    0.223E+00
DAV:   5    -0.343639223772E+03    0.67363E-02   -0.15920E-02 38560   0.391E-01    0.567E-01
DAV:   6    -0.343642870014E+03   -0.36462E-02   -0.78465E-03 38160   0.222E-01    0.112E+00
DAV:   7    -0.343641086455E+03    0.17836E-02   -0.96863E-03 39888   0.245E-01    0.703E-01
DAV:   8    -0.343642749570E+03   -0.16631E-02   -0.11868E-02 40040   0.240E-01    0.112E+00
DAV:   9    -0.343641235148E+03    0.15144E-02   -0.54474E-03 38664   0.207E-01    0.467E-01
DAV:  10    -0.343641496618E+03   -0.26147E-03   -0.18123E-03 38040   0.112E-01    0.401E-01
DAV:  11    -0.343641422671E+03    0.73947E-04   -0.52837E-04 37480   0.681E-02    0.307E-01
DAV:  12    -0.343641385584E+03    0.37088E-04   -0.11350E-04 26000   0.313E-02    0.276E-01
DAV:  13    -0.343641418344E+03   -0.32760E-04   -0.24214E-04 23408   0.314E-02    0.294E-01
DAV:  14    -0.343641467510E+03   -0.49166E-04   -0.63662E-04 34816   0.620E-02    0.301E-01
DAV:  15    -0.343641475885E+03   -0.83752E-05   -0.74273E-04 39240   0.881E-02    0.309E-01
DAV:  16    -0.343641760993E+03   -0.28511E-03   -0.17000E-03 38440   0.916E-02    0.555E-01
DAV:  17    -0.343641307203E+03    0.45379E-03   -0.10229E-03 37336   0.858E-02    0.922E-02
DAV:  18    -0.343641529741E+03   -0.22254E-03   -0.37515E-04 30208   0.479E-02    0.208E-01
DAV:  19    -0.343641468729E+03    0.61011E-04   -0.21768E-04 26784   0.404E-02    0.840E-02
DAV:  20    -0.343641501830E+03   -0.33100E-04   -0.62787E-05 21624   0.201E-02    0.120E-01
DAV:  21    -0.343641488741E+03    0.13089E-04   -0.37352E-05 19832   0.169E-02    0.789E-02
DAV:  22    -0.343641491541E+03   -0.27995E-05   -0.96783E-06 19544   0.126E-02
  45 F= -.34364149E+03 E0= -.34362307E+03  d E =0.277021E-02  mag=    20.0000
       N       E                     dE             d eps       ncg     rms          rms(c)
DAV:   1    -0.343569738452E+03    0.71750E-01   -0.18378E+01 32392   0.141E+01    0.961E-01
DAV:   2    -0.343657774975E+03   -0.88037E-01   -0.83624E-01 30056   0.244E+00    0.341E+00
DAV:   3    -0.343648150807E+03    0.96242E-02   -0.13552E-01 39064   0.778E-01    0.205E+00
DAV:   4    -0.343651543261E+03   -0.33925E-02   -0.24890E-02 38760   0.469E-01    0.183E+00
DAV:   5    -0.343645816399E+03    0.57269E-02   -0.10560E-02 38448   0.333E-01    0.506E-01
DAV:   6    -0.343648271131E+03   -0.24547E-02   -0.39333E-03 37888   0.196E-01    0.948E-01
DAV:   7    -0.343647496233E+03    0.77490E-03   -0.67374E-03 39992   0.222E-01    0.829E-01
DAV:   8    -0.343647059953E+03    0.43628E-03   -0.59782E-03 39792   0.191E-01    0.554E-01
DAV:   9    -0.343647489298E+03   -0.42934E-03   -0.25901E-03 39832   0.158E-01    0.549E-01
DAV:  10    -0.343647165514E+03    0.32378E-03   -0.19895E-03 39384   0.113E-01    0.381E-01
DAV:  11    -0.343647126856E+03    0.38658E-04   -0.63756E-04 34672   0.561E-02    0.331E-01
DAV:  12    -0.343647047628E+03    0.79228E-04   -0.22644E-04 26744   0.393E-02    0.223E-01
DAV:  13    -0.343647135308E+03   -0.87680E-04   -0.29466E-04 29288   0.481E-02    0.284E-01
DAV:  14    -0.343647156988E+03   -0.21680E-04   -0.59412E-04 34528   0.666E-02    0.253E-01
DAV:  15    -0.343647255088E+03   -0.98101E-04   -0.12705E-03 34760   0.771E-02    0.329E-01
DAV:  16    -0.343647126392E+03    0.12870E-03   -0.86573E-04 29816   0.599E-02    0.164E-01
DAV:  17    -0.343647162740E+03   -0.36349E-04   -0.14127E-04 25784   0.359E-02    0.160E-01
DAV:  18    -0.343647137185E+03    0.25555E-04   -0.91901E-05 22336   0.276E-02    0.677E-02
DAV:  19    -0.343647145698E+03   -0.85131E-05   -0.28342E-05 17592   0.136E-02
  46 F= -.34364715E+03 E0= -.34362883E+03  d E =-.565416E-02  mag=    20.0000
       N       E                     dE             d eps       ncg     rms          rms(c)
DAV:   1    -0.343616885490E+03    0.30252E-01   -0.56828E+00 32608   0.814E+00    0.579E-01
DAV:   2    -0.343646127402E+03   -0.29242E-01   -0.29690E-01 30424   0.140E+00    0.107E+00
DAV:   3    -0.343649394856E+03   -0.32675E-02   -0.36787E-02 39216   0.456E-01    0.180E+00
DAV:   4    -0.343645107072E+03    0.42878E-02   -0.18489E-02 37616   0.313E-01    0.853E-01
DAV:   5    -0.343645371351E+03   -0.26428E-03   -0.32282E-03 37080   0.157E-01    0.344E-01
DAV:   6    -0.343645809960E+03   -0.43861E-03   -0.17139E-03 39944   0.112E-01    0.408E-01
DAV:   7    -0.343645669500E+03    0.14046E-03   -0.16650E-03 39712   0.123E-01    0.381E-01
DAV:   8    -0.343645579777E+03    0.89723E-04   -0.14449E-03 40408   0.108E-01    0.293E-01
DAV:   9    -0.343645835995E+03   -0.25622E-03   -0.14591E-03 39512   0.910E-02    0.475E-01
DAV:  10    -0.343645437492E+03    0.39850E-03   -0.65241E-04 37656   0.794E-02    0.119E-01
DAV:  11    -0.343645565504E+03   -0.12801E-03   -0.29282E-04 26544   0.378E-02    0.158E-01
DAV:  12    -0.343645541138E+03    0.24365E-04   -0.19244E-04 22928   0.362E-02    0.101E-01
DAV:  13    -0.343645576105E+03   -0.34967E-04   -0.25056E-04 23264   0.343E-02    0.177E-01
DAV:  14    -0.343645539248E+03    0.36857E-04   -0.20183E-04 24800   0.363E-02    0.604E-02
DAV:  15    -0.343645583708E+03   -0.44460E-04   -0.11037E-04 23520   0.311E-02    0.139E-01
DAV:  16    -0.343645550225E+03    0.33482E-04   -0.79795E-05 22200   0.274E-02    0.491E-02
DAV:  17    -0.343645561010E+03   -0.10784E-04   -0.20178E-05 18160   0.141E-02    0.492E-02
DAV:  18    -0.343645559353E+03    0.16569E-05   -0.83337E-06 16808   0.845E-03
  47 F= -.34364556E+03 E0= -.34362723E+03  d E =0.158635E-02  mag=    20.0000
       N       E                     dE             d eps       ncg     rms          rms(c)
DAV:   1    -0.343634368192E+03    0.11193E-01   -0.25202E+00 32568   0.545E+00    0.385E-01
DAV:   2    -0.343647658813E+03   -0.13291E-01   -0.13340E-01 30856   0.948E-01    0.994E-01
DAV:   3    -0.343647472327E+03    0.18649E-03   -0.20500E-02 38120   0.331E-01    0.953E-01
DAV:   4    -0.343647137137E+03    0.33519E-03   -0.86584E-03 37696   0.200E-01    0.721E-01
DAV:   5    -0.343646511959E+03    0.62518E-03   -0.18434E-03 37968   0.131E-01    0.225E-01
DAV:   6    -0.343646821071E+03   -0.30911E-03   -0.56745E-04 38064   0.740E-02    0.354E-01
DAV:   7    -0.343646647681E+03    0.17339E-03   -0.65878E-04 39408   0.872E-02    0.249E-01
DAV:   8    -0.343646734466E+03   -0.86785E-04   -0.10073E-03 40640   0.853E-02    0.340E-01
DAV:   9    -0.343646663898E+03    0.70568E-04   -0.84974E-04 38352   0.775E-02    0.235E-01
DAV:  10    -0.343646656279E+03    0.76189E-05   -0.43241E-04 32824   0.573E-02    0.151E-01
DAV:  11    -0.343646646237E+03    0.10042E-04   -0.21106E-04 23944   0.341E-02    0.108E-01
DAV:  12    -0.343646638349E+03    0.78876E-05   -0.40291E-05 19120   0.175E-02
  48 F= -.34364664E+03 E0= -.34362835E+03  d E =-.107900E-02  mag=    20.0000
       N       E                     dE             d eps       ncg     rms          rms(c)
DAV:   1    -0.343643162817E+03    0.34834E-02   -0.76644E-01 33096   0.306E+00    0.232E-01
DAV:   2    -0.343647668768E+03   -0.45060E-02   -0.42434E-02 30880   0.547E-01    0.689E-01
DAV:   3    -0.343647086892E+03    0.58188E-03   -0.62613E-03 36912   0.222E-01    0.425E-01
DAV:   4    -0.343647301765E+03   -0.21487E-03   -0.28150E-03 37168   0.109E-01    0.496E-01
DAV:   5    -0.343646904666E+03    0.39710E-03   -0.93359E-04 35776   0.742E-02    0.120E-01
DAV:   6    -0.343647095053E+03   -0.19039E-03   -0.34720E-04 29672   0.487E-02    0.243E-01
DAV:   7    -0.343647031374E+03    0.63679E-04   -0.46616E-04 34440   0.589E-02    0.186E-01
DAV:   8    -0.343647054353E+03   -0.22980E-04   -0.60879E-04 30704   0.546E-02    0.189E-01
DAV:   9    -0.343647057559E+03   -0.32058E-05   -0.23542E-04 25832   0.413E-02    0.153E-01
DAV:  10    -0.343647034666E+03    0.22893E-04   -0.85173E-05 23408   0.289E-02    0.911E-02
DAV:  11    -0.343647031412E+03    0.32546E-05   -0.20131E-05 18808   0.137E-02
  49 F= -.34364703E+03 E0= -.34362869E+03  d E =-.393063E-03  mag=    20.0000
       N       E                     dE             d eps       ncg     rms          rms(c)
DAV:   1    -0.343645342217E+03    0.16924E-02   -0.59042E-01 32288   0.251E+00    0.192E-01
DAV:   2    -0.343648529524E+03   -0.31873E-02   -0.28009E-02 30616   0.447E-01    0.712E-01
DAV:   3    -0.343647767094E+03    0.76243E-03   -0.37836E-03 37208   0.184E-01    0.306E-01
DAV:   4    -0.343648076766E+03   -0.30967E-03   -0.15545E-03 36144   0.866E-02    0.366E-01
DAV:   5    -0.343647810390E+03    0.26638E-03   -0.11193E-03 33240   0.683E-02    0.105E-01
DAV:   6    -0.343647917169E+03   -0.10678E-03   -0.23003E-04 26560   0.385E-02    0.204E-01
DAV:   7    -0.343647860086E+03    0.57083E-04   -0.31470E-04 31720   0.482E-02    0.134E-01
DAV:   8    -0.343647882327E+03   -0.22240E-04   -0.25009E-04 25304   0.396E-02    0.150E-01
DAV:   9    -0.343647885482E+03   -0.31550E-05   -0.14345E-04 23504   0.346E-02    0.120E-01
DAV:  10    -0.343647875352E+03    0.10130E-04   -0.55768E-05 20312   0.248E-02    0.736E-02
DAV:  11    -0.343647877955E+03   -0.26037E-05   -0.22654E-05 18192   0.147E-02
  50 F= -.34364788E+03 E0= -.34362958E+03  d E =-.846544E-03  mag=    20.0000
       N       E                     dE             d eps       ncg     rms          rms(c)
DAV:   1    -0.343647147766E+03    0.72759E-03   -0.38834E-01 32080   0.210E+00    0.155E-01
DAV:   2    -0.343649089898E+03   -0.19421E-02   -0.18462E-02 30024   0.366E-01    0.442E-01
DAV:   3    -0.343648947890E+03    0.14201E-03   -0.19283E-03 38840   0.128E-01    0.337E-01
DAV:   4    -0.343648927702E+03    0.20188E-04   -0.82910E-04 35056   0.696E-02    0.250E-01
DAV:   5    -0.343648846186E+03    0.81517E-04   -0.34161E-04 27744   0.399E-02    0.105E-01
DAV:   6    -0.343648887971E+03   -0.41785E-04   -0.10366E-04 22328   0.277E-02    0.150E-01
DAV:   7    -0.343648889245E+03   -0.12742E-05   -0.25570E-04 25528   0.422E-02    0.187E-01
DAV:   8    -0.343648853567E+03    0.35678E-04   -0.26959E-04 28816   0.435E-02    0.139E-01
DAV:   9    -0.343648883066E+03   -0.29499E-04   -0.18774E-04 27000   0.453E-02    0.163E-01
DAV:  10    -0.343648854595E+03    0.28471E-04   -0.11658E-04 25072   0.378E-02    0.770E-02
DAV:  11    -0.343648868504E+03   -0.13909E-04   -0.35891E-05 20040   0.201E-02    0.862E-02
DAV:  12    -0.343648861195E+03    0.73091E-05   -0.21461E-05 17328   0.145E-02
  51 F= -.34364886E+03 E0= -.34363055E+03  d E =-.983240E-03  mag=    20.0000
       N       E                     dE             d eps       ncg     rms          rms(c)
DAV:   1    -0.343647974609E+03    0.89390E-03   -0.29577E-01 31656   0.165E+00    0.132E-01
DAV:   2    -0.343649201313E+03   -0.12267E-02   -0.11915E-02 30040   0.289E-01    0.320E-01
DAV:   3    -0.343649133371E+03    0.67942E-04   -0.17654E-03 39096   0.106E-01    0.287E-01
DAV:   4    -0.343649085854E+03    0.47518E-04   -0.51969E-04 32592   0.566E-02    0.228E-01
DAV:   5    -0.343649016271E+03    0.69582E-04   -0.16210E-04 25656   0.363E-02    0.108E-01
DAV:   6    -0.343649054749E+03   -0.38477E-04   -0.84366E-05 23040   0.274E-02    0.150E-01
DAV:   7    -0.343649021449E+03    0.33300E-04   -0.16731E-04 28848   0.381E-02    0.115E-01
DAV:   8    -0.343649059521E+03   -0.38073E-04   -0.24672E-04 25288   0.398E-02    0.166E-01
DAV:   9    -0.343649058412E+03    0.11096E-05   -0.18827E-04 23592   0.381E-02    0.139E-01
DAV:  10    -0.343649045076E+03    0.13336E-04   -0.84894E-05 22304   0.285E-02    0.645E-02
DAV:  11    -0.343649053715E+03   -0.86397E-05   -0.34166E-05 18688   0.168E-02
  52 F= -.34364905E+03 E0= -.34363076E+03  d E =-.192520E-03  mag=    20.0000
       N       E                     dE             d eps       ncg     rms          rms(c)
DAV:   1    -0.343644064246E+03    0.49808E-02   -0.12242E+00 32064   0.329E+00    0.243E-01
DAV:   2    -0.343649214167E+03   -0.51499E-02   -0.50695E-02 29952   0.553E-01    0.587E-01
DAV:   3    -0.343649217460E+03   -0.32932E-05   -0.60682E-03 38544   0.202E-01    0.618E-01
DAV:   4    -0.343648906790E+03    0.31067E-03   -0.26275E-03 37896   0.123E-01    0.394E-01
DAV:   5    -0.343648761154E+03    0.14564E-03   -0.80148E-04 34576   0.776E-02    0.164E-01
DAV:   6    -0.343648875818E+03   -0.11466E-03   -0.36423E-04 29488   0.476E-02    0.214E-01
DAV:   7    -0.343648828930E+03    0.46888E-04   -0.34881E-04 38624   0.565E-02    0.189E-01
DAV:   8    -0.343648830299E+03   -0.13689E-05   -0.32769E-04 37648   0.553E-02    0.200E-01
DAV:   9    -0.343648861248E+03   -0.30950E-04   -0.57188E-04 28432   0.522E-02    0.223E-01
DAV:  10    -0.343648799597E+03    0.61651E-04   -0.33936E-04 26384   0.425E-02    0.100E-01
DAV:  11    -0.343648806537E+03   -0.69398E-05   -0.45293E-05 20552   0.208E-02
  53 F= -.34364881E+03 E0= -.34363050E+03  d E =0.247179E-03  mag=    20.0000
       N       E                     dE             d eps       ncg     rms          rms(c)
DAV:   1    -0.343634621016E+03    0.14179E-01   -0.34079E+00 32152   0.592E+00    0.387E-01
DAV:   2    -0.343649740448E+03   -0.15119E-01   -0.14519E-01 30784   0.100E+00    0.130E+00
DAV:   3    -0.343647841718E+03    0.18987E-02   -0.22375E-02 37112   0.331E-01    0.790E-01
DAV:   4    -0.343648692079E+03   -0.85036E-03   -0.84433E-03 37056   0.195E-01    0.748E-01
DAV:   5    -0.343647650121E+03    0.10420E-02   -0.30518E-03 38408   0.132E-01    0.151E-01
DAV:   6    -0.343648134114E+03   -0.48399E-03   -0.67361E-04 37080   0.781E-02    0.411E-01
DAV:   7    -0.343647848062E+03    0.28605E-03   -0.73520E-04 38688   0.758E-02    0.185E-01
DAV:   8    -0.343647996237E+03   -0.14817E-03   -0.63924E-04 38320   0.672E-02    0.294E-01
DAV:   9    -0.343647922603E+03    0.73634E-04   -0.41370E-04 33304   0.571E-02    0.156E-01
DAV:  10    -0.343647925379E+03   -0.27764E-05   -0.16789E-04 26088   0.422E-02    0.115E-01
DAV:  11    -0.343647923501E+03    0.18778E-05   -0.51049E-05 20928   0.249E-02
  54 F= -.34364792E+03 E0= -.34362962E+03  d E =0.883035E-03  mag=    20.0000
       N       E                     dE             d eps       ncg     rms          rms(c)
DAV:   1    -0.343638632807E+03    0.92926E-02   -0.21875E+00 32328   0.490E+00    0.332E-01
DAV:   2    -0.343649006918E+03   -0.10374E-01   -0.97191E-02 30288   0.836E-01    0.106E+00
DAV:   3    -0.343647909773E+03    0.10971E-02   -0.10540E-02 38592   0.285E-01    0.723E-01
DAV:   4    -0.343648155307E+03   -0.24553E-03   -0.45600E-03 38320   0.158E-01    0.604E-01
DAV:   5    -0.343647568589E+03    0.58672E-03   -0.17682E-03 37984   0.108E-01    0.173E-01
DAV:   6    -0.343647898593E+03   -0.33000E-03   -0.66508E-04 34736   0.704E-02    0.383E-01
DAV:   7    -0.343647671391E+03    0.22720E-03   -0.76269E-04 40032   0.842E-02    0.237E-01
DAV:   8    -0.343647827178E+03   -0.15579E-03   -0.76967E-04 39800   0.772E-02    0.342E-01
DAV:   9    -0.343647688713E+03    0.13846E-03   -0.50115E-04 37168   0.649E-02    0.155E-01
DAV:  10    -0.343647727427E+03   -0.38714E-04   -0.30686E-04 25024   0.370E-02    0.125E-01
DAV:  11    -0.343647729241E+03   -0.18145E-05   -0.71047E-05 20960   0.219E-02
  55 F= -.34364773E+03 E0= -.34362939E+03  d E =0.194260E-03  mag=    20.0000
       N       E                     dE             d eps       ncg     rms          rms(c)
DAV:   1    -0.343646434667E+03    0.12928E-02   -0.58015E-01 31992   0.266E+00    0.246E-01
DAV:   2    -0.343650786878E+03   -0.43522E-02   -0.37846E-02 30992   0.493E-01    0.100E+00
DAV:   3    -0.343649359644E+03    0.14272E-02   -0.94519E-03 36584   0.224E-01    0.449E-01
DAV:   4    -0.343649867531E+03   -0.50789E-03   -0.21624E-03 37752   0.114E-01    0.460E-01
DAV:   5    -0.343649484001E+03    0.38353E-03   -0.56254E-04 36192   0.760E-02    0.163E-01
DAV:   6    -0.343649635993E+03   -0.15199E-03   -0.27215E-04 28240   0.459E-02    0.253E-01
DAV:   7    -0.343649583834E+03    0.52159E-04   -0.44839E-04 37424   0.627E-02    0.225E-01
DAV:   8    -0.343649639067E+03   -0.55233E-04   -0.71861E-04 33208   0.679E-02    0.297E-01
DAV:   9    -0.343649596821E+03    0.42246E-04   -0.46544E-04 34256   0.635E-02    0.185E-01
DAV:  10    -0.343649607947E+03   -0.11126E-04   -0.16027E-04 26232   0.449E-02    0.142E-01
DAV:  11    -0.343649606681E+03    0.12657E-05   -0.10805E-04 23248   0.286E-02    0.112E-01
DAV:  12    -0.343649606138E+03    0.54269E-06   -0.52832E-05 19520   0.195E-02
  56 F= -.34364961E+03 E0= -.34363133E+03  d E =-.187690E-02  mag=    20.0000
       N       E                     dE             d eps       ncg     rms          rms(c)
DAV:   1    -0.343648970188E+03    0.63649E-03   -0.11999E-01 33176   0.121E+00    0.118E-01
DAV:   2    -0.343649980774E+03   -0.10106E-02   -0.77967E-03 31296   0.223E-01    0.549E-01
DAV:   3    -0.343649399129E+03    0.58164E-03   -0.20387E-03 35632   0.109E-01    0.128E-01
DAV:   4    -0.343649596311E+03   -0.19718E-03   -0.29809E-04 29288   0.424E-02    0.173E-01
DAV:   5    -0.343649545511E+03    0.50800E-04   -0.12086E-04 22312   0.284E-02    0.918E-02
DAV:   6    -0.343649559019E+03   -0.13509E-04   -0.40307E-05 19504   0.176E-02    0.108E-01
DAV:   7    -0.343649556270E+03    0.27498E-05   -0.13794E-04 23192   0.271E-02    0.130E-01
DAV:   8    -0.343649575809E+03   -0.19539E-04   -0.23776E-04 24912   0.404E-02    0.177E-01
DAV:   9    -0.343649584569E+03   -0.87599E-05   -0.38363E-04 24304   0.441E-02    0.171E-01
DAV:  10    -0.343649552075E+03    0.32494E-04   -0.21031E-04 23992   0.367E-02    0.674E-02
DAV:  11    -0.343649566399E+03   -0.14325E-04   -0.27008E-05 20040   0.196E-02    0.632E-02
DAV:  12    -0.343649564504E+03    0.18955E-05   -0.16915E-05 17016   0.136E-02
  57 F= -.34364956E+03 E0= -.34363127E+03  d E =0.416343E-04  mag=    20.0000
       N       E                     dE             d eps       ncg     rms          rms(c)
DAV:   1    -0.343647922464E+03    0.16439E-02   -0.41961E-01 32352   0.205E+00    0.128E-01
DAV:   2    -0.343649552371E+03   -0.16299E-02   -0.16049E-02 29952   0.333E-01    0.283E-01
DAV:   3    -0.343649620782E+03   -0.68411E-04   -0.14991E-03 39992   0.949E-02    0.375E-01
DAV:   4    -0.343649469740E+03    0.15104E-03   -0.55913E-04 33304   0.627E-02    0.142E-01
DAV:   5    -0.343649489928E+03   -0.20188E-04   -0.84294E-05 24840   0.307E-02    0.734E-02
DAV:   6    -0.343649505798E+03   -0.15870E-04   -0.42748E-05 20648   0.241E-02    0.106E-01
DAV:   7    -0.343649492232E+03    0.13566E-04   -0.90319E-05 22392   0.296E-02    0.866E-02
DAV:   8    -0.343649503168E+03   -0.10936E-04   -0.14128E-04 22376   0.330E-02    0.114E-01
DAV:   9    -0.343649501753E+03    0.14154E-05   -0.12601E-04 21872   0.312E-02    0.989E-02
DAV:  10    -0.343649499328E+03    0.24251E-05   -0.47880E-05 20072   0.245E-02
  58 F= -.34364950E+03 E0= -.34363117E+03  d E =0.651762E-04  mag=    20.0000
