       N       E                     dE             d eps       ncg     rms          rms(c)
DAV:   1     0.738466269595E+04    0.73847E+04   -0.33185E+05 41296   0.171E+03
DAV:   2     0.499141755046E+03   -0.68855E+04   -0.64633E+04 39320   0.521E+02
DAV:   3    -0.323938731989E+03   -0.82308E+03   -0.79959E+03 41480   0.200E+02
DAV:   4    -0.358297346763E+03   -0.34359E+02   -0.33896E+02 46008   0.398E+01
DAV:   5    -0.360702034272E+03   -0.24047E+01   -0.23864E+01 66448   0.810E+00    0.610E+01
DAV:   6    -0.317673619743E+03    0.43028E+02   -0.38835E+02 48920   0.601E+01    0.934E+01
DAV:   7    -0.318274791659E+03   -0.60117E+00   -0.63817E+01 43296   0.456E+01    0.716E+01
DAV:   8    -0.322218842674E+03   -0.39441E+01   -0.63046E+01 45480   0.415E+01    0.682E+01
DAV:   9    -0.343011306352E+03   -0.20792E+02   -0.13361E+02 51464   0.362E+01    0.966E+01
DAV:  10    -0.334005998718E+03    0.90053E+01   -0.14043E+02 48744   0.247E+01    0.742E+01
DAV:  11    -0.323209286811E+03    0.10797E+02   -0.15412E+01 47936   0.236E+01    0.619E+01
DAV:  12    -0.326743208334E+03   -0.35339E+01   -0.31749E+01 51144   0.268E+01    0.674E+01
DAV:  13    -0.334732990623E+03   -0.79898E+01   -0.52708E+01 48488   0.297E+01    0.932E+01
DAV:  14    -0.322868883783E+03    0.11864E+02   -0.98803E+01 47544   0.235E+01    0.764E+01
DAV:  15    -0.315504360048E+03    0.73645E+01   -0.18119E+01 47072   0.213E+01    0.530E+01
DAV:  16    -0.315431411852E+03    0.72948E-01   -0.31452E+01 49816   0.176E+01    0.598E+01
DAV:  17    -0.310419006979E+03    0.50124E+01   -0.25594E+01 49376   0.140E+01    0.285E+01
DAV:  18    -0.310646711813E+03   -0.22770E+00   -0.87324E+00 48128   0.973E+00    0.230E+01
DAV:  19    -0.310131087803E+03    0.51562E+00   -0.25393E+00 48720   0.771E+00    0.205E+01
DAV:  20    -0.310885927376E+03   -0.75484E+00   -0.37313E+00 46016   0.481E+00    0.289E+01
DAV:  21    -0.310555897796E+03    0.33003E+00   -0.70733E-01 45136   0.290E+00    0.213E+01
DAV:  22    -0.310702482087E+03   -0.14658E+00   -0.50818E-01 50680   0.218E+00    0.172E+01
DAV:  23    -0.310890264264E+03   -0.18778E+00   -0.27075E-01 49456   0.199E+00    0.158E+01
DAV:  24    -0.311200548601E+03   -0.31028E+00   -0.10917E+00 49040   0.406E+00    0.159E+01
DAV:  25    -0.311473156773E+03   -0.27261E+00   -0.58669E-01 49312   0.318E+00    0.115E+01
DAV:  26    -0.311718534076E+03   -0.24538E+00   -0.19085E+00 49832   0.320E+00    0.126E+01
DAV:  27    -0.311836871014E+03   -0.11834E+00   -0.53436E-01 42608   0.210E+00    0.148E+01
DAV:  28    -0.311728948025E+03    0.10792E+00   -0.85972E-01 46624   0.224E+00    0.119E+01
DAV:  29    -0.311795249266E+03   -0.66301E-01   -0.10087E+00 49488   0.233E+00    0.142E+01
DAV:  30    -0.311669802259E+03    0.12545E+00   -0.28326E-01 47136   0.220E+00    0.121E+01
DAV:  31    -0.311599320468E+03    0.70482E-01   -0.36034E-01 49872   0.156E+00    0.914E+00
DAV:  32    -0.311696807988E+03   -0.97488E-01   -0.12777E-01 47944   0.113E+00    0.109E+01
DAV:  33    -0.311669278021E+03    0.27530E-01   -0.21790E-02 47176   0.697E-01    0.112E+01
DAV:  34    -0.311603747788E+03    0.65530E-01   -0.58162E-02 57144   0.113E+00    0.940E+00
DAV:  35    -0.311634541586E+03   -0.30794E-01   -0.11246E-01 51520   0.982E-01    0.923E+00
DAV:  36    -0.311625416897E+03    0.91247E-02   -0.39913E-02 44024   0.750E-01    0.821E+00
DAV:  37    -0.311610900906E+03    0.14516E-01   -0.33269E-02 50424   0.676E-01    0.743E+00
DAV:  38    -0.311594797642E+03    0.16103E-01   -0.14258E-02 48008   0.590E-01    0.681E+00
DAV:  39    -0.311588138577E+03    0.66591E-02   -0.36182E-02 50736   0.807E-01    0.634E+00
DAV:  40    -0.311587502975E+03    0.63560E-03   -0.95230E-02 48896   0.815E-01    0.735E+00
DAV:  41    -0.311560869736E+03    0.26633E-01   -0.61558E-02 46472   0.626E-01    0.495E+00
DAV:  42    -0.311567496847E+03   -0.66271E-02   -0.13698E-02 45096   0.479E-01    0.426E+00
DAV:  43    -0.311575347860E+03   -0.78510E-02   -0.14515E-02 49824   0.426E-01    0.422E+00
DAV:  44    -0.311581419551E+03   -0.60717E-02   -0.63289E-02 50008   0.496E-01    0.465E+00
DAV:  45    -0.311569946751E+03    0.11473E-01   -0.64948E-02 43744   0.607E-01    0.302E+00
DAV:  46    -0.311576611383E+03   -0.66646E-02   -0.24483E-02 47480   0.617E-01    0.290E+00
DAV:  47    -0.311573392836E+03    0.32185E-02   -0.22550E-02 50120   0.423E-01    0.186E+00
DAV:  48    -0.311577363413E+03   -0.39706E-02   -0.45353E-03 44048   0.278E-01    0.175E+00
DAV:  49    -0.311578584029E+03   -0.12206E-02   -0.15224E-02 49792   0.380E-01    0.188E+00
DAV:  50    -0.311579276043E+03   -0.69201E-03   -0.64628E-03 47864   0.253E-01    0.212E+00
DAV:  51    -0.311577392199E+03    0.18838E-02   -0.74706E-03 50944   0.284E-01    0.136E+00
DAV:  52    -0.311579169872E+03   -0.17777E-02   -0.47330E-03 44120   0.241E-01    0.132E+00
DAV:  53    -0.311578122274E+03    0.10476E-02   -0.11162E-02 48688   0.252E-01    0.624E-01
DAV:  54    -0.311580248135E+03   -0.21259E-02   -0.53539E-03 44040   0.190E-01    0.973E-01
DAV:  55    -0.311579374555E+03    0.87358E-03   -0.82635E-04 42720   0.127E-01    0.816E-01
DAV:  56    -0.311578917721E+03    0.45683E-03   -0.23965E-03 50512   0.109E-01    0.546E-01
DAV:  57    -0.311579579962E+03   -0.66224E-03   -0.61023E-04 43072   0.902E-02    0.621E-01
DAV:  58    -0.311579565729E+03    0.14233E-04   -0.21772E-04 41576   0.572E-02    0.585E-01
DAV:  59    -0.311579433539E+03    0.13219E-03   -0.71056E-04 39984   0.688E-02    0.281E-01
DAV:  60    -0.311579725376E+03   -0.29184E-03   -0.52759E-04 41728   0.615E-02    0.168E-01
DAV:  61    -0.311579875465E+03   -0.15009E-03   -0.17130E-04 37952   0.512E-02    0.219E-01
DAV:  62    -0.311579821575E+03    0.53890E-04   -0.27267E-04 30016   0.384E-02    0.158E-01
DAV:  63    -0.311579834304E+03   -0.12729E-04   -0.13517E-04 31928   0.363E-02    0.114E-01
DAV:  64    -0.311579848698E+03   -0.14394E-04   -0.62210E-05 27920   0.290E-02    0.113E-01
DAV:  65    -0.311579842732E+03    0.59667E-05   -0.37525E-05 26304   0.239E-02
   1 F= -.31157984E+03 E0= -.31155529E+03  d E =-.311580E+03  mag=    25.9500
       N       E                     dE             d eps       ncg     rms          rms(c)
DAV:   1    -0.311484778779E+03    0.95070E-01   -0.59433E+00 37496   0.147E+01    0.236E+00
DAV:   2    -0.311619237137E+03   -0.13446E+00   -0.19755E+00 40720   0.376E+00    0.515E+00
DAV:   3    -0.311686907444E+03   -0.67670E-01   -0.81283E-01 46944   0.290E+00    0.115E+01
DAV:   4    -0.311603191955E+03    0.83715E-01   -0.12860E+00 45368   0.245E+00    0.793E+00
DAV:   5    -0.311587475493E+03    0.15716E-01   -0.93281E-01 43176   0.228E+00    0.584E+00
DAV:   6    -0.311576551360E+03    0.10924E-01   -0.37821E-01 42792   0.150E+00    0.280E+00
DAV:   7    -0.311596084855E+03   -0.19533E-01   -0.19580E-01 43720   0.136E+00    0.232E+00
DAV:   8    -0.311597614725E+03   -0.15299E-02   -0.10665E-01 46144   0.104E+00    0.293E+00
DAV:   9    -0.311588130969E+03    0.94838E-02   -0.94867E-02 42384   0.761E-01    0.185E+00
DAV:  10    -0.311589121828E+03   -0.99086E-03   -0.22215E-02 43240   0.538E-01    0.126E+00
DAV:  11    -0.311589632229E+03   -0.51040E-03   -0.63680E-03 45832   0.366E-01    0.714E-01
DAV:  12    -0.311591204313E+03   -0.15721E-02   -0.79717E-03 47240   0.413E-01    0.846E-01
DAV:  13    -0.311592577591E+03   -0.13733E-02   -0.18310E-02 46592   0.482E-01    0.137E+00
DAV:  14    -0.311590490000E+03    0.20876E-02   -0.10010E-02 43936   0.431E-01    0.742E-01
DAV:  15    -0.311590732931E+03   -0.24293E-03   -0.44996E-03 47048   0.266E-01    0.389E-01
DAV:  16    -0.311591073887E+03   -0.34096E-03   -0.15302E-03 44640   0.192E-01    0.393E-01
DAV:  17    -0.311590977694E+03    0.96193E-04   -0.72333E-04 45328   0.118E-01    0.296E-01
DAV:  18    -0.311590951845E+03    0.25849E-04   -0.50798E-04 40040   0.840E-02    0.223E-01
DAV:  19    -0.311590950970E+03    0.87530E-06   -0.28296E-04 34784   0.660E-02    0.164E-01
DAV:  20    -0.311590975673E+03   -0.24703E-04   -0.30789E-04 35168   0.508E-02    0.831E-02
DAV:  21    -0.311591026949E+03   -0.51276E-04   -0.10145E-04 30600   0.408E-02    0.834E-02
DAV:  22    -0.311591025845E+03    0.11041E-05   -0.29318E-05 26224   0.331E-02
   2 F= -.31159103E+03 E0= -.31156669E+03  d E =-.111831E-01  mag=    25.9674
       N       E                     dE             d eps       ncg     rms          rms(c)
DAV:   1    -0.311580760203E+03    0.10267E-01   -0.63015E-01 37568   0.479E+00    0.759E-01
DAV:   2    -0.311594352795E+03   -0.13593E-01   -0.20311E-01 40168   0.119E+00    0.162E+00
DAV:   3    -0.311602457414E+03   -0.81046E-02   -0.10588E-01 45200   0.937E-01    0.375E+00
DAV:   4    -0.311590823186E+03    0.11634E-01   -0.11288E-01 43760   0.891E-01    0.217E+00
DAV:   5    -0.311589293040E+03    0.15301E-02   -0.18530E-02 42192   0.683E-01    0.549E-01
DAV:   6    -0.311593879971E+03   -0.45869E-02   -0.25974E-02 45808   0.399E-01    0.159E+00
DAV:   7    -0.311591573141E+03    0.23068E-02   -0.23936E-02 43968   0.401E-01    0.103E+00
DAV:   8    -0.311591542157E+03    0.30985E-04   -0.11639E-02 41336   0.321E-01    0.724E-01
DAV:   9    -0.311591662074E+03   -0.11992E-03   -0.34023E-03 42840   0.203E-01    0.294E-01
DAV:  10    -0.311591976991E+03   -0.31492E-03   -0.90825E-04 42136   0.141E-01    0.230E-01
DAV:  11    -0.311592024432E+03   -0.47441E-04   -0.96802E-04 45816   0.132E-01    0.278E-01
DAV:  12    -0.311591969894E+03    0.54538E-04   -0.82624E-04 41496   0.131E-01    0.160E-01
DAV:  13    -0.311592014402E+03   -0.44508E-04   -0.27094E-04 37968   0.928E-02    0.131E-01
DAV:  14    -0.311592065968E+03   -0.51566E-04   -0.51286E-04 34048   0.908E-02    0.238E-01
DAV:  15    -0.311591966385E+03    0.99582E-04   -0.26157E-04 33624   0.755E-02    0.661E-02
DAV:  16    -0.311592004528E+03   -0.38143E-04   -0.36351E-05 24920   0.258E-02    0.475E-02
DAV:  17    -0.311592009877E+03   -0.53494E-05   -0.21666E-05 23440   0.239E-02
   3 F= -.31159201E+03 E0= -.31156764E+03  d E =-.121671E-01  mag=    25.9724
       N       E                     dE             d eps       ncg     rms          rms(c)
DAV:   1    -0.311558791997E+03    0.33213E-01   -0.32157E+00 37440   0.893E+00    0.127E+00
DAV:   2    -0.311627591907E+03   -0.68800E-01   -0.75374E-01 40656   0.237E+00    0.521E+00
DAV:   3    -0.311596885183E+03    0.30707E-01   -0.54745E-01 45728   0.175E+00    0.429E+00
DAV:   4    -0.311618568977E+03   -0.21684E-01   -0.47802E-01 43480   0.146E+00    0.503E+00
DAV:   5    -0.311601319673E+03    0.17249E-01   -0.43045E-01 43344   0.138E+00    0.450E+00
DAV:   6    -0.311585672177E+03    0.15647E-01   -0.16521E-01 42080   0.108E+00    0.121E+00
DAV:   7    -0.311598630406E+03   -0.12958E-01   -0.43255E-02 41944   0.732E-01    0.175E+00
DAV:   8    -0.311599035130E+03   -0.40472E-03   -0.53656E-02 44360   0.636E-01    0.203E+00
DAV:   9    -0.311596068218E+03    0.29669E-02   -0.28810E-02 43280   0.575E-01    0.883E-01
DAV:  10    -0.311597124099E+03   -0.10559E-02   -0.54620E-03 43240   0.390E-01    0.706E-01
DAV:  11    -0.311596888216E+03    0.23588E-03   -0.31675E-03 45296   0.241E-01    0.613E-01
DAV:  12    -0.311596698504E+03    0.18971E-03   -0.16116E-03 45408   0.174E-01    0.377E-01
DAV:  13    -0.311597073158E+03   -0.37465E-03   -0.26482E-03 44840   0.211E-01    0.474E-01
DAV:  14    -0.311596976463E+03    0.96695E-04   -0.24792E-03 43640   0.206E-01    0.351E-01
DAV:  15    -0.311597035971E+03   -0.59508E-04   -0.90464E-04 42456   0.173E-01    0.280E-01
DAV:  16    -0.311597002412E+03    0.33558E-04   -0.63008E-04 41448   0.851E-02    0.161E-01
DAV:  17    -0.311597042551E+03   -0.40138E-04   -0.37233E-04 34936   0.775E-02    0.155E-01
DAV:  18    -0.311597021080E+03    0.21471E-04   -0.10901E-04 29032   0.512E-02    0.102E-01
DAV:  19    -0.311597033764E+03   -0.12684E-04   -0.50178E-05 28816   0.420E-02    0.103E-01
DAV:  20    -0.311597038956E+03   -0.51919E-05   -0.57041E-05 27296   0.347E-02
   4 F= -.31159704E+03 E0= -.31157267E+03  d E =-.502908E-02  mag=    25.9733
       N       E                     dE             d eps       ncg     rms          rms(c)
DAV:   1    -0.311560729535E+03    0.36304E-01   -0.31722E+00 37440   0.887E+00    0.126E+00
DAV:   2    -0.311624704068E+03   -0.63975E-01   -0.71612E-01 40304   0.233E+00    0.474E+00
DAV:   3    -0.311601748689E+03    0.22955E-01   -0.51533E-01 45880   0.172E+00    0.429E+00
DAV:   4    -0.311616205812E+03   -0.14457E-01   -0.41711E-01 43704   0.145E+00    0.459E+00
DAV:   5    -0.311603314561E+03    0.12891E-01   -0.37005E-01 43488   0.135E+00    0.424E+00
DAV:   6    -0.311588171199E+03    0.15143E-01   -0.14884E-01 42216   0.102E+00    0.112E+00
DAV:   7    -0.311600854572E+03   -0.12683E-01   -0.41237E-02 42296   0.712E-01    0.189E+00
DAV:   8    -0.311599406870E+03    0.14477E-02   -0.48053E-02 43824   0.620E-01    0.175E+00
DAV:   9    -0.311598247034E+03    0.11598E-02   -0.23437E-02 42480   0.545E-01    0.978E-01
DAV:  10    -0.311598273503E+03   -0.26469E-04   -0.58005E-03 43200   0.382E-01    0.708E-01
DAV:  11    -0.311598297862E+03   -0.24359E-04   -0.35780E-03 46912   0.242E-01    0.623E-01
DAV:  12    -0.311598074356E+03    0.22351E-03   -0.19793E-03 45464   0.194E-01    0.317E-01
DAV:  13    -0.311598511308E+03   -0.43695E-03   -0.18776E-03 44264   0.194E-01    0.390E-01
DAV:  14    -0.311598528509E+03   -0.17200E-04   -0.24742E-03 44192   0.181E-01    0.390E-01
DAV:  15    -0.311598435887E+03    0.92622E-04   -0.74192E-04 41856   0.149E-01    0.255E-01
DAV:  16    -0.311598425637E+03    0.10249E-04   -0.34665E-04 39000   0.688E-02    0.953E-02
DAV:  17    -0.311598507133E+03   -0.81496E-04   -0.20356E-04 33600   0.634E-02    0.165E-01
DAV:  18    -0.311598468928E+03    0.38205E-04   -0.18738E-04 29784   0.574E-02    0.965E-02
DAV:  19    -0.311598483423E+03   -0.14495E-04   -0.32504E-05 27392   0.374E-02    0.807E-02
DAV:  20    -0.311598486396E+03   -0.29730E-05   -0.34048E-05 24376   0.289E-02
   5 F= -.31159849E+03 E0= -.31157413E+03  d E =-.647652E-02  mag=    25.9723
       N       E                     dE             d eps       ncg     rms          rms(c)
DAV:   1    -0.311565668459E+03    0.32815E-01   -0.21522E+00 38784   0.760E+00    0.756E-01
DAV:   2    -0.311610456636E+03   -0.44788E-01   -0.43438E-01 38744   0.165E+00    0.382E+00
DAV:   3    -0.311597250835E+03    0.13206E-01   -0.24767E-01 42568   0.108E+00    0.215E+00
DAV:   4    -0.311606383324E+03   -0.91325E-02   -0.94584E-02 42008   0.949E-01    0.255E+00
DAV:   5    -0.311600636915E+03    0.57464E-02   -0.81811E-02 42104   0.770E-01    0.220E+00
DAV:   6    -0.311597691461E+03    0.29455E-02   -0.31079E-02 41016   0.512E-01    0.742E-01
DAV:   7    -0.311600638517E+03   -0.29471E-02   -0.82878E-03 42376   0.319E-01    0.760E-01
DAV:   8    -0.311600544714E+03    0.93803E-04   -0.73288E-03 44344   0.261E-01    0.688E-01
DAV:   9    -0.311600711719E+03   -0.16701E-03   -0.38182E-03 42864   0.216E-01    0.735E-01
DAV:  10    -0.311600370401E+03    0.34132E-03   -0.11618E-03 41976   0.162E-01    0.600E-01
DAV:  11    -0.311600245054E+03    0.12535E-03   -0.83740E-04 42640   0.112E-01    0.440E-01
DAV:  12    -0.311600338954E+03   -0.93900E-04   -0.63130E-04 43912   0.110E-01    0.226E-01
DAV:  13    -0.311600499816E+03   -0.16086E-03   -0.89387E-04 42536   0.908E-02    0.201E-01
DAV:  14    -0.311600587639E+03   -0.87823E-04   -0.36215E-04 40736   0.930E-02    0.269E-01
DAV:  15    -0.311600527134E+03    0.60504E-04   -0.33877E-04 35096   0.741E-02    0.236E-01
DAV:  16    -0.311600487303E+03    0.39831E-04   -0.15615E-04 29496   0.613E-02    0.132E-01
DAV:  17    -0.311600510118E+03   -0.22814E-04   -0.52769E-05 25632   0.269E-02    0.765E-02
DAV:  18    -0.311600528417E+03   -0.18299E-04   -0.40818E-05 24240   0.270E-02    0.552E-02
DAV:  19    -0.311600533723E+03   -0.53058E-05   -0.16231E-05 21656   0.206E-02
   6 F= -.31160053E+03 E0= -.31157628E+03  d E =-.204733E-02  mag=    25.9717
       N       E                     dE             d eps       ncg     rms          rms(c)
DAV:   1    -0.311589815297E+03    0.10713E-01   -0.67896E-01 38768   0.428E+00    0.425E-01
DAV:   2    -0.311603966284E+03   -0.14151E-01   -0.13654E-01 38768   0.927E-01    0.205E+00
DAV:   3    -0.311599452643E+03    0.45136E-02   -0.63195E-02 42880   0.626E-01    0.122E+00
DAV:   4    -0.311602387422E+03   -0.29348E-02   -0.25588E-02 42280   0.530E-01    0.138E+00
DAV:   5    -0.311600578963E+03    0.18085E-02   -0.21101E-02 41608   0.411E-01    0.112E+00
DAV:   6    -0.311599993450E+03    0.58551E-03   -0.79370E-03 40440   0.260E-01    0.298E-01
DAV:   7    -0.311601185676E+03   -0.11922E-02   -0.33118E-03 41008   0.185E-01    0.702E-01
DAV:   8    -0.311600531602E+03    0.65407E-03   -0.29555E-03 40320   0.165E-01    0.276E-01
DAV:   9    -0.311600832783E+03   -0.30118E-03   -0.88575E-04 39600   0.125E-01    0.301E-01
DAV:  10    -0.311600784644E+03    0.48139E-04   -0.25330E-04 37264   0.884E-02    0.230E-01
DAV:  11    -0.311600784506E+03    0.13833E-06   -0.37186E-04 32056   0.697E-02    0.171E-01
DAV:  12    -0.311600794719E+03   -0.10214E-04   -0.22713E-04 34144   0.649E-02    0.789E-02
DAV:  13    -0.311600820459E+03   -0.25739E-04   -0.87569E-05 27320   0.375E-02    0.978E-02
DAV:  14    -0.311600824277E+03   -0.38184E-05   -0.66949E-05 26680   0.404E-02
   7 F= -.31160082E+03 E0= -.31157656E+03  d E =-.233788E-02  mag=    25.9717
       N       E                     dE             d eps       ncg     rms          rms(c)
DAV:   1    -0.311578024190E+03    0.22796E-01   -0.17544E+00 38928   0.660E+00    0.673E-01
DAV:   2    -0.311621429434E+03   -0.43405E-01   -0.43088E-01 40008   0.160E+00    0.440E+00
DAV:   3    -0.311592961676E+03    0.28468E-01   -0.19836E-01 44888   0.114E+00    0.172E+00
DAV:   4    -0.311606837595E+03   -0.13876E-01   -0.76469E-02 43528   0.832E-01    0.276E+00
DAV:   5    -0.311601100475E+03    0.57371E-02   -0.77759E-02 42792   0.698E-01    0.165E+00
DAV:   6    -0.311600767814E+03    0.33266E-03   -0.15354E-02 41200   0.502E-01    0.627E-01
DAV:   7    -0.311603117917E+03   -0.23501E-02   -0.88992E-03 42264   0.272E-01    0.109E+00
DAV:   8    -0.311601643566E+03    0.14744E-02   -0.86197E-03 42576   0.273E-01    0.509E-01
DAV:   9    -0.311602360976E+03   -0.71741E-03   -0.24404E-03 41752   0.210E-01    0.386E-01
DAV:  10    -0.311602324175E+03    0.36801E-04   -0.12535E-03 44416   0.156E-01    0.392E-01
DAV:  11    -0.311602288942E+03    0.35233E-04   -0.10520E-03 43904   0.106E-01    0.350E-01
DAV:  12    -0.311602223767E+03    0.65175E-04   -0.46329E-04 42200   0.102E-01    0.222E-01
DAV:  13    -0.311602257215E+03   -0.33448E-04   -0.34084E-04 36576   0.589E-02    0.132E-01
DAV:  14    -0.311602330105E+03   -0.72890E-04   -0.25085E-04 35080   0.687E-02    0.160E-01
DAV:  15    -0.311602302043E+03    0.28062E-04   -0.19481E-04 28584   0.555E-02    0.104E-01
DAV:  16    -0.311602304462E+03   -0.24187E-05   -0.52623E-05 26888   0.386E-02
   8 F= -.31160230E+03 E0= -.31157806E+03  d E =-.148018E-02  mag=    25.9715
       N       E                     dE             d eps       ncg     rms          rms(c)
DAV:   1    -0.311589087839E+03    0.13214E-01   -0.97690E-01 38928   0.493E+00    0.508E-01
DAV:   2    -0.311614491379E+03   -0.25404E-01   -0.25399E-01 40096   0.122E+00    0.334E+00
DAV:   3    -0.311596295925E+03    0.18195E-01   -0.10567E-01 44520   0.901E-01    0.123E+00
DAV:   4    -0.311604497663E+03   -0.82017E-02   -0.36910E-02 42984   0.626E-01    0.174E+00
DAV:   5    -0.311602627970E+03    0.18697E-02   -0.35421E-02 42728   0.500E-01    0.132E+00
DAV:   6    -0.311601570562E+03    0.10574E-02   -0.95782E-03 40584   0.372E-01    0.436E-01
DAV:   7    -0.311602785361E+03   -0.12148E-02   -0.41557E-03 42448   0.191E-01    0.635E-01
DAV:   8    -0.311602420708E+03    0.36465E-03   -0.27079E-03 41760   0.188E-01    0.320E-01
DAV:   9    -0.311602636899E+03   -0.21619E-03   -0.10728E-03 41104   0.148E-01    0.269E-01
DAV:  10    -0.311602576430E+03    0.60469E-04   -0.60314E-04 40256   0.116E-01    0.218E-01
DAV:  11    -0.311602598255E+03   -0.21825E-04   -0.52441E-04 36400   0.835E-02    0.219E-01
DAV:  12    -0.311602563336E+03    0.34919E-04   -0.29166E-04 37664   0.793E-02    0.939E-02
DAV:  13    -0.311602598317E+03   -0.34981E-04   -0.93721E-05 28936   0.465E-02    0.950E-02
DAV:  14    -0.311602601532E+03   -0.32142E-05   -0.94885E-05 27952   0.488E-02
   9 F= -.31160260E+03 E0= -.31157833E+03  d E =-.177725E-02  mag=    25.9718
       N       E                     dE             d eps       ncg     rms          rms(c)
DAV:   1    -0.311556426649E+03    0.46172E-01   -0.23874E+00 40048   0.917E+00    0.759E-01
DAV:   2    -0.311610031299E+03   -0.53605E-01   -0.53306E-01 38080   0.181E+00    0.338E+00
DAV:   3    -0.311602540741E+03    0.74906E-02   -0.23105E-01 43704   0.102E+00    0.238E+00
DAV:   4    -0.311609822953E+03   -0.72822E-02   -0.10152E-01 42096   0.967E-01    0.260E+00
DAV:   5    -0.311602409602E+03    0.74134E-02   -0.60272E-02 41840   0.776E-01    0.185E+00
DAV:   6    -0.311601856877E+03    0.55272E-03   -0.21298E-02 41120   0.447E-01    0.891E-01
DAV:   7    -0.311603728084E+03   -0.18712E-02   -0.72271E-03 42880   0.256E-01    0.978E-01
DAV:   8    -0.311603017206E+03    0.71088E-03   -0.56816E-03 42584   0.230E-01    0.383E-01
DAV:   9    -0.311603694616E+03   -0.67741E-03   -0.25290E-03 41992   0.184E-01    0.468E-01
DAV:  10    -0.311603645820E+03    0.48796E-04   -0.72939E-04 44480   0.142E-01    0.449E-01
DAV:  11    -0.311603503791E+03    0.14203E-03   -0.80696E-04 42576   0.109E-01    0.334E-01
DAV:  12    -0.311603512709E+03   -0.89189E-05   -0.41121E-04 41784   0.990E-02    0.138E-01
DAV:  13    -0.311603610845E+03   -0.98136E-04   -0.28097E-04 39144   0.685E-02    0.138E-01
DAV:  14    -0.311603677687E+03   -0.66843E-04   -0.48787E-04 38464   0.858E-02    0.244E-01
DAV:  15    -0.311603582269E+03    0.95419E-04   -0.27562E-04 34344   0.755E-02    0.971E-02
DAV:  16    -0.311603617005E+03   -0.34736E-04   -0.57479E-05 27592   0.430E-02    0.786E-02
DAV:  17    -0.311603622029E+03   -0.50246E-05   -0.66288E-05 25424   0.334E-02
  10 F= -.31160362E+03 E0= -.31157942E+03  d E =-.102050E-02  mag=    25.9716
