       N       E                     dE             d eps       ncg     rms          ort
DAV:   1     0.714272631692E+04    0.71427E+04   -0.27553E+05  8528   0.167E+03
DAV:   2     0.750474642634E+03   -0.63923E+04   -0.60537E+04  8528   0.504E+02
DAV:   3    -0.366375693672E+03   -0.11169E+04   -0.10920E+04  8528   0.206E+02
DAV:   4    -0.430158030949E+03   -0.63782E+02   -0.62086E+02  8528   0.508E+01
DAV:   5    -0.435285127074E+03   -0.51271E+01   -0.50089E+01  8528   0.116E+01
SDA:   6    -0.166223424314E+03    0.26906E+03   -0.50089E+01  8528   0.192E+04 0.000E+00
CGA:   7    -0.273111135671E+03   -0.10689E+03   -0.10251E+03  8528   0.161E+04-0.455E+02
CGA:   8    -0.349839187481E+03   -0.76728E+02   -0.67821E+02  8528   0.324E+03-0.173E+03
CGA:   9    -0.360554193545E+03   -0.10715E+02   -0.10510E+02  8528   0.214E+03 0.102E+02
CGA:  10    -0.362346244155E+03   -0.17921E+01   -0.80784E+01  8528   0.560E+03-0.271E+03
CGA:  11    -0.340484212881E+03    0.21862E+02   -0.25307E+02  8528   0.190E+04-0.643E+03
CGA:  12    -0.267842129392E+03    0.72642E+02   -0.96046E+02  8528   0.411E+04-0.146E+04
CGA:  13    -0.283468127012E+03   -0.15626E+02   -0.15252E+03  8528   0.429E+04-0.466E+04
CGA:  14    -0.199822182602E+03    0.83646E+02   -0.19788E+03  8528   0.485E+04-0.340E+04
CGA:  15    -0.244131597572E+03   -0.44309E+02   -0.17453E+03  8528   0.905E+04-0.105E+05
CGA:  16    -0.745875035715E+02    0.16954E+03   -0.47217E+03  8528   0.661E+04-0.382E+04
CGA:  17    -0.321338093385E+03   -0.24675E+03   -0.12040E+03  8528   0.286E+04-0.704E+04
CGA:  18    -0.342292058080E+03   -0.20954E+02   -0.84598E+02  8528   0.163E+04-0.190E+04
CGA:  19    -0.302602304120E+03    0.39690E+02   -0.44152E+02  8528   0.521E+04-0.328E+04
CGA:  20    -0.156221408067E+03    0.14638E+03   -0.19198E+03  8528   0.836E+04-0.407E+04
CGA:  21    -0.871559383949E+02    0.69065E+02   -0.37905E+03  8528   0.424E+04-0.381E+04
CGA:  22    -0.267627916425E+03   -0.18047E+03   -0.42266E+02  8528   0.538E+04 0.678E+04
CGA:  23    -0.310671025080E+03   -0.43043E+02   -0.14585E+03  8528   0.650E+04-0.759E+04
CGA:  24    -0.158379374616E+03    0.15229E+03   -0.23853E+03  8528   0.102E+05-0.539E+04
CGA:  25    -0.112311670440E+03    0.46068E+02   -0.33588E+03  8528   0.448E+04-0.373E+04
CGA:  26    -0.206493963916E+03   -0.94182E+02   -0.82078E+02  8528   0.133E+05-0.165E+05
CGA:  27    -0.616177869948E+01    0.20033E+03   -0.45446E+03  8528   0.549E+04-0.361E+04
CGA:  28    -0.135712433749E+03   -0.12955E+03   -0.11150E+03  8528   0.301E+04-0.320E+04
CGA:  29    -0.347386422444E+03   -0.21167E+03   -0.49766E+02  8528   0.401E+03 0.146E+04
CGA:  30    -0.363397008375E+03   -0.16011E+02   -0.10149E+02  8528   0.293E+04-0.302E+02
CGA:  31    -0.230279787463E+03    0.13312E+03   -0.60990E+02  8528   0.205E+04-0.198E+04
CGA:  32    -0.318056443830E+03   -0.87777E+02   -0.48339E+02  8528   0.684E+03 0.266E+03
CGA:  33    -0.347671861537E+03   -0.29615E+02   -0.21760E+02  8528   0.589E+03 0.438E+03
CGA:  34    -0.359142486987E+03   -0.11471E+02   -0.77011E+01  8528   0.185E+03 0.171E+03
CGA:  35    -0.365709715692E+03   -0.65672E+01   -0.60261E+01  8528   0.650E+03 0.187E+01
CGA:  36    -0.367423254744E+03   -0.17135E+01   -0.13858E+02  8528   0.625E+03-0.352E+03
CGA:  37    -0.372266255928E+03   -0.48430E+01   -0.15859E+02  8528   0.275E+03-0.174E+03
CGA:  38    -0.377463029145E+03   -0.51968E+01   -0.30123E+01  8528   0.917E+02 0.134E+03
CGA:  39    -0.377872647154E+03   -0.40962E+00   -0.16350E+01  8528   0.137E+03-0.159E+03
CGA:  40    -0.377970341733E+03   -0.97695E-01   -0.24973E+01  8528   0.124E+03-0.972E+02
CGA:  41    -0.379210868845E+03   -0.12405E+01   -0.14903E+01  8528   0.284E+02-0.541E+02
CGA:  42    -0.379774344327E+03   -0.56348E+00   -0.59207E+00  8528   0.155E+02-0.173E-01
CGA:  43    -0.380083129830E+03   -0.30879E+00   -0.30831E+00  8528   0.110E+02-0.401E+00
CGA:  44    -0.380861196858E+03   -0.77807E+00   -0.75333E+00  8528   0.195E+02 0.101E+01
CGA:  45    -0.381420653293E+03   -0.55946E+00   -0.65007E+00  8528   0.137E+02-0.136E+01
CGA:  46    -0.382241878960E+03   -0.82123E+00   -0.91904E+00  8528   0.153E+02-0.197E+01
CGA:  47    -0.382620660539E+03   -0.37878E+00   -0.41164E+00  8528   0.290E+01-0.345E+00
CGA:  48    -0.382861793889E+03   -0.24113E+00   -0.24195E+00  8528   0.475E+01-0.584E-01
CGA:  49    -0.383153602486E+03   -0.29181E+00   -0.29306E+00  8528   0.526E+01 0.245E-01
CGA:  50    -0.383457949009E+03   -0.30435E+00   -0.61323E+00  8528   0.115E+02-0.345E+01
CGA:  51    -0.383854292897E+03   -0.39634E+00   -0.40206E+00  8528   0.241E+01-0.829E-01
CGA:  52    -0.383965872907E+03   -0.11158E+00   -0.11119E+00  8528   0.119E+01-0.130E-01
CGA:  53    -0.384142797609E+03   -0.17692E+00   -0.18960E+00  8528   0.258E+01-0.188E+00
CGA:  54    -0.384309911652E+03   -0.16711E+00   -0.24674E+00  8528   0.823E+01-0.136E+01
CGA:  55    -0.384535971264E+03   -0.22606E+00   -0.23563E+00  8528   0.210E+01-0.220E+00
CGA:  56    -0.384683558414E+03   -0.14759E+00   -0.14775E+00  8528   0.124E+01-0.937E-02
CGA:  57    -0.384798189922E+03   -0.11463E+00   -0.11561E+00  8528   0.110E+01-0.268E-01
CGA:  58    -0.384910846266E+03   -0.11266E+00   -0.11433E+00  8528   0.125E+01-0.459E-01
CGA:  59    -0.385007674934E+03   -0.96829E-01   -0.96484E-01  8528   0.139E+01 0.152E-01
CGA:  60    -0.385109827894E+03   -0.10215E+00   -0.10399E+00  8528   0.366E+01-0.143E+00
CGA:  61    -0.385246450108E+03   -0.13662E+00   -0.12449E+00  8528   0.150E+01-0.517E-01
CGA:  62    -0.385288731588E+03   -0.42281E-01   -0.42996E-01  8528   0.133E+01-0.177E-01
CGA:  63    -0.385328941338E+03   -0.40210E-01   -0.39764E-01  8528   0.703E+00 0.877E-03
CGA:  64    -0.385350778747E+03   -0.21837E-01   -0.21700E-01  8528   0.830E+00 0.221E-02
CGA:  65    -0.385386153600E+03   -0.35375E-01   -0.36061E-01  8528   0.775E+00 0.427E-02
CGA:  66    -0.385411823477E+03   -0.25670E-01   -0.26139E-01  8528   0.717E+00-0.573E-02
CGA:  67    -0.385435627005E+03   -0.23804E-01   -0.23627E-01  8528   0.413E+00 0.137E-02
CGA:  68    -0.385449891219E+03   -0.14264E-01   -0.13924E-01  8528   0.416E+00 0.287E-02
CGA:  69    -0.385464439762E+03   -0.14549E-01   -0.14704E-01  8528   0.385E+00-0.956E-03
CGA:  70    -0.385484309538E+03   -0.19870E-01   -0.19863E-01  8528   0.757E+00-0.875E-03
CGA:  71    -0.385509137228E+03   -0.24828E-01   -0.24336E-01  8528   0.376E+00 0.479E-02
CGA:  72    -0.385520514677E+03   -0.11377E-01   -0.11233E-01  8528   0.379E+00 0.142E-02
CGA:  73    -0.385531285368E+03   -0.10771E-01   -0.10646E-01  8528   0.206E+00 0.241E-02
CGA:  74    -0.385538372422E+03   -0.70871E-02   -0.70085E-02  8528   0.308E+00 0.184E-03
CGA:  75    -0.385549081922E+03   -0.10709E-01   -0.10634E-01  8528   0.268E+00-0.409E-04
CGA:  76    -0.385556487047E+03   -0.74051E-02   -0.73486E-02  8528   0.330E+00 0.793E-03
CGA:  77    -0.385567575972E+03   -0.11089E-01   -0.11226E-01  8528   0.174E+00 0.101E-02
CGA:  78    -0.385570533719E+03   -0.29577E-02   -0.29660E-02  8528   0.953E-01-0.387E-03
CGA:  79    -0.385576045389E+03   -0.55117E-02   -0.54706E-02  8528   0.218E+00 0.264E-02
CGA:  80    -0.385584481088E+03   -0.84357E-02   -0.76980E-02  8528   0.281E+00 0.829E-02
CGA:  81    -0.385588627017E+03   -0.41459E-02   -0.30232E-02  8528   0.258E+00 0.701E-01
CGA:  82    -0.385591543174E+03   -0.29162E-02   -0.32426E-02  8528   0.281E+00-0.467E-01
CGA:  83    -0.385593150719E+03   -0.16075E-02   -0.22747E-02  8528   0.496E+00-0.582E-01
CGA:  84    -0.385596103705E+03   -0.29530E-02   -0.18531E-02  8528   0.596E+00 0.238E+00
SDA:  85    -0.385601296319E+03   -0.51926E-02   -0.28928E-02  8528   0.480E+00 0.683E+00
CGA:  86    -0.385609996460E+03   -0.87001E-02   -0.87284E-02  8528   0.135E+00-0.890E-03
CGA:  87    -0.385614261302E+03   -0.42648E-02   -0.42406E-02  8528   0.859E-01-0.162E-02
CGA:  88    -0.385619694513E+03   -0.54332E-02   -0.54046E-02  8528   0.874E-01 0.937E-03
CGA:  89    -0.385630950769E+03   -0.11256E-01   -0.11456E-01  8528   0.325E+00-0.323E-02
CGA:  90    -0.385636938262E+03   -0.59875E-02   -0.58458E-02  8528   0.990E-01 0.486E-02
CGA:  91    -0.385641372738E+03   -0.44345E-02   -0.44147E-02  8528   0.133E+00 0.373E-02
CGA:  92    -0.385644065233E+03   -0.26925E-02   -0.27091E-02  8528   0.395E-01-0.355E-03
CGA:  93    -0.385648431569E+03   -0.43663E-02   -0.45026E-02  8528   0.141E+00-0.217E-02
CGA:  94    -0.385652613660E+03   -0.41821E-02   -0.41439E-02  8528   0.145E+00-0.173E-03
CGA:  95    -0.385658247497E+03   -0.56338E-02   -0.56505E-02  8528   0.100E+00 0.157E-02
CGA:  96    -0.385661513683E+03   -0.32662E-02   -0.32639E-02  8528   0.761E-01-0.390E-04
CGA:  97    -0.385663191046E+03   -0.16774E-02   -0.16416E-02  8528   0.419E-01 0.818E-03
CGA:  98    -0.385666158580E+03   -0.29675E-02   -0.30181E-02  8528   0.111E+00-0.155E-02
CGA:  99    -0.385669055820E+03   -0.28972E-02   -0.29325E-02  8528   0.125E+00-0.590E-04
CGA: 100    -0.385681664887E+03   -0.12609E-01   -0.12142E-01  8528   0.311E+00 0.600E-02
CGA: 101    -0.385685399008E+03   -0.37341E-02   -0.25511E-02  8528   0.148E+00 0.139E+00
CGA: 102    -0.385688022151E+03   -0.26231E-02   -0.22800E-02  8528   0.135E+00 0.276E-01
CGA: 103    -0.385690772674E+03   -0.27505E-02   -0.26154E-02  8528   0.280E+00 0.560E-02
CGA: 104    -0.385693789406E+03   -0.30167E-02   -0.29318E-02  8528   0.304E+00 0.628E-02
CGA: 105    -0.385696004312E+03   -0.22149E-02   -0.19394E-02  8528   0.217E+00 0.422E-01
CGA: 106    -0.385697888882E+03   -0.18846E-02   -0.17072E-02  8528   0.193E+00 0.234E-01
CGA: 107    -0.385699789992E+03   -0.19011E-02   -0.17218E-02  8528   0.261E+00 0.191E-01
CGA: 108    -0.385702340235E+03   -0.25502E-02   -0.22711E-02  8528   0.406E+00 0.299E-01
CGA: 109    -0.385705891878E+03   -0.35516E-02   -0.31012E-02  8528   0.585E+00 0.562E-01
CGA: 110    -0.385710087108E+03   -0.41952E-02   -0.35270E-02  8528   0.674E+00 0.113E+00
CGA: 111    -0.385714106743E+03   -0.40196E-02   -0.32621E-02  8528   0.608E+00 0.176E+00
CGA: 112    -0.385717471883E+03   -0.33651E-02   -0.27447E-02  8528   0.469E+00 0.167E+00
CGA: 113    -0.385720011327E+03   -0.25394E-02   -0.21885E-02  8528   0.370E+00 0.924E-01
CGA: 114    -0.385721913333E+03   -0.19020E-02   -0.17383E-02  8528   0.357E+00 0.399E-01
CGA: 115    -0.385723600976E+03   -0.16876E-02   -0.16122E-02  8528   0.395E+00 0.180E-01
SDA: 116    -0.385725240779E+03   -0.16398E-02   -0.16603E-02  8528   0.400E+00-0.347E-02
CGA: 117    -0.385730994105E+03   -0.57533E-02   -0.57661E-02  8528   0.104E+00-0.156E-03
CGA: 118    -0.385736996113E+03   -0.60020E-02   -0.61510E-02  8528   0.217E+00-0.467E-02
CGA: 119    -0.385743473337E+03   -0.64772E-02   -0.64435E-02  8528   0.142E+00 0.370E-02
CGA: 120    -0.385766187261E+03   -0.22714E-01   -0.43469E-03  8528   0.433E+00-0.302E-01
CGA: 121    -0.385773364150E+03   -0.71769E-02   -0.77632E-02  8528   0.393E+00-0.188E-01
CGA: 122    -0.385781871392E+03   -0.85072E-02   -0.86937E-02  8528   0.127E+00-0.801E-03
CGA: 123    -0.385785039587E+03   -0.31682E-02   -0.31798E-02  8528   0.113E+00-0.930E-04
CGA: 124    -0.385789013777E+03   -0.39742E-02   -0.40207E-02  8528   0.109E+00 0.218E-02
CGA: 125    -0.385792556052E+03   -0.35423E-02   -0.35839E-02  8528   0.912E-01 0.789E-03
CGA: 126    -0.385796157854E+03   -0.36018E-02   -0.35813E-02  8528   0.476E-01-0.355E-02
CGA: 127    -0.385797679953E+03   -0.15221E-02   -0.15235E-02  8528   0.464E-01 0.169E-04
CGA: 128    -0.385798849128E+03   -0.11692E-02   -0.11671E-02  8528   0.244E-01 0.311E-04
CGA: 129    -0.385800161138E+03   -0.13120E-02   -0.13110E-02  8528   0.293E-01 0.745E-04
CGA: 130    -0.385801449596E+03   -0.12885E-02   -0.12911E-02  8528   0.506E-01-0.449E-03
CGA: 131    -0.385803296527E+03   -0.18469E-02   -0.18364E-02  8528   0.513E-01-0.862E-03
CGA: 132    -0.385804672475E+03   -0.13759E-02   -0.13792E-02  8528   0.341E-01 0.143E-03
CGA: 133    -0.385805538571E+03   -0.86610E-03   -0.86520E-03  8528   0.188E-01 0.672E-04
CGA: 134    -0.385806103542E+03   -0.56497E-03   -0.56183E-03  8528   0.257E-01-0.439E-04
CGA: 135    -0.385807066877E+03   -0.96333E-03   -0.96366E-03  8528   0.210E-01 0.119E-03
CGA: 136    -0.385807813025E+03   -0.74615E-03   -0.74494E-03  8528   0.360E-01-0.154E-03
CGA: 137    -0.385808853756E+03   -0.10407E-02   -0.10160E-02  8528   0.309E-01-0.339E-03
CGA: 138    -0.385809586359E+03   -0.73260E-03   -0.72304E-03  8528   0.188E-01 0.462E-04
CGA: 139    -0.385809866436E+03   -0.28008E-03   -0.28231E-03  8528   0.773E-02-0.117E-03
CGA: 140    -0.385810124338E+03   -0.25790E-03   -0.25812E-03  8528   0.117E-01 0.338E-04
CGA: 141    -0.385810411590E+03   -0.28725E-03   -0.28713E-03  8528   0.980E-02 0.551E-05
CGA: 142    -0.385810700867E+03   -0.28928E-03   -0.28819E-03  8528   0.146E-01-0.436E-04
CGA: 143    -0.385811168760E+03   -0.46789E-03   -0.46776E-03  8528   0.138E-01-0.156E-05
CGA: 144    -0.385811391936E+03   -0.22318E-03   -0.22321E-03  8528   0.607E-02 0.265E-04
CGA: 145    -0.385811512336E+03   -0.12040E-03   -0.12096E-03  8528   0.340E-02 0.666E-06
CGA: 146    -0.385811605757E+03   -0.93421E-04   -0.93543E-04  8528   0.541E-02 0.862E-05
SDA: 147    -0.385811766036E+03   -0.16028E-03   -0.16035E-03  8528   0.391E-02 0.143E-04
CGA: 148    -0.385811879459E+03   -0.11342E-03   -0.11335E-03  8528   0.266E-02-0.804E-05
CGA: 149    -0.385811938953E+03   -0.59493E-04   -0.59441E-04  8528   0.176E-02-0.551E-05
CGA: 150    -0.385812088839E+03   -0.14989E-03   -0.14998E-03  8528   0.475E-02-0.265E-06
CGA: 151    -0.385812205679E+03   -0.11684E-03   -0.11708E-03  8528   0.185E-02-0.789E-05
CGA: 152    -0.385812300929E+03   -0.95249E-04   -0.95421E-04  8528   0.142E-02-0.100E-04
CGA: 153    -0.385812403982E+03   -0.10305E-03   -0.10276E-03  8528   0.103E-02 0.733E-05
CGA: 154    -0.385812442618E+03   -0.38635E-04   -0.38635E-04  8528   0.179E-02 0.192E-05
CGA: 155    -0.385812517867E+03   -0.75249E-04   -0.75218E-04  8528   0.196E-02 0.654E-05
CGA: 156    -0.385812610296E+03   -0.92429E-04   -0.92021E-04  8528   0.233E-02 0.320E-04
CGA: 157    -0.385812676803E+03   -0.66506E-04   -0.66237E-04  8528   0.124E-02-0.276E-05
CGA: 158    -0.385812737655E+03   -0.60853E-04   -0.60773E-04  8528   0.734E-03 0.404E-05
CGA: 159    -0.385812797338E+03   -0.59683E-04   -0.59541E-04  8528   0.109E-02 0.329E-05
CGA: 160    -0.385812844966E+03   -0.47628E-04   -0.47533E-04  8528   0.237E-02 0.123E-04
CGA: 161    -0.385812973467E+03   -0.12850E-03   -0.14961E-03  8528   0.226E-02-0.928E-03
CGA: 162    -0.385812992816E+03   -0.19349E-04   -0.16939E-04  8528   0.147E-02 0.149E-03
CGA: 163    -0.385813024182E+03   -0.31366E-04   -0.32067E-04  8528   0.168E-02-0.203E-04
CGA: 164    -0.385813052678E+03   -0.28496E-04   -0.30074E-04  8528   0.859E-03-0.531E-04
CGA: 165    -0.385813074923E+03   -0.22244E-04   -0.22101E-04  8528   0.187E-02-0.173E-05
CGA: 166    -0.385813145944E+03   -0.71021E-04   -0.71748E-04  8528   0.445E-02-0.334E-03
CGA: 167    -0.385813173592E+03   -0.27647E-04   -0.20016E-04  8528   0.372E-02 0.134E-02
CGA: 168    -0.385813214850E+03   -0.41259E-04   -0.41337E-04  8528   0.219E-02 0.426E-04
CGA: 169    -0.385813240032E+03   -0.25182E-04   -0.27912E-04  8528   0.268E-02-0.145E-03
CGA: 170    -0.385813275832E+03   -0.35800E-04   -0.37773E-04  8528   0.298E-02-0.535E-04
CGA: 171    -0.385813306202E+03   -0.30370E-04   -0.25570E-04  8528   0.183E-02 0.466E-03
CGA: 172    -0.385813329374E+03   -0.23172E-04   -0.21243E-04  8528   0.189E-02 0.145E-03
CGA: 173    -0.385813361616E+03   -0.32242E-04   -0.30587E-04  8528   0.428E-02 0.555E-04
CGA: 174    -0.385813413808E+03   -0.52192E-04   -0.43950E-04  8528   0.636E-02 0.698E-03
CGA: 175    -0.385813468339E+03   -0.54531E-04   -0.40683E-04  8528   0.477E-02 0.238E-02
CGA: 176    -0.385813513775E+03   -0.45436E-04   -0.40216E-04  8528   0.298E-02 0.763E-03
CGA: 177    -0.385813544333E+03   -0.30559E-04   -0.29212E-04  8528   0.431E-02 0.113E-03
SDA: 178    -0.385813585317E+03   -0.40983E-04   -0.35316E-04  8528   0.694E-02 0.579E-03
CGA: 179    -0.385813696239E+03   -0.11092E-03   -0.11088E-03  8528   0.343E-02-0.471E-06
CGA: 180    -0.385813842135E+03   -0.14590E-03   -0.14510E-03  8528   0.244E-02 0.398E-04
CGA: 181    -0.385814007243E+03   -0.16511E-03   -0.16556E-03  8528   0.358E-02-0.124E-04
CGA: 182    -0.385814114858E+03   -0.10761E-03   -0.10783E-03  8528   0.482E-02-0.426E-04
CGA: 183    -0.385814468667E+03   -0.35381E-03   -0.33116E-03  8528   0.393E-02 0.543E-03
CGA: 184    -0.385814611532E+03   -0.14287E-03   -0.14202E-03  8528   0.374E-02 0.164E-03
CGA: 185    -0.385814715567E+03   -0.10403E-03   -0.10380E-03  8528   0.196E-02-0.327E-04
CGA: 186    -0.385814818883E+03   -0.10332E-03   -0.10342E-03  8528   0.176E-02-0.594E-05
CGA: 187    -0.385815011262E+03   -0.19238E-03   -0.18741E-03  8528   0.689E-02 0.684E-04
CGA: 188    -0.385815191274E+03   -0.18001E-03   -0.17992E-03  8528   0.525E-02 0.292E-05
CGA: 189    -0.385815562808E+03   -0.37153E-03   -0.36987E-03  8528   0.650E-02-0.198E-03
CGA: 190    -0.385815810394E+03   -0.24759E-03   -0.30354E-03  8528   0.135E-01-0.392E-02
CGA: 191    -0.385816157848E+03   -0.34745E-03   -0.34777E-03  8528   0.132E-01-0.106E-04
CGA: 192    -0.385816480499E+03   -0.32265E-03   -0.32292E-03  8528   0.341E-02-0.144E-04
CGA: 193    -0.385816866522E+03   -0.38602E-03   -0.38684E-03  8528   0.105E-01-0.100E-04
CGA: 194    -0.385817321941E+03   -0.45542E-03   -0.78959E-03  8528   0.367E-01-0.140E-01
CGA: 195    -0.385818045838E+03   -0.72390E-03   -0.72407E-03  8528   0.166E-01 0.153E-04
CGA: 196    -0.385818451128E+03   -0.40529E-03   -0.40639E-03  8528   0.460E-02 0.296E-05
CGA: 197    -0.385819094244E+03   -0.64312E-03   -0.71516E-03  8528   0.521E-01-0.930E-03
CGA: 198    -0.385819292199E+03   -0.19795E-03   -0.10733E-03  8528   0.500E-01 0.349E-01
CGA: 199    -0.385819837674E+03   -0.54547E-03   -0.54593E-03  8528   0.629E-02-0.248E-04
CGA: 200    -0.385820021901E+03   -0.18423E-03   -0.18427E-03  8528   0.431E-02-0.454E-05
   1 F= -.38582002E+03 E0= -.38578880E+03  d E =-.385820E+03  mag=    11.0669
       N       E                     dE             d eps       ncg     rms          ort
SDA:   1     0.497510780636E+03    0.88333E+03    0.00000E+00  8528   0.691E+04 0.000E+00
CGA:   2     0.190214993715E+03   -0.30730E+03   -0.31028E+03  8528   0.317E+05-0.520E+04
CGA:   3    -0.226219479465E+03   -0.41643E+03   -0.10857E+04  8528   0.150E+05-0.216E+05
CGA:   4    -0.354611828669E+03   -0.12839E+03   -0.45775E+03  8528   0.826E+03-0.219E+04
CGA:   5    -0.371217070083E+03   -0.16605E+02   -0.18814E+02  8528   0.777E+02 0.114E+03
CGA:   6    -0.374852828050E+03   -0.36358E+01   -0.18060E+01  8528   0.623E+02 0.924E+02
CGA:   7    -0.377792497165E+03   -0.29397E+01   -0.15741E+01  8528   0.362E+02 0.403E+02
CGA:   8    -0.378960470901E+03   -0.11680E+01   -0.68187E+00  8528   0.233E+02 0.218E+02
CGA:   9    -0.380354771480E+03   -0.13943E+01   -0.13932E+01  8528   0.741E+02-0.112E+01
CGA:  10    -0.382230265381E+03   -0.18755E+01   -0.16094E+01  8528   0.537E+02 0.659E+01
CGA:  11    -0.383717519754E+03   -0.14873E+01   -0.18188E+01  8528   0.637E+02-0.449E+01
CGA:  12    -0.384535313870E+03   -0.81779E+00   -0.12028E+01  8528   0.247E+02-0.111E+02
CGA:  13    -0.384958357171E+03   -0.42304E+00   -0.37387E+00  8528   0.895E+01 0.200E+01
CGA:  14    -0.385080906965E+03   -0.12255E+00   -0.86279E-01  8528   0.327E+01 0.368E+01
CGA:  15    -0.385152006742E+03   -0.71100E-01   -0.55370E-01  8528   0.337E+01 0.113E+01
CGA:  16    -0.385235171402E+03   -0.83165E-01   -0.75736E-01  8528   0.652E+01 0.324E+00
CGA:  17    -0.385327358635E+03   -0.92187E-01   -0.98862E-01  8528   0.100E+02-0.342E+00
CGA:  18    -0.385411685871E+03   -0.84327E-01   -0.82936E-01  8528   0.931E+01 0.168E+00
CGA:  19    -0.385489864666E+03   -0.78179E-01   -0.94997E-01  8528   0.758E+01-0.141E+01
CGA:  20    -0.385541366881E+03   -0.51502E-01   -0.52826E-01  8528   0.555E+01-0.155E+00
CGA:  21    -0.385585435114E+03   -0.44068E-01   -0.45613E-01  8528   0.376E+01-0.157E+00
CGA:  22    -0.385616118274E+03   -0.30683E-01   -0.36098E-01  8528   0.232E+01-0.429E+00
CGA:  23    -0.385633373532E+03   -0.17255E-01   -0.16654E-01  8528   0.126E+01 0.675E-01
CGA:  24    -0.385644864292E+03   -0.11491E-01   -0.10720E-01  8528   0.825E+00 0.789E-01
CGA:  25    -0.385655439304E+03   -0.10575E-01   -0.10456E-01  8528   0.112E+01 0.688E-02
CGA:  26    -0.385672794154E+03   -0.17355E-01   -0.17265E-01  8528   0.203E+01 0.345E-02
CGA:  27    -0.385696458389E+03   -0.23664E-01   -0.23524E-01  8528   0.222E+01 0.135E-01
CGA:  28    -0.385719389224E+03   -0.22931E-01   -0.24325E-01  8528   0.206E+01-0.906E-01
CGA:  29    -0.385740937617E+03   -0.21548E-01   -0.22400E-01  8528   0.161E+01-0.391E-01
CGA:  30    -0.385754731166E+03   -0.13794E-01   -0.11420E-01  8528   0.994E+00 0.300E+00
CGA:  31    -0.385765479477E+03   -0.10748E-01   -0.92357E-02  8528   0.791E+00 0.167E+00
CGA:  32    -0.385773798581E+03   -0.83191E-02   -0.76302E-02  8528   0.641E+00 0.688E-01
CGA:  33    -0.385778655559E+03   -0.48570E-02   -0.46400E-02  8528   0.407E+00 0.266E-01
CGA:  34    -0.385781784107E+03   -0.31285E-02   -0.30963E-02  8528   0.391E+00 0.316E-02
CGA:  35    -0.385785680668E+03   -0.38966E-02   -0.40025E-02  8528   0.594E+00-0.671E-02
CGA:  36    -0.385791217115E+03   -0.55364E-02   -0.57621E-02  8528   0.651E+00-0.140E-01
CGA:  37    -0.385796131031E+03   -0.49139E-02   -0.49684E-02  8528   0.526E+00-0.413E-02
CGA:  38    -0.385800774105E+03   -0.46431E-02   -0.48080E-02  8528   0.567E+00-0.109E-01
SDA:  39    -0.385806588353E+03   -0.58142E-02   -0.59501E-02  8528   0.661E+00-0.584E-02
CGA:  40    -0.385818490958E+03   -0.11903E-01   -0.11798E-01  8528   0.269E+00-0.983E-02
CGA:  41    -0.385825289527E+03   -0.67986E-02   -0.68480E-02  8528   0.943E-01-0.702E-02
CGA:  42    -0.385828787719E+03   -0.34982E-02   -0.35002E-02  8528   0.665E-01-0.114E-03
CGA:  43    -0.385830387148E+03   -0.15994E-02   -0.15991E-02  8528   0.906E-01 0.969E-04
CGA:  44    -0.385834463174E+03   -0.40760E-02   -0.40442E-02  8528   0.119E+00 0.140E-02
CGA:  45    -0.385838029728E+03   -0.35666E-02   -0.36359E-02  8528   0.837E-01-0.743E-02
CGA:  46    -0.385839469690E+03   -0.14400E-02   -0.14420E-02  8528   0.221E-01 0.111E-03
CGA:  47    -0.385840090718E+03   -0.62103E-03   -0.62019E-03  8528   0.181E-01 0.130E-03
CGA:  48    -0.385840936311E+03   -0.84559E-03   -0.85067E-03  8528   0.326E-01-0.232E-03
CGA:  49    -0.385841811399E+03   -0.87509E-03   -0.87342E-03  8528   0.316E-01 0.413E-03
CGA:  50    -0.385843443704E+03   -0.16323E-02   -0.19542E-02  8528   0.723E-01-0.109E-01
CGA:  51    -0.385843968012E+03   -0.52431E-03   -0.49016E-03  8528   0.576E-01 0.275E-02
CGA:  52    -0.385844804619E+03   -0.83661E-03   -0.87844E-03  8528   0.596E-01-0.842E-03
CGA:  53    -0.385845602864E+03   -0.79825E-03   -0.82333E-03  8528   0.214E-01-0.545E-03
CGA:  54    -0.385845950375E+03   -0.34751E-03   -0.34613E-03  8528   0.310E-01-0.317E-04
CGA:  55    -0.385847124497E+03   -0.11741E-02   -0.11839E-02  8528   0.724E-01-0.804E-03
CGA:  56    -0.385848040591E+03   -0.91609E-03   -0.86326E-03  8528   0.520E-01 0.203E-02
CGA:  57    -0.385848987402E+03   -0.94681E-03   -0.94427E-03  8528   0.805E-01-0.207E-03
CGA:  58    -0.385850177155E+03   -0.11898E-02   -0.12037E-02  8528   0.643E-01-0.262E-03
CGA:  59    -0.385850977514E+03   -0.80036E-03   -0.78937E-03  8528   0.584E-01 0.364E-03
CGA:  60    -0.385851983652E+03   -0.10061E-02   -0.99014E-03  8528   0.725E-01-0.379E-03
CGA:  61    -0.385852794980E+03   -0.81133E-03   -0.81389E-03  8528   0.530E-01-0.172E-03
CGA:  62    -0.385853615449E+03   -0.82047E-03   -0.82827E-03  8528   0.935E-01 0.778E-04
CGA:  63    -0.385856281649E+03   -0.26662E-02   -0.27409E-02  8528   0.261E+00-0.805E-02
CGA:  64    -0.385858459525E+03   -0.21779E-02   -0.19235E-02  8528   0.270E+00 0.185E-01
CGA:  65    -0.385860807371E+03   -0.23478E-02   -0.22762E-02  8528   0.302E+00 0.460E-02
CGA:  66    -0.385863209731E+03   -0.24024E-02   -0.23103E-02  8528   0.354E+00 0.102E-01
CGA:  67    -0.385865577005E+03   -0.23673E-02   -0.21871E-02  8528   0.306E+00 0.273E-01
CGA:  68    -0.385867376973E+03   -0.18000E-02   -0.16992E-02  8528   0.210E+00 0.179E-01
CGA:  69    -0.385868543048E+03   -0.11661E-02   -0.11436E-02  8528   0.154E+00 0.420E-02
SDA:  70    -0.385869406765E+03   -0.86372E-03   -0.85751E-03  8528   0.133E+00 0.124E-02
CGA:  71    -0.385872092825E+03   -0.26861E-02   -0.26853E-02  8528   0.128E+00 0.173E-03
CGA:  72    -0.385877511461E+03   -0.54186E-02   -0.52941E-02  8528   0.176E+00 0.561E-02
CGA:  73    -0.385882277665E+03   -0.47662E-02   -0.48209E-02  8528   0.326E+00-0.575E-02
CGA:  74    -0.385891481157E+03   -0.92035E-02   -0.92712E-02  8528   0.168E+00-0.540E-02
CGA:  75    -0.385900370213E+03   -0.88891E-02   -0.89467E-02  8528   0.261E+00-0.215E-02
CGA:  76    -0.385902701524E+03   -0.23313E-02   -0.22215E-02  8528   0.703E-01 0.851E-02
CGA:  77    -0.385905210470E+03   -0.25089E-02   -0.24975E-02  8528   0.140E+00 0.740E-03
CGA:  78    -0.385907443514E+03   -0.22330E-02   -0.22197E-02  8528   0.165E+00-0.296E-03
CGA:  79    -0.385913997192E+03   -0.65537E-02   -0.66704E-02  8528   0.335E+00-0.605E-02
CGA:  80    -0.385918254487E+03   -0.42573E-02   -0.39099E-02  8528   0.298E+00 0.130E-01
CGA:  81    -0.385922505523E+03   -0.42510E-02   -0.42088E-02  8528   0.220E+00 0.178E-02
CGA:  82    -0.385924720130E+03   -0.22146E-02   -0.24173E-02  8528   0.143E+00-0.908E-02
CGA:  83    -0.385926587082E+03   -0.18670E-02   -0.18614E-02  8528   0.588E-01 0.119E-03
CGA:  84    -0.385927304018E+03   -0.71694E-03   -0.70866E-03  8528   0.500E-01 0.191E-03
CGA:  85    -0.385928251514E+03   -0.94750E-03   -0.94788E-03  8528   0.719E-01 0.170E-03
CGA:  86    -0.385930220954E+03   -0.19694E-02   -0.19257E-02  8528   0.123E+00 0.484E-02
CGA:  87    -0.385931846046E+03   -0.16251E-02   -0.15617E-02  8528   0.829E-01 0.171E-02
CGA:  88    -0.385934671291E+03   -0.28252E-02   -0.30523E-02  8528   0.232E+00-0.143E-01
CGA:  89    -0.385936201372E+03   -0.15301E-02   -0.17062E-02  8528   0.884E-01-0.971E-02
CGA:  90    -0.385936775593E+03   -0.57422E-03   -0.60365E-03  8528   0.452E-01-0.295E-02
CGA:  91    -0.385937695901E+03   -0.92031E-03   -0.91913E-03  8528   0.669E-01 0.406E-03
CGA:  92    -0.385938234180E+03   -0.53828E-03   -0.52383E-03  8528   0.226E-01 0.124E-02
CGA:  93    -0.385938641311E+03   -0.40713E-03   -0.40671E-03  8528   0.489E-01-0.155E-03
CGA:  94    -0.385939453617E+03   -0.81231E-03   -0.81390E-03  8528   0.706E-01 0.288E-03
CGA:  95    -0.385940790595E+03   -0.13370E-02   -0.13364E-02  8528   0.136E+00 0.304E-02
CGA:  96    -0.385942576853E+03   -0.17863E-02   -0.16799E-02  8528   0.479E-01 0.161E-02
CGA:  97    -0.385943310729E+03   -0.73388E-03   -0.72856E-03  8528   0.520E-01-0.440E-03
CGA:  98    -0.385943835581E+03   -0.52485E-03   -0.53865E-03  8528   0.218E-01-0.417E-03
CGA:  99    -0.385944172149E+03   -0.33657E-03   -0.33780E-03  8528   0.250E-01 0.204E-03
CGA: 100    -0.385944506491E+03   -0.33434E-03   -0.33120E-03  8528   0.221E-01-0.794E-04
SDA: 101    -0.385944976306E+03   -0.46982E-03   -0.47448E-03  8528   0.376E-01-0.786E-03
CGA: 102    -0.385945369665E+03   -0.39336E-03   -0.39332E-03  8528   0.227E-01-0.188E-05
CGA: 103    -0.385945868895E+03   -0.49923E-03   -0.49977E-03  8528   0.117E-01-0.834E-04
CGA: 104    -0.385946433214E+03   -0.56432E-03   -0.56670E-03  8528   0.257E-01-0.958E-04
CGA: 105    -0.385947147794E+03   -0.71458E-03   -0.71464E-03  8528   0.264E-01-0.251E-05
CGA: 106    -0.385948635732E+03   -0.14879E-02   -0.16019E-02  8528   0.484E-01-0.422E-02
CGA: 107    -0.385949096029E+03   -0.46030E-03   -0.50805E-03  8528   0.216E-01-0.112E-02
CGA: 108    -0.385949503356E+03   -0.40733E-03   -0.40455E-03  8528   0.159E-01-0.532E-03
CGA: 109    -0.385949972328E+03   -0.46897E-03   -0.45661E-03  8528   0.174E-01 0.113E-02
CGA: 110    -0.385950279194E+03   -0.30687E-03   -0.29503E-03  8528   0.237E-01-0.284E-03
CGA: 111    -0.385950951548E+03   -0.67235E-03   -0.68086E-03  8528   0.382E-01-0.108E-02
CGA: 112    -0.385951391605E+03   -0.44006E-03   -0.48325E-03  8528   0.174E-01-0.302E-03
CGA: 113    -0.385951613777E+03   -0.22217E-03   -0.21777E-03  8528   0.804E-02 0.931E-04
CGA: 114    -0.385951784722E+03   -0.17095E-03   -0.17091E-03  8528   0.592E-02 0.458E-04
CGA: 115    -0.385951884309E+03   -0.99587E-04   -0.99438E-04  8528   0.337E-02-0.210E-04
CGA: 116    -0.385951999820E+03   -0.11551E-03   -0.11568E-03  8528   0.827E-02-0.150E-04
CGA: 117    -0.385952237952E+03   -0.23813E-03   -0.24005E-03  8528   0.102E-01-0.200E-03
CGA: 118    -0.385952371261E+03   -0.13331E-03   -0.13426E-03  8528   0.610E-02-0.357E-04
CGA: 119    -0.385952514255E+03   -0.14299E-03   -0.14316E-03  8528   0.655E-02-0.511E-04
CGA: 120    -0.385952639473E+03   -0.12522E-03   -0.12519E-03  8528   0.379E-02-0.133E-04
CGA: 121    -0.385952725276E+03   -0.85803E-04   -0.85782E-04  8528   0.425E-02 0.815E-05
CGA: 122    -0.385952851381E+03   -0.12610E-03   -0.12585E-03  8528   0.678E-02 0.276E-04
CGA: 123    -0.385953033445E+03   -0.18206E-03   -0.18073E-03  8528   0.110E-01 0.203E-03
CGA: 124    -0.385953277412E+03   -0.24397E-03   -0.24377E-03  8528   0.990E-02-0.143E-03
CGA: 125    -0.385953436949E+03   -0.15954E-03   -0.16040E-03  8528   0.738E-02 0.574E-04
CGA: 126    -0.385953658983E+03   -0.22203E-03   -0.22286E-03  8528   0.800E-02-0.701E-04
CGA: 127    -0.385953786692E+03   -0.12771E-03   -0.12763E-03  8528   0.371E-02 0.329E-04
CGA: 128    -0.385953881911E+03   -0.95218E-04   -0.94758E-04  8528   0.807E-02 0.928E-04
CGA: 129    -0.385954221619E+03   -0.33971E-03   -0.36471E-03  8528   0.249E-01-0.117E-02
CGA: 130    -0.385954480204E+03   -0.25859E-03   -0.25430E-03  8528   0.164E-01 0.489E-03
CGA: 131    -0.385954613750E+03   -0.13355E-03   -0.14823E-03  8528   0.556E-02-0.977E-03
SDA: 132    -0.385954707542E+03   -0.93792E-04   -0.94528E-04  8528   0.586E-02 0.716E-04
CGA: 133    -0.385954796028E+03   -0.88486E-04   -0.88543E-04  8528   0.390E-02 0.826E-06
CGA: 134    -0.385954951208E+03   -0.15518E-03   -0.15494E-03  8528   0.103E-01 0.114E-04
CGA: 135    -0.385955300164E+03   -0.34896E-03   -0.34663E-03  8528   0.718E-02 0.157E-03
CGA: 136    -0.385955441626E+03   -0.14146E-03   -0.14121E-03  8528   0.474E-02-0.401E-04
CGA: 137    -0.385955639651E+03   -0.19803E-03   -0.19782E-03  8528   0.149E-02 0.727E-05
CGA: 138    -0.385955669505E+03   -0.29854E-04   -0.29861E-04  8528   0.188E-02-0.562E-06
CGA: 139    -0.385955723829E+03   -0.54324E-04   -0.54263E-04  8528   0.119E-02 0.922E-05
CGA: 140    -0.385955801522E+03   -0.77693E-04   -0.77141E-04  8528   0.199E-02 0.446E-05
CGA: 141    -0.385955860880E+03   -0.59359E-04   -0.59221E-04  8528   0.232E-02 0.283E-04
CGA: 142    -0.385955907479E+03   -0.46599E-04   -0.46795E-04  8528   0.125E-02 0.180E-04
CGA: 143    -0.385955934245E+03   -0.26766E-04   -0.26799E-04  8528   0.833E-03 0.714E-05
CGA: 144    -0.385955955709E+03   -0.21464E-04   -0.21462E-04  8528   0.543E-03 0.630E-05
CGA: 145    -0.385955970857E+03   -0.15148E-04   -0.15142E-04  8528   0.537E-03 0.211E-05
CGA: 146    -0.385956009158E+03   -0.38301E-04   -0.38213E-04  8528   0.181E-02 0.292E-05
CGA: 147    -0.385956039124E+03   -0.29966E-04   -0.29793E-04  8528   0.954E-03-0.424E-05
CGA: 148    -0.385956093187E+03   -0.54063E-04   -0.54272E-04  8528   0.359E-03-0.721E-05
CGA: 149    -0.385956104500E+03   -0.11312E-04   -0.11311E-04  8528   0.697E-03 0.336E-06
CGA: 150    -0.385956122487E+03   -0.17988E-04   -0.18006E-04  8528   0.501E-03 0.284E-05
CGA: 151    -0.385956138134E+03   -0.15647E-04   -0.15648E-04  8528   0.614E-03 0.338E-06
CGA: 152    -0.385956192725E+03   -0.54591E-04   -0.52902E-04  8528   0.874E-03 0.305E-04
CGA: 153    -0.385956203742E+03   -0.11017E-04   -0.11035E-04  8528   0.225E-03 0.478E-05
CGA: 154    -0.385956212266E+03   -0.85237E-05   -0.84794E-05  8528   0.428E-03 0.552E-05
CGA: 155    -0.385956225547E+03   -0.13281E-04   -0.13283E-04  8528   0.391E-03 0.528E-05
CGA: 156    -0.385956248089E+03   -0.22542E-04   -0.21839E-04  8528   0.622E-03 0.275E-04
CGA: 157    -0.385956271348E+03   -0.23259E-04   -0.23304E-04  8528   0.117E-02-0.528E-05
CGA: 158    -0.385956294791E+03   -0.23443E-04   -0.23947E-04  8528   0.351E-03 0.942E-05
CGA: 159    -0.385956302163E+03   -0.73727E-05   -0.74325E-05  8528   0.241E-03 0.217E-05
   2 F= -.38595630E+03 E0= -.38592247E+03  d E =-.136280E+00  mag=     9.3491
       N       E                     dE             d eps       ncg     rms          ort
SDA:   1    -0.385929956286E+03    0.26339E-01    0.00000E+00  8528   0.380E+01 0.000E+00
CGA:   2    -0.385960982404E+03   -0.31026E-01   -0.31048E-01  8528   0.119E+00-0.555E-02
CGA:   3    -0.385962645073E+03   -0.16627E-02   -0.16553E-02  8528   0.140E-01 0.292E-03
CGA:   4    -0.385962939277E+03   -0.29420E-03   -0.29418E-03  8528   0.366E-02-0.391E-05
CGA:   5    -0.385963011789E+03   -0.72511E-04   -0.72557E-04  8528   0.188E-02 0.486E-05
CGA:   6    -0.385963114427E+03   -0.10264E-03   -0.10282E-03  8528   0.230E-02-0.667E-05
CGA:   7    -0.385963231198E+03   -0.11677E-03   -0.11657E-03  8528   0.219E-02 0.920E-05
CGA:   8    -0.385963273615E+03   -0.42417E-04   -0.42461E-04  8528   0.188E-02 0.295E-05
CGA:   9    -0.385963314670E+03   -0.41055E-04   -0.41088E-04  8528   0.257E-03 0.353E-05
CGA:  10    -0.385963326688E+03   -0.12018E-04   -0.12003E-04  8528   0.430E-03 0.924E-06
CGA:  11    -0.385963338096E+03   -0.11408E-04   -0.11417E-04  8528   0.274E-03 0.207E-05
CGA:  12    -0.385963350527E+03   -0.12431E-04   -0.12449E-04  8528   0.292E-03-0.128E-05
CGA:  13    -0.385963355619E+03   -0.50926E-05   -0.50970E-05  8528   0.785E-04 0.142E-06
   3 F= -.38596336E+03 E0= -.38592969E+03  d E =-.705346E-02  mag=     9.3477
       N       E                     dE             d eps       ncg     rms          ort
SDA:   1    -0.369845488371E+03    0.16118E+02    0.00000E+00  8528   0.263E+03 0.000E+00
CGA:   2    -0.372433598891E+03   -0.25881E+01   -0.37621E+01  8528   0.130E+03-0.737E+02
CGA:   3    -0.375440123437E+03   -0.30065E+01   -0.29249E+01  8528   0.754E+02 0.223E+02
CGA:   4    -0.378554203065E+03   -0.31141E+01   -0.42061E+01  8528   0.177E+03-0.357E+02
CGA:   5    -0.381507373099E+03   -0.29532E+01   -0.29500E+01  8528   0.179E+03 0.105E+01
CGA:   6    -0.384727681259E+03   -0.32203E+01   -0.30686E+01  8528   0.397E+02-0.521E+02
CGA:   7    -0.385070411704E+03   -0.34273E+00   -0.37638E+00  8528   0.199E+02-0.129E+01
CGA:   8    -0.385437101230E+03   -0.36669E+00   -0.32607E+00  8528   0.121E+02 0.502E+00
CGA:   9    -0.385678095493E+03   -0.24099E+00   -0.23714E+00  8528   0.201E+02-0.377E-01
CGA:  10    -0.386360482473E+03   -0.68239E+00   -0.67916E+00  8528   0.314E+02 0.350E+00
CGA:  11    -0.386643561087E+03   -0.28308E+00   -0.30749E+00  8528   0.493E+01-0.195E+01
CGA:  12    -0.386723983377E+03   -0.80422E-01   -0.81220E-01  8528   0.277E+01-0.411E-02
CGA:  13    -0.386762652528E+03   -0.38669E-01   -0.36197E-01  8528   0.119E+01 0.987E-01
CGA:  14    -0.386791455569E+03   -0.28803E-01   -0.28786E-01  8528   0.194E+01-0.145E-02
CGA:  15    -0.386834139036E+03   -0.42683E-01   -0.42939E-01  8528   0.151E+01 0.248E-01
CGA:  16    -0.386857221785E+03   -0.23083E-01   -0.23342E-01  8528   0.131E+01-0.365E-02
CGA:  17    -0.386909740209E+03   -0.52518E-01   -0.52100E-01  8528   0.156E+01 0.237E-01
CGA:  18    -0.386925637997E+03   -0.15898E-01   -0.15797E-01  8528   0.213E+00 0.815E-02
CGA:  19    -0.386929670946E+03   -0.40329E-02   -0.40295E-02  8528   0.190E+00-0.707E-04
CGA:  20    -0.386934493677E+03   -0.48227E-02   -0.48175E-02  8528   0.218E+00 0.432E-02
CGA:  21    -0.386941428162E+03   -0.69345E-02   -0.69739E-02  8528   0.382E+00-0.444E-02
CGA:  22    -0.386948999764E+03   -0.75716E-02   -0.75159E-02  8528   0.194E+00-0.277E-02
CGA:  23    -0.386952204281E+03   -0.32045E-02   -0.31913E-02  8528   0.136E+00-0.571E-04
CGA:  24    -0.386954692424E+03   -0.24881E-02   -0.24906E-02  8528   0.107E+00 0.419E-04
CGA:  25    -0.386956952178E+03   -0.22598E-02   -0.22635E-02  8528   0.853E-01 0.436E-03
CGA:  26    -0.386958603579E+03   -0.16514E-02   -0.16588E-02  8528   0.885E-01 0.418E-03
CGA:  27    -0.386960842285E+03   -0.22387E-02   -0.22382E-02  8528   0.604E-01 0.193E-03
CGA:  28    -0.386961713185E+03   -0.87090E-03   -0.87200E-03  8528   0.341E-01-0.195E-04
CGA:  29    -0.386962905394E+03   -0.11922E-02   -0.11883E-02  8528   0.659E-01 0.285E-03
CGA:  30    -0.386964090839E+03   -0.11854E-02   -0.11854E-02  8528   0.374E-01 0.122E-05
CGA:  31    -0.386965307891E+03   -0.12171E-02   -0.12233E-02  8528   0.547E-01-0.528E-03
SDA:  32    -0.386966053301E+03   -0.74541E-03   -0.74222E-03  8528   0.207E-01 0.143E-03
CGA:  33    -0.386966614917E+03   -0.56162E-03   -0.56048E-03  8528   0.119E-01 0.211E-03
CGA:  34    -0.386966921366E+03   -0.30645E-03   -0.30642E-03  8528   0.187E-01 0.225E-04
CGA:  35    -0.386967550740E+03   -0.62937E-03   -0.62901E-03  8528   0.116E-01 0.469E-04
CGA:  36    -0.386968077502E+03   -0.52676E-03   -0.52531E-03  8528   0.211E-01 0.690E-04
CGA:  37    -0.386968546161E+03   -0.46866E-03   -0.46869E-03  8528   0.528E-02 0.321E-04
CGA:  38    -0.386968910603E+03   -0.36444E-03   -0.36411E-03  8528   0.903E-02 0.720E-05
CGA:  39    -0.386969211538E+03   -0.30093E-03   -0.30120E-03  8528   0.911E-02-0.370E-04
CGA:  40    -0.386969926375E+03   -0.71484E-03   -0.71625E-03  8528   0.134E-01-0.279E-04
CGA:  41    -0.386970070409E+03   -0.14403E-03   -0.14391E-03  8528   0.322E-02-0.212E-05
CGA:  42    -0.386970308343E+03   -0.23793E-03   -0.23735E-03  8528   0.570E-02 0.143E-04
CGA:  43    -0.386970475887E+03   -0.16754E-03   -0.16759E-03  8528   0.700E-02 0.148E-04
CGA:  44    -0.386970738018E+03   -0.26213E-03   -0.26208E-03  8528   0.344E-02 0.100E-04
CGA:  45    -0.386970882601E+03   -0.14458E-03   -0.14456E-03  8528   0.285E-02 0.552E-05
CGA:  46    -0.386970951187E+03   -0.68586E-04   -0.68606E-04  8528   0.277E-02 0.367E-05
CGA:  47    -0.386971010701E+03   -0.59514E-04   -0.59480E-04  8528   0.208E-02 0.353E-05
CGA:  48    -0.386971084892E+03   -0.74191E-04   -0.74159E-04  8528   0.193E-02 0.682E-05
CGA:  49    -0.386971146098E+03   -0.61206E-04   -0.61207E-04  8528   0.697E-03-0.308E-05
CGA:  50    -0.386971167968E+03   -0.21870E-04   -0.21870E-04  8528   0.120E-02-0.221E-05
CGA:  51    -0.386971228496E+03   -0.60528E-04   -0.60775E-04  8528   0.649E-03-0.130E-04
CGA:  52    -0.386971239804E+03   -0.11308E-04   -0.11250E-04  8528   0.674E-03-0.354E-05
CGA:  53    -0.386971270020E+03   -0.30216E-04   -0.30355E-04  8528   0.390E-03-0.103E-04
CGA:  54    -0.386971294891E+03   -0.24871E-04   -0.25233E-04  8528   0.858E-03-0.110E-04
CGA:  55    -0.386971310993E+03   -0.16102E-04   -0.15999E-04  8528   0.409E-03-0.383E-05
CGA:  56    -0.386971323093E+03   -0.12100E-04   -0.12086E-04  8528   0.430E-03-0.371E-05
CGA:  57    -0.386971331622E+03   -0.85290E-05   -0.84938E-05  8528   0.328E-03-0.253E-05
CGA:  58    -0.386971346274E+03   -0.14652E-04   -0.14672E-04  8528   0.281E-03-0.174E-05
CGA:  59    -0.386971370447E+03   -0.24173E-04   -0.24338E-04  8528   0.433E-03-0.308E-05
CGA:  60    -0.386971375803E+03   -0.53556E-05   -0.53374E-05  8528   0.184E-03-0.651E-06
   4 F= -.38697138E+03 E0= -.38693656E+03  d E =-.100802E+01  mag=     9.3135
       N       E                     dE             d eps       ncg     rms          ort
SDA:   1    -0.383830619671E+03    0.31408E+01    0.00000E+00  8528   0.375E+02 0.000E+00
CGA:   2    -0.384267604249E+03   -0.43698E+00   -0.54618E+00  8528   0.199E+02-0.609E+01
CGA:   3    -0.384811678834E+03   -0.54407E+00   -0.54779E+00  8528   0.289E+02 0.120E+01
CGA:   4    -0.386109613800E+03   -0.12979E+01   -0.13532E+01  8528   0.310E+02-0.366E+01
CGA:   5    -0.386647502842E+03   -0.53789E+00   -0.52286E+00  8528   0.114E+02 0.197E+00
CGA:   6    -0.386813489386E+03   -0.16599E+00   -0.17754E+00  8528   0.374E+01-0.490E+00
CGA:   7    -0.386939870196E+03   -0.12638E+00   -0.12659E+00  8528   0.638E+01-0.484E-01
CGA:   8    -0.387120754479E+03   -0.18088E+00   -0.18040E+00  8528   0.460E+01-0.409E-01
CGA:   9    -0.387223271283E+03   -0.10252E+00   -0.10443E+00  8528   0.207E+01 0.120E-02
CGA:  10    -0.387257499811E+03   -0.34229E-01   -0.34832E-01  8528   0.108E+01-0.168E-01
CGA:  11    -0.387283944547E+03   -0.26445E-01   -0.26261E-01  8528   0.482E+00-0.566E-02
CGA:  12    -0.387297991466E+03   -0.14047E-01   -0.14056E-01  8528   0.432E+00 0.200E-02
CGA:  13    -0.387307794969E+03   -0.98035E-02   -0.97942E-02  8528   0.445E+00-0.219E-03
CGA:  14    -0.387322831309E+03   -0.15036E-01   -0.15054E-01  8528   0.290E+00-0.345E-02
CGA:  15    -0.387329161602E+03   -0.63303E-02   -0.63437E-02  8528   0.124E+00 0.964E-04
CGA:  16    -0.387331061653E+03   -0.19001E-02   -0.19115E-02  8528   0.544E-01-0.351E-03
CGA:  17    -0.387333031872E+03   -0.19702E-02   -0.19707E-02  8528   0.710E-01-0.516E-04
CGA:  18    -0.387335421739E+03   -0.23899E-02   -0.23890E-02  8528   0.940E-01 0.149E-03
CGA:  19    -0.387337543073E+03   -0.21213E-02   -0.21237E-02  8528   0.450E-01 0.746E-04
CGA:  20    -0.387338580367E+03   -0.10373E-02   -0.10363E-02  8528   0.272E-01-0.250E-04
CGA:  21    -0.387339099496E+03   -0.51913E-03   -0.51839E-03  8528   0.159E-01-0.296E-05
CGA:  22    -0.387339694255E+03   -0.59476E-03   -0.59442E-03  8528   0.198E-01 0.301E-04
CGA:  23    -0.387340383070E+03   -0.68881E-03   -0.68897E-03  8528   0.305E-01-0.225E-04
CGA:  24    -0.387341015948E+03   -0.63288E-03   -0.63232E-03  8528   0.137E-01-0.219E-04
CGA:  25    -0.387341405417E+03   -0.38947E-03   -0.38950E-03  8528   0.866E-02 0.167E-04
CGA:  26    -0.387341636297E+03   -0.23088E-03   -0.23084E-03  8528   0.110E-01-0.837E-05
CGA:  27    -0.387341930200E+03   -0.29390E-03   -0.29385E-03  8528   0.880E-02-0.151E-04
CGA:  28    -0.387342262870E+03   -0.33267E-03   -0.33259E-03  8528   0.875E-02 0.720E-05
CGA:  29    -0.387342457915E+03   -0.19504E-03   -0.19508E-03  8528   0.712E-02 0.593E-05
CGA:  30    -0.387342623673E+03   -0.16576E-03   -0.16572E-03  8528   0.450E-02 0.297E-05
CGA:  31    -0.387342780520E+03   -0.15685E-03   -0.15671E-03  8528   0.562E-02 0.203E-04
SDA:  32    -0.387342904040E+03   -0.12352E-03   -0.12367E-03  8528   0.327E-02 0.200E-04
CGA:  33    -0.387342939793E+03   -0.35753E-04   -0.35693E-04  8528   0.103E-02 0.114E-05
CGA:  34    -0.387342977853E+03   -0.38060E-04   -0.38048E-04  8528   0.226E-02 0.160E-05
CGA:  35    -0.387343091968E+03   -0.11412E-03   -0.11374E-03  8528   0.202E-02 0.172E-04
CGA:  36    -0.387343146720E+03   -0.54751E-04   -0.54767E-04  8528   0.236E-02 0.658E-05
CGA:  37    -0.387343237651E+03   -0.90931E-04   -0.90786E-04  8528   0.909E-03 0.163E-04
CGA:  38    -0.387343272913E+03   -0.35262E-04   -0.35232E-04  8528   0.106E-02 0.356E-05
CGA:  39    -0.387343294475E+03   -0.21562E-04   -0.21574E-04  8528   0.122E-02 0.927E-06
CGA:  40    -0.387343339800E+03   -0.45325E-04   -0.45309E-04  8528   0.663E-03 0.111E-05
CGA:  41    -0.387343375272E+03   -0.35473E-04   -0.35579E-04  8528   0.508E-03-0.459E-05
CGA:  42    -0.387343394859E+03   -0.19586E-04   -0.19611E-04  8528   0.766E-03-0.324E-05
CGA:  43    -0.387343417613E+03   -0.22755E-04   -0.22748E-04  8528   0.576E-03-0.408E-05
CGA:  44    -0.387343425948E+03   -0.83344E-05   -0.82951E-05  8528   0.260E-03-0.111E-05
CGA:  45    -0.387343437536E+03   -0.11588E-04   -0.11596E-04  8528   0.441E-03-0.554E-06
CGA:  46    -0.387343447185E+03   -0.96492E-05   -0.96721E-05  8528   0.261E-03 0.236E-05
CGA:  47    -0.387343464040E+03   -0.16855E-04   -0.16763E-04  8528   0.772E-04 0.273E-05
CGA:  48    -0.387343469393E+03   -0.53529E-05   -0.53587E-05  8528   0.124E-03-0.177E-06
   5 F= -.38734347E+03 E0= -.38730817E+03  d E =-.372094E+00  mag=     9.2766
       N       E                     dE             d eps       ncg     rms          ort
SDA:   1    -0.346922855242E+03    0.40421E+02    0.00000E+00  8528   0.487E+03 0.000E+00
CGA:   2    -0.353866066629E+03   -0.69432E+01   -0.81131E+01  8528   0.240E+03-0.731E+02
CGA:   3    -0.361417588971E+03   -0.75515E+01   -0.73261E+01  8528   0.198E+03 0.612E+02
CGA:   4    -0.368565175025E+03   -0.71476E+01   -0.72133E+01  8528   0.371E+03 0.395E+01
CGA:   5    -0.376366082781E+03   -0.78009E+01   -0.94727E+01  8528   0.860E+02 0.583E+02
CGA:   6    -0.376913849662E+03   -0.54777E+00   -0.56305E+01  8528   0.395E+03-0.147E+03
CGA:   7    -0.382167510181E+03   -0.52537E+01   -0.45152E+01  8528   0.750E+02-0.327E+02
CGA:   8    -0.383974702068E+03   -0.18072E+01   -0.81365E+00  8528   0.417E+02 0.803E+02
CGA:   9    -0.384773065070E+03   -0.79836E+00   -0.61913E+00  8528   0.127E+02 0.454E+01
CGA:  10    -0.385088884976E+03   -0.31582E+00   -0.31164E+00  8528   0.170E+02-0.536E-01
CGA:  11    -0.386094712126E+03   -0.10058E+01   -0.10112E+01  8528   0.562E+02-0.169E+00
CGA:  12    -0.386984667552E+03   -0.88996E+00   -0.89870E+00  8528   0.189E+02-0.108E+01
CGA:  13    -0.387189777424E+03   -0.20511E+00   -0.23014E+00  8528   0.565E+01-0.137E+01
CGA:  14    -0.387315284326E+03   -0.12551E+00   -0.12739E+00  8528   0.447E+01 0.730E-01
CGA:  15    -0.387540434708E+03   -0.22515E+00   -0.22549E+00  8528   0.705E+01-0.149E-01
CGA:  16    -0.387677965029E+03   -0.13753E+00   -0.13755E+00  8528   0.693E+01-0.897E-02
CGA:  17    -0.387875804594E+03   -0.19784E+00   -0.19771E+00  8528   0.205E+01-0.269E-01
CGA:  18    -0.387909713509E+03   -0.33909E-01   -0.33782E-01  8528   0.938E+00 0.255E-02
CGA:  19    -0.387931569248E+03   -0.21856E-01   -0.21931E-01  8528   0.882E+00 0.271E-02
CGA:  20    -0.387950201592E+03   -0.18632E-01   -0.18618E-01  8528   0.522E+00-0.405E-03
CGA:  21    -0.387966532252E+03   -0.16331E-01   -0.16322E-01  8528   0.828E+00 0.227E-02
CGA:  22    -0.387994224313E+03   -0.27692E-01   -0.27685E-01  8528   0.315E+00 0.745E-03
CGA:  23    -0.387999231305E+03   -0.50070E-02   -0.49938E-02  8528   0.257E+00 0.108E-03
CGA:  24    -0.388009298601E+03   -0.10067E-01   -0.10076E-01  8528   0.227E+00-0.681E-03
CGA:  25    -0.388016677142E+03   -0.73785E-02   -0.73806E-02  8528   0.233E+00-0.403E-03
CGA:  26    -0.388024042092E+03   -0.73649E-02   -0.73787E-02  8528   0.311E+00-0.348E-02
CGA:  27    -0.388028771543E+03   -0.47295E-02   -0.46871E-02  8528   0.115E+00 0.132E-02
CGA:  28    -0.388034040048E+03   -0.52685E-02   -0.51931E-02  8528   0.903E-01 0.394E-02
CGA:  29    -0.388035535432E+03   -0.14954E-02   -0.14976E-02  8528   0.705E-01 0.175E-05
CGA:  30    -0.388037760428E+03   -0.22250E-02   -0.22221E-02  8528   0.730E-01 0.686E-03
CGA:  31    -0.388040167588E+03   -0.24072E-02   -0.24066E-02  8528   0.564E-01 0.122E-03
CGA:  32    -0.388041510045E+03   -0.13425E-02   -0.13428E-02  8528   0.780E-01 0.535E-04
CGA:  33    -0.388043857885E+03   -0.23478E-02   -0.23476E-02  8528   0.822E-01 0.171E-03
CGA:  34    -0.388046248219E+03   -0.23903E-02   -0.23903E-02  8528   0.462E-01 0.463E-04
CGA:  35    -0.388046946722E+03   -0.69850E-03   -0.69859E-03  8528   0.222E-01 0.226E-04
CGA:  36    -0.388047661255E+03   -0.71453E-03   -0.71468E-03  8528   0.343E-01-0.242E-04
CGA:  37    -0.388048414660E+03   -0.75340E-03   -0.75211E-03  8528   0.256E-01-0.506E-04
CGA:  38    -0.388050143262E+03   -0.17286E-02   -0.17285E-02  8528   0.576E-01 0.665E-05
SDA:  39    -0.388050986860E+03   -0.84360E-03   -0.84387E-03  8528   0.225E-01-0.286E-04
CGA:  40    -0.388051325993E+03   -0.33913E-03   -0.33877E-03  8528   0.143E-01 0.925E-05
CGA:  41    -0.388051724129E+03   -0.39814E-03   -0.39829E-03  8528   0.106E-01 0.913E-04
CGA:  42    -0.388052043823E+03   -0.31969E-03   -0.31967E-03  8528   0.875E-02 0.134E-04
CGA:  43    -0.388052539633E+03   -0.49581E-03   -0.49603E-03  8528   0.224E-01-0.828E-05
CGA:  44    -0.388053081546E+03   -0.54191E-03   -0.54162E-03  8528   0.611E-02-0.176E-04
CGA:  45    -0.388053302005E+03   -0.22046E-03   -0.22066E-03  8528   0.583E-02-0.239E-04
CGA:  46    -0.388053452204E+03   -0.15020E-03   -0.15016E-03  8528   0.883E-02-0.929E-05
CGA:  47    -0.388053754199E+03   -0.30200E-03   -0.30197E-03  8528   0.799E-02-0.356E-05
CGA:  48    -0.388054352593E+03   -0.59839E-03   -0.59906E-03  8528   0.352E-02-0.128E-04
CGA:  49    -0.388054434301E+03   -0.81707E-04   -0.81669E-04  8528   0.380E-02-0.551E-05
CGA:  50    -0.388054545097E+03   -0.11080E-03   -0.11078E-03  8528   0.416E-02-0.402E-05
CGA:  51    -0.388054679909E+03   -0.13481E-03   -0.13481E-03  8528   0.471E-02 0.274E-05
CGA:  52    -0.388054852671E+03   -0.17276E-03   -0.17277E-03  8528   0.566E-02-0.195E-05
CGA:  53    -0.388054968122E+03   -0.11545E-03   -0.11551E-03  8528   0.114E-02 0.242E-05
CGA:  54    -0.388055020177E+03   -0.52055E-04   -0.52077E-04  8528   0.148E-02-0.135E-05
CGA:  55    -0.388055046715E+03   -0.26538E-04   -0.26529E-04  8528   0.135E-02-0.186E-05
CGA:  56    -0.388055161651E+03   -0.11494E-03   -0.11537E-03  8528   0.181E-02-0.812E-05
CGA:  57    -0.388055209073E+03   -0.47421E-04   -0.47404E-04  8528   0.603E-03-0.288E-05
CGA:  58    -0.388055223619E+03   -0.14547E-04   -0.14539E-04  8528   0.864E-03-0.755E-06
CGA:  59    -0.388055254648E+03   -0.31028E-04   -0.31031E-04  8528   0.855E-03-0.139E-05
CGA:  60    -0.388055285043E+03   -0.30395E-04   -0.30397E-04  8528   0.788E-03-0.753E-06
CGA:  61    -0.388055329968E+03   -0.44925E-04   -0.44926E-04  8528   0.154E-02 0.250E-06
CGA:  62    -0.388055354439E+03   -0.24471E-04   -0.24449E-04  8528   0.329E-03-0.107E-05
CGA:  63    -0.388055366571E+03   -0.12132E-04   -0.12130E-04  8528   0.733E-03 0.516E-06
CGA:  64    -0.388055384526E+03   -0.17954E-04   -0.17979E-04  8528   0.241E-03 0.204E-05
CGA:  65    -0.388055399141E+03   -0.14615E-04   -0.14585E-04  8528   0.321E-03 0.116E-05
CGA:  66    -0.388055408442E+03   -0.93013E-05   -0.93122E-05  8528   0.377E-03 0.173E-05
   6 F= -.38805541E+03 E0= -.38802085E+03  d E =-.711939E+00  mag=     9.1168
       N       E                     dE             d eps       ncg     rms          ort
SDA:   1    -0.383474745066E+03    0.45807E+01    0.00000E+00  8528   0.287E+02 0.000E+00
CGA:   2    -0.384057797345E+03   -0.58305E+00   -0.59971E+00  8528   0.227E+02-0.687E+00
CGA:   3    -0.384961233735E+03   -0.90344E+00   -0.89795E+00  8528   0.588E+02 0.525E+00
CGA:   4    -0.387105385162E+03   -0.21442E+01   -0.21464E+01  8528   0.121E+02-0.650E+00
CGA:   5    -0.387314010179E+03   -0.20863E+00   -0.21297E+00  8528   0.787E+01-0.109E+00
CGA:   6    -0.387611632325E+03   -0.29762E+00   -0.29683E+00  8528   0.679E+01 0.991E-01
CGA:   7    -0.387844736771E+03   -0.23310E+00   -0.23317E+00  8528   0.864E+01-0.540E-01
CGA:   8    -0.387998171469E+03   -0.15343E+00   -0.15364E+00  8528   0.474E+01 0.334E-03
CGA:   9    -0.388106995658E+03   -0.10882E+00   -0.10964E+00  8528   0.904E+00 0.638E-02
CGA:  10    -0.388131878914E+03   -0.24883E-01   -0.24845E-01  8528   0.916E+00-0.289E-02
CGA:  11    -0.388149174974E+03   -0.17296E-01   -0.17285E-01  8528   0.642E+00 0.940E-04
CGA:  12    -0.388171071664E+03   -0.21897E-01   -0.21895E-01  8528   0.620E+00 0.281E-03
CGA:  13    -0.388188434082E+03   -0.17362E-01   -0.17346E-01  8528   0.575E+00-0.181E-02
CGA:  14    -0.388200420881E+03   -0.11987E-01   -0.12076E-01  8528   0.118E+00 0.244E-03
CGA:  15    -0.388203065789E+03   -0.26449E-02   -0.26479E-02  8528   0.127E+00 0.794E-04
CGA:  16    -0.388205781132E+03   -0.27153E-02   -0.27237E-02  8528   0.541E-01 0.125E-03
CGA:  17    -0.388209474480E+03   -0.36933E-02   -0.36784E-02  8528   0.102E+00 0.408E-03
CGA:  18    -0.388212787798E+03   -0.33133E-02   -0.33131E-02  8528   0.491E-01 0.246E-03
CGA:  19    -0.388213467614E+03   -0.67982E-03   -0.67974E-03  8528   0.261E-01 0.269E-04
CGA:  20    -0.388214701715E+03   -0.12341E-02   -0.12360E-02  8528   0.195E-01-0.965E-04
CGA:  21    -0.388215274664E+03   -0.57295E-03   -0.57293E-03  8528   0.228E-01-0.506E-05
CGA:  22    -0.388216027891E+03   -0.75323E-03   -0.75308E-03  8528   0.238E-01 0.597E-04
CGA:  23    -0.388216800713E+03   -0.77282E-03   -0.77284E-03  8528   0.199E-01-0.156E-04
CGA:  24    -0.388217174657E+03   -0.37394E-03   -0.37381E-03  8528   0.171E-01-0.196E-05
CGA:  25    -0.388217877653E+03   -0.70300E-03   -0.70219E-03  8528   0.946E-02 0.599E-04
CGA:  26    -0.388218218420E+03   -0.34077E-03   -0.34064E-03  8528   0.810E-02 0.170E-04
CGA:  27    -0.388218461434E+03   -0.24301E-03   -0.24307E-03  8528   0.126E-01 0.152E-04
CGA:  28    -0.388218767027E+03   -0.30559E-03   -0.30590E-03  8528   0.828E-02 0.101E-04
CGA:  29    -0.388219202909E+03   -0.43588E-03   -0.43566E-03  8528   0.102E-01 0.905E-05
CGA:  30    -0.388219365861E+03   -0.16295E-03   -0.16303E-03  8528   0.295E-02 0.910E-05
CGA:  31    -0.388219498062E+03   -0.13220E-03   -0.13221E-03  8528   0.322E-02 0.517E-06
SDA:  32    -0.388219571428E+03   -0.73366E-04   -0.73413E-04  8528   0.355E-02 0.217E-05
CGA:  33    -0.388219612566E+03   -0.41137E-04   -0.41179E-04  8528   0.141E-02-0.453E-06
CGA:  34    -0.388219675773E+03   -0.63207E-04   -0.63133E-04  8528   0.141E-02 0.459E-05
CGA:  35    -0.388219743449E+03   -0.67677E-04   -0.67664E-04  8528   0.300E-02 0.786E-06
CGA:  36    -0.388219842146E+03   -0.98697E-04   -0.98694E-04  8528   0.244E-02 0.311E-05
CGA:  37    -0.388219906927E+03   -0.64781E-04   -0.64769E-04  8528   0.964E-03-0.299E-05
CGA:  38    -0.388219954874E+03   -0.47947E-04   -0.48136E-04  8528   0.793E-03-0.943E-05
CGA:  39    -0.388219980151E+03   -0.25277E-04   -0.25275E-04  8528   0.132E-02-0.205E-05
CGA:  40    -0.388220012576E+03   -0.32425E-04   -0.32391E-04  8528   0.985E-03-0.336E-05
CGA:  41    -0.388220052001E+03   -0.39425E-04   -0.39451E-04  8528   0.544E-03-0.395E-05
CGA:  42    -0.388220099314E+03   -0.47313E-04   -0.47460E-04  8528   0.467E-03-0.256E-05
CGA:  43    -0.388220122820E+03   -0.23506E-04   -0.23545E-04  8528   0.111E-02-0.278E-05
CGA:  44    -0.388220140021E+03   -0.17201E-04   -0.17161E-04  8528   0.247E-03-0.294E-05
CGA:  45    -0.388220178077E+03   -0.38056E-04   -0.18683E-07  8528   0.964E-03-0.813E-04
CGA:  46    -0.388220186261E+03   -0.81840E-05   -0.81153E-05  8528   0.417E-03-0.224E-05
CGA:  47    -0.388220197339E+03   -0.11077E-04   -0.11021E-04  8528   0.456E-03-0.652E-06
CGA:  48    -0.388220203649E+03   -0.63100E-05   -0.62983E-05  8528   0.169E-03 0.766E-06
   7 F= -.38822020E+03 E0= -.38818681E+03  d E =-.164795E+00  mag=     9.0149
       N       E                     dE             d eps       ncg     rms          ort
SDA:   1    -0.343669727471E+03    0.44550E+02    0.00000E+00  8528   0.106E+04 0.000E+00
CGA:   2    -0.350816307643E+03   -0.71466E+01   -0.22468E+02  8528   0.547E+03-0.482E+03
CGA:   3    -0.363473769305E+03   -0.12657E+02   -0.67233E+01  8528   0.103E+03 0.158E+03
CGA:   4    -0.364616386933E+03   -0.11426E+01   -0.17536E+01  8528   0.278E+03-0.732E+02
CGA:   5    -0.364546749917E+03    0.69637E-01   -0.55776E+01  8528   0.298E+03-0.940E+02
CGA:   6    -0.373123660126E+03   -0.85769E+01   -0.61528E+01  8528   0.116E+03 0.557E+01
CGA:   7    -0.375872680755E+03   -0.27490E+01   -0.31632E+01  8528   0.168E+03-0.643E+01
CGA:   8    -0.381238059051E+03   -0.53654E+01   -0.48419E+01  8528   0.180E+03-0.403E+01
CGA:   9    -0.384513157859E+03   -0.32751E+01   -0.41577E+01  8528   0.161E+03-0.139E+02
CGA:  10    -0.386336779455E+03   -0.18236E+01   -0.26300E+01  8528   0.755E+02-0.433E+02
CGA:  11    -0.387121875231E+03   -0.78510E+00   -0.80340E+00  8528   0.129E+02-0.198E+01
CGA:  12    -0.387369157412E+03   -0.24728E+00   -0.23495E+00  8528   0.744E+01 0.471E+00
CGA:  13    -0.387531037413E+03   -0.16188E+00   -0.15854E+00  8528   0.103E+02 0.507E-01
CGA:  14    -0.388073977655E+03   -0.54294E+00   -0.53431E+00  8528   0.161E+02 0.544E+00
CGA:  15    -0.388278116632E+03   -0.20414E+00   -0.23430E+00  8528   0.226E+01-0.160E+01
CGA:  16    -0.388312523580E+03   -0.34407E-01   -0.34355E-01  8528   0.806E+00 0.121E-02
CGA:  17    -0.388338963236E+03   -0.26440E-01   -0.26588E-01  8528   0.143E+01 0.950E-02
CGA:  18    -0.388385954519E+03   -0.46991E-01   -0.47068E-01  8528   0.192E+01 0.480E-02
CGA:  19    -0.388423941457E+03   -0.37987E-01   -0.38492E-01  8528   0.939E+00-0.109E-01
CGA:  20    -0.388443506988E+03   -0.19566E-01   -0.19965E-01  8528   0.424E+00-0.555E-02
CGA:  21    -0.388453377558E+03   -0.98706E-02   -0.99070E-02  8528   0.254E+00-0.326E-04
CGA:  22    -0.388462570431E+03   -0.91929E-02   -0.91901E-02  8528   0.331E+00 0.207E-02
CGA:  23    -0.388472413256E+03   -0.98428E-02   -0.98499E-02  8528   0.354E+00 0.344E-03
CGA:  24    -0.388481871824E+03   -0.94586E-02   -0.94628E-02  8528   0.360E+00 0.105E-03
CGA:  25    -0.388490005480E+03   -0.81337E-02   -0.82547E-02  8528   0.169E+00-0.359E-04
CGA:  26    -0.388493885876E+03   -0.38804E-02   -0.38849E-02  8528   0.928E-01 0.256E-04
CGA:  27    -0.388496961890E+03   -0.30760E-02   -0.30774E-02  8528   0.108E+00 0.121E-02
CGA:  28    -0.388502084852E+03   -0.51230E-02   -0.51270E-02  8528   0.215E+00-0.207E-03
CGA:  29    -0.388507142927E+03   -0.50581E-02   -0.51668E-02  8528   0.979E-01 0.103E-02
CGA:  30    -0.388508882972E+03   -0.17400E-02   -0.17526E-02  8528   0.459E-01-0.266E-03
CGA:  31    -0.388510523420E+03   -0.16404E-02   -0.16405E-02  8528   0.440E-01-0.400E-05
CGA:  32    -0.388512112037E+03   -0.15886E-02   -0.15878E-02  8528   0.553E-01 0.161E-03
CGA:  33    -0.388514036645E+03   -0.19246E-02   -0.19235E-02  8528   0.421E-01 0.470E-03
CGA:  34    -0.388515032228E+03   -0.99558E-03   -0.99852E-03  8528   0.330E-01 0.362E-04
SDA:  35    -0.388515939192E+03   -0.90696E-03   -0.91152E-03  8528   0.226E-01 0.274E-03
CGA:  36    -0.388516227403E+03   -0.28821E-03   -0.28939E-03  8528   0.964E-02-0.481E-04
CGA:  37    -0.388516795793E+03   -0.56839E-03   -0.56523E-03  8528   0.155E-01 0.111E-03
CGA:  38    -0.388517225211E+03   -0.42942E-03   -0.42957E-03  8528   0.164E-01 0.965E-05
CGA:  39    -0.388517735863E+03   -0.51065E-03   -0.51075E-03  8528   0.105E-01 0.291E-04
CGA:  40    -0.388518240274E+03   -0.50441E-03   -0.50434E-03  8528   0.750E-02 0.446E-05
CGA:  41    -0.388518853055E+03   -0.61278E-03   -0.61132E-03  8528   0.110E-01 0.347E-04
CGA:  42    -0.388519334550E+03   -0.48150E-03   -0.48192E-03  8528   0.475E-02-0.439E-04
CGA:  43    -0.388519645554E+03   -0.31100E-03   -0.30949E-03  8528   0.990E-02 0.478E-04
CGA:  44    -0.388519811735E+03   -0.16618E-03   -0.16673E-03  8528   0.444E-02-0.178E-04
CGA:  45    -0.388520237506E+03   -0.42577E-03   -0.41525E-03  8528   0.473E-02 0.197E-03
CGA:  46    -0.388520328765E+03   -0.91259E-04   -0.91515E-04  8528   0.239E-02-0.866E-05
CGA:  47    -0.388520429012E+03   -0.10025E-03   -0.10019E-03  8528   0.378E-02 0.107E-04
CGA:  48    -0.388520720265E+03   -0.29125E-03   -0.29124E-03  8528   0.339E-02-0.816E-06
CGA:  49    -0.388520801275E+03   -0.81010E-04   -0.81299E-04  8528   0.293E-02-0.306E-05
CGA:  50    -0.388520868904E+03   -0.67630E-04   -0.67597E-04  8528   0.906E-03 0.110E-05
CGA:  51    -0.388520946734E+03   -0.77829E-04   -0.77794E-04  8528   0.221E-02 0.946E-06
CGA:  52    -0.388521030863E+03   -0.84129E-04   -0.84123E-04  8528   0.230E-02-0.303E-05
CGA:  53    -0.388521077236E+03   -0.46374E-04   -0.46625E-04  8528   0.709E-03-0.118E-04
CGA:  54    -0.388521110173E+03   -0.32937E-04   -0.32929E-04  8528   0.673E-03 0.770E-06
CGA:  55    -0.388521130633E+03   -0.20460E-04   -0.20498E-04  8528   0.967E-03 0.159E-05
CGA:  56    -0.388521171985E+03   -0.41352E-04   -0.41342E-04  8528   0.971E-03 0.308E-05
CGA:  57    -0.388521220215E+03   -0.48230E-04   -0.48170E-04  8528   0.419E-03 0.580E-05
CGA:  58    -0.388521236150E+03   -0.15936E-04   -0.15937E-04  8528   0.834E-03 0.442E-06
CGA:  59    -0.388521275174E+03   -0.39024E-04   -0.38997E-04  8528   0.885E-03 0.389E-05
CGA:  60    -0.388521304754E+03   -0.29580E-04   -0.29595E-04  8528   0.415E-03 0.303E-05
CGA:  61    -0.388521316827E+03   -0.12073E-04   -0.12082E-04  8528   0.523E-03 0.419E-06
CGA:  62    -0.388521335869E+03   -0.19042E-04   -0.19050E-04  8528   0.379E-03 0.219E-05
CGA:  63    -0.388521372473E+03   -0.36604E-04   -0.36371E-04  8528   0.436E-03 0.419E-05
CGA:  64    -0.388521382205E+03   -0.97313E-05   -0.97641E-05  8528   0.243E-03 0.701E-06
   8 F= -.38852138E+03 E0= -.38849271E+03  d E =-.301179E+00  mag=     8.6655
       N       E                     dE             d eps       ncg     rms          ort
SDA:   1    -0.361927523660E+03    0.26594E+02    0.00000E+00  8528   0.110E+03 0.000E+00
CGA:   2    -0.364459969851E+03   -0.25324E+01   -0.24511E+01  8528   0.168E+03-0.904E+01
CGA:   3    -0.378359047508E+03   -0.13899E+02   -0.13570E+02  8528   0.221E+03 0.116E+01
CGA:   4    -0.381460159455E+03   -0.31011E+01   -0.27951E+01  8528   0.757E+02 0.197E+02
CGA:   5    -0.383695395711E+03   -0.22352E+01   -0.22648E+01  8528   0.997E+02 0.430E+01
CGA:   6    -0.384168947586E+03   -0.47355E+00   -0.10607E+01  8528   0.891E+02-0.829E+02
CGA:   7    -0.385274846082E+03   -0.11059E+01   -0.18130E+01  8528   0.520E+02-0.138E+02
CGA:   8    -0.385943655836E+03   -0.66881E+00   -0.72756E+00  8528   0.187E+02-0.204E+01
CGA:   9    -0.386855799071E+03   -0.91214E+00   -0.10559E+01  8528   0.344E+02-0.535E+01
CGA:  10    -0.387466491997E+03   -0.61069E+00   -0.59788E+00  8528   0.277E+02 0.101E+00
CGA:  11    -0.387990229091E+03   -0.52374E+00   -0.56892E+00  8528   0.119E+02-0.931E+00
CGA:  12    -0.388122783114E+03   -0.13255E+00   -0.14294E+00  8528   0.355E+01-0.611E+00
CGA:  13    -0.388249430891E+03   -0.12665E+00   -0.12707E+00  8528   0.457E+01-0.904E-01
CGA:  14    -0.388360158562E+03   -0.11073E+00   -0.10999E+00  8528   0.606E+01-0.595E-02
CGA:  15    -0.388545222662E+03   -0.18506E+00   -0.18658E+00  8528   0.449E+01 0.147E+00
CGA:  16    -0.388634484351E+03   -0.89262E-01   -0.92815E-01  8528   0.320E+01-0.565E-01
CGA:  17    -0.388701981924E+03   -0.67498E-01   -0.70005E-01  8528   0.839E+00 0.129E-01
CGA:  18    -0.388713271155E+03   -0.11289E-01   -0.11110E-01  8528   0.238E+00 0.907E-02
CGA:  19    -0.388724182837E+03   -0.10912E-01   -0.10846E-01  8528   0.318E+00 0.400E-02
CGA:  20    -0.388734505683E+03   -0.10323E-01   -0.10322E-01  8528   0.427E+00-0.393E-03
CGA:  21    -0.388744927197E+03   -0.10422E-01   -0.10431E-01  8528   0.205E+00-0.621E-04
CGA:  22    -0.388751125302E+03   -0.61981E-02   -0.62050E-02  8528   0.183E+00 0.141E-02
CGA:  23    -0.388754578108E+03   -0.34528E-02   -0.34480E-02  8528   0.598E-01 0.746E-05
CGA:  24    -0.388757013570E+03   -0.24355E-02   -0.24335E-02  8528   0.112E+00 0.170E-03
CGA:  25    -0.388760152944E+03   -0.31394E-02   -0.31419E-02  8528   0.957E-01 0.227E-03
CGA:  26    -0.388764575537E+03   -0.44226E-02   -0.43926E-02  8528   0.939E-01 0.171E-02
CGA:  27    -0.388766834435E+03   -0.22589E-02   -0.22729E-02  8528   0.684E-01 0.220E-03
CGA:  28    -0.388768482211E+03   -0.16478E-02   -0.16452E-02  8528   0.266E-01-0.181E-04
CGA:  29    -0.388769305001E+03   -0.82279E-03   -0.82270E-03  8528   0.404E-01-0.491E-04
CGA:  30    -0.388771044885E+03   -0.17399E-02   -0.17392E-02  8528   0.405E-01 0.392E-04
CGA:  31    -0.388772547925E+03   -0.15030E-02   -0.15027E-02  8528   0.336E-01 0.297E-04
CGA:  32    -0.388773132887E+03   -0.58496E-03   -0.58806E-03  8528   0.130E-01-0.631E-04
CGA:  33    -0.388773563178E+03   -0.43029E-03   -0.43017E-03  8528   0.866E-02 0.405E-04
CGA:  34    -0.388773796947E+03   -0.23377E-03   -0.23396E-03  8528   0.867E-02 0.178E-04
CGA:  35    -0.388774227889E+03   -0.43094E-03   -0.43027E-03  8528   0.114E-01 0.370E-04
CGA:  36    -0.388774721098E+03   -0.49321E-03   -0.49160E-03  8528   0.160E-01 0.125E-03
SDA:  37    -0.388775028845E+03   -0.30775E-03   -0.30919E-03  8528   0.412E-02 0.113E-04
CGA:  38    -0.388775131708E+03   -0.10286E-03   -0.10269E-03  8528   0.243E-02-0.916E-05
CGA:  39    -0.388775226473E+03   -0.94765E-04   -0.94800E-04  8528   0.481E-02-0.593E-05
CGA:  40    -0.388775422194E+03   -0.19572E-03   -0.19591E-03  8528   0.352E-02-0.241E-04
CGA:  41    -0.388775696865E+03   -0.27467E-03   -0.27674E-03  8528   0.227E-02-0.466E-04
CGA:  42    -0.388775967131E+03   -0.27027E-03   -0.26617E-03  8528   0.610E-02 0.564E-04
CGA:  43    -0.388776101954E+03   -0.13482E-03   -0.13610E-03  8528   0.360E-02-0.231E-04
CGA:  44    -0.388776291432E+03   -0.18948E-03   -0.18924E-03  8528   0.522E-02 0.126E-04
CGA:  45    -0.388776409644E+03   -0.11821E-03   -0.11825E-03  8528   0.255E-02-0.452E-05
CGA:  46    -0.388776631978E+03   -0.22233E-03   -0.22059E-03  8528   0.213E-02 0.376E-04
CGA:  47    -0.388776684855E+03   -0.52877E-04   -0.52752E-04  8528   0.185E-02-0.391E-05
CGA:  48    -0.388776768476E+03   -0.83621E-04   -0.83639E-04  8528   0.234E-02-0.422E-05
CGA:  49    -0.388776868165E+03   -0.99688E-04   -0.99675E-04  8528   0.343E-02-0.152E-05
CGA:  50    -0.388777018448E+03   -0.15028E-03   -0.15028E-03  8528   0.172E-02-0.466E-05
CGA:  51    -0.388777067736E+03   -0.49288E-04   -0.49317E-04  8528   0.112E-02-0.165E-05
CGA:  52    -0.388777118872E+03   -0.51136E-04   -0.51051E-04  8528   0.232E-02 0.998E-05
CGA:  53    -0.388777203869E+03   -0.84996E-04   -0.84917E-04  8528   0.133E-02-0.742E-05
CGA:  54    -0.388777289525E+03   -0.85656E-04   -0.85691E-04  8528   0.236E-02-0.205E-05
CGA:  55    -0.388777341499E+03   -0.51974E-04   -0.49220E-04  8528   0.584E-03 0.732E-04
CGA:  56    -0.388777366898E+03   -0.25398E-04   -0.25388E-04  8528   0.103E-02 0.336E-05
CGA:  57    -0.388777405433E+03   -0.38535E-04   -0.38614E-04  8528   0.788E-03 0.119E-04
CGA:  58    -0.388777477874E+03   -0.72441E-04   -0.72673E-04  8528   0.992E-03-0.564E-05
CGA:  59    -0.388777496131E+03   -0.18256E-04   -0.18103E-04  8528   0.375E-03-0.885E-07
CGA:  60    -0.388777512691E+03   -0.16560E-04   -0.16560E-04  8528   0.592E-03-0.111E-05
CGA:  61    -0.388777538926E+03   -0.26236E-04   -0.26226E-04  8528   0.695E-03 0.751E-06
CGA:  62    -0.388777565875E+03   -0.26948E-04   -0.26954E-04  8528   0.646E-03-0.195E-06
CGA:  63    -0.388777595629E+03   -0.29754E-04   -0.29735E-04  8528   0.287E-03 0.153E-05
CGA:  64    -0.388777603802E+03   -0.81728E-05   -0.82155E-05  8528   0.325E-03 0.113E-05
CGA:  65    -0.388777618562E+03   -0.14760E-04   -0.14755E-04  8528   0.312E-03 0.126E-05
CGA:  66    -0.388777631193E+03   -0.12631E-04   -0.12634E-04  8528   0.500E-03 0.310E-05
CGA:  67    -0.388777652713E+03   -0.21520E-04   -0.21502E-04  8528   0.106E-03 0.978E-05
SDA:  68    -0.388777656359E+03   -0.36460E-05   -0.36612E-05  8528   0.187E-03 0.160E-05
   9 F= -.38877766E+03 E0= -.38875382E+03  d E =-.256274E+00  mag=     8.3029
       N       E                     dE             d eps       ncg     rms          ort
SDA:   1    -0.354338270816E+03    0.34439E+02    0.00000E+00  8528   0.245E+03 0.000E+00
CGA:   2    -0.358135246188E+03   -0.37970E+01   -0.42551E+01  8528   0.134E+03 0.111E+02
CGA:   3    -0.369307648390E+03   -0.11172E+02   -0.13038E+02  8528   0.724E+03-0.371E+02
CGA:   4    -0.376976741939E+03   -0.76691E+01   -0.78945E+01  8528   0.693E+03-0.639E+02
CGA:   5    -0.378383618431E+03   -0.14069E+01   -0.58953E+01  8528   0.277E+03-0.429E+03
CGA:   6    -0.381224079816E+03   -0.28405E+01   -0.25901E+01  8528   0.685E+02 0.141E+02
CGA:   7    -0.383204641016E+03   -0.19806E+01   -0.17991E+01  8528   0.665E+02 0.494E+01
CGA:   8    -0.384089682793E+03   -0.88504E+00   -0.72415E+00  8528   0.567E+02 0.100E+02
CGA:   9    -0.385373225109E+03   -0.12835E+01   -0.14518E+01  8528   0.122E+03-0.561E+00
CGA:  10    -0.386790888215E+03   -0.14177E+01   -0.14993E+01  8528   0.567E+02-0.619E+00
CGA:  11    -0.387410071799E+03   -0.61918E+00   -0.65039E+00  8528   0.310E+02-0.236E+01
CGA:  12    -0.387770880817E+03   -0.36081E+00   -0.32237E+00  8528   0.967E+01 0.369E+01
CGA:  13    -0.387868417190E+03   -0.97536E-01   -0.82105E-01  8528   0.497E+01 0.172E+01
CGA:  14    -0.387965462583E+03   -0.97045E-01   -0.91151E-01  8528   0.806E+01 0.186E+00
CGA:  15    -0.388063613842E+03   -0.98151E-01   -0.96651E-01  8528   0.105E+02 0.881E-01
CGA:  16    -0.388185706419E+03   -0.12209E+00   -0.11972E+00  8528   0.152E+02 0.156E+00
CGA:  17    -0.388375792548E+03   -0.19009E+00   -0.20246E+00  8528   0.203E+02-0.514E+00
CGA:  18    -0.388542400653E+03   -0.16661E+00   -0.16705E+00  8528   0.124E+02-0.127E+00
CGA:  19    -0.388646228501E+03   -0.10383E+00   -0.12496E+00  8528   0.912E+01-0.128E+01
CGA:  20    -0.388723236921E+03   -0.77008E-01   -0.89060E-01  8528   0.367E+01-0.556E+00
CGA:  21    -0.388757017184E+03   -0.33780E-01   -0.39792E-01  8528   0.168E+01-0.260E+00
CGA:  22    -0.388790499073E+03   -0.33482E-01   -0.33871E-01  8528   0.105E+01 0.814E-01
CGA:  23    -0.388829026202E+03   -0.38527E-01   -0.38430E-01  8528   0.229E+01 0.655E-02
CGA:  24    -0.388876685729E+03   -0.47660E-01   -0.47817E-01  8528   0.106E+01 0.155E-01
CGA:  25    -0.388908878756E+03   -0.32193E-01   -0.32116E-01  8528   0.117E+01 0.869E-02
CGA:  26    -0.388933384549E+03   -0.24506E-01   -0.24492E-01  8528   0.716E+00-0.132E-02
CGA:  27    -0.388947637725E+03   -0.14253E-01   -0.14276E-01  8528   0.297E+00 0.151E-02
CGA:  28    -0.388955433280E+03   -0.77956E-02   -0.77797E-02  8528   0.343E+00 0.433E-02
CGA:  29    -0.388963490504E+03   -0.80572E-02   -0.80578E-02  8528   0.205E+00 0.372E-03
CGA:  30    -0.388977673360E+03   -0.14183E-01   -0.13966E-01  8528   0.423E+00 0.540E-02
CGA:  31    -0.388984577537E+03   -0.69042E-02   -0.70220E-02  8528   0.143E+00-0.110E-02
CGA:  32    -0.388989998659E+03   -0.54211E-02   -0.54154E-02  8528   0.102E+00 0.330E-03
CGA:  33    -0.388993146986E+03   -0.31483E-02   -0.31495E-02  8528   0.937E-01-0.179E-03
CGA:  34    -0.388996744623E+03   -0.35976E-02   -0.35817E-02  8528   0.161E+00 0.105E-02
CGA:  35    -0.389001924034E+03   -0.51794E-02   -0.51872E-02  8528   0.887E-01-0.117E-02
SDA:  36    -0.389006942888E+03   -0.50189E-02   -0.49762E-02  8528   0.957E-01 0.140E-02
CGA:  37    -0.389008871859E+03   -0.19290E-02   -0.19369E-02  8528   0.653E-01-0.553E-06
CGA:  38    -0.389010932062E+03   -0.20602E-02   -0.20595E-02  8528   0.307E-01 0.123E-03
CGA:  39    -0.389011806416E+03   -0.87435E-03   -0.87436E-03  8528   0.169E-01 0.392E-04
CGA:  40    -0.389013066748E+03   -0.12603E-02   -0.12508E-02  8528   0.116E-01 0.227E-03
CGA:  41    -0.389014077920E+03   -0.10112E-02   -0.10102E-02  8528   0.306E-01 0.523E-05
CGA:  42    -0.389014587456E+03   -0.50954E-03   -0.50559E-03  8528   0.700E-02 0.134E-03
CGA:  43    -0.389015180862E+03   -0.59341E-03   -0.59149E-03  8528   0.645E-02 0.410E-04
CGA:  44    -0.389015584501E+03   -0.40364E-03   -0.40333E-03  8528   0.118E-01 0.954E-05
CGA:  45    -0.389016128507E+03   -0.54401E-03   -0.54401E-03  8528   0.675E-02-0.250E-05
CGA:  46    -0.389016367212E+03   -0.23870E-03   -0.23871E-03  8528   0.122E-01 0.708E-05
CGA:  47    -0.389016784890E+03   -0.41768E-03   -0.41772E-03  8528   0.380E-02 0.901E-05
CGA:  48    -0.389017172880E+03   -0.38799E-03   -0.38848E-03  8528   0.364E-02-0.107E-04
CGA:  49    -0.389017328720E+03   -0.15584E-03   -0.15580E-03  8528   0.683E-02 0.110E-04
CGA:  50    -0.389017524054E+03   -0.19533E-03   -0.19525E-03  8528   0.404E-02-0.114E-05
CGA:  51    -0.389017648222E+03   -0.12417E-03   -0.12425E-03  8528   0.269E-02-0.121E-05
CGA:  52    -0.389017785950E+03   -0.13773E-03   -0.13769E-03  8528   0.836E-03-0.922E-07
CGA:  53    -0.389017862611E+03   -0.76661E-04   -0.77572E-04  8528   0.331E-02-0.177E-04
CGA:  54    -0.389017921638E+03   -0.59026E-04   -0.58871E-04  8528   0.738E-03-0.113E-04
CGA:  55    -0.389018007253E+03   -0.85616E-04   -0.87046E-04  8528   0.119E-02-0.196E-04
CGA:  56    -0.389018025106E+03   -0.17853E-04   -0.17738E-04  8528   0.499E-03-0.991E-08
CGA:  57    -0.389018052816E+03   -0.27710E-04   -0.27680E-04  8528   0.113E-02 0.224E-05
CGA:  58    -0.389018113572E+03   -0.60755E-04   -0.60717E-04  8528   0.873E-03 0.329E-05
CGA:  59    -0.389018133017E+03   -0.19446E-04   -0.19405E-04  8528   0.803E-03-0.292E-06
CGA:  60    -0.389018157792E+03   -0.24775E-04   -0.24778E-04  8528   0.211E-03 0.114E-05
CGA:  61    -0.389018176970E+03   -0.19178E-04   -0.19095E-04  8528   0.996E-03 0.173E-05
CGA:  62    -0.389018199058E+03   -0.22088E-04   -0.22092E-04  8528   0.347E-03-0.868E-07
CGA:  63    -0.389018221181E+03   -0.22123E-04   -0.22079E-04  8528   0.298E-03 0.223E-05
CGA:  64    -0.389018228949E+03   -0.77679E-05   -0.78151E-05  8528   0.284E-03 0.224E-05
CGA:  65    -0.389018239178E+03   -0.10229E-04   -0.10245E-04  8528   0.347E-03 0.175E-05
CGA:  66    -0.389018249697E+03   -0.10519E-04   -0.10546E-04  8528   0.100E-03 0.187E-05
SDA:  67    -0.389018262118E+03   -0.12421E-04   -0.12188E-04  8528   0.483E-03 0.294E-05
CGA:  68    -0.389018266996E+03   -0.48780E-05   -0.48416E-05  8528   0.355E-04 0.619E-06
  10 F= -.38901827E+03 E0= -.38899913E+03  d E =-.240611E+00  mag=     8.0359
       N       E                     dE             d eps       ncg     rms          ort
SDA:   1    -0.369874060273E+03    0.19144E+02    0.00000E+00  8528   0.993E+02 0.000E+00
CGA:   2    -0.372180616724E+03   -0.23066E+01   -0.20857E+01  8528   0.106E+03-0.193E+02
CGA:   3    -0.380102677103E+03   -0.79221E+01   -0.67965E+01  8528   0.202E+03 0.257E+02
CGA:   4    -0.382562151682E+03   -0.24595E+01   -0.27919E+01  8528   0.102E+03-0.648E+02
CGA:   5    -0.384724616773E+03   -0.21625E+01   -0.23273E+01  8528   0.822E+02 0.215E+01
CGA:   6    -0.385652423810E+03   -0.92781E+00   -0.10327E+01  8528   0.426E+02-0.665E+01
CGA:   7    -0.386452149912E+03   -0.79973E+00   -0.10622E+01  8528   0.363E+02-0.195E+01
CGA:   8    -0.387294156312E+03   -0.84201E+00   -0.80842E+00  8528   0.287E+02 0.641E+00
CGA:   9    -0.387870005494E+03   -0.57585E+00   -0.40489E+00  8528   0.589E+01 0.848E+01
CGA:  10    -0.388090050749E+03   -0.22005E+00   -0.21326E+00  8528   0.177E+02-0.115E-01
CGA:  11    -0.388477389916E+03   -0.38734E+00   -0.40721E+00  8528   0.211E+02-0.163E+00
CGA:  12    -0.388610577297E+03   -0.13319E+00   -0.14737E+00  8528   0.387E+01-0.226E+01
CGA:  13    -0.388677202330E+03   -0.66625E-01   -0.72804E-01  8528   0.609E+01-0.116E+00
CGA:  14    -0.388750487334E+03   -0.73285E-01   -0.67913E-01  8528   0.258E+01 0.322E+00
CGA:  15    -0.388792936243E+03   -0.42449E-01   -0.38726E-01  8528   0.241E+01 0.174E+00
CGA:  16    -0.388824286190E+03   -0.31350E-01   -0.31307E-01  8528   0.136E+01 0.210E-02
CGA:  17    -0.388849286961E+03   -0.25001E-01   -0.24905E-01  8528   0.268E+01 0.176E-02
CGA:  18    -0.388892949083E+03   -0.43662E-01   -0.42756E-01  8528   0.126E+01 0.261E-01
CGA:  19    -0.388905121185E+03   -0.12172E-01   -0.12647E-01  8528   0.108E+01-0.409E-01
CGA:  20    -0.388948184964E+03   -0.43064E-01   -0.42107E-01  8528   0.242E+01 0.777E-01
CGA:  21    -0.388969084880E+03   -0.20900E-01   -0.20139E-01  8528   0.247E+00 0.775E-01
CGA:  22    -0.388975258218E+03   -0.61733E-02   -0.61663E-02  8528   0.551E+00-0.250E-03
CGA:  23    -0.388984852344E+03   -0.95941E-02   -0.91597E-02  8528   0.290E+00 0.153E-01
CGA:  24    -0.388988757913E+03   -0.39056E-02   -0.38846E-02  8528   0.249E+00 0.154E-02
CGA:  25    -0.388992633574E+03   -0.38757E-02   -0.38794E-02  8528   0.195E+00 0.119E-03
CGA:  26    -0.388996833791E+03   -0.42002E-02   -0.41561E-02  8528   0.401E+00-0.990E-03
CGA:  27    -0.389003122897E+03   -0.62891E-02   -0.59773E-02  8528   0.260E+00 0.976E-02
CGA:  28    -0.389005511973E+03   -0.23891E-02   -0.23753E-02  8528   0.171E+00 0.973E-03
CGA:  29    -0.389009614923E+03   -0.41030E-02   -0.41107E-02  8528   0.366E+00 0.131E-02
CGA:  30    -0.389013283802E+03   -0.36689E-02   -0.35783E-02  8528   0.121E+00 0.775E-02
CGA:  31    -0.389014684211E+03   -0.14004E-02   -0.14202E-02  8528   0.110E+00-0.986E-03
SDA:  32    -0.389016277104E+03   -0.15929E-02   -0.16023E-02  8528   0.944E-01-0.206E-03
CGA:  33    -0.389018056338E+03   -0.17792E-02   -0.17680E-02  8528   0.588E-01-0.443E-03
CGA:  34    -0.389019151514E+03   -0.10952E-02   -0.10948E-02  8528   0.521E-01-0.166E-04
CGA:  35    -0.389021363395E+03   -0.22119E-02   -0.22183E-02  8528   0.368E-01-0.323E-03
CGA:  36    -0.389024477271E+03   -0.31139E-02   -0.30495E-02  8528   0.260E-01 0.130E-02
CGA:  37    -0.389026387941E+03   -0.19107E-02   -0.19008E-02  8528   0.751E-01 0.351E-03
CGA:  38    -0.389027353330E+03   -0.96539E-03   -0.92965E-03  8528   0.190E-01 0.267E-02
CGA:  39    -0.389027986667E+03   -0.63334E-03   -0.31413E-03  8528   0.511E+00-0.323E-01
CGA:  40    -0.389032089483E+03   -0.41028E-02   -0.42257E-02  8528   0.622E-01-0.136E-01
CGA:  41    -0.389034616289E+03   -0.25268E-02   -0.25234E-02  8528   0.183E-01-0.116E-03
CGA:  42    -0.389035065558E+03   -0.44927E-03   -0.45150E-03  8528   0.315E-01-0.351E-04
CGA:  43    -0.389036164990E+03   -0.10994E-02   -0.11016E-02  8528   0.166E-01 0.260E-04
CGA:  44    -0.389036851333E+03   -0.68634E-03   -0.68562E-03  8528   0.233E-01-0.260E-04
CGA:  45    -0.389037912604E+03   -0.10613E-02   -0.10650E-02  8528   0.497E-01 0.959E-03
CGA:  46    -0.389038728438E+03   -0.81583E-03   -0.76954E-03  8528   0.943E-02 0.246E-02
CGA:  47    -0.389039229160E+03   -0.50072E-03   -0.49923E-03  8528   0.114E-01 0.195E-03
CGA:  48    -0.389039489794E+03   -0.26063E-03   -0.25692E-03  8528   0.137E-01 0.948E-04
CGA:  49    -0.389040278516E+03   -0.78872E-03   -0.77587E-03  8528   0.199E-01 0.771E-03
CGA:  50    -0.389040982606E+03   -0.70409E-03   -0.70197E-03  8528   0.834E-02 0.238E-04
CGA:  51    -0.389041844833E+03   -0.86223E-03   -0.79051E-03  8528   0.238E-01 0.139E-02
CGA:  52    -0.389042271958E+03   -0.42713E-03   -0.41071E-03  8528   0.726E-02 0.841E-03
CGA:  53    -0.389042688773E+03   -0.41682E-03   -0.41164E-03  8528   0.470E-02 0.383E-03
CGA:  54    -0.389042820228E+03   -0.13145E-03   -0.13101E-03  8528   0.588E-02 0.183E-04
CGA:  55    -0.389043163560E+03   -0.34333E-03   -0.33782E-03  8528   0.822E-02 0.323E-03
CGA:  56    -0.389043424627E+03   -0.26107E-03   -0.25910E-03  8528   0.191E-02 0.216E-04
CGA:  57    -0.389043490137E+03   -0.65509E-04   -0.65779E-04  8528   0.203E-02 0.585E-05
CGA:  58    -0.389043538423E+03   -0.48286E-04   -0.48274E-04  8528   0.112E-02 0.460E-05
CGA:  59    -0.389043666492E+03   -0.12807E-03   -0.12313E-03  8528   0.280E-02 0.786E-04
CGA:  60    -0.389043785753E+03   -0.11926E-03   -0.11859E-03  8528   0.170E-02-0.263E-04
CGA:  61    -0.389043832366E+03   -0.46612E-04   -0.47864E-04  8528   0.144E-02-0.875E-05
CGA:  62    -0.389043871824E+03   -0.39458E-04   -0.39443E-04  8528   0.596E-03 0.220E-05
CGA:  63    -0.389043914558E+03   -0.42734E-04   -0.42488E-04  8528   0.983E-03 0.772E-05
CGA:  64    -0.389043961903E+03   -0.47346E-04   -0.47361E-04  8528   0.974E-03-0.355E-05
CGA:  65    -0.389043989711E+03   -0.27807E-04   -0.28146E-04  8528   0.929E-03-0.330E-06
CGA:  66    -0.389044031287E+03   -0.41576E-04   -0.41575E-04  8528   0.483E-03 0.253E-05
CGA:  67    -0.389044047902E+03   -0.16615E-04   -0.16644E-04  8528   0.227E-03 0.149E-06
CGA:  68    -0.389044058651E+03   -0.10749E-04   -0.10745E-04  8528   0.336E-03 0.857E-06
CGA:  69    -0.389044068830E+03   -0.10179E-04   -0.10167E-04  8528   0.240E-03-0.203E-05
SDA:  70    -0.389044080260E+03   -0.11430E-04   -0.11438E-04  8528   0.188E-03-0.204E-05
CGA:  71    -0.389044083779E+03   -0.35187E-05   -0.35147E-05  8528   0.605E-04-0.104E-06
  11 F= -.38904408E+03 E0= -.38902550E+03  d E =-.258168E-01  mag=     8.0245
       N       E                     dE             d eps       ncg     rms          ort
SDA:   1    -0.385791371234E+03    0.32527E+01    0.00000E+00  8528   0.870E+01 0.000E+00
CGA:   2    -0.387112947573E+03   -0.13216E+01   -0.15933E+01  8528   0.859E+02-0.273E+01
CGA:   3    -0.387785490280E+03   -0.67254E+00   -0.74765E+00  8528   0.462E+02-0.397E+01
[...]
CGA:   9    -0.389797142643E+03   -0.10917E+00   -0.11458E+00  8528   0.205E+02-0.532E+00
CGA:  10    -0.390043382579E+03   -0.24624E+00   -0.20688E+00  8528   0.897E+01 0.273E+01
CGA:  11    -0.390106459079E+03   -0.63077E-01   -0.53307E-01  8528   0.226E+01 0.145E+01
CGA:  12    -0.390127062927E+03   -0.20604E-01   -0.18768E-01  8528   0.205E+01 0.211E+00
CGA:  13    -0.390161581611E+03   -0.34519E-01   -0.33379E-01  8528   0.559E+01 0.358E-01
CGA:  14    -0.390210650884E+03   -0.49069E-01   -0.42179E-01  8528   0.564E+01 0.793E+00
CGA:  15    -0.390244312921E+03   -0.33662E-01   -0.33026E-01  8528   0.266E+01 0.924E-01
CGA:  16    -0.390261810882E+03   -0.17498E-01   -0.19460E-01  8528   0.299E+01-0.224E+00
CGA:  17    -0.390289426797E+03   -0.27616E-01   -0.29008E-01  8528   0.505E+01-0.838E-01
CGA:  18    -0.390327257453E+03   -0.37831E-01   -0.41692E-01  8528   0.334E+01-0.333E+00
CGA:  19    -0.390344896039E+03   -0.17639E-01   -0.17314E-01  8528   0.133E+01 0.451E-01
CGA:  20    -0.390353769394E+03   -0.88734E-02   -0.83302E-02  8528   0.935E+00 0.704E-01
CGA:  21    -0.390361795681E+03   -0.80263E-02   -0.77933E-02  8528   0.787E+00 0.206E-01
CGA:  22    -0.390366397085E+03   -0.46014E-02   -0.43017E-02  8528   0.350E+00 0.464E-01
CGA:  23    -0.390368392134E+03   -0.19950E-02   -0.19651E-02  8528   0.219E+00 0.458E-02
CGA:  24    -0.390370590436E+03   -0.21983E-02   -0.22124E-02  8528   0.449E+00-0.740E-03
CGA:  25    -0.390376526998E+03   -0.59366E-02   -0.59717E-02  8528   0.104E+01 0.377E-03
CGA:  26    -0.390384469647E+03   -0.79426E-02   -0.81770E-02  8528   0.721E+00-0.184E-01
CGA:  27    -0.390388346898E+03   -0.38773E-02   -0.38703E-02  8528   0.354E+00 0.105E-02
CGA:  28    -0.390391021112E+03   -0.26742E-02   -0.26306E-02  8528   0.386E+00 0.373E-02
CGA:  29    -0.390394684722E+03   -0.36636E-02   -0.36228E-02  8528   0.476E+00 0.184E-02
CGA:  30    -0.390397676684E+03   -0.29920E-02   -0.29276E-02  8528   0.282E+00 0.759E-02
CGA:  31    -0.390399309568E+03   -0.16329E-02   -0.16303E-02  8528   0.193E+00 0.370E-03
SDA:  32    -0.390400783692E+03   -0.14741E-02   -0.14829E-02  8528   0.211E+00-0.596E-03
CGA:  33    -0.390403265159E+03   -0.24815E-02   -0.24830E-02  8528   0.673E-01 0.652E-04
CGA:  34    -0.390405484742E+03   -0.22196E-02   -0.22019E-02  8528   0.545E-01 0.105E-02
CGA:  35    -0.390408747783E+03   -0.32630E-02   -0.32562E-02  8528   0.322E-01 0.206E-03
CGA:  36    -0.390410496606E+03   -0.17488E-02   -0.17580E-02  8528   0.314E-01-0.286E-03
CGA:  37    -0.390411061315E+03   -0.56471E-03   -0.56469E-03  8528   0.225E-01-0.227E-04
CGA:  38    -0.390411750704E+03   -0.68939E-03   -0.68832E-03  8528   0.111E-01 0.787E-04
CGA:  39    -0.390412296082E+03   -0.54538E-03   -0.54657E-03  8528   0.581E-02-0.478E-04
CGA:  40    -0.390412893380E+03   -0.59730E-03   -0.29066E-06  8528   0.386E-01-0.157E-02
CGA:  41    -0.390413174186E+03   -0.28081E-03   -0.28039E-03  8528   0.945E-02 0.468E-04
CGA:  42    -0.390413276418E+03   -0.10223E-03   -0.10202E-03  8528   0.775E-02 0.137E-04
CGA:  43    -0.390413459593E+03   -0.18318E-03   -0.18328E-03  8528   0.933E-02-0.301E-06
CGA:  44    -0.390413545388E+03   -0.85795E-04   -0.86049E-04  8528   0.302E-02-0.145E-04
CGA:  45    -0.390413593149E+03   -0.47761E-04   -0.47887E-04  8528   0.359E-02 0.147E-05
CGA:  46    -0.390413649420E+03   -0.56270E-04   -0.56315E-04  8528   0.339E-02 0.473E-05
CGA:  47    -0.390413728120E+03   -0.78701E-04   -0.78729E-04  8528   0.835E-02 0.253E-05
CGA:  48    -0.390413902601E+03   -0.17448E-03   -0.17466E-03  8528   0.598E-02 0.102E-04
CGA:  49    -0.390413948943E+03   -0.46342E-04   -0.46598E-04  8528   0.154E-02-0.168E-04
CGA:  50    -0.390413981812E+03   -0.32869E-04   -0.32878E-04  8528   0.340E-02-0.122E-05
CGA:  51    -0.390414047112E+03   -0.65300E-04   -0.65302E-04  8528   0.220E-02-0.488E-05
CGA:  52    -0.390414069084E+03   -0.21972E-04   -0.21908E-04  8528   0.137E-02-0.137E-05
CGA:  53    -0.390414112764E+03   -0.43679E-04   -0.43695E-04  8528   0.361E-02-0.531E-05
CGA:  54    -0.390414158820E+03   -0.46056E-04   -0.46013E-04  8528   0.168E-02-0.465E-05
CGA:  55    -0.390414187640E+03   -0.28820E-04   -0.28786E-04  8528   0.273E-02-0.215E-05
CGA:  56    -0.390414251089E+03   -0.63449E-04   -0.63411E-04  8528   0.299E-02-0.723E-05
CGA:  57    -0.390414284166E+03   -0.33078E-04   -0.32970E-04  8528   0.187E-02-0.515E-06
CGA:  58    -0.390414318531E+03   -0.34364E-04   -0.34394E-04  8528   0.161E-02-0.102E-05
CGA:  59    -0.390414332821E+03   -0.14290E-04   -0.14325E-04  8528   0.438E-03-0.132E-05
CGA:  60    -0.390414341535E+03   -0.87143E-05   -0.87220E-05  8528   0.101E-02 0.821E-06
CGA:  61    -0.390414375273E+03   -0.33738E-04   -0.33715E-04  8528   0.164E-02 0.220E-05
CGA:  62    -0.390414390007E+03   -0.14734E-04   -0.14732E-04  8528   0.550E-03 0.152E-05
SDA:  63    -0.390414402803E+03   -0.12796E-04   -0.12799E-04  8528   0.132E-02 0.964E-06
CGA:  64    -0.390414416186E+03   -0.13384E-04   -0.13415E-04  8528   0.294E-03-0.106E-05
CGA:  65    -0.390414431094E+03   -0.14908E-04   -0.14860E-04  8528   0.110E-03 0.136E-05
CGA:  66    -0.390414440541E+03   -0.94467E-05   -0.94307E-05  8528   0.236E-03-0.491E-07
CGA:  67    -0.390414452052E+03   -0.11511E-04   -0.11505E-04  8528   0.279E-03 0.769E-07
CGA:  68    -0.390414456290E+03   -0.42380E-05   -0.42370E-05  8528   0.128E-03-0.265E-06
 145 F= -.39041446E+03 E0= -.39039271E+03  d E =0.158224E-01  mag=     8.4073
       N       E                     dE             d eps       ncg     rms          ort
SDA:   1    -0.388418490733E+03    0.19960E+01    0.00000E+00  8528   0.546E+01 0.000E+00
CGA:   2    -0.388940664139E+03   -0.52217E+00   -0.53621E+00  8528   0.439E+02-0.209E+00
CGA:   3    -0.389810694182E+03   -0.87003E+00   -0.82200E+00  8528   0.698E+01 0.122E+01
CGA:   4    -0.389918339824E+03   -0.10765E+00   -0.11304E+00  8528   0.575E+01-0.181E+00
CGA:   5    -0.390088706437E+03   -0.17037E+00   -0.17103E+00  8528   0.339E+01 0.358E+00
CGA:   6    -0.390243212937E+03   -0.15451E+00   -0.15007E+00  8528   0.193E+01 0.321E+00
CGA:   7    -0.390283685765E+03   -0.40473E-01   -0.41584E-01  8528   0.199E+01-0.137E-01
CGA:   8    -0.390347119885E+03   -0.63434E-01   -0.63487E-01  8528   0.786E+00-0.363E-01
CGA:   9    -0.390368973912E+03   -0.21854E-01   -0.21830E-01  8528   0.404E+00-0.313E-02
CGA:  10    -0.390374826620E+03   -0.58527E-02   -0.59560E-02  8528   0.240E+00-0.387E-02
CGA:  11    -0.390387075439E+03   -0.12249E-01   -0.12204E-01  8528   0.197E+00 0.199E-02
CGA:  12    -0.390395308195E+03   -0.82328E-02   -0.82746E-02  8528   0.168E+00-0.304E-02
CGA:  13    -0.390397582793E+03   -0.22746E-02   -0.22864E-02  8528   0.756E-01-0.530E-03
CGA:  14    -0.390400645454E+03   -0.30627E-02   -0.30605E-02  8528   0.308E-01 0.163E-03
CGA:  15    -0.390401811129E+03   -0.11657E-02   -0.11676E-02  8528   0.469E-01-0.206E-03
CGA:  16    -0.390402639064E+03   -0.82794E-03   -0.82730E-03  8528   0.267E-01 0.120E-04
CGA:  17    -0.390404000516E+03   -0.13615E-02   -0.13598E-02  8528   0.152E-01 0.737E-04
CGA:  18    -0.390404387123E+03   -0.38661E-03   -0.38645E-03  8528   0.142E-01-0.266E-06
CGA:  19    -0.390404632745E+03   -0.24562E-03   -0.24582E-03  8528   0.671E-02 0.857E-05
CGA:  20    -0.390405053748E+03   -0.42100E-03   -0.42130E-03  8528   0.707E-02-0.957E-05
CGA:  21    -0.390405249449E+03   -0.19570E-03   -0.19581E-03  8528   0.968E-02 0.149E-04
CGA:  22    -0.390405447899E+03   -0.19845E-03   -0.19896E-03  8528   0.379E-02 0.146E-04
CGA:  23    -0.390405699823E+03   -0.25192E-03   -0.25177E-03  8528   0.398E-02 0.431E-05
CGA:  24    -0.390405777121E+03   -0.77298E-04   -0.77324E-04  8528   0.377E-02 0.514E-05
CGA:  25    -0.390405888978E+03   -0.11186E-03   -0.11192E-03  8528   0.221E-02 0.136E-04
CGA:  26    -0.390406061199E+03   -0.17222E-03   -0.17206E-03  8528   0.445E-02 0.328E-05
CGA:  27    -0.390406144354E+03   -0.83155E-04   -0.83044E-04  8528   0.336E-02 0.425E-05
CGA:  28    -0.390406231483E+03   -0.87129E-04   -0.87198E-04  8528   0.123E-02 0.569E-05
CGA:  29    -0.390406300590E+03   -0.69108E-04   -0.69038E-04  8528   0.181E-02 0.283E-05
CGA:  30    -0.390406334824E+03   -0.34233E-04   -0.34195E-04  8528   0.159E-02-0.666E-06
CGA:  31    -0.390406392512E+03   -0.57688E-04   -0.57694E-04  8528   0.782E-03-0.155E-05
SDA:  32    -0.390406432650E+03   -0.40139E-04   -0.40157E-04  8528   0.120E-02-0.130E-05
CGA:  33    -0.390406444274E+03   -0.11624E-04   -0.11584E-04  8528   0.218E-03 0.194E-05
CGA:  34    -0.390406461700E+03   -0.17426E-04   -0.17419E-04  8528   0.537E-03 0.161E-06
CGA:  35    -0.390406494215E+03   -0.32514E-04   -0.32536E-04  8528   0.275E-03-0.917E-06
CGA:  36    -0.390406504117E+03   -0.99026E-05   -0.99017E-05  8528   0.516E-03-0.621E-06
CGA:  37    -0.390406515815E+03   -0.11698E-04   -0.11692E-04  8528   0.272E-03-0.582E-06
CGA:  38    -0.390406526827E+03   -0.11012E-04   -0.11023E-04  8528   0.135E-03-0.270E-05
CGA:  39    -0.390406536287E+03   -0.94604E-05   -0.95113E-05  8528   0.130E-03-0.149E-05
 146 F= -.39040654E+03 E0= -.39038482E+03  d E =0.792000E-02  mag=     8.3981
       N       E                     dE             d eps       ncg     rms          ort
SDA:   1    -0.389889179746E+03    0.51735E+00    0.00000E+00  8528   0.138E+02 0.000E+00
CGA:   2    -0.389997622991E+03   -0.10844E+00   -0.15388E+00  8528   0.311E+01-0.344E+01
CGA:   3    -0.390087865694E+03   -0.90243E-01   -0.90357E-01  8528   0.377E+01-0.501E-01
CGA:   4    -0.390194436635E+03   -0.10657E+00   -0.10795E+00  8528   0.298E+01 0.325E-01
CGA:   5    -0.390270067916E+03   -0.75631E-01   -0.73878E-01  8528   0.159E+01-0.369E-02
CGA:   6    -0.390310821665E+03   -0.40754E-01   -0.41257E-01  8528   0.112E+01 0.386E-02
CGA:   7    -0.390342011542E+03   -0.31190E-01   -0.30958E-01  8528   0.828E+00-0.574E-02
CGA:   8    -0.390365473601E+03   -0.23462E-01   -0.23568E-01  8528   0.641E+00 0.387E-02
CGA:   9    -0.390381926753E+03   -0.16453E-01   -0.16322E-01  8528   0.365E+00-0.163E-02
CGA:  10    -0.390390861689E+03   -0.89349E-02   -0.89915E-02  8528   0.228E+00 0.537E-03
CGA:  11    -0.390397031239E+03   -0.61696E-02   -0.61524E-02  8528   0.158E+00-0.541E-03
CGA:  12    -0.390401139212E+03   -0.41080E-02   -0.41177E-02  8528   0.100E+00 0.275E-03
CGA:  13    -0.390403619191E+03   -0.24800E-02   -0.24721E-02  8528   0.574E-01-0.125E-03
CGA:  14    -0.390405108853E+03   -0.14897E-02   -0.14921E-02  8528   0.409E-01 0.885E-04
CGA:  15    -0.390406275763E+03   -0.11669E-02   -0.11663E-02  8528   0.304E-01-0.543E-04
CGA:  16    -0.390407056521E+03   -0.78076E-03   -0.78164E-03  8528   0.196E-01 0.360E-04
CGA:  17    -0.390407587174E+03   -0.53065E-03   -0.53027E-03  8528   0.141E-01-0.236E-04
CGA:  18    -0.390407968555E+03   -0.38138E-03   -0.38161E-03  8528   0.100E-01 0.206E-04
CGA:  19    -0.390408245257E+03   -0.27670E-03   -0.27664E-03  8528   0.752E-02-0.439E-05
CGA:  20    -0.390408462006E+03   -0.21675E-03   -0.21682E-03  8528   0.644E-02 0.158E-04
CGA:  21    -0.390408658680E+03   -0.19667E-03   -0.19667E-03  8528   0.536E-02-0.178E-05
CGA:  22    -0.390408796475E+03   -0.13780E-03   -0.13789E-03  8528   0.344E-02 0.108E-04
CGA:  23    -0.390408897007E+03   -0.10053E-03   -0.10053E-03  8528   0.317E-02 0.197E-05
CGA:  24    -0.390409000489E+03   -0.10348E-03   -0.10346E-03  8528   0.314E-02 0.106E-04
CGA:  25    -0.390409092572E+03   -0.92083E-04   -0.92083E-04  8528   0.245E-02 0.190E-05
CGA:  26    -0.390409158313E+03   -0.65741E-04   -0.65771E-04  8528   0.182E-02 0.550E-05
CGA:  27    -0.390409216522E+03   -0.58208E-04   -0.58209E-04  8528   0.189E-02 0.193E-06
CGA:  28    -0.390409274675E+03   -0.58154E-04   -0.58153E-04  8528   0.160E-02 0.448E-05
CGA:  29    -0.390409319866E+03   -0.45191E-04   -0.45189E-04  8528   0.125E-02 0.367E-06
CGA:  30    -0.390409355362E+03   -0.35496E-04   -0.35504E-04  8528   0.980E-03 0.329E-05
CGA:  31    -0.390409384805E+03   -0.29443E-04   -0.29443E-04  8528   0.885E-03 0.409E-06
SDA:  32    -0.390409410681E+03   -0.25875E-04   -0.25879E-04  8528   0.679E-03 0.246E-05
CGA:  33    -0.390409417310E+03   -0.66289E-05   -0.66125E-05  8528   0.139E-03 0.101E-06
 147 F= -.39040942E+03 E0= -.39038778E+03  d E =-.288102E-02  mag=     8.3845
       N       E                     dE             d eps       ncg     rms          ort
SDA:   1    -0.389867519382E+03    0.54189E+00    0.00000E+00  8528   0.634E+01 0.000E+00
CGA:   2    -0.389987004758E+03   -0.11949E+00   -0.12841E+00  8528   0.219E+01-0.321E+00
CGA:   3    -0.390036922153E+03   -0.49917E-01   -0.48565E-01  8528   0.332E+01 0.282E-01
CGA:   4    -0.390279934340E+03   -0.24301E+00   -0.24098E+00  8528   0.163E+01 0.770E-01
CGA:   5    -0.390341770976E+03   -0.61837E-01   -0.60228E-01  8528   0.586E+00-0.528E-02
CGA:   6    -0.390367090860E+03   -0.25320E-01   -0.25189E-01  8528   0.604E+00-0.555E-02
CGA:   7    -0.390380535782E+03   -0.13445E-01   -0.13811E-01  8528   0.734E+00-0.945E-02
CGA:   8    -0.390408199710E+03   -0.27664E-01   -0.27650E-01  8528   0.101E+00-0.347E-03
CGA:   9    -0.390412203573E+03   -0.40039E-02   -0.40024E-02  8528   0.716E-01-0.633E-04
CGA:  10    -0.390414375695E+03   -0.21721E-02   -0.21636E-02  8528   0.821E-01 0.386E-04
CGA:  11    -0.390415845329E+03   -0.14696E-02   -0.14751E-02  8528   0.293E-01-0.200E-03
CGA:  12    -0.390418287982E+03   -0.24427E-02   -0.24390E-02  8528   0.179E-01 0.927E-04
CGA:  13    -0.390418825210E+03   -0.53723E-03   -0.53701E-03  8528   0.143E-01 0.720E-05
CGA:  14    -0.390419096531E+03   -0.27132E-03   -0.27018E-03  8528   0.972E-02 0.382E-04
CGA:  15    -0.390419432563E+03   -0.33603E-03   -0.33608E-03  8528   0.285E-02-0.332E-06
CGA:  16    -0.390419668965E+03   -0.23640E-03   -0.23621E-03  8528   0.459E-02 0.485E-05
CGA:  17    -0.390419807812E+03   -0.13885E-03   -0.13894E-03  8528   0.602E-02-0.890E-06
CGA:  18    -0.390419931475E+03   -0.12366E-03   -0.12342E-03  8528   0.217E-02 0.241E-05
CGA:  19    -0.390420011629E+03   -0.80154E-04   -0.80140E-04  8528   0.678E-03 0.507E-08
CGA:  20    -0.390420093127E+03   -0.81498E-04   -0.81730E-04  8528   0.269E-02-0.294E-05
CGA:  21    -0.390420145248E+03   -0.52121E-04   -0.52161E-04  8528   0.178E-02-0.150E-05
CGA:  22    -0.390420193342E+03   -0.48094E-04   -0.48070E-04  8528   0.786E-03 0.133E-05
CGA:  23    -0.390420247663E+03   -0.54321E-04   -0.54271E-04  8528   0.427E-03 0.203E-05
CGA:  24    -0.390420275605E+03   -0.27942E-04   -0.27936E-04  8528   0.115E-02 0.369E-06
CGA:  25    -0.390420300574E+03   -0.24969E-04   -0.24994E-04  8528   0.885E-03 0.176E-06
CGA:  26    -0.390420327867E+03   -0.27294E-04   -0.27278E-04  8528   0.339E-03-0.126E-05
CGA:  27    -0.390420350951E+03   -0.23084E-04   -0.23082E-04  8528   0.186E-03 0.938E-07
CGA:  28    -0.390420358971E+03   -0.80200E-05   -0.80183E-05  8528   0.295E-03-0.648E-06
 148 F= -.39042036E+03 E0= -.39039863E+03  d E =-.109417E-01  mag=     8.3922
       N       E                     dE             d eps       ncg     rms          ort
SDA:   1    -0.389893288129E+03    0.52706E+00    0.00000E+00  8528   0.361E+01 0.000E+00
CGA:   2    -0.389945723184E+03   -0.52435E-01   -0.60905E-01  8528   0.319E+01-0.382E+00
CGA:   3    -0.390096025988E+03   -0.15030E+00   -0.15027E+00  8528   0.465E+01 0.309E-02
CGA:   4    -0.390280291664E+03   -0.18427E+00   -0.18416E+00  8528   0.951E+00-0.795E-02
CGA:   5    -0.390314337298E+03   -0.34046E-01   -0.33839E-01  8528   0.183E+01-0.670E-02
CGA:   6    -0.390356440467E+03   -0.42103E-01   -0.42738E-01  8528   0.936E+00-0.139E-01
CGA:   7    -0.390394114587E+03   -0.37674E-01   -0.37683E-01  8528   0.402E+00 0.183E-02
CGA:   8    -0.390411832149E+03   -0.17718E-01   -0.17706E-01  8528   0.112E+00 0.423E-02
CGA:   9    -0.390417689737E+03   -0.58576E-02   -0.58739E-02  8528   0.835E-01-0.118E-02
CGA:  10    -0.390420719096E+03   -0.30294E-02   -0.30265E-02  8528   0.886E-01-0.155E-03
CGA:  11    -0.390422248539E+03   -0.15294E-02   -0.15480E-02  8528   0.546E-01-0.711E-03
CGA:  12    -0.390424975497E+03   -0.27270E-02   -0.27273E-02  8528   0.196E-01-0.204E-04
CGA:  13    -0.390425873125E+03   -0.89763E-03   -0.89741E-03  8528   0.149E-01 0.319E-04
CGA:  14    -0.390426256849E+03   -0.38372E-03   -0.38328E-03  8528   0.140E-01 0.652E-05
CGA:  15    -0.390426509261E+03   -0.25241E-03   -0.25237E-03  8528   0.490E-02 0.102E-04
CGA:  16    -0.390427062569E+03   -0.55331E-03   -0.55333E-03  8528   0.602E-02 0.751E-06
CGA:  17    -0.390427244508E+03   -0.18194E-03   -0.18207E-03  8528   0.240E-02 0.207E-05
CGA:  18    -0.390427296722E+03   -0.52215E-04   -0.52152E-04  8528   0.284E-02-0.472E-06
CGA:  19    -0.390427410979E+03   -0.11426E-03   -0.11426E-03  8528   0.145E-02-0.101E-05
CGA:  20    -0.390427502894E+03   -0.91915E-04   -0.91906E-04  8528   0.159E-02 0.223E-07
CGA:  21    -0.390427585208E+03   -0.82313E-04   -0.82315E-04  8528   0.163E-02-0.153E-05
CGA:  22    -0.390427616270E+03   -0.31063E-04   -0.31004E-04  8528   0.132E-02-0.962E-06
CGA:  23    -0.390427657309E+03   -0.41038E-04   -0.41023E-04  8528   0.383E-03-0.217E-06
CGA:  24    -0.390427689436E+03   -0.32127E-04   -0.32111E-04  8528   0.826E-03 0.274E-06
CGA:  25    -0.390427734345E+03   -0.44909E-04   -0.44867E-04  8528   0.678E-03 0.385E-05
CGA:  26    -0.390427743001E+03   -0.86554E-05   -0.86453E-05  8528   0.230E-03 0.673E-06
CGA:  27    -0.390427757381E+03   -0.14380E-04   -0.14394E-04  8528   0.237E-03-0.786E-06
CGA:  28    -0.390427767793E+03   -0.10412E-04   -0.10412E-04  8528   0.146E-03 0.536E-06
CGA:  29    -0.390427774037E+03   -0.62437E-05   -0.62449E-05  8528   0.342E-03 0.710E-06
 149 F= -.39042777E+03 E0= -.39040605E+03  d E =-.741507E-02  mag=     8.3881
       N       E                     dE             d eps       ncg     rms          ort
SDA:   1    -0.390347232896E+03    0.80535E-01    0.00000E+00  8528   0.587E+00 0.000E+00
CGA:   2    -0.390358544817E+03   -0.11312E-01   -0.11386E-01  8528   0.451E+00-0.230E-02
CGA:   3    -0.390371613731E+03   -0.13069E-01   -0.13247E-01  8528   0.548E+00 0.128E-02
CGA:   4    -0.390402919186E+03   -0.31305E-01   -0.31361E-01  8528   0.237E+00-0.268E-02
CGA:   5    -0.390412039795E+03   -0.91206E-02   -0.91074E-02  8528   0.226E+00-0.187E-02
CGA:   6    -0.390415221214E+03   -0.31814E-02   -0.31320E-02  8528   0.762E-01 0.261E-02
CGA:   7    -0.390421401475E+03   -0.61803E-02   -0.61520E-02  8528   0.833E-01 0.708E-03
CGA:   8    -0.390424602300E+03   -0.32008E-02   -0.31968E-02  8528   0.218E-01-0.377E-03
CGA:   9    -0.390425480326E+03   -0.87803E-03   -0.87805E-03  8528   0.349E-01 0.164E-04
CGA:  10    -0.390426006077E+03   -0.52575E-03   -0.52667E-03  8528   0.581E-02-0.402E-04
CGA:  11    -0.390426422845E+03   -0.41677E-03   -0.41666E-03  8528   0.847E-02 0.262E-05
CGA:  12    -0.390426741066E+03   -0.31822E-03   -0.31812E-03  8528   0.420E-02-0.114E-04
CGA:  13    -0.390426832530E+03   -0.91464E-04   -0.91594E-04  8528   0.471E-02-0.118E-05
CGA:  14    -0.390426979887E+03   -0.14736E-03   -0.14735E-03  8528   0.733E-03 0.750E-06
CGA:  15    -0.390427028213E+03   -0.48326E-04   -0.48228E-04  8528   0.104E-02 0.377E-05
CGA:  16    -0.390427062256E+03   -0.34043E-04   -0.34072E-04  8528   0.173E-02 0.287E-05
CGA:  17    -0.390427103464E+03   -0.41209E-04   -0.41335E-04  8528   0.666E-03 0.474E-05
CGA:  18    -0.390427132715E+03   -0.29251E-04   -0.29241E-04  8528   0.209E-03 0.329E-05
CGA:  19    -0.390427144575E+03   -0.11860E-04   -0.11834E-04  8528   0.523E-03 0.157E-05
CGA:  20    -0.390427155584E+03   -0.11009E-04   -0.11027E-04  8528   0.313E-03 0.987E-06
CGA:  21    -0.390427166013E+03   -0.10429E-04   -0.10439E-04  8528   0.201E-03 0.132E-05
CGA:  22    -0.390427185866E+03   -0.19853E-04   -0.20017E-04  8528   0.167E-03-0.279E-05
CGA:  23    -0.390427188176E+03   -0.23099E-05   -0.23094E-05  8528   0.934E-04-0.176E-06
 150 F= -.39042719E+03 E0= -.39040545E+03  d E =0.585861E-03  mag=     8.3901
