       N       E                     dE             d eps       ncg     rms          ort
DAV:   1     0.639896943616E+04    0.63990E+04   -0.31652E+05  8320   0.178E+03
DAV:   2     0.352085565934E+03   -0.60469E+04   -0.56548E+04  8320   0.512E+02
DAV:   3    -0.298925052990E+03   -0.65101E+03   -0.63074E+03  8320   0.189E+02
DAV:   4    -0.317734163619E+03   -0.18809E+02   -0.18663E+02  8320   0.350E+01
DAV:   5    -0.318269173050E+03   -0.53501E+00   -0.53192E+00  8320   0.533E+00
SDA:   6     0.867802589357E+02    0.40505E+03   -0.53192E+00  8320   0.275E+04 0.000E+00
CGA:   7    -0.163875747614E+01   -0.88419E+02   -0.12298E+03  8320   0.794E+04-0.137E+04
CGA:   8     0.123423864522E+03    0.12506E+03   -0.12166E+03  8320   0.102E+05 0.271E+04
CGA:   9     0.584935416007E+03    0.46151E+03   -0.66435E+03  8320   0.172E+05 0.273E+04
CGA:  10     0.207047962052E+04    0.14855E+04   -0.10177E+04  8320   0.133E+05-0.250E+04
CGA:  11     0.218985695518E+04    0.11938E+03   -0.48338E+03  8320   0.707E+04 0.250E+04
CGA:  12     0.160146352586E+04   -0.58839E+03   -0.50709E+03  8320   0.957E+04-0.109E+03
CGA:  13     0.112833208064E+04   -0.47313E+03   -0.57772E+03  8320   0.499E+04 0.540E+04
CGA:  14     0.767189284517E+03   -0.36114E+03   -0.46429E+03  8320   0.111E+05-0.258E+03
CGA:  15     0.409327214255E+03   -0.35786E+03   -0.49448E+03  8320   0.553E+04-0.287E+04
CGA:  16     0.241591960458E+03   -0.16774E+03   -0.25462E+03  8320   0.435E+04-0.540E+03
CGA:  17     0.162254944561E+03   -0.79337E+02   -0.18365E+03  8320   0.552E+04-0.193E+04
CGA:  18     0.557450581645E+02   -0.10651E+03   -0.16588E+03  8320   0.257E+04-0.624E+03
CGA:  19     0.108419258389E+02   -0.44903E+02   -0.76735E+02  8320   0.220E+04-0.211E+04
CGA:  20     0.367734966156E+02    0.25932E+02   -0.86775E+02  8320   0.402E+04-0.193E+04
CGA:  21     0.888028953372E+02    0.52029E+02   -0.13830E+03  8320   0.854E+04-0.560E+04
CGA:  22     0.180891095393E+03    0.92088E+02   -0.37474E+03  8320   0.546E+04-0.376E+04
CGA:  23    -0.549000662761E+02   -0.23579E+03   -0.62050E+02  8320   0.233E+04 0.617E+04
CGA:  24    -0.338188661339E+02    0.21081E+02   -0.72720E+02  8320   0.391E+04-0.245E+04
CGA:  25     0.627321445218E+02    0.96551E+02   -0.13470E+03  8320   0.100E+05-0.557E+04
CGA:  26     0.110496755090E+03    0.47765E+02   -0.32736E+03  8320   0.664E+04-0.545E+04
CGA:  27     0.125413906642E+03    0.14917E+02   -0.22112E+03  8320   0.690E+04-0.629E+04
CGA:  28    -0.415235681576E+02   -0.16694E+03   -0.16190E+03  8320   0.436E+04-0.766E+04
CGA:  29    -0.136945178630E+02    0.27829E+02   -0.12863E+03  8320   0.737E+04-0.612E+04
CGA:  30     0.254723752732E-01    0.13720E+02   -0.21054E+03  8320   0.655E+04-0.592E+04
CGA:  31     0.339364407618E+02    0.33911E+02   -0.19847E+03  8320   0.828E+04-0.701E+04
CGA:  32    -0.280297720841E+02   -0.61966E+02   -0.20784E+03  8320   0.578E+04-0.715E+04
CGA:  33    -0.269664436825E+02    0.10633E+01   -0.15836E+03  8320   0.696E+04-0.679E+04
CGA:  34    -0.572891021230E+02   -0.30323E+02   -0.17067E+03  8320   0.470E+04-0.540E+04
CGA:  35    -0.798857123468E+02   -0.22597E+02   -0.11426E+03  8320   0.466E+04-0.538E+04
CGA:  36    -0.100513604644E+03   -0.20628E+02   -0.10554E+03  8320   0.270E+04-0.322E+04
CGA:  37    -0.128706891518E+03   -0.28193E+02   -0.52441E+02  8320   0.103E+04-0.174E+04
CGA:  38    -0.141156857361E+03   -0.12450E+02   -0.16145E+02  8320   0.126E+03-0.263E+03
CGA:  39    -0.144523833415E+03   -0.33670E+01   -0.31021E+01  8320   0.692E+02 0.670E+01
CGA:  40    -0.149812495723E+03   -0.52887E+01   -0.55856E+01  8320   0.303E+03-0.167E+02
CGA:  41    -0.157429332546E+03   -0.76168E+01   -0.79043E+01  8320   0.408E+03-0.119E+03
CGA:  42    -0.162964423852E+03   -0.55351E+01   -0.32713E+01  8320   0.118E+03 0.165E+03
CGA:  43    -0.164726024348E+03   -0.17616E+01   -0.14754E+01  8320   0.277E+02 0.214E+02
CGA:  44    -0.166080673381E+03   -0.13546E+01   -0.13500E+01  8320   0.116E+03-0.399E+00
CGA:  45    -0.167858270039E+03   -0.17776E+01   -0.22744E+01  8320   0.123E+03-0.234E+02
CGA:  46    -0.169944400515E+03   -0.20861E+01   -0.30245E+01  8320   0.209E+03-0.908E+01
CGA:  47    -0.173721743404E+03   -0.37773E+01   -0.45613E+01  8320   0.793E+02-0.301E+02
CGA:  48    -0.178205402871E+03   -0.44837E+01   -0.44486E+01  8320   0.363E+02 0.162E+01
CGA:  49    -0.180659437986E+03   -0.24540E+01   -0.24455E+01  8320   0.675E+02 0.422E+00
CGA:  50    -0.187143005438E+03   -0.64836E+01   -0.65353E+01  8320   0.739E+02-0.120E+01
CGA:  51    -0.192527542430E+03   -0.53845E+01   -0.54587E+01  8320   0.527E+02-0.283E+01
CGA:  52    -0.194539848476E+03   -0.20123E+01   -0.20230E+01  8320   0.331E+02-0.305E+00
CGA:  53    -0.197787340420E+03   -0.32475E+01   -0.32064E+01  8320   0.630E+02 0.109E+01
CGA:  54    -0.202197892504E+03   -0.44106E+01   -0.44184E+01  8320   0.386E+02-0.532E+00
CGA:  55    -0.204773965919E+03   -0.25761E+01   -0.25919E+01  8320   0.241E+02-0.112E+01
CGA:  56    -0.206610992067E+03   -0.18370E+01   -0.18359E+01  8320   0.340E+02-0.950E-02
CGA:  57    -0.210322259558E+03   -0.37113E+01   -0.37523E+01  8320   0.298E+02-0.486E+00
CGA:  58    -0.211839194426E+03   -0.15169E+01   -0.14967E+01  8320   0.176E+02-0.685E+00
CGA:  59    -0.213564419560E+03   -0.17252E+01   -0.17527E+01  8320   0.275E+02-0.531E+00
CGA:  60    -0.215236490946E+03   -0.16721E+01   -0.16711E+01  8320   0.221E+02-0.572E+00
CGA:  61    -0.216475178214E+03   -0.12387E+01   -0.12354E+01  8320   0.147E+02-0.318E+00
CGA:  62    -0.217289949526E+03   -0.81477E+00   -0.81389E+00  8320   0.141E+02-0.132E+00
CGA:  63    -0.218752722942E+03   -0.14628E+01   -0.14471E+01  8320   0.233E+02 0.418E+00
CGA:  64    -0.219942198354E+03   -0.11895E+01   -0.11682E+01  8320   0.861E+01-0.321E+00
CGA:  65    -0.220487029284E+03   -0.54483E+00   -0.54474E+00  8320   0.115E+02-0.330E+00
CGA:  66    -0.221425904899E+03   -0.93888E+00   -0.94018E+00  8320   0.185E+02-0.203E-01
CGA:  67    -0.222370724955E+03   -0.94482E+00   -0.94329E+00  8320   0.119E+02-0.105E+00
SDA:  68    -0.222935859598E+03   -0.56513E+00   -0.55706E+00  8320   0.805E+01-0.120E+00
CGA:  69    -0.223758017105E+03   -0.82216E+00   -0.83728E+00  8320   0.109E+02-0.345E+00
CGA:  70    -0.225849649432E+03   -0.20916E+01   -0.20370E+01  8320   0.961E+01 0.458E+00
CGA:  71    -0.227094207866E+03   -0.12446E+01   -0.12952E+01  8320   0.128E+02-0.876E+00
CGA:  72    -0.228216361396E+03   -0.11222E+01   -0.11005E+01  8320   0.811E+01 0.745E+00
CGA:  73    -0.228954174541E+03   -0.73781E+00   -0.73773E+00  8320   0.375E+01 0.955E-02
CGA:  74    -0.229321878677E+03   -0.36770E+00   -0.36722E+00  8320   0.330E+01 0.205E-01
CGA:  75    -0.229766798012E+03   -0.44492E+00   -0.44930E+00  8320   0.217E+01-0.926E-01
CGA:  76    -0.229956223671E+03   -0.18943E+00   -0.18969E+00  8320   0.157E+01-0.174E-01
CGA:  77    -0.230166463463E+03   -0.21024E+00   -0.20946E+00  8320   0.189E+01-0.180E-01
CGA:  78    -0.230357540426E+03   -0.19108E+00   -0.19471E+00  8320   0.151E+01-0.104E+00
CGA:  79    -0.230464639262E+03   -0.10710E+00   -0.10737E+00  8320   0.932E+00 0.116E-01
CGA:  80    -0.230561803156E+03   -0.97164E-01   -0.96974E-01  8320   0.110E+01 0.674E-02
CGA:  81    -0.230669532114E+03   -0.10773E+00   -0.10991E+00  8320   0.868E+00-0.945E-01
CGA:  82    -0.230729981222E+03   -0.60449E-01   -0.60632E-01  8320   0.656E+00 0.785E-02
CGA:  83    -0.230790137935E+03   -0.60157E-01   -0.60130E-01  8320   0.735E+00 0.221E-02
CGA:  84    -0.230873021880E+03   -0.82884E-01   -0.82544E-01  8320   0.622E+00 0.512E-02
CGA:  85    -0.230919833187E+03   -0.46811E-01   -0.46125E-01  8320   0.470E+00-0.181E-01
CGA:  86    -0.230968698759E+03   -0.48866E-01   -0.48313E-01  8320   0.602E+00 0.179E-01
CGA:  87    -0.231021412803E+03   -0.52714E-01   -0.52635E-01  8320   0.417E+00-0.121E-01
CGA:  88    -0.231051038027E+03   -0.29625E-01   -0.29566E-01  8320   0.341E+00-0.131E-02
CGA:  89    -0.231082209983E+03   -0.31172E-01   -0.31148E-01  8320   0.401E+00 0.226E-02
CGA:  90    -0.231123905889E+03   -0.41696E-01   -0.40719E-01  8320   0.422E+00 0.387E-01
CGA:  91    -0.231169068878E+03   -0.45163E-01   -0.56029E-01  8320   0.935E+00-0.249E+00
CGA:  92    -0.231229590703E+03   -0.60522E-01   -0.59389E-01  8320   0.527E+00-0.314E-02
CGA:  93    -0.231272180334E+03   -0.42590E-01   -0.42471E-01  8320   0.751E+00-0.737E-02
CGA:  94    -0.231345452956E+03   -0.73273E-01   -0.75022E-01  8320   0.940E+00-0.856E-01
CGA:  95    -0.231437229450E+03   -0.91776E-01   -0.10137E+00  8320   0.124E+01-0.212E+00
CGA:  96    -0.231464035146E+03   -0.26806E-01   -0.16790E-01  8320   0.106E+01 0.528E+00
CGA:  97    -0.231510184313E+03   -0.46149E-01   -0.33533E-01  8320   0.112E+01 0.479E+00
CGA:  98    -0.231553811955E+03   -0.43628E-01   -0.37733E-01  8320   0.121E+01 0.205E+00
CGA:  99    -0.231576878854E+03   -0.23067E-01   -0.24813E-01  8320   0.864E+00-0.678E-01
CGA: 100    -0.231589389342E+03   -0.12510E-01   -0.16937E-01  8320   0.794E+00-0.151E+00
CGA: 101    -0.231604866444E+03   -0.15477E-01   -0.18723E-01  8320   0.826E+00-0.670E-01
CGA: 102    -0.231625524246E+03   -0.20658E-01   -0.22599E-01  8320   0.559E+00-0.357E-01
CGA: 103    -0.231642784525E+03   -0.17260E-01   -0.17148E-01  8320   0.448E+00 0.356E-02
CGA: 104    -0.231659611680E+03   -0.16827E-01   -0.16439E-01  8320   0.422E+00 0.439E-02
CGA: 105    -0.231672941771E+03   -0.13330E-01   -0.13382E-01  8320   0.322E+00-0.363E-03
CGA: 106    -0.231683178833E+03   -0.10237E-01   -0.10595E-01  8320   0.285E+00-0.358E-02
CGA: 107    -0.231694422001E+03   -0.11243E-01   -0.11513E-01  8320   0.297E+00 0.909E-03
CGA: 108    -0.231706979444E+03   -0.12557E-01   -0.12783E-01  8320   0.244E+00 0.119E-02
CGA: 109    -0.231717320810E+03   -0.10341E-01   -0.10202E-01  8320   0.202E+00 0.341E-03
CGA: 110    -0.231726143626E+03   -0.88228E-02   -0.86440E-02  8320   0.192E+00-0.573E-03
CGA: 111    -0.231733232595E+03   -0.70890E-02   -0.69906E-02  8320   0.149E+00 0.308E-03
CGA: 112    -0.231738963569E+03   -0.57310E-02   -0.57061E-02  8320   0.169E+00-0.451E-03
CGA: 113    -0.231747551883E+03   -0.85883E-02   -0.86082E-02  8320   0.187E+00 0.139E-02
CGA: 114    -0.231753240161E+03   -0.56883E-02   -0.54430E-02  8320   0.130E+00 0.198E-02
CGA: 115    -0.231758250667E+03   -0.50105E-02   -0.50078E-02  8320   0.155E+00-0.291E-03
CGA: 116    -0.231762833727E+03   -0.45831E-02   -0.45563E-02  8320   0.966E-01 0.390E-03
CGA: 117    -0.231765307908E+03   -0.24742E-02   -0.25082E-02  8320   0.686E-01-0.791E-03
CGA: 118    -0.231768036612E+03   -0.27287E-02   -0.27366E-02  8320   0.851E-01 0.104E-03
CGA: 119    -0.231770823934E+03   -0.27873E-02   -0.27608E-02  8320   0.742E-01 0.751E-04
CGA: 120    -0.231773508865E+03   -0.26849E-02   -0.26722E-02  8320   0.967E-01-0.282E-03
CGA: 121    -0.231776958267E+03   -0.34494E-02   -0.34779E-02  8320   0.938E-01 0.146E-03
SDA: 122    -0.231779244908E+03   -0.22866E-02   -0.22494E-02  8320   0.507E-01 0.757E-03
CGA: 123    -0.231784828377E+03   -0.55835E-02   -0.56189E-02  8320   0.388E-01-0.598E-03
CGA: 124    -0.231787123475E+03   -0.22951E-02   -0.22958E-02  8320   0.334E-01-0.713E-04
CGA: 125    -0.231791243683E+03   -0.41202E-02   -0.40139E-02  8320   0.466E-01 0.124E-02
CGA: 126    -0.231796795494E+03   -0.55518E-02    0.26724E-01  8320   0.517E-01 0.513E-01
CGA: 127    -0.231800193552E+03   -0.33981E-02   -0.34186E-02  8320   0.315E-01-0.122E-02
CGA: 128    -0.231802525546E+03   -0.23320E-02   -0.23874E-02  8320   0.609E-01-0.197E-02
CGA: 129    -0.231807514185E+03   -0.49886E-02   -0.53263E-02  8320   0.573E-01-0.838E-02
CGA: 130    -0.231811839585E+03   -0.43254E-02   -0.42556E-02  8320   0.110E+00 0.167E-02
CGA: 131    -0.231814695624E+03   -0.28560E-02   -0.19504E-02  8320   0.739E-01 0.437E-01
CGA: 132    -0.231817795741E+03   -0.31001E-02   -0.25619E-02  8320   0.138E+00 0.141E-01
CGA: 133    -0.231820829390E+03   -0.30336E-02   -0.24827E-02  8320   0.228E+00 0.307E-01
CGA: 134    -0.231824537259E+03   -0.37079E-02   -0.37682E-02  8320   0.186E+00-0.116E-02
CGA: 135    -0.231826051431E+03   -0.15142E-02   -0.15156E-02  8320   0.720E-01 0.856E-03
CGA: 136    -0.231826676024E+03   -0.62459E-03   -0.64493E-03  8320   0.454E-01-0.209E-02
CGA: 137    -0.231827319050E+03   -0.64303E-03   -0.67871E-03  8320   0.653E-01-0.177E-02
CGA: 138    -0.231828148796E+03   -0.82975E-03   -0.82540E-03  8320   0.491E-01 0.301E-03
CGA: 139    -0.231828609896E+03   -0.46110E-03   -0.44315E-03  8320   0.273E-01 0.172E-02
CGA: 140    -0.231829000085E+03   -0.39019E-03   -0.38131E-03  8320   0.410E-01 0.498E-03
CGA: 141    -0.231829826763E+03   -0.82668E-03   -0.79343E-03  8320   0.950E-01 0.104E-02
CGA: 142    -0.231831062325E+03   -0.12356E-02   -0.11667E-02  8320   0.995E-01 0.506E-02
CGA: 143    -0.231831971778E+03   -0.90945E-03   -0.10071E-02  8320   0.509E-01-0.832E-02
CGA: 144    -0.231832445144E+03   -0.47337E-03   -0.50328E-03  8320   0.481E-01-0.222E-02
CGA: 145    -0.231833263863E+03   -0.81872E-03   -0.84768E-03  8320   0.810E-01-0.709E-03
CGA: 146    -0.231834406900E+03   -0.11430E-02   -0.10540E-02  8320   0.625E-01 0.509E-02
CGA: 147    -0.231835155617E+03   -0.74872E-03   -0.68364E-03  8320   0.535E-01 0.498E-02
CGA: 148    -0.231836058734E+03   -0.90312E-03   -0.87866E-03  8320   0.911E-01 0.935E-03
CGA: 149    -0.231837277489E+03   -0.12188E-02   -0.12385E-02  8320   0.111E+00-0.765E-03
CGA: 150    -0.231838310071E+03   -0.10326E-02   -0.11446E-02  8320   0.681E-01-0.728E-02
CGA: 151    -0.231838958894E+03   -0.64882E-03   -0.69543E-03  8320   0.524E-01-0.289E-02
CGA: 152    -0.231839714369E+03   -0.75547E-03   -0.75579E-03  8320   0.569E-01 0.524E-05
CGA: 153    -0.231840416529E+03   -0.70216E-03   -0.69086E-03  8320   0.358E-01 0.503E-03
CGA: 154    -0.231840810708E+03   -0.39418E-03   -0.39420E-03  8320   0.251E-01-0.361E-04
CGA: 155    -0.231841220031E+03   -0.40932E-03   -0.40815E-03  8320   0.375E-01 0.152E-05
CGA: 156    -0.231841832931E+03   -0.61290E-03   -0.61156E-03  8320   0.442E-01-0.290E-05
SDA: 157    -0.231842339829E+03   -0.50690E-03   -0.52679E-03  8320   0.304E-01-0.950E-03
CGA: 158    -0.231844054496E+03   -0.17147E-02   -0.17104E-02  8320   0.387E-01 0.140E-03
CGA: 159    -0.231845334522E+03   -0.12800E-02   -0.12776E-02  8320   0.178E-01 0.267E-03
CGA: 160    -0.231847864172E+03   -0.25296E-02   -0.21258E-04  8320   0.256E-01-0.316E-02
CGA: 161    -0.231850077588E+03   -0.22134E-02   -0.22047E-02  8320   0.186E-01 0.388E-04
CGA: 162    -0.231850713427E+03   -0.63584E-03   -0.62997E-03  8320   0.164E-01 0.239E-04
CGA: 163    -0.231851784849E+03   -0.10714E-02   -0.10576E-02  8320   0.692E-02 0.720E-03
CGA: 164    -0.231852239541E+03   -0.45469E-03   -0.45387E-03  8320   0.631E-02 0.490E-04
CGA: 165    -0.231852397812E+03   -0.15827E-03   -0.15631E-03  8320   0.197E-02 0.512E-04
CGA: 166    -0.231852637771E+03   -0.23996E-03   -0.24117E-03  8320   0.279E-02-0.221E-04
CGA: 167    -0.231852727093E+03   -0.89322E-04   -0.90098E-04  8320   0.242E-02-0.346E-05
CGA: 168    -0.231852916197E+03   -0.18910E-03   -0.19008E-03  8320   0.758E-03-0.332E-04
CGA: 169    -0.231852964545E+03   -0.48348E-04   -0.48414E-04  8320   0.152E-02-0.401E-05
CGA: 170    -0.231853027146E+03   -0.62602E-04   -0.62921E-04  8320   0.518E-03 0.377E-05
CGA: 171    -0.231853076410E+03   -0.49264E-04   -0.49353E-04  8320   0.655E-03-0.268E-05
CGA: 172    -0.231853097291E+03   -0.20881E-04   -0.20712E-04  8320   0.419E-03 0.170E-05
CGA: 173    -0.231853120131E+03   -0.22840E-04   -0.22842E-04  8320   0.320E-03 0.145E-05
CGA: 174    -0.231853151349E+03   -0.31218E-04   -0.31052E-04  8320   0.539E-03 0.329E-05
CGA: 175    -0.231853163767E+03   -0.12418E-04   -0.12182E-04  8320   0.879E-04 0.624E-05
CGA: 176    -0.231853173132E+03   -0.93646E-05   -0.94031E-05  8320   0.166E-03-0.875E-06
   1 F= -.23185317E+03 E0= -.23183827E+03  d E =-.231853E+03  mag=    -5.1160
       N       E                     dE             d eps       ncg     rms          ort
SDA:   1    -0.231850620558E+03    0.25432E-02    0.00000E+00  8320   0.123E+00 0.000E+00
CGA:   2    -0.231852750283E+03   -0.21297E-02   -0.21281E-02  8320   0.111E-01 0.460E-04
CGA:   3    -0.231853212638E+03   -0.46236E-03   -0.46257E-03  8320   0.138E-02 0.667E-05
CGA:   4    -0.231853339684E+03   -0.12705E-03   -0.12698E-03  8320   0.960E-03 0.161E-05
CGA:   5    -0.231853434883E+03   -0.95199E-04   -0.95353E-04  8320   0.675E-03-0.349E-05
CGA:   6    -0.231853475656E+03   -0.40773E-04   -0.40775E-04  8320   0.414E-03-0.114E-05
CGA:   7    -0.231853488208E+03   -0.12552E-04   -0.12538E-04  8320   0.229E-03-0.613E-06
CGA:   8    -0.231853507511E+03   -0.19303E-04   -0.19291E-04  8320   0.126E-03 0.405E-06
CGA:   9    -0.231853515270E+03   -0.77599E-05   -0.77646E-05  8320   0.407E-04-0.120E-05
   2 F= -.23185352E+03 E0= -.23183874E+03  d E =-.342139E-03  mag=    -5.1180
       N       E                     dE             d eps       ncg     rms          ort
SDA:   1    -0.231850909695E+03    0.25978E-02    0.00000E+00  8320   0.175E+00 0.000E+00
CGA:   2    -0.231853561982E+03   -0.26523E-02   -0.27049E-02  8320   0.796E-03-0.278E-02
CGA:   3    -0.231853606543E+03   -0.44560E-04   -0.44560E-04  8320   0.506E-03 0.873E-06
CGA:   4    -0.231853623123E+03   -0.16581E-04   -0.16611E-04  8320   0.307E-03 0.732E-06
CGA:   5    -0.231853651216E+03   -0.28093E-04   -0.28093E-04  8320   0.215E-03-0.375E-08
CGA:   6    -0.231853664535E+03   -0.13319E-04   -0.13319E-04  8320   0.143E-03 0.634E-08
CGA:   7    -0.231853669893E+03   -0.53582E-05   -0.53539E-05  8320   0.957E-04-0.218E-06
   3 F= -.23185367E+03 E0= -.23183891E+03  d E =-.154623E-03  mag=    -5.1185
       N       E                     dE             d eps       ncg     rms          ort
SDA:   1    -0.231444001685E+03    0.40966E+00    0.00000E+00  8320   0.224E+01 0.000E+00
CGA:   2    -0.231524160449E+03   -0.80159E-01   -0.82238E-01  8320   0.218E+01-0.742E-03
CGA:   3    -0.231670714932E+03   -0.14655E+00   -0.14696E+00  8320   0.134E+01-0.233E-01
CGA:   4    -0.231760708969E+03   -0.89994E-01   -0.88494E-01  8320   0.699E+00 0.880E-01
CGA:   5    -0.231801704703E+03   -0.40996E-01   -0.40882E-01  8320   0.700E+00-0.322E-01
CGA:   6    -0.231824869911E+03   -0.23165E-01   -0.23424E-01  8320   0.289E+00-0.143E-02
CGA:   7    -0.231849413132E+03   -0.24543E-01   -0.24347E-01  8320   0.889E-01 0.559E-02
CGA:   8    -0.231853189640E+03   -0.37765E-02   -0.37222E-02  8320   0.806E-01-0.374E-03
CGA:   9    -0.231856269606E+03   -0.30800E-02   -0.30788E-02  8320   0.322E-01-0.465E-05
CGA:  10    -0.231858716823E+03   -0.24472E-02   -0.24286E-02  8320   0.181E-01 0.704E-03
CGA:  11    -0.231859283016E+03   -0.56619E-03   -0.56477E-03  8320   0.112E-01 0.141E-04
CGA:  12    -0.231859840989E+03   -0.55797E-03   -0.55835E-03  8320   0.563E-02 0.265E-04
CGA:  13    -0.231860342188E+03   -0.50120E-03   -0.49966E-03  8320   0.659E-02 0.402E-04
CGA:  14    -0.231860524059E+03   -0.18187E-03   -0.18165E-03  8320   0.278E-02 0.443E-05
CGA:  15    -0.231860690927E+03   -0.16687E-03   -0.16680E-03  8320   0.122E-02 0.799E-05
CGA:  16    -0.231860784256E+03   -0.93329E-04   -0.93152E-04  8320   0.216E-02 0.700E-05
CGA:  17    -0.231860858855E+03   -0.74599E-04   -0.74536E-04  8320   0.922E-03 0.113E-05
CGA:  18    -0.231860916499E+03   -0.57644E-04   -0.57626E-04  8320   0.436E-03 0.189E-05
CGA:  19    -0.231860945974E+03   -0.29475E-04   -0.29427E-04  8320   0.795E-03 0.359E-05
CGA:  20    -0.231860975497E+03   -0.29523E-04   -0.29547E-04  8320   0.246E-03 0.216E-05
CGA:  21    -0.231861001655E+03   -0.26158E-04   -0.26124E-04  8320   0.210E-03 0.621E-06
CGA:  22    -0.231861008970E+03   -0.73152E-05   -0.73492E-05  8320   0.159E-03 0.108E-05
   4 F= -.23186101E+03 E0= -.23184648E+03  d E =-.733908E-02  mag=    -5.1168
       N       E                     dE             d eps       ncg     rms          ort
SDA:   1    -0.231488728052E+03    0.37227E+00    0.00000E+00  8320   0.162E+01 0.000E+00
CGA:   2    -0.231571251349E+03   -0.82523E-01   -0.82998E-01  8320   0.226E+01 0.385E-01
CGA:   3    -0.231692055570E+03   -0.12080E+00   -0.12069E+00  8320   0.109E+01-0.118E-01
CGA:   4    -0.231797770203E+03   -0.10571E+00   -0.10577E+00  8320   0.726E+00-0.152E-02
CGA:   5    -0.231818221623E+03   -0.20451E-01   -0.19764E-01  8320   0.295E+00 0.152E-01
CGA:   6    -0.231846694598E+03   -0.28473E-01   -0.28380E-01  8320   0.197E+00 0.222E-02
CGA:   7    -0.231857120470E+03   -0.10426E-01   -0.10404E-01  8320   0.789E-01-0.136E-02
CGA:   8    -0.231859807045E+03   -0.26866E-02   -0.26879E-02  8320   0.444E-01-0.541E-05
CGA:   9    -0.231862260708E+03   -0.24537E-02   -0.24523E-02  8320   0.193E-01-0.405E-03
CGA:  10    -0.231863744690E+03   -0.14840E-02   -0.14788E-02  8320   0.158E-01 0.195E-03
CGA:  11    -0.231864197098E+03   -0.45241E-03   -0.45155E-03  8320   0.486E-02 0.128E-04
CGA:  12    -0.231864623085E+03   -0.42599E-03   -0.42578E-03  8320   0.485E-02 0.446E-05
CGA:  13    -0.231864918544E+03   -0.29546E-03   -0.29547E-03  8320   0.479E-02-0.174E-05
CGA:  14    -0.231865077126E+03   -0.15858E-03   -0.15980E-03  8320   0.102E-02-0.548E-05
CGA:  15    -0.231865170448E+03   -0.93322E-04   -0.93389E-04  8320   0.135E-02-0.181E-05
CGA:  16    -0.231865231735E+03   -0.61288E-04   -0.61345E-04  8320   0.112E-02 0.232E-05
CGA:  17    -0.231865292211E+03   -0.60476E-04   -0.60484E-04  8320   0.349E-03 0.195E-05
CGA:  18    -0.231865320379E+03   -0.28167E-04   -0.28101E-04  8320   0.627E-03 0.273E-05
CGA:  19    -0.231865347359E+03   -0.26981E-04   -0.27002E-04  8320   0.270E-03 0.182E-05
CGA:  20    -0.231865369321E+03   -0.21961E-04   -0.21865E-04  8320   0.236E-03 0.405E-05
CGA:  21    -0.231865379672E+03   -0.10351E-04   -0.10363E-04  8320   0.173E-03 0.904E-06
CGA:  22    -0.231865388804E+03   -0.91324E-05   -0.91407E-05  8320   0.106E-03 0.137E-05
   5 F= -.23186539E+03 E0= -.23185105E+03  d E =-.437983E-02  mag=    -5.1133
       N       E                     dE             d eps       ncg     rms          ort
SDA:   1    -0.231238624543E+03    0.62676E+00    0.00000E+00  8320   0.259E+01 0.000E+00
CGA:   2    -0.231421088714E+03   -0.18246E+00   -0.17951E+00  8320   0.269E+01 0.186E+00
CGA:   3    -0.231557565911E+03   -0.13648E+00   -0.13592E+00  8320   0.327E+01-0.119E-01
CGA:   4    -0.231716141013E+03   -0.15858E+00   -0.16353E+00  8320   0.127E+01 0.195E+00
CGA:   5    -0.231778046978E+03   -0.61906E-01   -0.62359E-01  8320   0.113E+01 0.815E-02
CGA:   6    -0.231810067835E+03   -0.32021E-01   -0.28040E-01  8320   0.326E+00 0.113E+00
CGA:   7    -0.231835195520E+03   -0.25128E-01   -0.25208E-01  8320   0.702E+00-0.403E-02
CGA:   8    -0.231852756268E+03   -0.17561E-01   -0.18208E-01  8320   0.132E+00-0.126E-01
CGA:   9    -0.231856782996E+03   -0.40267E-02   -0.40621E-02  8320   0.106E+00-0.388E-03
CGA:  10    -0.231859894155E+03   -0.31112E-02   -0.29794E-02  8320   0.390E-01 0.230E-02
CGA:  11    -0.231861688846E+03   -0.17947E-02   -0.17924E-02  8320   0.590E-01-0.900E-04
CGA:  12    -0.231863577751E+03   -0.18889E-02   -0.19249E-02  8320   0.231E-01-0.156E-03
CGA:  13    -0.231864364826E+03   -0.78707E-03   -0.79273E-03  8320   0.209E-01 0.278E-05
CGA:  14    -0.231864956691E+03   -0.59186E-03   -0.58307E-03  8320   0.580E-02 0.124E-03
CGA:  15    -0.231865228848E+03   -0.27216E-03   -0.27207E-03  8320   0.114E-01-0.125E-04
CGA:  16    -0.231865776066E+03   -0.54722E-03   -0.54730E-03  8320   0.555E-02 0.280E-04
CGA:  17    -0.231865913508E+03   -0.13744E-03   -0.13815E-03  8320   0.332E-02-0.106E-04
CGA:  18    -0.231866041302E+03   -0.12779E-03   -0.12783E-03  8320   0.158E-02 0.197E-05
CGA:  19    -0.231866097086E+03   -0.55784E-04   -0.55787E-04  8320   0.203E-02 0.766E-06
CGA:  20    -0.231866215701E+03   -0.11862E-03   -0.11853E-03  8320   0.157E-02 0.700E-05
CGA:  21    -0.231866259575E+03   -0.43874E-04   -0.43978E-04  8320   0.117E-02 0.130E-05
CGA:  22    -0.231866311259E+03   -0.51684E-04   -0.51682E-04  8320   0.631E-03 0.470E-06
CGA:  23    -0.231866331451E+03   -0.20192E-04   -0.20204E-04  8320   0.645E-03 0.130E-05
CGA:  24    -0.231866364757E+03   -0.33306E-04   -0.33266E-04  8320   0.419E-03 0.597E-05
CGA:  25    -0.231866377938E+03   -0.13181E-04   -0.13212E-04  8320   0.414E-03 0.159E-05
CGA:  26    -0.231866400538E+03   -0.22600E-04   -0.22589E-04  8320   0.265E-03 0.138E-05
CGA:  27    -0.231866408168E+03   -0.76302E-05   -0.76537E-05  8320   0.226E-03 0.143E-05
CGA:  28    -0.231866421512E+03   -0.13344E-04   -0.13269E-04  8320   0.185E-03 0.536E-05
CGA:  29    -0.231866427274E+03   -0.57623E-05   -0.57904E-05  8320   0.149E-03 0.160E-05
   6 F= -.23186643E+03 E0= -.23185225E+03  d E =-.103847E-02  mag=    -5.1108
       N       E                     dE             d eps       ncg     rms          ort
SDA:   1    -0.231820704531E+03    0.45717E-01    0.00000E+00  8320   0.279E+00 0.000E+00
CGA:   2    -0.231829561055E+03   -0.88565E-02   -0.89140E-02  8320   0.200E+00 0.411E-03
CGA:   3    -0.231842596914E+03   -0.13036E-01   -0.13288E-01  8320   0.208E+00-0.964E-02
CGA:   4    -0.231855121129E+03   -0.12524E-01   -0.12343E-01  8320   0.584E-01 0.802E-02
CGA:   5    -0.231860749340E+03   -0.56282E-02   -0.56312E-02  8320   0.378E-01-0.656E-04
CGA:   6    -0.231863143022E+03   -0.23937E-02   -0.23926E-02  8320   0.430E-01 0.578E-04
CGA:   7    -0.231864504467E+03   -0.13614E-02   -0.13604E-02  8320   0.100E-01 0.465E-05
CGA:   8    -0.231865066853E+03   -0.56239E-03   -0.56127E-03  8320   0.435E-02 0.939E-04
CGA:   9    -0.231865448647E+03   -0.38179E-03   -0.38368E-03  8320   0.259E-02-0.465E-04
CGA:  10    -0.231865565717E+03   -0.11707E-03   -0.11709E-03  8320   0.210E-02 0.226E-05
CGA:  11    -0.231865640748E+03   -0.75031E-04   -0.75045E-04  8320   0.597E-03 0.126E-05
CGA:  12    -0.231865709710E+03   -0.68962E-04   -0.68851E-04  8320   0.487E-03 0.168E-05
CGA:  13    -0.231865736634E+03   -0.26924E-04   -0.26932E-04  8320   0.378E-03-0.284E-05
CGA:  14    -0.231865748895E+03   -0.12261E-04   -0.12256E-04  8320   0.153E-03-0.291E-06
CGA:  15    -0.231865762128E+03   -0.13233E-04   -0.13196E-04  8320   0.115E-03 0.108E-05
CGA:  16    -0.231865771767E+03   -0.96384E-05   -0.96497E-05  8320   0.930E-04-0.396E-06
   7 F= -.23186577E+03 E0= -.23185160E+03  d E =0.655507E-03  mag=    -5.1111
       N       E                     dE             d eps       ncg     rms          ort
SDA:   1    -0.231858005223E+03    0.77569E-02    0.00000E+00  8320   0.179E+00 0.000E+00
CGA:   2    -0.231861182957E+03   -0.31777E-02   -0.30719E-02  8320   0.166E-01 0.482E-02
CGA:   3    -0.231862689667E+03   -0.15067E-02   -0.15193E-02  8320   0.217E-01-0.316E-03
CGA:   4    -0.231864009800E+03   -0.13201E-02   -0.13178E-02  8320   0.198E-01 0.195E-03
CGA:   5    -0.231864563209E+03   -0.55341E-03   -0.55193E-03  8320   0.626E-02 0.293E-04
CGA:   6    -0.231865183431E+03   -0.62022E-03   -0.61977E-03  8320   0.376E-02 0.977E-05
CGA:   7    -0.231865468452E+03   -0.28502E-03   -0.28498E-03  8320   0.331E-02 0.224E-05
CGA:   8    -0.231865547297E+03   -0.78845E-04   -0.78736E-04  8320   0.694E-03 0.270E-05
CGA:   9    -0.231865617108E+03   -0.69811E-04   -0.69788E-04  8320   0.411E-03 0.465E-06
CGA:  10    -0.231865642370E+03   -0.25263E-04   -0.25274E-04  8320   0.203E-03-0.229E-05
CGA:  11    -0.231865652325E+03   -0.99547E-05   -0.99503E-05  8320   0.213E-03-0.444E-06
   8 F= -.23186565E+03 E0= -.23185147E+03  d E =0.119442E-03  mag=    -5.1113
       N       E                     dE             d eps       ncg     rms          ort
SDA:   1    -0.231854934699E+03    0.10708E-01    0.00000E+00  8320   0.812E-01 0.000E+00
CGA:   2    -0.231857088045E+03   -0.21533E-02   -0.21854E-02  8320   0.392E-01-0.604E-03
CGA:   3    -0.231859609591E+03   -0.25215E-02   -0.25231E-02  8320   0.390E-01-0.102E-03
CGA:   4    -0.231863673987E+03   -0.40644E-02   -0.40757E-02  8320   0.181E-01-0.221E-03
CGA:   5    -0.231864629606E+03   -0.95562E-03   -0.95654E-03  8320   0.486E-02 0.896E-04
CGA:   6    -0.231864886988E+03   -0.25738E-03   -0.25743E-03  8320   0.655E-02 0.638E-05
CGA:   7    -0.231865189370E+03   -0.30238E-03   -0.30215E-03  8320   0.169E-02-0.475E-05
CGA:   8    -0.231865338183E+03   -0.14881E-03   -0.14877E-03  8320   0.461E-03 0.134E-05
CGA:   9    -0.231865356411E+03   -0.18228E-04   -0.18225E-04  8320   0.458E-03-0.109E-06
CGA:  10    -0.231865385500E+03   -0.29089E-04   -0.29086E-04  8320   0.183E-03 0.417E-06
CGA:  11    -0.231865398901E+03   -0.13401E-04   -0.13425E-04  8320   0.989E-04-0.150E-05
CGA:  12    -0.231865403170E+03   -0.42696E-05   -0.42689E-05  8320   0.875E-04-0.733E-07
   9 F= -.23186540E+03 E0= -.23185123E+03  d E =0.249155E-03  mag=    -5.1109
       N       E                     dE             d eps       ncg     rms          ort
SDA:   1    -0.231853018004E+03    0.12381E-01    0.00000E+00  8320   0.656E-01 0.000E+00
CGA:   2    -0.231855719035E+03   -0.27010E-02   -0.27030E-02  8320   0.599E-01 0.145E-04
CGA:   3    -0.231858628352E+03   -0.29093E-02   -0.29131E-02  8320   0.425E-01 0.174E-03
CGA:   4    -0.231862290555E+03   -0.36622E-02   -0.36684E-02  8320   0.177E-01-0.176E-03
CGA:   5    -0.231863721617E+03   -0.14311E-02   -0.14306E-02  8320   0.925E-02 0.168E-04
CGA:   6    -0.231864322034E+03   -0.60042E-03   -0.60050E-03  8320   0.104E-01-0.557E-05
CGA:   7    -0.231864647514E+03   -0.32548E-03   -0.32652E-03  8320   0.265E-02-0.965E-05
CGA:   8    -0.231864801601E+03   -0.15409E-03   -0.15412E-03  8320   0.980E-03-0.221E-04
CGA:   9    -0.231864882273E+03   -0.80672E-04   -0.80547E-04  8320   0.659E-03 0.443E-05
CGA:  10    -0.231864905529E+03   -0.23256E-04   -0.23253E-04  8320   0.464E-03-0.594E-07
CGA:  11    -0.231864932495E+03   -0.26966E-04   -0.26966E-04  8320   0.126E-03-0.248E-06
CGA:  12    -0.231864945558E+03   -0.13063E-04   -0.13101E-04  8320   0.124E-03-0.831E-06
CGA:  13    -0.231864950202E+03   -0.46445E-05   -0.46405E-05  8320   0.942E-04-0.201E-06
  10 F= -.23186495E+03 E0= -.23185077E+03  d E =0.452968E-03  mag=    -5.1114
       N       E                     dE             d eps       ncg     rms          ort
SDA:   1    -0.231850116802E+03    0.14829E-01    0.00000E+00  8320   0.621E-01 0.000E+00
CGA:   2    -0.231853314743E+03   -0.31979E-02   -0.31742E-02  8320   0.666E-01-0.110E-02
CGA:   3    -0.231856871493E+03   -0.35567E-02   -0.35585E-02  8320   0.782E-01 0.188E-03
CGA:   4    -0.231861679755E+03   -0.48083E-02   -0.48077E-02  8320   0.175E-01 0.951E-04
CGA:   5    -0.231863057384E+03   -0.13776E-02   -0.13802E-02  8320   0.888E-02-0.960E-04
CGA:   6    -0.231863853148E+03   -0.79576E-03   -0.79394E-03  8320   0.687E-02 0.515E-04
CGA:   7    -0.231864020153E+03   -0.16701E-03   -0.16698E-03  8320   0.191E-02 0.138E-05
CGA:   8    -0.231864184185E+03   -0.16403E-03   -0.16403E-03  8320   0.704E-03-0.980E-07
CGA:   9    -0.231864255105E+03   -0.70920E-04   -0.70954E-04  8320   0.525E-03-0.776E-06
CGA:  10    -0.231864273154E+03   -0.18049E-04   -0.18065E-04  8320   0.312E-03 0.142E-06
CGA:  11    -0.231864287946E+03   -0.14792E-04   -0.14785E-04  8320   0.148E-03-0.473E-06
CGA:  12    -0.231864302557E+03   -0.14611E-04   -0.14643E-04  8320   0.731E-04-0.815E-06
CGA:  13    -0.231864306740E+03   -0.41827E-05   -0.41806E-05  8320   0.662E-04-0.431E-06
  11 F= -.23186431E+03 E0= -.23185013E+03  d E =0.643462E-03  mag=    -5.1123
       N       E                     dE             d eps       ncg     rms          ort
SDA:   1    -0.231821007088E+03    0.43295E-01    0.00000E+00  8320   0.235E+00 0.000E+00
CGA:   2    -0.231829901434E+03   -0.88943E-02   -0.89979E-02  8320   0.202E+00-0.389E-03
CGA:   3    -0.231840799362E+03   -0.10898E-01   -0.10858E-01  8320   0.188E+00-0.273E-02
CGA:   4    -0.231852487198E+03   -0.11688E-01   -0.11651E-01  8320   0.530E-01 0.573E-02
CGA:   5    -0.231857855654E+03   -0.53685E-02   -0.53792E-02  8320   0.606E-01-0.246E-03
CGA:   6    -0.231859857150E+03   -0.20015E-02   -0.19940E-02  8320   0.372E-01 0.895E-04
CGA:   7    -0.231861722519E+03   -0.18654E-02   -0.18686E-02  8320   0.675E-02 0.111E-03
CGA:   8    -0.231862433718E+03   -0.71120E-03   -0.71108E-03  8320   0.453E-02 0.270E-05
CGA:   9    -0.231862575393E+03   -0.14167E-03   -0.14130E-03  8320   0.298E-02 0.401E-05
CGA:  10    -0.231862760972E+03   -0.18558E-03   -0.18558E-03  8320   0.890E-03-0.719E-06
CGA:  11    -0.231862840925E+03   -0.79954E-04   -0.79878E-04  8320   0.627E-03 0.242E-05
CGA:  12    -0.231862883394E+03   -0.42468E-04   -0.42482E-04  8320   0.655E-03-0.194E-05
CGA:  13    -0.231862901557E+03   -0.18164E-04   -0.18153E-04  8320   0.177E-03-0.150E-06
CGA:  14    -0.231862921216E+03   -0.19659E-04   -0.19634E-04  8320   0.116E-03 0.484E-06
CGA:  15    -0.231862933188E+03   -0.11972E-04   -0.12001E-04  8320   0.713E-04-0.728E-06
CGA:  16    -0.231862935488E+03   -0.22999E-05   -0.23068E-05  8320   0.577E-04 0.161E-06
  12 F= -.23186294E+03 E0= -.23184876E+03  d E =0.137125E-02  mag=    -5.1117
       N       E                     dE             d eps       ncg     rms          ort
SDA:   1    -0.231808312144E+03    0.54621E-01    0.00000E+00  8320   0.182E+00 0.000E+00
CGA:   2    -0.231829937714E+03   -0.21626E-01   -0.21475E-01  8320   0.175E+00 0.268E-02
CGA:   3    -0.231846816046E+03   -0.16878E-01   -0.16959E-01  8320   0.913E-01-0.233E-02
CGA:   4    -0.231851456787E+03   -0.46407E-02   -0.46599E-02  8320   0.115E+00 0.194E-03
CGA:   5    -0.231856480808E+03   -0.50240E-02   -0.50309E-02  8320   0.375E-01-0.977E-05
CGA:   6    -0.231858994446E+03   -0.25136E-02   -0.25136E-02  8320   0.109E-01-0.872E-04
CGA:   7    -0.231859670169E+03   -0.67572E-03   -0.67565E-03  8320   0.129E-01-0.427E-05
CGA:   8    -0.231860099328E+03   -0.42916E-03   -0.42988E-03  8320   0.352E-02-0.490E-05
CGA:   9    -0.231860374628E+03   -0.27530E-03   -0.27552E-03  8320   0.160E-02-0.116E-04
CGA:  10    -0.231860461131E+03   -0.86502E-04   -0.86619E-04  8320   0.152E-02 0.362E-05
CGA:  11    -0.231860524044E+03   -0.62914E-04   -0.62873E-04  8320   0.894E-03-0.495E-06
CGA:  12    -0.231860578564E+03   -0.54520E-04   -0.54518E-04  8320   0.296E-03-0.827E-06
CGA:  13    -0.231860600499E+03   -0.21935E-04   -0.21937E-04  8320   0.350E-03-0.235E-06
CGA:  14    -0.231860612315E+03   -0.11816E-04   -0.11839E-04  8320   0.160E-03 0.154E-06
CGA:  15    -0.231860627950E+03   -0.15635E-04   -0.15653E-04  8320   0.712E-04-0.510E-06
CGA:  16    -0.231860631676E+03   -0.37263E-05   -0.37292E-05  8320   0.912E-04 0.219E-06
  13 F= -.23186063E+03 E0= -.23184647E+03  d E =0.230381E-02  mag=    -5.1129
       N       E                     dE             d eps       ncg     rms          ort
SDA:   1    -0.231846055200E+03    0.14573E-01    0.00000E+00  8320   0.101E+00 0.000E+00
CGA:   2    -0.231848810269E+03   -0.27551E-02   -0.27339E-02  8320   0.505E-01 0.476E-03
CGA:   3    -0.231852014418E+03   -0.32041E-02   -0.32046E-02  8320   0.437E-01-0.156E-03
CGA:   4    -0.231856482402E+03   -0.44680E-02   -0.44645E-02  8320   0.138E-01 0.774E-04
CGA:   5    -0.231857705861E+03   -0.12235E-02   -0.12248E-02  8320   0.841E-02-0.435E-04
CGA:   6    -0.231858338306E+03   -0.63244E-03   -0.63227E-03  8320   0.692E-02 0.107E-04
CGA:   7    -0.231858533187E+03   -0.19488E-03   -0.19501E-03  8320   0.243E-02-0.198E-05
CGA:   8    -0.231858667173E+03   -0.13399E-03   -0.13416E-03  8320   0.962E-03 0.947E-05
CGA:   9    -0.231858749544E+03   -0.82371E-04   -0.82550E-04  8320   0.448E-03-0.665E-05
CGA:  10    -0.231858784710E+03   -0.35166E-04   -0.35142E-04  8320   0.256E-03 0.131E-05
CGA:  11    -0.231858793459E+03   -0.87489E-05   -0.87412E-05  8320   0.203E-03-0.189E-06
CGA:  12    -0.231858810473E+03   -0.17014E-04   -0.17018E-04  8320   0.606E-04-0.203E-06
CGA:  13    -0.231858815854E+03   -0.53807E-05   -0.53698E-05  8320   0.527E-04 0.450E-06
  14 F= -.23185882E+03 E0= -.23184467E+03  d E =0.181582E-02  mag=    -5.1133
       N       E                     dE             d eps       ncg     rms          ort
SDA:   1    -0.231818298645E+03    0.40512E-01    0.00000E+00  8320   0.384E+00 0.000E+00
CGA:   2    -0.231825762725E+03   -0.74641E-02   -0.77470E-02  8320   0.101E+00-0.109E-01
CGA:   3    -0.231845203456E+03   -0.19441E-01   -0.19410E-01  8320   0.929E-01 0.267E-03
CGA:   4    -0.231849321916E+03   -0.41185E-02   -0.41110E-02  8320   0.712E-01 0.185E-04
CGA:   5    -0.231852099664E+03   -0.27777E-02   -0.27556E-02  8320   0.284E-01 0.186E-03
CGA:   6    -0.231854450614E+03   -0.23510E-02   -0.23496E-02  8320   0.135E-01 0.619E-04
CGA:   7    -0.231855028152E+03   -0.57754E-03   -0.57676E-03  8320   0.859E-02 0.463E-05
CGA:   8    -0.231855351012E+03   -0.32286E-03   -0.32412E-03  8320   0.355E-02-0.728E-05
CGA:   9    -0.231855598370E+03   -0.24736E-03   -0.24760E-03  8320   0.165E-02-0.275E-04
CGA:  10    -0.231855685873E+03   -0.87502E-04   -0.87574E-04  8320   0.165E-02 0.289E-05
CGA:  11    -0.231855746635E+03   -0.60763E-04   -0.60749E-04  8320   0.418E-03 0.603E-06
CGA:  12    -0.231855784622E+03   -0.37986E-04   -0.38018E-04  8320   0.457E-03-0.110E-05
CGA:  13    -0.231855803523E+03   -0.18902E-04   -0.18893E-04  8320   0.304E-03-0.272E-06
CGA:  14    -0.231855816722E+03   -0.13199E-04   -0.13228E-04  8320   0.867E-04 0.854E-06
CGA:  15    -0.231855825418E+03   -0.86961E-05   -0.87249E-05  8320   0.133E-03-0.751E-06
  15 F= -.23185583E+03 E0= -.23184169E+03  d E =0.299044E-02  mag=    -5.1132
       N       E                     dE             d eps       ncg     rms          ort
SDA:   1    -0.231835386615E+03    0.20430E-01    0.00000E+00  8320   0.218E+00 0.000E+00
CGA:   2    -0.231839601752E+03   -0.42151E-02   -0.42688E-02  8320   0.478E-01-0.217E-02
CGA:   3    -0.231846604511E+03   -0.70028E-02   -0.70721E-02  8320   0.658E-01-0.861E-03
CGA:   4    -0.231850629730E+03   -0.40252E-02   -0.40303E-02  8320   0.258E-01 0.886E-03
CGA:   5    -0.231851702781E+03   -0.10731E-02   -0.10694E-02  8320   0.220E-01 0.115E-04
CGA:   6    -0.231852739787E+03   -0.10370E-02   -0.10370E-02  8320   0.745E-02-0.279E-05
CGA:   7    -0.231853334843E+03   -0.59506E-03   -0.59524E-03  8320   0.368E-02-0.809E-05
CGA:   8    -0.231853514013E+03   -0.17917E-03   -0.17924E-03  8320   0.231E-02 0.170E-06
CGA:   9    -0.231853587553E+03   -0.73540E-04   -0.73313E-04  8320   0.915E-03 0.164E-05
CGA:  10    -0.231853672026E+03   -0.84474E-04   -0.84453E-04  8320   0.444E-03 0.680E-06
CGA:  11    -0.231853700450E+03   -0.28424E-04   -0.28423E-04  8320   0.407E-03 0.768E-06
CGA:  12    -0.231853713067E+03   -0.12617E-04   -0.12644E-04  8320   0.152E-03 0.473E-06
CGA:  13    -0.231853728710E+03   -0.15643E-04   -0.15670E-04  8320   0.884E-04-0.640E-06
CGA:  14    -0.231853734295E+03   -0.55843E-05   -0.55841E-05  8320   0.107E-03 0.296E-06
  16 F= -.23185373E+03 E0= -.23183961E+03  d E =0.209112E-02  mag=    -5.1117
       N       E                     dE             d eps       ncg     rms          ort
SDA:   1    -0.231712520529E+03    0.14121E+00    0.00000E+00  8320   0.488E+00 0.000E+00
CGA:   2    -0.231740157672E+03   -0.27637E-01   -0.27582E-01  8320   0.103E+01-0.404E-02
CGA:   3    -0.231817322141E+03   -0.77164E-01   -0.77135E-01  8320   0.283E+00 0.147E-02
CGA:   4    -0.231838956140E+03   -0.21634E-01   -0.21625E-01  8320   0.162E+00 0.445E-03
CGA:   5    -0.231850499092E+03   -0.11543E-01   -0.11599E-01  8320   0.151E+00-0.410E-02
CGA:   6    -0.231854921566E+03   -0.44225E-02   -0.44714E-02  8320   0.589E-01-0.870E-03
CGA:   7    -0.231857786735E+03   -0.28652E-02   -0.28640E-02  8320   0.146E-01-0.121E-04
CGA:   8    -0.231859458672E+03   -0.16719E-02   -0.16791E-02  8320   0.762E-02-0.129E-03
CGA:   9    -0.231859962054E+03   -0.50338E-03   -0.50319E-03  8320   0.313E-02 0.413E-04
CGA:  10    -0.231860170304E+03   -0.20825E-03   -0.20825E-03  8320   0.463E-02 0.572E-06
CGA:  11    -0.231860336753E+03   -0.16645E-03   -0.16582E-03  8320   0.133E-02 0.346E-05
CGA:  12    -0.231860441383E+03   -0.10463E-03   -0.10459E-03  8320   0.515E-03 0.233E-05
CGA:  13    -0.231860491887E+03   -0.50503E-04   -0.50535E-04  8320   0.450E-03-0.793E-06
CGA:  14    -0.231860517159E+03   -0.25272E-04   -0.25291E-04  8320   0.499E-03 0.150E-05
CGA:  15    -0.231860535454E+03   -0.18296E-04   -0.18297E-04  8320   0.167E-03 0.408E-06
CGA:  16    -0.231860548374E+03   -0.12920E-04   -0.12927E-04  8320   0.115E-03-0.428E-06
CGA:  17    -0.231860562671E+03   -0.14296E-04   -0.14293E-04  8320   0.109E-03 0.536E-07
CGA:  18    -0.231860566174E+03   -0.35033E-05   -0.35098E-05  8320   0.713E-04 0.129E-06
  17 F= -.23186057E+03 E0= -.23184641E+03  d E =-.683188E-02  mag=    -5.1129
       N       E                     dE             d eps       ncg     rms          ort
SDA:   1    -0.231779071836E+03    0.81491E-01    0.00000E+00  8320   0.224E+00 0.000E+00
CGA:   2    -0.231809043538E+03   -0.29972E-01   -0.30200E-01  8320   0.435E+00-0.354E-02
CGA:   3    -0.231834603094E+03   -0.25560E-01   -0.25497E-01  8320   0.238E+00-0.217E-02
CGA:   4    -0.231841450221E+03   -0.68471E-02   -0.71291E-02  8320   0.104E+00-0.533E-02
CGA:   5    -0.231850993221E+03   -0.95430E-02   -0.95835E-02  8320   0.524E-01-0.120E-02
CGA:   6    -0.231853142562E+03   -0.21493E-02   -0.21598E-02  8320   0.346E-01-0.432E-04
CGA:   7    -0.231854480647E+03   -0.13381E-02   -0.13380E-02  8320   0.117E-01 0.582E-05
CGA:   8    -0.231855304620E+03   -0.82397E-03   -0.82411E-03  8320   0.721E-02-0.159E-04
CGA:   9    -0.231855592707E+03   -0.28809E-03   -0.28758E-03  8320   0.505E-02 0.485E-06
CGA:  10    -0.231855834421E+03   -0.24171E-03   -0.24184E-03  8320   0.132E-02 0.200E-05
CGA:  11    -0.231855936240E+03   -0.10182E-03   -0.10184E-03  8320   0.199E-02-0.127E-05
CGA:  12    -0.231856014828E+03   -0.78589E-04   -0.78605E-04  8320   0.737E-03 0.556E-06
CGA:  13    -0.231856051217E+03   -0.36389E-04   -0.36352E-04  8320   0.293E-03-0.111E-05
CGA:  14    -0.231856069701E+03   -0.18483E-04   -0.18482E-04  8320   0.382E-03 0.112E-05
CGA:  15    -0.231856087565E+03   -0.17864E-04   -0.17861E-04  8320   0.189E-03-0.576E-07
CGA:  16    -0.231856099214E+03   -0.11649E-04   -0.11649E-04  8320   0.913E-04-0.600E-06
CGA:  17    -0.231856103220E+03   -0.40066E-05   -0.40050E-05  8320   0.915E-04-0.620E-07
  18 F= -.23185610E+03 E0= -.23184197E+03  d E =0.446295E-02  mag=    -5.1130
       N       E                     dE             d eps       ncg     rms          ort
SDA:   1    -0.231843763930E+03    0.12335E-01    0.00000E+00  8320   0.156E+00 0.000E+00
CGA:   2    -0.231846724738E+03   -0.29608E-02   -0.30569E-02  8320   0.313E-01-0.373E-02
CGA:   3    -0.231849580306E+03   -0.28556E-02   -0.28516E-02  8320   0.322E-01 0.104E-03
CGA:   4    -0.231852724968E+03   -0.31447E-02   -0.31471E-02  8320   0.255E-01-0.595E-04
CGA:   5    -0.231853451746E+03   -0.72678E-03   -0.72143E-03  8320   0.989E-02 0.103E-03
CGA:   6    -0.231854018473E+03   -0.56673E-03   -0.56679E-03  8320   0.401E-02 0.573E-05
CGA:   7    -0.231854387938E+03   -0.36946E-03   -0.36969E-03  8320   0.300E-02-0.624E-05
CGA:   8    -0.231854476162E+03   -0.88224E-04   -0.88223E-04  8320   0.118E-02 0.179E-06
CGA:   9    -0.231854536132E+03   -0.59971E-04   -0.59900E-04  8320   0.480E-03-0.239E-05
CGA:  10    -0.231854575118E+03   -0.38986E-04   -0.38888E-04  8320   0.365E-03 0.417E-05
CGA:  11    -0.231854590232E+03   -0.15114E-04   -0.15109E-04  8320   0.262E-03-0.192E-06
CGA:  12    -0.231854601239E+03   -0.11006E-04   -0.11003E-04  8320   0.780E-04-0.288E-06
CGA:  13    -0.231854609294E+03   -0.80550E-05   -0.80530E-05  8320   0.705E-04 0.406E-07
  19 F= -.23185461E+03 E0= -.23184048E+03  d E =0.149393E-02  mag=    -5.1128
       N       E                     dE             d eps       ncg     rms          ort
SDA:   1    -0.231720389064E+03    0.13421E+00    0.00000E+00  8320   0.726E+00 0.000E+00
CGA:   2    -0.231739544881E+03   -0.19156E-01   -0.19694E-01  8320   0.465E+00-0.121E-01
CGA:   3    -0.231803916294E+03   -0.64371E-01   -0.64347E-01  8320   0.441E+00 0.241E-03
CGA:   4    -0.231831711047E+03   -0.27795E-01   -0.27795E-01  8320   0.124E+00-0.507E-03
CGA:   5    -0.231837991419E+03   -0.62804E-02   -0.62486E-02  8320   0.122E+00-0.629E-03
CGA:   6    -0.231842818570E+03   -0.48272E-02   -0.48406E-02  8320   0.589E-01-0.382E-04
CGA:   7    -0.231846706329E+03   -0.38878E-02   -0.38883E-02  8320   0.132E-01-0.568E-04
CGA:   8    -0.231847526756E+03   -0.82043E-03   -0.82046E-03  8320   0.968E-02-0.179E-04
CGA:   9    -0.231847959030E+03   -0.43227E-03   -0.43207E-03  8320   0.903E-02-0.179E-05
CGA:  10    -0.231848366178E+03   -0.40715E-03   -0.40879E-03  8320   0.168E-02 0.234E-04
CGA:  11    -0.231848556920E+03   -0.19074E-03   -0.19123E-03  8320   0.117E-02-0.879E-05
CGA:  12    -0.231848622897E+03   -0.65978E-04   -0.66017E-04  8320   0.138E-02 0.352E-05
CGA:  13    -0.231848672802E+03   -0.49905E-04   -0.49926E-04  8320   0.380E-03 0.293E-06
CGA:  14    -0.231848704200E+03   -0.31398E-04   -0.31437E-04  8320   0.209E-03-0.171E-05
CGA:  15    -0.231848721093E+03   -0.16893E-04   -0.16883E-04  8320   0.318E-03 0.519E-06
CGA:  16    -0.231848733578E+03   -0.12485E-04   -0.12515E-04  8320   0.172E-03 0.816E-06
CGA:  17    -0.231848743167E+03   -0.95890E-05   -0.95864E-05  8320   0.647E-04-0.273E-06
  20 F= -.23184874E+03 E0= -.23183464E+03  d E =0.586613E-02  mag=    -5.1132
       N       E                     dE             d eps       ncg     rms          ort
SDA:   1    -0.231747347173E+03    0.10139E+00    0.00000E+00  8320   0.746E+00 0.000E+00
CGA:   2    -0.231764486549E+03   -0.17139E-01   -0.17764E-01  8320   0.338E+00-0.182E-01
CGA:   3    -0.231811672294E+03   -0.47186E-01   -0.47277E-01  8320   0.193E+00-0.119E-02
CGA:   4    -0.231823316139E+03   -0.11644E-01   -0.11662E-01  8320   0.202E+00 0.132E-02
CGA:   5    -0.231831687552E+03   -0.83714E-02   -0.83450E-02  8320   0.128E+00 0.107E-03
CGA:   6    -0.231839278213E+03   -0.75907E-02   -0.75919E-02  8320   0.312E-01 0.973E-04
CGA:   7    -0.231841148863E+03   -0.18706E-02   -0.18686E-02  8320   0.295E-01-0.184E-03
CGA:   8    -0.231842186286E+03   -0.10374E-02   -0.10408E-02  8320   0.125E-01-0.304E-04
CGA:   9    -0.231842976902E+03   -0.79062E-03   -0.79062E-03  8320   0.506E-02-0.815E-05
CGA:  10    -0.231843238946E+03   -0.26204E-03   -0.26206E-03  8320   0.362E-02-0.194E-05
CGA:  11    -0.231843381138E+03   -0.14219E-03   -0.14158E-03  8320   0.237E-02-0.522E-06
CGA:  12    -0.231843565951E+03   -0.18481E-03   -0.18453E-03  8320   0.728E-03 0.132E-04
CGA:  13    -0.231843605757E+03   -0.39806E-04   -0.39786E-04  8320   0.934E-03-0.164E-05
CGA:  14    -0.231843649643E+03   -0.43886E-04   -0.43886E-04  8320   0.394E-03-0.219E-06
CGA:  15    -0.231843685634E+03   -0.35990E-04   -0.35950E-04  8320   0.291E-03 0.129E-05
CGA:  16    -0.231843696815E+03   -0.11181E-04   -0.11185E-04  8320   0.207E-03 0.686E-07
CGA:  17    -0.231843708676E+03   -0.11861E-04   -0.11855E-04  8320   0.133E-03-0.110E-05
CGA:  18    -0.231843721639E+03   -0.12963E-04   -0.12904E-04  8320   0.134E-03 0.159E-05
CGA:  19    -0.231843726334E+03   -0.46954E-05   -0.47008E-05  8320   0.717E-04 0.184E-06
  21 F= -.23184373E+03 E0= -.23182962E+03  d E =0.501683E-02  mag=    -5.1134
       N       E                     dE             d eps       ncg     rms          ort
SDA:   1    -0.231834997860E+03    0.87238E-02    0.00000E+00  8320   0.102E+00 0.000E+00
CGA:   2    -0.231837510650E+03   -0.25128E-02   -0.25574E-02  8320   0.345E-01-0.119E-02
CGA:   3    -0.231839150580E+03   -0.16399E-02   -0.16314E-02  8320   0.262E-01-0.180E-03
CGA:   4    -0.231841804460E+03   -0.26539E-02   -0.26367E-02  8320   0.127E-01 0.371E-03
CGA:   5    -0.231842841688E+03   -0.10372E-02   -0.10398E-02  8320   0.620E-02-0.999E-04
CGA:   6    -0.231843279272E+03   -0.43758E-03   -0.43712E-03  8320   0.870E-02 0.338E-04
CGA:   7    -0.231843549582E+03   -0.27031E-03   -0.27041E-03  8320   0.172E-02-0.296E-05
CGA:   8    -0.231843672258E+03   -0.12268E-03   -0.12274E-03  8320   0.696E-03-0.508E-05
CGA:   9    -0.231843723454E+03   -0.51195E-04   -0.51185E-04  8320   0.714E-03 0.796E-06
CGA:  10    -0.231843745892E+03   -0.22438E-04   -0.22488E-04  8320   0.286E-03 0.433E-06
CGA:  11    -0.231843764065E+03   -0.18174E-04   -0.18177E-04  8320   0.110E-03-0.802E-06
CGA:  12    -0.231843773536E+03   -0.94708E-05   -0.94559E-05  8320   0.112E-03 0.546E-06
  22 F= -.23184377E+03 E0= -.23182965E+03  d E =-.472018E-04  mag=    -5.1127
       N       E                     dE             d eps       ncg     rms          ort
SDA:   1    -0.231832514543E+03    0.11250E-01    0.00000E+00  8320   0.343E+00 0.000E+00
CGA:   2    -0.231838461080E+03   -0.59465E-02   -0.57988E-02  8320   0.250E-01 0.684E-02
CGA:   3    -0.231840034009E+03   -0.15729E-02   -0.15717E-02  8320   0.181E-01 0.219E-03
CGA:   4    -0.231841658263E+03   -0.16243E-02   -0.16237E-02  8320   0.236E-01 0.156E-04
CGA:   5    -0.231842378439E+03   -0.72018E-03   -0.71645E-03  8320   0.113E-01 0.566E-04
CGA:   6    -0.231843044916E+03   -0.66648E-03   -0.66648E-03  8320   0.388E-02 0.569E-04
CGA:   7    -0.231843381707E+03   -0.33679E-03   -0.33692E-03  8320   0.575E-02-0.445E-05
CGA:   8    -0.231843529041E+03   -0.14733E-03   -0.14674E-03  8320   0.115E-02 0.104E-04
CGA:   9    -0.231843618941E+03   -0.89900E-04   -0.89830E-04  8320   0.530E-03 0.293E-05
CGA:  10    -0.231843646393E+03   -0.27452E-04   -0.27444E-04  8320   0.597E-03-0.102E-05
CGA:  11    -0.231843667000E+03   -0.20607E-04   -0.20541E-04  8320   0.165E-03-0.111E-05
CGA:  12    -0.231843679358E+03   -0.12358E-04   -0.12335E-04  8320   0.106E-03 0.128E-05
CGA:  13    -0.231843685664E+03   -0.63054E-05   -0.63051E-05  8320   0.117E-03 0.203E-06
  23 F= -.23184369E+03 E0= -.23182956E+03  d E =0.878724E-04  mag=    -5.1135
       N       E                     dE             d eps       ncg     rms          ort
SDA:   1    -0.231823595835E+03    0.20084E-01    0.00000E+00  8320   0.109E+00 0.000E+00
CGA:   2    -0.231827143493E+03   -0.35477E-02   -0.34330E-02  8320   0.715E-01 0.154E-02
CGA:   3    -0.231831781434E+03   -0.46379E-02   -0.46340E-02  8320   0.783E-01 0.311E-03
CGA:   4    -0.231837752051E+03   -0.59706E-02   -0.59513E-02  8320   0.268E-01 0.752E-03
CGA:   5    -0.231839477351E+03   -0.17253E-02   -0.17274E-02  8320   0.266E-01-0.195E-03
CGA:   6    -0.231840260727E+03   -0.78338E-03   -0.78357E-03  8320   0.105E-01-0.217E-05
CGA:   7    -0.231841077163E+03   -0.81644E-03   -0.81585E-03  8320   0.296E-02 0.224E-04
CGA:   8    -0.231841289701E+03   -0.21254E-03   -0.21277E-03  8320   0.309E-02-0.127E-04
CGA:   9    -0.231841371503E+03   -0.81802E-04   -0.81779E-04  8320   0.898E-03-0.214E-06
CGA:  10    -0.231841455516E+03   -0.84013E-04   -0.83937E-04  8320   0.404E-03 0.201E-05
CGA:  11    -0.231841483290E+03   -0.27774E-04   -0.27798E-04  8320   0.396E-03-0.214E-05
CGA:  12    -0.231841495838E+03   -0.12548E-04   -0.12548E-04  8320   0.206E-03 0.195E-07
CGA:  13    -0.231841509797E+03   -0.13959E-04   -0.13951E-04  8320   0.865E-04 0.768E-06
CGA:  14    -0.231841516705E+03   -0.69078E-05   -0.69149E-05  8320   0.618E-04-0.324E-06
  24 F= -.23184152E+03 E0= -.23182740E+03  d E =0.216896E-02  mag=    -5.1143
       N       E                     dE             d eps       ncg     rms          ort
SDA:   1    -0.222992676057E+03    0.88488E+01    0.00000E+00  8320   0.320E+02 0.000E+00
CGA:   2    -0.225200605717E+03   -0.22079E+01   -0.21580E+01  8320   0.508E+02 0.328E+01
CGA:   3    -0.227531417842E+03   -0.23308E+01   -0.19808E+01  8320   0.487E+02 0.122E+01
CGA:   4    -0.229217132508E+03   -0.16857E+01   -0.17539E+01  8320   0.237E+02-0.514E-01
CGA:   5    -0.230097577566E+03   -0.88045E+00   -0.89074E+00  8320   0.138E+02-0.657E-01
CGA:   6    -0.230955194567E+03   -0.85762E+00   -0.89783E+00  8320   0.134E+02-0.301E+01
CGA:   7    -0.231309896190E+03   -0.35470E+00   -0.35896E+00  8320   0.397E+01-0.583E-01
CGA:   8    -0.231515310070E+03   -0.20541E+00   -0.20550E+00  8320   0.168E+01 0.153E-01
CGA:   9    -0.231595722786E+03   -0.80413E-01   -0.80953E-01  8320   0.153E+01 0.286E-01
CGA:  10    -0.231660108848E+03   -0.64386E-01   -0.61626E-01  8320   0.755E+00-0.174E-01
CGA:  11    -0.231704538137E+03   -0.44429E-01   -0.44183E-01  8320   0.273E+00 0.259E-01
CGA:  12    -0.231716176100E+03   -0.11638E-01   -0.11620E-01  8320   0.276E+00-0.258E-03
CGA:  13    -0.231732222588E+03   -0.16046E-01   -0.15979E-01  8320   0.110E+00 0.824E-02
CGA:  14    -0.231741171694E+03   -0.89491E-02   -0.90034E-02  8320   0.101E+00-0.173E-02
CGA:  15    -0.231744293679E+03   -0.31220E-02   -0.31846E-02  8320   0.465E-01-0.484E-03
CGA:  16    -0.231747091857E+03   -0.27982E-02   -0.28019E-02  8320   0.334E-01-0.327E-03
CGA:  17    -0.231749719889E+03   -0.26280E-02   -0.25924E-02  8320   0.257E-01 0.118E-02
CGA:  18    -0.231750609681E+03   -0.88979E-03   -0.88485E-03  8320   0.135E-01 0.377E-04
CGA:  19    -0.231751521802E+03   -0.91212E-03   -0.90998E-03  8320   0.812E-02 0.110E-03
CGA:  20    -0.231752189645E+03   -0.66784E-03   -0.66880E-03  8320   0.103E-01-0.275E-04
CGA:  21    -0.231752544525E+03   -0.35488E-03   -0.35876E-03  8320   0.413E-02-0.890E-05
CGA:  22    -0.231752846622E+03   -0.30210E-03   -0.30251E-03  8320   0.239E-02-0.166E-04
CGA:  23    -0.231752988358E+03   -0.14174E-03   -0.14167E-03  8320   0.312E-02 0.118E-04
CGA:  24    -0.231753136202E+03   -0.14784E-03   -0.14785E-03  8320   0.128E-02 0.308E-05
CGA:  25    -0.231753241356E+03   -0.10515E-03   -0.10495E-03  8320   0.101E-02 0.687E-05
CGA:  26    -0.231753275644E+03   -0.34288E-04   -0.34292E-04  8320   0.584E-03 0.786E-06
CGA:  27    -0.231753336165E+03   -0.60521E-04   -0.60242E-04  8320   0.410E-03 0.581E-05
CGA:  28    -0.231753355929E+03   -0.19764E-04   -0.19770E-04  8320   0.413E-03 0.734E-06
CGA:  29    -0.231753377679E+03   -0.21750E-04   -0.21763E-04  8320   0.162E-03 0.220E-05
CGA:  30    -0.231753391498E+03   -0.13819E-04   -0.13773E-04  8320   0.229E-03 0.166E-05
CGA:  31    -0.231753401384E+03   -0.98864E-05   -0.99098E-05  8320   0.132E-03 0.125E-05
  25 F= -.23175340E+03 E0= -.23173952E+03  d E =0.881153E-01  mag=    -5.0876
       N       E                     dE             d eps       ncg     rms          ort
SDA:   1    -0.219157025036E+03    0.12596E+02    0.00000E+00  8320   0.538E+02 0.000E+00
CGA:   2    -0.222679234459E+03   -0.35222E+01   -0.36646E+01  8320   0.129E+03-0.862E+01
CGA:   3    -0.226368409442E+03   -0.36892E+01   -0.37276E+01  8320   0.294E+02-0.123E+01
CGA:   4    -0.227880995438E+03   -0.15126E+01   -0.15130E+01  8320   0.471E+02 0.558E-01
CGA:   5    -0.229355770245E+03   -0.14748E+01   -0.10818E+01  8320   0.141E+02 0.139E+02
CGA:   6    -0.229915380184E+03   -0.55961E+00   -0.47136E+00  8320   0.175E+02 0.275E+01
CGA:   7    -0.230367605877E+03   -0.45223E+00   -0.36304E+00  8320   0.236E+02 0.384E+01
CGA:   8    -0.230880848416E+03   -0.51324E+00   -0.59796E+00  8320   0.123E+02-0.250E+01
CGA:   9    -0.231137894854E+03   -0.25705E+00   -0.31651E+00  8320   0.127E+02-0.292E+00
CGA:  10    -0.231353176097E+03   -0.21528E+00   -0.17748E+00  8320   0.323E+01 0.203E+01
CGA:  11    -0.231431902605E+03   -0.78727E-01   -0.73228E-01  8320   0.338E+01 0.180E+00
CGA:  12    -0.231530742460E+03   -0.98840E-01   -0.94299E-01  8320   0.449E+01 0.670E-01
CGA:  13    -0.231594810869E+03   -0.64068E-01   -0.66833E-01  8320   0.203E+01-0.141E+00
CGA:  14    -0.231632340402E+03   -0.37530E-01   -0.40196E-01  8320   0.253E+01-0.709E-01
CGA:  15    -0.231694349305E+03   -0.62009E-01   -0.62733E-01  8320   0.162E+01-0.561E-02
CGA:  16    -0.231716355721E+03   -0.22006E-01   -0.22052E-01  8320   0.529E+00-0.252E-02
CGA:  17    -0.231730098124E+03   -0.13742E-01   -0.13549E-01  8320   0.718E+00 0.911E-03
CGA:  18    -0.231747824661E+03   -0.17727E-01   -0.17680E-01  8320   0.499E+00 0.592E-03
CGA:  19    -0.231756302962E+03   -0.84783E-02   -0.84491E-02  8320   0.357E+00 0.106E-02
CGA:  20    -0.231767533441E+03   -0.11230E-01   -0.11278E-01  8320   0.473E+00 0.236E-02
CGA:  21    -0.231775693000E+03   -0.81596E-02   -0.82539E-02  8320   0.187E+00-0.298E-02
CGA:  22    -0.231779983867E+03   -0.42909E-02   -0.43159E-02  8320   0.207E+00-0.772E-04
CGA:  23    -0.231786309081E+03   -0.63252E-02   -0.63722E-02  8320   0.182E+00 0.332E-02
CGA:  24    -0.231789783498E+03   -0.34744E-02   -0.34981E-02  8320   0.873E-01-0.402E-03
CGA:  25    -0.231792598924E+03   -0.28154E-02   -0.28137E-02  8320   0.866E-01-0.293E-03
CGA:  26    -0.231794290794E+03   -0.16919E-02   -0.16334E-02  8320   0.463E-01 0.129E-02
CGA:  27    -0.231795792595E+03   -0.15018E-02   -0.15025E-02  8320   0.755E-01 0.167E-03
CGA:  28    -0.231797803055E+03   -0.20105E-02   -0.20204E-02  8320   0.488E-01 0.349E-03
CGA:  29    -0.231798786138E+03   -0.98308E-03   -0.99367E-03  8320   0.366E-01-0.103E-03
CGA:  30    -0.231800098945E+03   -0.13128E-02   -0.13131E-02  8320   0.395E-01-0.618E-04
CGA:  31    -0.231800762362E+03   -0.66342E-03   -0.66218E-03  8320   0.115E-01 0.213E-04
SDA:  32    -0.231801057565E+03   -0.29520E-03   -0.29509E-03  8320   0.144E-01-0.745E-05
CGA:  33    -0.231801424375E+03   -0.36681E-03   -0.36726E-03  8320   0.720E-02 0.245E-04
CGA:  34    -0.231801924850E+03   -0.50048E-03   -0.49902E-03  8320   0.520E-02 0.391E-04
CGA:  35    -0.231802450760E+03   -0.52591E-03   -0.52679E-03  8320   0.273E-02-0.150E-04
CGA:  36    -0.231802660353E+03   -0.20959E-03   -0.20806E-03  8320   0.204E-02 0.392E-04
CGA:  37    -0.231802766704E+03   -0.10635E-03   -0.10642E-03  8320   0.200E-02-0.682E-05
CGA:  38    -0.231802836420E+03   -0.69717E-04   -0.69681E-04  8320   0.726E-03-0.743E-05
CGA:  39    -0.231802926596E+03   -0.90176E-04   -0.90381E-04  8320   0.930E-03-0.252E-05
CGA:  40    -0.231803025613E+03   -0.99017E-04   -0.98269E-04  8320   0.735E-03 0.123E-04
CGA:  41    -0.231803057410E+03   -0.31797E-04   -0.31802E-04  8320   0.770E-03 0.195E-05
CGA:  42    -0.231803095654E+03   -0.38245E-04   -0.38233E-04  8320   0.306E-03 0.229E-05
CGA:  43    -0.231803145166E+03   -0.49512E-04   -0.49665E-04  8320   0.209E-03-0.129E-05
CGA:  44    -0.231803154826E+03   -0.96592E-05   -0.96658E-05  8320   0.257E-03 0.939E-06
CGA:  45    -0.231803168963E+03   -0.14138E-04   -0.14133E-04  8320   0.137E-03 0.124E-05
CGA:  46    -0.231803177305E+03   -0.83412E-05   -0.83415E-05  8320   0.536E-04 0.194E-07
  26 F= -.23180318E+03 E0= -.23178916E+03  d E =-.497759E-01  mag=    -5.1246
       N       E                     dE             d eps       ncg     rms          ort
SDA:   1    -0.230477852382E+03    0.13253E+01    0.00000E+00  8320   0.503E+01 0.000E+00
CGA:   2    -0.230977701256E+03   -0.49985E+00   -0.50866E+00  8320   0.120E+02-0.178E+00
CGA:   3    -0.231296483911E+03   -0.31878E+00   -0.33240E+00  8320   0.266E+01-0.210E+00
CGA:   4    -0.231535959332E+03   -0.23948E+00   -0.23738E+00  8320   0.204E+01 0.571E-01
CGA:   5    -0.231707046119E+03   -0.17109E+00   -0.17363E+00  8320   0.201E+01-0.807E-01
CGA:   6    -0.231754534364E+03   -0.47488E-01   -0.48510E-01  8320   0.660E+00-0.260E-01
CGA:   7    -0.231804913362E+03   -0.50379E-01   -0.50212E-01  8320   0.219E+00 0.634E-02
CGA:   8    -0.231819107380E+03   -0.14194E-01   -0.14222E-01  8320   0.271E+00-0.262E-02
CGA:   9    -0.231827068272E+03   -0.79609E-02   -0.79386E-02  8320   0.771E-01 0.339E-03
CGA:  10    -0.231833017253E+03   -0.59490E-02   -0.59455E-02  8320   0.368E-01 0.138E-03
CGA:  11    -0.231835057439E+03   -0.20402E-02   -0.20396E-02  8320   0.477E-01-0.100E-03
CGA:  12    -0.231836815221E+03   -0.17578E-02   -0.17596E-02  8320   0.153E-01 0.721E-05
CGA:  13    -0.231837774885E+03   -0.95966E-03   -0.96115E-03  8320   0.788E-02-0.137E-03
CGA:  14    -0.231838337918E+03   -0.56303E-03   -0.56283E-03  8320   0.105E-01 0.122E-04
CGA:  15    -0.231838684635E+03   -0.34672E-03   -0.34948E-03  8320   0.455E-02-0.156E-04
CGA:  16    -0.231839003199E+03   -0.31856E-03   -0.31928E-03  8320   0.180E-02-0.367E-04
CGA:  17    -0.231839192218E+03   -0.18902E-03   -0.18870E-03  8320   0.175E-02 0.649E-05
CGA:  18    -0.231839270131E+03   -0.77912E-04   -0.77955E-04  8320   0.188E-02 0.154E-05
CGA:  19    -0.231839361234E+03   -0.91103E-04   -0.91064E-04  8320   0.517E-03-0.178E-05
CGA:  20    -0.231839421967E+03   -0.60733E-04   -0.60571E-04  8320   0.358E-03 0.275E-05
CGA:  21    -0.231839454321E+03   -0.32354E-04   -0.32374E-04  8320   0.473E-03-0.685E-06
CGA:  22    -0.231839468780E+03   -0.14459E-04   -0.14444E-04  8320   0.202E-03-0.325E-06
CGA:  23    -0.231839482520E+03   -0.13740E-04   -0.13724E-04  8320   0.115E-03 0.197E-05
CGA:  24    -0.231839493516E+03   -0.10996E-04   -0.11015E-04  8320   0.796E-04-0.525E-06
CGA:  25    -0.231839498562E+03   -0.50453E-05   -0.50454E-05  8320   0.720E-04 0.215E-07
  27 F= -.23183950E+03 E0= -.23182548E+03  d E =-.363213E-01  mag=    -5.1119
       N       E                     dE             d eps       ncg     rms          ort
SDA:   1    -0.231775182236E+03    0.64311E-01    0.00000E+00  8320   0.273E+00 0.000E+00
CGA:   2    -0.231794840035E+03   -0.19658E-01   -0.19558E-01  8320   0.408E+00 0.625E-02
CGA:   3    -0.231811697386E+03   -0.16857E-01   -0.16788E-01  8320   0.236E+00 0.861E-04
CGA:   4    -0.231824447484E+03   -0.12750E-01   -0.12772E-01  8320   0.848E-01 0.116E-02
CGA:   5    -0.231834296887E+03   -0.98494E-02   -0.98267E-02  8320   0.622E-01 0.400E-03
CGA:   6    -0.231838018851E+03   -0.37220E-02   -0.37214E-02  8320   0.352E-01-0.687E-04
CGA:   7    -0.231839126298E+03   -0.11074E-02   -0.11023E-02  8320   0.191E-01 0.726E-04
CGA:   8    -0.231840285608E+03   -0.11593E-02   -0.11597E-02  8320   0.642E-02 0.180E-03
CGA:   9    -0.231840851410E+03   -0.56580E-03   -0.56760E-03  8320   0.238E-02-0.566E-04
CGA:  10    -0.231841074646E+03   -0.22324E-03   -0.22264E-03  8320   0.150E-02 0.169E-04
CGA:  11    -0.231841176557E+03   -0.10191E-03   -0.10191E-03  8320   0.120E-02-0.145E-06
CGA:  12    -0.231841219312E+03   -0.42755E-04   -0.42684E-04  8320   0.795E-03 0.198E-06
CGA:  13    -0.231841264274E+03   -0.44962E-04   -0.44994E-04  8320   0.287E-03 0.310E-05
CGA:  14    -0.231841293766E+03   -0.29492E-04   -0.29454E-04  8320   0.190E-03 0.980E-06
CGA:  15    -0.231841312147E+03   -0.18382E-04   -0.18369E-04  8320   0.889E-04 0.421E-06
CGA:  16    -0.231841318353E+03   -0.62061E-05   -0.62061E-05  8320   0.121E-03 0.126E-07
  28 F= -.23184132E+03 E0= -.23182728E+03  d E =-.181979E-02  mag=    -5.1087
       N       E                     dE             d eps       ncg     rms          ort
SDA:   1    -0.231692018767E+03    0.14929E+00    0.00000E+00  8320   0.792E+00 0.000E+00
CGA:   2    -0.231719476215E+03   -0.27457E-01   -0.26274E-01  8320   0.692E+00 0.191E-01
CGA:   3    -0.231778064891E+03   -0.58589E-01   -0.58522E-01  8320   0.445E+00 0.256E-02
CGA:   4    -0.231805151912E+03   -0.27087E-01   -0.27165E-01  8320   0.190E+00 0.930E-02
CGA:   5    -0.231825505660E+03   -0.20354E-01   -0.20706E-01  8320   0.136E+00-0.774E-02
CGA:   6    -0.231831823893E+03   -0.63182E-02   -0.63583E-02  8320   0.126E+00 0.332E-03
CGA:   7    -0.231836022634E+03   -0.41987E-02   -0.41864E-02  8320   0.228E-01 0.164E-03
CGA:   8    -0.231838432782E+03   -0.24101E-02   -0.24140E-02  8320   0.164E-01-0.850E-04
CGA:   9    -0.231839121462E+03   -0.68868E-03   -0.68852E-03  8320   0.111E-01-0.911E-06
CGA:  10    -0.231839535606E+03   -0.41414E-03   -0.41812E-03  8320   0.435E-02-0.252E-04
CGA:  11    -0.231839895704E+03   -0.36010E-03   -0.36095E-03  8320   0.260E-02-0.321E-04
CGA:  12    -0.231840042625E+03   -0.14692E-03   -0.14699E-03  8320   0.263E-02 0.481E-05
CGA:  13    -0.231840139010E+03   -0.96385E-04   -0.96358E-04  8320   0.989E-03 0.152E-05
CGA:  14    -0.231840211280E+03   -0.72270E-04   -0.72237E-04  8320   0.590E-03 0.265E-05
CGA:  15    -0.231840252270E+03   -0.40990E-04   -0.40986E-04  8320   0.824E-03 0.799E-06
CGA:  16    -0.231840282589E+03   -0.30319E-04   -0.30383E-04  8320   0.251E-03 0.129E-05
CGA:  17    -0.231840301591E+03   -0.19002E-04   -0.19006E-04  8320   0.166E-03-0.174E-06
CGA:  18    -0.231840312432E+03   -0.10841E-04   -0.10838E-04  8320   0.267E-03 0.109E-05
CGA:  19    -0.231840324578E+03   -0.12146E-04   -0.12161E-04  8320   0.749E-04 0.872E-06
CGA:  20    -0.231840330150E+03   -0.55716E-05   -0.55614E-05  8320   0.640E-04 0.843E-06
  29 F= -.23184033E+03 E0= -.23182623E+03  d E =0.988203E-03  mag=    -5.1083
       N       E                     dE             d eps       ncg     rms          ort
SDA:   1    -0.231807262476E+03    0.33062E-01    0.00000E+00  8320   0.382E+00 0.000E+00
CGA:   2    -0.231814699666E+03   -0.74372E-02   -0.72028E-02  8320   0.784E-01 0.976E-02
CGA:   3    -0.231827637360E+03   -0.12938E-01   -0.12939E-01  8320   0.719E-01-0.713E-05
CGA:   4    -0.231831219110E+03   -0.35817E-02   -0.36130E-02  8320   0.584E-01 0.474E-03
CGA:   5    -0.231833393272E+03   -0.21742E-02   -0.21690E-02  8320   0.369E-01 0.380E-04
CGA:   6    -0.231835730613E+03   -0.23373E-02   -0.23374E-02  8320   0.146E-01-0.723E-04
CGA:   7    -0.231836842246E+03   -0.11116E-02   -0.11095E-02  8320   0.699E-02 0.111E-03
CGA:   8    -0.231837077494E+03   -0.23525E-03   -0.23442E-03  8320   0.511E-02 0.410E-05
CGA:   9    -0.231837378978E+03   -0.30148E-03   -0.30145E-03  8320   0.191E-02-0.973E-05
CGA:  10    -0.231837512187E+03   -0.13321E-03   -0.13316E-03  8320   0.721E-03 0.449E-05
CGA:  11    -0.231837569642E+03   -0.57454E-04   -0.57509E-04  8320   0.998E-03-0.255E-05
CGA:  12    -0.231837599399E+03   -0.29757E-04   -0.29763E-04  8320   0.351E-03 0.459E-06
CGA:  13    -0.231837629909E+03   -0.30510E-04   -0.30463E-04  8320   0.169E-03 0.184E-05
CGA:  14    -0.231837641688E+03   -0.11779E-04   -0.11784E-04  8320   0.125E-03-0.591E-06
CGA:  15    -0.231837650193E+03   -0.85056E-05   -0.85024E-05  8320   0.185E-03 0.548E-06
  30 F= -.23183765E+03 E0= -.23182353E+03  d E =0.267996E-02  mag=    -5.1104
       N       E                     dE             d eps       ncg     rms          ort
SDA:   1    -0.230674873780E+03    0.11628E+01    0.00000E+00  8320   0.381E+01 0.000E+00
CGA:   2    -0.231013300818E+03   -0.33843E+00   -0.33825E+00  8320   0.979E+01 0.105E-01
CGA:   3    -0.231407678884E+03   -0.39438E+00   -0.40171E+00  8320   0.252E+01-0.115E-02
CGA:   4    -0.231605918405E+03   -0.19824E+00   -0.20646E+00  8320   0.154E+01-0.337E+00
CGA:   5    -0.231695216864E+03   -0.89298E-01   -0.88605E-01  8320   0.118E+01 0.110E+00
CGA:   6    -0.231744241522E+03   -0.49025E-01   -0.48983E-01  8320   0.719E+00-0.147E-03
CGA:   7    -0.231774491529E+03   -0.30250E-01   -0.30365E-01  8320   0.188E+00 0.139E-03
CGA:   8    -0.231789780993E+03   -0.15289E-01   -0.15344E-01  8320   0.177E+00-0.199E-02
CGA:   9    -0.231795308813E+03   -0.55278E-02   -0.56256E-02  8320   0.755E-01-0.136E-02
CGA:  10    -0.231799038447E+03   -0.37296E-02   -0.37333E-02  8320   0.287E-01 0.103E-03
CGA:  11    -0.231801397024E+03   -0.23586E-02   -0.23594E-02  8320   0.319E-01-0.282E-04
CGA:  12    -0.231802429463E+03   -0.10324E-02   -0.10270E-02  8320   0.138E-01 0.728E-04
CGA:  13    -0.231803480534E+03   -0.10511E-02   -0.10495E-02  8320   0.705E-02 0.724E-04
CGA:  14    -0.231803853229E+03   -0.37270E-03   -0.37232E-03  8320   0.647E-02-0.163E-04
CGA:  15    -0.231804152930E+03   -0.29970E-03   -0.29998E-03  8320   0.477E-02 0.823E-05
CGA:  16    -0.231804454345E+03   -0.30141E-03   -0.30142E-03  8320   0.247E-02 0.210E-05
CGA:  17    -0.231804614076E+03   -0.15973E-03   -0.15971E-03  8320   0.236E-02 0.374E-05
CGA:  18    -0.231804703035E+03   -0.88959E-04   -0.88753E-04  8320   0.147E-02 0.199E-05
CGA:  19    -0.231804846084E+03   -0.14305E-03   -0.14259E-03  8320   0.936E-03 0.117E-04
CGA:  20    -0.231804897801E+03   -0.51718E-04   -0.51733E-04  8320   0.112E-02 0.301E-05
CGA:  21    -0.231804944842E+03   -0.47041E-04   -0.47125E-04  8320   0.348E-03 0.468E-05
CGA:  22    -0.231804985252E+03   -0.40410E-04   -0.40197E-04  8320   0.519E-03 0.376E-05
CGA:  23    -0.231805003059E+03   -0.17807E-04   -0.17897E-04  8320   0.238E-03 0.205E-05
CGA:  24    -0.231805016752E+03   -0.13693E-04   -0.13695E-04  8320   0.152E-03 0.558E-06
CGA:  25    -0.231805027258E+03   -0.10506E-04   -0.10508E-04  8320   0.116E-03-0.265E-06
CGA:  26    -0.231805031969E+03   -0.47114E-05   -0.47031E-05  8320   0.907E-04-0.438E-06
  31 F= -.23180503E+03 E0= -.23179088E+03  d E =0.326182E-01  mag=    -5.1226
       N       E                     dE             d eps       ncg     rms          ort
SDA:   1    -0.231322828329E+03    0.48220E+00    0.00000E+00  8320   0.193E+01 0.000E+00
CGA:   2    -0.231428458663E+03   -0.10563E+00   -0.10591E+00  8320   0.343E+01 0.204E-01
CGA:   3    -0.231644871867E+03   -0.21641E+00   -0.21675E+00  8320   0.127E+01-0.759E-01
CGA:   4    -0.231732023012E+03   -0.87151E-01   -0.85946E-01  8320   0.645E+00 0.829E-01
CGA:   5    -0.231763410571E+03   -0.31388E-01   -0.30528E-01  8320   0.634E+00-0.578E-02
CGA:   6    -0.231795296496E+03   -0.31886E-01   -0.31949E-01  8320   0.346E+00 0.239E-02
CGA:   7    -0.231813107523E+03   -0.17811E-01   -0.17915E-01  8320   0.652E-01 0.485E-02
CGA:   8    -0.231818277662E+03   -0.51701E-02   -0.51887E-02  8320   0.111E+00-0.710E-03
CGA:   9    -0.231821594884E+03   -0.33172E-02   -0.33279E-02  8320   0.273E-01-0.133E-03
CGA:  10    -0.231823365648E+03   -0.17708E-02   -0.17693E-02  8320   0.120E-01 0.141E-03
CGA:  11    -0.231824102640E+03   -0.73699E-03   -0.73756E-03  8320   0.158E-01-0.127E-03
CGA:  12    -0.231824653133E+03   -0.55049E-03   -0.55128E-03  8320   0.681E-02-0.105E-04
CGA:  13    -0.231825090859E+03   -0.43773E-03   -0.43735E-03  8320   0.296E-02 0.367E-04
CGA:  14    -0.231825275701E+03   -0.18484E-03   -0.18496E-03  8320   0.386E-02-0.176E-04
CGA:  15    -0.231825399623E+03   -0.12392E-03   -0.12395E-03  8320   0.144E-02-0.169E-05
CGA:  16    -0.231825551425E+03   -0.15180E-03   -0.15157E-03  8320   0.126E-02 0.465E-05
CGA:  17    -0.231825601495E+03   -0.50070E-04   -0.49982E-04  8320   0.105E-02-0.112E-05
CGA:  18    -0.231825645636E+03   -0.44140E-04   -0.44168E-04  8320   0.547E-03 0.404E-06
CGA:  19    -0.231825698247E+03   -0.52611E-04   -0.52514E-04  8320   0.463E-03 0.243E-05
CGA:  20    -0.231825718144E+03   -0.19897E-04   -0.19854E-04  8320   0.494E-03-0.207E-05
CGA:  21    -0.231825740733E+03   -0.22589E-04   -0.22554E-04  8320   0.184E-03-0.292E-05
CGA:  22    -0.231825756290E+03   -0.15557E-04   -0.15593E-04  8320   0.180E-03-0.143E-05
CGA:  23    -0.231825762760E+03   -0.64703E-05   -0.64351E-05  8320   0.138E-03-0.142E-05
  32 F= -.23182576E+03 E0= -.23181165E+03  d E =-.207308E-01  mag=    -5.1157
       N       E                     dE             d eps       ncg     rms          ort
SDA:   1    -0.231812824101E+03    0.12932E-01    0.00000E+00  8320   0.999E-01 0.000E+00
CGA:   2    -0.231816732033E+03   -0.39079E-02   -0.38853E-02  8320   0.520E-01 0.419E-05
CGA:   3    -0.231819099281E+03   -0.23672E-02   -0.23486E-02  8320   0.649E-01-0.391E-03
CGA:   4    -0.231823683722E+03   -0.45844E-02   -0.45673E-02  8320   0.240E-01 0.826E-03
CGA:   5    -0.231824999587E+03   -0.13159E-02   -0.13162E-02  8320   0.225E-01 0.454E-04
CGA:   6    -0.231825677820E+03   -0.67823E-03   -0.67651E-03  8320   0.881E-02 0.186E-04
CGA:   7    -0.231826446565E+03   -0.76874E-03   -0.76866E-03  8320   0.393E-02 0.316E-05
CGA:   8    -0.231826608683E+03   -0.16212E-03   -0.16236E-03  8320   0.303E-02 0.819E-05
CGA:   9    -0.231826712205E+03   -0.10352E-03   -0.10365E-03  8320   0.106E-02 0.581E-05
CGA:  10    -0.231826799677E+03   -0.87472E-04   -0.87251E-04  8320   0.512E-03 0.791E-05
CGA:  11    -0.231826824768E+03   -0.25091E-04   -0.25088E-04  8320   0.470E-03-0.376E-06
CGA:  12    -0.231826841356E+03   -0.16589E-04   -0.16532E-04  8320   0.216E-03-0.120E-05
CGA:  13    -0.231826858995E+03   -0.17639E-04   -0.17630E-04  8320   0.112E-03 0.264E-06
CGA:  14    -0.231826865904E+03   -0.69087E-05   -0.69137E-05  8320   0.108E-03-0.985E-06
  33 F= -.23182687E+03 E0= -.23181276E+03  d E =-.110314E-02  mag=    -5.1141
       N       E                     dE             d eps       ncg     rms          ort
SDA:   1    -0.231819040822E+03    0.78182E-02    0.00000E+00  8320   0.124E+00 0.000E+00
CGA:   2    -0.231821436992E+03   -0.23962E-02   -0.22940E-02  8320   0.177E-01 0.423E-02
CGA:   3    -0.231822541474E+03   -0.11045E-02   -0.11057E-02  8320   0.146E-01-0.114E-03
CGA:   4    -0.231823828556E+03   -0.12871E-02   -0.12808E-02  8320   0.165E-01 0.165E-03
CGA:   5    -0.231824265221E+03   -0.43667E-03   -0.43644E-03  8320   0.530E-02 0.683E-05
CGA:   6    -0.231824611268E+03   -0.34605E-03   -0.34618E-03  8320   0.330E-02-0.756E-05
CGA:   7    -0.231824904031E+03   -0.29276E-03   -0.29261E-03  8320   0.254E-02 0.451E-05
CGA:   8    -0.231824967089E+03   -0.63058E-04   -0.63052E-04  8320   0.856E-03-0.982E-06
CGA:   9    -0.231825028420E+03   -0.61331E-04   -0.61348E-04  8320   0.448E-03-0.116E-05
CGA:  10    -0.231825064542E+03   -0.36122E-04   -0.36228E-04  8320   0.196E-03-0.416E-05
CGA:  11    -0.231825071511E+03   -0.69688E-05   -0.69557E-05  8320   0.172E-03-0.552E-06
CGA:  12    -0.231825081678E+03   -0.10167E-04   -0.10166E-04  8320   0.550E-04 0.586E-06
CGA:  13    -0.231825088592E+03   -0.69138E-05   -0.68783E-05  8320   0.273E-04 0.514E-06
  34 F= -.23182509E+03 E0= -.23181099E+03  d E =0.177731E-02  mag=    -5.1141
       N       E                     dE             d eps       ncg     rms          ort
SDA:   1    -0.231816621641E+03    0.84600E-02    0.00000E+00  8320   0.151E+00 0.000E+00
CGA:   2    -0.231819192009E+03   -0.25704E-02   -0.25135E-02  8320   0.121E-01 0.272E-02
CGA:   3    -0.231821582661E+03   -0.23907E-02   -0.23911E-02  8320   0.171E-01-0.416E-05
CGA:   4    -0.231822251376E+03   -0.66871E-03   -0.67015E-03  8320   0.141E-01-0.764E-05
CGA:   5    -0.231822808510E+03   -0.55713E-03   -0.55687E-03  8320   0.410E-02-0.453E-05
CGA:   6    -0.231823131539E+03   -0.32303E-03   -0.32299E-03  8320   0.278E-02 0.152E-05
CGA:   7    -0.231823296557E+03   -0.16502E-03   -0.16502E-03  8320   0.203E-02 0.881E-07
CGA:   8    -0.231823352359E+03   -0.55802E-04   -0.55701E-04  8320   0.661E-03 0.245E-05
CGA:   9    -0.231823395942E+03   -0.43583E-04   -0.43550E-04  8320   0.286E-03 0.484E-05
CGA:  10    -0.231823420393E+03   -0.24451E-04   -0.24478E-04  8320   0.181E-03-0.106E-05
CGA:  11    -0.231823426365E+03   -0.59722E-05   -0.59624E-05  8320   0.127E-03-0.273E-06
  35 F= -.23182343E+03 E0= -.23180934E+03  d E =0.166223E-02  mag=    -5.1143
       N       E                     dE             d eps       ncg     rms          ort
SDA:   1    -0.231389455360E+03    0.43397E+00    0.00000E+00  8320   0.128E+01 0.000E+00
CGA:   2    -0.231554685856E+03   -0.16523E+00   -0.16073E+00  8320   0.166E+01 0.685E-01
CGA:   3    -0.231719556880E+03   -0.16487E+00   -0.17008E+00  8320   0.750E+00-0.142E+00
CGA:   4    -0.231765518084E+03   -0.45961E-01   -0.45847E-01  8320   0.344E+00 0.356E-01
CGA:   5    -0.231792731028E+03   -0.27213E-01   -0.27185E-01  8320   0.274E+00 0.177E-02
CGA:   6    -0.231800731728E+03   -0.80007E-02   -0.76758E-02  8320   0.106E+00 0.754E-02
CGA:   7    -0.231806732594E+03   -0.60009E-02   -0.60113E-02  8320   0.388E-01 0.430E-03
CGA:   8    -0.231809958448E+03   -0.32259E-02   -0.32201E-02  8320   0.296E-01 0.223E-03
CGA:   9    -0.231810818923E+03   -0.86048E-03   -0.85644E-03  8320   0.147E-01 0.821E-04
CGA:  10    -0.231811746084E+03   -0.92716E-03   -0.92715E-03  8320   0.648E-02 0.272E-04
CGA:  11    -0.231812299651E+03   -0.55357E-03   -0.55359E-03  8320   0.522E-02-0.181E-05
CGA:  12    -0.231812483863E+03   -0.18421E-03   -0.18423E-03  8320   0.328E-02-0.112E-05
CGA:  13    -0.231812625473E+03   -0.14161E-03   -0.14261E-03  8320   0.142E-02 0.700E-05
CGA:  14    -0.231812759818E+03   -0.13435E-03   -0.13473E-03  8320   0.851E-03-0.102E-04
CGA:  15    -0.231812812574E+03   -0.52755E-04   -0.52756E-04  8320   0.111E-02 0.147E-05
CGA:  16    -0.231812848991E+03   -0.36418E-04   -0.36640E-04  8320   0.329E-03 0.494E-06
CGA:  17    -0.231812885344E+03   -0.36353E-04   -0.36437E-04  8320   0.311E-03-0.167E-05
CGA:  18    -0.231812909199E+03   -0.23855E-04   -0.23819E-04  8320   0.222E-03 0.250E-05
CGA:  19    -0.231812917600E+03   -0.84010E-05   -0.84326E-05  8320   0.177E-03 0.915E-06
CGA:  20    -0.231812927806E+03   -0.10206E-04   -0.10205E-04  8320   0.103E-03 0.538E-08
CGA:  21    -0.231812938013E+03   -0.10206E-04   -0.10172E-04  8320   0.548E-04 0.901E-06
CGA:  22    -0.231812942495E+03   -0.44825E-05   -0.44790E-05  8320   0.339E-04 0.161E-06
  36 F= -.23181294E+03 E0= -.23179892E+03  d E =0.104839E-01  mag=    -5.1167
       N       E                     dE             d eps       ncg     rms          ort
SDA:   1    -0.231614455097E+03    0.19848E+00    0.00000E+00  8320   0.111E+01 0.000E+00
CGA:   2    -0.231650737060E+03   -0.36282E-01   -0.34718E-01  8320   0.939E+00 0.288E-01
CGA:   3    -0.231749749808E+03   -0.99013E-01   -0.99225E-01  8320   0.420E+00-0.481E-02
CGA:   4    -0.231780252695E+03   -0.30503E-01   -0.30447E-01  8320   0.304E+00 0.466E-02
CGA:   5    -0.231802765659E+03   -0.22513E-01   -0.22497E-01  8320   0.266E+00 0.134E-02
CGA:   6    -0.231810485034E+03   -0.77194E-02   -0.74834E-02  8320   0.103E+00 0.557E-02
CGA:   7    -0.231817172821E+03   -0.66878E-02   -0.66909E-02  8320   0.357E-01 0.176E-02
CGA:   8    -0.231820374946E+03   -0.32021E-02   -0.32035E-02  8320   0.322E-01-0.456E-04
CGA:   9    -0.231821223140E+03   -0.84819E-03   -0.84323E-03  8320   0.119E-01 0.120E-03
CGA:  10    -0.231822029217E+03   -0.80608E-03   -0.80528E-03  8320   0.639E-02 0.130E-03
CGA:  11    -0.231822511588E+03   -0.48237E-03   -0.48244E-03  8320   0.503E-02-0.455E-05
CGA:  12    -0.231822684183E+03   -0.17260E-03   -0.17227E-03  8320   0.330E-02 0.333E-05
CGA:  13    -0.231822843030E+03   -0.15885E-03   -0.15917E-03  8320   0.122E-02 0.701E-05
CGA:  14    -0.231822973589E+03   -0.13056E-03   -0.13049E-03  8320   0.121E-02 0.142E-05
CGA:  15    -0.231823012382E+03   -0.38793E-04   -0.38779E-04  8320   0.821E-03 0.396E-06
CGA:  16    -0.231823065277E+03   -0.52894E-04   -0.52889E-04  8320   0.338E-03 0.279E-05
CGA:  17    -0.231823091573E+03   -0.26296E-04   -0.26327E-04  8320   0.353E-03-0.178E-05
CGA:  18    -0.231823110039E+03   -0.18466E-04   -0.18459E-04  8320   0.437E-03-0.569E-06
CGA:  19    -0.231823127284E+03   -0.17245E-04   -0.17305E-04  8320   0.932E-04 0.596E-06
CGA:  20    -0.231823138184E+03   -0.10901E-04   -0.10939E-04  8320   0.119E-03-0.695E-06
CGA:  21    -0.231823142979E+03   -0.47952E-05   -0.47870E-05  8320   0.107E-03-0.317E-06
  37 F= -.23182314E+03 E0= -.23180908E+03  d E =-.102005E-01  mag=    -5.1140
       N       E                     dE             d eps       ncg     rms          ort
SDA:   1    -0.231789745273E+03    0.33393E-01    0.00000E+00  8320   0.160E+00 0.000E+00
CGA:   2    -0.231802110142E+03   -0.12365E-01   -0.12283E-01  8320   0.143E+00 0.391E-02
CGA:   3    -0.231815711117E+03   -0.13601E-01   -0.13727E-01  8320   0.622E-01-0.348E-02
CGA:   4    -0.231819589305E+03   -0.38782E-02   -0.38798E-02  8320   0.885E-01 0.831E-03
CGA:   5    -0.231823160884E+03   -0.35716E-02   -0.35670E-02  8320   0.361E-01 0.227E-04
CGA:   6    -0.231825287169E+03   -0.21263E-02   -0.21256E-02  8320   0.114E-01-0.658E-04
CGA:   7    -0.231826067923E+03   -0.78075E-03   -0.78077E-03  8320   0.128E-01-0.183E-05
CGA:   8    -0.231826468234E+03   -0.40031E-03   -0.40279E-03  8320   0.343E-02-0.359E-04
CGA:   9    -0.231826723485E+03   -0.25525E-03   -0.25592E-03  8320   0.182E-02-0.369E-04
[...]
CGA:  28    -0.231786868438E+03   -0.30365E-04   -0.30326E-04  8320   0.678E-03 0.359E-05
CGA:  29    -0.231786884107E+03   -0.15668E-04   -0.15755E-04  8320   0.202E-03 0.207E-05
CGA:  30    -0.231786896081E+03   -0.11974E-04   -0.11966E-04  8320   0.345E-03 0.678E-06
CGA:  31    -0.231786906979E+03   -0.10898E-04   -0.10894E-04  8320   0.200E-03 0.696E-07
SDA:  32    -0.231786916631E+03   -0.96519E-05   -0.96492E-05  8320   0.166E-03 0.144E-05
  92 F= -.23178692E+03 E0= -.23177296E+03  d E =0.187262E-01  mag=    -5.1165
       N       E                     dE             d eps       ncg     rms          ort
SDA:   1    -0.230095133745E+03    0.16918E+01    0.00000E+00  8320   0.494E+01 0.000E+00
CGA:   2    -0.230802072457E+03   -0.70694E+00   -0.67249E+00  8320   0.107E+02 0.426E+00
CGA:   3    -0.231190934401E+03   -0.38886E+00   -0.37526E+00  8320   0.345E+01 0.345E-01
CGA:   4    -0.231481045799E+03   -0.29011E+00   -0.29724E+00  8320   0.310E+01-0.175E+00
CGA:   5    -0.231635288229E+03   -0.15424E+00   -0.15421E+00  8320   0.236E+01 0.107E-01
CGA:   6    -0.231705618492E+03   -0.70330E-01   -0.74281E-01  8320   0.461E+00-0.182E-01
CGA:   7    -0.231743706455E+03   -0.38088E-01   -0.38921E-01  8320   0.556E+00-0.223E-01
CGA:   8    -0.231759164102E+03   -0.15458E-01   -0.15538E-01  8320   0.136E+00-0.928E-03
CGA:   9    -0.231769001477E+03   -0.98374E-02   -0.98381E-02  8320   0.725E-01-0.210E-04
CGA:  10    -0.231772437423E+03   -0.34359E-02   -0.34376E-02  8320   0.669E-01 0.174E-03
CGA:  11    -0.231775602911E+03   -0.31655E-02   -0.31612E-02  8320   0.329E-01-0.409E-03
CGA:  12    -0.231777419066E+03   -0.18162E-02   -0.18118E-02  8320   0.136E-01 0.590E-03
CGA:  13    -0.231778130836E+03   -0.71177E-03   -0.71179E-03  8320   0.133E-01-0.537E-04
CGA:  14    -0.231778737999E+03   -0.60716E-03   -0.60730E-03  8320   0.776E-02 0.123E-04
CGA:  15    -0.231779307058E+03   -0.56906E-03   -0.56903E-03  8320   0.273E-02 0.264E-05
CGA:  16    -0.231779419952E+03   -0.11289E-03   -0.11303E-03  8320   0.278E-02 0.594E-05
CGA:  17    -0.231779629809E+03   -0.20986E-03   -0.20987E-03  8320   0.175E-02-0.214E-07
CGA:  18    -0.231779750000E+03   -0.12019E-03   -0.12016E-03  8320   0.137E-02 0.218E-05
CGA:  19    -0.231779797038E+03   -0.47038E-04   -0.47000E-04  8320   0.732E-03 0.452E-06
CGA:  20    -0.231779855139E+03   -0.58101E-04   -0.57968E-04  8320   0.493E-03 0.485E-05
CGA:  21    -0.231779890195E+03   -0.35057E-04   -0.35045E-04  8320   0.731E-03 0.781E-06
CGA:  22    -0.231779919507E+03   -0.29312E-04   -0.29335E-04  8320   0.217E-03 0.121E-05
CGA:  23    -0.231779932219E+03   -0.12711E-04   -0.12718E-04  8320   0.160E-03-0.120E-05
CGA:  24    -0.231779943251E+03   -0.11032E-04   -0.11009E-04  8320   0.210E-03 0.146E-05
CGA:  25    -0.231779951886E+03   -0.86355E-05   -0.86436E-05  8320   0.808E-04 0.592E-06
  93 F= -.23177995E+03 E0= -.23176597E+03  d E =0.696475E-02  mag=    -5.1200
       N       E                     dE             d eps       ncg     rms          ort
SDA:   1    -0.231110844239E+03    0.66910E+00    0.00000E+00  8320   0.226E+01 0.000E+00
CGA:   2    -0.231340749215E+03   -0.22990E+00   -0.22948E+00  8320   0.602E+01 0.105E-01
CGA:   3    -0.231550629702E+03   -0.20988E+00   -0.20389E+00  8320   0.110E+01 0.558E-01
CGA:   4    -0.231670604648E+03   -0.11997E+00   -0.11271E+00  8320   0.819E+00 0.142E+00
CGA:   5    -0.231742705026E+03   -0.72100E-01   -0.76353E-01  8320   0.477E+00-0.150E+00
CGA:   6    -0.231764686405E+03   -0.21981E-01   -0.22100E-01  8320   0.239E+00 0.176E-01
CGA:   7    -0.231772760009E+03   -0.80736E-02   -0.80956E-02  8320   0.133E+00-0.299E-03
CGA:   8    -0.231780965287E+03   -0.82053E-02   -0.82011E-02  8320   0.602E-01 0.674E-03
CGA:   9    -0.231784559262E+03   -0.35940E-02   -0.35947E-02  8320   0.332E-01-0.359E-03
CGA:  10    -0.231785742062E+03   -0.11828E-02   -0.11870E-02  8320   0.223E-01-0.157E-04
CGA:  11    -0.231787470810E+03   -0.17287E-02   -0.17278E-02  8320   0.973E-02 0.402E-04
CGA:  12    -0.231787958032E+03   -0.48722E-03   -0.48742E-03  8320   0.752E-02 0.994E-05
CGA:  13    -0.231788276296E+03   -0.31826E-03   -0.31778E-03  8320   0.464E-02-0.356E-05
CGA:  14    -0.231788609435E+03   -0.33314E-03   -0.33223E-03  8320   0.287E-02 0.466E-04
CGA:  15    -0.231788760802E+03   -0.15137E-03   -0.15129E-03  8320   0.199E-02-0.462E-05
CGA:  16    -0.231788840527E+03   -0.79725E-04   -0.79791E-04  8320   0.131E-02 0.113E-05
CGA:  17    -0.231788948898E+03   -0.10837E-03   -0.10837E-03  8320   0.735E-03 0.883E-07
CGA:  18    -0.231788989804E+03   -0.40906E-04   -0.40914E-04  8320   0.857E-03 0.266E-05
CGA:  19    -0.231789028250E+03   -0.38446E-04   -0.38451E-04  8320   0.335E-03 0.625E-06
CGA:  20    -0.231789057432E+03   -0.29182E-04   -0.29170E-04  8320   0.335E-03 0.372E-06
CGA:  21    -0.231789071130E+03   -0.13697E-04   -0.13706E-04  8320   0.248E-03 0.438E-06
CGA:  22    -0.231789086240E+03   -0.15111E-04   -0.15103E-04  8320   0.110E-03 0.227E-05
CGA:  23    -0.231789093501E+03   -0.72607E-05   -0.72664E-05  8320   0.119E-03-0.622E-06
  94 F= -.23178909E+03 E0= -.23177511E+03  d E =-.914161E-02  mag=    -5.1192
       N       E                     dE             d eps       ncg     rms          ort
SDA:   1    -0.231469314353E+03    0.31977E+00    0.00000E+00  8320   0.133E+01 0.000E+00
CGA:   2    -0.231540441314E+03   -0.71127E-01   -0.71275E-01  8320   0.209E+01 0.149E-01
CGA:   3    -0.231654839956E+03   -0.11440E+00   -0.11371E+00  8320   0.131E+01-0.797E-01
CGA:   4    -0.231706460514E+03   -0.51621E-01   -0.54760E-01  8320   0.373E+00 0.478E-01
CGA:   5    -0.231767232741E+03   -0.60772E-01   -0.60839E-01  8320   0.154E+00-0.799E-03
CGA:   6    -0.231777207291E+03   -0.99745E-02   -0.99789E-02  8320   0.162E+00-0.695E-03
CGA:   7    -0.231782508326E+03   -0.53010E-02   -0.53417E-02  8320   0.691E-01-0.499E-03
CGA:   8    -0.231786439394E+03   -0.39311E-02   -0.39279E-02  8320   0.220E-01-0.401E-03
CGA:   9    -0.231788111459E+03   -0.16721E-02   -0.16675E-02  8320   0.125E-01 0.203E-03
CGA:  10    -0.231788959731E+03   -0.84827E-03   -0.84942E-03  8320   0.129E-01-0.110E-03
CGA:  11    -0.231789358644E+03   -0.39891E-03   -0.40009E-03  8320   0.470E-02-0.160E-04
CGA:  12    -0.231789659553E+03   -0.30091E-03   -0.30086E-03  8320   0.222E-02 0.857E-05
CGA:  13    -0.231789886335E+03   -0.22678E-03   -0.22701E-03  8320   0.127E-02-0.512E-05
CGA:  14    -0.231789972520E+03   -0.86185E-04   -0.86179E-04  8320   0.163E-02 0.976E-06
CGA:  15    -0.231790026466E+03   -0.53945E-04   -0.54148E-04  8320   0.528E-03-0.300E-06
CGA:  16    -0.231790068697E+03   -0.42231E-04   -0.42327E-04  8320   0.432E-03-0.406E-05
CGA:  17    -0.231790106511E+03   -0.37814E-04   -0.37741E-04  8320   0.291E-03 0.253E-05
CGA:  18    -0.231790118973E+03   -0.12462E-04   -0.12463E-04  8320   0.244E-03 0.723E-08
CGA:  19    -0.231790129983E+03   -0.11010E-04   -0.11021E-04  8320   0.117E-03 0.419E-06
CGA:  20    -0.231790144701E+03   -0.14718E-04   -0.14713E-04  8320   0.693E-04 0.712E-07
CGA:  21    -0.231790148498E+03   -0.37967E-05   -0.37992E-05  8320   0.794E-04 0.190E-06
  95 F= -.23179015E+03 E0= -.23177614E+03  d E =-.105500E-02  mag=    -5.1173
       N       E                     dE             d eps       ncg     rms          ort
SDA:   1    -0.231754180374E+03    0.35964E-01    0.00000E+00  8320   0.160E+00 0.000E+00
CGA:   2    -0.231761132791E+03   -0.69524E-02   -0.67969E-02  8320   0.203E+00-0.765E-05
CGA:   3    -0.231776413075E+03   -0.15280E-01   -0.15265E-01  8320   0.164E+00 0.762E-03
CGA:   4    -0.231784748217E+03   -0.83351E-02   -0.83700E-02  8320   0.432E-01 0.866E-03
CGA:   5    -0.231789082790E+03   -0.43346E-02   -0.43751E-02  8320   0.523E-01-0.934E-03
CGA:   6    -0.231790578967E+03   -0.14962E-02   -0.15063E-02  8320   0.227E-01-0.194E-03
CGA:   7    -0.231791738211E+03   -0.11592E-02   -0.11594E-02  8320   0.519E-02 0.828E-05
CGA:   8    -0.231792229120E+03   -0.49091E-03   -0.49199E-03  8320   0.352E-02-0.286E-04
CGA:   9    -0.231792425229E+03   -0.19611E-03   -0.19626E-03  8320   0.270E-02 0.936E-05
CGA:  10    -0.231792499669E+03   -0.74440E-04   -0.74497E-04  8320   0.749E-03-0.642E-06
CGA:  11    -0.231792582172E+03   -0.82503E-04   -0.82502E-04  8320   0.534E-03 0.326E-07
CGA:  12    -0.231792614333E+03   -0.32161E-04   -0.32167E-04  8320   0.208E-03 0.152E-05
CGA:  13    -0.231792634904E+03   -0.20571E-04   -0.20576E-04  8320   0.971E-04-0.134E-06
CGA:  14    -0.231792645699E+03   -0.10795E-04   -0.10767E-04  8320   0.830E-04 0.617E-06
CGA:  15    -0.231792650020E+03   -0.43203E-05   -0.43228E-05  8320   0.884E-04 0.123E-06
  96 F= -.23179265E+03 E0= -.23177864E+03  d E =-.250152E-02  mag=    -5.1175
       N       E                     dE             d eps       ncg     rms          ort
SDA:   1    -0.231722350698E+03    0.70295E-01    0.00000E+00  8320   0.222E+00 0.000E+00
CGA:   2    -0.231742496142E+03   -0.20145E-01   -0.20469E-01  8320   0.658E+00-0.970E-02
CGA:   3    -0.231768927312E+03   -0.26431E-01   -0.26508E-01  8320   0.203E+00-0.278E-03
CGA:   4    -0.231780147441E+03   -0.11220E-01   -0.11272E-01  8320   0.103E+00 0.180E-02
CGA:   5    -0.231787999568E+03   -0.78521E-02   -0.78919E-02  8320   0.125E+00-0.232E-02
CGA:   6    -0.231791292981E+03   -0.32934E-02   -0.33178E-02  8320   0.321E-01-0.585E-03
CGA:   7    -0.231793180531E+03   -0.18875E-02   -0.18885E-02  8320   0.115E-01 0.101E-03
CGA:   8    -0.231793869661E+03   -0.68913E-03   -0.68867E-03  8320   0.151E-01-0.552E-04
CGA:   9    -0.231794355793E+03   -0.48613E-03   -0.48640E-03  8320   0.407E-02-0.478E-05
CGA:  10    -0.231794611965E+03   -0.25617E-03   -0.25615E-03  8320   0.170E-02 0.130E-04
CGA:  11    -0.231794704306E+03   -0.92342E-04   -0.92286E-04  8320   0.260E-02-0.335E-05
CGA:  12    -0.231794815646E+03   -0.11134E-03   -0.11133E-03  8320   0.634E-03-0.171E-06
CGA:  13    -0.231794857156E+03   -0.41509E-04   -0.41480E-04  8320   0.420E-03 0.418E-05
CGA:  14    -0.231794875538E+03   -0.18382E-04   -0.18371E-04  8320   0.412E-03-0.363E-06
CGA:  15    -0.231794893937E+03   -0.18399E-04   -0.18399E-04  8320   0.191E-03-0.192E-06
CGA:  16    -0.231794909406E+03   -0.15470E-04   -0.15458E-04  8320   0.100E-03 0.540E-06
CGA:  17    -0.231794913362E+03   -0.39553E-05   -0.39534E-05  8320   0.993E-04-0.882E-07
  97 F= -.23179491E+03 E0= -.23178090E+03  d E =-.226334E-02  mag=    -5.1173
       N       E                     dE             d eps       ncg     rms          ort
SDA:   1    -0.231749507047E+03    0.45402E-01    0.00000E+00  8320   0.205E+00 0.000E+00
CGA:   2    -0.231762077353E+03   -0.12570E-01   -0.12560E-01  8320   0.189E+00 0.213E-02
CGA:   3    -0.231772901156E+03   -0.10824E-01   -0.10824E-01  8320   0.241E+00-0.479E-04
CGA:   4    -0.231782849797E+03   -0.99486E-02   -0.10101E-01  8320   0.638E-01 0.101E-02
CGA:   5    -0.231788164796E+03   -0.53150E-02   -0.53826E-02  8320   0.496E-01-0.213E-02
CGA:   6    -0.231791895762E+03   -0.37310E-02   -0.37274E-02  8320   0.277E-01 0.145E-03
CGA:   7    -0.231792592119E+03   -0.69636E-03   -0.70408E-03  8320   0.921E-02-0.183E-03
CGA:   8    -0.231793263906E+03   -0.67179E-03   -0.67292E-03  8320   0.495E-02-0.538E-04
CGA:   9    -0.231793624773E+03   -0.36087E-03   -0.36064E-03  8320   0.207E-02 0.124E-04
CGA:  10    -0.231793698144E+03   -0.73371E-04   -0.73251E-04  8320   0.158E-02-0.304E-06
CGA:  11    -0.231793800128E+03   -0.10198E-03   -0.10198E-03  8320   0.708E-03-0.110E-06
CGA:  12    -0.231793849804E+03   -0.49676E-04   -0.49671E-04  8320   0.441E-03 0.525E-06
CGA:  13    -0.231793870810E+03   -0.21006E-04   -0.21007E-04  8320   0.346E-03-0.692E-08
CGA:  14    -0.231793884181E+03   -0.13371E-04   -0.13336E-04  8320   0.159E-03-0.787E-06
CGA:  15    -0.231793899364E+03   -0.15183E-04   -0.15155E-04  8320   0.894E-04 0.739E-06
CGA:  16    -0.231793904648E+03   -0.52839E-05   -0.52837E-05  8320   0.115E-03-0.295E-06
  98 F= -.23179390E+03 E0= -.23177988E+03  d E =0.100871E-02  mag=    -5.1175
       N       E                     dE             d eps       ncg     rms          ort
SDA:   1    -0.231768108818E+03    0.25791E-01    0.00000E+00  8320   0.955E-01 0.000E+00
CGA:   2    -0.231774584488E+03   -0.64757E-02   -0.64685E-02  8320   0.197E+00 0.505E-03
CGA:   3    -0.231785011609E+03   -0.10427E-01   -0.10411E-01  8320   0.108E+00-0.948E-03
CGA:   4    -0.231790222505E+03   -0.52109E-02   -0.52726E-02  8320   0.357E-01 0.201E-02
CGA:   5    -0.231794018582E+03   -0.37961E-02   -0.38105E-02  8320   0.174E-01-0.295E-03
CGA:   6    -0.231795519952E+03   -0.15014E-02   -0.14995E-02  8320   0.416E-02 0.568E-04
CGA:   7    -0.231795887527E+03   -0.36757E-03   -0.36892E-03  8320   0.331E-02-0.416E-04
CGA:   8    -0.231796032162E+03   -0.14464E-03   -0.14516E-03  8320   0.222E-02 0.437E-05
CGA:   9    -0.231796107936E+03   -0.75774E-04   -0.75784E-04  8320   0.845E-03 0.125E-05
CGA:  10    -0.231796174140E+03   -0.66204E-04   -0.66207E-04  8320   0.359E-03-0.223E-06
CGA:  11    -0.231796206680E+03   -0.32540E-04   -0.32549E-04  8320   0.296E-03-0.259E-06
CGA:  12    -0.231796218191E+03   -0.11511E-04   -0.11529E-04  8320   0.200E-03 0.501E-06
CGA:  13    -0.231796226350E+03   -0.81590E-05   -0.81598E-05  8320   0.693E-04 0.704E-07
  99 F= -.23179623E+03 E0= -.23178220E+03  d E =-.232170E-02  mag=    -5.1174
       N       E                     dE             d eps       ncg     rms          ort
SDA:   1    -0.231633920946E+03    0.16230E+00    0.00000E+00  8320   0.518E+00 0.000E+00
CGA:   2    -0.231694971807E+03   -0.61051E-01   -0.59170E-01  8320   0.109E+01 0.336E-01
CGA:   3    -0.231738266066E+03   -0.43294E-01   -0.42810E-01  8320   0.568E+00 0.530E-02
CGA:   4    -0.231768366641E+03   -0.30101E-01   -0.30161E-01  8320   0.206E+00 0.129E-02
CGA:   5    -0.231788149605E+03   -0.19783E-01   -0.19748E-01  8320   0.138E+00 0.901E-03
CGA:   6    -0.231796031430E+03   -0.78818E-02   -0.78906E-02  8320   0.610E-01 0.317E-03
CGA:   7    -0.231797788507E+03   -0.17571E-02   -0.17428E-02  8320   0.289E-01 0.308E-03
CGA:   8    -0.231800167228E+03   -0.23787E-02   -0.23713E-02  8320   0.122E-01 0.302E-03
CGA:   9    -0.231800969605E+03   -0.80238E-03   -0.80249E-03  8320   0.450E-02-0.163E-03
CGA:  10    -0.231801317621E+03   -0.34802E-03   -0.34718E-03  8320   0.609E-02 0.440E-04
CGA:  11    -0.231801519645E+03   -0.20202E-03   -0.20212E-03  8320   0.229E-02 0.149E-06
CGA:  12    -0.231801667140E+03   -0.14749E-03   -0.14750E-03  8320   0.889E-03-0.292E-05
CGA:  13    -0.231801738791E+03   -0.71652E-04   -0.71645E-04  8320   0.894E-03 0.652E-06
CGA:  14    -0.231801776859E+03   -0.38068E-04   -0.38122E-04  8320   0.714E-03 0.119E-05
CGA:  15    -0.231801810845E+03   -0.33986E-04   -0.33955E-04  8320   0.225E-03-0.574E-06
CGA:  16    -0.231801833913E+03   -0.23068E-04   -0.23047E-04  8320   0.206E-03 0.536E-06
CGA:  17    -0.231801843189E+03   -0.92759E-05   -0.92688E-05  8320   0.222E-03-0.210E-06
CGA:  18    -0.231801856647E+03   -0.13457E-04   -0.13459E-04  8320   0.915E-04 0.619E-06
CGA:  19    -0.231801863042E+03   -0.63958E-05   -0.63927E-05  8320   0.630E-04 0.512E-06
 100 F= -.23180186E+03 E0= -.23178784E+03  d E =-.563669E-02  mag=    -5.1170
       N       E                     dE             d eps       ncg     rms          ort
SDA:   1    -0.231726351734E+03    0.75505E-01    0.00000E+00  8320   0.708E+00 0.000E+00
CGA:   2    -0.231740668708E+03   -0.14317E-01   -0.15029E-01  8320   0.217E+00-0.246E-01
CGA:   3    -0.231774296402E+03   -0.33628E-01   -0.33651E-01  8320   0.202E+00-0.270E-03
CGA:   4    -0.231783604967E+03   -0.93086E-02   -0.93499E-02  8320   0.152E+00 0.123E-03
CGA:   5    -0.231789604201E+03   -0.59992E-02   -0.59958E-02  8320   0.776E-01 0.192E-04
CGA:   6    -0.231795330086E+03   -0.57259E-02   -0.57004E-02  8320   0.357E-01 0.176E-02
CGA:   7    -0.231797022136E+03   -0.16920E-02   -0.16642E-02  8320   0.177E-01-0.102E-03
CGA:   8    -0.231797617486E+03   -0.59535E-03   -0.59633E-03  8320   0.909E-02-0.125E-04
CGA:   9    -0.231798393123E+03   -0.77564E-03   -0.77537E-03  8320   0.301E-02 0.104E-04
CGA:  10    -0.231798546131E+03   -0.15301E-03   -0.15304E-03  8320   0.285E-02 0.953E-06
CGA:  11    -0.231798657500E+03   -0.11137E-03   -0.11108E-03  8320   0.120E-02-0.329E-06
CGA:  12    -0.231798766090E+03   -0.10859E-03   -0.10841E-03  8320   0.791E-03 0.536E-05
CGA:  13    -0.231798799522E+03   -0.33433E-04   -0.33361E-04  8320   0.465E-03-0.107E-05
CGA:  14    -0.231798818000E+03   -0.18478E-04   -0.18487E-04  8320   0.273E-03-0.311E-07
CGA:  15    -0.231798846551E+03   -0.28551E-04   -0.28535E-04  8320   0.185E-03 0.380E-06
CGA:  16    -0.231798854905E+03   -0.83539E-05   -0.83562E-05  8320   0.154E-03 0.101E-06
 101 F= -.23179885E+03 E0= -.23178483E+03  d E =0.300814E-02  mag=    -5.1166
       N       E                     dE             d eps       ncg     rms          ort
SDA:   1    -0.231779111526E+03    0.19735E-01    0.00000E+00  8320   0.207E+00 0.000E+00
CGA:   2    -0.231784287303E+03   -0.51758E-02   -0.47685E-02  8320   0.692E-01 0.129E-01
CGA:   3    -0.231789030024E+03   -0.47427E-02   -0.47475E-02  8320   0.790E-01-0.543E-03
CGA:   4    -0.231795425550E+03   -0.63955E-02   -0.63539E-02  8320   0.661E-01 0.148E-02
CGA:   5    -0.231797118400E+03   -0.16928E-02   -0.16929E-02  8320   0.244E-01 0.456E-06
CGA:   6    -0.231798901598E+03   -0.17832E-02   -0.17827E-02  8320   0.176E-01 0.250E-04
CGA:   7    -0.231800051902E+03   -0.11503E-02   -0.11504E-02  8320   0.102E-01-0.764E-05
CGA:   8    -0.231800303572E+03   -0.25167E-03   -0.25166E-03  8320   0.330E-02 0.342E-06
CGA:   9    -0.231800544797E+03   -0.24122E-03   -0.24105E-03  8320   0.158E-02 0.993E-05
CGA:  10    -0.231800658835E+03   -0.11404E-03   -0.11409E-03  8320   0.141E-02-0.379E-05
CGA:  11    -0.231800700467E+03   -0.41632E-04   -0.41529E-04  8320   0.610E-03-0.303E-06
CGA:  12    -0.231800734850E+03   -0.34383E-04   -0.34389E-04  8320   0.308E-03 0.227E-05
CGA:  13    -0.231800758978E+03   -0.24128E-04   -0.24117E-04  8320   0.245E-03 0.497E-06
CGA:  14    -0.231800769474E+03   -0.10495E-04   -0.10489E-04  8320   0.212E-03-0.243E-06
CGA:  15    -0.231800777340E+03   -0.78664E-05   -0.78728E-05  8320   0.474E-04 0.291E-06
 102 F= -.23180078E+03 E0= -.23178676E+03  d E =-.192244E-02  mag=    -5.1166
       N       E                     dE             d eps       ncg     rms          ort
SDA:   1    -0.231762239281E+03    0.38530E-01    0.00000E+00  8320   0.261E+00 0.000E+00
CGA:   2    -0.231768703091E+03   -0.64638E-02   -0.67001E-02  8320   0.149E+00-0.578E-02
CGA:   3    -0.231789093068E+03   -0.20390E-01   -0.20368E-01  8320   0.118E+00 0.294E-03
CGA:   4    -0.231797242017E+03   -0.81489E-02   -0.81527E-02  8320   0.606E-01-0.446E-03
CGA:   5    -0.231799345587E+03   -0.21036E-02   -0.20966E-02  8320   0.409E-01 0.785E-04
CGA:   6    -0.231801756427E+03   -0.24108E-02   -0.24160E-02  8320   0.180E-01 0.595E-03
CGA:   7    -0.231802822506E+03   -0.10661E-02   -0.10639E-02  8320   0.588E-02-0.210E-03
CGA:   8    -0.231803176890E+03   -0.35438E-03   -0.35439E-03  8320   0.549E-02 0.186E-05
CGA:   9    -0.231803351954E+03   -0.17506E-03   -0.17488E-03  8320   0.196E-02 0.262E-05
CGA:  10    -0.231803515019E+03   -0.16307E-03   -0.16298E-03  8320   0.696E-03 0.361E-05
CGA:  11    -0.231803561947E+03   -0.46928E-04   -0.46936E-04  8320   0.933E-03-0.112E-05
CGA:  12    -0.231803596041E+03   -0.34094E-04   -0.34098E-04  8320   0.351E-03 0.235E-06
CGA:  13    -0.231803621010E+03   -0.24969E-04   -0.24973E-04  8320   0.159E-03-0.307E-06
CGA:  14    -0.231803631649E+03   -0.10639E-04   -0.10634E-04  8320   0.152E-03 0.883E-06
CGA:  15    -0.231803637506E+03   -0.58562E-05   -0.58511E-05  8320   0.102E-03-0.177E-06
 103 F= -.23180364E+03 E0= -.23178962E+03  d E =-.286017E-02  mag=    -5.1166
