       N       E                     dE             d eps       ncg     rms          ort
DAV:   1     0.638681558176E+04    0.63868E+04   -0.31686E+05  8320   0.178E+03
DAV:   2     0.350773535502E+03   -0.60360E+04   -0.56472E+04  8320   0.512E+02
DAV:   3    -0.298539226209E+03   -0.64931E+03   -0.62917E+03  8320   0.188E+02
DAV:   4    -0.317665684112E+03   -0.19126E+02   -0.18973E+02  8320   0.351E+01
DAV:   5    -0.318182555509E+03   -0.51687E+00   -0.51384E+00  8320   0.533E+00
SDA:   6     0.869526081583E+02    0.40514E+03   -0.51384E+00  8320   0.271E+04 0.000E+00
CGA:   7     0.543317819720E+00   -0.86409E+02   -0.13158E+03  8320   0.880E+04-0.116E+04
CGA:   8     0.211020956839E+03    0.21048E+03   -0.17232E+03  8320   0.244E+05-0.373E+04
CGA:   9     0.388368101962E+04    0.36727E+04   -0.46602E+03  8320   0.199E+05 0.137E+05
CGA:  10     0.334182490862E+04   -0.54186E+03   -0.14040E+04  8320   0.470E+05-0.133E+05
CGA:  11     0.368179780002E+04    0.33997E+03   -0.25219E+04  8320   0.355E+05-0.180E+05
CGA:  12     0.258983343230E+04   -0.10920E+04   -0.44618E+03  8320   0.483E+05 0.668E+05
CGA:  13     0.321366566015E+04    0.62383E+03   -0.20872E+04  8320   0.614E+05-0.283E+05
CGA:  14     0.327285194063E+04    0.59186E+02   -0.30057E+04  8320   0.327E+05-0.230E+05
CGA:  15     0.208700537604E+04   -0.11858E+04   -0.36066E+03  8320   0.456E+05 0.660E+05
CGA:  16     0.203150721058E+04   -0.55498E+02   -0.20360E+04  8320   0.215E+05-0.153E+05
CGA:  17     0.134837888504E+04   -0.68313E+03   -0.55576E+03  8320   0.988E+04-0.147E+05
CGA:  18     0.140729184712E+04    0.58913E+02   -0.45462E+03  8320   0.145E+05-0.748E+04
CGA:  19     0.127958678260E+04   -0.12771E+03   -0.55385E+03  8320   0.142E+05-0.127E+05
CGA:  20     0.124396950720E+04   -0.35617E+02   -0.63720E+03  8320   0.106E+05-0.719E+04
CGA:  21     0.930401680696E+03   -0.31357E+03   -0.34539E+03  8320   0.437E+04-0.615E+04
CGA:  22     0.859190997572E+03   -0.71211E+02   -0.19301E+03  8320   0.460E+04-0.232E+04
CGA:  23     0.740005745379E+03   -0.11919E+03   -0.15322E+03  8320   0.196E+04-0.109E+04
CGA:  24     0.567659606158E+03   -0.17235E+03   -0.17488E+03  8320   0.511E+04-0.923E+02
CGA:  25     0.318139592615E+03   -0.24952E+03   -0.30111E+03  8320   0.284E+04-0.404E+03
CGA:  26     0.206699164308E+03   -0.11144E+03   -0.14088E+03  8320   0.147E+04-0.763E+03
CGA:  27     0.142013357086E+03   -0.64686E+02   -0.48539E+02  8320   0.616E+03-0.277E+03
CGA:  28     0.953019564699E+02   -0.46711E+02   -0.47630E+02  8320   0.551E+03 0.888E+02
CGA:  29     0.681828639647E+02   -0.27119E+02   -0.36399E+02  8320   0.558E+03-0.793E+02
CGA:  30     0.214260710657E+02   -0.46757E+02   -0.46757E+02  8320   0.321E+03-0.262E+01
CGA:  31     0.539770229807E-01   -0.21372E+02   -0.23669E+02  8320   0.262E+03 0.394E+01
CGA:  32    -0.265545116347E+02   -0.26608E+02   -0.26591E+02  8320   0.253E+03 0.218E+01
CGA:  33    -0.556522199513E+02   -0.29098E+02   -0.28529E+02  8320   0.154E+03 0.241E+02
CGA:  34    -0.816608945068E+02   -0.26009E+02   -0.23752E+02  8320   0.101E+03 0.380E+02
CGA:  35    -0.104033788576E+03   -0.22373E+02   -0.20780E+02  8320   0.978E+02 0.183E+02
CGA:  36    -0.127138606299E+03   -0.23105E+02   -0.20587E+02  8320   0.448E+02 0.249E+02
CGA:  37    -0.145232243910E+03   -0.18094E+02   -0.17892E+02  8320   0.428E+02 0.205E+01
CGA:  38    -0.153624998769E+03   -0.83928E+01   -0.81985E+01  8320   0.266E+02 0.190E+01
CGA:  39    -0.160364468257E+03   -0.67395E+01   -0.78175E+01  8320   0.277E+02-0.495E+01
CGA:  40    -0.164824780280E+03   -0.44603E+01   -0.43698E+01  8320   0.185E+02 0.154E+00
CGA:  41    -0.169497646556E+03   -0.46729E+01   -0.49091E+01  8320   0.239E+02-0.202E+01
CGA:  42    -0.174210213702E+03   -0.47126E+01   -0.55625E+01  8320   0.469E+02-0.600E+01
CGA:  43    -0.178659078311E+03   -0.44489E+01   -0.43469E+01  8320   0.291E+02-0.403E+01
CGA:  44    -0.182053288385E+03   -0.33942E+01   -0.33439E+01  8320   0.392E+02-0.253E+01
CGA:  45    -0.188151386445E+03   -0.60981E+01   -0.61983E+01  8320   0.449E+02-0.333E+01
CGA:  46    -0.191798658193E+03   -0.36473E+01   -0.35892E+01  8320   0.279E+02-0.117E+01
CGA:  47    -0.194875436147E+03   -0.30768E+01   -0.30656E+01  8320   0.255E+02-0.106E+01
CGA:  48    -0.197498928359E+03   -0.26235E+01   -0.25873E+01  8320   0.235E+02-0.946E+00
CGA:  49    -0.200319351017E+03   -0.28204E+01   -0.27950E+01  8320   0.259E+02-0.143E+01
CGA:  50    -0.202368391911E+03   -0.20490E+01   -0.19792E+01  8320   0.177E+02-0.789E+00
CGA:  51    -0.203923086024E+03   -0.15547E+01   -0.15034E+01  8320   0.171E+02-0.892E+00
CGA:  52    -0.205392409164E+03   -0.14693E+01   -0.14189E+01  8320   0.177E+02-0.102E+01
SDA:  53    -0.206941499567E+03   -0.15491E+01   -0.14928E+01  8320   0.221E+02-0.119E+01
CGA:  54    -0.208998215703E+03   -0.20567E+01   -0.20223E+01  8320   0.110E+02-0.853E-01
CGA:  55    -0.211918076971E+03   -0.29199E+01   -0.29852E+01  8320   0.216E+02-0.546E+00
CGA:  56    -0.215608608927E+03   -0.36905E+01   -0.36809E+01  8320   0.172E+02 0.103E+00
CGA:  57    -0.218059480619E+03   -0.24509E+01   -0.24550E+01  8320   0.151E+02-0.518E+00
CGA:  58    -0.220050424206E+03   -0.19909E+01   -0.19906E+01  8320   0.115E+02-0.518E+00
CGA:  59    -0.221866924851E+03   -0.18165E+01   -0.18373E+01  8320   0.119E+02-0.515E+00
CGA:  60    -0.222864721116E+03   -0.99780E+00   -0.97933E+00  8320   0.405E+01-0.820E-01
CGA:  61    -0.223397926106E+03   -0.53320E+00   -0.53248E+00  8320   0.543E+01-0.192E+00
CGA:  62    -0.224064609458E+03   -0.66668E+00   -0.66435E+00  8320   0.604E+01-0.222E+00
CGA:  63    -0.224650655942E+03   -0.58605E+00   -0.56842E+00  8320   0.551E+01-0.138E+00
CGA:  64    -0.225088440704E+03   -0.43778E+00   -0.43412E+00  8320   0.444E+01-0.860E-01
CGA:  65    -0.225576145923E+03   -0.48771E+00   -0.48604E+00  8320   0.633E+01-0.112E+00
CGA:  66    -0.226097670403E+03   -0.52152E+00   -0.50976E+00  8320   0.449E+01-0.105E+00
CGA:  67    -0.226439648178E+03   -0.34198E+00   -0.33190E+00  8320   0.451E+01-0.584E-01
CGA:  68    -0.226878083505E+03   -0.43844E+00   -0.43581E+00  8320   0.532E+01-0.934E-01
CGA:  69    -0.227181431139E+03   -0.30335E+00   -0.28397E+00  8320   0.294E+01 0.561E-01
CGA:  70    -0.227367256762E+03   -0.18583E+00   -0.18462E+00  8320   0.295E+01-0.445E-01
CGA:  71    -0.227578746292E+03   -0.21149E+00   -0.20845E+00  8320   0.328E+01-0.353E-01
CGA:  72    -0.227781131063E+03   -0.20238E+00   -0.20122E+00  8320   0.299E+01-0.201E-01
CGA:  73    -0.227957535121E+03   -0.17640E+00   -0.17458E+00  8320   0.262E+01-0.138E-01
CGA:  74    -0.228109763684E+03   -0.15223E+00   -0.15113E+00  8320   0.235E+01-0.143E-02
CGA:  75    -0.228257646627E+03   -0.14788E+00   -0.14706E+00  8320   0.260E+01-0.176E-02
CGA:  76    -0.228426795485E+03   -0.16915E+00   -0.16840E+00  8320   0.288E+01-0.455E-02
CGA:  77    -0.228576030727E+03   -0.14924E+00   -0.14845E+00  8320   0.223E+01 0.199E-01
CGA:  78    -0.228683369898E+03   -0.10734E+00   -0.10491E+00  8320   0.177E+01 0.463E-01
CGA:  79    -0.228783142000E+03   -0.99772E-01   -0.98997E-01  8320   0.213E+01 0.156E-01
CGA:  80    -0.228904555259E+03   -0.12141E+00   -0.12159E+00  8320   0.251E+01 0.186E-01
CGA:  81    -0.229013719291E+03   -0.10916E+00   -0.10977E+00  8320   0.189E+01 0.316E-01
CGA:  82    -0.229089916042E+03   -0.76197E-01   -0.75825E-01  8320   0.142E+01 0.403E-01
CGA:  83    -0.229157325953E+03   -0.67410E-01   -0.66856E-01  8320   0.160E+01 0.302E-01
SDA:  84    -0.229237159143E+03   -0.79833E-01   -0.80724E-01  8320   0.193E+01 0.254E-01
CGA:  85    -0.229432460478E+03   -0.19530E+00   -0.19574E+00  8320   0.127E+01-0.164E-01
CGA:  86    -0.229817667753E+03   -0.38521E+00   -0.80245E-02  8320   0.708E+01-0.811E+00
CGA:  87    -0.230290717148E+03   -0.47305E+00   -0.45679E+00  8320   0.152E+01 0.180E+00
CGA:  88    -0.230469589380E+03   -0.17887E+00   -0.17636E+00  8320   0.697E+00-0.634E-02
CGA:  89    -0.230595300327E+03   -0.12571E+00   -0.12716E+00  8320   0.609E+00-0.288E-01
CGA:  90    -0.230662821281E+03   -0.67521E-01   -0.24224E+00  8320   0.643E+01-0.731E+00
CGA:  91    -0.230886922179E+03   -0.22410E+00   -0.19261E+00  8320   0.690E+00 0.900E+00
CGA:  92    -0.230952911104E+03   -0.65989E-01   -0.66545E-01  8320   0.696E+00-0.182E-02
CGA:  93    -0.230998517369E+03   -0.45606E-01   -0.47040E-01  8320   0.610E+00-0.119E-01
CGA:  94    -0.231042754816E+03   -0.44237E-01   -0.42667E-01  8320   0.376E+00 0.119E-01
CGA:  95    -0.231065894633E+03   -0.23140E-01   -0.22153E-01  8320   0.290E+00 0.121E-01
CGA:  96    -0.231085013737E+03   -0.19119E-01   -0.17082E-01  8320   0.244E+00 0.277E-01
CGA:  97    -0.231120002766E+03   -0.34989E-01   -0.34806E-01  8320   0.836E+00-0.132E-01
CGA:  98    -0.231153479489E+03   -0.33477E-01   -0.30458E-01  8320   0.436E+00 0.393E-01
CGA:  99    -0.231166703024E+03   -0.13224E-01   -0.11981E-01  8320   0.396E+00 0.285E-01
CGA: 100    -0.231187108920E+03   -0.20406E-01   -0.20040E-01  8320   0.617E+00 0.506E-03
CGA: 101    -0.231197545312E+03   -0.10436E-01   -0.72657E-02  8320   0.367E+00 0.258E+00
CGA: 102    -0.231206649891E+03   -0.91046E-02   -0.73370E-02  8320   0.274E+00 0.117E+00
CGA: 103    -0.231216452958E+03   -0.98031E-02   -0.88778E-02  8320   0.478E+00 0.334E-01
CGA: 104    -0.231225700558E+03   -0.92476E-02   -0.94659E-02  8320   0.417E+00-0.106E-01
CGA: 105    -0.231229880212E+03   -0.41797E-02   -0.56785E-02  8320   0.198E+00-0.102E+00
CGA: 106    -0.231231994389E+03   -0.21142E-02   -0.23654E-02  8320   0.209E+00-0.154E-01
CGA: 107    -0.231236407224E+03   -0.44128E-02   -0.44682E-02  8320   0.245E+00-0.313E-02
CGA: 108    -0.231239906728E+03   -0.34995E-02   -0.26608E-02  8320   0.153E+00 0.717E-01
CGA: 109    -0.231242695904E+03   -0.27892E-02   -0.21465E-02  8320   0.113E+00 0.554E-01
CGA: 110    -0.231245710160E+03   -0.30143E-02   -0.23704E-02  8320   0.166E+00 0.377E-01
CGA: 111    -0.231249381595E+03   -0.36714E-02   -0.27481E-02  8320   0.209E+00 0.699E-01
CGA: 112    -0.231253418908E+03   -0.40373E-02   -0.36980E-02  8320   0.154E+00 0.255E-01
CGA: 113    -0.231255330085E+03   -0.19112E-02   -0.21553E-02  8320   0.136E+00-0.185E-01
CGA: 114    -0.231257011557E+03   -0.16815E-02   -0.18973E-02  8320   0.220E+00-0.125E-01
CGA: 115    -0.231260115027E+03   -0.31035E-02   -0.33671E-02  8320   0.248E+00-0.139E-01
CGA: 116    -0.231262444297E+03   -0.23293E-02   -0.19797E-02  8320   0.143E+00 0.367E-01
CGA: 117    -0.231264100988E+03   -0.16567E-02   -0.13906E-02  8320   0.106E+00 0.281E-01
CGA: 118    -0.231265868348E+03   -0.17674E-02   -0.15060E-02  8320   0.159E+00 0.190E-01
CGA: 119    -0.231268324082E+03   -0.24557E-02   -0.20800E-02  8320   0.233E+00 0.294E-01
CGA: 120    -0.231270972673E+03   -0.26486E-02   -0.25066E-02  8320   0.203E+00 0.130E-01
SDA: 121    -0.231272517335E+03   -0.15447E-02   -0.17089E-02  8320   0.142E+00-0.201E-01
CGA: 122    -0.231278496298E+03   -0.59790E-02   -0.60186E-02  8320   0.563E-01 0.172E-02
CGA: 123    -0.231280538011E+03   -0.20417E-02   -0.20338E-02  8320   0.571E-01-0.657E-04
CGA: 124    -0.231284029574E+03   -0.34916E-02   -0.34865E-02  8320   0.405E-01 0.274E-03
CGA: 125    -0.231287490726E+03   -0.34612E-02   -0.34842E-02  8320   0.288E-01-0.597E-03
CGA: 126    -0.231288928597E+03   -0.14379E-02   -0.14370E-02  8320   0.505E-01-0.530E-03
CGA: 127    -0.231291403028E+03   -0.24744E-02   -0.24764E-02  8320   0.358E-01 0.640E-03
CGA: 128    -0.231294348322E+03   -0.29453E-02   -0.28873E-02  8320   0.353E-01 0.170E-02
CGA: 129    -0.231295579243E+03   -0.12309E-02   -0.11777E-02  8320   0.327E-01 0.458E-03
CGA: 130    -0.231297222801E+03   -0.16436E-02   -0.16445E-02  8320   0.210E-01 0.179E-03
CGA: 131    -0.231298074412E+03   -0.85161E-03   -0.86318E-03  8320   0.341E-01 0.230E-03
CGA: 132    -0.231299932361E+03   -0.18579E-02   -0.18688E-02  8320   0.203E-01-0.193E-02
CGA: 133    -0.231301373291E+03   -0.14409E-02   -0.14422E-02  8320   0.383E-01-0.205E-03
CGA: 134    -0.231302462305E+03   -0.10890E-02   -0.10813E-02  8320   0.204E-01-0.103E-03
CGA: 135    -0.231303559447E+03   -0.10971E-02   -0.10935E-02  8320   0.139E-01 0.759E-03
CGA: 136    -0.231304306191E+03   -0.74674E-03   -0.74746E-03  8320   0.283E-01-0.752E-03
CGA: 137    -0.231305050841E+03   -0.74465E-03   -0.62004E-03  8320   0.201E-01 0.337E-02
CGA: 138    -0.231305538527E+03   -0.48769E-03   -0.50258E-03  8320   0.260E-01-0.445E-03
CGA: 139    -0.231307024612E+03   -0.14861E-02   -0.15490E-02  8320   0.329E-01-0.502E-02
CGA: 140    -0.231307258578E+03   -0.23397E-03   -0.18078E-03  8320   0.247E-01 0.699E-02
CGA: 141    -0.231307612858E+03   -0.35428E-03   -0.30599E-03  8320   0.293E-01 0.392E-02
CGA: 142    -0.231308030381E+03   -0.41752E-03   -0.38981E-03  8320   0.419E-01 0.189E-02
CGA: 143    -0.231308397991E+03   -0.36761E-03   -0.35833E-03  8320   0.318E-01 0.134E-02
CGA: 144    -0.231308606256E+03   -0.20827E-03   -0.20891E-03  8320   0.159E-01 0.310E-04
CGA: 145    -0.231308723723E+03   -0.11747E-03   -0.11959E-03  8320   0.137E-01-0.245E-03
CGA: 146    -0.231308877809E+03   -0.15409E-03   -0.15522E-03  8320   0.234E-01-0.731E-04
CGA: 147    -0.231309153946E+03   -0.27614E-03   -0.27268E-03  8320   0.322E-01 0.193E-03
CGA: 148    -0.231309411071E+03   -0.25712E-03   -0.25366E-03  8320   0.218E-01 0.218E-03
CGA: 149    -0.231309562698E+03   -0.15163E-03   -0.14817E-03  8320   0.150E-01 0.437E-03
CGA: 150    -0.231309690307E+03   -0.12761E-03   -0.12481E-03  8320   0.160E-01 0.299E-03
CGA: 151    -0.231309843325E+03   -0.15302E-03   -0.15083E-03  8320   0.201E-01 0.217E-03
SDA: 152    -0.231310018882E+03   -0.17556E-03   -0.17662E-03  8320   0.219E-01-0.200E-04
CGA: 153    -0.231310574422E+03   -0.55554E-03   -0.55527E-03  8320   0.120E-01-0.224E-04
CGA: 154    -0.231311316282E+03   -0.74186E-03   -0.74665E-03  8320   0.302E-01-0.149E-03
CGA: 155    -0.231313036180E+03   -0.17199E-02   -0.18018E-02  8320   0.275E-01-0.277E-02
CGA: 156    -0.231315459134E+03   -0.24230E-02   -0.23844E-02  8320   0.246E-01 0.324E-03
CGA: 157    -0.231316673505E+03   -0.12144E-02   -0.12083E-02  8320   0.288E-01 0.379E-03
CGA: 158    -0.231317619451E+03   -0.94595E-03   -0.93740E-03  8320   0.216E-01-0.747E-03
CGA: 159    -0.231318175008E+03   -0.55556E-03   -0.56326E-03  8320   0.519E-02 0.114E-03
CGA: 160    -0.231318515035E+03   -0.34003E-03   -0.34052E-03  8320   0.580E-02-0.186E-04
CGA: 161    -0.231318661498E+03   -0.14646E-03   -0.14655E-03  8320   0.473E-02-0.784E-06
CGA: 162    -0.231318884866E+03   -0.22337E-03   -0.22243E-03  8320   0.253E-02 0.618E-04
CGA: 163    -0.231319131821E+03   -0.24696E-03   -0.42192E-03  8320   0.286E-01-0.236E-02
CGA: 164    -0.231319594704E+03   -0.46288E-03   -0.46096E-03  8320   0.628E-02 0.754E-04
CGA: 165    -0.231319786088E+03   -0.19138E-03   -0.19125E-03  8320   0.483E-02-0.604E-05
CGA: 166    -0.231320126271E+03   -0.34018E-03   -0.34329E-03  8320   0.409E-02-0.986E-04
CGA: 167    -0.231320617235E+03   -0.49096E-03   -0.48888E-03  8320   0.358E-02 0.262E-04
CGA: 168    -0.231321299861E+03   -0.68263E-03   -0.73382E-03  8320   0.166E-01-0.594E-03
CGA: 169    -0.231321478219E+03   -0.17836E-03   -0.11730E-03  8320   0.117E-01 0.675E-02
CGA: 170    -0.231321720348E+03   -0.24213E-03   -0.19122E-03  8320   0.994E-02 0.393E-02
CGA: 171    -0.231321913256E+03   -0.19291E-03   -0.16740E-03  8320   0.841E-02 0.179E-02
CGA: 172    -0.231322017050E+03   -0.10379E-03   -0.10064E-03  8320   0.636E-02 0.301E-03
CGA: 173    -0.231322108851E+03   -0.91801E-04   -0.94734E-04  8320   0.102E-01-0.151E-03
CGA: 174    -0.231322243721E+03   -0.13487E-03   -0.13517E-03  8320   0.985E-02 0.301E-04
CGA: 175    -0.231322319652E+03   -0.75931E-04   -0.71458E-04  8320   0.370E-02 0.555E-03
CGA: 176    -0.231322351328E+03   -0.31676E-04   -0.31369E-04  8320   0.222E-02 0.244E-04
CGA: 177    -0.231322377238E+03   -0.25911E-04   -0.25824E-04  8320   0.235E-02-0.155E-05
CGA: 178    -0.231322401344E+03   -0.24106E-04   -0.24178E-04  8320   0.190E-02-0.127E-04
CGA: 179    -0.231322421846E+03   -0.20502E-04   -0.20652E-04  8320   0.213E-02-0.132E-04
CGA: 180    -0.231322452786E+03   -0.30939E-04   -0.31196E-04  8320   0.329E-02-0.946E-05
CGA: 181    -0.231322489265E+03   -0.36480E-04   -0.36534E-04  8320   0.274E-02 0.414E-05
CGA: 182    -0.231322516586E+03   -0.27320E-04   -0.27038E-04  8320   0.254E-02 0.302E-04
CGA: 183    -0.231322552889E+03   -0.36304E-04   -0.35821E-04  8320   0.411E-02 0.266E-04
CGA: 184    -0.231322604793E+03   -0.51904E-04   -0.50955E-04  8320   0.482E-02 0.599E-04
CGA: 185    -0.231322654792E+03   -0.49999E-04   -0.49741E-04  8320   0.497E-02 0.251E-04
CGA: 186    -0.231322718291E+03   -0.63499E-04   -0.63524E-04  8320   0.759E-02 0.415E-05
CGA: 187    -0.231322807078E+03   -0.88787E-04   -0.86274E-04  8320   0.810E-02 0.166E-03
CGA: 188    -0.231322876432E+03   -0.69354E-04   -0.65949E-04  8320   0.588E-02 0.351E-03
CGA: 189    -0.231322932759E+03   -0.56327E-04   -0.54948E-04  8320   0.608E-02 0.125E-03
CGA: 190    -0.231322993524E+03   -0.60764E-04   -0.60199E-04  8320   0.646E-02 0.563E-04
CGA: 191    -0.231323044414E+03   -0.50890E-04   -0.51131E-04  8320   0.460E-02-0.259E-05
CGA: 192    -0.231323081083E+03   -0.36669E-04   -0.36933E-04  8320   0.423E-02-0.134E-04
CGA: 193    -0.231323128446E+03   -0.47363E-04   -0.47794E-04  8320   0.643E-02-0.148E-04
SDA: 194    -0.231323196547E+03   -0.68102E-04   -0.69443E-04  8320   0.649E-02-0.667E-04
CGA: 195    -0.231323321577E+03   -0.12503E-03   -0.12510E-03  8320   0.417E-02 0.259E-05
CGA: 196    -0.231323510277E+03   -0.18870E-03   -0.19033E-03  8320   0.351E-02-0.704E-04
CGA: 197    -0.231323820062E+03   -0.30979E-03   -0.31208E-03  8320   0.488E-02-0.406E-04
CGA: 198    -0.231324097224E+03   -0.27716E-03   -0.27548E-03  8320   0.492E-02 0.611E-04
CGA: 199    -0.231324302206E+03   -0.20498E-03   -0.20487E-03  8320   0.358E-02 0.421E-05
CGA: 200    -0.231324381897E+03   -0.79691E-04   -0.79769E-04  8320   0.230E-02 0.921E-06
   1 F= -.23132438E+03 E0= -.23129971E+03  d E =-.231324E+03  mag=     2.1639
       N       E                     dE             d eps       ncg     rms          ort
SDA:   1    -0.231283607699E+03    0.40695E-01    0.00000E+00  8320   0.214E+01 0.000E+00
CGA:   2    -0.231313481242E+03   -0.29874E-01   -0.31440E-01  8320   0.430E+00-0.536E-01
CGA:   3    -0.231322706743E+03   -0.92255E-02   -0.91944E-02  8320   0.658E-01-0.640E-03
CGA:   4    -0.231324347830E+03   -0.16411E-02   -0.16390E-02  8320   0.972E-02-0.164E-03
CGA:   5    -0.231324893740E+03   -0.54591E-03   -0.54608E-03  8320   0.522E-02-0.605E-05
CGA:   6    -0.231325088787E+03   -0.19505E-03   -0.19471E-03  8320   0.697E-02 0.377E-04
CGA:   7    -0.231325274903E+03   -0.18612E-03   -0.18607E-03  8320   0.273E-02 0.876E-05
CGA:   8    -0.231325475352E+03   -0.20045E-03   -0.20011E-03  8320   0.154E-02 0.684E-05
CGA:   9    -0.231325542288E+03   -0.66936E-04   -0.66897E-04  8320   0.194E-02 0.427E-05
CGA:  10    -0.231325588907E+03   -0.46620E-04   -0.46698E-04  8320   0.109E-02 0.497E-05
CGA:  11    -0.231325701944E+03   -0.11304E-03   -0.11266E-03  8320   0.126E-02 0.573E-05
CGA:  12    -0.231325748234E+03   -0.46290E-04   -0.46288E-04  8320   0.119E-02 0.397E-05
CGA:  13    -0.231325802206E+03   -0.53972E-04   -0.54013E-04  8320   0.208E-02-0.310E-05
CGA:  14    -0.231325875571E+03   -0.73365E-04   -0.73353E-04  8320   0.125E-02-0.379E-05
CGA:  15    -0.231326071483E+03   -0.19591E-03   -0.19304E-03  8320   0.196E-02 0.288E-04
CGA:  16    -0.231326144897E+03   -0.73413E-04   -0.73536E-04  8320   0.423E-02 0.689E-05
CGA:  17    -0.231326600984E+03   -0.45609E-03   -0.49624E-03  8320   0.721E-02-0.687E-03
CGA:  18    -0.231326891179E+03   -0.29020E-03   -0.28982E-03  8320   0.875E-02 0.107E-03
CGA:  19    -0.231327205239E+03   -0.31406E-03   -0.30658E-03  8320   0.115E-01-0.733E-04
CGA:  20    -0.231327821598E+03   -0.61636E-03   -0.62251E-03  8320   0.111E-01-0.516E-03
CGA:  21    -0.231328331598E+03   -0.51000E-03   -0.51126E-03  8320   0.116E-01-0.284E-03
CGA:  22    -0.231328676382E+03   -0.34478E-03   -0.33843E-03  8320   0.118E-01 0.117E-03
CGA:  23    -0.231329032472E+03   -0.35609E-03   -0.37082E-03  8320   0.807E-02 0.171E-03
CGA:  24    -0.231329548781E+03   -0.51631E-03   -0.50398E-03  8320   0.807E-02 0.535E-03
CGA:  25    -0.231329891769E+03   -0.34299E-03   -0.34080E-03  8320   0.854E-02-0.102E-03
CGA:  26    -0.231330085206E+03   -0.19344E-03   -0.19572E-03  8320   0.589E-02-0.215E-05
CGA:  27    -0.231330429171E+03   -0.34397E-03   -0.34252E-03  8320   0.610E-02 0.813E-04
CGA:  28    -0.231330628499E+03   -0.19933E-03   -0.19865E-03  8320   0.860E-02 0.195E-04
CGA:  29    -0.231330912862E+03   -0.28436E-03   -0.28716E-03  8320   0.581E-02 0.786E-04
CGA:  30    -0.231331192150E+03   -0.27929E-03   -0.27916E-03  8320   0.594E-02 0.257E-04
CGA:  31    -0.231331318810E+03   -0.12666E-03   -0.12528E-03  8320   0.474E-02 0.508E-04
SDA:  32    -0.231331614185E+03   -0.29538E-03   -0.29684E-03  8320   0.655E-02-0.636E-04
CGA:  33    -0.231331845524E+03   -0.23134E-03   -0.23135E-03  8320   0.907E-02 0.357E-05
CGA:  34    -0.231332127929E+03   -0.28241E-03   -0.28174E-03  8320   0.607E-02-0.517E-06
CGA:  35    -0.231332984377E+03   -0.85645E-03   -0.85705E-03  8320   0.973E-02-0.141E-04
CGA:  36    -0.231333712105E+03   -0.72773E-03   -0.72509E-03  8320   0.816E-02 0.839E-04
CGA:  37    -0.231333922215E+03   -0.21011E-03   -0.20913E-03  8320   0.835E-02 0.246E-04
CGA:  38    -0.231334324519E+03   -0.40230E-03   -0.40230E-03  8320   0.301E-02 0.479E-05
CGA:  39    -0.231334749004E+03   -0.42449E-03   -0.43013E-03  8320   0.348E-02-0.714E-04
CGA:  40    -0.231334884944E+03   -0.13594E-03   -0.13586E-03  8320   0.671E-02-0.555E-06
CGA:  41    -0.231335135132E+03   -0.25019E-03   -0.25146E-03  8320   0.238E-02 0.108E-04
CGA:  42    -0.231335341262E+03   -0.20613E-03   -0.20775E-03  8320   0.147E-02-0.424E-04
CGA:  43    -0.231335423861E+03   -0.82599E-04   -0.82534E-04  8320   0.239E-02 0.104E-04
CGA:  44    -0.231335483709E+03   -0.59849E-04   -0.59662E-04  8320   0.159E-02 0.799E-05
CGA:  45    -0.231335589537E+03   -0.10583E-03   -0.10570E-03  8320   0.556E-03 0.652E-05
CGA:  46    -0.231335643969E+03   -0.54432E-04   -0.54603E-04  8320   0.190E-02-0.405E-05
CGA:  47    -0.231335685700E+03   -0.41730E-04   -0.41730E-04  8320   0.691E-03 0.775E-06
CGA:  48    -0.231335744164E+03   -0.58465E-04   -0.58280E-04  8320   0.609E-03 0.523E-05
CGA:  49    -0.231335792461E+03   -0.48297E-04   -0.48264E-04  8320   0.482E-03 0.680E-06
CGA:  50    -0.231335807789E+03   -0.15328E-04   -0.15294E-04  8320   0.762E-03-0.216E-06
CGA:  51    -0.231335855279E+03   -0.47490E-04   -0.47480E-04  8320   0.345E-03 0.972E-06
CGA:  52    -0.231335889436E+03   -0.34157E-04   -0.34091E-04  8320   0.301E-03 0.130E-05
CGA:  53    -0.231335913804E+03   -0.24368E-04   -0.24296E-04  8320   0.439E-03 0.260E-05
CGA:  54    -0.231335926185E+03   -0.12381E-04   -0.12347E-04  8320   0.507E-03 0.680E-06
CGA:  55    -0.231335955977E+03   -0.29793E-04   -0.29791E-04  8320   0.295E-03-0.166E-06
CGA:  56    -0.231335987588E+03   -0.31611E-04   -0.31527E-04  8320   0.162E-03 0.145E-05
CGA:  57    -0.231336024204E+03   -0.36615E-04   -0.37040E-04  8320   0.930E-03-0.355E-05
CGA:  58    -0.231336043244E+03   -0.19040E-04   -0.19241E-04  8320   0.507E-03-0.597E-05
CGA:  59    -0.231336067749E+03   -0.24505E-04   -0.24599E-04  8320   0.190E-03 0.222E-05
CGA:  60    -0.231336088080E+03   -0.20332E-04   -0.20148E-04  8320   0.325E-03 0.420E-05
CGA:  61    -0.231336097460E+03   -0.93800E-05   -0.94567E-05  8320   0.430E-03 0.186E-06
CGA:  62    -0.231336126061E+03   -0.28601E-04   -0.28605E-04  8320   0.241E-03-0.125E-06
SDA:  63    -0.231336145786E+03   -0.19724E-04   -0.19702E-04  8320   0.250E-03 0.154E-05
CGA:  64    -0.231336155065E+03   -0.92787E-05   -0.92522E-05  8320   0.263E-03-0.132E-05
   2 F= -.23133616E+03 E0= -.23131731E+03  d E =-.117732E-01  mag=     2.8766
       N       E                     dE             d eps       ncg     rms          ort
SDA:   1    -0.231330857837E+03    0.52879E-02    0.00000E+00  8320   0.349E+00 0.000E+00
CGA:   2    -0.231335125494E+03   -0.42677E-02   -0.38190E-02  8320   0.366E-01 0.366E-01
CGA:   3    -0.231336137410E+03   -0.10119E-02   -0.94411E-03  8320   0.859E-02 0.199E-02
CGA:   4    -0.231336239730E+03   -0.10232E-03   -0.10330E-03  8320   0.730E-03-0.847E-04
CGA:   5    -0.231336288685E+03   -0.48955E-04   -0.48935E-04  8320   0.107E-02 0.142E-05
CGA:   6    -0.231336309669E+03   -0.20984E-04   -0.20936E-04  8320   0.645E-03 0.211E-05
CGA:   7    -0.231336339717E+03   -0.30047E-04   -0.30044E-04  8320   0.221E-03-0.339E-06
CGA:   8    -0.231336346634E+03   -0.69176E-05   -0.69446E-05  8320   0.345E-03 0.119E-05
CGA:   9    -0.231336358705E+03   -0.12071E-04   -0.12122E-04  8320   0.126E-03 0.320E-05
CGA:  10    -0.231336366774E+03   -0.80687E-05   -0.80446E-05  8320   0.209E-03 0.213E-05
   3 F= -.23133637E+03 E0= -.23131760E+03  d E =-.211710E-03  mag=     2.8810
       N       E                     dE             d eps       ncg     rms          ort
SDA:   1    -0.230713080828E+03    0.62328E+00    0.00000E+00  8320   0.180E+02 0.000E+00
CGA:   2    -0.230938748424E+03   -0.22567E+00   -0.17884E+00  8320   0.184E+01 0.363E+01
CGA:   3    -0.230986326113E+03   -0.47578E-01   -0.41194E-01  8320   0.234E+01 0.244E+00
CGA:   4    -0.231049725140E+03   -0.63399E-01   -0.57723E-01  8320   0.318E+01 0.154E+00
CGA:   5    -0.231096024563E+03   -0.46299E-01   -0.49324E-01  8320   0.288E+01-0.162E+00
CGA:   6    -0.231157100259E+03   -0.61076E-01   -0.64964E-01  8320   0.503E+01-0.637E-01
CGA:   7    -0.231226286899E+03   -0.69187E-01   -0.65701E-01  8320   0.147E+01 0.203E+00
CGA:   8    -0.231243633388E+03   -0.17346E-01   -0.16883E-01  8320   0.874E+00 0.318E-01
CGA:   9    -0.231266265846E+03   -0.22632E-01   -0.22660E-01  8320   0.128E+01 0.315E-03
CGA:  10    -0.231283133326E+03   -0.16867E-01   -0.18023E-01  8320   0.559E+00-0.576E-01
CGA:  11    -0.231294518809E+03   -0.11385E-01   -0.11418E-01  8320   0.836E+00-0.682E-03
CGA:  12    -0.231314622369E+03   -0.20104E-01   -0.19907E-01  8320   0.446E+00 0.131E-02
CGA:  13    -0.231319920765E+03   -0.52984E-02   -0.51011E-02  8320   0.222E+00 0.134E-01
CGA:  14    -0.231326290758E+03   -0.63700E-02   -0.63808E-02  8320   0.307E+00 0.305E-03
CGA:  15    -0.231329982758E+03   -0.36920E-02   -0.38063E-02  8320   0.759E-01-0.666E-02
CGA:  16    -0.231331373180E+03   -0.13904E-02   -0.13971E-02  8320   0.104E+00-0.144E-03
CGA:  17    -0.231335159462E+03   -0.37863E-02   -0.37886E-02  8320   0.127E+00-0.452E-03
CGA:  18    -0.231336608986E+03   -0.14495E-02   -0.14242E-02  8320   0.404E-01 0.165E-02
CGA:  19    -0.231337643500E+03   -0.10345E-02   -0.10346E-02  8320   0.641E-01 0.105E-04
CGA:  20    -0.231338743473E+03   -0.11000E-02   -0.11070E-02  8320   0.262E-01-0.149E-03
CGA:  21    -0.231339201678E+03   -0.45821E-03   -0.46072E-03  8320   0.310E-01-0.538E-04
CGA:  22    -0.231340313129E+03   -0.11115E-02   -0.11125E-02  8320   0.373E-01-0.137E-03
CGA:  23    -0.231340740267E+03   -0.42714E-03   -0.42218E-03  8320   0.117E-01 0.295E-03
CGA:  24    -0.231341030017E+03   -0.28975E-03   -0.28921E-03  8320   0.183E-01-0.289E-04
CGA:  25    -0.231341355731E+03   -0.32571E-03   -0.32587E-03  8320   0.909E-02 0.591E-05
CGA:  26    -0.231341509978E+03   -0.15425E-03   -0.15455E-03  8320   0.101E-01-0.742E-05
CGA:  27    -0.231341803669E+03   -0.29369E-03   -0.29367E-03  8320   0.979E-02 0.563E-05
CGA:  28    -0.231341916145E+03   -0.11248E-03   -0.11244E-03  8320   0.354E-02-0.461E-05
CGA:  29    -0.231342025659E+03   -0.10951E-03   -0.10951E-03  8320   0.818E-02 0.176E-05
CGA:  30    -0.231342188162E+03   -0.16250E-03   -0.16270E-03  8320   0.330E-02 0.690E-05
CGA:  31    -0.231342229896E+03   -0.41733E-04   -0.41783E-04  8320   0.208E-02-0.206E-05
SDA:  32    -0.231342305026E+03   -0.75130E-04   -0.75174E-04  8320   0.367E-02-0.416E-05
CGA:  33    -0.231342350375E+03   -0.45349E-04   -0.45282E-04  8320   0.696E-03 0.312E-05
CGA:  34    -0.231342429878E+03   -0.79503E-04   -0.79193E-04  8320   0.613E-03 0.352E-05
CGA:  35    -0.231342491793E+03   -0.61915E-04   -0.61752E-04  8320   0.480E-03 0.196E-05
CGA:  36    -0.231342527547E+03   -0.35754E-04   -0.35732E-04  8320   0.282E-03 0.449E-06
CGA:  37    -0.231342537005E+03   -0.94577E-05   -0.94602E-05  8320   0.387E-03 0.100E-05
CGA:  38    -0.231342549205E+03   -0.12200E-04   -0.12211E-04  8320   0.115E-03 0.196E-05
CGA:  39    -0.231342558114E+03   -0.89092E-05   -0.89905E-05  8320   0.103E-03-0.203E-05
CGA:  40    -0.231342568970E+03   -0.10855E-04   -0.10764E-04  8320   0.149E-03 0.122E-05
CGA:  41    -0.231342572618E+03   -0.36483E-05   -0.36512E-05  8320   0.147E-03 0.739E-07
CGA:  42    -0.231342583400E+03   -0.10783E-04   -0.10756E-04  8320   0.791E-04 0.741E-06
CGA:  43    -0.231342592599E+03   -0.91983E-05   -0.91489E-05  8320   0.907E-04 0.648E-06
   4 F= -.23134259E+03 E0= -.23132401E+03  d E =-.622582E-02  mag=     2.9037
       N       E                     dE             d eps       ncg     rms          ort
SDA:   1    -0.230862917446E+03    0.47967E+00    0.00000E+00  8320   0.239E+01 0.000E+00
CGA:   2    -0.230955202319E+03   -0.92285E-01   -0.93738E-01  8320   0.282E+01 0.778E-01
CGA:   3    -0.231028992345E+03   -0.73790E-01   -0.68991E-01  8320   0.265E+01 0.926E-01
CGA:   4    -0.231175621764E+03   -0.14663E+00   -0.14628E+00  8320   0.308E+01 0.244E-01
CGA:   5    -0.231228669776E+03   -0.53048E-01   -0.57496E-01  8320   0.155E+01-0.155E+00
CGA:   6    -0.231290337766E+03   -0.61668E-01   -0.61603E-01  8320   0.316E+00-0.193E-01
CGA:   7    -0.231319413866E+03   -0.29076E-01   -0.29111E-01  8320   0.268E+00-0.806E-03
CGA:   8    -0.231329879369E+03   -0.10466E-01   -0.10456E-01  8320   0.409E+00-0.473E-03
CGA:   9    -0.231339387365E+03   -0.95080E-02   -0.96930E-02  8320   0.303E-01-0.344E-02
CGA:  10    -0.231342571034E+03   -0.31837E-02   -0.32078E-02  8320   0.349E-01-0.411E-03
CGA:  11    -0.231343816608E+03   -0.12456E-02   -0.12492E-02  8320   0.410E-01 0.663E-04
CGA:  12    -0.231344708818E+03   -0.89221E-03   -0.89748E-03  8320   0.591E-02-0.136E-03
CGA:  13    -0.231345487901E+03   -0.77908E-03   -0.77854E-03  8320   0.921E-02 0.714E-05
CGA:  14    -0.231345680173E+03   -0.19227E-03   -0.19141E-03  8320   0.593E-02 0.285E-04
CGA:  15    -0.231345960038E+03   -0.27986E-03   -0.27988E-03  8320   0.186E-02 0.701E-05
CGA:  16    -0.231346081136E+03   -0.12110E-03   -0.12142E-03  8320   0.218E-02-0.151E-04
CGA:  17    -0.231346139281E+03   -0.58144E-04   -0.58209E-04  8320   0.209E-02-0.159E-06
CGA:  18    -0.231346234155E+03   -0.94875E-04   -0.94871E-04  8320   0.903E-03 0.178E-05
CGA:  19    -0.231346299523E+03   -0.65368E-04   -0.65367E-04  8320   0.858E-03-0.239E-06
CGA:  20    -0.231346318054E+03   -0.18531E-04   -0.18504E-04  8320   0.649E-03 0.266E-06
CGA:  21    -0.231346371589E+03   -0.53534E-04   -0.53448E-04  8320   0.299E-03 0.252E-05
CGA:  22    -0.231346393888E+03   -0.22299E-04   -0.22278E-04  8320   0.900E-03 0.933E-06
CGA:  23    -0.231346415089E+03   -0.21202E-04   -0.21268E-04  8320   0.211E-03 0.102E-05
CGA:  24    -0.231346437545E+03   -0.22455E-04   -0.22237E-04  8320   0.277E-03 0.393E-05
CGA:  25    -0.231346446348E+03   -0.88034E-05   -0.88174E-05  8320   0.351E-03 0.310E-06
CGA:  26    -0.231346460436E+03   -0.14088E-04   -0.14075E-04  8320   0.156E-03-0.476E-06
CGA:  27    -0.231346472205E+03   -0.11769E-04   -0.11714E-04  8320   0.208E-03 0.219E-05
CGA:  28    -0.231346480158E+03   -0.79531E-05   -0.79569E-05  8320   0.347E-03 0.473E-06
CGA:  29    -0.231346494475E+03   -0.14318E-04   -0.14337E-04  8320   0.108E-03 0.577E-06
CGA:  30    -0.231346507927E+03   -0.13452E-04   -0.13400E-04  8320   0.319E-03 0.619E-06
CGA:  31    -0.231346514631E+03   -0.67035E-05   -0.67324E-05  8320   0.173E-03 0.147E-06
SDA:  32    -0.231346530914E+03   -0.16283E-04   -0.16282E-04  8320   0.175E-03-0.515E-09
CGA:  33    -0.231346536115E+03   -0.52012E-05   -0.52255E-05  8320   0.148E-03 0.524E-06
   5 F= -.23134654E+03 E0= -.23132824E+03  d E =-.394352E-02  mag=     2.9342
       N       E                     dE             d eps       ncg     rms          ort
SDA:   1    -0.230553356463E+03    0.79317E+00    0.00000E+00  8320   0.617E+01 0.000E+00
CGA:   2    -0.230656366958E+03   -0.10301E+00   -0.96725E-01  8320   0.315E+01 0.276E+00
CGA:   3    -0.230884403107E+03   -0.22804E+00   -0.22754E+00  8320   0.379E+01 0.137E-01
CGA:   4    -0.231031171833E+03   -0.14677E+00   -0.15246E+00  8320   0.550E+01 0.120E+00
CGA:   5    -0.231163044065E+03   -0.13187E+00   -0.11322E+00  8320   0.168E+01 0.619E+00
CGA:   6    -0.231251174123E+03   -0.88130E-01   -0.88059E-01  8320   0.881E+00-0.177E-01
CGA:   7    -0.231271884203E+03   -0.20710E-01   -0.21632E-01  8320   0.942E+00-0.184E-01
CGA:   8    -0.231311248946E+03   -0.39365E-01   -0.39418E-01  8320   0.336E+00 0.394E-02
CGA:   9    -0.231333226645E+03   -0.21978E-01   -0.22065E-01  8320   0.184E+00-0.377E-02
CGA:  10    -0.231335998286E+03   -0.27716E-02   -0.28307E-02  8320   0.725E-01-0.293E-02
CGA:  11    -0.231340597187E+03   -0.45989E-02   -0.46055E-02  8320   0.470E-01-0.295E-03
CGA:  12    -0.231343569558E+03   -0.29724E-02   -0.29633E-02  8320   0.203E-01 0.431E-03
CGA:  13    -0.231344769453E+03   -0.11999E-02   -0.12025E-02  8320   0.937E-02-0.174E-03
CGA:  14    -0.231345842080E+03   -0.10726E-02   -0.10715E-02  8320   0.940E-02 0.160E-04
CGA:  15    -0.231346048285E+03   -0.20620E-03   -0.20663E-03  8320   0.759E-02-0.100E-04
CGA:  16    -0.231346391614E+03   -0.34333E-03   -0.34321E-03  8320   0.242E-02-0.105E-04
CGA:  17    -0.231346629926E+03   -0.23831E-03   -0.23787E-03  8320   0.170E-02 0.884E-05
CGA:  18    -0.231346731222E+03   -0.10130E-03   -0.10133E-03  8320   0.383E-02-0.149E-05
CGA:  19    -0.231346821350E+03   -0.90128E-04   -0.90188E-04  8320   0.135E-02 0.191E-05
CGA:  20    -0.231346902784E+03   -0.81434E-04   -0.81488E-04  8320   0.799E-03-0.519E-05
CGA:  21    -0.231346971632E+03   -0.68848E-04   -0.68556E-04  8320   0.807E-03 0.799E-05
CGA:  22    -0.231347013201E+03   -0.41569E-04   -0.41568E-04  8320   0.129E-02 0.911E-06
CGA:  23    -0.231347039349E+03   -0.26148E-04   -0.26236E-04  8320   0.362E-03-0.138E-05
CGA:  24    -0.231347087320E+03   -0.47971E-04   -0.47746E-04  8320   0.264E-03 0.271E-05
CGA:  25    -0.231347114032E+03   -0.26713E-04   -0.26652E-04  8320   0.416E-03 0.121E-05
CGA:  26    -0.231347123077E+03   -0.90447E-05   -0.90510E-05  8320   0.309E-03 0.883E-06
CGA:  27    -0.231347141521E+03   -0.18444E-04   -0.18435E-04  8320   0.178E-03 0.215E-05
CGA:  28    -0.231347166421E+03   -0.24900E-04   -0.24805E-04  8320   0.229E-03 0.108E-05
CGA:  29    -0.231347173500E+03   -0.70799E-05   -0.70782E-05  8320   0.267E-03-0.455E-06
   6 F= -.23134717E+03 E0= -.23132921E+03  d E =-.637386E-03  mag=     2.9566
       N       E                     dE             d eps       ncg     rms          ort
SDA:   1    -0.231245177967E+03    0.10199E+00    0.00000E+00  8320   0.512E+00 0.000E+00
CGA:   2    -0.231262118475E+03   -0.16941E-01   -0.16723E-01  8320   0.713E+00 0.225E-02
CGA:   3    -0.231288109469E+03   -0.25991E-01   -0.27046E-01  8320   0.539E+00 0.376E-03
CGA:   4    -0.231321485011E+03   -0.33376E-01   -0.33464E-01  8320   0.158E+00-0.840E-02
CGA:   5    -0.231332311249E+03   -0.10826E-01   -0.10851E-01  8320   0.221E+00-0.125E-02
CGA:   6    -0.231337447002E+03   -0.51358E-02   -0.50696E-02  8320   0.171E+00 0.182E-02
CGA:   7    -0.231344426513E+03   -0.69795E-02   -0.70335E-02  8320   0.317E-01 0.616E-03
CGA:   8    -0.231346940697E+03   -0.25142E-02   -0.25181E-02  8320   0.232E-01-0.129E-03
CGA:   9    -0.231347417318E+03   -0.47662E-03   -0.47358E-03  8320   0.177E-01 0.108E-03
CGA:  10    -0.231348368727E+03   -0.95141E-03   -0.95146E-03  8320   0.620E-02 0.707E-04
CGA:  11    -0.231348692689E+03   -0.32396E-03   -0.32386E-03  8320   0.297E-02-0.311E-04
CGA:  12    -0.231348842753E+03   -0.15006E-03   -0.15002E-03  8320   0.539E-02-0.686E-05
CGA:  13    -0.231348964121E+03   -0.12137E-03   -0.12213E-03  8320   0.192E-02-0.181E-04
CGA:  14    -0.231349085572E+03   -0.12145E-03   -0.12147E-03  8320   0.591E-03-0.210E-05
CGA:  15    -0.231349141826E+03   -0.56254E-04   -0.56210E-04  8320   0.528E-03 0.111E-05
CGA:  16    -0.231349173325E+03   -0.31499E-04   -0.31499E-04  8320   0.941E-03-0.571E-06
CGA:  17    -0.231349191491E+03   -0.18166E-04   -0.18142E-04  8320   0.270E-03-0.552E-06
CGA:  18    -0.231349210777E+03   -0.19286E-04   -0.19244E-04  8320   0.176E-03 0.221E-05
CGA:  19    -0.231349222862E+03   -0.12084E-04   -0.12109E-04  8320   0.128E-03-0.167E-05
CGA:  20    -0.231349235790E+03   -0.12928E-04   -0.12901E-04  8320   0.216E-03 0.531E-06
CGA:  21    -0.231349239330E+03   -0.35399E-05   -0.35462E-05  8320   0.707E-04-0.179E-06
   7 F= -.23134924E+03 E0= -.23133131E+03  d E =-.206583E-02  mag=     2.9584
       N       E                     dE             d eps       ncg     rms          ort
SDA:   1    -0.231342052749E+03    0.71830E-02    0.00000E+00  8320   0.615E-01 0.000E+00
CGA:   2    -0.231344026558E+03   -0.19738E-02   -0.19074E-02  8320   0.429E-01 0.832E-03
CGA:   3    -0.231345034933E+03   -0.10084E-02   -0.10121E-02  8320   0.295E-01-0.112E-03
CGA:   4    -0.231347331575E+03   -0.22966E-02   -0.22958E-02  8320   0.178E-01 0.330E-04
CGA:   5    -0.231348440175E+03   -0.11086E-02   -0.11083E-02  8320   0.754E-02 0.213E-04
CGA:   6    -0.231349067582E+03   -0.62741E-03   -0.62795E-03  8320   0.771E-02-0.142E-04
CGA:   7    -0.231349248100E+03   -0.18052E-03   -0.18118E-03  8320   0.658E-02-0.185E-04
CGA:   8    -0.231349499352E+03   -0.25125E-03   -0.25119E-03  8320   0.105E-02-0.681E-07
CGA:   9    -0.231349615139E+03   -0.11579E-03   -0.11585E-03  8320   0.834E-03-0.133E-05
CGA:  10    -0.231349631354E+03   -0.16215E-04   -0.16196E-04  8320   0.554E-03 0.755E-06
CGA:  11    -0.231349662105E+03   -0.30751E-04   -0.30750E-04  8320   0.180E-03 0.819E-06
CGA:  12    -0.231349678683E+03   -0.16578E-04   -0.16597E-04  8320   0.193E-03-0.552E-06
CGA:  13    -0.231349682365E+03   -0.36821E-05   -0.36832E-05  8320   0.117E-03-0.145E-06
   8 F= -.23134968E+03 E0= -.23133178E+03  d E =-.443035E-03  mag=     2.9595
       N       E                     dE             d eps       ncg     rms          ort
SDA:   1    -0.231338088478E+03    0.11590E-01    0.00000E+00  8320   0.110E+00 0.000E+00
CGA:   2    -0.231341004074E+03   -0.29156E-02   -0.29505E-02  8320   0.763E-01-0.766E-03
CGA:   3    -0.231342642500E+03   -0.16384E-02   -0.16883E-02  8320   0.353E-01-0.144E-02
CGA:   4    -0.231347661292E+03   -0.50188E-02   -0.50324E-02  8320   0.291E-01-0.167E-03
CGA:   5    -0.231348715540E+03   -0.10542E-02   -0.10582E-02  8320   0.249E-01-0.220E-04
CGA:   6    -0.231349201822E+03   -0.48628E-03   -0.48140E-03  8320   0.822E-02 0.180E-03
CGA:   7    -0.231349620623E+03   -0.41880E-03   -0.41909E-03  8320   0.386E-02 0.398E-04
CGA:   8    -0.231350068167E+03   -0.44754E-03   -0.44850E-03  8320   0.148E-02-0.155E-04
CGA:   9    -0.231350100510E+03   -0.32343E-04   -0.32406E-04  8320   0.119E-02-0.126E-05
CGA:  10    -0.231350147491E+03   -0.46981E-04   -0.46966E-04  8320   0.435E-03 0.207E-06
CGA:  11    -0.231350179915E+03   -0.32424E-04   -0.32468E-04  8320   0.361E-03-0.223E-05
CGA:  12    -0.231350191631E+03   -0.11716E-04   -0.11720E-04  8320   0.345E-03 0.501E-06
CGA:  13    -0.231350199501E+03   -0.78702E-05   -0.79147E-05  8320   0.106E-03 0.141E-06
CGA:  14    -0.231350210218E+03   -0.10717E-04   -0.10775E-04  8320   0.674E-04-0.125E-05
CGA:  15    -0.231350212160E+03   -0.19414E-05   -0.19433E-05  8320   0.875E-04 0.283E-07
   9 F= -.23135021E+03 E0= -.23133231E+03  d E =-.529795E-03  mag=     2.9606
       N       E                     dE             d eps       ncg     rms          ort
SDA:   1    -0.231333098456E+03    0.17112E-01    0.00000E+00  8320   0.108E+00 0.000E+00
CGA:   2    -0.231337599287E+03   -0.45008E-02   -0.45322E-02  8320   0.630E-01 0.669E-03
CGA:   3    -0.231341146847E+03   -0.35476E-02   -0.35456E-02  8320   0.156E+00 0.357E-03
CGA:   4    -0.231345438042E+03   -0.42912E-02   -0.42216E-02  8320   0.442E-01 0.123E-02
CGA:   5    -0.231348411381E+03   -0.29733E-02   -0.29752E-02  8320   0.137E-01-0.872E-04
CGA:   6    -0.231349486962E+03   -0.10756E-02   -0.10749E-02  8320   0.333E-01 0.206E-04
CGA:   7    -0.231350093994E+03   -0.60703E-03   -0.61301E-03  8320   0.640E-02-0.240E-03
CGA:   8    -0.231350455344E+03   -0.36135E-03   -0.36147E-03  8320   0.262E-02-0.144E-04
CGA:   9    -0.231350584512E+03   -0.12917E-03   -0.12919E-03  8320   0.405E-02 0.324E-05
CGA:  10    -0.231350670628E+03   -0.86116E-04   -0.86117E-04  8320   0.115E-02-0.512E-06
CGA:  11    -0.231350735579E+03   -0.64951E-04   -0.64909E-04  8320   0.508E-03 0.625E-05
CGA:  12    -0.231350756927E+03   -0.21348E-04   -0.21327E-04  8320   0.661E-03-0.151E-05
CGA:  13    -0.231350773139E+03   -0.16212E-04   -0.16202E-04  8320   0.331E-03-0.159E-05
CGA:  14    -0.231350795604E+03   -0.22465E-04   -0.22448E-04  8320   0.122E-03 0.909E-06
CGA:  15    -0.231350801061E+03   -0.54572E-05   -0.54565E-05  8320   0.218E-03-0.144E-06
  10 F= -.23135080E+03 E0= -.23133292E+03  d E =-.588901E-03  mag=     2.9608
       N       E                     dE             d eps       ncg     rms          ort
SDA:   1    -0.231319465428E+03    0.31330E-01    0.00000E+00  8320   0.127E+00 0.000E+00
CGA:   2    -0.231326302556E+03   -0.68371E-02   -0.68347E-02  8320   0.317E+00 0.314E-03
CGA:   3    -0.231334959737E+03   -0.86572E-02   -0.87020E-02  8320   0.112E+00-0.623E-03
CGA:   4    -0.231344326894E+03   -0.93672E-02   -0.93990E-02  8320   0.471E-01-0.816E-03
CGA:   5    -0.231346872648E+03   -0.25458E-02   -0.25416E-02  8320   0.861E-01 0.521E-03
CGA:   6    -0.231348825124E+03   -0.19525E-02   -0.19570E-02  8320   0.293E-01-0.133E-03
CGA:   7    -0.231350371096E+03   -0.15460E-02   -0.15456E-02  8320   0.114E-01 0.523E-04
CGA:   8    -0.231350809595E+03   -0.43850E-03   -0.43732E-03  8320   0.135E-01-0.264E-04
CGA:   9    -0.231351117673E+03   -0.30808E-03   -0.30965E-03  8320   0.412E-02-0.432E-04
CGA:  10    -0.231351364246E+03   -0.24657E-03   -0.24633E-03  8320   0.245E-02 0.158E-04
CGA:  11    -0.231351458733E+03   -0.94487E-04   -0.94512E-04  8320   0.304E-02 0.179E-06
CGA:  12    -0.231351526607E+03   -0.67874E-04   -0.67642E-04  8320   0.565E-03 0.404E-05
CGA:  13    -0.231351591426E+03   -0.64819E-04   -0.64742E-04  8320   0.822E-03 0.117E-05
CGA:  14    -0.231351606503E+03   -0.15077E-04   -0.15052E-04  8320   0.386E-03-0.592E-07
CGA:  15    -0.231351628788E+03   -0.22285E-04   -0.22298E-04  8320   0.160E-03-0.141E-05
CGA:  16    -0.231351636223E+03   -0.74353E-05   -0.74363E-05  8320   0.229E-03 0.847E-06
  11 F= -.23135164E+03 E0= -.23133377E+03  d E =-.835162E-03  mag=     2.9625
       N       E                     dE             d eps       ncg     rms          ort
SDA:   1    -0.231206193613E+03    0.14544E+00    0.00000E+00  8320   0.142E+01 0.000E+00
CGA:   2    -0.231230487968E+03   -0.24294E-01   -0.26959E-01  8320   0.875E+00-0.910E-01
CGA:   3    -0.231266418011E+03   -0.35930E-01   -0.35885E-01  8320   0.662E+00-0.105E-01
CGA:   4    -0.231300710102E+03   -0.34292E-01   -0.34169E-01  8320   0.631E+00 0.117E-01
CGA:   5    -0.231313337736E+03   -0.12628E-01   -0.12030E-01  8320   0.238E+00 0.209E-01
CGA:   6    -0.231331412777E+03   -0.18075E-01   -0.17932E-01  8320   0.155E+00 0.436E-02
CGA:   7    -0.231339727665E+03   -0.83149E-02   -0.83191E-02  8320   0.303E+00-0.438E-03
CGA:   8    -0.231346290741E+03   -0.65631E-02   -0.67602E-02  8320   0.495E-01-0.466E-02
CGA:   9    -0.231348820688E+03   -0.25299E-02   -0.25360E-02  8320   0.299E-01-0.548E-03
CGA:  10    -0.231350010621E+03   -0.11899E-02   -0.11906E-02  8320   0.453E-01 0.420E-04
CGA:  11    -0.231351194861E+03   -0.11842E-02   -0.11755E-02  8320   0.917E-02 0.103E-03
CGA:  12    -0.231351689880E+03   -0.49502E-03   -0.49371E-03  8320   0.610E-02 0.987E-04
CGA:  13    -0.231351856411E+03   -0.16653E-03   -0.16634E-03  8320   0.647E-02 0.270E-05
CGA:  14    -0.231352166123E+03   -0.30971E-03   -0.30973E-03  8320   0.267E-02-0.543E-05
CGA:  15    -0.231352313983E+03   -0.14786E-03   -0.14783E-03  8320   0.247E-02 0.219E-05
CGA:  16    -0.231352359164E+03   -0.45181E-04   -0.45329E-04  8320   0.980E-03-0.355E-05
CGA:  17    -0.231352434658E+03   -0.75494E-04   -0.75703E-04  8320   0.920E-03-0.565E-05
CGA:  18    -0.231352470529E+03   -0.35871E-04   -0.35895E-04  8320   0.114E-02 0.263E-05
CGA:  19    -0.231352499594E+03   -0.29066E-04   -0.29052E-04  8320   0.455E-03 0.221E-05
CGA:  20    -0.231352527444E+03   -0.27850E-04   -0.27876E-04  8320   0.281E-03-0.164E-05
CGA:  21    -0.231352534522E+03   -0.70778E-05   -0.70711E-05  8320   0.286E-03-0.261E-06
CGA:  22    -0.231352553839E+03   -0.19316E-04   -0.19275E-04  8320   0.143E-03 0.151E-05
CGA:  23    -0.231352560323E+03   -0.64848E-05   -0.64852E-05  8320   0.239E-03-0.120E-05
  12 F= -.23135256E+03 E0= -.23133472E+03  d E =-.924100E-03  mag=     2.9624
       N       E                     dE             d eps       ncg     rms          ort
SDA:   1    -0.231186160377E+03    0.16639E+00    0.00000E+00  8320   0.659E+00 0.000E+00
CGA:   2    -0.231234851166E+03   -0.48691E-01   -0.50157E-01  8320   0.104E+01-0.429E-01
CGA:   3    -0.231285196379E+03   -0.50345E-01   -0.50155E-01  8320   0.110E+01 0.194E-01
CGA:   4    -0.231305822085E+03   -0.20626E-01   -0.18539E-01  8320   0.227E+00 0.903E-01
CGA:   5    -0.231327787936E+03   -0.21966E-01   -0.22140E-01  8320   0.299E+00-0.379E-02
CGA:   6    -0.231342500494E+03   -0.14713E-01   -0.14694E-01  8320   0.168E+00 0.310E-02
CGA:   7    -0.231345961848E+03   -0.34614E-02   -0.34870E-02  8320   0.996E-01-0.801E-03
CGA:   8    -0.231349240728E+03   -0.32789E-02   -0.33097E-02  8320   0.438E-01 0.396E-03
CGA:   9    -0.231352347239E+03   -0.31065E-02   -0.31109E-02  8320   0.197E-01-0.152E-03
CGA:  10    -0.231353384762E+03   -0.10375E-02   -0.10380E-02  8320   0.948E-02-0.486E-04
CGA:  11    -0.231353828901E+03   -0.44414E-03   -0.44409E-03  8320   0.107E-01 0.720E-04
CGA:  12    -0.231354101043E+03   -0.27214E-03   -0.27147E-03  8320   0.859E-02 0.167E-04
CGA:  13    -0.231354505626E+03   -0.40458E-03   -0.40459E-03  8320   0.197E-02-0.468E-05
CGA:  14    -0.231354633341E+03   -0.12772E-03   -0.12793E-03  8320   0.178E-02-0.102E-04
CGA:  15    -0.231354692510E+03   -0.59168E-04   -0.59267E-04  8320   0.196E-02 0.274E-05
CGA:  16    -0.231354749436E+03   -0.56926E-04   -0.56907E-04  8320   0.121E-02 0.334E-05
CGA:  17    -0.231354830228E+03   -0.80792E-04   -0.80762E-04  8320   0.378E-03 0.120E-05
CGA:  18    -0.231354846801E+03   -0.16573E-04   -0.16568E-04  8320   0.659E-03-0.195E-05
CGA:  19    -0.231354866389E+03   -0.19589E-04   -0.19583E-04  8320   0.367E-03-0.920E-06
CGA:  20    -0.231354884266E+03   -0.17877E-04   -0.17870E-04  8320   0.217E-03 0.192E-05
CGA:  21    -0.231354900247E+03   -0.15981E-04   -0.15967E-04  8320   0.253E-03 0.416E-06
CGA:  22    -0.231354904749E+03   -0.45014E-05   -0.44890E-05  8320   0.104E-03-0.153E-06
  13 F= -.23135490E+03 E0= -.23133709E+03  d E =-.234443E-02  mag=     2.9667
       N       E                     dE             d eps       ncg     rms          ort
SDA:   1    -0.231332850530E+03    0.22050E-01    0.00000E+00  8320   0.388E+00 0.000E+00
CGA:   2    -0.231339683880E+03   -0.68334E-02   -0.74241E-02  8320   0.168E+00-0.205E-01
CGA:   3    -0.231343019661E+03   -0.33358E-02   -0.31802E-02  8320   0.546E-01 0.478E-02
CGA:   4    -0.231349990422E+03   -0.69708E-02   -0.69688E-02  8320   0.902E-01 0.377E-04
CGA:   5    -0.231351438661E+03   -0.14482E-02   -0.14618E-02  8320   0.371E-01-0.652E-03
CGA:   6    -0.231353249255E+03   -0.18106E-02   -0.18133E-02  8320   0.221E-01-0.580E-03
CGA:   7    -0.231354774669E+03   -0.15254E-02   -0.15234E-02  8320   0.222E-01 0.741E-04
CGA:   8    -0.231355183292E+03   -0.40862E-03   -0.41140E-03  8320   0.116E-01-0.973E-04
CGA:   9    -0.231355739537E+03   -0.55624E-03   -0.55642E-03  8320   0.362E-02-0.574E-04
CGA:  10    -0.231356001455E+03   -0.26192E-03   -0.26149E-03  8320   0.204E-02 0.151E-04
CGA:  11    -0.231356134200E+03   -0.13275E-03   -0.13290E-03  8320   0.823E-03-0.772E-05
CGA:  12    -0.231356194491E+03   -0.60290E-04   -0.60196E-04  8320   0.507E-03 0.355E-05
CGA:  13    -0.231356214606E+03   -0.20116E-04   -0.20089E-04  8320   0.834E-03-0.174E-05
CGA:  14    -0.231356238203E+03   -0.23596E-04   -0.23582E-04  8320   0.318E-03-0.187E-05
CGA:  15    -0.231356256977E+03   -0.18774E-04   -0.18747E-04  8320   0.103E-03 0.248E-05
CGA:  16    -0.231356266742E+03   -0.97654E-05   -0.98226E-05  8320   0.119E-03-0.122E-05
  14 F= -.23135627E+03 E0= -.23133845E+03  d E =-.136199E-02  mag=     2.9671
       N       E                     dE             d eps       ncg     rms          ort
SDA:   1    -0.231307597033E+03    0.48660E-01    0.00000E+00  8320   0.201E+01 0.000E+00
CGA:   2    -0.231327937355E+03   -0.20340E-01   -0.23785E-01  8320   0.163E+00-0.253E+00
CGA:   3    -0.231333089979E+03   -0.51526E-02   -0.50888E-02  8320   0.167E+00-0.666E-03
CGA:   4    -0.231341305642E+03   -0.82157E-02   -0.82112E-02  8320   0.244E+00 0.154E-02
CGA:   5    -0.231350089806E+03   -0.87842E-02   -0.87168E-02  8320   0.107E+00-0.790E-03
CGA:   6    -0.231352443364E+03   -0.23536E-02   -0.23813E-02  8320   0.441E-01-0.655E-03
CGA:   7    -0.231354433292E+03   -0.19899E-02   -0.19898E-02  8320   0.457E-01-0.803E-04
CGA:   8    -0.231355609571E+03   -0.11763E-02   -0.11823E-02  8320   0.190E-01-0.749E-04
CGA:   9    -0.231356461614E+03   -0.85204E-03   -0.85203E-03  8320   0.246E-01-0.302E-04
CGA:  10    -0.231357147117E+03   -0.68550E-03   -0.68694E-03  8320   0.540E-02 0.352E-06
CGA:  11    -0.231357271968E+03   -0.12485E-03   -0.12462E-03  8320   0.307E-02 0.472E-05
CGA:  12    -0.231357439696E+03   -0.16773E-03   -0.16769E-03  8320   0.361E-02 0.322E-05
CGA:  13    -0.231357529756E+03   -0.90061E-04   -0.89985E-04  8320   0.142E-02 0.946E-06
CGA:  14    -0.231357583976E+03   -0.54219E-04   -0.54240E-04  8320   0.130E-02 0.274E-05
CGA:  15    -0.231357623580E+03   -0.39604E-04   -0.39595E-04  8320   0.664E-03 0.133E-06
CGA:  16    -0.231357645119E+03   -0.21539E-04   -0.21534E-04  8320   0.464E-03-0.975E-06
CGA:  17    -0.231357661615E+03   -0.16496E-04   -0.16486E-04  8320   0.416E-03-0.126E-05
CGA:  18    -0.231357679058E+03   -0.17443E-04   -0.17442E-04  8320   0.348E-03 0.711E-06
CGA:  19    -0.231357688250E+03   -0.91927E-05   -0.91955E-05  8320   0.159E-03 0.294E-06
  15 F= -.23135769E+03 E0= -.23133987E+03  d E =-.142151E-02  mag=     2.9689
       N       E                     dE             d eps       ncg     rms          ort
SDA:   1    -0.231309124119E+03    0.48555E-01    0.00000E+00  8320   0.169E+01 0.000E+00
CGA:   2    -0.231326432653E+03   -0.17309E-01   -0.18970E-01  8320   0.116E+00-0.124E+00
CGA:   3    -0.231333720136E+03   -0.72875E-02   -0.73808E-02  8320   0.304E+00-0.291E-02
CGA:   4    -0.231343890376E+03   -0.10170E-01   -0.10199E-01  8320   0.184E+00 0.149E-02
CGA:   5    -0.231349767402E+03   -0.58770E-02   -0.58209E-02  8320   0.771E-01-0.140E-02
CGA:   6    -0.231351858463E+03   -0.20911E-02   -0.20970E-02  8320   0.583E-01 0.425E-04
CGA:   7    -0.231354464454E+03   -0.26060E-02   -0.26085E-02  8320   0.341E-01-0.275E-03
CGA:   8    -0.231355322572E+03   -0.85812E-03   -0.86140E-03  8320   0.242E-01-0.748E-05
CGA:   9    -0.231356529022E+03   -0.12064E-02   -0.12072E-02  8320   0.145E-01-0.466E-04
CGA:  10    -0.231356811775E+03   -0.28275E-03   -0.28314E-03  8320   0.471E-02-0.679E-05
CGA:  11    -0.231357012750E+03   -0.20098E-03   -0.20110E-03  8320   0.394E-02-0.163E-04
CGA:  12    -0.231357130123E+03   -0.11737E-03   -0.11740E-03  8320   0.320E-02 0.785E-06
CGA:  13    -0.231357267485E+03   -0.13736E-03   -0.13735E-03  8320   0.158E-02 0.223E-05
CGA:  14    -0.231357300510E+03   -0.33025E-04   -0.33066E-04  8320   0.720E-03-0.246E-06
CGA:  15    -0.231357346856E+03   -0.46346E-04   -0.46430E-04  8320   0.101E-02-0.257E-05
CGA:  16    -0.231357369158E+03   -0.22302E-04   -0.22306E-04  8320   0.340E-03-0.896E-07
CGA:  17    -0.231357386384E+03   -0.17226E-04   -0.17215E-04  8320   0.490E-03 0.808E-06
CGA:  18    -0.231357401566E+03   -0.15182E-04   -0.15188E-04  8320   0.268E-03 0.628E-06
CGA:  19    -0.231357410207E+03   -0.86409E-05   -0.86309E-05  8320   0.141E-03-0.125E-05
  16 F= -.23135741E+03 E0= -.23133959E+03  d E =0.278043E-03  mag=     2.9705
       N       E                     dE             d eps       ncg     rms          ort
SDA:   1    -0.231159535324E+03    0.19787E+00    0.00000E+00  8320   0.197E+01 0.000E+00
CGA:   2    -0.231185425381E+03   -0.25890E-01   -0.27678E-01  8320   0.689E+00-0.925E-01
CGA:   3    -0.231261567839E+03   -0.76142E-01   -0.76627E-01  8320   0.121E+01-0.746E-02
CGA:   4    -0.231295050757E+03   -0.33483E-01   -0.34151E-01  8320   0.950E+00 0.421E-02
CGA:   5    -0.231319920561E+03   -0.24870E-01   -0.23107E-01  8320   0.250E+00 0.188E-01
CGA:   6    -0.231336419519E+03   -0.16499E-01   -0.16425E-01  8320   0.222E+00 0.255E-02
CGA:   7    -0.231341229121E+03   -0.48096E-02   -0.47722E-02  8320   0.151E+00 0.741E-03
CGA:   8    -0.231350506303E+03   -0.92772E-02   -0.92240E-02  8320   0.466E-01 0.212E-02
CGA:   9    -0.231352067437E+03   -0.15611E-02   -0.15563E-02  8320   0.446E-01-0.170E-03
CGA:  10    -0.231353085208E+03   -0.10178E-02   -0.10160E-02  8320   0.137E-01 0.333E-04
CGA:  11    -0.231354324207E+03   -0.12390E-02   -0.12382E-02  8320   0.113E-01 0.167E-04
CGA:  12    -0.231354551064E+03   -0.22686E-03   -0.22765E-03  8320   0.684E-02-0.194E-04
CGA:  13    -0.231354880192E+03   -0.32913E-03   -0.32942E-03  8320   0.290E-02-0.238E-04
CGA:  14    -0.231355030683E+03   -0.15049E-03   -0.15038E-03  8320   0.424E-02 0.620E-05
CGA:  15    -0.231355133469E+03   -0.10279E-03   -0.10272E-03  8320   0.219E-02 0.487E-06
CGA:  16    -0.231355234794E+03   -0.10133E-03   -0.10118E-03  8320   0.882E-03 0.193E-04
CGA:  17    -0.231355276833E+03   -0.42039E-04   -0.42058E-04  8320   0.165E-02-0.243E-05
CGA:  18    -0.231355320479E+03   -0.43646E-04   -0.43643E-04  8320   0.398E-03-0.275E-05
CGA:  19    -0.231355353600E+03   -0.33121E-04   -0.33065E-04  8320   0.553E-03 0.108E-05
CGA:  20    -0.231355365895E+03   -0.12296E-04   -0.12316E-04  8320   0.385E-03 0.307E-06
CGA:  21    -0.231355390664E+03   -0.24769E-04   -0.24770E-04  8320   0.202E-03 0.125E-06
CGA:  22    -0.231355399501E+03   -0.88370E-05   -0.88356E-05  8320   0.299E-03 0.131E-05
  17 F= -.23135540E+03 E0= -.23133759E+03  d E =0.201071E-02  mag=     2.9682
       N       E                     dE             d eps       ncg     rms          ort
SDA:   1    -0.231284762046E+03    0.70629E-01    0.00000E+00  8320   0.572E+00 0.000E+00
CGA:   2    -0.231293177131E+03   -0.84151E-02   -0.82414E-02  8320   0.239E+00 0.856E-02
CGA:   3    -0.231326438628E+03   -0.33261E-01   -0.33302E-01  8320   0.297E+00-0.533E-03
CGA:   4    -0.231342578229E+03   -0.16140E-01   -0.16156E-01  8320   0.236E+00-0.110E-02
CGA:   5    -0.231346521260E+03   -0.39430E-02   -0.38668E-02  8320   0.922E-01 0.329E-02
CGA:   6    -0.231351438830E+03   -0.49176E-02   -0.49034E-02  8320   0.477E-01 0.116E-02
CGA:   7    -0.231354137675E+03   -0.26988E-02   -0.26809E-02  8320   0.679E-01 0.116E-02
CGA:   8    -0.231355459246E+03   -0.13216E-02   -0.12975E-02  8320   0.241E-01 0.849E-03
CGA:   9    -0.231356461882E+03   -0.10026E-02   -0.10021E-02  8320   0.543E-02-0.862E-04
CGA:  10    -0.231356899101E+03   -0.43722E-03   -0.43617E-03  8320   0.754E-02 0.301E-04
CGA:  11    -0.231357027242E+03   -0.12814E-03   -0.12785E-03  8320   0.301E-02 0.993E-05
CGA:  12    -0.231357243196E+03   -0.21595E-03   -0.21610E-03  8320   0.108E-02-0.509E-05
CGA:  13    -0.231357327768E+03   -0.84572E-04   -0.84402E-04  8320   0.102E-02 0.499E-05
CGA:  14    -0.231357351624E+03   -0.23855E-04   -0.23803E-04  8320   0.858E-03-0.179E-06
CGA:  15    -0.231357386384E+03   -0.34760E-04   -0.34743E-04  8320   0.405E-03-0.287E-05
CGA:  16    -0.231357413374E+03   -0.26991E-04   -0.26944E-04  8320   0.194E-03 0.210E-05
CGA:  17    -0.231357425566E+03   -0.12192E-04   -0.12200E-04  8320   0.211E-03-0.622E-06
CGA:  18    -0.231357429951E+03   -0.43850E-05   -0.43901E-05  8320   0.147E-03-0.105E-06
  18 F= -.23135743E+03 E0= -.23133962E+03  d E =-.203045E-02  mag=     2.9695
       N       E                     dE             d eps       ncg     rms          ort
SDA:   1    -0.231340342991E+03    0.17083E-01    0.00000E+00  8320   0.111E+00 0.000E+00
CGA:   2    -0.231345622410E+03   -0.52794E-02   -0.52796E-02  8320   0.691E-01-0.888E-03
CGA:   3    -0.231348083879E+03   -0.24615E-02   -0.24676E-02  8320   0.120E+00 0.103E-03
CGA:   4    -0.231353072368E+03   -0.49885E-02   -0.49839E-02  8320   0.518E-01-0.319E-03
CGA:   5    -0.231355603475E+03   -0.25311E-02   -0.25283E-02  8320   0.182E-01 0.649E-03
CGA:   6    -0.231356459492E+03   -0.85602E-03   -0.85601E-03  8320   0.322E-01-0.810E-04
CGA:   7    -0.231357244968E+03   -0.78548E-03   -0.78723E-03  8320   0.115E-01-0.353E-04
CGA:   8    -0.231357915035E+03   -0.67007E-03   -0.66959E-03  8320   0.219E-02 0.296E-04
CGA:   9    -0.231358135047E+03   -0.22001E-03   -0.22022E-03  8320   0.341E-02-0.384E-05
CGA:  10    -0.231358191443E+03   -0.56396E-04   -0.56212E-04  8320   0.123E-02 0.729E-05
CGA:  11    -0.231358266963E+03   -0.75520E-04   -0.75446E-04  8320   0.406E-03 0.520E-05
CGA:  12    -0.231358296940E+03   -0.29977E-04   -0.30083E-04  8320   0.442E-03-0.368E-05
CGA:  13    -0.231358318359E+03   -0.21419E-04   -0.21419E-04  8320   0.522E-03 0.171E-05
CGA:  14    -0.231358327430E+03   -0.90712E-05   -0.90791E-05  8320   0.110E-03 0.138E-05
  19 F= -.23135833E+03 E0= -.23134053E+03  d E =-.897479E-03  mag=     2.9706
       N       E                     dE             d eps       ncg     rms          ort
SDA:   1    -0.231189463752E+03    0.16885E+00    0.00000E+00  8320   0.983E+00 0.000E+00
CGA:   2    -0.231210327680E+03   -0.20864E-01   -0.22604E-01  8320   0.101E+01-0.435E-01
CGA:   3    -0.231259771348E+03   -0.49444E-01   -0.49376E-01  8320   0.797E+00 0.128E-01
CGA:   4    -0.231326552024E+03   -0.66781E-01   -0.67105E-01  8320   0.394E+00-0.820E-02
CGA:   5    -0.231337891927E+03   -0.11340E-01   -0.10989E-01  8320   0.327E+00 0.464E-02
CGA:   6    -0.231345590607E+03   -0.76987E-02   -0.80305E-02  8320   0.123E+00-0.703E-02
CGA:   7    -0.231354207900E+03   -0.86173E-02   -0.85553E-02  8320   0.767E-01 0.220E-02
CGA:   8    -0.231358492930E+03   -0.42850E-02   -0.42867E-02  8320   0.576E-01-0.178E-03
CGA:   9    -0.231359385165E+03   -0.89224E-03   -0.87751E-03  8320   0.161E-01 0.737E-03
CGA:  10    -0.231360487774E+03   -0.11026E-02   -0.11016E-02  8320   0.654E-02 0.438E-04
CGA:  11    -0.231361162425E+03   -0.67465E-03   -0.67485E-03  8320   0.639E-02-0.295E-05
CGA:  12    -0.231361287236E+03   -0.12481E-03   -0.12465E-03  8320   0.397E-02 0.708E-05
CGA:  13    -0.231361442421E+03   -0.15518E-03   -0.15547E-03  8320   0.137E-02 0.938E-05
CGA:  14    -0.231361572743E+03   -0.13032E-03   -0.13070E-03  8320   0.114E-02-0.814E-05
CGA:  15    -0.231361623195E+03   -0.50452E-04   -0.50449E-04  8320   0.108E-02 0.163E-05
CGA:  16    -0.231361646283E+03   -0.23088E-04   -0.23175E-04  8320   0.663E-03-0.111E-06
CGA:  17    -0.231361683142E+03   -0.36859E-04   -0.36867E-04  8320   0.253E-03-0.120E-05
CGA:  18    -0.231361711387E+03   -0.28245E-04   -0.28184E-04  8320   0.236E-03 0.780E-06
CGA:  19    -0.231361723117E+03   -0.11730E-04   -0.11732E-04  8320   0.497E-03 0.237E-06
CGA:  20    -0.231361735705E+03   -0.12588E-04   -0.12628E-04  8320   0.146E-03 0.263E-06
CGA:  21    -0.231361748255E+03   -0.12550E-04   -0.12505E-04  8320   0.779E-04 0.126E-05
CGA:  22    -0.231361756340E+03   -0.80857E-05   -0.80991E-05  8320   0.113E-03-0.378E-06
  20 F= -.23136176E+03 E0= -.23134396E+03  d E =-.342891E-02  mag=     2.9735
       N       E                     dE             d eps       ncg     rms          ort
SDA:   1    -0.231249875753E+03    0.11187E+00    0.00000E+00  8320   0.392E+00 0.000E+00
CGA:   2    -0.231281092625E+03   -0.31217E-01   -0.30731E-01  8320   0.126E+01 0.162E-01
CGA:   3    -0.231312759848E+03   -0.31667E-01   -0.31361E-01  8320   0.389E+00 0.731E-02
CGA:   4    -0.231334737797E+03   -0.21978E-01   -0.21971E-01  8320   0.253E+00 0.162E-02
CGA:   5    -0.231343299390E+03   -0.85616E-02   -0.84509E-02  8320   0.307E+00 0.639E-03
CGA:   6    -0.231352389188E+03   -0.90898E-02   -0.93622E-02  8320   0.113E+00-0.283E-02
CGA:   7    -0.231358864761E+03   -0.64756E-02   -0.64745E-02  8320   0.576E-01 0.122E-03
CGA:   8    -0.231360497303E+03   -0.16325E-02   -0.16350E-02  8320   0.560E-01-0.529E-04
CGA:   9    -0.231362151972E+03   -0.16547E-02   -0.16338E-02  8320   0.155E-01 0.245E-03
CGA:  10    -0.231363237856E+03   -0.10859E-02   -0.10835E-02  8320   0.142E-01 0.103E-03
CGA:  11    -0.231363511317E+03   -0.27346E-03   -0.27294E-03  8320   0.739E-02 0.191E-04
CGA:  12    -0.231363935140E+03   -0.42382E-03   -0.42380E-03  8320   0.262E-02 0.185E-05
CGA:  13    -0.231364049861E+03   -0.11472E-03   -0.11467E-03  8320   0.449E-02-0.934E-06
CGA:  14    -0.231364181077E+03   -0.13122E-03   -0.13154E-03  8320   0.199E-02-0.326E-07
CGA:  15    -0.231364270755E+03   -0.89678E-04   -0.89621E-04  8320   0.870E-03-0.974E-05
CGA:  16    -0.231364301286E+03   -0.30531E-04   -0.30538E-04  8320   0.127E-02 0.241E-06
CGA:  17    -0.231364345015E+03   -0.43729E-04   -0.43717E-04  8320   0.375E-03 0.100E-05
CGA:  18    -0.231364375075E+03   -0.30060E-04   -0.30024E-04  8320   0.809E-03 0.790E-06
CGA:  19    -0.231364390615E+03   -0.15541E-04   -0.15543E-04  8320   0.211E-03 0.737E-06
CGA:  20    -0.231364404464E+03   -0.13848E-04   -0.13817E-04  8320   0.208E-03 0.169E-05
CGA:  21    -0.231364411766E+03   -0.73027E-05   -0.72985E-05  8320   0.279E-03-0.232E-06
  21 F= -.23136441E+03 E0= -.23134661E+03  d E =-.265543E-02  mag=     2.9761
       N       E                     dE             d eps       ncg     rms          ort
SDA:   1    -0.231336144913E+03    0.28260E-01    0.00000E+00  8320   0.457E+00 0.000E+00
CGA:   2    -0.231342126511E+03   -0.59816E-02   -0.64561E-02  8320   0.130E+00-0.265E-01
CGA:   3    -0.231347158926E+03   -0.50324E-02   -0.49976E-02  8320   0.104E+00-0.317E-02
CGA:   4    -0.231355307607E+03   -0.81487E-02   -0.80902E-02  8320   0.130E+00 0.159E-02
CGA:   5    -0.231357670194E+03   -0.23626E-02   -0.23209E-02  8320   0.470E-01 0.163E-02
CGA:   6    -0.231360990343E+03   -0.33201E-02   -0.33184E-02  8320   0.253E-01 0.608E-04
CGA:   7    -0.231361667535E+03   -0.67719E-03   -0.67432E-03  8320   0.280E-01 0.290E-04
CGA:   8    -0.231363142333E+03   -0.14748E-02   -0.14739E-02  8320   0.867E-02 0.860E-04
CGA:   9    -0.231363415071E+03   -0.27274E-03   -0.27199E-03  8320   0.692E-02-0.674E-05
CGA:  10    -0.231363587997E+03   -0.17293E-03   -0.17377E-03  8320   0.346E-02-0.152E-04
CGA:  11    -0.231363787970E+03   -0.19997E-03   -0.20008E-03  8320   0.199E-02-0.413E-05
CGA:  12    -0.231363834163E+03   -0.46192E-04   -0.46186E-04  8320   0.147E-02-0.503E-06
CGA:  13    -0.231363899400E+03   -0.65238E-04   -0.65243E-04  8320   0.683E-03-0.610E-05
CGA:  14    -0.231363929730E+03   -0.30329E-04   -0.30327E-04  8320   0.840E-03 0.258E-05
CGA:  15    -0.231363948866E+03   -0.19136E-04   -0.19153E-04  8320   0.307E-03 0.914E-06
CGA:  16    -0.231363971023E+03   -0.22157E-04   -0.22146E-04  8320   0.315E-03 0.300E-06
CGA:  17    -0.231363977036E+03   -0.60132E-05   -0.60114E-05  8320   0.141E-03 0.292E-06
CGA:  18    -0.231363987477E+03   -0.10441E-04   -0.10404E-04  8320   0.148E-03 0.129E-05
CGA:  19    -0.231363991686E+03   -0.42084E-05   -0.41991E-05  8320   0.117E-03-0.580E-06
  22 F= -.23136399E+03 E0= -.23134620E+03  d E =0.420081E-03  mag=     2.9753
       N       E                     dE             d eps       ncg     rms          ort
SDA:   1    -0.231352172419E+03    0.11815E-01    0.00000E+00  8320   0.242E+00 0.000E+00
CGA:   2    -0.231355220804E+03   -0.30484E-02   -0.32266E-02  8320   0.523E-01-0.104E-01
CGA:   3    -0.231356935903E+03   -0.17151E-02   -0.17009E-02  8320   0.310E-01-0.532E-03
CGA:   4    -0.231360296460E+03   -0.33606E-02   -0.33502E-02  8320   0.580E-01 0.192E-03
CGA:   5    -0.231361287782E+03   -0.99132E-03   -0.98093E-03  8320   0.171E-01 0.404E-03
CGA:   6    -0.231362350275E+03   -0.10625E-02   -0.10589E-02  8320   0.758E-02 0.158E-03
CGA:   7    -0.231362635419E+03   -0.28514E-03   -0.28502E-03  8320   0.129E-01-0.836E-05
CGA:   8    -0.231363108940E+03   -0.47352E-03   -0.47399E-03  8320   0.307E-02 0.244E-04
CGA:   9    -0.231363245673E+03   -0.13673E-03   -0.13675E-03  8320   0.209E-02-0.121E-04
CGA:  10    -0.231363287242E+03   -0.41570E-04   -0.41588E-04  8320   0.107E-02-0.361E-06
CGA:  11    -0.231363349266E+03   -0.62024E-04   -0.61975E-04  8320   0.623E-03 0.312E-05
CGA:  12    -0.231363374288E+03   -0.25021E-04   -0.25020E-04  8320   0.677E-03-0.128E-05
CGA:  13    -0.231363389317E+03   -0.15030E-04   -0.14983E-04  8320   0.235E-03-0.113E-05
CGA:  14    -0.231363402729E+03   -0.13412E-04   -0.13403E-04  8320   0.142E-03 0.640E-06
CGA:  15    -0.231363407449E+03   -0.47192E-05   -0.47174E-05  8320   0.196E-03-0.179E-06
  23 F= -.23136341E+03 E0= -.23134562E+03  d E =0.584237E-03  mag=     2.9751
       N       E                     dE             d eps       ncg     rms          ort
SDA:   1    -0.231345308596E+03    0.18094E-01    0.00000E+00  8320   0.240E+00 0.000E+00
CGA:   2    -0.231348651235E+03   -0.33426E-02   -0.35001E-02  8320   0.839E-01-0.795E-02
CGA:   3    -0.231352639160E+03   -0.39879E-02   -0.39953E-02  8320   0.676E-01-0.581E-03
CGA:   4    -0.231358134408E+03   -0.54952E-02   -0.54342E-02  8320   0.923E-01 0.153E-02
CGA:   5    -0.231360322384E+03   -0.21880E-02   -0.21675E-02  8320   0.602E-01 0.355E-03
CGA:   6    -0.231362241366E+03   -0.19190E-02   -0.19203E-02  8320   0.105E-01 0.143E-04
CGA:   7    -0.231363055149E+03   -0.81378E-03   -0.81264E-03  8320   0.177E-01 0.305E-04
CGA:   8    -0.231363416490E+03   -0.36134E-03   -0.36270E-03  8320   0.845E-02-0.262E-04
CGA:   9    -0.231363799434E+03   -0.38294E-03   -0.38310E-03  8320   0.199E-02-0.269E-04
CGA:  10    -0.231363887607E+03   -0.88173E-04   -0.88163E-04  8320   0.295E-02 0.346E-05
CGA:  11    -0.231363953396E+03   -0.65790E-04   -0.65732E-04  8320   0.711E-03-0.562E-07
CGA:  12    -0.231364005807E+03   -0.52411E-04   -0.52488E-04  8320   0.790E-03-0.226E-05
CGA:  13    -0.231364025439E+03   -0.19632E-04   -0.19624E-04  8320   0.546E-03 0.532E-06
CGA:  14    -0.231364041607E+03   -0.16168E-04   -0.16206E-04  8320   0.179E-03 0.179E-05
CGA:  15    -0.231364053587E+03   -0.11980E-04   -0.12025E-04  8320   0.186E-03-0.175E-05
CGA:  16    -0.231364057136E+03   -0.35490E-05   -0.35453E-05  8320   0.100E-03-0.304E-06
  24 F= -.23136406E+03 E0= -.23134626E+03  d E =-.649687E-03  mag=     2.9757
       N       E                     dE             d eps       ncg     rms          ort
SDA:   1    -0.217666348974E+03    0.13698E+02    0.00000E+00  8320   0.951E+02 0.000E+00
CGA:   2    -0.220074298162E+03   -0.24079E+01   -0.31335E+01  8320   0.965E+02 0.143E+02
CGA:   3    -0.222553042548E+03   -0.24787E+01   -0.26392E+01  8320   0.874E+02-0.150E+02
CGA:   4    -0.225163456079E+03   -0.26104E+01   -0.24358E+01  8320   0.105E+03-0.501E+01
CGA:   5    -0.227080181043E+03   -0.19167E+01   -0.19351E+01  8320   0.334E+02-0.952E+01
CGA:   6    -0.228412996938E+03   -0.13328E+01   -0.13462E+01  8320   0.460E+02-0.234E+01
CGA:   7    -0.229236898318E+03   -0.82390E+00   -0.94725E+00  8320   0.164E+02-0.153E+01
CGA:   8    -0.230143655672E+03   -0.90676E+00   -0.85598E+00  8320   0.200E+02 0.272E+01
CGA:   9    -0.230527275897E+03   -0.38362E+00   -0.39064E+00  8320   0.565E+01-0.101E+01
CGA:  10    -0.230817064627E+03   -0.28979E+00   -0.28981E+00  8320   0.478E+01 0.846E-02
CGA:  11    -0.230922059962E+03   -0.10500E+00   -0.10198E+00  8320   0.341E+01 0.472E-01
CGA:  12    -0.231049701152E+03   -0.12764E+00   -0.12887E+00  8320   0.781E+00 0.276E+00
CGA:  13    -0.231097260032E+03   -0.47559E-01   -0.51189E-01  8320   0.103E+01-0.149E+00
CGA:  14    -0.231138802356E+03   -0.41542E-01   -0.41274E-01  8320   0.122E+01 0.205E-01
CGA:  15    -0.231159654258E+03   -0.20852E-01   -0.19035E-01  8320   0.206E+00 0.836E-01
CGA:  16    -0.231173867980E+03   -0.14214E-01   -0.14015E-01  8320   0.258E+00 0.709E-02
CGA:  17    -0.231183254607E+03   -0.93866E-02   -0.93233E-02  8320   0.269E+00-0.366E-02
CGA:  18    -0.231189556857E+03   -0.63023E-02   -0.64389E-02  8320   0.202E+00-0.145E-02
CGA:  19    -0.231202427949E+03   -0.12871E-01   -0.12911E-01  8320   0.534E-01-0.164E-02
CGA:  20    -0.231204840909E+03   -0.24130E-02   -0.24082E-02  8320   0.901E-01 0.641E-03
CGA:  21    -0.231207059856E+03   -0.22189E-02   -0.21701E-02  8320   0.636E-01 0.780E-03
CGA:  22    -0.231210273565E+03   -0.32137E-02   -0.31776E-02  8320   0.476E-01 0.271E-02
CGA:  23    -0.231213830499E+03   -0.35569E-02   -0.36297E-02  8320   0.220E-01-0.259E-02
CGA:  24    -0.231214517331E+03   -0.68683E-03   -0.69573E-03  8320   0.337E-01 0.223E-03
CGA:  25    -0.231215533153E+03   -0.10158E-02   -0.96820E-03  8320   0.188E-01 0.101E-04
CGA:  26    -0.231217030290E+03   -0.14971E-02   -0.14045E-02  8320   0.164E-01 0.242E-02
CGA:  27    -0.231217418463E+03   -0.38817E-03   -0.36465E-03  8320   0.158E-01 0.714E-03
CGA:  28    -0.231218426470E+03   -0.10080E-02   -0.96516E-03  8320   0.180E-01 0.180E-02
CGA:  29    -0.231218988671E+03   -0.56220E-03   -0.59830E-03  8320   0.220E-01 0.307E-03
CGA:  30    -0.231219452007E+03   -0.46334E-03   -0.35279E-03  8320   0.882E-02 0.511E-02
CGA:  31    -0.231219860753E+03   -0.40875E-03   -0.40364E-03  8320   0.294E-01-0.654E-03
SDA:  32    -0.231220238933E+03   -0.37818E-03   -0.34264E-03  8320   0.344E-01 0.254E-02
CGA:  33    -0.231220621309E+03   -0.38238E-03   -0.38823E-03  8320   0.670E-02-0.477E-03
CGA:  34    -0.231220954886E+03   -0.33358E-03   -0.33358E-03  8320   0.467E-02-0.263E-04
CGA:  35    -0.231221756335E+03   -0.80145E-03   -0.75997E-03  8320   0.131E-01 0.391E-03
CGA:  36    -0.231222007402E+03   -0.25107E-03   -0.24407E-03  8320   0.769E-02 0.269E-03
CGA:  37    -0.231222509836E+03   -0.50243E-03   -0.49917E-03  8320   0.369E-02 0.123E-03
CGA:  38    -0.231222715691E+03   -0.20586E-03   -0.20555E-03  8320   0.348E-02 0.149E-04
CGA:  39    -0.231223075973E+03   -0.36028E-03   -0.37890E-03  8320   0.409E-02-0.336E-03
CGA:  40    -0.231223264544E+03   -0.18857E-03   -0.18737E-03  8320   0.990E-02 0.238E-03
CGA:  41    -0.231223552050E+03   -0.28751E-03   -0.25871E-03  8320   0.291E-02 0.570E-03
CGA:  42    -0.231223686423E+03   -0.13437E-03   -0.13510E-03  8320   0.447E-02 0.997E-04
CGA:  43    -0.231223815784E+03   -0.12936E-03   -0.12318E-03  8320   0.186E-02 0.722E-04
CGA:  44    -0.231223894936E+03   -0.79152E-04   -0.79548E-04  8320   0.228E-02 0.392E-04
CGA:  45    -0.231223960392E+03   -0.65456E-04   -0.63724E-04  8320   0.137E-02 0.114E-04
CGA:  46    -0.231224039236E+03   -0.78844E-04   -0.77712E-04  8320   0.222E-02 0.673E-04
CGA:  47    -0.231224097799E+03   -0.58563E-04   -0.56536E-04  8320   0.940E-03 0.367E-04
CGA:  48    -0.231224135883E+03   -0.38083E-04   -0.38240E-04  8320   0.886E-03 0.151E-04
CGA:  49    -0.231224159314E+03   -0.23432E-04   -0.23200E-04  8320   0.454E-03 0.332E-05
CGA:  50    -0.231224177842E+03   -0.18528E-04   -0.18546E-04  8320   0.451E-03 0.374E-05
CGA:  51    -0.231224190948E+03   -0.13106E-04   -0.13035E-04  8320   0.296E-03-0.439E-06
CGA:  52    -0.231224203324E+03   -0.12375E-04   -0.12377E-04  8320   0.285E-03 0.104E-05
CGA:  53    -0.231224211644E+03   -0.83202E-05   -0.82791E-05  8320   0.216E-03-0.126E-05
CGA:  54    -0.231224221709E+03   -0.10065E-04   -0.10048E-04  8320   0.222E-03 0.180E-05
CGA:  55    -0.231224227685E+03   -0.59761E-05   -0.59568E-05  8320   0.135E-03 0.266E-07
  25 F= -.23122423E+03 E0= -.23120555E+03  d E =0.139829E+00  mag=     2.4947
       N       E                     dE             d eps       ncg     rms          ort
SDA:   1    -0.206141209594E+03    0.25083E+02    0.00000E+00  8320   0.465E+03 0.000E+00
CGA:   2    -0.212924266914E+03   -0.67831E+01   -0.12216E+02  8320   0.121E+03 0.589E+02
CGA:   3    -0.216162765640E+03   -0.32385E+01   -0.32181E+01  8320   0.142E+03-0.716E+02
CGA:   4    -0.217931702530E+03   -0.17689E+01   -0.30547E+01  8320   0.907E+02-0.367E+02
CGA:   5    -0.212576998708E+03    0.53547E+01   -0.58724E+01  8320   0.168E+04-0.266E+03
CGA:   6    -0.222084117777E+03   -0.95071E+01   -0.35671E+02  8320   0.895E+02-0.676E+02
CGA:   7    -0.225385764315E+03   -0.33016E+01   -0.15066E+01  8320   0.464E+02 0.103E+03
CGA:   8    -0.226205743674E+03   -0.81998E+00   -0.56605E+00  8320   0.159E+02 0.123E+02
CGA:   9    -0.226524213618E+03   -0.31847E+00   -0.23917E+00  8320   0.182E+02 0.452E+01
CGA:  10    -0.226923390817E+03   -0.39918E+00   -0.44318E+00  8320   0.489E+02-0.303E+00
CGA:  11    -0.227910603212E+03   -0.98721E+00   -0.91442E+00  8320   0.656E+02 0.318E+01
CGA:  12    -0.228614134882E+03   -0.70353E+00   -0.76103E+00  8320   0.448E+02-0.378E+01
CGA:  13    -0.230235383436E+03   -0.16212E+01   -0.16387E+01  8320   0.249E+02-0.113E+02
CGA:  14    -0.230303608022E+03   -0.68225E-01   -0.78546E-01  8320   0.155E+02-0.292E+01
CGA:  15    -0.230377908326E+03   -0.74300E-01   -0.75980E-01  8320   0.154E+02-0.744E+00
CGA:  16    -0.230444183763E+03   -0.66275E-01   -0.63402E-01  8320   0.127E+02 0.191E+00
CGA:  17    -0.230484600599E+03   -0.40417E-01   -0.75304E-01  8320   0.104E+02-0.509E+01
CGA:  18    -0.230498440633E+03   -0.13840E-01   -0.47014E-01  8320   0.952E+01-0.329E+01
CGA:  19    -0.230541777630E+03   -0.43337E-01   -0.47886E-01  8320   0.902E+01-0.526E+00
CGA:  20    -0.230654529343E+03   -0.11275E+00   -0.11930E+00  8320   0.133E+02-0.225E+00
CGA:  21    -0.230749561623E+03   -0.95032E-01   -0.68470E-01  8320   0.732E+01 0.444E+01
CGA:  22    -0.230802653081E+03   -0.53091E-01   -0.44034E-01  8320   0.345E+01 0.176E+01
CGA:  23    -0.230835212405E+03   -0.32559E-01   -0.31211E-01  8320   0.480E+01 0.133E+00
CGA:  24    -0.230873295361E+03   -0.38083E-01   -0.34407E-01  8320   0.830E+01 0.412E+00
CGA:  25    -0.230926542343E+03   -0.53247E-01   -0.50931E-01  8320   0.102E+02 0.362E+00
CGA:  26    -0.230978896185E+03   -0.52354E-01   -0.58867E-01  8320   0.780E+01-0.779E+00
CGA:  27    -0.231009077800E+03   -0.30182E-01   -0.31781E-01  8320   0.457E+01-0.320E+00
CGA:  28    -0.231031034533E+03   -0.21957E-01   -0.24180E-01  8320   0.425E+01-0.334E+00
CGA:  29    -0.231060057575E+03   -0.29023E-01   -0.31088E-01  8320   0.526E+01-0.173E+00
CGA:  30    -0.231088272189E+03   -0.28215E-01   -0.24130E-01  8320   0.358E+01 0.700E+00
CGA:  31    -0.231107646787E+03   -0.19375E-01   -0.17976E-01  8320   0.244E+01 0.257E+00
CGA:  32    -0.231122714365E+03   -0.15068E-01   -0.14918E-01  8320   0.282E+01 0.172E-01
CGA:  33    -0.231138839132E+03   -0.16125E-01   -0.15658E-01  8320   0.321E+01 0.631E-01
CGA:  34    -0.231154005689E+03   -0.15167E-01   -0.16968E-01  8320   0.247E+01-0.255E+00
CGA:  35    -0.231163531844E+03   -0.95262E-02   -0.11726E-01  8320   0.129E+01-0.309E+00
CGA:  36    -0.231169189165E+03   -0.56573E-02   -0.58920E-02  8320   0.893E+00-0.326E-01
CGA:  37    -0.231176382827E+03   -0.71937E-02   -0.72897E-02  8320   0.133E+01-0.362E-02
SDA:  38    -0.231191093497E+03   -0.14711E-01   -0.14756E-01  8320   0.206E+01 0.360E-02
CGA:  39    -0.231213593057E+03   -0.22500E-01   -0.22336E-01  8320   0.311E+00-0.117E-01
CGA:  40    -0.231234890728E+03   -0.21298E-01   -0.73357E-04  8320   0.505E+00-0.684E-01
CGA:  41    -0.231249467202E+03   -0.14576E-01   -0.14666E-01  8320   0.353E+00-0.619E-02
CGA:  42    -0.231265640534E+03   -0.16173E-01   -0.16224E-01  8320   0.639E+00-0.246E-02
CGA:  43    -0.231278454261E+03   -0.12814E-01   -0.13038E-01  8320   0.115E+00 0.752E-02
CGA:  44    -0.231281218358E+03   -0.27641E-02   -0.27710E-02  8320   0.493E-01 0.999E-03
CGA:  45    -0.231284887540E+03   -0.36692E-02   -0.36584E-02  8320   0.796E-01 0.292E-03
CGA:  46    -0.231287418783E+03   -0.25312E-02   -0.25341E-02  8320   0.856E-01-0.592E-03
CGA:  47    -0.231290064558E+03   -0.26458E-02   -0.26451E-02  8320   0.672E-01 0.172E-03
CGA:  48    -0.231292958667E+03   -0.28941E-02   -0.28830E-02  8320   0.573E-01 0.652E-03
CGA:  49    -0.231296383815E+03   -0.34251E-02   -0.33802E-02  8320   0.312E-01 0.151E-02
CGA:  50    -0.231297192535E+03   -0.80872E-03   -0.80793E-03  8320   0.210E-01-0.453E-04
CGA:  51    -0.231297744816E+03   -0.55228E-03   -0.55271E-03  8320   0.145E-01 0.251E-04
CGA:  52    -0.231298340927E+03   -0.59611E-03   -0.59652E-03  8320   0.657E-02-0.264E-04
CGA:  53    -0.231298879056E+03   -0.53813E-03   -0.53164E-03  8320   0.955E-02 0.141E-03
CGA:  54    -0.231299250353E+03   -0.37130E-03   -0.37140E-03  8320   0.706E-02-0.184E-04
CGA:  55    -0.231299405564E+03   -0.15521E-03   -0.15548E-03  8320   0.490E-02-0.655E-05
CGA:  56    -0.231299619184E+03   -0.21362E-03   -0.21368E-03  8320   0.153E-02-0.491E-05
CGA:  57    -0.231299708831E+03   -0.89648E-04   -0.88723E-04  8320   0.192E-02 0.360E-04
CGA:  58    -0.231299818992E+03   -0.11016E-03   -0.11010E-03  8320   0.257E-02 0.194E-05
CGA:  59    -0.231299864984E+03   -0.45993E-04   -0.46088E-04  8320   0.985E-03-0.207E-05
CGA:  60    -0.231299949279E+03   -0.84295E-04   -0.84023E-04  8320   0.102E-02 0.584E-05
CGA:  61    -0.231299997591E+03   -0.48311E-04   -0.48124E-04  8320   0.543E-03 0.152E-04
CGA:  62    -0.231300038528E+03   -0.40937E-04   -0.40969E-04  8320   0.504E-03-0.113E-05
CGA:  63    -0.231300051866E+03   -0.13338E-04   -0.13332E-04  8320   0.512E-03-0.998E-06
CGA:  64    -0.231300068613E+03   -0.16747E-04   -0.16742E-04  8320   0.270E-03-0.752E-06
CGA:  65    -0.231300090134E+03   -0.21521E-04   -0.21257E-04  8320   0.281E-03 0.642E-05
CGA:  66    -0.231300105693E+03   -0.15559E-04   -0.15544E-04  8320   0.161E-03 0.106E-05
CGA:  67    -0.231300113354E+03   -0.76614E-05   -0.76601E-05  8320   0.386E-03 0.212E-07
CGA:  68    -0.231300124975E+03   -0.11620E-04   -0.11615E-04  8320   0.117E-03-0.144E-06
SDA:  69    -0.231300131933E+03   -0.69575E-05   -0.69242E-05  8320   0.122E-03 0.167E-05
  26 F= -.23130013E+03 E0= -.23128189E+03  d E =-.759042E-01  mag=     2.5089
       N       E                     dE             d eps       ncg     rms          ort
SDA:   1    -0.228949560875E+03    0.23506E+01    0.00000E+00  8320   0.178E+02 0.000E+00
CGA:   2    -0.229271731599E+03   -0.32217E+00   -0.32116E+00  8320   0.142E+02-0.419E+00
CGA:   3    -0.230025379952E+03   -0.75365E+00   -0.73420E+00  8320   0.128E+02 0.115E+01
CGA:   4    -0.230403726164E+03   -0.37835E+00   -0.40376E+00  8320   0.123E+02 0.219E+00
CGA:   5    -0.230676749510E+03   -0.27302E+00   -0.21649E+00  8320   0.261E+01 0.196E+01
CGA:   6    -0.230890611213E+03   -0.21386E+00   -0.25151E+00  8320   0.126E+02-0.941E+00
CGA:   7    -0.230967312789E+03   -0.76702E-01   -0.77612E-01  8320   0.105E+02-0.782E-01
CGA:   8    -0.231052465012E+03   -0.85152E-01   -0.10464E+00  8320   0.688E+01-0.170E+01
CGA:   9    -0.231146552450E+03   -0.94087E-01   -0.11305E+00  8320   0.625E+01-0.385E+00
CGA:  10    -0.231200429124E+03   -0.53877E-01   -0.52982E-01  8320   0.136E+01 0.447E-01
CGA:  11    -0.231222671007E+03   -0.22242E-01   -0.21963E-01  8320   0.173E+01 0.920E-02
[...]
CGA:  17    -0.231380242825E+03   -0.35272E-03   -0.35330E-03  8320   0.742E-02-0.227E-04
CGA:  18    -0.231380465902E+03   -0.22308E-03   -0.22324E-03  8320   0.785E-02 0.701E-05
CGA:  19    -0.231380737909E+03   -0.27201E-03   -0.27202E-03  8320   0.239E-02 0.321E-05
CGA:  20    -0.231380833009E+03   -0.95101E-04   -0.95098E-04  8320   0.426E-02 0.296E-05
CGA:  21    -0.231380975883E+03   -0.14287E-03   -0.14283E-03  8320   0.117E-02-0.231E-06
CGA:  22    -0.231381034487E+03   -0.58604E-04   -0.58588E-04  8320   0.301E-02 0.106E-05
CGA:  23    -0.231381147201E+03   -0.11271E-03   -0.11271E-03  8320   0.853E-03 0.585E-07
CGA:  24    -0.231381176964E+03   -0.29763E-04   -0.29784E-04  8320   0.113E-02 0.389E-05
CGA:  25    -0.231381211901E+03   -0.34937E-04   -0.34965E-04  8320   0.514E-03 0.413E-05
CGA:  26    -0.231381236615E+03   -0.24714E-04   -0.24709E-04  8320   0.713E-03 0.293E-06
CGA:  27    -0.231381254863E+03   -0.18248E-04   -0.18234E-04  8320   0.436E-03-0.302E-06
CGA:  28    -0.231381277364E+03   -0.22501E-04   -0.22468E-04  8320   0.307E-03 0.215E-05
CGA:  29    -0.231381283608E+03   -0.62436E-05   -0.62461E-05  8320   0.170E-03 0.103E-06
  94 F= -.23138128E+03 E0= -.23136270E+03  d E =0.727425E-02  mag=     2.5095
       N       E                     dE             d eps       ncg     rms          ort
SDA:   1    -0.231103826653E+03    0.27745E+00    0.00000E+00  8320   0.971E+00 0.000E+00
CGA:   2    -0.231189343566E+03   -0.85517E-01   -0.82206E-01  8320   0.217E+01 0.748E-01
CGA:   3    -0.231242846497E+03   -0.53503E-01   -0.53207E-01  8320   0.151E+01 0.182E-02
CGA:   4    -0.231313243702E+03   -0.70397E-01   -0.70733E-01  8320   0.452E+00-0.318E-01
CGA:   5    -0.231336238628E+03   -0.22995E-01   -0.23198E-01  8320   0.926E+00-0.126E-01
CGA:   6    -0.231356679175E+03   -0.20441E-01   -0.20780E-01  8320   0.326E+00-0.561E-02
CGA:   7    -0.231371979693E+03   -0.15301E-01   -0.15243E-01  8320   0.124E+00 0.547E-02
CGA:   8    -0.231376686716E+03   -0.47070E-02   -0.47124E-02  8320   0.152E+00 0.669E-03
CGA:   9    -0.231379709834E+03   -0.30231E-02   -0.29537E-02  8320   0.330E-01 0.196E-02
CGA:  10    -0.231383083335E+03   -0.33735E-02   -0.33569E-02  8320   0.198E-01 0.296E-03
CGA:  11    -0.231383511818E+03   -0.42848E-03   -0.42658E-03  8320   0.168E-01 0.413E-04
CGA:  12    -0.231384179727E+03   -0.66791E-03   -0.66784E-03  8320   0.612E-02-0.215E-04
CGA:  13    -0.231384680562E+03   -0.50083E-03   -0.49880E-03  8320   0.672E-02 0.500E-04
CGA:  14    -0.231384824750E+03   -0.14419E-03   -0.14452E-03  8320   0.485E-02-0.855E-05
CGA:  15    -0.231384994067E+03   -0.16932E-03   -0.16903E-03  8320   0.152E-02-0.147E-04
CGA:  16    -0.231385097549E+03   -0.10348E-03   -0.10330E-03  8320   0.204E-02 0.666E-05
CGA:  17    -0.231385145185E+03   -0.47636E-04   -0.47640E-04  8320   0.170E-02 0.185E-05
CGA:  18    -0.231385215979E+03   -0.70793E-04   -0.70796E-04  8320   0.483E-03 0.203E-05
CGA:  19    -0.231385252460E+03   -0.36481E-04   -0.36484E-04  8320   0.107E-02-0.834E-07
CGA:  20    -0.231385270740E+03   -0.18280E-04   -0.18293E-04  8320   0.260E-03-0.135E-07
CGA:  21    -0.231385299466E+03   -0.28726E-04   -0.28720E-04  8320   0.321E-03 0.106E-06
CGA:  22    -0.231385307630E+03   -0.81641E-05   -0.81736E-05  8320   0.299E-03 0.342E-06
  95 F= -.23138531E+03 E0= -.23136672E+03  d E =-.402402E-02  mag=     2.5087
       N       E                     dE             d eps       ncg     rms          ort
SDA:   1    -0.231091541586E+03    0.29376E+00    0.00000E+00  8320   0.274E+02 0.000E+00
CGA:   2    -0.231309142298E+03   -0.21760E+00   -0.35168E+00  8320   0.378E+01-0.962E+01
CGA:   3    -0.231348440152E+03   -0.39298E-01   -0.37105E-01  8320   0.872E-01 0.959E-01
CGA:   4    -0.231366360073E+03   -0.17920E-01   -0.21714E-04  8320   0.518E+00-0.235E-01
CGA:   5    -0.231370628101E+03   -0.42680E-02   -0.44657E-02  8320   0.162E+00-0.155E-01
CGA:   6    -0.231374206853E+03   -0.35788E-02   -0.37879E-02  8320   0.172E+00-0.648E-02
CGA:   7    -0.231376492251E+03   -0.22854E-02   -0.23520E-02  8320   0.573E-01-0.412E-02
CGA:   8    -0.231378166784E+03   -0.16745E-02   -0.16592E-02  8320   0.108E+00 0.313E-03
CGA:   9    -0.231380381182E+03   -0.22144E-02   -0.22283E-02  8320   0.383E-01-0.513E-03
CGA:  10    -0.231381207742E+03   -0.82656E-03   -0.83022E-03  8320   0.491E-01-0.157E-03
CGA:  11    -0.231382359758E+03   -0.11520E-02   -0.11187E-02  8320   0.172E-01 0.101E-02
CGA:  12    -0.231382626593E+03   -0.26683E-03   -0.26610E-03  8320   0.125E-01 0.432E-04
CGA:  13    -0.231382983090E+03   -0.35650E-03   -0.36028E-03  8320   0.736E-02-0.531E-04
CGA:  14    -0.231383095930E+03   -0.11284E-03   -0.11361E-03  8320   0.591E-02-0.359E-04
CGA:  15    -0.231383401690E+03   -0.30576E-03   -0.30576E-03  8320   0.805E-02-0.202E-05
CGA:  16    -0.231383489260E+03   -0.87570E-04   -0.87061E-04  8320   0.151E-02 0.362E-04
CGA:  17    -0.231383555065E+03   -0.65805E-04   -0.65797E-04  8320   0.433E-02-0.722E-06
CGA:  18    -0.231383638532E+03   -0.83467E-04   -0.83671E-04  8320   0.111E-02-0.675E-05
CGA:  19    -0.231383662420E+03   -0.23888E-04   -0.23940E-04  8320   0.151E-02 0.324E-06
CGA:  20    -0.231383708346E+03   -0.45925E-04   -0.45966E-04  8320   0.890E-03 0.197E-05
CGA:  21    -0.231383724703E+03   -0.16357E-04   -0.16325E-04  8320   0.810E-03 0.476E-07
CGA:  22    -0.231383745531E+03   -0.20828E-04   -0.20774E-04  8320   0.382E-03-0.146E-05
CGA:  23    -0.231383752903E+03   -0.73717E-05   -0.73859E-05  8320   0.432E-03 0.915E-07
CGA:  24    -0.231383767892E+03   -0.14989E-04   -0.15009E-04  8320   0.255E-03 0.235E-05
CGA:  25    -0.231383771499E+03   -0.36070E-05   -0.36160E-05  8320   0.166E-03 0.625E-06
  96 F= -.23138377E+03 E0= -.23136521E+03  d E =0.153613E-02  mag=     2.5101
       N       E                     dE             d eps       ncg     rms          ort
SDA:   1    -0.231322090037E+03    0.61678E-01    0.00000E+00  8320   0.198E+00 0.000E+00
CGA:   2    -0.231335297210E+03   -0.13207E-01   -0.13259E-01  8320   0.764E+00-0.180E-02
CGA:   3    -0.231355481411E+03   -0.20184E-01   -0.20202E-01  8320   0.190E+00-0.139E-03
CGA:   4    -0.231369087230E+03   -0.13606E-01   -0.13535E-01  8320   0.138E+00 0.223E-02
CGA:   5    -0.231372594045E+03   -0.35068E-02   -0.34939E-02  8320   0.141E+00 0.169E-03
CGA:   6    -0.231376662191E+03   -0.40681E-02   -0.41064E-02  8320   0.586E-01 0.547E-04
CGA:   7    -0.231380434389E+03   -0.37722E-02   -0.37538E-02  8320   0.281E-01 0.708E-03
CGA:   8    -0.231380897155E+03   -0.46277E-03   -0.45883E-03  8320   0.152E-01 0.163E-03
CGA:   9    -0.231381645141E+03   -0.74799E-03   -0.74914E-03  8320   0.777E-02-0.113E-03
CGA:  10    -0.231382140919E+03   -0.49578E-03   -0.49388E-03  8320   0.804E-02 0.753E-04
CGA:  11    -0.231382257994E+03   -0.11708E-03   -0.11691E-03  8320   0.239E-02 0.838E-05
CGA:  12    -0.231382409668E+03   -0.15167E-03   -0.15191E-03  8320   0.132E-02-0.988E-05
CGA:  13    -0.231382500182E+03   -0.90514E-04   -0.90322E-04  8320   0.150E-02 0.717E-05
CGA:  14    -0.231382530460E+03   -0.30278E-04   -0.30280E-04  8320   0.103E-02 0.815E-06
CGA:  15    -0.231382567421E+03   -0.36961E-04   -0.36962E-04  8320   0.301E-03-0.654E-06
CGA:  16    -0.231382597613E+03   -0.30192E-04   -0.30119E-04  8320   0.202E-03 0.123E-05
CGA:  17    -0.231382602531E+03   -0.49171E-05   -0.49130E-05  8320   0.247E-03-0.182E-06
CGA:  18    -0.231382615649E+03   -0.13118E-04   -0.13122E-04  8320   0.134E-03-0.450E-06
CGA:  19    -0.231382622255E+03   -0.66062E-05   -0.66004E-05  8320   0.491E-04 0.135E-05
  97 F= -.23138262E+03 E0= -.23136407E+03  d E =0.114924E-02  mag=     2.5125
       N       E                     dE             d eps       ncg     rms          ort
SDA:   1    -0.231280472280E+03    0.10214E+00    0.00000E+00  8320   0.349E+01 0.000E+00
CGA:   2    -0.231316042428E+03   -0.35570E-01   -0.33316E-01  8320   0.181E+00 0.180E+00
CGA:   3    -0.231335728239E+03   -0.19686E-01   -0.19833E-01  8320   0.115E+01-0.266E-02
CGA:   4    -0.231357613507E+03   -0.21885E-01   -0.22036E-01  8320   0.231E+00-0.535E-02
CGA:   5    -0.231364611527E+03   -0.69980E-02   -0.70831E-02  8320   0.324E+00-0.181E-03
CGA:   6    -0.231370633248E+03   -0.60217E-02   -0.60489E-02  8320   0.909E-01-0.114E-02
CGA:   7    -0.231375435446E+03   -0.48022E-02   -0.48187E-02  8320   0.209E+00-0.131E-02
CGA:   8    -0.231378625129E+03   -0.31897E-02   -0.31707E-02  8320   0.399E-01 0.855E-03
CGA:   9    -0.231380308511E+03   -0.16834E-02   -0.16846E-02  8320   0.777E-01 0.302E-03
CGA:  10    -0.231381555105E+03   -0.12466E-02   -0.12573E-02  8320   0.810E-02-0.445E-03
CGA:  11    -0.231381949051E+03   -0.39395E-03   -0.39411E-03  8320   0.259E-01-0.143E-04
CGA:  12    -0.231382610060E+03   -0.66101E-03   -0.66055E-03  8320   0.348E-02 0.775E-05
CGA:  13    -0.231382714966E+03   -0.10491E-03   -0.10500E-03  8320   0.618E-02 0.119E-05
CGA:  14    -0.231382897776E+03   -0.18281E-03   -0.18284E-03  8320   0.164E-02-0.502E-06
CGA:  15    -0.231382959995E+03   -0.62219E-04   -0.62205E-04  8320   0.310E-02-0.272E-05
CGA:  16    -0.231383027235E+03   -0.67240E-04   -0.67185E-04  8320   0.985E-03-0.211E-06
CGA:  17    -0.231383082198E+03   -0.54964E-04   -0.54944E-04  8320   0.170E-02 0.941E-06
CGA:  18    -0.231383106224E+03   -0.24026E-04   -0.24039E-04  8320   0.326E-03 0.660E-07
CGA:  19    -0.231383127069E+03   -0.20845E-04   -0.20822E-04  8320   0.592E-03 0.965E-06
CGA:  20    -0.231383137148E+03   -0.10078E-04   -0.10077E-04  8320   0.292E-03-0.459E-06
CGA:  21    -0.231383150771E+03   -0.13623E-04   -0.13649E-04  8320   0.199E-03-0.314E-05
CGA:  22    -0.231383156057E+03   -0.52861E-05   -0.52887E-05  8320   0.271E-03 0.250E-06
  98 F= -.23138316E+03 E0= -.23136462E+03  d E =-.533802E-03  mag=     2.5115
       N       E                     dE             d eps       ncg     rms          ort
SDA:   1    -0.231353491536E+03    0.29659E-01    0.00000E+00  8320   0.209E+00 0.000E+00
CGA:   2    -0.231357778994E+03   -0.42875E-02   -0.42395E-02  8320   0.175E+00 0.104E-02
CGA:   3    -0.231365185024E+03   -0.74060E-02   -0.73788E-02  8320   0.105E+00 0.369E-02
CGA:   4    -0.231373620419E+03   -0.84354E-02   -0.86795E-02  8320   0.801E-01-0.595E-02
CGA:   5    -0.231376910698E+03   -0.32903E-02   -0.32872E-02  8320   0.658E-01 0.505E-03
CGA:   6    -0.231378049821E+03   -0.11391E-02   -0.11297E-02  8320   0.272E-01 0.355E-03
CGA:   7    -0.231380454757E+03   -0.24049E-02   -0.24008E-02  8320   0.187E-01 0.913E-04
CGA:   8    -0.231381038534E+03   -0.58378E-03   -0.58230E-03  8320   0.180E-01-0.285E-04
CGA:   9    -0.231381404126E+03   -0.36559E-03   -0.36492E-03  8320   0.356E-02 0.112E-04
CGA:  10    -0.231381718435E+03   -0.31431E-03   -0.31395E-03  8320   0.342E-02 0.764E-05
CGA:  11    -0.231381779315E+03   -0.60880E-04   -0.61023E-04  8320   0.188E-02-0.537E-05
CGA:  12    -0.231381885558E+03   -0.10624E-03   -0.10638E-03  8320   0.101E-02-0.772E-05
CGA:  13    -0.231381922843E+03   -0.37285E-04   -0.37313E-04  8320   0.784E-03 0.428E-05
CGA:  14    -0.231381939102E+03   -0.16259E-04   -0.16272E-04  8320   0.465E-03 0.184E-05
CGA:  15    -0.231381974514E+03   -0.35412E-04   -0.35380E-04  8320   0.251E-03 0.877E-06
CGA:  16    -0.231381981345E+03   -0.68310E-05   -0.68249E-05  8320   0.289E-03-0.255E-06
CGA:  17    -0.231381991920E+03   -0.10575E-04   -0.10574E-04  8320   0.104E-03-0.380E-06
CGA:  18    -0.231381998810E+03   -0.68892E-05   -0.68734E-05  8320   0.168E-03 0.624E-06
  99 F= -.23138200E+03 E0= -.23136349E+03  d E =0.115725E-02  mag=     2.5131
       N       E                     dE             d eps       ncg     rms          ort
SDA:   1    -0.225294237842E+03    0.60878E+01    0.00000E+00  8320   0.219E+03 0.000E+00
CGA:   2    -0.230743039006E+03   -0.54488E+01   -0.45902E+01  8320   0.908E+01 0.358E+02
CGA:   3    -0.230911310068E+03   -0.16827E+00   -0.88286E-01  8320   0.670E+01 0.891E+01
CGA:   4    -0.231144123028E+03   -0.23281E+00   -0.16879E+00  8320   0.232E+01 0.267E+00
CGA:   5    -0.231195665519E+03   -0.51542E-01   -0.51743E-01  8320   0.877E+00-0.375E-02
CGA:   6    -0.231249018694E+03   -0.53353E-01   -0.54954E-01  8320   0.157E+01-0.595E-01
CGA:   7    -0.231273421233E+03   -0.24403E-01   -0.23649E-01  8320   0.106E+01 0.290E-01
CGA:   8    -0.231313895245E+03   -0.40474E-01   -0.40466E-01  8320   0.112E+01 0.216E-01
CGA:   9    -0.231330132980E+03   -0.16238E-01   -0.17523E-01  8320   0.456E+00-0.522E-01
CGA:  10    -0.231348282286E+03   -0.18149E-01   -0.18187E-01  8320   0.270E+00-0.415E-02
CGA:  11    -0.231354767666E+03   -0.64854E-02   -0.63798E-02  8320   0.305E+00 0.276E-03
CGA:  12    -0.231363007462E+03   -0.82398E-02   -0.81760E-02  8320   0.151E+00-0.107E-02
CGA:  13    -0.231367081225E+03   -0.40738E-02   -0.40924E-02  8320   0.185E+00 0.434E-03
CGA:  14    -0.231370714621E+03   -0.36334E-02   -0.36473E-02  8320   0.399E-01-0.223E-03
CGA:  15    -0.231372456021E+03   -0.17414E-02   -0.17460E-02  8320   0.935E-01-0.350E-03
CGA:  16    -0.231374336560E+03   -0.18805E-02   -0.18833E-02  8320   0.227E-01-0.368E-04
CGA:  17    -0.231374975595E+03   -0.63904E-03   -0.63962E-03  8320   0.201E-01 0.225E-04
CGA:  18    -0.231375312865E+03   -0.33727E-03   -0.33576E-03  8320   0.927E-02 0.441E-04
CGA:  19    -0.231375826440E+03   -0.51357E-03   -0.51309E-03  8320   0.151E-01 0.214E-04
CGA:  20    -0.231376053538E+03   -0.22710E-03   -0.22810E-03  8320   0.608E-02-0.243E-04
CGA:  21    -0.231376389198E+03   -0.33566E-03   -0.33593E-03  8320   0.806E-02-0.108E-04
CGA:  22    -0.231376508969E+03   -0.11977E-03   -0.11939E-03  8320   0.352E-02 0.119E-04
CGA:  23    -0.231376651293E+03   -0.14232E-03   -0.14229E-03  8320   0.259E-02 0.164E-05
CGA:  24    -0.231376696973E+03   -0.45681E-04   -0.45813E-04  8320   0.198E-02-0.121E-05
CGA:  25    -0.231376786829E+03   -0.89856E-04   -0.89603E-04  8320   0.181E-02 0.169E-04
CGA:  26    -0.231376838403E+03   -0.51573E-04   -0.51549E-04  8320   0.250E-02-0.256E-05
CGA:  27    -0.231376896265E+03   -0.57862E-04   -0.57778E-04  8320   0.599E-03-0.532E-05
CGA:  28    -0.231376916802E+03   -0.20538E-04   -0.20538E-04  8320   0.127E-02-0.987E-06
CGA:  29    -0.231376952834E+03   -0.36032E-04   -0.36026E-04  8320   0.466E-03-0.155E-05
CGA:  30    -0.231376967772E+03   -0.14937E-04   -0.14937E-04  8320   0.683E-03 0.344E-06
CGA:  31    -0.231376982143E+03   -0.14372E-04   -0.14380E-04  8320   0.293E-03 0.602E-06
CGA:  32    -0.231376995176E+03   -0.13032E-04   -0.13052E-04  8320   0.391E-03-0.159E-05
CGA:  33    -0.231377001350E+03   -0.61741E-05   -0.61648E-05  8320   0.166E-03-0.293E-06
 100 F= -.23137700E+03 E0= -.23135856E+03  d E =0.499746E-02  mag=     2.5200
       N       E                     dE             d eps       ncg     rms          ort
SDA:   1    -0.231268937399E+03    0.10806E+00    0.00000E+00  8320   0.184E+01 0.000E+00
CGA:   2    -0.231290195190E+03   -0.21258E-01   -0.20846E-01  8320   0.350E+00 0.230E-01
CGA:   3    -0.231325013384E+03   -0.34818E-01   -0.34411E-01  8320   0.448E+00 0.752E-02
CGA:   4    -0.231350429360E+03   -0.25416E-01   -0.25346E-01  8320   0.308E+00 0.307E-02
CGA:   5    -0.231355867328E+03   -0.54380E-02   -0.53372E-02  8320   0.182E+00 0.310E-02
CGA:   6    -0.231366403986E+03   -0.10537E-01   -0.10634E-01  8320   0.132E+00-0.385E-02
CGA:   7    -0.231373153673E+03   -0.67497E-02   -0.66747E-02  8320   0.143E+00 0.387E-02
CGA:   8    -0.231375353093E+03   -0.21994E-02   -0.21799E-02  8320   0.337E-01 0.880E-03
CGA:   9    -0.231377559267E+03   -0.22062E-02   -0.22119E-02  8320   0.156E-01-0.185E-03
CGA:  10    -0.231378649021E+03   -0.10898E-02   -0.10902E-02  8320   0.301E-01-0.122E-04
CGA:  11    -0.231379106666E+03   -0.45764E-03   -0.45947E-03  8320   0.388E-02-0.784E-04
CGA:  12    -0.231379471180E+03   -0.36451E-03   -0.36564E-03  8320   0.329E-02-0.205E-04
CGA:  13    -0.231379559005E+03   -0.87825E-04   -0.87953E-04  8320   0.366E-02 0.250E-05
CGA:  14    -0.231379689528E+03   -0.13052E-03   -0.13054E-03  8320   0.192E-02 0.415E-05
CGA:  15    -0.231379785162E+03   -0.95633E-04   -0.95650E-04  8320   0.707E-03-0.262E-05
CGA:  16    -0.231379800725E+03   -0.15563E-04   -0.15544E-04  8320   0.706E-03-0.389E-06
CGA:  17    -0.231379860126E+03   -0.59401E-04   -0.59400E-04  8320   0.469E-03 0.165E-07
CGA:  18    -0.231379878323E+03   -0.18197E-04   -0.18198E-04  8320   0.493E-03 0.250E-06
CGA:  19    -0.231379887713E+03   -0.93899E-05   -0.94047E-05  8320   0.155E-03-0.922E-07
CGA:  20    -0.231379904693E+03   -0.16980E-04   -0.16948E-04  8320   0.206E-03 0.410E-06
CGA:  21    -0.231379908995E+03   -0.43020E-05   -0.43062E-05  8320   0.158E-03 0.114E-07
 101 F= -.23137991E+03 E0= -.23136143E+03  d E =-.290765E-02  mag=     2.5160
       N       E                     dE             d eps       ncg     rms          ort
SDA:   1    -0.231357048557E+03    0.22856E-01    0.00000E+00  8320   0.289E+00 0.000E+00
CGA:   2    -0.231360932964E+03   -0.38844E-02   -0.38246E-02  8320   0.915E-01 0.342E-02
CGA:   3    -0.231365188659E+03   -0.42557E-02   -0.42550E-02  8320   0.810E-01 0.940E-04
CGA:   4    -0.231372958287E+03   -0.77696E-02   -0.77127E-02  8320   0.951E-01 0.113E-02
CGA:   5    -0.231374599521E+03   -0.16412E-02   -0.16217E-02  8320   0.498E-01 0.796E-03
CGA:   6    -0.231376682171E+03   -0.20826E-02   -0.20826E-02  8320   0.123E-01-0.349E-04
CGA:   7    -0.231377919788E+03   -0.12376E-02   -0.12334E-02  8320   0.280E-01 0.801E-04
CGA:   8    -0.231378332550E+03   -0.41276E-03   -0.41082E-03  8320   0.603E-02 0.972E-04
CGA:   9    -0.231378621748E+03   -0.28920E-03   -0.28930E-03  8320   0.196E-02-0.194E-04
CGA:  10    -0.231378794147E+03   -0.17240E-03   -0.17205E-03  8320   0.294E-02 0.822E-05
CGA:  11    -0.231378835037E+03   -0.40890E-04   -0.40860E-04  8320   0.687E-03 0.250E-05
CGA:  12    -0.231378896487E+03   -0.61451E-04   -0.61608E-04  8320   0.378E-03-0.351E-05
CGA:  13    -0.231378918678E+03   -0.22191E-04   -0.22151E-04  8320   0.293E-03 0.307E-05
CGA:  14    -0.231378930687E+03   -0.12009E-04   -0.12009E-04  8320   0.464E-03-0.214E-07
CGA:  15    -0.231378940383E+03   -0.96960E-05   -0.97023E-05  8320   0.940E-04-0.610E-06
 102 F= -.23137894E+03 E0= -.23136048E+03  d E =0.968612E-03  mag=     2.5141
       N       E                     dE             d eps       ncg     rms          ort
SDA:   1    -0.231340182148E+03    0.38749E-01    0.00000E+00  8320   0.119E+00 0.000E+00
CGA:   2    -0.231352138878E+03   -0.11957E-01   -0.12005E-01  8320   0.196E+00-0.908E-03
CGA:   3    -0.231361926969E+03   -0.97881E-02   -0.97886E-02  8320   0.394E+00 0.212E-03
CGA:   4    -0.231369674866E+03   -0.77479E-02   -0.80040E-02  8320   0.629E-01-0.858E-02
CGA:   5    -0.231373157576E+03   -0.34827E-02   -0.34827E-02  8320   0.332E-01 0.733E-05
CGA:   6    -0.231374387667E+03   -0.12301E-02   -0.12312E-02  8320   0.472E-01-0.348E-05
CGA:   7    -0.231375530371E+03   -0.11427E-02   -0.11270E-02  8320   0.169E-01 0.335E-03
CGA:   8    -0.231376527853E+03   -0.99748E-03   -0.99539E-03  8320   0.430E-02 0.139E-03
CGA:   9    -0.231376745700E+03   -0.21785E-03   -0.21786E-03  8320   0.831E-02-0.395E-05
CGA:  10    -0.231376906668E+03   -0.16097E-03   -0.16105E-03  8320   0.136E-02-0.594E-05
CGA:  11    -0.231377044925E+03   -0.13826E-03   -0.13813E-03  8320   0.741E-03 0.252E-05
CGA:  12    -0.231377073851E+03   -0.28926E-04   -0.28928E-04  8320   0.130E-02-0.779E-06
CGA:  13    -0.231377109444E+03   -0.35593E-04   -0.35524E-04  8320   0.481E-03 0.270E-06
CGA:  14    -0.231377132304E+03   -0.22860E-04   -0.22864E-04  8320   0.173E-03 0.340E-05
CGA:  15    -0.231377146330E+03   -0.14025E-04   -0.14033E-04  8320   0.295E-03-0.246E-06
CGA:  16    -0.231377150849E+03   -0.45192E-05   -0.45195E-05  8320   0.788E-04-0.344E-06
 103 F= -.23137715E+03 E0= -.23135871E+03  d E =0.178953E-02  mag=     2.5140
