       N       E                     dE             d eps       ncg     rms          ort
DAV:   1     0.701916731716E+04    0.70192E+04   -0.26919E+05  8112   0.171E+03
DAV:   2     0.770545485892E+03   -0.62486E+04   -0.59492E+04  8112   0.511E+02
DAV:   3    -0.364479316283E+03   -0.11350E+04   -0.11122E+04  8112   0.210E+02
DAV:   4    -0.429878939084E+03   -0.65400E+02   -0.63029E+02  8112   0.529E+01
DAV:   5    -0.435383938267E+03   -0.55050E+01   -0.53431E+01  8112   0.126E+01
SDA:   6    -0.192038126073E+03    0.24335E+03   -0.53431E+01  8112   0.227E+04 0.000E+00
CGA:   7    -0.245081448149E+03   -0.53043E+02   -0.11250E+03  8112   0.366E+04-0.146E+04
CGA:   8    -0.460822225841E+02    0.19900E+03   -0.25368E+03  8112   0.447E+04-0.226E+04
CGA:   9    -0.119284741556E+03   -0.73203E+02   -0.18540E+03  8112   0.903E+04-0.102E+05
CGA:  10     0.236920917830E+02    0.14298E+03   -0.67934E+03  8112   0.214E+04-0.138E+04
CGA:  11    -0.133533812869E+03   -0.15723E+03   -0.53433E+02  8112   0.394E+04 0.482E+04
CGA:  12    -0.657903232400E+02    0.67743E+02   -0.16450E+03  8112   0.109E+05-0.974E+04
CGA:  13     0.157077387450E+02    0.81498E+02   -0.76866E+03  8112   0.161E+04-0.130E+04
CGA:  14    -0.481069992284E+02   -0.63815E+02   -0.32610E+02  8112   0.140E+04 0.154E+04
CGA:  15    -0.299714454092E+03   -0.25161E+03   -0.26651E+02  8112   0.130E+04 0.309E+04
CGA:  16    -0.355277754696E+03   -0.55563E+02   -0.22014E+02  8112   0.165E+04-0.279E+04
CGA:  17    -0.266784250311E+03    0.88494E+02   -0.57069E+02  8112   0.684E+04-0.279E+04
CGA:  18    -0.115133635294E+03    0.15165E+03   -0.26496E+03  8112   0.454E+04-0.288E+04
CGA:  19    -0.137234776442E+03   -0.22101E+02   -0.96859E+02  8112   0.116E+05-0.102E+05
CGA:  20     0.192040618338E+02    0.15644E+03   -0.50700E+03  8112   0.232E+04-0.172E+04
CGA:  21    -0.773757285309E+02   -0.96580E+02   -0.82233E+02  8112   0.102E+04-0.105E+04
CGA:  22    -0.871694222200E+02   -0.97937E+01   -0.40023E+01  8112   0.139E+04 0.959E+03
CGA:  23    -0.313311334139E+03   -0.22614E+03   -0.17133E+02  8112   0.121E+04 0.281E+04
CGA:  24    -0.364011206647E+03   -0.50700E+02   -0.15371E+02  8112   0.103E+04 0.923E+03
CGA:  25    -0.345662736156E+03    0.18348E+02   -0.31858E+02  8112   0.191E+04-0.830E+03
CGA:  26    -0.336601753336E+03    0.90610E+01   -0.41509E+02  8112   0.374E+04-0.282E+04
CGA:  27    -0.276337111297E+03    0.60265E+02   -0.11423E+03  8112   0.633E+04-0.358E+04
CGA:  28    -0.167112753494E+03    0.10922E+03   -0.18280E+03  8112   0.932E+04-0.618E+04
CGA:  29    -0.506252394615E+02    0.11649E+03   -0.30834E+03  8112   0.428E+04-0.258E+04
CGA:  30    -0.285685823312E+03   -0.23506E+03   -0.65685E+02  8112   0.455E+04 0.729E+03
CGA:  31    -0.187041912204E+03    0.98644E+02   -0.15404E+03  8112   0.483E+04-0.262E+04
CGA:  32    -0.276682626649E+03   -0.89641E+02   -0.10223E+03  8112   0.328E+04-0.238E+04
CGA:  33    -0.361371359207E+03   -0.84689E+02   -0.18685E+02  8112   0.137E+04 0.288E+04
CGA:  34    -0.320622222797E+03    0.40749E+02   -0.25839E+02  8112   0.625E+04-0.302E+04
CGA:  35    -0.243042917468E+03    0.77579E+02   -0.16330E+03  8112   0.186E+04-0.118E+04
CGA:  36    -0.329481546788E+03   -0.86439E+02   -0.15006E+02  8112   0.625E+04 0.112E+05
CGA:  37    -0.221195532269E+03    0.10829E+03   -0.14793E+03  8112   0.524E+04-0.284E+04
CGA:  38    -0.262894466380E+03   -0.41699E+02   -0.52057E+02  8112   0.234E+04-0.213E+04
CGA:  39    -0.369915646198E+03   -0.10702E+03   -0.13848E+02  8112   0.156E+04-0.550E+04
CGA:  40    -0.306076648856E+03    0.63839E+02   -0.25868E+02  8112   0.101E+05-0.249E+04
CGA:  41    -0.175465285808E+03    0.13061E+03   -0.22617E+03  8112   0.221E+04-0.111E+04
CGA:  42    -0.316804747905E+03   -0.14134E+03   -0.27198E+02  8112   0.108E+05-0.201E+05
CGA:  43    -0.176357708611E+03    0.14045E+03   -0.22930E+03  8112   0.218E+04-0.121E+04
CGA:  44    -0.275190125431E+03   -0.98832E+02   -0.24845E+02  8112   0.809E+04-0.107E+05
CGA:  45    -0.171818116634E+03    0.10337E+03   -0.14829E+03  8112   0.219E+04-0.146E+04
CGA:  46    -0.337588544274E+03   -0.16577E+03   -0.21312E+02  8112   0.696E+04-0.171E+05
CGA:  47    -0.192796014470E+03    0.14479E+03   -0.11923E+03  8112   0.840E+04-0.398E+04
CGA:  48    -0.214466436273E+03   -0.21670E+02   -0.14665E+03  8112   0.256E+04-0.215E+04
CGA:  49    -0.352772984811E+03   -0.13831E+03   -0.20921E+02  8112   0.444E+04 0.133E+05
CGA:  50    -0.299371217754E+03    0.53402E+02   -0.59684E+02  8112   0.160E+05-0.998E+04
CGA:  51    -0.219500540153E+03    0.79871E+02   -0.28501E+03  8112   0.316E+04-0.187E+04
CGA:  52    -0.363177612035E+03   -0.14368E+03   -0.30597E+02  8112   0.306E+04-0.953E+04
CGA:  53    -0.329998487815E+03    0.33179E+02   -0.33394E+02  8112   0.993E+04-0.492E+04
CGA:  54    -0.200399200644E+03    0.12960E+03   -0.14096E+03  8112   0.941E+04-0.456E+04
CGA:  55    -0.255756577489E+03   -0.55357E+02   -0.68349E+02  8112   0.353E+04-0.266E+04
CGA:  56    -0.280813186226E+03   -0.25057E+02   -0.24557E+02  8112   0.230E+05-0.234E+05
CGA:  57    -0.219857419737E+03    0.60956E+02   -0.34527E+03  8112   0.308E+04-0.210E+04
CGA:  58    -0.367216960604E+03   -0.14736E+03   -0.28723E+02  8112   0.420E+04-0.156E+05
CGA:  59    -0.308783225689E+03    0.58434E+02   -0.40630E+02  8112   0.151E+05-0.524E+04
CGA:  60    -0.178429681980E+03    0.13035E+03   -0.18721E+03  8112   0.303E+04-0.163E+04
CGA:  61    -0.240065187426E+03   -0.61636E+02   -0.29606E+02  8112   0.328E+04-0.345E+04
CGA:  62    -0.245495884270E+03   -0.54307E+01   -0.28425E+02  8112   0.253E+05-0.254E+05
CGA:  63    -0.222268882608E+03    0.23227E+02   -0.31989E+03  8112   0.312E+04-0.251E+04
CGA:  64    -0.367958401677E+03   -0.14569E+03   -0.23864E+02  8112   0.147E+04 0.357E+04
CGA:  65    -0.378615852536E+03   -0.10657E+02   -0.87879E+01  8112   0.128E+04-0.715E+03
CGA:  66    -0.374900739573E+03    0.37151E+01   -0.30193E+01  8112   0.144E+04-0.130E+04
CGA:  67    -0.374755121953E+03    0.14562E+00   -0.12759E+02  8112   0.209E+04-0.957E+03
CGA:  68    -0.378190027228E+03   -0.34349E+01   -0.88139E+01  8112   0.159E+04-0.164E+04
CGA:  69    -0.378564909665E+03   -0.37488E+00   -0.67877E+01  8112   0.149E+04-0.148E+04
CGA:  70    -0.380790127807E+03   -0.22252E+01   -0.50571E+01  8112   0.505E+03-0.857E+03
CGA:  71    -0.381771483777E+03   -0.98136E+00   -0.14587E+01  8112   0.627E+02-0.161E+03
CGA:  72    -0.381941514552E+03   -0.17003E+00   -0.18269E+00  8112   0.900E+01-0.260E+01
CGA:  73    -0.382058684991E+03   -0.11717E+00   -0.12076E+00  8112   0.328E+02 0.164E+00
CGA:  74    -0.382862777182E+03   -0.80409E+00   -0.77651E+00  8112   0.373E+02 0.420E+01
CGA:  75    -0.383205856909E+03   -0.34308E+00   -0.45799E+00  8112   0.279E+02-0.130E+01
CGA:  76    -0.383516850500E+03   -0.31099E+00   -0.34645E+00  8112   0.877E+01 0.102E+01
CGA:  77    -0.383628395196E+03   -0.11154E+00   -0.11766E+00  8112   0.474E+01 0.195E+00
CGA:  78    -0.383744462359E+03   -0.11607E+00   -0.11162E+00  8112   0.502E+01 0.579E+00
CGA:  79    -0.383912330120E+03   -0.16787E+00   -0.15347E+00  8112   0.426E+01 0.123E+01
CGA:  80    -0.384049848875E+03   -0.13752E+00   -0.13255E+00  8112   0.543E+01 0.534E+00
CGA:  81    -0.384403293964E+03   -0.35345E+00   -0.32525E+00  8112   0.714E+01 0.848E+00
CGA:  82    -0.384757316653E+03   -0.35402E+00   -0.34507E+00  8112   0.225E+01 0.305E+00
CGA:  83    -0.384827700445E+03   -0.70384E-01   -0.72557E-01  8112   0.195E+01-0.197E+00
CGA:  84    -0.384934304793E+03   -0.10660E+00   -0.10515E+00  8112   0.378E+01-0.972E-01
CGA:  85    -0.385053248690E+03   -0.11894E+00   -0.11288E+00  8112   0.235E+01 0.533E+00
CGA:  86    -0.385133086789E+03   -0.79838E-01   -0.77592E-01  8112   0.984E+00 0.305E+00
CGA:  87    -0.385181109004E+03   -0.48022E-01   -0.49968E-01  8112   0.944E+00-0.904E-01
CGA:  88    -0.385251185424E+03   -0.70076E-01   -0.70628E-01  8112   0.163E+01-0.143E-01
CGA:  89    -0.385342406034E+03   -0.91221E-01   -0.92753E-01  8112   0.106E+01-0.775E-01
CGA:  90    -0.385380269461E+03   -0.37863E-01   -0.38318E-01  8112   0.468E+00-0.411E-01
CGA:  91    -0.385405183630E+03   -0.24914E-01   -0.24635E-01  8112   0.512E+00 0.105E-01
CGA:  92    -0.385459009177E+03   -0.53826E-01   -0.50197E-01  8112   0.508E+00 0.638E-01
CGA:  93    -0.385496811264E+03   -0.37802E-01   -0.38355E-01  8112   0.402E+00-0.158E-01
CGA:  94    -0.385519363702E+03   -0.22552E-01   -0.22482E-01  8112   0.313E+00 0.232E-02
CGA:  95    -0.385545709882E+03   -0.26346E-01   -0.27082E-01  8112   0.485E+00-0.154E-01
CGA:  96    -0.385561067170E+03   -0.15357E-01   -0.15391E-01  8112   0.313E+00 0.218E-02
CGA:  97    -0.385575755584E+03   -0.14688E-01   -0.14707E-01  8112   0.132E+00-0.132E-02
CGA:  98    -0.385584885007E+03   -0.91294E-02   -0.91408E-02  8112   0.148E+00-0.421E-03
CGA:  99    -0.385600018066E+03   -0.15133E-01   -0.15130E-01  8112   0.171E+00 0.528E-03
CGA: 100    -0.385609344216E+03   -0.93262E-02   -0.93834E-02  8112   0.108E+00-0.386E-02
SDA: 101    -0.385613451368E+03   -0.41072E-02   -0.41048E-02  8112   0.113E+00-0.440E-04
CGA: 102    -0.385615689902E+03   -0.22385E-02   -0.22240E-02  8112   0.598E-01 0.452E-03
CGA: 103    -0.385620002434E+03   -0.43125E-02   -0.43170E-02  8112   0.904E-01-0.151E-03
CGA: 104    -0.385633077546E+03   -0.13075E-01   -0.14040E-01  8112   0.202E+00-0.123E-01
CGA: 105    -0.385639346203E+03   -0.62687E-02   -0.61801E-02  8112   0.536E-01-0.389E-03
CGA: 106    -0.385642659462E+03   -0.33133E-02   -0.33293E-02  8112   0.899E-01-0.847E-03
CGA: 107    -0.385646441445E+03   -0.37820E-02   -0.37703E-02  8112   0.125E+00-0.329E-03
CGA: 108    -0.385650243803E+03   -0.38024E-02   -0.37177E-02  8112   0.510E-01 0.977E-03
CGA: 109    -0.385651416435E+03   -0.11726E-02   -0.11603E-02  8112   0.137E-01 0.433E-03
CGA: 110    -0.385652293657E+03   -0.87722E-03   -0.87920E-03  8112   0.294E-01-0.948E-04
CGA: 111    -0.385653051655E+03   -0.75800E-03   -0.76369E-03  8112   0.214E-01-0.698E-04
CGA: 112    -0.385654191423E+03   -0.11398E-02   -0.11412E-02  8112   0.244E-01-0.154E-03
CGA: 113    -0.385654869081E+03   -0.67766E-03   -0.65739E-03  8112   0.103E-01 0.245E-03
CGA: 114    -0.385655262793E+03   -0.39371E-03   -0.39310E-03  8112   0.132E-01-0.305E-04
CGA: 115    -0.385655616877E+03   -0.35408E-03   -0.35113E-03  8112   0.101E-01 0.215E-04
CGA: 116    -0.385656635597E+03   -0.10187E-02   -0.10519E-02  8112   0.329E-01-0.656E-03
CGA: 117    -0.385657198280E+03   -0.56268E-03   -0.50139E-03  8112   0.124E-01 0.276E-02
CGA: 118    -0.385657473167E+03   -0.27489E-03   -0.26792E-03  8112   0.100E-01 0.197E-03
CGA: 119    -0.385657685460E+03   -0.21229E-03   -0.21146E-03  8112   0.664E-02 0.134E-05
CGA: 120    -0.385657805277E+03   -0.11982E-03   -0.11992E-03  8112   0.490E-02-0.187E-04
CGA: 121    -0.385657948893E+03   -0.14362E-03   -0.14379E-03  8112   0.792E-02-0.107E-04
CGA: 122    -0.385658133633E+03   -0.18474E-03   -0.18135E-03  8112   0.656E-02 0.352E-04
CGA: 123    -0.385658284277E+03   -0.15064E-03   -0.14834E-03  8112   0.845E-02 0.219E-04
CGA: 124    -0.385658480844E+03   -0.19657E-03   -0.19538E-03  8112   0.610E-02-0.124E-05
CGA: 125    -0.385658559493E+03   -0.78649E-04   -0.79053E-04  8112   0.241E-02-0.337E-04
CGA: 126    -0.385658611002E+03   -0.51509E-04   -0.51634E-04  8112   0.298E-02-0.174E-05
CGA: 127    -0.385658689882E+03   -0.78880E-04   -0.78755E-04  8112   0.384E-02 0.149E-05
CGA: 128    -0.385658769433E+03   -0.79551E-04   -0.78647E-04  8112   0.421E-02 0.263E-04
CGA: 129    -0.385658887187E+03   -0.11775E-03   -0.11672E-03  8112   0.708E-02-0.921E-05
CGA: 130    -0.385659000484E+03   -0.11330E-03   -0.11019E-03  8112   0.358E-02 0.175E-03
CGA: 131    -0.385659042629E+03   -0.42145E-04   -0.42415E-04  8112   0.173E-02 0.111E-04
SDA: 132    -0.385659076067E+03   -0.33438E-04   -0.33676E-04  8112   0.202E-02 0.119E-04
CGA: 133    -0.385659123427E+03   -0.47360E-04   -0.47408E-04  8112   0.150E-02 0.214E-05
CGA: 134    -0.385659278278E+03   -0.15485E-03   -0.15261E-03  8112   0.744E-02 0.326E-04
CGA: 135    -0.385659522238E+03   -0.24396E-03   -0.24386E-03  8112   0.369E-02 0.123E-04
CGA: 136    -0.385659672456E+03   -0.15022E-03   -0.15019E-03  8112   0.961E-03 0.120E-04
CGA: 137    -0.385659716030E+03   -0.43574E-04   -0.43537E-04  8112   0.130E-02 0.301E-05
CGA: 138    -0.385659748674E+03   -0.32644E-04   -0.32656E-04  8112   0.957E-03-0.320E-06
CGA: 139    -0.385659840210E+03   -0.91536E-04   -0.91785E-04  8112   0.784E-03-0.495E-05
CGA: 140    -0.385659860250E+03   -0.20040E-04   -0.20066E-04  8112   0.360E-03 0.481E-06
CGA: 141    -0.385659870740E+03   -0.10490E-04   -0.10505E-04  8112   0.209E-03 0.100E-05
CGA: 142    -0.385659876454E+03   -0.57133E-05   -0.57267E-05  8112   0.186E-03 0.666E-06
CGA: 143    -0.385659890027E+03   -0.13574E-04   -0.13368E-04  8112   0.156E-03 0.527E-05
CGA: 144    -0.385659899008E+03   -0.89813E-05   -0.89341E-05  8112   0.137E-03 0.223E-05
   1 F= -.38565990E+03 E0= -.38563437E+03  d E =-.385660E+03  mag=    18.0000
       N       E                     dE             d eps       ncg     rms          ort
SDA:   1    -0.385657380103E+03    0.25099E-02    0.00000E+00  8112   0.790E-01 0.000E+00
CGA:   2    -0.385658281365E+03   -0.90126E-03   -0.89835E-03  8112   0.107E-01 0.196E-03
CGA:   3    -0.385658885238E+03   -0.60387E-03   -0.60479E-03  8112   0.119E-01-0.384E-04
CGA:   4    -0.385659546067E+03   -0.66083E-03   -0.66110E-03  8112   0.166E-01-0.110E-04
CGA:   5    -0.385660147243E+03   -0.60118E-03   -0.60117E-03  8112   0.457E-02-0.406E-05
CGA:   6    -0.385660367288E+03   -0.22005E-03   -0.22003E-03  8112   0.474E-02 0.226E-05
CGA:   7    -0.385660453453E+03   -0.86165E-04   -0.86230E-04  8112   0.197E-02 0.157E-05
CGA:   8    -0.385660575419E+03   -0.12197E-03   -0.12188E-03  8112   0.944E-03 0.340E-05
CGA:   9    -0.385660628342E+03   -0.52922E-04   -0.52890E-04  8112   0.428E-03 0.200E-05
CGA:  10    -0.385660643837E+03   -0.15496E-04   -0.15494E-04  8112   0.335E-03-0.570E-06
CGA:  11    -0.385660650766E+03   -0.69290E-05   -0.69229E-05  8112   0.141E-03-0.181E-06
   2 F= -.38566065E+03 E0= -.38563512E+03  d E =-.751758E-03  mag=    18.0000
       N       E                     dE             d eps       ncg     rms          ort
SDA:   1    -0.385450259415E+03    0.21038E+00    0.00000E+00  8112   0.227E+01 0.000E+00
CGA:   2    -0.385488119770E+03   -0.37860E-01   -0.37991E-01  8112   0.714E+00-0.126E-01
CGA:   3    -0.385527457456E+03   -0.39338E-01   -0.39359E-01  8112   0.196E+01-0.887E-03
CGA:   4    -0.385598267725E+03   -0.70810E-01   -0.70830E-01  8112   0.680E+00 0.281E-02
CGA:   5    -0.385636703405E+03   -0.38436E-01   -0.38542E-01  8112   0.202E+00-0.503E-02
CGA:   6    -0.385648239733E+03   -0.11536E-01   -0.11557E-01  8112   0.233E+00-0.943E-03
CGA:   7    -0.385653671548E+03   -0.54318E-02   -0.54292E-02  8112   0.177E+00 0.572E-04
CGA:   8    -0.385661097954E+03   -0.74264E-02   -0.74268E-02  8112   0.802E-01-0.822E-04
CGA:   9    -0.385662903773E+03   -0.18058E-02   -0.18152E-02  8112   0.197E-01-0.144E-03
CGA:  10    -0.385663799337E+03   -0.89556E-03   -0.89560E-03  8112   0.145E-01-0.496E-07
CGA:  11    -0.385664685460E+03   -0.88612E-03   -0.88654E-03  8112   0.305E-01-0.150E-04
CGA:  12    -0.385665282418E+03   -0.59696E-03   -0.59784E-03  8112   0.562E-02-0.214E-04
CGA:  13    -0.385665536788E+03   -0.25437E-03   -0.25428E-03  8112   0.227E-02 0.113E-04
CGA:  14    -0.385665619720E+03   -0.82931E-04   -0.82944E-04  8112   0.225E-02 0.254E-05
CGA:  15    -0.385665738683E+03   -0.11896E-03   -0.11886E-03  8112   0.249E-02 0.743E-05
CGA:  16    -0.385665800763E+03   -0.62081E-04   -0.62145E-04  8112   0.196E-02 0.328E-05
CGA:  17    -0.385665875240E+03   -0.74476E-04   -0.74480E-04  8112   0.510E-03 0.307E-05
CGA:  18    -0.385665904636E+03   -0.29397E-04   -0.29342E-04  8112   0.318E-03 0.282E-05
CGA:  19    -0.385665915918E+03   -0.11282E-04   -0.11284E-04  8112   0.502E-03 0.406E-06
CGA:  20    -0.385665944301E+03   -0.28383E-04   -0.28355E-04  8112   0.714E-03 0.136E-05
CGA:  21    -0.385665960143E+03   -0.15842E-04   -0.15864E-04  8112   0.149E-03 0.123E-05
CGA:  22    -0.385665972893E+03   -0.12749E-04   -0.12774E-04  8112   0.130E-03-0.694E-06
CGA:  23    -0.385665979090E+03   -0.61979E-05   -0.61987E-05  8112   0.333E-03-0.286E-06
CGA:  24    -0.385665993631E+03   -0.14540E-04   -0.14541E-04  8112   0.221E-03-0.985E-06
CGA:  25    -0.385666000019E+03   -0.63877E-05   -0.63847E-05  8112   0.938E-04-0.254E-06
   3 F= -.38566600E+03 E0= -.38564052E+03  d E =-.534925E-02  mag=    18.0000
       N       E                     dE             d eps       ncg     rms          ort
SDA:   1    -0.380872334197E+03    0.47937E+01    0.00000E+00  8112   0.134E+02 0.000E+00
CGA:   2    -0.383124674829E+03   -0.22523E+01   -0.21378E+01  8112   0.236E+02 0.982E+00
CGA:   3    -0.384337724138E+03   -0.12130E+01   -0.12126E+01  8112   0.156E+02 0.749E+00
CGA:   4    -0.384799056244E+03   -0.46133E+00   -0.44233E+00  8112   0.111E+02 0.143E+00
CGA:   5    -0.385070861970E+03   -0.27181E+00   -0.28238E+00  8112   0.715E+01-0.803E-01
CGA:   6    -0.385278969902E+03   -0.20811E+00   -0.19452E+00  8112   0.464E+01 0.605E-01
CGA:   7    -0.385460726823E+03   -0.18176E+00   -0.18063E+00  8112   0.577E+01-0.630E-01
CGA:   8    -0.385554065201E+03   -0.93338E-01   -0.93923E-01  8112   0.101E+01-0.400E-01
CGA:   9    -0.385591554910E+03   -0.37490E-01   -0.37535E-01  8112   0.751E+00 0.308E-02
CGA:  10    -0.385605022315E+03   -0.13467E-01   -0.13480E-01  8112   0.490E+00-0.541E-03
CGA:  11    -0.385638855569E+03   -0.33833E-01   -0.33819E-01  8112   0.341E+00 0.411E-03
CGA:  12    -0.385645458245E+03   -0.66027E-02   -0.66400E-02  8112   0.275E+00-0.112E-02
CGA:  13    -0.385655343039E+03   -0.98848E-02   -0.99021E-02  8112   0.586E-01 0.116E-02
CGA:  14    -0.385657147284E+03   -0.18042E-02   -0.18041E-02  8112   0.852E-01 0.537E-05
CGA:  15    -0.385659689320E+03   -0.25420E-02   -0.25545E-02  8112   0.564E-01 0.177E-03
CGA:  16    -0.385662883046E+03   -0.31937E-02   -0.31926E-02  8112   0.672E-01 0.512E-04
CGA:  17    -0.385664031589E+03   -0.11485E-02   -0.11348E-02  8112   0.210E-01 0.540E-03
CGA:  18    -0.385664596009E+03   -0.56442E-03   -0.56637E-03  8112   0.151E-01 0.145E-05
CGA:  19    -0.385665159849E+03   -0.56384E-03   -0.56389E-03  8112   0.994E-02 0.171E-04
CGA:  20    -0.385665456235E+03   -0.29639E-03   -0.29645E-03  8112   0.145E-01 0.341E-05
CGA:  21    -0.385666014260E+03   -0.55802E-03   -0.55803E-03  8112   0.972E-02 0.638E-04
CGA:  22    -0.385666431214E+03   -0.41695E-03   -0.41677E-03  8112   0.834E-02 0.279E-04
CGA:  23    -0.385666558579E+03   -0.12737E-03   -0.12738E-03  8112   0.276E-02 0.425E-05
CGA:  24    -0.385666827779E+03   -0.26920E-03   -0.26830E-03  8112   0.513E-02 0.159E-04
CGA:  25    -0.385666963552E+03   -0.13577E-03   -0.13601E-03  8112   0.649E-02 0.149E-05
CGA:  26    -0.385667244281E+03   -0.28073E-03   -0.28066E-03  8112   0.255E-02 0.143E-04
CGA:  27    -0.385667346600E+03   -0.10232E-03   -0.10232E-03  8112   0.343E-02 0.270E-05
CGA:  28    -0.385667417584E+03   -0.70984E-04   -0.71096E-04  8112   0.140E-02 0.104E-05
CGA:  29    -0.385667486549E+03   -0.68965E-04   -0.68908E-04  8112   0.248E-02 0.568E-05
CGA:  30    -0.385667596967E+03   -0.11042E-03   -0.11037E-03  8112   0.195E-02 0.845E-05
CGA:  31    -0.385667635210E+03   -0.38243E-04   -0.38304E-04  8112   0.123E-02 0.789E-06
SDA:  32    -0.385667685568E+03   -0.50358E-04   -0.50351E-04  8112   0.573E-03 0.266E-05
CGA:  33    -0.385667704561E+03   -0.18992E-04   -0.18988E-04  8112   0.472E-03-0.803E-06
CGA:  34    -0.385667718131E+03   -0.13570E-04   -0.13560E-04  8112   0.580E-03-0.122E-05
CGA:  35    -0.385667766197E+03   -0.48066E-04   -0.48234E-04  8112   0.619E-03-0.384E-05
CGA:  36    -0.385667789549E+03   -0.23353E-04   -0.23348E-04  8112   0.376E-03-0.186E-05
CGA:  37    -0.385667801340E+03   -0.11791E-04   -0.11795E-04  8112   0.179E-03 0.345E-06
CGA:  38    -0.385667813440E+03   -0.12100E-04   -0.12057E-04  8112   0.625E-03 0.148E-05
CGA:  39    -0.385667833143E+03   -0.19703E-04   -0.19719E-04  8112   0.259E-03 0.173E-05
CGA:  40    -0.385667847141E+03   -0.13998E-04   -0.13994E-04  8112   0.686E-04 0.194E-06
CGA:  41    -0.385667855020E+03   -0.78792E-05   -0.80851E-05  8112   0.308E-03-0.278E-05
   4 F= -.38566786E+03 E0= -.38564247E+03  d E =-.185500E-02  mag=    18.0000
       N       E                     dE             d eps       ncg     rms          ort
SDA:   1    -0.364261577960E+03    0.21406E+02    0.00000E+00  8112   0.567E+02 0.000E+00
CGA:   2    -0.371560447652E+03   -0.72989E+01   -0.72345E+01  8112   0.334E+03 0.218E+01
CGA:   3    -0.379460203590E+03   -0.78998E+01   -0.80705E+01  8112   0.712E+02-0.222E+02
CGA:   4    -0.381538749322E+03   -0.20785E+01   -0.19489E+01  8112   0.394E+02-0.149E+01
CGA:   5    -0.382732764003E+03   -0.11940E+01   -0.11572E+01  8112   0.335E+02 0.598E+00
CGA:   6    -0.383671045884E+03   -0.93828E+00   -0.97301E+00  8112   0.316E+02-0.636E+00
CGA:   7    -0.384705867252E+03   -0.10348E+01   -0.10210E+01  8112   0.205E+02 0.184E+00
CGA:   8    -0.385067277199E+03   -0.36141E+00   -0.36302E+00  8112   0.898E+01-0.110E+00
CGA:   9    -0.385260601798E+03   -0.19332E+00   -0.18623E+00  8112   0.152E+01 0.128E+00
CGA:  10    -0.385375598380E+03   -0.11500E+00   -0.11413E+00  8112   0.609E+01 0.252E-01
CGA:  11    -0.385513220085E+03   -0.13762E+00   -0.14294E+00  8112   0.165E+01-0.100E+00
CGA:  12    -0.385561177756E+03   -0.47958E-01   -0.47787E-01  8112   0.572E+00-0.155E-02
CGA:  13    -0.385573996098E+03   -0.12818E-01   -0.12589E-01  8112   0.314E+00 0.431E-02
CGA:  14    -0.385585217759E+03   -0.11222E-01   -0.11237E-01  8112   0.493E+00 0.105E-02
CGA:  15    -0.385603038358E+03   -0.17821E-01   -0.17860E-01  8112   0.316E+00 0.362E-02
CGA:  16    -0.385618899781E+03   -0.15861E-01   -0.15784E-01  8112   0.152E+00 0.554E-02
CGA:  17    -0.385621613426E+03   -0.27136E-02   -0.27228E-02  8112   0.730E-01-0.343E-03
CGA:  18    -0.385624048393E+03   -0.24350E-02   -0.24425E-02  8112   0.380E-01 0.411E-03
CGA:  19    -0.385628079025E+03   -0.40306E-02   -0.40122E-02  8112   0.728E-01 0.292E-03
CGA:  20    -0.385630247370E+03   -0.21683E-02   -0.21726E-02  8112   0.439E-01 0.497E-04
CGA:  21    -0.385632033892E+03   -0.17865E-02   -0.17870E-02  8112   0.449E-01 0.204E-03
CGA:  22    -0.385632955964E+03   -0.92207E-03   -0.92640E-03  8112   0.172E-01-0.965E-04
CGA:  23    -0.385634086431E+03   -0.11305E-02   -0.11288E-02  8112   0.186E-01 0.587E-04
CGA:  24    -0.385636294843E+03   -0.22084E-02   -0.21897E-02  8112   0.197E-01 0.276E-03
CGA:  25    -0.385636885744E+03   -0.59090E-03   -0.59127E-03  8112   0.186E-01 0.111E-04
CGA:  26    -0.385637398675E+03   -0.51293E-03   -0.51381E-03  8112   0.988E-02 0.794E-05
CGA:  27    -0.385637917509E+03   -0.51883E-03   -0.51822E-03  8112   0.127E-01 0.550E-04
CGA:  28    -0.385638452572E+03   -0.53506E-03   -0.53524E-03  8112   0.876E-02 0.456E-04
CGA:  29    -0.385639042688E+03   -0.59012E-03   -0.58950E-03  8112   0.383E-02 0.281E-04
CGA:  30    -0.385639170721E+03   -0.12803E-03   -0.12813E-03  8112   0.520E-02 0.319E-05
CGA:  31    -0.385639341333E+03   -0.17061E-03   -0.17061E-03  8112   0.355E-02 0.212E-05
SDA:  32    -0.385639684950E+03   -0.34362E-03   -0.34400E-03  8112   0.250E-02-0.743E-05
CGA:  33    -0.385639752862E+03   -0.67912E-04   -0.68006E-04  8112   0.111E-02-0.186E-05
CGA:  34    -0.385639800561E+03   -0.47699E-04   -0.47703E-04  8112   0.174E-02 0.903E-06
CGA:  35    -0.385639882461E+03   -0.81899E-04   -0.81899E-04  8112   0.293E-02 0.194E-06
CGA:  36    -0.385639979553E+03   -0.97093E-04   -0.97044E-04  8112   0.125E-02-0.291E-05
CGA:  37    -0.385640043670E+03   -0.64117E-04   -0.64157E-04  8112   0.500E-03-0.659E-05
CGA:  38    -0.385640133544E+03   -0.89874E-04   -0.92873E-04  8112   0.127E-02-0.213E-04
CGA:  39    -0.385640186254E+03   -0.52710E-04   -0.52601E-04  8112   0.128E-02-0.109E-04
CGA:  40    -0.385640207562E+03   -0.21308E-04   -0.21197E-04  8112   0.246E-03-0.303E-05
CGA:  41    -0.385640233389E+03   -0.25826E-04   -0.25713E-04  8112   0.443E-03 0.200E-05
CGA:  42    -0.385640253398E+03   -0.20009E-04   -0.20025E-04  8112   0.516E-03 0.204E-05
CGA:  43    -0.385640278212E+03   -0.24814E-04   -0.24834E-04  8112   0.235E-03 0.391E-05
CGA:  44    -0.385640283639E+03   -0.54273E-05   -0.54521E-05  8112   0.188E-03 0.802E-06
   5 F= -.38564028E+03 E0= -.38561518E+03  d E =0.275714E-01  mag=    18.0000
       N       E                     dE             d eps       ncg     rms          ort
SDA:   1    -0.368990476022E+03    0.16650E+02    0.00000E+00  8112   0.781E+02 0.000E+00
CGA:   2    -0.373088125248E+03   -0.40976E+01   -0.40788E+01  8112   0.124E+03 0.545E+01
CGA:   3    -0.376086953160E+03   -0.29988E+01   -0.28662E+01  8112   0.919E+02-0.496E+01
CGA:   4    -0.380662816985E+03   -0.45759E+01   -0.45951E+01  8112   0.476E+02-0.366E+01
CGA:   5    -0.381687599897E+03   -0.10248E+01   -0.90946E+00  8112   0.310E+02 0.467E+01
CGA:   6    -0.383051105345E+03   -0.13635E+01   -0.12748E+01  8112   0.281E+02-0.207E+01
CGA:   7    -0.384088127268E+03   -0.10370E+01   -0.10369E+01  8112   0.305E+02 0.702E-01
CGA:   8    -0.384985065884E+03   -0.89694E+00   -0.90945E+00  8112   0.976E+01-0.108E+00
CGA:   9    -0.385133870604E+03   -0.14880E+00   -0.15315E+00  8112   0.400E+01-0.164E+00
CGA:  10    -0.385225234480E+03   -0.91364E-01   -0.91415E-01  8112   0.222E+01-0.272E-02
CGA:  11    -0.385380352172E+03   -0.15512E+00   -0.15071E+00  8112   0.211E+01 0.146E+00
CGA:  12    -0.385431416163E+03   -0.51064E-01   -0.51974E-01  8112   0.194E+01-0.195E-01
CGA:  13    -0.385502817207E+03   -0.71401E-01   -0.71653E-01  8112   0.125E+01 0.141E-01
CGA:  14    -0.385526246515E+03   -0.23429E-01   -0.23598E-01  8112   0.279E+00-0.549E-02
CGA:  15    -0.385539485658E+03   -0.13239E-01   -0.13147E-01  8112   0.407E+00 0.105E-01
CGA:  16    -0.385549607495E+03   -0.10122E-01   -0.10163E-01  8112   0.320E+00-0.450E-03
CGA:  17    -0.385567690535E+03   -0.18083E-01   -0.17873E-01  8112   0.266E+00 0.107E-01
CGA:  18    -0.385574509641E+03   -0.68191E-02   -0.68344E-02  8112   0.162E+00-0.154E-03
CGA:  19    -0.385578401417E+03   -0.38918E-02   -0.39384E-02  8112   0.607E-01-0.463E-03
CGA:  20    -0.385580817659E+03   -0.24162E-02   -0.24162E-02  8112   0.702E-01-0.952E-04
CGA:  21    -0.385583276760E+03   -0.24591E-02   -0.24646E-02  8112   0.712E-01 0.367E-03
CGA:  22    -0.385586105288E+03   -0.28285E-02   -0.28283E-02  8112   0.741E-01-0.185E-03
CGA:  23    -0.385588113881E+03   -0.20086E-02   -0.20317E-02  8112   0.251E-01 0.113E-03
CGA:  24    -0.385588963974E+03   -0.85009E-03   -0.85032E-03  8112   0.236E-01 0.192E-04
CGA:  25    -0.385589563316E+03   -0.59934E-03   -0.60143E-03  8112   0.137E-01 0.105E-05
CGA:  26    -0.385590889220E+03   -0.13259E-02   -0.13293E-02  8112   0.346E-01-0.693E-04
CGA:  27    -0.385591550804E+03   -0.66158E-03   -0.66944E-03  8112   0.104E-01-0.200E-03
CGA:  28    -0.385591987044E+03   -0.43624E-03   -0.43626E-03  8112   0.686E-02-0.402E-05
CGA:  29    -0.385592164531E+03   -0.17749E-03   -0.17777E-03  8112   0.620E-02-0.414E-05
CGA:  30    -0.385592539592E+03   -0.37506E-03   -0.37557E-03  8112   0.833E-02-0.216E-04
CGA:  31    -0.385592802048E+03   -0.26246E-03   -0.26265E-03  8112   0.700E-02 0.115E-05
SDA:  32    -0.385593046571E+03   -0.24452E-03   -0.24452E-03  8112   0.433E-02-0.134E-05
CGA:  33    -0.385593107326E+03   -0.60754E-04   -0.60758E-04  8112   0.154E-02-0.170E-06
CGA:  34    -0.385593188702E+03   -0.81376E-04   -0.81321E-04  8112   0.194E-02 0.352E-05
CGA:  35    -0.385593273528E+03   -0.84826E-04   -0.84808E-04  8112   0.199E-02 0.527E-05
CGA:  36    -0.385593391186E+03   -0.11766E-03   -0.11753E-03  8112   0.224E-02 0.632E-05
CGA:  37    -0.385593537454E+03   -0.14627E-03   -0.14627E-03  8112   0.673E-03-0.426E-06
CGA:  38    -0.385593605016E+03   -0.67562E-04   -0.68140E-04  8112   0.161E-02-0.100E-04
CGA:  39    -0.385593643829E+03   -0.38812E-04   -0.38640E-04  8112   0.153E-02-0.544E-05
CGA:  40    -0.385593712140E+03   -0.68311E-04   -0.68323E-04  8112   0.736E-03-0.115E-04
CGA:  41    -0.385593762899E+03   -0.50760E-04   -0.50834E-04  8112   0.806E-03-0.304E-05
CGA:  42    -0.385593787550E+03   -0.24651E-04   -0.24641E-04  8112   0.589E-03-0.150E-06
CGA:  43    -0.385593847274E+03   -0.59724E-04   -0.59262E-04  8112   0.110E-02 0.796E-05
CGA:  44    -0.385593865950E+03   -0.18676E-04   -0.18720E-04  8112   0.458E-03 0.355E-05
CGA:  45    -0.385593889786E+03   -0.23835E-04   -0.23823E-04  8112   0.218E-03 0.177E-05
CGA:  46    -0.385593921358E+03   -0.31573E-04   -0.31804E-04  8112   0.417E-03-0.253E-05
CGA:  47    -0.385593936703E+03   -0.15345E-04   -0.15320E-04  8112   0.585E-03-0.224E-05
CGA:  48    -0.385593949323E+03   -0.12620E-04   -0.12564E-04  8112   0.116E-03-0.212E-05
CGA:  49    -0.385593959674E+03   -0.10351E-04   -0.10440E-04  8112   0.170E-03-0.230E-05
CGA:  50    -0.385593967930E+03   -0.82566E-05   -0.82545E-05  8112   0.255E-03-0.159E-05
   6 F= -.38559397E+03 E0= -.38556773E+03  d E =0.463157E-01  mag=    18.0000
       N       E                     dE             d eps       ncg     rms          ort
SDA:   1    -0.382523123110E+03    0.30708E+01    0.00000E+00  8112   0.194E+02 0.000E+00
CGA:   2    -0.383004125237E+03   -0.48100E+00   -0.52128E+00  8112   0.233E+02-0.613E+00
CGA:   3    -0.383902439731E+03   -0.89831E+00   -0.89071E+00  8112   0.161E+02-0.259E+00
CGA:   4    -0.384714891564E+03   -0.81245E+00   -0.81203E+00  8112   0.923E+01 0.920E-01
CGA:   5    -0.384883047980E+03   -0.16816E+00   -0.14927E+00  8112   0.438E+01 0.933E+00
CGA:   6    -0.385241069077E+03   -0.35802E+00   -0.36006E+00  8112   0.687E+01-0.638E-01
CGA:   7    -0.385473312489E+03   -0.23224E+00   -0.23309E+00  8112   0.470E+01-0.128E-02
CGA:   8    -0.385558510660E+03   -0.85198E-01   -0.79408E-01  8112   0.971E+00 0.260E+00
CGA:   9    -0.385580985849E+03   -0.22475E-01   -0.23048E-01  8112   0.583E+00-0.138E-01
CGA:  10    -0.385607544839E+03   -0.26559E-01   -0.26545E-01  8112   0.306E+00 0.577E-02
CGA:  11    -0.385626133932E+03   -0.18589E-01   -0.18623E-01  8112   0.839E+00-0.165E-02
CGA:  12    -0.385643392992E+03   -0.17259E-01   -0.17492E-01  8112   0.144E+00-0.572E-02
CGA:  13    -0.385647363261E+03   -0.39703E-02   -0.40406E-02  8112   0.530E-01-0.274E-03
CGA:  14    -0.385649012094E+03   -0.16488E-02   -0.16465E-02  8112   0.687E-01-0.292E-04
CGA:  15    -0.385652290112E+03   -0.32780E-02   -0.32700E-02  8112   0.107E+00 0.107E-02
CGA:  16    -0.385655010757E+03   -0.27206E-02   -0.27179E-02  8112   0.316E-01 0.747E-04
CGA:  17    -0.385656279453E+03   -0.12687E-02   -0.12687E-02  8112   0.119E-01 0.137E-04
CGA:  18    -0.385656800995E+03   -0.52154E-03   -0.52148E-03  8112   0.205E-01 0.260E-04
CGA:  19    -0.385657282979E+03   -0.48198E-03   -0.48046E-03  8112   0.925E-02 0.318E-04
CGA:  20    -0.385658205045E+03   -0.92207E-03   -0.91772E-03  8112   0.772E-02 0.765E-04
CGA:  21    -0.385658428201E+03   -0.22316E-03   -0.22374E-03  8112   0.460E-02-0.215E-05
CGA:  22    -0.385658584515E+03   -0.15631E-03   -0.15631E-03  8112   0.415E-02 0.152E-06
CGA:  23    -0.385658720307E+03   -0.13579E-03   -0.13584E-03  8112   0.529E-02-0.177E-05
CGA:  24    -0.385658972447E+03   -0.25214E-03   -0.25214E-03  8112   0.359E-02-0.178E-05
CGA:  25    -0.385659170387E+03   -0.19794E-03   -0.19790E-03  8112   0.134E-02 0.157E-05
CGA:  26    -0.385659236742E+03   -0.66355E-04   -0.66334E-04  8112   0.210E-02 0.197E-05
CGA:  27    -0.385659281570E+03   -0.44828E-04   -0.44844E-04  8112   0.103E-02 0.122E-05
CGA:  28    -0.385659371515E+03   -0.89945E-04   -0.89842E-04  8112   0.135E-02 0.203E-05
CGA:  29    -0.385659421861E+03   -0.50346E-04   -0.50364E-04  8112   0.998E-03 0.163E-05
CGA:  30    -0.385659456649E+03   -0.34788E-04   -0.34783E-04  8112   0.239E-03-0.887E-06
CGA:  31    -0.385659479585E+03   -0.22936E-04   -0.23022E-04  8112   0.428E-03-0.184E-05
SDA:  32    -0.385659508861E+03   -0.29276E-04   -0.29337E-04  8112   0.391E-03-0.288E-05
CGA:  33    -0.385659515666E+03   -0.68051E-05   -0.68151E-05  8112   0.230E-03-0.172E-07
   7 F= -.38565952E+03 E0= -.38563384E+03  d E =-.655477E-01  mag=    18.0000
       N       E                     dE             d eps       ncg     rms          ort
SDA:   1    -0.385429811357E+03    0.22970E+00    0.00000E+00  8112   0.770E+00 0.000E+00
CGA:   2    -0.385475147354E+03   -0.45336E-01   -0.45540E-01  8112   0.207E+01-0.106E-01
CGA:   3    -0.385560386985E+03   -0.85240E-01   -0.85193E-01  8112   0.187E+01-0.351E-02
CGA:   4    -0.385602020462E+03   -0.41633E-01   -0.41090E-01  8112   0.730E+00 0.141E-01
CGA:   5    -0.385625012865E+03   -0.22992E-01   -0.23120E-01  8112   0.248E+00 0.337E-03
CGA:   6    -0.385645459410E+03   -0.20447E-01   -0.20439E-01  8112   0.230E+00 0.164E-03
CGA:   7    -0.385654755236E+03   -0.92958E-02   -0.92942E-02  8112   0.249E+00-0.778E-04
CGA:   8    -0.385658880773E+03   -0.41255E-02   -0.41184E-02  8112   0.344E-01 0.281E-03
CGA:   9    -0.385660653275E+03   -0.17725E-02   -0.17725E-02  8112   0.247E-01 0.573E-05
CGA:  10    -0.385661671601E+03   -0.10183E-02   -0.10182E-02  8112   0.295E-01-0.303E-05
CGA:  11    -0.385663116080E+03   -0.14445E-02   -0.14446E-02  8112   0.124E-01-0.148E-04
CGA:  12    -0.385663339051E+03   -0.22297E-03   -0.22289E-03  8112   0.652E-02 0.745E-05
CGA:  13    -0.385663581730E+03   -0.24268E-03   -0.24274E-03  8112   0.191E-02 0.514E-05
CGA:  14    -0.385663874670E+03   -0.29294E-03   -0.29241E-03  8112   0.251E-02 0.443E-05
CGA:  15    -0.385663967878E+03   -0.93208E-04   -0.93223E-04  8112   0.179E-02 0.222E-05
CGA:  16    -0.385664000347E+03   -0.32469E-04   -0.32517E-04  8112   0.746E-03-0.414E-06
CGA:  17    -0.385664041924E+03   -0.41577E-04   -0.41562E-04  8112   0.388E-03 0.147E-05
CGA:  18    -0.385664092734E+03   -0.50810E-04   -0.50533E-04  8112   0.778E-03 0.323E-05
CGA:  19    -0.385664114205E+03   -0.21471E-04   -0.21502E-04  8112   0.340E-03-0.133E-07
CGA:  20    -0.385664128995E+03   -0.14789E-04   -0.14795E-04  8112   0.273E-03 0.719E-06
CGA:  21    -0.385664136583E+03   -0.75877E-05   -0.75929E-05  8112   0.343E-03 0.560E-07
CGA:  22    -0.385664158372E+03   -0.21790E-04   -0.21788E-04  8112   0.230E-03 0.142E-06
CGA:  23    -0.385664180556E+03   -0.22184E-04   -0.22177E-04  8112   0.133E-03 0.122E-06
CGA:  24    -0.385664186312E+03   -0.57556E-05   -0.57570E-05  8112   0.123E-03 0.142E-06
   8 F= -.38566419E+03 E0= -.38563864E+03  d E =-.467065E-02  mag=    18.0000
       N       E                     dE             d eps       ncg     rms          ort
SDA:   1    -0.367770576660E+03    0.17894E+02    0.00000E+00  8112   0.541E+02 0.000E+00
CGA:   2    -0.372648995343E+03   -0.48784E+01   -0.46606E+01  8112   0.124E+03 0.631E+01
CGA:   3    -0.379201490897E+03   -0.65525E+01   -0.63539E+01  8112   0.996E+02-0.118E+02
CGA:   4    -0.381285741063E+03   -0.20843E+01   -0.15900E+01  8112   0.524E+02 0.185E+02
CGA:   5    -0.382412092776E+03   -0.11264E+01   -0.15070E+01  8112   0.350E+02-0.101E+02
CGA:   6    -0.383379784272E+03   -0.96769E+00   -0.95376E+00  8112   0.541E+02-0.379E-01
CGA:   7    -0.384309138496E+03   -0.92935E+00   -0.93480E+00  8112   0.269E+02-0.218E+01
CGA:   8    -0.384733325975E+03   -0.42419E+00   -0.38831E+00  8112   0.175E+02 0.150E+01
CGA:   9    -0.385015600149E+03   -0.28227E+00   -0.31912E+00  8112   0.800E+01-0.164E+01
CGA:  10    -0.385170879943E+03   -0.15528E+00   -0.15823E+00  8112   0.663E+01-0.744E-01
CGA:  11    -0.385268475671E+03   -0.97596E-01   -0.96598E-01  8112   0.329E+01 0.410E-01
CGA:  12    -0.385363886908E+03   -0.95411E-01   -0.96479E-01  8112   0.426E+01 0.125E-01
CGA:  13    -0.385446250649E+03   -0.82364E-01   -0.85906E-01  8112   0.331E+01-0.896E-01
CGA:  14    -0.385521493737E+03   -0.75243E-01   -0.76761E-01  8112   0.125E+01-0.152E-01
CGA:  15    -0.385542922394E+03   -0.21429E-01   -0.21364E-01  8112   0.943E+00 0.214E-02
CGA:  16    -0.385568961589E+03   -0.26039E-01   -0.26438E-01  8112   0.618E+00 0.600E-02
CGA:  17    -0.385583438631E+03   -0.14477E-01   -0.14497E-01  8112   0.479E+00-0.356E-03
CGA:  18    -0.385595277891E+03   -0.11839E-01   -0.11769E-01  8112   0.539E+00 0.439E-04
CGA:  19    -0.385612376784E+03   -0.17099E-01   -0.17210E-01  8112   0.319E+00 0.101E-01
CGA:  20    -0.385618864386E+03   -0.64876E-02   -0.66496E-02  8112   0.267E+00-0.248E-02
CGA:  21    -0.385625374382E+03   -0.65100E-02   -0.65133E-02  8112   0.880E-01 0.107E-04
CGA:  22    -0.385628072845E+03   -0.26985E-02   -0.27056E-02  8112   0.124E+00 0.677E-03
CGA:  23    -0.385632073324E+03   -0.40005E-02   -0.40170E-02  8112   0.114E+00 0.308E-02
CGA:  24    -0.385635153405E+03   -0.30801E-02   -0.30583E-02  8112   0.552E-01-0.526E-03
CGA:  25    -0.385637794947E+03   -0.26415E-02   -0.26334E-02  8112   0.614E-01 0.437E-03
CGA:  26    -0.385638942375E+03   -0.11474E-02   -0.11599E-02  8112   0.289E-01-0.258E-03
CGA:  27    -0.385640191388E+03   -0.12490E-02   -0.12510E-02  8112   0.225E-01-0.140E-03
CGA:  28    -0.385641709606E+03   -0.15182E-02   -0.14901E-02  8112   0.343E-01 0.838E-03
CGA:  29    -0.385642615255E+03   -0.90565E-03   -0.91090E-03  8112   0.202E-01 0.743E-04
CGA:  30    -0.385643184216E+03   -0.56896E-03   -0.56847E-03  8112   0.163E-01-0.293E-05
CGA:  31    -0.385643896964E+03   -0.71275E-03   -0.71121E-03  8112   0.921E-02 0.127E-03
SDA:  32    -0.385644551873E+03   -0.65491E-03   -0.65347E-03  8112   0.112E-01 0.403E-04
CGA:  33    -0.385644780438E+03   -0.22857E-03   -0.22889E-03  8112   0.369E-02-0.890E-05
CGA:  34    -0.385644966559E+03   -0.18612E-03   -0.18607E-03  8112   0.564E-02 0.342E-05
CGA:  35    -0.385645166960E+03   -0.20040E-03   -0.20041E-03  8112   0.907E-02 0.439E-05
CGA:  36    -0.385645743854E+03   -0.57689E-03   -0.57643E-03  8112   0.401E-02 0.171E-04
CGA:  37    -0.385645953990E+03   -0.21014E-03   -0.21010E-03  8112   0.136E-02 0.327E-05
CGA:  38    -0.385646089093E+03   -0.13510E-03   -0.13467E-03  8112   0.302E-02 0.669E-05
CGA:  39    -0.385646274858E+03   -0.18577E-03   -0.18544E-03  8112   0.283E-02 0.153E-04
CGA:  40    -0.385646349047E+03   -0.74189E-04   -0.74326E-04  8112   0.122E-02 0.441E-05
CGA:  41    -0.385646415695E+03   -0.66648E-04   -0.66605E-04  8112   0.357E-02 0.318E-05
CGA:  42    -0.385646551310E+03   -0.13561E-03   -0.13564E-03  8112   0.109E-02 0.532E-05
CGA:  43    -0.385646619508E+03   -0.68199E-04   -0.68187E-04  8112   0.540E-03 0.388E-06
CGA:  44    -0.385646677736E+03   -0.58228E-04   -0.58606E-04  8112   0.181E-02-0.581E-05
CGA:  45    -0.385646714883E+03   -0.37147E-04   -0.37034E-04  8112   0.817E-03-0.221E-05
CGA:  46    -0.385646755405E+03   -0.40522E-04   -0.40531E-04  8112   0.559E-03-0.277E-05
CGA:  47    -0.385646774949E+03   -0.19544E-04   -0.19530E-04  8112   0.466E-03-0.130E-05
CGA:  48    -0.385646810006E+03   -0.35057E-04   -0.35002E-04  8112   0.370E-03 0.171E-05
CGA:  49    -0.385646830916E+03   -0.20910E-04   -0.20894E-04  8112   0.401E-03 0.145E-05
CGA:  50    -0.385646842113E+03   -0.11197E-04   -0.11220E-04  8112   0.418E-03 0.120E-05
CGA:  51    -0.385646855845E+03   -0.13733E-04   -0.13751E-04  8112   0.124E-03 0.131E-05
CGA:  52    -0.385646872206E+03   -0.16360E-04   -0.16424E-04  8112   0.323E-03-0.772E-06
CGA:  53    -0.385646883845E+03   -0.11639E-04   -0.11640E-04  8112   0.207E-03-0.953E-07
CGA:  54    -0.385646893254E+03   -0.94089E-05   -0.94076E-05  8112   0.842E-04-0.396E-06
   9 F= -.38564689E+03 E0= -.38562152E+03  d E =0.172931E-01  mag=    18.0000
       N       E                     dE             d eps       ncg     rms          ort
SDA:   1    -0.380265018002E+03    0.53819E+01    0.00000E+00  8112   0.231E+02 0.000E+00
CGA:   2    -0.381005966199E+03   -0.74095E+00   -0.77180E+00  8112   0.426E+02-0.150E+00
CGA:   3    -0.383253297829E+03   -0.22473E+01   -0.22600E+01  8112   0.227E+02-0.164E+01
CGA:   4    -0.384288462493E+03   -0.10352E+01   -0.10346E+01  8112   0.133E+02-0.169E+00
CGA:   5    -0.384606917820E+03   -0.31846E+00   -0.29384E+00  8112   0.858E+01 0.785E+00
CGA:   6    -0.385014176889E+03   -0.40726E+00   -0.40832E+00  8112   0.107E+02 0.178E+00
CGA:   7    -0.385343644877E+03   -0.32947E+00   -0.31387E+00  8112   0.493E+01 0.106E+00
CGA:   8    -0.385503563110E+03   -0.15992E+00   -0.16211E+00  8112   0.186E+01 0.225E-01
CGA:   9    -0.385534069329E+03   -0.30506E-01   -0.30758E-01  8112   0.748E+00-0.122E-01
CGA:  10    -0.385569680616E+03   -0.35611E-01   -0.35531E-01  8112   0.764E+00 0.133E-01
CGA:  11    -0.385608327685E+03   -0.38647E-01   -0.38755E-01  8112   0.992E+00-0.121E-01
CGA:  12    -0.385628491502E+03   -0.20164E-01   -0.20526E-01  8112   0.252E+00-0.842E-02
CGA:  13    -0.385634389332E+03   -0.58978E-02   -0.58994E-02  8112   0.157E+00 0.337E-05
CGA:  14    -0.385640346503E+03   -0.59572E-02   -0.59700E-02  8112   0.833E-01 0.113E-02
CGA:  15    -0.385644820410E+03   -0.44739E-02   -0.44883E-02  8112   0.123E+00-0.897E-03
CGA:  16    -0.385647588558E+03   -0.27681E-02   -0.27974E-02  8112   0.741E-01-0.513E-03
CGA:  17    -0.385651631413E+03   -0.40429E-02   -0.40450E-02  8112   0.509E-01-0.150E-03
CGA:  18    -0.385652591424E+03   -0.96001E-03   -0.96420E-03  8112   0.136E-01-0.140E-03
CGA:  19    -0.385653305795E+03   -0.71437E-03   -0.71513E-03  8112   0.300E-01-0.508E-04
CGA:  20    -0.385654366140E+03   -0.10603E-02   -0.10621E-02  8112   0.238E-01 0.865E-04
CGA:  21    -0.385655563016E+03   -0.11969E-02   -0.11965E-02  8112   0.139E-01 0.288E-04
CGA:  22    -0.385655882803E+03   -0.31979E-03   -0.32103E-03  8112   0.101E-01-0.206E-04
CGA:  23    -0.385656298227E+03   -0.41542E-03   -0.41542E-03  8112   0.728E-02-0.431E-05
CGA:  24    -0.385656697550E+03   -0.39932E-03   -0.39844E-03  8112   0.135E-01 0.505E-04
CGA:  25    -0.385657175386E+03   -0.47784E-03   -0.47782E-03  8112   0.949E-02 0.904E-06
CGA:  26    -0.385657479194E+03   -0.30381E-03   -0.30399E-03  8112   0.767E-02 0.767E-05
CGA:  27    -0.385657680386E+03   -0.20119E-03   -0.20114E-03  8112   0.192E-02 0.611E-05
CGA:  28    -0.385657825651E+03   -0.14527E-03   -0.14507E-03  8112   0.743E-02 0.528E-05
CGA:  29    -0.385658070987E+03   -0.24534E-03   -0.24527E-03  8112   0.235E-02 0.611E-06
CGA:  30    -0.385658161945E+03   -0.90958E-04   -0.90963E-04  8112   0.156E-02 0.138E-05
CGA:  31    -0.385658198483E+03   -0.36538E-04   -0.36561E-04  8112   0.111E-02 0.610E-06
SDA:  32    -0.385658280411E+03   -0.81928E-04   -0.81886E-04  8112   0.197E-02 0.103E-05
CGA:  33    -0.385658309822E+03   -0.29411E-04   -0.29342E-04  8112   0.531E-03 0.205E-05
CGA:  34    -0.385658328860E+03   -0.19037E-04   -0.19035E-04  8112   0.671E-03-0.887E-06
CGA:  35    -0.385658362393E+03   -0.33533E-04   -0.33533E-04  8112   0.884E-03-0.241E-06
CGA:  36    -0.385658420550E+03   -0.58157E-04   -0.58213E-04  8112   0.596E-03-0.251E-05
CGA:  37    -0.385658451058E+03   -0.30508E-04   -0.30519E-04  8112   0.672E-03-0.127E-05
CGA:  38    -0.385658463947E+03   -0.12889E-04   -0.12876E-04  8112   0.348E-03-0.365E-06
CGA:  39    -0.385658487008E+03   -0.23060E-04   -0.23093E-04  8112   0.288E-03-0.148E-05
CGA:  40    -0.385658509500E+03   -0.22492E-04   -0.22565E-04  8112   0.603E-03-0.216E-05
CGA:  41    -0.385658529263E+03   -0.19763E-04   -0.19752E-04  8112   0.204E-03-0.604E-06
CGA:  42    -0.385658541530E+03   -0.12267E-04   -0.12279E-04  8112   0.100E-03-0.869E-06
CGA:  43    -0.385658554077E+03   -0.12546E-04   -0.12538E-04  8112   0.546E-03-0.693E-07
CGA:  44    -0.385658565766E+03   -0.11689E-04   -0.11701E-04  8112   0.104E-03 0.382E-07
CGA:  45    -0.385658568868E+03   -0.31023E-05   -0.31059E-05  8112   0.802E-04 0.148E-06
  10 F= -.38565857E+03 E0= -.38563285E+03  d E =-.116756E-01  mag=    18.0000
       N       E                     dE             d eps       ncg     rms          ort
SDA:   1    -0.385481412410E+03    0.17715E+00    0.00000E+00  8112   0.845E+00 0.000E+00
CGA:   2    -0.385525050903E+03   -0.43638E-01   -0.43681E-01  8112   0.124E+01-0.520E-02
CGA:   3    -0.385580107406E+03   -0.55057E-01   -0.55029E-01  8112   0.773E+00-0.457E-02
CGA:   4    -0.385611551729E+03   -0.31444E-01   -0.31507E-01  8112   0.278E+00 0.350E-02
CGA:   5    -0.385625451384E+03   -0.13900E-01   -0.13904E-01  8112   0.646E+00-0.719E-03
CGA:   6    -0.385643456408E+03   -0.18005E-01   -0.18063E-01  8112   0.258E+00-0.373E-03
CGA:   7    -0.385655283686E+03   -0.11827E-01   -0.11827E-01  8112   0.521E-01 0.429E-03
CGA:   8    -0.385657883152E+03   -0.25995E-02   -0.25989E-02  8112   0.167E-01 0.952E-04
CGA:   9    -0.385660534798E+03   -0.26516E-02   -0.26538E-02  8112   0.125E-01-0.227E-04
CGA:  10    -0.385660873271E+03   -0.33847E-03   -0.33819E-03  8112   0.658E-02 0.877E-05
CGA:  11    -0.385661110434E+03   -0.23716E-03   -0.23716E-03  8112   0.456E-02 0.725E-06
CGA:  12    -0.385661249876E+03   -0.13944E-03   -0.13948E-03  8112   0.607E-02 0.929E-07
CGA:  13    -0.385661543573E+03   -0.29370E-03   -0.29370E-03  8112   0.225E-02 0.447E-05
CGA:  14    -0.385661651182E+03   -0.10761E-03   -0.10761E-03  8112   0.794E-03 0.191E-05
CGA:  15    -0.385661700064E+03   -0.48882E-04   -0.48853E-04  8112   0.104E-02 0.236E-05
CGA:  16    -0.385661727275E+03   -0.27211E-04   -0.27233E-04  8112   0.975E-03 0.778E-06
CGA:  17    -0.385661772922E+03   -0.45647E-04   -0.45650E-04  8112   0.805E-03 0.217E-05
CGA:  18    -0.385661796257E+03   -0.23335E-04   -0.23372E-04  8112   0.356E-03 0.182E-05
CGA:  19    -0.385661811321E+03   -0.15064E-04   -0.15068E-04  8112   0.135E-03 0.452E-06
CGA:  20    -0.385661824836E+03   -0.13515E-04   -0.13503E-04  8112   0.498E-03 0.208E-06
CGA:  21    -0.385661835017E+03   -0.10181E-04   -0.10185E-04  8112   0.170E-03 0.403E-06
CGA:  22    -0.385661847405E+03   -0.12388E-04   -0.12388E-04  8112   0.100E-03-0.436E-07
CGA:  23    -0.385661850500E+03   -0.30951E-05   -0.31025E-05  8112   0.701E-04 0.356E-06
  11 F= -.38566185E+03 E0= -.38563621E+03  d E =-.328163E-02  mag=    18.0000
       N       E                     dE             d eps       ncg     rms          ort
SDA:   1    -0.385192581305E+03    0.46927E+00    0.00000E+00  8112   0.203E+01 0.000E+00
CGA:   2    -0.385242480489E+03   -0.49899E-01   -0.50533E-01  8112   0.273E+01-0.132E-01
CGA:   3    -0.385469208505E+03   -0.22673E+00   -0.22786E+00  8112   0.271E+01-0.287E-01
CGA:   4    -0.385555292085E+03   -0.86084E-01   -0.86385E-01  8112   0.936E+00-0.202E-02
CGA:   5    -0.385581978045E+03   -0.26686E-01   -0.27245E-01  8112   0.657E+00-0.537E-02
CGA:   6    -0.385617717720E+03   -0.35740E-01   -0.35697E-01  8112   0.121E+01 0.379E-02
CGA:   7    -0.385643079487E+03   -0.25362E-01   -0.25190E-01  8112   0.203E+00 0.480E-02
CGA:   8    -0.385650239725E+03   -0.71602E-02   -0.71625E-02  8112   0.489E-01 0.278E-04
CGA:   9    -0.385654754253E+03   -0.45145E-02   -0.45126E-02  8112   0.126E+00 0.412E-04
CGA:  10    -0.385657090334E+03   -0.23361E-02   -0.23526E-02  8112   0.398E-01-0.581E-03
CGA:  11    -0.385658845472E+03   -0.17551E-02   -0.17548E-02  8112   0.231E-01-0.473E-04
CGA:  12    -0.385659425688E+03   -0.58022E-03   -0.58042E-03  8112   0.798E-02 0.731E-05
CGA:  13    -0.385659834025E+03   -0.40834E-03   -0.40869E-03  8112   0.863E-02-0.367E-04
CGA:  14    -0.385660061407E+03   -0.22738E-03   -0.22771E-03  8112   0.888E-02-0.434E-05
CGA:  15    -0.385660513280E+03   -0.45187E-03   -0.45177E-03  8112   0.285E-02 0.109E-04
CGA:  16    -0.385660632896E+03   -0.11962E-03   -0.11963E-03  8112   0.166E-02 0.161E-05
CGA:  17    -0.385660680790E+03   -0.47895E-04   -0.47915E-04  8112   0.169E-02 0.810E-06
CGA:  18    -0.385660747597E+03   -0.66807E-04   -0.66828E-04  8112   0.162E-02 0.178E-05
CGA:  19    -0.385660807885E+03   -0.60287E-04   -0.60298E-04  8112   0.141E-02-0.294E-06
CGA:  20    -0.385660878719E+03   -0.70834E-04   -0.70824E-04  8112   0.554E-03 0.867E-06
CGA:  21    -0.385660901525E+03   -0.22806E-04   -0.22807E-04  8112   0.924E-03-0.203E-06
CGA:  22    -0.385660926042E+03   -0.24517E-04   -0.24547E-04  8112   0.390E-03-0.742E-06
CGA:  23    -0.385660978553E+03   -0.52511E-04   -0.52380E-04  8112   0.957E-03 0.965E-06
CGA:  24    -0.385661002262E+03   -0.23709E-04   -0.23717E-04  8112   0.314E-03-0.477E-06
CGA:  25    -0.385661012071E+03   -0.98094E-05   -0.98207E-05  8112   0.309E-03 0.567E-06
  12 F= -.38566101E+03 E0= -.38563539E+03  d E =0.838428E-03  mag=    18.0000
       N       E                     dE             d eps       ncg     rms          ort
SDA:   1    -0.381377388102E+03    0.42836E+01    0.00000E+00  8112   0.128E+02 0.000E+00
CGA:   2    -0.382259693732E+03   -0.88231E+00   -0.85856E+00  8112   0.471E+02 0.953E+00
CGA:   3    -0.384199615318E+03   -0.19399E+01   -0.19203E+01  8112   0.179E+02-0.683E+00
CGA:   4    -0.384705414775E+03   -0.50580E+00   -0.51809E+00  8112   0.866E+01-0.241E-01
CGA:   5    -0.384917906462E+03   -0.21249E+00   -0.20412E+00  8112   0.662E+01 0.143E+00
CGA:   6    -0.385415293291E+03   -0.49739E+00   -0.49410E+00  8112   0.454E+01 0.105E+00
CGA:   7    -0.385498879607E+03   -0.83586E-01   -0.80500E-01  8112   0.167E+01 0.111E+00
CGA:   8    -0.385555901852E+03   -0.57022E-01   -0.57494E-01  8112   0.727E+00 0.993E-02
CGA:   9    -0.385581318229E+03   -0.25416E-01   -0.25408E-01  8112   0.801E+00-0.517E-04
CGA:  10    -0.385615626213E+03   -0.34308E-01   -0.34308E-01  8112   0.684E+00-0.481E-03
CGA:  11    -0.385631507826E+03   -0.15882E-01   -0.15758E-01  8112   0.322E+00 0.211E-02
CGA:  12    -0.385641086979E+03   -0.95792E-02   -0.95975E-02  8112   0.736E-01 0.197E-03
CGA:  13    -0.385643795343E+03   -0.27084E-02   -0.27073E-02  8112   0.123E+00-0.834E-04
CGA:  14    -0.385648761926E+03   -0.49666E-02   -0.49674E-02  8112   0.805E-01 0.636E-03
CGA:  15    -0.385652432314E+03   -0.36704E-02   -0.36723E-02  8112   0.453E-01-0.278E-03
CGA:  16    -0.385653255621E+03   -0.82331E-03   -0.82655E-03  8112   0.207E-01-0.106E-03
CGA:  17    -0.385654393067E+03   -0.11374E-02   -0.11372E-02  8112   0.129E-01 0.104E-04
CGA:  18    -0.385654953665E+03   -0.56060E-03   -0.56046E-03  8112   0.270E-01 0.330E-04
CGA:  19    -0.385655978744E+03   -0.10251E-02   -0.10249E-02  8112   0.106E-01-0.193E-04
CGA:  20    -0.385656417095E+03   -0.43835E-03   -0.43833E-03  8112   0.920E-02 0.321E-04
CGA:  21    -0.385656637034E+03   -0.21994E-03   -0.21997E-03  8112   0.625E-02 0.449E-06
CGA:  22    -0.385657041080E+03   -0.40405E-03   -0.40340E-03  8112   0.779E-02 0.235E-04
CGA:  23    -0.385657326538E+03   -0.28546E-03   -0.28548E-03  8112   0.970E-02 0.509E-05
CGA:  24    -0.385657702794E+03   -0.37626E-03   -0.37631E-03  8112   0.583E-02 0.151E-04
CGA:  25    -0.385657841679E+03   -0.13889E-03   -0.13887E-03  8112   0.319E-02 0.219E-05
CGA:  26    -0.385658030472E+03   -0.18879E-03   -0.18857E-03  8112   0.361E-02 0.103E-04
CGA:  27    -0.385658133681E+03   -0.10321E-03   -0.10324E-03  8112   0.369E-02 0.365E-05
CGA:  28    -0.385658309614E+03   -0.17593E-03   -0.17590E-03  8112   0.207E-02 0.467E-05
CGA:  29    -0.385658391955E+03   -0.82341E-04   -0.82345E-04  8112   0.216E-02 0.301E-05
CGA:  30    -0.385658437781E+03   -0.45826E-04   -0.45871E-04  8112   0.743E-03 0.989E-06
CGA:  31    -0.385658508835E+03   -0.71054E-04   -0.70987E-04  8112   0.160E-02 0.103E-05
SDA:  32    -0.385658547106E+03   -0.38271E-04   -0.38286E-04  8112   0.991E-03 0.594E-07
CGA:  33    -0.385658562534E+03   -0.15428E-04   -0.15430E-04  8112   0.401E-03 0.284E-06
CGA:  34    -0.385658577240E+03   -0.14705E-04   -0.14704E-04  8112   0.309E-03-0.495E-06
CGA:  35    -0.385658623236E+03   -0.45997E-04   -0.46399E-04  8112   0.534E-03-0.378E-05
CGA:  36    -0.385658651532E+03   -0.28296E-04   -0.28310E-04  8112   0.340E-03-0.194E-05
CGA:  37    -0.385658658732E+03   -0.72004E-05   -0.71807E-05  8112   0.230E-03-0.895E-06
CGA:  38    -0.385658671699E+03   -0.12967E-04   -0.12981E-04  8112   0.442E-03-0.129E-05
CGA:  39    -0.385658687921E+03   -0.16222E-04   -0.16215E-04  8112   0.274E-03-0.785E-06
CGA:  40    -0.385658704612E+03   -0.16691E-04   -0.16717E-04  8112   0.101E-03-0.163E-05
CGA:  41    -0.385658710923E+03   -0.63108E-05   -0.63183E-05  8112   0.201E-03-0.500E-06
  13 F= -.38565871E+03 E0= -.38563302E+03  d E =0.230115E-02  mag=    18.0000
       N       E                     dE             d eps       ncg     rms          ort
SDA:   1    -0.369187796290E+03    0.16471E+02    0.00000E+00  8112   0.771E+02 0.000E+00
CGA:   2    -0.370823422848E+03   -0.16356E+01   -0.19124E+01  8112   0.981E+02-0.666E+01
CGA:   3    -0.375761924034E+03   -0.49385E+01   -0.10404E+02  8112   0.850E+03-0.108E+03
CGA:   4    -0.375313284077E+03    0.44864E+00   -0.17456E+02  8112   0.371E+03-0.264E+03
CGA:   5    -0.380432806496E+03   -0.51195E+01   -0.26192E+01  8112   0.166E+03 0.212E+03
CGA:   6    -0.382228869160E+03   -0.17961E+01   -0.10642E+01  8112   0.440E+02 0.968E+02
CGA:   7    -0.382612364357E+03   -0.38350E+00   -0.23467E+00  8112   0.155E+02 0.258E+02
CGA:   8    -0.382845603616E+03   -0.23324E+00   -0.16715E+00  8112   0.854E+01 0.506E+01
CGA:   9    -0.383340477212E+03   -0.49487E+00   -0.50210E+00  8112   0.486E+02-0.882E+00
CGA:  10    -0.383850491277E+03   -0.51001E+00   -0.55806E+00  8112   0.608E+02-0.260E+01
CGA:  11    -0.384268425466E+03   -0.41793E+00   -0.59489E+00  8112   0.391E+02-0.123E+02
CGA:  12    -0.384519563994E+03   -0.25114E+00   -0.23394E+00  8112   0.165E+02 0.202E+01
CGA:  13    -0.384651991930E+03   -0.13243E+00   -0.11300E+00  8112   0.904E+01 0.274E+01
CGA:  14    -0.384764168506E+03   -0.11218E+00   -0.95865E-01  8112   0.859E+01 0.155E+01
CGA:  15    -0.384852538728E+03   -0.88370E-01   -0.81937E-01  8112   0.615E+01 0.720E+00
CGA:  16    -0.384910093211E+03   -0.57554E-01   -0.64600E-01  8112   0.636E+01-0.518E+00
CGA:  17    -0.385002383334E+03   -0.92290E-01   -0.97343E-01  8112   0.137E+02-0.937E-01
CGA:  18    -0.385204517638E+03   -0.20213E+00   -0.20262E+00  8112   0.122E+02-0.412E-02
CGA:  19    -0.385310001492E+03   -0.10548E+00   -0.97536E-01  8112   0.580E+01 0.800E+00
CGA:  20    -0.385374199912E+03   -0.64198E-01   -0.60889E-01  8112   0.542E+01 0.237E+00
CGA:  21    -0.385434935746E+03   -0.60736E-01   -0.62718E-01  8112   0.419E+01-0.928E-01
CGA:  22    -0.385463729795E+03   -0.28794E-01   -0.30071E-01  8112   0.136E+01-0.128E+00
CGA:  23    -0.385474898144E+03   -0.11168E-01   -0.11611E-01  8112   0.998E+00-0.364E-01
CGA:  24    -0.385488952917E+03   -0.14055E-01   -0.13983E-01  8112   0.114E+01 0.166E-02
CGA:  25    -0.385499941498E+03   -0.10989E-01   -0.10720E-01  8112   0.702E+00 0.189E-01
CGA:  26    -0.385508688820E+03   -0.87473E-02   -0.87400E-02  8112   0.101E+01-0.207E-03
CGA:  27    -0.385529748889E+03   -0.21060E-01   -0.21057E-01  8112   0.249E+01-0.107E-02
CGA:  28    -0.385557929758E+03   -0.28181E-01   -0.28387E-01  8112   0.158E+01-0.112E-01
CGA:  29    -0.385570329646E+03   -0.12400E-01   -0.12526E-01  8112   0.821E+00-0.126E-01
CGA:  30    -0.385581008528E+03   -0.10679E-01   -0.10736E-01  8112   0.105E+01-0.115E-02
CGA:  31    -0.385593975186E+03   -0.12967E-01   -0.13042E-01  8112   0.731E+00-0.191E-02
CGA:  32    -0.385600291838E+03   -0.63167E-02   -0.63285E-02  8112   0.376E+00-0.920E-03
CGA:  33    -0.385605251267E+03   -0.49594E-02   -0.49489E-02  8112   0.419E+00 0.497E-04
CGA:  34    -0.385610263145E+03   -0.50119E-02   -0.49995E-02  8112   0.292E+00 0.344E-03
CGA:  35    -0.385613244985E+03   -0.29818E-02   -0.30067E-02  8112   0.222E+00-0.746E-03
CGA:  36    -0.385617113859E+03   -0.38689E-02   -0.38688E-02  8112   0.387E+00 0.587E-04
CGA:  37    -0.385622958570E+03   -0.58447E-02   -0.58484E-02  8112   0.373E+00 0.555E-03
SDA:  38    -0.385626846359E+03   -0.38878E-02   -0.38784E-02  8112   0.240E+00 0.726E-03
CGA:  39    -0.385632838515E+03   -0.59922E-02   -0.59917E-02  8112   0.116E+00 0.652E-04
CGA:  40    -0.385635725248E+03   -0.28867E-02   -0.28883E-02  8112   0.571E-01-0.195E-03
CGA:  41    -0.385637531268E+03   -0.18060E-02   -0.18059E-02  8112   0.739E-01 0.157E-05
CGA:  42    -0.385643284964E+03   -0.57537E-02   -0.57725E-02  8112   0.466E-01-0.331E-03
CGA:  43    -0.385646000310E+03   -0.27153E-02   -0.27213E-02  8112   0.164E-01-0.183E-03
CGA:  44    -0.385646514791E+03   -0.51448E-03   -0.51442E-03  8112   0.209E-01 0.114E-04
CGA:  45    -0.385647116712E+03   -0.60192E-03   -0.60142E-03  8112   0.810E-02 0.945E-04
CGA:  46    -0.385647754378E+03   -0.63767E-03   -0.63232E-03  8112   0.128E-01 0.976E-04
CGA:  47    -0.385648352916E+03   -0.59854E-03   -0.59609E-03  8112   0.135E-01 0.129E-03
CGA:  48    -0.385648782025E+03   -0.42911E-03   -0.42881E-03  8112   0.617E-02 0.835E-04
CGA:  49    -0.385648930685E+03   -0.14866E-03   -0.14871E-03  8112   0.538E-02 0.840E-05
CGA:  50    -0.385649246514E+03   -0.31583E-03   -0.31632E-03  8112   0.583E-02-0.169E-04
CGA:  51    -0.385650034765E+03   -0.78825E-03   -0.80086E-03  8112   0.610E-02-0.122E-03
CGA:  52    -0.385650295744E+03   -0.26098E-03   -0.26126E-03  8112   0.664E-02-0.308E-04
CGA:  53    -0.385650412602E+03   -0.11686E-03   -0.11667E-03  8112   0.218E-02-0.676E-05
CGA:  54    -0.385651027888E+03   -0.61529E-03   -0.11782E-03  8112   0.498E-02 0.548E-03
CGA:  55    -0.385651207602E+03   -0.17971E-03   -0.17969E-03  8112   0.264E-02 0.107E-04
CGA:  56    -0.385651350133E+03   -0.14253E-03   -0.14252E-03  8112   0.176E-02-0.360E-06
CGA:  57    -0.385651472784E+03   -0.12265E-03   -0.12269E-03  8112   0.208E-02-0.455E-05
CGA:  58    -0.385651541914E+03   -0.69131E-04   -0.68987E-04  8112   0.145E-02-0.604E-05
CGA:  59    -0.385651594728E+03   -0.52814E-04   -0.52656E-04  8112   0.175E-02-0.559E-05
CGA:  60    -0.385651639584E+03   -0.44856E-04   -0.44726E-04  8112   0.681E-03-0.669E-05
CGA:  61    -0.385651685573E+03   -0.45989E-04   -0.46049E-04  8112   0.972E-03-0.584E-05
CGA:  62    -0.385651735317E+03   -0.49744E-04   -0.49721E-04  8112   0.927E-03-0.371E-05
CGA:  63    -0.385651779880E+03   -0.44562E-04   -0.44556E-04  8112   0.622E-03-0.202E-05
CGA:  64    -0.385651817935E+03   -0.38055E-04   -0.38047E-04  8112   0.579E-03 0.195E-05
CGA:  65    -0.385651842584E+03   -0.24649E-04   -0.24683E-04  8112   0.647E-03 0.250E-05
CGA:  66    -0.385651874200E+03   -0.31616E-04   -0.31668E-04  8112   0.947E-03 0.593E-05
CGA:  67    -0.385651896184E+03   -0.21984E-04   -0.22132E-04  8112   0.488E-03 0.483E-05
CGA:  68    -0.385651926924E+03   -0.30740E-04   -0.30696E-04  8112   0.397E-03 0.550E-05
SDA:  69    -0.385651941746E+03   -0.14822E-04   -0.14861E-04  8112   0.323E-03 0.225E-05
CGA:  70    -0.385651948854E+03   -0.71075E-05   -0.70717E-05  8112   0.150E-03-0.149E-05
CGA:  71    -0.385651959914E+03   -0.11060E-04   -0.11151E-04  8112   0.297E-03-0.420E-05
CGA:  72    -0.385651968840E+03   -0.89268E-05   -0.88471E-05  8112   0.377E-03-0.378E-05
CGA:  73    -0.385651985394E+03   -0.16553E-04   -0.16500E-04  8112   0.160E-03-0.652E-05
CGA:  74    -0.385651996867E+03   -0.11473E-04   -0.11489E-04  8112   0.105E-03-0.916E-06
CGA:  75    -0.385652003198E+03   -0.63313E-05   -0.63138E-05  8112   0.218E-03 0.236E-05
  14 F= -.38565200E+03 E0= -.38562618E+03  d E =0.670773E-02  mag=    18.0000
       N       E                     dE             d eps       ncg     rms          ort
SDA:   1    -0.383924057458E+03    0.17279E+01    0.00000E+00  8112   0.290E+02 0.000E+00
CGA:   2    -0.384215322618E+03   -0.29127E+00   -0.41633E+00  8112   0.932E+01-0.777E+01
CGA:   3    -0.384663259551E+03   -0.44794E+00   -0.45050E+00  8112   0.150E+02-0.112E+00
CGA:   4    -0.385048741331E+03   -0.38548E+00   -0.39381E+00  8112   0.655E+01-0.217E+00
CGA:   5    -0.385233158361E+03   -0.18442E+00   -0.17873E+00  8112   0.382E+01 0.717E-01
CGA:   6    -0.385371645009E+03   -0.13849E+00   -0.13990E+00  8112   0.355E+01 0.152E-01
CGA:   7    -0.385499621911E+03   -0.12798E+00   -0.12653E+00  8112   0.264E+01-0.184E-01
CGA:   8    -0.385568538109E+03   -0.68916E-01   -0.69928E-01  8112   0.108E+01-0.149E-01
CGA:   9    -0.385596107960E+03   -0.27570E-01   -0.27470E-01  8112   0.498E+00 0.127E-02
CGA:  10    -0.385612872249E+03   -0.16764E-01   -0.16811E-01  8112   0.435E+00 0.622E-03
CGA:  11    -0.385627808935E+03   -0.14937E-01   -0.14881E-01  8112   0.305E+00-0.990E-03
CGA:  12    -0.385636548272E+03   -0.87393E-02   -0.87807E-02  8112   0.153E+00-0.530E-04
CGA:  13    -0.385640707231E+03   -0.41590E-02   -0.41512E-02  8112   0.823E-01 0.650E-04
CGA:  14    -0.385643345363E+03   -0.26381E-02   -0.26436E-02  8112   0.599E-01 0.100E-03
CGA:  15    -0.385645442553E+03   -0.20972E-02   -0.20968E-02  8112   0.477E-01-0.345E-05
CGA:  16    -0.385646935674E+03   -0.14931E-02   -0.14953E-02  8112   0.309E-01 0.464E-04
CGA:  17    -0.385647889398E+03   -0.95372E-03   -0.95263E-03  8112   0.188E-01-0.107E-04
CGA:  18    -0.385648468845E+03   -0.57945E-03   -0.58006E-03  8112   0.123E-01 0.157E-04
CGA:  19    -0.385648877280E+03   -0.40844E-03   -0.40838E-03  8112   0.105E-01 0.139E-05
CGA:  20    -0.385649313252E+03   -0.43597E-03   -0.43592E-03  8112   0.106E-01 0.200E-04
CGA:  21    -0.385649635730E+03   -0.32248E-03   -0.32243E-03  8112   0.594E-02 0.190E-05
CGA:  22    -0.385649816179E+03   -0.18045E-03   -0.18059E-03  8112   0.442E-02 0.397E-05
CGA:  23    -0.385650003834E+03   -0.18766E-03   -0.18766E-03  8112   0.496E-02-0.120E-05
CGA:  24    -0.385650173431E+03   -0.16960E-03   -0.16965E-03  8112   0.382E-02 0.495E-05
CGA:  25    -0.385650305051E+03   -0.13162E-03   -0.13163E-03  8112   0.309E-02 0.261E-05
CGA:  26    -0.385650414702E+03   -0.10965E-03   -0.10967E-03  8112   0.252E-02 0.288E-05
CGA:  27    -0.385650499673E+03   -0.84970E-04   -0.84974E-04  8112   0.206E-02 0.161E-05
CGA:  28    -0.385650575493E+03   -0.75820E-04   -0.75828E-04  8112   0.175E-02 0.347E-05
CGA:  29    -0.385650636462E+03   -0.60970E-04   -0.60974E-04  8112   0.146E-02 0.177E-05
CGA:  30    -0.385650686126E+03   -0.49663E-04   -0.49674E-04  8112   0.107E-02 0.209E-05
CGA:  31    -0.385650719708E+03   -0.33582E-04   -0.33594E-04  8112   0.691E-03 0.189E-05
SDA:  32    -0.385650743843E+03   -0.24135E-04   -0.24137E-04  8112   0.655E-03 0.823E-06
CGA:  33    -0.385650751778E+03   -0.79357E-05   -0.79322E-05  8112   0.165E-03 0.160E-06
  15 F= -.38565075E+03 E0= -.38562490E+03  d E =0.125142E-02  mag=    18.0000
       N       E                     dE             d eps       ncg     rms          ort
SDA:   1    -0.384872736477E+03    0.77801E+00    0.00000E+00  8112   0.373E+01 0.000E+00
CGA:   2    -0.384989423977E+03   -0.11669E+00   -0.11933E+00  8112   0.400E+01-0.677E-01
CGA:   3    -0.385248863806E+03   -0.25944E+00   -0.25948E+00  8112   0.637E+01-0.119E-01
CGA:   4    -0.385400260628E+03   -0.15140E+00   -0.14909E+00  8112   0.404E+01 0.665E-01
CGA:   5    -0.385518759639E+03   -0.11850E+00   -0.11717E+00  8112   0.754E+00 0.235E-01
CGA:   6    -0.385580890101E+03   -0.62130E-01   -0.62290E-01  8112   0.783E+00-0.552E-02
CGA:   7    -0.385613120837E+03   -0.32231E-01   -0.32268E-01  8112   0.831E+00 0.152E-04
CGA:   8    -0.385627644462E+03   -0.14524E-01   -0.14796E-01  8112   0.228E+00-0.130E-01
CGA:   9    -0.385637365874E+03   -0.97214E-02   -0.97042E-02  8112   0.900E-01-0.168E-03
CGA:  10    -0.385640497345E+03   -0.31315E-02   -0.31338E-02  8112   0.757E-01-0.104E-04
CGA:  11    -0.385643687675E+03   -0.31903E-02   -0.31952E-02  8112   0.472E-01 0.800E-04
CGA:  12    -0.385645570528E+03   -0.18829E-02   -0.18846E-02  8112   0.793E-01 0.229E-04
CGA:  13    -0.385647563311E+03   -0.19928E-02   -0.19850E-02  8112   0.666E-02 0.207E-03
CGA:  14    -0.385648123397E+03   -0.56009E-03   -0.55948E-03  8112   0.731E-02 0.168E-04
CGA:  15    -0.385648396551E+03   -0.27315E-03   -0.27315E-03  8112   0.113E-01-0.222E-05
CGA:  16    -0.385648762089E+03   -0.36554E-03   -0.36585E-03  8112   0.619E-02-0.491E-05
CGA:  17    -0.385648959143E+03   -0.19705E-03   -0.19707E-03  8112   0.409E-02 0.983E-06
CGA:  18    -0.385649092577E+03   -0.13343E-03   -0.13342E-03  8112   0.923E-03-0.125E-05
CGA:  19    -0.385649218773E+03   -0.12620E-03   -0.12598E-03  8112   0.492E-02 0.238E-05
CGA:  20    -0.385649324499E+03   -0.10573E-03   -0.10605E-03  8112   0.188E-02-0.844E-05
CGA:  21    -0.385649413821E+03   -0.89323E-04   -0.89346E-04  8112   0.729E-03 0.135E-05
CGA:  22    -0.385649452173E+03   -0.38352E-04   -0.38353E-04  8112   0.107E-02 0.434E-06
CGA:  23    -0.385649497922E+03   -0.45749E-04   -0.45747E-04  8112   0.168E-02 0.202E-06
CGA:  24    -0.385649563175E+03   -0.65253E-04   -0.65278E-04  8112   0.145E-02 0.155E-05
CGA:  25    -0.385649595584E+03   -0.32409E-04   -0.32448E-04  8112   0.351E-03 0.124E-05
CGA:  26    -0.385649626869E+03   -0.31285E-04   -0.31226E-04  8112   0.381E-03 0.138E-05
CGA:  27    -0.385649641801E+03   -0.14932E-04   -0.14948E-04  8112   0.626E-03 0.113E-05
CGA:  28    -0.385649658985E+03   -0.17185E-04   -0.17227E-04  8112   0.218E-03 0.930E-06
CGA:  29    -0.385649675281E+03   -0.16296E-04   -0.16290E-04  8112   0.214E-03 0.184E-06
CGA:  30    -0.385649680641E+03   -0.53601E-05   -0.53648E-05  8112   0.106E-03 0.111E-06
  16 F= -.38564968E+03 E0= -.38562380E+03  d E =0.107114E-02  mag=    18.0000
       N       E                     dE             d eps       ncg     rms          ort
SDA:   1    -0.369113062860E+03    0.16537E+02    0.00000E+00  8112   0.509E+02 0.000E+00
CGA:   2    -0.371667690566E+03   -0.25546E+01   -0.25522E+01  8112   0.179E+03-0.973E+00
CGA:   3    -0.380980332228E+03   -0.93126E+01   -0.93359E+01  8112   0.359E+02-0.667E+01
CGA:   4    -0.382390393873E+03   -0.14101E+01   -0.12950E+01  8112   0.277E+02-0.164E+01
CGA:   5    -0.383121731385E+03   -0.73134E+00   -0.71547E+00  8112   0.433E+02 0.237E+00
CGA:   6    -0.384720718130E+03   -0.15990E+01   -0.16272E+01  8112   0.163E+02 0.323E+00
CGA:   7    -0.385011876843E+03   -0.29116E+00   -0.30693E+00  8112   0.108E+02-0.583E+00
CGA:   8    -0.385210885388E+03   -0.19901E+00   -0.18616E+00  8112   0.222E+01 0.466E+00
CGA:   9    -0.385294008697E+03   -0.83123E-01   -0.82677E-01  8112   0.408E+01-0.889E-02
CGA:  10    -0.385426427841E+03   -0.13242E+00   -0.13369E+00  8112   0.504E+01 0.135E-01
CGA:  11    -0.385519928619E+03   -0.93501E-01   -0.97176E-01  8112   0.138E+01-0.130E+00
CGA:  12    -0.385563185166E+03   -0.43257E-01   -0.43783E-01  8112   0.822E+00 0.921E-02
CGA:  13    -0.385574163075E+03   -0.10978E-01   -0.10876E-01  8112   0.251E+00 0.547E-02
CGA:  14    -0.385595666495E+03   -0.21503E-01   -0.21238E-01  8112   0.396E+00 0.590E-02
CGA:  15    -0.385604750070E+03   -0.90836E-02   -0.91242E-02  8112   0.388E+00-0.951E-03
CGA:  16    -0.385619950218E+03   -0.15200E-01   -0.15218E-01  8112   0.242E+00 0.228E-02
CGA:  17    -0.385624728867E+03   -0.47786E-02   -0.48025E-02  8112   0.711E-01-0.758E-03
CGA:  18    -0.385626553562E+03   -0.18247E-02   -0.18278E-02  8112   0.693E-01-0.311E-04
CGA:  19    -0.385628455466E+03   -0.19019E-02   -0.19175E-02  8112   0.486E-01 0.933E-04
CGA:  20    -0.385632054121E+03   -0.35987E-02   -0.35942E-02  8112   0.837E-01 0.121E-03
CGA:  21    -0.385633901931E+03   -0.18478E-02   -0.18420E-02  8112   0.686E-01 0.967E-04
CGA:  22    -0.385636094829E+03   -0.21929E-02   -0.22081E-02  8112   0.158E-01 0.480E-03
CGA:  23    -0.385636799077E+03   -0.70425E-03   -0.70395E-03  8112   0.400E-01 0.428E-04
CGA:  24    -0.385637939444E+03   -0.11404E-02   -0.11390E-02  8112   0.148E-01-0.334E-05
CGA:  25    -0.385639286351E+03   -0.13469E-02   -0.13437E-02  8112   0.526E-01 0.624E-04
CGA:  26    -0.385640240542E+03   -0.95419E-03   -0.95737E-03  8112   0.150E-01-0.904E-04
CGA:  27    -0.385641032803E+03   -0.79226E-03   -0.79418E-03  8112   0.891E-02-0.114E-03
CGA:  28    -0.385641242940E+03   -0.21014E-03   -0.21088E-03  8112   0.912E-02-0.728E-07
CGA:  29    -0.385641748483E+03   -0.50554E-03   -0.50488E-03  8112   0.159E-01 0.426E-04
CGA:  30    -0.385642223986E+03   -0.47550E-03   -0.47581E-03  8112   0.597E-02 0.236E-04
CGA:  31    -0.385642425631E+03   -0.20164E-03   -0.20165E-03  8112   0.402E-02 0.655E-05
SDA:  32    -0.385642518880E+03   -0.93249E-04   -0.93307E-04  8112   0.397E-02 0.770E-06
CGA:  33    -0.385642595314E+03   -0.76435E-04   -0.76390E-04  8112   0.254E-02-0.493E-05
CGA:  34    -0.385642703961E+03   -0.10865E-03   -0.10868E-03  8112   0.318E-02-0.827E-05
CGA:  35    -0.385642906927E+03   -0.20297E-03   -0.20355E-03  8112   0.387E-02-0.231E-04
CGA:  36    -0.385643009429E+03   -0.10250E-03   -0.10232E-03  8112   0.104E-02-0.949E-05
CGA:  37    -0.385643100092E+03   -0.90663E-04   -0.90610E-04  8112   0.119E-02 0.863E-06
CGA:  38    -0.385643202772E+03   -0.10268E-03   -0.10244E-03  8112   0.280E-02 0.521E-05
CGA:  39    -0.385643256187E+03   -0.53415E-04   -0.53412E-04  8112   0.119E-02 0.338E-05
CGA:  40    -0.385643330678E+03   -0.74490E-04   -0.74506E-04  8112   0.564E-03-0.820E-06
CGA:  41    -0.385643365133E+03   -0.34455E-04   -0.34491E-04  8112   0.843E-03-0.215E-05
CGA:  42    -0.385643393198E+03   -0.28065E-04   -0.28019E-04  8112   0.631E-03-0.365E-05
CGA:  43    -0.385643430350E+03   -0.37152E-04   -0.37230E-04  8112   0.152E-02-0.538E-05
CGA:  44    -0.385643464791E+03   -0.34441E-04   -0.34372E-04  8112   0.297E-03-0.350E-05
CGA:  45    -0.385643487807E+03   -0.23016E-04   -0.23003E-04  8112   0.221E-03 0.247E-06
CGA:  46    -0.385643517846E+03   -0.30039E-04   -0.29772E-04  8112   0.419E-03 0.292E-05
CGA:  47    -0.385643529381E+03   -0.11535E-04   -0.11569E-04  8112   0.197E-03 0.130E-05
CGA:  48    -0.385643536393E+03   -0.70116E-05   -0.70147E-05  8112   0.171E-03 0.241E-06
  17 F= -.38564354E+03 E0= -.38561763E+03  d E =0.614425E-02  mag=    18.0000
       N       E                     dE             d eps       ncg     rms          ort
SDA:   1    -0.377315348908E+03    0.83282E+01    0.00000E+00  8112   0.260E+02 0.000E+00
CGA:   2    -0.378725071454E+03   -0.14097E+01   -0.13991E+01  8112   0.763E+02 0.111E+01
CGA:   3    -0.382567147139E+03   -0.38421E+01   -0.38486E+01  8112   0.730E+02-0.402E+01
CGA:   4    -0.383783663116E+03   -0.12165E+01   -0.13714E+01  8112   0.153E+02-0.101E+02
CGA:   5    -0.384316803346E+03   -0.53314E+00   -0.52880E+00  8112   0.159E+02-0.275E+00
CGA:   6    -0.384772215929E+03   -0.45541E+00   -0.47248E+00  8112   0.159E+02-0.195E-01
CGA:   7    -0.385270249798E+03   -0.49803E+00   -0.48880E+00  8112   0.552E+01-0.619E-02
CGA:   8    -0.385394618907E+03   -0.12437E+00   -0.12863E+00  8112   0.168E+01-0.100E+00
CGA:   9    -0.385463242908E+03   -0.68624E-01   -0.68612E-01  8112   0.254E+01-0.329E-02
CGA:  10    -0.385529568671E+03   -0.66326E-01   -0.68258E-01  8112   0.144E+01-0.101E-01
CGA:  11    -0.385568861431E+03   -0.39293E-01   -0.39413E-01  8112   0.639E+00-0.103E-02
CGA:  12    -0.385592578119E+03   -0.23717E-01   -0.23776E-01  8112   0.377E+00 0.522E-02
CGA:  13    -0.385602748552E+03   -0.10170E-01   -0.10108E-01  8112   0.314E+00 0.255E-03
CGA:  14    -0.385613616672E+03   -0.10868E-01   -0.10913E-01  8112   0.223E+00 0.259E-02
CGA:  15    -0.385620618980E+03   -0.70023E-02   -0.69903E-02  8112   0.110E+00-0.242E-03
CGA:  16    -0.385625404813E+03   -0.47858E-02   -0.47751E-02  8112   0.116E+00 0.175E-02
CGA:  17    -0.385628145525E+03   -0.27407E-02   -0.27291E-02  8112   0.547E-01 0.108E-03
CGA:  18    -0.385629994762E+03   -0.18492E-02   -0.18508E-02  8112   0.381E-01 0.887E-04
CGA:  19    -0.385631628382E+03   -0.16336E-02   -0.16333E-02  8112   0.353E-01 0.409E-04
CGA:  20    -0.385632922080E+03   -0.12937E-02   -0.12948E-02  8112   0.379E-01 0.183E-03
CGA:  21    -0.385633914144E+03   -0.99206E-03   -0.99079E-03  8112   0.143E-01 0.333E-05
CGA:  22    -0.385634443068E+03   -0.52892E-03   -0.52905E-03  8112   0.132E-01 0.410E-04
CGA:  23    -0.385635165404E+03   -0.72234E-03   -0.72289E-03  8112   0.210E-01-0.256E-04
CGA:  24    -0.385635742204E+03   -0.57680E-03   -0.57831E-03  8112   0.134E-01 0.172E-04
CGA:  25    -0.385636248676E+03   -0.50647E-03   -0.50653E-03  8112   0.902E-02 0.322E-04
CGA:  26    -0.385636589449E+03   -0.34077E-03   -0.34081E-03  8112   0.774E-02 0.255E-04
CGA:  27    -0.385636899204E+03   -0.30976E-03   -0.30977E-03  8112   0.116E-01-0.132E-05
CGA:  28    -0.385637332256E+03   -0.43305E-03   -0.43309E-03  8112   0.707E-02 0.236E-04
CGA:  29    -0.385637572551E+03   -0.24029E-03   -0.24032E-03  8112   0.447E-02 0.103E-04
CGA:  30    -0.385637750199E+03   -0.17765E-03   -0.17763E-03  8112   0.494E-02 0.806E-05
CGA:  31    -0.385637887365E+03   -0.13717E-03   -0.13715E-03  8112   0.313E-02 0.493E-05
SDA:  32    -0.385638030963E+03   -0.14360E-03   -0.14355E-03  8112   0.327E-02 0.669E-05
CGA:  33    -0.385638081038E+03   -0.50076E-04   -0.50074E-04  8112   0.103E-02-0.242E-05
CGA:  34    -0.385638132308E+03   -0.51269E-04   -0.51285E-04  8112   0.216E-02-0.172E-05
CGA:  35    -0.385638218381E+03   -0.86074E-04   -0.86074E-04  8112   0.159E-02 0.158E-06
CGA:  36    -0.385638327897E+03   -0.10952E-03   -0.10957E-03  8112   0.125E-02-0.181E-05
CGA:  37    -0.385638384877E+03   -0.56980E-04   -0.56980E-04  8112   0.607E-03-0.586E-06
CGA:  38    -0.385638398614E+03   -0.13737E-04   -0.13732E-04  8112   0.586E-03-0.194E-06
CGA:  39    -0.385638438322E+03   -0.39708E-04   -0.39773E-04  8112   0.650E-03-0.249E-05
CGA:  40    -0.385638468428E+03   -0.30106E-04   -0.30124E-04  8112   0.894E-03-0.279E-05
CGA:  41    -0.385638504981E+03   -0.36553E-04   -0.36554E-04  8112   0.246E-03-0.153E-05
CGA:  42    -0.385638530455E+03   -0.25473E-04   -0.25466E-04  8112   0.678E-03-0.104E-06
CGA:  43    -0.385638544211E+03   -0.13757E-04   -0.13754E-04  8112   0.372E-03-0.225E-06
CGA:  44    -0.385638566354E+03   -0.22143E-04   -0.22142E-04  8112   0.225E-03-0.251E-07
CGA:  45    -0.385638577750E+03   -0.11395E-04   -0.11397E-04  8112   0.286E-03-0.254E-06
CGA:  46    -0.385638587531E+03   -0.97816E-05   -0.97689E-05  8112   0.137E-03-0.141E-05
CGA:  47    -0.385638599656E+03   -0.12124E-04   -0.12215E-04  8112   0.271E-03-0.205E-05
CGA:  48    -0.385638604697E+03   -0.50415E-05   -0.50257E-05  8112   0.139E-03-0.626E-06
  18 F= -.38563860E+03 E0= -.38561268E+03  d E =0.493170E-02  mag=    18.0000
       N       E                     dE             d eps       ncg     rms          ort
SDA:   1    -0.384082020632E+03    0.15566E+01    0.00000E+00  8112   0.406E+01 0.000E+00
CGA:   2    -0.385138297994E+03   -0.10563E+01   -0.22759E-01  8112   0.474E+01-0.446E+00
CGA:   3    -0.385294244145E+03   -0.15595E+00   -0.14714E+00  8112   0.231E+01 0.132E+00
CGA:   4    -0.385438194973E+03   -0.14395E+00   -0.14429E+00  8112   0.399E+01 0.212E-02
CGA:   5    -0.385558775952E+03   -0.12058E+00   -0.11836E+00  8112   0.119E+01 0.556E-01
CGA:   6    -0.385580356430E+03   -0.21580E-01   -0.22780E-01  8112   0.510E+00-0.550E-01
CGA:   7    -0.385597491234E+03   -0.17135E-01   -0.16974E-01  8112   0.280E+00 0.251E-02
CGA:   8    -0.385617102674E+03   -0.19611E-01   -0.19612E-01  8112   0.264E+00 0.158E-03
CGA:   9    -0.385623003270E+03   -0.59006E-02   -0.58581E-02  8112   0.176E+00 0.152E-02
CGA:  10    -0.385628830473E+03   -0.58272E-02   -0.58645E-02  8112   0.622E-01-0.596E-03
CGA:  11    -0.385631472625E+03   -0.26422E-02   -0.26385E-02  8112   0.337E-01 0.190E-04
CGA:  12    -0.385632519516E+03   -0.10469E-02   -0.10481E-02  8112   0.435E-01-0.215E-04
CGA:  13    -0.385634279893E+03   -0.17604E-02   -0.17587E-02  8112   0.238E-01 0.624E-05
CGA:  14    -0.385635130853E+03   -0.85096E-03   -0.85267E-03  8112   0.208E-01-0.188E-04
CGA:  15    -0.385635810779E+03   -0.67993E-03   -0.67786E-03  8112   0.610E-02 0.208E-04
CGA:  16    -0.385635954338E+03   -0.14356E-03   -0.14379E-03  8112   0.503E-02-0.101E-04
CGA:  17    -0.385636203330E+03   -0.24899E-03   -0.24891E-03  8112   0.562E-02-0.414E-05
CGA:  18    -0.385636517564E+03   -0.31423E-03   -0.31425E-03  8112   0.377E-02 0.156E-05
CGA:  19    -0.385636614237E+03   -0.96673E-04   -0.96597E-04  8112   0.352E-02 0.167E-05
CGA:  20    -0.385636746682E+03   -0.13244E-03   -0.13248E-03  8112   0.117E-02 0.543E-06
CGA:  21    -0.385636812247E+03   -0.65565E-04   -0.65565E-04  8112   0.236E-02-0.475E-06
CGA:  22    -0.385636907827E+03   -0.95580E-04   -0.95617E-04  8112   0.309E-02 0.176E-05
CGA:  23    -0.385637039954E+03   -0.13213E-03   -0.13215E-03  8112   0.283E-02 0.263E-05
CGA:  24    -0.385637107211E+03   -0.67257E-04   -0.67286E-04  8112   0.653E-03-0.579E-06
CGA:  25    -0.385637145312E+03   -0.38101E-04   -0.38097E-04  8112   0.144E-02 0.741E-06
CGA:  26    -0.385637198971E+03   -0.53659E-04   -0.53679E-04  8112   0.188E-02 0.960E-06
CGA:  27    -0.385637282437E+03   -0.83467E-04   -0.83476E-04  8112   0.689E-03 0.111E-05
CGA:  28    -0.385637312627E+03   -0.30190E-04   -0.30197E-04  8112   0.849E-03 0.682E-06
CGA:  29    -0.385637331085E+03   -0.18457E-04   -0.18465E-04  8112   0.349E-03 0.671E-06
CGA:  30    -0.385637357296E+03   -0.26212E-04   -0.26198E-04  8112   0.667E-03 0.559E-06
CGA:  31    -0.385637378232E+03   -0.20936E-04   -0.20960E-04  8112   0.424E-03 0.129E-05
SDA:  32    -0.385637395497E+03   -0.17265E-04   -0.17273E-04  8112   0.500E-03 0.605E-06
CGA:  33    -0.385637402414E+03   -0.69164E-05   -0.69076E-05  8112   0.144E-03 0.339E-06
  19 F= -.38563740E+03 E0= -.38561147E+03  d E =0.120228E-02  mag=    18.0000
       N       E                     dE             d eps       ncg     rms          ort
SDA:   1    -0.383758212582E+03    0.18792E+01    0.00000E+00  8112   0.518E+01 0.000E+00
CGA:   2    -0.384423419791E+03   -0.66521E+00   -0.65652E+00  8112   0.247E+02 0.125E+00
CGA:   3    -0.385045252704E+03   -0.62183E+00   -0.61741E+00  8112   0.844E+01-0.924E-02
CGA:   4    -0.385216522542E+03   -0.17127E+00   -0.19526E+00  8112   0.401E+01-0.697E+00
CGA:   5    -0.385342824172E+03   -0.12630E+00   -0.13135E+00  8112   0.275E+01 0.459E-01
CGA:   6    -0.385522856159E+03   -0.18003E+00   -0.18055E+00  8112   0.211E+01-0.237E-01
CGA:   7    -0.385560649313E+03   -0.37793E-01   -0.37292E-01  8112   0.906E+00 0.190E-01
CGA:   8    -0.385589418879E+03   -0.28770E-01   -0.28871E-01  8112   0.237E+00-0.264E-03
CGA:   9    -0.385609125715E+03   -0.19707E-01   -0.19757E-01  8112   0.361E+00-0.121E-02
CGA:  10    -0.385619780113E+03   -0.10654E-01   -0.10619E-01  8112   0.174E+00 0.223E-03
CGA:  11    -0.385625355840E+03   -0.55757E-02   -0.56078E-02  8112   0.531E-01 0.494E-04
CGA:  12    -0.385626759021E+03   -0.14032E-02   -0.14053E-02  8112   0.618E-01-0.213E-04
CGA:  13    -0.385629542266E+03   -0.27832E-02   -0.27831E-02  8112   0.351E-01-0.605E-04
CGA:  14    -0.385631547699E+03   -0.20054E-02   -0.20041E-02  8112   0.156E-01 0.882E-04
CGA:  15    -0.385632098433E+03   -0.55073E-03   -0.54995E-03  8112   0.161E-01-0.150E-04
CGA:  16    -0.385632570399E+03   -0.47197E-03   -0.47192E-03  8112   0.955E-02-0.742E-06
CGA:  17    -0.385632861376E+03   -0.29098E-03   -0.29094E-03  8112   0.931E-02 0.553E-06
CGA:  18    -0.385633265078E+03   -0.40370E-03   -0.40373E-03  8112   0.487E-02 0.120E-04
CGA:  19    -0.385633612740E+03   -0.34766E-03   -0.34762E-03  8112   0.317E-02 0.126E-05
CGA:  20    -0.385633723816E+03   -0.11108E-03   -0.11114E-03  8112   0.426E-02 0.149E-05
CGA:  21    -0.385633849788E+03   -0.12597E-03   -0.12600E-03  8112   0.288E-02 0.683E-06
CGA:  22    -0.385634070343E+03   -0.22056E-03   -0.22035E-03  8112   0.502E-02 0.590E-05
CGA:  23    -0.385634205507E+03   -0.13516E-03   -0.13506E-03  8112   0.160E-02 0.572E-05
CGA:  24    -0.385634302922E+03   -0.97415E-04   -0.97366E-04  8112   0.191E-02 0.262E-05
CGA:  25    -0.385634359724E+03   -0.56802E-04   -0.56797E-04  8112   0.252E-02 0.114E-05
CGA:  26    -0.385634478461E+03   -0.11874E-03   -0.11872E-03  8112   0.120E-02 0.511E-05
[...]
CGA:   3    -0.385073362749E+03   -0.47181E+00   -0.46865E+00  8112   0.103E+02 0.743E-01
CGA:   4    -0.385305420602E+03   -0.23206E+00   -0.23905E+00  8112   0.273E+01-0.214E+00
CGA:   5    -0.385434525119E+03   -0.12910E+00   -0.12868E+00  8112   0.131E+01 0.369E-01
CGA:   6    -0.385603829568E+03   -0.16930E+00   -0.16834E+00  8112   0.623E+00 0.125E-01
CGA:   7    -0.385618510740E+03   -0.14681E-01   -0.14676E-01  8112   0.539E+00-0.704E-04
CGA:   8    -0.385633885693E+03   -0.15375E-01   -0.15510E-01  8112   0.190E+00-0.286E-03
CGA:   9    -0.385643302765E+03   -0.94171E-02   -0.94186E-02  8112   0.201E+00-0.134E-03
CGA:  10    -0.385649534564E+03   -0.62318E-02   -0.62283E-02  8112   0.106E+00-0.208E-04
CGA:  11    -0.385655376200E+03   -0.58416E-02   -0.58372E-02  8112   0.798E-01 0.276E-03
CGA:  12    -0.385656526305E+03   -0.11501E-02   -0.11492E-02  8112   0.206E-01 0.619E-04
CGA:  13    -0.385658006065E+03   -0.14798E-02   -0.14766E-02  8112   0.175E-01 0.984E-04
CGA:  14    -0.385659467025E+03   -0.14610E-02   -0.14567E-02  8112   0.178E-01 0.107E-03
CGA:  15    -0.385659927707E+03   -0.46068E-03   -0.46042E-03  8112   0.134E-01 0.733E-05
CGA:  16    -0.385660244453E+03   -0.31675E-03   -0.31727E-03  8112   0.425E-02-0.316E-05
CGA:  17    -0.385660411290E+03   -0.16684E-03   -0.16687E-03  8112   0.514E-02 0.688E-05
CGA:  18    -0.385660692287E+03   -0.28100E-03   -0.28080E-03  8112   0.435E-02 0.146E-04
CGA:  19    -0.385660964948E+03   -0.27266E-03   -0.27246E-03  8112   0.224E-02 0.103E-04
CGA:  20    -0.385661002445E+03   -0.37497E-04   -0.37509E-04  8112   0.123E-02 0.157E-05
CGA:  21    -0.385661108554E+03   -0.10611E-03   -0.10604E-03  8112   0.136E-02 0.144E-05
CGA:  22    -0.385661208684E+03   -0.10013E-03   -0.10013E-03  8112   0.178E-02-0.344E-07
CGA:  23    -0.385661255325E+03   -0.46641E-04   -0.46611E-04  8112   0.717E-03-0.196E-05
CGA:  24    -0.385661291185E+03   -0.35860E-04   -0.35861E-04  8112   0.830E-03-0.738E-06
CGA:  25    -0.385661307187E+03   -0.16002E-04   -0.16001E-04  8112   0.410E-03 0.262E-06
CGA:  26    -0.385661340088E+03   -0.32901E-04   -0.32918E-04  8112   0.390E-03-0.519E-06
CGA:  27    -0.385661369726E+03   -0.29638E-04   -0.29634E-04  8112   0.210E-03 0.208E-07
CGA:  28    -0.385661375689E+03   -0.59626E-05   -0.59508E-05  8112   0.170E-03-0.558E-06
  95 F= -.38566138E+03 E0= -.38563571E+03  d E =0.716446E-02  mag=    18.0000
       N       E                     dE             d eps       ncg     rms          ort
SDA:   1    -0.383978558408E+03    0.16828E+01    0.00000E+00  8112   0.663E+01 0.000E+00
CGA:   2    -0.384216876880E+03   -0.23832E+00   -0.24076E+00  8112   0.142E+02 0.434E-01
CGA:   3    -0.385014395134E+03   -0.79752E+00   -0.80664E+00  8112   0.828E+01-0.616E+00
CGA:   4    -0.385235465139E+03   -0.22107E+00   -0.23044E+00  8112   0.462E+01-0.811E-01
CGA:   5    -0.385343936292E+03   -0.10847E+00   -0.10624E+00  8112   0.233E+01 0.477E-01
CGA:   6    -0.385450199407E+03   -0.10626E+00   -0.10625E+00  8112   0.355E+01 0.189E-01
CGA:   7    -0.385564419880E+03   -0.11422E+00   -0.11322E+00  8112   0.116E+01-0.796E-02
CGA:   8    -0.385610314668E+03   -0.45895E-01   -0.45906E-01  8112   0.883E+00 0.911E-03
CGA:   9    -0.385625090059E+03   -0.14775E-01   -0.14505E-01  8112   0.203E+00 0.113E-01
CGA:  10    -0.385637206893E+03   -0.12117E-01   -0.12092E-01  8112   0.207E+00 0.120E-02
CGA:  11    -0.385649357732E+03   -0.12151E-01   -0.12146E-01  8112   0.329E+00 0.257E-03
CGA:  12    -0.385655400182E+03   -0.60425E-02   -0.60825E-02  8112   0.461E-01-0.142E-02
CGA:  13    -0.385656595722E+03   -0.11955E-02   -0.11955E-02  8112   0.316E-01-0.746E-05
CGA:  14    -0.385658023928E+03   -0.14282E-02   -0.14274E-02  8112   0.295E-01 0.153E-03
CGA:  15    -0.385659934423E+03   -0.19105E-02   -0.19131E-02  8112   0.541E-01-0.104E-03
CGA:  16    -0.385660873698E+03   -0.93928E-03   -0.94248E-03  8112   0.702E-02-0.151E-03
CGA:  17    -0.385661303164E+03   -0.42947E-03   -0.42939E-03  8112   0.646E-02 0.786E-06
CGA:  18    -0.385661512649E+03   -0.20948E-03   -0.20976E-03  8112   0.913E-02 0.358E-05
CGA:  19    -0.385661952258E+03   -0.43961E-03   -0.43966E-03  8112   0.754E-02-0.914E-05
CGA:  20    -0.385662213296E+03   -0.26104E-03   -0.26124E-03  8112   0.555E-02 0.151E-05
CGA:  21    -0.385662383212E+03   -0.16992E-03   -0.16991E-03  8112   0.254E-02 0.557E-06
CGA:  22    -0.385662488249E+03   -0.10504E-03   -0.10504E-03  8112   0.403E-02 0.583E-05
CGA:  23    -0.385662615786E+03   -0.12754E-03   -0.12763E-03  8112   0.257E-02 0.443E-05
CGA:  24    -0.385662869978E+03   -0.25419E-03   -0.25318E-03  8112   0.251E-02 0.179E-04
CGA:  25    -0.385662917393E+03   -0.47415E-04   -0.47439E-04  8112   0.138E-02 0.142E-05
CGA:  26    -0.385662990429E+03   -0.73036E-04   -0.73041E-04  8112   0.920E-03-0.164E-05
CGA:  27    -0.385663043573E+03   -0.53143E-04   -0.53200E-04  8112   0.188E-02-0.424E-05
CGA:  28    -0.385663097492E+03   -0.53920E-04   -0.53896E-04  8112   0.942E-03-0.305E-05
CGA:  29    -0.385663130084E+03   -0.32592E-04   -0.32592E-04  8112   0.764E-03-0.183E-06
CGA:  30    -0.385663150611E+03   -0.20527E-04   -0.20535E-04  8112   0.227E-03-0.434E-06
CGA:  31    -0.385663167490E+03   -0.16879E-04   -0.16757E-04  8112   0.690E-03 0.347E-05
SDA:  32    -0.385663187774E+03   -0.20284E-04   -0.20354E-04  8112   0.380E-03 0.452E-05
CGA:  33    -0.385663195119E+03   -0.73452E-05   -0.73325E-05  8112   0.164E-03-0.573E-06
  96 F= -.38566320E+03 E0= -.38563774E+03  d E =-.181943E-02  mag=    18.0000
       N       E                     dE             d eps       ncg     rms          ort
SDA:   1    -0.385059539534E+03    0.60365E+00    0.00000E+00  8112   0.286E+01 0.000E+00
CGA:   2    -0.385134526342E+03   -0.74987E-01   -0.75789E-01  8112   0.411E+01-0.468E-02
CGA:   3    -0.385469232858E+03   -0.33471E+00   -0.33549E+00  8112   0.185E+01-0.204E-01
CGA:   4    -0.385517871824E+03   -0.48639E-01   -0.47251E-01  8112   0.103E+01 0.832E-02
CGA:   5    -0.385566888498E+03   -0.49017E-01   -0.49245E-01  8112   0.118E+01-0.235E-01
CGA:   6    -0.385606613722E+03   -0.39725E-01   -0.39758E-01  8112   0.135E+01 0.127E-02
CGA:   7    -0.385642114437E+03   -0.35501E-01   -0.35077E-01  8112   0.214E+00 0.328E-02
CGA:   8    -0.385651578554E+03   -0.94641E-02   -0.94672E-02  8112   0.125E+00-0.455E-03
CGA:   9    -0.385655155431E+03   -0.35769E-02   -0.35687E-02  8112   0.145E+00-0.426E-04
CGA:  10    -0.385661742523E+03   -0.65871E-02   -0.65797E-02  8112   0.882E-01 0.896E-03
CGA:  11    -0.385664520864E+03   -0.27783E-02   -0.27768E-02  8112   0.508E-01-0.468E-04
CGA:  12    -0.385665899304E+03   -0.13784E-02   -0.13814E-02  8112   0.131E-01 0.993E-05
CGA:  13    -0.385666269333E+03   -0.37003E-03   -0.36996E-03  8112   0.161E-01 0.266E-05
CGA:  14    -0.385667171674E+03   -0.90234E-03   -0.90212E-03  8112   0.112E-01 0.829E-05
CGA:  15    -0.385667829509E+03   -0.65783E-03   -0.65749E-03  8112   0.105E-01 0.143E-04
CGA:  16    -0.385668001907E+03   -0.17240E-03   -0.17274E-03  8112   0.276E-02-0.870E-05
CGA:  17    -0.385668143234E+03   -0.14133E-03   -0.14129E-03  8112   0.334E-02 0.318E-05
CGA:  18    -0.385668274518E+03   -0.13128E-03   -0.13129E-03  8112   0.354E-02 0.759E-05
CGA:  19    -0.385668459085E+03   -0.18457E-03   -0.18446E-03  8112   0.339E-02 0.808E-05
CGA:  20    -0.385668528125E+03   -0.69041E-04   -0.69138E-04  8112   0.168E-02-0.255E-06
CGA:  21    -0.385668617800E+03   -0.89675E-04   -0.89630E-04  8112   0.770E-03 0.309E-05
CGA:  22    -0.385668657126E+03   -0.39326E-04   -0.39324E-04  8112   0.177E-02-0.254E-06
CGA:  23    -0.385668723066E+03   -0.65940E-04   -0.65939E-04  8112   0.152E-02-0.817E-06
CGA:  24    -0.385668787500E+03   -0.64434E-04   -0.64433E-04  8112   0.899E-03-0.271E-07
CGA:  25    -0.385668808988E+03   -0.21488E-04   -0.21481E-04  8112   0.339E-03-0.904E-06
CGA:  26    -0.385668827815E+03   -0.18827E-04   -0.18812E-04  8112   0.682E-03 0.768E-06
CGA:  27    -0.385668846915E+03   -0.19100E-04   -0.19119E-04  8112   0.408E-03 0.137E-05
CGA:  28    -0.385668869759E+03   -0.22843E-04   -0.22836E-04  8112   0.216E-03 0.236E-06
CGA:  29    -0.385668876969E+03   -0.72102E-05   -0.72098E-05  8112   0.240E-03-0.248E-06
  97 F= -.38566888E+03 E0= -.38564340E+03  d E =-.568185E-02  mag=    18.0000
       N       E                     dE             d eps       ncg     rms          ort
SDA:   1    -0.384946523995E+03    0.72235E+00    0.00000E+00  8112   0.374E+01 0.000E+00
CGA:   2    -0.385058200481E+03   -0.11168E+00   -0.11207E+00  8112   0.525E+01 0.525E-02
CGA:   3    -0.385302071562E+03   -0.24387E+00   -0.24490E+00  8112   0.478E+01-0.907E-01
CGA:   4    -0.385442069450E+03   -0.14000E+00   -0.14152E+00  8112   0.175E+01 0.216E-01
CGA:   5    -0.385490583756E+03   -0.48514E-01   -0.48370E-01  8112   0.914E+00-0.360E-03
CGA:   6    -0.385596196008E+03   -0.10561E+00   -0.10572E+00  8112   0.909E+00-0.278E-02
CGA:   7    -0.385618533355E+03   -0.22337E-01   -0.21870E-01  8112   0.652E+00 0.667E-02
CGA:   8    -0.385634589612E+03   -0.16056E-01   -0.16059E-01  8112   0.131E+00-0.404E-04
CGA:   9    -0.385641630211E+03   -0.70406E-02   -0.70451E-02  8112   0.177E+00-0.249E-03
CGA:  10    -0.385647952890E+03   -0.63227E-02   -0.63287E-02  8112   0.125E+00 0.383E-03
CGA:  11    -0.385652977171E+03   -0.50243E-02   -0.50237E-02  8112   0.100E+00-0.298E-03
CGA:  12    -0.385654613167E+03   -0.16360E-02   -0.16336E-02  8112   0.180E-01 0.721E-04
CGA:  13    -0.385655879515E+03   -0.12663E-02   -0.12653E-02  8112   0.143E-01 0.330E-04
CGA:  14    -0.385656904495E+03   -0.10250E-02   -0.10245E-02  8112   0.352E-01 0.129E-04
CGA:  15    -0.385657654305E+03   -0.74981E-03   -0.74870E-03  8112   0.929E-02 0.303E-04
CGA:  16    -0.385657964765E+03   -0.31046E-03   -0.31037E-03  8112   0.667E-02-0.399E-07
CGA:  17    -0.385658177044E+03   -0.21228E-03   -0.21223E-03  8112   0.323E-02 0.521E-07
CGA:  18    -0.385658469272E+03   -0.29223E-03   -0.29134E-03  8112   0.624E-02 0.184E-04
CGA:  19    -0.385658610002E+03   -0.14073E-03   -0.14079E-03  8112   0.442E-02 0.763E-05
CGA:  20    -0.385658813327E+03   -0.20333E-03   -0.20328E-03  8112   0.175E-02 0.113E-04
CGA:  21    -0.385658890157E+03   -0.76830E-04   -0.76825E-04  8112   0.128E-02 0.349E-05
CGA:  22    -0.385658940540E+03   -0.50383E-04   -0.50382E-04  8112   0.214E-02-0.729E-06
CGA:  23    -0.385659056983E+03   -0.11644E-03   -0.11646E-03  8112   0.279E-02-0.104E-05
CGA:  24    -0.385659115989E+03   -0.59005E-04   -0.59045E-04  8112   0.693E-03 0.290E-07
CGA:  25    -0.385659160043E+03   -0.44055E-04   -0.44064E-04  8112   0.432E-03-0.458E-06
CGA:  26    -0.385659181036E+03   -0.20992E-04   -0.20992E-04  8112   0.106E-02-0.756E-07
CGA:  27    -0.385659218221E+03   -0.37185E-04   -0.37182E-04  8112   0.508E-03-0.122E-06
CGA:  28    -0.385659240843E+03   -0.22622E-04   -0.22623E-04  8112   0.304E-03-0.693E-06
CGA:  29    -0.385659248391E+03   -0.75478E-05   -0.75544E-05  8112   0.145E-03 0.368E-06
CGA:  30    -0.385659261677E+03   -0.13286E-04   -0.13324E-04  8112   0.571E-03-0.773E-06
CGA:  31    -0.385659274613E+03   -0.12936E-04   -0.12911E-04  8112   0.111E-03-0.789E-06
SDA:  32    -0.385659280525E+03   -0.59121E-05   -0.59145E-05  8112   0.847E-04-0.345E-06
  98 F= -.38565928E+03 E0= -.38563354E+03  d E =0.959644E-02  mag=    18.0000
       N       E                     dE             d eps       ncg     rms          ort
SDA:   1    -0.385271109016E+03    0.38817E+00    0.00000E+00  8112   0.247E+01 0.000E+00
CGA:   2    -0.385319356911E+03   -0.48248E-01   -0.47014E-01  8112   0.211E+01 0.356E-01
CGA:   3    -0.385521497678E+03   -0.20214E+00   -0.20204E+00  8112   0.103E+01 0.179E-02
CGA:   4    -0.385554791857E+03   -0.33294E-01   -0.33259E-01  8112   0.874E+00-0.461E-03
CGA:   5    -0.385596395777E+03   -0.41604E-01   -0.41523E-01  8112   0.657E+00 0.132E-01
CGA:   6    -0.385629676305E+03   -0.33281E-01   -0.33337E-01  8112   0.950E+00-0.597E-02
CGA:   7    -0.385647164506E+03   -0.17488E-01   -0.17521E-01  8112   0.235E+00-0.138E-02
CGA:   8    -0.385656875988E+03   -0.97115E-02   -0.97101E-02  8112   0.500E-01-0.331E-03
CGA:   9    -0.385661902031E+03   -0.50260E-02   -0.50240E-02  8112   0.825E-01 0.472E-04
CGA:  10    -0.385665445508E+03   -0.35435E-02   -0.35448E-02  8112   0.551E-01 0.202E-03
CGA:  11    -0.385666451129E+03   -0.10056E-02   -0.10092E-02  8112   0.126E-01-0.125E-03
CGA:  12    -0.385666824925E+03   -0.37380E-03   -0.37395E-03  8112   0.145E-01 0.858E-06
CGA:  13    -0.385667589089E+03   -0.76416E-03   -0.76408E-03  8112   0.938E-02 0.764E-05
CGA:  14    -0.385668259264E+03   -0.67017E-03   -0.66931E-03  8112   0.414E-02 0.280E-04
CGA:  15    -0.385668395372E+03   -0.13611E-03   -0.13612E-03  8112   0.521E-02 0.166E-05
CGA:  16    -0.385668527075E+03   -0.13170E-03   -0.13197E-03  8112   0.164E-02-0.201E-05
CGA:  17    -0.385668707380E+03   -0.18031E-03   -0.18014E-03  8112   0.206E-02 0.287E-05
CGA:  18    -0.385668821301E+03   -0.11392E-03   -0.11393E-03  8112   0.215E-02-0.754E-06
CGA:  19    -0.385668866094E+03   -0.44793E-04   -0.44821E-04  8112   0.812E-03-0.126E-06
CGA:  20    -0.385668892955E+03   -0.26861E-04   -0.26871E-04  8112   0.846E-03 0.647E-07
CGA:  21    -0.385668928730E+03   -0.35775E-04   -0.35777E-04  8112   0.871E-03-0.440E-06
CGA:  22    -0.385668995768E+03   -0.67038E-04   -0.67021E-04  8112   0.486E-03 0.469E-06
CGA:  23    -0.385669020538E+03   -0.24770E-04   -0.24770E-04  8112   0.490E-03 0.698E-07
CGA:  24    -0.385669029392E+03   -0.88544E-05   -0.88553E-05  8112   0.224E-03-0.233E-06
CGA:  25    -0.385669051928E+03   -0.22536E-04   -0.22489E-04  8112   0.284E-03 0.763E-06
CGA:  26    -0.385669072790E+03   -0.20862E-04   -0.20851E-04  8112   0.126E-03 0.380E-06
CGA:  27    -0.385669075174E+03   -0.23835E-05   -0.23842E-05  8112   0.915E-04 0.500E-08
  99 F= -.38566908E+03 E0= -.38564352E+03  d E =-.979465E-02  mag=    18.0000
       N       E                     dE             d eps       ncg     rms          ort
SDA:   1    -0.385618403444E+03    0.50669E-01    0.00000E+00  8112   0.514E+00 0.000E+00
CGA:   2    -0.385631881774E+03   -0.13478E-01   -0.13777E-01  8112   0.251E+00-0.459E-02
CGA:   3    -0.385637816335E+03   -0.59346E-02   -0.58878E-02  8112   0.219E+00 0.102E-02
CGA:   4    -0.385653696198E+03   -0.15880E-01   -0.15848E-01  8112   0.237E+00 0.113E-02
CGA:   5    -0.385658754787E+03   -0.50586E-02   -0.51581E-02  8112   0.577E-01-0.291E-02
CGA:   6    -0.385662660611E+03   -0.39058E-02   -0.39074E-02  8112   0.604E-01-0.544E-04
CGA:   7    -0.385666971646E+03   -0.43110E-02   -0.43107E-02  8112   0.344E-01 0.175E-04
CGA:   8    -0.385667549530E+03   -0.57788E-03   -0.58061E-03  8112   0.152E-01-0.117E-03
CGA:   9    -0.385668207967E+03   -0.65844E-03   -0.65845E-03  8112   0.912E-02 0.271E-05
CGA:  10    -0.385668457220E+03   -0.24925E-03   -0.24958E-03  8112   0.495E-02-0.750E-05
CGA:  11    -0.385668759153E+03   -0.30193E-03   -0.30180E-03  8112   0.397E-02 0.792E-05
CGA:  12    -0.385668957874E+03   -0.19872E-03   -0.19872E-03  8112   0.370E-02-0.725E-06
CGA:  13    -0.385669014466E+03   -0.56593E-04   -0.56552E-04  8112   0.707E-03 0.279E-05
CGA:  14    -0.385669057577E+03   -0.43111E-04   -0.43087E-04  8112   0.911E-03 0.149E-05
CGA:  15    -0.385669100092E+03   -0.42515E-04   -0.42515E-04  8112   0.100E-02 0.889E-06
CGA:  16    -0.385669140012E+03   -0.39920E-04   -0.39938E-04  8112   0.361E-03 0.310E-05
CGA:  17    -0.385669152728E+03   -0.12715E-04   -0.12730E-04  8112   0.397E-03 0.140E-05
CGA:  18    -0.385669161241E+03   -0.85131E-05   -0.85365E-05  8112   0.128E-03 0.804E-06
CGA:  19    -0.385669177389E+03   -0.16148E-04   -0.15919E-04  8112   0.261E-03 0.282E-05
CGA:  20    -0.385669185410E+03   -0.80209E-05   -0.80322E-05  8112   0.130E-03 0.550E-06
 100 F= -.38566919E+03 E0= -.38564364E+03  d E =-.110236E-03  mag=    18.0000
       N       E                     dE             d eps       ncg     rms          ort
SDA:   1    -0.385515368289E+03    0.15381E+00    0.00000E+00  8112   0.952E+00 0.000E+00
CGA:   2    -0.385532001352E+03   -0.16633E-01   -0.16469E-01  8112   0.615E+00 0.591E-02
CGA:   3    -0.385594398745E+03   -0.62397E-01   -0.62244E-01  8112   0.161E+01 0.305E-02
CGA:   4    -0.385632743498E+03   -0.38345E-01   -0.37732E-01  8112   0.268E+00 0.124E-01
CGA:   5    -0.385646860890E+03   -0.14117E-01   -0.14125E-01  8112   0.145E+00-0.842E-03
CGA:   6    -0.385659909922E+03   -0.13049E-01   -0.13117E-01  8112   0.142E+00-0.152E-02
CGA:   7    -0.385663117793E+03   -0.32079E-02   -0.32335E-02  8112   0.105E+00-0.627E-03
CGA:   8    -0.385665894483E+03   -0.27767E-02   -0.27727E-02  8112   0.181E-01 0.541E-04
CGA:   9    -0.385666940163E+03   -0.10457E-02   -0.10446E-02  8112   0.133E-01 0.687E-04
CGA:  10    -0.385667842883E+03   -0.90272E-03   -0.90302E-03  8112   0.245E-01-0.149E-04
CGA:  11    -0.385668293239E+03   -0.45036E-03   -0.45084E-03  8112   0.575E-02-0.332E-04
CGA:  12    -0.385668491615E+03   -0.19838E-03   -0.19833E-03  8112   0.368E-02-0.322E-05
CGA:  13    -0.385668594342E+03   -0.10273E-03   -0.10285E-03  8112   0.155E-02 0.969E-06
CGA:  14    -0.385668732539E+03   -0.13820E-03   -0.13808E-03  8112   0.177E-02 0.265E-05
CGA:  15    -0.385668790914E+03   -0.58374E-04   -0.58405E-04  8112   0.232E-02 0.170E-05
CGA:  16    -0.385668852363E+03   -0.61449E-04   -0.61513E-04  8112   0.419E-03 0.317E-05
CGA:  17    -0.385668879567E+03   -0.27205E-04   -0.27186E-04  8112   0.256E-03 0.973E-06
CGA:  18    -0.385668902811E+03   -0.23244E-04   -0.23248E-04  8112   0.986E-03-0.510E-07
CGA:  19    -0.385668926100E+03   -0.23289E-04   -0.23277E-04  8112   0.356E-03-0.661E-06
CGA:  20    -0.385668940371E+03   -0.14271E-04   -0.14269E-04  8112   0.139E-03-0.252E-06
CGA:  21    -0.385668947890E+03   -0.75188E-05   -0.75170E-05  8112   0.252E-03 0.278E-06
CGA:  22    -0.385668960698E+03   -0.12808E-04   -0.12808E-04  8112   0.236E-03-0.321E-06
CGA:  23    -0.385668970923E+03   -0.10224E-04   -0.10225E-04  8112   0.335E-03-0.267E-07
CGA:  24    -0.385668977905E+03   -0.69821E-05   -0.69888E-05  8112   0.713E-04 0.397E-06
 101 F= -.38566898E+03 E0= -.38564341E+03  d E =0.207505E-03  mag=    18.0000
       N       E                     dE             d eps       ncg     rms          ort
SDA:   1    -0.385637834866E+03    0.31136E-01    0.00000E+00  8112   0.215E+00 0.000E+00
CGA:   2    -0.385643992061E+03   -0.61572E-02   -0.61913E-02  8112   0.207E+00-0.295E-03
CGA:   3    -0.385649869040E+03   -0.58770E-02   -0.58648E-02  8112   0.156E+00 0.967E-04
CGA:   4    -0.385658853235E+03   -0.89842E-02   -0.89795E-02  8112   0.166E+00 0.296E-03
CGA:   5    -0.385663181075E+03   -0.43278E-02   -0.42912E-02  8112   0.490E-01 0.507E-03
CGA:   6    -0.385665548587E+03   -0.23675E-02   -0.23673E-02  8112   0.240E-01 0.384E-04
CGA:   7    -0.385666866639E+03   -0.13181E-02   -0.13172E-02  8112   0.491E-01 0.589E-04
CGA:   8    -0.385667969576E+03   -0.11029E-02   -0.11027E-02  8112   0.180E-01-0.380E-05
CGA:   9    -0.385668759900E+03   -0.79032E-03   -0.79031E-03  8112   0.326E-02-0.913E-05
CGA:  10    -0.385668882439E+03   -0.12254E-03   -0.12254E-03  8112   0.347E-02 0.238E-05
CGA:  11    -0.385669059369E+03   -0.17693E-03   -0.17692E-03  8112   0.240E-02 0.262E-05
CGA:  12    -0.385669206126E+03   -0.14676E-03   -0.14667E-03  8112   0.934E-03 0.520E-05
CGA:  13    -0.385669222981E+03   -0.16855E-04   -0.16854E-04  8112   0.502E-03-0.780E-06
CGA:  14    -0.385669243962E+03   -0.20981E-04   -0.20977E-04  8112   0.349E-03-0.152E-05
CGA:  15    -0.385669265968E+03   -0.22006E-04   -0.22046E-04  8112   0.623E-03-0.205E-05
CGA:  16    -0.385669287167E+03   -0.21199E-04   -0.21164E-04  8112   0.147E-03-0.340E-05
CGA:  17    -0.385669294439E+03   -0.72720E-05   -0.72759E-05  8112   0.130E-03-0.735E-06
 102 F= -.38566929E+03 E0= -.38564374E+03  d E =-.316534E-03  mag=    18.0000
