       N       E                     dE             d eps       ncg     rms          rms(c)
DAV:   1     0.143229574570E+04    0.14323E+04   -0.67475E+04121930   0.171E+03
DAV:   2    -0.302194320315E+02   -0.14625E+04   -0.13656E+04131730   0.510E+02
DAV:   3    -0.176957163072E+03   -0.14674E+03   -0.14381E+03133900   0.173E+02
DAV:   4    -0.180616182149E+03   -0.36590E+01   -0.36213E+01141490   0.277E+01
DAV:   5    -0.180752383329E+03   -0.13620E+00   -0.13435E+00177930   0.438E+00    0.724E+00
DAV:   6    -0.148018165909E+03    0.32734E+02   -0.14992E+01139030   0.175E+01    0.867E+00
DAV:   7    -0.147939455365E+03    0.78711E-01   -0.42982E-01148940   0.328E+00    0.226E+01
DAV:   8    -0.147925269419E+03    0.14186E-01   -0.20573E-02141280   0.687E-01    0.504E+00
DAV:   9    -0.147902619388E+03    0.22650E-01   -0.11193E-02140015   0.465E-01    0.640E+00
DAV:  10    -0.147872049465E+03    0.30570E-01   -0.26150E-02133650   0.709E-01    0.499E+00
DAV:  11    -0.147868076786E+03    0.39727E-02   -0.10607E-03152080   0.157E-01    0.391E+00
DAV:  12    -0.147852808310E+03    0.15268E-01   -0.12000E-02134015   0.508E-01    0.202E+00
DAV:  13    -0.147845954223E+03    0.68541E-02   -0.48665E-03138120   0.315E-01    0.134E+00
DAV:  14    -0.147839957943E+03    0.59963E-02   -0.61435E-03133985   0.357E-01    0.679E-01
DAV:  15    -0.147838742261E+03    0.12157E-02   -0.56737E-04147235   0.107E-01    0.583E-01
DAV:  16    -0.147836627687E+03    0.21146E-02   -0.20197E-03133395   0.206E-01    0.405E-01
DAV:  17    -0.147835355972E+03    0.12717E-02   -0.20763E-03136495   0.208E-01    0.202E-01
DAV:  18    -0.147835169353E+03    0.18662E-03   -0.13742E-04147890   0.526E-02    0.175E-01
DAV:  19    -0.147835138938E+03    0.30415E-04   -0.47118E-06 76680   0.106E-02    0.129E-01
DAV:  20    -0.147835003338E+03    0.13560E-03   -0.99618E-05135735   0.456E-02    0.537E-02
DAV:  21    -0.147834924475E+03    0.78863E-04   -0.54498E-05117860   0.337E-02    0.335E-02
DAV:  22    -0.147834911277E+03    0.13198E-04   -0.17305E-06 67515   0.709E-03    0.214E-02
DAV:  23    -0.147834908157E+03    0.31202E-05   -0.56477E-07 67275   0.370E-03
   1 F= -.14783491E+03 E0= -.14783442E+03  d E =-.147835E+03  mag=    14.0000
