       N       E                     dE             d eps       ncg     rms          ort
DAV:   1     0.701191255105E+04    0.70119E+04   -0.26931E+05  8112   0.171E+03
DAV:   2     0.762356809504E+03   -0.62496E+04   -0.59542E+04  8112   0.510E+02
DAV:   3    -0.364010044516E+03   -0.11264E+04   -0.11039E+04  8112   0.209E+02
DAV:   4    -0.429363755952E+03   -0.65354E+02   -0.62998E+02  8112   0.528E+01
DAV:   5    -0.434753324947E+03   -0.53896E+01   -0.52392E+01  8112   0.126E+01
SDA:   6    -0.210004657528E+03    0.22475E+03   -0.52392E+01  8112   0.220E+04 0.000E+00
CGA:   7    -0.258751380892E+03   -0.48747E+02   -0.11021E+03  8112   0.282E+04-0.101E+04
CGA:   8    -0.346246485711E+03   -0.87495E+02   -0.60097E+02  8112   0.495E+03-0.481E+03
CGA:   9    -0.353367603515E+03   -0.71211E+01   -0.17502E+02  8112   0.909E+03-0.575E+03
CGA:  10    -0.334911524028E+03    0.18456E+02   -0.33312E+02  8112   0.172E+04-0.835E+03
CGA:  11    -0.274002023266E+03    0.60910E+02   -0.67450E+02  8112   0.372E+04-0.199E+04
CGA:  12    -0.800968078023E+02    0.19391E+03   -0.20659E+03  8112   0.443E+04-0.232E+04
CGA:  13    -0.150176334000E+03   -0.70080E+02   -0.18349E+03  8112   0.427E+04-0.492E+04
CGA:  14    -0.552781222387E+02    0.94898E+02   -0.24092E+03  8112   0.147E+04-0.120E+04
CGA:  15    -0.184392575807E+03   -0.12911E+03   -0.17358E+02  8112   0.700E+04 0.925E+04
CGA:  16    -0.125508011725E+03    0.58885E+02   -0.30490E+03  8112   0.549E+04-0.470E+04
CGA:  17    -0.557673571678E+02    0.69741E+02   -0.28898E+03  8112   0.151E+04-0.136E+04
CGA:  18    -0.211641019057E+03   -0.15587E+03   -0.17448E+02  8112   0.527E+04 0.837E+04
CGA:  19    -0.225666009376E+03   -0.14025E+02   -0.17156E+03  8112   0.594E+04-0.638E+04
CGA:  20    -0.666409404649E+02    0.15903E+03   -0.27677E+03  8112   0.184E+04-0.128E+04
CGA:  21    -0.265902298453E+03   -0.19926E+03   -0.22359E+02  8112   0.534E+04 0.820E+04
CGA:  22    -0.224500732477E+03    0.41402E+02   -0.15459E+03  8112   0.613E+04-0.507E+04
CGA:  23    -0.654962080731E+02    0.15900E+03   -0.26253E+03  8112   0.160E+04-0.109E+04
CGA:  24    -0.253314463383E+03   -0.18782E+03   -0.16492E+02  8112   0.423E+04 0.655E+04
CGA:  25    -0.275754648652E+03   -0.22440E+02   -0.98731E+02  8112   0.395E+04-0.443E+04
CGA:  26    -0.149930322231E+03    0.12582E+03   -0.13136E+03  8112   0.247E+04-0.160E+04
CGA:  27    -0.328845461264E+03   -0.17892E+03   -0.16243E+02  8112   0.584E+04 0.109E+05
CGA:  28    -0.247077656544E+03    0.81768E+02   -0.17811E+03  8112   0.495E+04-0.282E+04
CGA:  29    -0.165154617839E+03    0.81923E+02   -0.69563E+02  8112   0.309E+04-0.161E+04
CGA:  30    -0.366785021508E+03   -0.20163E+03   -0.23984E+02  8112   0.175E+04-0.183E+04
CGA:  31    -0.274012741895E+03    0.92772E+02   -0.40492E+02  8112   0.944E+04-0.290E+04
CGA:  32    -0.189479020242E+03    0.84534E+02   -0.29023E+03  8112   0.336E+04-0.218E+04
CGA:  33    -0.334941691896E+03   -0.14546E+03   -0.40484E+02  8112   0.223E+04 0.346E+04
CGA:  34    -0.282340654876E+03    0.52601E+02   -0.47629E+02  8112   0.617E+04-0.256E+04
CGA:  35    -0.239635790863E+03    0.42705E+02   -0.15398E+03  8112   0.705E+04-0.492E+04
CGA:  36    -0.229656155254E+03    0.99796E+01   -0.15265E+03  8112   0.110E+05-0.961E+04
CGA:  37    -0.132799487879E+03    0.96857E+02   -0.28743E+03  8112   0.796E+04-0.662E+04
CGA:  38    -0.207679967568E+03   -0.74880E+02   -0.18079E+03  8112   0.452E+04-0.630E+04
CGA:  39    -0.272530989437E+03   -0.64851E+02   -0.80082E+02  8112   0.106E+05-0.108E+05
CGA:  40    -0.146106218073E+03    0.12642E+03   -0.26340E+03  8112   0.634E+04-0.374E+04
CGA:  41    -0.338327752350E+03   -0.19222E+03   -0.57659E+02  8112   0.628E+04-0.145E+05
CGA:  42    -0.178495494720E+03    0.15983E+03   -0.12211E+03  8112   0.103E+05-0.464E+04
CGA:  43    -0.178245486034E+03    0.25001E+00   -0.18916E+03  8112   0.266E+04-0.265E+04
CGA:  44    -0.295388372629E+03   -0.11714E+03   -0.30610E+02  8112   0.145E+05-0.224E+05
CGA:  45    -0.176908907428E+03    0.11848E+03   -0.30488E+03  8112   0.333E+04-0.188E+04
CGA:  46    -0.186209308563E+03   -0.93004E+01   -0.47205E+02  8112   0.101E+05-0.102E+05
CGA:  47    -0.159544092627E+03    0.26665E+02   -0.16994E+03  8112   0.297E+04-0.273E+04
CGA:  48    -0.245455491039E+03   -0.85911E+02   -0.31864E+02  8112   0.155E+05-0.195E+05
CGA:  49    -0.142130141933E+03    0.10333E+03   -0.28725E+03  8112   0.276E+04-0.198E+04
CGA:  50    -0.218375586160E+03   -0.76245E+02   -0.35474E+02  8112   0.155E+05-0.181E+05
CGA:  51    -0.136254595728E+03    0.82121E+02   -0.26916E+03  8112   0.267E+04-0.211E+04
CGA:  52    -0.245637230336E+03   -0.10938E+03   -0.32277E+02  8112   0.166E+05-0.221E+05
CGA:  53    -0.137591645368E+03    0.10805E+03   -0.27406E+03  8112   0.282E+04-0.203E+04
CGA:  54    -0.218683465958E+03   -0.81092E+02   -0.32817E+02  8112   0.144E+05-0.168E+05
CGA:  55    -0.135180953378E+03    0.83503E+02   -0.22043E+03  8112   0.261E+04-0.205E+04
CGA:  56    -0.247901801476E+03   -0.11272E+03   -0.27444E+02  8112   0.155E+05-0.207E+05
CGA:  57    -0.138057568376E+03    0.10984E+03   -0.22422E+03  8112   0.290E+04-0.203E+04
CGA:  58    -0.222761748808E+03   -0.84704E+02   -0.29531E+02  8112   0.140E+05-0.163E+05
CGA:  59    -0.136923511956E+03    0.85838E+02   -0.18833E+03  8112   0.277E+04-0.213E+04
CGA:  60    -0.246313355455E+03   -0.10939E+03   -0.25435E+02  8112   0.145E+05-0.189E+05
CGA:  61    -0.141161797884E+03    0.10515E+03   -0.18237E+03  8112   0.320E+04-0.220E+04
CGA:  62    -0.231697371178E+03   -0.90536E+02   -0.28200E+02  8112   0.135E+05-0.158E+05
CGA:  63    -0.141615579631E+03    0.90082E+02   -0.15873E+03  8112   0.325E+04-0.243E+04
CGA:  64    -0.248788057815E+03   -0.10717E+03   -0.25945E+02  8112   0.123E+05-0.155E+05
CGA:  65    -0.147771753396E+03    0.10102E+03   -0.13147E+03  8112   0.396E+04-0.271E+04
CGA:  66    -0.248405825966E+03   -0.10063E+03   -0.28585E+02  8112   0.105E+05-0.122E+05
CGA:  67    -0.153333672196E+03    0.95072E+02   -0.10256E+03  8112   0.529E+04-0.374E+04
CGA:  68    -0.276519570252E+03   -0.12319E+03   -0.30774E+02  8112   0.146E+05-0.150E+05
CGA:  69    -0.160028347066E+03    0.11649E+03   -0.13767E+03  8112   0.733E+04-0.452E+04
CGA:  70    -0.243321883593E+03   -0.83294E+02   -0.45164E+02  8112   0.140E+05-0.129E+05
CGA:  71    -0.156058925399E+03    0.87263E+02   -0.12612E+03  8112   0.599E+04-0.438E+04
CGA:  72    -0.270254107250E+03   -0.11420E+03   -0.33152E+02  8112   0.161E+05-0.171E+05
CGA:  73    -0.161951172878E+03    0.10830E+03   -0.13568E+03  8112   0.685E+04-0.439E+04
CGA:  74    -0.265943354544E+03   -0.10399E+03   -0.38279E+02  8112   0.203E+05-0.208E+05
CGA:  75    -0.164664977034E+03    0.10128E+03   -0.16608E+03  8112   0.681E+04-0.459E+04
CGA:  76    -0.273006978174E+03   -0.10834E+03   -0.37500E+02  8112   0.232E+05-0.263E+05
CGA:  77    -0.169571690988E+03    0.10344E+03   -0.18061E+03  8112   0.746E+04-0.506E+04
CGA:  78    -0.283867531030E+03   -0.11430E+03   -0.39097E+02  8112   0.243E+05-0.287E+05
CGA:  79    -0.182504892010E+03    0.10136E+03   -0.17680E+03  8112   0.120E+05-0.796E+04
CGA:  80    -0.316995851583E+03   -0.13449E+03   -0.54803E+02  8112   0.212E+05-0.255E+05
CGA:  81    -0.223792893764E+03    0.93203E+02   -0.13753E+03  8112   0.236E+05-0.146E+05
CGA:  82    -0.201141557814E+03    0.22651E+02   -0.15886E+03  8112   0.145E+05-0.119E+05
CGA:  83    -0.216067110439E+03   -0.14926E+02   -0.94509E+02  8112   0.232E+05-0.238E+05
CGA:  84    -0.225776347606E+03   -0.97092E+01   -0.14741E+03  8112   0.133E+05-0.136E+05
CGA:  85    -0.260473781650E+03   -0.34697E+02   -0.77376E+02  8112   0.290E+05-0.327E+05
CGA:  86    -0.246539998792E+03    0.13934E+02   -0.17129E+03  8112   0.168E+05-0.159E+05
CGA:  87    -0.267801231455E+03   -0.21261E+02   -0.93084E+02  8112   0.293E+05-0.315E+05
CGA:  88    -0.265075803713E+03    0.27254E+01   -0.16228E+03  8112   0.200E+05-0.197E+05
CGA:  89    -0.286249276468E+03   -0.21173E+02   -0.10480E+03  8112   0.284E+05-0.310E+05
CGA:  90    -0.291565080930E+03   -0.53158E+01   -0.14651E+03  8112   0.205E+05-0.210E+05
CGA:  91    -0.318170162183E+03   -0.26605E+02   -0.97847E+02  8112   0.235E+05-0.276E+05
CGA:  92    -0.328641867715E+03   -0.10472E+02   -0.10917E+03  8112   0.159E+05-0.173E+05
CGA:  93    -0.359254030805E+03   -0.30612E+02   -0.63935E+02  8112   0.108E+05-0.161E+05
CGA:  94    -0.373178026756E+03   -0.13924E+02   -0.39009E+02  8112   0.426E+04-0.644E+04
CGA:  95    -0.383226622381E+03   -0.10049E+02   -0.11584E+02  8112   0.248E+03-0.105E+04
CGA:  96    -0.383806818684E+03   -0.58020E+00   -0.60954E+00  8112   0.125E+02-0.720E+01
CGA:  97    -0.383922346168E+03   -0.11553E+00   -0.11560E+00  8112   0.201E+02 0.945E-01
CGA:  98    -0.384100069532E+03   -0.17772E+00   -0.17936E+00  8112   0.228E+02 0.636E+00
CGA:  99    -0.384578505309E+03   -0.47844E+00   -0.42327E+00  8112   0.158E+02 0.598E+01
CGA: 100    -0.384770948717E+03   -0.19244E+00   -0.19421E+00  8112   0.192E+02 0.176E+01
CGA: 101    -0.385036083509E+03   -0.26513E+00   -0.25688E+00  8112   0.654E+01 0.289E+01
CGA: 102    -0.385175107190E+03   -0.13902E+00   -0.13112E+00  8112   0.715E+01 0.962E+00
CGA: 103    -0.385289289512E+03   -0.11418E+00   -0.10934E+00  8112   0.375E+01 0.124E+01
CGA: 104    -0.385400305395E+03   -0.11102E+00   -0.10178E+00  8112   0.348E+01 0.746E+00
CGA: 105    -0.385535630841E+03   -0.13533E+00   -0.11507E+00  8112   0.247E+01 0.127E+01
CGA: 106    -0.385613761198E+03   -0.78130E-01   -0.73261E-01  8112   0.181E+01 0.465E+00
CGA: 107    -0.385732852769E+03   -0.11909E+00   -0.96941E-01  8112   0.105E+01 0.735E+00
CGA: 108    -0.385796141252E+03   -0.63288E-01   -0.59649E-01  8112   0.142E+01 0.153E+00
CGA: 109    -0.385892621332E+03   -0.96480E-01   -0.84914E-01  8112   0.102E+01 0.348E+00
CGA: 110    -0.385947577977E+03   -0.54957E-01   -0.53699E-01  8112   0.733E+00 0.538E-01
CGA: 111    -0.385981234581E+03   -0.33657E-01   -0.32126E-01  8112   0.459E+00 0.684E-01
CGA: 112    -0.386007710437E+03   -0.26476E-01   -0.25590E-01  8112   0.336E+00 0.303E-01
CGA: 113    -0.386026089992E+03   -0.18380E-01   -0.17757E-01  8112   0.296E+00 0.232E-01
CGA: 114    -0.386041242872E+03   -0.15153E-01   -0.15030E-01  8112   0.203E+00 0.503E-02
CGA: 115    -0.386052266777E+03   -0.11024E-01   -0.10824E-01  8112   0.156E+00 0.725E-02
CGA: 116    -0.386060795831E+03   -0.85291E-02   -0.85162E-02  8112   0.132E+00 0.524E-03
CGA: 117    -0.386067169931E+03   -0.63741E-02   -0.63381E-02  8112   0.820E-01 0.154E-02
CGA: 118    -0.386072217191E+03   -0.50473E-02   -0.50480E-02  8112   0.910E-01 0.421E-04
CGA: 119    -0.386076813683E+03   -0.45965E-02   -0.45850E-02  8112   0.566E-01 0.434E-03
CGA: 120    -0.386079897801E+03   -0.30841E-02   -0.30859E-02  8112   0.483E-01-0.840E-04
CGA: 121    -0.386082323967E+03   -0.24262E-02   -0.24333E-02  8112   0.348E-01-0.374E-03
CGA: 122    -0.386084290577E+03   -0.19666E-02   -0.19652E-02  8112   0.268E-01 0.401E-04
CGA: 123    -0.386085619085E+03   -0.13285E-02   -0.13307E-02  8112   0.233E-01-0.146E-03
CGA: 124    -0.386087085089E+03   -0.14660E-02   -0.14682E-02  8112   0.174E-01-0.709E-04
SDA: 125    -0.386087847702E+03   -0.76261E-03   -0.76452E-03  8112   0.126E-01-0.180E-03
CGA: 126    -0.386088109226E+03   -0.26152E-03   -0.26203E-03  8112   0.413E-02 0.137E-04
CGA: 127    -0.386088594452E+03   -0.48523E-03   -0.47308E-03  8112   0.663E-02 0.160E-03
CGA: 128    -0.386089430839E+03   -0.83639E-03   -0.81576E-03  8112   0.816E-02 0.265E-03
CGA: 129    -0.386089895133E+03   -0.46429E-03   -0.46341E-03  8112   0.532E-02 0.918E-04
CGA: 130    -0.386090125677E+03   -0.23054E-03   -0.23057E-03  8112   0.468E-02 0.376E-04
CGA: 131    -0.386090375447E+03   -0.24977E-03   -0.24905E-03  8112   0.412E-02 0.702E-04
CGA: 132    -0.386090720784E+03   -0.34534E-03   -0.34557E-03  8112   0.236E-02-0.377E-05
CGA: 133    -0.386090863055E+03   -0.14227E-03   -0.14174E-03  8112   0.120E-02 0.328E-04
CGA: 134    -0.386091029059E+03   -0.16600E-03   -0.16600E-03  8112   0.165E-02-0.611E-06
CGA: 135    -0.386091141051E+03   -0.11199E-03   -0.11229E-03  8112   0.106E-02-0.167E-04
CGA: 136    -0.386091187847E+03   -0.46796E-04   -0.46720E-04  8112   0.108E-02-0.121E-04
CGA: 137    -0.386091256929E+03   -0.69082E-04   -0.69661E-04  8112   0.145E-02-0.402E-04
CGA: 138    -0.386091348889E+03   -0.91960E-04   -0.92355E-04  8112   0.843E-03-0.341E-04
CGA: 139    -0.386091420877E+03   -0.71988E-04   -0.73297E-04  8112   0.517E-03-0.364E-04
CGA: 140    -0.386091474653E+03   -0.53776E-04   -0.54230E-04  8112   0.107E-02-0.839E-05
CGA: 141    -0.386091514694E+03   -0.40041E-04   -0.39744E-04  8112   0.711E-03-0.639E-05
CGA: 142    -0.386091557836E+03   -0.43142E-04   -0.43141E-04  8112   0.438E-03-0.129E-05
CGA: 143    -0.386091581120E+03   -0.23284E-04   -0.23285E-04  8112   0.271E-03-0.621E-06
CGA: 144    -0.386091624660E+03   -0.43539E-04   -0.43907E-04  8112   0.315E-03-0.357E-05
CGA: 145    -0.386091650291E+03   -0.25631E-04   -0.25612E-04  8112   0.209E-03 0.555E-06
CGA: 146    -0.386091661426E+03   -0.11135E-04   -0.11141E-04  8112   0.162E-03 0.525E-06
CGA: 147    -0.386091672506E+03   -0.11081E-04   -0.11067E-04  8112   0.322E-03 0.250E-05
CGA: 148    -0.386091691833E+03   -0.19327E-04   -0.19349E-04  8112   0.163E-03 0.558E-05
CGA: 149    -0.386091700480E+03   -0.86467E-05   -0.86782E-05  8112   0.797E-04 0.294E-05
CGA: 150    -0.386091713927E+03   -0.13447E-04   -0.13051E-04  8112   0.140E-03 0.403E-05
CGA: 151    -0.386091726594E+03   -0.12667E-04   -0.12623E-04  8112   0.120E-03 0.232E-05
CGA: 152    -0.386091733667E+03   -0.70726E-05   -0.70781E-05  8112   0.135E-03 0.477E-06
   1 F= -.38609173E+03 E0= -.38607633E+03  d E =-.386092E+03  mag=    18.0000
       N       E                     dE             d eps       ncg     rms          ort
SDA:   1    -0.386083125307E+03    0.86013E-02    0.00000E+00  8112   0.459E+00 0.000E+00
CGA:   2    -0.386090890222E+03   -0.77649E-02   -0.75813E-02  8112   0.158E-01 0.878E-02
CGA:   3    -0.386091329820E+03   -0.43960E-03   -0.43983E-03  8112   0.288E-02-0.455E-05
CGA:   4    -0.386091578083E+03   -0.24826E-03   -0.24859E-03  8112   0.298E-02-0.111E-04
CGA:   5    -0.386091730169E+03   -0.15209E-03   -0.15207E-03  8112   0.386E-02-0.157E-05
CGA:   6    -0.386091896264E+03   -0.16610E-03   -0.16616E-03  8112   0.111E-02-0.585E-07
CGA:   7    -0.386091969457E+03   -0.73194E-04   -0.73179E-04  8112   0.478E-03 0.386E-05
CGA:   8    -0.386091998685E+03   -0.29228E-04   -0.29232E-04  8112   0.572E-03 0.316E-05
CGA:   9    -0.386092019228E+03   -0.20543E-04   -0.20606E-04  8112   0.281E-03 0.230E-05
CGA:  10    -0.386092035742E+03   -0.16514E-04   -0.16519E-04  8112   0.749E-04 0.221E-05
CGA:  11    -0.386092041491E+03   -0.57489E-05   -0.57523E-05  8112   0.102E-03-0.179E-06
   2 F= -.38609204E+03 E0= -.38607662E+03  d E =-.307825E-03  mag=    18.0000
       N       E                     dE             d eps       ncg     rms          ort
SDA:   1    -0.386015166618E+03    0.76869E-01    0.00000E+00  8112   0.871E+00 0.000E+00
CGA:   2    -0.386032465706E+03   -0.17299E-01   -0.17440E-01  8112   0.229E+00-0.761E-02
CGA:   3    -0.386060992577E+03   -0.28527E-01   -0.28555E-01  8112   0.302E+00-0.414E-03
CGA:   4    -0.386079346626E+03   -0.18354E-01   -0.18375E-01  8112   0.128E+00 0.363E-02
CGA:   5    -0.386085176408E+03   -0.58298E-02   -0.58219E-02  8112   0.615E-01-0.288E-05
CGA:   6    -0.386089070043E+03   -0.38936E-02   -0.38936E-02  8112   0.842E-01 0.500E-04
CGA:   7    -0.386091970104E+03   -0.29001E-02   -0.28917E-02  8112   0.129E-01 0.110E-03
CGA:   8    -0.386092746695E+03   -0.77659E-03   -0.77667E-03  8112   0.455E-02 0.327E-04
CGA:   9    -0.386093252723E+03   -0.50603E-03   -0.50627E-03  8112   0.817E-02-0.451E-05
CGA:  10    -0.386093478246E+03   -0.22552E-03   -0.22557E-03  8112   0.181E-02-0.142E-05
CGA:  11    -0.386093568800E+03   -0.90554E-04   -0.90570E-04  8112   0.819E-03 0.167E-05
CGA:  12    -0.386093622136E+03   -0.53336E-04   -0.53321E-04  8112   0.649E-03 0.316E-05
CGA:  13    -0.386093675820E+03   -0.53684E-04   -0.53641E-04  8112   0.594E-03 0.202E-05
CGA:  14    -0.386093696936E+03   -0.21116E-04   -0.21139E-04  8112   0.331E-03 0.108E-05
CGA:  15    -0.386093711041E+03   -0.14105E-04   -0.14123E-04  8112   0.116E-03 0.115E-05
CGA:  16    -0.386093722636E+03   -0.11595E-04   -0.11582E-04  8112   0.134E-03 0.292E-06
CGA:  17    -0.386093735773E+03   -0.13138E-04   -0.13111E-04  8112   0.163E-03 0.661E-06
CGA:  18    -0.386093740502E+03   -0.47285E-05   -0.47325E-05  8112   0.646E-04 0.787E-07
   3 F= -.38609374E+03 E0= -.38607832E+03  d E =-.169901E-02  mag=    18.0000
       N       E                     dE             d eps       ncg     rms          ort
SDA:   1    -0.384198803924E+03    0.18949E+01    0.00000E+00  8112   0.563E+01 0.000E+00
CGA:   2    -0.384777235973E+03   -0.57843E+00   -0.59989E+00  8112   0.149E+02-0.445E+00
CGA:   3    -0.385637927932E+03   -0.86069E+00   -0.86164E+00  8112   0.394E+01 0.163E+00
CGA:   4    -0.385799115654E+03   -0.16119E+00   -0.15791E+00  8112   0.206E+01 0.197E-01
CGA:   5    -0.385917779504E+03   -0.11866E+00   -0.11839E+00  8112   0.233E+01-0.148E-01
CGA:   6    -0.386024188731E+03   -0.10641E+00   -0.10649E+00  8112   0.875E+00 0.625E-03
CGA:   7    -0.386051856761E+03   -0.27668E-01   -0.27654E-01  8112   0.238E+00 0.121E-02
CGA:   8    -0.386066433307E+03   -0.14577E-01   -0.14576E-01  8112   0.189E+00-0.131E-02
CGA:   9    -0.386078336991E+03   -0.11904E-01   -0.11900E-01  8112   0.145E+00 0.117E-02
CGA:  10    -0.386084014501E+03   -0.56775E-02   -0.57078E-02  8112   0.405E-01-0.714E-04
CGA:  11    -0.386086140972E+03   -0.21265E-02   -0.21234E-02  8112   0.421E-01-0.134E-03
CGA:  12    -0.386087714843E+03   -0.15739E-02   -0.15759E-02  8112   0.153E-01-0.135E-04
CGA:  13    -0.386088897052E+03   -0.11822E-02   -0.11821E-02  8112   0.210E-01 0.852E-05
CGA:  14    -0.386089912222E+03   -0.10152E-02   -0.10168E-02  8112   0.497E-02 0.409E-04
CGA:  15    -0.386090191945E+03   -0.27972E-03   -0.27978E-03  8112   0.307E-02 0.929E-05
CGA:  16    -0.386090364980E+03   -0.17303E-03   -0.17307E-03  8112   0.426E-02 0.634E-05
CGA:  17    -0.386090647548E+03   -0.28257E-03   -0.28254E-03  8112   0.416E-02 0.420E-05
CGA:  18    -0.386090817415E+03   -0.16987E-03   -0.16989E-03  8112   0.174E-02 0.930E-06
CGA:  19    -0.386090936088E+03   -0.11867E-03   -0.11867E-03  8112   0.119E-02-0.806E-06
CGA:  20    -0.386091065195E+03   -0.12911E-03   -0.12881E-03  8112   0.254E-02 0.562E-05
CGA:  21    -0.386091196751E+03   -0.13156E-03   -0.13152E-03  8112   0.160E-02-0.161E-05
CGA:  22    -0.386091255755E+03   -0.59004E-04   -0.59003E-04  8112   0.833E-03-0.783E-06
CGA:  23    -0.386091303732E+03   -0.47977E-04   -0.47976E-04  8112   0.712E-03 0.181E-07
CGA:  24    -0.386091368674E+03   -0.64943E-04   -0.64843E-04  8112   0.581E-03 0.296E-05
CGA:  25    -0.386091402855E+03   -0.34180E-04   -0.34183E-04  8112   0.443E-03 0.128E-05
CGA:  26    -0.386091420922E+03   -0.18067E-04   -0.18078E-04  8112   0.279E-03 0.219E-07
CGA:  27    -0.386091437312E+03   -0.16391E-04   -0.16391E-04  8112   0.324E-03 0.179E-06
CGA:  28    -0.386091455859E+03   -0.18547E-04   -0.18548E-04  8112   0.142E-03 0.536E-07
CGA:  29    -0.386091469661E+03   -0.13802E-04   -0.13829E-04  8112   0.152E-03-0.751E-06
CGA:  30    -0.386091475478E+03   -0.58164E-05   -0.58076E-05  8112   0.895E-04-0.414E-06
   4 F= -.38609148E+03 E0= -.38607609E+03  d E =0.226502E-02  mag=    18.0000
       N       E                     dE             d eps       ncg     rms          ort
SDA:   1    -0.364649736596E+03    0.21442E+02    0.00000E+00  8112   0.637E+02 0.000E+00
CGA:   2    -0.371456525228E+03   -0.68068E+01   -0.59870E+01  8112   0.912E+02 0.206E+02
CGA:   3    -0.378093397725E+03   -0.66369E+01   -0.49698E+01  8112   0.485E+02 0.151E+02
CGA:   4    -0.381541098359E+03   -0.34477E+01   -0.34337E+01  8112   0.698E+02-0.110E+02
CGA:   5    -0.382781642058E+03   -0.12405E+01   -0.11920E+01  8112   0.103E+03 0.397E+00
CGA:   6    -0.384323346356E+03   -0.15417E+01   -0.13358E+01  8112   0.178E+02 0.174E+02
CGA:   7    -0.384587062363E+03   -0.26372E+00   -0.29207E+00  8112   0.130E+02-0.164E+01
CGA:   8    -0.384966156597E+03   -0.37909E+00   -0.33249E+00  8112   0.175E+02 0.731E+00
CGA:   9    -0.385213479768E+03   -0.24732E+00   -0.25406E+00  8112   0.108E+02-0.741E+00
CGA:  10    -0.385548565542E+03   -0.33509E+00   -0.35248E+00  8112   0.182E+02 0.187E-01
CGA:  11    -0.385753958950E+03   -0.20539E+00   -0.21784E+00  8112   0.167E+01-0.125E+01
CGA:  12    -0.385801867902E+03   -0.47909E-01   -0.48069E-01  8112   0.234E+01 0.135E-02
CGA:  13    -0.385849213898E+03   -0.47346E-01   -0.49530E-01  8112   0.132E+01-0.648E-01
CGA:  14    -0.385911049334E+03   -0.61835E-01   -0.61695E-01  8112   0.230E+01 0.491E-01
CGA:  15    -0.385964727830E+03   -0.53678E-01   -0.57609E-01  8112   0.112E+01-0.722E-01
CGA:  16    -0.385988824001E+03   -0.24096E-01   -0.26805E-01  8112   0.230E+00-0.375E-01
CGA:  17    -0.386005967711E+03   -0.17144E-01   -0.17050E-01  8112   0.253E+00 0.268E-02
CGA:  18    -0.386016494773E+03   -0.10527E-01   -0.10600E-01  8112   0.363E+00 0.609E-02
CGA:  19    -0.386031612108E+03   -0.15117E-01   -0.15243E-01  8112   0.101E+00 0.101E-01
CGA:  20    -0.386037934162E+03   -0.63221E-02   -0.62766E-02  8112   0.501E-01 0.228E-02
CGA:  21    -0.386042273355E+03   -0.43392E-02   -0.43168E-02  8112   0.495E-01 0.547E-03
CGA:  22    -0.386046085648E+03   -0.38123E-02   -0.37371E-02  8112   0.413E-01 0.240E-02
CGA:  23    -0.386048507080E+03   -0.24214E-02   -0.24188E-02  8112   0.302E-01 0.271E-03
CGA:  24    -0.386049392564E+03   -0.88548E-03   -0.89021E-03  8112   0.165E-01-0.370E-04
CGA:  25    -0.386051149306E+03   -0.17567E-02   -0.17465E-02  8112   0.164E-01 0.182E-03
CGA:  26    -0.386052866408E+03   -0.17171E-02   -0.17100E-02  8112   0.748E-02 0.135E-03
CGA:  27    -0.386053465787E+03   -0.59938E-03   -0.59852E-03  8112   0.154E-01 0.297E-04
CGA:  28    -0.386054108230E+03   -0.64244E-03   -0.64431E-03  8112   0.104E-01 0.308E-04
CGA:  29    -0.386055030898E+03   -0.92267E-03   -0.92035E-03  8112   0.559E-02 0.640E-04
CGA:  30    -0.386055467372E+03   -0.43647E-03   -0.43623E-03  8112   0.400E-02 0.114E-04
CGA:  31    -0.386055906575E+03   -0.43920E-03   -0.43970E-03  8112   0.545E-02-0.729E-05
SDA:  32    -0.386056200724E+03   -0.29415E-03   -0.29423E-03  8112   0.415E-02 0.692E-05
CGA:  33    -0.386056289096E+03   -0.88372E-04   -0.88444E-04  8112   0.134E-02-0.413E-05
CGA:  34    -0.386056412393E+03   -0.12330E-03   -0.12347E-03  8112   0.183E-02-0.504E-05
CGA:  35    -0.386056615176E+03   -0.20278E-03   -0.20325E-03  8112   0.939E-03-0.921E-05
CGA:  36    -0.386056691063E+03   -0.75887E-04   -0.76010E-04  8112   0.785E-03-0.613E-05
CGA:  37    -0.386056723546E+03   -0.32484E-04   -0.32397E-04  8112   0.825E-03-0.190E-05
CGA:  38    -0.386056773974E+03   -0.50427E-04   -0.50425E-04  8112   0.619E-03-0.343E-05
CGA:  39    -0.386056849168E+03   -0.75194E-04   -0.75518E-04  8112   0.387E-03-0.538E-05
CGA:  40    -0.386056877429E+03   -0.28261E-04   -0.28268E-04  8112   0.458E-03-0.909E-06
CGA:  41    -0.386056910049E+03   -0.32620E-04   -0.32629E-04  8112   0.699E-03-0.101E-05
CGA:  42    -0.386056938160E+03   -0.28111E-04   -0.28085E-04  8112   0.451E-03-0.401E-06
CGA:  43    -0.386056967104E+03   -0.28944E-04   -0.28943E-04  8112   0.141E-03-0.950E-06
CGA:  44    -0.386056984594E+03   -0.17490E-04   -0.17467E-04  8112   0.168E-03 0.380E-06
CGA:  45    -0.386056997881E+03   -0.13287E-04   -0.13279E-04  8112   0.372E-03 0.717E-06
CGA:  46    -0.386057011071E+03   -0.13190E-04   -0.13216E-04  8112   0.467E-04 0.584E-06
CGA:  47    -0.386057015534E+03   -0.44630E-05   -0.44426E-05  8112   0.799E-04 0.705E-06
   5 F= -.38605702E+03 E0= -.38604181E+03  d E =0.344599E-01  mag=    18.0000
       N       E                     dE             d eps       ncg     rms          ort
SDA:   1    -0.357746940467E+03    0.28310E+02    0.00000E+00  8112   0.217E+03 0.000E+00
CGA:   2    -0.364084343368E+03   -0.63374E+01   -0.92404E+01  8112   0.156E+03 0.799E+01
CGA:   3    -0.373361651461E+03   -0.92773E+01   -0.61392E+01  8112   0.589E+02 0.583E+02
CGA:   4    -0.375399291172E+03   -0.20376E+01   -0.15059E+01  8112   0.671E+02 0.201E+02
CGA:   5    -0.378635911693E+03   -0.32366E+01   -0.31567E+01  8112   0.106E+03-0.240E+01
CGA:   6    -0.380260461971E+03   -0.16246E+01   -0.19846E+01  8112   0.136E+03-0.122E+02
CGA:   7    -0.382021920567E+03   -0.17615E+01   -0.12875E+01  8112   0.789E+02 0.414E+02
CGA:   8    -0.382830398862E+03   -0.80848E+00   -0.10573E+01  8112   0.337E+02-0.356E+02
CGA:   9    -0.383071114577E+03   -0.24072E+00   -0.21074E+00  8112   0.357E+02 0.181E+01
CGA:  10    -0.383530254081E+03   -0.45914E+00   -0.62608E+00  8112   0.260E+02-0.800E+01
CGA:  11    -0.383814933712E+03   -0.28468E+00   -0.29868E+00  8112   0.255E+02-0.741E+00
CGA:  12    -0.384339777608E+03   -0.52484E+00   -0.49816E+00  8112   0.273E+02 0.746E+00
CGA:  13    -0.384748858593E+03   -0.40908E+00   -0.47387E+00  8112   0.139E+02-0.266E+01
CGA:  14    -0.384967598769E+03   -0.21874E+00   -0.24284E+00  8112   0.119E+02-0.720E+00
CGA:  15    -0.385172818320E+03   -0.20522E+00   -0.20606E+00  8112   0.506E+01 0.611E-02
CGA:  16    -0.385259806558E+03   -0.86988E-01   -0.86453E-01  8112   0.350E+01 0.251E-01
CGA:  17    -0.385356492955E+03   -0.96686E-01   -0.96384E-01  8112   0.492E+01-0.252E-02
CGA:  18    -0.385487330720E+03   -0.13084E+00   -0.13073E+00  8112   0.468E+01 0.157E-01
CGA:  19    -0.385591838472E+03   -0.10451E+00   -0.10694E+00  8112   0.459E+01-0.461E-01
CGA:  20    -0.385685554961E+03   -0.93716E-01   -0.10781E+00  8112   0.182E+01-0.830E-01
CGA:  21    -0.385724645915E+03   -0.39091E-01   -0.42089E-01  8112   0.109E+01-0.243E-01
CGA:  22    -0.385764905855E+03   -0.40260E-01   -0.40260E-01  8112   0.966E+00-0.216E-03
CGA:  23    -0.385810720698E+03   -0.45815E-01   -0.45438E-01  8112   0.114E+01 0.294E-01
CGA:  24    -0.385872219693E+03   -0.61499E-01   -0.60262E-01  8112   0.570E+00 0.711E-01
CGA:  25    -0.385890050123E+03   -0.17830E-01   -0.17874E-01  8112   0.330E+00 0.762E-03
CGA:  26    -0.385905957574E+03   -0.15907E-01   -0.15858E-01  8112   0.237E+00 0.359E-02
CGA:  27    -0.385923534873E+03   -0.17577E-01   -0.17694E-01  8112   0.318E+00-0.328E-02
CGA:  28    -0.385938436371E+03   -0.14901E-01   -0.14845E-01  8112   0.110E+00 0.557E-02
CGA:  29    -0.385943021953E+03   -0.45856E-02   -0.45871E-02  8112   0.931E-01 0.130E-02
CGA:  30    -0.385947948649E+03   -0.49267E-02   -0.49182E-02  8112   0.921E-01 0.569E-03
CGA:  31    -0.385955115185E+03   -0.71665E-02   -0.71465E-02  8112   0.710E-01 0.556E-03
SDA:  32    -0.385958227029E+03   -0.31118E-02   -0.31119E-02  8112   0.340E-01 0.302E-03
CGA:  33    -0.385960267532E+03   -0.20405E-02   -0.20309E-02  8112   0.286E-01 0.461E-03
CGA:  34    -0.385963559561E+03   -0.32920E-02   -0.32621E-02  8112   0.411E-01 0.496E-03
CGA:  35    -0.385966348374E+03   -0.27888E-02   -0.28017E-02  8112   0.117E-01-0.527E-03
CGA:  36    -0.385967324132E+03   -0.97576E-03   -0.97414E-03  8112   0.914E-02 0.429E-04
CGA:  37    -0.385967819645E+03   -0.49551E-03   -0.49551E-03  8112   0.159E-01 0.500E-05
CGA:  38    -0.385969039907E+03   -0.12203E-02   -0.12175E-02  8112   0.136E-01 0.964E-04
CGA:  39    -0.385970323399E+03   -0.12835E-02   -0.12838E-02  8112   0.925E-02-0.766E-05
CGA:  40    -0.385970792408E+03   -0.46901E-03   -0.46871E-03  8112   0.580E-02-0.344E-04
CGA:  41    -0.385971336763E+03   -0.54435E-03   -0.54510E-03  8112   0.124E-01-0.189E-04
CGA:  42    -0.385971823623E+03   -0.48686E-03   -0.48607E-03  8112   0.679E-02-0.192E-04
CGA:  43    -0.385972160933E+03   -0.33731E-03   -0.33728E-03  8112   0.248E-02-0.844E-05
CGA:  44    -0.385972466683E+03   -0.30575E-03   -0.30409E-03  8112   0.283E-02 0.256E-04
CGA:  45    -0.385972690848E+03   -0.22416E-03   -0.22386E-03  8112   0.423E-02 0.156E-04
CGA:  46    -0.385972809807E+03   -0.11896E-03   -0.11920E-03  8112   0.826E-03 0.926E-05
CGA:  47    -0.385972875084E+03   -0.65277E-04   -0.65234E-04  8112   0.847E-03 0.240E-05
CGA:  48    -0.385972929824E+03   -0.54740E-04   -0.54744E-04  8112   0.614E-03-0.256E-06
CGA:  49    -0.385972978002E+03   -0.48178E-04   -0.48189E-04  8112   0.409E-03-0.753E-06
CGA:  50    -0.385972989550E+03   -0.11549E-04   -0.11568E-04  8112   0.214E-03 0.405E-06
CGA:  51    -0.385973006360E+03   -0.16810E-04   -0.16760E-04  8112   0.153E-03 0.242E-05
CGA:  52    -0.385973030215E+03   -0.23854E-04   -0.23306E-04  8112   0.235E-03 0.605E-05
CGA:  53    -0.385973043224E+03   -0.13009E-04   -0.13045E-04  8112   0.176E-03 0.346E-05
CGA:  54    -0.385973049463E+03   -0.62389E-05   -0.62912E-05  8112   0.107E-03 0.177E-05
   6 F= -.38597305E+03 E0= -.38595758E+03  d E =0.839661E-01  mag=    18.0000
       N       E                     dE             d eps       ncg     rms          ort
SDA:   1    -0.383835898847E+03    0.21371E+01    0.00000E+00  8112   0.766E+01 0.000E+00
CGA:   2    -0.384769856984E+03   -0.93396E+00   -0.93421E+00  8112   0.176E+02 0.304E-01
CGA:   3    -0.385247078218E+03   -0.47722E+00   -0.48682E+00  8112   0.426E+01-0.532E+00
CGA:   4    -0.385586291149E+03   -0.33921E+00   -0.33344E+00  8112   0.336E+01 0.240E+00
CGA:   5    -0.385834916285E+03   -0.24863E+00   -0.24933E+00  8112   0.300E+01-0.786E-01
CGA:   6    -0.385927835074E+03   -0.92919E-01   -0.94020E-01  8112   0.956E+00-0.274E-01
CGA:   7    -0.385957938116E+03   -0.30103E-01   -0.29337E-01  8112   0.313E+00 0.130E-01
CGA:   8    -0.385985840100E+03   -0.27902E-01   -0.27680E-01  8112   0.244E+00 0.693E-02
CGA:   9    -0.386003640504E+03   -0.17800E-01   -0.17801E-01  8112   0.133E+00-0.458E-04
CGA:  10    -0.386006917333E+03   -0.32768E-02   -0.32955E-02  8112   0.531E-01-0.517E-03
CGA:  11    -0.386011352874E+03   -0.44355E-02   -0.44215E-02  8112   0.291E-01 0.495E-03
CGA:  12    -0.386013798240E+03   -0.24454E-02   -0.24474E-02  8112   0.299E-01-0.697E-04
CGA:  13    -0.386015067220E+03   -0.12690E-02   -0.12677E-02  8112   0.181E-01 0.140E-04
CGA:  14    -0.386015675054E+03   -0.60783E-03   -0.60820E-03  8112   0.779E-02 0.103E-04
CGA:  15    -0.386016159003E+03   -0.48395E-03   -0.48391E-03  8112   0.650E-02 0.280E-04
CGA:  16    -0.386016831538E+03   -0.67253E-03   -0.67215E-03  8112   0.442E-02 0.102E-04
CGA:  17    -0.386017049229E+03   -0.21769E-03   -0.21776E-03  8112   0.361E-02 0.290E-05
CGA:  18    -0.386017173363E+03   -0.12413E-03   -0.12416E-03  8112   0.219E-02 0.209E-06
CGA:  19    -0.386017489746E+03   -0.31638E-03   -0.31645E-03  8112   0.217E-02 0.948E-08
CGA:  20    -0.386017633645E+03   -0.14390E-03   -0.14390E-03  8112   0.121E-02-0.427E-06
CGA:  21    -0.386017690712E+03   -0.57067E-04   -0.57093E-04  8112   0.138E-02 0.183E-05
CGA:  22    -0.386017772495E+03   -0.81783E-04   -0.81810E-04  8112   0.133E-02 0.362E-05
CGA:  23    -0.386017838826E+03   -0.66332E-04   -0.66370E-04  8112   0.545E-03 0.145E-05
CGA:  24    -0.386017887508E+03   -0.48681E-04   -0.48733E-04  8112   0.299E-03-0.185E-05
CGA:  25    -0.386017914796E+03   -0.27288E-04   -0.27356E-04  8112   0.542E-03-0.255E-05
CGA:  26    -0.386017932967E+03   -0.18172E-04   -0.18130E-04  8112   0.290E-03-0.145E-05
CGA:  27    -0.386017956685E+03   -0.23718E-04   -0.23728E-04  8112   0.137E-03-0.656E-06
CGA:  28    -0.386017967742E+03   -0.11057E-04   -0.11048E-04  8112   0.180E-03 0.573E-06
CGA:  29    -0.386017979877E+03   -0.12135E-04   -0.12133E-04  8112   0.203E-03 0.116E-05
CGA:  30    -0.386017988018E+03   -0.81402E-05   -0.81503E-05  8112   0.141E-03 0.438E-06
   7 F= -.38601799E+03 E0= -.38600262E+03  d E =-.449386E-01  mag=    18.0000
       N       E                     dE             d eps       ncg     rms          ort
SDA:   1    -0.385769925772E+03    0.24805E+00    0.00000E+00  8112   0.813E+00 0.000E+00
CGA:   2    -0.385850493160E+03   -0.80567E-01   -0.81827E-01  8112   0.199E+01-0.293E-01
CGA:   3    -0.385933523508E+03   -0.83030E-01   -0.82348E-01  8112   0.101E+01-0.823E-04
CGA:   4    -0.385968597075E+03   -0.35074E-01   -0.35118E-01  8112   0.290E+00-0.128E-02
CGA:   5    -0.385990577704E+03   -0.21981E-01   -0.21847E-01  8112   0.277E+00 0.737E-02
CGA:   6    -0.386009913059E+03   -0.19335E-01   -0.19351E-01  8112   0.622E-01-0.209E-02
CGA:   7    -0.386012886244E+03   -0.29732E-02   -0.29746E-02  8112   0.561E-01 0.124E-04
CGA:   8    -0.386014849671E+03   -0.19634E-02   -0.19657E-02  8112   0.242E-01-0.259E-04
CGA:   9    -0.386016872469E+03   -0.20228E-02   -0.20219E-02  8112   0.103E-01 0.315E-04
CGA:  10    -0.386017520770E+03   -0.64830E-03   -0.64830E-03  8112   0.549E-02 0.298E-05
CGA:  11    -0.386017705598E+03   -0.18483E-03   -0.18497E-03  8112   0.391E-02-0.314E-06
CGA:  12    -0.386017975041E+03   -0.26944E-03   -0.26941E-03  8112   0.219E-02 0.491E-05
CGA:  13    -0.386018148018E+03   -0.17298E-03   -0.17285E-03  8112   0.194E-02 0.708E-05
CGA:  14    -0.386018228365E+03   -0.80347E-04   -0.80367E-04  8112   0.648E-03 0.123E-05
CGA:  15    -0.386018256730E+03   -0.28365E-04   -0.28381E-04  8112   0.802E-03 0.776E-06
CGA:  16    -0.386018334221E+03   -0.77491E-04   -0.77381E-04  8112   0.566E-03 0.305E-05
CGA:  17    -0.386018376507E+03   -0.42286E-04   -0.42292E-04  8112   0.348E-03-0.517E-06
CGA:  18    -0.386018397826E+03   -0.21319E-04   -0.21318E-04  8112   0.581E-03-0.416E-06
CGA:  19    -0.386018428853E+03   -0.31027E-04   -0.31017E-04  8112   0.445E-03-0.104E-05
CGA:  20    -0.386018470731E+03   -0.41878E-04   -0.41917E-04  8112   0.175E-03-0.128E-05
CGA:  21    -0.386018483932E+03   -0.13201E-04   -0.13191E-04  8112   0.262E-03 0.815E-06
CGA:  22    -0.386018494591E+03   -0.10659E-04   -0.10683E-04  8112   0.190E-03 0.968E-06
CGA:  23    -0.386018508407E+03   -0.13816E-04   -0.13808E-04  8112   0.826E-04 0.957E-06
CGA:  24    -0.386018513717E+03   -0.53100E-05   -0.53098E-05  8112   0.727E-04-0.218E-06
   8 F= -.38601851E+03 E0= -.38600316E+03  d E =-.525700E-03  mag=    18.0000
       N       E                     dE             d eps       ncg     rms          ort
SDA:   1    -0.361827497784E+03    0.24191E+02    0.00000E+00  8112   0.736E+02 0.000E+00
CGA:   2    -0.373527108716E+03   -0.11700E+02   -0.11098E+02  8112   0.167E+03-0.134E+01
CGA:   3    -0.379910098926E+03   -0.63830E+01   -0.53386E+01  8112   0.253E+02 0.451E+02
CGA:   4    -0.381197222325E+03   -0.12871E+01   -0.12199E+01  8112   0.400E+02 0.325E+00
CGA:   5    -0.382723612053E+03   -0.15264E+01   -0.14574E+01  8112   0.551E+02-0.938E+00
CGA:   6    -0.383561401418E+03   -0.83779E+00   -0.52527E+00  8112   0.379E+02 0.326E+02
CGA:   7    -0.384419341887E+03   -0.85794E+00   -0.66413E+00  8112   0.684E+01 0.112E+02
CGA:   8    -0.384717273364E+03   -0.29793E+00   -0.28214E+00  8112   0.596E+01 0.278E+00
CGA:   9    -0.384915183826E+03   -0.19791E+00   -0.19675E+00  8112   0.664E+01 0.424E-01
CGA:  10    -0.385265970200E+03   -0.35079E+00   -0.35316E+00  8112   0.107E+02 0.350E+00
CGA:  11    -0.385618508065E+03   -0.35254E+00   -0.36890E+00  8112   0.371E+01-0.115E+00
CGA:  12    -0.385743024663E+03   -0.12452E+00   -0.12338E+00  8112   0.180E+01 0.449E-02
CGA:  13    -0.385790983519E+03   -0.47959E-01   -0.47379E-01  8112   0.714E+00 0.163E-01
CGA:  14    -0.385837579717E+03   -0.46596E-01   -0.46593E-01  8112   0.106E+01-0.225E-04
CGA:  15    -0.385883105855E+03   -0.45526E-01   -0.45535E-01  8112   0.830E+00 0.313E-03
CGA:  16    -0.385910356052E+03   -0.27250E-01   -0.27828E-01  8112   0.294E+00-0.160E-02
CGA:  17    -0.385919400123E+03   -0.90441E-02   -0.94991E-02  8112   0.103E+00-0.931E-03
CGA:  18    -0.385926037275E+03   -0.66372E-02   -0.66130E-02  8112   0.159E+00 0.124E-02
CGA:  19    -0.385933430614E+03   -0.73933E-02   -0.74067E-02  8112   0.153E+00 0.103E-02
CGA:  20    -0.385944058331E+03   -0.10628E-01   -0.10609E-01  8112   0.110E+00 0.762E-03
CGA:  21    -0.385949568047E+03   -0.55097E-02   -0.55114E-02  8112   0.629E-01 0.352E-03
CGA:  22    -0.385952526308E+03   -0.29583E-02   -0.29599E-02  8112   0.501E-01 0.155E-03
CGA:  23    -0.385955176597E+03   -0.26503E-02   -0.26503E-02  8112   0.658E-01-0.130E-05
CGA:  24    -0.385959886277E+03   -0.47097E-02   -0.46948E-02  8112   0.417E-01 0.571E-03
CGA:  25    -0.385962442632E+03   -0.25564E-02   -0.25553E-02  8112   0.210E-01 0.799E-04
CGA:  26    -0.385963373856E+03   -0.93122E-03   -0.92948E-03  8112   0.176E-01-0.519E-04
CGA:  27    -0.385964718422E+03   -0.13446E-02   -0.13420E-02  8112   0.382E-01 0.891E-04
CGA:  28    -0.385967179847E+03   -0.24614E-02   -0.24592E-02  8112   0.207E-01 0.157E-03
CGA:  29    -0.385968225489E+03   -0.10456E-02   -0.10460E-02  8112   0.860E-02 0.544E-04
CGA:  30    -0.385969004440E+03   -0.77895E-03   -0.78012E-03  8112   0.187E-01-0.281E-04
CGA:  31    -0.385969803928E+03   -0.79949E-03   -0.79785E-03  8112   0.110E-01-0.275E-04
CGA:  32    -0.385970365656E+03   -0.56173E-03   -0.56171E-03  8112   0.759E-02-0.297E-05
CGA:  33    -0.385970796998E+03   -0.43134E-03   -0.43124E-03  8112   0.313E-02 0.278E-04
CGA:  34    -0.385971001408E+03   -0.20441E-03   -0.20436E-03  8112   0.453E-02 0.305E-05
CGA:  35    -0.385971210439E+03   -0.20903E-03   -0.20902E-03  8112   0.412E-02-0.579E-06
CGA:  36    -0.385971508693E+03   -0.29825E-03   -0.29858E-03  8112   0.200E-02-0.147E-04
SDA:  37    -0.385971592367E+03   -0.83674E-04   -0.83652E-04  8112   0.983E-03-0.106E-05
CGA:  38    -0.385971641756E+03   -0.49389E-04   -0.49397E-04  8112   0.134E-02 0.496E-06
CGA:  39    -0.385971731800E+03   -0.90044E-04   -0.90057E-04  8112   0.151E-02-0.148E-05
CGA:  40    -0.385971804958E+03   -0.73158E-04   -0.73133E-04  8112   0.559E-03-0.243E-05
CGA:  41    -0.385971839668E+03   -0.34711E-04   -0.34724E-04  8112   0.302E-03-0.169E-05
CGA:  42    -0.385971879956E+03   -0.40288E-04   -0.40337E-04  8112   0.358E-03-0.714E-06
CGA:  43    -0.385971906040E+03   -0.26084E-04   -0.26085E-04  8112   0.476E-03-0.197E-06
CGA:  44    -0.385971920732E+03   -0.14692E-04   -0.14697E-04  8112   0.167E-03 0.782E-07
CGA:  45    -0.385971946181E+03   -0.25449E-04   -0.25351E-04  8112   0.250E-03 0.101E-05
CGA:  46    -0.385971972818E+03   -0.26637E-04   -0.26602E-04  8112   0.244E-03 0.812E-06
CGA:  47    -0.385971985244E+03   -0.12426E-04   -0.12435E-04  8112   0.112E-03 0.761E-06
CGA:  48    -0.385971999097E+03   -0.13854E-04   -0.13807E-04  8112   0.124E-03 0.756E-06
CGA:  49    -0.385972009769E+03   -0.10672E-04   -0.10661E-04  8112   0.241E-03 0.506E-06
CGA:  50    -0.385972018371E+03   -0.86023E-05   -0.86224E-05  8112   0.768E-04 0.497E-06
   9 F= -.38597202E+03 E0= -.38595668E+03  d E =0.464953E-01  mag=    18.0000
       N       E                     dE             d eps       ncg     rms          ort
SDA:   1    -0.378410822003E+03    0.75612E+01    0.00000E+00  8112   0.272E+02 0.000E+00
CGA:   2    -0.382951219627E+03   -0.45404E+01   -0.44230E+01  8112   0.330E+02 0.166E+01
CGA:   3    -0.384115637625E+03   -0.11644E+01   -0.91659E+00  8112   0.751E+01 0.472E+01
CGA:   4    -0.384771023050E+03   -0.65539E+00   -0.64248E+00  8112   0.716E+01 0.123E+01
CGA:   5    -0.385354391260E+03   -0.58337E+00   -0.58438E+00  8112   0.695E+01-0.661E+00
CGA:   6    -0.385584042681E+03   -0.22965E+00   -0.21325E+00  8112   0.514E+01 0.312E+00
CGA:   7    -0.385700243537E+03   -0.11620E+00   -0.11626E+00  8112   0.151E+01 0.235E-01
CGA:   8    -0.385742719465E+03   -0.42476E-01   -0.42661E-01  8112   0.145E+01-0.661E-02
CGA:   9    -0.385815234796E+03   -0.72515E-01   -0.72721E-01  8112   0.118E+01 0.396E-02
CGA:  10    -0.385844639872E+03   -0.29405E-01   -0.29819E-01  8112   0.702E+00-0.127E-01
CGA:  11    -0.385868486367E+03   -0.23846E-01   -0.23917E-01  8112   0.324E+00-0.555E-03
CGA:  12    -0.385876072925E+03   -0.75866E-02   -0.75776E-02  8112   0.189E+00 0.709E-04
CGA:  13    -0.385884744812E+03   -0.86719E-02   -0.85955E-02  8112   0.204E+00-0.135E-02
CGA:  14    -0.385891578659E+03   -0.68338E-02   -0.68528E-02  8112   0.198E+00-0.188E-03
CGA:  15    -0.385899273802E+03   -0.76951E-02   -0.79004E-02  8112   0.143E+00 0.166E-02
CGA:  16    -0.385903985731E+03   -0.47119E-02   -0.47272E-02  8112   0.100E+00-0.170E-03
CGA:  17    -0.385906633880E+03   -0.26481E-02   -0.26145E-02  8112   0.348E-01 0.680E-03
CGA:  18    -0.385908409515E+03   -0.17756E-02   -0.17759E-02  8112   0.718E-01 0.696E-04
CGA:  19    -0.385911856169E+03   -0.34467E-02   -0.34556E-02  8112   0.577E-01 0.875E-03
CGA:  20    -0.385914393760E+03   -0.25376E-02   -0.25405E-02  8112   0.693E-01 0.109E-03
CGA:  21    -0.385916454608E+03   -0.20608E-02   -0.20561E-02  8112   0.241E-01 0.673E-04
CGA:  22    -0.385917403391E+03   -0.94878E-03   -0.94754E-03  8112   0.274E-01-0.215E-04
CGA:  23    -0.385918633405E+03   -0.12300E-02   -0.12313E-02  8112   0.328E-01 0.957E-04
CGA:  24    -0.385920532353E+03   -0.18989E-02   -0.18976E-02  8112   0.325E-01 0.109E-03
CGA:  25    -0.385921353930E+03   -0.82158E-03   -0.82401E-03  8112   0.150E-01-0.563E-04
CGA:  26    -0.385922085379E+03   -0.73145E-03   -0.73144E-03  8112   0.118E-01-0.937E-05
CGA:  27    -0.385922462128E+03   -0.37675E-03   -0.37692E-03  8112   0.106E-01 0.117E-04
CGA:  28    -0.385923087494E+03   -0.62537E-03   -0.62473E-03  8112   0.977E-02 0.500E-04
CGA:  29    -0.385923435479E+03   -0.34799E-03   -0.34811E-03  8112   0.891E-02 0.153E-04
CGA:  30    -0.385923770882E+03   -0.33540E-03   -0.33571E-03  8112   0.372E-02 0.179E-04
CGA:  31    -0.385923917050E+03   -0.14617E-03   -0.14617E-03  8112   0.380E-02 0.255E-05
SDA:  32    -0.385924062442E+03   -0.14539E-03   -0.14527E-03  8112   0.278E-02-0.331E-05
CGA:  33    -0.385924159751E+03   -0.97309E-04   -0.97489E-04  8112   0.100E-02 0.885E-06
CGA:  34    -0.385924286856E+03   -0.12710E-03   -0.12796E-03  8112   0.206E-02-0.104E-04
CGA:  35    -0.385924386444E+03   -0.99588E-04   -0.99579E-04  8112   0.203E-02-0.861E-05
CGA:  36    -0.385924477626E+03   -0.91182E-04   -0.91110E-04  8112   0.792E-03-0.968E-05
CGA:  37    -0.385924546200E+03   -0.68574E-04   -0.68679E-04  8112   0.347E-03-0.271E-05
CGA:  38    -0.385924592727E+03   -0.46527E-04   -0.45893E-04  8112   0.584E-03 0.768E-05
CGA:  39    -0.385924641994E+03   -0.49267E-04   -0.49074E-04  8112   0.505E-03 0.732E-05
CGA:  40    -0.385924664443E+03   -0.22450E-04   -0.22491E-04  8112   0.245E-03 0.314E-05
CGA:  41    -0.385924675415E+03   -0.10971E-04   -0.10980E-04  8112   0.284E-03 0.782E-06
CGA:  42    -0.385924713768E+03   -0.38353E-04   -0.38429E-04  8112   0.356E-03-0.984E-06
CGA:  43    -0.385924733017E+03   -0.19249E-04   -0.19244E-04  8112   0.919E-04-0.104E-05
CGA:  44    -0.385924742423E+03   -0.94064E-05   -0.94044E-05  8112   0.269E-03-0.509E-07
CGA:  45    -0.385924757214E+03   -0.14790E-04   -0.14793E-04  8112   0.249E-03 0.313E-06
CGA:  46    -0.385924775457E+03   -0.18244E-04   -0.18234E-04  8112   0.179E-03 0.749E-06
CGA:  47    -0.385924784741E+03   -0.92838E-05   -0.92871E-05  8112   0.788E-04 0.518E-06
  10 F= -.38592478E+03 E0= -.38590935E+03  d E =0.472336E-01  mag=    18.0000
       N       E                     dE             d eps       ncg     rms          ort
SDA:   1    -0.385823388189E+03    0.10139E+00    0.00000E+00  8112   0.641E+00 0.000E+00
CGA:   2    -0.385847633702E+03   -0.24246E-01   -0.24109E-01  8112   0.717E+00 0.432E-03
CGA:   3    -0.385902245613E+03   -0.54612E-01   -0.54643E-01  8112   0.164E+00-0.150E-02
CGA:   4    -0.385914197994E+03   -0.11952E-01   -0.11935E-01  8112   0.132E+00 0.112E-02
CGA:   5    -0.385922020487E+03   -0.78225E-02   -0.78191E-02  8112   0.139E+00-0.303E-03
CGA:   6    -0.385927850279E+03   -0.58298E-02   -0.58276E-02  8112   0.606E-01 0.499E-05
CGA:   7    -0.385929997974E+03   -0.21477E-02   -0.21389E-02  8112   0.179E-01 0.869E-04
CGA:   8    -0.385931777718E+03   -0.17797E-02   -0.17787E-02  8112   0.145E-01 0.277E-04
CGA:   9    -0.385932541429E+03   -0.76371E-03   -0.76361E-03  8112   0.103E-01 0.757E-06
CGA:  10    -0.385932884357E+03   -0.34293E-03   -0.34332E-03  8112   0.448E-02-0.557E-06
CGA:  11    -0.385933143392E+03   -0.25904E-03   -0.25905E-03  8112   0.144E-02 0.605E-05
CGA:  12    -0.385933310211E+03   -0.16682E-03   -0.16635E-03  8112   0.247E-02 0.879E-05
CGA:  13    -0.385933406681E+03   -0.96470E-04   -0.96487E-04  8112   0.140E-02 0.416E-05
CGA:  14    -0.385933466914E+03   -0.60233E-04   -0.60255E-04  8112   0.540E-03 0.139E-05
CGA:  15    -0.385933501629E+03   -0.34715E-04   -0.34718E-04  8112   0.570E-03-0.372E-06
CGA:  16    -0.385933566726E+03   -0.65096E-04   -0.65031E-04  8112   0.602E-03 0.134E-05
CGA:  17    -0.385933589083E+03   -0.22357E-04   -0.22365E-04  8112   0.403E-03 0.196E-06
CGA:  18    -0.385933609671E+03   -0.20589E-04   -0.20591E-04  8112   0.247E-03 0.123E-06
CGA:  19    -0.385933646199E+03   -0.36528E-04   -0.36407E-04  8112   0.297E-03 0.144E-05
CGA:  20    -0.385933662305E+03   -0.16106E-04   -0.16108E-04  8112   0.289E-03 0.132E-06
CGA:  21    -0.385933672564E+03   -0.10259E-04   -0.10256E-04  8112   0.973E-04-0.888E-07
CGA:  22    -0.385933682354E+03   -0.97904E-05   -0.98069E-05  8112   0.155E-03-0.454E-06
  11 F= -.38593368E+03 E0= -.38591828E+03  d E =-.889761E-02  mag=    18.0000
       N       E                     dE             d eps       ncg     rms          ort
SDA:   1    -0.385257640563E+03    0.67603E+00    0.00000E+00  8112   0.242E+01 0.000E+00
CGA:   2    -0.385422856313E+03   -0.16522E+00   -0.16501E+00  8112   0.542E+01 0.419E-01
CGA:   3    -0.385742466148E+03   -0.31961E+00   -0.31877E+00  8112   0.131E+01-0.393E-01
CGA:   4    -0.385797347450E+03   -0.54881E-01   -0.54807E-01  8112   0.764E+00-0.391E-03
CGA:   5    -0.385863322730E+03   -0.65975E-01   -0.65767E-01  8112   0.875E+00 0.711E-02
CGA:   6    -0.385894139946E+03   -0.30817E-01   -0.30754E-01  8112   0.329E+00 0.543E-03
CGA:   7    -0.385906441788E+03   -0.12302E-01   -0.12221E-01  8112   0.860E-01 0.619E-03
CGA:   8    -0.385913745987E+03   -0.73042E-02   -0.72940E-02  8112   0.879E-01 0.352E-03
CGA:   9    -0.385917632033E+03   -0.38860E-02   -0.38878E-02  8112   0.626E-01 0.161E-05
CGA:  10    -0.385919855003E+03   -0.22230E-02   -0.22213E-02  8112   0.105E-01 0.141E-04
CGA:  11    -0.385920891888E+03   -0.10369E-02   -0.10380E-02  8112   0.143E-01-0.258E-04
CGA:  12    -0.385921418802E+03   -0.52691E-03   -0.52751E-03  8112   0.928E-02-0.533E-05
CGA:  13    -0.385922000779E+03   -0.58198E-03   -0.58196E-03  8112   0.382E-02 0.923E-05
CGA:  14    -0.385922251323E+03   -0.25054E-03   -0.25051E-03  8112   0.308E-02 0.561E-05
CGA:  15    -0.385922370528E+03   -0.11921E-03   -0.11929E-03  8112   0.246E-02 0.553E-06
CGA:  16    -0.385922610048E+03   -0.23952E-03   -0.23916E-03  8112   0.218E-02 0.870E-05
CGA:  17    -0.385922764743E+03   -0.15469E-03   -0.15468E-03  8112   0.234E-02 0.503E-06
CGA:  18    -0.385922856737E+03   -0.91995E-04   -0.92002E-04  8112   0.131E-02-0.845E-06
CGA:  19    -0.385922956309E+03   -0.99572E-04   -0.99574E-04  8112   0.206E-02-0.559E-06
CGA:  20    -0.385923107034E+03   -0.15072E-03   -0.15070E-03  8112   0.115E-02 0.114E-05
CGA:  21    -0.385923166576E+03   -0.59543E-04   -0.59557E-04  8112   0.909E-03 0.211E-06
CGA:  22    -0.385923202316E+03   -0.35739E-04   -0.35770E-04  8112   0.531E-03 0.120E-05
CGA:  23    -0.385923254210E+03   -0.51894E-04   -0.51729E-04  8112   0.499E-03 0.453E-05
CGA:  24    -0.385923282157E+03   -0.27948E-04   -0.27962E-04  8112   0.334E-03 0.169E-05
CGA:  25    -0.385923292727E+03   -0.10570E-04   -0.10578E-04  8112   0.138E-03 0.635E-07
CGA:  26    -0.385923310915E+03   -0.18188E-04   -0.18252E-04  8112   0.155E-03-0.939E-06
CGA:  27    -0.385923318541E+03   -0.76257E-05   -0.76139E-05  8112   0.152E-03-0.805E-06
  12 F= -.38592332E+03 E0= -.38590790E+03  d E =0.103638E-01  mag=    18.0000
       N       E                     dE             d eps       ncg     rms          ort
SDA:   1    -0.378924823793E+03    0.69985E+01    0.00000E+00  8112   0.226E+02 0.000E+00
CGA:   2    -0.382462399894E+03   -0.35376E+01   -0.35899E+01  8112   0.564E+02-0.482E+00
CGA:   3    -0.384150609466E+03   -0.16882E+01   -0.15280E+01  8112   0.864E+01 0.129E+01
CGA:   4    -0.384760867170E+03   -0.61026E+00   -0.61247E+00  8112   0.943E+01-0.342E+00
CGA:   5    -0.385303110512E+03   -0.54224E+00   -0.54264E+00  8112   0.731E+01 0.332E-01
CGA:   6    -0.385609872413E+03   -0.30676E+00   -0.26748E+00  8112   0.250E+01 0.684E+00
CGA:   7    -0.385696287659E+03   -0.86415E-01   -0.87597E-01  8112   0.971E+00-0.125E-01
CGA:   8    -0.385775008326E+03   -0.78721E-01   -0.78281E-01  8112   0.109E+01 0.172E-01
CGA:   9    -0.385809811893E+03   -0.34804E-01   -0.35219E-01  8112   0.613E+00-0.771E-02
CGA:  10    -0.385837837549E+03   -0.28026E-01   -0.28041E-01  8112   0.137E+00 0.168E-03
CGA:  11    -0.385846671413E+03   -0.88339E-02   -0.88101E-02  8112   0.164E+00 0.406E-02
CGA:  12    -0.385853537068E+03   -0.68657E-02   -0.68779E-02  8112   0.113E+00 0.297E-04
CGA:  13    -0.385859775929E+03   -0.62389E-02   -0.62364E-02  8112   0.934E-01-0.283E-03
CGA:  14    -0.385863956919E+03   -0.41810E-02   -0.42333E-02  8112   0.345E-01 0.745E-03
CGA:  15    -0.385866176740E+03   -0.22198E-02   -0.22166E-02  8112   0.234E-01 0.400E-03
CGA:  16    -0.385867419308E+03   -0.12426E-02   -0.12432E-02  8112   0.400E-01 0.398E-04
CGA:  17    -0.385870695929E+03   -0.32766E-02   -0.32717E-02  8112   0.223E-01 0.163E-03
CGA:  18    -0.385872146678E+03   -0.14507E-02   -0.14496E-02  8112   0.157E-01 0.149E-03
CGA:  19    -0.385872988917E+03   -0.84224E-03   -0.84282E-03  8112   0.193E-01 0.281E-04
CGA:  20    -0.385874287151E+03   -0.12982E-02   -0.12975E-02  8112   0.262E-01 0.583E-04
CGA:  21    -0.385875675973E+03   -0.13888E-02   -0.13896E-02  8112   0.112E-01 0.347E-04
CGA:  22    -0.385876292290E+03   -0.61632E-03   -0.61633E-03  8112   0.502E-02 0.563E-05
CGA:  23    -0.385876768801E+03   -0.47651E-03   -0.47566E-03  8112   0.102E-01 0.232E-04
CGA:  24    -0.385877161925E+03   -0.39312E-03   -0.39363E-03  8112   0.564E-02 0.171E-04
CGA:  25    -0.385877497570E+03   -0.33564E-03   -0.33565E-03  8112   0.169E-02 0.110E-04
CGA:  26    -0.385877654374E+03   -0.15680E-03   -0.15697E-03  8112   0.198E-02-0.472E-05
CGA:  27    -0.385877769660E+03   -0.11529E-03   -0.11527E-03  8112   0.208E-02-0.416E-05
CGA:  28    -0.385877882195E+03   -0.11254E-03   -0.11249E-03  8112   0.186E-02-0.517E-05
CGA:  29    -0.385877955574E+03   -0.73379E-04   -0.73340E-04  8112   0.654E-03-0.301E-05
CGA:  30    -0.385878003642E+03   -0.48068E-04   -0.48067E-04  8112   0.423E-03-0.812E-07
CGA:  31    -0.385878076121E+03   -0.72478E-04   -0.72321E-04  8112   0.926E-03 0.122E-05
SDA:  32    -0.385878101304E+03   -0.25184E-04   -0.25201E-04  8112   0.285E-03 0.146E-05
CGA:  33    -0.385878111030E+03   -0.97250E-05   -0.97299E-05  8112   0.182E-03 0.145E-06
  13 F= -.38587811E+03 E0= -.38586264E+03  d E =0.452075E-01  mag=    18.0000
       N       E                     dE             d eps       ncg     rms          ort
SDA:   1    -0.358237471175E+03    0.27641E+02    0.00000E+00  8112   0.887E+02 0.000E+00
CGA:   2    -0.371171654708E+03   -0.12934E+02   -0.14301E+02  8112   0.389E+03-0.227E+02
CGA:   3    -0.377952824999E+03   -0.67812E+01   -0.61484E+01  8112   0.893E+02 0.449E+02
CGA:   4    -0.379975534636E+03   -0.20227E+01   -0.17562E+01  8112   0.252E+02 0.121E+02
CGA:   5    -0.381278670417E+03   -0.13031E+01   -0.13112E+01  8112   0.641E+02-0.565E-01
CGA:   6    -0.383133257708E+03   -0.18546E+01   -0.14957E+01  8112   0.440E+02 0.164E+02
CGA:   7    -0.383831491102E+03   -0.69823E+00   -0.47289E+00  8112   0.217E+02 0.246E+02
CGA:   8    -0.384568651158E+03   -0.73716E+00   -0.71352E+00  8112   0.743E+01 0.839E-01
CGA:   9    -0.384792267241E+03   -0.22362E+00   -0.22433E+00  8112   0.425E+01 0.108E-01
CGA:  10    -0.385155682423E+03   -0.36342E+00   -0.35581E+00  8112   0.472E+01 0.222E+00
CGA:  11    -0.385496358938E+03   -0.34068E+00   -0.33727E+00  8112   0.209E+01 0.181E+00
CGA:  12    -0.385570417943E+03   -0.74059E-01   -0.75026E-01  8112   0.815E+00 0.153E-02
CGA:  13    -0.385634361799E+03   -0.63944E-01   -0.63060E-01  8112   0.718E+00 0.309E-01
CGA:  14    -0.385687762770E+03   -0.53401E-01   -0.53271E-01  8112   0.818E+00 0.591E-02
CGA:  15    -0.385714451225E+03   -0.26688E-01   -0.27062E-01  8112   0.312E+00-0.440E-02
CGA:  16    -0.385729585236E+03   -0.15134E-01   -0.15221E-01  8112   0.797E-01 0.432E-02
CGA:  17    -0.385738230543E+03   -0.86453E-02   -0.85645E-02  8112   0.122E+00 0.156E-02
CGA:  18    -0.385746120968E+03   -0.78904E-02   -0.78879E-02  8112   0.166E+00 0.324E-03
CGA:  19    -0.385753429081E+03   -0.73081E-02   -0.73490E-02  8112   0.646E-01 0.539E-03
CGA:  20    -0.385757206389E+03   -0.37773E-02   -0.37770E-02  8112   0.655E-01 0.588E-03
CGA:  21    -0.385763605372E+03   -0.63990E-02   -0.63410E-02  8112   0.904E-01 0.138E-02
CGA:  22    -0.385770145571E+03   -0.65402E-02   -0.65357E-02  8112   0.619E-01 0.283E-03
CGA:  23    -0.385772018065E+03   -0.18725E-02   -0.18831E-02  8112   0.251E-01-0.158E-03
CGA:  24    -0.385774018348E+03   -0.20003E-02   -0.19984E-02  8112   0.215E-01 0.798E-04
CGA:  25    -0.385775998670E+03   -0.19803E-02   -0.19754E-02  8112   0.190E-01 0.138E-03
CGA:  26    -0.385776728534E+03   -0.72986E-03   -0.72918E-03  8112   0.114E-01 0.188E-04
CGA:  27    -0.385777373408E+03   -0.64487E-03   -0.64486E-03  8112   0.873E-02 0.303E-05
CGA:  28    -0.385778018714E+03   -0.64531E-03   -0.64602E-03  8112   0.894E-02-0.336E-04
CGA:  29    -0.385778619347E+03   -0.60063E-03   -0.60062E-03  8112   0.586E-02 0.995E-06
CGA:  30    -0.385778924741E+03   -0.30539E-03   -0.30538E-03  8112   0.540E-02-0.236E-06
CGA:  31    -0.385779151780E+03   -0.22704E-03   -0.22719E-03  8112   0.244E-02-0.236E-06
CGA:  32    -0.385779426412E+03   -0.27463E-03   -0.27535E-03  8112   0.308E-02-0.129E-04
CGA:  33    -0.385779606826E+03   -0.18041E-03   -0.18040E-03  8112   0.215E-02-0.906E-06
CGA:  34    -0.385779676231E+03   -0.69406E-04   -0.69342E-04  8112   0.730E-03 0.265E-05
CGA:  35    -0.385779733172E+03   -0.56940E-04   -0.56898E-04  8112   0.100E-02 0.252E-05
CGA:  36    -0.385779812850E+03   -0.79678E-04   -0.79636E-04  8112   0.903E-03 0.230E-05
CGA:  37    -0.385779867253E+03   -0.54403E-04   -0.54404E-04  8112   0.588E-03 0.637E-06
SDA:  38    -0.385779886198E+03   -0.18945E-04   -0.18928E-04  8112   0.263E-03-0.276E-06
CGA:  39    -0.385779895504E+03   -0.93060E-05   -0.92877E-05  8112   0.212E-03-0.901E-06
CGA:  40    -0.385779912004E+03   -0.16499E-04   -0.16549E-04  8112   0.313E-03-0.270E-05
CGA:  41    -0.385779937783E+03   -0.25779E-04   -0.25863E-04  8112   0.264E-03-0.365E-05
CGA:  42    -0.385779950063E+03   -0.12280E-04   -0.12273E-04  8112   0.979E-04-0.388E-06
CGA:  43    -0.385779960771E+03   -0.10708E-04   -0.10509E-04  8112   0.144E-03 0.423E-05
CGA:  44    -0.385779977428E+03   -0.16657E-04   -0.16250E-04  8112   0.112E-03 0.903E-05
CGA:  45    -0.385779985019E+03   -0.75912E-05   -0.75961E-05  8112   0.169E-03 0.280E-05
  14 F= -.38577999E+03 E0= -.38576437E+03  d E =0.981260E-01  mag=    18.0000
       N       E                     dE             d eps       ncg     rms          ort
SDA:   1    -0.382002774560E+03    0.37772E+01    0.00000E+00  8112   0.129E+02 0.000E+00
CGA:   2    -0.383676976250E+03   -0.16742E+01   -0.17537E+01  8112   0.378E+02-0.110E+01
CGA:   3    -0.384762128432E+03   -0.10852E+01   -0.10476E+01  8112   0.614E+01 0.166E+00
CGA:   4    -0.385064169882E+03   -0.30204E+00   -0.30345E+00  8112   0.415E+01 0.238E-01
CGA:   5    -0.385391769082E+03   -0.32760E+00   -0.32931E+00  8112   0.414E+01-0.101E+00
CGA:   6    -0.385603072330E+03   -0.21130E+00   -0.20801E+00  8112   0.765E+00-0.466E-01
CGA:   7    -0.385659084389E+03   -0.56012E-01   -0.55665E-01  8112   0.507E+00 0.244E-01
CGA:   8    -0.385688099550E+03   -0.29015E-01   -0.28839E-01  8112   0.392E+00-0.535E-02
CGA:   9    -0.385708690625E+03   -0.20591E-01   -0.20594E-01  8112   0.142E+00 0.732E-04
CGA:  10    -0.385716867342E+03   -0.81767E-02   -0.81780E-02  8112   0.851E-01 0.475E-04
CGA:  11    -0.385719801479E+03   -0.29341E-02   -0.29505E-02  8112   0.551E-01-0.189E-03
CGA:  12    -0.385724901074E+03   -0.50996E-02   -0.50896E-02  8112   0.434E-01 0.249E-03
CGA:  13    -0.385727211629E+03   -0.23106E-02   -0.23179E-02  8112   0.284E-01 0.215E-03
CGA:  14    -0.385728561664E+03   -0.13500E-02   -0.13495E-02  8112   0.117E-01 0.493E-06
CGA:  15    -0.385729432839E+03   -0.87117E-03   -0.87051E-03  8112   0.216E-01 0.389E-04
CGA:  16    -0.385730767471E+03   -0.13346E-02   -0.13348E-02  8112   0.207E-01 0.595E-04
CGA:  17    -0.385731902062E+03   -0.11346E-02   -0.11354E-02  8112   0.689E-02 0.372E-04
CGA:  18    -0.385732611549E+03   -0.70949E-03   -0.70881E-03  8112   0.128E-01 0.137E-04
CGA:  19    -0.385733300934E+03   -0.68938E-03   -0.68970E-03  8112   0.126E-01 0.413E-05
CGA:  20    -0.385734041007E+03   -0.74007E-03   -0.74016E-03  8112   0.689E-02 0.174E-05
CGA:  21    -0.385734319625E+03   -0.27862E-03   -0.27885E-03  8112   0.362E-02 0.176E-05
CGA:  22    -0.385734679253E+03   -0.35963E-03   -0.35895E-03  8112   0.340E-02 0.182E-04
CGA:  23    -0.385734873574E+03   -0.19432E-03   -0.19446E-03  8112   0.363E-02 0.133E-04
CGA:  24    -0.385735026139E+03   -0.15256E-03   -0.15275E-03  8112   0.148E-02 0.688E-05
CGA:  25    -0.385735129757E+03   -0.10362E-03   -0.10364E-03  8112   0.821E-03-0.457E-06
CGA:  26    -0.385735186825E+03   -0.57069E-04   -0.57080E-04  8112   0.120E-02-0.168E-05
CGA:  27    -0.385735257506E+03   -0.70681E-04   -0.70672E-04  8112   0.922E-03-0.270E-05
CGA:  28    -0.385735300223E+03   -0.42716E-04   -0.42667E-04  8112   0.433E-03-0.242E-05
CGA:  29    -0.385735319128E+03   -0.18905E-04   -0.18894E-04  8112   0.228E-03-0.476E-06
CGA:  30    -0.385735360607E+03   -0.41479E-04   -0.41360E-04  8112   0.546E-03 0.873E-06
CGA:  31    -0.385735376569E+03   -0.15962E-04   -0.15985E-04  8112   0.156E-03 0.851E-06
SDA:  32    -0.385735387433E+03   -0.10864E-04   -0.10860E-04  8112   0.107E-03 0.108E-05
CGA:  33    -0.385735391989E+03   -0.45559E-05   -0.45555E-05  8112   0.841E-04-0.901E-07
  15 F= -.38573539E+03 E0= -.38571967E+03  d E =0.445930E-01  mag=    18.0000
       N       E                     dE             d eps       ncg     rms          ort
SDA:   1    -0.383787351367E+03    0.19480E+01    0.00000E+00  8112   0.710E+01 0.000E+00
CGA:   2    -0.384326193468E+03   -0.53884E+00   -0.53658E+00  8112   0.162E+02 0.141E+00
CGA:   3    -0.385202857549E+03   -0.87666E+00   -0.86308E+00  8112   0.333E+01-0.268E+00
CGA:   4    -0.385371210415E+03   -0.16835E+00   -0.16844E+00  8112   0.218E+01 0.157E-02
CGA:   5    -0.385498447435E+03   -0.12724E+00   -0.12724E+00  8112   0.256E+01 0.242E-03
CGA:   6    -0.385629732177E+03   -0.13128E+00   -0.13081E+00  8112   0.750E+00-0.838E-02
CGA:   7    -0.385656515513E+03   -0.26783E-01   -0.26680E-01  8112   0.310E+00 0.665E-03
CGA:   8    -0.385675253721E+03   -0.18738E-01   -0.18742E-01  8112   0.234E+00 0.127E-02
CGA:   9    -0.385686786705E+03   -0.11533E-01   -0.11549E-01  8112   0.172E+00 0.282E-03
CGA:  10    -0.385693684840E+03   -0.68981E-02   -0.68991E-02  8112   0.478E-01-0.576E-06
CGA:  11    -0.385696968118E+03   -0.32833E-02   -0.32802E-02  8112   0.406E-01 0.226E-03
CGA:  12    -0.385698447115E+03   -0.14790E-02   -0.14828E-02  8112   0.227E-01-0.350E-04
CGA:  13    -0.385700412803E+03   -0.19657E-02   -0.19644E-02  8112   0.180E-01 0.308E-04
CGA:  14    -0.385701275909E+03   -0.86311E-03   -0.86435E-03  8112   0.133E-01 0.260E-04
CGA:  15    -0.385701854141E+03   -0.57823E-03   -0.57869E-03  8112   0.545E-02 0.813E-05
CGA:  16    -0.385702283794E+03   -0.42965E-03   -0.42925E-03  8112   0.106E-01 0.163E-04
CGA:  17    -0.385703067731E+03   -0.78394E-03   -0.78336E-03  8112   0.599E-02 0.298E-04
CGA:  18    -0.385703344527E+03   -0.27680E-03   -0.27705E-03  8112   0.553E-02 0.474E-05
CGA:  19    -0.385703719082E+03   -0.37455E-03   -0.37449E-03  8112   0.436E-02 0.475E-05
CGA:  20    -0.385704135761E+03   -0.41668E-03   -0.41651E-03  8112   0.656E-02 0.412E-05
CGA:  21    -0.385704370324E+03   -0.23456E-03   -0.23465E-03  8112   0.236E-02-0.266E-05
CGA:  22    -0.385704552100E+03   -0.18178E-03   -0.18166E-03  8112   0.198E-02 0.649E-05
CGA:  23    -0.385704648096E+03   -0.95995E-04   -0.96093E-04  8112   0.168E-02 0.470E-05
CGA:  24    -0.385704760397E+03   -0.11230E-03   -0.11226E-03  8112   0.134E-02 0.609E-05
CGA:  25    -0.385704821864E+03   -0.61467E-04   -0.61512E-04  8112   0.629E-03 0.346E-05
CGA:  26    -0.385704855772E+03   -0.33908E-04   -0.33909E-04  8112   0.483E-03 0.699E-06
CGA:  27    -0.385704885991E+03   -0.30219E-04   -0.30219E-04  8112   0.484E-03-0.417E-06
CGA:  28    -0.385704913306E+03   -0.27315E-04   -0.27311E-04  8112   0.383E-03-0.917E-06
CGA:  29    -0.385704935339E+03   -0.22033E-04   -0.22031E-04  8112   0.147E-03-0.633E-06
CGA:  30    -0.385704941895E+03   -0.65565E-05   -0.65558E-05  8112   0.160E-03-0.103E-06
CGA:  31    -0.385704961846E+03   -0.19951E-04   -0.19923E-04  8112   0.156E-03 0.328E-06
SDA:  32    -0.385704967800E+03   -0.59531E-05   -0.59567E-05  8112   0.722E-04 0.136E-06
  16 F= -.38570497E+03 E0= -.38568918E+03  d E =0.304242E-01  mag=    18.0000
       N       E                     dE             d eps       ncg     rms          ort
SDA:   1    -0.340077911458E+03    0.45627E+02    0.00000E+00  8112   0.156E+03 0.000E+00
CGA:   2    -0.353752318050E+03   -0.13674E+02   -0.17309E+02  8112   0.896E+03-0.756E+02
CGA:   3    -0.363852243021E+03   -0.10100E+02   -0.10759E+02  8112   0.933E+03 0.530E+02
CGA:   4    -0.371229951001E+03   -0.73777E+01   -0.13221E+02  8112   0.290E+03-0.684E+03
CGA:   5    -0.375393375589E+03   -0.41634E+01   -0.38579E+01  8112   0.631E+02-0.471E+01
CGA:   6    -0.380230916136E+03   -0.48375E+01   -0.50826E+01  8112   0.880E+02-0.854E+01
CGA:   7    -0.382938502339E+03   -0.27076E+01   -0.27249E+01  8112   0.357E+02-0.585E+00
CGA:   8    -0.383537703862E+03   -0.59920E+00   -0.59212E+00  8112   0.111E+02 0.343E+00
CGA:   9    -0.383897212599E+03   -0.35951E+00   -0.38551E+00  8112   0.846E+01 0.247E-01
CGA:  10    -0.384364010348E+03   -0.46680E+00   -0.46461E+00  8112   0.131E+02 0.615E+00
CGA:  11    -0.384919128600E+03   -0.55512E+00   -0.56711E+00  8112   0.525E+01 0.191E+00
CGA:  12    -0.385097157452E+03   -0.17803E+00   -0.17481E+00  8112   0.298E+01 0.289E-01
CGA:  13    -0.385222697188E+03   -0.12554E+00   -0.12106E+00  8112   0.213E+01-0.528E-01
CGA:  14    -0.385301885182E+03   -0.79188E-01   -0.80472E-01  8112   0.126E+01 0.235E-01
CGA:  15    -0.385382761277E+03   -0.80876E-01   -0.79940E-01  8112   0.162E+01 0.511E-01
CGA:  16    -0.385439842608E+03   -0.57081E-01   -0.59119E-01  8112   0.516E+00 0.722E-02
CGA:  17    -0.385456497239E+03   -0.16655E-01   -0.16357E-01  8112   0.142E+00 0.177E-02
CGA:  18    -0.385471966506E+03   -0.15469E-01   -0.15522E-01  8112   0.309E+00-0.104E-02
CGA:  19    -0.385488993114E+03   -0.17027E-01   -0.16986E-01  8112   0.241E+00 0.687E-02
CGA:  20    -0.385501534963E+03   -0.12542E-01   -0.12547E-01  8112   0.129E+00 0.181E-02
CGA:  21    -0.385507181209E+03   -0.56462E-02   -0.56803E-02  8112   0.110E+00 0.120E-02
CGA:  22    -0.385517261803E+03   -0.10081E-01   -0.10108E-01  8112   0.173E+00-0.595E-03
CGA:  23    -0.385526561181E+03   -0.92994E-02   -0.92987E-02  8112   0.599E-01 0.243E-02
CGA:  24    -0.385529948678E+03   -0.33875E-02   -0.33890E-02  8112   0.497E-01-0.373E-03
CGA:  25    -0.385532406171E+03   -0.24575E-02   -0.24599E-02  8112   0.413E-01 0.279E-03
CGA:  26    -0.385535136709E+03   -0.27305E-02   -0.27270E-02  8112   0.265E-01 0.222E-03
CGA:  27    -0.385537116137E+03   -0.19794E-02   -0.19772E-02  8112   0.256E-01 0.990E-04
CGA:  28    -0.385538250812E+03   -0.11347E-02   -0.11333E-02  8112   0.138E-01-0.117E-04
CGA:  29    -0.385539023620E+03   -0.77281E-03   -0.77281E-03  8112   0.149E-01 0.563E-05
CGA:  30    -0.385540590309E+03   -0.15667E-02   -0.15670E-02  8112   0.171E-01-0.446E-05
CGA:  31    -0.385541325531E+03   -0.73522E-03   -0.73614E-03  8112   0.729E-02 0.959E-05
CGA:  32    -0.385541712069E+03   -0.38654E-03   -0.38647E-03  8112   0.602E-02-0.703E-05
CGA:  33    -0.385542091560E+03   -0.37949E-03   -0.37963E-03  8112   0.760E-02-0.106E-04
CGA:  34    -0.385542716627E+03   -0.62507E-03   -0.62494E-03  8112   0.367E-02 0.564E-05
SDA:  35    -0.385542879438E+03   -0.16281E-03   -0.16283E-03  8112   0.247E-02 0.227E-05
CGA:  36    -0.385542950860E+03   -0.71422E-04   -0.71452E-04  8112   0.147E-02-0.925E-06
CGA:  37    -0.385543080336E+03   -0.12948E-03   -0.12950E-03  8112   0.172E-02-0.768E-06
CGA:  38    -0.385543232094E+03   -0.15176E-03   -0.15200E-03  8112   0.130E-02-0.754E-05
CGA:  39    -0.385543324334E+03   -0.92240E-04   -0.92337E-04  8112   0.969E-03-0.723E-05
CGA:  40    -0.385543371483E+03   -0.47149E-04   -0.47103E-04  8112   0.774E-03-0.362E-05
CGA:  41    -0.385543424600E+03   -0.53117E-04   -0.53169E-04  8112   0.994E-03-0.542E-05
CGA:  42    -0.385543480243E+03   -0.55643E-04   -0.55630E-04  8112   0.997E-03-0.408E-05
CGA:  43    -0.385543541504E+03   -0.61261E-04   -0.61265E-04  8112   0.241E-03-0.192E-05
CGA:  44    -0.385543577329E+03   -0.35825E-04   -0.35472E-04  8112   0.489E-03 0.402E-05
CGA:  45    -0.385543635100E+03   -0.57770E-04   -0.57421E-04  8112   0.704E-03 0.660E-05
CGA:  46    -0.385543654638E+03   -0.19538E-04   -0.19604E-04  8112   0.191E-03 0.196E-05
CGA:  47    -0.385543674637E+03   -0.19999E-04   -0.19931E-04  8112   0.295E-03 0.177E-05
CGA:  48    -0.385543692691E+03   -0.18054E-04   -0.18065E-04  8112   0.260E-03 0.180E-05
CGA:  49    -0.385543711786E+03   -0.19095E-04   -0.19086E-04  8112   0.975E-04 0.138E-05
CGA:  50    -0.385543720233E+03   -0.84471E-05   -0.84189E-05  8112   0.831E-04 0.140E-05
  17 F= -.38554372E+03 E0= -.38552753E+03  d E =0.161248E+00  mag=    18.0000
       N       E                     dE             d eps       ncg     rms          ort
SDA:   1    -0.354590446809E+03    0.30953E+02    0.00000E+00  8112   0.114E+03 0.000E+00
CGA:   2    -0.364552804840E+03   -0.99624E+01   -0.10623E+02  8112   0.353E+03-0.173E+02
CGA:   3    -0.376269755053E+03   -0.11717E+02   -0.90839E+01  8112   0.102E+03 0.881E+02
CGA:   4    -0.378513639084E+03   -0.22439E+01   -0.20196E+01  8112   0.342E+02 0.395E+01
CGA:   5    -0.379951760672E+03   -0.14381E+01   -0.15356E+01  8112   0.626E+02-0.182E+00
CGA:   6    -0.381128262938E+03   -0.11765E+01   -0.76691E+00  8112   0.396E+02 0.329E+02
CGA:   7    -0.382240571682E+03   -0.11123E+01   -0.10370E+01  8112   0.128E+02-0.144E+00
CGA:   8    -0.382740726818E+03   -0.50016E+00   -0.47323E+00  8112   0.161E+02 0.124E+00
CGA:   9    -0.384460307974E+03   -0.17196E+01   -0.17000E+01  8112   0.104E+02 0.341E+00
CGA:  10    -0.384706154407E+03   -0.24585E+00   -0.24461E+00  8112   0.334E+01-0.984E-02
CGA:  11    -0.384879917389E+03   -0.17376E+00   -0.17396E+00  8112   0.359E+01 0.123E-01
CGA:  12    -0.385123279194E+03   -0.24336E+00   -0.24272E+00  8112   0.229E+01 0.405E-01
CGA:  13    -0.385212587234E+03   -0.89308E-01   -0.90823E-01  8112   0.122E+01 0.309E-02
CGA:  14    -0.385249334302E+03   -0.36747E-01   -0.37074E-01  8112   0.274E+00-0.242E-02
CGA:  15    -0.385264901218E+03   -0.15567E-01   -0.15562E-01  8112   0.319E+00 0.199E-02
CGA:  16    -0.385282475229E+03   -0.17574E-01   -0.17583E-01  8112   0.291E+00 0.393E-02
CGA:  17    -0.385302740164E+03   -0.20265E-01   -0.20113E-01  8112   0.167E+00 0.832E-02
CGA:  18    -0.385314863107E+03   -0.12123E-01   -0.12131E-01  8112   0.115E+00-0.380E-03
CGA:  19    -0.385319789912E+03   -0.49268E-02   -0.49480E-02  8112   0.136E+00 0.311E-03
CGA:  20    -0.385332816659E+03   -0.13027E-01   -0.12952E-01  8112   0.135E+00 0.172E-02
CGA:  21    -0.385340837991E+03   -0.80213E-02   -0.80204E-02  8112   0.345E-01 0.892E-03
CGA:  22    -0.385344908071E+03   -0.40701E-02   -0.40648E-02  8112   0.626E-01 0.918E-04
CGA:  23    -0.385348400545E+03   -0.34925E-02   -0.34939E-02  8112   0.704E-01 0.118E-03
CGA:  24    -0.385351766323E+03   -0.33658E-02   -0.33692E-02  8112   0.260E-01 0.660E-04
CGA:  25    -0.385353117513E+03   -0.13512E-02   -0.13525E-02  8112   0.221E-01 0.652E-04
CGA:  26    -0.385354917746E+03   -0.18002E-02   -0.17985E-02  8112   0.280E-01 0.738E-04
CGA:  27    -0.385356632806E+03   -0.17151E-02   -0.17151E-02  8112   0.985E-02 0.935E-05
CGA:  28    -0.385357533573E+03   -0.90077E-03   -0.89863E-03  8112   0.726E-02 0.607E-04
CGA:  29    -0.385358237945E+03   -0.70437E-03   -0.70301E-03  8112   0.745E-02 0.352E-04
CGA:  30    -0.385358821776E+03   -0.58383E-03   -0.58426E-03  8112   0.744E-02-0.216E-04
CGA:  31    -0.385359163845E+03   -0.34207E-03   -0.34121E-03  8112   0.367E-02-0.764E-06
CGA:  32    -0.385359359802E+03   -0.19596E-03   -0.19593E-03  8112   0.225E-02-0.289E-06
CGA:  33    -0.385359498607E+03   -0.13881E-03   -0.13881E-03  8112   0.379E-02 0.191E-05
CGA:  34    -0.385359771240E+03   -0.27263E-03   -0.27267E-03  8112   0.130E-02-0.816E-06
CGA:  35    -0.385359852865E+03   -0.81625E-04   -0.81626E-04  8112   0.530E-03 0.131E-05
CGA:  36    -0.385359905031E+03   -0.52166E-04   -0.52177E-04  8112   0.744E-03-0.232E-06
SDA:  37    -0.385359960176E+03   -0.55145E-04   -0.55137E-04  8112   0.850E-03 0.878E-06
CGA:  38    -0.385359981290E+03   -0.21114E-04   -0.21078E-04  8112   0.210E-03 0.251E-09
CGA:  39    -0.385359997129E+03   -0.15839E-04   -0.15839E-04  8112   0.293E-03-0.228E-06
CGA:  40    -0.385360016567E+03   -0.19438E-04   -0.19438E-04  8112   0.416E-03-0.222E-06
CGA:  41    -0.385360043571E+03   -0.27004E-04   -0.27004E-04  8112   0.358E-03 0.916E-06
CGA:  42    -0.385360072681E+03   -0.29111E-04   -0.29061E-04  8112   0.173E-03 0.285E-05
CGA:  43    -0.385360087992E+03   -0.15310E-04   -0.15247E-04  8112   0.186E-03 0.288E-05
CGA:  44    -0.385360104830E+03   -0.16838E-04   -0.16745E-04  8112   0.409E-03 0.419E-05
CGA:  45    -0.385360121732E+03   -0.16902E-04   -0.17019E-04  8112   0.106E-03 0.415E-05
CGA:  46    -0.385360130548E+03   -0.88160E-05   -0.87826E-05  8112   0.112E-03 0.209E-05
  18 F= -.38536013E+03 E0= -.38534327E+03  d E =0.183590E+00  mag=    18.0000
       N       E                     dE             d eps       ncg     rms          ort
SDA:   1    -0.378138774140E+03    0.72213E+01    0.00000E+00  8112   0.265E+02 0.000E+00
CGA:   2    -0.380349635427E+03   -0.22109E+01   -0.22280E+01  8112   0.680E+02-0.567E+00
CGA:   3    -0.383559157469E+03   -0.32095E+01   -0.29970E+01  8112   0.765E+01 0.152E+01
CGA:   4    -0.384063887980E+03   -0.50473E+00   -0.50482E+00  8112   0.976E+01 0.128E-01
CGA:   5    -0.384771503892E+03   -0.70762E+00   -0.70953E+00  8112   0.918E+01-0.194E+00
CGA:   6    -0.385006277760E+03   -0.23477E+00   -0.22154E+00  8112   0.143E+01 0.431E+00
CGA:   7    -0.385092901753E+03   -0.86624E-01   -0.86950E-01  8112   0.189E+01 0.182E-01
CGA:   8    -0.385172260862E+03   -0.79359E-01   -0.78877E-01  8112   0.600E+00 0.412E-02
CGA:   9    -0.385216808026E+03   -0.44547E-01   -0.44467E-01  8112   0.420E+00 0.483E-02
CGA:  10    -0.385229428842E+03   -0.12621E-01   -0.12774E-01  8112   0.215E+00-0.288E-02
CGA:  11    -0.385239851018E+03   -0.10422E-01   -0.10418E-01  8112   0.113E+00 0.303E-05
CGA:  12    -0.385248711782E+03   -0.88608E-02   -0.88534E-02  8112   0.103E+00 0.270E-03
CGA:  13    -0.385256124208E+03   -0.74124E-02   -0.74093E-02  8112   0.540E-01 0.198E-03
CGA:  14    -0.385257835985E+03   -0.17118E-02   -0.17250E-02  8112   0.226E-01-0.185E-03
CGA:  15    -0.385260649779E+03   -0.28138E-02   -0.28004E-02  8112   0.502E-01 0.203E-03
CGA:  16    -0.385262876008E+03   -0.22262E-02   -0.22385E-02  8112   0.364E-01 0.521E-04
CGA:  17    -0.385264629467E+03   -0.17535E-02   -0.17546E-02  8112   0.148E-01 0.188E-04
CGA:  18    -0.385266310112E+03   -0.16806E-02   -0.16787E-02  8112   0.190E-01 0.354E-04
CGA:  19    -0.385267607906E+03   -0.12978E-02   -0.12976E-02  8112   0.185E-01 0.379E-04
CGA:  20    -0.385268644265E+03   -0.10364E-02   -0.10363E-02  8112   0.154E-01-0.154E-05
CGA:  21    -0.385269438094E+03   -0.79383E-03   -0.79535E-03  8112   0.669E-02 0.320E-04
CGA:  22    -0.385269761899E+03   -0.32381E-03   -0.32407E-03  8112   0.682E-02 0.728E-05
CGA:  23    -0.385270201794E+03   -0.43989E-03   -0.43988E-03  8112   0.544E-02 0.148E-04
CGA:  24    -0.385270618661E+03   -0.41687E-03   -0.41684E-03  8112   0.139E-02 0.536E-05
CGA:  25    -0.385270708811E+03   -0.90150E-04   -0.90149E-04  8112   0.235E-02 0.242E-05
CGA:  26    -0.385270885377E+03   -0.17657E-03   -0.17654E-03  8112   0.164E-02 0.243E-05
CGA:  27    -0.385270960803E+03   -0.75427E-04   -0.75451E-04  8112   0.109E-02 0.147E-05
CGA:  28    -0.385271009826E+03   -0.49023E-04   -0.49011E-04  8112   0.582E-03 0.185E-06
CGA:  29    -0.385271055117E+03   -0.45291E-04   -0.45283E-04  8112   0.667E-03 0.484E-06
CGA:  30    -0.385271117322E+03   -0.62204E-04   -0.62179E-04  8112   0.413E-03 0.103E-05
CGA:  31    -0.385271135085E+03   -0.17763E-04   -0.17789E-04  8112   0.351E-03 0.105E-05
SDA:  32    -0.385271157677E+03   -0.22592E-04   -0.22592E-04  8112   0.198E-03 0.904E-06
CGA:  33    -0.385271164129E+03   -0.64519E-05   -0.64497E-05  8112   0.141E-03-0.174E-06
CGA:  34    -0.385271175460E+03   -0.11330E-04   -0.11344E-04  8112   0.160E-03-0.795E-06
CGA:  35    -0.385271188160E+03   -0.12700E-04   -0.12711E-04  8112   0.180E-03-0.754E-06
CGA:  36    -0.385271196885E+03   -0.87253E-05   -0.87204E-05  8112   0.109E-03-0.393E-06
  19 F= -.38527120E+03 E0= -.38525398E+03  d E =0.889337E-01  mag=    18.0000
       N       E                     dE             d eps       ncg     rms          ort
SDA:   1    -0.375861149069E+03    0.94100E+01    0.00000E+00  8112   0.331E+02 0.000E+00
CGA:   2    -0.379159087339E+03   -0.32979E+01   -0.34199E+01  8112   0.106E+03-0.257E+01
CGA:   3    -0.382843521655E+03   -0.36844E+01   -0.33849E+01  8112   0.120E+02 0.520E+01
CGA:   4    -0.383452005340E+03   -0.60848E+00   -0.62560E+00  8112   0.119E+02 0.280E+00
CGA:   5    -0.384213388937E+03   -0.76138E+00   -0.76151E+00  8112   0.157E+02 0.328E+00
CGA:   6    -0.384791460350E+03   -0.57807E+00   -0.53841E+00  8112   0.282E+01 0.411E+00
CGA:   7    -0.384901148144E+03   -0.10969E+00   -0.11709E+00  8112   0.264E+01 0.576E-02
CGA:   8    -0.384987971675E+03   -0.86824E-01   -0.88234E-01  8112   0.141E+01-0.156E-01
CGA:   9    -0.385063405466E+03   -0.75434E-01   -0.75381E-01  8112   0.107E+01-0.413E-02
CGA:  10    -0.385096042546E+03   -0.32637E-01   -0.32783E-01  8112   0.410E+00-0.194E-02
CGA:  11    -0.385116751164E+03   -0.20709E-01   -0.20735E-01  8112   0.343E+00 0.141E-02
CGA:  12    -0.385126412675E+03   -0.96615E-02   -0.97955E-02  8112   0.130E+00-0.219E-02
CGA:  13    -0.385137593926E+03   -0.11181E-01   -0.11123E-01  8112   0.181E+00 0.156E-02
CGA:  14    -0.385143804205E+03   -0.62103E-02   -0.62760E-02  8112   0.108E+00-0.442E-03
CGA:  15    -0.385148309897E+03   -0.45057E-02   -0.45314E-02  8112   0.446E-01 0.319E-03
CGA:  16    -0.385150182967E+03   -0.18731E-02   -0.18786E-02  8112   0.360E-01 0.909E-04
CGA:  17    -0.385153069062E+03   -0.28861E-02   -0.28852E-02  8112   0.626E-01 0.370E-04
CGA:  18    -0.385155989799E+03   -0.29207E-02   -0.29279E-02  8112   0.414E-01 0.262E-03
CGA:  19    -0.385157484168E+03   -0.14944E-02   -0.14978E-02  8112   0.197E-01 0.880E-06
CGA:  20    -0.385159257708E+03   -0.17735E-02   -0.17746E-02  8112   0.296E-01-0.205E-04
CGA:  21    -0.385160628671E+03   -0.13710E-02   -0.13712E-02  8112   0.297E-01 0.711E-05
CGA:  22    -0.385162244708E+03   -0.16160E-02   -0.16162E-02  8112   0.169E-01 0.535E-04
CGA:  23    -0.385162966098E+03   -0.72139E-03   -0.72273E-03  8112   0.129E-01 0.238E-04
CGA:  24    -0.385163780932E+03   -0.81483E-03   -0.81424E-03  8112   0.796E-02 0.521E-04
CGA:  25    -0.385164156565E+03   -0.37563E-03   -0.37580E-03  8112   0.995E-02 0.102E-04
CGA:  26    -0.385164784448E+03   -0.62788E-03   -0.62770E-03  8112   0.513E-02 0.190E-04
CGA:  27    -0.385165009529E+03   -0.22508E-03   -0.22520E-03  8112   0.310E-02 0.869E-05
CGA:  28    -0.385165149545E+03   -0.14002E-03   -0.14003E-03  8112   0.223E-02 0.340E-05
CGA:  29    -0.385165324663E+03   -0.17512E-03   -0.17499E-03  8112   0.422E-02 0.518E-05
CGA:  30    -0.385165499965E+03   -0.17530E-03   -0.17527E-03  8112   0.104E-02 0.209E-05
CGA:  31    -0.385165552857E+03   -0.52892E-04   -0.52889E-04  8112   0.890E-03 0.467E-06
SDA:  32    -0.385165611500E+03   -0.58643E-04   -0.58630E-04  8112   0.131E-02 0.156E-05
CGA:  33    -0.385165641113E+03   -0.29613E-04   -0.29634E-04  8112   0.357E-03-0.178E-05
CGA:  34    -0.385165667289E+03   -0.26176E-04   -0.26175E-04  8112   0.485E-03-0.107E-06
CGA:  35    -0.385165731340E+03   -0.64050E-04   -0.63995E-04  8112   0.601E-03 0.563E-06
CGA:  36    -0.385165759679E+03   -0.28339E-04   -0.28331E-04  8112   0.247E-03-0.573E-06
CGA:  37    -0.385165769767E+03   -0.10088E-04   -0.10077E-04  8112   0.173E-03-0.694E-06
CGA:  38    -0.385165797976E+03   -0.28209E-04   -0.28570E-04  8112   0.269E-03-0.341E-05
CGA:  39    -0.385165820280E+03   -0.22303E-04   -0.22307E-04  8112   0.128E-03-0.242E-06
CGA:  40    -0.385165828531E+03   -0.82509E-05   -0.82500E-05  8112   0.169E-03 0.721E-06
  20 F= -.38516583E+03 E0= -.38514821E+03  d E =0.105368E+00  mag=    18.0000
       N       E                     dE             d eps       ncg     rms          ort
SDA:   1    -0.334488781940E+03    0.50677E+02    0.00000E+00  8112   0.202E+03 0.000E+00
CGA:   2    -0.347158609414E+03   -0.12670E+02   -0.12669E+02  8112   0.389E+03 0.369E+01
CGA:   3    -0.370619458772E+03   -0.23461E+02   -0.18293E+02  8112   0.747E+02 0.390E+02
CGA:   4    -0.374458001299E+03   -0.38385E+01   -0.39567E+01  8112   0.725E+02 0.115E+01
CGA:   5    -0.379585255864E+03   -0.51273E+01   -0.55864E+01  8112   0.173E+03-0.221E+02
CGA:   6    -0.381620228633E+03   -0.20350E+01   -0.18954E+01  8112   0.465E+02 0.844E+01
CGA:   7    -0.382455094991E+03   -0.83487E+00   -0.91533E+00  8112   0.283E+02-0.350E+01
CGA:   8    -0.382887417993E+03   -0.43232E+00   -0.47352E+00  8112   0.154E+02-0.192E+01
CGA:   9    -0.383322138525E+03   -0.43472E+00   -0.44167E+00  8112   0.253E+02-0.125E+00
CGA:  10    -0.383912347222E+03   -0.59021E+00   -0.59804E+00  8112   0.123E+02-0.420E+00
CGA:  11    -0.384168609249E+03   -0.25626E+00   -0.26102E+00  8112   0.113E+02-0.143E+00
CGA:  12    -0.384378980247E+03   -0.21037E+00   -0.22088E+00  8112   0.319E+01-0.382E+00
CGA:  13    -0.384457881863E+03   -0.78902E-01   -0.79464E-01  8112   0.370E+01 0.235E-02
CGA:  14    -0.384551508578E+03   -0.93627E-01   -0.94585E-01  8112   0.198E+01-0.204E-01
CGA:  15    -0.384647817134E+03   -0.96309E-01   -0.96293E-01  8112   0.379E+01 0.493E-02
CGA:  16    -0.384730933824E+03   -0.83117E-01   -0.98254E-01  8112   0.155E+01-0.170E+00
CGA:  17    -0.384779669136E+03   -0.48735E-01   -0.50127E-01  8112   0.624E+00 0.172E-01
CGA:  18    -0.384796207541E+03   -0.16538E-01   -0.16909E-01  8112   0.429E+00-0.381E-02
CGA:  19    -0.384828899643E+03   -0.32692E-01   -0.31646E-01  8112   0.588E+00 0.305E-01
CGA:  20    -0.384853787876E+03   -0.24888E-01   -0.25034E-01  8112   0.506E+00 0.795E-02
CGA:  21    -0.384871452045E+03   -0.17664E-01   -0.17854E-01  8112   0.126E+00 0.334E-02
CGA:  22    -0.384878524466E+03   -0.70724E-02   -0.70236E-02  8112   0.153E+00 0.329E-02
CGA:  23    -0.384887442901E+03   -0.89184E-02   -0.89247E-02  8112   0.185E+00-0.353E-03
CGA:  24    -0.384896713756E+03   -0.92709E-02   -0.92328E-02  8112   0.864E-01 0.604E-02
[...]
CGA:   6    -0.385892452551E+03   -0.68689E+00   -0.68692E+00  8112   0.800E+01-0.500E-02
CGA:   7    -0.386068212460E+03   -0.17576E+00   -0.17165E+00  8112   0.135E+01 0.135E+00
CGA:   8    -0.386140167996E+03   -0.71956E-01   -0.72147E-01  8112   0.117E+01 0.126E-01
CGA:   9    -0.386222538011E+03   -0.82370E-01   -0.82461E-01  8112   0.998E+00-0.511E-02
CGA:  10    -0.386256871920E+03   -0.34334E-01   -0.34746E-01  8112   0.370E+00-0.275E-02
CGA:  11    -0.386269449616E+03   -0.12578E-01   -0.12639E-01  8112   0.166E+00-0.410E-03
CGA:  12    -0.386278736121E+03   -0.92865E-02   -0.92886E-02  8112   0.133E+00 0.173E-02
CGA:  13    -0.386288866360E+03   -0.10130E-01   -0.10132E-01  8112   0.180E+00-0.671E-04
CGA:  14    -0.386293571564E+03   -0.47052E-02   -0.47637E-02  8112   0.246E-01-0.113E-02
CGA:  15    -0.386295221799E+03   -0.16502E-02   -0.16490E-02  8112   0.332E-01 0.700E-04
CGA:  16    -0.386297843043E+03   -0.26212E-02   -0.26105E-02  8112   0.317E-01 0.385E-03
CGA:  17    -0.386299081269E+03   -0.12382E-02   -0.12408E-02  8112   0.156E-01 0.114E-04
CGA:  18    -0.386299714128E+03   -0.63286E-03   -0.63369E-03  8112   0.800E-02 0.128E-04
CGA:  19    -0.386300649470E+03   -0.93534E-03   -0.93246E-03  8112   0.165E-01 0.497E-04
CGA:  20    -0.386301375438E+03   -0.72597E-03   -0.72803E-03  8112   0.119E-01 0.364E-04
CGA:  21    -0.386301847907E+03   -0.47247E-03   -0.47298E-03  8112   0.403E-02 0.972E-05
CGA:  22    -0.386302176428E+03   -0.32852E-03   -0.32801E-03  8112   0.697E-02 0.173E-04
CGA:  23    -0.386302584590E+03   -0.40816E-03   -0.40816E-03  8112   0.618E-02 0.550E-05
CGA:  24    -0.386302836267E+03   -0.25168E-03   -0.25183E-03  8112   0.210E-02 0.238E-05
CGA:  25    -0.386302952294E+03   -0.11603E-03   -0.11603E-03  8112   0.184E-02 0.181E-05
CGA:  26    -0.386303100109E+03   -0.14782E-03   -0.14781E-03  8112   0.291E-02 0.348E-06
CGA:  27    -0.386303200323E+03   -0.10021E-03   -0.10022E-03  8112   0.881E-03 0.154E-06
CGA:  28    -0.386303259308E+03   -0.58985E-04   -0.58986E-04  8112   0.876E-03 0.425E-07
CGA:  29    -0.386303305371E+03   -0.46063E-04   -0.46064E-04  8112   0.106E-02 0.244E-06
CGA:  30    -0.386303369990E+03   -0.64620E-04   -0.64620E-04  8112   0.513E-03 0.272E-07
CGA:  31    -0.386303397980E+03   -0.27990E-04   -0.27986E-04  8112   0.401E-03-0.102E-05
SDA:  32    -0.386303423739E+03   -0.25759E-04   -0.25769E-04  8112   0.570E-03-0.117E-05
CGA:  33    -0.386303435836E+03   -0.12097E-04   -0.12091E-04  8112   0.165E-03-0.234E-06
CGA:  34    -0.386303449073E+03   -0.13237E-04   -0.13246E-04  8112   0.230E-03-0.482E-06
CGA:  35    -0.386303474739E+03   -0.25666E-04   -0.25757E-04  8112   0.398E-03-0.172E-05
CGA:  36    -0.386303487795E+03   -0.13056E-04   -0.13018E-04  8112   0.167E-03-0.126E-05
CGA:  37    -0.386303496144E+03   -0.83495E-05   -0.83421E-05  8112   0.881E-04-0.830E-06
CGA:  38    -0.386303509864E+03   -0.13720E-04   -0.13795E-04  8112   0.252E-03-0.826E-06
CGA:  39    -0.386303524078E+03   -0.14214E-04   -0.14209E-04  8112   0.855E-04-0.584E-06
CGA:  40    -0.386303527642E+03   -0.35641E-05   -0.35586E-05  8112   0.702E-04-0.248E-06
  96 F= -.38630353E+03 E0= -.38628412E+03  d E =0.357948E-01  mag=    16.0000
       N       E                     dE             d eps       ncg     rms          ort
SDA:   1    -0.372115407228E+03    0.14188E+02    0.00000E+00  8112   0.602E+02 0.000E+00
CGA:   2    -0.374844420587E+03   -0.27290E+01   -0.28146E+01  8112   0.742E+02 0.110E+01
CGA:   3    -0.380100885151E+03   -0.52565E+01   -0.55357E+01  8112   0.105E+03-0.161E+02
CGA:   4    -0.383302953157E+03   -0.32021E+01   -0.28674E+01  8112   0.333E+02 0.422E+01
CGA:   5    -0.383967404518E+03   -0.66445E+00   -0.74698E+00  8112   0.218E+02-0.340E+01
CGA:   6    -0.384686813849E+03   -0.71941E+00   -0.71675E+00  8112   0.194E+02-0.363E-01
CGA:   7    -0.385479648937E+03   -0.79284E+00   -0.78465E+00  8112   0.233E+02-0.340E-01
CGA:   8    -0.385897127859E+03   -0.41748E+00   -0.46950E+00  8112   0.516E+01-0.208E+01
CGA:   9    -0.385990809941E+03   -0.93682E-01   -0.90994E-01  8112   0.224E+01 0.965E-01
CGA:  10    -0.386080513511E+03   -0.89704E-01   -0.89733E-01  8112   0.237E+01-0.341E-03
CGA:  11    -0.386146306213E+03   -0.65793E-01   -0.67526E-01  8112   0.266E+01-0.316E-01
CGA:  12    -0.386260880134E+03   -0.11457E+00   -0.11478E+00  8112   0.102E+01 0.121E-01
CGA:  13    -0.386281730083E+03   -0.20850E-01   -0.20928E-01  8112   0.364E+00-0.266E-02
CGA:  14    -0.386295053328E+03   -0.13323E-01   -0.13662E-01  8112   0.334E+00 0.629E-02
CGA:  15    -0.386309061373E+03   -0.14008E-01   -0.13975E-01  8112   0.407E+00-0.140E-02
CGA:  16    -0.386328392262E+03   -0.19331E-01   -0.19329E-01  8112   0.289E+00-0.645E-02
CGA:  17    -0.386335315040E+03   -0.69228E-02   -0.74722E-02  8112   0.827E-01-0.694E-02
CGA:  18    -0.386337745251E+03   -0.24302E-02   -0.24291E-02  8112   0.539E-01 0.111E-04
CGA:  19    -0.386341477191E+03   -0.37319E-02   -0.37144E-02  8112   0.751E-01 0.599E-03
CGA:  20    -0.386344537624E+03   -0.30604E-02   -0.31038E-02  8112   0.560E-01 0.253E-02
CGA:  21    -0.386347047921E+03   -0.25103E-02   -0.25081E-02  8112   0.181E-01-0.275E-03
CGA:  22    -0.386347755413E+03   -0.70749E-03   -0.70870E-03  8112   0.170E-01 0.533E-04
CGA:  23    -0.386348933442E+03   -0.11780E-02   -0.11764E-02  8112   0.208E-01 0.566E-04
CGA:  24    -0.386350136539E+03   -0.12031E-02   -0.12038E-02  8112   0.174E-01-0.492E-04
CGA:  25    -0.386350691375E+03   -0.55484E-03   -0.55855E-03  8112   0.559E-02 0.106E-04
CGA:  26    -0.386351048677E+03   -0.35730E-03   -0.35712E-03  8112   0.818E-02 0.900E-05
CGA:  27    -0.386351604533E+03   -0.55586E-03   -0.55518E-03  8112   0.101E-01 0.276E-04
CGA:  28    -0.386351996030E+03   -0.39150E-03   -0.39174E-03  8112   0.393E-02 0.121E-04
CGA:  29    -0.386352164282E+03   -0.16825E-03   -0.16827E-03  8112   0.259E-02 0.402E-05
CGA:  30    -0.386352358095E+03   -0.19381E-03   -0.19355E-03  8112   0.443E-02 0.880E-05
CGA:  31    -0.386352564255E+03   -0.20616E-03   -0.20620E-03  8112   0.219E-02 0.791E-05
SDA:  32    -0.386352682423E+03   -0.11817E-03   -0.11815E-03  8112   0.197E-02 0.295E-05
CGA:  33    -0.386352723598E+03   -0.41175E-04   -0.41171E-04  8112   0.632E-03-0.945E-06
CGA:  34    -0.386352835622E+03   -0.11202E-03   -0.11250E-03  8112   0.116E-02-0.387E-05
CGA:  35    -0.386352902732E+03   -0.67110E-04   -0.67118E-04  8112   0.450E-03-0.252E-05
CGA:  36    -0.386352927980E+03   -0.25248E-04   -0.25250E-04  8112   0.848E-03-0.103E-05
CGA:  37    -0.386353005530E+03   -0.77550E-04   -0.77671E-04  8112   0.384E-03-0.327E-05
CGA:  38    -0.386353029221E+03   -0.23690E-04   -0.23699E-04  8112   0.326E-03-0.184E-05
CGA:  39    -0.386353060176E+03   -0.30955E-04   -0.31003E-04  8112   0.754E-03-0.133E-05
CGA:  40    -0.386353101144E+03   -0.40968E-04   -0.40967E-04  8112   0.520E-03-0.186E-06
CGA:  41    -0.386353119881E+03   -0.18737E-04   -0.18734E-04  8112   0.214E-03 0.771E-07
CGA:  42    -0.386353138613E+03   -0.18732E-04   -0.18751E-04  8112   0.261E-03-0.740E-06
CGA:  43    -0.386353160375E+03   -0.21762E-04   -0.21824E-04  8112   0.437E-03-0.233E-05
CGA:  44    -0.386353174744E+03   -0.14369E-04   -0.14352E-04  8112   0.113E-03-0.829E-06
CGA:  45    -0.386353182063E+03   -0.73191E-05   -0.73201E-05  8112   0.936E-04-0.223E-06
CGA:  46    -0.386353198223E+03   -0.16160E-04   -0.16064E-04  8112   0.851E-04 0.742E-06
CGA:  47    -0.386353201793E+03   -0.35703E-05   -0.35767E-05  8112   0.581E-04 0.187E-06
  97 F= -.38635320E+03 E0= -.38633417E+03  d E =-.496742E-01  mag=    16.0000
       N       E                     dE             d eps       ncg     rms          ort
SDA:   1    -0.381223855232E+03    0.51293E+01    0.00000E+00  8112   0.171E+02 0.000E+00
CGA:   2    -0.382395481769E+03   -0.11716E+01   -0.11660E+01  8112   0.377E+02 0.616E+00
CGA:   3    -0.384820776844E+03   -0.24253E+01   -0.24237E+01  8112   0.175E+02-0.863E+00
CGA:   4    -0.385338940793E+03   -0.51816E+00   -0.50005E+00  8112   0.523E+01 0.108E+00
CGA:   5    -0.385946432793E+03   -0.60749E+00   -0.60791E+00  8112   0.525E+01-0.916E-02
CGA:   6    -0.386146264984E+03   -0.19983E+00   -0.19987E+00  8112   0.236E+01-0.442E-02
CGA:   7    -0.386213954918E+03   -0.67690E-01   -0.68768E-01  8112   0.714E+00-0.209E-01
CGA:   8    -0.386262336039E+03   -0.48381E-01   -0.48297E-01  8112   0.727E+00 0.704E-02
CGA:   9    -0.386300427946E+03   -0.38092E-01   -0.38016E-01  8112   0.457E+00-0.250E-02
CGA:  10    -0.386315478000E+03   -0.15050E-01   -0.15281E-01  8112   0.150E+00-0.230E-02
CGA:  11    -0.386320876343E+03   -0.53983E-02   -0.54135E-02  8112   0.713E-01-0.874E-04
CGA:  12    -0.386327807790E+03   -0.69314E-02   -0.68906E-02  8112   0.938E-01 0.956E-03
CGA:  13    -0.386332199358E+03   -0.43916E-02   -0.43942E-02  8112   0.349E-01 0.327E-04
CGA:  14    -0.386333163721E+03   -0.96436E-03   -0.96931E-03  8112   0.133E-01-0.106E-03
CGA:  15    -0.386334920224E+03   -0.17565E-02   -0.17584E-02  8112   0.227E-01-0.291E-04
CGA:  16    -0.386335878346E+03   -0.95812E-03   -0.96239E-03  8112   0.125E-01 0.147E-04
CGA:  17    -0.386336420233E+03   -0.54189E-03   -0.54181E-03  8112   0.735E-02 0.364E-05
CGA:  18    -0.386336806237E+03   -0.38600E-03   -0.38630E-03  8112   0.727E-02 0.183E-04
CGA:  19    -0.386337692077E+03   -0.88584E-03   -0.88317E-03  8112   0.860E-02 0.427E-04
CGA:  20    -0.386337973669E+03   -0.28159E-03   -0.28208E-03  8112   0.377E-02-0.181E-05
CGA:  21    -0.386338189440E+03   -0.21577E-03   -0.21578E-03  8112   0.350E-02 0.903E-06
CGA:  22    -0.386338562616E+03   -0.37318E-03   -0.37277E-03  8112   0.373E-02 0.810E-05
CGA:  23    -0.386338684079E+03   -0.12146E-03   -0.12154E-03  8112   0.161E-02-0.117E-05
CGA:  24    -0.386338777608E+03   -0.93529E-04   -0.93540E-04  8112   0.132E-02 0.292E-05
CGA:  25    -0.386338860988E+03   -0.83380E-04   -0.83374E-04  8112   0.131E-02 0.386E-05
CGA:  26    -0.386338938525E+03   -0.77537E-04   -0.77546E-04  8112   0.925E-03 0.321E-05
CGA:  27    -0.386338969624E+03   -0.31099E-04   -0.31112E-04  8112   0.418E-03 0.825E-06
CGA:  28    -0.386339019245E+03   -0.49621E-04   -0.49719E-04  8112   0.712E-03-0.179E-05
CGA:  29    -0.386339053333E+03   -0.34088E-04   -0.34064E-04  8112   0.416E-03-0.131E-05
CGA:  30    -0.386339068898E+03   -0.15565E-04   -0.15549E-04  8112   0.223E-03-0.777E-06
CGA:  31    -0.386339095729E+03   -0.26830E-04   -0.26845E-04  8112   0.416E-03-0.455E-06
SDA:  32    -0.386339116132E+03   -0.20404E-04   -0.20401E-04  8112   0.278E-03-0.139E-06
CGA:  33    -0.386339122367E+03   -0.62351E-05   -0.62407E-05  8112   0.955E-04-0.718E-08
  98 F= -.38633912E+03 E0= -.38632010E+03  d E =0.140794E-01  mag=    16.0000
       N       E                     dE             d eps       ncg     rms          ort
SDA:   1    -0.384466648510E+03    0.18725E+01    0.00000E+00  8112   0.696E+01 0.000E+00
CGA:   2    -0.384910301161E+03   -0.44365E+00   -0.44334E+00  8112   0.125E+02 0.121E+00
CGA:   3    -0.385619849271E+03   -0.70955E+00   -0.70912E+00  8112   0.741E+01-0.228E-01
CGA:   4    -0.385983273045E+03   -0.36342E+00   -0.36232E+00  8112   0.232E+01-0.264E-01
CGA:   5    -0.386121398899E+03   -0.13813E+00   -0.13804E+00  8112   0.299E+01-0.235E-01
CGA:   6    -0.386247463707E+03   -0.12606E+00   -0.12583E+00  8112   0.144E+01-0.580E-03
CGA:   7    -0.386303518774E+03   -0.56055E-01   -0.55899E-01  8112   0.405E+00 0.249E-03
CGA:   8    -0.386321678762E+03   -0.18160E-01   -0.18218E-01  8112   0.187E+00 0.759E-03
CGA:   9    -0.386336310117E+03   -0.14631E-01   -0.14616E-01  8112   0.273E+00 0.576E-03
CGA:  10    -0.386345752559E+03   -0.94424E-02   -0.94044E-02  8112   0.946E-01 0.371E-03
CGA:  11    -0.386349667286E+03   -0.39147E-02   -0.39303E-02  8112   0.224E-01 0.932E-04
CGA:  12    -0.386351320602E+03   -0.16533E-02   -0.16519E-02  8112   0.472E-01 0.636E-04
CGA:  13    -0.386353531559E+03   -0.22110E-02   -0.22127E-02  8112   0.208E-01 0.472E-04
CGA:  14    -0.386354422887E+03   -0.89133E-03   -0.89197E-03  8112   0.488E-02 0.107E-04
CGA:  15    -0.386354767314E+03   -0.34443E-03   -0.34441E-03  8112   0.896E-02 0.261E-05
CGA:  16    -0.386355271997E+03   -0.50468E-03   -0.50475E-03  8112   0.646E-02 0.289E-04
CGA:  17    -0.386355595151E+03   -0.32315E-03   -0.32326E-03  8112   0.332E-02 0.649E-05
CGA:  18    -0.386355745533E+03   -0.15038E-03   -0.15044E-03  8112   0.182E-02 0.124E-05
CGA:  19    -0.386355898815E+03   -0.15328E-03   -0.15331E-03  8112   0.488E-02-0.155E-05
CGA:  20    -0.386356158262E+03   -0.25945E-03   -0.25949E-03  8112   0.133E-02 0.178E-05
CGA:  21    -0.386356238065E+03   -0.79803E-04   -0.79799E-04  8112   0.108E-02 0.667E-06
CGA:  22    -0.386356292985E+03   -0.54920E-04   -0.54937E-04  8112   0.137E-02 0.237E-05
CGA:  23    -0.386356392571E+03   -0.99586E-04   -0.99475E-04  8112   0.612E-03 0.690E-05
CGA:  24    -0.386356427212E+03   -0.34641E-04   -0.34640E-04  8112   0.427E-03 0.184E-06
CGA:  25    -0.386356445998E+03   -0.18786E-04   -0.18769E-04  8112   0.403E-03-0.126E-05
CGA:  26    -0.386356473952E+03   -0.27954E-04   -0.27987E-04  8112   0.391E-03-0.270E-05
CGA:  27    -0.386356491361E+03   -0.17409E-04   -0.17394E-04  8112   0.159E-03-0.134E-05
CGA:  28    -0.386356500418E+03   -0.90571E-05   -0.90571E-05  8112   0.189E-03 0.180E-06
CGA:  29    -0.386356511669E+03   -0.11251E-04   -0.11249E-04  8112   0.204E-03 0.156E-05
CGA:  30    -0.386356523059E+03   -0.11389E-04   -0.11392E-04  8112   0.634E-04 0.168E-05
CGA:  31    -0.386356528225E+03   -0.51658E-05   -0.51692E-05  8112   0.113E-03-0.238E-06
  99 F= -.38635653E+03 E0= -.38633760E+03  d E =-.174059E-01  mag=    16.0000
       N       E                     dE             d eps       ncg     rms          ort
SDA:   1    -0.385820307169E+03    0.53622E+00    0.00000E+00  8112   0.176E+01 0.000E+00
CGA:   2    -0.385938558204E+03   -0.11825E+00   -0.11796E+00  8112   0.376E+01 0.214E-01
CGA:   3    -0.386180502638E+03   -0.24194E+00   -0.24206E+00  8112   0.234E+01-0.132E-01
CGA:   4    -0.386261251320E+03   -0.80749E-01   -0.79785E-01  8112   0.579E+00 0.794E-02
CGA:   5    -0.386299945568E+03   -0.38694E-01   -0.38673E-01  8112   0.586E+00 0.158E-02
CGA:   6    -0.386331642542E+03   -0.31697E-01   -0.31695E-01  8112   0.383E+00-0.132E-03
CGA:   7    -0.386343341906E+03   -0.11699E-01   -0.11660E-01  8112   0.106E+00 0.630E-03
CGA:   8    -0.386348512092E+03   -0.51702E-02   -0.51651E-02  8112   0.370E-01-0.224E-03
CGA:   9    -0.386353162811E+03   -0.46507E-02   -0.46391E-02  8112   0.423E-01 0.176E-03
CGA:  10    -0.386354416894E+03   -0.12541E-02   -0.12519E-02  8112   0.140E-01 0.540E-04
CGA:  11    -0.386354976999E+03   -0.56010E-03   -0.56023E-03  8112   0.474E-02 0.650E-05
CGA:  12    -0.386355542502E+03   -0.56550E-03   -0.56499E-03  8112   0.862E-02 0.810E-05
CGA:  13    -0.386355878248E+03   -0.33575E-03   -0.33607E-03  8112   0.233E-02-0.280E-06
CGA:  14    -0.386355954100E+03   -0.75852E-04   -0.75911E-04  8112   0.118E-02 0.674E-06
CGA:  15    -0.386356032822E+03   -0.78722E-04   -0.78703E-04  8112   0.132E-02 0.191E-05
CGA:  16    -0.386356150885E+03   -0.11806E-03   -0.11790E-03  8112   0.108E-02 0.447E-05
CGA:  17    -0.386356186775E+03   -0.35890E-04   -0.35915E-04  8112   0.560E-03 0.600E-06
CGA:  18    -0.386356216736E+03   -0.29962E-04   -0.29964E-04  8112   0.380E-03 0.112E-06
CGA:  19    -0.386356285089E+03   -0.68353E-04   -0.68216E-04  8112   0.600E-03 0.971E-06
CGA:  20    -0.386356305828E+03   -0.20739E-04   -0.20765E-04  8112   0.272E-03 0.281E-06
CGA:  21    -0.386356319414E+03   -0.13585E-04   -0.13597E-04  8112   0.240E-03 0.872E-06
CGA:  22    -0.386356341708E+03   -0.22294E-04   -0.22247E-04  8112   0.283E-03 0.141E-05
CGA:  23    -0.386356355095E+03   -0.13387E-04   -0.13396E-04  8112   0.112E-03 0.490E-06
CGA:  24    -0.386356360643E+03   -0.55481E-05   -0.55449E-05  8112   0.116E-03-0.295E-06
 100 F= -.38635636E+03 E0= -.38633740E+03  d E =0.167582E-03  mag=    16.0000
       N       E                     dE             d eps       ncg     rms          ort
SDA:   1    -0.385956339238E+03    0.40002E+00    0.00000E+00  8112   0.157E+01 0.000E+00
CGA:   2    -0.386034318001E+03   -0.77979E-01   -0.77824E-01  8112   0.243E+01-0.325E-02
CGA:   3    -0.386209412856E+03   -0.17509E+00   -0.17518E+00  8112   0.206E+01-0.457E-02
CGA:   4    -0.386283636189E+03   -0.74223E-01   -0.73799E-01  8112   0.446E+00 0.263E-02
CGA:   5    -0.386312121274E+03   -0.28485E-01   -0.28485E-01  8112   0.358E+00 0.176E-04
CGA:   6    -0.386340343156E+03   -0.28222E-01   -0.28232E-01  8112   0.212E+00-0.415E-03
CGA:   7    -0.386349960073E+03   -0.96169E-02   -0.96024E-02  8112   0.830E-01-0.115E-03
CGA:   8    -0.386352122954E+03   -0.21629E-02   -0.21818E-02  8112   0.268E-01-0.441E-03
CGA:   9    -0.386355805464E+03   -0.36825E-02   -0.36784E-02  8112   0.215E-01 0.541E-04
CGA:  10    -0.386356576290E+03   -0.77083E-03   -0.77176E-03  8112   0.724E-02-0.415E-05
CGA:  11    -0.386356823058E+03   -0.24677E-03   -0.24716E-03  8112   0.442E-02-0.516E-05
CGA:  12    -0.386357227792E+03   -0.40473E-03   -0.40494E-03  8112   0.615E-02-0.648E-05
CGA:  13    -0.386357493764E+03   -0.26597E-03   -0.26597E-03  8112   0.112E-02-0.679E-05
CGA:  14    -0.386357558362E+03   -0.64597E-04   -0.64590E-04  8112   0.108E-02-0.198E-05
CGA:  15    -0.386357610389E+03   -0.52027E-04   -0.52027E-04  8112   0.117E-02-0.750E-06
CGA:  16    -0.386357709740E+03   -0.99351E-04   -0.99316E-04  8112   0.497E-03 0.117E-05
CGA:  17    -0.386357739503E+03   -0.29763E-04   -0.29764E-04  8112   0.336E-03 0.482E-06
CGA:  18    -0.386357764165E+03   -0.24662E-04   -0.24654E-04  8112   0.773E-03 0.413E-06
CGA:  19    -0.386357814684E+03   -0.50519E-04   -0.50515E-04  8112   0.361E-03 0.893E-06
CGA:  20    -0.386357828897E+03   -0.14213E-04   -0.14228E-04  8112   0.169E-03 0.430E-06
CGA:  21    -0.386357844232E+03   -0.15335E-04   -0.15312E-04  8112   0.307E-03 0.743E-06
CGA:  22    -0.386357859759E+03   -0.15527E-04   -0.15529E-04  8112   0.242E-03 0.810E-07
CGA:  23    -0.386357869411E+03   -0.96527E-05   -0.96516E-05  8112   0.559E-04-0.212E-06
 101 F= -.38635787E+03 E0= -.38633895E+03  d E =-.150877E-02  mag=    16.0000
       N       E                     dE             d eps       ncg     rms          ort
SDA:   1    -0.386312011278E+03    0.45848E-01    0.00000E+00  8112   0.450E+00 0.000E+00
CGA:   2    -0.386322908407E+03   -0.10897E-01   -0.11251E-01  8112   0.179E+00-0.965E-02
CGA:   3    -0.386334995409E+03   -0.12087E-01   -0.12084E-01  8112   0.205E+00 0.303E-03
CGA:   4    -0.386349083033E+03   -0.14088E-01   -0.14090E-01  8112   0.743E-01-0.182E-03
CGA:   5    -0.386352192863E+03   -0.31098E-02   -0.31176E-02  8112   0.615E-01 0.120E-04
CGA:   6    -0.386355254355E+03   -0.30615E-02   -0.30591E-02  8112   0.422E-01-0.376E-04
CGA:   7    -0.386357508702E+03   -0.22543E-02   -0.22542E-02  8112   0.205E-01-0.674E-05
CGA:   8    -0.386358298279E+03   -0.78958E-03   -0.78973E-03  8112   0.372E-02-0.515E-06
CGA:   9    -0.386358587890E+03   -0.28961E-03   -0.28955E-03  8112   0.704E-02 0.285E-05
CGA:  10    -0.386358884261E+03   -0.29637E-03   -0.29630E-03  8112   0.248E-02 0.995E-06
CGA:  11    -0.386358995548E+03   -0.11129E-03   -0.11126E-03  8112   0.494E-03-0.117E-05
CGA:  12    -0.386359033264E+03   -0.37716E-04   -0.37720E-04  8112   0.981E-03-0.157E-06
CGA:  13    -0.386359081265E+03   -0.48001E-04   -0.48003E-04  8112   0.580E-03 0.132E-06
CGA:  14    -0.386359106550E+03   -0.25285E-04   -0.25294E-04  8112   0.132E-03 0.643E-06
CGA:  15    -0.386359114140E+03   -0.75896E-05   -0.75892E-05  8112   0.167E-03 0.356E-06
CGA:  16    -0.386359125895E+03   -0.11756E-04   -0.11753E-04  8112   0.188E-03 0.209E-06
CGA:  17    -0.386359133657E+03   -0.77620E-05   -0.77639E-05  8112   0.762E-04 0.114E-06
 102 F= -.38635913E+03 E0= -.38634021E+03  d E =-.126425E-02  mag=    16.0000
