       N       E                     dE             d eps       ncg     rms          ort
DAV:   1     0.733958514956E+04    0.73396E+04   -0.35059E+05  9568   0.175E+03
DAV:   2     0.480655313285E+03   -0.68589E+04   -0.64362E+04  9568   0.513E+02
DAV:   3    -0.318624569577E+03   -0.79928E+03   -0.77495E+03  9568   0.195E+02
DAV:   4    -0.351685738681E+03   -0.33061E+02   -0.32634E+02  9568   0.383E+01
DAV:   5    -0.353908585547E+03   -0.22228E+01   -0.21938E+01  9568   0.759E+00
SDA:   6    -0.176464017296E+03    0.17744E+03   -0.21938E+01  9568   0.130E+04 0.000E+00
CGA:   7    -0.275706759148E+03   -0.99243E+02   -0.12071E+03  9568   0.100E+04-0.663E+01
CGA:   8    -0.278396717416E+03   -0.26900E+01   -0.45529E+02  9568   0.115E+04-0.131E+03
CGA:   9    -0.256385133760E+03    0.22012E+02   -0.24956E+02  9568   0.118E+04-0.437E+03
CGA:  10    -0.201238251831E+03    0.55147E+02   -0.32961E+02  9568   0.608E+04-0.271E+04
CGA:  11    -0.103023631577E+03    0.98215E+02   -0.32347E+03  9568   0.101E+05-0.375E+04
CGA:  12     0.207037098602E+02    0.12373E+03   -0.47436E+03  9568   0.366E+05-0.198E+05
CGA:  13     0.312797846410E+03    0.29209E+03   -0.17773E+04  9568   0.131E+05-0.627E+04
CGA:  14    -0.265985695013E+03   -0.57878E+03   -0.25772E+03  9568   0.122E+04 0.617E+03
CGA:  15    -0.168194356808E+03    0.97791E+02   -0.57942E+02  9568   0.788E+04-0.288E+03
CGA:  16    -0.130082403301E+03    0.38112E+02   -0.21846E+03  9568   0.468E+04-0.379E+04
CGA:  17    -0.264702609656E+03   -0.13462E+03   -0.55893E+02  9568   0.367E+03 0.254E+03
CGA:  18    -0.274594857280E+03   -0.98922E+01   -0.66242E+01  9568   0.227E+03 0.194E+03
CGA:  19    -0.281947037940E+03   -0.73522E+01   -0.57014E+01  9568   0.148E+03 0.545E+02
CGA:  20    -0.291145109194E+03   -0.91981E+01   -0.80633E+01  9568   0.159E+03-0.128E+02
CGA:  21    -0.297142626090E+03   -0.59975E+01   -0.65322E+01  9568   0.328E+03-0.639E+02
CGA:  22    -0.299262713276E+03   -0.21201E+01   -0.28995E+01  9568   0.931E+02-0.673E+02
CGA:  23    -0.299598262337E+03   -0.33555E+00   -0.19371E+01  9568   0.131E+03-0.375E+02
CGA:  24    -0.299371720913E+03    0.22654E+00   -0.10407E+01  9568   0.284E+03-0.156E+03
CGA:  25    -0.301422936846E+03   -0.20512E+01   -0.12650E+02  9568   0.214E+03-0.488E+02
CGA:  26    -0.303049965884E+03   -0.16270E+01   -0.50535E+01  9568   0.237E+03-0.474E+02
CGA:  27    -0.306419635966E+03   -0.33697E+01   -0.76721E+01  9568   0.780E+02-0.682E+01
CGA:  28    -0.307629864386E+03   -0.12102E+01   -0.11494E+01  9568   0.245E+02-0.119E+02
CGA:  29    -0.307843293985E+03   -0.21343E+00   -0.11301E+00  9568   0.189E+02 0.186E+02
CGA:  30    -0.308181248519E+03   -0.33795E+00   -0.20650E+00  9568   0.125E+02 0.130E+02
CGA:  31    -0.308414090991E+03   -0.23284E+00   -0.11236E+00  9568   0.100E+02 0.129E+02
CGA:  32    -0.308619963995E+03   -0.20587E+00   -0.11617E+00  9568   0.505E+01 0.680E+01
CGA:  33    -0.308920333168E+03   -0.30037E+00   -0.28307E+00  9568   0.166E+02-0.234E+00
CGA:  34    -0.309365734697E+03   -0.44540E+00   -0.35788E+00  9568   0.147E+02-0.114E+02
CGA:  35    -0.309573770240E+03   -0.20804E+00   -0.30446E+00  9568   0.100E+02-0.422E+01
CGA:  36    -0.309805209295E+03   -0.23144E+00   -0.22319E+00  9568   0.576E+01 0.217E+00
CGA:  37    -0.310138875916E+03   -0.33367E+00   -0.31823E+00  9568   0.124E+02-0.222E+00
CGA:  38    -0.310278551251E+03   -0.13968E+00   -0.22986E+00  9568   0.145E+02-0.643E+01
CGA:  39    -0.310491026855E+03   -0.21248E+00   -0.43526E+00  9568   0.551E+01-0.252E+01
CGA:  40    -0.310595094100E+03   -0.10407E+00   -0.10606E+00  9568   0.489E+01-0.156E+00
CGA:  41    -0.310692903651E+03   -0.97810E-01   -0.61483E-01  9568   0.189E+01 0.260E+01
CGA:  42    -0.310749058695E+03   -0.56155E-01   -0.64548E-01  9568   0.327E+01-0.480E-01
CGA:  43    -0.310876945779E+03   -0.12789E+00   -0.10996E+00  9568   0.547E+01 0.440E+00
CGA:  44    -0.310865325254E+03    0.11621E-01   -0.13262E+00  9568   0.192E+02-0.106E+02
CGA:  45    -0.310946630083E+03   -0.81305E-01   -0.35379E+00  9568   0.146E+02-0.102E+02
CGA:  46    -0.311077303011E+03   -0.13067E+00   -0.18088E+00  9568   0.332E+01-0.459E+01
CGA:  47    -0.311139894144E+03   -0.62591E-01   -0.68735E-01  9568   0.171E+01-0.301E-01
CGA:  48    -0.311208857443E+03   -0.68963E-01   -0.68090E-01  9568   0.242E+01-0.282E-01
CGA:  49    -0.311343911616E+03   -0.13505E+00   -0.13703E+00  9568   0.290E+01-0.275E+00
CGA:  50    -0.311376343137E+03   -0.32432E-01   -0.25095E-01  9568   0.997E+00 0.670E+00
CGA:  51    -0.311393826987E+03   -0.17484E-01   -0.16490E-01  9568   0.119E+01 0.571E-01
CGA:  52    -0.311432043323E+03   -0.38216E-01   -0.37372E-01  9568   0.391E+01-0.517E-03
CGA:  53    -0.311471046180E+03   -0.39003E-01   -0.51783E-01  9568   0.239E+01-0.207E+01
CGA:  54    -0.311516397680E+03   -0.45351E-01   -0.50884E-01  9568   0.107E+01-0.122E+00
CGA:  55    -0.311548272833E+03   -0.31875E-01   -0.32520E-01  9568   0.156E+01 0.108E-01
CGA:  56    -0.311596843134E+03   -0.48570E-01   -0.50923E-01  9568   0.688E+00 0.667E-01
CGA:  57    -0.311638458056E+03   -0.41615E-01   -0.41496E-01  9568   0.663E+00-0.353E-02
CGA:  58    -0.311658287858E+03   -0.19830E-01   -0.20406E-01  9568   0.557E+00 0.100E-01
CGA:  59    -0.311678963817E+03   -0.20676E-01   -0.20660E-01  9568   0.479E+00 0.222E-03
CGA:  60    -0.311706829613E+03   -0.27866E-01   -0.27181E-01  9568   0.469E+00 0.345E-01
CGA:  61    -0.311725456995E+03   -0.18627E-01   -0.18520E-01  9568   0.478E+00-0.678E-02
CGA:  62    -0.311740125823E+03   -0.14669E-01   -0.14978E-01  9568   0.213E+00 0.768E-02
CGA:  63    -0.311754350779E+03   -0.14225E-01   -0.13816E-01  9568   0.184E+00 0.149E-01
CGA:  64    -0.311761420540E+03   -0.70698E-02   -0.71621E-02  9568   0.150E+00 0.520E-02
CGA:  65    -0.311766164405E+03   -0.47439E-02   -0.47665E-02  9568   0.109E+00-0.387E-03
CGA:  66    -0.311774324697E+03   -0.81603E-02   -0.76749E-02  9568   0.558E-01 0.144E-01
CGA:  67    -0.311777096235E+03   -0.27715E-02   -0.27707E-02  9568   0.868E-01 0.192E-03
CGA:  68    -0.311780949204E+03   -0.38530E-02   -0.38456E-02  9568   0.660E-01 0.259E-02
CGA:  69    -0.311785536860E+03   -0.45877E-02   -0.45071E-02  9568   0.564E-01 0.282E-02
CGA:  70    -0.311790001546E+03   -0.44647E-02   -0.43887E-02  9568   0.457E-01 0.213E-02
CGA:  71    -0.311791414569E+03   -0.14130E-02   -0.14156E-02  9568   0.385E-01-0.102E-04
CGA:  72    -0.311793537102E+03   -0.21225E-02   -0.21094E-02  9568   0.254E-01 0.868E-03
CGA:  73    -0.311796036090E+03   -0.24990E-02   -0.25902E-02  9568   0.393E-01-0.177E-02
CGA:  74    -0.311798717865E+03   -0.26818E-02   -0.26827E-02  9568   0.236E-01-0.794E-04
CGA:  75    -0.311800011368E+03   -0.12935E-02   -0.12943E-02  9568   0.341E-01-0.958E-04
CGA:  76    -0.311800970426E+03   -0.95906E-03   -0.98181E-03  9568   0.114E-01-0.259E-03
CGA:  77    -0.311802304586E+03   -0.13342E-02   -0.14117E-02  9568   0.282E-01-0.118E-02
CGA:  78    -0.311803993159E+03   -0.16886E-02   -0.17305E-02  9568   0.227E-01-0.196E-02
CGA:  79    -0.311805134446E+03   -0.11413E-02   -0.11409E-02  9568   0.808E-02 0.174E-03
CGA:  80    -0.311805457619E+03   -0.32317E-03   -0.32083E-03  9568   0.108E-01-0.317E-04
CGA:  81    -0.311806101300E+03   -0.64368E-03   -0.64288E-03  9568   0.117E-01 0.675E-04
CGA:  82    -0.311806864126E+03   -0.76283E-03   -0.77348E-03  9568   0.199E-01-0.592E-03
CGA:  83    -0.311807646626E+03   -0.78250E-03   -0.76714E-03  9568   0.879E-02-0.206E-03
SDA:  84    -0.311807918809E+03   -0.27218E-03   -0.27187E-03  9568   0.908E-02 0.631E-05
CGA:  85    -0.311808181133E+03   -0.26232E-03   -0.26108E-03  9568   0.644E-02 0.257E-04
CGA:  86    -0.311808650158E+03   -0.46902E-03   -0.47074E-03  9568   0.112E-01-0.581E-04
CGA:  87    -0.311809169944E+03   -0.51979E-03   -0.51942E-03  9568   0.137E-01-0.159E-04
CGA:  88    -0.311810206791E+03   -0.10368E-02   -0.10423E-02  9568   0.763E-02-0.183E-03
CGA:  89    -0.311811308109E+03   -0.11013E-02   -0.10706E-02  9568   0.221E-01 0.365E-03
CGA:  90    -0.311811877550E+03   -0.56944E-03   -0.54041E-03  9568   0.923E-02 0.839E-03
CGA:  91    -0.311812517319E+03   -0.63977E-03   -0.64166E-03  9568   0.379E-02-0.109E-03
CGA:  92    -0.311812649548E+03   -0.13223E-03   -0.13245E-03  9568   0.321E-02-0.223E-05
CGA:  93    -0.311812800764E+03   -0.15122E-03   -0.15120E-03  9568   0.277E-02-0.242E-05
CGA:  94    -0.311812897565E+03   -0.96801E-04   -0.97403E-04  9568   0.251E-02-0.540E-05
CGA:  95    -0.311808572158E+03    0.43254E-02   -0.13117E-02  9568   0.253E+00-0.308E-01
CGA:  96    -0.311813817780E+03   -0.52456E-02   -0.55269E-02  9568   0.727E-01-0.113E-01
CGA:  97    -0.311815532840E+03   -0.17151E-02   -0.16918E-02  9568   0.123E-01 0.767E-03
CGA:  98    -0.311815895834E+03   -0.36299E-03   -0.36134E-03  9568   0.894E-02 0.414E-04
CGA:  99    -0.311816536208E+03   -0.64037E-03   -0.64006E-03  9568   0.492E-02-0.538E-05
CGA: 100    -0.311816861569E+03   -0.32536E-03   -0.32508E-03  9568   0.498E-02-0.342E-05
CGA: 101    -0.311817037251E+03   -0.17568E-03   -0.17645E-03  9568   0.717E-02-0.918E-05
CGA: 102    -0.311817645757E+03   -0.60851E-03   -0.49232E-03  9568   0.173E-01-0.152E-02
CGA: 103    -0.311817668595E+03   -0.22839E-04   -0.11679E-04  9568   0.180E-01 0.130E-01
CGA: 104    -0.311818114761E+03   -0.44617E-03   -0.44268E-03  9568   0.654E-02 0.114E-03
CGA: 105    -0.311818363990E+03   -0.24923E-03   -0.24651E-03  9568   0.495E-02 0.358E-04
CGA: 106    -0.311818703254E+03   -0.33926E-03   -0.33847E-03  9568   0.963E-02-0.587E-04
CGA: 107    -0.311819001607E+03   -0.29835E-03   -0.27725E-03  9568   0.782E-02 0.523E-03
CGA: 108    -0.311819658260E+03   -0.65665E-03   -0.73834E-03  9568   0.158E-01-0.350E-02
CGA: 109    -0.311819729868E+03   -0.71609E-04   -0.43492E-04  9568   0.156E-01 0.558E-02
CGA: 110    -0.311820144037E+03   -0.41417E-03   -0.34933E-03  9568   0.137E-01 0.426E-02
CGA: 111    -0.311820559321E+03   -0.41528E-03   -0.37854E-03  9568   0.608E-02 0.207E-02
CGA: 112    -0.311820697283E+03   -0.13796E-03   -0.13130E-03  9568   0.555E-02 0.314E-03
CGA: 113    -0.311820875552E+03   -0.17827E-03   -0.17290E-03  9568   0.531E-02 0.142E-03
CGA: 114    -0.311820964523E+03   -0.88971E-04   -0.89902E-04  9568   0.313E-02-0.154E-04
CGA: 115    -0.311821033803E+03   -0.69280E-04   -0.69433E-04  9568   0.215E-02 0.941E-05
CGA: 116    -0.311821066715E+03   -0.32912E-04   -0.31910E-04  9568   0.953E-03 0.650E-04
CGA: 117    -0.311821090035E+03   -0.23320E-04   -0.23240E-04  9568   0.126E-02 0.714E-05
CGA: 118    -0.311821119983E+03   -0.29948E-04   -0.30130E-04  9568   0.102E-02 0.486E-05
CGA: 119    -0.311821138188E+03   -0.18205E-04   -0.18323E-04  9568   0.883E-03 0.466E-05
CGA: 120    -0.311821160308E+03   -0.22120E-04   -0.22230E-04  9568   0.741E-03 0.420E-05
CGA: 121    -0.311821171723E+03   -0.11414E-04   -0.11478E-04  9568   0.502E-03 0.105E-05
CGA: 122    -0.311821191427E+03   -0.19704E-04   -0.19718E-04  9568   0.111E-02 0.154E-05
CGA: 123    -0.311821211486E+03   -0.20059E-04   -0.20243E-04  9568   0.640E-03-0.385E-05
CGA: 124    -0.311821230632E+03   -0.19146E-04   -0.19222E-04  9568   0.114E-02-0.579E-07
CGA: 125    -0.311821254738E+03   -0.24106E-04   -0.24068E-04  9568   0.659E-03-0.164E-05
CGA: 126    -0.311821273036E+03   -0.18298E-04   -0.18280E-04  9568   0.117E-02-0.282E-05
CGA: 127    -0.311821305046E+03   -0.32011E-04   -0.32365E-04  9568   0.798E-03-0.569E-05
CGA: 128    -0.311821321917E+03   -0.16870E-04   -0.17035E-04  9568   0.882E-03-0.781E-05
CGA: 129    -0.311821347356E+03   -0.25439E-04   -0.25414E-04  9568   0.470E-03-0.485E-05
CGA: 130    -0.311821356034E+03   -0.86778E-05   -0.86511E-05  9568   0.413E-03-0.203E-05
CGA: 131    -0.311821371867E+03   -0.15834E-04   -0.15833E-04  9568   0.467E-03-0.184E-05
CGA: 132    -0.311821381686E+03   -0.98182E-05   -0.98684E-05  9568   0.432E-03-0.158E-05
CGA: 133    -0.311821394291E+03   -0.12606E-04   -0.12625E-04  9568   0.260E-03 0.348E-06
SDA: 134    -0.311821398701E+03   -0.44097E-05   -0.44191E-05  9568   0.166E-03 0.905E-08
   1 F= -.31182140E+03 E0= -.31179724E+03  d E =-.311821E+03  mag=    25.5730
       N       E                     dE             d eps       ncg     rms          ort
SDA:   1    -0.311792367044E+03    0.29027E-01    0.00000E+00  9568   0.403E+01 0.000E+00
CGA:   2    -0.311833000913E+03   -0.40634E-01   -0.42779E-01  9568   0.221E-01-0.174E+00
CGA:   3    -0.311833345121E+03   -0.34421E-03   -0.34375E-03  9568   0.700E-02 0.211E-04
CGA:   4    -0.311833758250E+03   -0.41313E-03   -0.41281E-03  9568   0.119E-01 0.138E-04
CGA:   5    -0.311834395372E+03   -0.63712E-03   -0.63681E-03  9568   0.681E-02 0.169E-04
CGA:   6    -0.311834531327E+03   -0.13595E-03   -0.13639E-03  9568   0.342E-02-0.576E-05
CGA:   7    -0.311834698624E+03   -0.16730E-03   -0.16726E-03  9568   0.185E-02 0.221E-05
CGA:   8    -0.311834780666E+03   -0.82042E-04   -0.82045E-04  9568   0.238E-02-0.254E-06
CGA:   9    -0.311834836498E+03   -0.55832E-04   -0.55756E-04  9568   0.607E-03-0.217E-05
CGA:  10    -0.311834875027E+03   -0.38529E-04   -0.38635E-04  9568   0.831E-03-0.368E-05
CGA:  11    -0.311834891342E+03   -0.16315E-04   -0.16304E-04  9568   0.217E-03-0.107E-05
CGA:  12    -0.311834900880E+03   -0.95387E-05   -0.95432E-05  9568   0.189E-03-0.583E-06
   2 F= -.31183490E+03 E0= -.31181042E+03  d E =-.135022E-01  mag=    25.5762
       N       E                     dE             d eps       ncg     rms          ort
SDA:   1    -0.310357892595E+03    0.14770E+01    0.00000E+00  9568   0.713E+01 0.000E+00
CGA:   2    -0.310577393281E+03   -0.21950E+00   -0.21764E+00  9568   0.127E+02-0.800E-01
CGA:   3    -0.311669696105E+03   -0.10923E+01   -0.11018E+01  9568   0.625E+01-0.218E+00
CGA:   4    -0.311793053842E+03   -0.12336E+00   -0.12968E+00  9568   0.318E+01-0.142E+00
CGA:   5    -0.311924994395E+03   -0.13194E+00   -0.13330E+00  9568   0.291E+01-0.190E+00
CGA:   6    -0.312066406059E+03   -0.14141E+00   -0.14246E+00  9568   0.233E+01-0.607E-01
CGA:   7    -0.312118636959E+03   -0.52231E-01   -0.53139E-01  9568   0.103E+01-0.113E-01
CGA:   8    -0.312141982200E+03   -0.23345E-01   -0.23710E-01  9568   0.394E+00-0.381E-02
CGA:   9    -0.312161763652E+03   -0.19781E-01   -0.19737E-01  9568   0.631E+00 0.274E-02
CGA:  10    -0.312180086294E+03   -0.18323E-01   -0.18166E-01  9568   0.158E+00-0.238E-02
CGA:  11    -0.312186406960E+03   -0.63207E-02   -0.63220E-02  9568   0.792E-01-0.341E-03
CGA:  12    -0.312188559838E+03   -0.21529E-02   -0.21456E-02  9568   0.606E-01-0.475E-04
CGA:  13    -0.312193420785E+03   -0.48609E-02   -0.48418E-02  9568   0.696E-01 0.459E-03
CGA:  14    -0.312195053957E+03   -0.16332E-02   -0.16378E-02  9568   0.248E-01-0.403E-04
CGA:  15    -0.312195725079E+03   -0.67112E-03   -0.67281E-03  9568   0.171E-01 0.243E-04
CGA:  16    -0.312196670064E+03   -0.94499E-03   -0.94445E-03  9568   0.259E-01 0.279E-04
CGA:  17    -0.312197473042E+03   -0.80298E-03   -0.80347E-03  9568   0.158E-01 0.360E-04
CGA:  18    -0.312198179984E+03   -0.70694E-03   -0.70703E-03  9568   0.848E-02-0.609E-06
CGA:  19    -0.312198479262E+03   -0.29928E-03   -0.29927E-03  9568   0.909E-02 0.387E-05
CGA:  20    -0.312198890385E+03   -0.41112E-03   -0.41091E-03  9568   0.595E-02 0.275E-04
CGA:  21    -0.312199152645E+03   -0.26226E-03   -0.26204E-03  9568   0.933E-02 0.316E-04
CGA:  22    -0.312199484376E+03   -0.33173E-03   -0.33175E-03  9568   0.602E-02 0.791E-05
CGA:  23    -0.312199695729E+03   -0.21135E-03   -0.21146E-03  9568   0.428E-02 0.126E-04
CGA:  24    -0.312199827128E+03   -0.13140E-03   -0.13135E-03  9568   0.255E-02-0.768E-06
CGA:  25    -0.312199946739E+03   -0.11961E-03   -0.11959E-03  9568   0.261E-02 0.319E-05
CGA:  26    -0.312200089558E+03   -0.14282E-03   -0.14283E-03  9568   0.351E-02 0.509E-06
CGA:  27    -0.312200180032E+03   -0.90473E-04   -0.90566E-04  9568   0.110E-02 0.489E-05
CGA:  28    -0.312200221821E+03   -0.41790E-04   -0.41792E-04  9568   0.124E-02 0.205E-05
CGA:  29    -0.312200260099E+03   -0.38278E-04   -0.38295E-04  9568   0.761E-03 0.240E-05
CGA:  30    -0.312200304176E+03   -0.44077E-04   -0.43960E-04  9568   0.918E-03 0.588E-05
CGA:  31    -0.312200329651E+03   -0.25475E-04   -0.25514E-04  9568   0.463E-03 0.196E-05
SDA:  32    -0.312200354837E+03   -0.25185E-04   -0.25145E-04  9568   0.473E-03 0.241E-05
CGA:  33    -0.312200362148E+03   -0.73111E-05   -0.72833E-05  9568   0.139E-03-0.957E-06
   3 F= -.31220036E+03 E0= -.31217602E+03  d E =-.365461E+00  mag=    25.5930
       N       E                     dE             d eps       ncg     rms          ort
SDA:   1    -0.303704327483E+03    0.84960E+01    0.00000E+00  9568   0.456E+02 0.000E+00
CGA:   2    -0.304783443117E+03   -0.10791E+01   -0.10098E+01  9568   0.402E+02 0.785E-01
CGA:   3    -0.308790845049E+03   -0.40074E+01   -0.53227E+01  9568   0.180E+03-0.296E+02
CGA:   4    -0.309628371775E+03   -0.83753E+00   -0.35530E+01  9568   0.105E+03-0.457E+02
CGA:   5    -0.310864397509E+03   -0.12360E+01   -0.11963E+01  9568   0.101E+02-0.269E+01
CGA:   6    -0.311301513069E+03   -0.43712E+00   -0.43542E+00  9568   0.102E+02 0.210E+00
CGA:   7    -0.311586447624E+03   -0.28493E+00   -0.26897E+00  9568   0.110E+02 0.793E-01
CGA:   8    -0.311866506548E+03   -0.28006E+00   -0.28390E+00  9568   0.117E+02-0.286E-01
CGA:   9    -0.312141764405E+03   -0.27526E+00   -0.28269E+00  9568   0.674E+01-0.259E-02
CGA:  10    -0.312266094334E+03   -0.12433E+00   -0.12402E+00  9568   0.227E+01-0.234E-01
CGA:  11    -0.312376074986E+03   -0.10998E+00   -0.10861E+00  9568   0.507E+01 0.892E-01
CGA:  12    -0.312465765547E+03   -0.89691E-01   -0.82295E-01  9568   0.191E+01 0.312E+00
CGA:  13    -0.312524955846E+03   -0.59190E-01   -0.59500E-01  9568   0.257E+01 0.108E-01
CGA:  14    -0.312574690536E+03   -0.49735E-01   -0.53341E-01  9568   0.386E+00-0.429E-01
CGA:  15    -0.312588051754E+03   -0.13361E-01   -0.13362E-01  9568   0.481E+00 0.834E-03
CGA:  16    -0.312599780705E+03   -0.11729E-01   -0.11592E-01  9568   0.248E+00-0.201E-03
CGA:  17    -0.312608108955E+03   -0.83282E-02   -0.83334E-02  9568   0.279E+00 0.165E-02
CGA:  18    -0.312616747711E+03   -0.86388E-02   -0.86395E-02  9568   0.211E+00 0.910E-05
CGA:  19    -0.312621972746E+03   -0.52250E-02   -0.52520E-02  9568   0.833E-01 0.216E-03
CGA:  20    -0.312624268853E+03   -0.22961E-02   -0.23072E-02  9568   0.968E-01 0.482E-03
CGA:  21    -0.312628178779E+03   -0.39099E-02   -0.39119E-02  9568   0.610E-01-0.176E-03
CGA:  22    -0.312631216737E+03   -0.30380E-02   -0.30350E-02  9568   0.133E+00 0.158E-03
CGA:  23    -0.312634243895E+03   -0.30272E-02   -0.30351E-02  9568   0.339E-01 0.641E-04
CGA:  24    -0.312635930889E+03   -0.16870E-02   -0.16852E-02  9568   0.466E-01 0.998E-04
CGA:  25    -0.312636987907E+03   -0.10570E-02   -0.10593E-02  9568   0.298E-01 0.120E-04
CGA:  26    -0.312638359062E+03   -0.13712E-02   -0.13680E-02  9568   0.336E-01 0.214E-03
CGA:  27    -0.312639537041E+03   -0.11780E-02   -0.11780E-02  9568   0.275E-01 0.166E-04
CGA:  28    -0.312640169877E+03   -0.63284E-03   -0.63387E-03  9568   0.127E-01 0.260E-05
CGA:  29    -0.312640738196E+03   -0.56832E-03   -0.56654E-03  9568   0.172E-01 0.133E-03
CGA:  30    -0.312641137550E+03   -0.39935E-03   -0.40027E-03  9568   0.706E-02 0.151E-04
CGA:  31    -0.312641696203E+03   -0.55865E-03   -0.55743E-03  9568   0.120E-01 0.275E-04
CGA:  32    -0.312641918173E+03   -0.22197E-03   -0.22183E-03  9568   0.517E-02 0.106E-04
CGA:  33    -0.312642195428E+03   -0.27726E-03   -0.27685E-03  9568   0.474E-02 0.195E-04
SDA:  34    -0.312642350060E+03   -0.15463E-03   -0.15464E-03  9568   0.389E-02 0.792E-06
CGA:  35    -0.312642412201E+03   -0.62141E-04   -0.62296E-04  9568   0.150E-02-0.567E-05
CGA:  36    -0.312642499100E+03   -0.86898E-04   -0.86998E-04  9568   0.180E-02-0.534E-05
CGA:  37    -0.312642619859E+03   -0.12076E-03   -0.12099E-03  9568   0.565E-02-0.721E-05
CGA:  38    -0.312642812843E+03   -0.19298E-03   -0.19297E-03  9568   0.784E-03-0.567E-05
CGA:  39    -0.312642889059E+03   -0.76216E-04   -0.76459E-04  9568   0.100E-02-0.468E-05
CGA:  40    -0.312642935881E+03   -0.46821E-04   -0.46826E-04  9568   0.663E-03-0.121E-05
CGA:  41    -0.312642965942E+03   -0.30061E-04   -0.30067E-04  9568   0.765E-03-0.185E-05
CGA:  42    -0.312642990952E+03   -0.25011E-04   -0.25008E-04  9568   0.835E-03-0.103E-05
CGA:  43    -0.312643035876E+03   -0.44924E-04   -0.44983E-04  9568   0.400E-03-0.482E-05
CGA:  44    -0.312643045285E+03   -0.94088E-05   -0.93791E-05  9568   0.356E-03-0.205E-05
CGA:  45    -0.312643074616E+03   -0.29331E-04   -0.29562E-04  9568   0.829E-04-0.569E-05
CGA:  46    -0.312643083980E+03   -0.93642E-05   -0.94805E-05  9568   0.266E-03-0.197E-05
   4 F= -.31264308E+03 E0= -.31261899E+03  d E =-.442722E+00  mag=    25.5856
       N       E                     dE             d eps       ncg     rms          ort
SDA:   1    -0.300210768239E+03    0.12432E+02    0.00000E+00  9568   0.154E+03 0.000E+00
CGA:   2    -0.302504702628E+03   -0.22939E+01   -0.30410E+01  9568   0.864E+02-0.594E+02
CGA:   3    -0.306226572202E+03   -0.37219E+01   -0.34245E+01  9568   0.833E+02 0.102E+02
CGA:   4    -0.307588985504E+03   -0.13624E+01   -0.21302E+01  9568   0.125E+03-0.181E+02
CGA:   5    -0.308503683744E+03   -0.91470E+00   -0.10207E+01  9568   0.683E+02-0.229E+02
CGA:   6    -0.310200247229E+03   -0.16966E+01   -0.11833E+01  9568   0.525E+02 0.131E+02
CGA:   7    -0.310395983163E+03   -0.19574E+00   -0.87699E+00  9568   0.727E+02-0.385E+02
CGA:   8    -0.311038232719E+03   -0.64225E+00   -0.11318E+01  9568   0.224E+02-0.231E+02
CGA:   9    -0.311406559203E+03   -0.36833E+00   -0.35612E+00  9568   0.100E+02-0.293E-01
CGA:  10    -0.311583783864E+03   -0.17722E+00   -0.19091E+00  9568   0.949E+01-0.413E+00
CGA:  11    -0.312018850614E+03   -0.43507E+00   -0.42506E+00  9568   0.123E+02 0.740E+00
CGA:  12    -0.312363625947E+03   -0.34478E+00   -0.33950E+00  9568   0.770E+01-0.331E-01
CGA:  13    -0.312494239838E+03   -0.13061E+00   -0.13464E+00  9568   0.404E+01-0.152E+00
CGA:  14    -0.312591010027E+03   -0.96770E-01   -0.96448E-01  9568   0.211E+01-0.742E-02
CGA:  15    -0.312655368445E+03   -0.64358E-01   -0.63758E-01  9568   0.220E+01-0.409E-01
CGA:  16    -0.312746269961E+03   -0.90902E-01   -0.90954E-01  9568   0.217E+01-0.361E-02
CGA:  17    -0.312781038509E+03   -0.34769E-01   -0.33920E-01  9568   0.701E+00 0.299E-01
CGA:  18    -0.312800865933E+03   -0.19827E-01   -0.19906E-01  9568   0.375E+00 0.315E-02
CGA:  19    -0.312813790783E+03   -0.12925E-01   -0.12924E-01  9568   0.363E+00 0.384E-02
CGA:  20    -0.312827076302E+03   -0.13286E-01   -0.13289E-01  9568   0.393E+00-0.807E-03
CGA:  21    -0.312840552671E+03   -0.13476E-01   -0.13470E-01  9568   0.273E+00 0.318E-01
CGA:  22    -0.312845877166E+03   -0.53245E-02   -0.53221E-02  9568   0.982E-01 0.479E-04
CGA:  23    -0.312852425416E+03   -0.65482E-02   -0.63897E-02  9568   0.166E+00 0.485E-02
CGA:  24    -0.312858492557E+03   -0.60671E-02   -0.60669E-02  9568   0.136E+00-0.435E-03
CGA:  25    -0.312863990559E+03   -0.54980E-02   -0.54593E-02  9568   0.831E-01 0.449E-02
CGA:  26    -0.312866857382E+03   -0.28668E-02   -0.28679E-02  9568   0.549E-01 0.271E-03
CGA:  27    -0.312868745467E+03   -0.18881E-02   -0.18879E-02  9568   0.554E-01-0.994E-04
CGA:  28    -0.312870845791E+03   -0.21003E-02   -0.20960E-02  9568   0.325E-01 0.898E-03
CGA:  29    -0.312871780666E+03   -0.93487E-03   -0.93466E-03  9568   0.255E-01 0.513E-05
CGA:  30    -0.312872951133E+03   -0.11705E-02   -0.11678E-02  9568   0.180E-01 0.189E-03
CGA:  31    -0.312873582085E+03   -0.63095E-03   -0.63096E-03  9568   0.100E-01 0.152E-04
CGA:  32    -0.312873907853E+03   -0.32577E-03   -0.32590E-03  9568   0.716E-02 0.262E-04
CGA:  33    -0.312874234770E+03   -0.32692E-03   -0.32694E-03  9568   0.626E-02 0.361E-05
CGA:  34    -0.312874562209E+03   -0.32744E-03   -0.32594E-03  9568   0.772E-02 0.780E-04
CGA:  35    -0.312874761295E+03   -0.19909E-03   -0.19921E-03  9568   0.268E-02 0.687E-05
CGA:  36    -0.312874859256E+03   -0.97961E-04   -0.97962E-04  9568   0.290E-02-0.158E-05
CGA:  37    -0.312874980535E+03   -0.12128E-03   -0.12134E-03  9568   0.334E-02-0.698E-05
SDA:  38    -0.312875121852E+03   -0.14132E-03   -0.14128E-03  9568   0.213E-02 0.370E-05
CGA:  39    -0.312875155478E+03   -0.33627E-04   -0.33556E-04  9568   0.580E-03 0.744E-06
CGA:  40    -0.312875185856E+03   -0.30378E-04   -0.30355E-04  9568   0.849E-03 0.115E-05
CGA:  41    -0.312875244364E+03   -0.58507E-04   -0.58433E-04  9568   0.184E-02 0.167E-05
CGA:  42    -0.312875308896E+03   -0.64533E-04   -0.64539E-04  9568   0.164E-02 0.919E-07
CGA:  43    -0.312875357886E+03   -0.48989E-04   -0.48925E-04  9568   0.465E-03-0.322E-05
CGA:  44    -0.312875398970E+03   -0.41084E-04   -0.41533E-04  9568   0.274E-03-0.887E-05
CGA:  45    -0.312875419561E+03   -0.20591E-04   -0.20789E-04  9568   0.797E-03-0.567E-05
CGA:  46    -0.312875441033E+03   -0.21472E-04   -0.21414E-04  9568   0.284E-03-0.586E-05
CGA:  47    -0.312875460191E+03   -0.19158E-04   -0.19168E-04  9568   0.287E-03-0.528E-06
CGA:  48    -0.312875465384E+03   -0.51934E-05   -0.52194E-05  9568   0.112E-03 0.602E-06
   5 F= -.31287547E+03 E0= -.31285128E+03  d E =-.232381E+00  mag=    25.4635
       N       E                     dE             d eps       ncg     rms          ort
SDA:   1    -0.300414277081E+03    0.12461E+02    0.00000E+00  9568   0.142E+03 0.000E+00
CGA:   2    -0.302871129474E+03   -0.24569E+01   -0.26987E+01  9568   0.678E+02-0.406E+02
CGA:   3    -0.305456454043E+03   -0.25853E+01   -0.24811E+01  9568   0.129E+03 0.816E+01
CGA:   4    -0.307328921524E+03   -0.18725E+01   -0.28227E+01  9568   0.128E+03-0.512E+02
CGA:   5    -0.309213060309E+03   -0.18841E+01   -0.13849E+01  9568   0.530E+02 0.141E+02
CGA:   6    -0.310127878145E+03   -0.91482E+00   -0.85355E+00  9568   0.558E+02 0.161E+01
CGA:   7    -0.310547064609E+03   -0.41919E+00   -0.36933E+00  9568   0.385E+02 0.247E+01
CGA:   8    -0.310729079142E+03   -0.18201E+00   -0.55666E+00  9568   0.618E+02-0.186E+02
CGA:   9    -0.310848456300E+03   -0.11938E+00   -0.23400E+00  9568   0.560E+02-0.147E+02
CGA:  10    -0.311397544557E+03   -0.54909E+00   -0.80086E+00  9568   0.691E+02-0.382E+01
CGA:  11    -0.311869010636E+03   -0.47147E+00   -0.37673E+00  9568   0.341E+02 0.120E+02
CGA:  12    -0.312221466303E+03   -0.35246E+00   -0.33948E+00  9568   0.290E+02-0.514E+00
CGA:  13    -0.312357910773E+03   -0.13644E+00   -0.11004E+00  9568   0.170E+02 0.543E+01
CGA:  14    -0.312432673955E+03   -0.74763E-01   -0.10220E+00  9568   0.110E+02-0.529E+01
CGA:  15    -0.312465305144E+03   -0.32631E-01   -0.44207E-01  9568   0.126E+02-0.175E+01
CGA:  16    -0.312521443457E+03   -0.56138E-01   -0.54902E-01  9568   0.108E+02 0.115E+00
CGA:  17    -0.312575695382E+03   -0.54252E-01   -0.56642E-01  9568   0.754E+01-0.470E+00
CGA:  18    -0.312612828166E+03   -0.37133E-01   -0.38176E-01  9568   0.611E+01-0.223E+00
CGA:  19    -0.312646176987E+03   -0.33349E-01   -0.30706E-01  9568   0.614E+01 0.419E+00
CGA:  20    -0.312686792415E+03   -0.40615E-01   -0.42884E-01  9568   0.734E+01-0.312E+00
CGA:  21    -0.312726075142E+03   -0.39283E-01   -0.44338E-01  9568   0.689E+01-0.662E+00
CGA:  22    -0.312756029043E+03   -0.29954E-01   -0.27957E-01  9568   0.531E+01 0.360E+00
CGA:  23    -0.312786143686E+03   -0.30115E-01   -0.30369E-01  9568   0.554E+01-0.608E-01
CGA:  24    -0.312818837842E+03   -0.32694E-01   -0.35118E-01  9568   0.652E+01-0.307E+00
CGA:  25    -0.312849132457E+03   -0.30295E-01   -0.32703E-01  9568   0.503E+01-0.384E+00
CGA:  26    -0.312871066155E+03   -0.21934E-01   -0.24912E-01  9568   0.359E+01-0.471E+00
CGA:  27    -0.312888658606E+03   -0.17592E-01   -0.17296E-01  9568   0.286E+01 0.374E-01
CGA:  28    -0.312904057278E+03   -0.15399E-01   -0.14505E-01  9568   0.215E+01 0.138E+00
CGA:  29    -0.312915885306E+03   -0.11828E-01   -0.11746E-01  9568   0.159E+01 0.102E-01
CGA:  30    -0.312923754950E+03   -0.78696E-02   -0.74530E-02  9568   0.117E+01 0.709E-01
CGA:  31    -0.312929828605E+03   -0.60737E-02   -0.62286E-02  9568   0.101E+01-0.235E-01
SDA:  32    -0.312935292146E+03   -0.54635E-02   -0.59090E-02  9568   0.982E+00-0.495E-01
CGA:  33    -0.312946127438E+03   -0.10835E-01   -0.10948E-01  9568   0.205E+00 0.568E-02
CGA:  34    -0.312953640634E+03   -0.75132E-02   -0.74290E-02  9568   0.286E+00 0.429E-02
CGA:  35    -0.312969117713E+03   -0.15477E-01   -0.15017E-01  9568   0.332E+00 0.154E-01
CGA:  36    -0.312981022457E+03   -0.11905E-01   -0.11837E-01  9568   0.345E+00 0.399E-02
CGA:  37    -0.312990687125E+03   -0.96647E-02   -0.96365E-02  9568   0.529E-01 0.248E-02
CGA:  38    -0.312993567208E+03   -0.28801E-02   -0.28587E-02  9568   0.102E+00 0.691E-03
CGA:  39    -0.312996368716E+03   -0.28015E-02   -0.27548E-02  9568   0.594E-01 0.549E-02
CGA:  40    -0.312999569641E+03   -0.32009E-02   -0.33038E-02  9568   0.108E+00-0.352E-02
CGA:  41    -0.313002859451E+03   -0.32898E-02   -0.31999E-02  9568   0.326E-01 0.742E-02
CGA:  42    -0.313003804101E+03   -0.94465E-03   -0.94257E-03  9568   0.184E-01 0.328E-03
CGA:  43    -0.313004927143E+03   -0.11230E-02   -0.11265E-02  9568   0.202E-01-0.113E-03
CGA:  44    -0.313005919629E+03   -0.99249E-03   -0.98389E-03  9568   0.309E-01 0.346E-03
CGA:  45    -0.313006771853E+03   -0.85222E-03   -0.85178E-03  9568   0.150E-01 0.248E-03
CGA:  46    -0.313007308666E+03   -0.53681E-03   -0.53200E-03  9568   0.148E-01 0.409E-03
CGA:  47    -0.313008412896E+03   -0.11042E-02   -0.11067E-02  9568   0.101E-01-0.688E-04
CGA:  48    -0.313008958376E+03   -0.54548E-03   -0.54408E-03  9568   0.144E-01 0.533E-04
CGA:  49    -0.313009393255E+03   -0.43488E-03   -0.43488E-03  9568   0.713E-02 0.285E-04
CGA:  50    -0.313009594639E+03   -0.20138E-03   -0.20151E-03  9568   0.459E-02 0.322E-04
CGA:  51    -0.313009844157E+03   -0.24952E-03   -0.24938E-03  9568   0.372E-02 0.638E-05
CGA:  52    -0.313009972330E+03   -0.12817E-03   -0.12809E-03  9568   0.463E-02 0.175E-04
CGA:  53    -0.313010198632E+03   -0.22630E-03   -0.22600E-03  9568   0.265E-02 0.153E-04
CGA:  54    -0.313010321633E+03   -0.12300E-03   -0.12292E-03  9568   0.232E-02 0.535E-05
CGA:  55    -0.313010421945E+03   -0.10031E-03   -0.10032E-03  9568   0.130E-02 0.168E-06
CGA:  56    -0.313010480824E+03   -0.58879E-04   -0.58827E-04  9568   0.288E-02 0.435E-05
CGA:  57    -0.313010636252E+03   -0.15543E-03   -0.15505E-03  9568   0.162E-02 0.184E-04
CGA:  58    -0.313010703639E+03   -0.67388E-04   -0.67294E-04  9568   0.143E-02 0.117E-04
CGA:  59    -0.313010758221E+03   -0.54582E-04   -0.54585E-04  9568   0.115E-02 0.245E-05
CGA:  60    -0.313010801149E+03   -0.42928E-04   -0.42921E-04  9568   0.131E-02 0.409E-05
CGA:  61    -0.313010905293E+03   -0.10414E-03   -0.10334E-03  9568   0.147E-02 0.186E-04
CGA:  62    -0.313011006635E+03   -0.10134E-03   -0.99922E-04  9568   0.323E-02 0.465E-04
SDA:  63    -0.313011093323E+03   -0.86688E-04   -0.86416E-04  9568   0.123E-02 0.136E-04
CGA:  64    -0.313011125110E+03   -0.31787E-04   -0.31788E-04  9568   0.109E-02 0.163E-06
CGA:  65    -0.313011168668E+03   -0.43559E-04   -0.43555E-04  9568   0.999E-03 0.947E-06
CGA:  66    -0.313011234577E+03   -0.65909E-04   -0.65735E-04  9568   0.130E-02 0.578E-05
CGA:  67    -0.313011313019E+03   -0.78441E-04   -0.78380E-04  9568   0.863E-03 0.341E-05
CGA:  68    -0.313011376860E+03   -0.63842E-04   -0.63126E-04  9568   0.152E-02 0.213E-04
CGA:  69    -0.313011418600E+03   -0.41740E-04   -0.41864E-04  9568   0.109E-02 0.851E-05
CGA:  70    -0.313011610132E+03   -0.19153E-03   -0.18449E-03  9568   0.139E-02 0.576E-04
CGA:  71    -0.313011746291E+03   -0.13616E-03   -0.13564E-03  9568   0.389E-02 0.123E-04
CGA:  72    -0.313011850020E+03   -0.10373E-03   -0.10504E-03  9568   0.184E-02 0.108E-04
CGA:  73    -0.313012088578E+03   -0.23856E-03   -0.23866E-03  9568   0.348E-02-0.122E-04
CGA:  74    -0.313012234156E+03   -0.14558E-03   -0.14605E-03  9568   0.573E-02 0.327E-04
CGA:  75    -0.313012423954E+03   -0.18980E-03   -0.18615E-03  9568   0.176E-02 0.790E-04
CGA:  76    -0.313012558334E+03   -0.13438E-03   -0.13424E-03  9568   0.287E-02 0.737E-05
CGA:  77    -0.313012669673E+03   -0.11134E-03   -0.11362E-03  9568   0.246E-02 0.489E-04
CGA:  78    -0.313012762714E+03   -0.93041E-04   -0.92154E-04  9568   0.245E-02 0.777E-05
CGA:  79    -0.313012876141E+03   -0.11343E-03   -0.11329E-03  9568   0.258E-02-0.306E-05
CGA:  80    -0.313012938806E+03   -0.62665E-04   -0.65893E-04  9568   0.829E-03-0.477E-04
CGA:  81    -0.313013008754E+03   -0.69948E-04   -0.69852E-04  9568   0.134E-02 0.141E-05
CGA:  82    -0.313013088094E+03   -0.79340E-04   -0.79309E-04  9568   0.112E-02 0.448E-06
CGA:  83    -0.313013129430E+03   -0.41335E-04   -0.41210E-04  9568   0.806E-03-0.456E-05
CGA:  84    -0.313013160451E+03   -0.31022E-04   -0.30979E-04  9568   0.639E-03-0.247E-05
CGA:  85    -0.313013193122E+03   -0.32670E-04   -0.32676E-04  9568   0.103E-02-0.452E-05
CGA:  86    -0.313013223311E+03   -0.30189E-04   -0.30302E-04  9568   0.543E-03-0.291E-05
CGA:  87    -0.313013262076E+03   -0.38765E-04   -0.38717E-04  9568   0.580E-03 0.112E-05
CGA:  88    -0.313013289719E+03   -0.27644E-04   -0.27638E-04  9568   0.339E-03-0.185E-05
CGA:  89    -0.313013308081E+03   -0.18362E-04   -0.18376E-04  9568   0.558E-03-0.272E-05
CGA:  90    -0.313013333687E+03   -0.25605E-04   -0.25605E-04  9568   0.281E-03-0.160E-05
CGA:  91    -0.313013351369E+03   -0.17682E-04   -0.17700E-04  9568   0.408E-03-0.150E-05
CGA:  92    -0.313013367649E+03   -0.16279E-04   -0.16267E-04  9568   0.491E-03-0.153E-05
CGA:  93    -0.313013381831E+03   -0.14183E-04   -0.14184E-04  9568   0.214E-03-0.988E-06
SDA:  94    -0.313013397559E+03   -0.15728E-04   -0.15728E-04  9568   0.255E-03-0.316E-06
CGA:  95    -0.313013406950E+03   -0.93906E-05   -0.93893E-05  9568   0.245E-03-0.122E-06
CGA:  96    -0.313013417353E+03   -0.10404E-04   -0.10407E-04  9568   0.229E-03 0.248E-06
CGA:  97    -0.313013439357E+03   -0.22004E-04   -0.21999E-04  9568   0.345E-03 0.543E-08
CGA:  98    -0.313013449123E+03   -0.97656E-05   -0.97611E-05  9568   0.312E-03-0.632E-06
CGA:  99    -0.313013462009E+03   -0.12886E-04   -0.12881E-04  9568   0.203E-03-0.455E-06
CGA: 100    -0.313013475882E+03   -0.13873E-04   -0.13889E-04  9568   0.934E-04-0.980E-06
CGA: 101    -0.313013480630E+03   -0.47484E-05   -0.47485E-05  9568   0.193E-03-0.314E-06
CGA: 102    -0.313013491060E+03   -0.10430E-04   -0.10431E-04  9568   0.105E-03-0.360E-06
CGA: 103    -0.313013495481E+03   -0.44215E-05   -0.44261E-05  9568   0.155E-03 0.387E-06
   6 F= -.31301350E+03 E0= -.31299178E+03  d E =-.138030E+00  mag=    24.6921
       N       E                     dE             d eps       ncg     rms          ort
SDA:   1    -0.294876636672E+03    0.18137E+02    0.00000E+00  9568   0.945E+02 0.000E+00
CGA:   2    -0.297271403927E+03   -0.23948E+01   -0.27612E+01  9568   0.118E+03-0.129E+02
CGA:   3    -0.303202792650E+03   -0.59314E+01   -0.91978E+01  9568   0.328E+03-0.517E+02
CGA:   4    -0.306701770579E+03   -0.34990E+01   -0.33871E+01  9568   0.892E+02-0.906E+01
CGA:   5    -0.307676043559E+03   -0.97427E+00   -0.16295E+01  9568   0.721E+02-0.315E+02
CGA:   6    -0.309206437576E+03   -0.15304E+01   -0.15349E+01  9568   0.643E+02-0.526E+00
CGA:   7    -0.310789072718E+03   -0.15826E+01   -0.14975E+01  9568   0.162E+02 0.300E+01
CGA:   8    -0.311542677648E+03   -0.75360E+00   -0.74956E+00  9568   0.202E+02-0.118E+01
CGA:   9    -0.312061462079E+03   -0.51878E+00   -0.51808E+00  9568   0.218E+02-0.189E+00
CGA:  10    -0.312323406349E+03   -0.26194E+00   -0.31853E+00  9568   0.590E+01-0.264E+01
CGA:  11    -0.312479263636E+03   -0.15586E+00   -0.15098E+00  9568   0.712E+01-0.102E-01
CGA:  12    -0.312601532887E+03   -0.12227E+00   -0.10521E+00  9568   0.339E+01 0.758E+00
CGA:  13    -0.312675609239E+03   -0.74076E-01   -0.68218E-01  9568   0.448E+01 0.172E+00
CGA:  14    -0.312788039680E+03   -0.11243E+00   -0.11595E+00  9568   0.483E+01-0.429E-01
CGA:  15    -0.312837044659E+03   -0.49005E-01   -0.53984E-01  9568   0.216E+01-0.396E+00
CGA:  16    -0.312883057147E+03   -0.46012E-01   -0.46196E-01  9568   0.354E+01-0.568E-02
CGA:  17    -0.312947506353E+03   -0.64449E-01   -0.60209E-01  9568   0.150E+01 0.128E+00
CGA:  18    -0.312963246406E+03   -0.15740E-01   -0.15062E-01  9568   0.631E+00 0.535E-01
CGA:  19    -0.312978363884E+03   -0.15117E-01   -0.14991E-01  9568   0.126E+01 0.808E-03
CGA:  20    -0.313003796368E+03   -0.25432E-01   -0.25294E-01  9568   0.143E+01 0.257E-02
CGA:  21    -0.313022364189E+03   -0.18568E-01   -0.20482E-01  9568   0.111E+01-0.887E-01
CGA:  22    -0.313047575650E+03   -0.25211E-01   -0.26534E-01  9568   0.116E+01 0.449E-01
CGA:  23    -0.313065862479E+03   -0.18287E-01   -0.17848E-01  9568   0.304E+00 0.207E-01
CGA:  24    -0.313071996756E+03   -0.61343E-02   -0.60865E-02  9568   0.217E+00 0.741E-03
CGA:  25    -0.313077148640E+03   -0.51519E-02   -0.51855E-02  9568   0.215E+00 0.107E-02
CGA:  26    -0.313086117129E+03   -0.89685E-02   -0.87965E-02  9568   0.392E+00 0.124E-01
CGA:  27    -0.313096164422E+03   -0.10047E-01   -0.99207E-02  9568   0.199E+00-0.291E-02
CGA:  28    -0.313103936994E+03   -0.77726E-02   -0.77413E-02  9568   0.138E+00 0.214E-02
CGA:  29    -0.313106292194E+03   -0.23552E-02   -0.24263E-02  9568   0.536E-01-0.137E-02
CGA:  30    -0.313109279463E+03   -0.29873E-02   -0.29137E-02  9568   0.483E-01 0.270E-02
CGA:  31    -0.313110916607E+03   -0.16371E-02   -0.16377E-02  9568   0.604E-01-0.335E-03
SDA:  32    -0.313113885508E+03   -0.29689E-02   -0.29600E-02  9568   0.472E-01 0.350E-03
CGA:  33    -0.313114974433E+03   -0.10889E-02   -0.10875E-02  9568   0.227E-01-0.131E-04
CGA:  34    -0.313115767788E+03   -0.79335E-03   -0.79392E-03  9568   0.132E-01-0.111E-03
CGA:  35    -0.313116555004E+03   -0.78722E-03   -0.78642E-03  9568   0.318E-01 0.251E-04
CGA:  36    -0.313117687436E+03   -0.11324E-02   -0.11322E-02  9568   0.837E-02 0.674E-04
CGA:  37    -0.313118349006E+03   -0.66157E-03   -0.65952E-03  9568   0.760E-02 0.469E-04
CGA:  38    -0.313118709833E+03   -0.36083E-03   -0.36058E-03  9568   0.519E-02 0.137E-04
CGA:  39    -0.313118859889E+03   -0.15006E-03   -0.14971E-03  9568   0.292E-02-0.115E-04
CGA:  40    -0.313119043632E+03   -0.18374E-03   -0.18186E-03  9568   0.305E-02 0.648E-04
CGA:  41    -0.313119266124E+03   -0.22249E-03   -0.22490E-03  9568   0.385E-02-0.703E-04
CGA:  42    -0.313119345041E+03   -0.78917E-04   -0.78665E-04  9568   0.203E-02-0.580E-06
CGA:  43    -0.313119601440E+03   -0.25640E-03   -0.24653E-03  9568   0.167E-02 0.137E-03
CGA:  44    -0.313119664694E+03   -0.63254E-04   -0.63045E-04  9568   0.201E-02-0.960E-05
CGA:  45    -0.313119732616E+03   -0.67921E-04   -0.67851E-04  9568   0.120E-02-0.516E-05
CGA:  46    -0.313119775782E+03   -0.43167E-04   -0.43252E-04  9568   0.100E-02 0.448E-05
CGA:  47    -0.313119810760E+03   -0.34978E-04   -0.34954E-04  9568   0.108E-02-0.202E-05
CGA:  48    -0.313119879519E+03   -0.68759E-04   -0.68808E-04  9568   0.155E-02-0.313E-05
CGA:  49    -0.313119908265E+03   -0.28746E-04   -0.28778E-04  9568   0.413E-03-0.340E-05
CGA:  50    -0.313119933930E+03   -0.25664E-04   -0.25694E-04  9568   0.408E-03-0.206E-05
CGA:  51    -0.313119945043E+03   -0.11114E-04   -0.11095E-04  9568   0.449E-03-0.166E-05
CGA:  52    -0.313119971374E+03   -0.26331E-04   -0.26381E-04  9568   0.260E-03-0.314E-05
CGA:  53    -0.313119984554E+03   -0.13180E-04   -0.13172E-04  9568   0.517E-03 0.732E-08
CGA:  54    -0.313120001676E+03   -0.17122E-04   -0.17120E-04  9568   0.180E-03-0.428E-06
CGA:  55    -0.313120007411E+03   -0.57354E-05   -0.57385E-05  9568   0.163E-03 0.267E-06
   7 F= -.31312001E+03 E0= -.31309865E+03  d E =-.106512E+00  mag=    24.6599
       N       E                     dE             d eps       ncg     rms          ort
SDA:   1    -0.265746138388E+03    0.47374E+02    0.00000E+00  9568   0.239E+03 0.000E+00
CGA:   2    -0.274040904714E+03   -0.82948E+01   -0.78185E+01  9568   0.324E+03-0.260E+02
CGA:   3    -0.278075250412E+03   -0.40343E+01   -0.60864E+01  9568   0.567E+03-0.951E+02
CGA:   4    -0.294333587622E+03   -0.16258E+02   -0.16970E+02  9568   0.363E+03-0.148E+03
CGA:   5    -0.297957998634E+03   -0.36244E+01   -0.54266E+01  9568   0.158E+03-0.539E+02
CGA:   6    -0.301674753799E+03   -0.37168E+01   -0.33231E+01  9568   0.871E+02 0.102E+01
CGA:   7    -0.305565816546E+03   -0.38911E+01   -0.38758E+01  9568   0.180E+03 0.216E+01
CGA:   8    -0.308936219844E+03   -0.33704E+01   -0.35985E+01  9568   0.559E+02-0.215E+02
CGA:   9    -0.310152830760E+03   -0.12166E+01   -0.10784E+01  9568   0.262E+02-0.255E+00
CGA:  10    -0.310937959368E+03   -0.78513E+00   -0.71769E+00  9568   0.194E+02-0.871E+00
CGA:  11    -0.311304226398E+03   -0.36627E+00   -0.35456E+00  9568   0.238E+02 0.199E+00
CGA:  12    -0.311777685811E+03   -0.47346E+00   -0.46874E+00  9568   0.159E+02 0.185E+00
CGA:  13    -0.312082524029E+03   -0.30484E+00   -0.30753E+00  9568   0.174E+02-0.136E+00
CGA:  14    -0.312360214444E+03   -0.27769E+00   -0.22521E+00  9568   0.111E+02 0.261E+01
CGA:  15    -0.312494879331E+03   -0.13466E+00   -0.10513E+00  9568   0.562E+01 0.313E+01
CGA:  16    -0.312555739820E+03   -0.60860E-01   -0.45988E-01  9568   0.341E+01 0.208E+01
CGA:  17    -0.312603304763E+03   -0.47565E-01   -0.47482E-01  9568   0.454E+01 0.317E-02
CGA:  18    -0.312650828552E+03   -0.47524E-01   -0.54646E-01  9568   0.670E+01-0.367E+00
CGA:  19    -0.312694385413E+03   -0.43557E-01   -0.39097E-01  9568   0.536E+01 0.592E+00
CGA:  20    -0.312739335602E+03   -0.44950E-01   -0.41715E-01  9568   0.547E+01 0.345E+00
CGA:  21    -0.312779568509E+03   -0.40233E-01   -0.31632E-01  9568   0.563E+01 0.136E+01
CGA:  22    -0.312820940702E+03   -0.41372E-01   -0.33479E-01  9568   0.561E+01 0.146E+01
CGA:  23    -0.312862102049E+03   -0.41161E-01   -0.38558E-01  9568   0.664E+01 0.410E+00
CGA:  24    -0.312896135501E+03   -0.34033E-01   -0.34799E-01  9568   0.710E+01-0.155E+00
CGA:  25    -0.312921053062E+03   -0.24918E-01   -0.33913E-01  9568   0.596E+01-0.162E+01
CGA:  26    -0.312934714445E+03   -0.13661E-01   -0.21603E-01  9568   0.396E+01-0.141E+01
CGA:  27    -0.312945713623E+03   -0.10999E-01   -0.11721E-01  9568   0.239E+01-0.158E+00
CGA:  28    -0.312955926177E+03   -0.10213E-01   -0.98585E-02  9568   0.179E+01 0.708E-01
CGA:  29    -0.312966514744E+03   -0.10589E-01   -0.10211E-01  9568   0.211E+01 0.533E-01
CGA:  30    -0.312979907250E+03   -0.13393E-01   -0.13149E-01  9568   0.269E+01 0.258E-01
CGA:  31    -0.312993699910E+03   -0.13793E-01   -0.14002E-01  9568   0.233E+01-0.457E-01
SDA:  32    -0.313003030636E+03   -0.93307E-02   -0.94357E-02  9568   0.150E+01-0.286E-01
CGA:  33    -0.313029297125E+03   -0.26266E-01   -0.26264E-01  9568   0.598E+00 0.178E-02
CGA:  34    -0.313047181543E+03   -0.17884E-01   -0.17475E-01  9568   0.470E+00 0.304E-01
CGA:  35    -0.313071397629E+03   -0.24216E-01   -0.23574E-01  9568   0.671E+00 0.238E-01
CGA:  36    -0.313104433104E+03   -0.33035E-01   -0.33122E-01  9568   0.454E+00-0.324E-02
CGA:  37    -0.313111857338E+03   -0.74242E-02   -0.74186E-02  9568   0.838E-01-0.565E-03
CGA:  38    -0.313116473849E+03   -0.46165E-02   -0.45317E-02  9568   0.590E-01 0.270E-02
CGA:  39    -0.313118930206E+03   -0.24564E-02   -0.24275E-02  9568   0.114E+00 0.150E-02
CGA:  40    -0.313123740277E+03   -0.48101E-02   -0.47540E-02  9568   0.483E-01 0.286E-02
CGA:  41    -0.313126761301E+03   -0.30210E-02   -0.29501E-02  9568   0.668E-01 0.213E-02
CGA:  42    -0.313128185750E+03   -0.14244E-02   -0.14227E-02  9568   0.227E-01-0.353E-04
CGA:  43    -0.313131817624E+03   -0.36319E-02   -0.24779E-03  9568   0.859E-01 0.111E-02
CGA:  44    -0.313133498286E+03   -0.16807E-02   -0.16278E-02  9568   0.262E-01 0.195E-02
CGA:  45    -0.313135062582E+03   -0.15643E-02   -0.15574E-02  9568   0.259E-01 0.370E-03
CGA:  46    -0.313136070820E+03   -0.10082E-02   -0.10086E-02  9568   0.201E-01 0.296E-04
CGA:  47    -0.313136932332E+03   -0.86151E-03   -0.86269E-03  9568   0.294E-01 0.304E-03
CGA:  48    -0.313138102587E+03   -0.11703E-02   -0.11705E-02  9568   0.186E-01 0.425E-04
CGA:  49    -0.313139685968E+03   -0.15834E-02   -0.15802E-02  9568   0.493E-01 0.415E-04
CGA:  50    -0.313140887787E+03   -0.12018E-02   -0.12167E-02  9568   0.111E-01-0.108E-03
CGA:  51    -0.313142197571E+03   -0.13098E-02   -0.12902E-02  9568   0.271E-01 0.249E-03
CGA:  52    -0.313143071685E+03   -0.87411E-03   -0.86178E-03  9568   0.226E-01 0.139E-03
CGA:  53    -0.313144239981E+03   -0.11683E-02   -0.11746E-02  9568   0.131E-01-0.917E-03
CGA:  54    -0.313144845415E+03   -0.60543E-03   -0.60527E-03  9568   0.102E-01 0.978E-03
CGA:  55    -0.313145501297E+03   -0.65588E-03   -0.66535E-03  9568   0.195E-01-0.534E-03
CGA:  56    -0.313146066854E+03   -0.56556E-03   -0.57354E-03  9568   0.808E-02-0.851E-05
CGA:  57    -0.313146393566E+03   -0.32671E-03   -0.32846E-03  9568   0.875E-02 0.720E-04
CGA:  58    -0.313146701165E+03   -0.30760E-03   -0.30692E-03  9568   0.620E-02-0.238E-04
CGA:  59    -0.313147116590E+03   -0.41542E-03   -0.41591E-03  9568   0.987E-02-0.223E-04
CGA:  60    -0.313147350270E+03   -0.23368E-03   -0.23222E-03  9568   0.479E-02 0.199E-04
CGA:  61    -0.313147628974E+03   -0.27870E-03   -0.28001E-03  9568   0.348E-02-0.855E-04
CGA:  62    -0.313147780343E+03   -0.15137E-03   -0.15140E-03  9568   0.459E-02-0.220E-06
SDA:  63    -0.313147909758E+03   -0.12942E-03   -0.12996E-03  9568   0.227E-02-0.114E-04
CGA:  64    -0.313147990861E+03   -0.81104E-04   -0.80911E-04  9568   0.213E-02-0.476E-05
CGA:  65    -0.313148063678E+03   -0.72817E-04   -0.72886E-04  9568   0.212E-02 0.133E-05
CGA:  66    -0.313148231889E+03   -0.16821E-03   -0.16790E-03  9568   0.212E-02 0.794E-05
CGA:  67    -0.313148397645E+03   -0.16576E-03   -0.16574E-03  9568   0.158E-02 0.751E-06
CGA:  68    -0.313148452524E+03   -0.54879E-04   -0.54925E-04  9568   0.147E-02 0.181E-05
CGA:  69    -0.313148511947E+03   -0.59423E-04   -0.59418E-04  9568   0.816E-03 0.118E-05
CGA:  70    -0.313148553152E+03   -0.41205E-04   -0.41197E-04  9568   0.175E-02 0.248E-05
CGA:  71    -0.313148640836E+03   -0.87684E-04   -0.87673E-04  9568   0.609E-03 0.289E-05
CGA:  72    -0.313148693236E+03   -0.52400E-04   -0.52611E-04  9568   0.359E-03-0.553E-05
CGA:  73    -0.313148722274E+03   -0.29038E-04   -0.29188E-04  9568   0.872E-03-0.483E-05
CGA:  74    -0.313148746755E+03   -0.24481E-04   -0.24380E-04  9568   0.277E-03-0.410E-05
CGA:  75    -0.313148760153E+03   -0.13397E-04   -0.13397E-04  9568   0.426E-03-0.238E-06
CGA:  76    -0.313148775606E+03   -0.15453E-04   -0.15451E-04  9568   0.259E-03 0.355E-06
CGA:  77    -0.313148787284E+03   -0.11678E-04   -0.11686E-04  9568   0.105E-03 0.200E-05
CGA:  78    -0.313148795320E+03   -0.80361E-05   -0.79543E-05  9568   0.772E-04 0.298E-05
   8 F= -.31314880E+03 E0= -.31312824E+03  d E =-.287879E-01  mag=    24.6928
       N       E                     dE             d eps       ncg     rms          ort
SDA:   1    -0.299259448614E+03    0.13889E+02    0.00000E+00  9568   0.178E+03 0.000E+00
CGA:   2    -0.302380647287E+03   -0.31212E+01   -0.45016E+01  9568   0.910E+02-0.223E+02
CGA:   3    -0.305747747078E+03   -0.33671E+01   -0.34644E+01  9568   0.621E+02 0.631E+01
CGA:   4    -0.308402986863E+03   -0.26552E+01   -0.28258E+01  9568   0.264E+02 0.117E+02
CGA:   5    -0.309797901477E+03   -0.13949E+01   -0.12224E+01  9568   0.386E+02-0.421E+01
CGA:   6    -0.310057804997E+03   -0.25990E+00   -0.37858E+00  9568   0.800E+02-0.111E+02
CGA:   7    -0.310637564825E+03   -0.57976E+00   -0.77137E+00  9568   0.688E+02-0.113E+02
CGA:   8    -0.310790311117E+03   -0.15275E+00   -0.79916E+00  9568   0.112E+03-0.358E+02
CGA:   9    -0.311847877165E+03   -0.10576E+01   -0.18644E+01  9568   0.417E+02-0.496E+02
CGA:  10    -0.312448618409E+03   -0.60074E+00   -0.48067E+00  9568   0.693E+01 0.361E+01
CGA:  11    -0.312547119585E+03   -0.98501E-01   -0.11819E+00  9568   0.454E+01-0.923E+00
CGA:  12    -0.312681005715E+03   -0.13389E+00   -0.13673E+00  9568   0.519E+01 0.239E+00
CGA:  13    -0.312809385737E+03   -0.12838E+00   -0.12106E+00  9568   0.488E+01 0.874E-01
CGA:  14    -0.312977146689E+03   -0.16776E+00   -0.15752E+00  9568   0.273E+01-0.450E+00
CGA:  15    -0.313064838979E+03   -0.87692E-01   -0.88271E-01  9568   0.121E+01 0.118E+00
CGA:  16    -0.313086631135E+03   -0.21792E-01   -0.22739E-01  9568   0.640E+00-0.298E-01
CGA:  17    -0.313140003074E+03   -0.53372E-01   -0.54126E-01  9568   0.812E+00-0.180E-01
CGA:  18    -0.313182970223E+03   -0.42967E-01   -0.41925E-01  9568   0.733E+00 0.561E-01
CGA:  19    -0.313200276999E+03   -0.17307E-01   -0.17724E-01  9568   0.286E+00-0.575E-02
CGA:  20    -0.313210576068E+03   -0.10299E-01   -0.10329E-01  9568   0.182E+00 0.500E-02
CGA:  21    -0.313219821745E+03   -0.92457E-02   -0.92464E-02  9568   0.236E+00 0.804E-04
CGA:  22    -0.313227515429E+03   -0.76937E-02   -0.77351E-02  9568   0.136E+00 0.191E-02
CGA:  23    -0.313234020317E+03   -0.65049E-02   -0.64942E-02  9568   0.841E-01 0.922E-03
CGA:  24    -0.313236257466E+03   -0.22371E-02   -0.22648E-02  9568   0.528E-01 0.882E-04
CGA:  25    -0.313239718005E+03   -0.34605E-02   -0.34577E-02  9568   0.730E-01 0.101E-03
CGA:  26    -0.313242242608E+03   -0.25246E-02   -0.25305E-02  9568   0.516E-01 0.383E-03
CGA:  27    -0.313244342128E+03   -0.20995E-02   -0.20996E-02  9568   0.299E-01-0.105E-03
CGA:  28    -0.313245373983E+03   -0.10319E-02   -0.10342E-02  9568   0.176E-01 0.167E-03
CGA:  29    -0.313245975467E+03   -0.60148E-03   -0.60108E-03  9568   0.131E-01-0.139E-04
CGA:  30    -0.313246785354E+03   -0.80989E-03   -0.80656E-03  9568   0.176E-01 0.135E-03
CGA:  31    -0.313247314202E+03   -0.52885E-03   -0.52830E-03  9568   0.712E-02-0.300E-06
CGA:  32    -0.313247647052E+03   -0.33285E-03   -0.33257E-03  9568   0.629E-02 0.306E-04
CGA:  33    -0.313247848612E+03   -0.20156E-03   -0.20135E-03  9568   0.379E-02-0.640E-05
CGA:  34    -0.313248043857E+03   -0.19525E-03   -0.19504E-03  9568   0.410E-02 0.142E-04
CGA:  35    -0.313248194754E+03   -0.15090E-03   -0.15085E-03  9568   0.339E-02-0.540E-05
CGA:  36    -0.313248375863E+03   -0.18111E-03   -0.18091E-03  9568   0.248E-02 0.124E-04
CGA:  37    -0.313248442705E+03   -0.66842E-04   -0.66807E-04  9568   0.114E-02-0.203E-06
CGA:  38    -0.313248511294E+03   -0.68589E-04   -0.68471E-04  9568   0.178E-02 0.587E-05
SDA:  39    -0.313248584159E+03   -0.72864E-04   -0.72864E-04  9568   0.131E-02 0.623E-06
CGA:  40    -0.313248604737E+03   -0.20579E-04   -0.20631E-04  9568   0.360E-03-0.215E-06
CGA:  41    -0.313248626326E+03   -0.21589E-04   -0.21573E-04  9568   0.405E-03 0.644E-06
CGA:  42    -0.313248662193E+03   -0.35867E-04   -0.35883E-04  9568   0.896E-03-0.518E-06
CGA:  43    -0.313248696120E+03   -0.33926E-04   -0.33923E-04  9568   0.709E-03-0.850E-07
CGA:  44    -0.313248723615E+03   -0.27495E-04   -0.27507E-04  9568   0.174E-03 0.119E-05
CGA:  45    -0.313248739332E+03   -0.15717E-04   -0.15632E-04  9568   0.299E-03 0.169E-05
CGA:  46    -0.313248747066E+03   -0.77338E-05   -0.77304E-05  9568   0.217E-03 0.264E-06
CGA:  47    -0.313248762865E+03   -0.15800E-04   -0.15770E-04  9568   0.105E-03 0.957E-06
CGA:  48    -0.313248773354E+03   -0.10489E-04   -0.10540E-04  9568   0.637E-04-0.101E-05
CGA:  49    -0.313248777013E+03   -0.36585E-05   -0.36595E-05  9568   0.153E-03-0.198E-06
   9 F= -.31324878E+03 E0= -.31322798E+03  d E =-.999817E-01  mag=    24.6619
       N       E                     dE             d eps       ncg     rms          ort
SDA:   1    -0.312666824812E+03    0.58195E+00    0.00000E+00  9568   0.485E+01 0.000E+00
CGA:   2    -0.312792173095E+03   -0.12535E+00   -0.13832E+00  9568   0.330E+01-0.127E+00
CGA:   3    -0.312946860597E+03   -0.15469E+00   -0.15479E+00  9568   0.306E+01-0.521E-01
CGA:   4    -0.313073224584E+03   -0.12636E+00   -0.12637E+00  9568   0.131E+01 0.612E-03
CGA:   5    -0.313111682502E+03   -0.38458E-01   -0.40329E-01  9568   0.126E+01-0.270E-02
CGA:   6    -0.313183976529E+03   -0.72294E-01   -0.72544E-01  9568   0.991E+00-0.146E-01
CGA:   7    -0.313212310697E+03   -0.28334E-01   -0.28097E-01  9568   0.537E+00 0.133E-02
CGA:   8    -0.313238752153E+03   -0.26441E-01   -0.26656E-01  9568   0.234E+00-0.331E-01
CGA:   9    -0.313245895910E+03   -0.71438E-02   -0.71295E-02  9568   0.166E+00-0.962E-04
CGA:  10    -0.313254169364E+03   -0.82735E-02   -0.82746E-02  9568   0.111E+00-0.133E-03
CGA:  11    -0.313256975218E+03   -0.28059E-02   -0.28458E-02  9568   0.519E-01-0.557E-03
CGA:  12    -0.313258885715E+03   -0.19105E-02   -0.19077E-02  9568   0.314E-01-0.106E-03
CGA:  13    -0.313260157287E+03   -0.12716E-02   -0.12718E-02  9568   0.226E-01 0.309E-04
CGA:  14    -0.313261054497E+03   -0.89721E-03   -0.89734E-03  9568   0.132E-01 0.170E-04
CGA:  15    -0.313261687189E+03   -0.63269E-03   -0.63257E-03  9568   0.967E-02 0.252E-04
CGA:  16    -0.313261997566E+03   -0.31038E-03   -0.31018E-03  9568   0.559E-02-0.119E-05
CGA:  17    -0.313262243532E+03   -0.24597E-03   -0.24594E-03  9568   0.527E-02 0.232E-04
CGA:  18    -0.313262414876E+03   -0.17134E-03   -0.17121E-03  9568   0.371E-02 0.131E-05
CGA:  19    -0.313262621688E+03   -0.20681E-03   -0.20666E-03  9568   0.266E-02 0.105E-04
CGA:  20    -0.313262696234E+03   -0.74546E-04   -0.74616E-04  9568   0.118E-02 0.111E-05
CGA:  21    -0.313262793062E+03   -0.96828E-04   -0.96538E-04  9568   0.186E-02 0.745E-05
CGA:  22    -0.313262850403E+03   -0.57341E-04   -0.57331E-04  9568   0.892E-03-0.240E-06
CGA:  23    -0.313262887551E+03   -0.37148E-04   -0.37153E-04  9568   0.863E-03 0.704E-06
CGA:  24    -0.313262917407E+03   -0.29857E-04   -0.29836E-04  9568   0.510E-03-0.210E-05
CGA:  25    -0.313262937954E+03   -0.20547E-04   -0.20547E-04  9568   0.364E-03-0.594E-07
CGA:  26    -0.313262957883E+03   -0.19929E-04   -0.19940E-04  9568   0.403E-03-0.102E-05
CGA:  27    -0.313262971959E+03   -0.14076E-04   -0.14076E-04  9568   0.143E-03-0.146E-08
CGA:  28    -0.313262978424E+03   -0.64656E-05   -0.64667E-05  9568   0.188E-03-0.731E-06
  10 F= -.31326298E+03 E0= -.31324239E+03  d E =-.142014E-01  mag=    24.6740
       N       E                     dE             d eps       ncg     rms          ort
SDA:   1    -0.312802692119E+03    0.46028E+00    0.00000E+00  9568   0.355E+01 0.000E+00
CGA:   2    -0.312881837789E+03   -0.79146E-01   -0.83303E-01  9568   0.228E+01-0.787E-01
CGA:   3    -0.313025870602E+03   -0.14403E+00   -0.14346E+00  9568   0.254E+01 0.236E-01
CGA:   4    -0.313112585398E+03   -0.86715E-01   -0.88167E-01  9568   0.166E+01 0.372E-01
CGA:   5    -0.313156992645E+03   -0.44407E-01   -0.43890E-01  9568   0.751E+00 0.247E-02
CGA:   6    -0.313221644039E+03   -0.64651E-01   -0.63968E-01  9568   0.481E+00 0.150E-01
CGA:   7    -0.313240988593E+03   -0.19345E-01   -0.19373E-01  9568   0.493E+00 0.221E-02
CGA:   8    -0.313257672847E+03   -0.16684E-01   -0.16288E-01  9568   0.864E-01-0.524E-02
CGA:   9    -0.313264126871E+03   -0.64540E-02   -0.63686E-02  9568   0.102E+00 0.251E-02
CGA:  10    -0.313267051660E+03   -0.29248E-02   -0.29128E-02  9568   0.586E-01 0.814E-04
CGA:  11    -0.313268957905E+03   -0.19062E-02   -0.19125E-02  9568   0.246E-01 0.818E-04
CGA:  12    -0.313269930832E+03   -0.97293E-03   -0.97331E-03  9568   0.216E-01 0.405E-04
CGA:  13    -0.313270623956E+03   -0.69312E-03   -0.69356E-03  9568   0.909E-02 0.120E-04
CGA:  14    -0.313271350279E+03   -0.72632E-03   -0.72804E-03  9568   0.745E-02-0.438E-04
CGA:  15    -0.313271592840E+03   -0.24256E-03   -0.24287E-03  9568   0.512E-02 0.674E-05
CGA:  16    -0.313271787973E+03   -0.19513E-03   -0.19522E-03  9568   0.241E-02 0.820E-05
CGA:  17    -0.313271921869E+03   -0.13390E-03   -0.13394E-03  9568   0.445E-02-0.201E-05
CGA:  18    -0.313272063653E+03   -0.14178E-03   -0.14204E-03  9568   0.191E-02 0.654E-05
CGA:  19    -0.313272146531E+03   -0.82878E-04   -0.82881E-04  9568   0.107E-02 0.399E-05
CGA:  20    -0.313272190575E+03   -0.44044E-04   -0.44047E-04  9568   0.119E-02 0.120E-05
CGA:  21    -0.313272252000E+03   -0.61425E-04   -0.61431E-04  9568   0.633E-03-0.938E-06
CGA:  22    -0.313272293251E+03   -0.41251E-04   -0.41266E-04  9568   0.914E-03-0.889E-06
CGA:  23    -0.313272316184E+03   -0.22933E-04   -0.22948E-04  9568   0.349E-03-0.266E-06
CGA:  24    -0.313272332005E+03   -0.15822E-04   -0.15822E-04  9568   0.334E-03-0.532E-06
CGA:  25    -0.313272343851E+03   -0.11846E-04   -0.11852E-04  9568   0.273E-03 0.593E-06
CGA:  26    -0.313272360166E+03   -0.16314E-04   -0.16303E-04  9568   0.145E-03 0.652E-06
CGA:  27    -0.313272366792E+03   -0.66268E-05   -0.66268E-05  9568   0.116E-03 0.577E-07
  11 F= -.31327237E+03 E0= -.31325187E+03  d E =-.938837E-02  mag=    24.6785
       N       E                     dE             d eps       ncg     rms          ort
SDA:   1    -0.312426757722E+03    0.84560E+00    0.00000E+00  9568   0.353E+01 0.000E+00
CGA:   2    -0.312553951836E+03   -0.12719E+00   -0.12793E+00  9568   0.509E+01 0.244E-01
CGA:   3    -0.312959069579E+03   -0.40512E+00   -0.40266E+00  9568   0.333E+01 0.659E-01
CGA:   4    -0.313063121363E+03   -0.10405E+00   -0.10643E+00  9568   0.234E+01 0.654E-02
CGA:   5    -0.313128645732E+03   -0.65524E-01   -0.64428E-01  9568   0.155E+01 0.352E-02
CGA:   6    -0.313225150579E+03   -0.96505E-01   -0.94836E-01  9568   0.945E+00 0.730E-01
CGA:   7    -0.313242802664E+03   -0.17652E-01   -0.19090E-01  9568   0.484E+00-0.466E-01
CGA:   8    -0.313263785462E+03   -0.20983E-01   -0.21065E-01  9568   0.172E+00-0.188E-01
CGA:   9    -0.313274247296E+03   -0.10462E-01   -0.10416E-01  9568   0.154E+00 0.191E-02
CGA:  10    -0.313278155097E+03   -0.39078E-02   -0.39720E-02  9568   0.100E+00-0.797E-03
CGA:  11    -0.313281550980E+03   -0.33959E-02   -0.33847E-02  9568   0.307E-01-0.247E-03
CGA:  12    -0.313283344010E+03   -0.17930E-02   -0.17871E-02  9568   0.274E-01 0.302E-03
CGA:  13    -0.313284170275E+03   -0.82627E-03   -0.82727E-03  9568   0.197E-01 0.937E-05
CGA:  14    -0.313285252393E+03   -0.10821E-02   -0.10822E-02  9568   0.899E-02-0.494E-05
CGA:  15    -0.313285553132E+03   -0.30074E-03   -0.30134E-03  9568   0.821E-02 0.163E-04
CGA:  16    -0.313285801793E+03   -0.24866E-03   -0.24872E-03  9568   0.385E-02 0.366E-05
CGA:  17    -0.313286095463E+03   -0.29367E-03   -0.29342E-03  9568   0.294E-02 0.677E-05
CGA:  18    -0.313286265223E+03   -0.16976E-03   -0.16962E-03  9568   0.239E-02 0.775E-05
CGA:  19    -0.313286329150E+03   -0.63927E-04   -0.63951E-04  9568   0.136E-02-0.267E-06
CGA:  20    -0.313286429334E+03   -0.10018E-03   -0.10022E-03  9568   0.160E-02-0.816E-06
CGA:  21    -0.313286482360E+03   -0.53026E-04   -0.53014E-04  9568   0.153E-02-0.828E-06
CGA:  22    -0.313286539470E+03   -0.57111E-04   -0.57176E-04  9568   0.662E-03 0.342E-05
CGA:  23    -0.313286590014E+03   -0.50544E-04   -0.50571E-04  9568   0.593E-03-0.808E-06
CGA:  24    -0.313286616718E+03   -0.26703E-04   -0.26704E-04  9568   0.689E-03 0.574E-06
CGA:  25    -0.313286643540E+03   -0.26822E-04   -0.26837E-04  9568   0.389E-03 0.179E-05
CGA:  26    -0.313286668307E+03   -0.24767E-04   -0.24753E-04  9568   0.275E-03 0.660E-06
CGA:  27    -0.313286675175E+03   -0.68682E-05   -0.68947E-05  9568   0.202E-03 0.706E-06
CGA:  28    -0.313286688818E+03   -0.13643E-04   -0.13608E-04  9568   0.174E-03 0.145E-05
CGA:  29    -0.313286697235E+03   -0.84170E-05   -0.84157E-05  9568   0.120E-03 0.648E-06
  12 F= -.31328670E+03 E0= -.31326625E+03  d E =-.143304E-01  mag=    24.6794
       N       E                     dE             d eps       ncg     rms          ort
SDA:   1    -0.293916327485E+03    0.19370E+02    0.00000E+00  9568   0.994E+02 0.000E+00
CGA:   2    -0.296948666896E+03   -0.30323E+01   -0.35445E+01  9568   0.975E+02 0.117E+02
CGA:   3    -0.303791061493E+03   -0.68424E+01   -0.69143E+01  9568   0.114E+03-0.608E+01
CGA:   4    -0.308265643945E+03   -0.44746E+01   -0.43936E+01  9568   0.639E+02-0.866E+01
CGA:   5    -0.309312613349E+03   -0.10470E+01   -0.95463E+00  9568   0.468E+02 0.915E+00
CGA:   6    -0.310302512354E+03   -0.98990E+00   -0.72419E+00  9568   0.251E+02 0.115E+02
CGA:   7    -0.311032861494E+03   -0.73035E+00   -0.71570E+00  9568   0.311E+02-0.723E+00
CGA:   8    -0.311799735475E+03   -0.76687E+00   -0.83087E+00  9568   0.651E+02-0.161E+00
CGA:   9    -0.312381740392E+03   -0.58200E+00   -0.71625E+00  9568   0.253E+02-0.119E+02
CGA:  10    -0.312626431104E+03   -0.24469E+00   -0.24849E+00  9568   0.700E+01-0.743E+00
CGA:  11    -0.312734195804E+03   -0.10776E+00   -0.12348E+00  9568   0.748E+01-0.512E+00
CGA:  12    -0.312861463870E+03   -0.12727E+00   -0.12576E+00  9568   0.576E+01 0.354E-01
CGA:  13    -0.312959234762E+03   -0.97771E-01   -0.90099E-01  9568   0.343E+01 0.292E+00
CGA:  14    -0.313045743302E+03   -0.86509E-01   -0.90156E-01  9568   0.430E+01 0.288E-01
CGA:  15    -0.313131041464E+03   -0.85298E-01   -0.85769E-01  9568   0.383E+01-0.168E-02
CGA:  16    -0.313188337087E+03   -0.57296E-01   -0.55264E-01  9568   0.140E+01 0.737E-01
CGA:  17    -0.313206633501E+03   -0.18296E-01   -0.19240E-01  9568   0.668E+00-0.478E-01
CGA:  18    -0.313222365001E+03   -0.15731E-01   -0.15875E-01  9568   0.869E+00 0.356E-02
CGA:  19    -0.313245600987E+03   -0.23236E-01   -0.23185E-01  9568   0.996E+00-0.236E-02
CGA:  20    -0.313267953857E+03   -0.22353E-01   -0.22721E-01  9568   0.879E+00 0.616E-02
CGA:  21    -0.313286047737E+03   -0.18094E-01   -0.18488E-01  9568   0.554E+00 0.328E-03
CGA:  22    -0.313295892467E+03   -0.98447E-02   -0.97340E-02  9568   0.207E+00 0.194E-02
CGA:  23    -0.313301017215E+03   -0.51247E-02   -0.51258E-02  9568   0.236E+00 0.735E-04
CGA:  24    -0.313308731830E+03   -0.77146E-02   -0.76770E-02  9568   0.234E+00 0.778E-02
CGA:  25    -0.313314139277E+03   -0.54074E-02   -0.54789E-02  9568   0.173E+00 0.194E-02
CGA:  26    -0.313319696544E+03   -0.55573E-02   -0.55711E-02  9568   0.161E+00-0.327E-02
CGA:  27    -0.313323037779E+03   -0.33412E-02   -0.33794E-02  9568   0.814E-01 0.618E-03
CGA:  28    -0.313325185198E+03   -0.21474E-02   -0.21527E-02  9568   0.809E-01 0.767E-03
CGA:  29    -0.313328111692E+03   -0.29265E-02   -0.29278E-02  9568   0.629E-01-0.128E-03
CGA:  30    -0.313329442146E+03   -0.13305E-02   -0.13294E-02  9568   0.349E-01-0.119E-04
CGA:  31    -0.313330729689E+03   -0.12875E-02   -0.12761E-02  9568   0.433E-01 0.108E-02
SDA:  32    -0.313332204972E+03   -0.14753E-02   -0.14737E-02  9568   0.355E-01 0.285E-03
CGA:  33    -0.313332758484E+03   -0.55351E-03   -0.55121E-03  9568   0.882E-02 0.588E-04
CGA:  34    -0.313333374999E+03   -0.61651E-03   -0.61658E-03  9568   0.128E-01-0.469E-05
CGA:  35    -0.313334231404E+03   -0.85641E-03   -0.84219E-03  9568   0.937E-02 0.416E-03
CGA:  36    -0.313334893544E+03   -0.66214E-03   -0.66186E-03  9568   0.103E-01 0.773E-05
CGA:  37    -0.313335134649E+03   -0.24111E-03   -0.24137E-03  9568   0.389E-02 0.152E-05
CGA:  38    -0.313335359396E+03   -0.22475E-03   -0.22362E-03  9568   0.238E-02 0.436E-04
CGA:  39    -0.313335571579E+03   -0.21218E-03   -0.21192E-03  9568   0.732E-02 0.439E-05
CGA:  40    -0.313335779687E+03   -0.20811E-03   -0.20868E-03  9568   0.248E-02 0.173E-04
CGA:  41    -0.313336091541E+03   -0.31185E-03   -0.31151E-03  9568   0.274E-02 0.238E-05
CGA:  42    -0.313336174310E+03   -0.82769E-04   -0.82740E-04  9568   0.216E-02 0.292E-05
CGA:  43    -0.313336279767E+03   -0.10546E-03   -0.10522E-03  9568   0.165E-02 0.212E-04
CGA:  44    -0.313336385880E+03   -0.10611E-03   -0.10603E-03  9568   0.114E-02 0.350E-05
CGA:  45    -0.313336428252E+03   -0.42372E-04   -0.42366E-04  9568   0.105E-02-0.303E-06
CGA:  46    -0.313336464120E+03   -0.35868E-04   -0.35916E-04  9568   0.855E-03 0.227E-05
CGA:  47    -0.313336574769E+03   -0.11065E-03   -0.11056E-03  9568   0.257E-03 0.103E-05
CGA:  48    -0.313336584654E+03   -0.98857E-05   -0.98829E-05  9568   0.274E-03-0.868E-06
CGA:  49    -0.313336595784E+03   -0.11129E-04   -0.11122E-04  9568   0.214E-03-0.217E-05
CGA:  50    -0.313336616358E+03   -0.20574E-04   -0.20697E-04  9568   0.175E-03-0.261E-05
CGA:  51    -0.313336621611E+03   -0.52530E-05   -0.52403E-05  9568   0.106E-03-0.829E-06
  13 F= -.31333662E+03 E0= -.31331640E+03  d E =-.499244E-01  mag=    24.6819
       N       E                     dE             d eps       ncg     rms          ort
SDA:   1    -0.249544872107E+03    0.63792E+02    0.00000E+00  9568   0.480E+03 0.000E+00
CGA:   2    -0.268862825203E+03   -0.19318E+02   -0.29897E+02  9568   0.447E+03-0.128E+03
CGA:   3    -0.284675062390E+03   -0.15812E+02   -0.15680E+02  9568   0.385E+03 0.107E+03
CGA:   4    -0.294035369855E+03   -0.93603E+01   -0.13891E+02  9568   0.905E+02 0.520E+01
CGA:   5    -0.298919520005E+03   -0.48842E+01   -0.21654E+01  9568   0.118E+03 0.158E+03
CGA:   6    -0.301469397462E+03   -0.25499E+01   -0.11730E+01  9568   0.656E+02 0.113E+03
CGA:   7    -0.302836636855E+03   -0.13672E+01   -0.98456E+00  9568   0.385E+02 0.149E+02
CGA:   8    -0.304485538421E+03   -0.16489E+01   -0.15114E+01  9568   0.971E+02-0.451E+01
CGA:   9    -0.305266225812E+03   -0.78069E+00   -0.14221E+01  9568   0.142E+03-0.227E+02
CGA:  10    -0.306395971556E+03   -0.11297E+01   -0.11739E+01  9568   0.121E+03-0.363E+01
CGA:  11    -0.308089643526E+03   -0.16937E+01   -0.14140E+01  9568   0.850E+02 0.315E+00
CGA:  12    -0.308447213893E+03   -0.35757E+00   -0.65463E+00  9568   0.498E+02-0.448E+02
CGA:  13    -0.309829719589E+03   -0.13825E+01   -0.12845E+01  9568   0.339E+02-0.370E+01
CGA:  14    -0.310811908546E+03   -0.98219E+00   -0.86751E+00  9568   0.187E+02-0.288E+01
CGA:  15    -0.311207270298E+03   -0.39536E+00   -0.39640E+00  9568   0.173E+02-0.852E-01
CGA:  16    -0.311897675048E+03   -0.69040E+00   -0.68041E+00  9568   0.145E+02 0.123E+01
CGA:  17    -0.312066750460E+03   -0.16908E+00   -0.18521E+00  9568   0.349E+01-0.109E+01
CGA:  18    -0.312264814620E+03   -0.19806E+00   -0.21965E+00  9568   0.820E+01-0.668E+00
CGA:  19    -0.312433416999E+03   -0.16860E+00   -0.16788E+00  9568   0.648E+01-0.218E-01
CGA:  20    -0.312563488036E+03   -0.13007E+00   -0.13445E+00  9568   0.621E+01-0.393E-01
CGA:  21    -0.312698601548E+03   -0.13511E+00   -0.13112E+00  9568   0.186E+01 0.441E-01
CGA:  22    -0.312755723449E+03   -0.57122E-01   -0.56985E-01  9568   0.272E+01-0.184E-01
CGA:  23    -0.312891674596E+03   -0.13595E+00   -0.14017E+00  9568   0.253E+01-0.199E+00
CGA:  24    -0.312954957984E+03   -0.63283E-01   -0.63433E-01  9568   0.173E+01 0.357E-02
CGA:  25    -0.312998700452E+03   -0.43742E-01   -0.43565E-01  9568   0.110E+01 0.188E-02
CGA:  26    -0.313030253849E+03   -0.31553E-01   -0.31480E-01  9568   0.555E+00-0.479E-02
CGA:  27    -0.313048878814E+03   -0.18625E-01   -0.18619E-01  9568   0.905E+00 0.603E-02
CGA:  28    -0.313081209986E+03   -0.32331E-01   -0.32260E-01  9568   0.366E+00 0.196E-01
CGA:  29    -0.313092293091E+03   -0.11083E-01   -0.11120E-01  9568   0.465E+00 0.407E-02
CGA:  30    -0.313111857230E+03   -0.19564E-01   -0.19707E-01  9568   0.289E+00-0.116E-01
CGA:  31    -0.313120685654E+03   -0.88284E-02   -0.88293E-02  9568   0.210E+00 0.219E-03
CGA:  32    -0.313129218137E+03   -0.85325E-02   -0.84782E-02  9568   0.205E+00 0.533E-02
CGA:  33    -0.313134700758E+03   -0.54826E-02   -0.55079E-02  9568   0.962E-01 0.853E-03
CGA:  34    -0.313140806429E+03   -0.61057E-02   -0.59593E-02  9568   0.798E-01 0.482E-02
CGA:  35    -0.313143086140E+03   -0.22797E-02   -0.22624E-02  9568   0.659E-01-0.430E-03
CGA:  36    -0.313146112391E+03   -0.30263E-02   -0.30238E-02  9568   0.608E-01 0.152E-03
CGA:  37    -0.313148383027E+03   -0.22706E-02   -0.22634E-02  9568   0.272E-01 0.187E-02
CGA:  38    -0.313149900762E+03   -0.15177E-02   -0.15192E-02  9568   0.338E-01-0.722E-04
CGA:  39    -0.313150675281E+03   -0.77452E-03   -0.77365E-03  9568   0.140E-01 0.503E-05
CGA:  40    -0.313151688366E+03   -0.10131E-02   -0.10132E-02  9568   0.243E-01-0.523E-05
CGA:  41    -0.313152378550E+03   -0.69018E-03   -0.69193E-03  9568   0.141E-01 0.408E-04
CGA:  42    -0.313153126295E+03   -0.74774E-03   -0.74457E-03  9568   0.164E-01 0.140E-03
SDA:  43    -0.313153760211E+03   -0.63392E-03   -0.63389E-03  9568   0.891E-02 0.248E-04
CGA:  44    -0.313153916682E+03   -0.15647E-03   -0.15716E-03  9568   0.364E-02-0.230E-04
CGA:  45    -0.313154184741E+03   -0.26806E-03   -0.26762E-03  9568   0.488E-02 0.109E-04
CGA:  46    -0.313154470268E+03   -0.28553E-03   -0.28630E-03  9568   0.550E-02-0.348E-04
CGA:  47    -0.313154647173E+03   -0.17690E-03   -0.17706E-03  9568   0.390E-02 0.358E-05
CGA:  48    -0.313154805189E+03   -0.15802E-03   -0.15799E-03  9568   0.207E-02 0.147E-04
CGA:  49    -0.313155006143E+03   -0.20095E-03   -0.19927E-03  9568   0.282E-02 0.285E-04
CGA:  50    -0.313155079966E+03   -0.73823E-04   -0.74015E-04  9568   0.225E-02 0.123E-04
CGA:  51    -0.313155233015E+03   -0.15305E-03   -0.15185E-03  9568   0.143E-02 0.427E-04
CGA:  52    -0.313155373735E+03   -0.14072E-03   -0.13794E-03  9568   0.318E-02 0.550E-04
CGA:  53    -0.313155458080E+03   -0.84345E-04   -0.82450E-04  9568   0.129E-02 0.329E-04
CGA:  54    -0.313155552798E+03   -0.94717E-04   -0.94800E-04  9568   0.796E-03-0.338E-05
CGA:  55    -0.313155596861E+03   -0.44063E-04   -0.43863E-04  9568   0.946E-03 0.139E-04
CGA:  56    -0.313155631626E+03   -0.34765E-04   -0.34839E-04  9568   0.100E-02 0.386E-05
CGA:  57    -0.313155670732E+03   -0.39107E-04   -0.39049E-04  9568   0.313E-03-0.494E-06
CGA:  58    -0.313155694215E+03   -0.23483E-04   -0.23402E-04  9568   0.593E-03 0.267E-05
CGA:  59    -0.313155709631E+03   -0.15416E-04   -0.15581E-04  9568   0.208E-03 0.455E-06
CGA:  60    -0.313155724120E+03   -0.14489E-04   -0.14418E-04  9568   0.167E-03 0.262E-05
CGA:  61    -0.313155731739E+03   -0.76186E-05   -0.76192E-05  9568   0.320E-03 0.654E-07
CGA:  62    -0.313155746933E+03   -0.15194E-04   -0.15194E-04  9568   0.562E-04 0.119E-05
CGA:  63    -0.313155750127E+03   -0.31938E-05   -0.31852E-05  9568   0.137E-03 0.650E-06
  14 F= -.31315575E+03 E0= -.31313427E+03  d E =0.180871E+00  mag=    24.5831
       N       E                     dE             d eps       ncg     rms          ort
SDA:   1    -0.289709560567E+03    0.23446E+02    0.00000E+00  9568   0.406E+03 0.000E+00
CGA:   2    -0.301202192566E+03   -0.11493E+02   -0.95030E+01  9568   0.185E+03-0.958E+02
CGA:   3    -0.304600843831E+03   -0.33987E+01   -0.38289E+01  9568   0.719E+02-0.249E+02
CGA:   4    -0.307683073303E+03   -0.30822E+01   -0.30513E+01  9568   0.453E+02 0.414E+01
CGA:   5    -0.308840619179E+03   -0.11575E+01   -0.12670E+01  9568   0.507E+02-0.476E+01
CGA:   6    -0.309653596174E+03   -0.81298E+00   -0.49001E+00  9568   0.309E+02 0.252E+02
CGA:   7    -0.310411632579E+03   -0.75804E+00   -0.93153E+00  9568   0.404E+02-0.573E+01
CGA:   8    -0.310606761981E+03   -0.19513E+00   -0.35447E+00  9568   0.450E+02-0.145E+02
CGA:   9    -0.311031698557E+03   -0.42494E+00   -0.52428E+00  9568   0.792E+02-0.315E+01
CGA:  10    -0.311783984846E+03   -0.75229E+00   -0.61338E+00  9568   0.567E+02 0.108E+02
CGA:  11    -0.312314328107E+03   -0.53034E+00   -0.82251E+00  9568   0.432E+02-0.227E+02
CGA:  12    -0.312412988035E+03   -0.98660E-01   -0.12424E+00  9568   0.257E+02-0.580E+01
CGA:  13    -0.312516612566E+03   -0.10362E+00   -0.16812E+00  9568   0.211E+02-0.781E+01
CGA:  14    -0.312594985030E+03   -0.78372E-01   -0.93928E-01  9568   0.174E+02-0.264E+01
CGA:  15    -0.312676329056E+03   -0.81344E-01   -0.11380E+00  9568   0.131E+02-0.385E+01
CGA:  16    -0.312738835130E+03   -0.62506E-01   -0.73624E-01  9568   0.956E+01-0.134E+01
CGA:  17    -0.312799857668E+03   -0.61023E-01   -0.60758E-01  9568   0.727E+01-0.398E-01
CGA:  18    -0.312857661039E+03   -0.57803E-01   -0.54359E-01  9568   0.699E+01 0.325E+00
CGA:  19    -0.312923208602E+03   -0.65548E-01   -0.63827E-01  9568   0.863E+01 0.132E+00
CGA:  20    -0.312987953848E+03   -0.64745E-01   -0.56784E-01  9568   0.777E+01 0.104E+01
CGA:  21    -0.313043373391E+03   -0.55420E-01   -0.64762E-01  9568   0.711E+01-0.103E+01
CGA:  22    -0.313087506940E+03   -0.44134E-01   -0.56633E-01  9568   0.730E+01-0.949E+00
CGA:  23    -0.313136347369E+03   -0.48840E-01   -0.55121E-01  9568   0.626E+01-0.542E+00
CGA:  24    -0.313193580218E+03   -0.57233E-01   -0.55367E-01  9568   0.421E+01 0.106E+00
CGA:  25    -0.313221595918E+03   -0.28016E-01   -0.23644E-01  9568   0.211E+01 0.651E+00
CGA:  26    -0.313238823458E+03   -0.17228E-01   -0.17206E-01  9568   0.161E+01 0.309E-03
CGA:  27    -0.313251549164E+03   -0.12726E-01   -0.12002E-01  9568   0.152E+01 0.725E-01
CGA:  28    -0.313262616795E+03   -0.11068E-01   -0.11092E-01  9568   0.132E+01-0.171E-02
CGA:  29    -0.313272136794E+03   -0.95200E-02   -0.10255E-01  9568   0.115E+01-0.641E-01
CGA:  30    -0.313280188640E+03   -0.80518E-02   -0.80977E-02  9568   0.105E+01-0.507E-02
CGA:  31    -0.313289896273E+03   -0.97076E-02   -0.10035E-01  9568   0.132E+01-0.156E-01
SDA:  32    -0.313302246506E+03   -0.12350E-01   -0.11996E-01  9568   0.138E+01 0.171E-01
CGA:  33    -0.313319772081E+03   -0.17526E-01   -0.17581E-01  9568   0.156E+00 0.117E-02
CGA:  34    -0.313332238910E+03   -0.12467E-01   -0.12422E-01  9568   0.165E+00 0.782E-03
CGA:  35    -0.313343727413E+03   -0.11489E-01   -0.10969E-01  9568   0.429E+00 0.133E-01
CGA:  36    -0.313357334426E+03   -0.13607E-01   -0.13812E-01  9568   0.132E+00-0.213E-01
CGA:  37    -0.313362138137E+03   -0.48037E-02   -0.47421E-02  9568   0.783E-01 0.367E-02
CGA:  38    -0.313364365275E+03   -0.22271E-02   -0.22344E-02  9568   0.409E-01-0.117E-02
CGA:  39    -0.313366368836E+03   -0.20036E-02   -0.19593E-02  9568   0.439E-01 0.180E-02
CGA:  40    -0.313368575141E+03   -0.22063E-02   -0.22207E-02  9568   0.489E-01-0.592E-03
CGA:  41    -0.313369947020E+03   -0.13719E-02   -0.13684E-02  9568   0.177E-01 0.975E-03
CGA:  42    -0.313371278789E+03   -0.13318E-02   -0.13235E-02  9568   0.294E-01 0.200E-03
CGA:  43    -0.313372080462E+03   -0.80167E-03   -0.80322E-03  9568   0.978E-02 0.397E-03
CGA:  44    -0.313372531781E+03   -0.45132E-03   -0.45145E-03  9568   0.725E-02-0.152E-05
CGA:  45    -0.313372798721E+03   -0.26694E-03   -0.26622E-03  9568   0.758E-02 0.754E-04
CGA:  46    -0.313373284151E+03   -0.48543E-03   -0.48525E-03  9568   0.727E-02 0.859E-05
CGA:  47    -0.313373531562E+03   -0.24741E-03   -0.24722E-03  9568   0.478E-02 0.497E-04
CGA:  48    -0.313373728706E+03   -0.19714E-03   -0.19750E-03  9568   0.353E-02-0.277E-04
CGA:  49    -0.313373903111E+03   -0.17441E-03   -0.17357E-03  9568   0.267E-02 0.415E-04
CGA:  50    -0.313373972635E+03   -0.69524E-04   -0.69467E-04  9568   0.944E-03-0.194E-05
CGA:  51    -0.313374026978E+03   -0.54343E-04   -0.54098E-04  9568   0.122E-02 0.965E-05
CGA:  52    -0.313374074448E+03   -0.47470E-04   -0.47462E-04  9568   0.103E-02 0.260E-05
CGA:  53    -0.313374133097E+03   -0.58648E-04   -0.58387E-04  9568   0.698E-03 0.113E-04
CGA:  54    -0.313374151788E+03   -0.18691E-04   -0.18683E-04  9568   0.370E-03-0.795E-07
CGA:  55    -0.313374182294E+03   -0.30506E-04   -0.30485E-04  9568   0.620E-03 0.560E-06
CGA:  56    -0.313374199223E+03   -0.16929E-04   -0.16900E-04  9568   0.207E-03-0.225E-05
CGA:  57    -0.313374210430E+03   -0.11207E-04   -0.11218E-04  9568   0.271E-03-0.726E-06
CGA:  58    -0.313374221392E+03   -0.10963E-04   -0.10968E-04  9568   0.183E-03-0.169E-05
CGA:  59    -0.313374229337E+03   -0.79446E-05   -0.79414E-05  9568   0.165E-03 0.244E-06
  15 F= -.31337423E+03 E0= -.31335429E+03  d E =-.218479E+00  mag=    24.6890
       N       E                     dE             d eps       ncg     rms          ort
SDA:   1    -0.310438509475E+03    0.29357E+01    0.00000E+00  9568   0.393E+02 0.000E+00
CGA:   2    -0.311189870104E+03   -0.75136E+00   -0.89243E+00  9568   0.154E+02-0.235E+01
CGA:   3    -0.311804665832E+03   -0.61480E+00   -0.61498E+00  9568   0.126E+02 0.113E-01
CGA:   4    -0.312404659904E+03   -0.59999E+00   -0.60787E+00  9568   0.959E+01-0.536E+00
CGA:   5    -0.312668700371E+03   -0.26404E+00   -0.25345E+00  9568   0.555E+01-0.137E+00
CGA:   6    -0.312937636202E+03   -0.26894E+00   -0.26523E+00  9568   0.407E+01 0.255E+00
CGA:   7    -0.313084087496E+03   -0.14645E+00   -0.14614E+00  9568   0.333E+01-0.304E-01
CGA:   8    -0.313258890767E+03   -0.17480E+00   -0.18173E+00  9568   0.192E+01-0.350E+00
CGA:   9    -0.313306724989E+03   -0.47834E-01   -0.47924E-01  9568   0.684E+00-0.283E-03
CGA:  10    -0.313335672288E+03   -0.28947E-01   -0.28897E-01  9568   0.470E+00 0.818E-02
CGA:  11    -0.313356518188E+03   -0.20846E-01   -0.20873E-01  9568   0.417E+00-0.323E-02
CGA:  12    -0.313369722451E+03   -0.13204E-01   -0.13179E-01  9568   0.206E+00-0.975E-03
CGA:  13    -0.313376917729E+03   -0.71953E-02   -0.72165E-02  9568   0.119E+00 0.240E-02
CGA:  14    -0.313380405079E+03   -0.34874E-02   -0.34805E-02  9568   0.537E-01-0.989E-04
CGA:  15    -0.313384135940E+03   -0.37309E-02   -0.37174E-02  9568   0.845E-01 0.417E-03
CGA:  16    -0.313387003849E+03   -0.28679E-02   -0.28698E-02  9568   0.266E-01 0.120E-03
CGA:  17    -0.313388133833E+03   -0.11300E-02   -0.11302E-02  9568   0.213E-01-0.375E-04
CGA:  18    -0.313389049102E+03   -0.91527E-03   -0.91534E-03  9568   0.186E-01 0.189E-05
CGA:  19    -0.313390051378E+03   -0.10023E-02   -0.99899E-03  9568   0.180E-01 0.190E-03
CGA:  20    -0.313390585921E+03   -0.53454E-03   -0.53407E-03  9568   0.903E-02-0.106E-05
CGA:  21    -0.313390999288E+03   -0.41337E-03   -0.41288E-03  9568   0.870E-02 0.550E-04
CGA:  22    -0.313391311041E+03   -0.31175E-03   -0.31188E-03  9568   0.460E-02 0.119E-04
CGA:  23    -0.313391540827E+03   -0.22979E-03   -0.22984E-03  9568   0.454E-02-0.429E-05
CGA:  24    -0.313391741023E+03   -0.20020E-03   -0.20018E-03  9568   0.314E-02 0.196E-05
CGA:  25    -0.313391867315E+03   -0.12629E-03   -0.12629E-03  9568   0.179E-02 0.223E-05
CGA:  26    -0.313391939104E+03   -0.71790E-04   -0.71791E-04  9568   0.149E-02 0.163E-05
CGA:  27    -0.313391998503E+03   -0.59399E-04   -0.59403E-04  9568   0.100E-02 0.417E-05
CGA:  28    -0.313392035952E+03   -0.37449E-04   -0.37443E-04  9568   0.907E-03-0.676E-06
CGA:  29    -0.313392079459E+03   -0.43507E-04   -0.43481E-04  9568   0.540E-03 0.292E-05
CGA:  30    -0.313392096505E+03   -0.17046E-04   -0.17036E-04  9568   0.285E-03-0.114E-05
CGA:  31    -0.313392112329E+03   -0.15824E-04   -0.15831E-04  9568   0.254E-03-0.663E-06
SDA:  32    -0.313392122393E+03   -0.10064E-04   -0.10062E-04  9568   0.198E-03-0.159E-05
CGA:  33    -0.313392125856E+03   -0.34627E-05   -0.34745E-05  9568   0.650E-04 0.919E-07
  16 F= -.31339213E+03 E0= -.31337241E+03  d E =-.178965E-01  mag=    24.7000
       N       E                     dE             d eps       ncg     rms          ort
SDA:   1    -0.313233066687E+03    0.15906E+00    0.00000E+00  9568   0.688E+00 0.000E+00
CGA:   2    -0.313259634716E+03   -0.26568E-01   -0.26463E-01  9568   0.105E+01-0.132E-01
CGA:   3    -0.313310263551E+03   -0.50629E-01   -0.50383E-01  9568   0.798E+00 0.218E-01
CGA:   4    -0.313348569501E+03   -0.38306E-01   -0.38423E-01  9568   0.411E+00-0.138E-01
CGA:   5    -0.313359699857E+03   -0.11130E-01   -0.11119E-01  9568   0.295E+00-0.181E-04
CGA:   6    -0.313376124091E+03   -0.16424E-01   -0.16187E-01  9568   0.137E+00 0.131E-01
CGA:   7    -0.313382463625E+03   -0.63395E-02   -0.63449E-02  9568   0.166E+00-0.133E-02
CGA:   8    -0.313386147783E+03   -0.36842E-02   -0.37124E-02  9568   0.336E-01-0.515E-03
CGA:   9    -0.313388107896E+03   -0.19601E-02   -0.19584E-02  9568   0.331E-01 0.819E-04
CGA:  10    -0.313388911293E+03   -0.80340E-03   -0.79909E-03  9568   0.203E-01 0.562E-04
[...]
CGA:   9    -0.313418510453E+03   -0.79226E-03   -0.79161E-03  9568   0.312E-01 0.854E-04
CGA:  10    -0.313419560096E+03   -0.10496E-02   -0.10490E-02  9568   0.935E-02-0.131E-04
CGA:  11    -0.313419945982E+03   -0.38589E-03   -0.38598E-03  9568   0.293E-02 0.130E-04
CGA:  12    -0.313420120019E+03   -0.17404E-03   -0.17410E-03  9568   0.569E-02-0.405E-05
CGA:  13    -0.313420300294E+03   -0.18028E-03   -0.18024E-03  9568   0.163E-02 0.183E-05
CGA:  14    -0.313420398498E+03   -0.98203E-04   -0.98153E-04  9568   0.102E-02 0.248E-05
CGA:  15    -0.313420431525E+03   -0.33027E-04   -0.32986E-04  9568   0.116E-02-0.107E-05
CGA:  16    -0.313420478248E+03   -0.46723E-04   -0.46733E-04  9568   0.267E-03 0.126E-05
CGA:  17    -0.313420498293E+03   -0.20045E-04   -0.20073E-04  9568   0.803E-03-0.109E-05
CGA:  18    -0.313420525703E+03   -0.27409E-04   -0.27412E-04  9568   0.140E-03-0.338E-07
CGA:  19    -0.313420539108E+03   -0.13406E-04   -0.13375E-04  9568   0.147E-03 0.433E-06
CGA:  20    -0.313420544841E+03   -0.57324E-05   -0.57349E-05  9568   0.170E-03 0.234E-06
  54 F= -.31342054E+03 E0= -.31339910E+03  d E =-.345490E-02  mag=    24.5757
       N       E                     dE             d eps       ncg     rms          ort
SDA:   1    -0.313314321675E+03    0.10622E+00    0.00000E+00  9568   0.639E+00 0.000E+00
CGA:   2    -0.313333511877E+03   -0.19190E-01   -0.19153E-01  9568   0.563E+00-0.247E-03
CGA:   3    -0.313354354422E+03   -0.20843E-01   -0.20690E-01  9568   0.572E+00-0.399E-02
CGA:   4    -0.313394234101E+03   -0.39880E-01   -0.39541E-01  9568   0.199E+00 0.116E-01
CGA:   5    -0.313399857466E+03   -0.56234E-02   -0.56101E-02  9568   0.201E+00 0.124E-03
CGA:   6    -0.313412649237E+03   -0.12792E-01   -0.12890E-01  9568   0.973E-01-0.433E-02
CGA:   7    -0.313414993251E+03   -0.23440E-02   -0.23607E-02  9568   0.709E-01-0.287E-03
CGA:   8    -0.313417938255E+03   -0.29450E-02   -0.29522E-02  9568   0.185E-01 0.746E-03
CGA:   9    -0.313419003867E+03   -0.10656E-02   -0.10643E-02  9568   0.202E-01 0.823E-04
CGA:  10    -0.313419498743E+03   -0.49488E-03   -0.49431E-03  9568   0.919E-02 0.104E-04
CGA:  11    -0.313420074006E+03   -0.57526E-03   -0.57533E-03  9568   0.636E-02-0.269E-05
CGA:  12    -0.313420190190E+03   -0.11618E-03   -0.11645E-03  9568   0.209E-02-0.585E-05
CGA:  13    -0.313420367808E+03   -0.17762E-03   -0.17790E-03  9568   0.175E-02-0.690E-05
CGA:  14    -0.313420442236E+03   -0.74428E-04   -0.74438E-04  9568   0.195E-02 0.178E-05
CGA:  15    -0.313420499511E+03   -0.57275E-04   -0.57203E-04  9568   0.574E-03 0.931E-06
CGA:  16    -0.313420536358E+03   -0.36847E-04   -0.36859E-04  9568   0.796E-03-0.785E-06
CGA:  17    -0.313420553831E+03   -0.17474E-04   -0.17517E-04  9568   0.309E-03-0.220E-06
CGA:  18    -0.313420578905E+03   -0.25074E-04   -0.25090E-04  9568   0.331E-03-0.589E-06
CGA:  19    -0.313420590095E+03   -0.11190E-04   -0.11199E-04  9568   0.310E-03 0.562E-06
CGA:  20    -0.313420603756E+03   -0.13661E-04   -0.13664E-04  9568   0.125E-03 0.642E-06
CGA:  21    -0.313420610519E+03   -0.67630E-05   -0.67619E-05  9568   0.134E-03 0.550E-07
  55 F= -.31342061E+03 E0= -.31339917E+03  d E =-.656783E-04  mag=    24.5762
       N       E                     dE             d eps       ncg     rms          ort
SDA:   1    -0.313141968797E+03    0.27863E+00    0.00000E+00  9568   0.802E+01 0.000E+00
CGA:   2    -0.313247231977E+03   -0.10526E+00   -0.80297E-01  9568   0.805E+00 0.205E+01
CGA:   3    -0.313263687555E+03   -0.16456E-01   -0.15109E-01  9568   0.752E+00 0.663E-01
CGA:   4    -0.313298106363E+03   -0.34419E-01   -0.34397E-01  9568   0.243E+01-0.200E-01
CGA:   5    -0.313332612012E+03   -0.34506E-01   -0.37233E-01  9568   0.139E+01-0.119E+00
CGA:   6    -0.313349807453E+03   -0.17195E-01   -0.18400E-01  9568   0.109E+01-0.663E-01
CGA:   7    -0.313370043611E+03   -0.20236E-01   -0.20197E-01  9568   0.733E+00 0.303E-03
CGA:   8    -0.313378146224E+03   -0.81026E-02   -0.74041E-02  9568   0.288E+00 0.571E-01
CGA:   9    -0.313384258930E+03   -0.61127E-02   -0.60177E-02  9568   0.502E+00 0.222E-02
CGA:  10    -0.313395880176E+03   -0.11621E-01   -0.11430E-01  9568   0.697E+00 0.174E-02
CGA:  11    -0.313403298860E+03   -0.74187E-02   -0.77759E-02  9568   0.262E+00-0.250E-01
CGA:  12    -0.313406137552E+03   -0.28387E-02   -0.29200E-02  9568   0.167E+00-0.540E-02
CGA:  13    -0.313408827490E+03   -0.26899E-02   -0.27943E-02  9568   0.124E+00-0.282E-02
CGA:  14    -0.313410235432E+03   -0.14079E-02   -0.13923E-02  9568   0.518E-01 0.972E-03
CGA:  15    -0.313411214963E+03   -0.97953E-03   -0.98117E-03  9568   0.764E-01-0.293E-04
CGA:  16    -0.313413334579E+03   -0.21196E-02   -0.21174E-02  9568   0.122E+00-0.253E-03
CGA:  17    -0.313414866937E+03   -0.15324E-02   -0.15414E-02  9568   0.424E-01-0.465E-03
CGA:  18    -0.313415382071E+03   -0.51513E-03   -0.51479E-03  9568   0.271E-01 0.781E-05
CGA:  19    -0.313415992933E+03   -0.61086E-03   -0.61130E-03  9568   0.380E-01 0.694E-05
CGA:  20    -0.313416560129E+03   -0.56720E-03   -0.56718E-03  9568   0.191E-01-0.692E-05
CGA:  21    -0.313416809123E+03   -0.24899E-03   -0.24962E-03  9568   0.132E-01-0.218E-04
CGA:  22    -0.313417119900E+03   -0.31078E-03   -0.31097E-03  9568   0.197E-01 0.206E-04
CGA:  23    -0.313417426082E+03   -0.30618E-03   -0.30590E-03  9568   0.111E-01 0.529E-05
CGA:  24    -0.313417596585E+03   -0.17050E-03   -0.17032E-03  9568   0.110E-01 0.123E-05
CGA:  25    -0.313417881444E+03   -0.28486E-03   -0.28486E-03  9568   0.160E-01 0.282E-05
CGA:  26    -0.313418084294E+03   -0.20285E-03   -0.20347E-03  9568   0.564E-02-0.180E-04
CGA:  27    -0.313418163059E+03   -0.78765E-04   -0.79065E-04  9568   0.470E-02-0.538E-05
CGA:  28    -0.313418274329E+03   -0.11127E-03   -0.11125E-03  9568   0.509E-02-0.872E-05
CGA:  29    -0.313418336560E+03   -0.62231E-04   -0.62114E-04  9568   0.198E-02 0.516E-06
CGA:  30    -0.313418375890E+03   -0.39330E-04   -0.39297E-04  9568   0.310E-02-0.364E-05
CGA:  31    -0.313418466308E+03   -0.90418E-04   -0.90408E-04  9568   0.428E-02 0.153E-05
SDA:  32    -0.313418518325E+03   -0.52017E-04   -0.52159E-04  9568   0.169E-02-0.140E-05
CGA:  33    -0.313418581123E+03   -0.62798E-04   -0.62779E-04  9568   0.557E-03 0.131E-05
CGA:  34    -0.313418602472E+03   -0.21350E-04   -0.21386E-04  9568   0.835E-03-0.242E-05
CGA:  35    -0.313418637782E+03   -0.35310E-04   -0.35254E-04  9568   0.421E-03 0.291E-05
CGA:  36    -0.313418680184E+03   -0.42402E-04   -0.42671E-04  9568   0.322E-03-0.384E-05
CGA:  37    -0.313418697485E+03   -0.17301E-04   -0.17348E-04  9568   0.169E-03-0.200E-05
CGA:  38    -0.313418700659E+03   -0.31738E-05   -0.31796E-05  9568   0.651E-04 0.186E-06
  56 F= -.31341870E+03 E0= -.31339725E+03  d E =0.190986E-02  mag=    24.5748
       N       E                     dE             d eps       ncg     rms          ort
SDA:   1    -0.313350245610E+03    0.68452E-01    0.00000E+00  9568   0.412E+00 0.000E+00
CGA:   2    -0.313358962216E+03   -0.87166E-02   -0.87896E-02  9568   0.279E+00-0.230E-03
CGA:   3    -0.313388536873E+03   -0.29575E-01   -0.28841E-01  9568   0.281E+00 0.120E-01
CGA:   4    -0.313399750683E+03   -0.11214E-01   -0.11236E-01  9568   0.284E+00-0.486E-02
CGA:   5    -0.313406720532E+03   -0.69698E-02   -0.70101E-02  9568   0.736E-01 0.267E-03
CGA:   6    -0.313413183965E+03   -0.64634E-02   -0.65427E-02  9568   0.635E-01-0.163E-02
CGA:   7    -0.313414889656E+03   -0.17057E-02   -0.16995E-02  9568   0.447E-01-0.721E-04
CGA:   8    -0.313416177435E+03   -0.12878E-02   -0.12890E-02  9568   0.104E-01 0.351E-04
CGA:   9    -0.313416865840E+03   -0.68840E-03   -0.69011E-03  9568   0.126E-01-0.516E-04
CGA:  10    -0.313417194088E+03   -0.32825E-03   -0.32811E-03  9568   0.690E-02-0.188E-05
CGA:  11    -0.313417473533E+03   -0.27945E-03   -0.27936E-03  9568   0.178E-02 0.178E-04
CGA:  12    -0.313417613478E+03   -0.13995E-03   -0.13959E-03  9568   0.149E-02 0.926E-05
CGA:  13    -0.313417662884E+03   -0.49406E-04   -0.49427E-04  9568   0.168E-02 0.150E-05
CGA:  14    -0.313417725108E+03   -0.62224E-04   -0.62228E-04  9568   0.468E-03 0.469E-06
CGA:  15    -0.313417758833E+03   -0.33725E-04   -0.33662E-04  9568   0.715E-03 0.193E-05
CGA:  16    -0.313417774039E+03   -0.15206E-04   -0.15195E-04  9568   0.186E-03-0.309E-06
CGA:  17    -0.313417794384E+03   -0.20345E-04   -0.20303E-04  9568   0.153E-03 0.577E-06
CGA:  18    -0.313417807812E+03   -0.13428E-04   -0.13383E-04  9568   0.175E-03 0.984E-06
CGA:  19    -0.313417811857E+03   -0.40455E-05   -0.40381E-05  9568   0.109E-03-0.216E-06
  57 F= -.31341781E+03 E0= -.31339635E+03  d E =0.888801E-03  mag=    24.5758
       N       E                     dE             d eps       ncg     rms          ort
SDA:   1    -0.313315265268E+03    0.10254E+00    0.00000E+00  9568   0.562E+00 0.000E+00
CGA:   2    -0.313327199813E+03   -0.11935E-01   -0.12715E-01  9568   0.463E+00-0.175E-01
CGA:   3    -0.313368206264E+03   -0.41006E-01   -0.41049E-01  9568   0.559E+00-0.734E-03
CGA:   4    -0.313398112495E+03   -0.29906E-01   -0.29821E-01  9568   0.167E+00 0.800E-02
CGA:   5    -0.313402158160E+03   -0.40457E-02   -0.40103E-02  9568   0.108E+00 0.696E-03
CGA:   6    -0.313410158931E+03   -0.80008E-02   -0.80825E-02  9568   0.709E-01-0.254E-02
CGA:   7    -0.313413209406E+03   -0.30505E-02   -0.30522E-02  9568   0.265E-01 0.223E-03
CGA:   8    -0.313413918476E+03   -0.70907E-03   -0.71271E-03  9568   0.202E-01-0.389E-04
CGA:   9    -0.313414864886E+03   -0.94641E-03   -0.94637E-03  9568   0.861E-02 0.318E-04
CGA:  10    -0.313415197384E+03   -0.33250E-03   -0.33282E-03  9568   0.102E-01 0.142E-04
CGA:  11    -0.313415524388E+03   -0.32700E-03   -0.32724E-03  9568   0.238E-02 0.932E-06
CGA:  12    -0.313415671253E+03   -0.14686E-03   -0.14679E-03  9568   0.162E-02 0.365E-05
CGA:  13    -0.313415721532E+03   -0.50279E-04   -0.50286E-04  9568   0.166E-02-0.198E-07
CGA:  14    -0.313415836365E+03   -0.11483E-03   -0.11472E-03  9568   0.594E-03 0.413E-05
CGA:  15    -0.313415849615E+03   -0.13250E-04   -0.13224E-04  9568   0.360E-03-0.448E-07
CGA:  16    -0.313415872353E+03   -0.22737E-04   -0.22723E-04  9568   0.344E-03 0.866E-06
CGA:  17    -0.313415893411E+03   -0.21058E-04   -0.21063E-04  9568   0.399E-03-0.406E-06
CGA:  18    -0.313415904256E+03   -0.10845E-04   -0.10856E-04  9568   0.195E-03 0.141E-06
CGA:  19    -0.313415915119E+03   -0.10863E-04   -0.10869E-04  9568   0.113E-03-0.670E-06
CGA:  20    -0.313415920613E+03   -0.54941E-05   -0.54928E-05  9568   0.215E-03 0.500E-06
  58 F= -.31341592E+03 E0= -.31339449E+03  d E =0.189124E-02  mag=    24.5823
       N       E                     dE             d eps       ncg     rms          ort
SDA:   1    -0.313040138582E+03    0.37578E+00    0.00000E+00  9568   0.112E+01 0.000E+00
CGA:   2    -0.313121823773E+03   -0.81685E-01   -0.81413E-01  9568   0.395E+01 0.104E-01
CGA:   3    -0.313293852075E+03   -0.17203E+00   -0.17248E+00  9568   0.994E+00 0.431E-01
CGA:   4    -0.313333020853E+03   -0.39169E-01   -0.38786E-01  9568   0.116E+01-0.123E-01
CGA:   5    -0.313364950062E+03   -0.31929E-01   -0.32418E-01  9568   0.397E+00-0.381E-02
CGA:   6    -0.313391743996E+03   -0.26794E-01   -0.26505E-01  9568   0.449E+00 0.112E-01
CGA:   7    -0.313399549207E+03   -0.78052E-02   -0.72516E-02  9568   0.924E-01 0.263E-01
CGA:   8    -0.313406554577E+03   -0.70054E-02   -0.70405E-02  9568   0.943E-01-0.115E-02
CGA:   9    -0.313408356804E+03   -0.18022E-02   -0.18440E-02  9568   0.547E-01-0.132E-02
CGA:  10    -0.313411217516E+03   -0.28607E-02   -0.28601E-02  9568   0.222E-01 0.476E-04
CGA:  11    -0.313411762330E+03   -0.54481E-03   -0.54340E-03  9568   0.188E-01 0.236E-04
CGA:  12    -0.313412467636E+03   -0.70531E-03   -0.70511E-03  9568   0.834E-02-0.420E-05
CGA:  13    -0.313412801706E+03   -0.33407E-03   -0.33412E-03  9568   0.112E-01 0.568E-05
CGA:  14    -0.313413142366E+03   -0.34066E-03   -0.34224E-03  9568   0.476E-02 0.738E-05
CGA:  15    -0.313413330167E+03   -0.18780E-03   -0.18784E-03  9568   0.496E-02 0.625E-05
CGA:  16    -0.313413439593E+03   -0.10943E-03   -0.10936E-03  9568   0.137E-02 0.782E-06
CGA:  17    -0.313413528514E+03   -0.88920E-04   -0.88924E-04  9568   0.197E-02-0.115E-06
CGA:  18    -0.313413575945E+03   -0.47431E-04   -0.47541E-04  9568   0.143E-02 0.208E-06
CGA:  19    -0.313413650805E+03   -0.74860E-04   -0.74889E-04  9568   0.680E-03-0.210E-05
CGA:  20    -0.313413679202E+03   -0.28397E-04   -0.28396E-04  9568   0.117E-02-0.106E-06
CGA:  21    -0.313413713796E+03   -0.34594E-04   -0.34657E-04  9568   0.343E-03 0.178E-05
CGA:  22    -0.313413738833E+03   -0.25037E-04   -0.25034E-04  9568   0.728E-03-0.333E-07
CGA:  23    -0.313413757357E+03   -0.18524E-04   -0.18532E-04  9568   0.440E-03-0.225E-06
CGA:  24    -0.313413786226E+03   -0.28869E-04   -0.28844E-04  9568   0.468E-03 0.107E-05
CGA:  25    -0.313413794829E+03   -0.86026E-05   -0.85971E-05  9568   0.127E-03-0.195E-06
CGA:  26    -0.313413808096E+03   -0.13268E-04   -0.13279E-04  9568   0.331E-03-0.229E-06
CGA:  27    -0.313413815057E+03   -0.69607E-05   -0.69831E-05  9568   0.147E-03 0.284E-06
  59 F= -.31341382E+03 E0= -.31339236E+03  d E =0.210556E-02  mag=    24.5867
       N       E                     dE             d eps       ncg     rms          ort
SDA:   1    -0.313306518443E+03    0.10729E+00    0.00000E+00  9568   0.976E+00 0.000E+00
CGA:   2    -0.313324296771E+03   -0.17778E-01   -0.18750E-01  9568   0.484E+00-0.329E-01
CGA:   3    -0.313354510690E+03   -0.30214E-01   -0.30074E-01  9568   0.517E+00 0.556E-02
CGA:   4    -0.313380999727E+03   -0.26489E-01   -0.26442E-01  9568   0.447E+00 0.513E-02
CGA:   5    -0.313390589185E+03   -0.95895E-02   -0.93581E-02  9568   0.132E+00 0.624E-02
CGA:   6    -0.313405290496E+03   -0.14701E-01   -0.14590E-01  9568   0.114E+00 0.188E-02
CGA:   7    -0.313408717612E+03   -0.34271E-02   -0.33757E-02  9568   0.827E-01 0.349E-03
CGA:   8    -0.313411025618E+03   -0.23080E-02   -0.23294E-02  9568   0.201E-01-0.169E-03
CGA:   9    -0.313412677815E+03   -0.16522E-02   -0.16514E-02  9568   0.245E-01 0.203E-04
CGA:  10    -0.313413221335E+03   -0.54352E-03   -0.54659E-03  9568   0.101E-01-0.740E-04
CGA:  11    -0.313413669195E+03   -0.44786E-03   -0.44773E-03  9568   0.397E-02-0.447E-04
CGA:  12    -0.313413856024E+03   -0.18683E-03   -0.18683E-03  9568   0.491E-02 0.236E-06
CGA:  13    -0.313413989240E+03   -0.13322E-03   -0.13295E-03  9568   0.206E-02 0.113E-05
CGA:  14    -0.313414144789E+03   -0.15555E-03   -0.15565E-03  9568   0.122E-02-0.259E-05
CGA:  15    -0.313414179472E+03   -0.34683E-04   -0.34619E-04  9568   0.105E-02-0.466E-07
CGA:  16    -0.313414223897E+03   -0.44425E-04   -0.44442E-04  9568   0.479E-03 0.321E-05
CGA:  17    -0.313414259913E+03   -0.36016E-04   -0.36047E-04  9568   0.784E-03-0.102E-05
CGA:  18    -0.313414279902E+03   -0.19989E-04   -0.20016E-04  9568   0.377E-03 0.916E-08
CGA:  19    -0.313414299498E+03   -0.19596E-04   -0.19597E-04  9568   0.180E-03-0.231E-06
CGA:  20    -0.313414308057E+03   -0.85589E-05   -0.85577E-05  9568   0.322E-03 0.794E-06
CGA:  21    -0.313414320669E+03   -0.12613E-04   -0.12612E-04  9568   0.139E-03-0.734E-07
CGA:  22    -0.313414329701E+03   -0.90312E-05   -0.90247E-05  9568   0.135E-03 0.328E-06
  60 F= -.31341433E+03 E0= -.31339293E+03  d E =-.514644E-03  mag=    24.5901
       N       E                     dE             d eps       ncg     rms          ort
SDA:   1    -0.313367176996E+03    0.47144E-01    0.00000E+00  9568   0.817E+00 0.000E+00
CGA:   2    -0.313378229638E+03   -0.11053E-01   -0.97980E-02  9568   0.105E+00 0.854E-01
CGA:   3    -0.313386857108E+03   -0.86275E-02   -0.86278E-02  9568   0.379E+00 0.103E-04
CGA:   4    -0.313396102991E+03   -0.92459E-02   -0.93174E-02  9568   0.250E+00-0.128E-02
CGA:   5    -0.313404154908E+03   -0.80519E-02   -0.80405E-02  9568   0.178E+00-0.135E-03
CGA:   6    -0.313406812784E+03   -0.26579E-02   -0.26169E-02  9568   0.437E-01 0.203E-02
CGA:   7    -0.313408953100E+03   -0.21403E-02   -0.21404E-02  9568   0.107E+00-0.160E-04
CGA:   8    -0.313411444593E+03   -0.24915E-02   -0.25017E-02  9568   0.324E-01-0.177E-03
CGA:   9    -0.313412303392E+03   -0.85880E-03   -0.85860E-03  9568   0.274E-01 0.641E-05
CGA:  10    -0.313412863281E+03   -0.55989E-03   -0.55729E-03  9568   0.760E-02 0.620E-04
CGA:  11    -0.313413074232E+03   -0.21095E-03   -0.21083E-03  9568   0.977E-02-0.633E-06
CGA:  12    -0.313413486774E+03   -0.41254E-03   -0.41251E-03  9568   0.767E-02 0.705E-05
CGA:  13    -0.313413626971E+03   -0.14020E-03   -0.14044E-03  9568   0.378E-02-0.754E-05
CGA:  14    -0.313413761414E+03   -0.13444E-03   -0.13439E-03  9568   0.218E-02-0.881E-05
CGA:  15    -0.313413795934E+03   -0.34520E-04   -0.34573E-04  9568   0.901E-03-0.218E-05
CGA:  16    -0.313413869352E+03   -0.73417E-04   -0.73327E-04  9568   0.249E-02 0.165E-05
CGA:  17    -0.313413913240E+03   -0.43889E-04   -0.43806E-04  9568   0.654E-03 0.124E-05
CGA:  18    -0.313413938864E+03   -0.25624E-04   -0.25625E-04  9568   0.610E-03-0.788E-06
CGA:  19    -0.313413949158E+03   -0.10294E-04   -0.10315E-04  9568   0.213E-03 0.981E-07
CGA:  20    -0.313413962482E+03   -0.13324E-04   -0.13309E-04  9568   0.398E-03 0.498E-06
CGA:  21    -0.313413970124E+03   -0.76416E-05   -0.76284E-05  9568   0.176E-03-0.255E-06
  61 F= -.31341397E+03 E0= -.31339254E+03  d E =0.359577E-03  mag=    24.5888
       N       E                     dE             d eps       ncg     rms          ort
SDA:   1    -0.313226132961E+03    0.18783E+00    0.00000E+00  9568   0.174E+01 0.000E+00
CGA:   2    -0.313254049668E+03   -0.27917E-01   -0.24606E-01  9568   0.483E+00 0.164E+00
CGA:   3    -0.313320041153E+03   -0.65991E-01   -0.66551E-01  9568   0.191E+01-0.742E-02
CGA:   4    -0.313354243492E+03   -0.34202E-01   -0.35747E-01  9568   0.764E+00-0.478E-01
CGA:   5    -0.313376481413E+03   -0.22238E-01   -0.22043E-01  9568   0.361E+00-0.200E-02
CGA:   6    -0.313383892283E+03   -0.74109E-02   -0.73507E-02  9568   0.242E+00 0.126E-02
CGA:   7    -0.313397922223E+03   -0.14030E-01   -0.13976E-01  9568   0.342E+00 0.241E-02
CGA:   8    -0.313404007165E+03   -0.60849E-02   -0.61011E-02  9568   0.789E-01-0.644E-03
CGA:   9    -0.313406637340E+03   -0.26302E-02   -0.26312E-02  9568   0.693E-01 0.658E-04
CGA:  10    -0.313408152550E+03   -0.15152E-02   -0.15085E-02  9568   0.327E-01 0.103E-03
CGA:  11    -0.313410162502E+03   -0.20100E-02   -0.20115E-02  9568   0.415E-01-0.593E-04
CGA:  12    -0.313410827422E+03   -0.66492E-03   -0.66029E-03  9568   0.972E-02 0.182E-03
CGA:  13    -0.313411453321E+03   -0.62590E-03   -0.62646E-03  9568   0.145E-01-0.189E-04
CGA:  14    -0.313411703584E+03   -0.25026E-03   -0.25271E-03  9568   0.480E-02-0.782E-04
CGA:  15    -0.313411967425E+03   -0.26384E-03   -0.26384E-03  9568   0.475E-02-0.541E-06
CGA:  16    -0.313412072615E+03   -0.10519E-03   -0.10502E-03  9568   0.349E-02 0.178E-06
CGA:  17    -0.313412266632E+03   -0.19402E-03   -0.19380E-03  9568   0.253E-02 0.105E-04
CGA:  18    -0.313412312293E+03   -0.45661E-04   -0.45713E-04  9568   0.962E-03 0.167E-05
CGA:  19    -0.313412363948E+03   -0.51655E-04   -0.51681E-04  9568   0.123E-02-0.120E-05
CGA:  20    -0.313412391868E+03   -0.27920E-04   -0.27937E-04  9568   0.743E-03 0.371E-06
CGA:  21    -0.313412447094E+03   -0.55226E-04   -0.55146E-04  9568   0.828E-03 0.170E-05
CGA:  22    -0.313412460618E+03   -0.13524E-04   -0.13495E-04  9568   0.254E-03 0.488E-06
CGA:  23    -0.313412476201E+03   -0.15583E-04   -0.15579E-04  9568   0.306E-03 0.124E-06
CGA:  24    -0.313412486408E+03   -0.10207E-04   -0.10214E-04  9568   0.384E-03 0.732E-06
CGA:  25    -0.313412498868E+03   -0.12460E-04   -0.12460E-04  9568   0.153E-03-0.235E-06
CGA:  26    -0.313412507546E+03   -0.86781E-05   -0.86899E-05  9568   0.334E-03-0.679E-06
  62 F= -.31341251E+03 E0= -.31339104E+03  d E =0.146258E-02  mag=    24.5887
