       N       E                     dE             d eps       ncg     rms          rms(c)
DAV:   1     0.582702143174E+04    0.58270E+04   -0.21679E+05 28648   0.158E+03
DAV:   2     0.581015554650E+03   -0.52460E+04   -0.49115E+04 28904   0.474E+02
DAV:   3    -0.367927695567E+03   -0.94894E+03   -0.93031E+03 30272   0.206E+02
DAV:   4    -0.413895065397E+03   -0.45967E+02   -0.43884E+02 37304   0.491E+01
DAV:   5    -0.415844164513E+03   -0.19491E+01   -0.19095E+01 38584   0.948E+00    0.884E+01
DAV:   6    -0.306020805490E+03    0.10982E+03   -0.69807E+02 38784   0.791E+01    0.457E+01
DAV:   7    -0.335213147455E+03   -0.29192E+02   -0.63103E+02 38472   0.530E+01    0.391E+01
DAV:   8    -0.334700077517E+03    0.51307E+00   -0.74485E+01 37208   0.282E+01    0.469E+01
DAV:   9    -0.330634768450E+03    0.40653E+01   -0.20882E+02 36968   0.166E+01    0.362E+01
DAV:  10    -0.329934735739E+03    0.70003E+00   -0.26507E+01 38496   0.971E+00    0.350E+01
DAV:  11    -0.332258972622E+03   -0.23242E+01   -0.94625E+00 38592   0.120E+01    0.307E+01
DAV:  12    -0.334035062290E+03   -0.17761E+01   -0.46024E+01 37952   0.110E+01    0.312E+01
DAV:  13    -0.336217188644E+03   -0.21821E+01   -0.20718E+01 38984   0.109E+01    0.247E+01
DAV:  14    -0.336802128152E+03   -0.58494E+00   -0.16104E+01 37352   0.101E+01    0.221E+01
DAV:  15    -0.337759613665E+03   -0.95749E+00   -0.17901E+00 36824   0.639E+00    0.166E+01
DAV:  16    -0.341473976313E+03   -0.37144E+01   -0.27665E+00 35472   0.508E+00    0.199E+01
DAV:  17    -0.342594171933E+03   -0.11202E+01   -0.32644E+00 35512   0.386E+00    0.159E+01
DAV:  18    -0.344264196284E+03   -0.16700E+01   -0.25154E+00 36496   0.375E+00    0.178E+01
DAV:  19    -0.344452810365E+03   -0.18861E+00   -0.84107E-01 33864   0.283E+00    0.120E+01
DAV:  20    -0.345069695606E+03   -0.61689E+00   -0.51751E-01 35600   0.199E+00    0.778E+00
DAV:  21    -0.345355676279E+03   -0.28598E+00   -0.23649E-01 34352   0.992E-01    0.782E+00
DAV:  22    -0.345400400797E+03   -0.44725E-01   -0.18583E-02 29944   0.427E-01    0.797E+00
DAV:  23    -0.345502031644E+03   -0.10163E+00   -0.36766E-02 37832   0.808E-01    0.758E+00
DAV:  24    -0.345716780673E+03   -0.21475E+00   -0.12935E-01 36760   0.116E+00    0.598E+00
DAV:  25    -0.346252191934E+03   -0.53541E+00   -0.26893E-01 35520   0.175E+00    0.471E+00
DAV:  26    -0.346951847718E+03   -0.69966E+00   -0.83362E-01 35176   0.193E+00    0.945E+00
DAV:  27    -0.346959369946E+03   -0.75222E-02   -0.14375E-01 32448   0.120E+00    0.682E+00
DAV:  28    -0.347114459034E+03   -0.15509E+00   -0.13364E-01 34688   0.965E-01    0.558E+00
DAV:  29    -0.347133296372E+03   -0.18837E-01   -0.16323E-01 38408   0.963E-01    0.286E+00
DAV:  30    -0.347283786850E+03   -0.15049E+00   -0.10406E-01 34016   0.933E-01    0.220E+00
DAV:  31    -0.347401530816E+03   -0.11774E+00   -0.98626E-02 34888   0.752E-01    0.450E+00
DAV:  32    -0.347417926942E+03   -0.16396E-01   -0.32841E-02 33880   0.588E-01    0.322E+00
DAV:  33    -0.347436940477E+03   -0.19014E-01   -0.15370E-02 36592   0.448E-01    0.307E+00
DAV:  34    -0.347442442499E+03   -0.55020E-02   -0.21316E-02 34776   0.432E-01    0.180E+00
DAV:  35    -0.347451157077E+03   -0.87146E-02   -0.25341E-02 34824   0.372E-01    0.107E+00
DAV:  36    -0.347454087022E+03   -0.29299E-02   -0.59797E-03 32304   0.254E-01    0.823E-01
DAV:  37    -0.347455500198E+03   -0.14132E-02   -0.11772E-03 32992   0.120E-01    0.709E-01
DAV:  38    -0.347455506662E+03   -0.64640E-05   -0.30305E-03 34560   0.177E-01    0.640E-01
DAV:  39    -0.347456301601E+03   -0.79494E-03   -0.52206E-03 34320   0.214E-01    0.605E-01
DAV:  40    -0.347455443648E+03    0.85795E-03   -0.25904E-03 32352   0.153E-01    0.387E-01
DAV:  41    -0.347455156097E+03    0.28755E-03   -0.12113E-03 33608   0.114E-01    0.455E-01
DAV:  42    -0.347454643833E+03    0.51226E-03   -0.84844E-04 36984   0.970E-02    0.225E-01
DAV:  43    -0.347454575851E+03    0.67982E-04   -0.40583E-04 32912   0.566E-02    0.252E-01
DAV:  44    -0.347454396425E+03    0.17943E-03   -0.25977E-04 33088   0.546E-02    0.133E-01
DAV:  45    -0.347454402391E+03   -0.59662E-05   -0.11756E-04 30728   0.323E-02    0.171E-01
DAV:  46    -0.347454352024E+03    0.50366E-04   -0.53026E-05 26560   0.295E-02    0.112E-01
DAV:  47    -0.347454329564E+03    0.22460E-04   -0.15034E-04 27168   0.353E-02    0.962E-02
DAV:  48    -0.347454319137E+03    0.10428E-04   -0.32396E-05 23680   0.218E-02    0.687E-02
DAV:  49    -0.347454311605E+03    0.75317E-05   -0.31086E-05 20304   0.175E-02
   1 F= -.34745431E+03 E0= -.34743951E+03  d E =-.347454E+03  mag=     8.0118
       N       E                     dE             d eps       ncg     rms          rms(c)
DAV:   1    -0.347520748991E+03   -0.66430E-01   -0.45706E-02 31456   0.358E-01    0.542E-02
DAV:   2    -0.347520993390E+03   -0.24440E-03   -0.17305E-03 31048   0.892E-02    0.251E-01
DAV:   3    -0.347520863578E+03    0.12981E-03   -0.31025E-04 31536   0.515E-02    0.681E-02
DAV:   4    -0.347520868833E+03   -0.52550E-05   -0.30334E-05 21032   0.183E-02
   2 F= -.34752087E+03 E0= -.34750605E+03  d E =-.665572E-01  mag=     8.0085
       N       E                     dE             d eps       ncg     rms          rms(c)
DAV:   1    -0.349849970284E+03   -0.23291E+01   -0.15123E+02 31288   0.206E+01    0.252E+00
DAV:   2    -0.350491278246E+03   -0.64131E+00   -0.69519E+00 28992   0.430E+00    0.363E+00
DAV:   3    -0.350479430068E+03    0.11848E-01   -0.26226E-01 40760   0.127E+00    0.307E+00
DAV:   4    -0.350474669339E+03    0.47607E-02   -0.99204E-02 39128   0.987E-01    0.383E+00
DAV:   5    -0.350449964892E+03    0.24704E-01   -0.86365E-02 39736   0.838E-01    0.247E+00
DAV:   6    -0.350477274627E+03   -0.27310E-01   -0.18630E-01 39232   0.102E+00    0.477E+00
DAV:   7    -0.350430956083E+03    0.46319E-01   -0.16320E-01 39352   0.109E+00    0.203E+00
DAV:   8    -0.350434145389E+03   -0.31893E-02   -0.75894E-02 39376   0.694E-01    0.184E+00
DAV:   9    -0.350427236710E+03    0.69087E-02   -0.27420E-02 39440   0.474E-01    0.757E-01
DAV:  10    -0.350426801962E+03    0.43475E-03   -0.63493E-03 37440   0.286E-01    0.772E-01
DAV:  11    -0.350425304983E+03    0.14970E-02   -0.62849E-03 38640   0.253E-01    0.451E-01
DAV:  12    -0.350425059783E+03    0.24520E-03   -0.29521E-03 38976   0.197E-01    0.360E-01
DAV:  13    -0.350425015062E+03    0.44721E-04   -0.11064E-03 38264   0.132E-01    0.322E-01
DAV:  14    -0.350425068640E+03   -0.53578E-04   -0.96285E-04 37040   0.934E-02    0.344E-01
DAV:  15    -0.350424945236E+03    0.12340E-03   -0.51440E-04 36328   0.823E-02    0.174E-01
DAV:  16    -0.350424921342E+03    0.23893E-04   -0.14227E-04 29528   0.461E-02    0.143E-01
DAV:  17    -0.350424890787E+03    0.30555E-04   -0.66200E-05 29368   0.268E-02    0.127E-01
DAV:  18    -0.350424853030E+03    0.37758E-04   -0.96325E-05 30512   0.390E-02    0.998E-02
DAV:  19    -0.350424827171E+03    0.25858E-04   -0.10848E-04 31432   0.424E-02    0.593E-02
DAV:  20    -0.350424828000E+03   -0.82878E-06   -0.42550E-05 24016   0.247E-02
   3 F= -.35042483E+03 E0= -.35041038E+03  d E =-.290396E+01  mag=     8.0007
       N       E                     dE             d eps       ncg     rms          rms(c)
DAV:   1    -0.350663897358E+03   -0.23907E+00   -0.37178E+02 31592   0.396E+01    0.483E+00
DAV:   2    -0.353247478893E+03   -0.25836E+01   -0.24896E+01 30912   0.883E+00    0.158E+01
DAV:   3    -0.352990383074E+03    0.25710E+00   -0.48402E+00 37720   0.399E+00    0.809E+00
DAV:   4    -0.352868189419E+03    0.12219E+00   -0.76043E-01 37760   0.211E+00    0.576E+00
DAV:   5    -0.352809090825E+03    0.59099E-01   -0.25984E-01 38344   0.152E+00    0.398E+00
DAV:   6    -0.352810887806E+03   -0.17970E-02   -0.11543E-01 39960   0.115E+00    0.360E+00
DAV:   7    -0.352796770684E+03    0.14117E-01   -0.61829E-02 40304   0.816E-01    0.324E+00
DAV:   8    -0.352778928487E+03    0.17842E-01   -0.52096E-02 39408   0.782E-01    0.239E+00
DAV:   9    -0.352769221225E+03    0.97073E-02   -0.11238E-01 40424   0.924E-01    0.271E+00
DAV:  10    -0.352755473832E+03    0.13747E-01   -0.11322E-01 40112   0.882E-01    0.193E+00
DAV:  11    -0.352760150831E+03   -0.46770E-02   -0.41719E-02 39088   0.697E-01    0.237E+00
DAV:  12    -0.352754377641E+03    0.57732E-02   -0.27320E-02 39808   0.581E-01    0.156E+00
DAV:  13    -0.352751385902E+03    0.29917E-02   -0.10937E-02 39048   0.350E-01    0.787E-01
DAV:  14    -0.352751309023E+03    0.76879E-04   -0.40873E-03 38496   0.247E-01    0.434E-01
DAV:  15    -0.352751492355E+03   -0.18333E-03   -0.28767E-03 37840   0.181E-01    0.469E-01
DAV:  16    -0.352751481183E+03    0.11172E-04   -0.21800E-03 38544   0.132E-01    0.521E-01
DAV:  17    -0.352751031872E+03    0.44931E-03   -0.92059E-04 37528   0.111E-01    0.232E-01
DAV:  18    -0.352751042904E+03   -0.11032E-04   -0.24916E-04 35128   0.550E-02    0.174E-01
DAV:  19    -0.352751043514E+03   -0.61009E-06   -0.11086E-04 32792   0.443E-02    0.140E-01
DAV:  20    -0.352751040044E+03    0.34701E-05   -0.11861E-04 32432   0.479E-02    0.116E-01
DAV:  21    -0.352751028754E+03    0.11291E-04   -0.11221E-04 33936   0.413E-02    0.841E-02
DAV:  22    -0.352751029922E+03   -0.11682E-05   -0.45627E-05 26752   0.275E-02
   4 F= -.35275103E+03 E0= -.35273668E+03  d E =-.232620E+01  mag=     8.0001
       N       E                     dE             d eps       ncg     rms          rms(c)
DAV:   1    -0.352590447011E+03    0.16058E+00   -0.16699E+02 31952   0.314E+01    0.317E+00
DAV:   2    -0.353636482456E+03   -0.10460E+01   -0.10308E+01 28976   0.634E+00    0.721E+00
DAV:   3    -0.353609206998E+03    0.27275E-01   -0.11763E+00 39352   0.279E+00    0.625E+00
DAV:   4    -0.353532993732E+03    0.76213E-01   -0.31383E-01 40088   0.154E+00    0.296E+00
DAV:   5    -0.353517889594E+03    0.15104E-01   -0.10941E-01 39264   0.101E+00    0.202E+00
DAV:   6    -0.353517500926E+03    0.38867E-03   -0.55085E-02 38424   0.655E-01    0.199E+00
DAV:   7    -0.353510326697E+03    0.71742E-02   -0.25832E-02 40256   0.586E-01    0.158E+00
DAV:   8    -0.353506434679E+03    0.38920E-02   -0.19996E-02 40376   0.495E-01    0.123E+00
DAV:   9    -0.353506593007E+03   -0.15833E-03   -0.14500E-02 39672   0.419E-01    0.135E+00
DAV:  10    -0.353504881345E+03    0.17117E-02   -0.94127E-03 39112   0.357E-01    0.829E-01
DAV:  11    -0.353504497921E+03    0.38342E-03   -0.66157E-03 39976   0.247E-01    0.628E-01
DAV:  12    -0.353503857135E+03    0.64079E-03   -0.34402E-03 39400   0.204E-01    0.294E-01
DAV:  13    -0.353503947119E+03   -0.89984E-04   -0.15370E-03 38824   0.145E-01    0.272E-01
DAV:  14    -0.353504062342E+03   -0.11522E-03   -0.10242E-03 38016   0.106E-01    0.407E-01
DAV:  15    -0.353503791344E+03    0.27100E-03   -0.74127E-04 34632   0.764E-02    0.173E-01
DAV:  16    -0.353503830400E+03   -0.39056E-04   -0.19448E-04 34208   0.548E-02    0.126E-01
DAV:  17    -0.353503833952E+03   -0.35523E-05   -0.15330E-04 29848   0.497E-02    0.975E-02
DAV:  18    -0.353503844936E+03   -0.10983E-04   -0.10269E-04 27872   0.414E-02    0.678E-02
DAV:  19    -0.353503856181E+03   -0.11246E-04   -0.54498E-05 24024   0.235E-02    0.448E-02
DAV:  20    -0.353503861002E+03   -0.48209E-05   -0.16195E-05 19720   0.160E-02
   5 F= -.35350386E+03 E0= -.35348939E+03  d E =-.752831E+00  mag=     8.0000
       N       E                     dE             d eps       ncg     rms          rms(c)
DAV:   1    -0.352836521027E+03    0.66734E+00   -0.27436E+02 30888   0.382E+01    0.375E+00
DAV:   2    -0.354179355833E+03   -0.13428E+01   -0.13203E+01 30704   0.812E+00    0.820E+00
DAV:   3    -0.354107757107E+03    0.71599E-01   -0.99244E-01 38968   0.279E+00    0.644E+00
DAV:   4    -0.354039006999E+03    0.68750E-01   -0.30333E-01 40664   0.143E+00    0.365E+00
DAV:   5    -0.354035842633E+03    0.31644E-02   -0.72991E-02 40848   0.101E+00    0.368E+00
DAV:   6    -0.354042641364E+03   -0.67987E-02   -0.72101E-02 40416   0.920E-01    0.429E+00
DAV:   7    -0.354013717933E+03    0.28923E-01   -0.94041E-02 39616   0.115E+00    0.312E+00
DAV:   8    -0.354008613729E+03    0.51042E-02   -0.82518E-02 39880   0.110E+00    0.253E+00
DAV:   9    -0.354006730049E+03    0.18837E-02   -0.78652E-02 39416   0.859E-01    0.199E+00
DAV:  10    -0.354003785509E+03    0.29445E-02   -0.26794E-02 39336   0.591E-01    0.141E+00
DAV:  11    -0.354004420532E+03   -0.63502E-03   -0.26565E-02 39120   0.501E-01    0.136E+00
DAV:  12    -0.354001791090E+03    0.26294E-02   -0.14747E-02 38688   0.374E-01    0.700E-01
DAV:  13    -0.354002201089E+03   -0.41000E-03   -0.46008E-03 38424   0.264E-01    0.710E-01
DAV:  14    -0.354001690633E+03    0.51046E-03   -0.22479E-03 37928   0.140E-01    0.467E-01
DAV:  15    -0.354001586596E+03    0.10404E-03   -0.52753E-04 37752   0.837E-02    0.387E-01
DAV:  16    -0.354001498701E+03    0.87894E-04   -0.11235E-04 31464   0.406E-02    0.349E-01
DAV:  17    -0.354001267802E+03    0.23090E-03   -0.53107E-04 38824   0.100E-01    0.251E-01
DAV:  18    -0.354001129969E+03    0.13783E-03   -0.58547E-04 39304   0.103E-01    0.149E-01
DAV:  19    -0.354001205058E+03   -0.75089E-04   -0.21639E-04 36936   0.521E-02    0.143E-01
DAV:  20    -0.354001203727E+03    0.13309E-05   -0.49969E-05 27920   0.311E-02
   6 F= -.35400120E+03 E0= -.35398692E+03  d E =-.497343E+00  mag=     8.0000
       N       E                     dE             d eps       ncg     rms          rms(c)
DAV:   1    -0.352728249041E+03    0.12730E+01   -0.24672E+02 30496   0.426E+01    0.445E+00
DAV:   2    -0.354298146309E+03   -0.15699E+01   -0.16431E+01 28296   0.891E+00    0.510E+00
DAV:   3    -0.354382898685E+03   -0.84752E-01   -0.11351E+00 40024   0.338E+00    0.842E+00
DAV:   4    -0.354236924803E+03    0.14597E+00   -0.57092E-01 39872   0.200E+00    0.362E+00
DAV:   5    -0.354228450498E+03    0.84743E-02   -0.10007E-01 39968   0.113E+00    0.238E+00
DAV:   6    -0.354235354609E+03   -0.69041E-02   -0.59776E-02 39856   0.943E-01    0.337E+00
DAV:   7    -0.354219687275E+03    0.15667E-01   -0.49588E-02 38464   0.879E-01    0.247E+00
DAV:   8    -0.354208081177E+03    0.11606E-01   -0.30250E-02 37992   0.636E-01    0.853E-01
DAV:   9    -0.354211868972E+03   -0.37878E-02   -0.11411E-02 39392   0.439E-01    0.132E+00
DAV:  10    -0.354208998062E+03    0.28709E-02   -0.83985E-03 38000   0.311E-01    0.587E-01
DAV:  11    -0.354209465542E+03   -0.46748E-03   -0.26692E-03 40144   0.207E-01    0.512E-01
DAV:  12    -0.354209663471E+03   -0.19793E-03   -0.24407E-03 38680   0.154E-01    0.594E-01
DAV:  13    -0.354209273160E+03    0.39031E-03   -0.74387E-04 38624   0.997E-02    0.415E-01
DAV:  14    -0.354209414374E+03   -0.14121E-03   -0.11712E-03 39080   0.988E-02    0.476E-01
DAV:  15    -0.354209074293E+03    0.34008E-03   -0.13395E-03 38256   0.110E-01    0.348E-01
DAV:  16    -0.354208698279E+03    0.37601E-03   -0.76825E-04 38952   0.119E-01    0.205E-01
DAV:  17    -0.354208790744E+03   -0.92466E-04   -0.59974E-04 39072   0.108E-01    0.190E-01
DAV:  18    -0.354208787694E+03    0.30508E-05   -0.44626E-04 38752   0.767E-02    0.991E-02
DAV:  19    -0.354208811368E+03   -0.23674E-04   -0.11324E-04 33152   0.381E-02    0.874E-02
DAV:  20    -0.354208808637E+03    0.27310E-05   -0.42291E-05 23648   0.257E-02
   7 F= -.35420881E+03 E0= -.35419439E+03  d E =-.207605E+00  mag=     8.0000
       N       E                     dE             d eps       ncg     rms          rms(c)
DAV:   1    -0.353720895086E+03    0.48792E+00   -0.17236E+02 31320   0.345E+01    0.322E+00
DAV:   2    -0.354523844818E+03   -0.80295E+00   -0.80014E+00 29848   0.689E+00    0.663E+00
DAV:   3    -0.354458752580E+03    0.65092E-01   -0.49340E-01 37152   0.236E+00    0.481E+00
DAV:   4    -0.354431400116E+03    0.27352E-01   -0.22515E-01 40712   0.127E+00    0.327E+00
DAV:   5    -0.354430333933E+03    0.10662E-02   -0.87222E-02 39632   0.100E+00    0.347E+00
DAV:   6    -0.354419175191E+03    0.11159E-01   -0.75847E-02 39192   0.911E-01    0.279E+00
DAV:   7    -0.354415864286E+03    0.33109E-02   -0.66413E-02 38208   0.949E-01    0.240E+00
DAV:   8    -0.354410526581E+03    0.53377E-02   -0.60577E-02 38944   0.848E-01    0.186E+00
DAV:   9    -0.354405467495E+03    0.50591E-02   -0.46804E-02 38208   0.619E-01    0.103E+00
DAV:  10    -0.354407713595E+03   -0.22461E-02   -0.12555E-02 38248   0.364E-01    0.123E+00
DAV:  11    -0.354405358118E+03    0.23555E-02   -0.76077E-03 36808   0.251E-01    0.555E-01
DAV:  12    -0.354405526783E+03   -0.16866E-03   -0.11170E-03 38000   0.142E-01    0.388E-01
DAV:  13    -0.354405469842E+03    0.56941E-04   -0.28077E-04 36976   0.597E-02    0.356E-01
DAV:  14    -0.354405433643E+03    0.36199E-04   -0.25489E-05 22504   0.165E-02    0.350E-01
DAV:  15    -0.354405411152E+03    0.22491E-04   -0.97730E-06 16136   0.119E-02    0.352E-01
DAV:  16    -0.354405344705E+03    0.66447E-04   -0.41996E-04 37824   0.798E-02    0.318E-01
DAV:  17    -0.354405096515E+03    0.24819E-03   -0.59784E-04 39032   0.107E-01    0.226E-01
DAV:  18    -0.354404992586E+03    0.10393E-03   -0.32352E-04 38560   0.716E-02    0.161E-01
DAV:  19    -0.354405060625E+03   -0.68039E-04   -0.21790E-04 35584   0.588E-02    0.153E-01
DAV:  20    -0.354405052888E+03    0.77375E-05   -0.18928E-04 30792   0.488E-02    0.903E-02
DAV:  21    -0.354405067919E+03   -0.15032E-04   -0.39565E-05 22400   0.190E-02    0.814E-02
DAV:  22    -0.354405068899E+03   -0.97971E-06   -0.97289E-06 16400   0.111E-02
   8 F= -.35440507E+03 E0= -.35439062E+03  d E =-.196260E+00  mag=     8.0000
       N       E                     dE             d eps       ncg     rms          rms(c)
DAV:   1    -0.353653420230E+03    0.75165E+00   -0.18044E+02 30456   0.375E+01    0.313E+00
DAV:   2    -0.354603014467E+03   -0.94959E+00   -0.97661E+00 28336   0.725E+00    0.587E+00
DAV:   3    -0.354601420070E+03    0.15944E-02   -0.61705E-01 38584   0.255E+00    0.575E+00
DAV:   4    -0.354537361160E+03    0.64059E-01   -0.26376E-01 39440   0.148E+00    0.307E+00
DAV:   5    -0.354529976696E+03    0.73845E-02   -0.86102E-02 39208   0.927E-01    0.240E+00
DAV:   6    -0.354528253225E+03    0.17235E-02   -0.64840E-02 38776   0.713E-01    0.232E+00
DAV:   7    -0.354517405659E+03    0.10848E-01   -0.45188E-02 39128   0.822E-01    0.145E+00
DAV:   8    -0.354515144903E+03    0.22608E-02   -0.14613E-02 39360   0.476E-01    0.896E-01
DAV:   9    -0.354517038996E+03   -0.18941E-02   -0.12501E-02 38360   0.359E-01    0.132E+00
DAV:  10    -0.354514111871E+03    0.29271E-02   -0.67903E-03 37856   0.258E-01    0.472E-01
DAV:  11    -0.354514609876E+03   -0.49801E-03   -0.37736E-03 38176   0.179E-01    0.429E-01
DAV:  12    -0.354514485263E+03    0.12461E-03   -0.19581E-03 37800   0.130E-01    0.317E-01
DAV:  13    -0.354514378033E+03    0.10723E-03   -0.54125E-04 38824   0.890E-02    0.230E-01
DAV:  14    -0.354514452835E+03   -0.74803E-04   -0.32955E-04 34200   0.615E-02    0.304E-01
DAV:  15    -0.354514333092E+03    0.11974E-03   -0.39877E-04 33288   0.682E-02    0.227E-01
DAV:  16    -0.354514267251E+03    0.65842E-04   -0.25036E-04 36248   0.691E-02    0.155E-01
DAV:  17    -0.354514270611E+03   -0.33607E-05   -0.39667E-04 35360   0.622E-02    0.125E-01
DAV:  18    -0.354514290695E+03   -0.20083E-04   -0.14327E-04 30040   0.430E-02    0.833E-02
DAV:  19    -0.354514293903E+03   -0.32089E-05   -0.33406E-05 23040   0.263E-02
   9 F= -.35451429E+03 E0= -.35449904E+03  d E =-.109225E+00  mag=     8.0000
       N       E                     dE             d eps       ncg     rms          rms(c)
DAV:   1    -0.351888640939E+03    0.26256E+01   -0.31580E+02 32096   0.507E+01    0.682E+00
DAV:   2    -0.354293087844E+03   -0.24044E+01   -0.25169E+01 28592   0.116E+01    0.120E+01
DAV:   3    -0.354085802566E+03    0.20729E+00   -0.18113E+00 36800   0.404E+00    0.879E+00
DAV:   4    -0.354012539731E+03    0.73263E-01   -0.84868E-01 38872   0.225E+00    0.712E+00
DAV:   5    -0.353938205080E+03    0.74335E-01   -0.29553E-01 39584   0.177E+00    0.523E+00
DAV:   6    -0.354153499623E+03   -0.21529E+00   -0.47291E-01 39280   0.217E+00    0.116E+01
DAV:   7    -0.354081398881E+03    0.72101E-01   -0.13885E+00 37744   0.237E+00    0.102E+01
DAV:   8    -0.353908382718E+03    0.17302E+00   -0.84359E-01 37736   0.203E+00    0.437E+00
DAV:   9    -0.353903939842E+03    0.44429E-02   -0.23070E-01 38632   0.142E+00    0.377E+00
DAV:  10    -0.353889037786E+03    0.14902E-01   -0.84467E-02 38480   0.883E-01    0.187E+00
DAV:  11    -0.353894016984E+03   -0.49792E-02   -0.18419E-02 36280   0.479E-01    0.165E+00
DAV:  12    -0.353891311070E+03    0.27059E-02   -0.72343E-03 37376   0.315E-01    0.114E+00
DAV:  13    -0.353890741718E+03    0.56935E-03   -0.27318E-03 38080   0.216E-01    0.835E-01
DAV:  14    -0.353891316422E+03   -0.57470E-03   -0.30181E-03 39392   0.213E-01    0.955E-01
DAV:  15    -0.353890925046E+03    0.39138E-03   -0.21116E-03 37280   0.167E-01    0.849E-01
DAV:  16    -0.353889903426E+03    0.10216E-02   -0.12040E-03 38832   0.133E-01    0.576E-01
DAV:  17    -0.353889550403E+03    0.35302E-03   -0.13307E-03 39528   0.166E-01    0.466E-01
DAV:  18    -0.353889482057E+03    0.68346E-04   -0.17302E-03 40680   0.132E-01    0.259E-01
DAV:  19    -0.353889578196E+03   -0.96138E-04   -0.65708E-04 36048   0.935E-02    0.210E-01
DAV:  20    -0.353889585631E+03   -0.74349E-05   -0.12681E-04 30512   0.442E-02    0.198E-01
DAV:  21    -0.353889519605E+03    0.66025E-04   -0.13274E-04 25408   0.341E-02    0.125E-01
DAV:  22    -0.353889529353E+03   -0.97474E-05   -0.99674E-05 27768   0.391E-02
  10 F= -.35388953E+03 E0= -.35387424E+03  d E =0.624765E+00  mag=     8.0000
       N       E                     dE             d eps       ncg     rms          rms(c)
DAV:   1    -0.354138905601E+03   -0.24939E+00   -0.53722E+01 32728   0.225E+01    0.377E+00
DAV:   2    -0.354776512923E+03   -0.63761E+00   -0.58459E+00 30328   0.587E+00    0.880E+00
DAV:   3    -0.354645785055E+03    0.13073E+00   -0.44953E-01 36736   0.202E+00    0.554E+00
DAV:   4    -0.354650962192E+03   -0.51771E-02   -0.13686E-01 37648   0.783E-01    0.546E+00
DAV:   5    -0.354640202620E+03    0.10760E-01   -0.77092E-02 37184   0.707E-01    0.505E+00
DAV:   6    -0.354667351910E+03   -0.27149E-01   -0.30009E-01 39224   0.149E+00    0.584E+00
DAV:   7    -0.354630731509E+03    0.36620E-01   -0.36881E-01 39056   0.179E+00    0.492E+00
DAV:   8    -0.354615725798E+03    0.15006E-01   -0.11919E-01 38912   0.114E+00    0.384E+00
DAV:   9    -0.354604424715E+03    0.11301E-01   -0.40879E-02 37472   0.841E-01    0.239E+00
DAV:  10    -0.354596747479E+03    0.76772E-02   -0.28711E-02 38400   0.571E-01    0.151E+00
DAV:  11    -0.354594823954E+03    0.19235E-02   -0.16714E-02 39192   0.536E-01    0.109E+00
DAV:  12    -0.354599723472E+03   -0.48995E-02   -0.17148E-02 38808   0.534E-01    0.192E+00
DAV:  13    -0.354592051971E+03    0.76715E-02   -0.85399E-03 38848   0.367E-01    0.644E-01
DAV:  14    -0.354592679323E+03   -0.62735E-03   -0.10158E-03 33976   0.120E-01    0.588E-01
DAV:  15    -0.354592637497E+03    0.41827E-04   -0.25256E-04 32752   0.564E-02    0.547E-01
DAV:  16    -0.354592567295E+03    0.70202E-04   -0.17501E-04 31856   0.504E-02    0.491E-01
DAV:  17    -0.354592217247E+03    0.35005E-03   -0.52600E-04 39656   0.934E-02    0.256E-01
DAV:  18    -0.354592237410E+03   -0.20163E-04   -0.42346E-04 38912   0.835E-02    0.204E-01
DAV:  19    -0.354592244120E+03   -0.67101E-05   -0.18254E-04 36160   0.569E-02    0.129E-01
DAV:  20    -0.354592269775E+03   -0.25655E-04   -0.48470E-05 27728   0.253E-02    0.108E-01
DAV:  21    -0.354592263278E+03    0.64969E-05   -0.31974E-05 23064   0.240E-02
  11 F= -.35459226E+03 E0= -.35457698E+03  d E =-.702734E+00  mag=     8.0000
       N       E                     dE             d eps       ncg     rms          rms(c)
DAV:   1    -0.354617839717E+03   -0.25570E-01   -0.57391E+00 32056   0.792E+00    0.781E-01
DAV:   2    -0.354676626480E+03   -0.58787E-01   -0.65671E-01 28320   0.171E+00    0.163E+00
DAV:   3    -0.354672805278E+03    0.38212E-02   -0.32292E-02 36520   0.544E-01    0.845E-01
DAV:   4    -0.354674175578E+03   -0.13703E-02   -0.10141E-02 39224   0.289E-01    0.113E+00
DAV:   5    -0.354672465498E+03    0.17101E-02   -0.73415E-03 37408   0.252E-01    0.779E-01
DAV:   6    -0.354672763795E+03   -0.29830E-03   -0.83192E-03 37432   0.222E-01    0.842E-01
DAV:   7    -0.354675188780E+03   -0.24250E-02   -0.17183E-02 37312   0.335E-01    0.153E+00
DAV:   8    -0.354670758705E+03    0.44301E-02   -0.11823E-02 37464   0.312E-01    0.483E-01
DAV:   9    -0.354671142521E+03   -0.38382E-03   -0.30633E-03 36088   0.179E-01    0.410E-01
DAV:  10    -0.354670790009E+03    0.35251E-03   -0.13981E-03 38224   0.116E-01    0.181E-01
DAV:  11    -0.354670806696E+03   -0.16687E-04   -0.34917E-04 37520   0.697E-02    0.174E-01
DAV:  12    -0.354670759916E+03    0.46780E-04   -0.15541E-04 26952   0.424E-02    0.817E-02
DAV:  13    -0.354670754590E+03    0.53265E-05   -0.51719E-05 26200   0.299E-02
  12 F= -.35467075E+03 E0= -.35465546E+03  d E =-.784913E-01  mag=     8.0000
       N       E                     dE             d eps       ncg     rms          rms(c)
DAV:   1    -0.354668953636E+03    0.18063E-02   -0.29562E+00 31456   0.558E+00    0.483E-01
DAV:   2    -0.354694664511E+03   -0.25711E-01   -0.29189E-01 28288   0.113E+00    0.874E-01
DAV:   3    -0.354694526966E+03    0.13754E-03   -0.14091E-02 37616   0.358E-01    0.714E-01
DAV:   4    -0.354694503086E+03    0.23879E-04   -0.45446E-03 38240   0.215E-01    0.727E-01
DAV:   5    -0.354693667317E+03    0.83577E-03   -0.36150E-03 38192   0.176E-01    0.423E-01
DAV:   6    -0.354693896523E+03   -0.22921E-03   -0.24533E-03 38440   0.139E-01    0.542E-01
DAV:   7    -0.354693835949E+03    0.60574E-04   -0.38562E-03 38128   0.170E-01    0.569E-01
DAV:   8    -0.354693210344E+03    0.62560E-03   -0.26033E-03 38408   0.156E-01    0.299E-01
DAV:   9    -0.354693289560E+03   -0.79216E-04   -0.10933E-03 37424   0.108E-01    0.328E-01
DAV:  10    -0.354693064602E+03    0.22496E-03   -0.43741E-04 37136   0.785E-02    0.105E-01
DAV:  11    -0.354693072234E+03   -0.76316E-05   -0.14669E-04 27800   0.405E-02    0.622E-02
DAV:  12    -0.354693070662E+03    0.15716E-05   -0.54660E-05 24176   0.251E-02
  13 F= -.35469307E+03 E0= -.35467777E+03  d E =-.223161E-01  mag=     8.0000
       N       E                     dE             d eps       ncg     rms          rms(c)
DAV:   1    -0.354696217099E+03   -0.31449E-02   -0.17139E+00 30960   0.378E+00    0.292E-01
DAV:   2    -0.354704669931E+03   -0.84528E-02   -0.86647E-02 28288   0.724E-01    0.680E-01
DAV:   3    -0.354703811710E+03    0.85822E-03   -0.38373E-03 38088   0.199E-01    0.317E-01
DAV:   4    -0.354704138760E+03   -0.32705E-03   -0.12143E-03 38728   0.107E-01    0.456E-01
DAV:   5    -0.354703808481E+03    0.33028E-03   -0.10551E-03 38152   0.954E-02    0.266E-01
DAV:   6    -0.354703934201E+03   -0.12572E-03   -0.10307E-03 36792   0.845E-02    0.363E-01
DAV:   7    -0.354703966684E+03   -0.32483E-04   -0.14162E-03 37944   0.101E-01    0.396E-01
DAV:   8    -0.354703739738E+03    0.22695E-03   -0.12006E-03 37584   0.101E-01    0.236E-01
DAV:   9    -0.354703711892E+03    0.27846E-04   -0.57628E-04 36320   0.698E-02    0.216E-01
DAV:  10    -0.354703645488E+03    0.66404E-04   -0.21440E-04 26936   0.503E-02    0.879E-02
DAV:  11    -0.354703653967E+03   -0.84787E-05   -0.73712E-05 23072   0.288E-02
  14 F= -.35470365E+03 E0= -.35468832E+03  d E =-.105833E-01  mag=     8.0000
       N       E                     dE             d eps       ncg     rms          rms(c)
DAV:   1    -0.354663589180E+03    0.40056E-01   -0.21660E+01 31056   0.123E+01    0.932E-01
DAV:   2    -0.354745003532E+03   -0.81414E-01   -0.81709E-01 28432   0.223E+00    0.200E+00
DAV:   3    -0.354737788420E+03    0.72151E-02   -0.32470E-02 38760   0.655E-01    0.108E+00
DAV:   4    -0.354739396364E+03   -0.16079E-02   -0.98509E-03 40088   0.353E-01    0.127E+00
DAV:   5    -0.354736184983E+03    0.32114E-02   -0.56310E-03 38400   0.290E-01    0.525E-01
DAV:   6    -0.354737240872E+03   -0.10559E-02   -0.51435E-03 39160   0.265E-01    0.820E-01
DAV:   7    -0.354737102835E+03    0.13804E-03   -0.83134E-03 37584   0.271E-01    0.874E-01
DAV:   8    -0.354735951382E+03    0.11515E-02   -0.44868E-03 37632   0.205E-01    0.580E-01
DAV:   9    -0.354735580270E+03    0.37111E-03   -0.15822E-03 37824   0.142E-01    0.317E-01
DAV:  10    -0.354735536406E+03    0.43865E-04   -0.10771E-03 37112   0.902E-02    0.145E-01
DAV:  11    -0.354735568044E+03   -0.31638E-04   -0.23178E-04 31272   0.460E-02    0.116E-01
DAV:  12    -0.354735566156E+03    0.18883E-05   -0.10668E-04 21776   0.271E-02    0.110E-01
DAV:  13    -0.354735545630E+03    0.20526E-04   -0.37668E-05 20048   0.214E-02    0.625E-02
DAV:  14    -0.354735540432E+03    0.51986E-05   -0.24723E-05 18248   0.182E-02
  15 F= -.35473554E+03 E0= -.35472023E+03  d E =-.318865E-01  mag=     8.0000
       N       E                     dE             d eps       ncg     rms          rms(c)
DAV:   1    -0.354230237549E+03    0.50531E+00   -0.15042E+02 31168   0.320E+01    0.244E+00
DAV:   2    -0.354836995226E+03   -0.60676E+00   -0.62249E+00 28792   0.586E+00    0.434E+00
DAV:   3    -0.354819806247E+03    0.17189E-01   -0.26225E-01 38472   0.181E+00    0.413E+00
DAV:   4    -0.354797872196E+03    0.21934E-01   -0.98807E-02 40264   0.100E+00    0.270E+00
DAV:   5    -0.354786376694E+03    0.11496E-01   -0.60902E-02 38704   0.743E-01    0.144E+00
DAV:   6    -0.354791152692E+03   -0.47760E-02   -0.40384E-02 39808   0.611E-01    0.195E+00
DAV:   7    -0.354783774363E+03    0.73783E-02   -0.40858E-02 38120   0.615E-01    0.129E+00
DAV:   8    -0.354780508122E+03    0.32662E-02   -0.12352E-02 38488   0.335E-01    0.609E-01
DAV:   9    -0.354782996674E+03   -0.24886E-02   -0.13879E-02 38240   0.265E-01    0.121E+00
DAV:  10    -0.354780242444E+03    0.27542E-02   -0.99638E-03 37664   0.235E-01    0.356E-01
DAV:  11    -0.354780974136E+03   -0.73169E-03   -0.19431E-03 37864   0.152E-01    0.559E-01
DAV:  12    -0.354780521712E+03    0.45242E-03   -0.16114E-03 37696   0.124E-01    0.225E-01
DAV:  13    -0.354780674023E+03   -0.15231E-03   -0.53319E-04 35880   0.941E-02    0.275E-01
DAV:  14    -0.354780607147E+03    0.66876E-04   -0.36628E-04 33008   0.691E-02    0.184E-01
DAV:  15    -0.354780585332E+03    0.21814E-04   -0.22373E-04 29608   0.563E-02    0.126E-01
DAV:  16    -0.354780571279E+03    0.14053E-04   -0.59970E-05 25000   0.319E-02    0.766E-02
DAV:  17    -0.354780573357E+03   -0.20778E-05   -0.70457E-05 23288   0.313E-02
  16 F= -.35478057E+03 E0= -.35476536E+03  d E =-.450329E-01  mag=     8.0000
       N       E                     dE             d eps       ncg     rms          rms(c)
DAV:   1    -0.351318145608E+03    0.34624E+01   -0.26502E+02 32840   0.444E+01    0.838E+00
DAV:   2    -0.354680711606E+03   -0.33626E+01   -0.29983E+01 29640   0.108E+01    0.169E+01
DAV:   3    -0.354469994638E+03    0.21072E+00   -0.16132E+01 37864   0.657E+00    0.132E+01
DAV:   4    -0.354460835681E+03    0.91590E-02   -0.28268E+00 37752   0.420E+00    0.136E+01
DAV:   5    -0.353880143457E+03    0.58069E+00   -0.16995E+00 39056   0.293E+00    0.663E+00
DAV:   6    -0.353823061577E+03    0.57082E-01   -0.36123E-01 38456   0.184E+00    0.700E+00
DAV:   7    -0.353744737132E+03    0.78324E-01   -0.26299E-01 38640   0.140E+00    0.522E+00
DAV:   8    -0.353723537610E+03    0.21200E-01   -0.17455E-01 38840   0.116E+00    0.276E+00
DAV:   9    -0.353768937084E+03   -0.45399E-01   -0.60160E-02 37696   0.697E-01    0.318E+00
DAV:  10    -0.353775160997E+03   -0.62239E-02   -0.16639E-02 34480   0.384E-01    0.285E+00
DAV:  11    -0.353777434456E+03   -0.22735E-02   -0.17991E-03 35704   0.177E-01    0.273E+00
DAV:  12    -0.353792542715E+03   -0.15108E-01   -0.29573E-02 40008   0.723E-01    0.259E+00
DAV:  13    -0.353804042044E+03   -0.11499E-01   -0.15067E-01 39160   0.107E+00    0.331E+00
DAV:  14    -0.353776225575E+03    0.27816E-01   -0.11108E-01 39136   0.871E-01    0.167E+00
DAV:  15    -0.353778709999E+03   -0.24844E-02   -0.34165E-02 37992   0.664E-01    0.200E+00
DAV:  16    -0.353777595449E+03    0.11146E-02   -0.20959E-02 38784   0.530E-01    0.137E+00
DAV:  17    -0.353776457381E+03    0.11381E-02   -0.90205E-03 38120   0.399E-01    0.731E-01
DAV:  18    -0.353776088827E+03    0.36855E-03   -0.36345E-03 39488   0.262E-01    0.395E-01
DAV:  19    -0.353776078215E+03    0.10613E-04   -0.21353E-03 38920   0.195E-01    0.326E-01
DAV:  20    -0.353775871858E+03    0.20636E-03   -0.12895E-03 39328   0.151E-01    0.308E-01
DAV:  21    -0.353775872148E+03   -0.29033E-06   -0.67084E-04 36640   0.771E-02    0.218E-01
DAV:  22    -0.353776017208E+03   -0.14506E-03   -0.24085E-04 35256   0.502E-02    0.194E-01
DAV:  23    -0.353776165934E+03   -0.14873E-03   -0.19523E-04 33976   0.481E-02    0.150E-01
DAV:  24    -0.353776165210E+03    0.72358E-06   -0.17631E-04 34624   0.460E-02    0.127E-01
DAV:  25    -0.353776169493E+03   -0.42828E-05   -0.81743E-05 32640   0.346E-02
  17 F= -.35377617E+03 E0= -.35376082E+03  d E =0.100440E+01  mag=     7.9906
       N       E                     dE             d eps       ncg     rms          rms(c)
DAV:   1    -0.354014061649E+03   -0.23790E+00   -0.64946E+01 32112   0.222E+01    0.407E+00
DAV:   2    -0.354851343524E+03   -0.83728E+00   -0.78853E+00 29688   0.586E+00    0.991E+00
DAV:   3    -0.354671735876E+03    0.17961E+00   -0.13533E+00 38088   0.244E+00    0.594E+00
DAV:   4    -0.354657535510E+03    0.14200E-01   -0.17566E-01 37280   0.101E+00    0.478E+00
DAV:   5    -0.354693995109E+03   -0.36460E-01   -0.23907E-01 38304   0.893E-01    0.599E+00
DAV:   6    -0.354665164336E+03    0.28831E-01   -0.24319E-01 37520   0.103E+00    0.464E+00
DAV:   7    -0.354682389393E+03   -0.17225E-01   -0.27251E-01 39712   0.164E+00    0.585E+00
DAV:   8    -0.354627219734E+03    0.55170E-01   -0.19216E-01 38824   0.146E+00    0.372E+00
DAV:   9    -0.354623806732E+03    0.34130E-02   -0.52357E-02 38880   0.904E-01    0.265E+00
DAV:  10    -0.354624235130E+03   -0.42840E-03   -0.12096E-02 38320   0.474E-01    0.202E+00
DAV:  11    -0.354627404482E+03   -0.31694E-02   -0.16381E-02 39672   0.537E-01    0.258E+00
DAV:  12    -0.354617823557E+03    0.95809E-02   -0.23419E-02 39640   0.596E-01    0.131E+00
DAV:  13    -0.354615954613E+03    0.18689E-02   -0.84976E-03 38344   0.424E-01    0.750E-01
DAV:  14    -0.354615923992E+03    0.30620E-04   -0.37708E-03 38168   0.238E-01    0.767E-01
DAV:  15    -0.354615170399E+03    0.75359E-03   -0.15721E-03 37296   0.138E-01    0.455E-01
DAV:  16    -0.354615249754E+03   -0.79354E-04   -0.37516E-04 38984   0.793E-02    0.398E-01
DAV:  17    -0.354615356089E+03   -0.10633E-03   -0.25375E-04 35816   0.610E-02    0.314E-01
DAV:  18    -0.354615342686E+03    0.13402E-04   -0.61209E-04 38800   0.846E-02    0.165E-01
DAV:  19    -0.354615426932E+03   -0.84245E-04   -0.20860E-04 32480   0.560E-02    0.131E-01
DAV:  20    -0.354615440059E+03   -0.13127E-04   -0.45019E-05 25616   0.270E-02    0.104E-01
DAV:  21    -0.354615454711E+03   -0.14652E-04   -0.41519E-05 25544   0.216E-02    0.924E-02
DAV:  22    -0.354615450040E+03    0.46700E-05   -0.45469E-05 27448   0.266E-02
  18 F= -.35461545E+03 E0= -.35459990E+03  d E =-.839281E+00  mag=     8.0003
       N       E                     dE             d eps       ncg     rms          rms(c)
DAV:   1    -0.354580935260E+03    0.34519E-01   -0.19882E+01 32304   0.124E+01    0.135E+00
DAV:   2    -0.354788205078E+03   -0.20727E+00   -0.23884E+00 28384   0.265E+00    0.175E+00
DAV:   3    -0.354800181330E+03   -0.11976E-01   -0.13803E-01 38592   0.953E-01    0.263E+00
DAV:   4    -0.354788936683E+03    0.11245E-01   -0.78317E-02 38608   0.659E-01    0.174E+00
DAV:   5    -0.354784186357E+03    0.47503E-02   -0.21373E-02 37120   0.425E-01    0.939E-01
DAV:   6    -0.354787524878E+03   -0.33385E-02   -0.17604E-02 37216   0.386E-01    0.170E+00
DAV:   7    -0.354781198057E+03    0.63268E-02   -0.16161E-02 38088   0.413E-01    0.832E-01
DAV:   8    -0.354781096705E+03    0.10135E-03   -0.14552E-02 38152   0.342E-01    0.795E-01
DAV:   9    -0.354780115573E+03    0.98113E-03   -0.45540E-03 37512   0.237E-01    0.568E-01
DAV:  10    -0.354779642646E+03    0.47293E-03   -0.20216E-03 38608   0.156E-01    0.214E-01
DAV:  11    -0.354779726756E+03   -0.84109E-04   -0.59325E-04 38560   0.904E-02    0.240E-01
DAV:  12    -0.354779657637E+03    0.69118E-04   -0.54788E-04 38800   0.749E-02    0.178E-01
DAV:  13    -0.354779607495E+03    0.50142E-04   -0.19799E-04 32192   0.509E-02    0.681E-02
DAV:  14    -0.354779646098E+03   -0.38603E-04   -0.84754E-05 24104   0.331E-02    0.152E-01
DAV:  15    -0.354779601895E+03    0.44203E-04   -0.53467E-05 22848   0.313E-02    0.696E-02
DAV:  16    -0.354779599463E+03    0.24314E-05   -0.18698E-05 20696   0.188E-02
  19 F= -.35477960E+03 E0= -.35476408E+03  d E =-.164149E+00  mag=     8.0000
       N       E                     dE             d eps       ncg     rms          rms(c)
DAV:   1    -0.354779089261E+03    0.51263E-03   -0.42671E+00 32112   0.466E+00    0.547E-01
DAV:   2    -0.354810670193E+03   -0.31581E-01   -0.32462E-01 28288   0.102E+00    0.149E+00
DAV:   3    -0.354806985681E+03    0.36845E-02   -0.21069E-02 36520   0.344E-01    0.805E-01
DAV:   4    -0.354807323087E+03   -0.33741E-03   -0.70095E-03 38032   0.190E-01    0.819E-01
DAV:   5    -0.354806781716E+03    0.54137E-03   -0.33275E-03 37760   0.149E-01    0.616E-01
DAV:   6    -0.354806807168E+03   -0.25452E-04   -0.30685E-03 37448   0.154E-01    0.650E-01
DAV:   7    -0.354807236688E+03   -0.42952E-03   -0.43685E-03 37848   0.213E-01    0.880E-01
DAV:   8    -0.354806083634E+03    0.11531E-02   -0.45713E-03 37320   0.223E-01    0.501E-01
DAV:   9    -0.354806175162E+03   -0.91528E-04   -0.26712E-03 36352   0.150E-01    0.515E-01
DAV:  10    -0.354805725649E+03    0.44951E-03   -0.10975E-03 37720   0.112E-01    0.114E-01
DAV:  11    -0.354805842332E+03   -0.11668E-03   -0.19037E-04 32488   0.512E-02    0.109E-01
DAV:  12    -0.354805849499E+03   -0.71663E-05   -0.70720E-05 25328   0.332E-02
  20 F= -.35480585E+03 E0= -.35479038E+03  d E =-.262500E-01  mag=     8.0000
       N       E                     dE             d eps       ncg     rms          rms(c)
DAV:   1    -0.354813340297E+03   -0.74980E-02   -0.30954E+00 31272   0.328E+00    0.437E-01
DAV:   2    -0.354826848115E+03   -0.13508E-01   -0.10897E-01 31736   0.736E-01    0.151E+00
DAV:   3    -0.354822096135E+03    0.47520E-02   -0.79588E-03 35904   0.267E-01    0.824E-01
DAV:   4    -0.354822166090E+03   -0.69955E-04   -0.16771E-03 37880   0.101E-01    0.753E-01
DAV:   5    -0.354821736786E+03    0.42930E-03   -0.14498E-03 38216   0.102E-01    0.587E-01
DAV:   6    -0.354821556317E+03    0.18047E-03   -0.20306E-03 36872   0.114E-01    0.475E-01
DAV:   7    -0.354822157071E+03   -0.60075E-03   -0.23502E-03 38224   0.154E-01    0.685E-01
DAV:   8    -0.354821758026E+03    0.39905E-03   -0.27524E-03 37296   0.167E-01    0.494E-01
DAV:   9    -0.354821745882E+03    0.12144E-04   -0.22385E-03 36592   0.141E-01    0.520E-01
DAV:  10    -0.354821253795E+03    0.49209E-03   -0.93389E-04 37592   0.110E-01    0.976E-02
DAV:  11    -0.354821389006E+03   -0.13521E-03   -0.13222E-04 31208   0.406E-02    0.824E-02
DAV:  12    -0.354821399864E+03   -0.10858E-04   -0.28720E-05 20976   0.213E-02    0.733E-02
DAV:  13    -0.354821398189E+03    0.16754E-05   -0.71279E-06 16992   0.122E-02
  21 F= -.35482140E+03 E0= -.35480597E+03  d E =-.155487E-01  mag=     8.0000
       N       E                     dE             d eps       ncg     rms          rms(c)
DAV:   1    -0.354808983320E+03    0.12417E-01   -0.85674E+00 30944   0.567E+00    0.618E-01
DAV:   2    -0.354843688017E+03   -0.34705E-01   -0.31263E-01 30816   0.119E+00    0.196E+00
DAV:   3    -0.354836599468E+03    0.70885E-02   -0.13289E-02 35712   0.332E-01    0.117E+00
DAV:   4    -0.354836862781E+03   -0.26331E-03   -0.41916E-03 38208   0.173E-01    0.119E+00
DAV:   5    -0.354835306427E+03    0.15564E-02   -0.39175E-03 36640   0.149E-01    0.889E-01
DAV:   6    -0.354835480480E+03   -0.17405E-03   -0.33673E-03 37816   0.137E-01    0.885E-01
DAV:   7    -0.354836047058E+03   -0.56658E-03   -0.39764E-03 37624   0.199E-01    0.987E-01
DAV:   8    -0.354835853255E+03    0.19380E-03   -0.64554E-03 37624   0.264E-01    0.899E-01
DAV:   9    -0.354835200939E+03    0.65232E-03   -0.61137E-03 37792   0.250E-01    0.865E-01
DAV:  10    -0.354833920878E+03    0.12801E-02   -0.27945E-03 38240   0.179E-01    0.156E-01
DAV:  11    -0.354834300246E+03   -0.37937E-03   -0.36168E-04 29816   0.614E-02    0.154E-01
DAV:  12    -0.354834317795E+03   -0.17549E-04   -0.67113E-05 25488   0.318E-02    0.141E-01
DAV:  13    -0.354834308361E+03    0.94339E-05   -0.11865E-05 18536   0.149E-02
  22 F= -.35483431E+03 E0= -.35481893E+03  d E =-.129102E-01  mag=     8.0000
       N       E                     dE             d eps       ncg     rms          rms(c)
DAV:   1    -0.354832299130E+03    0.20187E-02   -0.12276E+00 31984   0.304E+00    0.235E-01
DAV:   2    -0.354837892597E+03   -0.55935E-02   -0.52067E-02 29392   0.574E-01    0.691E-01
DAV:   3    -0.354836942320E+03    0.95028E-03   -0.33341E-03 35712   0.185E-01    0.334E-01
DAV:   4    -0.354837022613E+03   -0.80293E-04   -0.12303E-03 37640   0.943E-02    0.295E-01
DAV:   5    -0.354836989047E+03    0.33566E-04   -0.75250E-04 34856   0.707E-02    0.262E-01
DAV:   6    -0.354836913306E+03    0.75741E-04   -0.25402E-04 30888   0.580E-02    0.175E-01
DAV:   7    -0.354836958380E+03   -0.45073E-04   -0.32324E-04 33488   0.570E-02    0.216E-01
DAV:   8    -0.354836953719E+03    0.46608E-05   -0.46392E-04 37088   0.639E-02    0.209E-01
DAV:   9    -0.354836914764E+03    0.38955E-04   -0.17550E-04 32824   0.514E-02    0.179E-01
DAV:  10    -0.354836855466E+03    0.59298E-04   -0.92523E-05 23728   0.403E-02    0.637E-02
DAV:  11    -0.354836869582E+03   -0.14116E-04   -0.21245E-05 20768   0.162E-02    0.489E-02
DAV:  12    -0.354836872864E+03   -0.32816E-05   -0.38969E-06 14696   0.662E-03
  23 F= -.35483687E+03 E0= -.35482160E+03  d E =-.256450E-02  mag=     8.0000
       N       E                     dE             d eps       ncg     rms          rms(c)
DAV:   1    -0.354607516582E+03    0.22935E+00   -0.72463E+01 30712   0.228E+01    0.131E+00
DAV:   2    -0.354853702831E+03   -0.24619E+00   -0.25316E+00 28288   0.398E+00    0.183E+00
DAV:   3    -0.354867614213E+03   -0.13911E-01   -0.18171E-01 38464   0.104E+00    0.320E+00
DAV:   4    -0.354847039125E+03    0.20575E-01   -0.90217E-02 38232   0.653E-01    0.126E+00
DAV:   5    -0.354847271607E+03   -0.23248E-03   -0.12540E-02 39432   0.379E-01    0.101E+00
DAV:   6    -0.354846596502E+03    0.67510E-03   -0.67629E-03 38960   0.311E-01    0.976E-01
DAV:   7    -0.354845445057E+03    0.11514E-02   -0.94584E-03 38144   0.343E-01    0.104E+00
DAV:   8    -0.354843529262E+03    0.19158E-02   -0.50035E-03 38432   0.255E-01    0.442E-01
DAV:   9    -0.354844158375E+03   -0.62911E-03   -0.37851E-03 39032   0.207E-01    0.593E-01
DAV:  10    -0.354843455310E+03    0.70307E-03   -0.20596E-03 38720   0.155E-01    0.192E-01
DAV:  11    -0.354843615291E+03   -0.15998E-03   -0.72970E-04 37704   0.844E-02    0.218E-01
DAV:  12    -0.354843542736E+03    0.72555E-04   -0.41898E-04 32888   0.571E-02    0.110E-01
DAV:  13    -0.354843540819E+03    0.19175E-05   -0.65567E-05 23712   0.350E-02
  24 F= -.35484354E+03 E0= -.35482835E+03  d E =-.666795E-02  mag=     8.0000
       N       E                     dE             d eps       ncg     rms          rms(c)
DAV:   1    -0.351870881619E+03    0.29727E+01   -0.24968E+02 32624   0.432E+01    0.772E+00
DAV:   2    -0.354376536482E+03   -0.25057E+01   -0.26006E+01 28944   0.100E+01    0.952E+00
DAV:   3    -0.354705823160E+03   -0.32929E+00   -0.44500E+00 38920   0.572E+00    0.192E+01
DAV:   4    -0.354202712774E+03    0.50311E+00   -0.24130E+00 38424   0.352E+00    0.101E+01
DAV:   5    -0.354165586376E+03    0.37126E-01   -0.59649E-01 39064   0.253E+00    0.895E+00
DAV:   6    -0.354032578536E+03    0.13301E+00   -0.48003E-01 39040   0.183E+00    0.334E+00
DAV:   7    -0.354069955763E+03   -0.37377E-01   -0.23724E-01 38256   0.134E+00    0.559E+00
DAV:   8    -0.354030402813E+03    0.39553E-01   -0.17400E-01 38616   0.114E+00    0.299E+00
DAV:   9    -0.354026250424E+03    0.41524E-02   -0.11713E-01 38160   0.860E-01    0.213E+00
DAV:  10    -0.354021277970E+03    0.49725E-02   -0.59587E-02 38576   0.751E-01    0.189E+00
DAV:  11    -0.354015079920E+03    0.61981E-02   -0.22410E-02 38352   0.609E-01    0.128E+00
DAV:  12    -0.354017457486E+03   -0.23776E-02   -0.22683E-02 38456   0.472E-01    0.174E+00
DAV:  13    -0.354012272949E+03    0.51845E-02   -0.17730E-02 37736   0.427E-01    0.119E+00
DAV:  14    -0.354013262131E+03   -0.98918E-03   -0.14294E-02 38904   0.417E-01    0.158E+00
DAV:  15    -0.354008663351E+03    0.45988E-02   -0.13336E-02 38800   0.365E-01    0.609E-01
DAV:  16    -0.354009450417E+03   -0.78707E-03   -0.25307E-03 37528   0.209E-01    0.579E-01
DAV:  17    -0.354008738172E+03    0.71225E-03   -0.22407E-03 38816   0.160E-01    0.207E-01
DAV:  18    -0.354009005591E+03   -0.26742E-03   -0.48591E-04 34088   0.676E-02    0.194E-01
DAV:  19    -0.354009014584E+03   -0.89929E-05   -0.27780E-04 36904   0.652E-02    0.197E-01
DAV:  20    -0.354008987937E+03    0.26646E-04   -0.22647E-04 35360   0.525E-02    0.186E-01
DAV:  21    -0.354008860560E+03    0.12738E-03   -0.14274E-04 31968   0.423E-02    0.810E-02
DAV:  22    -0.354008848461E+03    0.12098E-04   -0.10141E-04 31072   0.298E-02    0.505E-02
DAV:  23    -0.354008847265E+03    0.11963E-05   -0.21753E-05 21176   0.207E-02
  25 F= -.35400885E+03 E0= -.35399320E+03  d E =0.834694E+00  mag=     7.9996
       N       E                     dE             d eps       ncg     rms          rms(c)
DAV:   1    -0.354278456628E+03   -0.26961E+00   -0.41340E+01 32696   0.200E+01    0.336E+00
DAV:   2    -0.354812330085E+03   -0.53387E+00   -0.50099E+00 30112   0.512E+00    0.804E+00
DAV:   3    -0.354702606355E+03    0.10972E+00   -0.61375E-01 36632   0.195E+00    0.560E+00
DAV:   4    -0.354686408871E+03    0.16197E-01   -0.20863E-01 38704   0.953E-01    0.485E+00
DAV:   5    -0.354680616084E+03    0.57928E-02   -0.79487E-02 38816   0.981E-01    0.460E+00
DAV:   6    -0.354673920392E+03    0.66957E-02   -0.15991E-01 38992   0.117E+00    0.457E+00
DAV:   7    -0.354655234332E+03    0.18686E-01   -0.10363E-01 38768   0.115E+00    0.298E+00
DAV:   8    -0.354648727359E+03    0.65070E-02   -0.72522E-02 38424   0.986E-01    0.200E+00
DAV:   9    -0.354642168323E+03    0.65590E-02   -0.42544E-02 38840   0.825E-01    0.132E+00
DAV:  10    -0.354643771218E+03   -0.16029E-02   -0.30735E-02 39648   0.599E-01    0.135E+00
DAV:  11    -0.354643274350E+03    0.49687E-03   -0.12928E-02 38248   0.495E-01    0.134E+00
DAV:  12    -0.354639973320E+03    0.33010E-02   -0.88898E-03 38992   0.312E-01    0.526E-01
DAV:  13    -0.354640673378E+03   -0.70006E-03   -0.15822E-03 36568   0.124E-01    0.588E-01
DAV:  14    -0.354640510528E+03    0.16285E-03   -0.13470E-04 29256   0.362E-02    0.604E-01
DAV:  15    -0.354640557837E+03   -0.47309E-04   -0.40622E-04 38664   0.769E-02    0.689E-01
DAV:  16    -0.354640483977E+03    0.73860E-04   -0.21993E-04 34528   0.508E-02    0.685E-01
DAV:  17    -0.354640617070E+03   -0.13309E-03   -0.47721E-04 37640   0.660E-02    0.753E-01
DAV:  18    -0.354640447921E+03    0.16915E-03   -0.61327E-04 36616   0.712E-02    0.790E-01
DAV:  19    -0.354640078636E+03    0.36929E-03   -0.42375E-04 36536   0.653E-02    0.796E-01
DAV:  20    -0.354640183689E+03   -0.10505E-03   -0.26937E-04 34000   0.489E-02    0.886E-01
DAV:  21    -0.354640307499E+03   -0.12381E-03   -0.73515E-05 27656   0.239E-02    0.947E-01
DAV:  22    -0.354640259371E+03    0.48128E-04   -0.12635E-04 27032   0.352E-02    0.918E-01
DAV:  23    -0.354639562091E+03    0.69728E-03   -0.21892E-03 37736   0.147E-01    0.551E-01
DAV:  24    -0.354639431055E+03    0.13104E-03   -0.24901E-03 38176   0.152E-01    0.217E-01
DAV:  25    -0.354639596446E+03   -0.16539E-03   -0.12635E-03 35496   0.101E-01    0.222E-01
DAV:  26    -0.354639754604E+03   -0.15816E-03   -0.23896E-04 31384   0.425E-02    0.290E-01
DAV:  27    -0.354639802822E+03   -0.48218E-04   -0.95351E-05 28912   0.356E-02    0.286E-01
DAV:  28    -0.354639732878E+03    0.69944E-04   -0.40393E-04 36448   0.629E-02    0.154E-01
DAV:  29    -0.354639751018E+03   -0.18140E-04   -0.15660E-04 32336   0.352E-02    0.661E-02
DAV:  30    -0.354639764017E+03   -0.12999E-04   -0.24475E-05 20832   0.156E-02    0.293E-02
DAV:  31    -0.354639765671E+03   -0.16542E-05   -0.64608E-06 15936   0.864E-03
  26 F= -.35463977E+03 E0= -.35462421E+03  d E =-.630918E+00  mag=     8.0000
       N       E                     dE             d eps       ncg     rms          rms(c)
DAV:   1    -0.354695900569E+03   -0.56137E-01   -0.41315E+00 32384   0.620E+00    0.712E-01
DAV:   2    -0.354739513433E+03   -0.43613E-01   -0.48759E-01 28352   0.133E+00    0.150E+00
DAV:   3    -0.354738457262E+03    0.10562E-02   -0.45071E-02 37216   0.513E-01    0.128E+00
DAV:   4    -0.354736873883E+03    0.15834E-02   -0.22414E-02 39344   0.319E-01    0.898E-01
DAV:   5    -0.354735746772E+03    0.11271E-02   -0.49898E-03 38024   0.221E-01    0.595E-01
DAV:   6    -0.354736040193E+03   -0.29342E-03   -0.32743E-03 38912   0.209E-01    0.765E-01
DAV:   7    -0.354736399237E+03   -0.35904E-03   -0.45327E-03 37464   0.271E-01    0.957E-01
DAV:   8    -0.354734607698E+03    0.17915E-02   -0.42029E-03 38368   0.241E-01    0.497E-01
DAV:   9    -0.354734674804E+03   -0.67106E-04   -0.21044E-03 37288   0.139E-01    0.374E-01
DAV:  10    -0.354734393437E+03    0.28137E-03   -0.14339E-03 38104   0.970E-02    0.125E-01
DAV:  11    -0.354734455893E+03   -0.62456E-04   -0.17281E-04 32848   0.497E-02    0.123E-01
DAV:  12    -0.354734444119E+03    0.11773E-04   -0.76201E-05 22600   0.296E-02    0.930E-02
DAV:  13    -0.354734434760E+03    0.93595E-05   -0.26251E-05 18856   0.180E-02
  27 F= -.35473443E+03 E0= -.35471892E+03  d E =-.946691E-01  mag=     8.0000
       N       E                     dE             d eps       ncg     rms          rms(c)
DAV:   1    -0.354701370151E+03    0.33074E-01   -0.16636E+01 32248   0.103E+01    0.109E+00
DAV:   2    -0.354830887109E+03   -0.12952E+00   -0.14633E+00 28408   0.211E+00    0.183E+00
DAV:   3    -0.354842599515E+03   -0.11712E-01   -0.16720E-01 36384   0.846E-01    0.286E+00
DAV:   4    -0.354826663051E+03    0.15936E-01   -0.57158E-02 37864   0.549E-01    0.118E+00
DAV:   5    -0.354825285661E+03    0.13774E-02   -0.77203E-03 38416   0.305E-01    0.662E-01
DAV:   6    -0.354826152367E+03   -0.86671E-03   -0.51382E-03 37400   0.277E-01    0.106E+00
DAV:   7    -0.354823732317E+03    0.24201E-02   -0.77258E-03 37712   0.328E-01    0.862E-01
DAV:   8    -0.354822912656E+03    0.81966E-03   -0.57988E-03 38520   0.296E-01    0.755E-01
DAV:   9    -0.354822494370E+03    0.41829E-03   -0.50664E-03 38176   0.227E-01    0.547E-01
DAV:  10    -0.354821944975E+03    0.54939E-03   -0.29239E-03 39272   0.165E-01    0.254E-01
DAV:  11    -0.354822012965E+03   -0.67990E-04   -0.52630E-04 37624   0.918E-02    0.224E-01
DAV:  12    -0.354821954634E+03    0.58331E-04   -0.39278E-04 34160   0.636E-02    0.145E-01
DAV:  13    -0.354821922615E+03    0.32019E-04   -0.12623E-04 26136   0.379E-02    0.850E-02
DAV:  14    -0.354821921719E+03    0.89568E-06   -0.63722E-05 27112   0.284E-02
  28 F= -.35482192E+03 E0= -.35480651E+03  d E =-.874870E-01  mag=     8.0000
       N       E                     dE             d eps       ncg     rms          rms(c)
DAV:   1    -0.354826909878E+03   -0.49873E-02   -0.47090E+00 31120   0.368E+00    0.442E-01
DAV:   2    -0.354847668770E+03   -0.20759E-01   -0.19655E-01 28640   0.818E-01    0.144E+00
DAV:   3    -0.354843823601E+03    0.38452E-02   -0.93210E-03 36296   0.263E-01    0.765E-01
DAV:   4    -0.354843997489E+03   -0.17389E-03   -0.14187E-03 36608   0.117E-01    0.765E-01
DAV:   5    -0.354843718671E+03    0.27882E-03   -0.16424E-03 36568   0.109E-01    0.670E-01
DAV:   6    -0.354843665999E+03    0.52672E-04   -0.18076E-03 35544   0.100E-01    0.648E-01
DAV:   7    -0.354844148153E+03   -0.48215E-03   -0.34301E-03 36096   0.149E-01    0.799E-01
DAV:   8    -0.354843608042E+03    0.54011E-03   -0.59061E-03 36600   0.195E-01    0.666E-01
DAV:   9    -0.354843013799E+03    0.59424E-03   -0.26306E-03 38864   0.161E-01    0.458E-01
DAV:  10    -0.354842663254E+03    0.35055E-03   -0.12718E-03 38000   0.112E-01    0.101E-01
DAV:  11    -0.354842847561E+03   -0.18431E-03   -0.18095E-04 31024   0.438E-02    0.125E-01
DAV:  12    -0.354842849633E+03   -0.20722E-05   -0.38114E-05 25088   0.251E-02
  29 F= -.35484285E+03 E0= -.35482743E+03  d E =-.209279E-01  mag=     8.0000
       N       E                     dE             d eps       ncg     rms          rms(c)
DAV:   1    -0.354824453306E+03    0.18394E-01   -0.18508E+01 31208   0.702E+00    0.102E+00
DAV:   2    -0.354891952460E+03   -0.67499E-01   -0.56275E-01 32424   0.159E+00    0.322E+00
DAV:   3    -0.354874232328E+03    0.17720E-01   -0.23002E-02 35024   0.450E-01    0.215E+00
DAV:   4    -0.354874261708E+03   -0.29380E-04   -0.11475E-02 37824   0.255E-01    0.222E+00
DAV:   5    -0.354867145364E+03    0.71163E-02   -0.14172E-02 38888   0.298E-01    0.146E+00
DAV:   6    -0.354866257631E+03    0.88773E-03   -0.86264E-03 35856   0.242E-01    0.117E+00
DAV:   7    -0.354868033954E+03   -0.17763E-02   -0.67733E-03 38520   0.285E-01    0.134E+00
DAV:   8    -0.354870414102E+03   -0.23801E-02   -0.19333E-02 38432   0.391E-01    0.153E+00
DAV:   9    -0.354868638096E+03    0.17760E-02   -0.18525E-02 38736   0.426E-01    0.145E+00
DAV:  10    -0.354864695608E+03    0.39425E-02   -0.71756E-03 38032   0.324E-01    0.356E-01
DAV:  11    -0.354865485309E+03   -0.78970E-03   -0.10826E-03 30088   0.100E-01    0.319E-01
DAV:  12    -0.354865480422E+03    0.48877E-05   -0.15059E-04 30472   0.478E-02    0.301E-01
DAV:  13    -0.354865431453E+03    0.48969E-04   -0.33817E-05 22800   0.258E-02    0.280E-01
DAV:  14    -0.354865313179E+03    0.11827E-03   -0.97341E-05 24288   0.293E-02    0.195E-01
DAV:  15    -0.354865301623E+03    0.11556E-04   -0.95420E-05 28456   0.347E-02    0.147E-01
DAV:  16    -0.354865313339E+03   -0.11716E-04   -0.81420E-05 23928   0.316E-02    0.119E-01
DAV:  17    -0.354865311296E+03    0.20423E-05   -0.33022E-05 21880   0.250E-02
  30 F= -.35486531E+03 E0= -.35485003E+03  d E =-.224617E-01  mag=     8.0000
       N       E                     dE             d eps       ncg     rms          rms(c)
DAV:   1    -0.354865429202E+03   -0.11586E-03   -0.57016E-01 31128   0.197E+00    0.180E-01
DAV:   2    -0.354869826284E+03   -0.43971E-02   -0.47503E-02 28336   0.421E-01    0.374E-01
DAV:   3    -0.354869781350E+03    0.44934E-04   -0.28722E-03 35912   0.130E-01    0.306E-01
DAV:   4    -0.354869703716E+03    0.77634E-04   -0.86810E-04 33232   0.714E-02    0.237E-01
DAV:   5    -0.354869697228E+03    0.64877E-05   -0.58447E-04 31584   0.649E-02    0.229E-01
DAV:   6    -0.354869659508E+03    0.37720E-04   -0.30539E-04 32432   0.552E-02    0.228E-01
DAV:   7    -0.354869647983E+03    0.11525E-04   -0.50188E-04 36976   0.693E-02    0.245E-01
DAV:   8    -0.354869577544E+03    0.70439E-04   -0.45480E-04 35720   0.669E-02    0.173E-01
DAV:   9    -0.354869538104E+03    0.39440E-04   -0.17375E-04 28664   0.483E-02    0.120E-01
DAV:  10    -0.354869512655E+03    0.25450E-04   -0.88339E-05 26696   0.338E-02    0.416E-02
DAV:  11    -0.354869519795E+03   -0.71402E-05   -0.26536E-05 20952   0.192E-02
  31 F= -.35486952E+03 E0= -.35485427E+03  d E =-.420850E-02  mag=     8.0000
       N       E                     dE             d eps       ncg     rms          rms(c)
DAV:   1    -0.354869918714E+03   -0.40606E-03   -0.45337E-01 31744   0.183E+00    0.138E-01
DAV:   2    -0.354872236936E+03   -0.23182E-02   -0.23318E-02 28312   0.352E-01    0.332E-01
DAV:   3    -0.354872048186E+03    0.18875E-03   -0.12445E-03 37104   0.106E-01    0.180E-01
DAV:   4    -0.354872080361E+03   -0.32175E-04   -0.49729E-04 34432   0.619E-02    0.185E-01
DAV:   5    -0.354872069027E+03    0.11334E-04   -0.40529E-04 29000   0.502E-02    0.184E-01
DAV:   6    -0.354872012934E+03    0.56093E-04   -0.15454E-04 23744   0.376E-02    0.980E-02
DAV:   7    -0.354872052566E+03   -0.39632E-04   -0.19402E-04 32440   0.444E-02    0.172E-01
DAV:   8    -0.354872001137E+03    0.51429E-04   -0.19604E-04 29904   0.452E-02    0.111E-01
DAV:   9    -0.354871987676E+03    0.13461E-04   -0.61864E-05 24056   0.306E-02    0.701E-02
DAV:  10    -0.354871982557E+03    0.51184E-05   -0.33179E-05 20736   0.199E-02
  32 F= -.35487198E+03 E0= -.35485669E+03  d E =-.246276E-02  mag=     8.0000
       N       E                     dE             d eps       ncg     rms          rms(c)
DAV:   1    -0.354867301042E+03    0.46866E-02   -0.29975E+00 30536   0.461E+00    0.285E-01
DAV:   2    -0.354877581517E+03   -0.10280E-01   -0.10764E-01 28304   0.805E-01    0.298E-01
DAV:   3    -0.354877877999E+03   -0.29648E-03   -0.41648E-03 38848   0.191E-01    0.487E-01
DAV:   4    -0.354877430630E+03    0.44737E-03   -0.22758E-03 38728   0.136E-01    0.247E-01
DAV:   5    -0.354877409456E+03    0.21174E-04   -0.55938E-04 39352   0.795E-02    0.194E-01
DAV:   6    -0.354877480893E+03   -0.71437E-04   -0.82482E-04 32808   0.674E-02    0.288E-01
DAV:   7    -0.354877299062E+03    0.18183E-03   -0.59910E-04 35112   0.735E-02    0.157E-01
DAV:   8    -0.354877302286E+03   -0.32240E-05   -0.21663E-04 37280   0.529E-02    0.128E-01
DAV:   9    -0.354877283316E+03    0.18970E-04   -0.86605E-05 24648   0.366E-02    0.669E-02
DAV:  10    -0.354877279052E+03    0.42639E-05   -0.41134E-05 22120   0.215E-02
  33 F= -.35487728E+03 E0= -.35486198E+03  d E =-.529649E-02  mag=     8.0000
       N       E                     dE             d eps       ncg     rms          rms(c)
DAV:   1    -0.354693271375E+03    0.18401E+00   -0.67824E+01 30672   0.216E+01    0.123E+00
DAV:   2    -0.354902175081E+03   -0.20890E+00   -0.21721E+00 28304   0.370E+00    0.145E+00
DAV:   3    -0.354919520774E+03   -0.17346E-01   -0.16408E-01 38888   0.922E-01    0.328E+00
DAV:   4    -0.354896634956E+03    0.22886E-01   -0.87819E-02 36936   0.622E-01    0.992E-01
DAV:   5    -0.354897218591E+03   -0.58364E-03   -0.73105E-03 40288   0.353E-01    0.758E-01
DAV:   6    -0.354899034490E+03   -0.18159E-02   -0.64189E-03 37632   0.319E-01    0.136E+00
DAV:   7    -0.354894559691E+03    0.44748E-02   -0.63827E-03 37288   0.333E-01    0.387E-01
DAV:   8    -0.354895849980E+03   -0.12903E-02   -0.45744E-03 37976   0.232E-01    0.768E-01
DAV:   9    -0.354894734354E+03    0.11156E-02   -0.25687E-03 37384   0.178E-01    0.231E-01
DAV:  10    -0.354894794605E+03   -0.60251E-04   -0.52529E-04 37456   0.998E-02    0.136E-01
DAV:  11    -0.354894829066E+03   -0.34461E-04   -0.34401E-04 33280   0.548E-02    0.166E-01
DAV:  12    -0.354894792218E+03    0.36848E-04   -0.12478E-04 24888   0.382E-02    0.850E-02
DAV:  13    -0.354894794020E+03   -0.18014E-05   -0.37658E-05 22312   0.263E-02
  34 F= -.35489479E+03 E0= -.35487950E+03  d E =-.175150E-01  mag=     8.0000
       N       E                     dE             d eps       ncg     rms          rms(c)
DAV:   1    -0.354433214132E+03    0.46158E+00   -0.11954E+02 30928   0.310E+01    0.181E+00
DAV:   2    -0.354901296945E+03   -0.46808E+00   -0.49345E+00 28288   0.548E+00    0.253E+00
DAV:   3    -0.354925662401E+03   -0.24365E-01   -0.24685E-01 37736   0.149E+00    0.411E+00
DAV:   4    -0.354887895027E+03    0.37767E-01   -0.72460E-02 39336   0.871E-01    0.126E+00
DAV:   5    -0.354891158012E+03   -0.32630E-02   -0.38210E-02 38416   0.504E-01    0.154E+00
DAV:   6    -0.354888246669E+03    0.29113E-02   -0.24080E-02 38016   0.378E-01    0.123E+00
DAV:   7    -0.354884930660E+03    0.33160E-02   -0.17219E-02 35936   0.423E-01    0.102E+00
DAV:   8    -0.354883649447E+03    0.12812E-02   -0.12383E-02 37736   0.337E-01    0.806E-01
DAV:   9    -0.354882651015E+03    0.99843E-03   -0.36255E-03 38352   0.268E-01    0.457E-01
DAV:  10    -0.354882560042E+03    0.90973E-04   -0.24827E-03 39016   0.176E-01    0.365E-01
DAV:  11    -0.354882489117E+03    0.70925E-04   -0.10003E-03 38456   0.124E-01    0.258E-01
DAV:  12    -0.354882485749E+03    0.33682E-05   -0.68601E-04 36856   0.887E-02    0.238E-01
DAV:  13    -0.354882406119E+03    0.79630E-04   -0.38932E-04 35472   0.689E-02    0.125E-01
DAV:  14    -0.354882492435E+03   -0.86317E-04   -0.20961E-04 26712   0.515E-02    0.208E-01
DAV:  15    -0.354882418084E+03    0.74352E-04   -0.15235E-04 25560   0.461E-02    0.829E-02
DAV:  16    -0.354882426153E+03   -0.80691E-05   -0.50046E-05 23880   0.254E-02
  35 F= -.35488243E+03 E0= -.35486707E+03  d E =0.123679E-01  mag=     8.0000
       N       E                     dE             d eps       ncg     rms          rms(c)
DAV:   1    -0.354804401621E+03    0.78016E-01   -0.14479E+01 31496   0.113E+01    0.943E-01
DAV:   2    -0.354902667803E+03   -0.98266E-01   -0.11824E+00 28496   0.227E+00    0.163E+00
DAV:   3    -0.354901950022E+03    0.71778E-03   -0.89431E-02 37712   0.772E-01    0.143E+00
DAV:   4    -0.354903327195E+03   -0.13772E-02   -0.47983E-02 37408   0.465E-01    0.169E+00
DAV:   5    -0.354897896917E+03    0.54303E-02   -0.21755E-02 36912   0.363E-01    0.838E-01
DAV:   6    -0.354897569538E+03    0.32738E-03   -0.92289E-03 38096   0.259E-01    0.811E-01
DAV:   7    -0.354897293067E+03    0.27647E-03   -0.94995E-03 38624   0.315E-01    0.100E+00
DAV:   8    -0.354895174437E+03    0.21186E-02   -0.63741E-03 38696   0.285E-01    0.496E-01
DAV:   9    -0.354895605570E+03   -0.43113E-03   -0.23258E-03 37464   0.195E-01    0.622E-01
DAV:  10    -0.354894898568E+03    0.70700E-03   -0.12366E-03 38272   0.143E-01    0.207E-01
DAV:  11    -0.354894932927E+03   -0.34359E-04   -0.37674E-04 37216   0.721E-02    0.124E-01
DAV:  12    -0.354894962240E+03   -0.29313E-04   -0.13615E-04 28400   0.397E-02    0.130E-01
DAV:  13    -0.354894940996E+03    0.21244E-04   -0.42357E-05 21024   0.263E-02    0.884E-02
DAV:  14    -0.354894938356E+03    0.26403E-05   -0.34497E-05 22440   0.209E-02
  36 F= -.35489494E+03 E0= -.35487958E+03  d E =-.125122E-01  mag=     8.0000
       N       E                     dE             d eps       ncg     rms          rms(c)
DAV:   1    -0.354878975468E+03    0.15966E-01   -0.65643E+00 31472   0.815E+00    0.564E-01
DAV:   2    -0.354917578910E+03   -0.38603E-01   -0.42205E-01 28464   0.155E+00    0.125E+00
DAV:   3    -0.354915999622E+03    0.15793E-02   -0.22791E-02 37080   0.447E-01    0.753E-01
DAV:   4    -0.354916656959E+03   -0.65734E-03   -0.83997E-03 37448   0.272E-01    0.897E-01
DAV:   5    -0.354915021015E+03    0.16359E-02   -0.58702E-03 37832   0.216E-01    0.436E-01
DAV:   6    -0.354915458889E+03   -0.43787E-03   -0.36968E-03 37904   0.167E-01    0.632E-01
DAV:   7    -0.354915016392E+03    0.44250E-03   -0.27752E-03 37552   0.189E-01    0.563E-01
DAV:   8    -0.354914801392E+03    0.21500E-03   -0.22291E-03 39152   0.187E-01    0.545E-01
DAV:   9    -0.354914492824E+03    0.30857E-03   -0.16605E-03 36560   0.126E-01    0.325E-01
DAV:  10    -0.354914305780E+03    0.18704E-03   -0.82618E-04 38520   0.872E-02    0.156E-01
DAV:  11    -0.354914321702E+03   -0.15922E-04   -0.15037E-04 32576   0.456E-02    0.877E-02
DAV:  12    -0.354914325009E+03   -0.33071E-05   -0.53406E-05 22936   0.293E-02
  37 F= -.35491433E+03 E0= -.35489900E+03  d E =-.193867E-01  mag=     8.0000
       N       E                     dE             d eps       ncg     rms          rms(c)
DAV:   1    -0.354912794741E+03    0.15270E-02   -0.13199E+00 31592   0.309E+00    0.183E-01
DAV:   2    -0.354917727865E+03   -0.49331E-02   -0.49167E-02 28352   0.548E-01    0.446E-01
DAV:   3    -0.354917386854E+03    0.34101E-03   -0.29833E-03 36864   0.152E-01    0.236E-01
DAV:   4    -0.354917349332E+03    0.37522E-04   -0.47157E-04 38888   0.740E-02    0.157E-01
DAV:   5    -0.354917346198E+03    0.31341E-05   -0.29906E-04 33488   0.584E-02    0.180E-01
DAV:   6    -0.354917324679E+03    0.21519E-04   -0.27085E-04 26000   0.456E-02    0.168E-01
DAV:   7    -0.354917342437E+03   -0.17758E-04   -0.39060E-04 34504   0.576E-02    0.225E-01
DAV:   8    -0.354917256475E+03    0.85962E-04   -0.27448E-04 31728   0.513E-02    0.131E-01
DAV:   9    -0.354917246002E+03    0.10473E-04   -0.90201E-05 24352   0.354E-02    0.896E-02
DAV:  10    -0.354917233976E+03    0.12026E-04   -0.73833E-05 23208   0.275E-02    0.527E-02
DAV:  11    -0.354917238791E+03   -0.48149E-05   -0.26306E-05 20848   0.210E-02
  38 F= -.35491724E+03 E0= -.35490195E+03  d E =-.291378E-02  mag=     8.0000
       N       E                     dE             d eps       ncg     rms          rms(c)
DAV:   1    -0.354853875889E+03    0.63358E-01   -0.24584E+01 31024   0.129E+01    0.657E-01
DAV:   2    -0.354927244460E+03   -0.73369E-01   -0.74612E-01 28304   0.214E+00    0.785E-01
DAV:   3    -0.354932037968E+03   -0.47935E-02   -0.39136E-02 38744   0.502E-01    0.179E+00
DAV:   4    -0.354925726588E+03    0.63114E-02   -0.20945E-02 36920   0.357E-01    0.574E-01
DAV:   5    -0.354925976004E+03   -0.24942E-03   -0.28159E-03 40760   0.173E-01    0.455E-01
DAV:   6    -0.354925919310E+03    0.56694E-04   -0.18660E-03 38416   0.144E-01    0.465E-01
DAV:   7    -0.354925566103E+03    0.35321E-03   -0.21044E-03 37672   0.166E-01    0.495E-01
DAV:   8    -0.354925089717E+03    0.47639E-03   -0.13672E-03 38280   0.133E-01    0.206E-01
DAV:   9    -0.354925208492E+03   -0.11877E-03   -0.76048E-04 37832   0.896E-02    0.218E-01
DAV:  10    -0.354925124307E+03    0.84185E-04   -0.39082E-04 35552   0.650E-02    0.730E-02
DAV:  11    -0.354925146280E+03   -0.21973E-04   -0.58313E-05 26800   0.337E-02    0.668E-02
DAV:  12    -0.354925147987E+03   -0.17067E-05   -0.43087E-05 20696   0.210E-02
  39 F= -.35492515E+03 E0= -.35490988E+03  d E =-.790920E-02  mag=     8.0000
       N       E                     dE             d eps       ncg     rms          rms(c)
DAV:   1    -0.352575523663E+03    0.23496E+01   -0.21685E+02 32608   0.463E+01    0.621E+00
DAV:   2    -0.354562228810E+03   -0.19867E+01   -0.19643E+01 28424   0.102E+01    0.122E+01
DAV:   3    -0.354394823619E+03    0.16741E+00   -0.24795E+00 37360   0.420E+00    0.853E+00
DAV:   4    -0.354368936944E+03    0.25887E-01   -0.10523E+00 39384   0.286E+00    0.860E+00
DAV:   5    -0.354273088549E+03    0.95848E-01   -0.88878E-01 37544   0.225E+00    0.596E+00
DAV:   6    -0.354244961063E+03    0.28127E-01   -0.54333E-01 39232   0.167E+00    0.558E+00
DAV:   7    -0.354201462384E+03    0.43499E-01   -0.24658E-01 38840   0.126E+00    0.273E+00
DAV:   8    -0.354195464424E+03    0.59980E-02   -0.90200E-02 37704   0.107E+00    0.261E+00
DAV:   9    -0.354196581371E+03   -0.11169E-02   -0.96693E-02 37968   0.824E-01    0.242E+00
DAV:  10    -0.354187505770E+03    0.90756E-02   -0.52993E-02 38552   0.647E-01    0.123E+00
DAV:  11    -0.354186741173E+03    0.76460E-03   -0.81007E-03 38936   0.372E-01    0.771E-01
DAV:  12    -0.354187722407E+03   -0.98123E-03   -0.58168E-03 39272   0.248E-01    0.956E-01
DAV:  13    -0.354186520736E+03    0.12017E-02   -0.41684E-03 38136   0.224E-01    0.615E-01
DAV:  14    -0.354186199901E+03    0.32084E-03   -0.27260E-03 38800   0.180E-01    0.526E-01
DAV:  15    -0.354186397836E+03   -0.19794E-03   -0.45237E-03 39320   0.187E-01    0.694E-01
DAV:  16    -0.354185998136E+03    0.39970E-03   -0.30573E-03 38536   0.171E-01    0.663E-01
DAV:  17    -0.354185143723E+03    0.85441E-03   -0.15519E-03 38776   0.158E-01    0.200E-01
DAV:  18    -0.354185424711E+03   -0.28099E-03   -0.98015E-04 39184   0.989E-02    0.214E-01
DAV:  19    -0.354185432730E+03   -0.80197E-05   -0.32794E-04 37600   0.754E-02    0.151E-01
DAV:  20    -0.354185407116E+03    0.25614E-04   -0.16341E-04 30928   0.419E-02    0.858E-02
DAV:  21    -0.354185398293E+03    0.88226E-05   -0.74338E-05 30248   0.301E-02
  40 F= -.35418540E+03 E0= -.35416818E+03  d E =0.739750E+00  mag=     8.0000
       N       E                     dE             d eps       ncg     rms          rms(c)
DAV:   1    -0.354337891484E+03   -0.15248E+00   -0.44203E+01 32640   0.231E+01    0.286E+00
DAV:   2    -0.354983840061E+03   -0.64595E+00   -0.59764E+00 28864   0.569E+00    0.844E+00
DAV:   3    -0.354831386709E+03    0.15245E+00   -0.56932E-01 36240   0.211E+00    0.480E+00
DAV:   4    -0.354831135758E+03    0.25095E-03   -0.95238E-02 39040   0.819E-01    0.460E+00
DAV:   5    -0.354827991453E+03    0.31443E-02   -0.10098E-01 37712   0.689E-01    0.458E+00
DAV:   6    -0.354806569272E+03    0.21422E-01   -0.12507E-01 37448   0.816E-01    0.342E+00
DAV:   7    -0.354814634737E+03   -0.80655E-02   -0.10540E-01 38456   0.984E-01    0.401E+00
DAV:   8    -0.354812824686E+03    0.18101E-02   -0.10026E-01 37880   0.113E+00    0.398E+00
DAV:   9    -0.354786842767E+03    0.25982E-01   -0.90403E-02 38792   0.101E+00    0.148E+00
DAV:  10    -0.354796233938E+03   -0.93912E-02   -0.60058E-02 38792   0.731E-01    0.258E+00
DAV:  11    -0.354786849932E+03    0.93840E-02   -0.20714E-02 37760   0.543E-01    0.103E+00
DAV:  12    -0.354787737529E+03   -0.88760E-03   -0.73699E-03 37256   0.259E-01    0.872E-01
DAV:  13    -0.354787218887E+03    0.51864E-03   -0.52213E-03 37584   0.231E-01    0.566E-01
DAV:  14    -0.354787202172E+03    0.16716E-04   -0.49448E-04 30000   0.723E-02    0.563E-01
DAV:  15    -0.354787287768E+03   -0.85597E-04   -0.97611E-05 28424   0.342E-02    0.643E-01
DAV:  16    -0.354787439061E+03   -0.15129E-03   -0.21948E-03 39048   0.155E-01    0.781E-01
DAV:  17    -0.354786512772E+03    0.92629E-03   -0.23630E-03 37808   0.164E-01    0.423E-01
DAV:  18    -0.354786568341E+03   -0.55569E-04   -0.66359E-04 37984   0.111E-01    0.340E-01
DAV:  19    -0.354786459870E+03    0.10847E-03   -0.24390E-04 36896   0.585E-02    0.212E-01
DAV:  20    -0.354786414680E+03    0.45191E-04   -0.34501E-04 32144   0.495E-02    0.907E-02
DAV:  21    -0.354786448114E+03   -0.33434E-04   -0.83137E-05 28904   0.389E-02    0.797E-02
DAV:  22    -0.354786435027E+03    0.13086E-04   -0.38384E-05 22272   0.245E-02    0.368E-02
DAV:  23    -0.354786434882E+03    0.14530E-06   -0.15914E-05 17912   0.127E-02
  41 F= -.35478643E+03 E0= -.35477011E+03  d E =-.601037E+00  mag=     8.0000
       N       E                     dE             d eps       ncg     rms          rms(c)
DAV:   1    -0.354809588356E+03   -0.23153E-01   -0.61718E+00 32560   0.868E+00    0.806E-01
DAV:   2    -0.354885381888E+03   -0.75794E-01   -0.80207E-01 28336   0.190E+00    0.206E+00
DAV:   3    -0.354878734862E+03    0.66470E-02   -0.46666E-02 36304   0.619E-01    0.966E-01
DAV:   4    -0.354881743507E+03   -0.30086E-02   -0.20134E-02 38056   0.363E-01    0.144E+00
DAV:   5    -0.354878240775E+03    0.35027E-02   -0.12046E-02 36904   0.286E-01    0.784E-01
DAV:   6    -0.354878538929E+03   -0.29815E-03   -0.93204E-03 38784   0.268E-01    0.862E-01
DAV:   7    -0.354878178306E+03    0.36062E-03   -0.65492E-03 38968   0.294E-01    0.101E+00
DAV:   8    -0.354877343183E+03    0.83512E-03   -0.76362E-03 38744   0.299E-01    0.867E-01
DAV:   9    -0.354875969000E+03    0.13742E-02   -0.44910E-03 38520   0.189E-01    0.332E-01
DAV:  10    -0.354876087803E+03   -0.11880E-03   -0.81982E-04 38136   0.989E-02    0.150E-01
DAV:  11    -0.354876161741E+03   -0.73938E-04   -0.18749E-04 32144   0.474E-02    0.156E-01
DAV:  12    -0.354876145318E+03    0.16423E-04   -0.37033E-05 20832   0.228E-02    0.130E-01
DAV:  13    -0.354876140405E+03    0.49136E-05   -0.16159E-05 17632   0.148E-02
  42 F= -.35487614E+03 E0= -.35486022E+03  d E =-.897055E-01  mag=     8.0000
       N       E                     dE             d eps       ncg     rms          rms(c)
DAV:   1    -0.354862176816E+03    0.13969E-01   -0.60405E+00 32992   0.761E+00    0.682E-01
DAV:   2    -0.354923330923E+03   -0.61154E-01   -0.62471E-01 28448   0.169E+00    0.184E+00
DAV:   3    -0.354918509081E+03    0.48218E-02   -0.46462E-02 35912   0.611E-01    0.103E+00
DAV:   4    -0.354919018533E+03   -0.50945E-03   -0.15891E-02 37832   0.324E-01    0.100E+00
DAV:   5    -0.354917926725E+03    0.10918E-02   -0.72449E-03 37280   0.245E-01    0.766E-01
DAV:   6    -0.354917306189E+03    0.62054E-03   -0.40740E-03 37536   0.203E-01    0.583E-01
DAV:   7    -0.354917200386E+03    0.10580E-03   -0.27954E-03 37872   0.190E-01    0.678E-01
DAV:   8    -0.354916786075E+03    0.41431E-03   -0.52898E-03 38472   0.231E-01    0.661E-01
DAV:   9    -0.354915996262E+03    0.78981E-03   -0.35171E-03 38744   0.179E-01    0.306E-01
DAV:  10    -0.354916040352E+03   -0.44090E-04   -0.95191E-04 38768   0.116E-01    0.278E-01
DAV:  11    -0.354916008094E+03    0.32258E-04   -0.43169E-04 37832   0.806E-02    0.200E-01
DAV:  12    -0.354915974929E+03    0.33164E-04   -0.13267E-04 30000   0.493E-02    0.986E-02
DAV:  13    -0.354915990113E+03   -0.15184E-04   -0.48453E-05 22568   0.265E-02    0.995E-02
DAV:  14    -0.354915984840E+03    0.52730E-05   -0.39333E-05 19808   0.212E-02
  43 F= -.35491598E+03 E0= -.35490039E+03  d E =-.398444E-01  mag=     8.0000
       N       E                     dE             d eps       ncg     rms          rms(c)
DAV:   1    -0.354917183438E+03   -0.11933E-02   -0.28715E+00 33632   0.402E+00    0.387E-01
DAV:   2    -0.354932133131E+03   -0.14950E-01   -0.14370E-01 28744   0.841E-01    0.101E+00
DAV:   3    -0.354930179960E+03    0.19532E-02   -0.58628E-03 35960   0.236E-01    0.550E-01
DAV:   4    -0.354930589479E+03   -0.40952E-03   -0.17048E-03 37480   0.116E-01    0.627E-01
DAV:   5    -0.354930203276E+03    0.38620E-03   -0.14600E-03 36816   0.110E-01    0.482E-01
DAV:   6    -0.354930427796E+03   -0.22452E-03   -0.24542E-03 36120   0.104E-01    0.572E-01
DAV:   7    -0.354930373414E+03    0.54382E-04   -0.25608E-03 37656   0.149E-01    0.555E-01
DAV:   8    -0.354930288794E+03    0.84620E-04   -0.25647E-03 37552   0.171E-01    0.541E-01
DAV:   9    -0.354929909470E+03    0.37932E-03   -0.11204E-03 38752   0.122E-01    0.327E-01
DAV:  10    -0.354929775219E+03    0.13425E-03   -0.60020E-04 37656   0.907E-02    0.125E-01
DAV:  11    -0.354929840578E+03   -0.65359E-04   -0.14786E-04 31528   0.486E-02    0.124E-01
DAV:  12    -0.354929835010E+03    0.55687E-05   -0.46450E-05 22952   0.288E-02
  44 F= -.35492984E+03 E0= -.35491435E+03  d E =-.138502E-01  mag=     8.0000
       N       E                     dE             d eps       ncg     rms          rms(c)
DAV:   1    -0.354927859370E+03    0.19812E-02   -0.23309E+00 32336   0.330E+00    0.402E-01
DAV:   2    -0.354939249113E+03   -0.11390E-01   -0.99236E-02 30432   0.727E-01    0.124E+00
DAV:   3    -0.354936237700E+03    0.30114E-02   -0.63966E-03 35288   0.247E-01    0.675E-01
DAV:   4    -0.354936406698E+03   -0.16900E-03   -0.13799E-03 37504   0.951E-02    0.648E-01
DAV:   5    -0.354936290971E+03    0.11573E-03   -0.14826E-03 34896   0.888E-02    0.582E-01
DAV:   6    -0.354936109633E+03    0.18134E-03   -0.17470E-03 35768   0.102E-01    0.481E-01
DAV:   7    -0.354936512119E+03   -0.40249E-03   -0.17368E-03 37288   0.144E-01    0.584E-01
DAV:   8    -0.354936384661E+03    0.12746E-03   -0.25944E-03 37200   0.168E-01    0.552E-01
DAV:   9    -0.354935976430E+03    0.40823E-03   -0.11623E-03 36952   0.125E-01    0.333E-01
DAV:  10    -0.354935827667E+03    0.14876E-03   -0.65175E-04 36872   0.881E-02    0.981E-02
DAV:  11    -0.354935895439E+03   -0.67772E-04   -0.11405E-04 31984   0.435E-02    0.956E-02
DAV:  12    -0.354935896175E+03   -0.73634E-06   -0.33611E-05 22312   0.237E-02
  45 F= -.35493590E+03 E0= -.35492046E+03  d E =-.606117E-02  mag=     8.0000
       N       E                     dE             d eps       ncg     rms          rms(c)
DAV:   1    -0.354935201096E+03    0.69434E-03   -0.30264E-01 32352   0.133E+00    0.153E-01
DAV:   2    -0.354936900760E+03   -0.16997E-02   -0.13101E-02 31176   0.297E-01    0.586E-01
DAV:   3    -0.354936171467E+03    0.72929E-03   -0.18871E-03 34936   0.130E-01    0.278E-01
DAV:   4    -0.354936193106E+03   -0.21639E-04   -0.28346E-04 31640   0.443E-02    0.214E-01
DAV:   5    -0.354936217056E+03   -0.23950E-04   -0.16143E-04 24840   0.336E-02    0.216E-01
DAV:   6    -0.354936168326E+03    0.48730E-04   -0.15160E-04 24792   0.353E-02    0.145E-01
DAV:   7    -0.354936218982E+03   -0.50656E-04   -0.13837E-04 31264   0.457E-02    0.189E-01
DAV:   8    -0.354936212671E+03    0.63106E-05   -0.25422E-04 30200   0.515E-02    0.192E-01
DAV:   9    -0.354936150226E+03    0.62445E-04   -0.11278E-04 24040   0.425E-02    0.668E-02
DAV:  10    -0.354936153075E+03   -0.28486E-05   -0.35758E-05 21944   0.232E-02
  46 F= -.35493615E+03 E0= -.35492073E+03  d E =-.256900E-03  mag=     8.0000
       N       E                     dE             d eps       ncg     rms          rms(c)
DAV:   1    -0.354933285170E+03    0.28651E-02   -0.65248E-01 30856   0.212E+00    0.148E-01
DAV:   2    -0.354935830166E+03   -0.25450E-02   -0.24329E-02 28376   0.390E-01    0.371E-01
DAV:   3    -0.354935642473E+03    0.18769E-03   -0.10877E-03 37792   0.106E-01    0.225E-01
DAV:   4    -0.354935591553E+03    0.50920E-04   -0.25147E-04 32128   0.510E-02    0.134E-01
DAV:   5    -0.354935626668E+03   -0.35115E-04   -0.27626E-04 29544   0.461E-02    0.189E-01
DAV:   6    -0.354935589999E+03    0.36669E-04   -0.24027E-04 22744   0.401E-02    0.144E-01
DAV:   7    -0.354935654605E+03   -0.64606E-04   -0.28252E-04 35208   0.559E-02    0.223E-01
DAV:   8    -0.354935552724E+03    0.10188E-03   -0.21215E-04 33920   0.485E-02    0.109E-01
DAV:   9    -0.354935552521E+03    0.20226E-06   -0.11659E-04 23368   0.366E-02    0.945E-02
DAV:  10    -0.354935546683E+03    0.58380E-05   -0.56231E-05 24688   0.274E-02
  47 F= -.35493555E+03 E0= -.35492012E+03  d E =0.606392E-03  mag=     8.0000
       N       E                     dE             d eps       ncg     rms          rms(c)
DAV:   1    -0.354933098855E+03    0.24537E-02   -0.61047E-01 30304   0.208E+00    0.118E-01
DAV:   2    -0.354935144950E+03   -0.20461E-02   -0.20772E-02 28304   0.367E-01    0.230E-01
DAV:   3    -0.354935147118E+03   -0.21682E-05   -0.12303E-03 36960   0.991E-02    0.227E-01
DAV:   4    -0.354935085893E+03    0.61225E-04   -0.46696E-04 32544   0.594E-02    0.171E-01
DAV:   5    -0.354935041897E+03    0.43997E-04   -0.18120E-04 22136   0.356E-02    0.762E-02
DAV:   6    -0.354935043748E+03   -0.18519E-05   -0.10845E-04 22696   0.295E-02    0.803E-02
DAV:   7    -0.354935037846E+03    0.59021E-05   -0.91117E-05 27344   0.312E-02
  48 F= -.35493504E+03 E0= -.35491965E+03  d E =0.508837E-03  mag=     8.0000
       N       E                     dE             d eps       ncg     rms          rms(c)
DAV:   1    -0.354917539077E+03    0.17505E-01   -0.47442E+00 30616   0.599E+00    0.363E-01
DAV:   2    -0.354936998058E+03   -0.19459E-01   -0.18728E-01 28296   0.108E+00    0.108E+00
DAV:   3    -0.354934831533E+03    0.21665E-02   -0.11059E-02 35936   0.303E-01    0.493E-01
DAV:   4    -0.354935076267E+03   -0.24473E-03   -0.35004E-03 39328   0.160E-01    0.505E-01
DAV:   5    -0.354934907715E+03    0.16855E-03   -0.24986E-03 36656   0.129E-01    0.442E-01
[...]
DAV:   3    -0.354938330791E+03   -0.29103E-03   -0.28088E-03 36840   0.153E-01    0.464E-01
DAV:   4    -0.354937942037E+03    0.38875E-03   -0.83181E-04 37456   0.894E-02    0.192E-01
DAV:   5    -0.354937984646E+03   -0.42608E-04   -0.50294E-04 31592   0.566E-02    0.208E-01
DAV:   6    -0.354937962080E+03    0.22565E-04   -0.54141E-04 33616   0.653E-02    0.206E-01
DAV:   7    -0.354937937542E+03    0.24538E-04   -0.42345E-04 35512   0.656E-02    0.216E-01
DAV:   8    -0.354937861471E+03    0.76072E-04   -0.35846E-04 34344   0.607E-02    0.992E-02
DAV:   9    -0.354937860413E+03    0.10580E-05   -0.67326E-05 25024   0.363E-02
  50 F= -.35493786E+03 E0= -.35492242E+03  d E =-.344763E-02  mag=     8.0000
       N       E                     dE             d eps       ncg     rms          rms(c)
DAV:   1    -0.354938441072E+03   -0.57960E-03   -0.12311E-01 31048   0.992E-01    0.821E-02
DAV:   2    -0.354939249279E+03   -0.80821E-03   -0.67232E-03 28416   0.205E-01    0.342E-01
DAV:   3    -0.354939027526E+03    0.22175E-03   -0.54424E-04 35328   0.822E-02    0.662E-02
DAV:   4    -0.354939065861E+03   -0.38335E-04   -0.90596E-05 25112   0.318E-02    0.973E-02
DAV:   5    -0.354939051789E+03    0.14072E-04   -0.86062E-05 20408   0.246E-02    0.581E-02
DAV:   6    -0.354939050369E+03    0.14201E-05   -0.27299E-05 18088   0.170E-02
  51 F= -.35493905E+03 E0= -.35492362E+03  d E =-.118996E-02  mag=     8.0000
       N       E                     dE             d eps       ncg     rms          rms(c)
DAV:   1    -0.354939023609E+03    0.28180E-04   -0.40184E-01 31296   0.168E+00    0.115E-01
DAV:   2    -0.354940812002E+03   -0.17884E-02   -0.13247E-02 29696   0.316E-01    0.580E-01
DAV:   3    -0.354940131841E+03    0.68016E-03   -0.12069E-03 35944   0.119E-01    0.956E-02
DAV:   4    -0.354940273156E+03   -0.14131E-03   -0.35572E-04 30912   0.508E-02    0.208E-01
DAV:   5    -0.354940186613E+03    0.86543E-04   -0.22850E-04 23464   0.374E-02    0.696E-02
DAV:   6    -0.354940194209E+03   -0.75956E-05   -0.37987E-05 19904   0.212E-02
  52 F= -.35494019E+03 E0= -.35492475E+03  d E =-.114384E-02  mag=     8.0000
       N       E                     dE             d eps       ncg     rms          rms(c)
DAV:   1    -0.354929632376E+03    0.10554E-01   -0.41459E+00 31472   0.538E+00    0.267E-01
DAV:   2    -0.354941873988E+03   -0.12242E-01   -0.12249E-01 28288   0.899E-01    0.476E-01
DAV:   3    -0.354942164544E+03   -0.29056E-03   -0.43561E-03 39632   0.221E-01    0.631E-01
DAV:   4    -0.354941402646E+03    0.76190E-03   -0.11333E-03 37552   0.125E-01    0.216E-01
DAV:   5    -0.354941424701E+03   -0.22055E-04   -0.67281E-04 38056   0.734E-02    0.205E-01
DAV:   6    -0.354941386080E+03    0.38621E-04   -0.43206E-04 32888   0.561E-02    0.184E-01
DAV:   7    -0.354941422391E+03   -0.36311E-04   -0.69293E-04 37304   0.719E-02    0.293E-01
DAV:   8    -0.354941245023E+03    0.17737E-03   -0.49358E-04 36880   0.721E-02    0.790E-02
DAV:   9    -0.354941270296E+03   -0.25273E-04   -0.13516E-04 32360   0.389E-02    0.706E-02
DAV:  10    -0.354941266955E+03    0.33408E-05   -0.46232E-05 20992   0.249E-02
  53 F= -.35494127E+03 E0= -.35492583E+03  d E =-.107275E-02  mag=     8.0000
       N       E                     dE             d eps       ncg     rms          rms(c)
DAV:   1    -0.354857977898E+03    0.83292E-01   -0.27032E+01 31272   0.139E+01    0.689E-01
DAV:   2    -0.354940783151E+03   -0.82805E-01   -0.84746E-01 28288   0.232E+00    0.538E-01
DAV:   3    -0.354942956172E+03   -0.21730E-02   -0.22654E-02 39048   0.419E-01    0.118E+00
DAV:   4    -0.354940313883E+03    0.26423E-02   -0.12510E-02 37936   0.272E-01    0.576E-01
DAV:   5    -0.354939933335E+03    0.38055E-03   -0.28399E-03 41056   0.138E-01    0.305E-01
DAV:   6    -0.354939981063E+03   -0.47729E-04   -0.15664E-03 37952   0.154E-01    0.502E-01
DAV:   7    -0.354939517097E+03    0.46397E-03   -0.19120E-03 36864   0.164E-01    0.402E-01
DAV:   8    -0.354939354250E+03    0.16285E-03   -0.89733E-04 38328   0.133E-01    0.278E-01
DAV:   9    -0.354939412561E+03   -0.58311E-04   -0.63417E-04 38464   0.100E-01    0.288E-01
DAV:  10    -0.354939294735E+03    0.11783E-03   -0.41225E-04 37592   0.740E-02    0.102E-01
DAV:  11    -0.354939332742E+03   -0.38007E-04   -0.88023E-05 26960   0.399E-02    0.115E-01
DAV:  12    -0.354939319820E+03    0.12922E-04   -0.51642E-05 21304   0.292E-02    0.746E-02
DAV:  13    -0.354939318870E+03    0.94918E-06   -0.10873E-05 17240   0.144E-02
  54 F= -.35493932E+03 E0= -.35492390E+03  d E =0.194808E-02  mag=     8.0000
       N       E                     dE             d eps       ncg     rms          rms(c)
DAV:   1    -0.354641514467E+03    0.29781E+00   -0.93928E+01 30936   0.255E+01    0.134E+00
DAV:   2    -0.354938253588E+03   -0.29674E+00   -0.30264E+00 28288   0.427E+00    0.157E+00
DAV:   3    -0.354952474079E+03   -0.14220E-01   -0.14058E-01 37968   0.103E+00    0.321E+00
DAV:   4    -0.354931294623E+03    0.21179E-01   -0.73790E-02 38880   0.683E-01    0.112E+00
DAV:   5    -0.354932134830E+03   -0.84021E-03   -0.16860E-02 38720   0.361E-01    0.998E-01
DAV:   6    -0.354931274360E+03    0.86047E-03   -0.88606E-03 38368   0.280E-01    0.879E-01
DAV:   7    -0.354929314474E+03    0.19599E-02   -0.53313E-03 35904   0.280E-01    0.634E-01
DAV:   8    -0.354929329318E+03   -0.14843E-04   -0.65661E-03 37592   0.239E-01    0.720E-01
DAV:   9    -0.354928730975E+03    0.59834E-03   -0.29217E-03 37312   0.218E-01    0.442E-01
DAV:  10    -0.354928634347E+03    0.96627E-04   -0.20003E-03 38944   0.158E-01    0.264E-01
DAV:  11    -0.354928672347E+03   -0.38000E-04   -0.66264E-04 38048   0.869E-02    0.226E-01
DAV:  12    -0.354928643294E+03    0.29054E-04   -0.30494E-04 32480   0.606E-02    0.163E-01
DAV:  13    -0.354928611672E+03    0.31621E-04   -0.69549E-05 22328   0.339E-02    0.847E-02
DAV:  14    -0.354928615413E+03   -0.37407E-05   -0.20566E-05 20184   0.178E-02
  55 F= -.35492862E+03 E0= -.35491309E+03  d E =0.107035E-01  mag=     8.0000
       N       E                     dE             d eps       ncg     rms          rms(c)
DAV:   1    -0.354873390411E+03    0.55221E-01   -0.15637E+01 31896   0.113E+01    0.632E-01
DAV:   2    -0.354931652200E+03   -0.58262E-01   -0.58849E-01 28288   0.198E+00    0.120E+00
DAV:   3    -0.354931307597E+03    0.34460E-03   -0.21639E-02 38520   0.480E-01    0.107E+00
DAV:   4    -0.354929909098E+03    0.13985E-02   -0.83331E-03 39120   0.274E-01    0.716E-01
DAV:   5    -0.354929614639E+03    0.29446E-03   -0.59854E-03 38424   0.202E-01    0.647E-01
DAV:   6    -0.354929268557E+03    0.34608E-03   -0.38713E-03 38896   0.170E-01    0.561E-01
DAV:   7    -0.354930425306E+03   -0.11567E-02   -0.43913E-03 38232   0.229E-01    0.106E+00
DAV:   8    -0.354928258796E+03    0.21665E-02   -0.36654E-03 38592   0.203E-01    0.357E-01
DAV:   9    -0.354928583927E+03   -0.32513E-03   -0.20047E-03 38232   0.145E-01    0.373E-01
DAV:  10    -0.354928388436E+03    0.19549E-03   -0.75033E-04 38176   0.101E-01    0.167E-01
DAV:  11    -0.354928428162E+03   -0.39727E-04   -0.18007E-04 32080   0.486E-02    0.151E-01
DAV:  12    -0.354928422012E+03    0.61508E-05   -0.60889E-05 21472   0.281E-02
  56 F= -.35492842E+03 E0= -.35491307E+03  d E =0.193402E-03  mag=     8.0000
       N       E                     dE             d eps       ncg     rms          rms(c)
DAV:   1    -0.354907392058E+03    0.21036E-01   -0.54542E+00 31704   0.712E+00    0.494E-01
DAV:   2    -0.354934424544E+03   -0.27032E-01   -0.27461E-01 28288   0.134E+00    0.128E+00
DAV:   3    -0.354931852747E+03    0.25718E-02   -0.13348E-02 35952   0.354E-01    0.528E-01
DAV:   4    -0.354932378348E+03   -0.52560E-03   -0.31106E-03 37112   0.161E-01    0.628E-01
DAV:   5    -0.354932132682E+03    0.24567E-03   -0.41257E-03 37456   0.169E-01    0.590E-01
DAV:   6    -0.354932083910E+03    0.48772E-04   -0.28197E-03 38688   0.142E-01    0.567E-01
DAV:   7    -0.354932830253E+03   -0.74634E-03   -0.46771E-03 38960   0.194E-01    0.878E-01
DAV:   8    -0.354931926557E+03    0.90370E-03   -0.39622E-03 38600   0.199E-01    0.643E-01
DAV:   9    -0.354931480002E+03    0.44655E-03   -0.28000E-03 38272   0.158E-01    0.433E-01
DAV:  10    -0.354931284672E+03    0.19533E-03   -0.85836E-04 37816   0.956E-02    0.145E-01
DAV:  11    -0.354931380924E+03   -0.96252E-04   -0.13389E-04 29560   0.380E-02    0.134E-01
DAV:  12    -0.354931383361E+03   -0.24371E-05   -0.18413E-05 19504   0.164E-02
  57 F= -.35493138E+03 E0= -.35491581E+03  d E =-.296135E-02  mag=     8.0000
       N       E                     dE             d eps       ncg     rms          rms(c)
DAV:   1    -0.354917780959E+03    0.13600E-01   -0.41113E+00 31120   0.575E+00    0.317E-01
DAV:   2    -0.354932700160E+03   -0.14919E-01   -0.14963E-01 28288   0.992E-01    0.656E-01
DAV:   3    -0.354932415634E+03    0.28453E-03   -0.50068E-03 38192   0.251E-01    0.508E-01
DAV:   4    -0.354932247397E+03    0.16824E-03   -0.21604E-03 37704   0.143E-01    0.413E-01
DAV:   5    -0.354932025104E+03    0.22229E-03   -0.16070E-03 38736   0.112E-01    0.274E-01
DAV:   6    -0.354932060325E+03   -0.35221E-04   -0.95252E-04 36176   0.803E-02    0.312E-01
DAV:   7    -0.354932038282E+03    0.22043E-04   -0.86490E-04 39032   0.926E-02    0.347E-01
DAV:   8    -0.354931847611E+03    0.19067E-03   -0.85456E-04 38336   0.925E-02    0.239E-01
DAV:   9    -0.354931805926E+03    0.41685E-04   -0.54312E-04 36976   0.695E-02    0.170E-01
DAV:  10    -0.354931796842E+03    0.90842E-05   -0.21990E-04 31216   0.495E-02    0.873E-02
DAV:  11    -0.354931823273E+03   -0.26431E-04   -0.76365E-05 24152   0.312E-02    0.111E-01
DAV:  12    -0.354931812683E+03    0.10589E-04   -0.38171E-05 20880   0.230E-02    0.682E-02
DAV:  13    -0.354931816060E+03   -0.33766E-05   -0.13863E-05 19224   0.169E-02
  58 F= -.35493182E+03 E0= -.35491638E+03  d E =-.432699E-03  mag=     8.0000
       N       E                     dE             d eps       ncg     rms          rms(c)
DAV:   1    -0.354927550167E+03    0.42625E-02   -0.13983E+00 31456   0.314E+00    0.202E-01
DAV:   2    -0.354932955333E+03   -0.54052E-02   -0.45054E-02 28872   0.565E-01    0.832E-01
DAV:   3    -0.354931457810E+03    0.14975E-02   -0.47916E-03 34200   0.216E-01    0.227E-01
DAV:   4    -0.354931684415E+03   -0.22661E-03   -0.89460E-04 36312   0.816E-02    0.286E-01
DAV:   5    -0.354931548782E+03    0.13563E-03   -0.62844E-04 30128   0.602E-02    0.158E-01
DAV:   6    -0.354931532877E+03    0.15905E-04   -0.16783E-04 24424   0.428E-02    0.125E-01
DAV:   7    -0.354931629313E+03   -0.96437E-04   -0.32489E-04 33544   0.657E-02    0.263E-01
DAV:   8    -0.354931501960E+03    0.12735E-03   -0.29807E-04 35640   0.629E-02    0.116E-01
DAV:   9    -0.354931496145E+03    0.58153E-05   -0.92316E-05 26784   0.384E-02
  59 F= -.35493150E+03 E0= -.35491606E+03  d E =0.319915E-03  mag=     8.0000
       N       E                     dE             d eps       ncg     rms          rms(c)
DAV:   1    -0.353711455591E+03    0.12200E+01   -0.34985E+02 31152   0.486E+01    0.286E+00
DAV:   2    -0.354986988057E+03   -0.12755E+01   -0.13114E+01 28288   0.845E+00    0.379E+00
DAV:   3    -0.355052213405E+03   -0.65225E-01   -0.64756E-01 36896   0.240E+00    0.701E+00
DAV:   4    -0.354933690237E+03    0.11852E+00   -0.29397E-01 38272   0.145E+00    0.184E+00
DAV:   5    -0.354940382641E+03   -0.66924E-02   -0.50808E-02 38752   0.597E-01    0.181E+00
DAV:   6    -0.354935724196E+03    0.46584E-02   -0.35567E-02 38360   0.522E-01    0.160E+00
DAV:   7    -0.354929757582E+03    0.59666E-02   -0.24788E-02 36936   0.477E-01    0.129E+00
DAV:   8    -0.354926942189E+03    0.28154E-02   -0.12475E-02 38192   0.338E-01    0.846E-01
DAV:   9    -0.354925900106E+03    0.10421E-02   -0.84981E-03 36656   0.365E-01    0.819E-01
DAV:  10    -0.354925505819E+03    0.39429E-03   -0.91127E-03 38592   0.319E-01    0.686E-01
DAV:  11    -0.354925812324E+03   -0.30651E-03   -0.35546E-03 36528   0.213E-01    0.666E-01
DAV:  12    -0.354925055092E+03    0.75723E-03   -0.19696E-03 37552   0.168E-01    0.245E-01
DAV:  13    -0.354925139237E+03   -0.84145E-04   -0.35899E-04 36712   0.734E-02    0.202E-01
DAV:  14    -0.354925166482E+03   -0.27246E-04   -0.17459E-04 29368   0.465E-02    0.226E-01
DAV:  15    -0.354925111113E+03    0.55369E-04   -0.21326E-04 26144   0.506E-02    0.177E-01
DAV:  16    -0.354925100022E+03    0.11091E-04   -0.30333E-04 37368   0.697E-02    0.165E-01
DAV:  17    -0.354925077822E+03    0.22201E-04   -0.19413E-04 37568   0.649E-02    0.112E-01
DAV:  18    -0.354925079085E+03   -0.12630E-05   -0.11057E-04 29192   0.379E-02    0.485E-02
DAV:  19    -0.354925092732E+03   -0.13647E-04   -0.39808E-05 25720   0.248E-02    0.513E-02
DAV:  20    -0.354925090032E+03    0.26998E-05   -0.15771E-05 19784   0.173E-02
  60 F= -.35492509E+03 E0= -.35490969E+03  d E =0.640611E-02  mag=     8.0000
       N       E                     dE             d eps       ncg     rms          rms(c)
DAV:   1    -0.354644969138E+03    0.28012E+00   -0.77117E+01 32208   0.251E+01    0.143E+00
DAV:   2    -0.354926894543E+03   -0.28193E+00   -0.29287E+00 28288   0.433E+00    0.193E+00
DAV:   3    -0.354946723441E+03   -0.19829E-01   -0.12190E-01 38528   0.108E+00    0.369E+00
DAV:   4    -0.354920027183E+03    0.26696E-01   -0.57071E-02 38736   0.689E-01    0.118E+00
DAV:   5    -0.354922277868E+03   -0.22507E-02   -0.29164E-02 38112   0.426E-01    0.127E+00
DAV:   6    -0.354920717681E+03    0.15602E-02   -0.19278E-02 39416   0.409E-01    0.122E+00
DAV:   7    -0.354921423978E+03   -0.70630E-03   -0.23450E-02 38024   0.438E-01    0.151E+00
DAV:   8    -0.354916855666E+03    0.45683E-02   -0.10258E-02 38816   0.346E-01    0.448E-01
DAV:   9    -0.354917315908E+03   -0.46024E-03   -0.27693E-03 38984   0.210E-01    0.324E-01
DAV:  10    -0.354917211520E+03    0.10439E-03   -0.16013E-03 39168   0.147E-01    0.239E-01
DAV:  11    -0.354917231222E+03   -0.19702E-04   -0.49127E-04 38976   0.869E-02    0.215E-01
DAV:  12    -0.354917219992E+03    0.11230E-04   -0.29975E-04 31408   0.626E-02    0.169E-01
DAV:  13    -0.354917188103E+03    0.31889E-04   -0.96304E-05 25808   0.428E-02    0.999E-02
DAV:  14    -0.354917213905E+03   -0.25803E-04   -0.86305E-05 23544   0.320E-02    0.153E-01
DAV:  15    -0.354917174442E+03    0.39463E-04   -0.75812E-05 22552   0.325E-02    0.814E-02
DAV:  16    -0.354917163900E+03    0.10542E-04   -0.48516E-05 23832   0.273E-02    0.649E-02
DAV:  17    -0.354917158718E+03    0.51819E-05   -0.39266E-05 23064   0.298E-02
  61 F= -.35491716E+03 E0= -.35490207E+03  d E =0.793131E-02  mag=     8.0000
       N       E                     dE             d eps       ncg     rms          rms(c)
DAV:   1    -0.353851875364E+03    0.10653E+01   -0.30844E+02 31504   0.474E+01    0.271E+00
DAV:   2    -0.354981338859E+03   -0.11295E+01   -0.11699E+01 28288   0.815E+00    0.299E+00
DAV:   3    -0.355040580327E+03   -0.59241E-01   -0.40674E-01 37848   0.210E+00    0.662E+00
DAV:   4    -0.354944314481E+03    0.96266E-01   -0.17515E-01 38832   0.128E+00    0.147E+00
DAV:   5    -0.354951228316E+03   -0.69138E-02   -0.32319E-02 39424   0.584E-01    0.168E+00
DAV:   6    -0.354950653121E+03    0.57520E-03   -0.36096E-02 36240   0.540E-01    0.205E+00
DAV:   7    -0.354940904917E+03    0.97482E-02   -0.28036E-02 38008   0.473E-01    0.966E-01
DAV:   8    -0.354944219706E+03   -0.33148E-02   -0.22750E-02 37328   0.458E-01    0.169E+00
DAV:   9    -0.354939257149E+03    0.49626E-02   -0.15630E-02 37192   0.410E-01    0.702E-01
DAV:  10    -0.354939056700E+03    0.20045E-03   -0.84349E-03 38216   0.295E-01    0.441E-01
DAV:  11    -0.354939683760E+03   -0.62706E-03   -0.43272E-03 38272   0.186E-01    0.652E-01
DAV:  12    -0.354938897548E+03    0.78621E-03   -0.18005E-03 38656   0.144E-01    0.205E-01
DAV:  13    -0.354939063929E+03   -0.16638E-03   -0.31166E-04 37000   0.663E-02    0.203E-01
DAV:  14    -0.354939061693E+03    0.22357E-05   -0.12982E-04 25744   0.426E-02    0.199E-01
DAV:  15    -0.354939039880E+03    0.21813E-04   -0.10092E-04 23544   0.354E-02    0.172E-01
DAV:  16    -0.354939019581E+03    0.20299E-04   -0.10118E-04 29696   0.438E-02    0.144E-01
DAV:  17    -0.354938972747E+03    0.46834E-04   -0.15539E-04 34200   0.553E-02    0.103E-01
DAV:  18    -0.354938972765E+03   -0.18372E-07   -0.10987E-04 27928   0.359E-02    0.555E-02
DAV:  19    -0.354938982306E+03   -0.95412E-05   -0.42942E-05 23024   0.230E-02
  62 F= -.35493898E+03 E0= -.35492353E+03  d E =-.218236E-01  mag=     8.0000
       N       E                     dE             d eps       ncg     rms          rms(c)
DAV:   1    -0.354804773167E+03    0.13420E+00   -0.15555E+01 33248   0.134E+01    0.976E-01
DAV:   2    -0.354908507879E+03   -0.10373E+00   -0.11575E+00 28288   0.262E+00    0.156E+00
DAV:   3    -0.354908204809E+03    0.30307E-03   -0.41479E-02 35128   0.577E-01    0.128E+00
DAV:   4    -0.354907453727E+03    0.75108E-03   -0.10231E-02 36520   0.334E-01    0.115E+00
DAV:   5    -0.354908337512E+03   -0.88379E-03   -0.63904E-03 38696   0.355E-01    0.134E+00
DAV:   6    -0.354908849517E+03   -0.51201E-03   -0.12523E-02 38728   0.338E-01    0.156E+00
DAV:   7    -0.354905142976E+03    0.37065E-02   -0.16066E-02 37992   0.406E-01    0.951E-01
DAV:   8    -0.354907434384E+03   -0.22914E-02   -0.17628E-02 37392   0.351E-01    0.137E+00
DAV:   9    -0.354904258854E+03    0.31755E-02   -0.15910E-02 37528   0.279E-01    0.617E-01
DAV:  10    -0.354903834501E+03    0.42435E-03   -0.37549E-03 38216   0.178E-01    0.266E-01
DAV:  11    -0.354903928501E+03   -0.94000E-04   -0.69081E-04 37920   0.964E-02    0.231E-01
DAV:  12    -0.354903926315E+03    0.21865E-05   -0.33199E-04 35280   0.625E-02    0.184E-01
DAV:  13    -0.354903900091E+03    0.26224E-04   -0.11985E-04 26928   0.410E-02    0.131E-01
DAV:  14    -0.354903910206E+03   -0.10116E-04   -0.42795E-05 23920   0.233E-02    0.135E-01
DAV:  15    -0.354903925272E+03   -0.15066E-04   -0.10366E-04 23720   0.343E-02    0.179E-01
DAV:  16    -0.354903855383E+03    0.69889E-04   -0.14657E-04 29048   0.491E-02    0.109E-01
DAV:  17    -0.354903828500E+03    0.26883E-04   -0.84600E-05 30064   0.422E-02    0.543E-02
DAV:  18    -0.354903829131E+03   -0.63133E-06   -0.55729E-05 28272   0.269E-02
  63 F= -.35490383E+03 E0= -.35488850E+03  d E =0.351532E-01  mag=     8.0000
       N       E                     dE             d eps       ncg     rms          rms(c)
DAV:   1    -0.354828659670E+03    0.75169E-01   -0.23932E+01 32120   0.153E+01    0.101E+00
DAV:   2    -0.354944633216E+03   -0.11597E+00   -0.12499E+00 28288   0.279E+00    0.154E+00
DAV:   3    -0.354950398644E+03   -0.57654E-02   -0.59088E-02 37608   0.732E-01    0.225E+00
DAV:   4    -0.354941790184E+03    0.86085E-02   -0.17885E-02 37256   0.415E-01    0.908E-01
DAV:   5    -0.354942496849E+03   -0.70666E-03   -0.52551E-03 38472   0.249E-01    0.962E-01
DAV:   6    -0.354943046735E+03   -0.54989E-03   -0.11471E-02 38576   0.284E-01    0.114E+00
DAV:   7    -0.354942023275E+03    0.10235E-02   -0.17253E-02 38920   0.383E-01    0.107E+00
DAV:   8    -0.354940981718E+03    0.10416E-02   -0.95518E-03 38352   0.375E-01    0.875E-01
DAV:   9    -0.354940193762E+03    0.78796E-03   -0.49699E-03 36944   0.227E-01    0.504E-01
DAV:  10    -0.354939843750E+03    0.35001E-03   -0.16742E-03 37128   0.156E-01    0.185E-01
DAV:  11    -0.354939909587E+03   -0.65836E-04   -0.74733E-04 39032   0.862E-02    0.178E-01
DAV:  12    -0.354939876662E+03    0.32924E-04   -0.45379E-04 33800   0.584E-02    0.126E-01
DAV:  13    -0.354939852392E+03    0.24271E-04   -0.88898E-05 25048   0.380E-02    0.626E-02
DAV:  14    -0.354939856512E+03   -0.41200E-05   -0.25680E-05 20912   0.203E-02
  64 F= -.35493986E+03 E0= -.35492442E+03  d E =-.360274E-01  mag=     8.0000
