       N       E                     dE             d eps       ncg     rms          ort
DAV:   1     0.735405286508E+04    0.73541E+04   -0.35064E+05  9568   0.175E+03
DAV:   2     0.488387461983E+03   -0.68657E+04   -0.64415E+04  9568   0.512E+02
DAV:   3    -0.315651715245E+03   -0.80404E+03   -0.77947E+03  9568   0.196E+02
DAV:   4    -0.349133288987E+03   -0.33482E+02   -0.33038E+02  9568   0.384E+01
DAV:   5    -0.351365157945E+03   -0.22319E+01   -0.22054E+01  9568   0.764E+00
SDA:   6    -0.171980412642E+03    0.17938E+03   -0.22054E+01  9568   0.139E+04 0.000E+00
CGA:   7    -0.269217508745E+03   -0.97237E+02   -0.13529E+03  9568   0.649E+03 0.144E+02
CGA:   8    -0.282485681539E+03   -0.13268E+02   -0.10028E+02  9568   0.939E+03-0.562E+03
CGA:   9    -0.283541272390E+03   -0.10556E+01   -0.61162E+02  9568   0.733E+03-0.134E+03
CGA:  10    -0.283290550501E+03    0.25072E+00   -0.20941E+02  9568   0.802E+03 0.563E+00
CGA:  11    -0.294806065667E+03   -0.11516E+02   -0.17482E+02  9568   0.541E+03-0.244E+02
CGA:  12    -0.292793394583E+03    0.20127E+01   -0.15703E+02  9568   0.530E+03-0.230E+03
CGA:  13    -0.292293814823E+03    0.49958E+00   -0.77192E+01  9568   0.141E+04-0.661E+03
CGA:  14    -0.276528065392E+03    0.15766E+02   -0.79740E+02  9568   0.401E+04-0.168E+04
CGA:  15    -0.292649840766E+03   -0.16122E+02   -0.14467E+03  9568   0.412E+03-0.583E+02
CGA:  16    -0.302001660344E+03   -0.93518E+01   -0.71167E+01  9568   0.160E+03-0.183E+03
CGA:  17    -0.303727374524E+03   -0.17257E+01   -0.20382E+01  9568   0.107E+03-0.644E+01
CGA:  18    -0.300008126971E+03    0.37192E+01   -0.34152E+01  9568   0.285E+03-0.175E+03
CGA:  19    -0.300101395986E+03   -0.93269E-01   -0.11560E+02  9568   0.471E+03-0.908E+02
CGA:  20    -0.277510301423E+03    0.22591E+02   -0.11684E+02  9568   0.139E+04-0.229E+03
CGA:  21    -0.273818506737E+03    0.36918E+01   -0.33362E+02  9568   0.239E+04-0.184E+04
CGA:  22    -0.281867767963E+03   -0.80493E+01   -0.10200E+03  9568   0.102E+04-0.897E+03
CGA:  23    -0.290232201941E+03   -0.83644E+01   -0.20388E+02  9568   0.180E+04-0.166E+03
CGA:  24    -0.255783202823E+03    0.34449E+02   -0.43951E+02  9568   0.167E+04-0.728E+03
CGA:  25    -0.295573833883E+03   -0.39791E+02   -0.28649E+02  9568   0.277E+03 0.148E+03
CGA:  26    -0.301672630874E+03   -0.60988E+01   -0.94754E+01  9568   0.107E+03-0.104E+03
CGA:  27    -0.303215190489E+03   -0.15426E+01   -0.90716E+00  9568   0.682E+02 0.468E+02
CGA:  28    -0.305713116124E+03   -0.24979E+01   -0.12914E+01  9568   0.177E+02 0.480E+02
CGA:  29    -0.306079390354E+03   -0.36627E+00   -0.28646E+00  9568   0.133E+02 0.429E+01
CGA:  30    -0.306419218555E+03   -0.33983E+00   -0.27281E+00  9568   0.987E+01 0.373E+01
CGA:  31    -0.306972306973E+03   -0.55309E+00   -0.43181E+00  9568   0.148E+02 0.274E+01
CGA:  32    -0.307321163784E+03   -0.34886E+00   -0.21896E+00  9568   0.119E+02 0.120E+02
CGA:  33    -0.307498317432E+03   -0.17715E+00   -0.10180E+00  9568   0.621E+01 0.867E+01
CGA:  34    -0.307637508182E+03   -0.13919E+00   -0.89240E-01  9568   0.251E+01 0.321E+01
CGA:  35    -0.307873003202E+03   -0.23550E+00   -0.22925E+00  9568   0.736E+01 0.175E+00
CGA:  36    -0.307965993168E+03   -0.92990E-01   -0.54861E-01  9568   0.509E+01 0.561E+01
CGA:  37    -0.308082809037E+03   -0.11682E+00   -0.93880E-01  9568   0.157E+01 0.125E+01
CGA:  38    -0.308155999887E+03   -0.73191E-01   -0.63760E-01  9568   0.217E+01 0.191E+00
CGA:  39    -0.308244326911E+03   -0.88327E-01   -0.73906E-01  9568   0.523E+01 0.296E+00
CGA:  40    -0.308331079128E+03   -0.86752E-01   -0.55808E-01  9568   0.508E+01 0.310E+01
CGA:  41    -0.308407910128E+03   -0.76831E-01   -0.10964E+00  9568   0.386E+01-0.977E+00
CGA:  42    -0.308439941549E+03   -0.32031E-01   -0.33969E-01  9568   0.105E+01-0.175E+00
CGA:  43    -0.308478924641E+03   -0.38983E-01   -0.35089E-01  9568   0.261E+01 0.140E-01
CGA:  44    -0.308525456240E+03   -0.46532E-01   -0.52507E-01  9568   0.308E+01-0.197E+00
CGA:  45    -0.308568069499E+03   -0.42613E-01   -0.24415E-01  9568   0.256E+01 0.216E+01
CGA:  46    -0.308605842745E+03   -0.37773E-01   -0.36756E-01  9568   0.706E+00 0.331E-01
CGA:  47    -0.308619050494E+03   -0.13208E-01   -0.14137E-01  9568   0.642E+00-0.301E-01
CGA:  48    -0.308670425310E+03   -0.51375E-01   -0.51848E-01  9568   0.238E+01-0.348E-01
CGA:  49    -0.308688150156E+03   -0.17725E-01   -0.95762E-02  9568   0.202E+01 0.191E+01
CGA:  50    -0.308717497964E+03   -0.29348E-01   -0.31075E-01  9568   0.671E+00-0.899E-01
CGA:  51    -0.308728181705E+03   -0.10684E-01   -0.10490E-01  9568   0.297E+00 0.710E-02
CGA:  52    -0.308750656174E+03   -0.22474E-01   -0.22081E-01  9568   0.870E+00 0.101E-01
CGA:  53    -0.308786360165E+03   -0.35704E-01   -0.45002E-01  9568   0.177E+01-0.123E+01
CGA:  54    -0.308807652917E+03   -0.21293E-01   -0.24537E-01  9568   0.667E+00-0.182E+00
CGA:  55    -0.308819575956E+03   -0.11923E-01   -0.11337E-01  9568   0.309E+00 0.173E-01
CGA:  56    -0.308834396072E+03   -0.14820E-01   -0.14641E-01  9568   0.370E+00 0.219E-01
CGA:  57    -0.308852071009E+03   -0.17675E-01   -0.17418E-01  9568   0.381E+00 0.779E-01
CGA:  58    -0.308863664744E+03   -0.11594E-01   -0.11359E-01  9568   0.458E+00 0.155E-02
CGA:  59    -0.308887564532E+03   -0.23900E-01   -0.23778E-01  9568   0.322E+00 0.777E-02
CGA:  60    -0.308902658156E+03   -0.15094E-01   -0.15430E-01  9568   0.272E+00-0.409E-01
CGA:  61    -0.308911211231E+03   -0.85531E-02   -0.83720E-02  9568   0.315E+00-0.938E-02
CGA:  62    -0.308916918019E+03   -0.57068E-02   -0.60464E-02  9568   0.118E+00-0.113E-01
CGA:  63    -0.308926752654E+03   -0.98346E-02   -0.88726E-02  9568   0.825E-01 0.222E-01
CGA:  64    -0.308931494321E+03   -0.47417E-02   -0.47181E-02  9568   0.785E-01 0.197E-02
CGA:  65    -0.308936266849E+03   -0.47725E-02   -0.46632E-02  9568   0.167E+00 0.502E-02
CGA:  66    -0.308941662734E+03   -0.53959E-02   -0.54716E-02  9568   0.124E+00 0.665E-03
CGA:  67    -0.308947402443E+03   -0.57397E-02   -0.57045E-02  9568   0.806E-01 0.673E-02
CGA:  68    -0.308950220580E+03   -0.28181E-02   -0.28082E-02  9568   0.620E-01-0.443E-03
CGA:  69    -0.308952728819E+03   -0.25082E-02   -0.25131E-02  9568   0.712E-01 0.108E-02
CGA:  70    -0.308955967143E+03   -0.32383E-02   -0.32391E-02  9568   0.634E-01-0.254E-03
CGA:  71    -0.308959955860E+03   -0.39887E-02   -0.39662E-02  9568   0.114E+00 0.913E-03
CGA:  72    -0.308963299573E+03   -0.33437E-02   -0.32663E-02  9568   0.470E-01 0.143E-03
CGA:  73    -0.308965643460E+03   -0.23439E-02   -0.23381E-02  9568   0.422E-01 0.530E-03
CGA:  74    -0.308967119855E+03   -0.14764E-02   -0.14737E-02  9568   0.408E-01-0.113E-03
CGA:  75    -0.308969379809E+03   -0.22600E-02   -0.22470E-02  9568   0.468E-01 0.739E-03
CGA:  76    -0.308971456452E+03   -0.20766E-02   -0.20768E-02  9568   0.471E-01-0.538E-03
CGA:  77    -0.308973121200E+03   -0.16647E-02   -0.16656E-02  9568   0.378E-01 0.180E-04
CGA:  78    -0.308974618782E+03   -0.14976E-02   -0.14916E-02  9568   0.259E-01-0.697E-03
CGA:  79    -0.308975777697E+03   -0.11589E-02   -0.11577E-02  9568   0.301E-01 0.265E-03
CGA:  80    -0.308976798805E+03   -0.10211E-02   -0.10125E-02  9568   0.242E-01-0.202E-03
CGA:  81    -0.308978236361E+03   -0.14376E-02   -0.14367E-02  9568   0.253E-01 0.246E-04
CGA:  82    -0.308978985745E+03   -0.74938E-03   -0.74238E-03  9568   0.201E-01-0.333E-04
CGA:  83    -0.308979915720E+03   -0.92998E-03   -0.92902E-03  9568   0.162E-01 0.151E-03
SDA:  84    -0.308980603069E+03   -0.68735E-03   -0.68668E-03  9568   0.192E-01-0.425E-03
CGA:  85    -0.308980895356E+03   -0.29229E-03   -0.29505E-03  9568   0.737E-02-0.104E-03
CGA:  86    -0.308981393957E+03   -0.49860E-03   -0.49865E-03  9568   0.114E-01-0.114E-05
CGA:  87    -0.308982724421E+03   -0.13305E-02   -0.13416E-02  9568   0.424E-01-0.191E-03
CGA:  88    -0.308985018324E+03   -0.22939E-02   -0.23078E-02  9568   0.209E-01-0.104E-02
CGA:  89    -0.308985600761E+03   -0.58244E-03   -0.58673E-03  9568   0.215E-01-0.143E-06
CGA:  90    -0.308986359168E+03   -0.75841E-03   -0.75580E-03  9568   0.673E-02-0.371E-04
CGA:  91    -0.308986582114E+03   -0.22295E-03   -0.22259E-03  9568   0.568E-02-0.656E-05
CGA:  92    -0.308986888225E+03   -0.30611E-03   -0.30699E-03  9568   0.520E-02-0.717E-04
CGA:  93    -0.308987001452E+03   -0.11323E-03   -0.11442E-03  9568   0.289E-02-0.315E-04
CGA:  94    -0.308987173306E+03   -0.17185E-03   -0.17202E-03  9568   0.242E-02-0.118E-04
CGA:  95    -0.308987279228E+03   -0.10592E-03   -0.10585E-03  9568   0.410E-02-0.385E-04
CGA:  96    -0.308987469396E+03   -0.19017E-03   -0.19098E-03  9568   0.592E-02-0.197E-03
CGA:  97    -0.308987678441E+03   -0.20904E-03   -0.20976E-03  9568   0.427E-02 0.351E-04
CGA:  98    -0.308987866087E+03   -0.18765E-03   -0.18713E-03  9568   0.268E-02-0.227E-03
CGA:  99    -0.308987984320E+03   -0.11823E-03   -0.11875E-03  9568   0.359E-02-0.134E-03
CGA: 100    -0.308988060201E+03   -0.75881E-04   -0.75159E-04  9568   0.183E-02 0.152E-04
CGA: 101    -0.308988107529E+03   -0.47328E-04   -0.48403E-04  9568   0.110E-02-0.154E-04
CGA: 102    -0.308988153480E+03   -0.45951E-04   -0.45942E-04  9568   0.154E-02-0.100E-04
CGA: 103    -0.308988194486E+03   -0.41006E-04   -0.39303E-04  9568   0.148E-02 0.222E-04
CGA: 104    -0.308988244830E+03   -0.50344E-04   -0.48499E-04  9568   0.150E-02-0.270E-04
CGA: 105    -0.308988279487E+03   -0.34657E-04   -0.32442E-04  9568   0.187E-02 0.736E-04
CGA: 106    -0.308988331978E+03   -0.52490E-04   -0.40820E-04  9568   0.228E-02 0.416E-03
CGA: 107    -0.308988362417E+03   -0.30439E-04   -0.19068E-04  9568   0.219E-02 0.162E-02
CGA: 108    -0.308988462558E+03   -0.10014E-03   -0.10002E-03  9568   0.167E-02 0.103E-04
CGA: 109    -0.308988568609E+03   -0.10605E-03   -0.10676E-03  9568   0.524E-02-0.255E-04
CGA: 110    -0.308988759937E+03   -0.19133E-03   -0.19036E-03  9568   0.513E-02-0.158E-03
CGA: 111    -0.308988926130E+03   -0.16619E-03   -0.16675E-03  9568   0.421E-02 0.349E-04
CGA: 112    -0.308989142649E+03   -0.21652E-03   -0.22322E-03  9568   0.517E-02-0.470E-03
CGA: 113    -0.308989224595E+03   -0.81946E-04   -0.68997E-04  9568   0.387E-02 0.683E-03
CGA: 114    -0.308989335514E+03   -0.11092E-03   -0.10888E-03  9568   0.436E-02 0.471E-04
CGA: 115    -0.308989388942E+03   -0.53428E-04   -0.51963E-04  9568   0.139E-02 0.122E-03
CGA: 116    -0.308989413203E+03   -0.24261E-04   -0.24422E-04  9568   0.172E-02-0.715E-05
CGA: 117    -0.308989451310E+03   -0.38108E-04   -0.38344E-04  9568   0.125E-02 0.941E-06
CGA: 118    -0.308989464941E+03   -0.13631E-04   -0.13635E-04  9568   0.563E-03 0.716E-05
CGA: 119    -0.308989477759E+03   -0.12819E-04   -0.12850E-04  9568   0.734E-03 0.349E-05
CGA: 120    -0.308989487432E+03   -0.96723E-05   -0.96885E-05  9568   0.317E-03 0.340E-05
   1 F= -.30898949E+03 E0= -.30896849E+03  d E =-.308989E+03  mag=    25.8160
       N       E                     dE             d eps       ncg     rms          ort
SDA:   1    -0.308284688016E+03    0.70479E+00    0.00000E+00  9568   0.720E+02 0.000E+00
CGA:   2    -0.308978111557E+03   -0.69342E+00   -0.84233E+00  9568   0.454E+01-0.125E+02
CGA:   3    -0.309026439609E+03   -0.48328E-01   -0.46021E-01  9568   0.141E+00 0.107E+00
CGA:   4    -0.309030938461E+03   -0.44989E-02   -0.45091E-02  9568   0.452E-01-0.335E-02
CGA:   5    -0.309031883120E+03   -0.94466E-03   -0.94314E-03  9568   0.297E-01-0.112E-04
CGA:   6    -0.309032819895E+03   -0.93677E-03   -0.93739E-03  9568   0.289E-01-0.149E-03
CGA:   7    -0.309033927450E+03   -0.11076E-02   -0.11068E-02  9568   0.189E-01 0.665E-04
CGA:   8    -0.309034559868E+03   -0.63242E-03   -0.63222E-03  9568   0.111E-01 0.365E-04
CGA:   9    -0.309034770921E+03   -0.21105E-03   -0.21075E-03  9568   0.710E-02-0.596E-05
CGA:  10    -0.309035133932E+03   -0.36301E-03   -0.36338E-03  9568   0.443E-02-0.158E-04
CGA:  11    -0.309035348105E+03   -0.21417E-03   -0.21405E-03  9568   0.527E-02 0.603E-05
CGA:  12    -0.309035426690E+03   -0.78585E-04   -0.78450E-04  9568   0.109E-02-0.300E-05
CGA:  13    -0.309035494473E+03   -0.67783E-04   -0.67942E-04  9568   0.744E-03-0.496E-05
CGA:  14    -0.309035515537E+03   -0.21064E-04   -0.21061E-04  9568   0.838E-03-0.821E-06
CGA:  15    -0.309035545723E+03   -0.30186E-04   -0.30214E-04  9568   0.780E-03-0.625E-05
CGA:  16    -0.309035564507E+03   -0.18784E-04   -0.18784E-04  9568   0.247E-03-0.655E-06
CGA:  17    -0.309035576453E+03   -0.11946E-04   -0.11943E-04  9568   0.139E-03 0.478E-07
CGA:  18    -0.309035579049E+03   -0.25953E-05   -0.25863E-05  9568   0.906E-04-0.576E-06
   2 F= -.30903558E+03 E0= -.30901482E+03  d E =-.460916E-01  mag=    25.8172
       N       E                     dE             d eps       ncg     rms          ort
SDA:   1    -0.308812561354E+03    0.22302E+00    0.00000E+00  9568   0.224E+01 0.000E+00
CGA:   2    -0.309150384130E+03   -0.33782E+00   -0.56437E-06  9568   0.154E+02-0.692E+00
CGA:   3    -0.309298278154E+03   -0.14789E+00   -0.14637E+00  9568   0.498E+01 0.605E-01
CGA:   4    -0.309364955828E+03   -0.66678E-01   -0.85388E-01  9568   0.246E+01-0.848E+00
CGA:   5    -0.309400068850E+03   -0.35113E-01   -0.35920E-01  9568   0.161E+01-0.407E-01
CGA:   6    -0.309452557544E+03   -0.52489E-01   -0.51962E-01  9568   0.222E+01 0.116E-02
CGA:   7    -0.309508032564E+03   -0.55475E-01   -0.52684E-01  9568   0.189E+01 0.686E-01
CGA:   8    -0.309539401718E+03   -0.31369E-01   -0.33720E-01  9568   0.790E+00-0.104E+00
CGA:   9    -0.309557162987E+03   -0.17761E-01   -0.18337E-01  9568   0.663E+00-0.119E-01
CGA:  10    -0.309567278703E+03   -0.10116E-01   -0.10004E-01  9568   0.163E+00 0.511E-02
CGA:  11    -0.309573464701E+03   -0.61860E-02   -0.61693E-02  9568   0.284E+00-0.553E-03
CGA:  12    -0.309579047450E+03   -0.55827E-02   -0.56649E-02  9568   0.143E+00-0.251E-02
CGA:  13    -0.309583674273E+03   -0.46268E-02   -0.46382E-02  9568   0.165E+00 0.160E-03
CGA:  14    -0.309587381363E+03   -0.37071E-02   -0.36855E-02  9568   0.803E-01 0.469E-03
CGA:  15    -0.309588619631E+03   -0.12383E-02   -0.12519E-02  9568   0.265E-01-0.600E-03
CGA:  16    -0.309589911316E+03   -0.12917E-02   -0.12888E-02  9568   0.583E-01 0.272E-03
CGA:  17    -0.309591036830E+03   -0.11255E-02   -0.11225E-02  9568   0.267E-01 0.107E-03
CGA:  18    -0.309592556306E+03   -0.15195E-02   -0.15224E-02  9568   0.424E-01-0.130E-03
CGA:  19    -0.309593146988E+03   -0.59068E-03   -0.59609E-03  9568   0.814E-02-0.228E-03
CGA:  20    -0.309593354866E+03   -0.20788E-03   -0.20748E-03  9568   0.793E-02 0.109E-04
CGA:  21    -0.309593739241E+03   -0.38437E-03   -0.38429E-03  9568   0.136E-01 0.124E-04
CGA:  22    -0.309594013275E+03   -0.27403E-03   -0.27596E-03  9568   0.884E-02-0.130E-04
CGA:  23    -0.309594419805E+03   -0.40653E-03   -0.40626E-03  9568   0.568E-02 0.337E-04
CGA:  24    -0.309594500276E+03   -0.80470E-04   -0.80108E-04  9568   0.244E-02 0.184E-04
CGA:  25    -0.309594661449E+03   -0.16117E-03   -0.16124E-03  9568   0.552E-02-0.220E-05
CGA:  26    -0.309594806561E+03   -0.14511E-03   -0.14543E-03  9568   0.433E-02 0.500E-05
CGA:  27    -0.309594914264E+03   -0.10770E-03   -0.10780E-03  9568   0.348E-02-0.672E-06
CGA:  28    -0.309595009638E+03   -0.95374E-04   -0.95435E-04  9568   0.163E-02 0.114E-05
CGA:  29    -0.309595061125E+03   -0.51487E-04   -0.51494E-04  9568   0.248E-02 0.223E-05
CGA:  30    -0.309595126357E+03   -0.65232E-04   -0.65144E-04  9568   0.140E-02-0.106E-05
CGA:  31    -0.309595189391E+03   -0.63034E-04   -0.63015E-04  9568   0.203E-02 0.180E-05
SDA:  32    -0.309595232164E+03   -0.42773E-04   -0.42877E-04  9568   0.144E-02 0.438E-05
CGA:  33    -0.309595262320E+03   -0.30156E-04   -0.30137E-04  9568   0.800E-03-0.207E-07
CGA:  34    -0.309595280648E+03   -0.18328E-04   -0.18369E-04  9568   0.428E-03 0.329E-05
CGA:  35    -0.309595316155E+03   -0.35507E-04   -0.35248E-04  9568   0.542E-03 0.539E-05
CGA:  36    -0.309595341466E+03   -0.25311E-04   -0.25294E-04  9568   0.559E-03 0.211E-05
CGA:  37    -0.309595363468E+03   -0.22002E-04   -0.21998E-04  9568   0.299E-03 0.271E-05
CGA:  38    -0.309595377740E+03   -0.14272E-04   -0.14240E-04  9568   0.210E-03 0.323E-05
CGA:  39    -0.309595381482E+03   -0.37426E-05   -0.37315E-05  9568   0.120E-03-0.359E-06
CGA:  40    -0.309595393675E+03   -0.12193E-04   -0.12220E-04  9568   0.126E-03-0.470E-06
CGA:  41    -0.309595404846E+03   -0.11171E-04   -0.11333E-04  9568   0.152E-03-0.328E-05
CGA:  42    -0.309595408201E+03   -0.33544E-05   -0.33468E-05  9568   0.138E-03-0.457E-06
   3 F= -.30959541E+03 E0= -.30957441E+03  d E =-.559829E+00  mag=    25.8191
       N       E                     dE             d eps       ncg     rms          ort
SDA:   1    -0.283012234413E+03    0.26583E+02    0.00000E+00  9568   0.953E+03 0.000E+00
CGA:   2    -0.291188378579E+03   -0.81761E+01   -0.21396E+02  9568   0.285E+03-0.895E+02
CGA:   3    -0.295456385349E+03   -0.42680E+01   -0.66501E+01  9568   0.271E+03-0.444E+02
CGA:   4    -0.295497999723E+03   -0.41614E-01   -0.39582E+01  9568   0.310E+03-0.131E+03
CGA:   5    -0.303038664148E+03   -0.75407E+01   -0.23593E+01  9568   0.519E+02-0.855E+00
CGA:   6    -0.305169179551E+03   -0.21305E+01   -0.21464E+01  9568   0.569E+02-0.388E+01
CGA:   7    -0.306042860303E+03   -0.87368E+00   -0.10317E+01  9568   0.127E+03-0.349E+01
CGA:   8    -0.307469824397E+03   -0.14270E+01   -0.13988E+01  9568   0.914E+02-0.123E+02
CGA:   9    -0.309054965312E+03   -0.15851E+01   -0.17880E+01  9568   0.523E+02 0.511E+01
CGA:  10    -0.309541282461E+03   -0.48632E+00   -0.53805E+00  9568   0.269E+02-0.643E+01
CGA:  11    -0.309997044403E+03   -0.45576E+00   -0.32006E+00  9568   0.164E+02 0.737E+01
CGA:  12    -0.310158660103E+03   -0.16162E+00   -0.14547E+00  9568   0.577E+01 0.186E+01
CGA:  13    -0.310233299547E+03   -0.74639E-01   -0.76467E-01  9568   0.565E+01-0.114E+00
CGA:  14    -0.310312071283E+03   -0.78772E-01   -0.80444E-01  9568   0.948E+01-0.755E-01
CGA:  15    -0.310486434376E+03   -0.17436E+00   -0.18210E+00  9568   0.835E+01 0.413E-01
CGA:  16    -0.310582160044E+03   -0.95726E-01   -0.87012E-01  9568   0.841E+01 0.588E+00
CGA:  17    -0.310703748390E+03   -0.12159E+00   -0.80651E-01  9568   0.697E+01 0.375E+01
CGA:  18    -0.310760112349E+03   -0.56364E-01   -0.39919E-01  9568   0.312E+01 0.380E+01
CGA:  19    -0.310796884722E+03   -0.36772E-01   -0.37542E-01  9568   0.688E+00-0.402E-01
CGA:  20    -0.310819041600E+03   -0.22157E-01   -0.22097E-01  9568   0.603E+00 0.628E-02
CGA:  21    -0.310838061700E+03   -0.19020E-01   -0.19355E-01  9568   0.733E+00-0.397E-01
CGA:  22    -0.310884240793E+03   -0.46179E-01   -0.50066E-01  9568   0.202E+01-0.930E-01
CGA:  23    -0.310919858150E+03   -0.35617E-01   -0.35449E-01  9568   0.108E+01-0.909E-02
CGA:  24    -0.310940832977E+03   -0.20975E-01   -0.20902E-01  9568   0.303E+00 0.454E-03
CGA:  25    -0.310954056599E+03   -0.13224E-01   -0.13058E-01  9568   0.420E+00 0.934E-02
CGA:  26    -0.310962879664E+03   -0.88231E-02   -0.87812E-02  9568   0.352E+00-0.484E-03
CGA:  27    -0.310973892870E+03   -0.11013E-01   -0.10978E-01  9568   0.220E+00 0.704E-02
CGA:  28    -0.310981587675E+03   -0.76948E-02   -0.76933E-02  9568   0.178E+00 0.191E-03
CGA:  29    -0.310985175690E+03   -0.35880E-02   -0.36234E-02  9568   0.154E+00 0.393E-03
CGA:  30    -0.310990575044E+03   -0.53994E-02   -0.53968E-02  9568   0.912E-01 0.278E-03
CGA:  31    -0.310993385107E+03   -0.28101E-02   -0.28061E-02  9568   0.862E-01 0.105E-02
CGA:  32    -0.310995890058E+03   -0.25050E-02   -0.25049E-02  9568   0.100E+00 0.518E-03
CGA:  33    -0.310998558441E+03   -0.26684E-02   -0.26717E-02  9568   0.581E-01 0.702E-03
CGA:  34    -0.311001092397E+03   -0.25340E-02   -0.25069E-02  9568   0.612E-01 0.158E-02
CGA:  35    -0.311002369383E+03   -0.12770E-02   -0.12751E-02  9568   0.340E-01 0.180E-04
CGA:  36    -0.311003218150E+03   -0.84877E-03   -0.84900E-03  9568   0.188E-01 0.389E-04
CGA:  37    -0.311004594431E+03   -0.13763E-02   -0.13733E-02  9568   0.516E-01 0.708E-04
CGA:  38    -0.311005520154E+03   -0.92572E-03   -0.93085E-03  9568   0.157E-01-0.487E-04
CGA:  39    -0.311006161181E+03   -0.64103E-03   -0.63925E-03  9568   0.174E-01 0.127E-03
CGA:  40    -0.311006780449E+03   -0.61927E-03   -0.61860E-03  9568   0.255E-01 0.998E-04
CGA:  41    -0.311007422686E+03   -0.64224E-03   -0.64161E-03  9568   0.102E-01-0.141E-04
CGA:  42    -0.311007903303E+03   -0.48062E-03   -0.48149E-03  9568   0.159E-01-0.439E-04
CGA:  43    -0.311008254694E+03   -0.35139E-03   -0.35334E-03  9568   0.948E-02 0.201E-04
CGA:  44    -0.311008608220E+03   -0.35353E-03   -0.35338E-03  9568   0.817E-02 0.168E-04
CGA:  45    -0.311008836997E+03   -0.22878E-03   -0.22886E-03  9568   0.586E-02 0.235E-05
CGA:  46    -0.311008990099E+03   -0.15310E-03   -0.15267E-03  9568   0.535E-02-0.301E-04
CGA:  47    -0.311009239236E+03   -0.24914E-03   -0.24831E-03  9568   0.692E-02 0.403E-04
CGA:  48    -0.311009498584E+03   -0.25935E-03   -0.26068E-03  9568   0.789E-02-0.160E-03
SDA:  49    -0.311009659619E+03   -0.16104E-03   -0.16362E-03  9568   0.351E-02-0.189E-04
CGA:  50    -0.311009730224E+03   -0.70605E-04   -0.70697E-04  9568   0.293E-02 0.426E-05
CGA:  51    -0.311009815835E+03   -0.85611E-04   -0.85617E-04  9568   0.261E-02 0.293E-05
CGA:  52    -0.311009973484E+03   -0.15765E-03   -0.15739E-03  9568   0.424E-02 0.832E-05
CGA:  53    -0.311010136783E+03   -0.16330E-03   -0.16313E-03  9568   0.232E-02 0.229E-04
CGA:  54    -0.311010248431E+03   -0.11165E-03   -0.11151E-03  9568   0.225E-02 0.765E-05
CGA:  55    -0.311010307069E+03   -0.58638E-04   -0.58477E-04  9568   0.341E-02-0.535E-05
CGA:  56    -0.311010483283E+03   -0.17621E-03   -0.17436E-03  9568   0.228E-02 0.818E-04
CGA:  57    -0.311010671045E+03   -0.18776E-03   -0.18329E-03  9568   0.414E-02 0.106E-03
CGA:  58    -0.311010734506E+03   -0.63461E-04   -0.61526E-04  9568   0.198E-02 0.872E-04
CGA:  59    -0.311010980957E+03   -0.24645E-03   -0.25429E-03  9568   0.432E-02-0.119E-03
CGA:  60    -0.311011035352E+03   -0.54395E-04   -0.58261E-04  9568   0.170E-02-0.196E-03
CGA:  61    -0.311011135757E+03   -0.10041E-03   -0.10179E-03  9568   0.217E-02-0.510E-04
CGA:  62    -0.311011212233E+03   -0.76476E-04   -0.76516E-04  9568   0.186E-02 0.689E-05
CGA:  63    -0.311011302951E+03   -0.90717E-04   -0.90162E-04  9568   0.154E-02 0.426E-04
CGA:  64    -0.311011349491E+03   -0.46541E-04   -0.46117E-04  9568   0.175E-02-0.430E-05
CGA:  65    -0.311011390434E+03   -0.40942E-04   -0.41423E-04  9568   0.101E-02-0.650E-05
CGA:  66    -0.311011466958E+03   -0.76525E-04   -0.75584E-04  9568   0.703E-03 0.238E-04
CGA:  67    -0.311011482101E+03   -0.15142E-04   -0.15117E-04  9568   0.674E-03 0.329E-05
CGA:  68    -0.311011503634E+03   -0.21534E-04   -0.21577E-04  9568   0.271E-03 0.246E-05
CGA:  69    -0.311011517048E+03   -0.13413E-04   -0.13362E-04  9568   0.579E-03 0.443E-05
CGA:  70    -0.311011535366E+03   -0.18318E-04   -0.18359E-04  9568   0.467E-03 0.772E-05
CGA:  71    -0.311011544459E+03   -0.90931E-05   -0.92157E-05  9568   0.203E-03 0.245E-05
CGA:  72    -0.311011555152E+03   -0.10693E-04   -0.10625E-04  9568   0.151E-03 0.433E-05
CGA:  73    -0.311011559257E+03   -0.41048E-05   -0.41275E-05  9568   0.230E-03 0.137E-05
CGA:  74    -0.311011569563E+03   -0.10306E-04   -0.10290E-04  9568   0.105E-03 0.180E-05
CGA:  75    -0.311011573854E+03   -0.42908E-05   -0.42916E-05  9568   0.155E-03-0.668E-06
   4 F= -.31101157E+03 E0= -.31098981E+03  d E =-.141617E+01  mag=    25.8345
       N       E                     dE             d eps       ncg     rms          ort
SDA:   1    -0.295102331215E+03    0.15909E+02    0.00000E+00  9568   0.512E+03 0.000E+00
CGA:   2    -0.297707138468E+03   -0.26048E+01   -0.98971E+01  9568   0.217E+03-0.764E+02
CGA:   3    -0.300516845160E+03   -0.28097E+01   -0.36666E+01  9568   0.181E+03-0.706E+02
CGA:   4    -0.301878086164E+03   -0.13612E+01   -0.13475E+01  9568   0.158E+03-0.228E+02
CGA:   5    -0.304612649887E+03   -0.27346E+01   -0.24296E+01  9568   0.388E+02 0.982E+01
CGA:   6    -0.301239177218E+03    0.33735E+01   -0.31587E+01  9568   0.740E+03-0.113E+03
CGA:   7    -0.307536815985E+03   -0.62976E+01   -0.14463E+02  9568   0.912E+02-0.388E+02
CGA:   8    -0.308219683514E+03   -0.68287E+00   -0.77235E+00  9568   0.228E+02-0.197E+02
CGA:   9    -0.309161996663E+03   -0.94231E+00   -0.51311E+00  9568   0.122E+02-0.158E+02
CGA:  10    -0.309401654567E+03   -0.23966E+00   -0.26648E+00  9568   0.857E+01-0.141E+00
CGA:  11    -0.310310117585E+03   -0.90846E+00   -0.98258E+00  9568   0.330E+02-0.125E+01
CGA:  12    -0.310843461831E+03   -0.53334E+00   -0.45292E+00  9568   0.155E+02 0.286E+01
CGA:  13    -0.311207985082E+03   -0.36452E+00   -0.40316E+00  9568   0.106E+02-0.183E-01
CGA:  14    -0.311386140480E+03   -0.17816E+00   -0.16734E+00  9568   0.128E+01 0.321E+00
CGA:  15    -0.311409139883E+03   -0.22999E-01   -0.23381E-01  9568   0.848E+00-0.113E-01
CGA:  16    -0.311442229559E+03   -0.33090E-01   -0.32945E-01  9568   0.672E+00 0.168E-01
CGA:  17    -0.311471779682E+03   -0.29550E-01   -0.29518E-01  9568   0.881E+00 0.235E-02
CGA:  18    -0.311497371147E+03   -0.25591E-01   -0.25407E-01  9568   0.611E+00-0.948E-02
CGA:  19    -0.311516368306E+03   -0.18997E-01   -0.19134E-01  9568   0.281E+00 0.226E-01
CGA:  20    -0.311524316811E+03   -0.79485E-02   -0.79421E-02  9568   0.339E+00-0.201E-03
CGA:  21    -0.311533959200E+03   -0.96424E-02   -0.96964E-02  9568   0.168E+00 0.351E-02
CGA:  22    -0.311537900005E+03   -0.39408E-02   -0.38663E-02  9568   0.151E+00-0.140E-03
CGA:  23    -0.311546929050E+03   -0.90290E-02   -0.88811E-02  9568   0.886E-01 0.513E-02
CGA:  24    -0.311550040363E+03   -0.31113E-02   -0.31121E-02  9568   0.962E-01 0.145E-02
CGA:  25    -0.311553156896E+03   -0.31165E-02   -0.31127E-02  9568   0.549E-01-0.663E-03
CGA:  26    -0.311555533630E+03   -0.23767E-02   -0.23503E-02  9568   0.895E-01 0.207E-02
CGA:  27    -0.311557589005E+03   -0.20554E-02   -0.20454E-02  9568   0.418E-01 0.747E-04
CGA:  28    -0.311559002442E+03   -0.14134E-02   -0.14134E-02  9568   0.278E-01 0.480E-04
CGA:  29    -0.311559807232E+03   -0.80479E-03   -0.80300E-03  9568   0.236E-01-0.116E-03
CGA:  30    -0.311560649464E+03   -0.84223E-03   -0.84160E-03  9568   0.167E-01 0.169E-03
CGA:  31    -0.311561142728E+03   -0.49326E-03   -0.49315E-03  9568   0.201E-01-0.479E-05
CGA:  32    -0.311561882016E+03   -0.73929E-03   -0.73900E-03  9568   0.855E-02 0.568E-04
CGA:  33    -0.311562137165E+03   -0.25515E-03   -0.25480E-03  9568   0.934E-02-0.286E-04
CGA:  34    -0.311562483992E+03   -0.34683E-03   -0.34635E-03  9568   0.428E-02 0.869E-04
CGA:  35    -0.311562581170E+03   -0.97178E-04   -0.97228E-04  9568   0.374E-02 0.502E-05
CGA:  36    -0.311562782459E+03   -0.20129E-03   -0.20054E-03  9568   0.328E-02 0.329E-04
CGA:  37    -0.311562876872E+03   -0.94413E-04   -0.94375E-04  9568   0.348E-02-0.129E-05
CGA:  38    -0.311563023167E+03   -0.14629E-03   -0.14593E-03  9568   0.254E-02 0.338E-04
CGA:  39    -0.311563080795E+03   -0.57627E-04   -0.57630E-04  9568   0.153E-02 0.820E-06
SDA:  40    -0.311563137861E+03   -0.57067E-04   -0.57073E-04  9568   0.152E-02-0.176E-05
CGA:  41    -0.311563168724E+03   -0.30862E-04   -0.30845E-04  9568   0.828E-03-0.344E-05
CGA:  42    -0.311563187557E+03   -0.18833E-04   -0.18839E-04  9568   0.664E-03-0.530E-06
CGA:  43    -0.311563240643E+03   -0.53086E-04   -0.53463E-04  9568   0.696E-03-0.830E-05
CGA:  44    -0.311563272764E+03   -0.32121E-04   -0.32199E-04  9568   0.841E-03-0.650E-05
CGA:  45    -0.311563296527E+03   -0.23763E-04   -0.23776E-04  9568   0.464E-03-0.335E-06
CGA:  46    -0.311563310951E+03   -0.14424E-04   -0.14416E-04  9568   0.742E-03-0.217E-05
CGA:  47    -0.311563339561E+03   -0.28610E-04   -0.28612E-04  9568   0.219E-03-0.107E-05
CGA:  48    -0.311563363390E+03   -0.23829E-04   -0.23904E-04  9568   0.252E-03-0.141E-05
CGA:  49    -0.311563380218E+03   -0.16828E-04   -0.16802E-04  9568   0.205E-03 0.625E-06
CGA:  50    -0.311563390256E+03   -0.10038E-04   -0.10039E-04  9568   0.285E-03-0.294E-06
CGA:  51    -0.311563401175E+03   -0.10919E-04   -0.10919E-04  9568   0.325E-03-0.457E-06
CGA:  52    -0.311563408758E+03   -0.75833E-05   -0.75568E-05  9568   0.180E-03-0.155E-05
   5 F= -.31156341E+03 E0= -.31154119E+03  d E =-.551835E+00  mag=    25.8478
       N       E                     dE             d eps       ncg     rms          ort
SDA:   1    -0.261965917717E+03    0.49597E+02    0.00000E+00  9568   0.163E+04 0.000E+00
CGA:   2    -0.281187645492E+03   -0.19222E+02   -0.36583E+02  9568   0.179E+03-0.434E+02
CGA:   3    -0.287881845201E+03   -0.66942E+01   -0.66188E+01  9568   0.209E+03-0.128E+03
CGA:   4    -0.293617973464E+03   -0.57361E+01   -0.38437E+01  9568   0.865E+02-0.561E+02
CGA:   5    -0.294577462547E+03   -0.95949E+00   -0.13228E+01  9568   0.240E+03-0.530E+01
CGA:   6    -0.298933272166E+03   -0.43558E+01   -0.37346E+01  9568   0.193E+03-0.210E+02
CGA:   7    -0.301874003660E+03   -0.29407E+01   -0.38915E+01  9568   0.583E+03-0.254E+02
CGA:   8    -0.306251023355E+03   -0.43770E+01   -0.68847E+01  9568   0.835E+02-0.843E+02
CGA:   9    -0.308477192892E+03   -0.22262E+01   -0.11792E+01  9568   0.340E+02 0.386E+02
CGA:  10    -0.308877418372E+03   -0.40023E+00   -0.38947E+00  9568   0.196E+02-0.498E+01
CGA:  11    -0.309026519682E+03   -0.14910E+00   -0.17460E+00  9568   0.403E+02-0.218E+01
CGA:  12    -0.309546315040E+03   -0.51980E+00   -0.62666E+00  9568   0.733E+02-0.122E+01
CGA:  13    -0.310260180085E+03   -0.71387E+00   -0.61167E+00  9568   0.261E+02 0.951E+01
CGA:  14    -0.310500088771E+03   -0.23991E+00   -0.25361E+00  9568   0.196E+02-0.226E+01
CGA:  15    -0.310796604958E+03   -0.29652E+00   -0.25110E+00  9568   0.338E+02 0.217E+01
CGA:  16    -0.310973417649E+03   -0.17681E+00   -0.10860E+00  9568   0.273E+02 0.225E+02
CGA:  17    -0.311295861025E+03   -0.32244E+00   -0.31246E+00  9568   0.451E+01 0.645E-01
CGA:  18    -0.311342260052E+03   -0.46399E-01   -0.23584E+00  9568   0.143E+02-0.804E+01
CGA:  19    -0.311559657846E+03   -0.21740E+00   -0.25171E+00  9568   0.178E+01 0.725E-01
CGA:  20    -0.311591560059E+03   -0.31902E-01   -0.31565E-01  9568   0.115E+01-0.263E-02
CGA:  21    -0.311703610139E+03   -0.11205E+00   -0.17117E-02  9568   0.669E+01-0.700E+00
CGA:  22    -0.311782414385E+03   -0.78804E-01   -0.84426E-01  9568   0.185E+01-0.419E+00
CGA:  23    -0.311829261109E+03   -0.46847E-01   -0.43432E-01  9568   0.321E+00 0.537E-01
CGA:  24    -0.311838779088E+03   -0.95180E-02   -0.92223E-02  9568   0.295E+00 0.170E-02
CGA:  25    -0.311859939995E+03   -0.21161E-01   -0.22220E-01  9568   0.154E+01-0.324E-01
CGA:  26    -0.311892971155E+03   -0.33031E-01   -0.26972E-01  9568   0.109E+01 0.269E+00
CGA:  27    -0.311907157648E+03   -0.14186E-01   -0.19543E-01  9568   0.505E+00-0.246E+00
CGA:  28    -0.311920793830E+03   -0.13636E-01   -0.12345E-01  9568   0.474E+00-0.173E-01
CGA:  29    -0.311938672219E+03   -0.17878E-01   -0.18060E-01  9568   0.351E+00 0.386E-01
CGA:  30    -0.311948361233E+03   -0.96890E-02   -0.99947E-02  9568   0.156E+00-0.825E-04
CGA:  31    -0.311954146769E+03   -0.57855E-02   -0.57676E-02  9568   0.911E-01-0.168E-02
CGA:  32    -0.311958477501E+03   -0.43307E-02   -0.42866E-02  9568   0.166E+00 0.407E-02
CGA:  33    -0.311961592719E+03   -0.31152E-02   -0.30399E-02  9568   0.520E-01 0.268E-02
CGA:  34    -0.311964290255E+03   -0.26975E-02   -0.26878E-02  9568   0.788E-01 0.643E-03
CGA:  35    -0.311967390721E+03   -0.31005E-02   -0.30976E-02  9568   0.840E-01-0.849E-03
CGA:  36    -0.311969524715E+03   -0.21340E-02   -0.21689E-02  9568   0.654E-01-0.583E-04
CGA:  37    -0.311971198031E+03   -0.16733E-02   -0.16527E-02  9568   0.295E-01 0.981E-04
CGA:  38    -0.311972475589E+03   -0.12776E-02   -0.12753E-02  9568   0.284E-01 0.309E-03
CGA:  39    -0.311973216464E+03   -0.74087E-03   -0.73976E-03  9568   0.297E-01-0.101E-04
CGA:  40    -0.311974206044E+03   -0.98958E-03   -0.99155E-03  9568   0.110E-01 0.146E-03
CGA:  41    -0.311974565617E+03   -0.35957E-03   -0.35951E-03  9568   0.949E-02-0.220E-05
CGA:  42    -0.311974833205E+03   -0.26759E-03   -0.26799E-03  9568   0.916E-02 0.842E-05
CGA:  43    -0.311975134624E+03   -0.30142E-03   -0.30105E-03  9568   0.805E-02-0.333E-04
CGA:  44    -0.311975415178E+03   -0.28055E-03   -0.28071E-03  9568   0.398E-02 0.327E-04
CGA:  45    -0.311975540754E+03   -0.12558E-03   -0.12546E-03  9568   0.539E-02-0.120E-04
CGA:  46    -0.311975712925E+03   -0.17217E-03   -0.17246E-03  9568   0.397E-02 0.197E-04
CGA:  47    -0.311975897405E+03   -0.18448E-03   -0.18483E-03  9568   0.363E-02-0.278E-04
CGA:  48    -0.311975991213E+03   -0.93808E-04   -0.94245E-04  9568   0.317E-02-0.536E-06
CGA:  49    -0.311976090461E+03   -0.99248E-04   -0.99008E-04  9568   0.264E-02-0.224E-04
CGA:  50    -0.311976187610E+03   -0.97149E-04   -0.97138E-04  9568   0.241E-02 0.490E-05
CGA:  51    -0.311976297226E+03   -0.10962E-03   -0.10990E-03  9568   0.311E-02-0.258E-04
SDA:  52    -0.311976355631E+03   -0.58405E-04   -0.58966E-04  9568   0.123E-02-0.163E-04
CGA:  53    -0.311976380165E+03   -0.24535E-04   -0.24492E-04  9568   0.110E-02-0.216E-05
CGA:  54    -0.311976425319E+03   -0.45153E-04   -0.45154E-04  9568   0.138E-02-0.164E-05
CGA:  55    -0.311976474819E+03   -0.49500E-04   -0.49504E-04  9568   0.750E-03-0.729E-05
CGA:  56    -0.311976500193E+03   -0.25374E-04   -0.25374E-04  9568   0.479E-03-0.187E-05
CGA:  57    -0.311976524535E+03   -0.24342E-04   -0.24373E-04  9568   0.523E-03-0.283E-05
CGA:  58    -0.311976537851E+03   -0.13316E-04   -0.13277E-04  9568   0.665E-03-0.365E-05
CGA:  59    -0.311976562724E+03   -0.24873E-04   -0.24875E-04  9568   0.212E-03-0.273E-05
CGA:  60    -0.311976584745E+03   -0.22021E-04   -0.22506E-04  9568   0.235E-03-0.745E-05
CGA:  61    -0.311976593794E+03   -0.90493E-05   -0.90521E-05  9568   0.352E-03-0.411E-05
   6 F= -.31197659E+03 E0= -.31195407E+03  d E =-.413185E+00  mag=    25.8624
       N       E                     dE             d eps       ncg     rms          ort
SDA:   1    -0.281936239941E+03    0.30040E+02    0.00000E+00  9568   0.282E+03 0.000E+00
CGA:   2    -0.289898158553E+03   -0.79619E+01   -0.66181E+01  9568   0.204E+03-0.167E+03
CGA:   3    -0.293297358194E+03   -0.33992E+01   -0.29216E+01  9568   0.892E+02-0.331E+02
CGA:   4    -0.297288124992E+03   -0.39908E+01   -0.40394E+01  9568   0.258E+03 0.235E+01
CGA:   5    -0.301268614578E+03   -0.39805E+01   -0.41224E+01  9568   0.322E+03-0.976E+02
CGA:   6    -0.305186594804E+03   -0.39180E+01   -0.40795E+01  9568   0.197E+03-0.290E+01
CGA:   7    -0.306833420607E+03   -0.16468E+01   -0.27705E+01  9568   0.511E+02-0.520E+02
CGA:   8    -0.308161025741E+03   -0.13276E+01   -0.20055E+01  9568   0.923E+02-0.427E+02
CGA:   9    -0.309165579357E+03   -0.10046E+01   -0.16982E+01  9568   0.362E+02-0.140E+02
CGA:  10    -0.309963916941E+03   -0.79834E+00   -0.82667E+00  9568   0.329E+02 0.436E+00
CGA:  11    -0.310696935714E+03   -0.73302E+00   -0.70028E+00  9568   0.149E+02-0.779E-01
CGA:  12    -0.311227322909E+03   -0.53039E+00   -0.52515E+00  9568   0.160E+02 0.164E+01
CGA:  13    -0.311489345878E+03   -0.26202E+00   -0.24882E+00  9568   0.609E+01 0.519E+00
CGA:  14    -0.311636891924E+03   -0.14755E+00   -0.12694E+00  9568   0.226E+01 0.224E+00
CGA:  15    -0.311698581675E+03   -0.61690E-01   -0.61886E-01  9568   0.420E+01 0.874E-02
CGA:  16    -0.311821190738E+03   -0.12261E+00   -0.11889E+00  9568   0.344E+01-0.381E+00
CGA:  17    -0.311925777721E+03   -0.10459E+00   -0.10500E+00  9568   0.131E+01-0.118E+00
CGA:  18    -0.311950680202E+03   -0.24902E-01   -0.25749E-01  9568   0.113E+01-0.496E-02
CGA:  19    -0.311973778524E+03   -0.23098E-01   -0.22482E-01  9568   0.906E+00 0.241E-02
CGA:  20    -0.312018287855E+03   -0.44509E-01   -0.43396E-01  9568   0.833E+00 0.546E-01
CGA:  21    -0.312053951577E+03   -0.35664E-01   -0.35024E-01  9568   0.731E+00 0.542E-01
CGA:  22    -0.312072312648E+03   -0.18361E-01   -0.18017E-01  9568   0.604E+00-0.568E-02
CGA:  23    -0.312082454805E+03   -0.10142E-01   -0.10923E-01  9568   0.276E+00-0.105E-01
CGA:  24    -0.312093143291E+03   -0.10688E-01   -0.10594E-01  9568   0.245E+00 0.816E-02
CGA:  25    -0.312100659599E+03   -0.75163E-02   -0.75066E-02  9568   0.342E+00-0.306E-02
CGA:  26    -0.312107628651E+03   -0.69691E-02   -0.72130E-02  9568   0.163E+00 0.235E-02
CGA:  27    -0.312113644924E+03   -0.60163E-02   -0.59842E-02  9568   0.130E+00 0.372E-02
CGA:  28    -0.312116462297E+03   -0.28174E-02   -0.28096E-02  9568   0.115E+00-0.867E-04
CGA:  29    -0.312119058701E+03   -0.25964E-02   -0.26134E-02  9568   0.645E-01 0.461E-03
CGA:  30    -0.312121784289E+03   -0.27256E-02   -0.27048E-02  9568   0.891E-01 0.140E-02
CGA:  31    -0.312123597285E+03   -0.18130E-02   -0.18120E-02  9568   0.742E-01-0.447E-04
CGA:  32    -0.312125878608E+03   -0.22813E-02   -0.22812E-02  9568   0.392E-01 0.148E-03
CGA:  33    -0.312126968905E+03   -0.10903E-02   -0.10920E-02  9568   0.431E-01 0.319E-03
CGA:  34    -0.312127788785E+03   -0.81988E-03   -0.82048E-03  9568   0.225E-01-0.157E-04
CGA:  35    -0.312128704015E+03   -0.91523E-03   -0.91743E-03  9568   0.224E-01-0.133E-03
CGA:  36    -0.312129391630E+03   -0.68761E-03   -0.68748E-03  9568   0.286E-01 0.869E-04
CGA:  37    -0.312129939383E+03   -0.54775E-03   -0.54790E-03  9568   0.105E-01 0.290E-05
CGA:  38    -0.312130348876E+03   -0.40949E-03   -0.41002E-03  9568   0.881E-02-0.380E-04
SDA:  39    -0.312130606224E+03   -0.25735E-03   -0.25738E-03  9568   0.121E-01 0.265E-04
CGA:  40    -0.312130730804E+03   -0.12458E-03   -0.12448E-03  9568   0.215E-02-0.576E-05
CGA:  41    -0.312130894687E+03   -0.16388E-03   -0.16347E-03  9568   0.473E-02 0.845E-05
CGA:  42    -0.312131200307E+03   -0.30562E-03   -0.30525E-03  9568   0.625E-02 0.128E-04
CGA:  43    -0.312131439076E+03   -0.23877E-03   -0.23865E-03  9568   0.259E-02 0.181E-04
CGA:  44    -0.312131527779E+03   -0.88703E-04   -0.88708E-04  9568   0.144E-02-0.263E-05
CGA:  45    -0.312131617226E+03   -0.89448E-04   -0.89485E-04  9568   0.442E-02-0.190E-05
CGA:  46    -0.312131712997E+03   -0.95770E-04   -0.96134E-04  9568   0.191E-02 0.483E-05
CGA:  47    -0.312131835301E+03   -0.12230E-03   -0.12247E-03  9568   0.903E-03-0.566E-05
CGA:  48    -0.312131895468E+03   -0.60168E-04   -0.60084E-04  9568   0.190E-02 0.194E-05
CGA:  49    -0.312131977147E+03   -0.81679E-04   -0.81737E-04  9568   0.936E-03-0.992E-05
CGA:  50    -0.312132038715E+03   -0.61568E-04   -0.61770E-04  9568   0.118E-02-0.724E-05
CGA:  51    -0.312132063611E+03   -0.24897E-04   -0.24831E-04  9568   0.106E-02-0.419E-05
CGA:  52    -0.312132102425E+03   -0.38814E-04   -0.38818E-04  9568   0.608E-03 0.758E-06
CGA:  53    -0.312132128124E+03   -0.25699E-04   -0.25698E-04  9568   0.322E-03-0.233E-06
CGA:  54    -0.312132155600E+03   -0.27476E-04   -0.27533E-04  9568   0.494E-03-0.142E-05
CGA:  55    -0.312132165496E+03   -0.98959E-05   -0.99348E-05  9568   0.191E-03 0.466E-06
   7 F= -.31213217E+03 E0= -.31211006E+03  d E =-.155572E+00  mag=    25.8798
       N       E                     dE             d eps       ncg     rms          ort
SDA:   1    -0.308090342900E+03    0.40418E+01    0.00000E+00  9568   0.887E+02 0.000E+00
CGA:   2    -0.308830328122E+03   -0.73999E+00   -0.13184E+01  9568   0.415E+02-0.326E+02
CGA:   3    -0.309524732856E+03   -0.69440E+00   -0.62321E+00  9568   0.190E+02-0.471E-01
CGA:   4    -0.310282420282E+03   -0.75769E+00   -0.75060E+00  9568   0.183E+02 0.148E+01
CGA:   5    -0.310759057127E+03   -0.47664E+00   -0.48089E+00  9568   0.198E+02-0.102E+00
CGA:   6    -0.311384230331E+03   -0.62517E+00   -0.55244E+00  9568   0.101E+02-0.174E+01
CGA:   7    -0.311755309042E+03   -0.37108E+00   -0.36532E+00  9568   0.322E+01 0.915E+00
CGA:   8    -0.311882442021E+03   -0.12713E+00   -0.12719E+00  9568   0.363E+01-0.267E+00
CGA:   9    -0.311992068844E+03   -0.10963E+00   -0.10951E+00  9568   0.600E+01-0.150E-01
CGA:  10    -0.312107758669E+03   -0.11569E+00   -0.12526E+00  9568   0.117E+01-0.132E+00
CGA:  11    -0.312131024876E+03   -0.23266E-01   -0.23189E-01  9568   0.538E+00 0.105E-02
CGA:  12    -0.312140096293E+03   -0.90714E-02   -0.90264E-02  9568   0.424E+00 0.116E-02
CGA:  13    -0.312161378690E+03   -0.21282E-01   -0.21192E-01  9568   0.632E+00 0.464E-02
CGA:  14    -0.312172868421E+03   -0.11490E-01   -0.11711E-01  9568   0.409E+00-0.485E-02
CGA:  15    -0.312180029584E+03   -0.71612E-02   -0.69996E-02  9568   0.906E-01 0.433E-02
CGA:  16    -0.312182513197E+03   -0.24836E-02   -0.24861E-02  9568   0.943E-01 0.130E-03
CGA:  17    -0.312184578418E+03   -0.20652E-02   -0.20818E-02  9568   0.874E-01 0.672E-04
CGA:  18    -0.312188289287E+03   -0.37109E-02   -0.37279E-02  9568   0.740E-01-0.117E-02
CGA:  19    -0.312190323862E+03   -0.20346E-02   -0.20322E-02  9568   0.671E-01-0.152E-03
CGA:  20    -0.312191422058E+03   -0.10982E-02   -0.11101E-02  9568   0.240E-01-0.271E-03
CGA:  21    -0.312192372054E+03   -0.95000E-03   -0.95374E-03  9568   0.249E-01-0.299E-03
CGA:  22    -0.312193254354E+03   -0.88230E-03   -0.88264E-03  9568   0.377E-01-0.465E-04
CGA:  23    -0.312193993096E+03   -0.73874E-03   -0.74454E-03  9568   0.165E-01-0.322E-04
CGA:  24    -0.312194662254E+03   -0.66916E-03   -0.66906E-03  9568   0.153E-01 0.176E-04
CGA:  25    -0.312195168435E+03   -0.50618E-03   -0.50623E-03  9568   0.200E-01-0.182E-04
CGA:  26    -0.312195542804E+03   -0.37437E-03   -0.37673E-03  9568   0.668E-02-0.144E-04
CGA:  27    -0.312195795768E+03   -0.25296E-03   -0.25323E-03  9568   0.666E-02-0.219E-04
CGA:  28    -0.312196103194E+03   -0.30743E-03   -0.30735E-03  9568   0.136E-01 0.772E-05
CGA:  29    -0.312196364035E+03   -0.26084E-03   -0.26195E-03  9568   0.437E-02 0.405E-05
CGA:  30    -0.312196488670E+03   -0.12463E-03   -0.12455E-03  9568   0.195E-02-0.105E-04
CGA:  31    -0.312196571423E+03   -0.82753E-04   -0.82786E-04  9568   0.391E-02-0.268E-05
SDA:  32    -0.312196667633E+03   -0.96209E-04   -0.96282E-04  9568   0.268E-02 0.108E-05
CGA:  33    -0.312196704855E+03   -0.37222E-04   -0.36968E-04  9568   0.572E-03 0.541E-05
CGA:  34    -0.312196721036E+03   -0.16182E-04   -0.16184E-04  9568   0.819E-03 0.766E-06
CGA:  35    -0.312196768423E+03   -0.47387E-04   -0.47364E-04  9568   0.748E-03 0.588E-06
CGA:  36    -0.312196835548E+03   -0.67125E-04   -0.67521E-04  9568   0.396E-03-0.746E-05
CGA:  37    -0.312196857718E+03   -0.22170E-04   -0.22185E-04  9568   0.750E-03-0.106E-05
CGA:  38    -0.312196871624E+03   -0.13906E-04   -0.13934E-04  9568   0.340E-03 0.735E-06
CGA:  39    -0.312196884184E+03   -0.12560E-04   -0.12561E-04  9568   0.234E-03-0.593E-06
CGA:  40    -0.312196897900E+03   -0.13715E-04   -0.13709E-04  9568   0.272E-03 0.351E-07
CGA:  41    -0.312196910419E+03   -0.12520E-04   -0.12534E-04  9568   0.358E-03-0.147E-05
CGA:  42    -0.312196925204E+03   -0.14785E-04   -0.14776E-04  9568   0.329E-03 0.217E-05
CGA:  43    -0.312196930211E+03   -0.50061E-05   -0.50026E-05  9568   0.104E-03-0.323E-06
   8 F= -.31219693E+03 E0= -.31217460E+03  d E =-.647647E-01  mag=    25.8773
       N       E                     dE             d eps       ncg     rms          ort
SDA:   1    -0.306104284531E+03    0.60926E+01    0.00000E+00  9568   0.378E+02 0.000E+00
CGA:   2    -0.306700661962E+03   -0.59638E+00   -0.71192E+00  9568   0.372E+02-0.392E+01
CGA:   3    -0.309267770444E+03   -0.25671E+01   -0.24127E+01  9568   0.259E+02 0.388E+01
CGA:   4    -0.310514448120E+03   -0.12467E+01   -0.12823E+01  9568   0.204E+02-0.421E+01
CGA:   5    -0.310812604896E+03   -0.29816E+00   -0.25083E+00  9568   0.146E+02 0.214E+01
CGA:   6    -0.311409277677E+03   -0.59667E+00   -0.59804E+00  9568   0.157E+02 0.564E+00
CGA:   7    -0.311643762325E+03   -0.23448E+00   -0.24808E+00  9568   0.101E+02-0.742E+00
CGA:   8    -0.311947683169E+03   -0.30392E+00   -0.29403E+00  9568   0.501E+01-0.491E+00
CGA:   9    -0.312020980041E+03   -0.73297E-01   -0.64464E-01  9568   0.276E+01 0.448E+00
CGA:  10    -0.312073363507E+03   -0.52383E-01   -0.53936E-01  9568   0.215E+01-0.406E-01
CGA:  11    -0.312112430326E+03   -0.39067E-01   -0.40870E-01  9568   0.199E+01-0.346E-01
CGA:  12    -0.312150321089E+03   -0.37891E-01   -0.37120E-01  9568   0.138E+01 0.146E-01
CGA:  13    -0.312188715665E+03   -0.38395E-01   -0.37764E-01  9568   0.117E+01-0.305E-01
CGA:  14    -0.312202282093E+03   -0.13566E-01   -0.14117E-01  9568   0.543E+00-0.301E-01
CGA:  15    -0.312215851676E+03   -0.13570E-01   -0.13669E-01  9568   0.402E+00 0.468E-02
CGA:  16    -0.312220487542E+03   -0.46359E-02   -0.46863E-02  9568   0.140E+00-0.322E-02
CGA:  17    -0.312226134837E+03   -0.56473E-02   -0.56672E-02  9568   0.267E+00-0.145E-02
CGA:  18    -0.312230425780E+03   -0.42909E-02   -0.43284E-02  9568   0.177E+00-0.859E-03
CGA:  19    -0.312235271229E+03   -0.48454E-02   -0.48563E-02  9568   0.137E+00 0.162E-02
CGA:  20    -0.312237537319E+03   -0.22661E-02   -0.22760E-02  9568   0.787E-01-0.266E-03
CGA:  21    -0.312239148528E+03   -0.16112E-02   -0.16299E-02  9568   0.542E-01 0.190E-03
CGA:  22    -0.312240651298E+03   -0.15028E-02   -0.15025E-02  9568   0.458E-01-0.927E-04
CGA:  23    -0.312241379099E+03   -0.72780E-03   -0.72171E-03  9568   0.315E-01 0.148E-03
CGA:  24    -0.312242787554E+03   -0.14085E-02   -0.14040E-02  9568   0.454E-01 0.226E-03
CGA:  25    -0.312243507253E+03   -0.71970E-03   -0.72447E-03  9568   0.297E-01-0.763E-04
CGA:  26    -0.312244446251E+03   -0.93900E-03   -0.93954E-03  9568   0.195E-01-0.943E-04
CGA:  27    -0.312244803009E+03   -0.35676E-03   -0.35603E-03  9568   0.187E-01-0.479E-05
CGA:  28    -0.312245349736E+03   -0.54673E-03   -0.54659E-03  9568   0.136E-01 0.693E-04
CGA:  29    -0.312245658679E+03   -0.30894E-03   -0.31004E-03  9568   0.141E-01 0.680E-04
CGA:  30    -0.312246011066E+03   -0.35239E-03   -0.35231E-03  9568   0.144E-01-0.594E-05
CGA:  31    -0.312246413925E+03   -0.40286E-03   -0.40288E-03  9568   0.988E-02-0.579E-04
SDA:  32    -0.312246612696E+03   -0.19877E-03   -0.19911E-03  9568   0.950E-02 0.155E-04
CGA:  33    -0.312246729156E+03   -0.11646E-03   -0.11648E-03  9568   0.239E-02-0.704E-05
CGA:  34    -0.312246806674E+03   -0.77518E-04   -0.77455E-04  9568   0.297E-02 0.731E-05
CGA:  35    -0.312246962597E+03   -0.15592E-03   -0.15628E-03  9568   0.334E-02-0.143E-04
CGA:  36    -0.312247137673E+03   -0.17508E-03   -0.17508E-03  9568   0.234E-02-0.781E-06
CGA:  37    -0.312247232119E+03   -0.94446E-04   -0.94424E-04  9568   0.101E-02 0.104E-05
CGA:  38    -0.312247295316E+03   -0.63197E-04   -0.63070E-04  9568   0.267E-02 0.361E-05
CGA:  39    -0.312247341476E+03   -0.46160E-04   -0.46098E-04  9568   0.643E-03-0.326E-06
CGA:  40    -0.312247396259E+03   -0.54783E-04   -0.54685E-04  9568   0.672E-03 0.105E-05
CGA:  41    -0.312247450569E+03   -0.54311E-04   -0.54082E-04  9568   0.151E-02 0.445E-05
CGA:  42    -0.312247475802E+03   -0.25233E-04   -0.25300E-04  9568   0.621E-03 0.266E-05
CGA:  43    -0.312247502399E+03   -0.26597E-04   -0.26604E-04  9568   0.675E-03-0.903E-06
CGA:  44    -0.312247528413E+03   -0.26014E-04   -0.26008E-04  9568   0.491E-03 0.147E-05
CGA:  45    -0.312247550496E+03   -0.22083E-04   -0.22099E-04  9568   0.428E-03-0.177E-05
CGA:  46    -0.312247562611E+03   -0.12114E-04   -0.12125E-04  9568   0.351E-03 0.902E-06
CGA:  47    -0.312247569151E+03   -0.65404E-05   -0.65366E-05  9568   0.154E-03-0.621E-06
CGA:  48    -0.312247585022E+03   -0.15871E-04   -0.15925E-04  9568   0.107E-03-0.984E-06
CGA:  49    -0.312247588154E+03   -0.31328E-05   -0.31274E-05  9568   0.177E-03-0.856E-06
   9 F= -.31224759E+03 E0= -.31222476E+03  d E =-.506579E-01  mag=    25.8774
       N       E                     dE             d eps       ncg     rms          ort
SDA:   1    -0.300287949139E+03    0.11960E+02    0.00000E+00  9568   0.461E+02 0.000E+00
CGA:   2    -0.301906210047E+03   -0.16183E+01   -0.16362E+01  9568   0.896E+02 0.378E+01
CGA:   3    -0.306627213116E+03   -0.47210E+01   -0.45850E+01  9568   0.556E+02 0.104E+02
CGA:   4    -0.309015912621E+03   -0.23887E+01   -0.23985E+01  9568   0.244E+02-0.662E+01
CGA:   5    -0.309641913360E+03   -0.62600E+00   -0.11475E+01  9568   0.130E+03-0.267E+02
CGA:   6    -0.310367796160E+03   -0.72588E+00   -0.23243E+01  9568   0.502E+02-0.307E+02
CGA:   7    -0.310788368309E+03   -0.42057E+00   -0.48342E+00  9568   0.180E+02-0.557E+01
CGA:   8    -0.311147573415E+03   -0.35921E+00   -0.24188E+00  9568   0.331E+01 0.525E+01
CGA:   9    -0.311317059448E+03   -0.16949E+00   -0.17217E+00  9568   0.134E+02-0.339E+00
CGA:  10    -0.311523462665E+03   -0.20640E+00   -0.19511E+00  9568   0.251E+02 0.391E+00
CGA:  11    -0.311751295694E+03   -0.22783E+00   -0.21930E+00  9568   0.145E+02 0.792E+00
CGA:  12    -0.311868451973E+03   -0.11716E+00   -0.15868E+00  9568   0.637E+01-0.284E+01
CGA:  13    -0.311907714567E+03   -0.39263E-01   -0.52023E-01  9568   0.325E+01-0.928E+00
CGA:  14    -0.311948913889E+03   -0.41199E-01   -0.40844E-01  9568   0.255E+01 0.163E-01
CGA:  15    -0.312006787520E+03   -0.57874E-01   -0.56669E-01  9568   0.502E+01-0.207E-01
CGA:  16    -0.312102819827E+03   -0.96032E-01   -0.96717E-01  9568   0.437E+01-0.670E-03
CGA:  17    -0.312147570749E+03   -0.44751E-01   -0.50332E-01  9568   0.200E+01-0.331E+00
CGA:  18    -0.312182448891E+03   -0.34878E-01   -0.35645E-01  9568   0.145E+01 0.197E-02
CGA:  19    -0.312204101557E+03   -0.21653E-01   -0.20542E-01  9568   0.694E+00 0.396E-01
CGA:  20    -0.312216115992E+03   -0.12014E-01   -0.11487E-01  9568   0.669E+00 0.987E-02
CGA:  21    -0.312230979452E+03   -0.14863E-01   -0.14714E-01  9568   0.104E+01-0.744E-02
CGA:  22    -0.312246097048E+03   -0.15118E-01   -0.15227E-01  9568   0.735E+00-0.159E-02
CGA:  23    -0.312255228224E+03   -0.91312E-02   -0.93333E-02  9568   0.541E+00-0.785E-02
CGA:  24    -0.312263571278E+03   -0.83431E-02   -0.84436E-02  9568   0.369E+00-0.113E-02
CGA:  25    -0.312268383269E+03   -0.48120E-02   -0.48326E-02  9568   0.264E+00-0.716E-03
CGA:  26    -0.312273348402E+03   -0.49651E-02   -0.48977E-02  9568   0.310E+00-0.218E-02
CGA:  27    -0.312278028595E+03   -0.46802E-02   -0.46606E-02  9568   0.259E+00 0.523E-04
CGA:  28    -0.312281220149E+03   -0.31916E-02   -0.32584E-02  9568   0.150E+00-0.217E-02
CGA:  29    -0.312283614305E+03   -0.23942E-02   -0.24151E-02  9568   0.178E+00 0.277E-03
CGA:  30    -0.312287585628E+03   -0.39713E-02   -0.39719E-02  9568   0.204E+00 0.641E-03
CGA:  31    -0.312290577228E+03   -0.29916E-02   -0.29628E-02  9568   0.175E+00 0.176E-03
CGA:  32    -0.312293975423E+03   -0.33982E-02   -0.33881E-02  9568   0.173E+00-0.132E-02
CGA:  33    -0.312295813421E+03   -0.18380E-02   -0.18695E-02  9568   0.652E-01-0.150E-02
CGA:  34    -0.312296661914E+03   -0.84849E-03   -0.86562E-03  9568   0.464E-01-0.180E-03
CGA:  35    -0.312297540301E+03   -0.87839E-03   -0.87970E-03  9568   0.552E-01 0.236E-03
SDA:  36    -0.312298706891E+03   -0.11666E-02   -0.11666E-02  9568   0.543E-01-0.261E-03
CGA:  37    -0.312299642958E+03   -0.93607E-03   -0.93392E-03  9568   0.247E-01-0.153E-03
CGA:  38    -0.312300158085E+03   -0.51513E-03   -0.51516E-03  9568   0.177E-01-0.106E-03
CGA:  39    -0.312301310259E+03   -0.11522E-02   -0.11455E-02  9568   0.169E-01 0.171E-03
CGA:  40    -0.312302168031E+03   -0.85777E-03   -0.86186E-03  9568   0.244E-01-0.154E-03
CGA:  41    -0.312302745792E+03   -0.57776E-03   -0.57778E-03  9568   0.104E-01 0.195E-04
CGA:  42    -0.312302939370E+03   -0.19358E-03   -0.19389E-03  9568   0.767E-02 0.150E-04
CGA:  43    -0.312303352494E+03   -0.41312E-03   -0.41661E-03  9568   0.234E-02-0.123E-03
CGA:  44    -0.312303529363E+03   -0.17687E-03   -0.17735E-03  9568   0.183E-02-0.105E-04
CGA:  45    -0.312303649610E+03   -0.12025E-03   -0.12028E-03  9568   0.328E-02-0.175E-05
CGA:  46    -0.312303706990E+03   -0.57380E-04   -0.57541E-04  9568   0.175E-02 0.234E-05
CGA:  47    -0.312303769890E+03   -0.62900E-04   -0.62847E-04  9568   0.145E-02 0.674E-05
CGA:  48    -0.312303879051E+03   -0.10916E-03   -0.10857E-03  9568   0.185E-02 0.131E-04
CGA:  49    -0.312303959706E+03   -0.80655E-04   -0.80691E-04  9568   0.190E-02-0.173E-05
CGA:  50    -0.312304019305E+03   -0.59599E-04   -0.59608E-04  9568   0.674E-03 0.572E-05
CGA:  51    -0.312304082607E+03   -0.63303E-04   -0.63555E-04  9568   0.262E-02-0.462E-05
CGA:  52    -0.312304124256E+03   -0.41649E-04   -0.41730E-04  9568   0.729E-03-0.305E-05
CGA:  53    -0.312304181163E+03   -0.56907E-04   -0.57186E-04  9568   0.616E-03-0.657E-05
CGA:  54    -0.312304203486E+03   -0.22323E-04   -0.22323E-04  9568   0.383E-03-0.968E-06
CGA:  55    -0.312304217401E+03   -0.13915E-04   -0.13915E-04  9568   0.461E-03-0.109E-06
CGA:  56    -0.312304225537E+03   -0.81360E-05   -0.81152E-05  9568   0.176E-03-0.834E-06
  10 F= -.31230423E+03 E0= -.31228072E+03  d E =-.566374E-01  mag=    25.8798
       N       E                     dE             d eps       ncg     rms          ort
SDA:   1    -0.276004720289E+03    0.36299E+02    0.00000E+00  9568   0.145E+03 0.000E+00
CGA:   2    -0.282882357005E+03   -0.68776E+01   -0.71387E+01  9568   0.359E+03-0.692E+01
CGA:   3    -0.290402619566E+03   -0.75203E+01   -0.78015E+01  9568   0.440E+03-0.472E+02
CGA:   4    -0.298689423394E+03   -0.82868E+01   -0.97336E+01  9568   0.240E+03 0.121E+02
CGA:   5    -0.301674610328E+03   -0.29852E+01   -0.46717E+01  9568   0.130E+03-0.440E+02
CGA:   6    -0.304563824442E+03   -0.28892E+01   -0.27742E+01  9568   0.625E+02-0.582E+01
CGA:   7    -0.307446872308E+03   -0.28830E+01   -0.33492E+01  9568   0.151E+03-0.168E+02
CGA:   8    -0.309449423937E+03   -0.20026E+01   -0.16416E+01  9568   0.350E+02 0.879E+01
CGA:   9    -0.310076368685E+03   -0.62694E+00   -0.72742E+00  9568   0.319E+02-0.172E+01
CGA:  10    -0.310677691382E+03   -0.60132E+00   -0.57529E+00  9568   0.195E+02 0.674E+00
CGA:  11    -0.311033537207E+03   -0.35585E+00   -0.36452E+00  9568   0.108E+02-0.222E+00
CGA:  12    -0.311316769571E+03   -0.28323E+00   -0.27537E+00  9568   0.152E+02-0.288E+00
CGA:  13    -0.311562106327E+03   -0.24534E+00   -0.24164E+00  9568   0.134E+02-0.478E-01
CGA:  14    -0.311761986528E+03   -0.19988E+00   -0.16927E+00  9568   0.757E+01 0.149E+01
CGA:  15    -0.311851310971E+03   -0.89324E-01   -0.90593E-01  9568   0.492E+01-0.136E+00
CGA:  16    -0.311913836264E+03   -0.62525E-01   -0.62849E-01  9568   0.390E+01-0.173E-01
CGA:  17    -0.311957063791E+03   -0.43228E-01   -0.42808E-01  9568   0.266E+01 0.206E-01
CGA:  18    -0.311997526057E+03   -0.40462E-01   -0.40850E-01  9568   0.335E+01-0.122E-01
CGA:  19    -0.312037943207E+03   -0.40417E-01   -0.37520E-01  9568   0.274E+01 0.162E+00
CGA:  20    -0.312079202818E+03   -0.41260E-01   -0.42095E-01  9568   0.349E+01-0.274E-01
CGA:  21    -0.312116779382E+03   -0.37577E-01   -0.38488E-01  9568   0.230E+01-0.555E-01
CGA:  22    -0.312143788580E+03   -0.27009E-01   -0.27166E-01  9568   0.211E+01-0.121E-01
CGA:  23    -0.312168884778E+03   -0.25096E-01   -0.25509E-01  9568   0.153E+01-0.208E-01
CGA:  24    -0.312184611643E+03   -0.15727E-01   -0.16129E-01  9568   0.867E+00-0.247E-01
CGA:  25    -0.312194155888E+03   -0.95442E-02   -0.99429E-02  9568   0.603E+00-0.164E-01
CGA:  26    -0.312203771811E+03   -0.96159E-02   -0.93698E-02  9568   0.725E+00-0.255E-02
CGA:  27    -0.312212878383E+03   -0.91066E-02   -0.89207E-02  9568   0.610E+00 0.539E-02
CGA:  28    -0.312220805022E+03   -0.79266E-02   -0.78295E-02  9568   0.773E+00 0.201E-02
CGA:  29    -0.312233769324E+03   -0.12964E-01   -0.13461E-01  9568   0.924E+00 0.377E-01
CGA:  30    -0.312246986104E+03   -0.13217E-01   -0.13765E-01  9568   0.467E+00 0.420E-02
CGA:  31    -0.312252908584E+03   -0.59225E-02   -0.59795E-02  9568   0.179E+00-0.841E-03
SDA:  32    -0.312257009877E+03   -0.41013E-02   -0.41097E-02  9568   0.160E+00-0.197E-02
CGA:  33    -0.312259241454E+03   -0.22316E-02   -0.22232E-02  9568   0.866E-01-0.381E-04
CGA:  34    -0.312261684053E+03   -0.24426E-02   -0.24477E-02  9568   0.109E+00-0.495E-03
CGA:  35    -0.312269456053E+03   -0.77720E-02   -0.77318E-02  9568   0.961E-01 0.924E-03
CGA:  36    -0.312272737599E+03   -0.32815E-02   -0.32637E-02  9568   0.372E-01 0.137E-02
CGA:  37    -0.312273824664E+03   -0.10871E-02   -0.10831E-02  9568   0.430E-01 0.552E-03
CGA:  38    -0.312275099205E+03   -0.12745E-02   -0.12725E-02  9568   0.516E-01 0.266E-03
CGA:  39    -0.312276123861E+03   -0.10247E-02   -0.10250E-02  9568   0.160E-01 0.570E-04
CGA:  40    -0.312277202358E+03   -0.10785E-02   -0.10644E-02  9568   0.944E-02 0.364E-03
CGA:  41    -0.312277777839E+03   -0.57548E-03   -0.57346E-03  9568   0.435E-01 0.605E-04
CGA:  42    -0.312278909088E+03   -0.11312E-02   -0.11309E-02  9568   0.113E-01-0.961E-04
CGA:  43    -0.312279397786E+03   -0.48870E-03   -0.48305E-03  9568   0.876E-02 0.312E-03
CGA:  44    -0.312279649443E+03   -0.25166E-03   -0.25169E-03  9568   0.832E-02 0.433E-04
CGA:  45    -0.312279948414E+03   -0.29897E-03   -0.29858E-03  9568   0.189E-01 0.396E-04
CGA:  46    -0.312280499868E+03   -0.55145E-03   -0.55146E-03  9568   0.427E-02 0.125E-04
CGA:  47    -0.312280804191E+03   -0.30432E-03   -0.30121E-03  9568   0.648E-02 0.777E-04
CGA:  48    -0.312280936295E+03   -0.13210E-03   -0.13257E-03  9568   0.481E-02 0.912E-05
CGA:  49    -0.312281064156E+03   -0.12786E-03   -0.12796E-03  9568   0.497E-02 0.183E-04
CGA:  50    -0.312281268823E+03   -0.20467E-03   -0.20429E-03  9568   0.182E-02 0.280E-04
CGA:  51    -0.312281339662E+03   -0.70839E-04   -0.70769E-04  9568   0.171E-02 0.502E-05
CGA:  52    -0.312281395167E+03   -0.55505E-04   -0.55511E-04  9568   0.219E-02-0.617E-05
CGA:  53    -0.312281435907E+03   -0.40740E-04   -0.40670E-04  9568   0.111E-02-0.983E-05
CGA:  54    -0.312281509988E+03   -0.74081E-04   -0.74367E-04  9568   0.123E-02-0.796E-05
CGA:  55    -0.312281545680E+03   -0.35692E-04   -0.35666E-04  9568   0.726E-03-0.706E-05
CGA:  56    -0.312281575275E+03   -0.29595E-04   -0.29576E-04  9568   0.112E-02 0.759E-06
CGA:  57    -0.312281594626E+03   -0.19352E-04   -0.19359E-04  9568   0.544E-03 0.266E-05
CGA:  58    -0.312281634773E+03   -0.40146E-04   -0.39840E-04  9568   0.404E-03 0.726E-05
CGA:  59    -0.312281646993E+03   -0.12221E-04   -0.12233E-04  9568   0.337E-03 0.255E-05
CGA:  60    -0.312281665667E+03   -0.18674E-04   -0.18721E-04  9568   0.790E-03-0.215E-05
CGA:  61    -0.312281680265E+03   -0.14598E-04   -0.14656E-04  9568   0.391E-03-0.501E-05
CGA:  62    -0.312281697099E+03   -0.16834E-04   -0.16871E-04  9568   0.255E-03-0.394E-05
SDA:  63    -0.312281714657E+03   -0.17558E-04   -0.17912E-04  9568   0.614E-03-0.984E-05
CGA:  64    -0.312281723812E+03   -0.91547E-05   -0.91667E-05  9568   0.163E-03-0.228E-06
  11 F= -.31228172E+03 E0= -.31225734E+03  d E =0.225017E-01  mag=    25.9045
       N       E                     dE             d eps       ncg     rms          ort
SDA:   1    -0.306992421466E+03    0.52893E+01    0.00000E+00  9568   0.202E+02 0.000E+00
CGA:   2    -0.308341819001E+03   -0.13494E+01   -0.12337E+01  9568   0.507E+02 0.412E+01
CGA:   3    -0.309625003638E+03   -0.12832E+01   -0.12565E+01  9568   0.316E+02-0.809E+00
CGA:   4    -0.310612489834E+03   -0.98749E+00   -0.99272E+00  9568   0.149E+02 0.606E+00
CGA:   5    -0.311032325659E+03   -0.41984E+00   -0.39842E+00  9568   0.151E+02-0.454E+00
CGA:   6    -0.311506374272E+03   -0.47405E+00   -0.47913E+00  9568   0.917E+01 0.117E+01
CGA:   7    -0.311811727644E+03   -0.30535E+00   -0.30245E+00  9568   0.118E+02-0.274E+00
CGA:   8    -0.312043106853E+03   -0.23138E+00   -0.24679E+00  9568   0.463E+01-0.644E-01
CGA:   9    -0.312145309583E+03   -0.10220E+00   -0.96827E-01  9568   0.217E+01 0.372E-01
CGA:  10    -0.312225869167E+03   -0.80560E-01   -0.79976E-01  9568   0.102E+01 0.100E+00
CGA:  11    -0.312311599209E+03   -0.85730E-01   -0.86512E-01  9568   0.817E+00-0.223E-01
CGA:  12    -0.312326528010E+03   -0.14929E-01   -0.15161E-01  9568   0.557E+00-0.519E-02
CGA:  13    -0.312340096926E+03   -0.13569E-01   -0.13411E-01  9568   0.397E+00-0.104E-02
CGA:  14    -0.312348727954E+03   -0.86310E-02   -0.87934E-02  9568   0.173E+00-0.540E-03
CGA:  15    -0.312359333668E+03   -0.10606E-01   -0.10507E-01  9568   0.213E+00 0.338E-02
CGA:  16    -0.312366713751E+03   -0.73801E-02   -0.73727E-02  9568   0.981E-01-0.351E-02
CGA:  17    -0.312368364280E+03   -0.16505E-02   -0.16563E-02  9568   0.788E-01-0.101E-03
CGA:  18    -0.312371655776E+03   -0.32915E-02   -0.32883E-02  9568   0.348E-01 0.286E-03
CGA:  19    -0.312374870276E+03   -0.32145E-02   -0.32132E-02  9568   0.347E-01-0.240E-05
CGA:  20    -0.312376157986E+03   -0.12877E-02   -0.12878E-02  9568   0.221E-01 0.158E-03
CGA:  21    -0.312377015254E+03   -0.85727E-03   -0.85691E-03  9568   0.328E-01 0.164E-03
CGA:  22    -0.312377626216E+03   -0.61096E-03   -0.60836E-03  9568   0.131E-01 0.785E-04
CGA:  23    -0.312378235719E+03   -0.60950E-03   -0.60796E-03  9568   0.196E-01 0.120E-03
CGA:  24    -0.312378942765E+03   -0.70705E-03   -0.70724E-03  9568   0.615E-02 0.858E-04
CGA:  25    -0.312379348819E+03   -0.40605E-03   -0.40490E-03  9568   0.107E-01 0.389E-04
CGA:  26    -0.312379530455E+03   -0.18164E-03   -0.18150E-03  9568   0.559E-02 0.916E-05
CGA:  27    -0.312379750603E+03   -0.22015E-03   -0.22006E-03  9568   0.468E-02 0.278E-04
CGA:  28    -0.312380017169E+03   -0.26657E-03   -0.26674E-03  9568   0.289E-02-0.591E-05
CGA:  29    -0.312380121495E+03   -0.10433E-03   -0.10437E-03  9568   0.455E-02 0.130E-04
CGA:  30    -0.312380221943E+03   -0.10045E-03   -0.10047E-03  9568   0.201E-02 0.282E-05
CGA:  31    -0.312380284968E+03   -0.63025E-04   -0.63090E-04  9568   0.177E-02 0.727E-05
SDA:  32    -0.312380369482E+03   -0.84514E-04   -0.84558E-04  9568   0.143E-02-0.336E-05
CGA:  33    -0.312380397186E+03   -0.27704E-04   -0.27795E-04  9568   0.786E-03-0.365E-06
CGA:  34    -0.312380414361E+03   -0.17174E-04   -0.17158E-04  9568   0.619E-03-0.161E-05
CGA:  35    -0.312380449480E+03   -0.35119E-04   -0.35167E-04  9568   0.111E-02-0.222E-05
CGA:  36    -0.312380502492E+03   -0.53013E-04   -0.53017E-04  9568   0.821E-03-0.220E-06
CGA:  37    -0.312380528813E+03   -0.26321E-04   -0.26317E-04  9568   0.353E-03-0.116E-05
CGA:  38    -0.312380548344E+03   -0.19530E-04   -0.19545E-04  9568   0.215E-03-0.972E-06
CGA:  39    -0.312380553413E+03   -0.50693E-05   -0.50764E-05  9568   0.304E-03 0.229E-06
CGA:  40    -0.312380567928E+03   -0.14515E-04   -0.14531E-04  9568   0.176E-03-0.165E-05
CGA:  41    -0.312380596869E+03   -0.28941E-04   -0.29141E-04  9568   0.264E-03-0.165E-05
CGA:  42    -0.312380601365E+03   -0.44959E-05   -0.44649E-05  9568   0.126E-03-0.864E-06
  12 F= -.31238060E+03 E0= -.31235665E+03  d E =-.988776E-01  mag=    25.9002
       N       E                     dE             d eps       ncg     rms          ort
SDA:   1    -0.305950831257E+03    0.64298E+01    0.00000E+00  9568   0.407E+03 0.000E+00
CGA:   2    -0.308826410839E+03   -0.28756E+01   -0.78504E+01  9568   0.118E+03-0.142E+03
CGA:   3    -0.311066036009E+03   -0.22396E+01   -0.89466E+00  9568   0.911E+02 0.104E+03
CGA:   4    -0.312097739782E+03   -0.10317E+01   -0.79351E+00  9568   0.266E+01 0.724E+01
CGA:   5    -0.312144546030E+03   -0.46806E-01   -0.43146E-01  9568   0.156E+01 0.154E+00
CGA:   6    -0.312170683982E+03   -0.26138E-01   -0.25596E-01  9568   0.112E+01 0.198E-01
CGA:   7    -0.312238455637E+03   -0.67772E-01   -0.67427E-01  9568   0.518E+01 0.136E-01
CGA:   8    -0.312314950084E+03   -0.76494E-01   -0.77664E-01  9568   0.782E+00-0.542E-01
CGA:   9    -0.312325559442E+03   -0.10609E-01   -0.10571E-01  9568   0.569E+00 0.162E-02
CGA:  10    -0.312339460862E+03   -0.13901E-01   -0.13703E-01  9568   0.642E+00-0.977E-03
CGA:  11    -0.312354604725E+03   -0.15144E-01   -0.15163E-01  9568   0.667E+00 0.541E-04
CGA:  12    -0.312364562745E+03   -0.99580E-02   -0.10470E-01  9568   0.329E+00-0.183E-01
CGA:  13    -0.312373755280E+03   -0.91925E-02   -0.92009E-02  9568   0.270E+00 0.710E-03
CGA:  14    -0.312376707903E+03   -0.29526E-02   -0.29052E-02  9568   0.657E-01 0.329E-02
CGA:  15    -0.312379180463E+03   -0.24726E-02   -0.24776E-02  9568   0.125E+00-0.584E-03
CGA:  16    -0.312381203856E+03   -0.20234E-02   -0.20343E-02  9568   0.774E-01-0.295E-03
CGA:  17    -0.312383283532E+03   -0.20797E-02   -0.20798E-02  9568   0.576E-01 0.429E-05
CGA:  18    -0.312384100900E+03   -0.81737E-03   -0.82194E-03  9568   0.396E-01-0.203E-03
CGA:  19    -0.312385490505E+03   -0.13896E-02   -0.13876E-02  9568   0.285E-01 0.267E-03
CGA:  20    -0.312385806944E+03   -0.31644E-03   -0.31689E-03  9568   0.104E-01-0.153E-04
CGA:  21    -0.312386228647E+03   -0.42170E-03   -0.42215E-03  9568   0.162E-01-0.307E-04
CGA:  22    -0.312386506183E+03   -0.27754E-03   -0.27793E-03  9568   0.109E-01-0.127E-04
CGA:  23    -0.312386741779E+03   -0.23560E-03   -0.23624E-03  9568   0.920E-02 0.197E-04
CGA:  24    -0.312387073426E+03   -0.33165E-03   -0.33161E-03  9568   0.148E-01 0.329E-05
CGA:  25    -0.312387269431E+03   -0.19601E-03   -0.19514E-03  9568   0.365E-02 0.314E-04
CGA:  26    -0.312387383340E+03   -0.11391E-03   -0.11390E-03  9568   0.521E-02 0.328E-05
CGA:  27    -0.312387459834E+03   -0.76493E-04   -0.76755E-04  9568   0.224E-02-0.121E-05
CGA:  28    -0.312387566064E+03   -0.10623E-03   -0.10623E-03  9568   0.494E-02-0.101E-05
CGA:  29    -0.312387640478E+03   -0.74414E-04   -0.74380E-04  9568   0.225E-02-0.849E-06
CGA:  30    -0.312387701765E+03   -0.61287E-04   -0.61292E-04  9568   0.170E-02 0.407E-05
CGA:  31    -0.312387733538E+03   -0.31773E-04   -0.31811E-04  9568   0.194E-02 0.285E-05
CGA:  32    -0.312387807094E+03   -0.73557E-04   -0.73622E-04  9568   0.143E-02-0.558E-05
CGA:  33    -0.312387827057E+03   -0.19963E-04   -0.19970E-04  9568   0.847E-03-0.932E-06
SDA:  34    -0.312387851994E+03   -0.24937E-04   -0.24926E-04  9568   0.104E-02 0.424E-05
CGA:  35    -0.312387869920E+03   -0.17926E-04   -0.17897E-04  9568   0.325E-03-0.116E-05
CGA:  36    -0.312387894982E+03   -0.25062E-04   -0.25183E-04  9568   0.911E-03-0.247E-05
CGA:  37    -0.312387908850E+03   -0.13867E-04   -0.13893E-04  9568   0.280E-03 0.396E-06
CGA:  38    -0.312387925789E+03   -0.16939E-04   -0.16951E-04  9568   0.384E-03-0.578E-06
CGA:  39    -0.312387944909E+03   -0.19120E-04   -0.19111E-04  9568   0.216E-03 0.284E-06
CGA:  40    -0.312387952935E+03   -0.80265E-05   -0.80230E-05  9568   0.324E-03 0.368E-06
  13 F= -.31238795E+03 E0= -.31236392E+03  d E =-.735157E-02  mag=    25.9009
       N       E                     dE             d eps       ncg     rms          ort
SDA:   1    -0.311559248790E+03    0.82870E+00    0.00000E+00  9568   0.472E+01 0.000E+00
CGA:   2    -0.311635987081E+03   -0.76738E-01   -0.76442E-01  9568   0.412E+01-0.379E-02
CGA:   3    -0.311939939623E+03   -0.30395E+00   -0.33035E+00  9568   0.753E+01-0.631E+00
CGA:   4    -0.312137367857E+03   -0.19743E+00   -0.19801E+00  9568   0.452E+01 0.149E+00
CGA:   5    -0.312218307700E+03   -0.80940E-01   -0.78442E-01  9568   0.172E+01 0.640E-01
CGA:   6    -0.312269186714E+03   -0.50879E-01   -0.51098E-01  9568   0.105E+01 0.354E-01
CGA:   7    -0.312318407813E+03   -0.49221E-01   -0.50145E-01  9568   0.184E+01-0.508E-01
CGA:   8    -0.312349505749E+03   -0.31098E-01   -0.31173E-01  9568   0.584E+00-0.198E-02
CGA:   9    -0.312371678486E+03   -0.22173E-01   -0.22282E-01  9568   0.263E+00-0.115E-01
CGA:  10    -0.312377161567E+03   -0.54831E-02   -0.55555E-02  9568   0.116E+00 0.148E-03
CGA:  11    -0.312383999077E+03   -0.68375E-02   -0.68315E-02  9568   0.213E+00 0.204E-03
CGA:  12    -0.312388069566E+03   -0.40705E-02   -0.40859E-02  9568   0.110E+00-0.225E-03
CGA:  13    -0.312391034480E+03   -0.29649E-02   -0.29407E-02  9568   0.195E-01-0.128E-02
CGA:  14    -0.312391778617E+03   -0.74414E-03   -0.74235E-03  9568   0.330E-01 0.190E-03
CGA:  15    -0.312392815645E+03   -0.10370E-02   -0.10367E-02  9568   0.305E-01-0.120E-03
CGA:  16    -0.312393565207E+03   -0.74956E-03   -0.75061E-03  9568   0.163E-01 0.304E-04
CGA:  17    -0.312394077396E+03   -0.51219E-03   -0.51211E-03  9568   0.827E-02-0.756E-04
CGA:  18    -0.312394310697E+03   -0.23330E-03   -0.23350E-03  9568   0.661E-02 0.224E-04
CGA:  19    -0.312394446497E+03   -0.13580E-03   -0.13555E-03  9568   0.405E-02-0.190E-05
CGA:  20    -0.312394668990E+03   -0.22249E-03   -0.22187E-03  9568   0.390E-02 0.243E-04
CGA:  21    -0.312394799943E+03   -0.13095E-03   -0.13095E-03  9568   0.463E-02 0.201E-06
CGA:  22    -0.312394892104E+03   -0.92161E-04   -0.92535E-04  9568   0.198E-02 0.637E-06
CGA:  23    -0.312395004744E+03   -0.11264E-03   -0.11289E-03  9568   0.149E-02-0.975E-05
CGA:  24    -0.312395032835E+03   -0.28091E-04   -0.28157E-04  9568   0.106E-02 0.254E-05
CGA:  25    -0.312395078691E+03   -0.45856E-04   -0.45843E-04  9568   0.130E-02 0.806E-06
CGA:  26    -0.312395124276E+03   -0.45584E-04   -0.45573E-04  9568   0.127E-02 0.351E-05
CGA:  27    -0.312395167004E+03   -0.42728E-04   -0.42728E-04  9568   0.103E-02 0.191E-06
CGA:  28    -0.312395187379E+03   -0.20376E-04   -0.20437E-04  9568   0.607E-03 0.170E-05
CGA:  29    -0.312395212269E+03   -0.24890E-04   -0.24896E-04  9568   0.332E-03-0.768E-06
CGA:  30    -0.312395224175E+03   -0.11906E-04   -0.11900E-04  9568   0.590E-03 0.156E-05
CGA:  31    -0.312395240910E+03   -0.16735E-04   -0.16735E-04  9568   0.313E-03 0.727E-08
SDA:  32    -0.312395255162E+03   -0.14252E-04   -0.14235E-04  9568   0.334E-03 0.102E-05
CGA:  33    -0.312395259963E+03   -0.48005E-05   -0.47830E-05  9568   0.172E-03-0.863E-06
  14 F= -.31239526E+03 E0= -.31237125E+03  d E =-.730703E-02  mag=    25.9002
       N       E                     dE             d eps       ncg     rms          ort
SDA:   1    -0.311516220010E+03    0.87904E+00    0.00000E+00  9568   0.264E+01 0.000E+00
CGA:   2    -0.311779196629E+03   -0.26298E+00   -0.27483E+00  9568   0.970E+01-0.170E+00
CGA:   3    -0.312098473006E+03   -0.31928E+00   -0.31955E+00  9568   0.336E+01 0.181E+00
CGA:   4    -0.312178503761E+03   -0.80031E-01   -0.82767E-01  9568   0.189E+01 0.432E-02
CGA:   5    -0.312246511795E+03   -0.68008E-01   -0.68035E-01  9568   0.341E+01-0.198E-01
CGA:   6    -0.312323537091E+03   -0.77025E-01   -0.77202E-01  9568   0.103E+01-0.206E-02
CGA:   7    -0.312362817921E+03   -0.39281E-01   -0.39336E-01  9568   0.375E+00-0.983E-02
CGA:   8    -0.312370650239E+03   -0.78323E-02   -0.77389E-02  9568   0.383E+00 0.106E-02
CGA:   9    -0.312383960883E+03   -0.13311E-01   -0.13306E-01  9568   0.337E+00 0.548E-02
CGA:  10    -0.312391597615E+03   -0.76367E-02   -0.77086E-02  9568   0.115E+00-0.750E-04
CGA:  11    -0.312396609806E+03   -0.50122E-02   -0.50279E-02  9568   0.106E+00-0.112E-02
CGA:  12    -0.312397897809E+03   -0.12880E-02   -0.12858E-02  9568   0.278E-01 0.144E-03
CGA:  13    -0.312400674740E+03   -0.27769E-02   -0.27770E-02  9568   0.255E-01-0.596E-05
CGA:  14    -0.312401177945E+03   -0.50320E-03   -0.50263E-03  9568   0.260E-01 0.738E-05
CGA:  15    -0.312402035008E+03   -0.85706E-03   -0.85711E-03  9568   0.122E-01 0.125E-04
CGA:  16    -0.312402365364E+03   -0.33036E-03   -0.33103E-03  9568   0.716E-02 0.235E-04
CGA:  17    -0.312402583643E+03   -0.21828E-03   -0.21823E-03  9568   0.723E-02-0.562E-05
CGA:  18    -0.312402733210E+03   -0.14957E-03   -0.14993E-03  9568   0.577E-02 0.154E-05
CGA:  19    -0.312403012179E+03   -0.27897E-03   -0.27867E-03  9568   0.415E-02 0.191E-04
CGA:  20    -0.312403131235E+03   -0.11906E-03   -0.11900E-03  9568   0.204E-02-0.177E-05
CGA:  21    -0.312403171207E+03   -0.39971E-04   -0.40010E-04  9568   0.201E-02 0.319E-05
CGA:  22    -0.312403261405E+03   -0.90198E-04   -0.90193E-04  9568   0.111E-02 0.102E-05
CGA:  23    -0.312403340784E+03   -0.79379E-04   -0.79553E-04  9568   0.231E-02-0.455E-05
CGA:  24    -0.312403380196E+03   -0.39412E-04   -0.39537E-04  9568   0.935E-03 0.767E-06
CGA:  25    -0.312403403932E+03   -0.23736E-04   -0.23749E-04  9568   0.919E-03 0.604E-06
CGA:  26    -0.312403451746E+03   -0.47813E-04   -0.47849E-04  9568   0.397E-03-0.164E-05
CGA:  27    -0.312403469505E+03   -0.17759E-04   -0.17748E-04  9568   0.873E-03 0.125E-05
CGA:  28    -0.312403487137E+03   -0.17632E-04   -0.17599E-04  9568   0.432E-03-0.163E-06
CGA:  29    -0.312403514209E+03   -0.27072E-04   -0.27057E-04  9568   0.372E-03 0.506E-06
CGA:  30    -0.312403524335E+03   -0.10126E-04   -0.10139E-04  9568   0.226E-03 0.117E-05
CGA:  31    -0.312403529935E+03   -0.56002E-05   -0.55953E-05  9568   0.251E-03-0.452E-06
  15 F= -.31240353E+03 E0= -.31237944E+03  d E =-.826997E-02  mag=    25.9010
       N       E                     dE             d eps       ncg     rms          ort
SDA:   1    -0.279562173466E+03    0.32841E+02    0.00000E+00  9568   0.276E+03 0.000E+00
CGA:   2    -0.283213434036E+03   -0.36513E+01   -0.57138E+01  9568   0.190E+03-0.320E+02
CGA:   3    -0.290310398995E+03   -0.70970E+01   -0.73494E+01  9568   0.384E+03-0.246E+02
CGA:   4    -0.295326657218E+03   -0.50163E+01   -0.78707E+01  9568   0.583E+03 0.415E+02
CGA:   5    -0.304770235534E+03   -0.94436E+01   -0.12120E+02  9568   0.607E+02-0.576E+02
CGA:   6    -0.307264442625E+03   -0.24942E+01   -0.23313E+01  9568   0.585E+02 0.108E+02
CGA:   7    -0.308157580698E+03   -0.89314E+00   -0.75292E+00  9568   0.498E+02 0.646E+01
CGA:   8    -0.309149055175E+03   -0.99147E+00   -0.92346E+00  9568   0.636E+02 0.114E+01
CGA:   9    -0.309777664450E+03   -0.62861E+00   -0.86680E+00  9568   0.944E+02-0.121E+02
CGA:  10    -0.310749013571E+03   -0.97135E+00   -0.10140E+01  9568   0.301E+02-0.927E+00
CGA:  11    -0.311074548073E+03   -0.32553E+00   -0.30578E+00  9568   0.177E+02 0.598E+00
CGA:  12    -0.311274123854E+03   -0.19958E+00   -0.12314E+00  9568   0.142E+02 0.987E+01
CGA:  13    -0.311501154959E+03   -0.22703E+00   -0.21929E+00  9568   0.562E+01 0.989E-01
CGA:  14    -0.311764593304E+03   -0.26344E+00   -0.30321E+00  9568   0.110E+02-0.164E+01
CGA:  15    -0.311850933503E+03   -0.86340E-01   -0.88270E-01  9568   0.779E+01-0.107E+00
CGA:  16    -0.311958527584E+03   -0.10759E+00   -0.11304E+00  9568   0.502E+01-0.163E+00
CGA:  17    -0.312066705701E+03   -0.10818E+00   -0.10866E+00  9568   0.541E+01 0.299E-01
CGA:  18    -0.312134526697E+03   -0.67821E-01   -0.58555E-01  9568   0.240E+01 0.582E+00
CGA:  19    -0.312166857078E+03   -0.32330E-01   -0.28454E-01  9568   0.157E+01 0.240E+00
CGA:  20    -0.312187651110E+03   -0.20794E-01   -0.20517E-01  9568   0.148E+01 0.141E-01
CGA:  21    -0.312207546729E+03   -0.19896E-01   -0.19573E-01  9568   0.201E+01 0.111E-01
CGA:  22    -0.312241694792E+03   -0.34148E-01   -0.34845E-01  9568   0.276E+01 0.129E-01
CGA:  23    -0.312265629973E+03   -0.23935E-01   -0.19001E-01  9568   0.172E+01 0.576E+00
CGA:  24    -0.312283733565E+03   -0.18104E-01   -0.16828E-01  9568   0.174E+01 0.110E+00
CGA:  25    -0.312299506381E+03   -0.15773E-01   -0.14988E-01  9568   0.197E+01 0.656E-01
CGA:  26    -0.312313823121E+03   -0.14317E-01   -0.13140E-01  9568   0.209E+01 0.143E+00
CGA:  27    -0.312329640931E+03   -0.15818E-01   -0.14866E-01  9568   0.254E+01 0.105E+00
CGA:  28    -0.312345712984E+03   -0.16072E-01   -0.17262E-01  9568   0.231E+01-0.143E+00
CGA:  29    -0.312355636640E+03   -0.99237E-02   -0.10504E-01  9568   0.116E+01-0.999E-01
CGA:  30    -0.312360924717E+03   -0.52881E-02   -0.51428E-02  9568   0.859E+00 0.253E-01
CGA:  31    -0.312367485316E+03   -0.65606E-02   -0.66584E-02  9568   0.133E+01-0.854E-02
CGA:  32    -0.312377064433E+03   -0.95791E-02   -0.97688E-02  9568   0.130E+01-0.170E-01
CGA:  33    -0.312382923627E+03   -0.58592E-02   -0.59083E-02  9568   0.639E+00-0.116E-01
CGA:  34    -0.312386353738E+03   -0.34301E-02   -0.35564E-02  9568   0.587E+00-0.171E-01
CGA:  35    -0.312391080650E+03   -0.47269E-02   -0.48541E-02  9568   0.849E+00-0.627E-02
CGA:  36    -0.312396800083E+03   -0.57194E-02   -0.59525E-02  9568   0.629E+00-0.189E-01
CGA:  37    -0.312400445405E+03   -0.36453E-02   -0.38035E-02  9568   0.442E+00-0.166E-01
CGA:  38    -0.312404118017E+03   -0.36726E-02   -0.37177E-02  9568   0.478E+00-0.143E-02
CGA:  39    -0.312407531340E+03   -0.34133E-02   -0.33275E-02  9568   0.314E+00 0.634E-02
CGA:  40    -0.312409632017E+03   -0.21007E-02   -0.21216E-02  9568   0.258E+00-0.176E-02
CGA:  41    -0.312412108485E+03   -0.24765E-02   -0.24856E-02  9568   0.354E+00 0.304E-03
CGA:  42    -0.312414999887E+03   -0.28914E-02   -0.29085E-02  9568   0.280E+00-0.235E-03
SDA:  43    -0.312416911385E+03   -0.19115E-02   -0.19265E-02  9568   0.217E+00-0.854E-03
CGA:  44    -0.312420964765E+03   -0.40534E-02   -0.40648E-02  9568   0.742E-01-0.153E-02
CGA:  45    -0.312423091383E+03   -0.21266E-02   -0.21160E-02  9568   0.645E-01 0.706E-03
CGA:  46    -0.312424399337E+03   -0.13080E-02   -0.13057E-02  9568   0.633E-01 0.282E-03
CGA:  47    -0.312427672228E+03   -0.32729E-02   -0.32738E-02  9568   0.648E-01-0.570E-04
CGA:  48    -0.312430037989E+03   -0.23658E-02   -0.23549E-02  9568   0.294E-01 0.561E-03
CGA:  49    -0.312431751755E+03   -0.17138E-02   -0.17005E-02  9568   0.329E-01 0.378E-03
CGA:  50    -0.312432707911E+03   -0.95616E-03   -0.95587E-03  9568   0.452E-01 0.252E-04
CGA:  51    -0.312433948835E+03   -0.12409E-02   -0.12381E-02  9568   0.338E-01 0.280E-03
CGA:  52    -0.312434606392E+03   -0.65756E-03   -0.65769E-03  9568   0.976E-02 0.126E-03
CGA:  53    -0.312435409135E+03   -0.80274E-03   -0.80581E-03  9568   0.590E-02-0.759E-04
CGA:  54    -0.312436055129E+03   -0.64599E-03   -0.64002E-03  9568   0.939E-02 0.805E-04
CGA:  55    -0.312436299140E+03   -0.24401E-03   -0.24408E-03  9568   0.137E-01 0.203E-04
CGA:  56    -0.312436710454E+03   -0.41131E-03   -0.41125E-03  9568   0.733E-02 0.218E-04
CGA:  57    -0.312436927129E+03   -0.21667E-03   -0.21655E-03  9568   0.267E-02 0.360E-04
CGA:  58    -0.312437089167E+03   -0.16204E-03   -0.16093E-03  9568   0.493E-02 0.355E-04
CGA:  59    -0.312437265429E+03   -0.17626E-03   -0.17638E-03  9568   0.264E-02-0.152E-04
CGA:  60    -0.312437368472E+03   -0.10304E-03   -0.10301E-03  9568   0.558E-02 0.122E-05
CGA:  61    -0.312437482069E+03   -0.11360E-03   -0.11374E-03  9568   0.151E-02 0.550E-06
CGA:  62    -0.312437560100E+03   -0.78031E-04   -0.78140E-04  9568   0.532E-03-0.489E-05
CGA:  63    -0.312437582043E+03   -0.21943E-04   -0.21911E-04  9568   0.846E-03 0.234E-05
CGA:  64    -0.312437617071E+03   -0.35028E-04   -0.35071E-04  9568   0.108E-02-0.437E-05
CGA:  65    -0.312437635620E+03   -0.18549E-04   -0.18525E-04  9568   0.553E-03-0.129E-05
CGA:  66    -0.312437660484E+03   -0.24864E-04   -0.24923E-04  9568   0.204E-03-0.428E-05
CGA:  67    -0.312437671946E+03   -0.11461E-04   -0.11571E-04  9568   0.363E-03-0.444E-05
CGA:  68    -0.312437694728E+03   -0.22782E-04   -0.23072E-04  9568   0.401E-03-0.915E-05
CGA:  69    -0.312437700086E+03   -0.53582E-05   -0.53160E-05  9568   0.113E-03-0.118E-05
  16 F= -.31243770E+03 E0= -.31241312E+03  d E =-.341702E-01  mag=    25.9007
       N       E                     dE             d eps       ncg     rms          ort
SDA:   1    -0.291840962101E+03    0.20597E+02    0.00000E+00  9568   0.792E+02 0.000E+00
CGA:   2    -0.294320195908E+03   -0.24792E+01   -0.22631E+01  9568   0.158E+03-0.190E+02
CGA:   3    -0.297434789267E+03   -0.31146E+01   -0.32051E+01  9568   0.517E+03 0.350E+01
CGA:   4    -0.302285821647E+03   -0.48510E+01   -0.57416E+01  9568   0.366E+03-0.165E+03
CGA:   5    -0.304930753632E+03   -0.26449E+01   -0.27238E+01  9568   0.915E+02-0.331E+02
CGA:   6    -0.305600710812E+03   -0.66996E+00   -0.10860E+01  9568   0.104E+03-0.206E+02
CGA:   7    -0.306815785224E+03   -0.12151E+01   -0.93535E+00  9568   0.106E+03 0.158E+02
CGA:   8    -0.308049031070E+03   -0.12332E+01   -0.17732E+01  9568   0.583E+02-0.250E+02
[...]
CGA:  16    -0.312456772981E+03   -0.84872E-05   -0.85178E-05  9568   0.184E-03 0.115E-05
CGA:  17    -0.312456783259E+03   -0.10278E-04   -0.10298E-04  9568   0.100E-03-0.215E-05
CGA:  18    -0.312456792110E+03   -0.88504E-05   -0.88323E-05  9568   0.106E-03 0.460E-06
  76 F= -.31245679E+03 E0= -.31243827E+03  d E =0.128787E-02  mag=    24.2451
       N       E                     dE             d eps       ncg     rms          ort
SDA:   1    -0.312400558489E+03    0.56225E-01    0.00000E+00  9568   0.616E+00 0.000E+00
CGA:   2    -0.312411538308E+03   -0.10980E-01   -0.10374E-01  9568   0.164E+00 0.257E-01
CGA:   3    -0.312429196775E+03   -0.17658E-01   -0.17576E-01  9568   0.393E+00 0.154E-02
CGA:   4    -0.312440809262E+03   -0.11612E-01   -0.11331E-01  9568   0.141E+00 0.325E-02
CGA:   5    -0.312446295527E+03   -0.54863E-02   -0.54964E-02  9568   0.634E-01 0.282E-03
CGA:   6    -0.312450490383E+03   -0.41949E-02   -0.41887E-02  9568   0.113E+00 0.266E-03
CGA:   7    -0.312453451788E+03   -0.29614E-02   -0.29248E-02  9568   0.319E-01 0.596E-03
CGA:   8    -0.312454760991E+03   -0.13092E-02   -0.13124E-02  9568   0.103E-01 0.160E-03
CGA:   9    -0.312455341332E+03   -0.58034E-03   -0.57879E-03  9568   0.175E-01 0.119E-03
CGA:  10    -0.312455969373E+03   -0.62804E-03   -0.62692E-03  9568   0.295E-02-0.207E-04
CGA:  11    -0.312456070196E+03   -0.10082E-03   -0.10095E-03  9568   0.325E-02 0.345E-05
CGA:  12    -0.312456203644E+03   -0.13345E-03   -0.13336E-03  9568   0.132E-02-0.628E-05
CGA:  13    -0.312456321789E+03   -0.11815E-03   -0.11837E-03  9568   0.570E-03-0.520E-05
CGA:  14    -0.312456354713E+03   -0.32924E-04   -0.32911E-04  9568   0.700E-03 0.116E-05
CGA:  15    -0.312456377059E+03   -0.22346E-04   -0.22300E-04  9568   0.426E-03-0.157E-05
CGA:  16    -0.312456395387E+03   -0.18328E-04   -0.18320E-04  9568   0.258E-03-0.157E-05
CGA:  17    -0.312456405196E+03   -0.98087E-05   -0.97986E-05  9568   0.254E-03-0.855E-06
CGA:  18    -0.312456417763E+03   -0.12567E-04   -0.12562E-04  9568   0.119E-03 0.189E-05
CGA:  19    -0.312456425401E+03   -0.76384E-05   -0.76596E-05  9568   0.547E-04-0.130E-05
  77 F= -.31245643E+03 E0= -.31243793E+03  d E =0.366709E-03  mag=    24.2405
       N       E                     dE             d eps       ncg     rms          ort
SDA:   1    -0.312416553820E+03    0.39864E-01    0.00000E+00  9568   0.586E+00 0.000E+00
CGA:   2    -0.312425216816E+03   -0.86630E-02   -0.81824E-02  9568   0.943E-01 0.276E-01
CGA:   3    -0.312437198755E+03   -0.11982E-01   -0.12349E-01  9568   0.273E+00-0.555E-02
CGA:   4    -0.312444092601E+03   -0.68938E-02   -0.70090E-02  9568   0.167E+00-0.217E-02
CGA:   5    -0.312449361909E+03   -0.52693E-02   -0.52602E-02  9568   0.500E-01 0.169E-03
CGA:   6    -0.312450838504E+03   -0.14766E-02   -0.14458E-02  9568   0.383E-01 0.433E-03
CGA:   7    -0.312452796116E+03   -0.19576E-02   -0.19577E-02  9568   0.391E-01 0.121E-04
CGA:   8    -0.312453933219E+03   -0.11371E-02   -0.11350E-02  9568   0.233E-01 0.265E-04
CGA:   9    -0.312454632476E+03   -0.69926E-03   -0.70129E-03  9568   0.487E-02-0.132E-04
CGA:  10    -0.312454821232E+03   -0.18876E-03   -0.18891E-03  9568   0.595E-02 0.264E-05
CGA:  11    -0.312455008426E+03   -0.18719E-03   -0.18651E-03  9568   0.333E-02-0.434E-05
CGA:  12    -0.312455213441E+03   -0.20502E-03   -0.20498E-03  9568   0.132E-02 0.363E-05
CGA:  13    -0.312455237954E+03   -0.24512E-04   -0.24647E-04  9568   0.622E-03 0.242E-06
CGA:  14    -0.312455308741E+03   -0.70788E-04   -0.70696E-04  9568   0.621E-03 0.145E-05
CGA:  15    -0.312455326115E+03   -0.17373E-04   -0.17354E-04  9568   0.445E-03-0.313E-06
CGA:  16    -0.312455344419E+03   -0.18304E-04   -0.18314E-04  9568   0.260E-03 0.114E-05
CGA:  17    -0.312455352632E+03   -0.82128E-05   -0.82014E-05  9568   0.188E-03-0.826E-06
  78 F= -.31245535E+03 E0= -.31243688E+03  d E =0.107277E-02  mag=    24.2371
       N       E                     dE             d eps       ncg     rms          ort
SDA:   1    -0.311843807581E+03    0.61154E+00    0.00000E+00  9568   0.304E+01 0.000E+00
CGA:   2    -0.311951960217E+03   -0.10815E+00   -0.10138E+00  9568   0.301E+01-0.418E-01
CGA:   3    -0.312078083642E+03   -0.12612E+00   -0.12692E+00  9568   0.384E+01 0.662E-01
CGA:   4    -0.312315245442E+03   -0.23716E+00   -0.23603E+00  9568   0.199E+01 0.657E-01
CGA:   5    -0.312349883621E+03   -0.34638E-01   -0.30255E-01  9568   0.474E+00 0.223E+00
CGA:   6    -0.312387289152E+03   -0.37406E-01   -0.37718E-01  9568   0.149E+01-0.104E-01
CGA:   7    -0.312417378056E+03   -0.30089E-01   -0.30736E-01  9568   0.524E+00-0.187E-01
CGA:   8    -0.312428354393E+03   -0.10976E-01   -0.11173E-01  9568   0.339E+00-0.512E-02
CGA:   9    -0.312436585292E+03   -0.82309E-02   -0.82297E-02  9568   0.152E+00 0.946E-04
CGA:  10    -0.312439948978E+03   -0.33637E-02   -0.34652E-02  9568   0.980E-01-0.200E-02
CGA:  11    -0.312443440331E+03   -0.34914E-02   -0.34917E-02  9568   0.102E+00-0.169E-04
CGA:  12    -0.312445905599E+03   -0.24653E-02   -0.24133E-02  9568   0.562E-01 0.804E-03
CGA:  13    -0.312447697556E+03   -0.17920E-02   -0.17915E-02  9568   0.382E-01 0.103E-04
CGA:  14    -0.312448356894E+03   -0.65934E-03   -0.66894E-03  9568   0.121E-01-0.307E-03
CGA:  15    -0.312449030008E+03   -0.67311E-03   -0.67142E-03  9568   0.269E-01 0.811E-04
CGA:  16    -0.312449644119E+03   -0.61411E-03   -0.61036E-03  9568   0.867E-02 0.430E-04
CGA:  17    -0.312449982536E+03   -0.33842E-03   -0.33839E-03  9568   0.108E-01-0.151E-04
CGA:  18    -0.312450217577E+03   -0.23504E-03   -0.23639E-03  9568   0.394E-02-0.145E-04
CGA:  19    -0.312450384609E+03   -0.16703E-03   -0.16700E-03  9568   0.514E-02 0.476E-05
CGA:  20    -0.312450498166E+03   -0.11356E-03   -0.11328E-03  9568   0.171E-02-0.176E-05
CGA:  21    -0.312450565148E+03   -0.66983E-04   -0.66985E-04  9568   0.293E-02-0.257E-06
CGA:  22    -0.312450702923E+03   -0.13777E-03   -0.13769E-03  9568   0.289E-02 0.817E-05
CGA:  23    -0.312450765484E+03   -0.62562E-04   -0.62448E-04  9568   0.128E-02-0.834E-06
CGA:  24    -0.312450807001E+03   -0.41516E-04   -0.41467E-04  9568   0.783E-03-0.625E-05
CGA:  25    -0.312450829402E+03   -0.22401E-04   -0.22421E-04  9568   0.924E-03 0.182E-05
CGA:  26    -0.312450881357E+03   -0.51956E-04   -0.51794E-04  9568   0.941E-03 0.799E-05
CGA:  27    -0.312450907363E+03   -0.26006E-04   -0.25987E-04  9568   0.989E-03-0.798E-06
CGA:  28    -0.312450946871E+03   -0.39508E-04   -0.39514E-04  9568   0.382E-03-0.223E-05
CGA:  29    -0.312450955036E+03   -0.81645E-05   -0.81993E-05  9568   0.311E-03 0.169E-05
CGA:  30    -0.312450978355E+03   -0.23320E-04   -0.23078E-04  9568   0.498E-03 0.632E-05
CGA:  31    -0.312450989605E+03   -0.11249E-04   -0.11272E-04  9568   0.238E-03 0.128E-05
SDA:  32    -0.312450998845E+03   -0.92399E-05   -0.92409E-05  9568   0.259E-03-0.102E-05
  79 F= -.31245100E+03 E0= -.31243266E+03  d E =0.435379E-02  mag=    24.2175
       N       E                     dE             d eps       ncg     rms          ort
SDA:   1    -0.311941974222E+03    0.50902E+00    0.00000E+00  9568   0.191E+01 0.000E+00
CGA:   2    -0.312038598751E+03   -0.96625E-01   -0.99306E-01  9568   0.413E+01-0.140E+00
CGA:   3    -0.312250231552E+03   -0.21163E+00   -0.20798E+00  9568   0.204E+01 0.176E+00
CGA:   4    -0.312332989753E+03   -0.82758E-01   -0.82908E-01  9568   0.105E+01-0.205E+00
CGA:   5    -0.312360909515E+03   -0.27920E-01   -0.27332E-01  9568   0.828E+00-0.106E-01
CGA:   6    -0.312406764495E+03   -0.45855E-01   -0.45473E-01  9568   0.560E+00 0.180E-01
CGA:   7    -0.312420883796E+03   -0.14119E-01   -0.14270E-01  9568   0.306E+00-0.856E-03
CGA:   8    -0.312433308800E+03   -0.12425E-01   -0.12443E-01  9568   0.130E+00-0.417E-02
CGA:   9    -0.312436975327E+03   -0.36665E-02   -0.36213E-02  9568   0.102E+00-0.577E-03
CGA:  10    -0.312441707612E+03   -0.47323E-02   -0.47213E-02  9568   0.457E-01 0.889E-03
CGA:  11    -0.312443324383E+03   -0.16168E-02   -0.16173E-02  9568   0.351E-01 0.622E-04
CGA:  12    -0.312444246228E+03   -0.92185E-03   -0.91478E-03  9568   0.145E-01-0.324E-04
CGA:  13    -0.312445177590E+03   -0.93136E-03   -0.92913E-03  9568   0.176E-01 0.798E-04
CGA:  14    -0.312445593566E+03   -0.41598E-03   -0.42021E-03  9568   0.614E-02-0.191E-04
CGA:  15    -0.312445952628E+03   -0.35906E-03   -0.36004E-03  9568   0.763E-02-0.421E-04
CGA:  16    -0.312446149123E+03   -0.19649E-03   -0.19654E-03  9568   0.381E-02 0.435E-05
CGA:  17    -0.312446321779E+03   -0.17266E-03   -0.17248E-03  9568   0.183E-02 0.211E-04
CGA:  18    -0.312446406242E+03   -0.84463E-04   -0.84478E-04  9568   0.303E-02-0.195E-05
CGA:  19    -0.312446521551E+03   -0.11531E-03   -0.11531E-03  9568   0.158E-02-0.291E-05
CGA:  20    -0.312446597309E+03   -0.75758E-04   -0.75739E-04  9568   0.196E-02 0.150E-05
CGA:  21    -0.312446656488E+03   -0.59179E-04   -0.59275E-04  9568   0.736E-03 0.322E-05
CGA:  22    -0.312446701107E+03   -0.44619E-04   -0.44674E-04  9568   0.131E-02-0.276E-05
CGA:  23    -0.312446744244E+03   -0.43137E-04   -0.43079E-04  9568   0.103E-02-0.465E-05
CGA:  24    -0.312446801053E+03   -0.56809E-04   -0.56674E-04  9568   0.487E-03 0.823E-05
CGA:  25    -0.312446816084E+03   -0.15031E-04   -0.15053E-04  9568   0.502E-03 0.114E-05
CGA:  26    -0.312446844458E+03   -0.28374E-04   -0.28450E-04  9568   0.432E-03-0.458E-05
CGA:  27    -0.312446858902E+03   -0.14445E-04   -0.14457E-04  9568   0.369E-03 0.166E-05
CGA:  28    -0.312446873177E+03   -0.14275E-04   -0.14285E-04  9568   0.185E-03 0.428E-05
CGA:  29    -0.312446882642E+03   -0.94649E-05   -0.94660E-05  9568   0.244E-03-0.209E-06
  80 F= -.31244688E+03 E0= -.31242850E+03  d E =0.411620E-02  mag=    24.2187
       N       E                     dE             d eps       ncg     rms          ort
SDA:   1    -0.312358378653E+03    0.88495E-01    0.00000E+00  9568   0.353E+00 0.000E+00
CGA:   2    -0.312382183378E+03   -0.23805E-01   -0.23923E-01  9568   0.642E+00-0.375E-02
CGA:   3    -0.312406433459E+03   -0.24250E-01   -0.24216E-01  9568   0.554E+00-0.413E-02
CGA:   4    -0.312424566802E+03   -0.18133E-01   -0.18254E-01  9568   0.120E+00 0.357E-02
CGA:   5    -0.312435794620E+03   -0.11228E-01   -0.11176E-01  9568   0.218E+00 0.108E-02
CGA:   6    -0.312442116783E+03   -0.63222E-02   -0.61567E-02  9568   0.596E-01 0.607E-03
CGA:   7    -0.312445395290E+03   -0.32785E-02   -0.32725E-02  9568   0.280E-01 0.368E-03
CGA:   8    -0.312446244872E+03   -0.84958E-03   -0.84539E-03  9568   0.262E-01-0.217E-04
CGA:   9    -0.312447628891E+03   -0.13840E-02   -0.13830E-02  9568   0.807E-02 0.737E-04
CGA:  10    -0.312448068617E+03   -0.43973E-03   -0.44017E-03  9568   0.290E-02-0.268E-04
CGA:  11    -0.312448254445E+03   -0.18583E-03   -0.18586E-03  9568   0.498E-02-0.111E-05
CGA:  12    -0.312448426315E+03   -0.17187E-03   -0.17166E-03  9568   0.224E-02-0.887E-05
CGA:  13    -0.312448501401E+03   -0.75085E-04   -0.75216E-04  9568   0.879E-03 0.574E-05
CGA:  14    -0.312448531583E+03   -0.30182E-04   -0.30162E-04  9568   0.830E-03-0.147E-05
CGA:  15    -0.312448596143E+03   -0.64560E-04   -0.64678E-04  9568   0.327E-03-0.337E-05
CGA:  16    -0.312448619479E+03   -0.23336E-04   -0.23327E-04  9568   0.412E-03 0.413E-06
CGA:  17    -0.312448629343E+03   -0.98633E-05   -0.99030E-05  9568   0.182E-03 0.157E-05
CGA:  18    -0.312448644884E+03   -0.15542E-04   -0.15584E-04  9568   0.200E-03-0.102E-05
CGA:  19    -0.312448652141E+03   -0.72562E-05   -0.72682E-05  9568   0.158E-03 0.118E-05
  81 F= -.31244865E+03 E0= -.31243027E+03  d E =-.176950E-02  mag=    24.2208
       N       E                     dE             d eps       ncg     rms          ort
SDA:   1    -0.312082795397E+03    0.36585E+00    0.00000E+00  9568   0.166E+01 0.000E+00
CGA:   2    -0.312131685575E+03   -0.48890E-01   -0.46153E-01  9568   0.174E+01 0.248E-01
CGA:   3    -0.312310893142E+03   -0.17921E+00   -0.17858E+00  9568   0.182E+01 0.125E-01
CGA:   4    -0.312357568149E+03   -0.46675E-01   -0.43681E-01  9568   0.629E+00 0.667E-01
CGA:   5    -0.312389931929E+03   -0.32364E-01   -0.32288E-01  9568   0.490E+00 0.192E-01
CGA:   6    -0.312414877895E+03   -0.24946E-01   -0.24944E-01  9568   0.603E+00 0.447E-03
CGA:   7    -0.312429784756E+03   -0.14907E-01   -0.14438E-01  9568   0.150E+00 0.954E-02
CGA:   8    -0.312437033674E+03   -0.72489E-02   -0.72481E-02  9568   0.636E-01 0.437E-03
CGA:   9    -0.312439107777E+03   -0.20741E-02   -0.20890E-02  9568   0.786E-01 0.103E-03
CGA:  10    -0.312442737083E+03   -0.36293E-02   -0.36295E-02  9568   0.215E-01-0.236E-03
CGA:  11    -0.312443745165E+03   -0.10081E-02   -0.10083E-02  9568   0.138E-01-0.812E-04
CGA:  12    -0.312444083862E+03   -0.33870E-03   -0.34125E-03  9568   0.864E-02-0.312E-04
CGA:  13    -0.312444845942E+03   -0.76208E-03   -0.76465E-03  9568   0.102E-01-0.587E-04
CGA:  14    -0.312445069219E+03   -0.22328E-03   -0.22637E-03  9568   0.216E-02-0.693E-04
CGA:  15    -0.312445186753E+03   -0.11753E-03   -0.11740E-03  9568   0.197E-02 0.124E-04
CGA:  16    -0.312445306944E+03   -0.12019E-03   -0.12034E-03  9568   0.354E-02-0.896E-05
CGA:  17    -0.312445405262E+03   -0.98318E-04   -0.98329E-04  9568   0.114E-02-0.261E-05
CGA:  18    -0.312445474025E+03   -0.68763E-04   -0.68754E-04  9568   0.482E-03 0.411E-06
CGA:  19    -0.312445498835E+03   -0.24810E-04   -0.24820E-04  9568   0.108E-02-0.187E-05
CGA:  20    -0.312445570108E+03   -0.71273E-04   -0.71253E-04  9568   0.811E-03 0.922E-06
CGA:  21    -0.312445590631E+03   -0.20523E-04   -0.20507E-04  9568   0.363E-03 0.100E-05
CGA:  22    -0.312445608833E+03   -0.18202E-04   -0.18186E-04  9568   0.270E-03 0.426E-05
CGA:  23    -0.312445632597E+03   -0.23764E-04   -0.23716E-04  9568   0.458E-03 0.118E-05
CGA:  24    -0.312445645211E+03   -0.12614E-04   -0.12602E-04  9568   0.297E-03 0.912E-07
CGA:  25    -0.312445659173E+03   -0.13962E-04   -0.13965E-04  9568   0.102E-03 0.362E-05
CGA:  26    -0.312445665938E+03   -0.67652E-05   -0.67760E-05  9568   0.153E-03-0.644E-06
  82 F= -.31244567E+03 E0= -.31242737E+03  d E =0.298620E-02  mag=    24.2091
       N       E                     dE             d eps       ncg     rms          ort
SDA:   1    -0.312325480054E+03    0.12018E+00    0.00000E+00  9568   0.867E+00 0.000E+00
CGA:   2    -0.312345518061E+03   -0.20038E-01   -0.19206E-01  9568   0.525E+00 0.208E-01
CGA:   3    -0.312378641778E+03   -0.33124E-01   -0.33026E-01  9568   0.583E+00 0.482E-02
CGA:   4    -0.312412830673E+03   -0.34189E-01   -0.34053E-01  9568   0.247E+00 0.891E-02
CGA:   5    -0.312419733462E+03   -0.69028E-02   -0.66230E-02  9568   0.207E+00 0.408E-02
CGA:   6    -0.312432788508E+03   -0.13055E-01   -0.13022E-01  9568   0.158E+00 0.161E-02
CGA:   7    -0.312438710638E+03   -0.59221E-02   -0.59301E-02  9568   0.104E+00 0.200E-03
CGA:   8    -0.312441316025E+03   -0.26054E-02   -0.26021E-02  9568   0.255E-01 0.688E-04
CGA:   9    -0.312442494100E+03   -0.11781E-02   -0.11780E-02  9568   0.426E-01 0.894E-04
CGA:  10    -0.312444134587E+03   -0.16405E-02   -0.16365E-02  9568   0.660E-02-0.166E-03
CGA:  11    -0.312444552696E+03   -0.41811E-03   -0.41812E-03  9568   0.584E-02 0.147E-05
CGA:  12    -0.312444724642E+03   -0.17195E-03   -0.17248E-03  9568   0.487E-02 0.266E-05
CGA:  13    -0.312444947136E+03   -0.22249E-03   -0.22250E-03  9568   0.226E-02-0.139E-04
CGA:  14    -0.312445075317E+03   -0.12818E-03   -0.12804E-03  9568   0.122E-02 0.120E-04
CGA:  15    -0.312445126576E+03   -0.51258E-04   -0.51272E-04  9568   0.144E-02 0.275E-05
CGA:  16    -0.312445184149E+03   -0.57573E-04   -0.57530E-04  9568   0.558E-03-0.414E-05
CGA:  17    -0.312445204198E+03   -0.20049E-04   -0.20069E-04  9568   0.675E-03 0.147E-05
CGA:  18    -0.312445244909E+03   -0.40711E-04   -0.40718E-04  9568   0.323E-03-0.377E-06
CGA:  19    -0.312445265201E+03   -0.20292E-04   -0.20321E-04  9568   0.161E-03-0.158E-05
CGA:  20    -0.312445273720E+03   -0.85193E-05   -0.85124E-05  9568   0.341E-03 0.106E-05
CGA:  21    -0.312445291129E+03   -0.17409E-04   -0.17411E-04  9568   0.190E-03-0.477E-06
CGA:  22    -0.312445297394E+03   -0.62648E-05   -0.62572E-05  9568   0.106E-03-0.563E-06
  83 F= -.31244530E+03 E0= -.31242698E+03  d E =0.368544E-03  mag=    24.2073
       N       E                     dE             d eps       ncg     rms          ort
SDA:   1    -0.312406464089E+03    0.38827E-01    0.00000E+00  9568   0.222E+00 0.000E+00
CGA:   2    -0.312413270926E+03   -0.68068E-02   -0.64964E-02  9568   0.174E+00 0.162E-02
CGA:   3    -0.312429204872E+03   -0.15934E-01   -0.15993E-01  9568   0.155E+00-0.128E-02
CGA:   4    -0.312435796403E+03   -0.65915E-02   -0.66086E-02  9568   0.563E-01 0.144E-02
CGA:   5    -0.312439470630E+03   -0.36742E-02   -0.36922E-02  9568   0.119E+00-0.793E-03
CGA:   6    -0.312443021154E+03   -0.35505E-02   -0.35627E-02  9568   0.281E-01-0.628E-04
CGA:   7    -0.312444187047E+03   -0.11659E-02   -0.11650E-02  9568   0.181E-01-0.482E-04
CGA:   8    -0.312444738195E+03   -0.55115E-03   -0.55004E-03  9568   0.937E-02 0.796E-05
CGA:   9    -0.312445433136E+03   -0.69494E-03   -0.69599E-03  9568   0.309E-02-0.330E-04
CGA:  10    -0.312445556036E+03   -0.12290E-03   -0.12274E-03  9568   0.342E-02-0.940E-05
CGA:  11    -0.312445652105E+03   -0.96068E-04   -0.96321E-04  9568   0.104E-02-0.192E-05
CGA:  12    -0.312445773162E+03   -0.12106E-03   -0.12135E-03  9568   0.522E-03-0.422E-05
CGA:  13    -0.312445790255E+03   -0.17092E-04   -0.17078E-04  9568   0.420E-03 0.774E-07
CGA:  14    -0.312445814291E+03   -0.24036E-04   -0.24020E-04  9568   0.315E-03 0.173E-05
CGA:  15    -0.312445828055E+03   -0.13765E-04   -0.13750E-04  9568   0.267E-03-0.234E-05
CGA:  16    -0.312445835434E+03   -0.73787E-05   -0.73956E-05  9568   0.143E-03 0.109E-06
  84 F= -.31244584E+03 E0= -.31242752E+03  d E =-.538040E-03  mag=    24.2077
       N       E                     dE             d eps       ncg     rms          ort
SDA:   1    -0.312345888978E+03    0.99939E-01    0.00000E+00  9568   0.417E+00 0.000E+00
CGA:   2    -0.312362393577E+03   -0.16505E-01   -0.16621E-01  9568   0.612E+00 0.362E-02
CGA:   3    -0.312406860595E+03   -0.44467E-01   -0.43894E-01  9568   0.379E+00 0.203E-01
CGA:   4    -0.312417322171E+03   -0.10462E-01   -0.10034E-01  9568   0.222E+00 0.769E-02
CGA:   5    -0.312428347333E+03   -0.11025E-01   -0.11024E-01  9568   0.126E+00 0.244E-02
CGA:   6    -0.312438592354E+03   -0.10245E-01   -0.10160E-01  9568   0.111E+00 0.239E-02
CGA:   7    -0.312440659998E+03   -0.20676E-02   -0.20190E-02  9568   0.269E-01 0.191E-02
CGA:   8    -0.312442321390E+03   -0.16614E-02   -0.16608E-02  9568   0.251E-01 0.280E-04
CGA:   9    -0.312443285281E+03   -0.96389E-03   -0.96291E-03  9568   0.177E-01-0.124E-04
CGA:  10    -0.312443870714E+03   -0.58543E-03   -0.58584E-03  9568   0.581E-02 0.101E-04
CGA:  11    -0.312444068378E+03   -0.19766E-03   -0.19789E-03  9568   0.460E-02 0.340E-05
CGA:  12    -0.312444219755E+03   -0.15138E-03   -0.15093E-03  9568   0.272E-02-0.753E-05
CGA:  13    -0.312444466503E+03   -0.24675E-03   -0.24618E-03  9568   0.911E-03 0.128E-04
CGA:  14    -0.312444494781E+03   -0.28278E-04   -0.28358E-04  9568   0.905E-03 0.104E-05
CGA:  15    -0.312444539668E+03   -0.44887E-04   -0.44898E-04  9568   0.708E-03-0.416E-05
CGA:  16    -0.312444578619E+03   -0.38951E-04   -0.38938E-04  9568   0.872E-03 0.115E-05
CGA:  17    -0.312444605153E+03   -0.26534E-04   -0.26497E-04  9568   0.164E-03-0.960E-06
CGA:  18    -0.312444621958E+03   -0.16805E-04   -0.16925E-04  9568   0.330E-03-0.217E-05
CGA:  19    -0.312444632504E+03   -0.10546E-04   -0.10569E-04  9568   0.315E-03 0.749E-06
CGA:  20    -0.312444649554E+03   -0.17050E-04   -0.17050E-04  9568   0.138E-03 0.151E-06
CGA:  21    -0.312444654919E+03   -0.53647E-05   -0.53612E-05  9568   0.115E-03-0.349E-06
  85 F= -.31244465E+03 E0= -.31242637E+03  d E =0.118052E-02  mag=    24.2033
