       N       E                     dE             d eps       ncg     rms          ort
DAV:   1     0.561404088899E+04    0.56140E+04   -0.26920E+05  7696   0.164E+03
DAV:   2     0.235245389516E+03   -0.53788E+04   -0.49738E+04  7696   0.462E+02
DAV:   3    -0.377690388435E+03   -0.61294E+03   -0.60259E+03  7696   0.173E+02
DAV:   4    -0.393983214486E+03   -0.16293E+02   -0.16186E+02  7696   0.292E+01
DAV:   5    -0.394379597884E+03   -0.39638E+00   -0.39551E+00  7696   0.387E+00
SDA:   6    -0.159303524896E+03    0.23508E+03   -0.39551E+00  7696   0.106E+04 0.000E+00
CGA:   7    -0.252193302647E+03   -0.92890E+02   -0.11125E+03  7696   0.140E+04-0.164E+02
CGA:   8    -0.280111242294E+03   -0.27918E+02   -0.37757E+02  7696   0.595E+03-0.121E+03
CGA:   9    -0.289792118368E+03   -0.96809E+01   -0.11643E+02  7696   0.411E+03-0.367E+02
CGA:  10    -0.266632433945E+03    0.23160E+02   -0.88339E+01  7696   0.346E+04-0.166E+04
CGA:  11    -0.279420886971E+03   -0.12788E+02   -0.13924E+03  7696   0.167E+04-0.459E+03
CGA:  12    -0.279664999863E+03   -0.24411E+00   -0.45507E+02  7696   0.248E+04-0.650E+03
CGA:  13    -0.285652086860E+03   -0.59871E+01   -0.55970E+02  7696   0.258E+04 0.595E+03
CGA:  14    -0.295876272978E+03   -0.10224E+02   -0.11104E+03  7696   0.929E+03-0.145E+01
CGA:  15    -0.298776790333E+03   -0.29005E+01   -0.29755E+02  7696   0.428E+03-0.137E+03
CGA:  16    -0.291298078268E+03    0.74787E+01   -0.17730E+02  7696   0.414E+03-0.219E+03
CGA:  17    -0.308221068938E+03   -0.16923E+02   -0.47279E+01  7696   0.896E+03 0.124E+04
CGA:  18    -0.297037226601E+03    0.11184E+02   -0.24799E+02  7696   0.120E+04-0.693E+03
CGA:  19    -0.293869224535E+03    0.31680E+01   -0.49704E+02  7696   0.329E+03-0.285E+03
CGA:  20    -0.298185060787E+03   -0.43158E+01   -0.20726E+01  7696   0.307E+03 0.279E+03
CGA:  21    -0.311052398151E+03   -0.12867E+02   -0.41856E+01  7696   0.928E+03 0.121E+04
CGA:  22    -0.275434041568E+03    0.35618E+02   -0.32472E+02  7696   0.837E+03-0.285E+03
CGA:  23    -0.318052330786E+03   -0.42618E+02   -0.75906E+01  7696   0.102E+04 0.166E+04
CGA:  24    -0.296893318505E+03    0.21159E+02   -0.41503E+02  7696   0.576E+03-0.227E+03
CGA:  25    -0.319154580503E+03   -0.22261E+02   -0.67013E+01  7696   0.334E+03-0.673E+03
CGA:  26    -0.317323040866E+03    0.18315E+01   -0.84411E+01  7696   0.111E+04-0.755E+03
CGA:  27    -0.302834461088E+03    0.14489E+02   -0.42922E+02  7696   0.345E+03-0.220E+03
CGA:  28    -0.314394910700E+03   -0.11560E+02   -0.72791E+01  7696   0.176E+04-0.166E+04
CGA:  29    -0.306884914428E+03    0.75100E+01   -0.68185E+02  7696   0.776E+03-0.398E+03
CGA:  30    -0.309889702947E+03   -0.30048E+01   -0.19352E+02  7696   0.154E+04 0.549E+03
CGA:  31    -0.296207326023E+03    0.13682E+02   -0.54605E+02  7696   0.517E+03-0.296E+03
CGA:  32    -0.312453100037E+03   -0.16246E+02   -0.65382E+01  7696   0.177E+04-0.947E+03
CGA:  33    -0.301013333507E+03    0.11440E+02   -0.56351E+02  7696   0.226E+04-0.792E+03
CGA:  34    -0.310149554471E+03   -0.91362E+01   -0.33348E+02  7696   0.800E+03 0.209E+02
CGA:  35    -0.308839077954E+03    0.13105E+01   -0.24872E+02  7696   0.859E+03-0.287E+03
CGA:  36    -0.304768719137E+03    0.40704E+01   -0.17345E+02  7696   0.251E+04 0.759E+03
CGA:  37    -0.314628155369E+03   -0.98594E+01   -0.74048E+02  7696   0.585E+03 0.186E+03
CGA:  38    -0.296946265905E+03    0.17682E+02   -0.16979E+02  7696   0.128E+04-0.578E+03
CGA:  39    -0.312119256423E+03   -0.15173E+02   -0.39445E+02  7696   0.247E+03-0.239E+03
CGA:  40    -0.314219878237E+03   -0.21006E+01   -0.28816E+01  7696   0.388E+03-0.876E+02
CGA:  41    -0.321588139612E+03   -0.73683E+01   -0.26625E+01  7696   0.127E+04-0.944E+03
CGA:  42    -0.310507195698E+03    0.11081E+02   -0.29718E+02  7696   0.137E+04-0.627E+03
CGA:  43    -0.306053919851E+03    0.44533E+01   -0.14334E+02  7696   0.119E+04-0.597E+03
CGA:  44    -0.316764605353E+03   -0.10711E+02   -0.20106E+02  7696   0.439E+03-0.111E+03
CGA:  45    -0.324903280953E+03   -0.81387E+01   -0.55665E+01  7696   0.901E+03-0.764E+03
CGA:  46    -0.323674132272E+03    0.12291E+01   -0.18060E+02  7696   0.396E+03-0.292E+03
CGA:  47    -0.328741566851E+03   -0.50674E+01   -0.30215E+01  7696   0.361E+03 0.259E+03
CGA:  48    -0.330912521797E+03   -0.21710E+01   -0.36837E+01  7696   0.191E+03-0.315E+03
CGA:  49    -0.329291411685E+03    0.16211E+01   -0.32810E+01  7696   0.262E+03-0.150E+03
CGA:  50    -0.331887704753E+03   -0.25963E+01   -0.19990E+01  7696   0.147E+02-0.575E+02
CGA:  51    -0.331975587904E+03   -0.87883E-01   -0.82643E-01  7696   0.169E+01 0.547E+00
CGA:  52    -0.332010659639E+03   -0.35072E-01   -0.36971E-01  7696   0.445E+01-0.356E-01
CGA:  53    -0.332136875353E+03   -0.12622E+00   -0.87243E-01  7696   0.992E+01 0.125E+01
CGA:  54    -0.332183590503E+03   -0.46715E-01   -0.25167E-01  7696   0.895E+01 0.108E+02
CGA:  55    -0.332249994219E+03   -0.66404E-01   -0.68385E-01  7696   0.143E+01-0.248E+00
CGA:  56    -0.332317118447E+03   -0.67124E-01   -0.66192E-01  7696   0.501E+01 0.505E-01
CGA:  57    -0.332421717648E+03   -0.10460E+00   -0.79956E-01  7696   0.311E+01 0.140E+01
CGA:  58    -0.332528736865E+03   -0.10702E+00   -0.10446E+00  7696   0.594E+01 0.753E-01
CGA:  59    -0.332553169759E+03   -0.24433E-01   -0.13738E-01  7696   0.525E+01 0.467E+01
CGA:  60    -0.332618848556E+03   -0.65679E-01   -0.72030E-01  7696   0.939E+00-0.289E+00
CGA:  61    -0.332632058914E+03   -0.13210E-01   -0.13543E-01  7696   0.763E+00-0.114E-01
CGA:  62    -0.332666516429E+03   -0.34458E-01   -0.36592E-01  7696   0.239E+01-0.108E+00
CGA:  63    -0.332713872388E+03   -0.47356E-01   -0.43407E-01  7696   0.352E+01 0.460E-01
CGA:  64    -0.332749955619E+03   -0.36083E-01   -0.22119E-01  7696   0.226E+01 0.227E+01
CGA:  65    -0.332778841073E+03   -0.28885E-01   -0.28948E-01  7696   0.408E+00-0.322E-02
CGA:  66    -0.332789072713E+03   -0.10232E-01   -0.10290E-01  7696   0.493E+00 0.501E-02
CGA:  67    -0.332801389613E+03   -0.12317E-01   -0.12528E-01  7696   0.513E+00 0.208E-01
CGA:  68    -0.332817596405E+03   -0.16207E-01   -0.16261E-01  7696   0.673E+00-0.169E-01
CGA:  69    -0.332863683714E+03   -0.46087E-01   -0.40552E-01  7696   0.139E+01 0.157E+00
CGA:  70    -0.332875165038E+03   -0.11481E-01   -0.72660E-02  7696   0.426E+00 0.951E+00
CGA:  71    -0.332879609335E+03   -0.44443E-02   -0.43607E-02  7696   0.162E+00 0.498E-02
CGA:  72    -0.332887145572E+03   -0.75362E-02   -0.73426E-02  7696   0.323E+00 0.885E-02
CGA:  73    -0.332893933917E+03   -0.67883E-02   -0.69001E-02  7696   0.129E+00 0.367E-03
CGA:  74    -0.332900713308E+03   -0.67794E-02   -0.62190E-02  7696   0.176E+00 0.239E-01
CGA:  75    -0.332907988133E+03   -0.72748E-02   -0.73111E-02  7696   0.390E+00-0.472E-02
CGA:  76    -0.332914739335E+03   -0.67512E-02   -0.66306E-02  7696   0.211E+00 0.481E-02
CGA:  77    -0.332919565360E+03   -0.48260E-02   -0.49676E-02  7696   0.238E+00 0.595E-02
CGA:  78    -0.332922901166E+03   -0.33358E-02   -0.32944E-02  7696   0.864E-01 0.188E-02
CGA:  79    -0.332926308931E+03   -0.34078E-02   -0.34398E-02  7696   0.139E+00-0.251E-02
CGA:  80    -0.332929060741E+03   -0.27518E-02   -0.27969E-02  7696   0.844E-01 0.434E-03
CGA:  81    -0.332930918207E+03   -0.18575E-02   -0.18664E-02  7696   0.692E-01-0.292E-04
CGA:  82    -0.332932209672E+03   -0.12915E-02   -0.13007E-02  7696   0.456E-01-0.322E-03
CGA:  83    -0.332934503568E+03   -0.22939E-02   -0.22615E-02  7696   0.523E-01 0.112E-02
CGA:  84    -0.332935262507E+03   -0.75894E-03   -0.76290E-03  7696   0.285E-01-0.272E-03
CGA:  85    -0.332936020228E+03   -0.75772E-03   -0.75875E-03  7696   0.139E-01 0.298E-03
CGA:  86    -0.332936711029E+03   -0.69080E-03   -0.68790E-03  7696   0.346E-01 0.700E-04
CGA:  87    -0.332937344979E+03   -0.63395E-03   -0.63843E-03  7696   0.204E-01-0.110E-03
CGA:  88    -0.332938099416E+03   -0.75444E-03   -0.75120E-03  7696   0.144E-01 0.210E-03
CGA:  89    -0.332938435904E+03   -0.33649E-03   -0.33753E-03  7696   0.173E-01 0.127E-04
CGA:  90    -0.332939147673E+03   -0.71177E-03   -0.69353E-03  7696   0.241E-01 0.119E-02
CGA:  91    -0.332939847139E+03   -0.69947E-03   -0.68192E-03  7696   0.385E-01-0.265E-02
CGA:  92    -0.332940642886E+03   -0.79575E-03   -0.72444E-03  7696   0.688E-01-0.505E-03
CGA:  93    -0.332941578439E+03   -0.93555E-03   -0.89631E-03  7696   0.713E-01 0.531E-02
CGA:  94    -0.332943246691E+03   -0.16683E-02   -0.17588E-02  7696   0.417E-01 0.625E-02
CGA:  95    -0.332944090574E+03   -0.84388E-03   -0.82844E-03  7696   0.217E-01 0.211E-03
CGA:  96    -0.332944650889E+03   -0.56032E-03   -0.55911E-03  7696   0.190E-01-0.437E-03
CGA:  97    -0.332945120018E+03   -0.46913E-03   -0.46797E-03  7696   0.181E-01-0.300E-03
CGA:  98    -0.332945818864E+03   -0.69885E-03   -0.70452E-03  7696   0.365E-01-0.365E-03
CGA:  99    -0.332946790692E+03   -0.97183E-03   -0.97280E-03  7696   0.242E-01 0.135E-02
CGA: 100    -0.332947440202E+03   -0.64951E-03   -0.64726E-03  7696   0.232E-01-0.544E-03
SDA: 101    -0.332948004718E+03   -0.56452E-03   -0.55844E-03  7696   0.250E-01-0.818E-03
CGA: 102    -0.332948841771E+03   -0.83705E-03   -0.83369E-03  7696   0.327E-01 0.386E-03
CGA: 103    -0.332949747823E+03   -0.90605E-03   -0.90597E-03  7696   0.429E-01-0.103E-03
CGA: 104    -0.332950894673E+03   -0.11468E-02   -0.11466E-02  7696   0.193E-01-0.128E-03
CGA: 105    -0.332951896732E+03   -0.10021E-02   -0.99745E-03  7696   0.497E-01 0.181E-03
CGA: 106    -0.332953359005E+03   -0.14623E-02   -0.14638E-02  7696   0.260E-01-0.192E-02
CGA: 107    -0.332950432641E+03    0.29264E-02   -0.12675E-02  7696   0.773E+00-0.843E-01
CGA: 108    -0.332956789821E+03   -0.63572E-02   -0.65150E-02  7696   0.134E+00-0.174E-01
CGA: 109    -0.332959526581E+03   -0.27368E-02   -0.29447E-02  7696   0.276E-01-0.529E-02
CGA: 110    -0.332959988977E+03   -0.46240E-03   -0.45972E-03  7696   0.191E-01 0.992E-04
CGA: 111    -0.332960797474E+03   -0.80850E-03   -0.80870E-03  7696   0.288E-01 0.586E-05
CGA: 112    -0.332961177088E+03   -0.37961E-03   -0.37506E-03  7696   0.977E-02 0.261E-03
CGA: 113    -0.332961704152E+03   -0.52706E-03   -0.52644E-03  7696   0.667E-02 0.449E-04
CGA: 114    -0.332961847875E+03   -0.14372E-03   -0.14137E-03  7696   0.722E-02 0.527E-04
CGA: 115    -0.332962007262E+03   -0.15939E-03   -0.16103E-03  7696   0.704E-02-0.495E-04
CGA: 116    -0.332962424505E+03   -0.41724E-03   -0.42137E-03  7696   0.901E-02-0.204E-03
CGA: 117    -0.332962590212E+03   -0.16571E-03   -0.17113E-03  7696   0.915E-02-0.184E-03
CGA: 118    -0.332962936328E+03   -0.34612E-03   -0.33902E-03  7696   0.192E-01-0.507E-03
CGA: 119    -0.332963372168E+03   -0.43584E-03   -0.45489E-03  7696   0.145E-01-0.145E-03
CGA: 120    -0.332963887148E+03   -0.51498E-03   -0.50140E-03  7696   0.389E-02-0.588E-03
CGA: 121    -0.332963935459E+03   -0.48311E-04   -0.47916E-04  7696   0.310E-02 0.878E-05
CGA: 122    -0.332964098815E+03   -0.16336E-03   -0.16377E-03  7696   0.707E-02-0.294E-04
CGA: 123    -0.332964237102E+03   -0.13829E-03   -0.13651E-03  7696   0.273E-02 0.351E-04
CGA: 124    -0.332964305172E+03   -0.68071E-04   -0.68486E-04  7696   0.274E-02-0.282E-06
CGA: 125    -0.332964343559E+03   -0.38387E-04   -0.39149E-04  7696   0.175E-02-0.249E-04
CGA: 126    -0.332964497325E+03   -0.15377E-03   -0.15312E-03  7696   0.150E-02 0.701E-05
CGA: 127    -0.332964523903E+03   -0.26579E-04   -0.26422E-04  7696   0.152E-02 0.173E-04
CGA: 128    -0.332964578536E+03   -0.54632E-04   -0.54622E-04  7696   0.299E-02 0.121E-04
CGA: 129    -0.332964643360E+03   -0.64825E-04   -0.64409E-04  7696   0.233E-02 0.536E-04
CGA: 130    -0.332964716286E+03   -0.72926E-04   -0.73777E-04  7696   0.166E-02 0.637E-04
CGA: 131    -0.332964743066E+03   -0.26780E-04   -0.27474E-04  7696   0.174E-02 0.352E-05
CGA: 132    -0.332964816925E+03   -0.73859E-04   -0.73300E-04  7696   0.212E-02 0.802E-04
CGA: 133    -0.332964870007E+03   -0.53081E-04   -0.50971E-04  7696   0.162E-02 0.585E-04
CGA: 134    -0.332964907140E+03   -0.37133E-04   -0.34886E-04  7696   0.140E-02 0.564E-04
CGA: 135    -0.332964938883E+03   -0.31743E-04   -0.30710E-04  7696   0.184E-02 0.255E-04
CGA: 136    -0.332964971261E+03   -0.32377E-04   -0.31234E-04  7696   0.113E-02 0.575E-04
CGA: 137    -0.332964989936E+03   -0.18676E-04   -0.18876E-04  7696   0.140E-02-0.228E-05
SDA: 138    -0.332965026193E+03   -0.36257E-04   -0.36656E-04  7696   0.168E-02 0.139E-04
CGA: 139    -0.332965060676E+03   -0.34483E-04   -0.34356E-04  7696   0.130E-02-0.715E-05
CGA: 140    -0.332965124586E+03   -0.63909E-04   -0.64204E-04  7696   0.253E-02-0.176E-04
CGA: 141    -0.332965255674E+03   -0.13109E-03   -0.13105E-03  7696   0.542E-02-0.457E-05
CGA: 142    -0.332965340251E+03   -0.84577E-04   -0.84788E-04  7696   0.365E-02-0.504E-04
CGA: 143    -0.332965465587E+03   -0.12534E-03   -0.12544E-03  7696   0.158E-02-0.504E-04
CGA: 144    -0.332965542606E+03   -0.77018E-04   -0.78376E-04  7696   0.261E-02-0.701E-04
CGA: 145    -0.332965578709E+03   -0.36103E-04   -0.35634E-04  7696   0.187E-02 0.132E-04
CGA: 146    -0.332965663178E+03   -0.84469E-04   -0.83337E-04  7696   0.495E-03 0.755E-04
CGA: 147    -0.332965681207E+03   -0.18030E-04   -0.18018E-04  7696   0.161E-02 0.682E-05
CGA: 148    -0.332965737977E+03   -0.56769E-04   -0.56721E-04  7696   0.190E-02 0.284E-04
CGA: 149    -0.332965779312E+03   -0.41335E-04   -0.40987E-04  7696   0.806E-03 0.167E-04
CGA: 150    -0.332965795049E+03   -0.15737E-04   -0.15691E-04  7696   0.615E-03 0.798E-05
CGA: 151    -0.332965819214E+03   -0.24165E-04   -0.24216E-04  7696   0.210E-02-0.244E-05
CGA: 152    -0.332965867778E+03   -0.48564E-04   -0.46480E-04  7696   0.104E-02 0.210E-04
CGA: 153    -0.332965888059E+03   -0.20281E-04   -0.20509E-04  7696   0.168E-02 0.714E-05
CGA: 154    -0.332965924952E+03   -0.36893E-04   -0.37680E-04  7696   0.749E-03 0.225E-04
CGA: 155    -0.332965938387E+03   -0.13435E-04   -0.13490E-04  7696   0.858E-03 0.552E-05
CGA: 156    -0.332965969962E+03   -0.31575E-04   -0.31677E-04  7696   0.240E-02-0.857E-05
CGA: 157    -0.332966017016E+03   -0.47054E-04   -0.43765E-04  7696   0.173E-02 0.747E-04
CGA: 158    -0.332966040252E+03   -0.23236E-04   -0.22343E-04  7696   0.122E-02 0.596E-04
CGA: 159    -0.332966056313E+03   -0.16060E-04   -0.15947E-04  7696   0.771E-03 0.158E-04
CGA: 160    -0.332966071586E+03   -0.15273E-04   -0.15331E-04  7696   0.165E-02 0.643E-05
CGA: 161    -0.332966117142E+03   -0.45556E-04   -0.45555E-04  7696   0.298E-02 0.772E-05
CGA: 162    -0.332966155937E+03   -0.38795E-04   -0.36273E-04  7696   0.244E-02 0.169E-03
CGA: 163    -0.332966190068E+03   -0.34131E-04   -0.31782E-04  7696   0.194E-02 0.134E-03
CGA: 164    -0.332966210638E+03   -0.20569E-04   -0.19902E-04  7696   0.138E-02 0.628E-04
CGA: 165    -0.332966229761E+03   -0.19123E-04   -0.19062E-04  7696   0.200E-02 0.119E-04
CGA: 166    -0.332966262780E+03   -0.33019E-04   -0.33207E-04  7696   0.370E-02 0.135E-04
CGA: 167    -0.332966319499E+03   -0.56718E-04   -0.57611E-04  7696   0.436E-02 0.322E-04
CGA: 168    -0.332966362650E+03   -0.43151E-04   -0.42317E-04  7696   0.212E-02 0.103E-03
SDA: 169    -0.332966385308E+03   -0.22658E-04   -0.22560E-04  7696   0.164E-02 0.189E-04
CGA: 170    -0.332966449043E+03   -0.63736E-04   -0.63799E-04  7696   0.559E-02-0.372E-05
CGA: 171    -0.332966810409E+03   -0.36137E-03   -0.36305E-03  7696   0.777E-02-0.868E-04
CGA: 172    -0.332966928486E+03   -0.11808E-03   -0.11869E-03  7696   0.375E-02-0.124E-04
CGA: 173    -0.332967110760E+03   -0.18227E-03   -0.17263E-03  7696   0.210E-02 0.424E-03
CGA: 174    -0.332967162216E+03   -0.51456E-04   -0.51623E-04  7696   0.232E-02 0.178E-04
CGA: 175    -0.332967219636E+03   -0.57420E-04   -0.57469E-04  7696   0.126E-02 0.189E-04
CGA: 176    -0.332967257850E+03   -0.38214E-04   -0.38253E-04  7696   0.791E-03-0.599E-05
CGA: 177    -0.332967272117E+03   -0.14267E-04   -0.14260E-04  7696   0.417E-03 0.685E-06
CGA: 178    -0.332967291915E+03   -0.19798E-04   -0.19746E-04  7696   0.686E-03 0.216E-05
CGA: 179    -0.332967316269E+03   -0.24354E-04   -0.24180E-04  7696   0.123E-02 0.152E-04
CGA: 180    -0.332967343192E+03   -0.26923E-04   -0.27034E-04  7696   0.321E-03 0.522E-05
CGA: 181    -0.332967366157E+03   -0.22966E-04   -0.23078E-04  7696   0.847E-03-0.301E-05
CGA: 182    -0.332967384188E+03   -0.18030E-04   -0.17999E-04  7696   0.645E-03-0.102E-05
CGA: 183    -0.332967416178E+03   -0.31990E-04   -0.31642E-04  7696   0.891E-03 0.156E-04
CGA: 184    -0.332967438916E+03   -0.22738E-04   -0.22805E-04  7696   0.806E-03 0.815E-05
CGA: 185    -0.332967460537E+03   -0.21621E-04   -0.21654E-04  7696   0.562E-03 0.709E-05
CGA: 186    -0.332967513674E+03   -0.53136E-04   -0.54579E-04  7696   0.161E-02-0.301E-04
CGA: 187    -0.332967543500E+03   -0.29826E-04   -0.29404E-04  7696   0.956E-03 0.168E-04
CGA: 188    -0.332967564757E+03   -0.21258E-04   -0.21357E-04  7696   0.274E-03 0.659E-05
CGA: 189    -0.332967575232E+03   -0.10475E-04   -0.10443E-04  7696   0.649E-03 0.484E-05
CGA: 190    -0.332967601401E+03   -0.26169E-04   -0.26053E-04  7696   0.689E-03 0.150E-04
CGA: 191    -0.332967626946E+03   -0.25545E-04   -0.25489E-04  7696   0.961E-03 0.134E-04
CGA: 192    -0.332967648464E+03   -0.21519E-04   -0.21587E-04  7696   0.689E-03 0.842E-05
CGA: 193    -0.332967675875E+03   -0.27411E-04   -0.27374E-04  7696   0.476E-03 0.688E-05
CGA: 194    -0.332967693343E+03   -0.17468E-04   -0.17422E-04  7696   0.117E-02 0.987E-05
CGA: 195    -0.332967743208E+03   -0.49865E-04   -0.49311E-04  7696   0.607E-03 0.493E-04
CGA: 196    -0.332967758136E+03   -0.14928E-04   -0.14935E-04  7696   0.323E-03 0.195E-05
CGA: 197    -0.332967765202E+03   -0.70657E-05   -0.70763E-05  7696   0.267E-03 0.148E-05
CGA: 198    -0.332967782910E+03   -0.17708E-04   -0.17687E-04  7696   0.409E-03 0.448E-06
CGA: 199    -0.332967790965E+03   -0.80550E-05   -0.81160E-05  7696   0.244E-03-0.572E-07
   1 F= -.33296779E+03 E0= -.33294177E+03  d E =-.332968E+03  mag=    32.0000
       N       E                     dE             d eps       ncg     rms          ort
SDA:   1    -0.332986445465E+03   -0.18663E-01    0.00000E+00  7696   0.561E+00 0.000E+00
CGA:   2    -0.332993426878E+03   -0.69814E-02   -0.74675E-02  7696   0.678E-01-0.235E-01
CGA:   3    -0.332994331240E+03   -0.90436E-03   -0.89855E-03  7696   0.104E-01 0.243E-03
CGA:   4    -0.332995031221E+03   -0.69998E-03   -0.70068E-03  7696   0.185E-01-0.202E-04
CGA:   5    -0.332995802038E+03   -0.77082E-03   -0.77004E-03  7696   0.280E-01 0.601E-04
CGA:   6    -0.332996372883E+03   -0.57085E-03   -0.56765E-03  7696   0.642E-02 0.256E-04
CGA:   7    -0.332996604710E+03   -0.23183E-03   -0.23141E-03  7696   0.244E-02 0.741E-04
CGA:   8    -0.332996720607E+03   -0.11590E-03   -0.11560E-03  7696   0.404E-02 0.188E-04
CGA:   9    -0.332996847292E+03   -0.12669E-03   -0.12667E-03  7696   0.384E-02-0.724E-06
CGA:  10    -0.332996933520E+03   -0.86228E-04   -0.86347E-04  7696   0.418E-03 0.458E-05
CGA:  11    -0.332996961976E+03   -0.28456E-04   -0.28498E-04  7696   0.131E-02-0.116E-05
CGA:  12    -0.332996991967E+03   -0.29991E-04   -0.29943E-04  7696   0.421E-03-0.419E-05
CGA:  13    -0.332997000740E+03   -0.87724E-05   -0.87716E-05  7696   0.799E-04-0.779E-06
   2 F= -.33299700E+03 E0= -.33297096E+03  d E =-.292098E-01  mag=    32.0000
       N       E                     dE             d eps       ncg     rms          ort
SDA:   1    -0.329735978141E+03    0.32610E+01    0.00000E+00  7696   0.310E+03 0.000E+00
CGA:   2    -0.330677194491E+03   -0.94122E+00   -0.54381E+01  7696   0.655E+02-0.605E+02
CGA:   3    -0.331680820913E+03   -0.10036E+01   -0.55826E+00  7696   0.243E+02 0.363E+02
CGA:   4    -0.331966541274E+03   -0.28572E+00   -0.16887E+00  7696   0.875E+01 0.151E+02
CGA:   5    -0.332119612497E+03   -0.15307E+00   -0.12104E+00  7696   0.463E+01 0.151E+01
CGA:   6    -0.332594372761E+03   -0.47476E+00   -0.45394E+00  7696   0.256E+02 0.419E+00
CGA:   7    -0.333091853793E+03   -0.49748E+00   -0.52718E+00  7696   0.118E+02-0.615E+00
CGA:   8    -0.333344204978E+03   -0.25235E+00   -0.20015E+00  7696   0.243E+01 0.173E+01
CGA:   9    -0.333375476094E+03   -0.31271E-01   -0.25516E-01  7696   0.837E+00 0.512E+00
CGA:  10    -0.333403507064E+03   -0.28031E-01   -0.27827E-01  7696   0.280E+01-0.152E-01
CGA:  11    -0.333465674027E+03   -0.62167E-01   -0.62603E-01  7696   0.611E+01 0.497E-02
CGA:  12    -0.333523470494E+03   -0.57796E-01   -0.60096E-01  7696   0.250E+01-0.173E+00
CGA:  13    -0.333544326092E+03   -0.20856E-01   -0.20861E-01  7696   0.103E+01-0.198E-03
CGA:  14    -0.333553939553E+03   -0.96135E-02   -0.87227E-02  7696   0.542E+00 0.856E-01
CGA:  15    -0.333560290112E+03   -0.63506E-02   -0.57193E-02  7696   0.451E+00 0.495E-01
CGA:  16    -0.333565709663E+03   -0.54196E-02   -0.46686E-02  7696   0.443E+00 0.607E-01
CGA:  17    -0.333570132329E+03   -0.44227E-02   -0.40133E-02  7696   0.375E+00 0.413E-01
CGA:  18    -0.333573589690E+03   -0.34574E-02   -0.34214E-02  7696   0.392E+00 0.332E-02
CGA:  19    -0.333577578266E+03   -0.39886E-02   -0.40052E-02  7696   0.616E+00-0.104E-02
CGA:  20    -0.333583794462E+03   -0.62162E-02   -0.63113E-02  7696   0.801E+00-0.538E-02
CGA:  21    -0.333589482571E+03   -0.56881E-02   -0.57849E-02  7696   0.497E+00-0.945E-02
CGA:  22    -0.333592493469E+03   -0.30109E-02   -0.30784E-02  7696   0.268E+00-0.854E-02
CGA:  23    -0.333594431250E+03   -0.19378E-02   -0.19664E-02  7696   0.205E+00-0.273E-02
CGA:  24    -0.333596052275E+03   -0.16210E-02   -0.15721E-02  7696   0.158E+00 0.455E-02
CGA:  25    -0.333597238267E+03   -0.11860E-02   -0.11333E-02  7696   0.122E+00 0.553E-02
CGA:  26    -0.333598297449E+03   -0.10592E-02   -0.10344E-02  7696   0.142E+00 0.192E-02
CGA:  27    -0.333599676994E+03   -0.13795E-02   -0.13540E-02  7696   0.205E+00 0.142E-02
CGA:  28    -0.333601375362E+03   -0.16984E-02   -0.16812E-02  7696   0.223E+00 0.143E-02
CGA:  29    -0.333602896105E+03   -0.15207E-02   -0.15510E-02  7696   0.170E+00-0.269E-02
CGA:  30    -0.333603948076E+03   -0.10520E-02   -0.10886E-02  7696   0.109E+00-0.386E-02
CGA:  31    -0.333604617551E+03   -0.66948E-03   -0.68417E-03  7696   0.677E-01-0.150E-02
CGA:  32    -0.333605091971E+03   -0.47442E-03   -0.47281E-03  7696   0.592E-01 0.170E-03
CGA:  33    -0.333605689257E+03   -0.59729E-03   -0.59530E-03  7696   0.986E-01 0.406E-04
CGA:  34    -0.333606853233E+03   -0.11640E-02   -0.11632E-02  7696   0.175E+00-0.147E-04
SDA:  35    -0.333608233610E+03   -0.13804E-02   -0.13787E-02  7696   0.131E+00 0.208E-03
CGA:  36    -0.333609850872E+03   -0.16173E-02   -0.16227E-02  7696   0.244E-01 0.590E-03
CGA:  37    -0.333610470548E+03   -0.61968E-03   -0.62485E-03  7696   0.159E-01-0.451E-03
CGA:  38    -0.333611226351E+03   -0.75580E-03   -0.75952E-03  7696   0.135E-01-0.133E-03
CGA:  39    -0.333612239548E+03   -0.10132E-02   -0.10063E-02  7696   0.756E-02 0.145E-03
CGA:  40    -0.333612470075E+03   -0.23053E-03   -0.23038E-03  7696   0.887E-02 0.135E-04
CGA:  41    -0.333612761405E+03   -0.29133E-03   -0.29067E-03  7696   0.112E-01 0.485E-04
CGA:  42    -0.333613296761E+03   -0.53536E-03   -0.53562E-03  7696   0.619E-02-0.111E-04
CGA:  43    -0.333613444742E+03   -0.14798E-03   -0.14807E-03  7696   0.120E-02-0.366E-04
CGA:  44    -0.333613675385E+03   -0.23064E-03   -0.59178E-04  7696   0.453E-02 0.385E-03
CGA:  45    -0.333613804152E+03   -0.12877E-03   -0.12855E-03  7696   0.224E-02 0.410E-05
CGA:  46    -0.333613865847E+03   -0.61695E-04   -0.61837E-04  7696   0.143E-02 0.509E-05
CGA:  47    -0.333613933703E+03   -0.67856E-04   -0.67867E-04  7696   0.171E-02 0.413E-06
CGA:  48    -0.333613989466E+03   -0.55764E-04   -0.55837E-04  7696   0.184E-02 0.850E-05
CGA:  49    -0.333614046846E+03   -0.57380E-04   -0.57435E-04  7696   0.986E-03 0.742E-05
CGA:  50    -0.333614081759E+03   -0.34912E-04   -0.34937E-04  7696   0.982E-03 0.634E-05
CGA:  51    -0.333614109822E+03   -0.28063E-04   -0.28112E-04  7696   0.850E-03 0.486E-05
CGA:  52    -0.333614144092E+03   -0.34269E-04   -0.34260E-04  7696   0.662E-03 0.550E-05
CGA:  53    -0.333614164022E+03   -0.19930E-04   -0.19962E-04  7696   0.685E-03 0.326E-05
CGA:  54    -0.333614188358E+03   -0.24336E-04   -0.24336E-04  7696   0.608E-03 0.435E-06
CGA:  55    -0.333614214561E+03   -0.26203E-04   -0.26192E-04  7696   0.598E-03 0.181E-05
CGA:  56    -0.333614228613E+03   -0.14053E-04   -0.14022E-04  7696   0.330E-03-0.141E-05
CGA:  57    -0.333614239836E+03   -0.11223E-04   -0.11224E-04  7696   0.218E-03 0.921E-07
CGA:  58    -0.333614248200E+03   -0.83635E-05   -0.83652E-05  7696   0.265E-03-0.149E-05
   3 F= -.33361425E+03 E0= -.33358770E+03  d E =-.617247E+00  mag=    32.0000
       N       E                     dE             d eps       ncg     rms          ort
SDA:   1    -0.312620866201E+03    0.20993E+02    0.00000E+00  7696   0.208E+04 0.000E+00
CGA:   2    -0.322943405027E+03   -0.10323E+02   -0.38993E+02  7696   0.227E+03-0.160E+03
CGA:   3    -0.326313641516E+03   -0.33702E+01   -0.26753E+01  7696   0.650E+02 0.954E+02
CGA:   4    -0.326955031804E+03   -0.64139E+00   -0.31222E+00  7696   0.557E+02 0.965E+02
CGA:   5    -0.327534008065E+03   -0.57898E+00   -0.26298E+00  7696   0.549E+02 0.671E+02
CGA:   6    -0.328172231891E+03   -0.63822E+00   -0.29778E+00  7696   0.433E+02 0.589E+02
CGA:   7    -0.328749336433E+03   -0.57710E+00   -0.34076E+00  7696   0.171E+02 0.248E+02
CGA:   8    -0.329354350533E+03   -0.60501E+00   -0.66881E+00  7696   0.700E+02-0.498E+01
CGA:   9    -0.330081489034E+03   -0.72714E+00   -0.62723E+00  7696   0.114E+03 0.402E+01
CGA:  10    -0.331079081571E+03   -0.99759E+00   -0.12219E+01  7696   0.110E+03-0.164E+02
CGA:  11    -0.332627433605E+03   -0.15484E+01   -0.17086E+01  7696   0.821E+02 0.509E+00
CGA:  12    -0.333391389739E+03   -0.76396E+00   -0.69044E+00  7696   0.135E+02 0.824E+01
CGA:  13    -0.333515180381E+03   -0.12379E+00   -0.10230E+00  7696   0.451E+01 0.262E+01
CGA:  14    -0.333581407716E+03   -0.66227E-01   -0.66117E-01  7696   0.523E+01 0.517E-02
CGA:  15    -0.333676127435E+03   -0.94720E-01   -0.10093E+00  7696   0.794E+01 0.247E+00
CGA:  16    -0.333847567621E+03   -0.17144E+00   -0.17322E+00  7696   0.105E+02 0.152E+00
CGA:  17    -0.334078456623E+03   -0.23089E+00   -0.22391E+00  7696   0.653E+01-0.643E+00
CGA:  18    -0.334126464749E+03   -0.48008E-01   -0.41280E-01  7696   0.221E+01 0.823E+00
CGA:  19    -0.334148011030E+03   -0.21546E-01   -0.20361E-01  7696   0.152E+01 0.114E+00
CGA:  20    -0.334168311899E+03   -0.20301E-01   -0.17740E-01  7696   0.188E+01 0.139E+00
CGA:  21    -0.334183073293E+03   -0.14761E-01   -0.12205E-01  7696   0.129E+01 0.367E+00
CGA:  22    -0.334192059909E+03   -0.89866E-02   -0.86816E-02  7696   0.747E+00 0.450E-01
CGA:  23    -0.334198187291E+03   -0.61274E-02   -0.61033E-02  7696   0.109E+01 0.196E-02
CGA:  24    -0.334210304832E+03   -0.12118E-01   -0.12105E-01  7696   0.236E+01 0.808E-03
CGA:  25    -0.334228783535E+03   -0.18479E-01   -0.18510E-01  7696   0.235E+01 0.554E-02
CGA:  26    -0.334241591582E+03   -0.12808E-01   -0.13539E-01  7696   0.117E+01-0.949E-01
CGA:  27    -0.334247802992E+03   -0.62114E-02   -0.63581E-02  7696   0.704E+00-0.196E-01
CGA:  28    -0.334252613882E+03   -0.48109E-02   -0.51136E-02  7696   0.594E+00-0.253E-01
CGA:  29    -0.334257051305E+03   -0.44374E-02   -0.46278E-02  7696   0.457E+00-0.124E-01
CGA:  30    -0.334260978403E+03   -0.39271E-02   -0.38756E-02  7696   0.521E+00 0.284E-02
CGA:  31    -0.334267837971E+03   -0.68596E-02   -0.68384E-02  7696   0.983E+00-0.164E-02
CGA:  32    -0.334276257629E+03   -0.84197E-02   -0.81245E-02  7696   0.725E+00 0.181E-01
CGA:  33    -0.334280362418E+03   -0.41048E-02   -0.41208E-02  7696   0.325E+00-0.139E-02
CGA:  34    -0.334282611949E+03   -0.22495E-02   -0.22632E-02  7696   0.279E+00-0.112E-02
CGA:  35    -0.334285168721E+03   -0.25568E-02   -0.25612E-02  7696   0.310E+00-0.277E-04
CGA:  36    -0.334287383660E+03   -0.22149E-02   -0.22203E-02  7696   0.198E+00-0.235E-03
CGA:  37    -0.334288808414E+03   -0.14248E-02   -0.14253E-02  7696   0.180E+00-0.962E-05
SDA:  38    -0.334290905245E+03   -0.20968E-02   -0.20986E-02  7696   0.329E+00 0.270E-03
CGA:  39    -0.334294354521E+03   -0.34493E-02   -0.34657E-02  7696   0.676E-01 0.110E-02
CGA:  40    -0.334297362732E+03   -0.30082E-02   -0.30597E-02  7696   0.695E-01-0.197E-02
CGA:  41    -0.334300039161E+03   -0.26764E-02   -0.26570E-02  7696   0.852E-01 0.892E-03
CGA:  42    -0.334302180950E+03   -0.21418E-02   -0.21488E-02  7696   0.570E-01-0.702E-03
CGA:  43    -0.334303663873E+03   -0.14829E-02   -0.14708E-02  7696   0.302E-01 0.110E-02
CGA:  44    -0.334305875269E+03   -0.22114E-02   -0.21698E-02  7696   0.438E-01 0.955E-03
CGA:  45    -0.334307616111E+03   -0.17408E-02   -0.17507E-02  7696   0.508E-01-0.520E-03
CGA:  46    -0.334308333049E+03   -0.71694E-03   -0.71636E-03  7696   0.979E-02 0.642E-05
CGA:  47    -0.334309502406E+03   -0.11694E-02   -0.26303E-04  7696   0.612E-01-0.106E-02
CGA:  48    -0.334310678568E+03   -0.11762E-02   -0.11755E-02  7696   0.262E-01 0.372E-04
CGA:  49    -0.334311087586E+03   -0.40902E-03   -0.41442E-03  7696   0.898E-02-0.191E-03
CGA:  50    -0.334311605482E+03   -0.51790E-03   -0.51880E-03  7696   0.321E-01-0.342E-04
CGA:  51    -0.334312367481E+03   -0.76200E-03   -0.76153E-03  7696   0.128E-01 0.332E-04
CGA:  52    -0.334312650597E+03   -0.28312E-03   -0.28595E-03  7696   0.698E-02-0.117E-05
CGA:  53    -0.334312775765E+03   -0.12517E-03   -0.12540E-03  7696   0.442E-02 0.547E-05
CGA:  54    -0.334312979321E+03   -0.20356E-03   -0.20298E-03  7696   0.842E-02 0.405E-04
CGA:  55    -0.334313280094E+03   -0.30077E-03   -0.30076E-03  7696   0.946E-02 0.255E-04
CGA:  56    -0.334313438058E+03   -0.15796E-03   -0.15662E-03  7696   0.349E-02 0.452E-04
CGA:  57    -0.334313532004E+03   -0.93946E-04   -0.93822E-04  7696   0.140E-02-0.357E-05
CGA:  58    -0.334313560369E+03   -0.28365E-04   -0.28415E-04  7696   0.171E-02 0.438E-07
CGA:  59    -0.334313694428E+03   -0.13406E-03   -0.13434E-03  7696   0.422E-02-0.592E-05
CGA:  60    -0.334313778359E+03   -0.83931E-04   -0.83605E-04  7696   0.116E-02-0.579E-05
CGA:  61    -0.334313794660E+03   -0.16301E-04   -0.16311E-04  7696   0.570E-03-0.395E-05
CGA:  62    -0.334313839366E+03   -0.44706E-04   -0.45293E-04  7696   0.123E-02-0.130E-04
CGA:  63    -0.334313857823E+03   -0.18456E-04   -0.18315E-04  7696   0.487E-03-0.521E-05
CGA:  64    -0.334313869643E+03   -0.11820E-04   -0.11785E-04  7696   0.354E-03-0.299E-05
CGA:  65    -0.334313882825E+03   -0.13182E-04   -0.13187E-04  7696   0.648E-03-0.161E-05
CGA:  66    -0.334313900349E+03   -0.17524E-04   -0.17507E-04  7696   0.618E-03-0.199E-05
CGA:  67    -0.334313914373E+03   -0.14025E-04   -0.14041E-04  7696   0.183E-03 0.170E-06
CGA:  68    -0.334313917508E+03   -0.31347E-05   -0.31345E-05  7696   0.126E-03-0.174E-06
   4 F= -.33431392E+03 E0= -.33428650E+03  d E =-.699669E+00  mag=    32.0000
       N       E                     dE             d eps       ncg     rms          ort
SDA:   1    -0.320278295303E+03    0.14036E+02    0.00000E+00  7696   0.125E+04 0.000E+00
CGA:   2    -0.324995240299E+03   -0.47169E+01   -0.20563E+02  7696   0.145E+03-0.127E+03
CGA:   3    -0.327009039067E+03   -0.20138E+01   -0.98262E+00  7696   0.123E+03 0.146E+03
CGA:   4    -0.328327046867E+03   -0.13180E+01   -0.62631E+00  7696   0.798E+02 0.123E+03
CGA:   5    -0.329142622450E+03   -0.81558E+00   -0.52151E+00  7696   0.200E+02 0.377E+02
CGA:   6    -0.329393431701E+03   -0.25081E+00   -0.20033E+00  7696   0.158E+02 0.616E+01
CGA:   7    -0.329777630593E+03   -0.38420E+00   -0.36135E+00  7696   0.757E+02 0.110E+00
CGA:   8    -0.330309063503E+03   -0.53143E+00   -0.52882E+00  7696   0.197E+03-0.118E+01
CGA:   9    -0.331084845548E+03   -0.77578E+00   -0.10140E+01  7696   0.276E+03-0.256E+02
CGA:  10    -0.331709269391E+03   -0.62442E+00   -0.85909E+00  7696   0.196E+03-0.249E+02
CGA:  11    -0.332158361583E+03   -0.44909E+00   -0.71532E+00  7696   0.854E+02-0.640E+02
CGA:  12    -0.332277277812E+03   -0.11892E+00   -0.24719E+00  7696   0.478E+02-0.275E+02
CGA:  13    -0.332385935506E+03   -0.10866E+00   -0.14638E+00  7696   0.246E+02-0.716E+01
CGA:  14    -0.332468204746E+03   -0.82269E-01   -0.70821E-01  7696   0.121E+02 0.311E+01
CGA:  15    -0.332528207341E+03   -0.60003E-01   -0.52152E-01  7696   0.780E+01 0.184E+01
CGA:  16    -0.332586081362E+03   -0.57874E-01   -0.53986E-01  7696   0.122E+02 0.516E+00
CGA:  17    -0.332685800744E+03   -0.99719E-01   -0.95595E-01  7696   0.293E+02 0.395E+00
CGA:  18    -0.332886678577E+03   -0.20088E+00   -0.19747E+00  7696   0.577E+02 0.548E+00
CGA:  19    -0.333183674782E+03   -0.29700E+00   -0.32154E+00  7696   0.619E+02-0.287E+01
CGA:  20    -0.333388698912E+03   -0.20502E+00   -0.22696E+00  7696   0.296E+02-0.446E+01
CGA:  21    -0.333474921068E+03   -0.86222E-01   -0.97455E-01  7696   0.128E+02-0.263E+01
CGA:  22    -0.333523807228E+03   -0.48886E-01   -0.51615E-01  7696   0.904E+01-0.459E+00
CGA:  23    -0.333573261810E+03   -0.49455E-01   -0.41915E-01  7696   0.859E+01 0.128E+01
CGA:  24    -0.333622679141E+03   -0.49417E-01   -0.37470E-01  7696   0.848E+01 0.268E+01
CGA:  25    -0.333667687104E+03   -0.45008E-01   -0.30263E-01  7696   0.869E+01 0.518E+01
CGA:  26    -0.333808222110E+03   -0.14054E+00   -0.13916E+00  7696   0.586E+01 0.332E+00
CGA:  27    -0.333945860960E+03   -0.13764E+00   -0.18737E+00  7696   0.100E+02-0.325E+01
CGA:  28    -0.334083072833E+03   -0.13721E+00   -0.13822E+00  7696   0.232E+01 0.771E+00
CGA:  29    -0.334145542210E+03   -0.62469E-01   -0.62836E-01  7696   0.268E+01-0.348E-01
CGA:  30    -0.334298414769E+03   -0.15287E+00   -0.14138E+00  7696   0.328E+01 0.334E+00
CGA:  31    -0.334431377004E+03   -0.13296E+00   -0.13306E+00  7696   0.289E+01-0.652E-02
CGA:  32    -0.334479511834E+03   -0.48135E-01   -0.48035E-01  7696   0.108E+01-0.382E-01
CGA:  33    -0.334514346193E+03   -0.34834E-01   -0.35245E-01  7696   0.808E+00-0.273E-01
CGA:  34    -0.334547350051E+03   -0.33004E-01   -0.32459E-01  7696   0.113E+01 0.239E-01
CGA:  35    -0.334568436026E+03   -0.21086E-01   -0.21166E-01  7696   0.245E+00 0.239E-01
CGA:  36    -0.334575014051E+03   -0.65780E-02   -0.65975E-02  7696   0.276E+00-0.219E-02
CGA:  37    -0.334583827260E+03   -0.88132E-02   -0.88595E-02  7696   0.285E+00-0.334E-02
CGA:  38    -0.334591158224E+03   -0.73310E-02   -0.73395E-02  7696   0.131E+00-0.112E-02
CGA:  39    -0.334594075182E+03   -0.29170E-02   -0.29188E-02  7696   0.862E-01-0.680E-03
CGA:  40    -0.334596641159E+03   -0.25660E-02   -0.25345E-02  7696   0.700E-01 0.287E-02
CGA:  41    -0.334599049179E+03   -0.24080E-02   -0.24101E-02  7696   0.101E+00-0.152E-03
CGA:  42    -0.334601730486E+03   -0.26813E-02   -0.26773E-02  7696   0.613E-01 0.594E-03
CGA:  43    -0.334603163294E+03   -0.14328E-02   -0.14330E-02  7696   0.227E-01-0.110E-03
CGA:  44    -0.334603673414E+03   -0.51012E-03   -0.51017E-03  7696   0.223E-01-0.721E-04
CGA:  45    -0.334605146652E+03   -0.14732E-02   -0.14577E-02  7696   0.363E-01 0.402E-03
CGA:  46    -0.334605759676E+03   -0.61302E-03   -0.61192E-03  7696   0.135E-01 0.115E-04
CGA:  47    -0.334606096781E+03   -0.33711E-03   -0.33711E-03  7696   0.709E-02 0.108E-05
CGA:  48    -0.334606315730E+03   -0.21895E-03   -0.21897E-03  7696   0.841E-02-0.352E-05
CGA:  49    -0.334606624338E+03   -0.30861E-03   -0.30932E-03  7696   0.115E-01-0.495E-04
CGA:  50    -0.334607129455E+03   -0.50512E-03   -0.50212E-03  7696   0.118E-01 0.148E-03
CGA:  51    -0.334607316924E+03   -0.18747E-03   -0.18753E-03  7696   0.298E-02 0.326E-05
CGA:  52    -0.334607389404E+03   -0.72481E-04   -0.72497E-04  7696   0.232E-02 0.977E-05
CGA:  53    -0.334607505336E+03   -0.11593E-03   -0.11567E-03  7696   0.481E-02 0.950E-05
CGA:  54    -0.334607635560E+03   -0.13022E-03   -0.13023E-03  7696   0.252E-02 0.556E-07
CGA:  55    -0.334607723375E+03   -0.87815E-04   -0.87608E-04  7696   0.278E-02 0.211E-04
CGA:  56    -0.334607786489E+03   -0.63114E-04   -0.63152E-04  7696   0.190E-02 0.466E-05
CGA:  57    -0.334607863544E+03   -0.77055E-04   -0.76881E-04  7696   0.251E-02 0.108E-04
SDA:  58    -0.334607929812E+03   -0.66269E-04   -0.66264E-04  7696   0.165E-02-0.308E-05
CGA:  59    -0.334607951126E+03   -0.21313E-04   -0.21274E-04  7696   0.505E-03-0.154E-05
CGA:  60    -0.334607969078E+03   -0.17952E-04   -0.17989E-04  7696   0.549E-03-0.432E-05
CGA:  61    -0.334608024641E+03   -0.55564E-04   -0.55883E-04  7696   0.102E-02-0.445E-05
CGA:  62    -0.334608040397E+03   -0.15756E-04   -0.15714E-04  7696   0.355E-03-0.162E-05
CGA:  63    -0.334608051302E+03   -0.10904E-04   -0.10904E-04  7696   0.474E-03-0.169E-06
CGA:  64    -0.334608088675E+03   -0.37374E-04   -0.37652E-04  7696   0.318E-03-0.613E-05
CGA:  65    -0.334608105524E+03   -0.16848E-04   -0.16920E-04  7696   0.275E-03-0.364E-05
CGA:  66    -0.334608112324E+03   -0.67999E-05   -0.68059E-05  7696   0.408E-03 0.267E-06
CGA:  67    -0.334608135245E+03   -0.22922E-04   -0.22845E-04  7696   0.125E-03 0.302E-05
CGA:  68    -0.334608138227E+03   -0.29820E-05   -0.29830E-05  7696   0.132E-03-0.274E-06
   5 F= -.33460814E+03 E0= -.33458015E+03  d E =-.294221E+00  mag=    32.0000
       N       E                     dE             d eps       ncg     rms          ort
SDA:   1    -0.323868218101E+03    0.10740E+02    0.00000E+00  7696   0.354E+03 0.000E+00
CGA:   2    -0.324830661246E+03   -0.96244E+00   -0.56906E+01  7696   0.161E+03-0.123E+03
CGA:   3    -0.327667214845E+03   -0.28366E+01   -0.19738E+01  7696   0.189E+02 0.182E+02
CGA:   4    -0.329476868715E+03   -0.18097E+01   -0.23685E+01  7696   0.192E+03-0.793E+01
CGA:   5    -0.330660043723E+03   -0.11832E+01   -0.12317E+01  7696   0.235E+03-0.107E+01
CGA:   6    -0.332511562134E+03   -0.18515E+01   -0.22878E+01  7696   0.849E+02-0.416E+02
CGA:   7    -0.333064271569E+03   -0.55271E+00   -0.79745E+00  7696   0.259E+02-0.140E+02
CGA:   8    -0.333226879677E+03   -0.16261E+00   -0.14130E+00  7696   0.806E+01 0.303E+01
CGA:   9    -0.333331229347E+03   -0.10435E+00   -0.10219E+00  7696   0.107E+02 0.138E+00
CGA:  10    -0.333638228671E+03   -0.30700E+00   -0.30833E+00  7696   0.382E+02 0.185E+00
CGA:  11    -0.334167459688E+03   -0.52923E+00   -0.53376E+00  7696   0.180E+02 0.117E+00
CGA:  12    -0.334293450729E+03   -0.12599E+00   -0.12240E+00  7696   0.469E+01 0.301E+00
CGA:  13    -0.334350102152E+03   -0.56651E-01   -0.56450E-01  7696   0.507E+01-0.262E-02
CGA:  14    -0.334417314199E+03   -0.67212E-01   -0.48970E-01  7696   0.450E+01 0.179E+01
CGA:  15    -0.334453037021E+03   -0.35723E-01   -0.21085E-01  7696   0.305E+01 0.412E+01
CGA:  16    -0.334507436608E+03   -0.54400E-01   -0.55433E-01  7696   0.161E+01 0.843E-02
CGA:  17    -0.334557846216E+03   -0.50410E-01   -0.51281E-01  7696   0.287E+01-0.100E+00
CGA:  18    -0.334634618639E+03   -0.76772E-01   -0.77118E-01  7696   0.269E+01-0.782E-01
CGA:  19    -0.334715079181E+03   -0.80461E-01   -0.79510E-01  7696   0.140E+01 0.144E+00
CGA:  20    -0.334735030378E+03   -0.19951E-01   -0.20293E-01  7696   0.380E+00-0.886E-02
CGA:  21    -0.334746171961E+03   -0.11142E-01   -0.11155E-01  7696   0.320E+00-0.213E-02
CGA:  22    -0.334759964380E+03   -0.13792E-01   -0.14112E-01  7696   0.457E+00-0.159E-01
CGA:  23    -0.334771781575E+03   -0.11817E-01   -0.11811E-01  7696   0.139E+00 0.814E-02
CGA:  24    -0.334773976393E+03   -0.21948E-02   -0.21807E-02  7696   0.567E-01 0.256E-03
CGA:  25    -0.334778532410E+03   -0.45560E-02   -0.44979E-02  7696   0.154E+00 0.128E-02
CGA:  26    -0.334781925433E+03   -0.33930E-02   -0.33774E-02  7696   0.319E-01-0.299E-03
CGA:  27    -0.334782627664E+03   -0.70223E-03   -0.70650E-03  7696   0.261E-01 0.163E-03
CGA:  28    -0.334783508275E+03   -0.88061E-03   -0.87969E-03  7696   0.278E-01 0.129E-03
CGA:  29    -0.334784685136E+03   -0.11769E-02   -0.11772E-02  7696   0.206E-01-0.134E-04
CGA:  30    -0.334785045629E+03   -0.36049E-03   -0.36018E-03  7696   0.789E-02 0.147E-04
CGA:  31    -0.334785351981E+03   -0.30635E-03   -0.30690E-03  7696   0.119E-01-0.398E-04
CGA:  32    -0.334785809330E+03   -0.45735E-03   -0.45694E-03  7696   0.129E-01 0.393E-04
CGA:  33    -0.334786365055E+03   -0.55573E-03   -0.55436E-03  7696   0.836E-02 0.880E-04
CGA:  34    -0.334786500699E+03   -0.13564E-03   -0.13571E-03  7696   0.346E-02 0.297E-05
CGA:  35    -0.334786719527E+03   -0.21883E-03   -0.21774E-03  7696   0.108E-01 0.324E-04
CGA:  36    -0.334787119819E+03   -0.40029E-03   -0.40056E-03  7696   0.503E-02-0.361E-04
CGA:  37    -0.334787216873E+03   -0.97055E-04   -0.97110E-04  7696   0.206E-02-0.167E-05
CGA:  38    -0.334787266681E+03   -0.49808E-04   -0.49733E-04  7696   0.181E-02-0.231E-05
CGA:  39    -0.334787479157E+03   -0.21248E-03   -0.20859E-03  7696   0.561E-02 0.477E-04
CGA:  40    -0.334787590789E+03   -0.11163E-03   -0.11178E-03  7696   0.934E-03 0.192E-04
CGA:  41    -0.334787612340E+03   -0.21551E-04   -0.21619E-04  7696   0.953E-03 0.446E-05
CGA:  42    -0.334787660231E+03   -0.47892E-04   -0.47808E-04  7696   0.126E-02 0.498E-05
CGA:  43    -0.334787721997E+03   -0.61766E-04   -0.61578E-04  7696   0.150E-02 0.117E-04
CGA:  44    -0.334787748424E+03   -0.26427E-04   -0.26429E-04  7696   0.503E-03 0.178E-05
CGA:  45    -0.334787764855E+03   -0.16431E-04   -0.16431E-04  7696   0.519E-03-0.194E-07
SDA:  46    -0.334787791212E+03   -0.26356E-04   -0.26357E-04  7696   0.884E-03-0.144E-07
CGA:  47    -0.334787804439E+03   -0.13228E-04   -0.13265E-04  7696   0.276E-03 0.828E-06
CGA:  48    -0.334787809931E+03   -0.54913E-05   -0.55050E-05  7696   0.147E-03 0.551E-06
CGA:  49    -0.334787821237E+03   -0.11307E-04   -0.11311E-04  7696   0.368E-03-0.139E-06
CGA:  50    -0.334787835618E+03   -0.14381E-04   -0.14392E-04  7696   0.348E-03-0.296E-05
CGA:  51    -0.334787842837E+03   -0.72189E-05   -0.72034E-05  7696   0.194E-03-0.120E-05
   6 F= -.33478784E+03 E0= -.33475969E+03  d E =-.179705E+00  mag=    32.0000
       N       E                     dE             d eps       ncg     rms          ort
SDA:   1    -0.310015855938E+03    0.24772E+02    0.00000E+00  7696   0.146E+04 0.000E+00
CGA:   2    -0.316591504520E+03   -0.65756E+01   -0.25280E+02  7696   0.229E+03-0.131E+03
CGA:   3    -0.319738083210E+03   -0.31466E+01   -0.19312E+01  7696   0.958E+02 0.139E+03
CGA:   4    -0.320815445178E+03   -0.10774E+01   -0.48070E+00  7696   0.950E+02 0.118E+03
CGA:   5    -0.321999848257E+03   -0.11844E+01   -0.59009E+00  7696   0.559E+02 0.834E+02
CGA:   6    -0.322910757209E+03   -0.91091E+00   -0.68603E+00  7696   0.380E+02 0.109E+02
CGA:   7    -0.326218366156E+03   -0.33076E+01   -0.34724E+01  7696   0.337E+03-0.412E+01
CGA:   8    -0.329503917144E+03   -0.32856E+01   -0.34571E+01  7696   0.303E+03-0.903E+01
CGA:   9    -0.331693021134E+03   -0.21891E+01   -0.29678E+01  7696   0.113E+03-0.544E+02
CGA:  10    -0.332314723579E+03   -0.62170E+00   -0.86512E+00  7696   0.320E+02-0.167E+02
CGA:  11    -0.332512635231E+03   -0.19791E+00   -0.11406E+00  7696   0.213E+02 0.200E+02
CGA:  12    -0.332955952186E+03   -0.44332E+00   -0.29774E+00  7696   0.105E+02 0.634E+01
CGA:  13    -0.333146857421E+03   -0.19091E+00   -0.14935E+00  7696   0.130E+02 0.243E+01
CGA:  14    -0.333374737730E+03   -0.22788E+00   -0.22668E+00  7696   0.325E+02-0.417E-01
CGA:  15    -0.333703227665E+03   -0.32849E+00   -0.34412E+00  7696   0.565E+02-0.905E+00
CGA:  16    -0.334130118207E+03   -0.42689E+00   -0.47194E+00  7696   0.557E+02-0.355E+01
CGA:  17    -0.334414189144E+03   -0.28407E+00   -0.28265E+00  7696   0.185E+02-0.209E-01
CGA:  18    -0.334492120453E+03   -0.77931E-01   -0.73187E-01  7696   0.468E+01 0.108E+01
CGA:  19    -0.334515316618E+03   -0.23196E-01   -0.21811E-01  7696   0.211E+01 0.282E+00
CGA:  20    -0.334532809986E+03   -0.17493E-01   -0.16495E-01  7696   0.298E+01 0.103E+00
CGA:  21    -0.334563440311E+03   -0.30630E-01   -0.26002E-01  7696   0.563E+01 0.397E+00
CGA:  22    -0.334597235600E+03   -0.33795E-01   -0.25053E-01  7696   0.594E+01 0.200E+01
CGA:  23    -0.334635037346E+03   -0.37802E-01   -0.34185E-01  7696   0.466E+01 0.747E+00
CGA:  24    -0.334658206846E+03   -0.23170E-01   -0.23871E-01  7696   0.470E+01-0.113E+00
CGA:  25    -0.334680361628E+03   -0.22155E-01   -0.23110E-01  7696   0.649E+01-0.141E+00
CGA:  26    -0.334713581035E+03   -0.33219E-01   -0.38311E-01  7696   0.883E+01-0.561E+00
CGA:  27    -0.334752004587E+03   -0.38424E-01   -0.44647E-01  7696   0.529E+01-0.713E+00
CGA:  28    -0.334769912334E+03   -0.17908E-01   -0.17341E-01  7696   0.177E+01 0.149E+00
CGA:  29    -0.334776734399E+03   -0.68221E-02   -0.66002E-02  7696   0.775E+00 0.534E-01
CGA:  30    -0.334781163954E+03   -0.44296E-02   -0.43648E-02  7696   0.916E+00 0.847E-02
CGA:  31    -0.334789596552E+03   -0.84326E-02   -0.83806E-02  7696   0.233E+01 0.118E-02
CGA:  32    -0.334809705871E+03   -0.20109E-01   -0.19713E-01  7696   0.461E+01 0.113E-01
CGA:  33    -0.334830830636E+03   -0.21125E-01   -0.18556E-01  7696   0.347E+01 0.534E+00
CGA:  34    -0.334843352950E+03   -0.12522E-01   -0.11816E-01  7696   0.143E+01 0.205E+00
CGA:  35    -0.334847978267E+03   -0.46253E-02   -0.47222E-02  7696   0.653E+00-0.255E-01
CGA:  36    -0.334850473253E+03   -0.24950E-02   -0.25586E-02  7696   0.578E+00-0.121E-01
CGA:  37    -0.334853709128E+03   -0.32359E-02   -0.33023E-02  7696   0.885E+00-0.581E-02
CGA:  38    -0.334859338709E+03   -0.56296E-02   -0.57094E-02  7696   0.126E+01-0.371E-02
CGA:  39    -0.334865806757E+03   -0.64680E-02   -0.64716E-02  7696   0.111E+01-0.373E-04
CGA:  40    -0.334871020662E+03   -0.52139E-02   -0.52278E-02  7696   0.914E+00-0.242E-02
CGA:  41    -0.334875853660E+03   -0.48330E-02   -0.48202E-02  7696   0.961E+00 0.637E-03
SDA:  42    -0.334881160073E+03   -0.53064E-02   -0.53354E-02  7696   0.990E+00-0.258E-02
CGA:  43    -0.334892937932E+03   -0.11778E-01   -0.11747E-01  7696   0.248E+00 0.113E-01
CGA:  44    -0.334900687167E+03   -0.77492E-02   -0.87948E-02  7696   0.133E+00-0.526E-01
CGA:  45    -0.334907978228E+03   -0.72911E-02   -0.23600E-03  7696   0.240E+00-0.739E-02
CGA:  46    -0.334914890707E+03   -0.69125E-02   -0.68748E-02  7696   0.144E+00 0.316E-02
CGA:  47    -0.334917250330E+03   -0.23596E-02   -0.23791E-02  7696   0.306E-01 0.807E-03
CGA:  48    -0.334918764097E+03   -0.15138E-02   -0.15217E-02  7696   0.663E-01-0.293E-03
CGA:  49    -0.334921827090E+03   -0.30630E-02   -0.30690E-02  7696   0.475E-01-0.263E-03
CGA:  50    -0.334922536966E+03   -0.70988E-03   -0.70776E-03  7696   0.982E-02-0.471E-04
CGA:  51    -0.334923080879E+03   -0.54391E-03   -0.54608E-03  7696   0.193E-01-0.687E-04
CGA:  52    -0.334924026358E+03   -0.94548E-03   -0.94818E-03  7696   0.301E-01-0.110E-03
CGA:  53    -0.334924648608E+03   -0.62225E-03   -0.62281E-03  7696   0.107E-01-0.105E-04
CGA:  54    -0.334925114013E+03   -0.46540E-03   -0.47195E-03  7696   0.117E-01-0.329E-03
CGA:  55    -0.334925482324E+03   -0.36831E-03   -0.36840E-03  7696   0.183E-01-0.121E-04
CGA:  56    -0.334926467569E+03   -0.98525E-03   -0.98037E-03  7696   0.235E-01 0.181E-03
CGA:  57    -0.334926915206E+03   -0.44764E-03   -0.44819E-03  7696   0.370E-02 0.230E-04
CGA:  58    -0.334926998131E+03   -0.82925E-04   -0.83117E-04  7696   0.364E-02 0.189E-04
CGA:  59    -0.334927250316E+03   -0.25218E-03   -0.25090E-03  7696   0.791E-02 0.317E-04
CGA:  60    -0.334927536810E+03   -0.28649E-03   -0.28626E-03  7696   0.364E-02 0.365E-04
CGA:  61    -0.334927605923E+03   -0.69114E-04   -0.69056E-04  7696   0.229E-02 0.545E-05
CGA:  62    -0.334927747824E+03   -0.14190E-03   -0.14073E-03  7696   0.278E-02 0.371E-04
CGA:  63    -0.334927836668E+03   -0.88844E-04   -0.88847E-04  7696   0.220E-02-0.299E-05
CGA:  64    -0.334927892061E+03   -0.55394E-04   -0.55380E-04  7696   0.103E-02 0.133E-06
CGA:  65    -0.334927915694E+03   -0.23632E-04   -0.23626E-04  7696   0.680E-03 0.679E-06
CGA:  66    -0.334927971065E+03   -0.55371E-04   -0.54508E-04  7696   0.123E-02 0.175E-04
CGA:  67    -0.334927998567E+03   -0.27502E-04   -0.27595E-04  7696   0.544E-03 0.824E-05
CGA:  68    -0.334928009586E+03   -0.11019E-04   -0.11101E-04  7696   0.281E-03 0.523E-05
CGA:  69    -0.334928037905E+03   -0.28319E-04   -0.27737E-04  7696   0.926E-03 0.873E-05
CGA:  70    -0.334928056042E+03   -0.18137E-04   -0.18214E-04  7696   0.279E-03 0.508E-05
CGA:  71    -0.334928063667E+03   -0.76247E-05   -0.76336E-05  7696   0.220E-03 0.108E-05
   7 F= -.33492806E+03 E0= -.33490022E+03  d E =-.140221E+00  mag=    32.0000
       N       E                     dE             d eps       ncg     rms          ort
SDA:   1    -0.283806799265E+03    0.51121E+02    0.00000E+00  7696   0.150E+04 0.000E+00
CGA:   2    -0.301709801318E+03   -0.17903E+02   -0.29417E+02  7696   0.566E+03-0.238E+03
CGA:   3    -0.310224260953E+03   -0.85145E+01   -0.80322E+01  7696   0.235E+03-0.755E+02
CGA:   4    -0.312257998985E+03   -0.20337E+01   -0.15528E+01  7696   0.196E+03 0.551E+02
CGA:   5    -0.313116792230E+03   -0.85879E+00   -0.36991E+01  7696   0.371E+03-0.117E+03
CGA:   6    -0.317000605182E+03   -0.38838E+01   -0.52997E+01  7696   0.171E+03-0.166E+03
CGA:   7    -0.319700324104E+03   -0.26997E+01   -0.22705E+01  7696   0.137E+03-0.210E+02
CGA:   8    -0.323943603593E+03   -0.42433E+01   -0.44579E+01  7696   0.157E+03-0.158E+02
CGA:   9    -0.328922458747E+03   -0.49789E+01   -0.49593E+01  7696   0.127E+03 0.535E+01
CGA:  10    -0.331315301400E+03   -0.23928E+01   -0.15921E+01  7696   0.118E+02 0.395E+02
CGA:  11    -0.331771936987E+03   -0.45664E+00   -0.45682E+00  7696   0.277E+02-0.445E+00
CGA:  12    -0.332759969820E+03   -0.98803E+00   -0.95433E+00  7696   0.735E+02 0.347E+01
CGA:  13    -0.334170186816E+03   -0.14102E+01   -0.14899E+01  7696   0.343E+02-0.223E+01
CGA:  14    -0.334552228000E+03   -0.38204E+00   -0.25973E+00  7696   0.730E+01 0.126E+02
CGA:  15    -0.334627976157E+03   -0.75748E-01   -0.56044E-01  7696   0.273E+01 0.317E+01
CGA:  16    -0.334668268346E+03   -0.40292E-01   -0.27459E-01  7696   0.256E+01 0.158E+01
CGA:  17    -0.334702897184E+03   -0.34629E-01   -0.35890E-01  7696   0.128E+01-0.367E-01
CGA:  18    -0.334737246651E+03   -0.34349E-01   -0.34801E-01  7696   0.146E+01-0.116E+00
CGA:  19    -0.334869643656E+03   -0.13240E+00   -0.13054E+00  7696   0.272E+01 0.304E-01
CGA:  20    -0.334903213907E+03   -0.33570E-01   -0.36609E-01  7696   0.604E+00-0.129E+00
CGA:  21    -0.334916298046E+03   -0.13084E-01   -0.12955E-01  7696   0.477E+00-0.545E-02
CGA:  22    -0.334942841695E+03   -0.26544E-01   -0.27941E-01  7696   0.451E+00-0.485E-01
CGA:  23    -0.334962869782E+03   -0.20028E-01   -0.19781E-01  7696   0.256E+00 0.110E-01
CGA:  24    -0.334967285664E+03   -0.44159E-02   -0.45249E-02  7696   0.149E+00-0.206E-02
CGA:  25    -0.334974155516E+03   -0.68699E-02   -0.68492E-02  7696   0.222E+00 0.104E-02
CGA:  26    -0.334987816026E+03   -0.13661E-01   -0.13388E-01  7696   0.234E+00 0.898E-02
CGA:  27    -0.334991729387E+03   -0.39134E-02   -0.38244E-02  7696   0.793E-01 0.305E-02
CGA:  28    -0.334995830310E+03   -0.41009E-02   -0.41831E-02  7696   0.869E-01-0.363E-02
CGA:  29    -0.334998900632E+03   -0.30703E-02   -0.30719E-02  7696   0.126E+00-0.177E-03
CGA:  30    -0.335002614385E+03   -0.37138E-02   -0.37256E-02  7696   0.429E-01 0.177E-02
CGA:  31    -0.335003385070E+03   -0.77068E-03   -0.76339E-03  7696   0.126E-01 0.206E-03
CGA:  32    -0.335004192373E+03   -0.80730E-03   -0.80216E-03  7696   0.348E-01 0.162E-03
CGA:  33    -0.335005062796E+03   -0.87042E-03   -0.87292E-03  7696   0.140E-01 0.748E-04
CGA:  34    -0.335005574241E+03   -0.51145E-03   -0.51159E-03  7696   0.133E-01-0.223E-04
CGA:  35    -0.335005892240E+03   -0.31800E-03   -0.31709E-03  7696   0.105E-01-0.129E-04
CGA:  36    -0.335006370962E+03   -0.47872E-03   -0.48015E-03  7696   0.109E-01-0.883E-04
CGA:  37    -0.335006680387E+03   -0.30942E-03   -0.30974E-03  7696   0.638E-02 0.251E-04
CGA:  38    -0.335006793958E+03   -0.11357E-03   -0.11377E-03  7696   0.183E-02-0.435E-05
CGA:  39    -0.335006937287E+03   -0.14333E-03   -0.14239E-03  7696   0.642E-02 0.208E-04
CGA:  40    -0.335007140095E+03   -0.20281E-03   -0.20279E-03  7696   0.298E-02 0.524E-05
CGA:  41    -0.335007204123E+03   -0.64028E-04   -0.64145E-04  7696   0.149E-02 0.240E-05
CGA:  42    -0.335007262187E+03   -0.58064E-04   -0.58180E-04  7696   0.129E-02-0.165E-04
CGA:  43    -0.335007315294E+03   -0.53107E-04   -0.53117E-04  7696   0.262E-02-0.252E-05
CGA:  44    -0.335007420878E+03   -0.10558E-03   -0.10568E-03  7696   0.109E-02-0.163E-04
CGA:  45    -0.335007445390E+03   -0.24512E-04   -0.24505E-04  7696   0.545E-03-0.243E-05
CGA:  46    -0.335007463812E+03   -0.18422E-04   -0.18422E-04  7696   0.850E-03-0.320E-05
SDA:  47    -0.335007530635E+03   -0.66823E-04   -0.66676E-04  7696   0.932E-03 0.339E-05
CGA:  48    -0.335007544171E+03   -0.13536E-04   -0.13491E-04  7696   0.418E-03-0.457E-07
CGA:  49    -0.335007558065E+03   -0.13894E-04   -0.13890E-04  7696   0.163E-03-0.325E-06
CGA:  50    -0.335007573995E+03   -0.15930E-04   -0.15693E-04  7696   0.593E-03 0.388E-05
CGA:  51    -0.335007590312E+03   -0.16318E-04   -0.16374E-04  7696   0.353E-03 0.476E-05
CGA:  52    -0.335007597347E+03   -0.70344E-05   -0.70820E-05  7696   0.179E-03 0.199E-05
CGA:  53    -0.335007612183E+03   -0.14837E-04   -0.14847E-04  7696   0.422E-03-0.240E-06
CGA:  54    -0.335007630128E+03   -0.17944E-04   -0.17955E-04  7696   0.595E-04-0.278E-05
CGA:  55    -0.335007639019E+03   -0.88916E-05   -0.93662E-05  7696   0.575E-03-0.398E-05
CGA:  56    -0.335007650895E+03   -0.11876E-04   -0.11756E-04  7696   0.151E-03-0.512E-05
CGA:  57    -0.335007654227E+03   -0.33317E-05   -0.33351E-05  7696   0.952E-04-0.717E-07
   8 F= -.33500765E+03 E0= -.33497994E+03  d E =-.795906E-01  mag=    32.0000
       N       E                     dE             d eps       ncg     rms          ort
SDA:   1    -0.317719795353E+03    0.17288E+02    0.00000E+00  7696   0.923E+03 0.000E+00
CGA:   2    -0.320965395077E+03   -0.32456E+01   -0.18451E+02  7696   0.251E+03-0.127E+03
CGA:   3    -0.324519142413E+03   -0.35537E+01   -0.32202E+01  7696   0.611E+02 0.324E+02
CGA:   4    -0.325198765018E+03   -0.67962E+00   -0.30504E+00  7696   0.609E+02 0.819E+02
CGA:   5    -0.326222980142E+03   -0.10242E+01   -0.62111E+00  7696   0.230E+02 0.317E+02
CGA:   6    -0.327781499494E+03   -0.15585E+01   -0.19227E+01  7696   0.203E+03-0.835E+01
CGA:   7    -0.329406592564E+03   -0.16251E+01   -0.18634E+01  7696   0.301E+03-0.164E+02
CGA:   8    -0.331480553764E+03   -0.20740E+01   -0.35555E+01  7696   0.203E+03-0.788E+02
CGA:   9    -0.332427376136E+03   -0.94682E+00   -0.16383E+01  7696   0.591E+02-0.476E+02
CGA:  10    -0.332726502716E+03   -0.29913E+00   -0.20806E+00  7696   0.251E+02 0.193E+02
CGA:  11    -0.332909801609E+03   -0.18330E+00   -0.12722E+00  7696   0.107E+02 0.141E+02
CGA:  12    -0.333276154312E+03   -0.36635E+00   -0.36957E+00  7696   0.269E+02-0.110E+01
CGA:  13    -0.334373071091E+03   -0.10969E+01   -0.10961E+01  7696   0.390E+02 0.253E-01
CGA:  14    -0.334721689514E+03   -0.34862E+00   -0.54807E+00  7696   0.941E+01-0.806E+01
CGA:  15    -0.334807113139E+03   -0.85424E-01   -0.83370E-01  7696   0.188E+01 0.147E+00
CGA:  16    -0.334871291328E+03   -0.64178E-01   -0.66748E-01  7696   0.481E+01-0.473E+00
CGA:  17    -0.334888214818E+03   -0.16923E-01   -0.10939E-01  7696   0.434E+01 0.190E+01
CGA:  18    -0.334924437371E+03   -0.36223E-01   -0.32415E-01  7696   0.194E+01 0.664E+00
CGA:  19    -0.334941313856E+03   -0.16876E-01   -0.17533E-01  7696   0.220E+01-0.650E-01
CGA:  20    -0.334965360208E+03   -0.24046E-01   -0.26060E-01  7696   0.485E+01-0.938E-01
CGA:  21    -0.335015222457E+03   -0.49862E-01   -0.57029E-01  7696   0.381E+01-0.264E+00
CGA:  22    -0.335036152342E+03   -0.20930E-01   -0.20121E-01  7696   0.939E+00 0.133E+00
CGA:  23    -0.335042099058E+03   -0.59467E-02   -0.54218E-02  7696   0.418E+00 0.822E-01
CGA:  24    -0.335046298465E+03   -0.41994E-02   -0.37539E-02  7696   0.472E+00 0.410E-01
CGA:  25    -0.335051224800E+03   -0.49263E-02   -0.43240E-02  7696   0.615E+00 0.545E-01
CGA:  26    -0.335056070833E+03   -0.48460E-02   -0.42798E-02  7696   0.590E+00 0.767E-01
CGA:  27    -0.335060083660E+03   -0.40128E-02   -0.37655E-02  7696   0.535E+00 0.372E-01
CGA:  28    -0.335063625945E+03   -0.35423E-02   -0.36210E-02  7696   0.607E+00-0.924E-02
CGA:  29    -0.335067455705E+03   -0.38298E-02   -0.40475E-02  7696   0.701E+00-0.238E-01
CGA:  30    -0.335071619526E+03   -0.41638E-02   -0.41812E-02  7696   0.724E+00-0.211E-02
CGA:  31    -0.335076261417E+03   -0.46419E-02   -0.46633E-02  7696   0.799E+00-0.233E-02
CGA:  32    -0.335081346886E+03   -0.50855E-02   -0.53442E-02  7696   0.740E+00-0.263E-01
CGA:  33    -0.335085044215E+03   -0.36973E-02   -0.38681E-02  7696   0.354E+00-0.233E-01
CGA:  34    -0.335086529597E+03   -0.14854E-02   -0.15067E-02  7696   0.125E+00-0.405E-02
CGA:  35    -0.335087158477E+03   -0.62888E-03   -0.63220E-03  7696   0.815E-01-0.503E-03
CGA:  36    -0.335087883894E+03   -0.72542E-03   -0.72826E-03  7696   0.146E+00-0.921E-04
CGA:  37    -0.335089669729E+03   -0.17858E-02   -0.17837E-02  7696   0.322E+00-0.728E-04
CGA:  38    -0.335092040571E+03   -0.23708E-02   -0.22394E-02  7696   0.290E+00 0.117E-01
CGA:  39    -0.335093605849E+03   -0.15653E-02   -0.15191E-02  7696   0.191E+00 0.703E-02
CGA:  40    -0.335094774435E+03   -0.11686E-02   -0.11640E-02  7696   0.194E+00 0.605E-03
CGA:  41    -0.335096145104E+03   -0.13707E-02   -0.13538E-02  7696   0.243E+00 0.139E-02
SDA:  42    -0.335097553803E+03   -0.14087E-02   -0.14115E-02  7696   0.200E+00-0.180E-04
CGA:  43    -0.335099962886E+03   -0.24091E-02   -0.24111E-02  7696   0.387E-01 0.613E-03
CGA:  44    -0.335101131290E+03   -0.11684E-02   -0.11639E-02  7696   0.244E-01 0.276E-03
CGA:  45    -0.335102296031E+03   -0.11647E-02   -0.11487E-02  7696   0.215E-01 0.573E-03
CGA:  46    -0.335103257564E+03   -0.96153E-03   -0.96939E-03  7696   0.206E-01-0.312E-03
CGA:  47    -0.335103652889E+03   -0.39532E-03   -0.39558E-03  7696   0.137E-01-0.727E-04
CGA:  48    -0.335104136220E+03   -0.48333E-03   -0.48048E-03  7696   0.134E-01 0.160E-03
CGA:  49    -0.335105547991E+03   -0.14118E-02   -0.26482E-04  7696   0.255E-01-0.169E-02
CGA:  50    -0.335105811263E+03   -0.26327E-03   -0.26513E-03  7696   0.661E-02-0.999E-04
CGA:  51    -0.335106201338E+03   -0.39007E-03   -0.38728E-03  7696   0.230E-01 0.973E-04
CGA:  52    -0.335106779764E+03   -0.57843E-03   -0.57860E-03  7696   0.152E-01 0.269E-04
CGA:  53    -0.335107083946E+03   -0.30418E-03   -0.30285E-03  7696   0.586E-02 0.304E-04
CGA:  54    -0.335107232081E+03   -0.14813E-03   -0.14849E-03  7696   0.805E-02 0.273E-04
CGA:  55    -0.335107475797E+03   -0.24372E-03   -0.24388E-03  7696   0.488E-02 0.471E-04
CGA:  56    -0.335107654242E+03   -0.17845E-03   -0.17855E-03  7696   0.968E-02-0.155E-04
CGA:  57    -0.335107838094E+03   -0.18385E-03   -0.18330E-03  7696   0.152E-02 0.837E-05
CGA:  58    -0.335107874283E+03   -0.36188E-04   -0.36270E-04  7696   0.187E-02 0.441E-05
CGA:  59    -0.335107928631E+03   -0.54348E-04   -0.54352E-04  7696   0.208E-02 0.115E-05
CGA:  60    -0.335108025822E+03   -0.97191E-04   -0.97358E-04  7696   0.204E-02-0.924E-05
CGA:  61    -0.335108049931E+03   -0.24109E-04   -0.24194E-04  7696   0.418E-03-0.290E-05
CGA:  62    -0.335108070145E+03   -0.20215E-04   -0.20187E-04  7696   0.108E-02 0.134E-05
CGA:  63    -0.335108109343E+03   -0.39198E-04   -0.39221E-04  7696   0.165E-02-0.447E-05
CGA:  64    -0.335108144025E+03   -0.34682E-04   -0.34652E-04  7696   0.464E-03-0.155E-05
CGA:  65    -0.335108155222E+03   -0.11197E-04   -0.11214E-04  7696   0.534E-03 0.132E-05
CGA:  66    -0.335108167607E+03   -0.12385E-04   -0.12405E-04  7696   0.260E-03 0.111E-05
CGA:  67    -0.335108186491E+03   -0.18884E-04   -0.18895E-04  7696   0.156E-02-0.219E-06
CGA:  68    -0.335108234788E+03   -0.48297E-04   -0.48297E-04  7696   0.283E-03-0.170E-05
CGA:  69    -0.335108239113E+03   -0.43248E-05   -0.43362E-05  7696   0.196E-03 0.458E-06
CGA:  70    -0.335108249163E+03   -0.10050E-04   -0.10034E-04  7696   0.539E-03 0.640E-06
CGA:  71    -0.335108278056E+03   -0.28893E-04   -0.28938E-04  7696   0.778E-03-0.218E-05
CGA:  72    -0.335108287696E+03   -0.96403E-05   -0.96360E-05  7696   0.137E-03-0.360E-06
   9 F= -.33510829E+03 E0= -.33508077E+03  d E =-.100633E+00  mag=    32.0000
       N       E                     dE             d eps       ncg     rms          ort
SDA:   1    -0.326821600702E+03    0.82867E+01    0.00000E+00  7696   0.211E+03 0.000E+00
CGA:   2    -0.327858720287E+03   -0.10371E+01   -0.35395E+01  7696   0.909E+02-0.514E+02
CGA:   3    -0.329426836967E+03   -0.15681E+01   -0.12656E+01  7696   0.320E+02 0.437E+01
CGA:   4    -0.330259090935E+03   -0.83225E+00   -0.82678E+00  7696   0.514E+02-0.197E+00
CGA:   5    -0.331994257796E+03   -0.17352E+01   -0.17156E+01  7696   0.523E+02 0.479E+01
CGA:   6    -0.333390028416E+03   -0.13958E+01   -0.13678E+01  7696   0.307E+02-0.105E+01
CGA:   7    -0.334151029527E+03   -0.76100E+00   -0.51556E+00  7696   0.302E+01 0.932E+01
CGA:   8    -0.334291257949E+03   -0.14023E+00   -0.14093E+00  7696   0.950E+01-0.834E-01
CGA:   9    -0.334570234657E+03   -0.27898E+00   -0.27879E+00  7696   0.229E+02-0.177E+00
CGA:  10    -0.334846709013E+03   -0.27647E+00   -0.28328E+00  7696   0.120E+02-0.338E+00
CGA:  11    -0.334957036902E+03   -0.11033E+00   -0.12533E+00  7696   0.223E+01-0.887E+00
CGA:  12    -0.334977506324E+03   -0.20469E-01   -0.21643E-01  7696   0.103E+01-0.786E-01
CGA:  13    -0.335011833309E+03   -0.34327E-01   -0.33424E-01  7696   0.154E+01 0.106E+00
CGA:  14    -0.335051503843E+03   -0.39671E-01   -0.39586E-01  7696   0.192E+01-0.550E-02
CGA:  15    -0.335094132868E+03   -0.42629E-01   -0.41882E-01  7696   0.407E+00-0.269E-01
CGA:  16    -0.335098818858E+03   -0.46860E-02   -0.47453E-02  7696   0.194E+00-0.315E-02
CGA:  17    -0.335106836820E+03   -0.80180E-02   -0.78323E-02  7696   0.390E+00 0.111E-01
CGA:  18    -0.335122153406E+03   -0.15317E-01   -0.15316E-01  7696   0.711E+00 0.460E-04
CGA:  19    -0.335133928506E+03   -0.11775E-01   -0.11618E-01  7696   0.128E+00 0.313E-02
CGA:  20    -0.335136324321E+03   -0.23958E-02   -0.23724E-02  7696   0.131E+00-0.499E-04
CGA:  21    -0.335140663377E+03   -0.43391E-02   -0.43671E-02  7696   0.176E+00-0.306E-02
CGA:  22    -0.335143888441E+03   -0.32251E-02   -0.32229E-02  7696   0.135E+00 0.261E-04
CGA:  23    -0.335146436202E+03   -0.25478E-02   -0.25661E-02  7696   0.561E-01 0.236E-03
CGA:  24    -0.335147352028E+03   -0.91583E-03   -0.91428E-03  7696   0.487E-01 0.291E-04
CGA:  25    -0.335149303113E+03   -0.19511E-02   -0.19378E-02  7696   0.740E-01 0.808E-03
CGA:  26    -0.335150847745E+03   -0.15446E-02   -0.15477E-02  7696   0.701E-01 0.145E-03
CGA:  27    -0.335152363544E+03   -0.15158E-02   -0.15169E-02  7696   0.289E-01 0.981E-04
CGA:  28    -0.335152947158E+03   -0.58361E-03   -0.58163E-03  7696   0.208E-01-0.636E-04
CGA:  29    -0.335153243984E+03   -0.29683E-03   -0.29657E-03  7696   0.671E-02 0.944E-05
CGA:  30    -0.335153585523E+03   -0.34154E-03   -0.34075E-03  7696   0.280E-01 0.307E-04
CGA:  31    -0.335154366077E+03   -0.78055E-03   -0.78077E-03  7696   0.167E-01-0.106E-03
SDA:  32    -0.335154659328E+03   -0.29325E-03   -0.29361E-03  7696   0.851E-02 0.123E-05
CGA:  33    -0.335154787991E+03   -0.12866E-03   -0.12913E-03  7696   0.480E-02 0.113E-06
CGA:  34    -0.335155033391E+03   -0.24540E-03   -0.24480E-03  7696   0.638E-02 0.236E-04
CGA:  35    -0.335155254788E+03   -0.22140E-03   -0.22139E-03  7696   0.516E-02 0.168E-05
CGA:  36    -0.335155337877E+03   -0.83090E-04   -0.83044E-04  7696   0.171E-02 0.513E-06
CGA:  37    -0.335155596887E+03   -0.25901E-03   -0.46430E-05  7696   0.261E-02-0.217E-03
CGA:  38    -0.335155682558E+03   -0.85671E-04   -0.85393E-04  7696   0.112E-02-0.985E-05
CGA:  39    -0.335155711541E+03   -0.28983E-04   -0.28914E-04  7696   0.102E-02 0.105E-05
CGA:  40    -0.335155739681E+03   -0.28139E-04   -0.28102E-04  7696   0.110E-02-0.350E-06
CGA:  41    -0.335155810261E+03   -0.70580E-04   -0.70509E-04  7696   0.718E-03 0.336E-05
CGA:  42    -0.335155823325E+03   -0.13064E-04   -0.13087E-04  7696   0.479E-03-0.691E-06
CGA:  43    -0.335155848607E+03   -0.25283E-04   -0.25275E-04  7696   0.595E-03 0.632E-06
CGA:  44    -0.335155887667E+03   -0.39060E-04   -0.39084E-04  7696   0.550E-03-0.983E-06
CGA:  45    -0.335155899462E+03   -0.11795E-04   -0.11783E-04  7696   0.485E-03-0.130E-06
CGA:  46    -0.335155914447E+03   -0.14984E-04   -0.14941E-04  7696   0.360E-03-0.147E-05
CGA:  47    -0.335155955386E+03   -0.40939E-04   -0.40617E-04  7696   0.409E-03 0.476E-05
CGA:  48    -0.335155966404E+03   -0.11018E-04   -0.11049E-04  7696   0.170E-03 0.782E-06
CGA:  49    -0.335155971697E+03   -0.52930E-05   -0.52979E-05  7696   0.269E-03 0.233E-06
CGA:  50    -0.335155985995E+03   -0.14298E-04   -0.14289E-04  7696   0.313E-03 0.111E-05
CGA:  51    -0.335156001761E+03   -0.15766E-04   -0.15771E-04  7696   0.183E-03-0.122E-05
CGA:  52    -0.335156003814E+03   -0.20522E-05   -0.20321E-05  7696   0.290E-04-0.359E-06
  10 F= -.33515600E+03 E0= -.33512900E+03  d E =-.477161E-01  mag=    32.0000
       N       E                     dE             d eps       ncg     rms          ort
SDA:   1    -0.333182931885E+03    0.19731E+01    0.00000E+00  7696   0.867E+01 0.000E+00
CGA:   2    -0.333389517164E+03   -0.20659E+00   -0.18004E+00  7696   0.935E+01 0.730E+00
CGA:   3    -0.334119016569E+03   -0.72950E+00   -0.72455E+00  7696   0.197E+02 0.266E-01
CGA:   4    -0.334633854619E+03   -0.51484E+00   -0.51901E+00  7696   0.114E+02-0.118E+00
CGA:   5    -0.334804965270E+03   -0.17111E+00   -0.11085E+00  7696   0.299E+01 0.575E+01
CGA:   6    -0.334863287729E+03   -0.58322E-01   -0.51894E-01  7696   0.187E+01 0.270E+00
CGA:   7    -0.334953648951E+03   -0.90361E-01   -0.90371E-01  7696   0.334E+01-0.161E-01
CGA:   8    -0.335055704136E+03   -0.10206E+00   -0.10493E+00  7696   0.202E+01 0.309E-01
CGA:   9    -0.335084856576E+03   -0.29152E-01   -0.27874E-01  7696   0.519E+00 0.731E-01
CGA:  10    -0.335110343462E+03   -0.25487E-01   -0.27151E-01  7696   0.844E+00-0.136E+00
CGA:  11    -0.335117830920E+03   -0.74875E-02   -0.70246E-02  7696   0.725E+00 0.346E-01
CGA:  12    -0.335134806252E+03   -0.16975E-01   -0.17295E-01  7696   0.150E+01-0.527E-02
CGA:  13    -0.335160548690E+03   -0.25742E-01   -0.27515E-01  7696   0.102E+01-0.449E-01
CGA:  14    -0.335171008546E+03   -0.10460E-01   -0.10041E-01  7696   0.402E+00 0.348E-01
CGA:  15    -0.335176227151E+03   -0.52186E-02   -0.58115E-02  7696   0.191E+00-0.287E-01
CGA:  16    -0.335178476023E+03   -0.22489E-02   -0.23491E-02  7696   0.133E+00-0.525E-02
CGA:  17    -0.335182617366E+03   -0.41413E-02   -0.41287E-02  7696   0.242E+00-0.154E-02
CGA:  18    -0.335185743942E+03   -0.31266E-02   -0.29633E-02  7696   0.993E-01 0.968E-02
CGA:  19    -0.335187393202E+03   -0.16493E-02   -0.16288E-02  7696   0.113E+00 0.721E-03
CGA:  20    -0.335189563184E+03   -0.21700E-02   -0.22050E-02  7696   0.894E-01-0.456E-03
CGA:  21    -0.335190487730E+03   -0.92455E-03   -0.95435E-03  7696   0.326E-01-0.202E-02
CGA:  22    -0.335191054958E+03   -0.56723E-03   -0.57300E-03  7696   0.343E-01-0.890E-04
CGA:  23    -0.335191617588E+03   -0.56263E-03   -0.56481E-03  7696   0.237E-01-0.588E-04
CGA:  24    -0.335192132010E+03   -0.51442E-03   -0.51220E-03  7696   0.364E-01-0.441E-04
CGA:  25    -0.335192785702E+03   -0.65369E-03   -0.64863E-03  7696   0.182E-01 0.402E-04
CGA:  26    -0.335192994240E+03   -0.20854E-03   -0.20833E-03  7696   0.117E-01 0.671E-05
CGA:  27    -0.335193371388E+03   -0.37715E-03   -0.37601E-03  7696   0.235E-01 0.173E-03
CGA:  28    -0.335193686089E+03   -0.31470E-03   -0.31668E-03  7696   0.931E-02-0.616E-04
CGA:  29    -0.335193903077E+03   -0.21699E-03   -0.21687E-03  7696   0.150E-01-0.752E-05
CGA:  30    -0.335194188830E+03   -0.28575E-03   -0.28498E-03  7696   0.111E-01-0.746E-05
CGA:  31    -0.335194394070E+03   -0.20524E-03   -0.20502E-03  7696   0.100E-01-0.300E-06
CGA:  32    -0.335194523122E+03   -0.12905E-03   -0.12934E-03  7696   0.300E-02-0.439E-05
CGA:  33    -0.335194573831E+03   -0.50709E-04   -0.50747E-04  7696   0.389E-02 0.277E-05
CGA:  34    -0.335194702595E+03   -0.12876E-03   -0.12830E-03  7696   0.538E-02 0.455E-04
CGA:  35    -0.335194768900E+03   -0.66305E-04   -0.66466E-04  7696   0.235E-02-0.336E-05
SDA:  36    -0.335194838614E+03   -0.69714E-04   -0.69730E-04  7696   0.500E-02-0.341E-05
CGA:  37    -0.335194896170E+03   -0.57556E-04   -0.57455E-04  7696   0.846E-03 0.154E-05
CGA:  38    -0.335194936452E+03   -0.40282E-04   -0.40425E-04  7696   0.818E-03-0.612E-05
CGA:  39    -0.335194993910E+03   -0.57458E-04   -0.58011E-04  7696   0.133E-02-0.130E-04
CGA:  40    -0.335195065863E+03   -0.71953E-04   -0.71761E-04  7696   0.158E-02 0.672E-05
CGA:  41    -0.335195088381E+03   -0.22518E-04   -0.22510E-04  7696   0.541E-03-0.394E-06
CGA:  42    -0.335195164196E+03   -0.75815E-04   -0.76133E-04  7696   0.355E-03-0.311E-05
CGA:  43    -0.335195172823E+03   -0.86261E-05   -0.86308E-05  7696   0.272E-03 0.451E-06
  11 F= -.33519517E+03 E0= -.33516860E+03  d E =-.391690E-01  mag=    32.0000
       N       E                     dE             d eps       ncg     rms          ort
SDA:   1    -0.334154497600E+03    0.10407E+01    0.00000E+00  7696   0.137E+02 0.000E+00
CGA:   2    -0.334359751027E+03   -0.20525E+00   -0.27401E+00  7696   0.392E+01-0.537E+00
CGA:   3    -0.334490330878E+03   -0.13058E+00   -0.13066E+00  7696   0.805E+01-0.225E-01
CGA:   4    -0.334886611372E+03   -0.39628E+00   -0.40928E+00  7696   0.789E+01-0.617E+00
CGA:   5    -0.335039928301E+03   -0.15332E+00   -0.16775E+00  7696   0.224E+01 0.838E-01
CGA:   6    -0.335072511762E+03   -0.32583E-01   -0.31264E-01  7696   0.717E+00 0.627E-01
CGA:   7    -0.335158518084E+03   -0.86006E-01   -0.85432E-01  7696   0.108E+01 0.718E-02
CGA:   8    -0.335182723841E+03   -0.24206E-01   -0.24532E-01  7696   0.544E+00-0.271E-02
CGA:   9    -0.335191155064E+03   -0.84312E-02   -0.80725E-02  7696   0.148E+00 0.155E-01
CGA:  10    -0.335199348622E+03   -0.81936E-02   -0.84189E-02  7696   0.160E+00-0.977E-02
CGA:  11    -0.335204465089E+03   -0.51165E-02   -0.51163E-02  7696   0.225E+00-0.308E-04
CGA:  12    -0.335209511757E+03   -0.50467E-02   -0.51495E-02  7696   0.602E-01-0.251E-03
CGA:  13    -0.335210926678E+03   -0.14149E-02   -0.14214E-02  7696   0.365E-01 0.259E-04
CGA:  14    -0.335211694353E+03   -0.76767E-03   -0.76350E-03  7696   0.274E-01 0.454E-04
CGA:  15    -0.335213642013E+03   -0.19477E-02   -0.19318E-02  7696   0.119E-01 0.436E-03
CGA:  16    -0.335213902193E+03   -0.26018E-03   -0.26005E-03  7696   0.133E-01 0.342E-07
CGA:  17    -0.335214582087E+03   -0.67989E-03   -0.68189E-03  7696   0.174E-01-0.104E-03
CGA:  18    -0.335215019741E+03   -0.43765E-03   -0.43877E-03  7696   0.931E-02 0.150E-04
CGA:  19    -0.335215168281E+03   -0.14854E-03   -0.14835E-03  7696   0.196E-02 0.925E-05
CGA:  20    -0.335215298853E+03   -0.13057E-03   -0.12991E-03  7696   0.444E-02 0.203E-04
CGA:  21    -0.335215418868E+03   -0.12001E-03   -0.12015E-03  7696   0.560E-02 0.834E-05
CGA:  22    -0.335215629759E+03   -0.21089E-03   -0.21089E-03  7696   0.284E-02 0.300E-05
CGA:  23    -0.335215699940E+03   -0.70181E-04   -0.70208E-04  7696   0.142E-02 0.183E-05
CGA:  24    -0.335215726187E+03   -0.26246E-04   -0.26175E-04  7696   0.638E-03 0.514E-06
CGA:  25    -0.335215809579E+03   -0.83392E-04   -0.83568E-04  7696   0.307E-02-0.208E-05
CGA:  26    -0.335215853807E+03   -0.44228E-04   -0.44337E-04  7696   0.522E-03 0.928E-07
CGA:  27    -0.335215875612E+03   -0.21805E-04   -0.21805E-04  7696   0.624E-03 0.257E-06
CGA:  28    -0.335215899766E+03   -0.24155E-04   -0.24152E-04  7696   0.946E-03 0.288E-05
CGA:  29    -0.335215921118E+03   -0.21351E-04   -0.21396E-04  7696   0.194E-03 0.174E-05
CGA:  30    -0.335215926715E+03   -0.55974E-05   -0.55881E-05  7696   0.303E-03-0.999E-06
CGA:  31    -0.335215938372E+03   -0.11657E-04   -0.11658E-04  7696   0.338E-03-0.253E-06
SDA:  32    -0.335215953336E+03   -0.14963E-04   -0.14949E-04  7696   0.180E-03 0.189E-05
CGA:  33    -0.335215956142E+03   -0.28059E-05   -0.28099E-05  7696   0.805E-04 0.211E-08
  12 F= -.33521596E+03 E0= -.33518923E+03  d E =-.207833E-01  mag=    32.0000
       N       E                     dE             d eps       ncg     rms          ort
SDA:   1    -0.333849144979E+03    0.13668E+01    0.00000E+00  7696   0.414E+01 0.000E+00
CGA:   2    -0.334013942391E+03   -0.16480E+00   -0.16553E+00  7696   0.140E+02-0.103E+00
CGA:   3    -0.334912177602E+03   -0.89824E+00   -0.89163E+00  7696   0.371E+01 0.211E+00
CGA:   4    -0.334995717104E+03   -0.83540E-01   -0.65796E-01  7696   0.161E+01 0.643E+00
CGA:   5    -0.335035349690E+03   -0.39633E-01   -0.36700E-01  7696   0.148E+01 0.677E-01
CGA:   6    -0.335099262568E+03   -0.63913E-01   -0.63782E-01  7696   0.448E+01 0.141E-01
CGA:   7    -0.335187285079E+03   -0.88023E-01   -0.88724E-01  7696   0.109E+01-0.134E-01
CGA:   8    -0.335196627076E+03   -0.93420E-02   -0.87431E-02  7696   0.171E+00 0.633E-01
CGA:   9    -0.335200745007E+03   -0.41179E-02   -0.40703E-02  7696   0.378E+00 0.253E-04
CGA:  10    -0.335213246235E+03   -0.12501E-01   -0.12501E-01  7696   0.633E+00-0.901E-03
CGA:  11    -0.335220328742E+03   -0.70825E-02   -0.72169E-02  7696   0.284E+00-0.834E-02
CGA:  12    -0.335224402397E+03   -0.40737E-02   -0.40251E-02  7696   0.132E+00 0.229E-02
CGA:  13    -0.335225717212E+03   -0.13148E-02   -0.13021E-02  7696   0.476E-01 0.107E-02
CGA:  14    -0.335226784686E+03   -0.10675E-02   -0.10719E-02  7696   0.856E-01 0.969E-04
CGA:  15    -0.335228438655E+03   -0.16540E-02   -0.16886E-02  7696   0.571E-01 0.205E-04
CGA:  16    -0.335229383551E+03   -0.94490E-03   -0.94946E-03  7696   0.621E-01-0.104E-03
CGA:  17    -0.335231034404E+03   -0.16509E-02   -0.16485E-02  7696   0.560E-01-0.544E-03
CGA:  18    -0.335231599771E+03   -0.56537E-03   -0.55330E-03  7696   0.140E-01 0.839E-03
CGA:  19    -0.335231829350E+03   -0.22958E-03   -0.22954E-03  7696   0.143E-01-0.328E-05
CGA:  20    -0.335232115188E+03   -0.28584E-03   -0.28719E-03  7696   0.139E-01 0.337E-04
CGA:  21    -0.335232420893E+03   -0.30571E-03   -0.30574E-03  7696   0.223E-01 0.144E-05
CGA:  22    -0.335232860296E+03   -0.43940E-03   -0.43856E-03  7696   0.903E-02-0.250E-04
CGA:  23    -0.335232939201E+03   -0.78905E-04   -0.78828E-04  7696   0.243E-02 0.636E-05
CGA:  24    -0.335233033024E+03   -0.93823E-04   -0.93692E-04  7696   0.103E-01 0.937E-05
CGA:  25    -0.335233360585E+03   -0.32756E-03   -0.32727E-03  7696   0.729E-02 0.453E-04
CGA:  26    -0.335233420462E+03   -0.59877E-04   -0.59985E-04  7696   0.104E-02 0.182E-05
CGA:  27    -0.335233443466E+03   -0.23004E-04   -0.23003E-04  7696   0.209E-02-0.480E-06
CGA:  28    -0.335233520261E+03   -0.76795E-04   -0.76926E-04  7696   0.325E-02-0.103E-04
CGA:  29    -0.335233558785E+03   -0.38524E-04   -0.38444E-04  7696   0.121E-02-0.368E-05
CGA:  30    -0.335233579140E+03   -0.20355E-04   -0.20348E-04  7696   0.926E-03-0.139E-05
CGA:  31    -0.335233594261E+03   -0.15121E-04   -0.15142E-04  7696   0.861E-03 0.760E-06
SDA:  32    -0.335233626067E+03   -0.31805E-04   -0.31771E-04  7696   0.241E-02 0.212E-05
CGA:  33    -0.335233652045E+03   -0.25978E-04   -0.25922E-04  7696   0.324E-03 0.701E-06
CGA:  34    -0.335233663597E+03   -0.11552E-04   -0.11509E-04  7696   0.310E-03 0.362E-05
CGA:  35    -0.335233676296E+03   -0.12699E-04   -0.12622E-04  7696   0.549E-03 0.486E-05
CGA:  36    -0.335233689908E+03   -0.13612E-04   -0.13617E-04  7696   0.270E-03 0.488E-05
CGA:  37    -0.335233706044E+03   -0.16135E-04   -0.16152E-04  7696   0.160E-03-0.746E-06
CGA:  38    -0.335233718708E+03   -0.12665E-04   -0.12585E-04  7696   0.215E-03 0.144E-05
CGA:  39    -0.335233727287E+03   -0.85787E-05   -0.85940E-05  7696   0.868E-04-0.157E-05
  13 F= -.33523373E+03 E0= -.33520702E+03  d E =-.177711E-01  mag=    32.0000
       N       E                     dE             d eps       ncg     rms          ort
SDA:   1    -0.279946117443E+03    0.55288E+02    0.00000E+00  7696   0.333E+03 0.000E+00
CGA:   2    -0.300409456407E+03   -0.20463E+02    0.11610E+03  7696   0.153E+03 0.110E+02
CGA:   3    -0.244490549695E+03    0.55919E+02   -0.10873E+02  7696   0.128E+04-0.305E+03
CGA:   4    -0.310172972855E+03   -0.65682E+02   -0.64879E+02  7696   0.221E+03-0.140E+03
CGA:   5    -0.316450191894E+03   -0.62772E+01   -0.33125E+01  7696   0.208E+03 0.299E+03
CGA:   6    -0.325599877960E+03   -0.91497E+01   -0.33494E+01  7696   0.407E+03 0.616E+03
CGA:   7    -0.320814625866E+03    0.47853E+01   -0.77546E+01  7696   0.799E+03-0.456E+03
CGA:   8    -0.320816067794E+03   -0.14419E-02   -0.16059E+02  7696   0.233E+03-0.184E+03
CGA:   9    -0.330079143084E+03   -0.92631E+01   -0.27941E+01  7696   0.267E+02-0.809E+02
CGA:  10    -0.330316924586E+03   -0.23778E+00   -0.24363E+00  7696   0.390E+02-0.270E+00
CGA:  11    -0.330676209700E+03   -0.35929E+00   -0.34096E+00  7696   0.260E+02 0.169E+01
CGA:  12    -0.331250611978E+03   -0.57440E+00   -0.56989E+00  7696   0.657E+02-0.160E+00
CGA:  13    -0.332026272772E+03   -0.77566E+00   -0.91394E+00  7696   0.808E+02-0.994E+01
CGA:  14    -0.332623266152E+03   -0.59699E+00   -0.65482E+00  7696   0.843E+02-0.599E+01
CGA:  15    -0.333361947082E+03   -0.73868E+00   -0.64045E+00  7696   0.320E+02 0.903E+01
CGA:  16    -0.333489379923E+03   -0.12743E+00   -0.30645E+00  7696   0.226E+02-0.186E+02
CGA:  17    -0.333686636978E+03   -0.19726E+00   -0.19436E+00  7696   0.503E+01 0.957E-01
CGA:  18    -0.333838571667E+03   -0.15193E+00   -0.15162E+00  7696   0.107E+02-0.292E-01
CGA:  19    -0.334108058512E+03   -0.26949E+00   -0.26163E+00  7696   0.695E+01-0.931E-01
CGA:  20    -0.334246722814E+03   -0.13866E+00   -0.13766E+00  7696   0.304E+01-0.182E-02
CGA:  21    -0.334300889390E+03   -0.54167E-01   -0.56446E-01  7696   0.340E+01-0.461E-01
CGA:  22    -0.334423388718E+03   -0.12250E+00   -0.12195E+00  7696   0.519E+01 0.788E-01
CGA:  23    -0.334497370806E+03   -0.73982E-01   -0.76840E-01  7696   0.279E+01-0.117E+00
CGA:  24    -0.334582737353E+03   -0.85367E-01   -0.85361E-01  7696   0.272E+01-0.444E+00
CGA:  25    -0.334610222043E+03   -0.27485E-01   -0.28486E-01  7696   0.167E+01-0.546E-01
CGA:  26    -0.334653088831E+03   -0.42867E-01   -0.43567E-01  7696   0.220E+01 0.676E-01
CGA:  27    -0.334689528294E+03   -0.36439E-01   -0.36346E-01  7696   0.156E+01 0.536E-02
CGA:  28    -0.334723166300E+03   -0.33638E-01   -0.33770E-01  7696   0.136E+01 0.169E-02
CGA:  29    -0.334747429459E+03   -0.24263E-01   -0.24233E-01  7696   0.910E+00 0.597E-03
CGA:  30    -0.334767725408E+03   -0.20296E-01   -0.19882E-01  7696   0.447E+00-0.109E-01
CGA:  31    -0.334773480000E+03   -0.57546E-02   -0.59106E-02  7696   0.340E+00-0.627E-02
CGA:  32    -0.334789679138E+03   -0.16199E-01   -0.15262E-01  7696   0.404E+00 0.450E-01
CGA:  33    -0.334798910386E+03   -0.92312E-02   -0.92092E-02  7696   0.428E+00-0.187E-03
CGA:  34    -0.334808772252E+03   -0.98619E-02   -0.98575E-02  7696   0.215E+00-0.766E-05
CGA:  35    -0.334811962934E+03   -0.31907E-02   -0.31737E-02  7696   0.122E+00 0.578E-03
CGA:  36    -0.334815115661E+03   -0.31527E-02   -0.31599E-02  7696   0.997E-01 0.270E-02
CGA:  37    -0.334817566235E+03   -0.24506E-02   -0.24578E-02  7696   0.151E+00 0.101E-02
CGA:  38    -0.334821537378E+03   -0.39711E-02   -0.39685E-02  7696   0.855E-01-0.166E-02
CGA:  39    -0.334824811737E+03   -0.32744E-02   -0.33431E-02  7696   0.145E+00-0.448E-02
CGA:  40    -0.334826695575E+03   -0.18838E-02   -0.19481E-02  7696   0.628E-01-0.201E-02
[...]
CGA:  18    -0.335355114473E+03   -0.36279E-03   -0.36267E-03  7696   0.683E-02-0.613E-05
CGA:  19    -0.335355233413E+03   -0.11894E-03   -0.11851E-03  7696   0.485E-02-0.314E-05
CGA:  20    -0.335355303300E+03   -0.69887E-04   -0.69574E-04  7696   0.262E-02 0.440E-05
CGA:  21    -0.335355405963E+03   -0.10266E-03   -0.10268E-03  7696   0.801E-02-0.232E-05
CGA:  22    -0.335355551163E+03   -0.14520E-03   -0.14519E-03  7696   0.244E-02-0.716E-05
CGA:  23    -0.335355587498E+03   -0.36335E-04   -0.36268E-04  7696   0.205E-02-0.338E-05
CGA:  24    -0.335355630343E+03   -0.42844E-04   -0.42759E-04  7696   0.960E-03-0.604E-05
CGA:  25    -0.335355644706E+03   -0.14363E-04   -0.14382E-04  7696   0.966E-03 0.168E-05
CGA:  26    -0.335355687028E+03   -0.42322E-04   -0.42112E-04  7696   0.178E-02 0.114E-04
CGA:  27    -0.335355711715E+03   -0.24687E-04   -0.24754E-04  7696   0.907E-03 0.436E-05
CGA:  28    -0.335355730458E+03   -0.18742E-04   -0.18762E-04  7696   0.482E-03 0.416E-05
CGA:  29    -0.335355736331E+03   -0.58734E-05   -0.58975E-05  7696   0.251E-03 0.186E-05
CGA:  30    -0.335355748742E+03   -0.12411E-04   -0.12307E-04  7696   0.867E-03 0.429E-05
CGA:  31    -0.335355764890E+03   -0.16148E-04   -0.16185E-04  7696   0.358E-03 0.490E-05
SDA:  32    -0.335355770715E+03   -0.58248E-05   -0.58383E-05  7696   0.236E-03 0.123E-05
  74 F= -.33535577E+03 E0= -.33532980E+03  d E =-.670239E-02  mag=    32.0000
       N       E                     dE             d eps       ncg     rms          ort
SDA:   1    -0.335247290135E+03    0.10847E+00    0.00000E+00  7696   0.191E+01 0.000E+00
CGA:   2    -0.335268230761E+03   -0.20941E-01   -0.19974E-01  7696   0.342E+00 0.576E-01
CGA:   3    -0.335294326311E+03   -0.26096E-01   -0.24693E-01  7696   0.729E+00 0.343E-01
CGA:   4    -0.335316102171E+03   -0.21776E-01   -0.21772E-01  7696   0.781E+00 0.219E-02
CGA:   5    -0.335338938895E+03   -0.22837E-01   -0.23113E-01  7696   0.124E+00-0.517E-01
CGA:   6    -0.335344797690E+03   -0.58588E-02   -0.57705E-02  7696   0.218E+00 0.365E-02
CGA:   7    -0.335349945387E+03   -0.51477E-02   -0.51410E-02  7696   0.155E+00-0.423E-03
CGA:   8    -0.335354791703E+03   -0.48463E-02   -0.48599E-02  7696   0.608E-01-0.203E-02
CGA:   9    -0.335356343386E+03   -0.15517E-02   -0.15516E-02  7696   0.444E-01-0.191E-04
CGA:  10    -0.335357378106E+03   -0.10347E-02   -0.10347E-02  7696   0.239E-01-0.538E-05
CGA:  11    -0.335358802611E+03   -0.14245E-02   -0.14229E-02  7696   0.176E-01 0.516E-04
CGA:  12    -0.335359055224E+03   -0.25261E-03   -0.25319E-03  7696   0.554E-02-0.258E-04
CGA:  13    -0.335359304751E+03   -0.24953E-03   -0.25118E-03  7696   0.601E-02-0.864E-04
CGA:  14    -0.335359500396E+03   -0.19564E-03   -0.19561E-03  7696   0.830E-02 0.359E-05
CGA:  15    -0.335359731977E+03   -0.23158E-03   -0.23157E-03  7696   0.112E-02-0.750E-05
CGA:  16    -0.335359767631E+03   -0.35654E-04   -0.35650E-04  7696   0.185E-02 0.123E-05
CGA:  17    -0.335359845150E+03   -0.77519E-04   -0.77657E-04  7696   0.172E-02-0.978E-05
CGA:  18    -0.335359904730E+03   -0.59580E-04   -0.59582E-04  7696   0.147E-02-0.101E-05
CGA:  19    -0.335359929738E+03   -0.25008E-04   -0.24985E-04  7696   0.339E-03-0.162E-05
CGA:  20    -0.335359943747E+03   -0.14010E-04   -0.14009E-04  7696   0.405E-03 0.104E-06
CGA:  21    -0.335359961015E+03   -0.17267E-04   -0.17280E-04  7696   0.803E-03-0.108E-05
CGA:  22    -0.335359988830E+03   -0.27816E-04   -0.27816E-04  7696   0.407E-03 0.178E-06
CGA:  23    -0.335359999275E+03   -0.10444E-04   -0.10452E-04  7696   0.257E-03 0.135E-05
CGA:  24    -0.335360004403E+03   -0.51287E-05   -0.51532E-05  7696   0.119E-03 0.206E-05
CGA:  25    -0.335360017815E+03   -0.13411E-04   -0.13305E-04  7696   0.418E-03 0.133E-05
CGA:  26    -0.335360025435E+03   -0.76197E-05   -0.76562E-05  7696   0.115E-03 0.187E-05
  75 F= -.33536003E+03 E0= -.33533426E+03  d E =-.425472E-02  mag=    32.0000
       N       E                     dE             d eps       ncg     rms          ort
SDA:   1    -0.335334453456E+03    0.25564E-01    0.00000E+00  7696   0.599E+00 0.000E+00
CGA:   2    -0.335340270455E+03   -0.58170E-02   -0.55844E-02  7696   0.652E-01 0.199E-01
CGA:   3    -0.335345700436E+03   -0.54300E-02   -0.52689E-02  7696   0.141E+00 0.378E-02
CGA:   4    -0.335350452473E+03   -0.47520E-02   -0.47533E-02  7696   0.218E+00 0.205E-03
CGA:   5    -0.335354933077E+03   -0.44806E-02   -0.43997E-02  7696   0.357E-01 0.127E-02
CGA:   6    -0.335355935356E+03   -0.10023E-02   -0.10067E-02  7696   0.457E-01 0.217E-03
CGA:   7    -0.335357193942E+03   -0.12586E-02   -0.12596E-02  7696   0.362E-01 0.366E-04
CGA:   8    -0.335358324551E+03   -0.11306E-02   -0.11297E-02  7696   0.252E-01-0.196E-03
CGA:   9    -0.335358713679E+03   -0.38913E-03   -0.39038E-03  7696   0.863E-02-0.568E-04
CGA:  10    -0.335359029370E+03   -0.31569E-03   -0.31622E-03  7696   0.548E-02-0.770E-04
CGA:  11    -0.335359170416E+03   -0.14105E-03   -0.14098E-03  7696   0.832E-02-0.789E-06
CGA:  12    -0.335359440086E+03   -0.26967E-03   -0.26966E-03  7696   0.106E-02 0.366E-04
CGA:  13    -0.335359468490E+03   -0.28404E-04   -0.28413E-04  7696   0.155E-02 0.150E-05
CGA:  14    -0.335359516893E+03   -0.48404E-04   -0.48400E-04  7696   0.121E-02-0.183E-05
CGA:  15    -0.335359564233E+03   -0.47340E-04   -0.47288E-04  7696   0.114E-02 0.651E-05
CGA:  16    -0.335359580040E+03   -0.15807E-04   -0.15826E-04  7696   0.151E-03 0.132E-05
CGA:  17    -0.335359589116E+03   -0.90761E-05   -0.90601E-05  7696   0.592E-03 0.563E-06
CGA:  18    -0.335359604496E+03   -0.15380E-04   -0.15400E-04  7696   0.184E-03 0.270E-05
CGA:  19    -0.335359609336E+03   -0.48407E-05   -0.48385E-05  7696   0.641E-04-0.870E-07
  76 F= -.33535961E+03 E0= -.33533387E+03  d E =0.416098E-03  mag=    32.0000
       N       E                     dE             d eps       ncg     rms          ort
SDA:   1    -0.335128522613E+03    0.23108E+00    0.00000E+00  7696   0.974E+00 0.000E+00
CGA:   2    -0.335151319331E+03   -0.22797E-01   -0.23149E-01  7696   0.136E+01 0.759E-02
CGA:   3    -0.335245733240E+03   -0.94414E-01   -0.97634E-01  7696   0.224E+01-0.871E-01
CGA:   4    -0.335300022915E+03   -0.54290E-01   -0.54999E-01  7696   0.800E+00 0.243E-01
CGA:   5    -0.335314988610E+03   -0.14966E-01   -0.15713E-01  7696   0.387E+00-0.916E-02
CGA:   6    -0.335328446934E+03   -0.13458E-01   -0.13444E-01  7696   0.320E+00 0.290E-02
CGA:   7    -0.335340810397E+03   -0.12363E-01   -0.12401E-01  7696   0.428E+00-0.409E-02
CGA:   8    -0.335349627255E+03   -0.88169E-02   -0.87840E-02  7696   0.838E-01 0.289E-03
CGA:   9    -0.335351518510E+03   -0.18913E-02   -0.18760E-02  7696   0.619E-01-0.117E-03
CGA:  10    -0.335353736417E+03   -0.22179E-02   -0.22180E-02  7696   0.527E-01-0.126E-04
CGA:  11    -0.335355608027E+03   -0.18716E-02   -0.18719E-02  7696   0.288E-01-0.328E-04
CGA:  12    -0.335356156653E+03   -0.54863E-03   -0.55252E-03  7696   0.111E-01-0.234E-04
CGA:  13    -0.335356515352E+03   -0.35870E-03   -0.35867E-03  7696   0.120E-01 0.179E-04
CGA:  14    -0.335357026203E+03   -0.51085E-03   -0.51050E-03  7696   0.173E-01 0.266E-04
CGA:  15    -0.335357363493E+03   -0.33729E-03   -0.33681E-03  7696   0.260E-02 0.259E-05
CGA:  16    -0.335357437576E+03   -0.74083E-04   -0.74049E-04  7696   0.262E-02-0.442E-05
CGA:  17    -0.335357529461E+03   -0.91885E-04   -0.91883E-04  7696   0.227E-02 0.107E-05
CGA:  18    -0.335357633728E+03   -0.10427E-03   -0.10415E-03  7696   0.233E-02 0.785E-05
CGA:  19    -0.335357674304E+03   -0.40576E-04   -0.40636E-04  7696   0.573E-03-0.586E-06
CGA:  20    -0.335357688735E+03   -0.14430E-04   -0.14436E-04  7696   0.457E-03 0.583E-06
CGA:  21    -0.335357710793E+03   -0.22058E-04   -0.22096E-04  7696   0.962E-03-0.222E-05
CGA:  22    -0.335357740753E+03   -0.29961E-04   -0.29961E-04  7696   0.247E-03 0.241E-06
CGA:  23    -0.335357746607E+03   -0.58540E-05   -0.58406E-05  7696   0.171E-03-0.135E-05
  77 F= -.33535775E+03 E0= -.33533195E+03  d E =0.186273E-02  mag=    32.0000
       N       E                     dE             d eps       ncg     rms          ort
SDA:   1    -0.335281925525E+03    0.75815E-01    0.00000E+00  7696   0.833E+00 0.000E+00
CGA:   2    -0.335292590523E+03   -0.10665E-01   -0.10925E-01  7696   0.361E+00-0.127E-01
CGA:   3    -0.335310533507E+03   -0.17943E-01   -0.19168E-01  7696   0.444E+00-0.504E-01
CGA:   4    -0.335336864256E+03   -0.26331E-01   -0.26370E-01  7696   0.488E+00-0.115E-02
CGA:   5    -0.335344105079E+03   -0.72408E-02   -0.75402E-02  7696   0.131E+00-0.107E-01
CGA:   6    -0.335348344308E+03   -0.42392E-02   -0.42383E-02  7696   0.854E-01 0.165E-02
CGA:   7    -0.335352893792E+03   -0.45495E-02   -0.45269E-02  7696   0.172E+00 0.101E-02
CGA:   8    -0.335356530240E+03   -0.36364E-02   -0.36244E-02  7696   0.510E-01 0.103E-03
CGA:   9    -0.335357633345E+03   -0.11031E-02   -0.11034E-02  7696   0.174E-01 0.985E-05
CGA:  10    -0.335358006324E+03   -0.37298E-03   -0.37323E-03  7696   0.134E-01-0.193E-05
CGA:  11    -0.335359046014E+03   -0.10397E-02   -0.10422E-02  7696   0.106E-01-0.565E-04
CGA:  12    -0.335359214016E+03   -0.16800E-03   -0.16836E-03  7696   0.343E-02-0.132E-04
CGA:  13    -0.335359364287E+03   -0.15027E-03   -0.14994E-03  7696   0.266E-02 0.245E-04
CGA:  14    -0.335359463474E+03   -0.99186E-04   -0.99185E-04  7696   0.446E-02 0.810E-06
CGA:  15    -0.335359590276E+03   -0.12680E-03   -0.12682E-03  7696   0.120E-02 0.249E-05
CGA:  16    -0.335359613982E+03   -0.23706E-04   -0.23648E-04  7696   0.860E-03-0.216E-05
CGA:  17    -0.335359651961E+03   -0.37979E-04   -0.38019E-04  7696   0.913E-03-0.336E-05
CGA:  18    -0.335359687004E+03   -0.35042E-04   -0.35063E-04  7696   0.688E-03-0.383E-05
CGA:  19    -0.335359698872E+03   -0.11868E-04   -0.11890E-04  7696   0.155E-03 0.221E-06
CGA:  20    -0.335359708586E+03   -0.97148E-05   -0.96945E-05  7696   0.346E-03 0.674E-06
CGA:  21    -0.335359720222E+03   -0.11636E-04   -0.11637E-04  7696   0.328E-03 0.841E-06
CGA:  22    -0.335359728002E+03   -0.77800E-05   -0.77610E-05  7696   0.104E-03-0.137E-05
  78 F= -.33535973E+03 E0= -.33533397E+03  d E =-.198139E-02  mag=    32.0000
       N       E                     dE             d eps       ncg     rms          ort
SDA:   1    -0.334549039119E+03    0.81068E+00    0.00000E+00  7696   0.437E+02 0.000E+00
CGA:   2    -0.335002911756E+03   -0.45387E+00   -0.32729E+00  7696   0.386E+01 0.132E+02
CGA:   3    -0.335043155579E+03   -0.40244E-01   -0.35654E-01  7696   0.958E+00 0.536E+00
CGA:   4    -0.335082149541E+03   -0.38994E-01   -0.39226E-01  7696   0.411E+01-0.295E-01
CGA:   5    -0.335147137371E+03   -0.64988E-01   -0.61273E-01  7696   0.558E+01 0.142E+00
CGA:   6    -0.335203998925E+03   -0.56862E-01   -0.58835E-01  7696   0.415E+01-0.142E+00
CGA:   7    -0.335249480045E+03   -0.45481E-01   -0.50774E-01  7696   0.369E+01-0.252E+00
CGA:   8    -0.335283704909E+03   -0.34225E-01   -0.34406E-01  7696   0.112E+01 0.206E-01
CGA:   9    -0.335293720635E+03   -0.10016E-01   -0.92566E-02  7696   0.551E+00 0.752E-01
CGA:  10    -0.335302014413E+03   -0.82938E-02   -0.78111E-02  7696   0.616E+00 0.191E-01
CGA:  11    -0.335309685275E+03   -0.76709E-02   -0.75362E-02  7696   0.642E+00 0.697E-02
CGA:  12    -0.335318340649E+03   -0.86554E-02   -0.88314E-02  7696   0.912E+00-0.535E-02
CGA:  13    -0.335332863311E+03   -0.14523E-01   -0.14600E-01  7696   0.133E+01-0.175E-03
CGA:  14    -0.335345879305E+03   -0.13016E-01   -0.13059E-01  7696   0.481E+00-0.281E-02
CGA:  15    -0.335348979961E+03   -0.31007E-02   -0.30564E-02  7696   0.106E+00 0.566E-02
CGA:  16    -0.335349962373E+03   -0.98241E-03   -0.97699E-03  7696   0.854E-01 0.382E-03
CGA:  17    -0.335351613455E+03   -0.16511E-02   -0.16434E-02  7696   0.176E+00-0.971E-03
CGA:  18    -0.335353567071E+03   -0.19536E-02   -0.19152E-02  7696   0.139E+00 0.165E-02
CGA:  19    -0.335354877352E+03   -0.13103E-02   -0.13072E-02  7696   0.122E+00 0.168E-03
CGA:  20    -0.335356685633E+03   -0.18083E-02   -0.18116E-02  7696   0.194E+00 0.608E-04
CGA:  21    -0.335358574911E+03   -0.18893E-02   -0.19190E-02  7696   0.847E-01-0.153E-02
CGA:  22    -0.335359119469E+03   -0.54456E-03   -0.54663E-03  7696   0.284E-01-0.216E-03
CGA:  23    -0.335359454425E+03   -0.33496E-03   -0.33560E-03  7696   0.380E-01-0.770E-05
CGA:  24    -0.335360060135E+03   -0.60571E-03   -0.60504E-03  7696   0.494E-01-0.780E-04
CGA:  25    -0.335360536971E+03   -0.47684E-03   -0.47433E-03  7696   0.375E-01 0.937E-04
CGA:  26    -0.335361083855E+03   -0.54688E-03   -0.54620E-03  7696   0.636E-01-0.691E-04
CGA:  27    -0.335361893464E+03   -0.80961E-03   -0.80716E-03  7696   0.505E-01-0.663E-04
CGA:  28    -0.335362237017E+03   -0.34355E-03   -0.34518E-03  7696   0.157E-01-0.172E-03
CGA:  29    -0.335362376739E+03   -0.13972E-03   -0.13998E-03  7696   0.129E-01-0.470E-05
CGA:  30    -0.335362552016E+03   -0.17528E-03   -0.17574E-03  7696   0.155E-01 0.458E-04
CGA:  31    -0.335362714378E+03   -0.16236E-03   -0.16260E-03  7696   0.133E-01 0.159E-05
SDA:  32    -0.335362916910E+03   -0.20253E-03   -0.20250E-03  7696   0.242E-01-0.153E-04
CGA:  33    -0.335363210766E+03   -0.29386E-03   -0.29383E-03  7696   0.546E-02-0.112E-05
CGA:  34    -0.335363337116E+03   -0.12635E-03   -0.12673E-03  7696   0.294E-02-0.447E-04
CGA:  35    -0.335363679391E+03   -0.34227E-03   -0.32711E-04  7696   0.435E-02 0.294E-03
CGA:  36    -0.335363773895E+03   -0.94504E-04   -0.94433E-04  7696   0.284E-02 0.184E-05
CGA:  37    -0.335363879461E+03   -0.10557E-03   -0.10555E-03  7696   0.142E-02 0.179E-05
CGA:  38    -0.335363975952E+03   -0.96491E-04   -0.96567E-04  7696   0.260E-02-0.227E-05
CGA:  39    -0.335364019734E+03   -0.43782E-04   -0.43796E-04  7696   0.106E-02 0.149E-05
CGA:  40    -0.335364051017E+03   -0.31283E-04   -0.31301E-04  7696   0.232E-03 0.848E-05
CGA:  41    -0.335364058758E+03   -0.77404E-05   -0.77401E-05  7696   0.461E-03 0.149E-06
CGA:  42    -0.335364089744E+03   -0.30986E-04   -0.30867E-04  7696   0.518E-03 0.332E-05
CGA:  43    -0.335364105367E+03   -0.15623E-04   -0.15636E-04  7696   0.174E-03 0.376E-05
CGA:  44    -0.335364109844E+03   -0.44774E-05   -0.44808E-05  7696   0.233E-03 0.418E-06
  79 F= -.33536411E+03 E0= -.33533852E+03  d E =-.438184E-02  mag=    32.0000
       N       E                     dE             d eps       ncg     rms          ort
SDA:   1    -0.335273612484E+03    0.90493E-01    0.00000E+00  7696   0.474E+01 0.000E+00
CGA:   2    -0.335314458940E+03   -0.40846E-01   -0.48333E-01  7696   0.427E+00-0.577E+00
CGA:   3    -0.335324208829E+03   -0.97499E-02   -0.98651E-02  7696   0.246E+00 0.707E-02
CGA:   4    -0.335331188184E+03   -0.69794E-02   -0.69926E-02  7696   0.266E+00 0.160E-02
CGA:   5    -0.335345981141E+03   -0.14793E-01   -0.14827E-01  7696   0.418E+00-0.131E-02
CGA:   6    -0.335354866442E+03   -0.88853E-02   -0.88855E-02  7696   0.114E+00 0.249E-04
CGA:   7    -0.335357444215E+03   -0.25778E-02   -0.25661E-02  7696   0.546E-01-0.133E-03
CGA:   8    -0.335358945693E+03   -0.15015E-02   -0.14983E-02  7696   0.464E-01-0.306E-03
CGA:   9    -0.335361073389E+03   -0.21277E-02   -0.21352E-02  7696   0.723E-01-0.408E-03
CGA:  10    -0.335362794885E+03   -0.17215E-02   -0.17237E-02  7696   0.194E-01 0.555E-04
CGA:  11    -0.335363149734E+03   -0.35485E-03   -0.35481E-03  7696   0.624E-02-0.343E-05
CGA:  12    -0.335363352873E+03   -0.20314E-03   -0.20307E-03  7696   0.722E-02 0.234E-04
CGA:  13    -0.335363640408E+03   -0.28754E-03   -0.28763E-03  7696   0.691E-02-0.581E-05
CGA:  14    -0.335363787246E+03   -0.14684E-03   -0.14692E-03  7696   0.240E-02 0.684E-05
CGA:  15    -0.335363846876E+03   -0.59630E-04   -0.59606E-04  7696   0.137E-02-0.134E-05
CGA:  16    -0.335363887915E+03   -0.41038E-04   -0.41040E-04  7696   0.133E-02 0.286E-05
CGA:  17    -0.335363945295E+03   -0.57381E-04   -0.57317E-04  7696   0.133E-02 0.507E-05
CGA:  18    -0.335363970510E+03   -0.25215E-04   -0.25276E-04  7696   0.335E-03 0.397E-05
CGA:  19    -0.335363981239E+03   -0.10729E-04   -0.10729E-04  7696   0.442E-03-0.352E-06
CGA:  20    -0.335363999262E+03   -0.18024E-04   -0.18014E-04  7696   0.404E-03 0.871E-06
CGA:  21    -0.335364009232E+03   -0.99701E-05   -0.99618E-05  7696   0.201E-03-0.112E-05
  80 F= -.33536401E+03 E0= -.33533830E+03  d E =0.100612E-03  mag=    32.0000
       N       E                     dE             d eps       ncg     rms          ort
SDA:   1    -0.335316465366E+03    0.47534E-01    0.00000E+00  7696   0.179E+01 0.000E+00
CGA:   2    -0.335332228508E+03   -0.15763E-01   -0.16871E-01  7696   0.121E+00-0.926E-01
CGA:   3    -0.335339029773E+03   -0.68013E-02   -0.67503E-02  7696   0.278E+00 0.172E-02
CGA:   4    -0.335348705122E+03   -0.96753E-02   -0.96643E-02  7696   0.299E+00 0.191E-02
CGA:   5    -0.335355195703E+03   -0.64906E-02   -0.64318E-02  7696   0.441E-01-0.324E-03
CGA:   6    -0.335356650213E+03   -0.14545E-02   -0.14544E-02  7696   0.719E-01 0.376E-04
CGA:   7    -0.335359259818E+03   -0.26096E-02   -0.26145E-02  7696   0.477E-01-0.561E-03
CGA:   8    -0.335360899101E+03   -0.16393E-02   -0.16389E-02  7696   0.335E-01 0.739E-04
CGA:   9    -0.335361442214E+03   -0.54311E-03   -0.54293E-03  7696   0.846E-02 0.402E-05
CGA:  10    -0.335361785125E+03   -0.34291E-03   -0.34216E-03  7696   0.855E-02 0.602E-04
CGA:  11    -0.335362038002E+03   -0.25288E-03   -0.25284E-03  7696   0.961E-02-0.103E-04
CGA:  12    -0.335362323822E+03   -0.28582E-03   -0.28579E-03  7696   0.232E-02-0.137E-04
CGA:  13    -0.335362374391E+03   -0.50569E-04   -0.50546E-04  7696   0.163E-02 0.626E-06
CGA:  14    -0.335362428598E+03   -0.54208E-04   -0.54178E-04  7696   0.158E-02 0.941E-05
CGA:  15    -0.335362498605E+03   -0.70007E-04   -0.69892E-04  7696   0.113E-02 0.851E-05
CGA:  16    -0.335362515335E+03   -0.16729E-04   -0.16796E-04  7696   0.293E-03 0.246E-05
CGA:  17    -0.335362538916E+03   -0.23582E-04   -0.23554E-04  7696   0.846E-03 0.509E-06
CGA:  18    -0.335362556894E+03   -0.17978E-04   -0.18002E-04  7696   0.308E-03 0.163E-05
CGA:  19    -0.335362564705E+03   -0.78110E-05   -0.78081E-05  7696   0.108E-03-0.280E-06
  81 F= -.33536256E+03 E0= -.33533680E+03  d E =0.144453E-02  mag=    32.0000
       N       E                     dE             d eps       ncg     rms          ort
SDA:   1    -0.335329508772E+03    0.33048E-01    0.00000E+00  7696   0.242E+01 0.000E+00
CGA:   2    -0.335349772648E+03   -0.20264E-01   -0.22418E-01  7696   0.825E-01-0.187E+00
CGA:   3    -0.335351690517E+03   -0.19179E-02   -0.19124E-02  7696   0.690E-01-0.297E-03
CGA:   4    -0.335354682470E+03   -0.29920E-02   -0.29821E-02  7696   0.124E+00 0.602E-03
CGA:   5    -0.335359163810E+03   -0.44813E-02   -0.44840E-02  7696   0.474E-01-0.350E-03
CGA:   6    -0.335359956413E+03   -0.79260E-03   -0.79555E-03  7696   0.197E-01-0.686E-04
CGA:   7    -0.335360828977E+03   -0.87256E-03   -0.87673E-03  7696   0.269E-01-0.241E-03
CGA:   8    -0.335361790395E+03   -0.96142E-03   -0.96098E-03  7696   0.288E-01 0.611E-04
CGA:   9    -0.335362365010E+03   -0.57461E-03   -0.57407E-03  7696   0.346E-02 0.967E-05
CGA:  10    -0.335362444253E+03   -0.79242E-04   -0.79280E-04  7696   0.350E-02 0.241E-05
CGA:  11    -0.335362649792E+03   -0.20554E-03   -0.20605E-03  7696   0.349E-02-0.178E-04
CGA:  12    -0.335362715510E+03   -0.65719E-04   -0.65806E-04  7696   0.155E-02 0.104E-05
CGA:  13    -0.335362761077E+03   -0.45566E-04   -0.45584E-04  7696   0.627E-03 0.532E-05
CGA:  14    -0.335362775812E+03   -0.14735E-04   -0.14757E-04  7696   0.575E-03 0.243E-05
CGA:  15    -0.335362807511E+03   -0.31699E-04   -0.31662E-04  7696   0.635E-03 0.151E-05
CGA:  16    -0.335362819240E+03   -0.11730E-04   -0.11743E-04  7696   0.188E-03 0.708E-06
CGA:  17    -0.335362824430E+03   -0.51892E-05   -0.51851E-05  7696   0.166E-03-0.103E-05
  82 F= -.33536282E+03 E0= -.33533708E+03  d E =-.259724E-03  mag=    32.0000
