       N       E                     dE             d eps       ncg     rms          rms(c)
DAV:   1     0.700452266510E+04    0.70045E+04   -0.28435E+05 38448   0.160E+03
DAV:   2     0.481309032004E+03   -0.65232E+04   -0.60602E+04 37976   0.482E+02
DAV:   3    -0.383244297026E+03   -0.86455E+03   -0.85032E+03 39320   0.188E+02
DAV:   4    -0.422408559833E+03   -0.39164E+02   -0.38719E+02 46504   0.371E+01
DAV:   5    -0.425027883436E+03   -0.26193E+01   -0.26018E+01 63272   0.689E+00    0.571E+01
DAV:   6    -0.380314503094E+03    0.44713E+02   -0.23942E+02 46080   0.359E+01    0.485E+01
DAV:   7    -0.381751354354E+03   -0.14369E+01   -0.43663E+01 42944   0.182E+01    0.385E+01
DAV:   8    -0.381599016381E+03    0.15234E+00   -0.11219E+01 43360   0.808E+00    0.289E+01
DAV:   9    -0.383699517513E+03   -0.21005E+01   -0.38467E+01 45136   0.119E+01    0.429E+01
DAV:  10    -0.382959529121E+03    0.73999E+00   -0.28253E+01 41264   0.177E+01    0.237E+01
DAV:  11    -0.380194412458E+03    0.27651E+01   -0.72911E+00 43328   0.582E+00    0.209E+01
DAV:  12    -0.380655385166E+03   -0.46097E+00   -0.19264E+00 42568   0.406E+00    0.134E+01
DAV:  13    -0.380570074268E+03    0.85311E-01   -0.44371E+00 45152   0.325E+00    0.117E+01
DAV:  14    -0.380900541361E+03   -0.33047E+00   -0.10400E+00 45016   0.183E+00    0.118E+01
DAV:  15    -0.380951143331E+03   -0.50602E-01   -0.93662E-02 39136   0.775E-01    0.105E+01
DAV:  16    -0.381048955440E+03   -0.97812E-01   -0.11706E-01 47520   0.888E-01    0.979E+00
DAV:  17    -0.381260619072E+03   -0.21166E+00   -0.12480E-01 44016   0.981E-01    0.795E+00
DAV:  18    -0.381396637278E+03   -0.13602E+00   -0.38019E-01 47680   0.110E+00    0.679E+00
DAV:  19    -0.381405246720E+03   -0.86094E-02   -0.87919E-02 40848   0.597E-01    0.516E+00
DAV:  20    -0.381376978196E+03    0.28269E-01   -0.71452E-02 46896   0.901E-01    0.324E+00
DAV:  21    -0.381377722861E+03   -0.74467E-03   -0.41797E-02 46008   0.531E-01    0.328E+00
DAV:  22    -0.381372559126E+03    0.51637E-02   -0.93993E-03 43480   0.352E-01    0.316E+00
DAV:  23    -0.381361205805E+03    0.11353E-01   -0.19863E-02 47384   0.337E-01    0.180E+00
DAV:  24    -0.381359566049E+03    0.16398E-02   -0.11863E-02 44288   0.311E-01    0.109E+00
DAV:  25    -0.381359932507E+03   -0.36646E-03   -0.16951E-02 46024   0.365E-01    0.315E-01
DAV:  26    -0.381360822891E+03   -0.89038E-03   -0.32999E-03 40104   0.137E-01    0.314E-01
DAV:  27    -0.381360475889E+03    0.34700E-03   -0.76999E-04 42368   0.842E-02    0.258E-01
DAV:  28    -0.381360302595E+03    0.17329E-03   -0.41470E-04 40952   0.554E-02    0.177E-01
DAV:  29    -0.381360208503E+03    0.94092E-04   -0.37844E-04 39992   0.461E-02    0.824E-02
DAV:  30    -0.381360182496E+03    0.26008E-04   -0.10392E-04 36544   0.248E-02    0.917E-02
DAV:  31    -0.381360188384E+03   -0.58886E-05   -0.42988E-05 31272   0.205E-02
   1 F= -.38136019E+03 E0= -.38135302E+03  d E =-.381360E+03  mag=    58.0266
