       N       E                     dE             d eps       ncg     rms          rms(c)
DAV:   1     0.532481312482E+04    0.53248E+04   -0.22194E+05 28720   0.160E+03
DAV:   2     0.429169894395E+03   -0.48956E+04   -0.45426E+04 30048   0.467E+02
DAV:   3    -0.318534211428E+03   -0.74770E+03   -0.69591E+03 31416   0.186E+02
DAV:   4    -0.354039976344E+03   -0.35506E+02   -0.34696E+02 32864   0.420E+01
DAV:   5    -0.355293059612E+03   -0.12531E+01   -0.12376E+01 43208   0.745E+00    0.297E-01
DAV:   6    -0.355366120204E+03   -0.73061E-01   -0.36408E-01 43848   0.110E+00    0.901E-01
DAV:   7    -0.355366194728E+03   -0.74524E-04   -0.16138E-02 43760   0.335E-01    0.545E-01
DAV:   8    -0.355366171271E+03    0.23457E-04   -0.26604E-03 39680   0.156E-01    0.419E-01
DAV:   9    -0.355366054474E+03    0.11680E-03   -0.16744E-03 38888   0.989E-02    0.292E-01
DAV:  10    -0.355365939742E+03    0.11473E-03   -0.80946E-04 30544   0.579E-02    0.129E-01
DAV:  11    -0.355365946247E+03   -0.65050E-05   -0.12123E-04 24208   0.305E-02    0.108E-01
DAV:  12    -0.355365938733E+03    0.75140E-05   -0.60022E-05 21024   0.232E-02
   1 F= -.35536594E+03 E0= -.35535004E+03  d E =-.355366E+03  mag=     8.0000
       N       E                     dE             d eps       ncg     rms          rms(c)
DAV:   1    -0.355368258354E+03   -0.23121E-02   -0.27357E-01 30096   0.163E+00    0.457E-01
DAV:   2    -0.355367315662E+03    0.94269E-03   -0.20649E-02 30456   0.418E-01    0.494E-01
DAV:   3    -0.355369226683E+03   -0.19110E-02   -0.13800E-02 37304   0.274E-01    0.114E+00
DAV:   4    -0.355367208780E+03    0.20179E-02   -0.15563E-02 36112   0.245E-01    0.683E-01
DAV:   5    -0.355366933297E+03    0.27548E-03   -0.47748E-03 38320   0.195E-01    0.537E-01
DAV:   6    -0.355366791174E+03    0.14212E-03   -0.21843E-03 38720   0.158E-01    0.440E-01
DAV:   7    -0.355366614355E+03    0.17682E-03   -0.11393E-03 39008   0.118E-01    0.287E-01
DAV:   8    -0.355366458231E+03    0.15612E-03   -0.54482E-04 32128   0.681E-02    0.813E-02
DAV:   9    -0.355366463452E+03   -0.52211E-05   -0.63952E-05 22160   0.307E-02
   2 F= -.35536646E+03 E0= -.35535055E+03  d E =-.524719E-03  mag=     8.0000
       N       E                     dE             d eps       ncg     rms          rms(c)
DAV:   1    -0.355366475953E+03   -0.17722E-04   -0.22034E-03 30024   0.148E-01    0.983E-02
DAV:   2    -0.355367290805E+03   -0.81485E-03   -0.14619E-03 37696   0.131E-01    0.687E-01
DAV:   3    -0.355366385911E+03    0.90489E-03   -0.11153E-03 35664   0.114E-01    0.618E-02
DAV:   4    -0.355366458123E+03   -0.72213E-04   -0.80626E-05 24224   0.311E-02    0.846E-02
DAV:   5    -0.355366458427E+03   -0.30368E-06   -0.11894E-04 20720   0.262E-02    0.892E-02
DAV:   6    -0.355366449515E+03    0.89123E-05   -0.11240E-04 19904   0.234E-02    0.637E-02
DAV:   7    -0.355366445774E+03    0.37411E-05   -0.47887E-05 18920   0.166E-02
   3 F= -.35536645E+03 E0= -.35535052E+03  d E =-.507040E-03  mag=     8.0000
