       N       E                     dE             d eps       ncg     rms          rms(c)
DAV:   1     0.536026446474E+04    0.53603E+04   -0.25904E+05126640   0.166E+03
DAV:   2    -0.939253419677E+01   -0.53697E+04   -0.49431E+04127520   0.484E+02
DAV:   3    -0.600152835802E+03   -0.59076E+03   -0.57764E+03126920   0.177E+02
DAV:   4    -0.613898109240E+03   -0.13745E+02   -0.13701E+02128760   0.288E+01
DAV:   5    -0.614080750892E+03   -0.18264E+00   -0.18258E+00143820   0.328E+00    0.121E+01
RMM:   6    -0.488420468271E+03    0.12566E+03   -0.38666E+01118035   0.147E+01    0.166E+01
RMM:   7    -0.488583604551E+03   -0.16314E+00   -0.28848E+00117891   0.387E+00    0.556E+00
RMM:   8    -0.488348718665E+03    0.23489E+00   -0.24236E-01119075   0.120E+00    0.529E+00
RMM:   9    -0.488226864097E+03    0.12185E+00   -0.98339E-02117650   0.818E-01    0.360E+00
RMM:  10    -0.488182056113E+03    0.44808E-01   -0.51605E-02117643   0.576E-01    0.283E+00
RMM:  11    -0.488158006425E+03    0.24050E-01   -0.22755E-02117635   0.382E-01    0.216E+00
RMM:  12    -0.488145403566E+03    0.12603E-01   -0.11648E-02117615   0.264E-01    0.174E+00
RMM:  13    -0.488138794321E+03    0.66092E-02   -0.45547E-03117620   0.168E-01    0.144E+00
RMM:  14    -0.488129393072E+03    0.94012E-02   -0.10922E-02135076   0.249E-01    0.888E-01
RMM:  15    -0.488126074091E+03    0.33190E-02   -0.48448E-03118062   0.173E-01    0.596E-01
RMM:  16    -0.488124199469E+03    0.18746E-02   -0.31667E-03117608   0.134E-01    0.364E-01
RMM:  17    -0.488123545129E+03    0.65434E-03   -0.12659E-03117638   0.860E-02    0.220E-01
RMM:  18    -0.488123379537E+03    0.16559E-03   -0.40091E-04117617   0.498E-02    0.128E-01
RMM:  19    -0.488123259454E+03    0.12008E-03   -0.19965E-04117605   0.353E-02    0.605E-02
RMM:  20    -0.488123190025E+03    0.69429E-04   -0.14504E-04117628   0.292E-02    0.955E-03
RMM:  21    -0.488123182207E+03    0.78181E-05   -0.18320E-05 67778   0.110E-02
   1 F= -.48812318E+03 E0= -.48812318E+03  d E =-.488123E+03  mag=    42.0000
