       N       E                     dE             d eps       ncg     rms          ort
DAV:   1     0.699897020069E+04    0.69990E+04   -0.30525E+05  9152   0.168E+03
DAV:   2     0.481277091694E+03   -0.65177E+04   -0.60549E+04  9152   0.482E+02
DAV:   3    -0.384648640968E+03   -0.86593E+03   -0.85179E+03  9152   0.188E+02
DAV:   4    -0.422194744755E+03   -0.37546E+02   -0.37097E+02  9152   0.371E+01
DAV:   5    -0.424830537837E+03   -0.26358E+01   -0.26157E+01  9152   0.689E+00
SDA:   6    -0.280627369615E+03    0.14420E+03   -0.26157E+01  9152   0.811E+03 0.000E+00
CGA:   7    -0.365102125913E+03   -0.84475E+02   -0.92423E+02  9152   0.111E+03-0.341E+00
CGA:   8    -0.372542723193E+03   -0.74406E+01   -0.11991E+02  9152   0.404E+02 0.218E+01
CGA:   9    -0.373894182849E+03   -0.13515E+01   -0.26604E+01  9152   0.756E+02-0.176E+02
CGA:  10    -0.374769195472E+03   -0.87501E+00   -0.22622E+01  9152   0.577E+02-0.157E+02
CGA:  11    -0.374577560444E+03    0.19164E+00   -0.27622E+01  9152   0.565E+02-0.289E+02
CGA:  12    -0.376227986114E+03   -0.16504E+01   -0.42828E+01  9152   0.510E+02-0.236E+02
CGA:  13    -0.377649905735E+03   -0.14219E+01   -0.20274E+01  9152   0.101E+03 0.173E+02
CGA:  14    -0.373425001747E+03    0.42249E+01   -0.73273E+01  9152   0.771E+02-0.564E+02
CGA:  15    -0.379225673755E+03   -0.58007E+01   -0.44198E+01  9152   0.173E+02-0.278E+02
CGA:  16    -0.379931035984E+03   -0.70536E+00   -0.76371E+00  9152   0.126E+02-0.145E+01
CGA:  17    -0.380568374193E+03   -0.63734E+00   -0.71211E+00  9152   0.297E+01-0.370E+00
CGA:  18    -0.380724978258E+03   -0.15660E+00   -0.97868E-01  9152   0.926E+00 0.154E+01
CGA:  19    -0.380826436386E+03   -0.10146E+00   -0.98852E-01  9152   0.195E+01-0.191E-01
CGA:  20    -0.381014729687E+03   -0.18829E+00   -0.16039E+00  9152   0.882E+00 0.225E+00
CGA:  21    -0.381081990222E+03   -0.67261E-01   -0.66131E-01  9152   0.108E+01 0.185E-01
CGA:  22    -0.381147195756E+03   -0.65206E-01   -0.64511E-01  9152   0.826E+00 0.252E-01
CGA:  23    -0.381207073922E+03   -0.59878E-01   -0.57522E-01  9152   0.345E+00 0.261E-01
CGA:  24    -0.381231599405E+03   -0.24525E-01   -0.25018E-01  9152   0.205E+00-0.189E-02
CGA:  25    -0.381245027524E+03   -0.13428E-01   -0.14107E-01  9152   0.207E+00-0.288E-02
CGA:  26    -0.381263219023E+03   -0.18191E-01   -0.18940E-01  9152   0.637E-01 0.752E-02
CGA:  27    -0.381270603222E+03   -0.73842E-02   -0.74133E-02  9152   0.368E-01 0.246E-02
CGA:  28    -0.381273908279E+03   -0.33051E-02   -0.33649E-02  9152   0.179E-01 0.310E-03
CGA:  29    -0.381275701064E+03   -0.17928E-02   -0.18027E-02  9152   0.263E-01 0.155E-03
CGA:  30    -0.381278509163E+03   -0.28081E-02   -0.28241E-02  9152   0.113E-01 0.668E-03
CGA:  31    -0.381280304929E+03   -0.17958E-02   -0.17924E-02  9152   0.634E-02 0.222E-04
CGA:  32    -0.381281059702E+03   -0.75477E-03   -0.75459E-03  9152   0.997E-02 0.655E-05
CGA:  33    -0.381281886390E+03   -0.82669E-03   -0.82498E-03  9152   0.224E-02-0.787E-04
CGA:  34    -0.381282239876E+03   -0.35349E-03   -0.35336E-03  9152   0.237E-02-0.330E-05
CGA:  35    -0.381282458989E+03   -0.21911E-03   -0.21867E-03  9152   0.187E-02-0.104E-04
CGA:  36    -0.381282602151E+03   -0.14316E-03   -0.14335E-03  9152   0.619E-03-0.526E-05
CGA:  37    -0.381282750005E+03   -0.14785E-03   -0.14898E-03  9152   0.882E-03-0.903E-05
CGA:  38    -0.381282817879E+03   -0.67874E-04   -0.67788E-04  9152   0.583E-03-0.624E-05
CGA:  39    -0.381282868859E+03   -0.50980E-04   -0.50847E-04  9152   0.243E-03-0.488E-05
CGA:  40    -0.381282922138E+03   -0.53279E-04   -0.53701E-04  9152   0.330E-03-0.405E-05
CGA:  41    -0.381282941771E+03   -0.19632E-04   -0.19542E-04  9152   0.151E-03-0.890E-06
CGA:  42    -0.381282965368E+03   -0.23598E-04   -0.23583E-04  9152   0.923E-04 0.290E-06
CGA:  43    -0.381282978125E+03   -0.12757E-04   -0.12724E-04  9152   0.108E-03 0.181E-05
CGA:  44    -0.381282986131E+03   -0.80053E-05   -0.80619E-05  9152   0.591E-04 0.139E-05
   1 F= -.38128299E+03 E0= -.38127646E+03  d E =-.381283E+03  mag=    58.0000
       N       E                     dE             d eps       ncg     rms          ort
SDA:   1    -0.381282488722E+03    0.48940E-03    0.00000E+00  9152   0.152E-01 0.000E+00
CGA:   2    -0.381282997709E+03   -0.50899E-03   -0.51604E-03  9152   0.108E-02-0.166E-03
CGA:   3    -0.381283060687E+03   -0.62978E-04   -0.62876E-04  9152   0.126E-03 0.160E-05
CGA:   4    -0.381283083676E+03   -0.22990E-04   -0.22866E-04  9152   0.745E-04 0.179E-05
CGA:   5    -0.381283091873E+03   -0.81970E-05   -0.82048E-05  9152   0.957E-04 0.100E-05
   2 F= -.38128309E+03 E0= -.38127658E+03  d E =-.105743E-03  mag=    58.0000
       N       E                     dE             d eps       ncg     rms          ort
SDA:   1    -0.381264069916E+03    0.19014E-01    0.00000E+00  9152   0.723E-01 0.000E+00
CGA:   2    -0.381274628893E+03   -0.10559E-01   -0.10557E-01  9152   0.731E-01 0.515E-04
CGA:   3    -0.381278716033E+03   -0.40871E-02   -0.40587E-02  9152   0.289E-01 0.240E-03
CGA:   4    -0.381282818728E+03   -0.41027E-02   -0.41056E-02  9152   0.117E-01-0.697E-04
CGA:   5    -0.381284134457E+03   -0.13157E-02   -0.13157E-02  9152   0.519E-02 0.172E-05
CGA:   6    -0.381284547097E+03   -0.41264E-03   -0.41294E-03  9152   0.359E-02 0.175E-05
CGA:   7    -0.381284786276E+03   -0.23918E-03   -0.23906E-03  9152   0.701E-03 0.755E-06
CGA:   8    -0.381284897125E+03   -0.11085E-03   -0.11080E-03  9152   0.386E-03 0.110E-05
CGA:   9    -0.381284927883E+03   -0.30758E-04   -0.30762E-04  9152   0.292E-03 0.116E-06
CGA:  10    -0.381284951091E+03   -0.23207E-04   -0.23227E-04  9152   0.116E-03 0.487E-06
CGA:  11    -0.381284970528E+03   -0.19437E-04   -0.19422E-04  9152   0.636E-04 0.266E-06
CGA:  12    -0.381284976672E+03   -0.61438E-05   -0.61461E-05  9152   0.803E-04 0.136E-06
   3 F= -.38128498E+03 E0= -.38127847E+03  d E =-.188480E-02  mag=    58.0000
       N       E                     dE             d eps       ncg     rms          ort
SDA:   1    -0.381229685910E+03    0.55285E-01    0.00000E+00  9152   0.199E+00 0.000E+00
CGA:   2    -0.381256763413E+03   -0.27078E-01   -0.27089E-01  9152   0.222E+00-0.301E-03
CGA:   3    -0.381269109519E+03   -0.12346E-01   -0.12444E-01  9152   0.773E-01-0.110E-02
CGA:   4    -0.381281070788E+03   -0.11961E-01   -0.11972E-01  9152   0.303E-01-0.183E-03
CGA:   5    -0.381284336411E+03   -0.32656E-02   -0.32662E-02  9152   0.165E-01 0.811E-04
CGA:   6    -0.381285462305E+03   -0.11259E-02   -0.11247E-02  9152   0.899E-02 0.170E-05
CGA:   7    -0.381286172694E+03   -0.71039E-03   -0.71071E-03  9152   0.190E-02 0.263E-05
CGA:   8    -0.381286471164E+03   -0.29847E-03   -0.29845E-03  9152   0.125E-02 0.444E-06
CGA:   9    -0.381286547827E+03   -0.76663E-04   -0.76769E-04  9152   0.664E-03 0.267E-06
CGA:  10    -0.381286620139E+03   -0.72312E-04   -0.72311E-04  9152   0.303E-03 0.647E-06
CGA:  11    -0.381286664112E+03   -0.43973E-04   -0.43972E-04  9152   0.203E-03 0.102E-06
CGA:  12    -0.381286678546E+03   -0.14434E-04   -0.14421E-04  9152   0.158E-03-0.215E-06
CGA:  13    -0.381286701454E+03   -0.22907E-04   -0.22912E-04  9152   0.747E-04-0.103E-06
CGA:  14    -0.381286711233E+03   -0.97797E-05   -0.97827E-05  9152   0.811E-04-0.149E-06
   4 F= -.38128671E+03 E0= -.38128021E+03  d E =-.173456E-02  mag=    58.0000
       N       E                     dE             d eps       ncg     rms          ort
SDA:   1    -0.381272428693E+03    0.14273E-01    0.00000E+00  9152   0.954E-01 0.000E+00
CGA:   2    -0.381277016777E+03   -0.45881E-02   -0.46423E-02  9152   0.448E-01-0.730E-03
CGA:   3    -0.381282613351E+03   -0.55966E-02   -0.55978E-02  9152   0.190E-01-0.411E-04
CGA:   4    -0.381285165925E+03   -0.25526E-02   -0.25530E-02  9152   0.111E-01-0.118E-04
CGA:   5    -0.381286249297E+03   -0.10834E-02   -0.10832E-02  9152   0.715E-02-0.904E-05
CGA:   6    -0.381286637303E+03   -0.38801E-03   -0.38859E-03  9152   0.183E-02-0.507E-05
CGA:   7    -0.381286907635E+03   -0.27033E-03   -0.27032E-03  9152   0.505E-03 0.459E-06
CGA:   8    -0.381286953889E+03   -0.46254E-04   -0.46261E-04  9152   0.502E-03 0.508E-06
CGA:   9    -0.381286993313E+03   -0.39424E-04   -0.39418E-04  9152   0.159E-03 0.227E-09
CGA:  10    -0.381287012183E+03   -0.18870E-04   -0.18868E-04  9152   0.813E-04 0.150E-06
CGA:  11    -0.381287022250E+03   -0.10066E-04   -0.10070E-04  9152   0.106E-03-0.225E-06
CGA:  12    -0.381287029602E+03   -0.73520E-05   -0.73526E-05  9152   0.311E-04 0.172E-07
   5 F= -.38128703E+03 E0= -.38128052E+03  d E =-.318368E-03  mag=    58.0000
       N       E                     dE             d eps       ncg     rms          ort
SDA:   1    -0.381264104769E+03    0.22917E-01    0.00000E+00  9152   0.109E+00 0.000E+00
CGA:   2    -0.381271274189E+03   -0.71694E-02   -0.71270E-02  9152   0.835E-01 0.140E-03
CGA:   3    -0.381279480841E+03   -0.82067E-02   -0.82084E-02  9152   0.385E-01 0.778E-04
CGA:   4    -0.381284030804E+03   -0.45500E-02   -0.45485E-02  9152   0.154E-01 0.802E-04
CGA:   5    -0.381286202591E+03   -0.21718E-02   -0.21718E-02  9152   0.409E-02-0.872E-06
CGA:   6    -0.381286562028E+03   -0.35944E-03   -0.35928E-03  9152   0.404E-02-0.222E-05
CGA:   7    -0.381286845623E+03   -0.28360E-03   -0.28363E-03  9152   0.624E-03 0.120E-05
CGA:   8    -0.381286938476E+03   -0.92852E-04   -0.92818E-04  9152   0.363E-03 0.731E-06
CGA:   9    -0.381286973762E+03   -0.35287E-04   -0.35292E-04  9152   0.249E-03 0.455E-06
CGA:  10    -0.381286989062E+03   -0.15300E-04   -0.15293E-04  9152   0.100E-03-0.921E-08
CGA:  11    -0.381287005517E+03   -0.16455E-04   -0.16444E-04  9152   0.448E-04 0.180E-06
CGA:  12    -0.381287011538E+03   -0.60210E-05   -0.60275E-05  9152   0.556E-04-0.245E-06
   6 F= -.38128701E+03 E0= -.38128051E+03  d E =0.180638E-04  mag=    58.0000
       N       E                     dE             d eps       ncg     rms          ort
SDA:   1    -0.381244047389E+03    0.42958E-01    0.00000E+00  9152   0.133E+00 0.000E+00
CGA:   2    -0.381259604862E+03   -0.15557E-01   -0.15541E-01  9152   0.211E+00 0.112E-02
CGA:   3    -0.381275675041E+03   -0.16070E-01   -0.16041E-01  9152   0.570E-01-0.114E-03
CGA:   4    -0.381283109119E+03   -0.74341E-02   -0.74357E-02  9152   0.228E-01-0.477E-04
CGA:   5    -0.381285341956E+03   -0.22328E-02   -0.22328E-02  9152   0.948E-02-0.490E-05
CGA:   6    -0.381285909806E+03   -0.56785E-03   -0.56942E-03  9152   0.477E-02-0.769E-05
CGA:   7    -0.381286403815E+03   -0.49401E-03   -0.49401E-03  9152   0.100E-02 0.152E-05
CGA:   8    -0.381286539125E+03   -0.13531E-03   -0.13535E-03  9152   0.874E-03-0.839E-06
CGA:   9    -0.381286591031E+03   -0.51906E-04   -0.51851E-04  9152   0.340E-03-0.266E-06
CGA:  10    -0.381286627559E+03   -0.36528E-04   -0.36529E-04  9152   0.122E-03-0.196E-06
CGA:  11    -0.381286644891E+03   -0.17332E-04   -0.17344E-04  9152   0.115E-03-0.322E-06
CGA:  12    -0.381286651747E+03   -0.68562E-05   -0.68606E-05  9152   0.478E-04 0.103E-06
   7 F= -.38128665E+03 E0= -.38128014E+03  d E =0.359791E-03  mag=    58.0000
       N       E                     dE             d eps       ncg     rms          ort
SDA:   1    -0.380984403904E+03    0.30224E+00    0.00000E+00  9152   0.860E+00 0.000E+00
CGA:   2    -0.381117980200E+03   -0.13358E+00   -0.13433E+00  9152   0.151E+01-0.116E-01
CGA:   3    -0.381212085947E+03   -0.94106E-01   -0.95280E-01  9152   0.490E+00-0.121E-01
CGA:   4    -0.381257606485E+03   -0.45521E-01   -0.45542E-01  9152   0.158E+00 0.669E-03
CGA:   5    -0.381278425185E+03   -0.20819E-01   -0.20827E-01  9152   0.321E-01-0.219E-03
CGA:   6    -0.381282635014E+03   -0.42098E-02   -0.42123E-02  9152   0.307E-01-0.682E-04
CGA:   7    -0.381284139488E+03   -0.15045E-02   -0.15092E-02  9152   0.601E-02-0.525E-04
CGA:   8    -0.381285096692E+03   -0.95720E-03   -0.95728E-03  9152   0.262E-02-0.107E-05
CGA:   9    -0.381285380264E+03   -0.28357E-03   -0.28357E-03  9152   0.142E-02 0.155E-05
CGA:  10    -0.381285480887E+03   -0.10062E-03   -0.10052E-03  9152   0.954E-03-0.465E-06
CGA:  11    -0.381285571488E+03   -0.90601E-04   -0.90611E-04  9152   0.274E-03 0.574E-06
CGA:  12    -0.381285621451E+03   -0.49963E-04   -0.49963E-04  9152   0.215E-03 0.142E-07
CGA:  13    -0.381285638383E+03   -0.16932E-04   -0.16947E-04  9152   0.203E-03 0.380E-06
CGA:  14    -0.381285662186E+03   -0.23803E-04   -0.23801E-04  9152   0.895E-04 0.260E-06
CGA:  15    -0.381285676036E+03   -0.13850E-04   -0.13833E-04  9152   0.752E-04 0.371E-06
CGA:  16    -0.381285683621E+03   -0.75853E-05   -0.75858E-05  9152   0.799E-04 0.665E-07
   8 F= -.38128568E+03 E0= -.38127917E+03  d E =0.968126E-03  mag=    58.0000
       N       E                     dE             d eps       ncg     rms          ort
SDA:   1    -0.377194924292E+03    0.40908E+01    0.00000E+00  9152   0.101E+02 0.000E+00
CGA:   2    -0.380127019867E+03   -0.29321E+01   -0.29162E+01  9152   0.676E+01 0.110E+00
CGA:   3    -0.380699163523E+03   -0.57214E+00   -0.54276E+00  9152   0.511E+01-0.117E-01
CGA:   4    -0.381064772819E+03   -0.36561E+00   -0.36575E+00  9152   0.139E+01-0.250E-01
CGA:   5    -0.381202374008E+03   -0.13760E+00   -0.13711E+00  9152   0.387E+00-0.113E-01
CGA:   6    -0.381253215430E+03   -0.50841E-01   -0.50803E-01  9152   0.180E+00 0.130E-02
CGA:   7    -0.381263071242E+03   -0.98558E-02   -0.97509E-02  9152   0.885E-01 0.817E-03
CGA:   8    -0.381274973418E+03   -0.11902E-01   -0.11903E-01  9152   0.220E-01-0.231E-04
CGA:   9    -0.381277575055E+03   -0.26016E-02   -0.26017E-02  9152   0.175E-01-0.635E-05
CGA:  10    -0.381278766041E+03   -0.11910E-02   -0.11934E-02  9152   0.948E-02-0.849E-05
CGA:  11    -0.381279618864E+03   -0.85282E-03   -0.85351E-03  9152   0.293E-02 0.102E-04
CGA:  12    -0.381280210387E+03   -0.59152E-03   -0.59049E-03  9152   0.375E-02 0.109E-04
CGA:  13    -0.381280436928E+03   -0.22654E-03   -0.22625E-03  9152   0.179E-02 0.456E-05
CGA:  14    -0.381280692634E+03   -0.25571E-03   -0.25557E-03  9152   0.138E-02 0.404E-05
CGA:  15    -0.381280899112E+03   -0.20648E-03   -0.20644E-03  9152   0.113E-02 0.105E-05
CGA:  16    -0.381280968534E+03   -0.69422E-04   -0.69523E-04  9152   0.641E-03 0.470E-06
CGA:  17    -0.381281074388E+03   -0.10585E-03   -0.10583E-03  9152   0.326E-03 0.442E-06
CGA:  18    -0.381281112343E+03   -0.37955E-04   -0.37954E-04  9152   0.299E-03 0.700E-06
CGA:  19    -0.381281133529E+03   -0.21186E-04   -0.21193E-04  9152   0.171E-03 0.225E-06
CGA:  20    -0.381281156332E+03   -0.22803E-04   -0.22787E-04  9152   0.886E-04 0.788E-06
CGA:  21    -0.381281169561E+03   -0.13229E-04   -0.13233E-04  9152   0.113E-03-0.829E-07
CGA:  22    -0.381281177114E+03   -0.75525E-05   -0.75535E-05  9152   0.547E-04-0.982E-08
CGA:  23    -0.381281187133E+03   -0.10019E-04   -0.10060E-04  9152   0.389E-04-0.590E-06
CGA:  24    -0.381281190968E+03   -0.38354E-05   -0.38305E-05  9152   0.395E-04-0.286E-06
   9 F= -.38128119E+03 E0= -.38127465E+03  d E =0.449265E-02  mag=    58.0000
       N       E                     dE             d eps       ncg     rms          ort
SDA:   1    -0.380870917754E+03    0.41027E+00    0.00000E+00  9152   0.129E+01 0.000E+00
CGA:   2    -0.381043949850E+03   -0.17303E+00   -0.17200E+00  9152   0.175E+01 0.340E-01
CGA:   3    -0.381167051923E+03   -0.12310E+00   -0.12137E+00  9152   0.746E+00-0.184E-03
CGA:   4    -0.381235565946E+03   -0.68514E-01   -0.68521E-01  9152   0.231E+00 0.378E-03
CGA:   5    -0.381267976356E+03   -0.32410E-01   -0.32416E-01  9152   0.660E-01-0.161E-03
CGA:   6    -0.381272750569E+03   -0.47742E-02   -0.48032E-02  9152   0.524E-01-0.420E-04
CGA:   7    -0.381276802816E+03   -0.40522E-02   -0.40559E-02  9152   0.104E-01 0.937E-05
CGA:   8    -0.381278226962E+03   -0.14241E-02   -0.14251E-02  9152   0.579E-02-0.231E-04
CGA:   9    -0.381278682352E+03   -0.45539E-03   -0.45490E-03  9152   0.423E-02-0.349E-05
CGA:  10    -0.381278988352E+03   -0.30600E-03   -0.30622E-03  9152   0.136E-02-0.581E-06
CGA:  11    -0.381279191230E+03   -0.20288E-03   -0.20293E-03  9152   0.731E-03-0.113E-05
CGA:  12    -0.381279263708E+03   -0.72478E-04   -0.72490E-04  9152   0.901E-03 0.109E-05
CGA:  13    -0.381279342101E+03   -0.78393E-04   -0.78377E-04  9152   0.351E-03 0.394E-06
CGA:  14    -0.381279404568E+03   -0.62467E-04   -0.62390E-04  9152   0.342E-03 0.106E-05
CGA:  15    -0.381279438145E+03   -0.33577E-04   -0.33577E-04  9152   0.367E-03 0.104E-06
CGA:  16    -0.381279467406E+03   -0.29261E-04   -0.29286E-04  9152   0.129E-03 0.654E-06
CGA:  17    -0.381279491647E+03   -0.24241E-04   -0.24231E-04  9152   0.103E-03 0.141E-06
CGA:  18    -0.381279498970E+03   -0.73229E-05   -0.73313E-05  9152   0.735E-04 0.150E-06
  10 F= -.38127950E+03 E0= -.38127293E+03  d E =0.169200E-02  mag=    58.0000
       N       E                     dE             d eps       ncg     rms          ort
SDA:   1    -0.381193136784E+03    0.86355E-01    0.00000E+00  9152   0.256E+00 0.000E+00
CGA:   2    -0.381235761573E+03   -0.42625E-01   -0.42411E-01  9152   0.360E+00 0.321E-02
CGA:   3    -0.381256796140E+03   -0.21035E-01   -0.20830E-01  9152   0.132E+00 0.115E-02
CGA:   4    -0.381270695987E+03   -0.13900E-01   -0.13898E-01  9152   0.510E-01-0.170E-03
CGA:   5    -0.381276942781E+03   -0.62468E-02   -0.62462E-02  9152   0.124E-01 0.285E-04
CGA:   6    -0.381278196776E+03   -0.12540E-02   -0.12544E-02  9152   0.107E-01 0.173E-04
CGA:   7    -0.381278786029E+03   -0.58925E-03   -0.58871E-03  9152   0.243E-02 0.442E-05
CGA:   8    -0.381279110345E+03   -0.32432E-03   -0.32456E-03  9152   0.100E-02-0.666E-05
CGA:   9    -0.381279235938E+03   -0.12559E-03   -0.12560E-03  9152   0.768E-03-0.941E-06
CGA:  10    -0.381279278014E+03   -0.42076E-04   -0.42117E-04  9152   0.315E-03-0.539E-06
CGA:  11    -0.381279323328E+03   -0.45314E-04   -0.45325E-04  9152   0.147E-03-0.248E-06
CGA:  12    -0.381279343799E+03   -0.20470E-04   -0.20452E-04  9152   0.146E-03 0.604E-06
CGA:  13    -0.381279354588E+03   -0.10789E-04   -0.10789E-04  9152   0.111E-03 0.671E-07
CGA:  14    -0.381279368121E+03   -0.13533E-04   -0.13530E-04  9152   0.581E-04 0.179E-06
CGA:  15    -0.381279378618E+03   -0.10497E-04   -0.10503E-04  9152   0.559E-04-0.880E-07
CGA:  16    -0.381279382230E+03   -0.36117E-05   -0.36167E-05  9152   0.385E-04 0.886E-07
  11 F= -.38127938E+03 E0= -.38127280E+03  d E =0.116740E-03  mag=    58.0000
       N       E                     dE             d eps       ncg     rms          ort
SDA:   1    -0.377254371136E+03    0.40250E+01    0.00000E+00  9152   0.128E+02 0.000E+00
CGA:   2    -0.379135992287E+03   -0.18816E+01   -0.18793E+01  9152   0.182E+02 0.181E+00
CGA:   3    -0.380179561668E+03   -0.10436E+01   -0.11288E+01  9152   0.631E+01-0.214E+01
CGA:   4    -0.380816012529E+03   -0.63645E+00   -0.63753E+00  9152   0.329E+01-0.159E+00
CGA:   5    -0.381039548239E+03   -0.22354E+00   -0.23517E+00  9152   0.163E+01-0.230E-01
CGA:   6    -0.381164713002E+03   -0.12516E+00   -0.12424E+00  9152   0.561E+00-0.617E-02
CGA:   7    -0.381215190523E+03   -0.50478E-01   -0.50562E-01  9152   0.251E+00 0.140E-02
CGA:   8    -0.381231937624E+03   -0.16747E-01   -0.16631E-01  9152   0.102E+00 0.414E-04
CGA:   9    -0.381243894195E+03   -0.11957E-01   -0.11935E-01  9152   0.537E-01 0.102E-02
CGA:  10    -0.381247639699E+03   -0.37455E-02   -0.37379E-02  9152   0.286E-01-0.111E-04
CGA:  11    -0.381251347306E+03   -0.37076E-02   -0.37067E-02  9152   0.163E-01 0.267E-04
CGA:  12    -0.381252562054E+03   -0.12147E-02   -0.12131E-02  9152   0.105E-01-0.441E-05
CGA:  13    -0.381254037962E+03   -0.14759E-02   -0.14740E-02  9152   0.814E-02 0.411E-04
CGA:  14    -0.381254752304E+03   -0.71434E-03   -0.71409E-03  9152   0.600E-02-0.147E-05
CGA:  15    -0.381255494318E+03   -0.74201E-03   -0.74174E-03  9152   0.535E-02 0.116E-04
CGA:  16    -0.381256070720E+03   -0.57640E-03   -0.57641E-03  9152   0.367E-02-0.318E-06
CGA:  17    -0.381256390362E+03   -0.31964E-03   -0.31978E-03  9152   0.251E-02 0.306E-05
CGA:  18    -0.381256721308E+03   -0.33095E-03   -0.33110E-03  9152   0.172E-02-0.468E-05
CGA:  19    -0.381256843278E+03   -0.12197E-03   -0.12204E-03  9152   0.889E-03-0.663E-07
CGA:  20    -0.381256971993E+03   -0.12871E-03   -0.12876E-03  9152   0.727E-03-0.973E-06
CGA:  21    -0.381257024056E+03   -0.52063E-04   -0.52095E-04  9152   0.348E-03 0.386E-06
CGA:  22    -0.381257070715E+03   -0.46660E-04   -0.46678E-04  9152   0.317E-03-0.523E-06
CGA:  23    -0.381257098831E+03   -0.28116E-04   -0.28122E-04  9152   0.190E-03 0.206E-06
CGA:  24    -0.381257118493E+03   -0.19661E-04   -0.19661E-04  9152   0.134E-03-0.459E-06
CGA:  25    -0.381257134244E+03   -0.15751E-04   -0.15752E-04  9152   0.115E-03-0.127E-06
CGA:  26    -0.381257143764E+03   -0.95201E-05   -0.95097E-05  9152   0.542E-04-0.420E-06
  12 F= -.38125714E+03 E0= -.38125059E+03  d E =0.222385E-01  mag=    58.0000
       N       E                     dE             d eps       ncg     rms          ort
SDA:   1    -0.381049598935E+03    0.20754E+00    0.00000E+00  9152   0.912E+00 0.000E+00
CGA:   2    -0.381119370510E+03   -0.69772E-01   -0.70980E-01  9152   0.952E+00 0.385E-02
CGA:   3    -0.381212763739E+03   -0.93393E-01   -0.93346E-01  9152   0.226E+00-0.313E-02
CGA:   4    -0.381249471980E+03   -0.36708E-01   -0.36718E-01  9152   0.125E+00-0.117E-03
CGA:   5    -0.381259024398E+03   -0.95524E-02   -0.95022E-02  9152   0.769E-01-0.192E-03
CGA:   6    -0.381264450782E+03   -0.54264E-02   -0.54433E-02  9152   0.249E-01 0.685E-05
CGA:   7    -0.381267070678E+03   -0.26199E-02   -0.26200E-02  9152   0.635E-02-0.507E-04
CGA:   8    -0.381267751224E+03   -0.68055E-03   -0.68055E-03  9152   0.693E-02-0.752E-06
CGA:   9    -0.381268212038E+03   -0.46081E-03   -0.45985E-03  9152   0.155E-02 0.727E-06
CGA:  10    -0.381268469162E+03   -0.25712E-03   -0.25688E-03  9152   0.120E-02 0.369E-05
CGA:  11    -0.381268563850E+03   -0.94688E-04   -0.94672E-04  9152   0.922E-03 0.443E-06
CGA:  12    -0.381268652740E+03   -0.88890E-04   -0.88890E-04  9152   0.471E-03 0.688E-06
CGA:  13    -0.381268730434E+03   -0.77695E-04   -0.77721E-04  9152   0.396E-03-0.405E-06
CGA:  14    -0.381268764425E+03   -0.33991E-04   -0.34001E-04  9152   0.387E-03 0.129E-06
CGA:  15    -0.381268807742E+03   -0.43317E-04   -0.43321E-04  9152   0.172E-03-0.537E-06
CGA:  16    -0.381268834207E+03   -0.26465E-04   -0.26430E-04  9152   0.166E-03 0.721E-06
CGA:  17    -0.381268845619E+03   -0.11412E-04   -0.11417E-04  9152   0.916E-04 0.215E-06
CGA:  18    -0.381268856012E+03   -0.10393E-04   -0.10390E-04  9152   0.414E-04 0.537E-06
CGA:  19    -0.381268861954E+03   -0.59425E-05   -0.59374E-05  9152   0.441E-04 0.147E-06
  13 F= -.38126886E+03 E0= -.38126230E+03  d E =-.117182E-01  mag=    58.0000
       N       E                     dE             d eps       ncg     rms          ort
SDA:   1    -0.381263710917E+03    0.51451E-02    0.00000E+00  9152   0.332E-01 0.000E+00
CGA:   2    -0.381265653454E+03   -0.19425E-02   -0.19558E-02  9152   0.246E-01-0.922E-04
CGA:   3    -0.381268681396E+03   -0.30279E-02   -0.30277E-02  9152   0.688E-02 0.715E-05
CGA:   4    -0.381269792555E+03   -0.11112E-02   -0.11116E-02  9152   0.336E-02-0.625E-05
CGA:   5    -0.381270112646E+03   -0.32009E-03   -0.32004E-03  9152   0.219E-02-0.141E-05
CGA:   6    -0.381270245567E+03   -0.13292E-03   -0.13310E-03  9152   0.810E-03 0.147E-06
CGA:   7    -0.381270323686E+03   -0.78119E-04   -0.78117E-04  9152   0.178E-03-0.119E-06
CGA:   8    -0.381270351353E+03   -0.27667E-04   -0.27662E-04  9152   0.125E-03 0.105E-06
CGA:   9    -0.381270358476E+03   -0.71231E-05   -0.71171E-05  9152   0.621E-04-0.382E-07
  14 F= -.38127036E+03 E0= -.38126380E+03  d E =-.149652E-02  mag=    58.0000
       N       E                     dE             d eps       ncg     rms          ort
SDA:   1    -0.381067805998E+03    0.20255E+00    0.00000E+00  9152   0.754E+00 0.000E+00
CGA:   2    -0.381147178358E+03   -0.79372E-01   -0.79396E-01  9152   0.960E+00 0.124E-01
CGA:   3    -0.381218478325E+03   -0.71300E-01   -0.70967E-01  9152   0.271E+00-0.191E-02
CGA:   4    -0.381253519051E+03   -0.35041E-01   -0.35047E-01  9152   0.132E+00-0.163E-03
CGA:   5    -0.381267283886E+03   -0.13765E-01   -0.13762E-01  9152   0.708E-01-0.703E-03
CGA:   6    -0.381271365178E+03   -0.40813E-02   -0.40994E-02  9152   0.297E-01-0.132E-03
CGA:   7    -0.381274567957E+03   -0.32028E-02   -0.32029E-02  9152   0.618E-02-0.183E-04
CGA:   8    -0.381275290904E+03   -0.72295E-03   -0.72301E-03  9152   0.658E-02-0.256E-05
CGA:   9    -0.381275693883E+03   -0.40298E-03   -0.40180E-03  9152   0.170E-02 0.452E-05
CGA:  10    -0.381275937178E+03   -0.24330E-03   -0.24317E-03  9152   0.109E-02 0.281E-05
CGA:  11    -0.381276038939E+03   -0.10176E-03   -0.10176E-03  9152   0.909E-03 0.194E-06
CGA:  12    -0.381276108520E+03   -0.69581E-04   -0.69611E-04  9152   0.433E-03 0.990E-06
CGA:  13    -0.381276180570E+03   -0.72050E-04   -0.72056E-04  9152   0.293E-03-0.595E-07
CGA:  14    -0.381276208980E+03   -0.28411E-04   -0.28413E-04  9152   0.369E-03 0.118E-06
CGA:  15    -0.381276248454E+03   -0.39474E-04   -0.39475E-04  9152   0.142E-03-0.677E-06
CGA:  16    -0.381276270312E+03   -0.21858E-04   -0.21827E-04  9152   0.156E-03 0.619E-06
CGA:  17    -0.381276281901E+03   -0.11589E-04   -0.11595E-04  9152   0.936E-04 0.263E-06
CGA:  18    -0.381276291134E+03   -0.92327E-05   -0.92365E-05  9152   0.383E-04 0.555E-06
  15 F= -.38127629E+03 E0= -.38126972E+03  d E =-.593266E-02  mag=    58.0000
       N       E                     dE             d eps       ncg     rms          ort
SDA:   1    -0.381255343257E+03    0.20939E-01    0.00000E+00  9152   0.928E-01 0.000E+00
CGA:   2    -0.381261846941E+03   -0.65037E-02   -0.64949E-02  9152   0.931E-01-0.436E-04
CGA:   3    -0.381271948906E+03   -0.10102E-01   -0.10101E-01  9152   0.208E-01 0.157E-03
CGA:   4    -0.381275696065E+03   -0.37472E-02   -0.37461E-02  9152   0.809E-02 0.138E-04
CGA:   5    -0.381276685277E+03   -0.98921E-03   -0.98893E-03  9152   0.510E-02 0.146E-04
CGA:   6    -0.381276962005E+03   -0.27673E-03   -0.27642E-03  9152   0.184E-02 0.224E-05
CGA:   7    -0.381277130865E+03   -0.16886E-03   -0.16885E-03  9152   0.564E-03-0.112E-07
CGA:   8    -0.381277211827E+03   -0.80961E-04   -0.80984E-04  9152   0.261E-03-0.585E-06
CGA:   9    -0.381277236444E+03   -0.24618E-04   -0.24625E-04  9152   0.257E-03 0.433E-06
CGA:  10    -0.381277255207E+03   -0.18763E-04   -0.18774E-04  9152   0.963E-04 0.180E-06
CGA:  11    -0.381277270555E+03   -0.15348E-04   -0.15322E-04  9152   0.569E-04 0.492E-06
CGA:  12    -0.381277279690E+03   -0.91345E-05   -0.91406E-05  9152   0.872E-04-0.120E-06
  16 F= -.38127728E+03 E0= -.38127071E+03  d E =-.988556E-03  mag=    58.0000
       N       E                     dE             d eps       ncg     rms          ort
SDA:   1    -0.380774075533E+03    0.50320E+00    0.00000E+00  9152   0.169E+01 0.000E+00
CGA:   2    -0.380971957316E+03   -0.19788E+00   -0.19701E+00  9152   0.238E+01 0.659E-01
CGA:   3    -0.381148397559E+03   -0.17644E+00   -0.17434E+00  9152   0.558E+00-0.105E-01
CGA:   4    -0.381233270875E+03   -0.84873E-01   -0.85031E-01  9152   0.336E+00-0.246E-02
CGA:   5    -0.381253423048E+03   -0.20152E-01   -0.19800E-01  9152   0.153E+00 0.178E-02
CGA:   6    -0.381268120031E+03   -0.14697E-01   -0.14715E-01  9152   0.491E-01 0.611E-03
CGA:   7    -0.381272640589E+03   -0.45206E-02   -0.45137E-02  9152   0.242E-01-0.150E-03
CGA:   8    -0.381274188636E+03   -0.15480E-02   -0.15487E-02  9152   0.117E-01-0.489E-05
CGA:   9    -0.381275523511E+03   -0.13349E-02   -0.13354E-02  9152   0.437E-02-0.293E-04
CGA:  10    -0.381275934870E+03   -0.41136E-03   -0.41151E-03  9152   0.410E-02 0.671E-05
CGA:  11    -0.381276258816E+03   -0.32395E-03   -0.32408E-03  9152   0.159E-02 0.162E-05
CGA:  12    -0.381276476159E+03   -0.21734E-03   -0.21739E-03  9152   0.127E-02-0.483E-06
CGA:  13    -0.381276575300E+03   -0.99141E-04   -0.99080E-04  9152   0.104E-02-0.377E-06
CGA:  14    -0.381276708558E+03   -0.13326E-03   -0.13324E-03  9152   0.555E-03 0.707E-06
CGA:  15    -0.381276779400E+03   -0.70842E-04   -0.70861E-04  9152   0.780E-03-0.736E-06
CGA:  16    -0.381276840104E+03   -0.60704E-04   -0.60720E-04  9152   0.292E-03 0.400E-06
CGA:  17    -0.381276882396E+03   -0.42293E-04   -0.42265E-04  9152   0.267E-03 0.709E-06
CGA:  18    -0.381276902163E+03   -0.19767E-04   -0.19797E-04  9152   0.158E-03 0.844E-06
CGA:  19    -0.381276917652E+03   -0.15489E-04   -0.15491E-04  9152   0.786E-04 0.383E-06
CGA:  20    -0.381276928061E+03   -0.10409E-04   -0.10396E-04  9152   0.762E-04 0.441E-06
CGA:  21    -0.381276932959E+03   -0.48979E-05   -0.48954E-05  9152   0.307E-04-0.471E-07
  17 F= -.38127693E+03 E0= -.38127036E+03  d E =0.346731E-03  mag=    58.0000
       N       E                     dE             d eps       ncg     rms          ort
SDA:   1    -0.380468468601E+03    0.80846E+00    0.00000E+00  9152   0.262E+01 0.000E+00
CGA:   2    -0.380737993722E+03   -0.26953E+00   -0.27064E+00  9152   0.379E+01 0.131E+00
CGA:   3    -0.381092608267E+03   -0.35461E+00   -0.35203E+00  9152   0.884E+00-0.517E-01
CGA:   4    -0.381197746341E+03   -0.10514E+00   -0.10514E+00  9152   0.672E+00 0.685E-03
CGA:   5    -0.381238182669E+03   -0.40436E-01   -0.39205E-01  9152   0.203E+00 0.659E-02
CGA:   6    -0.381257687946E+03   -0.19505E-01   -0.19530E-01  9152   0.775E-01 0.110E-02
CGA:   7    -0.381264110093E+03   -0.64221E-02   -0.64172E-02  9152   0.448E-01-0.581E-04
CGA:   8    -0.381266989222E+03   -0.28791E-02   -0.28868E-02  9152   0.143E-01-0.211E-04
CGA:   9    -0.381268865963E+03   -0.18767E-02   -0.18792E-02  9152   0.906E-02-0.605E-04
CGA:  10    -0.381269396301E+03   -0.53034E-03   -0.53146E-03  9152   0.410E-02-0.673E-05
CGA:  11    -0.381269909114E+03   -0.51281E-03   -0.51256E-03  9152   0.207E-02 0.695E-05
CGA:  12    -0.381270093630E+03   -0.18452E-03   -0.18454E-03  9152   0.192E-02 0.169E-05
CGA:  13    -0.381270273328E+03   -0.17970E-03   -0.17968E-03  9152   0.103E-02-0.177E-06
CGA:  14    -0.381270416085E+03   -0.14276E-03   -0.14266E-03  9152   0.103E-02 0.236E-05
CGA:  15    -0.381270496952E+03   -0.80867E-04   -0.80861E-04  9152   0.765E-03-0.230E-06
CGA:  16    -0.381270599905E+03   -0.10295E-03   -0.10293E-03  9152   0.447E-03 0.532E-06
CGA:  17    -0.381270641362E+03   -0.41457E-04   -0.41456E-04  9152   0.440E-03 0.494E-07
CGA:  18    -0.381270681953E+03   -0.40591E-04   -0.40604E-04  9152   0.197E-03 0.117E-05
CGA:  19    -0.381270704298E+03   -0.22346E-04   -0.22342E-04  9152   0.144E-03 0.283E-06
CGA:  20    -0.381270714742E+03   -0.10443E-04   -0.10456E-04  9152   0.912E-04 0.340E-06
CGA:  21    -0.381270726513E+03   -0.11771E-04   -0.11773E-04  9152   0.448E-04-0.476E-07
CGA:  22    -0.381270730433E+03   -0.39199E-05   -0.39194E-05  9152   0.464E-04-0.290E-07
  18 F= -.38127073E+03 E0= -.38126416E+03  d E =0.620253E-02  mag=    58.0000
       N       E                     dE             d eps       ncg     rms          ort
SDA:   1    -0.380014183570E+03    0.12565E+01    0.00000E+00  9152   0.324E+01 0.000E+00
CGA:   2    -0.380859304541E+03   -0.84512E+00   -0.84686E+00  9152   0.304E+01-0.121E-01
CGA:   3    -0.381025887699E+03   -0.16658E+00   -0.18077E+00  9152   0.197E+01-0.143E+00
CGA:   4    -0.381203826684E+03   -0.17794E+00   -0.17781E+00  9152   0.331E+00-0.414E-02
CGA:   5    -0.381247246746E+03   -0.43420E-01   -0.43461E-01  9152   0.228E+00-0.112E-02
CGA:   6    -0.381259118278E+03   -0.11872E-01   -0.11777E-01  9152   0.720E-01 0.747E-03
CGA:   7    -0.381266087112E+03   -0.69688E-02   -0.69694E-02  9152   0.296E-01 0.293E-04
CGA:   8    -0.381269653195E+03   -0.35661E-02   -0.35671E-02  9152   0.154E-01-0.451E-04
CGA:   9    -0.381270513857E+03   -0.86066E-03   -0.86093E-03  9152   0.747E-02-0.488E-05
CGA:  10    -0.381271478872E+03   -0.96502E-03   -0.96535E-03  9152   0.252E-02-0.918E-05
CGA:  11    -0.381271733943E+03   -0.25507E-03   -0.25510E-03  9152   0.237E-02 0.507E-05
CGA:  12    -0.381271908247E+03   -0.17430E-03   -0.17433E-03  9152   0.122E-02 0.160E-05
CGA:  13    -0.381272082851E+03   -0.17460E-03   -0.17449E-03  9152   0.641E-03 0.300E-05
CGA:  14    -0.381272145513E+03   -0.62662E-04   -0.62657E-04  9152   0.856E-03-0.207E-06
CGA:  15    -0.381272239434E+03   -0.93921E-04   -0.93917E-04  9152   0.354E-03 0.332E-06
CGA:  16    -0.381272281734E+03   -0.42300E-04   -0.42306E-04  9152   0.310E-03-0.392E-06
CGA:  17    -0.381272308036E+03   -0.26301E-04   -0.26305E-04  9152   0.269E-03 0.547E-07
CGA:  18    -0.381272334842E+03   -0.26807E-04   -0.26805E-04  9152   0.821E-04-0.317E-06
CGA:  19    -0.381272346556E+03   -0.11713E-04   -0.11708E-04  9152   0.120E-03 0.135E-06
CGA:  20    -0.381272354673E+03   -0.81171E-05   -0.81116E-05  9152   0.440E-04-0.114E-06
  19 F= -.38127235E+03 E0= -.38126579E+03  d E =-.162424E-02  mag=    58.0000
       N       E                     dE             d eps       ncg     rms          ort
SDA:   1    -0.377764606242E+03    0.35077E+01    0.00000E+00  9152   0.105E+02 0.000E+00
CGA:   2    -0.379700423759E+03   -0.19358E+01   -0.18689E+01  9152   0.993E+01 0.969E+00
CGA:   3    -0.380424800416E+03   -0.72438E+00   -0.56502E+00  9152   0.345E+01 0.336E+00
CGA:   4    -0.381022199304E+03   -0.59740E+00   -0.59830E+00  9152   0.138E+01-0.140E-01
CGA:   5    -0.381155859786E+03   -0.13366E+00   -0.13371E+00  9152   0.919E+00 0.104E-03
CGA:   6    -0.381204035565E+03   -0.48176E-01   -0.46708E-01  9152   0.291E+00 0.126E-01
CGA:   7    -0.381234516703E+03   -0.30481E-01   -0.30492E-01  9152   0.943E-01 0.160E-02
CGA:   8    -0.381245812598E+03   -0.11296E-01   -0.11277E-01  9152   0.812E-01 0.896E-03
CGA:   9    -0.381250225246E+03   -0.44126E-02   -0.44096E-02  9152   0.308E-01-0.631E-05
CGA:  10    -0.381254121031E+03   -0.38958E-02   -0.38980E-02  9152   0.147E-01-0.676E-04
CGA:  11    -0.381256300917E+03   -0.21799E-02   -0.21761E-02  9152   0.111E-01 0.690E-04
CGA:  12    -0.381257119994E+03   -0.81908E-03   -0.81934E-03  9152   0.106E-01 0.264E-05
CGA:  13    -0.381258430003E+03   -0.13100E-02   -0.13102E-02  9152   0.432E-02-0.169E-05
CGA:  14    -0.381259454122E+03   -0.10241E-02   -0.10208E-02  9152   0.378E-02 0.264E-04
CGA:  15    -0.381259815653E+03   -0.36153E-03   -0.36141E-03  9152   0.422E-02-0.286E-05
CGA:  16    -0.381260152207E+03   -0.33655E-03   -0.33658E-03  9152   0.187E-02-0.771E-06
CGA:  17    -0.381260405700E+03   -0.25349E-03   -0.25336E-03  9152   0.784E-03 0.325E-05
CGA:  18    -0.381260543134E+03   -0.13743E-03   -0.13741E-03  9152   0.538E-03 0.399E-06
CGA:  19    -0.381260592993E+03   -0.49858E-04   -0.49879E-04  9152   0.548E-03 0.949E-06
CGA:  20    -0.381260633865E+03   -0.40873E-04   -0.40872E-04  9152   0.196E-03 0.466E-06
CGA:  21    -0.381260670553E+03   -0.36687E-04   -0.36682E-04  9152   0.100E-03 0.504E-07
CGA:  22    -0.381260691422E+03   -0.20870E-04   -0.20910E-04  9152   0.709E-04-0.433E-06
CGA:  23    -0.381260699423E+03   -0.80008E-05   -0.79983E-05  9152   0.871E-04-0.349E-06
  20 F= -.38126070E+03 E0= -.38125418E+03  d E =0.116552E-01  mag=    58.0000
       N       E                     dE             d eps       ncg     rms          ort
SDA:   1    -0.381154355164E+03    0.10634E+00    0.00000E+00  9152   0.383E+00 0.000E+00
CGA:   2    -0.381216693266E+03   -0.62338E-01   -0.62225E-01  9152   0.341E+00 0.197E-02
CGA:   3    -0.381236828857E+03   -0.20136E-01   -0.20024E-01  9152   0.164E+00 0.421E-03
CGA:   4    -0.381254604591E+03   -0.17776E-01   -0.17774E-01  9152   0.742E-01-0.827E-04
CGA:   5    -0.381263233464E+03   -0.86289E-02   -0.86289E-02  9152   0.209E-01 0.162E-04
CGA:   6    -0.381265757204E+03   -0.25237E-02   -0.25236E-02  9152   0.171E-01 0.164E-04
CGA:   7    -0.381266612115E+03   -0.85491E-03   -0.85251E-03  9152   0.352E-02 0.251E-04
CGA:   8    -0.381267196851E+03   -0.58474E-03   -0.58488E-03  9152   0.160E-02-0.240E-05
CGA:   9    -0.381267370968E+03   -0.17412E-03   -0.17413E-03  9152   0.134E-02 0.115E-05
CGA:  10    -0.381267466117E+03   -0.95149E-04   -0.95289E-04  9152   0.801E-03 0.123E-05
CGA:  11    -0.381267565579E+03   -0.99462E-04   -0.99447E-04  9152   0.347E-03 0.130E-05
CGA:  12    -0.381267631649E+03   -0.66070E-04   -0.66048E-04  9152   0.441E-03 0.274E-06
CGA:  13    -0.381267661461E+03   -0.29813E-04   -0.29779E-04  9152   0.283E-03-0.536E-06
CGA:  14    -0.381267701404E+03   -0.39943E-04   -0.39957E-04  9152   0.156E-03-0.616E-06
CGA:  15    -0.381267725578E+03   -0.24174E-04   -0.24177E-04  9152   0.145E-03-0.628E-07
CGA:  16    -0.381267736247E+03   -0.10669E-04   -0.10688E-04  9152   0.103E-03 0.434E-06
CGA:  17    -0.381267746855E+03   -0.10609E-04   -0.10615E-04  9152   0.359E-04 0.504E-06
CGA:  18    -0.381267753131E+03   -0.62759E-05   -0.62447E-05  9152   0.340E-04 0.540E-06
  21 F= -.38126775E+03 E0= -.38126123E+03  d E =-.705371E-02  mag=    58.0000
       N       E                     dE             d eps       ncg     rms          ort
SDA:   1    -0.381263177126E+03    0.45697E-02    0.00000E+00  9152   0.284E-01 0.000E+00
CGA:   2    -0.381264931247E+03   -0.17541E-02   -0.17553E-02  9152   0.222E-01-0.210E-04
CGA:   3    -0.381267384558E+03   -0.24533E-02   -0.24534E-02  9152   0.630E-02 0.113E-04
CGA:   4    -0.381268287463E+03   -0.90291E-03   -0.90292E-03  9152   0.349E-02 0.979E-08
CGA:   5    -0.381268674753E+03   -0.38729E-03   -0.38729E-03  9152   0.175E-02 0.175E-05
CGA:   6    -0.381268775774E+03   -0.10102E-03   -0.10104E-03  9152   0.806E-03-0.174E-06
CGA:   7    -0.381268856945E+03   -0.81171E-04   -0.81174E-04  9152   0.171E-03-0.615E-08
CGA:   8    -0.381268881998E+03   -0.25053E-04   -0.25073E-04  9152   0.125E-03-0.560E-06
CGA:   9    -0.381268889989E+03   -0.79912E-05   -0.79959E-05  9152   0.745E-04 0.812E-07
  22 F= -.38126889E+03 E0= -.38126237E+03  d E =-.113686E-02  mag=    58.0000
       N       E                     dE             d eps       ncg     rms          ort
SDA:   1    -0.380654617262E+03    0.61426E+00    0.00000E+00  9152   0.185E+01 0.000E+00
CGA:   2    -0.381037706818E+03   -0.38309E+00   -0.38319E+00  9152   0.105E+01-0.938E-03
CGA:   3    -0.381183248821E+03   -0.14554E+00   -0.14571E+00  9152   0.555E+00-0.439E-02
CGA:   4    -0.381231575260E+03   -0.48326E-01   -0.47975E-01  9152   0.379E+00-0.221E-02
CGA:   5    -0.381253975484E+03   -0.22400E-01   -0.22624E-01  9152   0.106E+00-0.199E-02
CGA:   6    -0.381266863002E+03   -0.12888E-01   -0.12890E-01  9152   0.260E-01-0.153E-03
CGA:   7    -0.381270131976E+03   -0.32690E-02   -0.32707E-02  9152   0.205E-01-0.776E-04
CGA:   8    -0.381271284676E+03   -0.11527E-02   -0.11471E-02  9152   0.799E-02 0.459E-04
CGA:   9    -0.381272227621E+03   -0.94295E-03   -0.94294E-03  9152   0.305E-02 0.180E-05
CGA:  10    -0.381272678909E+03   -0.45129E-03   -0.45115E-03  9152   0.221E-02 0.363E-05
CGA:  11    -0.381272822655E+03   -0.14375E-03   -0.14383E-03  9152   0.145E-02 0.137E-05
CGA:  12    -0.381273007398E+03   -0.18474E-03   -0.18474E-03  9152   0.767E-03-0.202E-07
CGA:  13    -0.381273123554E+03   -0.11616E-03   -0.11615E-03  9152   0.649E-03-0.537E-07
CGA:  14    -0.381273181912E+03   -0.58358E-04   -0.58337E-04  9152   0.699E-03-0.740E-06
CGA:  15    -0.381273251722E+03   -0.69810E-04   -0.69818E-04  9152   0.262E-03 0.562E-06
CGA:  16    -0.381273300576E+03   -0.48853E-04   -0.48735E-04  9152   0.225E-03 0.160E-05
CGA:  17    -0.381273316557E+03   -0.15981E-04   -0.16028E-04  9152   0.168E-03 0.991E-06
CGA:  18    -0.381273335115E+03   -0.18558E-04   -0.18561E-04  9152   0.739E-04 0.910E-06
CGA:  19    -0.381273345742E+03   -0.10626E-04   -0.10621E-04  9152   0.540E-04 0.182E-06
CGA:  20    -0.381273350305E+03   -0.45634E-05   -0.45569E-05  9152   0.509E-04-0.211E-06
  23 F= -.38127335E+03 E0= -.38126683E+03  d E =-.446032E-02  mag=    58.0000
       N       E                     dE             d eps       ncg     rms          ort
SDA:   1    -0.381235545548E+03    0.37800E-01    0.00000E+00  9152   0.130E+00 0.000E+00
CGA:   2    -0.381250807160E+03   -0.15262E-01   -0.15260E-01  9152   0.170E+00 0.165E-03
CGA:   3    -0.381262071182E+03   -0.11264E-01   -0.11197E-01  9152   0.597E-01 0.234E-03
CGA:   4    -0.381269095974E+03   -0.70248E-02   -0.70230E-02  9152   0.253E-01 0.131E-03
CGA:   5    -0.381272140354E+03   -0.30444E-02   -0.30447E-02  9152   0.745E-02-0.215E-04
CGA:   6    -0.381272797729E+03   -0.65737E-03   -0.65756E-03  9152   0.702E-02 0.270E-05
CGA:   7    -0.381273260377E+03   -0.46265E-03   -0.46237E-03  9152   0.103E-02 0.203E-07
CGA:   8    -0.381273425604E+03   -0.16523E-03   -0.16522E-03  9152   0.560E-03-0.187E-07
CGA:   9    -0.381273467491E+03   -0.41887E-04   -0.41856E-04  9152   0.385E-03-0.663E-06
CGA:  10    -0.381273497627E+03   -0.30136E-04   -0.30125E-04  9152   0.151E-03-0.229E-06
CGA:  11    -0.381273517357E+03   -0.19730E-04   -0.19733E-04  9152   0.599E-04-0.108E-06
CGA:  12    -0.381273523786E+03   -0.64287E-05   -0.64289E-05  9152   0.686E-04 0.272E-06
  24 F= -.38127352E+03 E0= -.38126701E+03  d E =-.173481E-03  mag=    58.0000
       N       E                     dE             d eps       ncg     rms          ort
SDA:   1    -0.381258086226E+03    0.15431E-01    0.00000E+00  9152   0.489E-01 0.000E+00
CGA:   2    -0.381266657608E+03   -0.85714E-02   -0.85722E-02  9152   0.538E-01-0.109E-04
CGA:   3    -0.381269874505E+03   -0.32169E-02   -0.32274E-02  9152   0.247E-01-0.841E-04
CGA:   4    -0.381272056604E+03   -0.21821E-02   -0.21806E-02  9152   0.960E-02-0.206E-04
CGA:   5    -0.381273304057E+03   -0.12475E-02   -0.12472E-02  9152   0.249E-02 0.989E-05
CGA:   6    -0.381273590440E+03   -0.28638E-03   -0.28637E-03  9152   0.177E-02 0.116E-05
CGA:   7    -0.381273677951E+03   -0.87511E-04   -0.87603E-04  9152   0.451E-03-0.104E-05
CGA:   8    -0.381273746829E+03   -0.68879E-04   -0.68939E-04  9152   0.158E-03-0.123E-05
CGA:   9    -0.381273765860E+03   -0.19031E-04   -0.19027E-04  9152   0.141E-03 0.313E-06
CGA:  10    -0.381273775295E+03   -0.94344E-05   -0.94408E-05  9152   0.744E-04 0.139E-06
  25 F= -.38127378E+03 E0= -.38126726E+03  d E =-.251509E-03  mag=    58.0000
       N       E                     dE             d eps       ncg     rms          ort
SDA:   1    -0.381020186711E+03    0.25358E+00    0.00000E+00  9152   0.781E+00 0.000E+00
CGA:   2    -0.381121305656E+03   -0.10112E+00   -0.10047E+00  9152   0.127E+01 0.196E-01
CGA:   3    -0.381212919094E+03   -0.91613E-01   -0.91382E-01  9152   0.313E+00-0.282E-02
CGA:   4    -0.381252313927E+03   -0.39395E-01   -0.39377E-01  9152   0.136E+00 0.555E-03
CGA:   5    -0.381264909389E+03   -0.12595E-01   -0.12572E-01  9152   0.777E-01-0.589E-03
CGA:   6    -0.381269402545E+03   -0.44932E-02   -0.45085E-02  9152   0.267E-01-0.108E-03
CGA:   7    -0.381272215240E+03   -0.28127E-02   -0.28127E-02  9152   0.658E-02-0.506E-05
CGA:   8    -0.381272946179E+03   -0.73094E-03   -0.73106E-03  9152   0.701E-02-0.907E-05
CGA:   9    -0.381273370179E+03   -0.42400E-03   -0.42287E-03  9152   0.143E-02 0.310E-05
CGA:  10    -0.381273595219E+03   -0.22504E-03   -0.22498E-03  9152   0.991E-03 0.101E-05
CGA:  11    -0.381273663682E+03   -0.68463E-04   -0.68449E-04  9152   0.581E-03-0.142E-07
CGA:  12    -0.381273715983E+03   -0.52302E-04   -0.52306E-04  9152   0.294E-03 0.547E-06
CGA:  13    -0.381273761941E+03   -0.45958E-04   -0.45957E-04  9152   0.216E-03 0.493E-07
CGA:  14    -0.381273777807E+03   -0.15865E-04   -0.15870E-04  9152   0.182E-03 0.359E-07
CGA:  15    -0.381273803727E+03   -0.25920E-04   -0.25949E-04  9152   0.960E-04-0.728E-06
CGA:  16    -0.381273816216E+03   -0.12489E-04   -0.12480E-04  9152   0.110E-03 0.348E-06
CGA:  17    -0.381273823992E+03   -0.77768E-05   -0.77834E-05  9152   0.538E-04 0.248E-06
  26 F= -.38127382E+03 E0= -.38126732E+03  d E =-.486976E-04  mag=    58.0000
       N       E                     dE             d eps       ncg     rms          ort
SDA:   1    -0.380975516461E+03    0.29830E+00    0.00000E+00  9152   0.916E+00 0.000E+00
CGA:   2    -0.381089645335E+03   -0.11413E+00   -0.11387E+00  9152   0.158E+01 0.102E-01
CGA:   3    -0.381206733885E+03   -0.11709E+00   -0.11525E+00  9152   0.310E+00-0.452E-02
CGA:   4    -0.381256878860E+03   -0.50145E-01   -0.50052E-01  9152   0.128E+00 0.138E-02
CGA:   5    -0.381264945125E+03   -0.80663E-02   -0.80321E-02  9152   0.751E-01 0.107E-03
CGA:   6    -0.381271767175E+03   -0.68220E-02   -0.68181E-02  9152   0.180E-01-0.878E-04
CGA:   7    -0.381273579889E+03   -0.18127E-02   -0.18127E-02  9152   0.972E-02-0.656E-05
CGA:   8    -0.381274299711E+03   -0.71982E-03   -0.72093E-03  9152   0.605E-02 0.138E-06
CGA:   9    -0.381274806426E+03   -0.50671E-03   -0.50665E-03  9152   0.161E-02-0.409E-05
CGA:  10    -0.381275033123E+03   -0.22670E-03   -0.22668E-03  9152   0.145E-02 0.440E-06
CGA:  11    -0.381275114655E+03   -0.81532E-04   -0.81494E-04  9152   0.495E-03 0.710E-06
CGA:  12    -0.381275198704E+03   -0.84050E-04   -0.83877E-04  9152   0.326E-03 0.251E-05
CGA:  13    -0.381275227580E+03   -0.28876E-04   -0.28881E-04  9152   0.326E-03 0.459E-06
CGA:  14    -0.381275262335E+03   -0.34755E-04   -0.34754E-04  9152   0.177E-03 0.578E-06
CGA:  15    -0.381275285902E+03   -0.23567E-04   -0.23587E-04  9152   0.141E-03-0.683E-06
CGA:  16    -0.381275297802E+03   -0.11900E-04   -0.11895E-04  9152   0.124E-03-0.281E-06
CGA:  17    -0.381275311048E+03   -0.13245E-04   -0.13247E-04  9152   0.450E-04-0.551E-06
CGA:  18    -0.381275316937E+03   -0.58891E-05   -0.58910E-05  9152   0.522E-04-0.697E-07
  27 F= -.38127532E+03 E0= -.38126886E+03  d E =-.149294E-02  mag=    58.0000
       N       E                     dE             d eps       ncg     rms          ort
SDA:   1    -0.381115865315E+03    0.15945E+00    0.00000E+00  9152   0.427E+00 0.000E+00
CGA:   2    -0.381201373153E+03   -0.85508E-01   -0.86265E-01  9152   0.845E+00-0.752E-02
CGA:   3    -0.381242848280E+03   -0.41475E-01   -0.41812E-01  9152   0.175E+00-0.681E-02
CGA:   4    -0.381267761482E+03   -0.24913E-01   -0.24878E-01  9152   0.445E-01 0.717E-03
CGA:   5    -0.381274022950E+03   -0.62615E-02   -0.62749E-02  9152   0.144E-01-0.305E-03
CGA:   6    -0.381275354277E+03   -0.13313E-02   -0.13327E-02  9152   0.114E-01 0.258E-04
CGA:   7    -0.381276015305E+03   -0.66103E-03   -0.66284E-03  9152   0.293E-02-0.133E-04
CGA:   8    -0.381276435865E+03   -0.42056E-03   -0.42058E-03  9152   0.102E-02-0.885E-06
CGA:   9    -0.381276555719E+03   -0.11985E-03   -0.11985E-03  9152   0.757E-03 0.173E-06
CGA:  10    -0.381276603413E+03   -0.47694E-04   -0.47676E-04  9152   0.355E-03-0.223E-06
CGA:  11    -0.381276639149E+03   -0.35736E-04   -0.35739E-04  9152   0.142E-03 0.440E-06
CGA:  12    -0.381276664022E+03   -0.24874E-04   -0.24838E-04  9152   0.101E-03 0.524E-06
CGA:  13    -0.381276671749E+03   -0.77264E-05   -0.77332E-05  9152   0.956E-04 0.183E-06
CGA:  14    -0.381276684009E+03   -0.12260E-04   -0.12265E-04  9152   0.388E-04-0.232E-06
CGA:  15    -0.381276691051E+03   -0.70418E-05   -0.70630E-05  9152   0.416E-04-0.288E-06
  28 F= -.38127669E+03 E0= -.38127023E+03  d E =-.137411E-02  mag=    58.0000
       N       E                     dE             d eps       ncg     rms          ort
SDA:   1    -0.380366408739E+03    0.91028E+00    0.00000E+00  9152   0.230E+01 0.000E+00
CGA:   2    -0.380936279168E+03   -0.56987E+00   -0.57377E+00  9152   0.375E+01-0.256E-01
CGA:   3    -0.381109691015E+03   -0.17341E+00   -0.18664E+00  9152   0.108E+01-0.260E+00
CGA:   4    -0.381225691846E+03   -0.11600E+00   -0.11600E+00  9152   0.348E+00 0.421E-03
CGA:   5    -0.381255347779E+03   -0.29656E-01   -0.29720E-01  9152   0.184E+00 0.157E-03
CGA:   6    -0.381267244220E+03   -0.11896E-01   -0.11814E-01  9152   0.682E-01 0.342E-03
CGA:   7    -0.381274350439E+03   -0.71062E-02   -0.71080E-02  9152   0.203E-01 0.126E-03
CGA:   8    -0.381276378325E+03   -0.20279E-02   -0.20283E-02  9152   0.193E-01 0.143E-04
CGA:   9    -0.381277721635E+03   -0.13433E-02   -0.13461E-02  9152   0.421E-02-0.376E-05
CGA:  10    -0.381278257287E+03   -0.53565E-03   -0.53577E-03  9152   0.278E-02-0.437E-05
CGA:  11    -0.381278452773E+03   -0.19549E-03   -0.19555E-03  9152   0.155E-02 0.431E-06
CGA:  12    -0.381278604904E+03   -0.15213E-03   -0.15215E-03  9152   0.623E-03 0.967E-06
CGA:  13    -0.381278694508E+03   -0.89604E-04   -0.89569E-04  9152   0.740E-03 0.881E-06
CGA:  14    -0.381278746778E+03   -0.52271E-04   -0.52264E-04  9152   0.332E-03 0.118E-06
CGA:  15    -0.381278798396E+03   -0.51618E-04   -0.51577E-04  9152   0.275E-03 0.819E-06
CGA:  16    -0.381278825456E+03   -0.27060E-04   -0.27059E-04  9152   0.261E-03-0.843E-07
CGA:  17    -0.381278848820E+03   -0.23364E-04   -0.23370E-04  9152   0.120E-03 0.249E-06
CGA:  18    -0.381278866498E+03   -0.17678E-04   -0.17677E-04  9152   0.975E-04 0.297E-07
CGA:  19    -0.381278873518E+03   -0.70201E-05   -0.70290E-05  9152   0.640E-04 0.226E-06
  29 F= -.38127887E+03 E0= -.38127241E+03  d E =-.218247E-02  mag=    58.0000
       N       E                     dE             d eps       ncg     rms          ort
SDA:   1    -0.376298531370E+03    0.49803E+01    0.00000E+00  9152   0.120E+02 0.000E+00
CGA:   2    -0.380066540430E+03   -0.37680E+01   -0.37636E+01  9152   0.805E+01 0.349E-01
CGA:   3    -0.380596068585E+03   -0.52953E+00   -0.59329E+00  9152   0.623E+01-0.522E+00
CGA:   4    -0.381084405732E+03   -0.48834E+00   -0.48115E+00  9152   0.104E+01-0.415E-01
CGA:   5    -0.381215321513E+03   -0.13092E+00   -0.13090E+00  9152   0.331E+00 0.115E-02
CGA:   6    -0.381257040711E+03   -0.41719E-01   -0.41765E-01  9152   0.115E+00-0.243E-02
CGA:   7    -0.381273838369E+03   -0.16798E-01   -0.16800E-01  9152   0.376E-01-0.518E-04
CGA:   8    -0.381278560279E+03   -0.47219E-02   -0.47200E-02  9152   0.228E-01 0.128E-03
CGA:   9    -0.381279934689E+03   -0.13744E-02   -0.13764E-02  9152   0.117E-01-0.180E-04
CGA:  10    -0.381281274295E+03   -0.13396E-02   -0.13396E-02  9152   0.353E-02-0.401E-05
CGA:  11    -0.381281985314E+03   -0.71102E-03   -0.71015E-03  9152   0.245E-02 0.935E-05
CGA:  12    -0.381282252153E+03   -0.26684E-03   -0.26681E-03  9152   0.296E-02-0.715E-07
CGA:  13    -0.381282494213E+03   -0.24206E-03   -0.24188E-03  9152   0.139E-02 0.260E-05
CGA:  14    -0.381282705295E+03   -0.21108E-03   -0.21104E-03  9152   0.848E-03 0.164E-05
CGA:  15    -0.381282847840E+03   -0.14255E-03   -0.14244E-03  9152   0.614E-03 0.198E-05
CGA:  16    -0.381282895677E+03   -0.47837E-04   -0.47834E-04  9152   0.555E-03 0.454E-06
CGA:  17    -0.381282955579E+03   -0.59902E-04   -0.59916E-04  9152   0.180E-03 0.145E-05
CGA:  18    -0.381282989052E+03   -0.33473E-04   -0.33417E-04  9152   0.114E-03 0.818E-06
CGA:  19    -0.381283007244E+03   -0.18192E-04   -0.18170E-04  9152   0.143E-03 0.583E-06
CGA:  20    -0.381283016669E+03   -0.94259E-05   -0.94178E-05  9152   0.712E-04-0.809E-07
CGA:  21    -0.381283028761E+03   -0.12092E-04   -0.12119E-04  9152   0.500E-04-0.545E-06
CGA:  22    -0.381283036261E+03   -0.74996E-05   -0.75162E-05  9152   0.385E-04-0.581E-06
  30 F= -.38128304E+03 E0= -.38127658E+03  d E =-.416274E-02  mag=    58.0000
       N       E                     dE             d eps       ncg     rms          ort
SDA:   1    -0.378876997039E+03    0.24060E+01    0.00000E+00  9152   0.705E+01 0.000E+00
CGA:   2    -0.380106807426E+03   -0.12298E+01   -0.11918E+01  9152   0.810E+01 0.632E+00
CGA:   3    -0.380725445314E+03   -0.61864E+00   -0.56232E+00  9152   0.273E+01 0.589E-01
CGA:   4    -0.381120401020E+03   -0.39496E+00   -0.39878E+00  9152   0.109E+01-0.107E+00
CGA:   5    -0.381198341057E+03   -0.77940E-01   -0.78756E-01  9152   0.681E+00-0.741E-02
CGA:   6    -0.381249798925E+03   -0.51458E-01   -0.52002E-01  9152   0.164E+00-0.959E-03
CGA:   7    -0.381266149854E+03   -0.16351E-01   -0.16315E-01  9152   0.102E+00-0.593E-03
CGA:   8    -0.381272782497E+03   -0.66326E-02   -0.66087E-02  9152   0.388E-01 0.834E-04
CGA:   9    -0.381277202728E+03   -0.44202E-02   -0.44208E-02  9152   0.170E-01 0.262E-03
CGA:  10    -0.381278489493E+03   -0.12868E-02   -0.12898E-02  9152   0.120E-01 0.122E-05
CGA:  11    -0.381279711660E+03   -0.12222E-02   -0.12222E-02  9152   0.396E-02 0.205E-05
CGA:  12    -0.381280111622E+03   -0.39996E-03   -0.40008E-03  9152   0.410E-02 0.438E-05
CGA:  13    -0.381280490104E+03   -0.37848E-03   -0.37842E-03  9152   0.179E-02-0.197E-05
CGA:  14    -0.381280694110E+03   -0.20401E-03   -0.20400E-03  9152   0.159E-02 0.141E-05
CGA:  15    -0.381280846133E+03   -0.15202E-03   -0.15200E-03  9152   0.124E-02 0.200E-07
CGA:  16    -0.381280972386E+03   -0.12625E-03   -0.12629E-03  9152   0.610E-03 0.359E-05
CGA:  17    -0.381281041686E+03   -0.69299E-04   -0.69295E-04  9152   0.678E-03 0.151E-05
CGA:  18    -0.381281098495E+03   -0.56809E-04   -0.56866E-04  9152   0.250E-03 0.224E-05
CGA:  19    -0.381281130776E+03   -0.32282E-04   -0.32268E-04  9152   0.252E-03 0.753E-06
CGA:  20    -0.381281149401E+03   -0.18625E-04   -0.18657E-04  9152   0.118E-03 0.726E-06
CGA:  21    -0.381281165113E+03   -0.15712E-04   -0.15704E-04  9152   0.860E-04 0.299E-06
CGA:  22    -0.381281172310E+03   -0.71967E-05   -0.72062E-05  9152   0.668E-04 0.362E-06
  31 F= -.38128117E+03 E0= -.38127470E+03  d E =0.186395E-02  mag=    58.0000
       N       E                     dE             d eps       ncg     rms          ort
SDA:   1    -0.381238355632E+03    0.42809E-01    0.00000E+00  9152   0.194E+00 0.000E+00
CGA:   2    -0.381252612341E+03   -0.14257E-01   -0.14155E-01  9152   0.189E+00-0.153E-03
CGA:   3    -0.381270381164E+03   -0.17769E-01   -0.17765E-01  9152   0.541E-01-0.137E-03
CGA:   4    -0.381279721750E+03   -0.93406E-02   -0.93356E-02  9152   0.231E-01 0.693E-04
CGA:   5    -0.381282147602E+03   -0.24259E-02   -0.24259E-02  9152   0.140E-01 0.108E-04
CGA:   6    -0.381282988152E+03   -0.84055E-03   -0.83867E-03  9152   0.604E-02 0.909E-05
CGA:   7    -0.381283546266E+03   -0.55811E-03   -0.55831E-03  9152   0.144E-02 0.371E-05
CGA:   8    -0.381283756041E+03   -0.20978E-03   -0.20976E-03  9152   0.762E-03 0.133E-06
CGA:   9    -0.381283811329E+03   -0.55288E-04   -0.55289E-04  9152   0.541E-03 0.254E-06
CGA:  10    -0.381283857446E+03   -0.46116E-04   -0.46107E-04  9152   0.187E-03-0.344E-06
CGA:  11    -0.381283885761E+03   -0.28316E-04   -0.28312E-04  9152   0.898E-04 0.666E-07
CGA:  12    -0.381283894505E+03   -0.87439E-05   -0.87441E-05  9152   0.106E-03 0.252E-07
  32 F= -.38128389E+03 E0= -.38127743E+03  d E =-.272220E-02  mag=    58.0000
       N       E                     dE             d eps       ncg     rms          ort
SDA:   1    -0.381273125886E+03    0.10760E-01    0.00000E+00  9152   0.394E-01 0.000E+00
CGA:   2    -0.381278865856E+03   -0.57400E-02   -0.57419E-02  9152   0.391E-01-0.373E-04
CGA:   3    -0.381281295906E+03   -0.24301E-02   -0.24261E-02  9152   0.204E-01 0.140E-04
CGA:   4    -0.381283436563E+03   -0.21407E-02   -0.21407E-02  9152   0.821E-02 0.196E-04
CGA:   5    -0.381284403855E+03   -0.96729E-03   -0.96716E-03  9152   0.219E-02 0.729E-05
CGA:   6    -0.381284645024E+03   -0.24117E-03   -0.24116E-03  9152   0.209E-02 0.763E-06
CGA:   7    -0.381284762172E+03   -0.11715E-03   -0.11708E-03  9152   0.416E-03-0.980E-06
CGA:   8    -0.381284818388E+03   -0.56216E-04   -0.56203E-04  9152   0.190E-03 0.316E-06
CGA:   9    -0.381284840873E+03   -0.22485E-04   -0.22486E-04  9152   0.143E-03-0.284E-07
CGA:  10    -0.381284849115E+03   -0.82418E-05   -0.82462E-05  9152   0.576E-04 0.836E-07
  33 F= -.38128485E+03 E0= -.38127838E+03  d E =-.954609E-03  mag=    58.0000
       N       E                     dE             d eps       ncg     rms          ort
SDA:   1    -0.381191571249E+03    0.93270E-01    0.00000E+00  9152   0.338E+00 0.000E+00
CGA:   2    -0.381224887969E+03   -0.33317E-01   -0.33261E-01  9152   0.456E+00-0.277E-02
CGA:   3    -0.381259402129E+03   -0.34514E-01   -0.34475E-01  9152   0.117E+00-0.278E-03
CGA:   4    -0.381277772667E+03   -0.18371E-01   -0.18356E-01  9152   0.478E-01 0.238E-03
CGA:   5    -0.381283134441E+03   -0.53618E-02   -0.53608E-02  9152   0.162E-01 0.113E-03
CGA:   6    -0.381285036161E+03   -0.19017E-02   -0.19020E-02  9152   0.103E-01-0.202E-04
CGA:   7    -0.381285538465E+03   -0.50230E-03   -0.50443E-03  9152   0.285E-02-0.258E-04
CGA:   8    -0.381285963463E+03   -0.42500E-03   -0.42506E-03  9152   0.923E-03-0.117E-05
CGA:   9    -0.381286092370E+03   -0.12891E-03   -0.12892E-03  9152   0.686E-03-0.208E-06
CGA:  10    -0.381286139880E+03   -0.47510E-04   -0.47459E-04  9152   0.434E-03-0.595E-06
CGA:  11    -0.381286180597E+03   -0.40717E-04   -0.40720E-04  9152   0.159E-03-0.329E-07
CGA:  12    -0.381286208684E+03   -0.28087E-04   -0.28044E-04  9152   0.103E-03 0.608E-06
CGA:  13    -0.381286219321E+03   -0.10638E-04   -0.10642E-04  9152   0.123E-03 0.599E-06
CGA:  14    -0.381286229738E+03   -0.10417E-04   -0.10424E-04  9152   0.524E-04 0.345E-06
CGA:  15    -0.381286238249E+03   -0.85105E-05   -0.85065E-05  9152   0.335E-04 0.790E-07
  34 F= -.38128624E+03 E0= -.38127977E+03  d E =-.138913E-02  mag=    58.0000
       N       E                     dE             d eps       ncg     rms          ort
SDA:   1    -0.381275971350E+03    0.10258E-01    0.00000E+00  9152   0.966E-01 0.000E+00
CGA:   2    -0.381279539444E+03   -0.35681E-02   -0.35194E-02  9152   0.206E-01 0.888E-03
CGA:   3    -0.381284354083E+03   -0.48146E-02   -0.48141E-02  9152   0.837E-02 0.419E-05
CGA:   4    -0.381285737153E+03   -0.13831E-02   -0.13826E-02  9152   0.525E-02 0.814E-05
CGA:   5    -0.381285994725E+03   -0.25757E-03   -0.25717E-03  9152   0.190E-02 0.355E-05
CGA:   6    -0.381286224511E+03   -0.22979E-03   -0.22979E-03  9152   0.464E-03-0.105E-05
CGA:   7    -0.381286279821E+03   -0.55310E-04   -0.55310E-04  9152   0.221E-03-0.476E-07
CGA:   8    -0.381286300878E+03   -0.21056E-04   -0.21066E-04  9152   0.185E-03 0.412E-06
CGA:   9    -0.381286312681E+03   -0.11804E-04   -0.11800E-04  9152   0.518E-04 0.124E-07
CGA:  10    -0.381286321074E+03   -0.83923E-05   -0.84037E-05  9152   0.281E-04-0.226E-06
  35 F= -.38128632E+03 E0= -.38127985E+03  d E =-.828248E-04  mag=    58.0000
       N       E                     dE             d eps       ncg     rms          ort
SDA:   1    -0.381124756714E+03    0.16156E+00    0.00000E+00  9152   0.608E+00 0.000E+00
CGA:   2    -0.381169938327E+03   -0.45182E-01   -0.44658E-01  9152   0.676E+00-0.722E-03
CGA:   3    -0.381249903289E+03   -0.79965E-01   -0.79991E-01  9152   0.163E+00-0.214E-02
CGA:   4    -0.381276161697E+03   -0.26258E-01   -0.26295E-01  9152   0.517E-01-0.595E-03
CGA:   5    -0.381282924621E+03   -0.67629E-02   -0.67652E-02  9152   0.177E-01-0.850E-04
CGA:   6    -0.381284862923E+03   -0.19383E-02   -0.19384E-02  9152   0.681E-02 0.424E-05
CGA:   7    -0.381285338742E+03   -0.47582E-03   -0.47709E-03  9152   0.485E-02-0.258E-05
CGA:   8    -0.381285756522E+03   -0.41778E-03   -0.41793E-03  9152   0.119E-02 0.105E-05
CGA:   9    -0.381285937353E+03   -0.18083E-03   -0.18089E-03  9152   0.537E-03-0.133E-05
CGA:  10    -0.381286000027E+03   -0.62674E-04   -0.62673E-04  9152   0.453E-03-0.227E-06
CGA:  11    -0.381286027522E+03   -0.27494E-04   -0.27521E-04  9152   0.197E-03 0.378E-07
CGA:  12    -0.381286060180E+03   -0.32658E-04   -0.32622E-04  9152   0.936E-04 0.653E-06
CGA:  13    -0.381286076952E+03   -0.16772E-04   -0.16705E-04  9152   0.124E-03 0.103E-05
CGA:  14    -0.381286085736E+03   -0.87835E-05   -0.87918E-05  9152   0.748E-04 0.213E-06
  36 F= -.38128609E+03 E0= -.38127961E+03  d E =0.235338E-03  mag=    58.0000
       N       E                     dE             d eps       ncg     rms          ort
SDA:   1    -0.381265966474E+03    0.20110E-01    0.00000E+00  9152   0.711E-01 0.000E+00
CGA:   2    -0.381272951703E+03   -0.69852E-02   -0.69934E-02  9152   0.854E-01 0.167E-03
CGA:   3    -0.381280121550E+03   -0.71698E-02   -0.71593E-02  9152   0.410E-01-0.565E-04
CGA:   4    -0.381283879983E+03   -0.37584E-02   -0.37570E-02  9152   0.103E-01-0.185E-04
CGA:   5    -0.381285538624E+03   -0.16586E-02   -0.16590E-02  9152   0.295E-02-0.722E-05
CGA:   6    -0.381285745828E+03   -0.20720E-03   -0.20744E-03  9152   0.232E-02 0.111E-05
CGA:   7    -0.381285950470E+03   -0.20464E-03   -0.20468E-03  9152   0.393E-03 0.169E-05
CGA:   8    -0.381286006935E+03   -0.56465E-04   -0.56460E-04  9152   0.297E-03 0.142E-06
CGA:   9    -0.381286029080E+03   -0.22145E-04   -0.22131E-04  9152   0.168E-03-0.266E-06
CGA:  10    -0.381286041174E+03   -0.12094E-04   -0.12097E-04  9152   0.543E-04 0.479E-07
CGA:  11    -0.381286051316E+03   -0.10142E-04   -0.10158E-04  9152   0.326E-04-0.195E-06
CGA:  12    -0.381286053747E+03   -0.24311E-05   -0.24336E-05  9152   0.294E-04 0.600E-07
  37 F= -.38128605E+03 E0= -.38127957E+03  d E =0.319885E-04  mag=    58.0000
       N       E                     dE             d eps       ncg     rms          ort
SDA:   1    -0.381279740862E+03    0.63105E-02    0.00000E+00  9152   0.182E-01 0.000E+00
CGA:   2    -0.381283209661E+03   -0.34688E-02   -0.34717E-02  9152   0.215E-01-0.334E-04
CGA:   3    -0.381284495226E+03   -0.12856E-02   -0.12884E-02  9152   0.977E-02-0.235E-04
CGA:   4    -0.381285394394E+03   -0.89917E-03   -0.89867E-03  9152   0.363E-02-0.983E-05
CGA:   5    -0.381285823689E+03   -0.42930E-03   -0.42931E-03  9152   0.907E-03-0.161E-05
CGA:   6    -0.381285921634E+03   -0.97944E-04   -0.97945E-04  9152   0.841E-03 0.621E-06
CGA:   7    -0.381285968359E+03   -0.46725E-04   -0.46790E-04  9152   0.152E-03 0.784E-06
CGA:   8    -0.381285992466E+03   -0.24107E-04   -0.24114E-04  9152   0.797E-04-0.145E-06
CGA:   9    -0.381286000304E+03   -0.78377E-05   -0.78384E-05  9152   0.613E-04 0.680E-07
  38 F= -.38128600E+03 E0= -.38127952E+03  d E =0.534432E-04  mag=    58.0000
       N       E                     dE             d eps       ncg     rms          ort
SDA:   1    -0.381194505670E+03    0.91487E-01    0.00000E+00  9152   0.243E+00 0.000E+00
CGA:   2    -0.381248954848E+03   -0.54449E-01   -0.54403E-01  9152   0.237E+00 0.389E-03
CGA:   3    -0.381270397094E+03   -0.21442E-01   -0.21420E-01  9152   0.128E+00-0.221E-03
CGA:   4    -0.381277772352E+03   -0.73753E-02   -0.74168E-02  9152   0.505E-01-0.397E-03
CGA:   5    -0.381283291347E+03   -0.55190E-02   -0.55189E-02  9152   0.972E-02-0.358E-04
CGA:   6    -0.381284717230E+03   -0.14259E-02   -0.14254E-02  9152   0.478E-02 0.115E-04
CGA:   7    -0.381285006722E+03   -0.28949E-03   -0.28913E-03  9152   0.263E-02 0.251E-05
CGA:   8    -0.381285260810E+03   -0.25409E-03   -0.25411E-03  9152   0.868E-03 0.871E-06
CGA:   9    -0.381285373289E+03   -0.11248E-03   -0.11251E-03  9152   0.347E-03-0.940E-06
CGA:  10    -0.381285405638E+03   -0.32349E-04   -0.32355E-04  9152   0.331E-03 0.212E-06
CGA:  11    -0.381285429773E+03   -0.24136E-04   -0.24128E-04  9152   0.104E-03-0.209E-06
CGA:  12    -0.381285446500E+03   -0.16727E-04   -0.16716E-04  9152   0.683E-04 0.199E-06
CGA:  13    -0.381285454697E+03   -0.81967E-05   -0.81978E-05  9152   0.843E-04-0.819E-07
  39 F= -.38128545E+03 E0= -.38127896E+03  d E =0.545607E-03  mag=    58.0000
       N       E                     dE             d eps       ncg     rms          ort
SDA:   1    -0.381275983242E+03    0.94633E-02    0.00000E+00  9152   0.299E-01 0.000E+00
CGA:   2    -0.381281359962E+03   -0.53767E-02   -0.53871E-02  9152   0.247E-01-0.130E-03
CGA:   3    -0.381283203877E+03   -0.18439E-02   -0.18463E-02  9152   0.181E-01-0.171E-06
CGA:   4    -0.381284574184E+03   -0.13703E-02   -0.13726E-02  9152   0.548E-02 0.559E-05
CGA:   5    -0.381285256618E+03   -0.68243E-03   -0.68237E-03  9152   0.166E-02 0.235E-05
CGA:   6    -0.381285440893E+03   -0.18427E-03   -0.18427E-03  9152   0.992E-03 0.246E-06
CGA:   7    -0.381285495284E+03   -0.54391E-04   -0.54364E-04  9152   0.355E-03-0.461E-06
CGA:   8    -0.381285534820E+03   -0.39536E-04   -0.39535E-04  9152   0.118E-03 0.128E-06
CGA:   9    -0.381285551418E+03   -0.16598E-04   -0.16599E-04  9152   0.716E-04-0.240E-07
CGA:  10    -0.381285556011E+03   -0.45930E-05   -0.45945E-05  9152   0.446E-04 0.242E-07
  40 F= -.38128556E+03 E0= -.38127906E+03  d E =-.101314E-03  mag=    58.0000
       N       E                     dE             d eps       ncg     rms          ort
SDA:   1    -0.381222314234E+03    0.63237E-01    0.00000E+00  9152   0.266E+00 0.000E+00
CGA:   2    -0.381240143741E+03   -0.17830E-01   -0.17696E-01  9152   0.245E+00 0.359E-04
CGA:   3    -0.381268986753E+03   -0.28843E-01   -0.28847E-01  9152   0.721E-01-0.191E-03
CGA:   4    -0.381280261119E+03   -0.11274E-01   -0.11281E-01  9152   0.288E-01-0.105E-03
CGA:   5    -0.381283440421E+03   -0.31793E-02   -0.31793E-02  9152   0.110E-01 0.463E-05
CGA:   6    -0.381284370501E+03   -0.93008E-03   -0.92943E-03  9152   0.794E-02-0.820E-05
CGA:   7    -0.381284847403E+03   -0.47690E-03   -0.47704E-03  9152   0.156E-02-0.915E-06
CGA:   8    -0.381285102088E+03   -0.25468E-03   -0.25462E-03  9152   0.544E-03 0.983E-06
CGA:   9    -0.381285170676E+03   -0.68588E-04   -0.68583E-04  9152   0.561E-03 0.161E-06
CGA:  10    -0.381285204214E+03   -0.33538E-04   -0.33498E-04  9152   0.188E-03-0.255E-06
CGA:  11    -0.381285227953E+03   -0.23739E-04   -0.23740E-04  9152   0.945E-04-0.442E-07
CGA:  12    -0.381285242735E+03   -0.14782E-04   -0.14784E-04  9152   0.686E-04-0.473E-07
CGA:  13    -0.381285247835E+03   -0.50996E-05   -0.51104E-05  9152   0.596E-04 0.290E-06
  41 F= -.38128525E+03 E0= -.38127875E+03  d E =0.308176E-03  mag=    58.0000
       N       E                     dE             d eps       ncg     rms          ort
SDA:   1    -0.381263207728E+03    0.22035E-01    0.00000E+00  9152   0.576E-01 0.000E+00
CGA:   2    -0.381276864493E+03   -0.13657E-01   -0.13645E-01  9152   0.599E-01 0.952E-04
CGA:   3    -0.381280951529E+03   -0.40870E-02   -0.40846E-02  9152   0.338E-01-0.550E-06
CGA:   4    -0.381283451839E+03   -0.25003E-02   -0.24937E-02  9152   0.105E-01-0.755E-06
CGA:   5    -0.381284646456E+03   -0.11946E-02   -0.11946E-02  9152   0.251E-02-0.689E-05
CGA:   6    -0.381284946488E+03   -0.30003E-03   -0.30002E-03  9152   0.191E-02 0.155E-05
CGA:   7    -0.381285047744E+03   -0.10126E-03   -0.10137E-03  9152   0.539E-03 0.106E-05
CGA:   8    -0.381285115230E+03   -0.67486E-04   -0.67490E-04  9152   0.216E-03-0.551E-07
CGA:   9    -0.381285142576E+03   -0.27346E-04   -0.27349E-04  9152   0.130E-03-0.152E-06
CGA:  10    -0.381285149877E+03   -0.73008E-05   -0.72908E-05  9152   0.574E-04-0.168E-06
  42 F= -.38128515E+03 E0= -.38127865E+03  d E =0.979575E-04  mag=    58.0000
       N       E                     dE             d eps       ncg     rms          ort
SDA:   1    -0.380943987900E+03    0.34115E+00    0.00000E+00  9152   0.882E+00 0.000E+00
CGA:   2    -0.381136995293E+03   -0.19301E+00   -0.19061E+00  9152   0.144E+01 0.237E-01
CGA:   3    -0.381216090561E+03   -0.79095E-01   -0.76552E-01  9152   0.366E+00 0.137E-01
CGA:   4    -0.381264335283E+03   -0.48245E-01   -0.48261E-01  9152   0.120E+00-0.528E-03
CGA:   5    -0.381276256036E+03   -0.11921E-01   -0.11907E-01  9152   0.575E-01-0.362E-03
CGA:   6    -0.381279979646E+03   -0.37236E-02   -0.37414E-02  9152   0.302E-01-0.844E-04
CGA:   7    -0.381282513296E+03   -0.25336E-02   -0.25329E-02  9152   0.653E-02-0.122E-05
CGA:   8    -0.381283523224E+03   -0.10099E-02   -0.10098E-02  9152   0.482E-02 0.227E-05
CGA:   9    -0.381283778271E+03   -0.25505E-03   -0.25442E-03  9152   0.172E-02 0.477E-05
CGA:  10    -0.381283998408E+03   -0.22014E-03   -0.22016E-03  9152   0.709E-03-0.990E-06
CGA:  11    -0.381284076230E+03   -0.77822E-04   -0.77822E-04  9152   0.533E-03-0.109E-06
CGA:  12    -0.381284112486E+03   -0.36256E-04   -0.36277E-04  9152   0.289E-03 0.274E-06
CGA:  13    -0.381284151679E+03   -0.39193E-04   -0.39193E-04  9152   0.150E-03 0.292E-07
CGA:  14    -0.381284172108E+03   -0.20429E-04   -0.20408E-04  9152   0.195E-03 0.714E-06
CGA:  15    -0.381284185782E+03   -0.13674E-04   -0.13685E-04  9152   0.804E-04 0.234E-06
CGA:  16    -0.381284198676E+03   -0.12894E-04   -0.12873E-04  9152   0.598E-04 0.396E-06
CGA:  17    -0.381284204569E+03   -0.58926E-05   -0.58928E-05  9152   0.547E-04 0.580E-07
  43 F= -.38128420E+03 E0= -.38127769E+03  d E =0.945308E-03  mag=    58.0000
       N       E                     dE             d eps       ncg     rms          ort
SDA:   1    -0.381181303364E+03    0.10290E+00    0.00000E+00  9152   0.279E+00 0.000E+00
CGA:   2    -0.381227135207E+03   -0.45832E-01   -0.45564E-01  9152   0.564E+00 0.430E-02
CGA:   3    -0.381262606839E+03   -0.35472E-01   -0.35131E-01  9152   0.105E+00 0.115E-02
CGA:   4    -0.381277472329E+03   -0.14865E-01   -0.14857E-01  9152   0.402E-01 0.187E-03
CGA:   5    -0.381280892083E+03   -0.34198E-02   -0.34135E-02  9152   0.226E-01-0.506E-04
CGA:   6    -0.381282261965E+03   -0.13699E-02   -0.13728E-02  9152   0.819E-02-0.140E-04
CGA:   7    -0.381283127791E+03   -0.86583E-03   -0.86583E-03  9152   0.204E-02 0.255E-05
CGA:   8    -0.381283386947E+03   -0.25916E-03   -0.25914E-03  9152   0.212E-02 0.552E-06
CGA:   9    -0.381283507205E+03   -0.12026E-03   -0.12011E-03  9152   0.533E-03 0.692E-08
CGA:  10    -0.381283574413E+03   -0.67208E-04   -0.67226E-04  9152   0.255E-03-0.606E-06
CGA:  11    -0.381283603147E+03   -0.28734E-04   -0.28735E-04  9152   0.239E-03-0.156E-06
CGA:  12    -0.381283617985E+03   -0.14837E-04   -0.14852E-04  9152   0.801E-04 0.194E-06
CGA:  13    -0.381283633610E+03   -0.15625E-04   -0.15614E-04  9152   0.709E-04 0.123E-06
CGA:  14    -0.381283640121E+03   -0.65113E-05   -0.65165E-05  9152   0.665E-04 0.309E-06
  44 F= -.38128364E+03 E0= -.38127712E+03  d E =0.564448E-03  mag=    58.0000
       N       E                     dE             d eps       ncg     rms          ort
SDA:   1    -0.381219931927E+03    0.63702E-01    0.00000E+00  9152   0.233E+00 0.000E+00
CGA:   2    -0.381238868250E+03   -0.18936E-01   -0.18881E-01  9152   0.276E+00-0.510E-03
CGA:   3    -0.381265976550E+03   -0.27108E-01   -0.27112E-01  9152   0.955E-01 0.242E-03
CGA:   4    -0.381277052024E+03   -0.11075E-01   -0.11070E-01  9152   0.370E-01 0.289E-03
CGA:   5    -0.381281667344E+03   -0.46153E-02   -0.46161E-02  9152   0.746E-02-0.250E-04
CGA:   6    -0.381282827458E+03   -0.11601E-02   -0.11603E-02  9152   0.451E-02-0.291E-05
CGA:   7    -0.381283047381E+03   -0.21992E-03   -0.22048E-03  9152   0.165E-02-0.597E-05
CGA:   8    -0.381283263074E+03   -0.21569E-03   -0.21568E-03  9152   0.652E-03 0.270E-06
CGA:   9    -0.381283339175E+03   -0.76101E-04   -0.76099E-04  9152   0.271E-03 0.338E-07
CGA:  10    -0.381283368656E+03   -0.29481E-04   -0.29481E-04  9152   0.300E-03-0.204E-06
CGA:  11    -0.381283387751E+03   -0.19096E-04   -0.19111E-04  9152   0.771E-04 0.262E-06
CGA:  12    -0.381283402840E+03   -0.15088E-04   -0.15078E-04  9152   0.530E-04 0.116E-06
CGA:  13    -0.381283409819E+03   -0.69797E-05   -0.69731E-05  9152   0.666E-04 0.308E-06
  45 F= -.38128341E+03 E0= -.38127689E+03  d E =0.230302E-03  mag=    58.0000
       N       E                     dE             d eps       ncg     rms          ort
SDA:   1    -0.377774549090E+03    0.35089E+01    0.00000E+00  9152   0.973E+01 0.000E+00
CGA:   2    -0.379526773671E+03   -0.17522E+01   -0.17341E+01  9152   0.150E+02 0.319E+00
CGA:   3    -0.380420181612E+03   -0.89341E+00   -0.96093E+00  9152   0.570E+01-0.149E+01
CGA:   4    -0.380988598408E+03   -0.56842E+00   -0.56861E+00  9152   0.218E+01-0.148E+00
CGA:   5    -0.381140468486E+03   -0.15187E+00   -0.15588E+00  9152   0.103E+01-0.920E-02
CGA:   6    -0.381214637848E+03   -0.74169E-01   -0.73748E-01  9152   0.371E+00-0.164E-02
CGA:   7    -0.381251277619E+03   -0.36640E-01   -0.36659E-01  9152   0.161E+00 0.112E-02
CGA:   8    -0.381261800833E+03   -0.10523E-01   -0.10463E-01  9152   0.777E-01 0.995E-04
CGA:   9    -0.381270766021E+03   -0.89652E-02   -0.89591E-02  9152   0.315E-01 0.324E-03
CGA:  10    -0.381272997249E+03   -0.22312E-02   -0.22269E-02  9152   0.193E-01-0.797E-05
CGA:  11    -0.381275066902E+03   -0.20697E-02   -0.20695E-02  9152   0.813E-02 0.162E-04
CGA:  12    -0.381275750826E+03   -0.68392E-03   -0.68361E-03  9152   0.553E-02-0.380E-05
CGA:  13    -0.381276266742E+03   -0.51592E-03   -0.51606E-03  9152   0.327E-02 0.904E-05
CGA:  14    -0.381276645024E+03   -0.37828E-03   -0.37828E-03  9152   0.237E-02 0.833E-06
CGA:  15    -0.381276836984E+03   -0.19196E-03   -0.19209E-03  9152   0.165E-02 0.339E-05
CGA:  16    -0.381277069901E+03   -0.23292E-03   -0.23283E-03  9152   0.121E-02 0.226E-05
CGA:  17    -0.381277164756E+03   -0.94855E-04   -0.94915E-04  9152   0.841E-03 0.173E-05
CGA:  18    -0.381277268120E+03   -0.10336E-03   -0.10336E-03  9152   0.555E-03 0.207E-06
CGA:  19    -0.381277319262E+03   -0.51143E-04   -0.51153E-04  9152   0.405E-03 0.660E-06
CGA:  20    -0.381277354655E+03   -0.35392E-04   -0.35389E-04  9152   0.216E-03-0.213E-06
CGA:  21    -0.381277381592E+03   -0.26937E-04   -0.26933E-04  9152   0.181E-03 0.191E-06
CGA:  22    -0.381277394959E+03   -0.13367E-04   -0.13363E-04  9152   0.943E-04-0.981E-07
CGA:  23    -0.381277408935E+03   -0.13976E-04   -0.13963E-04  9152   0.877E-04 0.263E-06
CGA:  24    -0.381277415978E+03   -0.70426E-05   -0.70371E-05  9152   0.572E-04-0.222E-06
  46 F= -.38127742E+03 E0= -.38127087E+03  d E =0.599384E-02  mag=    58.0000
       N       E                     dE             d eps       ncg     rms          ort
SDA:   1    -0.381144325164E+03    0.13308E+00    0.00000E+00  9152   0.690E+00 0.000E+00
CGA:   2    -0.381184117654E+03   -0.39792E-01   -0.40771E-01  9152   0.487E+00-0.805E-02
CGA:   3    -0.381238558318E+03   -0.54441E-01   -0.54464E-01  9152   0.177E+00-0.123E-02
CGA:   4    -0.381264820243E+03   -0.26262E-01   -0.26276E-01  9152   0.100E+00-0.269E-03
CGA:   5    -0.381273872815E+03   -0.90526E-02   -0.90416E-02  9152   0.534E-01-0.274E-03
CGA:   6    -0.381276834058E+03   -0.29612E-02   -0.29666E-02  9152   0.182E-01-0.438E-04
CGA:   7    -0.381279144772E+03   -0.23107E-02   -0.23113E-02  9152   0.412E-02-0.151E-04
CGA:   8    -0.381279599910E+03   -0.45514E-03   -0.45514E-03  9152   0.449E-02-0.861E-07
CGA:   9    -0.381279881997E+03   -0.28209E-03   -0.28162E-03  9152   0.108E-02 0.448E-06
CGA:  10    -0.381280021206E+03   -0.13921E-03   -0.13917E-03  9152   0.586E-03 0.133E-05
CGA:  11    -0.381280081415E+03   -0.60209E-04   -0.60209E-04  9152   0.495E-03 0.190E-06
CGA:  12    -0.381280112818E+03   -0.31402E-04   -0.31430E-04  9152   0.161E-03 0.478E-06
CGA:  13    -0.381280138827E+03   -0.26009E-04   -0.26020E-04  9152   0.940E-04-0.157E-06
CGA:  14    -0.381280147198E+03   -0.83713E-05   -0.83712E-05  9152   0.934E-04-0.265E-07
  47 F= -.38128015E+03 E0= -.38127359E+03  d E =-.273122E-02  mag=    58.0000
       N       E                     dE             d eps       ncg     rms          ort
SDA:   1    -0.380361709395E+03    0.91843E+00    0.00000E+00  9152   0.232E+01 0.000E+00
CGA:   2    -0.381000940636E+03   -0.63923E+00   -0.63919E+00  9152   0.144E+01 0.339E-03
CGA:   3    -0.381154287056E+03   -0.15335E+00   -0.15330E+00  9152   0.144E+01-0.539E-02
CGA:   4    -0.381231732611E+03   -0.77446E-01   -0.78024E-01  9152   0.238E+00-0.126E-01
CGA:   5    -0.381264499567E+03   -0.32767E-01   -0.32774E-01  9152   0.818E-01-0.157E-03
CGA:   6    -0.381271290496E+03   -0.67909E-02   -0.68042E-02  9152   0.527E-01 0.103E-03
CGA:   7    -0.381274790079E+03   -0.34996E-02   -0.34966E-02  9152   0.220E-01 0.182E-05
CGA:   8    -0.381277171575E+03   -0.23815E-02   -0.23815E-02  9152   0.597E-02-0.173E-06
CGA:   9    -0.381277931437E+03   -0.75986E-03   -0.76007E-03  9152   0.643E-02-0.682E-05
CGA:  10    -0.381278285140E+03   -0.35370E-03   -0.35445E-03  9152   0.149E-02-0.488E-05
CGA:  11    -0.381278510904E+03   -0.22576E-03   -0.22572E-03  9152   0.101E-02 0.903E-06
CGA:  12    -0.381278617695E+03   -0.10679E-03   -0.10679E-03  9152   0.100E-02 0.135E-05
CGA:  13    -0.381278688487E+03   -0.70792E-04   -0.70765E-04  9152   0.413E-03 0.355E-06
CGA:  14    -0.381278770998E+03   -0.82511E-04   -0.82417E-04  9152   0.369E-03 0.990E-06
CGA:  15    -0.381278801041E+03   -0.30043E-04   -0.30045E-04  9152   0.315E-03 0.136E-06
CGA:  16    -0.381278831148E+03   -0.30107E-04   -0.30118E-04  9152   0.170E-03 0.739E-06
CGA:  17    -0.381278855817E+03   -0.24668E-04   -0.24660E-04  9152   0.974E-04 0.232E-06
CGA:  18    -0.381278863535E+03   -0.77182E-05   -0.77268E-05  9152   0.890E-04 0.240E-06
  48 F= -.38127886E+03 E0= -.38127228E+03  d E =0.128366E-02  mag=    58.0000
       N       E                     dE             d eps       ncg     rms          ort
SDA:   1    -0.371730388193E+03    0.95485E+01    0.00000E+00  9152   0.249E+02 0.000E+00
CGA:   2    -0.377944706309E+03   -0.62143E+01   -0.61797E+01  9152   0.200E+02 0.313E+00
CGA:   3    -0.379488048879E+03   -0.15433E+01   -0.14114E+01  9152   0.131E+02-0.116E+00
CGA:   4    -0.380706717219E+03   -0.12187E+01   -0.11807E+01  9152   0.349E+01-0.486E+00
CGA:   5    -0.381064355532E+03   -0.35764E+00   -0.35897E+00  9152   0.109E+01 0.129E+00
CGA:   6    -0.381164324834E+03   -0.99969E-01   -0.10002E+00  9152   0.851E+00-0.643E-03
CGA:   7    -0.381218972398E+03   -0.54648E-01   -0.54209E-01  9152   0.198E+00 0.288E-02
CGA:   8    -0.381246173571E+03   -0.27201E-01   -0.27171E-01  9152   0.102E+00 0.732E-03
CGA:   9    -0.381256514607E+03   -0.10341E-01   -0.10342E-01  9152   0.562E-01 0.457E-04
CGA:  10    -0.381259746935E+03   -0.32323E-02   -0.32441E-02  9152   0.247E-01-0.874E-04
CGA:  11    -0.381263483429E+03   -0.37365E-02   -0.37397E-02  9152   0.824E-02-0.539E-04
CGA:  12    -0.381264520148E+03   -0.10367E-02   -0.10359E-02  9152   0.121E-01 0.333E-04
CGA:  13    -0.381265473074E+03   -0.95293E-03   -0.95319E-03  9152   0.485E-02 0.377E-05
CGA:  14    -0.381266119733E+03   -0.64666E-03   -0.64657E-03  9152   0.311E-02 0.388E-05
CGA:  15    -0.381266508384E+03   -0.38865E-03   -0.38876E-03  9152   0.408E-02-0.367E-05
CGA:  16    -0.381266807065E+03   -0.29868E-03   -0.29893E-03  9152   0.142E-02 0.236E-05
CGA:  17    -0.381267015702E+03   -0.20864E-03   -0.20837E-03  9152   0.961E-03 0.599E-05
CGA:  18    -0.381267116062E+03   -0.10036E-03   -0.10038E-03  9152   0.102E-02 0.287E-05
CGA:  19    -0.381267191794E+03   -0.75732E-04   -0.75782E-04  9152   0.320E-03 0.202E-05
CGA:  20    -0.381267248403E+03   -0.56608E-04   -0.56495E-04  9152   0.279E-03 0.164E-05
CGA:  21    -0.381267272575E+03   -0.24172E-04   -0.24163E-04  9152   0.269E-03-0.329E-06
CGA:  22    -0.381267300324E+03   -0.27749E-04   -0.27745E-04  9152   0.111E-03-0.602E-06
CGA:  23    -0.381267319085E+03   -0.18762E-04   -0.18837E-04  9152   0.138E-03-0.127E-05
CGA:  24    -0.381267329416E+03   -0.10331E-04   -0.10309E-04  9152   0.848E-04-0.622E-06
CGA:  25    -0.381267338273E+03   -0.88576E-05   -0.88528E-05  9152   0.408E-04-0.761E-06
  49 F= -.38126734E+03 E0= -.38126083E+03  d E =0.115253E-01  mag=    58.0000
       N       E                     dE             d eps       ncg     rms          ort
SDA:   1    -0.369080633037E+03    0.12187E+02    0.00000E+00  9152   0.479E+02 0.000E+00
CGA:   2    -0.374318350100E+03   -0.52377E+01   -0.52452E+01  9152   0.444E+02 0.776E+00
CGA:   3    -0.376787030819E+03   -0.24687E+01   -0.30040E+01  9152   0.271E+02-0.260E+01
CGA:   4    -0.379231153436E+03   -0.24441E+01   -0.24811E+01  9152   0.101E+02 0.917E+00
CGA:   5    -0.380577664149E+03   -0.13465E+01   -0.13605E+01  9152   0.460E+01-0.514E+00
CGA:   6    -0.380835957681E+03   -0.25829E+00   -0.29376E+00  9152   0.320E+01-0.139E+00
CGA:   7    -0.381034122835E+03   -0.19817E+00   -0.19428E+00  9152   0.808E+00 0.805E-02
[...]
CGA:  12    -0.381297003556E+03   -0.26091E-04   -0.26081E-04  9152   0.152E-03 0.155E-06
CGA:  13    -0.381297014073E+03   -0.10517E-04   -0.10534E-04  9152   0.948E-04 0.378E-06
CGA:  14    -0.381297027481E+03   -0.13408E-04   -0.13401E-04  9152   0.550E-04 0.224E-06
CGA:  15    -0.381297036034E+03   -0.85523E-05   -0.85424E-05  9152   0.407E-04 0.228E-06
 164 F= -.38129704E+03 E0= -.38129055E+03  d E =-.162002E-02  mag=    58.0000
       N       E                     dE             d eps       ncg     rms          ort
SDA:   1    -0.381292477160E+03    0.45503E-02    0.00000E+00  9152   0.518E-01 0.000E+00
CGA:   2    -0.381294418097E+03   -0.19409E-02   -0.19145E-02  9152   0.922E-02 0.499E-03
CGA:   3    -0.381296232223E+03   -0.18141E-02   -0.18140E-02  9152   0.471E-02 0.154E-05
CGA:   4    -0.381296814209E+03   -0.58199E-03   -0.58188E-03  9152   0.237E-02 0.609E-05
CGA:   5    -0.381297094619E+03   -0.28041E-03   -0.28041E-03  9152   0.145E-02-0.919E-06
CGA:   6    -0.381297168840E+03   -0.74221E-04   -0.74359E-04  9152   0.415E-03-0.106E-05
CGA:   7    -0.381297225853E+03   -0.57014E-04   -0.57017E-04  9152   0.979E-04-0.892E-07
CGA:   8    -0.381297242758E+03   -0.16904E-04   -0.16866E-04  9152   0.636E-04 0.633E-06
CGA:   9    -0.381297248249E+03   -0.54912E-05   -0.54928E-05  9152   0.537E-04 0.638E-07
 165 F= -.38129725E+03 E0= -.38129077E+03  d E =-.212215E-03  mag=    58.0000
       N       E                     dE             d eps       ncg     rms          ort
SDA:   1    -0.380945365063E+03    0.35188E+00    0.00000E+00  9152   0.104E+01 0.000E+00
CGA:   2    -0.381132517867E+03   -0.18715E+00   -0.18779E+00  9152   0.110E+01-0.920E-02
CGA:   3    -0.381211316451E+03   -0.78799E-01   -0.81149E-01  9152   0.696E+00-0.515E-02
CGA:   4    -0.381261686769E+03   -0.50370E-01   -0.51142E-01  9152   0.198E+00-0.785E-03
CGA:   5    -0.381286903048E+03   -0.25216E-01   -0.25206E-01  9152   0.473E-01 0.418E-03
CGA:   6    -0.381293503416E+03   -0.66004E-02   -0.66072E-02  9152   0.208E-01-0.175E-03
CGA:   7    -0.381295043001E+03   -0.15396E-02   -0.15450E-02  9152   0.130E-01-0.236E-05
CGA:   8    -0.381296019638E+03   -0.97664E-03   -0.97664E-03  9152   0.370E-02-0.183E-05
CGA:   9    -0.381296598668E+03   -0.57903E-03   -0.57907E-03  9152   0.127E-02-0.260E-06
CGA:  10    -0.381296751561E+03   -0.15289E-03   -0.15292E-03  9152   0.128E-02-0.184E-05
CGA:  11    -0.381296835663E+03   -0.84102E-04   -0.84152E-04  9152   0.443E-03 0.352E-06
CGA:  12    -0.381296895583E+03   -0.59920E-04   -0.59922E-04  9152   0.229E-03-0.280E-07
CGA:  13    -0.381296931434E+03   -0.35851E-04   -0.35819E-04  9152   0.186E-03 0.730E-06
CGA:  14    -0.381296946184E+03   -0.14750E-04   -0.14753E-04  9152   0.152E-03 0.200E-06
CGA:  15    -0.381296964152E+03   -0.17969E-04   -0.17964E-04  9152   0.588E-04 0.803E-06
CGA:  16    -0.381296975543E+03   -0.11391E-04   -0.11383E-04  9152   0.497E-04 0.105E-06
CGA:  17    -0.381296979480E+03   -0.39368E-05   -0.39401E-05  9152   0.380E-04 0.699E-07
 166 F= -.38129698E+03 E0= -.38129052E+03  d E =0.268769E-03  mag=    58.0000
       N       E                     dE             d eps       ncg     rms          ort
SDA:   1    -0.381221962058E+03    0.75013E-01    0.00000E+00  9152   0.237E+00 0.000E+00
CGA:   2    -0.381261184305E+03   -0.39222E-01   -0.39119E-01  9152   0.225E+00 0.165E-02
CGA:   3    -0.381277645683E+03   -0.16461E-01   -0.16535E-01  9152   0.137E+00-0.298E-03
CGA:   4    -0.381289819902E+03   -0.12174E-01   -0.12161E-01  9152   0.455E-01-0.103E-03
CGA:   5    -0.381295237231E+03   -0.54173E-02   -0.54177E-02  9152   0.120E-01-0.296E-04
CGA:   6    -0.381296698355E+03   -0.14611E-02   -0.14612E-02  9152   0.876E-02-0.687E-05
CGA:   7    -0.381297188701E+03   -0.49035E-03   -0.49098E-03  9152   0.254E-02-0.395E-05
CGA:   8    -0.381297491588E+03   -0.30289E-03   -0.30293E-03  9152   0.924E-03-0.234E-05
CGA:   9    -0.381297618351E+03   -0.12676E-03   -0.12672E-03  9152   0.546E-03 0.151E-05
CGA:  10    -0.381297652846E+03   -0.34495E-04   -0.34480E-04  9152   0.289E-03-0.101E-06
CGA:  11    -0.381297689965E+03   -0.37119E-04   -0.37112E-04  9152   0.102E-03 0.364E-06
CGA:  12    -0.381297704057E+03   -0.14092E-04   -0.14104E-04  9152   0.856E-04-0.425E-06
CGA:  13    -0.381297710582E+03   -0.65256E-05   -0.65236E-05  9152   0.548E-04-0.657E-07
 167 F= -.38129771E+03 E0= -.38129124E+03  d E =-.731102E-03  mag=    58.0000
       N       E                     dE             d eps       ncg     rms          ort
SDA:   1    -0.381253454881E+03    0.44249E-01    0.00000E+00  9152   0.134E+00 0.000E+00
CGA:   2    -0.381271813032E+03   -0.18358E-01   -0.18352E-01  9152   0.206E+00 0.171E-03
CGA:   3    -0.381286385754E+03   -0.14573E-01   -0.14649E-01  9152   0.691E-01-0.231E-03
CGA:   4    -0.381293464730E+03   -0.70790E-02   -0.70808E-02  9152   0.233E-01 0.109E-03
CGA:   5    -0.381296466960E+03   -0.30022E-02   -0.30025E-02  9152   0.536E-02-0.983E-05
CGA:   6    -0.381297069804E+03   -0.60284E-03   -0.60285E-03  9152   0.508E-02-0.230E-05
CGA:   7    -0.381297366902E+03   -0.29710E-03   -0.29753E-03  9152   0.102E-02-0.849E-06
CGA:   8    -0.381297507383E+03   -0.14048E-03   -0.14049E-03  9152   0.463E-03 0.137E-06
CGA:   9    -0.381297565993E+03   -0.58610E-04   -0.58595E-04  9152   0.249E-03 0.749E-06
CGA:  10    -0.381297581306E+03   -0.15314E-04   -0.15303E-04  9152   0.128E-03-0.187E-06
CGA:  11    -0.381297598807E+03   -0.17501E-04   -0.17500E-04  9152   0.499E-04 0.194E-08
CGA:  12    -0.381297605551E+03   -0.67436E-05   -0.67513E-05  9152   0.396E-04-0.292E-06
 168 F= -.38129761E+03 E0= -.38129113E+03  d E =0.105031E-03  mag=    58.0000
       N       E                     dE             d eps       ncg     rms          ort
SDA:   1    -0.380938902779E+03    0.35870E+00    0.00000E+00  9152   0.918E+00 0.000E+00
CGA:   2    -0.381146594351E+03   -0.20769E+00   -0.20518E+00  9152   0.157E+01 0.237E-01
CGA:   3    -0.381233808058E+03   -0.87214E-01   -0.83504E-01  9152   0.297E+00 0.247E-01
CGA:   4    -0.381281709386E+03   -0.47901E-01   -0.47892E-01  9152   0.803E-01 0.160E-03
CGA:   5    -0.381290047705E+03   -0.83383E-02   -0.83351E-02  9152   0.664E-01-0.121E-03
CGA:   6    -0.381293977773E+03   -0.39301E-02   -0.39553E-02  9152   0.136E-01-0.193E-03
CGA:   7    -0.381295699967E+03   -0.17222E-02   -0.17224E-02  9152   0.692E-02-0.755E-05
CGA:   8    -0.381296379933E+03   -0.67997E-03   -0.68002E-03  9152   0.382E-02 0.255E-05
CGA:   9    -0.381296616352E+03   -0.23642E-03   -0.23604E-03  9152   0.143E-02 0.103E-05
CGA:  10    -0.381296812141E+03   -0.19579E-03   -0.19576E-03  9152   0.481E-03 0.609E-06
CGA:  11    -0.381296863872E+03   -0.51730E-04   -0.51727E-04  9152   0.546E-03-0.869E-06
CGA:  12    -0.381296908577E+03   -0.44705E-04   -0.44705E-04  9152   0.182E-03 0.779E-07
CGA:  13    -0.381296939839E+03   -0.31263E-04   -0.31264E-04  9152   0.167E-03-0.162E-07
CGA:  14    -0.381296954320E+03   -0.14480E-04   -0.14490E-04  9152   0.135E-03 0.291E-06
CGA:  15    -0.381296968445E+03   -0.14125E-04   -0.14125E-04  9152   0.727E-04-0.971E-09
CGA:  16    -0.381296979526E+03   -0.11081E-04   -0.11063E-04  9152   0.505E-04 0.430E-06
CGA:  17    -0.381296983406E+03   -0.38804E-05   -0.38798E-05  9152   0.380E-04-0.681E-08
 169 F= -.38129698E+03 E0= -.38129050E+03  d E =0.622145E-03  mag=    58.0000
       N       E                     dE             d eps       ncg     rms          ort
SDA:   1    -0.379387139953E+03    0.19098E+01    0.00000E+00  9152   0.467E+01 0.000E+00
CGA:   2    -0.380817247762E+03   -0.14301E+01   -0.14316E+01  9152   0.261E+01-0.842E-02
CGA:   3    -0.381078982797E+03   -0.26174E+00   -0.26401E+00  9152   0.221E+01 0.306E-01
CGA:   4    -0.381210437617E+03   -0.13145E+00   -0.13468E+00  9152   0.537E+00-0.462E-01
CGA:   5    -0.381265931704E+03   -0.55494E-01   -0.55545E-01  9152   0.143E+00 0.184E-02
CGA:   6    -0.381282776738E+03   -0.16845E-01   -0.16845E-01  9152   0.995E-01 0.288E-03
CGA:   7    -0.381288640503E+03   -0.58638E-02   -0.58640E-02  9152   0.338E-01-0.756E-04
CGA:   8    -0.381292870691E+03   -0.42302E-02   -0.42301E-02  9152   0.129E-01 0.423E-05
CGA:   9    -0.381294175810E+03   -0.13051E-02   -0.13043E-02  9152   0.696E-02-0.250E-04
CGA:  10    -0.381294643173E+03   -0.46736E-03   -0.46850E-03  9152   0.371E-02-0.432E-05
CGA:  11    -0.381295112748E+03   -0.46957E-03   -0.46956E-03  9152   0.126E-02 0.387E-06
CGA:  12    -0.381295293858E+03   -0.18111E-03   -0.18106E-03  9152   0.181E-02 0.173E-05
CGA:  13    -0.381295430232E+03   -0.13637E-03   -0.13628E-03  9152   0.731E-03 0.675E-06
CGA:  14    -0.381295551216E+03   -0.12098E-03   -0.12090E-03  9152   0.553E-03 0.137E-05
CGA:  15    -0.381295611451E+03   -0.60235E-04   -0.60233E-04  9152   0.635E-03-0.205E-06
CGA:  16    -0.381295667806E+03   -0.56355E-04   -0.56376E-04  9152   0.254E-03 0.763E-06
CGA:  17    -0.381295705060E+03   -0.37254E-04   -0.37244E-04  9152   0.179E-03 0.311E-06
CGA:  18    -0.381295722197E+03   -0.17137E-04   -0.17150E-04  9152   0.165E-03 0.637E-06
CGA:  19    -0.381295736613E+03   -0.14416E-04   -0.14423E-04  9152   0.617E-04 0.230E-06
CGA:  20    -0.381295746881E+03   -0.10268E-04   -0.10268E-04  9152   0.573E-04-0.801E-08
CGA:  21    -0.381295752100E+03   -0.52192E-05   -0.52124E-05  9152   0.534E-04-0.271E-06
 170 F= -.38129575E+03 E0= -.38128929E+03  d E =0.123131E-02  mag=    58.0000
       N       E                     dE             d eps       ncg     rms          ort
SDA:   1    -0.374373480266E+03    0.69223E+01    0.00000E+00  9152   0.169E+02 0.000E+00
CGA:   2    -0.379583189998E+03   -0.52097E+01   -0.52210E+01  9152   0.936E+01-0.608E-01
CGA:   3    -0.380487047699E+03   -0.90386E+00   -0.93161E+00  9152   0.826E+01 0.274E+00
CGA:   4    -0.380994337091E+03   -0.50729E+00   -0.53371E+00  9152   0.180E+01-0.406E+00
CGA:   5    -0.381185821021E+03   -0.19148E+00   -0.19154E+00  9152   0.583E+00 0.359E-02
CGA:   6    -0.381235094335E+03   -0.49273E-01   -0.49694E-01  9152   0.404E+00 0.721E-03
CGA:   7    -0.381265107991E+03   -0.30014E-01   -0.30394E-01  9152   0.112E+00-0.824E-03
CGA:   8    -0.381279719936E+03   -0.14612E-01   -0.14618E-01  9152   0.592E-01-0.248E-03
CGA:   9    -0.381283650391E+03   -0.39305E-02   -0.39072E-02  9152   0.275E-01 0.983E-04
CGA:  10    -0.381286432373E+03   -0.27820E-02   -0.27822E-02  9152   0.120E-01 0.643E-05
CGA:  11    -0.381287833708E+03   -0.14013E-02   -0.14014E-02  9152   0.757E-02-0.307E-05
CGA:  12    -0.381288414468E+03   -0.58076E-03   -0.58157E-03  9152   0.508E-02 0.545E-05
CGA:  13    -0.381289138601E+03   -0.72413E-03   -0.72415E-03  9152   0.271E-02 0.141E-05
CGA:  14    -0.381289457238E+03   -0.31864E-03   -0.31861E-03  9152   0.333E-02 0.475E-05
CGA:  15    -0.381289762449E+03   -0.30521E-03   -0.30515E-03  9152   0.146E-02-0.561E-06
CGA:  16    -0.381289987184E+03   -0.22473E-03   -0.22466E-03  9152   0.127E-02 0.183E-05
CGA:  17    -0.381290083025E+03   -0.95841E-04   -0.95834E-04  9152   0.791E-03 0.368E-06
CGA:  18    -0.381290184425E+03   -0.10140E-03   -0.10135E-03  9152   0.394E-03 0.254E-05
CGA:  19    -0.381290228968E+03   -0.44543E-04   -0.44543E-04  9152   0.371E-03 0.731E-06
CGA:  20    -0.381290260237E+03   -0.31269E-04   -0.31297E-04  9152   0.196E-03 0.929E-06
CGA:  21    -0.381290289719E+03   -0.29482E-04   -0.29495E-04  9152   0.153E-03-0.343E-06
CGA:  22    -0.381290304785E+03   -0.15066E-04   -0.15065E-04  9152   0.142E-03-0.183E-06
CGA:  23    -0.381290320062E+03   -0.15277E-04   -0.15273E-04  9152   0.807E-04-0.743E-06
CGA:  24    -0.381290331796E+03   -0.11734E-04   -0.11753E-04  9152   0.735E-04-0.555E-06
CGA:  25    -0.381290337206E+03   -0.54093E-05   -0.53865E-05  9152   0.403E-04-0.545E-06
 171 F= -.38129034E+03 E0= -.38128392E+03  d E =0.541489E-02  mag=    58.0000
       N       E                     dE             d eps       ncg     rms          ort
SDA:   1    -0.381127496653E+03    0.16284E+00    0.00000E+00  9152   0.534E+00 0.000E+00
CGA:   2    -0.381190816511E+03   -0.63320E-01   -0.63275E-01  9152   0.759E+00 0.629E-02
CGA:   3    -0.381249053027E+03   -0.58237E-01   -0.57688E-01  9152   0.191E+00-0.864E-03
CGA:   4    -0.381278072359E+03   -0.29019E-01   -0.29076E-01  9152   0.771E-01-0.110E-02
CGA:   5    -0.381284783826E+03   -0.67115E-02   -0.67167E-02  9152   0.479E-01 0.373E-04
CGA:   6    -0.381287978240E+03   -0.31944E-02   -0.32025E-02  9152   0.152E-01-0.310E-04
CGA:   7    -0.381289621003E+03   -0.16428E-02   -0.16429E-02  9152   0.430E-02 0.129E-04
CGA:   8    -0.381290090035E+03   -0.46903E-03   -0.46904E-03  9152   0.375E-02 0.181E-05
CGA:   9    -0.381290343274E+03   -0.25324E-03   -0.25311E-03  9152   0.116E-02-0.227E-05
CGA:  10    -0.381290490085E+03   -0.14681E-03   -0.14678E-03  9152   0.536E-03 0.127E-05
CGA:  11    -0.381290549366E+03   -0.59281E-04   -0.59281E-04  9152   0.505E-03 0.372E-06
CGA:  12    -0.381290584927E+03   -0.35561E-04   -0.35608E-04  9152   0.154E-03 0.116E-05
CGA:  13    -0.381290614625E+03   -0.29699E-04   -0.29659E-04  9152   0.131E-03 0.468E-06
CGA:  14    -0.381290625025E+03   -0.10399E-04   -0.10407E-04  9152   0.100E-03 0.212E-06
CGA:  15    -0.381290636976E+03   -0.11951E-04   -0.11954E-04  9152   0.544E-04-0.298E-06
CGA:  16    -0.381290644651E+03   -0.76752E-05   -0.76761E-05  9152   0.438E-04-0.280E-07
 172 F= -.38129064E+03 E0= -.38128424E+03  d E =-.307446E-03  mag=    58.0000
       N       E                     dE             d eps       ncg     rms          ort
SDA:   1    -0.380308030264E+03    0.98261E+00    0.00000E+00  9152   0.244E+01 0.000E+00
CGA:   2    -0.380978421792E+03   -0.67039E+00   -0.66731E+00  9152   0.295E+01 0.263E-01
CGA:   3    -0.381130802766E+03   -0.15238E+00   -0.16206E+00  9152   0.106E+01-0.207E+00
CGA:   4    -0.381247898670E+03   -0.11710E+00   -0.11715E+00  9152   0.262E+00-0.852E-02
CGA:   5    -0.381273568187E+03   -0.25670E-01   -0.25742E-01  9152   0.159E+00 0.142E-02
CGA:   6    -0.381283778701E+03   -0.10211E-01   -0.10183E-01  9152   0.503E-01 0.407E-05
CGA:   7    -0.381289419247E+03   -0.56405E-02   -0.56405E-02  9152   0.191E-01-0.938E-04
CGA:   8    -0.381291203980E+03   -0.17847E-02   -0.17836E-02  9152   0.142E-01-0.208E-04
CGA:   9    -0.381292248884E+03   -0.10449E-02   -0.10467E-02  9152   0.382E-02-0.442E-06
CGA:  10    -0.381292684684E+03   -0.43580E-03   -0.43581E-03  9152   0.216E-02-0.115E-05
CGA:  11    -0.381292870385E+03   -0.18570E-03   -0.18573E-03  9152   0.147E-02 0.952E-06
CGA:  12    -0.381293000932E+03   -0.13055E-03   -0.13054E-03  9152   0.514E-03-0.134E-06
CGA:  13    -0.381293087558E+03   -0.86626E-04   -0.86547E-04  9152   0.701E-03 0.126E-05
CGA:  14    -0.381293136994E+03   -0.49436E-04   -0.49434E-04  9152   0.268E-03 0.180E-06
CGA:  15    -0.381293182913E+03   -0.45919E-04   -0.45895E-04  9152   0.259E-03 0.446E-06
CGA:  16    -0.381293206203E+03   -0.23290E-04   -0.23289E-04  9152   0.207E-03-0.140E-07
CGA:  17    -0.381293227149E+03   -0.20946E-04   -0.20950E-04  9152   0.834E-04 0.381E-06
CGA:  18    -0.381293239471E+03   -0.12322E-04   -0.12318E-04  9152   0.986E-04 0.980E-07
CGA:  19    -0.381293246379E+03   -0.69077E-05   -0.69228E-05  9152   0.344E-04 0.376E-06
 173 F= -.38129325E+03 E0= -.38128684E+03  d E =-.260173E-02  mag=    58.0000
       N       E                     dE             d eps       ncg     rms          ort
SDA:   1    -0.380469093346E+03    0.82415E+00    0.00000E+00  9152   0.250E+01 0.000E+00
CGA:   2    -0.380841987994E+03   -0.37289E+00   -0.37343E+00  9152   0.371E+01-0.489E-02
CGA:   3    -0.381085795649E+03   -0.24381E+00   -0.24870E+00  9152   0.119E+01-0.645E-01
CGA:   4    -0.381215397700E+03   -0.12960E+00   -0.12960E+00  9152   0.464E+00-0.176E-02
CGA:   5    -0.381268152651E+03   -0.52755E-01   -0.52762E-01  9152   0.145E+00-0.118E-02
CGA:   6    -0.381278749599E+03   -0.10597E-01   -0.10565E-01  9152   0.998E-01-0.862E-04
CGA:   7    -0.381287623288E+03   -0.88737E-02   -0.88794E-02  9152   0.173E-01 0.719E-04
CGA:   8    -0.381290318395E+03   -0.26951E-02   -0.26989E-02  9152   0.141E-01-0.632E-04
CGA:   9    -0.381291166589E+03   -0.84819E-03   -0.85007E-03  9152   0.537E-02-0.989E-05
CGA:  10    -0.381291754089E+03   -0.58750E-03   -0.58749E-03  9152   0.244E-02 0.290E-05
CGA:  11    -0.381292082456E+03   -0.32837E-03   -0.32828E-03  9152   0.149E-02 0.284E-05
CGA:  12    -0.381292185596E+03   -0.10314E-03   -0.10304E-03  9152   0.916E-03-0.513E-07
CGA:  13    -0.381292323804E+03   -0.13821E-03   -0.13812E-03  9152   0.507E-03 0.175E-05
CGA:  14    -0.381292390190E+03   -0.66386E-04   -0.66374E-04  9152   0.498E-03 0.323E-06
CGA:  15    -0.381292431160E+03   -0.40970E-04   -0.40997E-04  9152   0.336E-03 0.496E-06
CGA:  16    -0.381292475990E+03   -0.44830E-04   -0.44827E-04  9152   0.147E-03 0.498E-07
CGA:  17    -0.381292496499E+03   -0.20509E-04   -0.20496E-04  9152   0.181E-03 0.454E-06
CGA:  18    -0.381292509384E+03   -0.12885E-04   -0.12887E-04  9152   0.667E-04 0.433E-07
CGA:  19    -0.381292520121E+03   -0.10737E-04   -0.10717E-04  9152   0.441E-04 0.375E-06
CGA:  20    -0.381292524519E+03   -0.43981E-05   -0.43980E-05  9152   0.395E-04-0.659E-08
 174 F= -.38129252E+03 E0= -.38128614E+03  d E =0.721860E-03  mag=    58.0000
       N       E                     dE             d eps       ncg     rms          ort
SDA:   1    -0.381052523926E+03    0.24000E+00    0.00000E+00  9152   0.682E+00 0.000E+00
CGA:   2    -0.381171588536E+03   -0.11906E+00   -0.11854E+00  9152   0.109E+01 0.823E-02
CGA:   3    -0.381237965255E+03   -0.66377E-01   -0.64839E-01  9152   0.265E+00 0.630E-02
CGA:   4    -0.381279826084E+03   -0.41861E-01   -0.41841E-01  9152   0.679E-01 0.356E-03
CGA:   5    -0.381287231737E+03   -0.74057E-02   -0.74033E-02  9152   0.594E-01-0.235E-03
CGA:   6    -0.381290763762E+03   -0.35320E-02   -0.35390E-02  9152   0.118E-01-0.576E-04
CGA:   7    -0.381292261345E+03   -0.14976E-02   -0.14972E-02  9152   0.541E-02 0.119E-04
CGA:   8    -0.381292811747E+03   -0.55040E-03   -0.55044E-03  9152   0.341E-02 0.140E-05
CGA:   9    -0.381293030920E+03   -0.21917E-03   -0.21878E-03  9152   0.128E-02 0.985E-06
CGA:  10    -0.381293208799E+03   -0.17788E-03   -0.17783E-03  9152   0.516E-03 0.145E-05
CGA:  11    -0.381293262440E+03   -0.53640E-04   -0.53647E-04  9152   0.426E-03 0.646E-06
CGA:  12    -0.381293296251E+03   -0.33811E-04   -0.33841E-04  9152   0.228E-03 0.783E-06
CGA:  13    -0.381293328898E+03   -0.32647E-04   -0.32640E-04  9152   0.101E-03 0.172E-06
CGA:  14    -0.381293341817E+03   -0.12920E-04   -0.12917E-04  9152   0.155E-03 0.174E-06
CGA:  15    -0.381293355718E+03   -0.13901E-04   -0.13897E-04  9152   0.464E-04-0.193E-06
CGA:  16    -0.381293362936E+03   -0.72175E-05   -0.72128E-05  9152   0.422E-04 0.104E-06
 175 F= -.38129336E+03 E0= -.38128699E+03  d E =-.838416E-03  mag=    58.0000
       N       E                     dE             d eps       ncg     rms          ort
SDA:   1    -0.381279260417E+03    0.14095E-01    0.00000E+00  9152   0.466E-01 0.000E+00
CGA:   2    -0.381283645878E+03   -0.43855E-02   -0.43810E-02  9152   0.647E-01-0.937E-04
CGA:   3    -0.381290450491E+03   -0.68046E-02   -0.68042E-02  9152   0.161E-01-0.436E-04
CGA:   4    -0.381292252546E+03   -0.18021E-02   -0.18020E-02  9152   0.617E-02 0.515E-05
CGA:   5    -0.381293067533E+03   -0.81499E-03   -0.81466E-03  9152   0.121E-02 0.120E-04
CGA:   6    -0.381293245358E+03   -0.17782E-03   -0.17793E-03  9152   0.617E-03-0.266E-05
CGA:   7    -0.381293284385E+03   -0.39027E-04   -0.39013E-04  9152   0.334E-03-0.901E-06
CGA:   8    -0.381293316823E+03   -0.32438E-04   -0.32419E-04  9152   0.115E-03-0.154E-05
CGA:   9    -0.381293332682E+03   -0.15858E-04   -0.15866E-04  9152   0.335E-04-0.239E-06
CGA:  10    -0.381293337267E+03   -0.45854E-05   -0.45751E-05  9152   0.396E-04 0.392E-06
 176 F= -.38129334E+03 E0= -.38128697E+03  d E =0.256685E-04  mag=    58.0000
