       N       E                     dE             d eps       ncg     rms          ort
DAV:   1     0.601861523061E+04    0.60186E+04   -0.27030E+05  8112   0.166E+03
DAV:   2     0.345763760076E+03   -0.56729E+04   -0.51845E+04  8112   0.463E+02
DAV:   3    -0.367264290608E+03   -0.71303E+03   -0.69841E+03  8112   0.183E+02
DAV:   4    -0.388971779615E+03   -0.21707E+02   -0.21580E+02  8112   0.333E+01
DAV:   5    -0.389375881366E+03   -0.40410E+00   -0.40137E+00  8112   0.409E+00
SDA:   6    -0.125338821585E+03    0.26404E+03   -0.40137E+00  8112   0.116E+04 0.000E+00
CGA:   7    -0.265397814614E+03   -0.14006E+03   -0.14078E+03  8112   0.343E+03-0.149E+01
CGA:   8    -0.282670121490E+03   -0.17272E+02   -0.25706E+02  8112   0.174E+03-0.261E+02
CGA:   9    -0.294217059549E+03   -0.11547E+02   -0.87556E+01  8112   0.153E+03-0.317E+02
CGA:  10    -0.302709100628E+03   -0.84920E+01   -0.96936E+01  8112   0.950E+02-0.225E+02
CGA:  11    -0.308428734414E+03   -0.57196E+01   -0.40862E+01  8112   0.593E+02-0.249E+02
CGA:  12    -0.310161218135E+03   -0.17325E+01   -0.38019E+01  8112   0.156E+03 0.456E+01
CGA:  13    -0.309702101729E+03    0.45912E+00   -0.74207E+01  8112   0.849E+02-0.761E+02
CGA:  14    -0.311209276430E+03   -0.15072E+01   -0.13510E+01  8112   0.541E+02 0.848E+01
CGA:  15    -0.312765328091E+03   -0.15561E+01   -0.21415E+01  8112   0.456E+02-0.434E+02
CGA:  16    -0.314410406144E+03   -0.16451E+01   -0.30693E+01  8112   0.372E+02-0.963E+01
CGA:  17    -0.317144147257E+03   -0.27337E+01   -0.15963E+01  8112   0.928E+01 0.192E+02
CGA:  18    -0.317512277255E+03   -0.36813E+00   -0.34817E+00  8112   0.646E+01 0.148E+00
CGA:  19    -0.318686226815E+03   -0.11739E+01   -0.11450E+01  8112   0.868E+01 0.531E+00
CGA:  20    -0.319082639172E+03   -0.39641E+00   -0.41310E+00  8112   0.248E+01-0.105E+01
CGA:  21    -0.319214773179E+03   -0.13213E+00   -0.15633E+00  8112   0.108E+01-0.114E+00
CGA:  22    -0.319288166671E+03   -0.73393E-01   -0.81052E-01  8112   0.594E+00-0.104E-01
CGA:  23    -0.319373488441E+03   -0.85322E-01   -0.84975E-01  8112   0.339E+00 0.104E-01
CGA:  24    -0.319412521153E+03   -0.39033E-01   -0.39406E-01  8112   0.137E+00 0.110E-01
CGA:  25    -0.319436780962E+03   -0.24260E-01   -0.23431E-01  8112   0.119E+00 0.148E-01
CGA:  26    -0.319454269043E+03   -0.17488E-01   -0.17469E-01  8112   0.469E-01 0.324E-02
CGA:  27    -0.319462304392E+03   -0.80353E-02   -0.80229E-02  8112   0.479E-01 0.182E-03
CGA:  28    -0.319469111483E+03   -0.68071E-02   -0.68061E-02  8112   0.331E-01 0.790E-04
CGA:  29    -0.319474183192E+03   -0.50717E-02   -0.51070E-02  8112   0.137E-01-0.102E-02
CGA:  30    -0.319476425177E+03   -0.22420E-02   -0.22370E-02  8112   0.877E-02 0.100E-03
CGA:  31    -0.319478581224E+03   -0.21560E-02   -0.22324E-02  8112   0.797E-02-0.635E-03
CGA:  32    -0.319479461132E+03   -0.87991E-03   -0.88206E-03  8112   0.533E-02 0.234E-05
CGA:  33    -0.319480577088E+03   -0.11160E-02   -0.11136E-02  8112   0.340E-02 0.202E-04
CGA:  34    -0.319481187986E+03   -0.61090E-03   -0.60382E-03  8112   0.237E-02 0.153E-03
CGA:  35    -0.319481933986E+03   -0.74600E-03    0.41586E-02  8112   0.147E-02 0.281E-02
CGA:  36    -0.319482197914E+03   -0.26393E-03   -0.14319E-03  8112   0.193E-01-0.176E-02
CGA:  37    -0.319483622945E+03   -0.14250E-02   -0.14212E-02  8112   0.203E-02 0.470E-04
CGA:  38    -0.319483803706E+03   -0.18076E-03   -0.18176E-03  8112   0.775E-03-0.402E-05
CGA:  39    -0.319483934287E+03   -0.13058E-03   -0.13070E-03  8112   0.231E-03 0.226E-05
CGA:  40    -0.319483965492E+03   -0.31204E-04   -0.31105E-04  8112   0.128E-03-0.549E-06
CGA:  41    -0.319483990313E+03   -0.24821E-04   -0.24729E-04  8112   0.123E-03-0.226E-05
CGA:  42    -0.319484010605E+03   -0.20292E-04   -0.20242E-04  8112   0.427E-04-0.276E-05
CGA:  43    -0.319484015196E+03   -0.45914E-05   -0.44806E-05  8112   0.253E-04-0.595E-06
   1 F= -.31948402E+03 E0= -.31947949E+03  d E =-.319484E+03  mag=    44.0000
       N       E                     dE             d eps       ncg     rms          ort
SDA:   1    -0.319484776966E+03   -0.76636E-03    0.00000E+00  8112   0.274E-02 0.000E+00
CGA:   2    -0.319484928431E+03   -0.15146E-03   -0.15107E-03  8112   0.184E-03 0.801E-05
CGA:   3    -0.319484948229E+03   -0.19798E-04   -0.19847E-04  8112   0.955E-04 0.671E-06
CGA:   4    -0.319484962682E+03   -0.14453E-04   -0.14508E-04  8112   0.438E-04 0.945E-06
CGA:   5    -0.319484968358E+03   -0.56760E-05   -0.56913E-05  8112   0.122E-04 0.198E-06
   2 F= -.31948497E+03 E0= -.31948044E+03  d E =-.953162E-03  mag=    44.0000
       N       E                     dE             d eps       ncg     rms          ort
SDA:   1    -0.319481601209E+03    0.33615E-02    0.00000E+00  8112   0.716E-01 0.000E+00
CGA:   2    -0.319500776957E+03   -0.19176E-01   -0.19179E-01  8112   0.394E-01-0.344E-04
CGA:   3    -0.319506025784E+03   -0.52488E-02   -0.52580E-02  8112   0.183E-01-0.718E-06
CGA:   4    -0.319508119285E+03   -0.20935E-02   -0.20893E-02  8112   0.488E-02 0.121E-04
CGA:   5    -0.319508730514E+03   -0.61123E-03   -0.61131E-03  8112   0.193E-02 0.548E-06
CGA:   6    -0.319508927255E+03   -0.19674E-03   -0.19654E-03  8112   0.742E-03 0.217E-06
CGA:   7    -0.319509020269E+03   -0.93014E-04   -0.93000E-04  8112   0.288E-03-0.580E-06
CGA:   8    -0.319509056887E+03   -0.36618E-04   -0.36617E-04  8112   0.113E-03 0.560E-07
CGA:   9    -0.319509075744E+03   -0.18857E-04   -0.18861E-04  8112   0.476E-04 0.286E-06
CGA:  10    -0.319509082385E+03   -0.66405E-05   -0.66508E-05  8112   0.309E-04 0.259E-06
   3 F= -.31950908E+03 E0= -.31950456E+03  d E =-.241140E-01  mag=    44.0000
       N       E                     dE             d eps       ncg     rms          ort
SDA:   1    -0.319337113820E+03    0.17196E+00    0.00000E+00  8112   0.616E+00 0.000E+00
CGA:   2    -0.319506527167E+03   -0.16941E+00   -0.16944E+00  8112   0.312E+00-0.279E-03
CGA:   3    -0.319549038252E+03   -0.42511E-01   -0.42511E-01  8112   0.178E+00-0.240E-04
CGA:   4    -0.319565393688E+03   -0.16355E-01   -0.16449E-01  8112   0.484E-01-0.468E-03
CGA:   5    -0.319571467299E+03   -0.60736E-02   -0.60662E-02  8112   0.159E-01-0.171E-04
CGA:   6    -0.319573315613E+03   -0.18483E-02   -0.18509E-02  8112   0.623E-02-0.146E-05
CGA:   7    -0.319574151658E+03   -0.83605E-03   -0.83586E-03  8112   0.212E-02-0.185E-05
CGA:   8    -0.319574434799E+03   -0.28314E-03   -0.28319E-03  8112   0.115E-02 0.433E-06
CGA:   9    -0.319574577394E+03   -0.14259E-03   -0.14260E-03  8112   0.502E-03 0.788E-06
CGA:  10    -0.319574640193E+03   -0.62799E-04   -0.62849E-04  8112   0.276E-03 0.106E-05
CGA:  11    -0.319574684050E+03   -0.43858E-04   -0.43858E-04  8112   0.114E-03 0.259E-06
CGA:  12    -0.319574703210E+03   -0.19159E-04   -0.19157E-04  8112   0.878E-04 0.283E-06
CGA:  13    -0.319574714100E+03   -0.10890E-04   -0.10900E-04  8112   0.375E-04 0.285E-06
CGA:  14    -0.319574719209E+03   -0.51092E-05   -0.51221E-05  8112   0.229E-04 0.534E-06
   4 F= -.31957472E+03 E0= -.31957022E+03  d E =-.656368E-01  mag=    44.0000
       N       E                     dE             d eps       ncg     rms          ort
SDA:   1    -0.319082523759E+03    0.49219E+00    0.00000E+00  8112   0.151E+01 0.000E+00
CGA:   2    -0.319493767845E+03   -0.41124E+00   -0.41144E+00  8112   0.863E+00-0.154E-02
CGA:   3    -0.319588240823E+03   -0.94473E-01   -0.95389E-01  8112   0.485E+00-0.126E-03
CGA:   4    -0.319639417237E+03   -0.51176E-01   -0.50842E-01  8112   0.113E+00 0.327E-04
CGA:   5    -0.319654433712E+03   -0.15016E-01   -0.15020E-01  8112   0.407E-01 0.472E-04
CGA:   6    -0.319658917497E+03   -0.44838E-02   -0.44813E-02  8112   0.150E-01-0.756E-05
CGA:   7    -0.319661021366E+03   -0.21039E-02   -0.21042E-02  8112   0.538E-02 0.102E-04
CGA:   8    -0.319661673447E+03   -0.65208E-03   -0.65187E-03  8112   0.295E-02-0.152E-05
CGA:   9    -0.319662040680E+03   -0.36723E-03   -0.36739E-03  8112   0.124E-02 0.277E-05
CGA:  10    -0.319662206353E+03   -0.16567E-03   -0.16570E-03  8112   0.614E-03 0.177E-05
CGA:  11    -0.319662312311E+03   -0.10596E-03   -0.10594E-03  8112   0.300E-03 0.923E-06
CGA:  12    -0.319662353427E+03   -0.41116E-04   -0.41120E-04  8112   0.227E-03 0.350E-06
CGA:  13    -0.319662383785E+03   -0.30358E-04   -0.30371E-04  8112   0.909E-04 0.721E-06
CGA:  14    -0.319662396982E+03   -0.13197E-04   -0.13201E-04  8112   0.529E-04 0.774E-06
CGA:  15    -0.319662404238E+03   -0.72567E-05   -0.72702E-05  8112   0.223E-04 0.104E-05
   5 F= -.31966240E+03 E0= -.31965793E+03  d E =-.876850E-01  mag=    44.0000
       N       E                     dE             d eps       ncg     rms          ort
SDA:   1    -0.318073619859E+03    0.15888E+01    0.00000E+00  8112   0.441E+01 0.000E+00
CGA:   2    -0.319282849765E+03   -0.12092E+01   -0.12096E+01  8112   0.273E+01-0.137E-02
CGA:   3    -0.319543598797E+03   -0.26075E+00   -0.26659E+00  8112   0.141E+01-0.164E-01
CGA:   4    -0.319708567178E+03   -0.16497E+00   -0.16396E+00  8112   0.301E+00-0.617E-02
CGA:   5    -0.319751444417E+03   -0.42877E-01   -0.42882E-01  8112   0.105E+00 0.322E-03
CGA:   6    -0.319762829599E+03   -0.11385E-01   -0.11376E-01  8112   0.464E-01-0.180E-04
CGA:   7    -0.319768684386E+03   -0.58548E-02   -0.58587E-02  8112   0.153E-01 0.646E-04
CGA:   8    -0.319770558183E+03   -0.18738E-02   -0.18733E-02  8112   0.867E-02-0.535E-05
CGA:   9    -0.319771651938E+03   -0.10938E-02   -0.10943E-02  8112   0.308E-02 0.122E-04
CGA:  10    -0.319772141281E+03   -0.48934E-03   -0.48927E-03  8112   0.184E-02 0.438E-05
CGA:  11    -0.319772390612E+03   -0.24933E-03   -0.24938E-03  8112   0.103E-02 0.300E-05
CGA:  12    -0.319772524496E+03   -0.13388E-03   -0.13390E-03  8112   0.598E-03 0.875E-06
CGA:  13    -0.319772616516E+03   -0.92020E-04   -0.91991E-04  8112   0.269E-03 0.238E-05
CGA:  14    -0.319772655661E+03   -0.39145E-04   -0.39144E-04  8112   0.157E-03 0.132E-05
CGA:  15    -0.319772675919E+03   -0.20258E-04   -0.20284E-04  8112   0.717E-04 0.158E-05
CGA:  16    -0.319772685196E+03   -0.92773E-05   -0.92954E-05  8112   0.332E-04 0.120E-05
   6 F= -.31977269E+03 E0= -.31976827E+03  d E =-.110281E+00  mag=    44.0000
       N       E                     dE             d eps       ncg     rms          ort
SDA:   1    -0.315867363043E+03    0.39053E+01    0.00000E+00  8112   0.102E+02 0.000E+00
CGA:   2    -0.318812107816E+03   -0.29447E+01   -0.29391E+01  8112   0.534E+01 0.444E-01
CGA:   3    -0.319416442344E+03   -0.60433E+00   -0.60739E+00  8112   0.303E+01 0.725E-03
CGA:   4    -0.319723676344E+03   -0.30723E+00   -0.30021E+00  8112   0.675E+00-0.848E-03
CGA:   5    -0.319819863518E+03   -0.96187E-01   -0.96201E-01  8112   0.196E+00 0.268E-02
CGA:   6    -0.319845807202E+03   -0.25944E-01   -0.25914E-01  8112   0.104E+00-0.841E-03
CGA:   7    -0.319856566038E+03   -0.10759E-01   -0.10793E-01  8112   0.323E-01 0.133E-03
CGA:   8    -0.319860983316E+03   -0.44173E-02   -0.44173E-02  8112   0.177E-01 0.339E-05
CGA:   9    -0.319863026657E+03   -0.20433E-02   -0.20461E-02  8112   0.693E-02 0.313E-04
CGA:  10    -0.319864076511E+03   -0.10499E-02   -0.10497E-02  8112   0.377E-02 0.118E-04
CGA:  11    -0.319864643053E+03   -0.56654E-03   -0.56644E-03  8112   0.203E-02 0.824E-05
CGA:  12    -0.319864902390E+03   -0.25934E-03   -0.25938E-03  8112   0.144E-02 0.275E-05
CGA:  13    -0.319865106986E+03   -0.20460E-03   -0.20459E-03  8112   0.488E-03 0.542E-05
CGA:  14    -0.319865193023E+03   -0.86037E-04   -0.85953E-04  8112   0.331E-03 0.242E-05
CGA:  15    -0.319865230325E+03   -0.37302E-04   -0.37377E-04  8112   0.132E-03 0.231E-05
CGA:  16    -0.319865248257E+03   -0.17932E-04   -0.17944E-04  8112   0.641E-04 0.185E-05
CGA:  17    -0.319865256393E+03   -0.81356E-05   -0.81509E-05  8112   0.302E-04 0.954E-06
   7 F= -.31986526E+03 E0= -.31986089E+03  d E =-.925712E-01  mag=    44.0000
       N       E                     dE             d eps       ncg     rms          ort
SDA:   1    -0.314470330605E+03    0.53949E+01    0.00000E+00  8112   0.133E+02 0.000E+00
CGA:   2    -0.318541332803E+03   -0.40710E+01   -0.40676E+01  8112   0.802E+01 0.271E-01
CGA:   3    -0.319330267544E+03   -0.78893E+00   -0.79780E+00  8112   0.367E+01-0.320E-01
CGA:   4    -0.319726873250E+03   -0.39661E+00   -0.38724E+00  8112   0.963E+00-0.211E-01
CGA:   5    -0.319847148865E+03   -0.12028E+00   -0.12053E+00  8112   0.278E+00 0.509E-02
CGA:   6    -0.319885749563E+03   -0.38601E-01   -0.38578E-01  8112   0.132E+00-0.191E-02
CGA:   7    -0.319898825944E+03   -0.13076E-01   -0.13127E-01  8112   0.518E-01 0.114E-03
CGA:   8    -0.319905137548E+03   -0.63116E-02   -0.63098E-02  8112   0.188E-01-0.354E-04
CGA:   9    -0.319907829765E+03   -0.26922E-02   -0.26918E-02  8112   0.893E-02 0.765E-04
CGA:  10    -0.319908971773E+03   -0.11420E-02   -0.11423E-02  8112   0.479E-02 0.122E-04
CGA:  11    -0.319909610137E+03   -0.63836E-03   -0.63855E-03  8112   0.283E-02 0.167E-04
CGA:  12    -0.319909988410E+03   -0.37827E-03   -0.37830E-03  8112   0.136E-02 0.504E-05
CGA:  13    -0.319910232500E+03   -0.24409E-03   -0.24375E-03  8112   0.767E-03 0.748E-05
CGA:  14    -0.319910319525E+03   -0.87025E-04   -0.87091E-04  8112   0.446E-03 0.234E-05
CGA:  15    -0.319910382562E+03   -0.63037E-04   -0.63033E-04  8112   0.154E-03 0.338E-05
CGA:  16    -0.319910404460E+03   -0.21898E-04   -0.21895E-04  8112   0.779E-04 0.222E-05
CGA:  17    -0.319910413799E+03   -0.93384E-05   -0.93618E-05  8112   0.357E-04 0.106E-05
   8 F= -.31991041E+03 E0= -.31990597E+03  d E =-.451574E-01  mag=    44.0000
       N       E                     dE             d eps       ncg     rms          ort
SDA:   1    -0.309283833587E+03    0.10627E+02    0.00000E+00  8112   0.256E+02 0.000E+00
CGA:   2    -0.317359998428E+03   -0.80762E+01   -0.80814E+01  8112   0.151E+02-0.205E-01
CGA:   3    -0.318888051587E+03   -0.15281E+01   -0.15596E+01  8112   0.645E+01 0.157E+00
CGA:   4    -0.319567810069E+03   -0.67976E+00   -0.65430E+00  8112   0.194E+01-0.123E-01
CGA:   5    -0.319790581182E+03   -0.22277E+00   -0.22344E+00  8112   0.598E+00 0.632E-02
CGA:   6    -0.319868103254E+03   -0.77522E-01   -0.77443E-01  8112   0.278E+00-0.246E-02
CGA:   7    -0.319898015699E+03   -0.29912E-01   -0.29980E-01  8112   0.982E-01 0.475E-03
CGA:   8    -0.319910097216E+03   -0.12082E-01   -0.12077E-01  8112   0.478E-01-0.103E-03
CGA:   9    -0.319915245859E+03   -0.51486E-02   -0.51658E-02  8112   0.194E-01 0.128E-03
CGA:  10    -0.319918153454E+03   -0.29076E-02   -0.29072E-02  8112   0.869E-02 0.220E-04
CGA:  11    -0.319919430054E+03   -0.12766E-02   -0.12758E-02  8112   0.642E-02 0.528E-04
CGA:  12    -0.319920150154E+03   -0.72010E-03   -0.72046E-03  8112   0.293E-02 0.119E-04
CGA:  13    -0.319920668580E+03   -0.51843E-03   -0.51755E-03  8112   0.151E-02 0.187E-04
CGA:  14    -0.319920866934E+03   -0.19835E-03   -0.19840E-03  8112   0.946E-03 0.519E-05
CGA:  15    -0.319920984277E+03   -0.11734E-03   -0.11743E-03  8112   0.402E-03 0.514E-05
CGA:  16    -0.319921033616E+03   -0.49339E-04   -0.49391E-04  8112   0.162E-03 0.345E-05
CGA:  17    -0.319921055690E+03   -0.22073E-04   -0.22078E-04  8112   0.741E-04 0.248E-05
CGA:  18    -0.319921064763E+03   -0.90732E-05   -0.90872E-05  8112   0.321E-04 0.871E-06
   9 F= -.31992106E+03 E0= -.31991649E+03  d E =-.106510E-01  mag=    44.0000
       N       E                     dE             d eps       ncg     rms          ort
SDA:   1    -0.318375383274E+03    0.15457E+01    0.00000E+00  8112   0.385E+01 0.000E+00
CGA:   2    -0.319482411479E+03   -0.11070E+01   -0.11078E+01  8112   0.277E+01-0.707E-02
CGA:   3    -0.319766235891E+03   -0.28382E+00   -0.28142E+00  8112   0.974E+00 0.521E-02
CGA:   4    -0.319881173518E+03   -0.11494E+00   -0.11503E+00  8112   0.355E+00 0.107E-02
CGA:   5    -0.319914009688E+03   -0.32836E-01   -0.32665E-01  8112   0.117E+00 0.112E-03
CGA:   6    -0.319928925479E+03   -0.14916E-01   -0.14921E-01  8112   0.379E-01 0.245E-03
CGA:   7    -0.319934023324E+03   -0.50978E-02   -0.50975E-02  8112   0.139E-01-0.581E-04
CGA:   8    -0.319935863164E+03   -0.18398E-02   -0.18400E-02  8112   0.683E-02 0.196E-04
CGA:   9    -0.319936536458E+03   -0.67329E-03   -0.67293E-03  8112   0.287E-02-0.170E-05
CGA:  10    -0.319936967817E+03   -0.43136E-03   -0.43129E-03  8112   0.125E-02 0.318E-05
CGA:  11    -0.319937143983E+03   -0.17617E-03   -0.17615E-03  8112   0.697E-03 0.245E-05
CGA:  12    -0.319937253210E+03   -0.10923E-03   -0.10918E-03  8112   0.446E-03 0.188E-05
CGA:  13    -0.319937302562E+03   -0.49352E-04   -0.49371E-04  8112   0.231E-03 0.882E-06
CGA:  14    -0.319937338441E+03   -0.35879E-04   -0.35855E-04  8112   0.108E-03 0.117E-05
CGA:  15    -0.319937353631E+03   -0.15190E-04   -0.15188E-04  8112   0.504E-04 0.434E-06
CGA:  16    -0.319937360099E+03   -0.64681E-05   -0.64715E-05  8112   0.257E-04 0.408E-06
  10 F= -.31993736E+03 E0= -.31993277E+03  d E =-.162953E-01  mag=    44.0000
       N       E                     dE             d eps       ncg     rms          ort
SDA:   1    -0.312183852823E+03    0.77535E+01    0.00000E+00  8112   0.192E+02 0.000E+00
CGA:   2    -0.317879113686E+03   -0.56953E+01   -0.57192E+01  8112   0.118E+02-0.160E+00
CGA:   3    -0.319195274808E+03   -0.13162E+01   -0.13165E+01  8112   0.418E+01 0.220E+00
CGA:   4    -0.319739816687E+03   -0.54454E+00   -0.54536E+00  8112   0.103E+01 0.277E-01
CGA:   5    -0.319883376406E+03   -0.14356E+00   -0.14352E+00  8112   0.395E+00-0.683E-02
CGA:   6    -0.319926910781E+03   -0.43534E-01   -0.43664E-01  8112   0.176E+00 0.106E-02
CGA:   7    -0.319944490865E+03   -0.17580E-01   -0.17520E-01  8112   0.692E-01-0.127E-03
CGA:   8    -0.319953471982E+03   -0.89811E-02   -0.89832E-02  8112   0.229E-01 0.129E-03
CGA:   9    -0.319956958796E+03   -0.34868E-02   -0.34864E-02  8112   0.118E-01 0.176E-04
CGA:  10    -0.319958544433E+03   -0.15856E-02   -0.15860E-02  8112   0.511E-02 0.557E-04
CGA:  11    -0.319959300197E+03   -0.75576E-03   -0.75571E-03  8112   0.428E-02 0.748E-05
CGA:  12    -0.319959767567E+03   -0.46737E-03   -0.46802E-03  8112   0.155E-02 0.105E-04
CGA:  13    -0.319960059257E+03   -0.29169E-03   -0.29118E-03  8112   0.927E-03 0.899E-05
CGA:  14    -0.319960183787E+03   -0.12453E-03   -0.12456E-03  8112   0.413E-03 0.417E-05
CGA:  15    -0.319960241545E+03   -0.57758E-04   -0.57757E-04  8112   0.243E-03 0.289E-05
CGA:  16    -0.319960266887E+03   -0.25342E-04   -0.25412E-04  8112   0.920E-04 0.183E-05
CGA:  17    -0.319960279148E+03   -0.12262E-04   -0.12267E-04  8112   0.341E-04 0.105E-05
CGA:  18    -0.319960284786E+03   -0.56377E-05   -0.56212E-05  8112   0.161E-04 0.616E-06
  11 F= -.31996028E+03 E0= -.31995564E+03  d E =-.229247E-01  mag=    44.0000
       N       E                     dE             d eps       ncg     rms          ort
SDA:   1    -0.318646427611E+03    0.13139E+01    0.00000E+00  8112   0.324E+01 0.000E+00
CGA:   2    -0.319561223204E+03   -0.91480E+00   -0.91766E+00  8112   0.279E+01-0.225E-01
CGA:   3    -0.319811328956E+03   -0.25011E+00   -0.25296E+00  8112   0.889E+00 0.126E-01
CGA:   4    -0.319913398523E+03   -0.10207E+00   -0.10147E+00  8112   0.364E+00-0.560E-02
CGA:   5    -0.319947553216E+03   -0.34155E-01   -0.34422E-01  8112   0.907E-01 0.136E-03
CGA:   6    -0.319960724010E+03   -0.13171E-01   -0.13172E-01  8112   0.320E-01-0.811E-04
CGA:   7    -0.319964987757E+03   -0.42637E-02   -0.42643E-02  8112   0.117E-01 0.495E-04
CGA:   8    -0.319966485196E+03   -0.14974E-02   -0.14974E-02  8112   0.622E-02-0.410E-05
CGA:   9    -0.319967080963E+03   -0.59577E-03   -0.59657E-03  8112   0.222E-02-0.268E-06
CGA:  10    -0.319967431258E+03   -0.35029E-03   -0.35030E-03  8112   0.108E-02 0.455E-06
CGA:  11    -0.319967582955E+03   -0.15170E-03   -0.15168E-03  8112   0.510E-03 0.384E-05
CGA:  12    -0.319967670308E+03   -0.87352E-04   -0.87314E-04  8112   0.386E-03 0.107E-05
CGA:  13    -0.319967710817E+03   -0.40509E-04   -0.40540E-04  8112   0.177E-03 0.528E-06
CGA:  14    -0.319967738504E+03   -0.27687E-04   -0.27673E-04  8112   0.943E-04 0.739E-06
CGA:  15    -0.319967751687E+03   -0.13182E-04   -0.13181E-04  8112   0.370E-04 0.595E-06
CGA:  16    -0.319967756957E+03   -0.52700E-05   -0.52679E-05  8112   0.195E-04 0.604E-06
  12 F= -.31996776E+03 E0= -.31996309E+03  d E =-.747217E-02  mag=    44.0000
       N       E                     dE             d eps       ncg     rms          ort
SDA:   1    -0.319262445242E+03    0.70531E+00    0.00000E+00  8112   0.176E+01 0.000E+00
CGA:   2    -0.319761868141E+03   -0.49942E+00   -0.49994E+00  8112   0.129E+01-0.452E-02
CGA:   3    -0.319898585285E+03   -0.13672E+00   -0.13610E+00  8112   0.391E+00 0.208E-02
CGA:   4    -0.319953462401E+03   -0.54877E-01   -0.54879E-01  8112   0.106E+00 0.549E-03
CGA:   5    -0.319965010054E+03   -0.11548E-01   -0.11535E-01  8112   0.517E-01-0.697E-04
CGA:   6    -0.319970067270E+03   -0.50572E-02   -0.50674E-02  8112   0.162E-01 0.276E-04
CGA:   7    -0.319972245252E+03   -0.21780E-02   -0.21778E-02  8112   0.537E-02-0.164E-04
CGA:   8    -0.319973048129E+03   -0.80288E-03   -0.80280E-03  8112   0.201E-02 0.313E-05
CGA:   9    -0.319973318196E+03   -0.27007E-03   -0.27005E-03  8112   0.112E-02-0.148E-05
CGA:  10    -0.319973448886E+03   -0.13069E-03   -0.13074E-03  8112   0.560E-03 0.147E-05
CGA:  11    -0.319973518802E+03   -0.69916E-04   -0.69932E-04  8112   0.282E-03 0.117E-05
CGA:  12    -0.319973567278E+03   -0.48477E-04   -0.48457E-04  8112   0.140E-03 0.513E-06
CGA:  13    -0.319973589755E+03   -0.22477E-04   -0.22467E-04  8112   0.869E-04 0.434E-06
CGA:  14    -0.319973600725E+03   -0.10970E-04   -0.10973E-04  8112   0.489E-04 0.212E-06
CGA:  15    -0.319973606383E+03   -0.56577E-05   -0.56622E-05  8112   0.203E-04 0.187E-06
  13 F= -.31997361E+03 E0= -.31996895E+03  d E =-.584943E-02  mag=    44.0000
       N       E                     dE             d eps       ncg     rms          ort
SDA:   1    -0.314723351684E+03    0.52502E+01    0.00000E+00  8112   0.131E+02 0.000E+00
CGA:   2    -0.318334152234E+03   -0.36108E+01   -0.36515E+01  8112   0.116E+02-0.315E+00
CGA:   3    -0.319377794349E+03   -0.10436E+01   -0.10557E+01  8112   0.290E+01 0.356E+00
CGA:   4    -0.319813156776E+03   -0.43536E+00   -0.43559E+00  8112   0.111E+01-0.356E-01
CGA:   5    -0.319905652427E+03   -0.92496E-01   -0.94036E-01  8112   0.420E+00-0.547E-02
CGA:   6    -0.319958346853E+03   -0.52694E-01   -0.52670E-01  8112   0.108E+00-0.649E-03
CGA:   7    -0.319975515305E+03   -0.17168E-01   -0.17154E-01  8112   0.396E-01 0.434E-03
CGA:   8    -0.319980527284E+03   -0.50120E-02   -0.50115E-02  8112   0.214E-01-0.168E-04
CGA:   9    -0.319982804948E+03   -0.22777E-02   -0.22821E-02  8112   0.841E-02 0.256E-04
CGA:  10    -0.319984006356E+03   -0.12014E-02   -0.12014E-02  8112   0.427E-02 0.595E-05
CGA:  11    -0.319984596448E+03   -0.59009E-03   -0.59008E-03  8112   0.210E-02 0.196E-04
CGA:  12    -0.319984944329E+03   -0.34788E-03   -0.34757E-03  8112   0.131E-02 0.914E-05
CGA:  13    -0.319985111781E+03   -0.16745E-03   -0.16751E-03  8112   0.785E-03 0.342E-05
CGA:  14    -0.319985211276E+03   -0.99496E-04   -0.99525E-04  8112   0.348E-03 0.219E-05
CGA:  15    -0.319985265696E+03   -0.54420E-04   -0.54370E-04  8112   0.141E-03 0.250E-05
CGA:  16    -0.319985285656E+03   -0.19960E-04   -0.19957E-04  8112   0.752E-04 0.181E-05
CGA:  17    -0.319985294013E+03   -0.83567E-05   -0.83857E-05  8112   0.310E-04 0.969E-06
  14 F= -.31998529E+03 E0= -.31998069E+03  d E =-.116876E-01  mag=    44.0000
       N       E                     dE             d eps       ncg     rms          ort
SDA:   1    -0.308561235369E+03    0.11424E+02    0.00000E+00  8112   0.288E+02 0.000E+00
CGA:   2    -0.315901686422E+03   -0.73405E+01   -0.75164E+01  8112   0.335E+02-0.140E+01
CGA:   3    -0.318530126587E+03   -0.26284E+01   -0.25810E+01  8112   0.661E+01 0.205E+01
CGA:   4    -0.319499448450E+03   -0.96932E+00   -0.96924E+00  8112   0.363E+01-0.188E-01
CGA:   5    -0.319787279632E+03   -0.28783E+00   -0.29412E+00  8112   0.957E+00-0.166E-01
CGA:   6    -0.319919027018E+03   -0.13175E+00   -0.13175E+00  8112   0.311E+00 0.322E-03
CGA:   7    -0.319960801445E+03   -0.41774E-01   -0.41782E-01  8112   0.152E+00 0.125E-02
CGA:   8    -0.319975284861E+03   -0.14483E-01   -0.14562E-01  8112   0.621E-01 0.142E-03
CGA:   9    -0.319983164730E+03   -0.78799E-02   -0.78828E-02  8112   0.268E-01 0.149E-03
CGA:  10    -0.319986380917E+03   -0.32162E-02   -0.32214E-02  8112   0.125E-01 0.137E-03
CGA:  11    -0.319988328221E+03   -0.19473E-02   -0.19431E-02  8112   0.589E-02 0.137E-03
CGA:  12    -0.319989253820E+03   -0.92560E-03   -0.92485E-03  8112   0.317E-02 0.290E-04
CGA:  13    -0.319989860209E+03   -0.60639E-03   -0.60533E-03  8112   0.154E-02 0.170E-04
CGA:  14    -0.319990088309E+03   -0.22810E-03   -0.22803E-03  8112   0.995E-03 0.592E-05
CGA:  15    -0.319990206251E+03   -0.11794E-03   -0.11809E-03  8112   0.464E-03 0.526E-05
CGA:  16    -0.319990265589E+03   -0.59338E-04   -0.59394E-04  8112   0.176E-03 0.510E-05
CGA:  17    -0.319990288204E+03   -0.22615E-04   -0.22644E-04  8112   0.828E-04 0.270E-05
CGA:  18    -0.319990300910E+03   -0.12705E-04   -0.12682E-04  8112   0.236E-04 0.166E-05
CGA:  19    -0.319990305496E+03   -0.45866E-05   -0.45575E-05  8112   0.129E-04 0.554E-06
  15 F= -.31999031E+03 E0= -.31998583E+03  d E =-.501148E-02  mag=    44.0000
       N       E                     dE             d eps       ncg     rms          ort
SDA:   1    -0.318650471343E+03    0.13398E+01    0.00000E+00  8112   0.354E+01 0.000E+00
CGA:   2    -0.319527177959E+03   -0.87671E+00   -0.87795E+00  8112   0.236E+01-0.107E-01
CGA:   3    -0.319830652714E+03   -0.30347E+00   -0.30409E+00  8112   0.854E+00 0.136E-01
CGA:   4    -0.319943843760E+03   -0.11319E+00   -0.11309E+00  8112   0.223E+00-0.286E-02
CGA:   5    -0.319974284710E+03   -0.30441E-01   -0.30441E-01  8112   0.814E-01 0.176E-04
CGA:   6    -0.319983597779E+03   -0.93131E-02   -0.93174E-02  8112   0.335E-01 0.352E-04
CGA:   7    -0.319987199935E+03   -0.36022E-02   -0.36050E-02  8112   0.133E-01 0.140E-04
CGA:   8    -0.319988944519E+03   -0.17446E-02   -0.17445E-02  8112   0.464E-02-0.242E-05
CGA:   9    -0.319989716323E+03   -0.77180E-03   -0.77148E-03  8112   0.184E-02 0.874E-05
CGA:  10    -0.319990003679E+03   -0.28736E-03   -0.28734E-03  8112   0.106E-02 0.130E-05
CGA:  11    -0.319990147389E+03   -0.14371E-03   -0.14373E-03  8112   0.598E-03 0.169E-05
CGA:  12    -0.319990221245E+03   -0.73857E-04   -0.73888E-04  8112   0.306E-03 0.141E-05
CGA:  13    -0.319990270586E+03   -0.49340E-04   -0.49306E-04  8112   0.141E-03 0.175E-05
CGA:  14    -0.319990292632E+03   -0.22047E-04   -0.22040E-04  8112   0.703E-04 0.455E-06
CGA:  15    -0.319990303450E+03   -0.10817E-04   -0.10813E-04  8112   0.319E-04 0.447E-06
CGA:  16    -0.319990307380E+03   -0.39303E-05   -0.39336E-05  8112   0.171E-04 0.156E-06
  16 F= -.31999031E+03 E0= -.31998589E+03  d E =-.188356E-05  mag=    44.0000
       N       E                     dE             d eps       ncg     rms          ort
SDA:   1    -0.318945504393E+03    0.10448E+01    0.00000E+00  8112   0.272E+01 0.000E+00
CGA:   2    -0.319623363224E+03   -0.67786E+00   -0.67922E+00  8112   0.228E+01-0.142E-01
CGA:   3    -0.319871444952E+03   -0.24808E+00   -0.25029E+00  8112   0.673E+00 0.160E-01
CGA:   4    -0.319969919315E+03   -0.98474E-01   -0.98475E-01  8112   0.154E+00-0.803E-03
CGA:   5    -0.319990578214E+03   -0.20659E-01   -0.20653E-01  8112   0.763E-01-0.220E-03
CGA:   6    -0.319997616340E+03   -0.70381E-02   -0.70522E-02  8112   0.252E-01-0.116E-04
CGA:   7    -0.320001155565E+03   -0.35392E-02   -0.35392E-02  8112   0.799E-02-0.300E-05
CGA:   8    -0.320002364191E+03   -0.12086E-02   -0.12085E-02  8112   0.326E-02 0.679E-05
CGA:   9    -0.320002818524E+03   -0.45433E-03   -0.45434E-03  8112   0.158E-02 0.179E-05
CGA:  10    -0.320003019455E+03   -0.20093E-03   -0.20096E-03  8112   0.825E-03 0.149E-05
CGA:  11    -0.320003129495E+03   -0.11004E-03   -0.11005E-03  8112   0.456E-03 0.115E-05
CGA:  12    -0.320003194759E+03   -0.65264E-04   -0.65260E-04  8112   0.201E-03 0.168E-05
CGA:  13    -0.320003232405E+03   -0.37646E-04   -0.37618E-04  8112   0.111E-03 0.640E-06
CGA:  14    -0.320003247595E+03   -0.15190E-04   -0.15196E-04  8112   0.624E-04 0.779E-06
CGA:  15    -0.320003254929E+03   -0.73344E-05   -0.73487E-05  8112   0.284E-04 0.546E-06
  17 F= -.32000325E+03 E0= -.31999880E+03  d E =-.129475E-01  mag=    44.0000
       N       E                     dE             d eps       ncg     rms          ort
SDA:   1    -0.319728752114E+03    0.27450E+00    0.00000E+00  8112   0.727E+00 0.000E+00
CGA:   2    -0.319892541324E+03   -0.16379E+00   -0.16366E+00  8112   0.781E+00 0.132E-02
CGA:   3    -0.319970215676E+03   -0.77674E-01   -0.77301E-01  8112   0.190E+00 0.495E-04
CGA:   4    -0.319993614177E+03   -0.23399E-01   -0.23413E-01  8112   0.896E-01 0.241E-03
CGA:   5    -0.320002389674E+03   -0.87755E-02   -0.87476E-02  8112   0.180E-01-0.781E-05
CGA:   6    -0.320005324594E+03   -0.29349E-02   -0.29341E-02  8112   0.595E-02 0.277E-04
CGA:   7    -0.320006165847E+03   -0.84125E-03   -0.84125E-03  8112   0.263E-02-0.986E-06
CGA:   8    -0.320006448865E+03   -0.28302E-03   -0.28304E-03  8112   0.117E-02-0.128E-05
CGA:   9    -0.320006594061E+03   -0.14520E-03   -0.14519E-03  8112   0.413E-03-0.611E-06
CGA:  10    -0.320006659241E+03   -0.65180E-04   -0.65159E-04  8112   0.213E-03 0.103E-05
CGA:  11    -0.320006690665E+03   -0.31424E-04   -0.31419E-04  8112   0.105E-03 0.752E-06
CGA:  12    -0.320006706921E+03   -0.16256E-04   -0.16259E-04  8112   0.775E-04-0.196E-06
CGA:  13    -0.320006716629E+03   -0.97077E-05   -0.97037E-05  8112   0.355E-04-0.265E-06
  18 F= -.32000672E+03 E0= -.32000228E+03  d E =-.346170E-02  mag=    44.0000
       N       E                     dE             d eps       ncg     rms          ort
SDA:   1    -0.302955657606E+03    0.17051E+02    0.00000E+00  8112   0.432E+02 0.000E+00
CGA:   2    -0.313906270651E+03   -0.10951E+02   -0.10904E+02  8112   0.413E+02 0.395E+00
CGA:   3    -0.317725511914E+03   -0.38192E+01   -0.37446E+01  8112   0.138E+02-0.343E+01
CGA:   4    -0.319290764481E+03   -0.15653E+01   -0.15473E+01  8112   0.465E+01-0.231E+00
CGA:   5    -0.319729569627E+03   -0.43881E+00   -0.41607E+00  8112   0.136E+01 0.477E-01
CGA:   6    -0.319901747826E+03   -0.17218E+00   -0.17280E+00  8112   0.712E+00 0.180E-01
CGA:   7    -0.319960946462E+03   -0.59199E-01   -0.60325E-01  8112   0.279E+00-0.335E-02
CGA:   8    -0.319993913862E+03   -0.32967E-01   -0.33111E-01  8112   0.102E+00 0.295E-02
CGA:   9    -0.320006840146E+03   -0.12926E-01   -0.12946E-01  8112   0.506E-01 0.840E-03
CGA:  10    -0.320012276624E+03   -0.54365E-02   -0.54901E-02  8112   0.278E-01 0.502E-03
CGA:  11    -0.320015716553E+03   -0.34399E-02   -0.34452E-02  8112   0.120E-01 0.217E-03
CGA:  12    -0.320017575177E+03   -0.18586E-02   -0.18537E-02  8112   0.691E-02 0.160E-03
CGA:  13    -0.320018570258E+03   -0.99508E-03   -0.99413E-03  8112   0.494E-02 0.731E-04
CGA:  14    -0.320019155135E+03   -0.58488E-03   -0.58738E-03  8112   0.189E-02 0.604E-04
CGA:  15    -0.320019492775E+03   -0.33764E-03   -0.33681E-03  8112   0.108E-02 0.167E-04
CGA:  16    -0.320019620617E+03   -0.12784E-03   -0.12812E-03  8112   0.466E-03 0.875E-05
CGA:  17    -0.320019682131E+03   -0.61514E-04   -0.61538E-04  8112   0.215E-03 0.536E-05
CGA:  18    -0.320019709666E+03   -0.27534E-04   -0.27559E-04  8112   0.841E-04 0.300E-05
CGA:  19    -0.320019721070E+03   -0.11405E-04   -0.11405E-04  8112   0.363E-04 0.117E-05
CGA:  20    -0.320019726712E+03   -0.56415E-05   -0.56290E-05  8112   0.211E-04 0.641E-06
  19 F= -.32001973E+03 E0= -.32001537E+03  d E =-.130101E-01  mag=    44.0000
       N       E                     dE             d eps       ncg     rms          ort
SDA:   1    -0.311954033492E+03    0.80657E+01    0.00000E+00  8112   0.203E+02 0.000E+00
CGA:   2    -0.317134083139E+03   -0.51800E+01   -0.51196E+01  8112   0.196E+02 0.521E+00
CGA:   3    -0.318923061763E+03   -0.17890E+01   -0.16430E+01  8112   0.546E+01 0.326E-01
CGA:   4    -0.319731854432E+03   -0.80879E+00   -0.80908E+00  8112   0.145E+01-0.171E-01
CGA:   5    -0.319919524642E+03   -0.18767E+00   -0.18784E+00  8112   0.516E+00 0.923E-02
CGA:   6    -0.319979673649E+03   -0.60149E-01   -0.60336E-01  8112   0.221E+00 0.303E-02
CGA:   7    -0.320002986061E+03   -0.23312E-01   -0.23265E-01  8112   0.101E+00-0.270E-03
CGA:   8    -0.320013220726E+03   -0.10235E-01   -0.10327E-01  8112   0.380E-01 0.511E-03
CGA:   9    -0.320018428303E+03   -0.52076E-02   -0.52073E-02  8112   0.137E-01 0.439E-04
CGA:  10    -0.320020660380E+03   -0.22321E-02   -0.22294E-02  8112   0.696E-02 0.657E-04
CGA:  11    -0.320021630974E+03   -0.97059E-03   -0.97043E-03  8112   0.443E-02 0.284E-04
CGA:  12    -0.320022146853E+03   -0.51588E-03   -0.51727E-03  8112   0.259E-02 0.292E-04
CGA:  13    -0.320022523966E+03   -0.37711E-03   -0.37707E-03  8112   0.108E-02 0.345E-05
CGA:  14    -0.320022717300E+03   -0.19333E-03   -0.19299E-03  8112   0.560E-03 0.683E-05
CGA:  15    -0.320022794828E+03   -0.77527E-04   -0.77525E-04  8112   0.288E-03 0.398E-05
CGA:  16    -0.320022828427E+03   -0.33599E-04   -0.33674E-04  8112   0.135E-03 0.313E-05
CGA:  17    -0.320022844445E+03   -0.16018E-04   -0.16052E-04  8112   0.513E-04 0.177E-05
CGA:  18    -0.320022851672E+03   -0.72271E-05   -0.72247E-05  8112   0.210E-04 0.582E-06
  20 F= -.32002285E+03 E0= -.32001844E+03  d E =-.312496E-02  mag=    44.0000
       N       E                     dE             d eps       ncg     rms          ort
SDA:   1    -0.312359265382E+03    0.76636E+01    0.00000E+00  8112   0.196E+02 0.000E+00
CGA:   2    -0.317174684818E+03   -0.48154E+01   -0.47205E+01  8112   0.165E+02 0.109E+01
CGA:   3    -0.318969373090E+03   -0.17947E+01   -0.15949E+01  8112   0.560E+01-0.459E+00
CGA:   4    -0.319733177046E+03   -0.76380E+00   -0.76408E+00  8112   0.180E+01-0.104E+00
CGA:   5    -0.319913225206E+03   -0.18005E+00   -0.18143E+00  8112   0.548E+00 0.137E-01
CGA:   6    -0.319988455952E+03   -0.75231E-01   -0.75223E-01  8112   0.184E+00-0.359E-02
CGA:   7    -0.320013048932E+03   -0.24593E-01   -0.24601E-01  8112   0.822E-01 0.133E-02
CGA:   8    -0.320021266591E+03   -0.82177E-02   -0.82319E-02  8112   0.392E-01 0.485E-04
CGA:   9    -0.320025929782E+03   -0.46632E-02   -0.46723E-02  8112   0.128E-01 0.209E-03
CGA:  10    -0.320028098236E+03   -0.21685E-02   -0.21658E-02  8112   0.687E-02 0.557E-04
CGA:  11    -0.320029069912E+03   -0.97168E-03   -0.97151E-03  8112   0.352E-02 0.228E-04
CGA:  12    -0.320029586027E+03   -0.51612E-03   -0.51569E-03  8112   0.263E-02 0.283E-04
CGA:  13    -0.320029893811E+03   -0.30778E-03   -0.30829E-03  8112   0.112E-02 0.118E-04
CGA:  14    -0.320030072009E+03   -0.17820E-03   -0.17813E-03  8112   0.566E-03 0.339E-05
CGA:  15    -0.320030159697E+03   -0.87688E-04   -0.87602E-04  8112   0.240E-03 0.441E-05
CGA:  16    -0.320030190417E+03   -0.30719E-04   -0.30739E-04  8112   0.130E-03 0.182E-05
CGA:  17    -0.320030205416E+03   -0.14999E-04   -0.15029E-04  8112   0.515E-04 0.118E-05
CGA:  18    -0.320030212145E+03   -0.67288E-05   -0.67337E-05  8112   0.202E-04 0.718E-06
  21 F= -.32003021E+03 E0= -.32002579E+03  d E =-.736047E-02  mag=    44.0000
       N       E                     dE             d eps       ncg     rms          ort
SDA:   1    -0.319245125984E+03    0.78508E+00    0.00000E+00  8112   0.205E+01 0.000E+00
CGA:   2    -0.319732450394E+03   -0.48732E+00   -0.48827E+00  8112   0.159E+01-0.842E-02
CGA:   3    -0.319914298128E+03   -0.18185E+00   -0.18315E+00  8112   0.605E+00 0.142E-01
CGA:   4    -0.319986925292E+03   -0.72627E-01   -0.72498E-01  8112   0.209E+00-0.168E-02
CGA:   5    -0.320006978133E+03   -0.20053E-01   -0.20058E-01  8112   0.725E-01-0.137E-04
CGA:   6    -0.320016259921E+03   -0.92818E-02   -0.92801E-02  8112   0.211E-01-0.822E-04
CGA:   7    -0.320019443785E+03   -0.31839E-02   -0.31836E-02  8112   0.739E-02 0.134E-04
CGA:   8    -0.320020512728E+03   -0.10689E-02   -0.10689E-02  8112   0.356E-02 0.547E-05
CGA:   9    -0.320020916375E+03   -0.40365E-03   -0.40371E-03  8112   0.171E-02 0.132E-05
CGA:  10    -0.320021137754E+03   -0.22138E-03   -0.22136E-03  8112   0.780E-03-0.194E-05
CGA:  11    -0.320021253824E+03   -0.11607E-03   -0.11607E-03  8112   0.376E-03-0.928E-07
CGA:  12    -0.320021314793E+03   -0.60968E-04   -0.60938E-04  8112   0.192E-03 0.120E-05
CGA:  13    -0.320021343276E+03   -0.28483E-04   -0.28466E-04  8112   0.122E-03 0.177E-05
CGA:  14    -0.320021357931E+03   -0.14656E-04   -0.14668E-04  8112   0.610E-04 0.644E-06
CGA:  15    -0.320021366807E+03   -0.88755E-05   -0.88777E-05  8112   0.232E-04-0.349E-06
  22 F= -.32002137E+03 E0= -.32001696E+03  d E =0.884534E-02  mag=    44.0000
       N       E                     dE             d eps       ncg     rms          ort
SDA:   1    -0.318614525594E+03    0.14068E+01    0.00000E+00  8112   0.354E+01 0.000E+00
CGA:   2    -0.319577031250E+03   -0.96251E+00   -0.96073E+00  8112   0.299E+01 0.125E-01
CGA:   3    -0.319840091647E+03   -0.26306E+00   -0.25879E+00  8112   0.111E+01 0.272E-02
CGA:   4    -0.319980964504E+03   -0.14087E+00   -0.14092E+00  8112   0.240E+00 0.111E-02
CGA:   5    -0.320017095190E+03   -0.36131E-01   -0.36136E-01  8112   0.747E-01-0.321E-03
CGA:   6    -0.320026142130E+03   -0.90469E-02   -0.90560E-02  8112   0.426E-01 0.150E-03
CGA:   7    -0.320030361990E+03   -0.42199E-02   -0.42159E-02  8112   0.107E-01-0.404E-05
CGA:   8    -0.320032194357E+03   -0.18324E-02   -0.18325E-02  8112   0.421E-02-0.552E-05
CGA:   9    -0.320032719071E+03   -0.52471E-03   -0.52483E-03  8112   0.248E-02 0.376E-05
CGA:  10    -0.320033022197E+03   -0.30313E-03   -0.30327E-03  8112   0.104E-02 0.526E-05
CGA:  11    -0.320033179125E+03   -0.15693E-03   -0.15690E-03  8112   0.580E-03 0.242E-05
CGA:  12    -0.320033265432E+03   -0.86307E-04   -0.86300E-04  8112   0.341E-03 0.460E-06
CGA:  13    -0.320033312063E+03   -0.46632E-04   -0.46630E-04  8112   0.181E-03-0.420E-06
CGA:  14    -0.320033336952E+03   -0.24889E-04   -0.24891E-04  8112   0.986E-04 0.611E-06
CGA:  15    -0.320033349394E+03   -0.12442E-04   -0.12458E-04  8112   0.385E-04 0.116E-05
CGA:  16    -0.320033355193E+03   -0.57989E-05   -0.57916E-05  8112   0.168E-04 0.795E-06
  23 F= -.32003336E+03 E0= -.32002895E+03  d E =-.119884E-01  mag=    44.0000
       N       E                     dE             d eps       ncg     rms          ort
SDA:   1    -0.319920115985E+03    0.11323E+00    0.00000E+00  8112   0.278E+00 0.000E+00
CGA:   2    -0.320003810707E+03   -0.83695E-01   -0.83621E-01  8112   0.201E+00 0.479E-03
CGA:   3    -0.320022418718E+03   -0.18608E-01   -0.18556E-01  8112   0.717E-01 0.726E-04
CGA:   4    -0.320030600932E+03   -0.81822E-02   -0.81653E-02  8112   0.254E-01-0.138E-03
CGA:   5    -0.320033343230E+03   -0.27423E-02   -0.27472E-02  8112   0.660E-02 0.249E-04
CGA:   6    -0.320034328270E+03   -0.98504E-03   -0.98505E-03  8112   0.221E-02 0.217E-05
CGA:   7    -0.320034615228E+03   -0.28696E-03   -0.28694E-03  8112   0.977E-03-0.107E-05
CGA:   8    -0.320034724958E+03   -0.10973E-03   -0.10970E-03  8112   0.398E-03-0.922E-06
CGA:   9    -0.320034773483E+03   -0.48525E-04   -0.48528E-04  8112   0.185E-03-0.104E-07
CGA:  10    -0.320034797745E+03   -0.24262E-04   -0.24264E-04  8112   0.731E-04 0.220E-06
CGA:  11    -0.320034811005E+03   -0.13260E-04   -0.13250E-04  8112   0.394E-04 0.209E-06
CGA:  12    -0.320034816651E+03   -0.56459E-05   -0.56463E-05  8112   0.300E-04-0.142E-06
  24 F= -.32003482E+03 E0= -.32003041E+03  d E =-.146146E-02  mag=    44.0000
       N       E                     dE             d eps       ncg     rms          ort
SDA:   1    -0.306619892605E+03    0.13415E+02    0.00000E+00  8112   0.329E+02 0.000E+00
CGA:   2    -0.316167274329E+03   -0.95474E+01   -0.94875E+01  8112   0.247E+02 0.266E+00
CGA:   3    -0.318543368353E+03   -0.23761E+01   -0.23522E+01  8112   0.825E+01-0.701E+00
CGA:   4    -0.319564538884E+03   -0.10212E+01   -0.10137E+01  8112   0.297E+01-0.153E+00
CGA:   5    -0.319838164010E+03   -0.27363E+00   -0.27095E+00  8112   0.955E+00 0.158E-01
CGA:   6    -0.319963374271E+03   -0.12521E+00   -0.12543E+00  8112   0.289E+00 0.954E-02
CGA:   7    -0.320005170562E+03   -0.41796E-01   -0.41807E-01  8112   0.120E+00-0.190E-02
CGA:   8    -0.320019880674E+03   -0.14710E-01   -0.14750E-01  8112   0.494E-01 0.840E-03
CGA:   9    -0.320025539548E+03   -0.56589E-02   -0.56748E-02  8112   0.304E-01 0.167E-03
CGA:  10    -0.320028815832E+03   -0.32763E-02   -0.32863E-02  8112   0.103E-01 0.799E-04
CGA:  11    -0.320030796219E+03   -0.19804E-02   -0.19785E-02  8112   0.500E-02 0.321E-04
CGA:  12    -0.320031671955E+03   -0.87574E-03   -0.87396E-03  8112   0.349E-02 0.393E-04
CGA:  13    -0.320032110367E+03   -0.43841E-03   -0.43885E-03  8112   0.185E-02 0.139E-04
CGA:  14    -0.320032336861E+03   -0.22649E-03   -0.22674E-03  8112   0.104E-02 0.791E-05
CGA:  15    -0.320032470168E+03   -0.13331E-03   -0.13339E-03  8112   0.372E-03 0.662E-05
CGA:  16    -0.320032527979E+03   -0.57811E-04   -0.57708E-04  8112   0.147E-03 0.660E-05
CGA:  17    -0.320032548908E+03   -0.20929E-04   -0.20929E-04  8112   0.622E-04 0.249E-05
CGA:  18    -0.320032556856E+03   -0.79480E-05   -0.79595E-05  8112   0.339E-04 0.815E-06
  25 F= -.32003256E+03 E0= -.32002820E+03  d E =0.225979E-02  mag=    44.0000
       N       E                     dE             d eps       ncg     rms          ort
SDA:   1    -0.295137487322E+03    0.24895E+02    0.00000E+00  8112   0.767E+02 0.000E+00
CGA:   2    -0.308718088452E+03   -0.13581E+02   -0.13429E+02  8112   0.426E+02 0.338E+01
CGA:   3    -0.314514205922E+03   -0.57961E+01   -0.56608E+01  8112   0.339E+02-0.485E+01
CGA:   4    -0.317657316114E+03   -0.31431E+01   -0.27287E+01  8112   0.753E+01 0.817E+00
CGA:   5    -0.318690594686E+03   -0.10333E+01   -0.10335E+01  8112   0.446E+01 0.465E-01
CGA:   6    -0.318926138951E+03   -0.23554E+00   -0.26082E+00  8112   0.278E+01-0.317E+00
CGA:   7    -0.319125192279E+03   -0.19905E+00   -0.20124E+00  8112   0.906E+00-0.827E-02
CGA:   8    -0.319215283392E+03   -0.90091E-01   -0.90242E-01  8112   0.420E+00 0.762E-03
CGA:   9    -0.319250958023E+03   -0.35675E-01   -0.36397E-01  8112   0.314E+00 0.119E-02
CGA:  10    -0.319277397435E+03   -0.26439E-01   -0.26919E-01  8112   0.980E-01 0.676E-03
CGA:  11    -0.319292690573E+03   -0.15293E-01   -0.15246E-01  8112   0.477E-01 0.107E-02
CGA:  12    -0.319297894370E+03   -0.52038E-02   -0.52263E-02  8112   0.429E-01 0.450E-03
CGA:  13    -0.319302215563E+03   -0.43212E-02   -0.43612E-02  8112   0.138E-01 0.472E-03
CGA:  14    -0.319304462275E+03   -0.22467E-02   -0.22409E-02  8112   0.785E-02 0.118E-03
CGA:  15    -0.319305481740E+03   -0.10195E-02   -0.10189E-02  8112   0.440E-02 0.890E-04
CGA:  16    -0.319306003798E+03   -0.52206E-03   -0.52267E-03  8112   0.304E-02 0.344E-04
CGA:  17    -0.319306345445E+03   -0.34165E-03   -0.34227E-03  8112   0.111E-02 0.183E-04
CGA:  18    -0.319306529890E+03   -0.18445E-03   -0.18431E-03  8112   0.461E-03 0.237E-05
CGA:  19    -0.319306597419E+03   -0.67529E-04   -0.67479E-04  8112   0.343E-03 0.184E-05
CGA:  20    -0.319306630562E+03   -0.33144E-04   -0.33208E-04  8112   0.128E-03 0.809E-06
CGA:  21    -0.319306649913E+03   -0.19351E-04   -0.19330E-04  8112   0.691E-04 0.791E-06
CGA:  22    -0.319306661075E+03   -0.11161E-04   -0.11133E-04  8112   0.378E-04 0.808E-06
CGA:  23    -0.319306667418E+03   -0.63433E-05   -0.63262E-05  8112   0.249E-04 0.449E-06
  26 F= -.31930667E+03 E0= -.31930224E+03  d E =0.725889E+00  mag=    44.0000
       N       E                     dE             d eps       ncg     rms          ort
SDA:   1    -0.314676423649E+03    0.46302E+01    0.00000E+00  8112   0.162E+02 0.000E+00
CGA:   2    -0.317447654969E+03   -0.27712E+01   -0.27895E+01  8112   0.123E+02-0.188E+00
CGA:   3    -0.318736362124E+03   -0.12887E+01   -0.12785E+01  8112   0.629E+01-0.129E+00
CGA:   4    -0.319526315821E+03   -0.78995E+00   -0.78945E+00  8112   0.164E+01-0.585E-01
CGA:   5    -0.319758819032E+03   -0.23250E+00   -0.23248E+00  8112   0.487E+00 0.745E-03
CGA:   6    -0.319819837084E+03   -0.61018E-01   -0.60984E-01  8112   0.294E+00-0.255E-02
CGA:   7    -0.319846011560E+03   -0.26174E-01   -0.26668E-01  8112   0.854E-01 0.101E-02
CGA:   8    -0.319857504075E+03   -0.11493E-01   -0.11491E-01  8112   0.412E-01 0.200E-03
CGA:   9    -0.319862675656E+03   -0.51716E-02   -0.51727E-02  8112   0.156E-01 0.142E-03
CGA:  10    -0.319864958919E+03   -0.22833E-02   -0.22824E-02  8112   0.821E-02 0.372E-04
CGA:  11    -0.319865952913E+03   -0.99399E-03   -0.99484E-03  8112   0.489E-02 0.429E-04
CGA:  12    -0.319866551991E+03   -0.59908E-03   -0.59914E-03  8112   0.184E-02 0.537E-05
CGA:  13    -0.319866892993E+03   -0.34100E-03   -0.34007E-03  8112   0.895E-03 0.141E-04
CGA:  14    -0.319867013720E+03   -0.12073E-03   -0.12072E-03  8112   0.632E-03 0.294E-05
CGA:  15    -0.319867093076E+03   -0.79356E-04   -0.79375E-04  8112   0.271E-03 0.189E-05
CGA:  16    -0.319867131171E+03   -0.38096E-04   -0.38098E-04  8112   0.135E-03-0.373E-06
CGA:  17    -0.319867151528E+03   -0.20356E-04   -0.20372E-04  8112   0.602E-04-0.817E-06
CGA:  18    -0.319867159430E+03   -0.79025E-05   -0.79026E-05  8112   0.341E-04 0.732E-08
  27 F= -.31986716E+03 E0= -.31986281E+03  d E =-.560492E+00  mag=    44.0000
       N       E                     dE             d eps       ncg     rms          ort
SDA:   1    -0.318375977107E+03    0.14912E+01    0.00000E+00  8112   0.476E+01 0.000E+00
CGA:   2    -0.319360557943E+03   -0.98458E+00   -0.98454E+00  8112   0.258E+01 0.128E-02
CGA:   3    -0.319761874970E+03   -0.40132E+00   -0.40042E+00  8112   0.161E+01 0.290E-01
CGA:   4    -0.319910219279E+03   -0.14834E+00   -0.14709E+00  8112   0.489E+00-0.315E-02
CGA:   5    -0.319973541043E+03   -0.63322E-01   -0.63319E-01  8112   0.127E+00-0.238E-03
CGA:   6    -0.319992816480E+03   -0.19275E-01   -0.19283E-01  8112   0.560E-01-0.278E-03
CGA:   7    -0.319998614439E+03   -0.57980E-02   -0.58169E-02  8112   0.220E-01 0.124E-03
CGA:   8    -0.320001434262E+03   -0.28198E-02   -0.28197E-02  8112   0.102E-01-0.688E-05
CGA:   9    -0.320002661580E+03   -0.12273E-02   -0.12275E-02  8112   0.396E-02 0.908E-05
CGA:  10    -0.320003259604E+03   -0.59802E-03   -0.59789E-03  8112   0.197E-02 0.645E-05
CGA:  11    -0.320003531067E+03   -0.27146E-03   -0.27145E-03  8112   0.108E-02 0.208E-05
CGA:  12    -0.320003661823E+03   -0.13076E-03   -0.13076E-03  8112   0.553E-03 0.538E-06
CGA:  13    -0.320003742494E+03   -0.80671E-04   -0.80654E-04  8112   0.245E-03 0.110E-05
CGA:  14    -0.320003780517E+03   -0.38023E-04   -0.38007E-04  8112   0.152E-03 0.720E-06
CGA:  15    -0.320003800811E+03   -0.20294E-04   -0.20295E-04  8112   0.741E-04 0.472E-06
CGA:  16    -0.320003809964E+03   -0.91529E-05   -0.91551E-05  8112   0.399E-04 0.181E-06
  28 F= -.32000381E+03 E0= -.31999950E+03  d E =-.136651E+00  mag=    44.0000
       N       E                     dE             d eps       ncg     rms          ort
SDA:   1    -0.319423115604E+03    0.58069E+00    0.00000E+00  8112   0.175E+01 0.000E+00
CGA:   2    -0.319802931190E+03   -0.37982E+00   -0.37965E+00  8112   0.869E+00 0.188E-02
CGA:   3    -0.319967652280E+03   -0.16472E+00   -0.16473E+00  8112   0.340E+00-0.873E-04
CGA:   4    -0.320010618473E+03   -0.42966E-01   -0.42981E-01  8112   0.137E+00 0.386E-03
CGA:   5    -0.320023484996E+03   -0.12867E-01   -0.12826E-01  8112   0.491E-01-0.318E-04
CGA:   6    -0.320029722827E+03   -0.62378E-02   -0.62383E-02  8112   0.172E-01 0.185E-04
CGA:   7    -0.320031804522E+03   -0.20817E-02   -0.20816E-02  8112   0.633E-02-0.257E-05
CGA:   8    -0.320032789462E+03   -0.98494E-03   -0.98471E-03  8112   0.253E-02 0.872E-05
CGA:   9    -0.320033100982E+03   -0.31152E-03   -0.31149E-03  8112   0.149E-02 0.140E-05
CGA:  10    -0.320033285321E+03   -0.18434E-03   -0.18439E-03  8112   0.633E-03 0.288E-05
CGA:  11    -0.320033370188E+03   -0.84867E-04   -0.84869E-04  8112   0.333E-03 0.800E-06
CGA:  12    -0.320033423866E+03   -0.53678E-04   -0.53689E-04  8112   0.131E-03-0.475E-06
CGA:  13    -0.320033443912E+03   -0.20046E-04   -0.20044E-04  8112   0.108E-03 0.112E-06
CGA:  14    -0.320033456398E+03   -0.12486E-04   -0.12494E-04  8112   0.413E-04 0.330E-06
CGA:  15    -0.320033462505E+03   -0.61077E-05   -0.61018E-05  8112   0.213E-04 0.586E-06
  29 F= -.32003346E+03 E0= -.32002916E+03  d E =-.296525E-01  mag=    44.0000
       N       E                     dE             d eps       ncg     rms          ort
SDA:   1    -0.319979553188E+03    0.53903E-01    0.00000E+00  8112   0.154E+00 0.000E+00
CGA:   2    -0.320015331937E+03   -0.35779E-01   -0.35764E-01  8112   0.110E+00 0.157E-03
CGA:   3    -0.320026671554E+03   -0.11340E-01   -0.11318E-01  8112   0.615E-01-0.846E-04
CGA:   4    -0.320033735836E+03   -0.70643E-02   -0.70666E-02  8112   0.123E-01-0.359E-06
CGA:   5    -0.320035624488E+03   -0.18887E-02   -0.18888E-02  8112   0.421E-02-0.110E-04
CGA:   6    -0.320036106378E+03   -0.48189E-03   -0.48186E-03  8112   0.204E-02-0.266E-05
CGA:   7    -0.320036335911E+03   -0.22953E-03   -0.22947E-03  8112   0.644E-03-0.210E-05
CGA:   8    -0.320036417902E+03   -0.81991E-04   -0.81990E-04  8112   0.345E-03-0.403E-06
CGA:   9    -0.320036462755E+03   -0.44853E-04   -0.44857E-04  8112   0.106E-03 0.585E-06
CGA:  10    -0.320036480111E+03   -0.17356E-04   -0.17322E-04  8112   0.797E-04 0.130E-05
CGA:  11    -0.320036488970E+03   -0.88589E-05   -0.88697E-05  8112   0.309E-04 0.384E-06
  30 F= -.32003649E+03 E0= -.32003219E+03  d E =-.302646E-02  mag=    44.0000
       N       E                     dE             d eps       ncg     rms          ort
SDA:   1    -0.319912472245E+03    0.12401E+00    0.00000E+00  8112   0.331E+00 0.000E+00
CGA:   2    -0.319994257821E+03   -0.81786E-01   -0.81761E-01  8112   0.321E+00 0.256E-03
CGA:   3    -0.320020572297E+03   -0.26314E-01   -0.26253E-01  8112   0.961E-01-0.141E-03
CGA:   4    -0.320034326018E+03   -0.13754E-01   -0.13753E-01  8112   0.336E-01 0.143E-03
CGA:   5    -0.320037793117E+03   -0.34671E-02   -0.34611E-02  8112   0.982E-02-0.386E-04
CGA:   6    -0.320039235498E+03   -0.14424E-02   -0.14423E-02  8112   0.311E-02 0.318E-05
CGA:   7    -0.320039639771E+03   -0.40427E-03   -0.40423E-03  8112   0.159E-02-0.400E-05
CGA:   8    -0.320039801727E+03   -0.16196E-03   -0.16194E-03  8112   0.611E-03-0.154E-05
CGA:   9    -0.320039886149E+03   -0.84421E-04   -0.84420E-04  8112   0.250E-03 0.854E-06
CGA:  10    -0.320039925026E+03   -0.38878E-04   -0.38848E-04  8112   0.125E-03 0.161E-05
CGA:  11    -0.320039943848E+03   -0.18822E-04   -0.18819E-04  8112   0.756E-04 0.263E-06
CGA:  12    -0.320039953637E+03   -0.97890E-05   -0.97799E-05  8112   0.482E-04-0.957E-06
  31 F= -.32003995E+03 E0= -.32003565E+03  d E =-.346467E-02  mag=    44.0000
       N       E                     dE             d eps       ncg     rms          ort
SDA:   1    -0.320003390045E+03    0.36554E-01    0.00000E+00  8112   0.116E+00 0.000E+00
CGA:   2    -0.320026416806E+03   -0.23027E-01   -0.23052E-01  8112   0.881E-01-0.329E-03
CGA:   3    -0.320035711558E+03   -0.92948E-02   -0.93252E-02  8112   0.441E-01 0.153E-03
CGA:   4    -0.320040714970E+03   -0.50034E-02   -0.50040E-02  8112   0.132E-01 0.102E-04
CGA:   5    -0.320042414767E+03   -0.16998E-02   -0.16998E-02  8112   0.388E-02-0.270E-05
CGA:   6    -0.320042905032E+03   -0.49027E-03   -0.49017E-03  8112   0.156E-02-0.750E-05
CGA:   7    -0.320043095095E+03   -0.19006E-03   -0.19002E-03  8112   0.602E-03-0.294E-05
CGA:   8    -0.320043162481E+03   -0.67385E-04   -0.67386E-04  8112   0.296E-03 0.358E-06
CGA:   9    -0.320043200245E+03   -0.37764E-04   -0.37772E-04  8112   0.101E-03 0.107E-05
CGA:  10    -0.320043215674E+03   -0.15429E-04   -0.15427E-04  8112   0.543E-04 0.121E-06
CGA:  11    -0.320043223381E+03   -0.77069E-05   -0.77079E-05  8112   0.270E-04-0.160E-06
  32 F= -.32004322E+03 E0= -.32003893E+03  d E =-.326974E-02  mag=    44.0000
       N       E                     dE             d eps       ncg     rms          ort
SDA:   1    -0.320013800937E+03    0.29415E-01    0.00000E+00  8112   0.900E-01 0.000E+00
CGA:   2    -0.320030390119E+03   -0.16589E-01   -0.16600E-01  8112   0.932E-01-0.170E-03
CGA:   3    -0.320039007830E+03   -0.86177E-02   -0.86316E-02  8112   0.298E-01-0.877E-05
CGA:   4    -0.320043315233E+03   -0.43074E-02   -0.43074E-02  8112   0.914E-02 0.691E-05
CGA:   5    -0.320044452469E+03   -0.11372E-02   -0.11371E-02  8112   0.286E-02-0.568E-05
CGA:   6    -0.320044811749E+03   -0.35928E-03   -0.35921E-03  8112   0.116E-02-0.597E-05
CGA:   7    -0.320044942044E+03   -0.13030E-03   -0.13029E-03  8112   0.488E-03-0.111E-05
CGA:   8    -0.320044997548E+03   -0.55504E-04   -0.55512E-04  8112   0.199E-03 0.605E-06
CGA:   9    -0.320045025205E+03   -0.27657E-04   -0.27654E-04  8112   0.744E-04 0.621E-06
CGA:  10    -0.320045036531E+03   -0.11326E-04   -0.11322E-04  8112   0.410E-04 0.193E-06
CGA:  11    -0.320045041985E+03   -0.54541E-05   -0.54540E-05  8112   0.217E-04-0.167E-06
  33 F= -.32004504E+03 E0= -.32004075E+03  d E =-.181860E-02  mag=    44.0000
       N       E                     dE             d eps       ncg     rms          ort
SDA:   1    -0.319988624753E+03    0.56412E-01    0.00000E+00  8112   0.152E+00 0.000E+00
CGA:   2    -0.320022741343E+03   -0.34117E-01   -0.34245E-01  8112   0.181E+00-0.125E-02
CGA:   3    -0.320038521444E+03   -0.15780E-01   -0.15903E-01  8112   0.419E-01-0.140E-03
CGA:   4    -0.320043859798E+03   -0.53384E-02   -0.53371E-02  8112   0.195E-01-0.636E-04
CGA:   5    -0.320045804111E+03   -0.19443E-02   -0.19444E-02  8112   0.396E-02-0.101E-05
CGA:   6    -0.320046430243E+03   -0.62613E-03   -0.62612E-03  8112   0.142E-02 0.238E-06
CGA:   7    -0.320046612997E+03   -0.18275E-03   -0.18275E-03  8112   0.656E-03-0.813E-06
CGA:   8    -0.320046680645E+03   -0.67648E-04   -0.67629E-04  8112   0.276E-03-0.182E-06
CGA:   9    -0.320046716462E+03   -0.35817E-04   -0.35818E-04  8112   0.975E-04 0.222E-06
CGA:  10    -0.320046732682E+03   -0.16220E-04   -0.16208E-04  8112   0.512E-04 0.381E-06
CGA:  11    -0.320046739736E+03   -0.70544E-05   -0.70539E-05  8112   0.289E-04 0.165E-06
  34 F= -.32004674E+03 E0= -.32004245E+03  d E =-.169775E-02  mag=    44.0000
       N       E                     dE             d eps       ncg     rms          ort
SDA:   1    -0.319797333865E+03    0.24940E+00    0.00000E+00  8112   0.617E+00 0.000E+00
CGA:   2    -0.319956974947E+03   -0.15964E+00   -0.16040E+00  8112   0.704E+00-0.577E-02
CGA:   3    -0.320014065574E+03   -0.57091E-01   -0.58167E-01  8112   0.172E+00-0.353E-02
CGA:   4    -0.320036308414E+03   -0.22243E-01   -0.22232E-01  8112   0.664E-01-0.549E-03
CGA:   5    -0.320042728616E+03   -0.64202E-02   -0.64245E-02  8112   0.167E-01 0.159E-04
CGA:   6    -0.320045290671E+03   -0.25621E-02   -0.25618E-02  8112   0.556E-02 0.138E-04
CGA:   7    -0.320045991116E+03   -0.70045E-03   -0.70044E-03  8112   0.295E-02 0.998E-07
CGA:   8    -0.320046288667E+03   -0.29755E-03   -0.29740E-03  8112   0.976E-03-0.103E-05
CGA:   9    -0.320046428660E+03   -0.13999E-03   -0.13999E-03  8112   0.377E-03-0.254E-06
CGA:  10    -0.320046488034E+03   -0.59374E-04   -0.59372E-04  8112   0.199E-03 0.828E-07
CGA:  11    -0.320046511747E+03   -0.23713E-04   -0.23720E-04  8112   0.115E-03 0.346E-06
CGA:  12    -0.320046528870E+03   -0.17122E-04   -0.17116E-04  8112   0.614E-04 0.487E-06
CGA:  13    -0.320046537331E+03   -0.84614E-05   -0.84611E-05  8112   0.324E-04 0.123E-06
  35 F= -.32004654E+03 E0= -.32004225E+03  d E =0.202405E-03  mag=    44.0000
       N       E                     dE             d eps       ncg     rms          ort
SDA:   1    -0.319923445078E+03    0.12308E+00    0.00000E+00  8112   0.324E+00 0.000E+00
CGA:   2    -0.319997455538E+03   -0.74010E-01   -0.73977E-01  8112   0.266E+00 0.345E-03
CGA:   3    -0.320024387209E+03   -0.26932E-01   -0.26958E-01  8112   0.121E+00 0.237E-04
CGA:   4    -0.320038209757E+03   -0.13823E-01   -0.13802E-01  8112   0.332E-01-0.225E-03
CGA:   5    -0.320042188369E+03   -0.39786E-02   -0.39814E-02  8112   0.107E-01 0.589E-04
CGA:   6    -0.320043556709E+03   -0.13683E-02   -0.13683E-02  8112   0.363E-02 0.675E-05
CGA:   7    -0.320044029780E+03   -0.47307E-03   -0.47307E-03  8112   0.174E-02 0.404E-06
CGA:   8    -0.320044210451E+03   -0.18067E-03   -0.18062E-03  8112   0.679E-03-0.141E-05
CGA:   9    -0.320044305008E+03   -0.94558E-04   -0.94559E-04  8112   0.271E-03-0.610E-06
CGA:  10    -0.320044341289E+03   -0.36280E-04   -0.36280E-04  8112   0.129E-03 0.209E-06
CGA:  11    -0.320044360958E+03   -0.19669E-04   -0.19658E-04  8112   0.662E-04 0.634E-06
CGA:  12    -0.320044369014E+03   -0.80560E-05   -0.80576E-05  8112   0.418E-04 0.109E-06
  36 F= -.32004437E+03 E0= -.32004007E+03  d E =0.216832E-02  mag=    44.0000
       N       E                     dE             d eps       ncg     rms          ort
SDA:   1    -0.319658710728E+03    0.38565E+00    0.00000E+00  8112   0.956E+00 0.000E+00
CGA:   2    -0.319919067293E+03   -0.26036E+00   -0.26033E+00  8112   0.649E+00 0.193E-03
CGA:   3    -0.319998571518E+03   -0.79504E-01   -0.79477E-01  8112   0.231E+00-0.258E-03
CGA:   4    -0.320027735832E+03   -0.29164E-01   -0.29153E-01  8112   0.561E-01-0.291E-03
CGA:   5    -0.320035597378E+03   -0.78615E-02   -0.78616E-02  8112   0.178E-01 0.322E-04
CGA:   6    -0.320037782261E+03   -0.21849E-02   -0.21850E-02  8112   0.955E-02 0.840E-05
CGA:   7    -0.320038724408E+03   -0.94215E-03   -0.94133E-03  8112   0.303E-02-0.113E-05
CGA:   8    -0.320039144070E+03   -0.41966E-03   -0.41966E-03  8112   0.127E-02 0.144E-05
CGA:   9    -0.320039318324E+03   -0.17425E-03   -0.17425E-03  8112   0.456E-03-0.159E-05
CGA:  10    -0.320039399760E+03   -0.81436E-04   -0.81387E-04  8112   0.252E-03 0.114E-05
CGA:  11    -0.320039429551E+03   -0.29791E-04   -0.29802E-04  8112   0.159E-03 0.514E-06
CGA:  12    -0.320039451980E+03   -0.22429E-04   -0.22428E-04  8112   0.809E-04 0.263E-06
CGA:  13    -0.320039463398E+03   -0.11418E-04   -0.11417E-04  8112   0.406E-04 0.201E-06
CGA:  14    -0.320039470017E+03   -0.66195E-05   -0.66193E-05  8112   0.183E-04 0.647E-08
  37 F= -.32003947E+03 E0= -.32003520E+03  d E =0.489900E-02  mag=    44.0000
       N       E                     dE             d eps       ncg     rms          ort
SDA:   1    -0.318047335559E+03    0.19921E+01    0.00000E+00  8112   0.486E+01 0.000E+00
CGA:   2    -0.319430368045E+03   -0.13830E+01   -0.13848E+01  8112   0.347E+01-0.129E-01
CGA:   3    -0.319817837781E+03   -0.38747E+00   -0.38886E+00  8112   0.123E+01 0.229E-01
CGA:   4    -0.319962610337E+03   -0.14477E+00   -0.14359E+00  8112   0.401E+00-0.869E-02
CGA:   5    -0.320000907972E+03   -0.38298E-01   -0.38626E-01  8112   0.155E+00-0.716E-04
CGA:   6    -0.320018958418E+03   -0.18050E-01   -0.18041E-01  8112   0.455E-01-0.744E-04
CGA:   7    -0.320025828191E+03   -0.68698E-02   -0.68688E-02  8112   0.164E-01 0.547E-04
CGA:   8    -0.320028006186E+03   -0.21780E-02   -0.21779E-02  8112   0.723E-02-0.886E-05
CGA:   9    -0.320028894904E+03   -0.88872E-03   -0.88889E-03  8112   0.352E-02 0.219E-05
CGA:  10    -0.320029288916E+03   -0.39401E-03   -0.39389E-03  8112   0.167E-02 0.389E-06
CGA:  11    -0.320029547736E+03   -0.25882E-03   -0.25870E-03  8112   0.708E-03 0.572E-05
CGA:  12    -0.320029675226E+03   -0.12749E-03   -0.12742E-03  8112   0.464E-03 0.169E-05
CGA:  13    -0.320029734995E+03   -0.59769E-04   -0.59793E-04  8112   0.264E-03 0.131E-05
CGA:  14    -0.320029768541E+03   -0.33546E-04   -0.33559E-04  8112   0.138E-03 0.948E-06
CGA:  15    -0.320029786701E+03   -0.18160E-04   -0.18167E-04  8112   0.543E-04 0.814E-06
CGA:  16    -0.320029794909E+03   -0.82080E-05   -0.81991E-05  8112   0.217E-04 0.831E-06
  38 F= -.32002979E+03 E0= -.32002552E+03  d E =0.967511E-02  mag=    44.0000
       N       E                     dE             d eps       ncg     rms          ort
SDA:   1    -0.302330720034E+03    0.17699E+02    0.00000E+00  8112   0.454E+02 0.000E+00
CGA:   2    -0.313081812199E+03   -0.10751E+02   -0.10662E+02  8112   0.463E+02 0.593E+00
CGA:   3    -0.317234586114E+03   -0.41528E+01   -0.38967E+01  8112   0.145E+02-0.107E+01
CGA:   4    -0.319255753124E+03   -0.20212E+01   -0.20227E+01  8112   0.406E+01-0.729E+00
CGA:   5    -0.319657617700E+03   -0.40186E+00   -0.40883E+00  8112   0.240E+01 0.229E-01
CGA:   6    -0.319821349029E+03   -0.16373E+00   -0.15970E+00  8112   0.860E+00-0.149E-01
CGA:   7    -0.319909917097E+03   -0.88568E-01   -0.90193E-01  8112   0.347E+00 0.126E-01
CGA:   8    -0.319948928344E+03   -0.39011E-01   -0.39312E-01  8112   0.174E+00 0.405E-02
CGA:   9    -0.319963220545E+03   -0.14292E-01   -0.14983E-01  8112   0.924E-01-0.388E-03
CGA:  10    -0.319973261075E+03   -0.10041E-01   -0.10093E-01  8112   0.293E-01 0.744E-03
CGA:  11    -0.319977757576E+03   -0.44965E-02   -0.44758E-02  8112   0.204E-01 0.611E-03
CGA:  12    -0.319979848016E+03   -0.20904E-02   -0.21106E-02  8112   0.998E-02 0.162E-03
CGA:  13    -0.319981281296E+03   -0.14333E-02   -0.14289E-02  8112   0.572E-02 0.209E-03
CGA:  14    -0.319982073119E+03   -0.79182E-03   -0.79108E-03  8112   0.298E-02 0.800E-04
CGA:  15    -0.319982494447E+03   -0.42133E-03   -0.42091E-03  8112   0.164E-02 0.298E-04
CGA:  16    -0.319982686668E+03   -0.19222E-03   -0.19259E-03  8112   0.872E-03 0.139E-04
CGA:  17    -0.319982798563E+03   -0.11190E-03   -0.11192E-03  8112   0.283E-03 0.773E-05
CGA:  18    -0.319982843073E+03   -0.44510E-04   -0.44394E-04  8112   0.145E-03 0.424E-05
CGA:  19    -0.319982858567E+03   -0.15494E-04   -0.15533E-04  8112   0.660E-04 0.127E-05
CGA:  20    -0.319982867518E+03   -0.89505E-05   -0.89464E-05  8112   0.272E-04 0.879E-06
  39 F= -.31998287E+03 E0= -.31997865E+03  d E =0.469274E-01  mag=    44.0000
       N       E                     dE             d eps       ncg     rms          ort
SDA:   1    -0.314649266079E+03    0.53336E+01    0.00000E+00  8112   0.153E+02 0.000E+00
CGA:   2    -0.317595031696E+03   -0.29458E+01   -0.29892E+01  8112   0.147E+02-0.559E+00
CGA:   3    -0.319067747970E+03   -0.14727E+01   -0.14760E+01  8112   0.528E+01 0.896E-01
CGA:   4    -0.319686580266E+03   -0.61883E+00   -0.61883E+00  8112   0.246E+01-0.533E-02
CGA:   5    -0.319894987374E+03   -0.20841E+00   -0.21204E+00  8112   0.680E+00-0.262E-03
CGA:   6    -0.319983008601E+03   -0.88021E-01   -0.88021E-01  8112   0.224E+00 0.657E-03
CGA:   7    -0.320008073657E+03   -0.25065E-01   -0.25114E-01  8112   0.144E+00 0.933E-03
CGA:   8    -0.320021080474E+03   -0.13007E-01   -0.13073E-01  8112   0.407E-01 0.110E-03
CGA:   9    -0.320027195062E+03   -0.61146E-02   -0.61077E-02  8112   0.205E-01 0.202E-03
CGA:  10    -0.320029623185E+03   -0.24281E-02   -0.24332E-02  8112   0.742E-02 0.230E-03
CGA:  11    -0.320030880858E+03   -0.12577E-02   -0.12540E-02  8112   0.518E-02 0.689E-04
CGA:  12    -0.320031377523E+03   -0.49666E-03   -0.49748E-03  8112   0.241E-02 0.699E-05
CGA:  13    -0.320031754139E+03   -0.37662E-03   -0.37581E-03  8112   0.125E-02 0.218E-04
CGA:  14    -0.320031946833E+03   -0.19269E-03   -0.19258E-03  8112   0.636E-03 0.474E-05
CGA:  15    -0.320032048193E+03   -0.10136E-03   -0.10124E-03  8112   0.288E-03 0.352E-05
CGA:  16    -0.320032100062E+03   -0.51869E-04   -0.51866E-04  8112   0.108E-03-0.127E-07
CGA:  17    -0.320032117878E+03   -0.17817E-04   -0.17802E-04  8112   0.640E-04 0.428E-06
CGA:  18    -0.320032124706E+03   -0.68278E-05   -0.68425E-05  8112   0.318E-04 0.463E-06
  40 F= -.32003212E+03 E0= -.32002791E+03  d E =-.492572E-01  mag=    44.0000
       N       E                     dE             d eps       ncg     rms          ort
SDA:   1    -0.318662972309E+03    0.13691E+01    0.00000E+00  8112   0.376E+01 0.000E+00
CGA:   2    -0.319547228821E+03   -0.88426E+00   -0.88369E+00  8112   0.215E+01 0.557E-02
CGA:   3    -0.319887037097E+03   -0.33981E+00   -0.33977E+00  8112   0.906E+00 0.910E-03
CGA:   4    -0.319986168495E+03   -0.99131E-01   -0.98938E-01  8112   0.332E+00-0.133E-02
CGA:   5    -0.320020723592E+03   -0.34555E-01   -0.34550E-01  8112   0.122E+00-0.165E-03
CGA:   6    -0.320033771240E+03   -0.13048E-01   -0.13025E-01  8112   0.446E-01-0.174E-03
CGA:   7    -0.320039782814E+03   -0.60116E-02   -0.60115E-02  8112   0.127E-01 0.137E-03
CGA:   8    -0.320041899246E+03   -0.21164E-02   -0.21178E-02  8112   0.671E-02-0.266E-04
CGA:   9    -0.320042626951E+03   -0.72771E-03   -0.72839E-03  8112   0.303E-02 0.904E-05
CGA:  10    -0.320043007675E+03   -0.38072E-03   -0.38074E-03  8112   0.167E-02 0.185E-05
CGA:  11    -0.320043230596E+03   -0.22292E-03   -0.22292E-03  8112   0.630E-03 0.890E-06
CGA:  12    -0.320043344850E+03   -0.11425E-03   -0.11416E-03  8112   0.373E-03 0.196E-05
CGA:  13    -0.320043393344E+03   -0.48494E-04   -0.48502E-04  8112   0.226E-03 0.104E-05
CGA:  14    -0.320043420144E+03   -0.26800E-04   -0.26815E-04  8112   0.111E-03 0.791E-06
CGA:  15    -0.320043437124E+03   -0.16979E-04   -0.16974E-04  8112   0.438E-04 0.310E-06
CGA:  16    -0.320043443476E+03   -0.63527E-05   -0.63522E-05  8112   0.240E-04 0.629E-07
  41 F= -.32004344E+03 E0= -.32003914E+03  d E =-.113188E-01  mag=    44.0000
       N       E                     dE             d eps       ncg     rms          ort
SDA:   1    -0.319429673129E+03    0.61376E+00    0.00000E+00  8112   0.157E+01 0.000E+00
CGA:   2    -0.319846560127E+03   -0.41689E+00   -0.41695E+00  8112   0.959E+00-0.480E-03
CGA:   3    -0.319983641707E+03   -0.13708E+00   -0.13708E+00  8112   0.366E+00 0.230E-02
CGA:   4    -0.320025498865E+03   -0.41857E-01   -0.41746E-01  8112   0.106E+00-0.874E-03
CGA:   5    -0.320038112896E+03   -0.12614E-01   -0.12634E-01  8112   0.449E-01 0.301E-03
CGA:   6    -0.320042380231E+03   -0.42673E-02   -0.42586E-02  8112   0.167E-01 0.202E-05
CGA:   7    -0.320044612155E+03   -0.22319E-02   -0.22319E-02  8112   0.513E-02-0.125E-05
CGA:   8    -0.320045370464E+03   -0.75831E-03   -0.75835E-03  8112   0.235E-02-0.313E-05
CGA:   9    -0.320045682545E+03   -0.31208E-03   -0.31208E-03  8112   0.941E-03 0.289E-06
CGA:  10    -0.320045800294E+03   -0.11775E-03   -0.11777E-03  8112   0.640E-03 0.157E-05
CGA:  11    -0.320045876932E+03   -0.76638E-04   -0.76666E-04  8112   0.234E-03 0.123E-05
CGA:  12    -0.320045918398E+03   -0.41466E-04   -0.41470E-04  8112   0.137E-03-0.737E-07
CGA:  13    -0.320045939076E+03   -0.20678E-04   -0.20678E-04  8112   0.742E-04-0.479E-07
CGA:  14    -0.320045948173E+03   -0.90968E-05   -0.91010E-05  8112   0.450E-04 0.258E-06
  42 F= -.32004595E+03 E0= -.32004168E+03  d E =-.250470E-02  mag=    44.0000
       N       E                     dE             d eps       ncg     rms          ort
SDA:   1    -0.319921064827E+03    0.12487E+00    0.00000E+00  8112   0.332E+00 0.000E+00
CGA:   2    -0.320008002314E+03   -0.86937E-01   -0.86880E-01  8112   0.258E+00 0.464E-03
CGA:   3    -0.320031455830E+03   -0.23454E-01   -0.23422E-01  8112   0.112E+00-0.149E-03
CGA:   4    -0.320044683722E+03   -0.13228E-01   -0.13235E-01  8112   0.316E-01 0.882E-04
CGA:   5    -0.320048377576E+03   -0.36939E-02   -0.36916E-02  8112   0.882E-02-0.310E-04
CGA:   6    -0.320049631944E+03   -0.12544E-02   -0.12543E-02  8112   0.324E-02 0.149E-05
CGA:   7    -0.320050019172E+03   -0.38723E-03   -0.38717E-03  8112   0.172E-02-0.139E-05
CGA:   8    -0.320050189016E+03   -0.16984E-03   -0.16985E-03  8112   0.555E-03 0.366E-07
CGA:   9    -0.320050278824E+03   -0.89808E-04   -0.89779E-04  8112   0.210E-03 0.110E-05
CGA:  10    -0.320050312932E+03   -0.34109E-04   -0.34089E-04  8112   0.141E-03 0.804E-06
CGA:  11    -0.320050328329E+03   -0.15396E-04   -0.15409E-04  8112   0.719E-04 0.402E-06
CGA:  12    -0.320050339542E+03   -0.11213E-04   -0.11215E-04  8112   0.405E-04-0.105E-06
CGA:  13    -0.320050345486E+03   -0.59442E-05   -0.59451E-05  8112   0.208E-04-0.109E-06
  43 F= -.32005035E+03 E0= -.32004606E+03  d E =-.439731E-02  mag=    44.0000
       N       E                     dE             d eps       ncg     rms          ort
SDA:   1    -0.304024875250E+03    0.16025E+02    0.00000E+00  8112   0.403E+02 0.000E+00
CGA:   2    -0.315469949344E+03   -0.11445E+02   -0.11477E+02  8112   0.252E+02-0.261E+00
CGA:   3    -0.318361615448E+03   -0.28917E+01   -0.29117E+01  8112   0.934E+01 0.686E+00
CGA:   4    -0.319569709586E+03   -0.12081E+01   -0.11532E+01  8112   0.279E+01-0.447E+00
CGA:   5    -0.319869572178E+03   -0.29986E+00   -0.30182E+00  8112   0.114E+01 0.112E-01
CGA:   6    -0.319977649896E+03   -0.10808E+00   -0.10749E+00  8112   0.487E+00-0.423E-02
CGA:   7    -0.320037693075E+03   -0.60043E-01   -0.60102E-01  8112   0.156E+00 0.141E-02
CGA:   8    -0.320056902846E+03   -0.19210E-01   -0.19186E-01  8112   0.843E-01-0.544E-03
CGA:   9    -0.320066782969E+03   -0.98801E-02   -0.99218E-02  8112   0.363E-01 0.687E-03
CGA:  10    -0.320070999590E+03   -0.42166E-02   -0.42212E-02  8112   0.201E-01 0.792E-04
CGA:  11    -0.320074089569E+03   -0.30900E-02   -0.30784E-02  8112   0.821E-02 0.434E-03
CGA:  12    -0.320075353611E+03   -0.12640E-02   -0.12629E-02  8112   0.740E-02 0.560E-04
CGA:  13    -0.320076252962E+03   -0.89935E-03   -0.90110E-03  8112   0.303E-02 0.445E-04
CGA:  14    -0.320076672481E+03   -0.41952E-03   -0.41951E-03  8112   0.175E-02 0.704E-05
CGA:  15    -0.320076923989E+03   -0.25151E-03   -0.25146E-03  8112   0.840E-03 0.640E-05
CGA:  16    -0.320077019557E+03   -0.95568E-04   -0.95670E-04  8112   0.379E-03 0.415E-05
CGA:  17    -0.320077068280E+03   -0.48722E-04   -0.48754E-04  8112   0.197E-03 0.348E-05
CGA:  18    -0.320077094161E+03   -0.25882E-04   -0.25893E-04  8112   0.675E-04 0.213E-05
CGA:  19    -0.320077104392E+03   -0.10230E-04   -0.10228E-04  8112   0.577E-04 0.115E-06
CGA:  20    -0.320077111479E+03   -0.70871E-05   -0.70851E-05  8112   0.232E-04-0.163E-06
  44 F= -.32007711E+03 E0= -.32007274E+03  d E =-.267660E-01  mag=    44.0000
       N       E                     dE             d eps       ncg     rms          ort
SDA:   1    -0.310326171644E+03    0.97509E+01    0.00000E+00  8112   0.283E+02 0.000E+00
CGA:   2    -0.315707669046E+03   -0.53815E+01   -0.53069E+01  8112   0.209E+02 0.122E+01
CGA:   3    -0.318152398682E+03   -0.24447E+01   -0.23474E+01  8112   0.937E+01-0.630E+00
CGA:   4    -0.319321455774E+03   -0.11691E+01   -0.11655E+01  8112   0.344E+01-0.181E+00
CGA:   5    -0.319658917489E+03   -0.33746E+00   -0.34015E+00  8112   0.113E+01-0.491E-02
CGA:   6    -0.319798845683E+03   -0.13993E+00   -0.13941E+00  8112   0.367E+00-0.170E-01
CGA:   7    -0.319850809037E+03   -0.51963E-01   -0.51918E-01  8112   0.103E+00 0.299E-02
CGA:   8    -0.319868416342E+03   -0.17607E-01   -0.17601E-01  8112   0.502E-01 0.133E-03
CGA:   9    -0.319874877869E+03   -0.64615E-02   -0.64688E-02  8112   0.210E-01 0.398E-03
CGA:  10    -0.319878496718E+03   -0.36188E-02   -0.36172E-02  8112   0.899E-02 0.359E-04
CGA:  11    -0.319879991372E+03   -0.14947E-02   -0.14919E-02  8112   0.565E-02 0.720E-04
CGA:  12    -0.319880719294E+03   -0.72792E-03   -0.72839E-03  8112   0.322E-02 0.205E-04
CGA:  13    -0.319881094142E+03   -0.37485E-03   -0.37506E-03  8112   0.172E-02 0.601E-05
CGA:  14    -0.319881325776E+03   -0.23163E-03   -0.23166E-03  8112   0.780E-03 0.520E-05
CGA:  15    -0.319881450837E+03   -0.12506E-03   -0.12499E-03  8112   0.282E-03 0.286E-05
CGA:  16    -0.319881499007E+03   -0.48169E-04   -0.48089E-04  8112   0.146E-03 0.242E-05
CGA:  17    -0.319881518042E+03   -0.19035E-04   -0.19047E-04  8112   0.605E-04 0.110E-05
CGA:  18    -0.319881526197E+03   -0.81555E-05   -0.81590E-05  8112   0.395E-04 0.604E-06
  45 F= -.31988153E+03 E0= -.31987739E+03  d E =0.195585E+00  mag=    44.0000
       N       E                     dE             d eps       ncg     rms          ort
SDA:   1    -0.318841012299E+03    0.10405E+01    0.00000E+00  8112   0.337E+01 0.000E+00
CGA:   2    -0.319563247447E+03   -0.72224E+00   -0.72171E+00  8112   0.186E+01 0.637E-02
CGA:   3    -0.319855627628E+03   -0.29238E+00   -0.29251E+00  8112   0.106E+01-0.434E-02
CGA:   4    -0.319954887512E+03   -0.99260E-01   -0.99905E-01  8112   0.363E+00-0.451E-02
CGA:   5    -0.319994448565E+03   -0.39561E-01   -0.39557E-01  8112   0.118E+00-0.259E-04
CGA:   6    -0.320008611082E+03   -0.14163E-01   -0.14165E-01  8112   0.438E-01 0.321E-04
CGA:   7    -0.320014462820E+03   -0.58517E-02   -0.58515E-02  8112   0.142E-01-0.277E-04
CGA:   8    -0.320016399303E+03   -0.19365E-02   -0.19365E-02  8112   0.819E-02 0.818E-05
CGA:   9    -0.320017254057E+03   -0.85475E-03   -0.85463E-03  8112   0.330E-02 0.478E-05
CGA:  10    -0.320017700511E+03   -0.44645E-03   -0.44646E-03  8112   0.155E-02 0.749E-05
CGA:  11    -0.320017933787E+03   -0.23328E-03   -0.23329E-03  8112   0.729E-03-0.217E-06
CGA:  12    -0.320018039025E+03   -0.10524E-03   -0.10523E-03  8112   0.423E-03 0.658E-06
CGA:  13    -0.320018089153E+03   -0.50128E-04   -0.50148E-04  8112   0.237E-03 0.107E-05
CGA:  14    -0.320018120532E+03   -0.31379E-04   -0.31381E-04  8112   0.994E-04 0.596E-06
CGA:  15    -0.320018137858E+03   -0.17326E-04   -0.17316E-04  8112   0.494E-04 0.250E-06
CGA:  16    -0.320018144163E+03   -0.63047E-05   -0.63014E-05  8112   0.298E-04-0.320E-06
  46 F= -.32001814E+03 E0= -.32001393E+03  d E =-.136618E+00  mag=    44.0000
       N       E                     dE             d eps       ncg     rms          ort
SDA:   1    -0.319768635995E+03    0.24950E+00    0.00000E+00  8112   0.802E+00 0.000E+00
CGA:   2    -0.319946788130E+03   -0.17815E+00   -0.17815E+00  8112   0.419E+00 0.722E-04
CGA:   3    -0.320019253400E+03   -0.72465E-01   -0.72456E-01  8112   0.207E+00 0.202E-03
CGA:   4    -0.320039306354E+03   -0.20053E-01   -0.20074E-01  8112   0.823E-01-0.725E-04
CGA:   5    -0.320047866605E+03   -0.85603E-02   -0.85576E-02  8112   0.249E-01-0.138E-04
CGA:   6    -0.320050969026E+03   -0.31024E-02   -0.31030E-02  8112   0.977E-02 0.162E-04
CGA:   7    -0.320052223692E+03   -0.12547E-02   -0.12545E-02  8112   0.301E-02-0.864E-05
CGA:   8    -0.320052662431E+03   -0.43874E-03   -0.43869E-03  8112   0.187E-02 0.438E-05
CGA:   9    -0.320052846837E+03   -0.18441E-03   -0.18445E-03  8112   0.671E-03 0.208E-05
CGA:  10    -0.320052947159E+03   -0.10032E-03   -0.10031E-03  8112   0.383E-03 0.659E-06
CGA:  11    -0.320052997367E+03   -0.50207E-04   -0.50208E-04  8112   0.149E-03 0.233E-06
CGA:  12    -0.320053022948E+03   -0.25582E-04   -0.25583E-04  8112   0.106E-03-0.405E-07
CGA:  13    -0.320053033444E+03   -0.10496E-04   -0.10504E-04  8112   0.445E-04 0.228E-06
CGA:  14    -0.320053040959E+03   -0.75155E-05   -0.75075E-05  8112   0.238E-04 0.252E-06
  47 F= -.32005304E+03 E0= -.32004878E+03  d E =-.348968E-01  mag=    44.0000
       N       E                     dE             d eps       ncg     rms          ort
SDA:   1    -0.319749941669E+03    0.30309E+00    0.00000E+00  8112   0.889E+00 0.000E+00
CGA:   2    -0.319951486477E+03   -0.20154E+00   -0.20153E+00  8112   0.487E+00 0.215E-03
CGA:   3    -0.320026032322E+03   -0.74546E-01   -0.74527E-01  8112   0.308E+00 0.108E-02
CGA:   4    -0.320052203117E+03   -0.26171E-01   -0.26178E-01  8112   0.881E-01-0.432E-03
CGA:   5    -0.320063535590E+03   -0.11332E-01   -0.11330E-01  8112   0.263E-01-0.106E-03
CGA:   6    -0.320066841632E+03   -0.33060E-02   -0.33080E-02  8112   0.115E-01 0.591E-04
CGA:   7    -0.320068218096E+03   -0.13765E-02   -0.13759E-02  8112   0.374E-02-0.108E-04
CGA:   8    -0.320068677238E+03   -0.45914E-03   -0.45917E-03  8112   0.240E-02 0.158E-05
CGA:   9    -0.320068939798E+03   -0.26256E-03   -0.26262E-03  8112   0.663E-03 0.252E-05
CGA:  10    -0.320069062927E+03   -0.12313E-03   -0.12306E-03  8112   0.386E-03 0.141E-05
CGA:  11    -0.320069108760E+03   -0.45834E-04   -0.45840E-04  8112   0.212E-03 0.308E-06
CGA:  12    -0.320069136433E+03   -0.27672E-04   -0.27671E-04  8112   0.114E-03-0.207E-06
CGA:  13    -0.320069151516E+03   -0.15084E-04   -0.15084E-04  8112   0.494E-04 0.125E-06
CGA:  14    -0.320069159272E+03   -0.77552E-05   -0.77492E-05  8112   0.300E-04 0.292E-06
  48 F= -.32006916E+03 E0= -.32006487E+03  d E =-.161183E-01  mag=    44.0000
       N       E                     dE             d eps       ncg     rms          ort
SDA:   1    -0.320026301354E+03    0.42850E-01    0.00000E+00  8112   0.120E+00 0.000E+00
CGA:   2    -0.320055596568E+03   -0.29295E-01   -0.29297E-01  8112   0.809E-01-0.132E-04
CGA:   3    -0.320064128078E+03   -0.85315E-02   -0.85407E-02  8112   0.472E-01 0.227E-04
CGA:   4    -0.320069016070E+03   -0.48880E-02   -0.48881E-02  8112   0.105E-01-0.104E-05
CGA:   5    -0.320070526192E+03   -0.15101E-02   -0.15102E-02  8112   0.350E-02-0.763E-05
CGA:   6    -0.320070943132E+03   -0.41694E-03   -0.41686E-03  8112   0.148E-02-0.395E-05
CGA:   7    -0.320071108286E+03   -0.16515E-03   -0.16515E-03  8112   0.627E-03-0.729E-06
CGA:   8    -0.320071176148E+03   -0.67861E-04   -0.67879E-04  8112   0.246E-03 0.776E-06
CGA:   9    -0.320071213646E+03   -0.37498E-04   -0.37486E-04  8112   0.948E-04 0.738E-06
CGA:  10    -0.320071226647E+03   -0.13001E-04   -0.13001E-04  8112   0.600E-04 0.450E-06
CGA:  11    -0.320071234169E+03   -0.75224E-05   -0.75220E-05  8112   0.308E-04-0.303E-07
  49 F= -.32007123E+03 E0= -.32006694E+03  d E =-.207490E-02  mag=    44.0000
       N       E                     dE             d eps       ncg     rms          ort
SDA:   1    -0.319915178832E+03    0.15605E+00    0.00000E+00  8112   0.412E+00 0.000E+00
CGA:   2    -0.320026347698E+03   -0.11117E+00   -0.11114E+00  8112   0.226E+00 0.196E-03
CGA:   3    -0.320057724271E+03   -0.31377E-01   -0.31375E-01  8112   0.912E-01-0.184E-03
CGA:   4    -0.320069001997E+03   -0.11278E-01   -0.11280E-01  8112   0.308E-01 0.415E-04
CGA:   5    -0.320072038275E+03   -0.30363E-02   -0.30348E-02  8112   0.131E-01-0.141E-04
CGA:   6    -0.320073390783E+03   -0.13525E-02   -0.13532E-02  8112   0.381E-02-0.473E-05
CGA:   7    -0.320073944002E+03   -0.55322E-03   -0.55324E-03  8112   0.130E-02-0.155E-05
CGA:   8    -0.320074130875E+03   -0.18687E-03   -0.18686E-03  8112   0.617E-03 0.216E-05
CGA:   9    -0.320074206918E+03   -0.76043E-04   -0.76052E-04  8112   0.311E-03 0.948E-06
CGA:  10    -0.320074242972E+03   -0.36054E-04   -0.36062E-04  8112   0.163E-03 0.365E-06
CGA:  11    -0.320074265442E+03   -0.22470E-04   -0.22470E-04  8112   0.799E-04 0.110E-07
CGA:  12    -0.320074277976E+03   -0.12534E-04   -0.12543E-04  8112   0.393E-04-0.425E-06
CGA:  13    -0.320074284299E+03   -0.63236E-05   -0.63173E-05  8112   0.239E-04 0.254E-06
  50 F= -.32007428E+03 E0= -.32006998E+03  d E =-.305013E-02  mag=    44.0000
       N       E                     dE             d eps       ncg     rms          ort
SDA:   1    -0.320039628664E+03    0.34649E-01    0.00000E+00  8112   0.111E+00 0.000E+00
CGA:   2    -0.320058965155E+03   -0.19336E-01   -0.19335E-01  8112   0.996E-01 0.436E-04
CGA:   3    -0.320068990697E+03   -0.10026E-01   -0.10010E-01  8112   0.401E-01-0.560E-04
CGA:   4    -0.320073848656E+03   -0.48580E-02   -0.48590E-02  8112   0.162E-01 0.212E-04
CGA:   5    -0.320075629939E+03   -0.17813E-02   -0.17807E-02  8112   0.419E-02-0.754E-05
CGA:   6    -0.320076228085E+03   -0.59815E-03   -0.59819E-03  8112   0.139E-02-0.479E-05
CGA:   7    -0.320076400402E+03   -0.17232E-03   -0.17231E-03  8112   0.711E-03-0.716E-06
CGA:   8    -0.320076472189E+03   -0.71787E-04   -0.71796E-04  8112   0.274E-03 0.185E-06
[...]
CGA:   7    -0.319558985463E+03   -0.14742E+00   -0.15527E+00  8112   0.147E+01-0.690E-01
CGA:   8    -0.319669735318E+03   -0.11075E+00   -0.11287E+00  8112   0.484E+00-0.284E-02
CGA:   9    -0.319718661548E+03   -0.48926E-01   -0.49837E-01  8112   0.279E+00 0.137E-01
CGA:  10    -0.319744989209E+03   -0.26328E-01   -0.26994E-01  8112   0.188E+00 0.494E-02
CGA:  11    -0.319761561043E+03   -0.16572E-01   -0.16737E-01  8112   0.796E-01 0.768E-05
CGA:  12    -0.319770388863E+03   -0.88278E-02   -0.88774E-02  8112   0.432E-01 0.261E-02
CGA:  13    -0.319776308046E+03   -0.59192E-02   -0.59135E-02  8112   0.186E-01 0.266E-03
CGA:  14    -0.319779028586E+03   -0.27205E-02   -0.27087E-02  8112   0.131E-01 0.328E-03
CGA:  15    -0.319780370876E+03   -0.13423E-02   -0.13534E-02  8112   0.676E-02 0.192E-03
CGA:  16    -0.319781257009E+03   -0.88613E-03   -0.88506E-03  8112   0.237E-02 0.734E-04
CGA:  17    -0.319781689753E+03   -0.43274E-03   -0.43052E-03  8112   0.179E-02 0.312E-04
CGA:  18    -0.319781852107E+03   -0.16235E-03   -0.16288E-03  8112   0.683E-03 0.252E-05
CGA:  19    -0.319781953319E+03   -0.10121E-03   -0.10110E-03  8112   0.338E-03 0.344E-05
CGA:  20    -0.319782002042E+03   -0.48724E-04   -0.48680E-04  8112   0.173E-03 0.195E-05
CGA:  21    -0.319782022579E+03   -0.20537E-04   -0.20547E-04  8112   0.105E-03 0.141E-05
CGA:  22    -0.319782036587E+03   -0.14008E-04   -0.14001E-04  8112   0.548E-04 0.812E-06
CGA:  23    -0.319782045435E+03   -0.88480E-05   -0.88381E-05  8112   0.326E-04 0.251E-06
  62 F= -.31978205E+03 E0= -.31977730E+03  d E =0.295465E+00  mag=    44.0000
       N       E                     dE             d eps       ncg     rms          ort
SDA:   1    -0.280463957077E+03    0.39318E+02    0.00000E+00  8112   0.746E+03 0.000E+00
CGA:   2    -0.301390829019E+03   -0.20927E+02   -0.44731E+02  8112   0.761E+02-0.271E+02
CGA:   3    -0.309737182246E+03   -0.83464E+01   -0.75449E+01  8112   0.434E+02-0.439E+01
CGA:   4    -0.314208489329E+03   -0.44713E+01   -0.70144E+01  8112   0.122E+03-0.414E+02
CGA:   5    -0.314874831842E+03   -0.66634E+00   -0.63854E+01  8112   0.934E+02-0.578E+02
CGA:   6    -0.318074261453E+03   -0.31994E+01   -0.21587E+01  8112   0.151E+02 0.130E+02
CGA:   7    -0.318529111235E+03   -0.45485E+00   -0.36811E+00  8112   0.591E+01 0.257E+01
CGA:   8    -0.318774672400E+03   -0.24556E+00   -0.23315E+00  8112   0.836E+01-0.802E-01
CGA:   9    -0.318948871539E+03   -0.17420E+00   -0.25453E+00  8112   0.766E+01-0.175E+01
CGA:  10    -0.319105507732E+03   -0.15664E+00   -0.21773E+00  8112   0.777E+01-0.101E+01
CGA:  11    -0.319560674014E+03   -0.45517E+00   -0.48237E+00  8112   0.450E+01 0.181E+00
CGA:  12    -0.319732372141E+03   -0.17170E+00   -0.22368E+00  8112   0.104E+01-0.363E+00
CGA:  13    -0.319791849218E+03   -0.59477E-01   -0.60652E-01  8112   0.405E+00 0.685E-03
CGA:  14    -0.319841287926E+03   -0.49439E-01   -0.49098E-01  8112   0.361E+00 0.942E-02
CGA:  15    -0.319874046717E+03   -0.32759E-01   -0.33016E-01  8112   0.950E-01 0.147E-01
CGA:  16    -0.319882094678E+03   -0.80480E-02   -0.80916E-02  8112   0.614E-01 0.946E-03
CGA:  17    -0.319893000618E+03   -0.10906E-01   -0.10878E-01  8112   0.436E-01 0.320E-03
CGA:  18    -0.319897695051E+03   -0.46944E-02   -0.46917E-02  8112   0.150E-01 0.200E-03
CGA:  19    -0.319899555136E+03   -0.18601E-02   -0.18580E-02  8112   0.110E-01 0.602E-04
CGA:  20    -0.319900698102E+03   -0.11430E-02   -0.11429E-02  8112   0.477E-02 0.231E-04
CGA:  21    -0.319901365876E+03   -0.66777E-03   -0.66585E-03  8112   0.266E-02 0.415E-04
CGA:  22    -0.319901758590E+03   -0.39271E-03   -0.39212E-03  8112   0.138E-02 0.130E-04
CGA:  23    -0.319901942249E+03   -0.18366E-03   -0.18346E-03  8112   0.108E-02 0.702E-05
CGA:  24    -0.319902056281E+03   -0.11403E-03   -0.11405E-03  8112   0.431E-03 0.736E-05
CGA:  25    -0.319902128236E+03   -0.71955E-04   -0.71778E-04  8112   0.235E-03 0.295E-05
CGA:  26    -0.319902159402E+03   -0.31166E-04   -0.31178E-04  8112   0.111E-03-0.620E-06
CGA:  27    -0.319902178452E+03   -0.19050E-04   -0.19124E-04  8112   0.890E-04-0.122E-05
CGA:  28    -0.319902187562E+03   -0.91103E-05   -0.91097E-05  8112   0.480E-04-0.788E-07
  63 F= -.31990219E+03 E0= -.31989766E+03  d E =-.120142E+00  mag=    44.0000
       N       E                     dE             d eps       ncg     rms          ort
SDA:   1    -0.316518711465E+03    0.33835E+01    0.00000E+00  8112   0.116E+02 0.000E+00
CGA:   2    -0.318506817811E+03   -0.19881E+01   -0.19820E+01  8112   0.653E+01 0.901E-01
CGA:   3    -0.319352507238E+03   -0.84569E+00   -0.84520E+00  8112   0.472E+01 0.492E-01
CGA:   4    -0.319835376068E+03   -0.48287E+00   -0.47926E+00  8112   0.129E+01-0.863E-01
CGA:   5    -0.320001521292E+03   -0.16615E+00   -0.16610E+00  8112   0.398E+00 0.209E-02
CGA:   6    -0.320052074216E+03   -0.50553E-01   -0.50575E-01  8112   0.167E+00-0.136E-02
CGA:   7    -0.320071382523E+03   -0.19308E-01   -0.19307E-01  8112   0.704E-01-0.224E-03
CGA:   8    -0.320078191928E+03   -0.68094E-02   -0.68223E-02  8112   0.306E-01 0.176E-03
CGA:   9    -0.320082534396E+03   -0.43425E-02   -0.43411E-02  8112   0.110E-01 0.461E-04
CGA:  10    -0.320084037849E+03   -0.15035E-02   -0.15028E-02  8112   0.575E-02 0.226E-04
CGA:  11    -0.320084826153E+03   -0.78830E-03   -0.78807E-03  8112   0.348E-02 0.966E-05
CGA:  12    -0.320085194189E+03   -0.36804E-03   -0.36816E-03  8112   0.150E-02 0.424E-05
CGA:  13    -0.320085415440E+03   -0.22125E-03   -0.22117E-03  8112   0.817E-03 0.323E-05
CGA:  14    -0.320085538741E+03   -0.12330E-03   -0.12318E-03  8112   0.357E-03 0.354E-05
CGA:  15    -0.320085586995E+03   -0.48254E-04   -0.48239E-04  8112   0.299E-03 0.114E-05
CGA:  16    -0.320085621804E+03   -0.34809E-04   -0.34810E-04  8112   0.922E-04 0.680E-07
CGA:  17    -0.320085636742E+03   -0.14939E-04   -0.14950E-04  8112   0.560E-04-0.294E-06
CGA:  18    -0.320085644030E+03   -0.72880E-05   -0.72887E-05  8112   0.284E-04-0.133E-06
  64 F= -.32008564E+03 E0= -.32008102E+03  d E =-.183456E+00  mag=    44.0000
       N       E                     dE             d eps       ncg     rms          ort
SDA:   1    -0.319983577729E+03    0.10206E+00    0.00000E+00  8112   0.318E+00 0.000E+00
CGA:   2    -0.320046774006E+03   -0.63196E-01   -0.63212E-01  8112   0.231E+00-0.163E-03
CGA:   3    -0.320071384141E+03   -0.24610E-01   -0.24651E-01  8112   0.128E+00 0.565E-03
CGA:   4    -0.320085564783E+03   -0.14181E-01   -0.14176E-01  8112   0.394E-01-0.979E-04
CGA:   5    -0.320089716741E+03   -0.41520E-02   -0.41530E-02  8112   0.136E-01 0.101E-04
CGA:   6    -0.320091559227E+03   -0.18425E-02   -0.18426E-02  8112   0.383E-02-0.537E-05
CGA:   7    -0.320092087279E+03   -0.52805E-03   -0.52805E-03  8112   0.212E-02-0.558E-06
CGA:   8    -0.320092278040E+03   -0.19076E-03   -0.19074E-03  8112   0.780E-03-0.464E-07
CGA:   9    -0.320092396164E+03   -0.11812E-03   -0.11811E-03  8112   0.318E-03 0.552E-06
CGA:  10    -0.320092437757E+03   -0.41594E-04   -0.41593E-04  8112   0.150E-03 0.281E-06
CGA:  11    -0.320092460238E+03   -0.22481E-04   -0.22475E-04  8112   0.973E-04 0.200E-06
CGA:  12    -0.320092470332E+03   -0.10094E-04   -0.10096E-04  8112   0.434E-04 0.723E-07
CGA:  13    -0.320092476816E+03   -0.64841E-05   -0.64873E-05  8112   0.229E-04-0.141E-06
  65 F= -.32009248E+03 E0= -.32008786E+03  d E =-.683279E-02  mag=    44.0000
       N       E                     dE             d eps       ncg     rms          ort
SDA:   1    -0.319642219526E+03    0.45025E+00    0.00000E+00  8112   0.125E+01 0.000E+00
CGA:   2    -0.319904349149E+03   -0.26213E+00   -0.26221E+00  8112   0.123E+01-0.382E-03
CGA:   3    -0.320012680014E+03   -0.10833E+00   -0.10886E+00  8112   0.438E+00-0.339E-02
CGA:   4    -0.320067840515E+03   -0.55161E-01   -0.55147E-01  8112   0.167E+00-0.165E-02
CGA:   5    -0.320084743596E+03   -0.16903E-01   -0.16931E-01  8112   0.457E-01 0.206E-03
CGA:   6    -0.320091555813E+03   -0.68122E-02   -0.68123E-02  8112   0.143E-01-0.284E-05
CGA:   7    -0.320093187497E+03   -0.16317E-02   -0.16319E-02  8112   0.837E-02 0.292E-05
CGA:   8    -0.320094055248E+03   -0.86775E-03   -0.86761E-03  8112   0.273E-02-0.287E-05
CGA:   9    -0.320094426712E+03   -0.37146E-03   -0.37142E-03  8112   0.128E-02 0.230E-05
CGA:  10    -0.320094605361E+03   -0.17865E-03   -0.17865E-03  8112   0.534E-03 0.478E-06
CGA:  11    -0.320094682739E+03   -0.77377E-04   -0.77362E-04  8112   0.409E-03 0.777E-06
CGA:  12    -0.320094725832E+03   -0.43094E-04   -0.43099E-04  8112   0.163E-03 0.210E-06
CGA:  13    -0.320094753569E+03   -0.27737E-04   -0.27749E-04  8112   0.889E-04-0.302E-06
CGA:  14    -0.320094766516E+03   -0.12946E-04   -0.12937E-04  8112   0.518E-04 0.574E-06
CGA:  15    -0.320094772551E+03   -0.60352E-05   -0.60462E-05  8112   0.264E-04 0.723E-06
  66 F= -.32009477E+03 E0= -.32009020E+03  d E =-.229573E-02  mag=    44.0000
       N       E                     dE             d eps       ncg     rms          ort
SDA:   1    -0.319804706922E+03    0.29006E+00    0.00000E+00  8112   0.828E+00 0.000E+00
CGA:   2    -0.319949216882E+03   -0.14451E+00   -0.14471E+00  8112   0.101E+01-0.279E-02
CGA:   3    -0.320045517620E+03   -0.96301E-01   -0.96455E-01  8112   0.246E+00-0.879E-03
CGA:   4    -0.320074899750E+03   -0.29382E-01   -0.29351E-01  8112   0.127E+00-0.113E-02
CGA:   5    -0.320088966339E+03   -0.14067E-01   -0.14071E-01  8112   0.220E-01 0.632E-04
CGA:   6    -0.320092656411E+03   -0.36901E-02   -0.36897E-02  8112   0.839E-02 0.952E-05
CGA:   7    -0.320093515468E+03   -0.85906E-03   -0.85914E-03  8112   0.451E-02-0.490E-06
CGA:   8    -0.320094019713E+03   -0.50425E-03   -0.50414E-03  8112   0.149E-02-0.372E-05
CGA:   9    -0.320094216780E+03   -0.19707E-03   -0.19706E-03  8112   0.689E-03-0.266E-06
CGA:  10    -0.320094321292E+03   -0.10451E-03   -0.10451E-03  8112   0.303E-03 0.110E-06
CGA:  11    -0.320094362746E+03   -0.41455E-04   -0.41454E-04  8112   0.231E-03 0.102E-06
CGA:  12    -0.320094388457E+03   -0.25711E-04   -0.25714E-04  8112   0.101E-03 0.141E-06
CGA:  13    -0.320094406415E+03   -0.17958E-04   -0.17953E-04  8112   0.505E-04 0.974E-07
CGA:  14    -0.320094413525E+03   -0.71100E-05   -0.71046E-05  8112   0.328E-04 0.623E-06
  67 F= -.32009441E+03 E0= -.32008989E+03  d E =0.359026E-03  mag=    44.0000
       N       E                     dE             d eps       ncg     rms          ort
SDA:   1    -0.318853114575E+03    0.12413E+01    0.00000E+00  8112   0.332E+01 0.000E+00
CGA:   2    -0.319613309154E+03   -0.76019E+00   -0.76286E+00  8112   0.328E+01-0.227E-01
CGA:   3    -0.319896348301E+03   -0.28304E+00   -0.28525E+00  8112   0.972E+00-0.572E-02
CGA:   4    -0.320019428953E+03   -0.12308E+00   -0.12295E+00  8112   0.504E+00-0.773E-02
CGA:   5    -0.320065512612E+03   -0.46084E-01   -0.46240E-01  8112   0.101E+00 0.170E-03
CGA:   6    -0.320081566680E+03   -0.16054E-01   -0.16051E-01  8112   0.318E-01 0.103E-03
CGA:   7    -0.320085644067E+03   -0.40774E-02   -0.40776E-02  8112   0.187E-01 0.195E-04
CGA:   8    -0.320087460370E+03   -0.18163E-02   -0.18164E-02  8112   0.651E-02-0.371E-05
CGA:   9    -0.320088306712E+03   -0.84634E-03   -0.84637E-03  8112   0.310E-02 0.899E-05
CGA:  10    -0.320088750492E+03   -0.44378E-03   -0.44375E-03  8112   0.129E-02 0.163E-05
CGA:  11    -0.320088959573E+03   -0.20908E-03   -0.20895E-03  8112   0.910E-03 0.350E-05
CGA:  12    -0.320089055464E+03   -0.95892E-04   -0.95969E-04  8112   0.500E-03 0.185E-05
CGA:  13    -0.320089137172E+03   -0.81707E-04   -0.81657E-04  8112   0.217E-03 0.150E-05
CGA:  14    -0.320089171617E+03   -0.34445E-04   -0.34418E-04  8112   0.145E-03 0.109E-05
CGA:  15    -0.320089189628E+03   -0.18011E-04   -0.18018E-04  8112   0.659E-04 0.588E-06
CGA:  16    -0.320089197269E+03   -0.76406E-05   -0.76502E-05  8112   0.348E-04 0.505E-06
  68 F= -.32008920E+03 E0= -.32008476E+03  d E =0.521626E-02  mag=    44.0000
       N       E                     dE             d eps       ncg     rms          ort
SDA:   1    -0.319822273127E+03    0.26692E+00    0.00000E+00  8112   0.693E+00 0.000E+00
CGA:   2    -0.319995951330E+03   -0.17368E+00   -0.17381E+00  8112   0.509E+00-0.109E-02
CGA:   3    -0.320044554243E+03   -0.48603E-01   -0.48854E-01  8112   0.249E+00-0.354E-04
CGA:   4    -0.320072212124E+03   -0.27658E-01   -0.27615E-01  8112   0.705E-01-0.499E-03
CGA:   5    -0.320080773821E+03   -0.85617E-02   -0.85641E-02  8112   0.207E-01 0.754E-04
CGA:   6    -0.320083316649E+03   -0.25428E-02   -0.25429E-02  8112   0.849E-02 0.585E-05
CGA:   7    -0.320084301779E+03   -0.98513E-03   -0.98515E-03  8112   0.343E-02 0.198E-05
CGA:   8    -0.320084676766E+03   -0.37499E-03   -0.37495E-03  8112   0.168E-02 0.356E-06
CGA:   9    -0.320084885458E+03   -0.20869E-03   -0.20870E-03  8112   0.548E-03-0.217E-06
CGA:  10    -0.320084982881E+03   -0.97423E-04   -0.97481E-04  8112   0.325E-03-0.123E-05
CGA:  11    -0.320085020570E+03   -0.37689E-04   -0.37684E-04  8112   0.204E-03-0.319E-06
CGA:  12    -0.320085047096E+03   -0.26525E-04   -0.26527E-04  8112   0.955E-04 0.649E-06
CGA:  13    -0.320085063139E+03   -0.16043E-04   -0.16009E-04  8112   0.520E-04 0.101E-05
CGA:  14    -0.320085070186E+03   -0.70468E-05   -0.70471E-05  8112   0.308E-04 0.334E-06
  69 F= -.32008507E+03 E0= -.32008068E+03  d E =0.412708E-02  mag=    44.0000
       N       E                     dE             d eps       ncg     rms          ort
SDA:   1    -0.320010936140E+03    0.74127E-01    0.00000E+00  8112   0.225E+00 0.000E+00
CGA:   2    -0.320049089291E+03   -0.38153E-01   -0.38116E-01  8112   0.264E+00 0.801E-03
CGA:   3    -0.320073813067E+03   -0.24724E-01   -0.24658E-01  8112   0.681E-01-0.211E-03
CGA:   4    -0.320083750646E+03   -0.99376E-02   -0.99366E-02  8112   0.275E-01 0.422E-04
CGA:   5    -0.320086687043E+03   -0.29364E-02   -0.29362E-02  8112   0.720E-02-0.275E-05
CGA:   6    -0.320087700249E+03   -0.10132E-02   -0.10132E-02  8112   0.266E-02-0.270E-06
CGA:   7    -0.320087983449E+03   -0.28320E-03   -0.28322E-03  8112   0.138E-02 0.363E-06
CGA:   8    -0.320088131052E+03   -0.14760E-03   -0.14761E-03  8112   0.457E-03-0.248E-06
CGA:   9    -0.320088199689E+03   -0.68636E-04   -0.68629E-04  8112   0.182E-03 0.433E-06
CGA:  10    -0.320088226763E+03   -0.27075E-04   -0.27060E-04  8112   0.107E-03 0.872E-06
CGA:  11    -0.320088239732E+03   -0.12969E-04   -0.12977E-04  8112   0.582E-04 0.616E-06
CGA:  12    -0.320088246999E+03   -0.72667E-05   -0.72673E-05  8112   0.330E-04 0.451E-07
  70 F= -.32008825E+03 E0= -.32008383E+03  d E =-.317681E-02  mag=    44.0000
       N       E                     dE             d eps       ncg     rms          ort
SDA:   1    -0.320084539071E+03    0.37007E-02    0.00000E+00  8112   0.123E-01 0.000E+00
CGA:   2    -0.320086280538E+03   -0.17415E-02   -0.17416E-02  8112   0.135E-01-0.452E-05
CGA:   3    -0.320087896603E+03   -0.16161E-02   -0.16160E-02  8112   0.402E-02-0.534E-06
CGA:   4    -0.320088286363E+03   -0.38976E-03   -0.38940E-03  8112   0.150E-02-0.173E-05
CGA:   5    -0.320088485762E+03   -0.19940E-03   -0.19940E-03  8112   0.322E-03 0.894E-06
CGA:   6    -0.320088532663E+03   -0.46901E-04   -0.46876E-04  8112   0.115E-03 0.173E-05
CGA:   7    -0.320088547893E+03   -0.15230E-04   -0.15230E-04  8112   0.600E-04 0.506E-06
CGA:   8    -0.320088553094E+03   -0.52009E-05   -0.52030E-05  8112   0.201E-04 0.493E-07
  71 F= -.32008855E+03 E0= -.32008413E+03  d E =-.306095E-03  mag=    44.0000
       N       E                     dE             d eps       ncg     rms          ort
SDA:   1    -0.319943169207E+03    0.14538E+00    0.00000E+00  8112   0.353E+00 0.000E+00
CGA:   2    -0.320051944159E+03   -0.10877E+00   -0.10868E+00  8112   0.273E+00 0.598E-03
CGA:   3    -0.320073128892E+03   -0.21185E-01   -0.21123E-01  8112   0.884E-01-0.162E-03
CGA:   4    -0.320084168205E+03   -0.11039E-01   -0.11040E-01  8112   0.327E-01 0.168E-04
CGA:   5    -0.320087783016E+03   -0.36148E-02   -0.36134E-02  8112   0.742E-02-0.111E-04
CGA:   6    -0.320088941808E+03   -0.11588E-02   -0.11585E-02  8112   0.308E-02 0.868E-05
CGA:   7    -0.320089286308E+03   -0.34450E-03   -0.34445E-03  8112   0.126E-02 0.474E-06
CGA:   8    -0.320089411237E+03   -0.12493E-03   -0.12493E-03  8112   0.557E-03 0.434E-07
CGA:   9    -0.320089491514E+03   -0.80277E-04   -0.80275E-04  8112   0.170E-03 0.145E-06
CGA:  10    -0.320089519032E+03   -0.27518E-04   -0.27508E-04  8112   0.117E-03 0.370E-06
CGA:  11    -0.320089533508E+03   -0.14476E-04   -0.14482E-04  8112   0.564E-04 0.547E-06
CGA:  12    -0.320089540865E+03   -0.73566E-05   -0.73576E-05  8112   0.395E-04 0.227E-06
  72 F= -.32008954E+03 E0= -.32008510E+03  d E =-.987771E-03  mag=    44.0000
       N       E                     dE             d eps       ncg     rms          ort
SDA:   1    -0.320038806976E+03    0.50727E-01    0.00000E+00  8112   0.145E+00 0.000E+00
CGA:   2    -0.320065917628E+03   -0.27111E-01   -0.27101E-01  8112   0.169E+00 0.167E-03
CGA:   3    -0.320080790913E+03   -0.14873E-01   -0.14870E-01  8112   0.479E-01-0.111E-03
CGA:   4    -0.320087911449E+03   -0.71205E-02   -0.71212E-02  8112   0.137E-01-0.281E-04
CGA:   5    -0.320089641668E+03   -0.17302E-02   -0.17302E-02  8112   0.473E-02-0.343E-05
CGA:   6    -0.320090186593E+03   -0.54492E-03   -0.54484E-03  8112   0.205E-02-0.363E-05
CGA:   7    -0.320090398022E+03   -0.21143E-03   -0.21135E-03  8112   0.805E-03-0.230E-05
CGA:   8    -0.320090495040E+03   -0.97017E-04   -0.97006E-04  8112   0.321E-03-0.755E-06
CGA:   9    -0.320090539095E+03   -0.44055E-04   -0.44050E-04  8112   0.117E-03 0.794E-06
CGA:  10    -0.320090556604E+03   -0.17509E-04   -0.17497E-04  8112   0.718E-04 0.773E-06
CGA:  11    -0.320090564201E+03   -0.75976E-05   -0.76001E-05  8112   0.347E-04 0.922E-07
  73 F= -.32009056E+03 E0= -.32008612E+03  d E =-.102334E-02  mag=    44.0000
       N       E                     dE             d eps       ncg     rms          ort
SDA:   1    -0.320080604443E+03    0.99522E-02    0.00000E+00  8112   0.417E-01 0.000E+00
CGA:   2    -0.320084616022E+03   -0.40116E-02   -0.40110E-02  8112   0.302E-01-0.681E-05
CGA:   3    -0.320089022276E+03   -0.44063E-02   -0.44064E-02  8112   0.118E-01-0.730E-05
CGA:   4    -0.320090376548E+03   -0.13543E-02   -0.13537E-02  8112   0.494E-02-0.100E-04
CGA:   5    -0.320091001589E+03   -0.62504E-03   -0.62506E-03  8112   0.980E-03 0.146E-05
CGA:   6    -0.320091164097E+03   -0.16251E-03   -0.16267E-03  8112   0.412E-03-0.446E-05
CGA:   7    -0.320091202196E+03   -0.38099E-04   -0.38076E-04  8112   0.183E-03-0.667E-06
CGA:   8    -0.320091224931E+03   -0.22734E-04   -0.22736E-04  8112   0.726E-04 0.250E-06
CGA:   9    -0.320091233708E+03   -0.87776E-05   -0.87779E-05  8112   0.281E-04 0.196E-07
  74 F= -.32009123E+03 E0= -.32008679E+03  d E =-.669507E-03  mag=    44.0000
       N       E                     dE             d eps       ncg     rms          ort
SDA:   1    -0.320078318110E+03    0.12907E-01    0.00000E+00  8112   0.466E-01 0.000E+00
CGA:   2    -0.320083327669E+03   -0.50096E-02   -0.50104E-02  8112   0.433E-01 0.765E-05
CGA:   3    -0.320089550564E+03   -0.62229E-02   -0.62231E-02  8112   0.122E-01-0.107E-04
CGA:   4    -0.320090971776E+03   -0.14212E-02   -0.14209E-02  8112   0.497E-02-0.894E-05
CGA:   5    -0.320091576897E+03   -0.60512E-03   -0.60515E-03  8112   0.102E-02 0.287E-06
CGA:   6    -0.320091739142E+03   -0.16224E-03   -0.16238E-03  8112   0.366E-03-0.449E-05
CGA:   7    -0.320091783165E+03   -0.44023E-04   -0.44015E-04  8112   0.196E-03-0.819E-06
CGA:   8    -0.320091801594E+03   -0.18429E-04   -0.18441E-04  8112   0.711E-04 0.331E-06
CGA:   9    -0.320091811742E+03   -0.10148E-04   -0.10141E-04  8112   0.233E-04 0.521E-06
CGA:  10    -0.320091815407E+03   -0.36646E-05   -0.36637E-05  8112   0.134E-04 0.338E-07
  75 F= -.32009182E+03 E0= -.32008738E+03  d E =-.581698E-03  mag=    44.0000
