       N       E                     dE             d eps       ncg     rms          ort
DAV:   1     0.847332728054E+04    0.84733E+04   -0.38314E+05  7448   0.185E+03
DAV:   2     0.552033640453E+03   -0.79213E+04   -0.73890E+04  7448   0.544E+02
DAV:   3    -0.350376960896E+03   -0.90241E+03   -0.87109E+03  7448   0.206E+02
DAV:   4    -0.380550972769E+03   -0.30174E+02   -0.29816E+02  7448   0.399E+01
DAV:   5    -0.381263359228E+03   -0.71239E+00   -0.70790E+00  7448   0.598E+00
SDA:   6     0.710241059011E+01    0.38837E+03   -0.70790E+00  7448   0.345E+04 0.000E+00
CGA:   7     0.701841008810E+02    0.63082E+02   -0.18992E+03  7448   0.730E+04-0.992E+03
CGA:   8     0.104859099587E+03    0.34675E+02   -0.22818E+03  7448   0.178E+05-0.118E+05
CGA:   9     0.513625390665E+03    0.40877E+03   -0.11392E+04  7448   0.327E+05-0.207E+05
CGA:  10     0.736263750717E+03    0.22264E+03   -0.20551E+04  7448   0.252E+05-0.199E+05
CGA:  11     0.880924396086E+03    0.14466E+03   -0.14751E+04  7448   0.280E+05-0.256E+05
CGA:  12     0.852423318165E+03   -0.28501E+02   -0.15416E+04  7448   0.239E+05-0.234E+05
CGA:  13     0.803379791296E+03   -0.49044E+02   -0.13053E+04  7448   0.296E+05-0.305E+05
CGA:  14     0.815286899372E+03    0.11907E+02   -0.16462E+04  7448   0.168E+05-0.165E+05
CGA:  15     0.384971538037E+03   -0.43032E+03   -0.80444E+03  7448   0.213E+05-0.277E+05
CGA:  16     0.713574712374E+03    0.32860E+03   -0.12603E+04  7448   0.200E+05-0.162E+05
CGA:  17     0.476583958340E+03   -0.23699E+03   -0.98988E+03  7448   0.229E+05-0.264E+05
CGA:  18     0.718671706420E+03    0.24209E+03   -0.12969E+04  7448   0.210E+05-0.182E+05
CGA:  19     0.478864585278E+03   -0.23981E+03   -0.10324E+04  7448   0.221E+05-0.256E+05
CGA:  20     0.569910908765E+03    0.91046E+02   -0.11669E+04  7448   0.211E+05-0.198E+05
CGA:  21     0.333706958389E+03   -0.23620E+03   -0.98387E+03  7448   0.192E+05-0.228E+05
CGA:  22     0.258224725880E+03   -0.75482E+02   -0.91626E+03  7448   0.187E+05-0.200E+05
CGA:  23     0.569629462661E+02   -0.20126E+03   -0.78192E+03  7448   0.851E+04-0.105E+05
CGA:  24    -0.179767541897E+03   -0.23673E+03   -0.29068E+03  7448   0.378E+04-0.589E+04
CGA:  25    -0.221594028746E+03   -0.41826E+02   -0.10616E+03  7448   0.301E+04-0.383E+04
CGA:  26    -0.219854151037E+03    0.17399E+01   -0.76149E+02  7448   0.345E+04-0.303E+04
CGA:  27    -0.179869885978E+03    0.39984E+02   -0.10337E+03  7448   0.363E+04-0.222E+04
CGA:  28    -0.212386274031E+03   -0.32516E+02   -0.83754E+02  7448   0.356E+04-0.299E+04
CGA:  29    -0.209117724386E+03    0.32685E+01   -0.93925E+02  7448   0.417E+04-0.358E+04
CGA:  30    -0.216024980814E+03   -0.69073E+01   -0.10821E+03  7448   0.250E+04-0.208E+04
CGA:  31    -0.256433110101E+03   -0.40408E+02   -0.23324E+02  7448   0.278E+04 0.478E+03
CGA:  32    -0.149971764578E+03    0.10646E+03   -0.91318E+02  7448   0.429E+04-0.163E+04
CGA:  33    -0.240385152321E+03   -0.90413E+02   -0.86518E+02  7448   0.463E+04-0.576E+04
CGA:  34    -0.216667683281E+03    0.23717E+02   -0.15069E+03  7448   0.141E+04-0.986E+03
CGA:  35    -0.241313839444E+03   -0.24646E+02   -0.11827E+02  7448   0.131E+04 0.142E+04
CGA:  36    -0.274262165398E+03   -0.32948E+02   -0.15208E+02  7448   0.339E+03-0.250E+03
CGA:  37    -0.274233340473E+03    0.28825E-01   -0.23465E+01  7448   0.434E+03-0.354E+03
CGA:  38    -0.270728070620E+03    0.35053E+01   -0.83823E+01  7448   0.746E+03-0.466E+03
CGA:  39    -0.276678537993E+03   -0.59505E+01   -0.78817E+01  7448   0.144E+03-0.349E+03
CGA:  40    -0.277851666776E+03   -0.11731E+01   -0.14262E+01  7448   0.228E+02-0.114E+02
CGA:  41    -0.278183566700E+03   -0.33190E+00   -0.30541E+00  7448   0.109E+02 0.149E+01
CGA:  42    -0.280104165060E+03   -0.19206E+01   -0.15958E+01  7448   0.776E+02 0.173E+01
CGA:  43    -0.278809770707E+03    0.12944E+01   -0.17662E+01  7448   0.264E+03-0.195E+03
CGA:  44    -0.281634883453E+03   -0.28251E+01   -0.30581E+01  7448   0.233E+02-0.516E+02
CGA:  45    -0.281955678243E+03   -0.32079E+00   -0.31208E+00  7448   0.873E+01 0.335E+00
CGA:  46    -0.282564552998E+03   -0.60887E+00   -0.59161E+00  7448   0.177E+02 0.970E+00
CGA:  47    -0.283141636975E+03   -0.57708E+00   -0.55906E+00  7448   0.662E+01 0.988E+00
CGA:  48    -0.283325710408E+03   -0.18407E+00   -0.21177E+00  7448   0.532E+01-0.257E+00
CGA:  49    -0.283509303131E+03   -0.18359E+00   -0.19074E+00  7448   0.400E+01 0.565E-01
CGA:  50    -0.283708788973E+03   -0.19949E+00   -0.20091E+00  7448   0.435E+01 0.288E+00
CGA:  51    -0.283931308835E+03   -0.22252E+00   -0.22571E+00  7448   0.425E+01 0.389E+00
CGA:  52    -0.284207653164E+03   -0.27634E+00   -0.26741E+00  7448   0.199E+01 0.890E+00
CGA:  53    -0.284347194607E+03   -0.13954E+00   -0.13695E+00  7448   0.111E+01 0.313E+00
CGA:  54    -0.284451183309E+03   -0.10399E+00   -0.93997E-01  7448   0.308E+00 0.348E+00
CGA:  55    -0.284504188529E+03   -0.53005E-01   -0.48063E-01  7448   0.348E+00 0.684E-01
CGA:  56    -0.284555226522E+03   -0.51038E-01   -0.49991E-01  7448   0.282E+00 0.881E-02
CGA:  57    -0.284585819471E+03   -0.30593E-01   -0.27926E-01  7448   0.128E+00 0.553E-01
CGA:  58    -0.284606438199E+03   -0.20619E-01   -0.20821E-01  7448   0.164E+00-0.317E-02
CGA:  59    -0.284626557446E+03   -0.20119E-01   -0.17516E-01  7448   0.104E+00 0.577E-01
CGA:  60    -0.284647783474E+03   -0.21226E-01    0.41475E-01  7448   0.129E+00 0.177E+00
CGA:  61    -0.284610856322E+03    0.36927E-01   -0.19573E-01  7448   0.613E+01-0.402E+00
CGA:  62    -0.284811072968E+03   -0.20022E+00   -0.18626E+00  7448   0.387E+00 0.319E+00
CGA:  63    -0.284839373481E+03   -0.28301E-01   -0.28745E-01  7448   0.311E+00-0.157E-02
CGA:  64    -0.284923708605E+03   -0.84335E-01   -0.81955E-01  7448   0.667E+00 0.153E-01
CGA:  65    -0.284959363483E+03   -0.35655E-01   -0.34324E-01  7448   0.498E+00-0.722E-02
CGA:  66    -0.284996531915E+03   -0.37168E-01   -0.35417E-01  7448   0.551E+00 0.787E-02
CGA:  67    -0.285020314007E+03   -0.23782E-01   -0.24426E-01  7448   0.337E+00 0.390E-02
CGA:  68    -0.285035675951E+03   -0.15362E-01   -0.15517E-01  7448   0.185E+00 0.352E-02
CGA:  69    -0.285043650457E+03   -0.79745E-02   -0.86997E-02  7448   0.908E-01-0.802E-02
CGA:  70    -0.285048343514E+03   -0.46931E-02   -0.49864E-02  7448   0.535E-01-0.143E-02
CGA:  71    -0.285052052614E+03   -0.37091E-02   -0.37029E-02  7448   0.397E-01-0.150E-05
CGA:  72    -0.285054590417E+03   -0.25378E-02   -0.25314E-02  7448   0.228E-01 0.154E-05
CGA:  73    -0.285056242128E+03   -0.16517E-02   -0.16527E-02  7448   0.215E-01-0.128E-04
CGA:  74    -0.285058048680E+03   -0.18066E-02   -0.18069E-02  7448   0.193E-01-0.714E-05
CGA:  75    -0.285059361520E+03   -0.13128E-02   -0.13064E-02  7448   0.147E-01-0.160E-04
CGA:  76    -0.285060561407E+03   -0.11999E-02   -0.11985E-02  7448   0.145E-01-0.257E-04
CGA:  77    -0.285061565463E+03   -0.10041E-02   -0.10055E-02  7448   0.101E-01 0.155E-04
CGA:  78    -0.285062229809E+03   -0.66435E-03   -0.66398E-03  7448   0.673E-02 0.700E-05
CGA:  79    -0.285062678936E+03   -0.44913E-03   -0.44871E-03  7448   0.486E-02 0.187E-05
CGA:  80    -0.285063046059E+03   -0.36712E-03   -0.36682E-03  7448   0.452E-02-0.536E-05
CGA:  81    -0.285063357402E+03   -0.31134E-03   -0.31119E-03  7448   0.288E-02-0.328E-05
CGA:  82    -0.285063522872E+03   -0.16547E-03   -0.16545E-03  7448   0.176E-02-0.114E-05
CGA:  83    -0.285063672084E+03   -0.14921E-03   -0.14921E-03  7448   0.221E-02 0.727E-06
CGA:  84    -0.285063852803E+03   -0.18072E-03   -0.18076E-03  7448   0.191E-02 0.538E-05
CGA:  85    -0.285063969512E+03   -0.11671E-03   -0.11677E-03  7448   0.107E-02 0.480E-05
CGA:  86    -0.285064038419E+03   -0.68908E-04   -0.68953E-04  7448   0.792E-03 0.321E-05
CGA:  87    -0.285064110130E+03   -0.71710E-04   -0.71697E-04  7448   0.108E-02 0.284E-05
CGA:  88    -0.285064203325E+03   -0.93196E-04   -0.93196E-04  7448   0.959E-03 0.302E-05
CGA:  89    -0.285064259703E+03   -0.56378E-04   -0.56403E-04  7448   0.523E-03 0.405E-06
CGA:  90    -0.285064296167E+03   -0.36464E-04   -0.36435E-04  7448   0.472E-03-0.139E-05
CGA:  91    -0.285064337772E+03   -0.41605E-04   -0.41620E-04  7448   0.600E-03-0.314E-05
SDA:  92    -0.285064380434E+03   -0.42662E-04   -0.42618E-04  7448   0.377E-03-0.364E-05
CGA:  93    -0.285064401252E+03   -0.20819E-04   -0.20805E-04  7448   0.678E-04-0.454E-06
CGA:  94    -0.285064415180E+03   -0.13927E-04   -0.14285E-04  7448   0.102E-03-0.282E-05
CGA:  95    -0.285064426611E+03   -0.11432E-04   -0.11514E-04  7448   0.607E-04-0.279E-05
CGA:  96    -0.285064441557E+03   -0.14946E-04   -0.15643E-04  7448   0.133E-03-0.406E-05
CGA:  97    -0.285064453223E+03   -0.11666E-04   -0.11656E-04  7448   0.278E-04-0.210E-05
CGA:  98    -0.285064458535E+03   -0.53124E-05   -0.52126E-05  7448   0.419E-04 0.107E-05
   1 F= -.28506446E+03 E0= -.28505623E+03  d E =-.285064E+03  mag=    18.0000
       N       E                     dE             d eps       ncg     rms          ort
SDA:   1    -0.284573566442E+03    0.49089E+00    0.00000E+00  7448   0.205E+01 0.000E+00
CGA:   2    -0.284917037019E+03   -0.34347E+00   -0.34349E+00  7448   0.740E+00-0.738E-03
CGA:   3    -0.284971009484E+03   -0.53972E-01   -0.53833E-01  7448   0.325E+00-0.695E-03
CGA:   4    -0.285036401090E+03   -0.65392E-01   -0.65421E-01  7448   0.138E+00-0.336E-03
CGA:   5    -0.285051138133E+03   -0.14737E-01   -0.14735E-01  7448   0.855E-01-0.337E-03
CGA:   6    -0.285061087466E+03   -0.99493E-02   -0.99502E-02  7448   0.303E-01-0.160E-03
CGA:   7    -0.285065139398E+03   -0.40519E-02   -0.40537E-02  7448   0.265E-01-0.746E-04
CGA:   8    -0.285067835603E+03   -0.26962E-02   -0.26966E-02  7448   0.863E-02 0.357E-05
CGA:   9    -0.285069059681E+03   -0.12241E-02   -0.12234E-02  7448   0.725E-02 0.211E-04
CGA:  10    -0.285069810003E+03   -0.75032E-03   -0.75064E-03  7448   0.243E-02 0.276E-04
CGA:  11    -0.285070172381E+03   -0.36238E-03   -0.36213E-03  7448   0.186E-02 0.634E-05
CGA:  12    -0.285070353735E+03   -0.18135E-03   -0.18127E-03  7448   0.536E-03-0.585E-05
CGA:  13    -0.285070433654E+03   -0.79919E-04   -0.80512E-04  7448   0.376E-03-0.160E-04
CGA:  14    -0.285070468617E+03   -0.34963E-04   -0.34762E-04  7448   0.119E-03-0.102E-04
CGA:  15    -0.285070486942E+03   -0.18325E-04   -0.18626E-04  7448   0.893E-04-0.647E-05
CGA:  16    -0.285070493832E+03   -0.68898E-05   -0.68255E-05  7448   0.235E-04-0.185E-05
   2 F= -.28507049E+03 E0= -.28506233E+03  d E =-.603530E-02  mag=    18.0000
       N       E                     dE             d eps       ncg     rms          ort
SDA:   1    -0.285053284439E+03    0.17203E-01    0.00000E+00  7448   0.815E-01 0.000E+00
CGA:   2    -0.285062731368E+03   -0.94469E-02   -0.94488E-02  7448   0.596E-01 0.534E-03
CGA:   3    -0.285067102019E+03   -0.43707E-02   -0.43911E-02  7448   0.957E-02 0.317E-03
CGA:   4    -0.285069194248E+03   -0.20922E-02   -0.20911E-02  7448   0.103E-01 0.106E-04
CGA:   5    -0.285070043703E+03   -0.84945E-03   -0.85014E-03  7448   0.264E-02 0.113E-04
CGA:   6    -0.285070418171E+03   -0.37447E-03   -0.37355E-03  7448   0.179E-02 0.434E-04
CGA:   7    -0.285070601044E+03   -0.18287E-03   -0.18338E-03  7448   0.732E-03 0.244E-04
CGA:   8    -0.285070711279E+03   -0.11023E-03   -0.11016E-03  7448   0.573E-03 0.281E-05
CGA:   9    -0.285070764704E+03   -0.53425E-04   -0.53307E-04  7448   0.192E-03-0.419E-05
CGA:  10    -0.285070801837E+03   -0.37133E-04   -0.37836E-04  7448   0.136E-03-0.902E-05
CGA:  11    -0.285070813047E+03   -0.11210E-04   -0.11140E-04  7448   0.631E-04-0.185E-05
CGA:  12    -0.285070821807E+03   -0.87599E-05   -0.87347E-05  7448   0.280E-04 0.137E-05
   3 F= -.28507082E+03 E0= -.28506266E+03  d E =-.636327E-02  mag=    18.0000
       N       E                     dE             d eps       ncg     rms          ort
SDA:   1    -0.285003890358E+03    0.66923E-01    0.00000E+00  7448   0.185E+00 0.000E+00
CGA:   2    -0.285037048394E+03   -0.33158E-01   -0.33210E-01  7448   0.288E+00-0.751E-03
CGA:   3    -0.285060785654E+03   -0.23737E-01   -0.23745E-01  7448   0.573E-01-0.166E-03
CGA:   4    -0.285068637344E+03   -0.78517E-02   -0.78513E-02  7448   0.280E-01 0.340E-04
CGA:   5    -0.285070768477E+03   -0.21311E-02   -0.21331E-02  7448   0.694E-02 0.128E-04
CGA:   6    -0.285071721392E+03   -0.95292E-03   -0.95298E-03  7448   0.253E-02-0.351E-05
CGA:   7    -0.285071954355E+03   -0.23296E-03   -0.23300E-03  7448   0.131E-02 0.424E-06
CGA:   8    -0.285072118554E+03   -0.16420E-03   -0.16419E-03  7448   0.448E-03 0.174E-05
CGA:   9    -0.285072163767E+03   -0.45213E-04   -0.45222E-04  7448   0.265E-03 0.394E-06
CGA:  10    -0.285072201335E+03   -0.37568E-04   -0.37576E-04  7448   0.106E-03-0.351E-06
CGA:  11    -0.285072212355E+03   -0.11020E-04   -0.11008E-04  7448   0.769E-04-0.776E-06
CGA:  12    -0.285072224727E+03   -0.12372E-04   -0.12458E-04  7448   0.405E-04-0.198E-05
CGA:  13    -0.285072228934E+03   -0.42062E-05   -0.41949E-05  7448   0.296E-04-0.728E-06
   4 F= -.28507223E+03 E0= -.28506412E+03  d E =-.140713E-02  mag=    18.0000
       N       E                     dE             d eps       ncg     rms          ort
SDA:   1    -0.285019652485E+03    0.52572E-01    0.00000E+00  7448   0.163E+00 0.000E+00
CGA:   2    -0.285039785715E+03   -0.20133E-01   -0.20134E-01  7448   0.217E+00-0.633E-03
CGA:   3    -0.285064181276E+03   -0.24396E-01   -0.24395E-01  7448   0.424E-01-0.134E-03
CGA:   4    -0.285070447335E+03   -0.62661E-02   -0.62652E-02  7448   0.203E-01 0.369E-04
CGA:   5    -0.285072018406E+03   -0.15711E-02   -0.15724E-02  7448   0.532E-02 0.111E-04
CGA:   6    -0.285072745659E+03   -0.72725E-03   -0.72730E-03  7448   0.177E-02-0.278E-05
CGA:   7    -0.285072914466E+03   -0.16881E-03   -0.16878E-03  7448   0.110E-02-0.973E-07
CGA:   8    -0.285073043447E+03   -0.12898E-03   -0.12899E-03  7448   0.271E-03 0.133E-05
CGA:   9    -0.285073081944E+03   -0.38497E-04   -0.38490E-04  7448   0.222E-03 0.311E-06
CGA:  10    -0.285073106652E+03   -0.24707E-04   -0.24705E-04  7448   0.631E-04-0.183E-06
CGA:  11    -0.285073117283E+03   -0.10631E-04   -0.10679E-04  7448   0.722E-04-0.992E-06
CGA:  12    -0.285073125096E+03   -0.78140E-05   -0.77975E-05  7448   0.246E-04-0.120E-05
   5 F= -.28507313E+03 E0= -.28506507E+03  d E =-.230329E-02  mag=    18.0000
       N       E                     dE             d eps       ncg     rms          ort
SDA:   1    -0.284862305276E+03    0.21081E+00    0.00000E+00  7448   0.597E+00 0.000E+00
CGA:   2    -0.284954850537E+03   -0.92545E-01   -0.92756E-01  7448   0.900E+00-0.486E-02
CGA:   3    -0.285038528861E+03   -0.83678E-01   -0.83739E-01  7448   0.172E+00-0.575E-04
CGA:   4    -0.285062961297E+03   -0.24432E-01   -0.24433E-01  7448   0.866E-01 0.172E-04
CGA:   5    -0.285069479961E+03   -0.65187E-02   -0.65282E-02  7448   0.209E-01 0.392E-05
CGA:   6    -0.285072423670E+03   -0.29437E-02   -0.29437E-02  7448   0.737E-02-0.123E-05
CGA:   7    -0.285073099117E+03   -0.67545E-03   -0.67545E-03  7448   0.428E-02 0.293E-06
CGA:   8    -0.285073619257E+03   -0.52014E-03   -0.52014E-03  7448   0.117E-02 0.172E-05
CGA:   9    -0.285073765506E+03   -0.14625E-03   -0.14625E-03  7448   0.849E-03 0.932E-06
CGA:  10    -0.285073870905E+03   -0.10540E-03   -0.10540E-03  7448   0.275E-03 0.165E-07
CGA:  11    -0.285073906147E+03   -0.35243E-04   -0.35249E-04  7448   0.264E-03-0.121E-05
CGA:  12    -0.285073941629E+03   -0.35482E-04   -0.35512E-04  7448   0.103E-03-0.262E-05
CGA:  13    -0.285073954951E+03   -0.13321E-04   -0.13329E-04  7448   0.104E-03-0.118E-05
CGA:  14    -0.285073967946E+03   -0.12995E-04   -0.12998E-04  7448   0.363E-04-0.883E-06
CGA:  15    -0.285073972660E+03   -0.47140E-05   -0.47143E-05  7448   0.339E-04-0.428E-07
   6 F= -.28507397E+03 E0= -.28506602E+03  d E =-.315085E-02  mag=    18.0000
       N       E                     dE             d eps       ncg     rms          ort
SDA:   1    -0.285033664913E+03    0.40303E-01    0.00000E+00  7448   0.115E+00 0.000E+00
CGA:   2    -0.285052278422E+03   -0.18614E-01   -0.18635E-01  7448   0.172E+00-0.437E-03
CGA:   3    -0.285067540981E+03   -0.15263E-01   -0.15271E-01  7448   0.371E-01-0.523E-04
CGA:   4    -0.285072961709E+03   -0.54207E-02   -0.54207E-02  7448   0.129E-01 0.544E-05
CGA:   5    -0.285074043634E+03   -0.10819E-02   -0.10824E-02  7448   0.455E-02 0.674E-06
CGA:   6    -0.285074581841E+03   -0.53821E-03   -0.53818E-03  7448   0.146E-02-0.401E-05
CGA:   7    -0.285074732574E+03   -0.15073E-03   -0.15073E-03  7448   0.761E-03-0.147E-06
CGA:   8    -0.285074820766E+03   -0.88192E-04   -0.88197E-04  7448   0.269E-03 0.838E-06
CGA:   9    -0.285074846533E+03   -0.25767E-04   -0.25783E-04  7448   0.147E-03 0.584E-06
CGA:  10    -0.285074867934E+03   -0.21401E-04   -0.21389E-04  7448   0.508E-04 0.480E-06
CGA:  11    -0.285074873792E+03   -0.58577E-05   -0.58568E-05  7448   0.467E-04-0.150E-06
   7 F= -.28507487E+03 E0= -.28506697E+03  d E =-.901132E-03  mag=    18.0000
       N       E                     dE             d eps       ncg     rms          ort
SDA:   1    -0.284707408616E+03    0.36746E+00    0.00000E+00  7448   0.996E+00 0.000E+00
CGA:   2    -0.284890887602E+03   -0.18348E+00   -0.18395E+00  7448   0.151E+01-0.630E-02
CGA:   3    -0.285010911276E+03   -0.12002E+00   -0.12031E+00  7448   0.335E+00-0.705E-03
CGA:   4    -0.285060467519E+03   -0.49556E-01   -0.49559E-01  7448   0.920E-01-0.408E-04
CGA:   5    -0.285069334206E+03   -0.88667E-02   -0.88715E-02  7448   0.414E-01 0.327E-04
CGA:   6    -0.285073597974E+03   -0.42638E-02   -0.42625E-02  7448   0.116E-01-0.265E-04
CGA:   7    -0.285074970546E+03   -0.13726E-02   -0.13726E-02  7448   0.669E-02 0.529E-05
CGA:   8    -0.285075674083E+03   -0.70354E-03   -0.70358E-03  7448   0.195E-02 0.372E-05
CGA:   9    -0.285075895346E+03   -0.22126E-03   -0.22128E-03  7448   0.144E-02 0.228E-05
CGA:  10    -0.285076055867E+03   -0.16052E-03   -0.16054E-03  7448   0.371E-03 0.146E-05
CGA:  11    -0.285076112627E+03   -0.56760E-04   -0.56770E-04  7448   0.399E-03-0.343E-06
CGA:  12    -0.285076157367E+03   -0.44740E-04   -0.44731E-04  7448   0.134E-03-0.943E-06
CGA:  13    -0.285076178808E+03   -0.21441E-04   -0.21449E-04  7448   0.151E-03-0.232E-06
CGA:  14    -0.285076195317E+03   -0.16509E-04   -0.16512E-04  7448   0.504E-04 0.230E-06
CGA:  15    -0.285076201809E+03   -0.64920E-05   -0.64886E-05  7448   0.423E-04 0.573E-06
   8 F= -.28507620E+03 E0= -.28506841E+03  d E =-.222915E-02  mag=    18.0000
       N       E                     dE             d eps       ncg     rms          ort
SDA:   1    -0.285033460568E+03    0.42735E-01    0.00000E+00  7448   0.119E+00 0.000E+00
CGA:   2    -0.285055788385E+03   -0.22328E-01   -0.22354E-01  7448   0.152E+00-0.399E-03
CGA:   3    -0.285069395156E+03   -0.13607E-01   -0.13602E-01  7448   0.381E-01-0.169E-03
CGA:   4    -0.285074912808E+03   -0.55177E-02   -0.55164E-02  7448   0.166E-01 0.667E-04
CGA:   5    -0.285076050811E+03   -0.11380E-02   -0.11404E-02  7448   0.448E-02 0.196E-04
CGA:   6    -0.285076640547E+03   -0.58974E-03   -0.58966E-03  7448   0.154E-02 0.915E-05
CGA:   7    -0.285076808853E+03   -0.16831E-03   -0.16832E-03  7448   0.941E-03 0.925E-06
CGA:   8    -0.285076921825E+03   -0.11297E-03   -0.11297E-03  7448   0.269E-03-0.399E-06
CGA:   9    -0.285076952073E+03   -0.30248E-04   -0.30249E-04  7448   0.206E-03 0.117E-06
CGA:  10    -0.285076977596E+03   -0.25524E-04   -0.25524E-04  7448   0.716E-04-0.122E-06
CGA:  11    -0.285076987372E+03   -0.97760E-05   -0.97961E-05  7448   0.671E-04-0.136E-05
   9 F= -.28507699E+03 E0= -.28506919E+03  d E =-.785563E-03  mag=    18.0000
       N       E                     dE             d eps       ncg     rms          ort
SDA:   1    -0.284687254572E+03    0.38972E+00    0.00000E+00  7448   0.106E+01 0.000E+00
CGA:   2    -0.284892089107E+03   -0.20483E+00   -0.20502E+00  7448   0.134E+01-0.244E-02
CGA:   3    -0.285009970784E+03   -0.11788E+00   -0.11784E+00  7448   0.340E+00-0.203E-03
CGA:   4    -0.285061218661E+03   -0.51248E-01   -0.51241E-01  7448   0.119E+00 0.259E-03
CGA:   5    -0.285070071206E+03   -0.88525E-02   -0.88602E-02  7448   0.414E-01 0.509E-04
CGA:   6    -0.285075085590E+03   -0.50144E-02   -0.50144E-02  7448   0.127E-01 0.149E-04
CGA:   7    -0.285076613815E+03   -0.15282E-02   -0.15283E-02  7448   0.879E-02 0.687E-05
CGA:   8    -0.285077518176E+03   -0.90436E-03   -0.90422E-03  7448   0.244E-02-0.207E-05
CGA:   9    -0.285077799978E+03   -0.28180E-03   -0.28181E-03  7448   0.176E-02 0.753E-06
CGA:  10    -0.285078015919E+03   -0.21594E-03   -0.21594E-03  7448   0.629E-03-0.363E-06
CGA:  11    -0.285078096573E+03   -0.80654E-04   -0.80676E-04  7448   0.570E-03-0.351E-05
CGA:  12    -0.285078167678E+03   -0.71105E-04   -0.71129E-04  7448   0.199E-03-0.709E-05
CGA:  13    -0.285078195750E+03   -0.28072E-04   -0.28174E-04  7448   0.198E-03-0.495E-05
CGA:  14    -0.285078217431E+03   -0.21680E-04   -0.21634E-04  7448   0.566E-04-0.409E-05
CGA:  15    -0.285078225417E+03   -0.79858E-05   -0.80005E-05  7448   0.435E-04-0.688E-06
  10 F= -.28507823E+03 E0= -.28507037E+03  d E =-.202361E-02  mag=    18.0000
       N       E                     dE             d eps       ncg     rms          ort
SDA:   1    -0.285010741317E+03    0.67476E-01    0.00000E+00  7448   0.192E+00 0.000E+00
CGA:   2    -0.285043683177E+03   -0.32942E-01   -0.32919E-01  7448   0.242E+00 0.365E-03
CGA:   3    -0.285066704929E+03   -0.23022E-01   -0.22996E-01  7448   0.639E-01-0.179E-03
CGA:   4    -0.285075468417E+03   -0.87635E-02   -0.87637E-02  7448   0.246E-01-0.147E-04
CGA:   5    -0.285077362362E+03   -0.18939E-02   -0.18931E-02  7448   0.753E-02-0.370E-05
CGA:   6    -0.285078313020E+03   -0.95066E-03   -0.95068E-03  7448   0.245E-02-0.502E-05
CGA:   7    -0.285078563066E+03   -0.25005E-03   -0.25003E-03  7448   0.123E-02 0.903E-07
CGA:   8    -0.285078706618E+03   -0.14355E-03   -0.14356E-03  7448   0.467E-03 0.190E-05
CGA:   9    -0.285078748805E+03   -0.42187E-04   -0.42204E-04  7448   0.227E-03 0.680E-06
CGA:  10    -0.285078782652E+03   -0.33847E-04   -0.33825E-04  7448   0.829E-04 0.723E-06
CGA:  11    -0.285078791201E+03   -0.85492E-05   -0.85498E-05  7448   0.637E-04 0.399E-07
  11 F= -.28507879E+03 E0= -.28507090E+03  d E =-.565785E-03  mag=    18.0000
