       N       E                     dE             d eps       ncg     rms          ort
DAV:   1     0.603378550466E+04    0.60338E+04   -0.27039E+05  8112   0.166E+03
DAV:   2     0.354197088667E+03   -0.56796E+04   -0.51924E+04  8112   0.463E+02
DAV:   3    -0.359197257663E+03   -0.71339E+03   -0.69864E+03  8112   0.183E+02
DAV:   4    -0.381141080198E+03   -0.21944E+02   -0.21790E+02  8112   0.334E+01
DAV:   5    -0.381488865898E+03   -0.34779E+00   -0.34295E+00  8112   0.403E+00
SDA:   6    -0.108971220489E+03    0.27252E+03   -0.34295E+00  8112   0.139E+04 0.000E+00
CGA:   7    -0.235855754892E+03   -0.12688E+03   -0.15103E+03  8112   0.106E+04-0.660E+02
CGA:   8    -0.267883951722E+03   -0.32028E+02   -0.28034E+02  8112   0.149E+03 0.148E+03
CGA:   9    -0.279537850380E+03   -0.11654E+02   -0.17339E+02  8112   0.253E+03-0.154E+02
CGA:  10    -0.288053397223E+03   -0.85155E+01   -0.11145E+02  8112   0.262E+03-0.565E+02
CGA:  11    -0.290645609666E+03   -0.25922E+01   -0.90441E+01  8112   0.135E+03-0.902E+02
CGA:  12    -0.291752693910E+03   -0.11071E+01   -0.44928E+01  8112   0.217E+03-0.666E+02
CGA:  13    -0.292060279448E+03   -0.30759E+00   -0.45629E+01  8112   0.202E+03-0.686E+02
CGA:  14    -0.294313799249E+03   -0.22535E+01   -0.56933E+01  8112   0.171E+03-0.106E+03
CGA:  15    -0.296099751197E+03   -0.17860E+01   -0.95511E+01  8112   0.188E+03-0.525E+02
CGA:  16    -0.303412308115E+03   -0.73126E+01   -0.77165E+01  8112   0.108E+03-0.308E+02
CGA:  17    -0.307035912128E+03   -0.36236E+01   -0.44725E+01  8112   0.453E+02-0.349E+01
CGA:  18    -0.306158457007E+03    0.87746E+00   -0.15511E+01  8112   0.207E+03-0.595E+02
CGA:  19    -0.302876363301E+03    0.32821E+01   -0.10712E+02  8112   0.146E+03-0.643E+02
CGA:  20    -0.308502235895E+03   -0.56259E+01   -0.26360E+01  8112   0.332E+02 0.674E+02
CGA:  21    -0.307332292303E+03    0.11699E+01   -0.11182E+01  8112   0.162E+03-0.109E+03
CGA:  22    -0.303976244681E+03    0.33560E+01   -0.68726E+01  8112   0.153E+03-0.761E+02
CGA:  23    -0.309309402046E+03   -0.53332E+01   -0.23233E+01  8112   0.280E+01-0.930E-01
CGA:  24    -0.309397831090E+03   -0.88429E-01   -0.84557E-01  8112   0.281E+01 0.374E-01
CGA:  25    -0.309684040460E+03   -0.28621E+00   -0.29148E+00  8112   0.624E+01 0.626E+00
CGA:  26    -0.309934798692E+03   -0.25076E+00   -0.19215E+00  8112   0.126E+01 0.241E+01
CGA:  27    -0.309993689040E+03   -0.58890E-01   -0.53323E-01  8112   0.663E+00 0.130E+00
CGA:  28    -0.310067600327E+03   -0.73911E-01   -0.73607E-01  8112   0.110E+01 0.751E-01
CGA:  29    -0.310118146493E+03   -0.50546E-01   -0.39074E-01  8112   0.443E+00 0.375E+00
CGA:  30    -0.310150860589E+03   -0.32714E-01   -0.31897E-01  8112   0.456E+00 0.104E-01
CGA:  31    -0.310173891007E+03   -0.23030E-01   -0.19323E-01  8112   0.350E+00 0.731E-01
CGA:  32    -0.310190422765E+03   -0.16532E-01   -0.17643E-01  8112   0.327E+00-0.328E-02
CGA:  33    -0.310208288840E+03   -0.17866E-01   -0.17169E-01  8112   0.285E+00 0.146E-01
CGA:  34    -0.310221084374E+03   -0.12796E-01   -0.12059E-01  8112   0.146E+00 0.189E-01
CGA:  35    -0.310227480659E+03   -0.63963E-02   -0.63754E-02  8112   0.112E+00 0.149E-02
CGA:  36    -0.310234828677E+03   -0.73480E-02   -0.75422E-02  8112   0.132E+00 0.390E-02
CGA:  37    -0.310241871932E+03   -0.70433E-02   -0.74694E-02  8112   0.606E-01 0.252E-02
CGA:  38    -0.310245974203E+03   -0.41023E-02   -0.41689E-02  8112   0.395E-01 0.178E-02
CGA:  39    -0.310248858053E+03   -0.28838E-02   -0.29074E-02  8112   0.183E-01 0.124E-02
CGA:  40    -0.310250613114E+03   -0.17551E-02   -0.17383E-02  8112   0.170E-01 0.801E-03
CGA:  41    -0.310252510419E+03   -0.18973E-02   -0.18511E-02  8112   0.113E-01 0.132E-02
CGA:  42    -0.310254051082E+03   -0.15407E-02   -0.14831E-02  8112   0.921E-02 0.109E-02
CGA:  43    -0.310255347555E+03   -0.12965E-02   -0.13072E-02  8112   0.536E-02-0.219E-03
CGA:  44    -0.310255999060E+03   -0.65150E-03   -0.64855E-03  8112   0.523E-02 0.588E-04
CGA:  45    -0.310256688003E+03   -0.68894E-03   -0.69506E-03  8112   0.171E-02-0.132E-03
CGA:  46    -0.310256926671E+03   -0.23867E-03   -0.24290E-03  8112   0.153E-02-0.718E-04
CGA:  47    -0.310257101942E+03   -0.17527E-03   -0.17615E-03  8112   0.103E-02-0.299E-04
CGA:  48    -0.310257227481E+03   -0.12554E-03   -0.12606E-03  8112   0.509E-03-0.165E-04
CGA:  49    -0.310257292033E+03   -0.64552E-04   -0.64778E-04  8112   0.433E-03-0.538E-05
CGA:  50    -0.310257351683E+03   -0.59650E-04   -0.59490E-04  8112   0.301E-03 0.406E-05
CGA:  51    -0.310257385960E+03   -0.34277E-04   -0.34238E-04  8112   0.225E-03 0.461E-05
SDA:  52    -0.310257416600E+03   -0.30640E-04   -0.30401E-04  8112   0.134E-03 0.782E-05
CGA:  53    -0.310257431586E+03   -0.14986E-04   -0.14981E-04  8112   0.827E-04 0.761E-06
CGA:  54    -0.310257449900E+03   -0.18313E-04   -0.17933E-04  8112   0.147E-03 0.326E-05
CGA:  55    -0.310257471177E+03   -0.21277E-04   -0.21112E-04  8112   0.632E-04 0.558E-05
CGA:  56    -0.310257479027E+03   -0.78496E-05   -0.78259E-05  8112   0.199E-04 0.249E-05
   1 F= -.31025748E+03 E0= -.31025257E+03  d E =-.310257E+03  mag=    44.0000
       N       E                     dE             d eps       ncg     rms          ort
SDA:   1    -0.310423870036E+03   -0.16640E+00    0.00000E+00  8112   0.233E-01 0.000E+00
CGA:   2    -0.310428833870E+03   -0.49638E-02   -0.49654E-02  8112   0.159E-01-0.153E-04
CGA:   3    -0.310430322892E+03   -0.14890E-02   -0.14899E-02  8112   0.540E-02 0.977E-05
CGA:   4    -0.310431277128E+03   -0.95424E-03   -0.95469E-03  8112   0.239E-02-0.662E-05
CGA:   5    -0.310431487121E+03   -0.20999E-03   -0.20994E-03  8112   0.760E-03-0.328E-05
CGA:   6    -0.310431577853E+03   -0.90732E-04   -0.90744E-04  8112   0.489E-03-0.394E-05
CGA:   7    -0.310431628752E+03   -0.50900E-04   -0.50868E-04  8112   0.113E-03-0.267E-05
CGA:   8    -0.310431647471E+03   -0.18719E-04   -0.18692E-04  8112   0.794E-04 0.556E-06
CGA:   9    -0.310431658165E+03   -0.10694E-04   -0.10677E-04  8112   0.466E-04 0.116E-05
CGA:  10    -0.310431665093E+03   -0.69273E-05   -0.68867E-05  8112   0.240E-04 0.155E-05
   2 F= -.31043167E+03 E0= -.31042674E+03  d E =-.174186E+00  mag=    44.0000
       N       E                     dE             d eps       ncg     rms          ort
SDA:   1    -0.308798511491E+03    0.16331E+01    0.00000E+00  8112   0.135E+02 0.000E+00
CGA:   2    -0.312445817121E+03   -0.36473E+01   -0.36633E+01  8112   0.433E+01-0.112E+00
CGA:   3    -0.313180621740E+03   -0.73480E+00   -0.73896E+00  8112   0.358E+01-0.783E-01
CGA:   4    -0.313498848870E+03   -0.31823E+00   -0.31924E+00  8112   0.555E+00 0.127E-02
CGA:   5    -0.313609260000E+03   -0.11041E+00   -0.11063E+00  8112   0.247E+00-0.278E-02
CGA:   6    -0.313636398391E+03   -0.27138E-01   -0.27223E-01  8112   0.137E+00 0.101E-02
CGA:   7    -0.313650065213E+03   -0.13667E-01   -0.13667E-01  8112   0.698E-01-0.483E-04
CGA:   8    -0.313659680578E+03   -0.96154E-02   -0.96142E-02  8112   0.455E-01 0.830E-04
CGA:   9    -0.313664914374E+03   -0.52338E-02   -0.52259E-02  8112   0.215E-01-0.160E-03
CGA:  10    -0.313669153777E+03   -0.42394E-02   -0.42322E-02  8112   0.957E-02 0.945E-04
CGA:  11    -0.313670842674E+03   -0.16889E-02   -0.16890E-02  8112   0.872E-02 0.157E-05
CGA:  12    -0.313671636885E+03   -0.79421E-03   -0.79563E-03  8112   0.397E-02 0.743E-05
CGA:  13    -0.313672146099E+03   -0.50921E-03   -0.50925E-03  8112   0.215E-02 0.810E-05
CGA:  14    -0.313672448139E+03   -0.30204E-03   -0.30199E-03  8112   0.112E-02 0.684E-05
CGA:  15    -0.313672603676E+03   -0.15554E-03   -0.15552E-03  8112   0.584E-03 0.473E-05
CGA:  16    -0.313672686341E+03   -0.82665E-04   -0.82629E-04  8112   0.321E-03 0.470E-05
CGA:  17    -0.313672728193E+03   -0.41852E-04   -0.41861E-04  8112   0.266E-03 0.196E-05
CGA:  18    -0.313672754539E+03   -0.26346E-04   -0.26356E-04  8112   0.876E-04 0.211E-06
CGA:  19    -0.313672770380E+03   -0.15841E-04   -0.15879E-04  8112   0.670E-04-0.775E-06
CGA:  20    -0.313672778815E+03   -0.84355E-05   -0.84277E-05  8112   0.295E-04-0.105E-05
   3 F= -.31367278E+03 E0= -.31366733E+03  d E =-.324111E+01  mag=    44.0000
       N       E                     dE             d eps       ncg     rms          ort
SDA:   1    -0.305420048948E+03    0.82527E+01    0.00000E+00  8112   0.287E+02 0.000E+00
CGA:   2    -0.313104776494E+03   -0.76847E+01   -0.76867E+01  8112   0.154E+02 0.936E-01
CGA:   3    -0.314293829241E+03   -0.11891E+01   -0.12078E+01  8112   0.847E+01-0.393E+00
CGA:   4    -0.315424980279E+03   -0.11312E+01   -0.11311E+01  8112   0.259E+01-0.127E+00
CGA:   5    -0.315656841800E+03   -0.23186E+00   -0.23147E+00  8112   0.104E+01-0.846E-02
CGA:   6    -0.315805896612E+03   -0.14905E+00   -0.14908E+00  8112   0.337E+00-0.202E-02
CGA:   7    -0.315858418000E+03   -0.52521E-01   -0.52445E-01  8112   0.158E+00 0.233E-02
CGA:   8    -0.315878004895E+03   -0.19587E-01   -0.19580E-01  8112   0.128E+00-0.214E-03
CGA:   9    -0.315891841248E+03   -0.13836E-01   -0.13888E-01  8112   0.671E-01 0.535E-03
CGA:  10    -0.315899121748E+03   -0.72805E-02   -0.72770E-02  8112   0.411E-01-0.130E-05
CGA:  11    -0.315905515491E+03   -0.63937E-02   -0.63885E-02  8112   0.168E-01 0.161E-03
CGA:  12    -0.315908266914E+03   -0.27514E-02   -0.27504E-02  8112   0.131E-01 0.327E-04
CGA:  13    -0.315909834192E+03   -0.15673E-02   -0.15684E-02  8112   0.791E-02 0.328E-04
CGA:  14    -0.315910565418E+03   -0.73123E-03   -0.73175E-03  8112   0.384E-02 0.754E-05
CGA:  15    -0.315911177128E+03   -0.61171E-03   -0.61128E-03  8112   0.226E-02 0.144E-04
CGA:  16    -0.315911465622E+03   -0.28849E-03   -0.28854E-03  8112   0.110E-02 0.755E-05
CGA:  17    -0.315911635897E+03   -0.17028E-03   -0.17012E-03  8112   0.805E-03 0.679E-05
CGA:  18    -0.315911723815E+03   -0.87918E-04   -0.87979E-04  8112   0.556E-03 0.239E-05
CGA:  19    -0.315911787854E+03   -0.64039E-04   -0.64047E-04  8112   0.240E-03 0.123E-06
CGA:  20    -0.315911827162E+03   -0.39309E-04   -0.39348E-04  8112   0.159E-03-0.126E-05
CGA:  21    -0.315911849401E+03   -0.22238E-04   -0.22254E-04  8112   0.903E-04-0.234E-05
CGA:  22    -0.315911858807E+03   -0.94062E-05   -0.93758E-05  8112   0.589E-04-0.105E-05
   4 F= -.31591186E+03 E0= -.31590600E+03  d E =-.223908E+01  mag=    44.0000
       N       E                     dE             d eps       ncg     rms          ort
SDA:   1    -0.307873320259E+03    0.80385E+01    0.00000E+00  8112   0.234E+02 0.000E+00
CGA:   2    -0.314214250458E+03   -0.63409E+01   -0.63497E+01  8112   0.169E+02 0.479E-01
CGA:   3    -0.315478762388E+03   -0.12645E+01   -0.12981E+01  8112   0.772E+01-0.716E+00
CGA:   4    -0.316428702910E+03   -0.94994E+00   -0.94805E+00  8112   0.220E+01-0.103E+00
CGA:   5    -0.316670475277E+03   -0.24177E+00   -0.24265E+00  8112   0.919E+00 0.793E-02
CGA:   6    -0.316763386913E+03   -0.92912E-01   -0.92219E-01  8112   0.350E+00-0.363E-02
CGA:   7    -0.316807941226E+03   -0.44554E-01   -0.44566E-01  8112   0.189E+00 0.112E-02
CGA:   8    -0.316824255357E+03   -0.16314E-01   -0.16327E-01  8112   0.865E-01-0.257E-04
CGA:   9    -0.316836666210E+03   -0.12411E-01   -0.12389E-01  8112   0.414E-01 0.102E-02
CGA:  10    -0.316842413081E+03   -0.57469E-02   -0.57466E-02  8112   0.253E-01 0.343E-04
CGA:  11    -0.316845630327E+03   -0.32172E-02   -0.32183E-02  8112   0.201E-01 0.128E-03
CGA:  12    -0.316847610460E+03   -0.19801E-02   -0.19811E-02  8112   0.775E-02 0.126E-04
CGA:  13    -0.316849134691E+03   -0.15242E-02   -0.15224E-02  8112   0.530E-02 0.247E-04
CGA:  14    -0.316849687966E+03   -0.55327E-03   -0.55357E-03  8112   0.319E-02 0.840E-05
CGA:  15    -0.316850101468E+03   -0.41350E-03   -0.41354E-03  8112   0.192E-02 0.138E-04
CGA:  16    -0.316850328391E+03   -0.22692E-03   -0.22701E-03  8112   0.101E-02 0.731E-05
CGA:  17    -0.316850463728E+03   -0.13534E-03   -0.13532E-03  8112   0.577E-03 0.518E-05
CGA:  18    -0.316850546409E+03   -0.82681E-04   -0.82630E-04  8112   0.428E-03 0.421E-05
CGA:  19    -0.316850592314E+03   -0.45906E-04   -0.45939E-04  8112   0.246E-03 0.123E-05
CGA:  20    -0.316850627601E+03   -0.35287E-04   -0.35292E-04  8112   0.135E-03-0.336E-06
CGA:  21    -0.316850650093E+03   -0.22492E-04   -0.22537E-04  8112   0.100E-03-0.125E-05
CGA:  22    -0.316850659349E+03   -0.92566E-05   -0.92265E-05  8112   0.530E-04-0.770E-06
   5 F= -.31685066E+03 E0= -.31684477E+03  d E =-.938801E+00  mag=    44.0000
       N       E                     dE             d eps       ncg     rms          ort
SDA:   1    -0.300870398927E+03    0.15980E+02    0.00000E+00  8112   0.448E+02 0.000E+00
CGA:   2    -0.311961134859E+03   -0.11091E+02   -0.10994E+02  8112   0.318E+02 0.122E+01
CGA:   3    -0.315129390103E+03   -0.31683E+01   -0.28877E+01  8112   0.142E+02-0.104E+01
CGA:   4    -0.316757302276E+03   -0.16279E+01   -0.16057E+01  8112   0.460E+01-0.366E+00
CGA:   5    -0.317289590100E+03   -0.53229E+00   -0.53031E+00  8112   0.157E+01-0.411E-01
CGA:   6    -0.317454844929E+03   -0.16525E+00   -0.16710E+00  8112   0.619E+00 0.194E-01
CGA:   7    -0.317532862927E+03   -0.78018E-01   -0.77905E-01  8112   0.312E+00-0.578E-02
CGA:   8    -0.317564220330E+03   -0.31357E-01   -0.31805E-01  8112   0.134E+00 0.386E-02
CGA:   9    -0.317579978638E+03   -0.15758E-01   -0.15775E-01  8112   0.945E-01 0.499E-03
CGA:  10    -0.317588971788E+03   -0.89932E-02   -0.90475E-02  8112   0.389E-01 0.280E-03
CGA:  11    -0.317594086225E+03   -0.51144E-02   -0.51143E-02  8112   0.254E-01 0.382E-04
CGA:  12    -0.317597661178E+03   -0.35750E-02   -0.35718E-02  8112   0.999E-02 0.154E-03
CGA:  13    -0.317599629794E+03   -0.19686E-02   -0.19666E-02  8112   0.564E-02 0.269E-04
CGA:  14    -0.317600482398E+03   -0.85260E-03   -0.85158E-03  8112   0.364E-02 0.393E-04
CGA:  15    -0.317600881534E+03   -0.39914E-03   -0.39964E-03  8112   0.207E-02 0.136E-04
CGA:  16    -0.317601107877E+03   -0.22634E-03   -0.22658E-03  8112   0.116E-02 0.785E-05
CGA:  17    -0.317601267427E+03   -0.15955E-03   -0.15951E-03  8112   0.482E-03 0.644E-05
CGA:  18    -0.317601342236E+03   -0.74809E-04   -0.74722E-04  8112   0.327E-03 0.359E-05
CGA:  19    -0.317601397789E+03   -0.55552E-04   -0.55501E-04  8112   0.187E-03 0.140E-05
CGA:  20    -0.317601422251E+03   -0.24463E-04   -0.24464E-04  8112   0.157E-03 0.237E-06
CGA:  21    -0.317601442471E+03   -0.20219E-04   -0.20219E-04  8112   0.986E-04-0.676E-07
CGA:  22    -0.317601454537E+03   -0.12066E-04   -0.12058E-04  8112   0.602E-04-0.707E-06
CGA:  23    -0.317601463282E+03   -0.87454E-05   -0.87551E-05  8112   0.283E-04-0.723E-06
   6 F= -.31760146E+03 E0= -.31759567E+03  d E =-.750804E+00  mag=    44.0000
       N       E                     dE             d eps       ncg     rms          ort
SDA:   1    -0.284912043358E+03    0.32689E+02    0.00000E+00  8112   0.941E+02 0.000E+00
CGA:   2    -0.306292574574E+03   -0.21381E+02   -0.20897E+02  8112   0.670E+02 0.425E+01
CGA:   3    -0.313145761875E+03   -0.68532E+01   -0.63625E+01  8112   0.290E+02-0.380E+01
CGA:   4    -0.316399750672E+03   -0.32540E+01   -0.29005E+01  8112   0.943E+01-0.115E+01
CGA:   5    -0.317519313757E+03   -0.11196E+01   -0.11163E+01  8112   0.395E+01-0.106E+00
CGA:   6    -0.317882610775E+03   -0.36330E+00   -0.36392E+00  8112   0.123E+01-0.214E-01
CGA:   7    -0.318032314061E+03   -0.14970E+00   -0.15086E+00  8112   0.121E+01 0.475E-01
CGA:   8    -0.318099781861E+03   -0.67468E-01   -0.70943E-01  8112   0.397E+00-0.473E-01
CGA:   9    -0.318143335261E+03   -0.43553E-01   -0.44129E-01  8112   0.160E+00 0.167E-01
CGA:  10    -0.318168460057E+03   -0.25125E-01   -0.25013E-01  8112   0.844E-01 0.337E-02
CGA:  11    -0.318178333698E+03   -0.98736E-02   -0.99710E-02  8112   0.711E-01 0.270E-02
CGA:  12    -0.318184881958E+03   -0.65483E-02   -0.66201E-02  8112   0.301E-01 0.146E-03
CGA:  13    -0.318189690896E+03   -0.48089E-02   -0.47853E-02  8112   0.158E-01 0.523E-03
CGA:  14    -0.318191709214E+03   -0.20183E-02   -0.20187E-02  8112   0.104E-01 0.800E-04
CGA:  15    -0.318192908974E+03   -0.11998E-02   -0.12020E-02  8112   0.542E-02 0.699E-04
CGA:  16    -0.318193506502E+03   -0.59753E-03   -0.59869E-03  8112   0.246E-02 0.283E-04
CGA:  17    -0.318193829554E+03   -0.32305E-03   -0.32298E-03  8112   0.133E-02 0.157E-04
CGA:  18    -0.318194011300E+03   -0.18175E-03   -0.18165E-03  8112   0.586E-03 0.892E-05
CGA:  19    -0.318194085518E+03   -0.74218E-04   -0.74224E-04  8112   0.471E-03 0.259E-05
CGA:  20    -0.318194142734E+03   -0.57216E-04   -0.57230E-04  8112   0.239E-03 0.180E-05
CGA:  21    -0.318194182164E+03   -0.39431E-04   -0.39412E-04  8112   0.131E-03 0.410E-06
CGA:  22    -0.318194203252E+03   -0.21087E-04   -0.21076E-04  8112   0.121E-03 0.302E-06
CGA:  23    -0.318194217426E+03   -0.14174E-04   -0.14172E-04  8112   0.698E-04-0.158E-06
CGA:  24    -0.318194226726E+03   -0.93009E-05   -0.93021E-05  8112   0.377E-04-0.392E-06
   7 F= -.31819423E+03 E0= -.31818848E+03  d E =-.592763E+00  mag=    44.0000
       N       E                     dE             d eps       ncg     rms          ort
SDA:   1    -0.287539941209E+03    0.30654E+02    0.00000E+00  8112   0.845E+02 0.000E+00
CGA:   2    -0.307734432463E+03   -0.20194E+02   -0.20123E+02  8112   0.547E+02 0.127E+01
CGA:   3    -0.313706750391E+03   -0.59723E+01   -0.59566E+01  8112   0.312E+02-0.101E+01
CGA:   4    -0.316622756751E+03   -0.29160E+01   -0.25598E+01  8112   0.868E+01 0.188E+01
CGA:   5    -0.317715669545E+03   -0.10929E+01   -0.10872E+01  8112   0.412E+01-0.148E+00
CGA:   6    -0.318045203203E+03   -0.32953E+00   -0.33878E+00  8112   0.270E+01-0.214E-01
CGA:   7    -0.318206912927E+03   -0.16171E+00   -0.16281E+00  8112   0.870E+00-0.210E-01
CGA:   8    -0.318309359413E+03   -0.10245E+00   -0.10254E+00  8112   0.394E+00 0.605E-02
CGA:   9    -0.318349555580E+03   -0.40196E-01   -0.40398E-01  8112   0.232E+00 0.256E-02
CGA:  10    -0.318368226861E+03   -0.18671E-01   -0.18840E-01  8112   0.136E+00-0.130E-03
CGA:  11    -0.318382019568E+03   -0.13793E-01   -0.13881E-01  8112   0.544E-01 0.139E-02
CGA:  12    -0.318389902753E+03   -0.78832E-02   -0.78684E-02  8112   0.363E-01 0.449E-03
CGA:  13    -0.318393244731E+03   -0.33420E-02   -0.33543E-02  8112   0.267E-01 0.859E-04
CGA:  14    -0.318396220328E+03   -0.29756E-02   -0.29791E-02  8112   0.974E-02 0.166E-03
CGA:  15    -0.318397705096E+03   -0.14848E-02   -0.14827E-02  8112   0.718E-02 0.519E-04
CGA:  16    -0.318398422097E+03   -0.71700E-03   -0.71821E-03  8112   0.473E-02 0.218E-04
CGA:  17    -0.318398876196E+03   -0.45410E-03   -0.45489E-03  8112   0.168E-02 0.129E-04
CGA:  18    -0.318399114286E+03   -0.23809E-03   -0.23798E-03  8112   0.105E-02 0.552E-05
CGA:  19    -0.318399234881E+03   -0.12060E-03   -0.12062E-03  8112   0.576E-03 0.371E-05
CGA:  20    -0.318399287247E+03   -0.52366E-04   -0.52423E-04  8112   0.316E-03 0.114E-05
CGA:  21    -0.318399328520E+03   -0.41273E-04   -0.41262E-04  8112   0.156E-03 0.887E-06
CGA:  22    -0.318399356219E+03   -0.27700E-04   -0.27649E-04  8112   0.106E-03 0.852E-06
CGA:  23    -0.318399367011E+03   -0.10791E-04   -0.10798E-04  8112   0.830E-04 0.251E-06
CGA:  24    -0.318399377978E+03   -0.10968E-04   -0.10967E-04  8112   0.492E-04 0.541E-07
CGA:  25    -0.318399385072E+03   -0.70933E-05   -0.71010E-05  8112   0.245E-04-0.358E-06
   8 F= -.31839939E+03 E0= -.31839352E+03  d E =-.205158E+00  mag=    44.0000
       N       E                     dE             d eps       ncg     rms          ort
SDA:   1    -0.261051597061E+03    0.57348E+02    0.00000E+00  8112   0.163E+03 0.000E+00
CGA:   2    -0.297413467102E+03   -0.36362E+02   -0.35575E+02  8112   0.125E+03 0.810E+01
CGA:   3    -0.309787546273E+03   -0.12374E+02   -0.12638E+02  8112   0.479E+02-0.251E+01
CGA:   4    -0.314980744565E+03   -0.51932E+01   -0.48154E+01  8112   0.255E+02-0.468E+01
CGA:   5    -0.317086288706E+03   -0.21055E+01   -0.19634E+01  8112   0.767E+01-0.511E+00
CGA:   6    -0.317867552631E+03   -0.78126E+00   -0.78314E+00  8112   0.329E+01 0.846E-01
CGA:   7    -0.318136419971E+03   -0.26887E+00   -0.27933E+00  8112   0.225E+01 0.585E-01
CGA:   8    -0.318287904805E+03   -0.15148E+00   -0.16121E+00  8112   0.105E+01-0.449E-01
CGA:   9    -0.318380748116E+03   -0.92843E-01   -0.93683E-01  8112   0.381E+00 0.879E-02
CGA:  10    -0.318436756995E+03   -0.56009E-01   -0.55269E-01  8112   0.161E+00 0.187E-01
CGA:  11    -0.318458709897E+03   -0.21953E-01   -0.21966E-01  8112   0.114E+00-0.582E-03
CGA:  12    -0.318472316098E+03   -0.13606E-01   -0.13599E-01  8112   0.729E-01 0.390E-02
CGA:  13    -0.318479067623E+03   -0.67515E-02   -0.67755E-02  8112   0.325E-01 0.186E-03
CGA:  14    -0.318484337289E+03   -0.52697E-02   -0.52120E-02  8112   0.171E-01 0.105E-02
CGA:  15    -0.318486755203E+03   -0.24179E-02   -0.24164E-02  8112   0.107E-01 0.662E-04
CGA:  16    -0.318487802696E+03   -0.10475E-02   -0.10490E-02  8112   0.533E-02 0.294E-04
CGA:  17    -0.318488461199E+03   -0.65850E-03   -0.65837E-03  8112   0.255E-02 0.288E-04
CGA:  18    -0.318488769094E+03   -0.30790E-03   -0.30789E-03  8112   0.108E-02 0.163E-04
CGA:  19    -0.318488917060E+03   -0.14797E-03   -0.14784E-03  8112   0.546E-03 0.711E-05
CGA:  20    -0.318488977854E+03   -0.60794E-04   -0.60820E-04  8112   0.352E-03 0.201E-05
CGA:  21    -0.318489020116E+03   -0.42262E-04   -0.42263E-04  8112   0.167E-03 0.831E-06
CGA:  22    -0.318489044107E+03   -0.23991E-04   -0.23985E-04  8112   0.981E-04 0.197E-06
CGA:  23    -0.318489059409E+03   -0.15302E-04   -0.15289E-04  8112   0.636E-04 0.362E-06
CGA:  24    -0.318489067006E+03   -0.75966E-05   -0.75977E-05  8112   0.490E-04 0.233E-06
   9 F= -.31848907E+03 E0= -.31848331E+03  d E =-.896819E-01  mag=    44.0000
       N       E                     dE             d eps       ncg     rms          ort
SDA:   1    -0.310515603124E+03    0.79735E+01    0.00000E+00  8112   0.224E+02 0.000E+00
CGA:   2    -0.315853513616E+03   -0.53379E+01   -0.53309E+01  8112   0.145E+02 0.539E-01
CGA:   3    -0.317627708860E+03   -0.17742E+01   -0.17626E+01  8112   0.669E+01-0.651E+00
CGA:   4    -0.318359225236E+03   -0.73152E+00   -0.73297E+00  8112   0.191E+01 0.470E-01
CGA:   5    -0.318571125145E+03   -0.21190E+00   -0.21168E+00  8112   0.955E+00-0.420E-02
CGA:   6    -0.318651011930E+03   -0.79887E-01   -0.79852E-01  8112   0.358E+00-0.239E-02
CGA:   7    -0.318691151404E+03   -0.40139E-01   -0.40189E-01  8112   0.117E+00 0.174E-02
CGA:   8    -0.318706166707E+03   -0.15015E-01   -0.15014E-01  8112   0.535E-01 0.164E-03
CGA:   9    -0.318713425352E+03   -0.72586E-02   -0.72490E-02  8112   0.213E-01 0.507E-03
CGA:  10    -0.318716039114E+03   -0.26138E-02   -0.26144E-02  8112   0.166E-01 0.989E-04
CGA:  11    -0.318717674177E+03   -0.16351E-02   -0.16368E-02  8112   0.661E-02 0.304E-04
CGA:  12    -0.318718674602E+03   -0.10004E-02   -0.99844E-03  8112   0.366E-02 0.530E-04
CGA:  13    -0.318719186102E+03   -0.51150E-03   -0.51111E-03  8112   0.225E-02 0.190E-04
CGA:  14    -0.318719457413E+03   -0.27131E-03   -0.27135E-03  8112   0.137E-02 0.561E-05
CGA:  15    -0.318719601952E+03   -0.14454E-03   -0.14466E-03  8112   0.725E-03 0.443E-05
CGA:  16    -0.318719697102E+03   -0.95150E-04   -0.95112E-04  8112   0.242E-03 0.547E-05
CGA:  17    -0.318719735576E+03   -0.38474E-04   -0.38348E-04  8112   0.160E-03 0.375E-05
CGA:  18    -0.318719749789E+03   -0.14213E-04   -0.14265E-04  8112   0.706E-04 0.128E-05
CGA:  19    -0.318719759353E+03   -0.95640E-05   -0.95588E-05  8112   0.317E-04 0.501E-06
  10 F= -.31871976E+03 E0= -.31871404E+03  d E =-.230692E+00  mag=    44.0000
       N       E                     dE             d eps       ncg     rms          ort
SDA:   1    -0.286045899585E+03    0.32674E+02    0.00000E+00  8112   0.877E+02 0.000E+00
CGA:   2    -0.307974058322E+03   -0.21928E+02   -0.21842E+02  8112   0.593E+02 0.767E+00
CGA:   3    -0.314535086445E+03   -0.65610E+01   -0.65217E+01  8112   0.226E+02 0.517E+00
CGA:   4    -0.317453309314E+03   -0.29182E+01   -0.29137E+01  8112   0.735E+01-0.676E+00
CGA:   5    -0.318189342328E+03   -0.73603E+00   -0.72222E+00  8112   0.324E+01-0.650E-01
CGA:   6    -0.318519894846E+03   -0.33055E+00   -0.32843E+00  8112   0.144E+01-0.213E-01
CGA:   7    -0.318642408328E+03   -0.12251E+00   -0.12327E+00  8112   0.557E+00-0.419E-02
CGA:   8    -0.318708909635E+03   -0.66501E-01   -0.66542E-01  8112   0.214E+00 0.343E-02
CGA:   9    -0.318738077528E+03   -0.29168E-01   -0.29145E-01  8112   0.128E+00 0.136E-02
CGA:  10    -0.318750343240E+03   -0.12266E-01   -0.12306E-01  8112   0.634E-01 0.273E-03
CGA:  11    -0.318758315031E+03   -0.79718E-02   -0.79701E-02  8112   0.331E-01 0.856E-03
CGA:  12    -0.318762731584E+03   -0.44166E-02   -0.44127E-02  8112   0.194E-01 0.317E-03
CGA:  13    -0.318765037985E+03   -0.23064E-02   -0.23077E-02  8112   0.121E-01 0.977E-04
CGA:  14    -0.318766477335E+03   -0.14393E-02   -0.14398E-02  8112   0.609E-02 0.423E-04
CGA:  15    -0.318767275996E+03   -0.79866E-03   -0.79844E-03  8112   0.344E-02 0.237E-04
CGA:  16    -0.318767674061E+03   -0.39807E-03   -0.39825E-03  8112   0.170E-02 0.156E-04
CGA:  17    -0.318767858746E+03   -0.18468E-03   -0.18490E-03  8112   0.806E-03 0.120E-04
CGA:  18    -0.318767959696E+03   -0.10095E-03   -0.10094E-03  8112   0.371E-03 0.888E-05
CGA:  19    -0.318768003342E+03   -0.43646E-04   -0.43674E-04  8112   0.193E-03 0.380E-05
CGA:  20    -0.318768025523E+03   -0.22181E-04   -0.22192E-04  8112   0.105E-03 0.116E-05
CGA:  21    -0.318768039934E+03   -0.14411E-04   -0.14406E-04  8112   0.560E-04 0.355E-06
CGA:  22    -0.318768047209E+03   -0.72752E-05   -0.72737E-05  8112   0.401E-04 0.206E-06
  11 F= -.31876805E+03 E0= -.31876244E+03  d E =-.482879E-01  mag=    44.0000
       N       E                     dE             d eps       ncg     rms          ort
SDA:   1    -0.312943983359E+03    0.58241E+01    0.00000E+00  8112   0.160E+02 0.000E+00
CGA:   2    -0.316644392369E+03   -0.37004E+01   -0.37234E+01  8112   0.124E+02-0.207E+00
CGA:   3    -0.318006197412E+03   -0.13618E+01   -0.13486E+01  8112   0.523E+01-0.106E+00
CGA:   4    -0.318569416861E+03   -0.56322E+00   -0.56082E+00  8112   0.226E+01-0.466E-01
CGA:   5    -0.318741750039E+03   -0.17233E+00   -0.17310E+00  8112   0.720E+00-0.900E-02
CGA:   6    -0.318831402490E+03   -0.89652E-01   -0.89659E-01  8112   0.230E+00-0.482E-02
CGA:   7    -0.318861344174E+03   -0.29942E-01   -0.29890E-01  8112   0.830E-01 0.446E-02
CGA:   8    -0.318872756002E+03   -0.11412E-01   -0.11408E-01  8112   0.363E-01 0.221E-03
CGA:   9    -0.318877824387E+03   -0.50684E-02   -0.50540E-02  8112   0.125E-01 0.629E-03
CGA:  10    -0.318879978704E+03   -0.21543E-02   -0.21490E-02  8112   0.703E-02 0.952E-04
CGA:  11    -0.318880814628E+03   -0.83592E-03   -0.83670E-03  8112   0.469E-02 0.354E-04
CGA:  12    -0.318881312281E+03   -0.49765E-03   -0.49803E-03  8112   0.263E-02 0.884E-05
CGA:  13    -0.318881639949E+03   -0.32767E-03   -0.32772E-03  8112   0.109E-02 0.124E-04
CGA:  14    -0.318881832732E+03   -0.19278E-03   -0.19225E-03  8112   0.579E-03 0.930E-05
CGA:  15    -0.318881912957E+03   -0.80225E-04   -0.80202E-04  8112   0.395E-03 0.228E-05
CGA:  16    -0.318881948108E+03   -0.35151E-04   -0.35183E-04  8112   0.167E-03 0.706E-06
CGA:  17    -0.318881971767E+03   -0.23659E-04   -0.23646E-04  8112   0.746E-04 0.803E-06
CGA:  18    -0.318881981497E+03   -0.97298E-05   -0.97287E-05  8112   0.284E-04 0.574E-06
  12 F= -.31888198E+03 E0= -.31887639E+03  d E =-.113934E+00  mag=    44.0000
       N       E                     dE             d eps       ncg     rms          ort
SDA:   1    -0.317090938757E+03    0.17910E+01    0.00000E+00  8112   0.479E+01 0.000E+00
CGA:   2    -0.318229387021E+03   -0.11384E+01   -0.11430E+01  8112   0.448E+01-0.432E-01
CGA:   3    -0.318657989992E+03   -0.42860E+00   -0.42184E+00  8112   0.153E+01 0.254E-01
CGA:   4    -0.318807439612E+03   -0.14945E+00   -0.15064E+00  8112   0.792E+00 0.147E-02
CGA:   5    -0.318880026802E+03   -0.72587E-01   -0.72312E-01  8112   0.166E+00-0.556E-03
CGA:   6    -0.318904205684E+03   -0.24179E-01   -0.24174E-01  8112   0.547E-01 0.215E-03
CGA:   7    -0.318912149088E+03   -0.79434E-02   -0.79340E-02  8112   0.182E-01 0.385E-03
CGA:   8    -0.318914707852E+03   -0.25588E-02   -0.25584E-02  8112   0.922E-02 0.255E-04
CGA:   9    -0.318915742900E+03   -0.10350E-02   -0.10362E-02  8112   0.453E-02 0.188E-04
CGA:  10    -0.318916166723E+03   -0.42382E-03   -0.42396E-03  8112   0.249E-02 0.906E-06
CGA:  11    -0.318916523673E+03   -0.35695E-03   -0.35676E-03  8112   0.873E-03 0.903E-05
CGA:  12    -0.318916686833E+03   -0.16316E-03   -0.16273E-03  8112   0.565E-03 0.660E-05
CGA:  13    -0.318916762839E+03   -0.76006E-04   -0.76001E-04  8112   0.404E-03 0.238E-05
CGA:  14    -0.318916802800E+03   -0.39961E-04   -0.39998E-04  8112   0.202E-03 0.100E-05
CGA:  15    -0.318916829178E+03   -0.26378E-04   -0.26378E-04  8112   0.925E-04 0.598E-06
CGA:  16    -0.318916843175E+03   -0.13996E-04   -0.13989E-04  8112   0.319E-04 0.331E-06
CGA:  17    -0.318916847949E+03   -0.47747E-05   -0.47686E-05  8112   0.255E-04 0.331E-06
  13 F= -.31891685E+03 E0= -.31891132E+03  d E =-.348665E-01  mag=    44.0000
       N       E                     dE             d eps       ncg     rms          ort
SDA:   1    -0.306695516440E+03    0.12221E+02    0.00000E+00  8112   0.316E+02 0.000E+00
CGA:   2    -0.314322095126E+03   -0.76266E+01   -0.77765E+01  8112   0.345E+02-0.136E+01
CGA:   3    -0.317385347396E+03   -0.30633E+01   -0.30279E+01  8112   0.725E+01 0.939E+00
CGA:   4    -0.318409909405E+03   -0.10246E+01   -0.10244E+01  8112   0.346E+01 0.253E-01
CGA:   5    -0.318696945145E+03   -0.28704E+00   -0.29067E+00  8112   0.131E+01-0.100E-01
CGA:   6    -0.318826867139E+03   -0.12992E+00   -0.12804E+00  8112   0.401E+00-0.113E-01
CGA:   7    -0.318885141273E+03   -0.58274E-01   -0.58206E-01  8112   0.135E+00 0.254E-02
CGA:   8    -0.318902453462E+03   -0.17312E-01   -0.17311E-01  8112   0.609E-01-0.170E-03
CGA:   9    -0.318909739299E+03   -0.72858E-02   -0.72917E-02  8112   0.376E-01 0.228E-03
CGA:  10    -0.318913055993E+03   -0.33167E-02   -0.33079E-02  8112   0.133E-01-0.645E-05
CGA:  11    -0.318915391713E+03   -0.23357E-02   -0.23288E-02  8112   0.779E-02 0.116E-03
CGA:  12    -0.318916377777E+03   -0.98606E-03   -0.98615E-03  8112   0.402E-02 0.179E-04
CGA:  13    -0.318916956021E+03   -0.57824E-03   -0.57773E-03  8112   0.353E-02 0.265E-04
CGA:  14    -0.318917313670E+03   -0.35765E-03   -0.35800E-03  8112   0.125E-02 0.771E-05
CGA:  15    -0.318917497950E+03   -0.18428E-03   -0.18409E-03  8112   0.644E-03 0.836E-05
CGA:  16    -0.318917590746E+03   -0.92796E-04   -0.92723E-04  8112   0.370E-03 0.505E-05
CGA:  17    -0.318917623007E+03   -0.32260E-04   -0.32390E-04  8112   0.130E-03 0.246E-05
CGA:  18    -0.318917641051E+03   -0.18044E-04   -0.18022E-04  8112   0.724E-04 0.236E-05
CGA:  19    -0.318917650219E+03   -0.91676E-05   -0.91729E-05  8112   0.238E-04 0.123E-05
  14 F= -.31891765E+03 E0= -.31891237E+03  d E =-.802269E-03  mag=    44.0000
       N       E                     dE             d eps       ncg     rms          ort
SDA:   1    -0.292414052695E+03    0.26504E+02    0.00000E+00  8112   0.698E+02 0.000E+00
CGA:   2    -0.308429346327E+03   -0.16015E+02   -0.16294E+02  8112   0.757E+02-0.264E+01
CGA:   3    -0.315003830127E+03   -0.65745E+01   -0.65751E+01  8112   0.210E+02 0.103E-01
CGA:   4    -0.317566318626E+03   -0.25625E+01   -0.25564E+01  8112   0.948E+01-0.243E+00
CGA:   5    -0.318338840725E+03   -0.77252E+00   -0.74121E+00  8112   0.294E+01 0.237E+00
CGA:   6    -0.318711558641E+03   -0.37272E+00   -0.37212E+00  8112   0.941E+00-0.552E-01
CGA:   7    -0.318842717091E+03   -0.13116E+00   -0.13084E+00  8112   0.404E+00 0.143E-01
CGA:   8    -0.318879950257E+03   -0.37233E-01   -0.37423E-01  8112   0.226E+00-0.713E-04
CGA:   9    -0.318903842674E+03   -0.23892E-01   -0.24029E-01  8112   0.914E-01 0.207E-02
CGA:  10    -0.318915008489E+03   -0.11166E-01   -0.11170E-01  8112   0.332E-01 0.360E-03
CGA:  11    -0.318921184758E+03   -0.61763E-02   -0.61380E-02  8112   0.232E-01 0.540E-03
CGA:  12    -0.318923264748E+03   -0.20800E-02   -0.20910E-02  8112   0.118E-01 0.401E-04
CGA:  13    -0.318925120086E+03   -0.18553E-02   -0.18529E-02  8112   0.667E-02 0.628E-04
CGA:  14    -0.318926078214E+03   -0.95813E-03   -0.95757E-03  8112   0.293E-02 0.277E-04
CGA:  15    -0.318926483223E+03   -0.40501E-03   -0.40476E-03  8112   0.240E-02 0.212E-04
CGA:  16    -0.318926723651E+03   -0.24043E-03   -0.24096E-03  8112   0.719E-03 0.119E-04
CGA:  17    -0.318926833262E+03   -0.10961E-03   -0.10937E-03  8112   0.290E-03 0.975E-05
CGA:  18    -0.318926874715E+03   -0.41452E-04   -0.41396E-04  8112   0.195E-03 0.449E-05
CGA:  19    -0.318926892474E+03   -0.17759E-04   -0.17846E-04  8112   0.590E-04 0.181E-05
CGA:  20    -0.318926902834E+03   -0.10360E-04   -0.10315E-04  8112   0.362E-04 0.970E-06
CGA:  21    -0.318926907459E+03   -0.46254E-05   -0.46275E-05  8112   0.174E-04 0.479E-06
  15 F= -.31892691E+03 E0= -.31892197E+03  d E =-.925724E-02  mag=    44.0000
       N       E                     dE             d eps       ncg     rms          ort
SDA:   1    -0.313868622176E+03    0.50583E+01    0.00000E+00  8112   0.142E+02 0.000E+00
CGA:   2    -0.317030899794E+03   -0.31623E+01   -0.31669E+01  8112   0.909E+01-0.423E-01
CGA:   3    -0.318203610702E+03   -0.11727E+01   -0.11752E+01  8112   0.512E+01 0.246E+00
CGA:   4    -0.318685488059E+03   -0.48188E+00   -0.47133E+00  8112   0.165E+01-0.509E-01
CGA:   5    -0.318869021303E+03   -0.18353E+00   -0.18276E+00  8112   0.541E+00-0.144E-01
CGA:   6    -0.318938741358E+03   -0.69720E-01   -0.69723E-01  8112   0.168E+00 0.187E-02
CGA:   7    -0.318960703685E+03   -0.21962E-01   -0.21962E-01  8112   0.970E-01-0.170E-03
CGA:   8    -0.318969053843E+03   -0.83502E-02   -0.83250E-02  8112   0.332E-01 0.470E-06
CGA:   9    -0.318974415862E+03   -0.53620E-02   -0.53582E-02  8112   0.118E-01 0.880E-04
CGA:  10    -0.318976031693E+03   -0.16158E-02   -0.16158E-02  8112   0.817E-02 0.763E-05
CGA:  11    -0.318976969227E+03   -0.93753E-03   -0.93811E-03  8112   0.425E-02 0.156E-04
CGA:  12    -0.318977463885E+03   -0.49466E-03   -0.49492E-03  8112   0.174E-02 0.103E-04
CGA:  13    -0.318977784679E+03   -0.32079E-03   -0.32038E-03  8112   0.993E-03 0.732E-05
CGA:  14    -0.318977892767E+03   -0.10809E-03   -0.10818E-03  8112   0.638E-03 0.277E-05
CGA:  15    -0.318977977027E+03   -0.84260E-04   -0.84258E-04  8112   0.268E-03 0.157E-05
CGA:  16    -0.318978016460E+03   -0.39433E-04   -0.39442E-04  8112   0.126E-03-0.630E-06
CGA:  17    -0.318978032495E+03   -0.16035E-04   -0.16035E-04  8112   0.793E-04-0.155E-06
CGA:  18    -0.318978040835E+03   -0.83405E-05   -0.83453E-05  8112   0.312E-04 0.153E-06
  16 F= -.31897804E+03 E0= -.31897311E+03  d E =-.511334E-01  mag=    44.0000
       N       E                     dE             d eps       ncg     rms          ort
SDA:   1    -0.316714320624E+03    0.22637E+01    0.00000E+00  8112   0.607E+01 0.000E+00
CGA:   2    -0.318123862572E+03   -0.14095E+01   -0.13975E+01  8112   0.521E+01 0.105E+00
CGA:   3    -0.318641344838E+03   -0.51748E+00   -0.50267E+00  8112   0.219E+01-0.678E-01
CGA:   4    -0.318885938072E+03   -0.24459E+00   -0.24322E+00  8112   0.692E+00-0.214E-01
CGA:   5    -0.318959853690E+03   -0.73916E-01   -0.73871E-01  8112   0.202E+00-0.568E-03
CGA:   6    -0.318987199597E+03   -0.27346E-01   -0.27345E-01  8112   0.775E-01 0.197E-03
CGA:   7    -0.318994992148E+03   -0.77926E-02   -0.77777E-02  8112   0.400E-01-0.960E-04
CGA:   8    -0.318999200724E+03   -0.42086E-02   -0.42128E-02  8112   0.126E-01 0.464E-04
CGA:   9    -0.319001123794E+03   -0.19231E-02   -0.19226E-02  8112   0.492E-02 0.150E-04
CGA:  10    -0.319001745658E+03   -0.62186E-03   -0.62194E-03  8112   0.343E-02 0.103E-04
CGA:  11    -0.319002110730E+03   -0.36507E-03   -0.36509E-03  8112   0.144E-02 0.169E-05
CGA:  12    -0.319002327969E+03   -0.21724E-03   -0.21717E-03  8112   0.742E-03 0.301E-05
CGA:  13    -0.319002437714E+03   -0.10974E-03   -0.10968E-03  8112   0.470E-03 0.306E-05
CGA:  14    -0.319002491514E+03   -0.53801E-04   -0.53833E-04  8112   0.278E-03 0.158E-05
CGA:  15    -0.319002526431E+03   -0.34917E-04   -0.34923E-04  8112   0.112E-03 0.133E-05
CGA:  16    -0.319002543486E+03   -0.17055E-04   -0.17027E-04  8112   0.536E-04 0.128E-05
CGA:  17    -0.319002549801E+03   -0.63145E-05   -0.63225E-05  8112   0.310E-04 0.560E-06
  17 F= -.31900255E+03 E0= -.31899754E+03  d E =-.245090E-01  mag=    44.0000
       N       E                     dE             d eps       ncg     rms          ort
SDA:   1    -0.318402236927E+03    0.60031E+00    0.00000E+00  8112   0.160E+01 0.000E+00
CGA:   2    -0.318767994310E+03   -0.36576E+00   -0.36883E+00  8112   0.156E+01-0.284E-01
CGA:   3    -0.318926078136E+03   -0.15808E+00   -0.15896E+00  8112   0.476E+00 0.609E-02
CGA:   4    -0.318974435301E+03   -0.48357E-01   -0.48733E-01  8112   0.238E+00 0.225E-02
CGA:   5    -0.318997274814E+03   -0.22840E-01   -0.22770E-01  8112   0.501E-01-0.272E-03
CGA:   6    -0.319004553349E+03   -0.72785E-02   -0.72776E-02  8112   0.159E-01 0.446E-04
CGA:   7    -0.319006889155E+03   -0.23358E-02   -0.23353E-02  8112   0.709E-02 0.220E-04
CGA:   8    -0.319007566359E+03   -0.67720E-03   -0.67752E-03  8112   0.361E-02-0.102E-05
CGA:   9    -0.319008000621E+03   -0.43426E-03   -0.43420E-03  8112   0.110E-02-0.502E-05
CGA:  10    -0.319008163500E+03   -0.16288E-03   -0.16284E-03  8112   0.584E-03 0.146E-05
CGA:  11    -0.319008248226E+03   -0.84725E-04   -0.84695E-04  8112   0.318E-03 0.182E-05
CGA:  12    -0.319008283556E+03   -0.35330E-04   -0.35329E-04  8112   0.198E-03-0.141E-06
CGA:  13    -0.319008310843E+03   -0.27287E-04   -0.27292E-04  8112   0.953E-04-0.682E-06
CGA:  14    -0.319008326078E+03   -0.15235E-04   -0.15228E-04  8112   0.418E-04 0.195E-06
CGA:  15    -0.319008332025E+03   -0.59470E-05   -0.59386E-05  8112   0.326E-04 0.804E-06
  18 F= -.31900833E+03 E0= -.31900340E+03  d E =-.578222E-02  mag=    44.0000
       N       E                     dE             d eps       ncg     rms          ort
SDA:   1    -0.281051390272E+03    0.37957E+02    0.00000E+00  8112   0.959E+02 0.000E+00
CGA:   2    -0.306056507253E+03   -0.25005E+02   -0.25923E+02  8112   0.107E+03-0.614E+01
CGA:   3    -0.313839832214E+03   -0.77833E+01   -0.80781E+01  8112   0.239E+02 0.621E+01
CGA:   4    -0.317529199524E+03   -0.36894E+01   -0.36849E+01  8112   0.736E+01 0.215E+00
CGA:   5    -0.318326183021E+03   -0.79698E+00   -0.78409E+00  8112   0.415E+01-0.849E-01
CGA:   6    -0.318676306078E+03   -0.35012E+00   -0.35988E+00  8112   0.108E+01 0.144E-01
CGA:   7    -0.318845922098E+03   -0.16962E+00   -0.16936E+00  8112   0.440E+00 0.707E-02
CGA:   8    -0.318895774673E+03   -0.49853E-01   -0.49822E-01  8112   0.209E+00-0.171E-03
CGA:   9    -0.318923020728E+03   -0.27246E-01   -0.27255E-01  8112   0.846E-01 0.533E-02
CGA:  10    -0.318933246931E+03   -0.10226E-01   -0.10233E-01  8112   0.481E-01 0.216E-03
CGA:  11    -0.318940447128E+03   -0.72002E-02   -0.72020E-02  8112   0.236E-01-0.288E-04
CGA:  12    -0.318943844536E+03   -0.33974E-02   -0.33939E-02  8112   0.109E-01 0.192E-03
CGA:  13    -0.318946244407E+03   -0.23999E-02   -0.23930E-02  8112   0.497E-02 0.743E-04
CGA:  14    -0.318946977911E+03   -0.73350E-03   -0.73325E-03  8112   0.301E-02 0.208E-04
CGA:  15    -0.318947439670E+03   -0.46176E-03   -0.46132E-03  8112   0.938E-03 0.244E-04
CGA:  16    -0.318947599373E+03   -0.15970E-03   -0.15929E-03  8112   0.404E-03 0.130E-04
CGA:  17    -0.318947657973E+03   -0.58600E-04   -0.58582E-04  8112   0.228E-03 0.479E-05
CGA:  18    -0.318947683813E+03   -0.25840E-04   -0.25900E-04  8112   0.820E-04 0.200E-05
CGA:  19    -0.318947697994E+03   -0.14180E-04   -0.14140E-04  8112   0.390E-04 0.121E-05
CGA:  20    -0.318947704568E+03   -0.65745E-05   -0.65605E-05  8112   0.222E-04 0.534E-06
  19 F= -.31894770E+03 E0= -.31894335E+03  d E =0.606275E-01  mag=    44.0000
       N       E                     dE             d eps       ncg     rms          ort
SDA:   1    -0.301189516460E+03    0.17758E+02    0.00000E+00  8112   0.489E+02 0.000E+00
CGA:   2    -0.311925297487E+03   -0.10736E+02   -0.10782E+02  8112   0.422E+02-0.356E+00
CGA:   3    -0.316208007617E+03   -0.42827E+01   -0.42189E+01  8112   0.158E+02-0.157E+01
CGA:   4    -0.318157135736E+03   -0.19491E+01   -0.19288E+01  8112   0.499E+01-0.399E+00
CGA:   5    -0.318697472732E+03   -0.54034E+00   -0.52854E+00  8112   0.177E+01-0.203E-01
CGA:   6    -0.318897737827E+03   -0.20027E+00   -0.20230E+00  8112   0.595E+00 0.233E-01
CGA:   7    -0.318971532874E+03   -0.73795E-01   -0.73852E-01  8112   0.302E+00 0.147E-02
CGA:   8    -0.319000153418E+03   -0.28621E-01   -0.29283E-01  8112   0.137E+00 0.131E-02
CGA:   9    -0.319016982717E+03   -0.16829E-01   -0.16912E-01  8112   0.427E-01 0.252E-02
CGA:  10    -0.319024528087E+03   -0.75454E-02   -0.75125E-02  8112   0.204E-01 0.634E-03
CGA:  11    -0.319027746321E+03   -0.32182E-02   -0.32092E-02  8112   0.123E-01 0.327E-03
CGA:  12    -0.319029341955E+03   -0.15956E-02   -0.16001E-02  8112   0.653E-02 0.181E-03
CGA:  13    -0.319030299701E+03   -0.95775E-03   -0.95743E-03  8112   0.354E-02 0.323E-04
CGA:  14    -0.319030824177E+03   -0.52448E-03   -0.52423E-03  8112   0.163E-02 0.175E-04
CGA:  15    -0.319031086084E+03   -0.26191E-03   -0.26174E-03  8112   0.696E-03 0.644E-05
CGA:  16    -0.319031202861E+03   -0.11678E-03   -0.11664E-03  8112   0.296E-03 0.436E-05
CGA:  17    -0.319031242021E+03   -0.39160E-04   -0.39178E-04  8112   0.164E-03 0.143E-05
CGA:  18    -0.319031263502E+03   -0.21481E-04   -0.21490E-04  8112   0.597E-04 0.749E-06
CGA:  19    -0.319031274083E+03   -0.10581E-04   -0.10545E-04  8112   0.277E-04 0.992E-06
CGA:  20    -0.319031278658E+03   -0.45754E-05   -0.45625E-05  8112   0.158E-04 0.632E-06
  20 F= -.31903128E+03 E0= -.31902688E+03  d E =-.835741E-01  mag=    44.0000
       N       E                     dE             d eps       ncg     rms          ort
SDA:   1    -0.302696347191E+03    0.16335E+02    0.00000E+00  8112   0.440E+02 0.000E+00
CGA:   2    -0.312758028558E+03   -0.10062E+02   -0.10088E+02  8112   0.427E+02-0.882E+00
CGA:   3    -0.316819859861E+03   -0.40618E+01   -0.39793E+01  8112   0.973E+01 0.327E+01
CGA:   4    -0.318306973771E+03   -0.14871E+01   -0.14863E+01  8112   0.487E+01-0.884E-01
CGA:   5    -0.318699449898E+03   -0.39248E+00   -0.38124E+00  8112   0.260E+01-0.812E-01
CGA:   6    -0.318895365868E+03   -0.19592E+00   -0.20440E+00  8112   0.807E+00-0.272E-01
CGA:   7    -0.318977226171E+03   -0.81860E-01   -0.82270E-01  8112   0.507E+00 0.940E-03
CGA:   8    -0.319015908434E+03   -0.38682E-01   -0.38695E-01  8112   0.160E+00-0.252E-02
CGA:   9    -0.319037082659E+03   -0.21174E-01   -0.21176E-01  8112   0.757E-01 0.403E-03
CGA:  10    -0.319044469645E+03   -0.73870E-02   -0.74280E-02  8112   0.482E-01 0.154E-03
CGA:  11    -0.319049335697E+03   -0.48661E-02   -0.48867E-02  8112   0.188E-01 0.137E-03
CGA:  12    -0.319052187852E+03   -0.28522E-02   -0.28461E-02  8112   0.117E-01 0.203E-03
CGA:  13    -0.319053556955E+03   -0.13691E-02   -0.13704E-02  8112   0.760E-02 0.403E-04
CGA:  14    -0.319054317915E+03   -0.76096E-03   -0.76286E-03  8112   0.341E-02 0.226E-04
CGA:  15    -0.319054935152E+03   -0.61724E-03   -0.61497E-03  8112   0.171E-02 0.378E-04
CGA:  16    -0.319055104919E+03   -0.16977E-03   -0.17006E-03  8112   0.107E-02 0.620E-05
CGA:  17    -0.319055237504E+03   -0.13258E-03   -0.13265E-03  8112   0.390E-03 0.784E-05
CGA:  18    -0.319055294100E+03   -0.56596E-04   -0.56512E-04  8112   0.182E-03 0.565E-05
CGA:  19    -0.319055312047E+03   -0.17947E-04   -0.18023E-04  8112   0.990E-04 0.209E-05
CGA:  20    -0.319055324920E+03   -0.12873E-04   -0.12874E-04  8112   0.356E-04 0.168E-05
CGA:  21    -0.319055330748E+03   -0.58282E-05   -0.58128E-05  8112   0.211E-04 0.471E-06
  21 F= -.31905533E+03 E0= -.31905072E+03  d E =-.240521E-01  mag=    44.0000
       N       E                     dE             d eps       ncg     rms          ort
SDA:   1    -0.316554663884E+03    0.25007E+01    0.00000E+00  8112   0.657E+01 0.000E+00
CGA:   2    -0.318153240075E+03   -0.15986E+01   -0.15922E+01  8112   0.457E+01 0.519E-01
CGA:   3    -0.318735722902E+03   -0.58248E+00   -0.57989E+00  8112   0.167E+01-0.117E+00
CGA:   4    -0.318932562203E+03   -0.19684E+00   -0.19703E+00  8112   0.687E+00 0.479E-02
CGA:   5    -0.318993027428E+03   -0.60465E-01   -0.60636E-01  8112   0.207E+00-0.942E-03
CGA:   6    -0.319021437739E+03   -0.28410E-01   -0.28405E-01  8112   0.616E-01 0.462E-03
CGA:   7    -0.319029738095E+03   -0.83004E-02   -0.83004E-02  8112   0.266E-01-0.189E-04
CGA:   8    -0.319032895319E+03   -0.31572E-02   -0.31577E-02  8112   0.132E-01 0.165E-04
CGA:   9    -0.319034305488E+03   -0.14102E-02   -0.14104E-02  8112   0.532E-02 0.626E-05
CGA:  10    -0.319035128828E+03   -0.82334E-03   -0.82301E-03  8112   0.223E-02 0.105E-04
CGA:  11    -0.319035492922E+03   -0.36409E-03   -0.36399E-03  8112   0.153E-02 0.255E-05
CGA:  12    -0.319035658478E+03   -0.16556E-03   -0.16557E-03  8112   0.762E-03 0.721E-07
CGA:  13    -0.319035775123E+03   -0.11665E-03   -0.11662E-03  8112   0.378E-03 0.111E-05
CGA:  14    -0.319035828628E+03   -0.53505E-04   -0.53485E-04  8112   0.197E-03 0.236E-05
CGA:  15    -0.319035856440E+03   -0.27811E-04   -0.27794E-04  8112   0.966E-04 0.242E-05
CGA:  16    -0.319035866878E+03   -0.10438E-04   -0.10482E-04  8112   0.461E-04 0.167E-05
CGA:  17    -0.319035873416E+03   -0.65381E-05   -0.65277E-05  8112   0.149E-04 0.151E-05
  22 F= -.31903587E+03 E0= -.31903110E+03  d E =0.194573E-01  mag=    44.0000
       N       E                     dE             d eps       ncg     rms          ort
SDA:   1    -0.315791575523E+03    0.32443E+01    0.00000E+00  8112   0.833E+01 0.000E+00
CGA:   2    -0.317989840757E+03   -0.21983E+01   -0.22187E+01  8112   0.671E+01-0.150E+00
CGA:   3    -0.318695705299E+03   -0.70586E+00   -0.72065E+00  8112   0.180E+01 0.123E+00
CGA:   4    -0.318941608680E+03   -0.24590E+00   -0.24582E+00  8112   0.835E+00-0.856E-02
CGA:   5    -0.319013601693E+03   -0.71993E-01   -0.72125E-01  8112   0.224E+00-0.110E-02
CGA:   6    -0.319043890294E+03   -0.30289E-01   -0.30289E-01  8112   0.760E-01 0.492E-03
CGA:   7    -0.319054246378E+03   -0.10356E-01   -0.10356E-01  8112   0.256E-01 0.280E-04
CGA:   8    -0.319058257526E+03   -0.40111E-02   -0.40109E-02  8112   0.902E-02 0.254E-05
CGA:   9    -0.319059623975E+03   -0.13664E-02   -0.13663E-02  8112   0.503E-02 0.424E-05
CGA:  10    -0.319060225413E+03   -0.60144E-03   -0.60160E-03  8112   0.260E-02 0.686E-05
CGA:  11    -0.319060582961E+03   -0.35755E-03   -0.35754E-03  8112   0.135E-02 0.129E-04
CGA:  12    -0.319060785990E+03   -0.20303E-03   -0.20298E-03  8112   0.653E-03 0.425E-05
CGA:  13    -0.319060910919E+03   -0.12493E-03   -0.12485E-03  8112   0.272E-03 0.150E-05
CGA:  14    -0.319060956981E+03   -0.46061E-04   -0.46051E-04  8112   0.200E-03 0.288E-06
CGA:  15    -0.319060977513E+03   -0.20533E-04   -0.20541E-04  8112   0.683E-04 0.642E-07
CGA:  16    -0.319060987777E+03   -0.10264E-04   -0.10263E-04  8112   0.297E-04 0.394E-07
CGA:  17    -0.319060992284E+03   -0.45072E-05   -0.45070E-05  8112   0.104E-04 0.241E-07
  23 F= -.31906099E+03 E0= -.31905642E+03  d E =-.251189E-01  mag=    44.0000
       N       E                     dE             d eps       ncg     rms          ort
SDA:   1    -0.318914673164E+03    0.14631E+00    0.00000E+00  8112   0.377E+00 0.000E+00
CGA:   2    -0.319014345196E+03   -0.99672E-01   -0.99635E-01  8112   0.239E+00 0.295E-03
CGA:   3    -0.319043743847E+03   -0.29399E-01   -0.29420E-01  8112   0.885E-01 0.267E-03
CGA:   4    -0.319054427756E+03   -0.10684E-01   -0.10680E-01  8112   0.351E-01-0.351E-04
CGA:   5    -0.319057702904E+03   -0.32751E-02   -0.32883E-02  8112   0.102E-01-0.782E-05
CGA:   6    -0.319059060143E+03   -0.13572E-02   -0.13570E-02  8112   0.310E-02-0.138E-04
CGA:   7    -0.319059539240E+03   -0.47910E-03   -0.47913E-03  8112   0.993E-03-0.206E-05
CGA:   8    -0.319059678912E+03   -0.13967E-03   -0.13967E-03  8112   0.570E-03-0.142E-06
CGA:   9    -0.319059740719E+03   -0.61807E-04   -0.61820E-04  8112   0.236E-03 0.309E-06
CGA:  10    -0.319059774601E+03   -0.33882E-04   -0.33881E-04  8112   0.113E-03 0.419E-06
CGA:  11    -0.319059794264E+03   -0.19662E-04   -0.19653E-04  8112   0.536E-04 0.294E-06
CGA:  12    -0.319059803005E+03   -0.87409E-05   -0.87396E-05  8112   0.426E-04 0.737E-07
  24 F= -.31905980E+03 E0= -.31905518E+03  d E =0.118928E-02  mag=    44.0000
       N       E                     dE             d eps       ncg     rms          ort
SDA:   1    -0.301305981385E+03    0.17754E+02    0.00000E+00  8112   0.449E+02 0.000E+00
CGA:   2    -0.313647522224E+03   -0.12342E+02   -0.12242E+02  8112   0.301E+02 0.759E+00
CGA:   3    -0.317056060072E+03   -0.34085E+01   -0.33704E+01  8112   0.113E+02-0.745E+00
CGA:   4    -0.318336239490E+03   -0.12802E+01   -0.12374E+01  8112   0.558E+01-0.371E+00
CGA:   5    -0.318763772309E+03   -0.42753E+00   -0.42771E+00  8112   0.126E+01 0.398E-01
CGA:   6    -0.318951403744E+03   -0.18763E+00   -0.18751E+00  8112   0.397E+00 0.123E-01
CGA:   7    -0.319010101806E+03   -0.58698E-01   -0.58704E-01  8112   0.149E+00-0.694E-03
CGA:   8    -0.319030941055E+03   -0.20839E-01   -0.20844E-01  8112   0.617E-01 0.810E-03
CGA:   9    -0.319038141359E+03   -0.72003E-02   -0.72079E-02  8112   0.420E-01 0.848E-04
CGA:  10    -0.319042270964E+03   -0.41296E-02   -0.41462E-02  8112   0.181E-01 0.475E-04
CGA:  11    -0.319044950283E+03   -0.26793E-02   -0.26778E-02  8112   0.836E-02 0.110E-03
CGA:  12    -0.319046466303E+03   -0.15160E-02   -0.15128E-02  8112   0.484E-02 0.635E-04
CGA:  13    -0.319047243021E+03   -0.77672E-03   -0.77596E-03  8112   0.294E-02 0.303E-04
CGA:  14    -0.319047535883E+03   -0.29286E-03   -0.29340E-03  8112   0.183E-02 0.517E-05
CGA:  15    -0.319047777458E+03   -0.24157E-03   -0.24164E-03  8112   0.595E-03 0.731E-05
CGA:  16    -0.319047867127E+03   -0.89669E-04   -0.89597E-04  8112   0.247E-03 0.659E-05
CGA:  17    -0.319047905653E+03   -0.38526E-04   -0.38481E-04  8112   0.122E-03 0.325E-05
CGA:  18    -0.319047917790E+03   -0.12137E-04   -0.12175E-04  8112   0.700E-04 0.835E-06
CGA:  19    -0.319047926562E+03   -0.87714E-05   -0.87783E-05  8112   0.283E-04 0.453E-06
  25 F= -.31904793E+03 E0= -.31904292E+03  d E =0.118764E-01  mag=    44.0000
       N       E                     dE             d eps       ncg     rms          ort
SDA:   1    -0.234305295021E+03    0.84743E+02    0.00000E+00  8112   0.639E+03 0.000E+00
CGA:   2    -0.282310629245E+03   -0.48005E+02   -0.19019E+02  8112   0.109E+03 0.225E+03
CGA:   3    -0.298448420720E+03   -0.16138E+02   -0.17140E+02  8112   0.723E+02 0.215E+02
CGA:   4    -0.307928143490E+03   -0.94797E+01   -0.60524E+01  8112   0.298E+02 0.398E+02
CGA:   5    -0.312107546423E+03   -0.41794E+01   -0.44678E+01  8112   0.377E+02-0.110E+02
CGA:   6    -0.314188599543E+03   -0.20811E+01   -0.22066E+01  8112   0.268E+02 0.527E+00
CGA:   7    -0.316352089025E+03   -0.21635E+01   -0.20817E+01  8112   0.667E+01 0.395E+01
CGA:   8    -0.317118152878E+03   -0.76606E+00   -0.75479E+00  8112   0.517E+01-0.110E+00
CGA:   9    -0.317349990101E+03   -0.23184E+00   -0.27690E+00  8112   0.153E+01-0.491E+00
CGA:  10    -0.317478321662E+03   -0.12833E+00   -0.12796E+00  8112   0.728E+00 0.535E-02
CGA:  11    -0.317550553131E+03   -0.72231E-01   -0.72417E-01  8112   0.419E+00 0.263E-02
CGA:  12    -0.317593814075E+03   -0.43261E-01   -0.44051E-01  8112   0.181E+00 0.210E-01
CGA:  13    -0.317613101934E+03   -0.19288E-01   -0.19203E-01  8112   0.137E+00-0.152E-02
CGA:  14    -0.317631005360E+03   -0.17903E-01   -0.17919E-01  8112   0.464E-01-0.732E-03
CGA:  15    -0.317637423413E+03   -0.64181E-02   -0.63998E-02  8112   0.332E-01 0.586E-03
CGA:  16    -0.317640863393E+03   -0.34400E-02   -0.34416E-02  8112   0.198E-01 0.630E-04
CGA:  17    -0.317643499117E+03   -0.26357E-02   -0.26325E-02  8112   0.584E-02 0.151E-03
CGA:  18    -0.317644667246E+03   -0.11681E-02   -0.11692E-02  8112   0.600E-02-0.121E-04
CGA:  19    -0.317645168580E+03   -0.50133E-03   -0.50064E-03  8112   0.199E-02 0.227E-06
CGA:  20    -0.317645460006E+03   -0.29143E-03   -0.29134E-03  8112   0.105E-02 0.245E-05
CGA:  21    -0.317645651429E+03   -0.19142E-03   -0.19110E-03  8112   0.659E-03 0.488E-05
CGA:  22    -0.317645709216E+03   -0.57787E-04   -0.57752E-04  8112   0.308E-03-0.251E-06
CGA:  23    -0.317645758954E+03   -0.49738E-04   -0.49801E-04  8112   0.213E-03-0.169E-05
CGA:  24    -0.317645791057E+03   -0.32103E-04   -0.32123E-04  8112   0.975E-04-0.800E-06
CGA:  25    -0.317645803638E+03   -0.12581E-04   -0.12579E-04  8112   0.682E-04 0.578E-06
CGA:  26    -0.317645811533E+03   -0.78949E-05   -0.79042E-05  8112   0.417E-04 0.745E-06
  26 F= -.31764581E+03 E0= -.31764107E+03  d E =0.140212E+01  mag=    44.0000
       N       E                     dE             d eps       ncg     rms          ort
SDA:   1    -0.300562208116E+03    0.17084E+02    0.00000E+00  8112   0.186E+03 0.000E+00
CGA:   2    -0.309048769657E+03   -0.84866E+01   -0.13827E+02  8112   0.336E+02 0.692E+01
CGA:   3    -0.313815265589E+03   -0.47665E+01   -0.51257E+01  8112   0.443E+02-0.135E+02
CGA:   4    -0.316989242581E+03   -0.31740E+01   -0.30858E+01  8112   0.174E+02-0.182E+01
CGA:   5    -0.317211235021E+03   -0.22199E+00   -0.55587E+00  8112   0.221E+02-0.105E+02
CGA:   6    -0.317635031439E+03   -0.42380E+00   -0.93228E+00  8112   0.174E+02-0.873E+01
CGA:   7    -0.318522673567E+03   -0.88764E+00   -0.93279E+00  8112   0.193E+01 0.433E+00
CGA:   8    -0.318690193248E+03   -0.16752E+00   -0.16228E+00  8112   0.881E+00-0.297E-02
CGA:   9    -0.318746850011E+03   -0.56657E-01   -0.61529E-01  8112   0.762E+00-0.144E-01
CGA:  10    -0.318831130983E+03   -0.84281E-01   -0.84261E-01  8112   0.250E+00 0.349E-01
CGA:  11    -0.318858608037E+03   -0.27477E-01   -0.27619E-01  8112   0.129E+00 0.101E-01
CGA:  12    -0.318874455602E+03   -0.15848E-01   -0.15817E-01  8112   0.889E-01 0.278E-02
CGA:  13    -0.318884882258E+03   -0.10427E-01   -0.10412E-01  8112   0.279E-01 0.307E-02
CGA:  14    -0.318888690396E+03   -0.38081E-02   -0.37922E-02  8112   0.210E-01 0.524E-03
CGA:  15    -0.318891127585E+03   -0.24372E-02   -0.24369E-02  8112   0.554E-02 0.222E-03
CGA:  16    -0.318891897039E+03   -0.76945E-03   -0.76871E-03  8112   0.488E-02 0.212E-04
CGA:  17    -0.318892509276E+03   -0.61224E-03   -0.61137E-03  8112   0.180E-02 0.539E-04
CGA:  18    -0.318892774583E+03   -0.26531E-03   -0.26509E-03  8112   0.108E-02 0.628E-05
CGA:  19    -0.318892897172E+03   -0.12259E-03   -0.12260E-03  8112   0.592E-03 0.650E-06
CGA:  20    -0.318892978486E+03   -0.81314E-04   -0.81397E-04  8112   0.235E-03-0.420E-05
CGA:  21    -0.318893011221E+03   -0.32735E-04   -0.32725E-04  8112   0.165E-03 0.103E-06
CGA:  22    -0.318893029357E+03   -0.18136E-04   -0.18147E-04  8112   0.648E-04 0.120E-05
CGA:  23    -0.318893039914E+03   -0.10556E-04   -0.10471E-04  8112   0.389E-04 0.201E-05
CGA:  24    -0.318893044787E+03   -0.48734E-05   -0.48724E-05  8112   0.241E-04 0.738E-06
  27 F= -.31889304E+03 E0= -.31888812E+03  d E =-.124723E+01  mag=    44.0000
       N       E                     dE             d eps       ncg     rms          ort
SDA:   1    -0.316712111998E+03    0.21809E+01    0.00000E+00  8112   0.725E+01 0.000E+00
CGA:   2    -0.318054668093E+03   -0.13426E+01   -0.13431E+01  8112   0.405E+01-0.585E-02
CGA:   3    -0.318660206552E+03   -0.60554E+00   -0.60545E+00  8112   0.227E+01-0.907E-02
CGA:   4    -0.318910613330E+03   -0.25041E+00   -0.24886E+00  8112   0.876E+00-0.369E-01
CGA:   5    -0.318988621943E+03   -0.78009E-01   -0.77825E-01  8112   0.329E+00-0.180E-02
CGA:   6    -0.319028062086E+03   -0.39440E-01   -0.39445E-01  8112   0.892E-01 0.730E-03
CGA:   7    -0.319042098652E+03   -0.14037E-01   -0.14037E-01  8112   0.319E-01-0.888E-05
CGA:   8    -0.319045988623E+03   -0.38900E-02   -0.38906E-02  8112   0.201E-01 0.918E-04
CGA:   9    -0.319048045572E+03   -0.20569E-02   -0.20586E-02  8112   0.782E-02 0.253E-04
CGA:  10    -0.319049006963E+03   -0.96139E-03   -0.96140E-03  8112   0.328E-02 0.766E-05
CGA:  11    -0.319049584017E+03   -0.57705E-03   -0.57609E-03  8112   0.154E-02 0.163E-04
CGA:  12    -0.319049768176E+03   -0.18416E-03   -0.18417E-03  8112   0.105E-02 0.115E-05
CGA:  13    -0.319049893278E+03   -0.12510E-03   -0.12511E-03  8112   0.502E-03 0.689E-06
CGA:  14    -0.319049960964E+03   -0.67686E-04   -0.67674E-04  8112   0.212E-03 0.103E-05
CGA:  15    -0.319050000170E+03   -0.39206E-04   -0.39153E-04  8112   0.139E-03 0.873E-06
CGA:  16    -0.319050013639E+03   -0.13469E-04   -0.13481E-04  8112   0.694E-04 0.369E-06
CGA:  17    -0.319050023569E+03   -0.99301E-05   -0.99252E-05  8112   0.335E-04 0.303E-06
  28 F= -.31905002E+03 E0= -.31904506E+03  d E =-.156979E+00  mag=    44.0000
       N       E                     dE             d eps       ncg     rms          ort
SDA:   1    -0.318340119931E+03    0.70989E+00    0.00000E+00  8112   0.219E+01 0.000E+00
CGA:   2    -0.318766550247E+03   -0.42643E+00   -0.42696E+00  8112   0.139E+01-0.585E-02
CGA:   3    -0.318940952966E+03   -0.17440E+00   -0.17458E+00  8112   0.834E+00 0.127E-01
CGA:   4    -0.319027302252E+03   -0.86349E-01   -0.85966E-01  8112   0.311E+00-0.368E-02
CGA:   5    -0.319057518610E+03   -0.30216E-01   -0.30100E-01  8112   0.908E-01-0.585E-03
CGA:   6    -0.319070585870E+03   -0.13067E-01   -0.13063E-01  8112   0.262E-01 0.176E-03
CGA:   7    -0.319074250963E+03   -0.36651E-02   -0.36654E-02  8112   0.148E-01-0.186E-04
CGA:   8    -0.319075549157E+03   -0.12982E-02   -0.12980E-02  8112   0.562E-02-0.105E-05
CGA:   9    -0.319076351334E+03   -0.80218E-03   -0.80203E-03  8112   0.227E-02 0.694E-05
CGA:  10    -0.319076661090E+03   -0.30976E-03   -0.30972E-03  8112   0.104E-02 0.429E-05
CGA:  11    -0.319076806341E+03   -0.14525E-03   -0.14520E-03  8112   0.739E-03 0.392E-05
CGA:  12    -0.319076880655E+03   -0.74314E-04   -0.74352E-04  8112   0.279E-03 0.907E-06
CGA:  13    -0.319076925576E+03   -0.44921E-04   -0.44953E-04  8112   0.153E-03-0.970E-06
CGA:  14    -0.319076947806E+03   -0.22230E-04   -0.22230E-04  8112   0.848E-04-0.707E-07
CGA:  15    -0.319076957014E+03   -0.92080E-05   -0.92182E-05  8112   0.525E-04 0.469E-06
  29 F= -.31907696E+03 E0= -.31907200E+03  d E =-.269334E-01  mag=    44.0000
       N       E                     dE             d eps       ncg     rms          ort
SDA:   1    -0.318958596918E+03    0.11835E+00    0.00000E+00  8112   0.338E+00 0.000E+00
CGA:   2    -0.319035939924E+03   -0.77343E-01   -0.77476E-01  8112   0.252E+00-0.121E-02
CGA:   3    -0.319066134875E+03   -0.30195E-01   -0.30244E-01  8112   0.903E-01 0.129E-02
CGA:   4    -0.319078305846E+03   -0.12171E-01   -0.12171E-01  8112   0.353E-01-0.192E-03
CGA:   5    -0.319081126640E+03   -0.28208E-02   -0.28203E-02  8112   0.130E-01-0.138E-04
CGA:   6    -0.319082792149E+03   -0.16655E-02   -0.16655E-02  8112   0.341E-02 0.790E-05
CGA:   7    -0.319083312082E+03   -0.51993E-03   -0.52002E-03  8112   0.139E-02-0.327E-05
CGA:   8    -0.319083484610E+03   -0.17253E-03   -0.17252E-03  8112   0.750E-03-0.857E-06
CGA:   9    -0.319083557356E+03   -0.72745E-04   -0.72769E-04  8112   0.333E-03 0.464E-06
CGA:  10    -0.319083604886E+03   -0.47530E-04   -0.47511E-04  8112   0.132E-03 0.159E-05
CGA:  11    -0.319083625950E+03   -0.21065E-04   -0.21042E-04  8112   0.777E-04 0.788E-06
CGA:  12    -0.319083636481E+03   -0.10531E-04   -0.10532E-04  8112   0.497E-04-0.478E-06
CGA:  13    -0.319083641551E+03   -0.50699E-05   -0.50564E-05  8112   0.237E-04-0.453E-06
  30 F= -.31908364E+03 E0= -.31907869E+03  d E =-.668454E-02  mag=    44.0000
       N       E                     dE             d eps       ncg     rms          ort
SDA:   1    -0.318527350208E+03    0.55629E+00    0.00000E+00  8112   0.143E+01 0.000E+00
CGA:   2    -0.318918079832E+03   -0.39073E+00   -0.39075E+00  8112   0.805E+00-0.129E-03
CGA:   3    -0.319020404033E+03   -0.10232E+00   -0.10264E+00  8112   0.447E+00 0.107E-01
CGA:   4    -0.319061525285E+03   -0.41121E-01   -0.41050E-01  8112   0.142E+00-0.514E-03
CGA:   5    -0.319076271963E+03   -0.14747E-01   -0.14701E-01  8112   0.460E-01-0.289E-03
CGA:   6    -0.319082337680E+03   -0.60657E-02   -0.60661E-02  8112   0.138E-01 0.726E-04
CGA:   7    -0.319084291961E+03   -0.19543E-02   -0.19544E-02  8112   0.724E-02-0.148E-04
CGA:   8    -0.319084938664E+03   -0.64670E-03   -0.64672E-03  8112   0.298E-02-0.140E-05
CGA:   9    -0.319085349989E+03   -0.41132E-03   -0.41130E-03  8112   0.111E-02 0.265E-05
CGA:  10    -0.319085524793E+03   -0.17480E-03   -0.17474E-03  8112   0.616E-03 0.264E-05
CGA:  11    -0.319085599710E+03   -0.74917E-04   -0.74928E-04  8112   0.411E-03 0.775E-06
CGA:  12    -0.319085648026E+03   -0.48316E-04   -0.48309E-04  8112   0.182E-03-0.576E-06
CGA:  13    -0.319085676351E+03   -0.28324E-04   -0.28353E-04  8112   0.977E-04-0.123E-05
CGA:  14    -0.319085690279E+03   -0.13928E-04   -0.13926E-04  8112   0.549E-04 0.226E-06
CGA:  15    -0.319085695891E+03   -0.56122E-05   -0.56369E-05  8112   0.286E-04 0.772E-06
  31 F= -.31908570E+03 E0= -.31908078E+03  d E =-.205434E-02  mag=    44.0000
       N       E                     dE             d eps       ncg     rms          ort
SDA:   1    -0.319001604447E+03    0.84086E-01    0.00000E+00  8112   0.214E+00 0.000E+00
CGA:   2    -0.319055049576E+03   -0.53445E-01   -0.53507E-01  8112   0.169E+00-0.526E-03
CGA:   3    -0.319070647785E+03   -0.15598E-01   -0.15686E-01  8112   0.707E-01-0.970E-05
CGA:   4    -0.319078392743E+03   -0.77450E-02   -0.77525E-02  8112   0.303E-01 0.630E-04
CGA:   5    -0.319081404577E+03   -0.30118E-02   -0.30079E-02  8112   0.606E-02-0.273E-04
CGA:   6    -0.319082380770E+03   -0.97619E-03   -0.97643E-03  8112   0.233E-02-0.878E-05
CGA:   7    -0.319082640873E+03   -0.26010E-03   -0.26007E-03  8112   0.122E-02-0.104E-05
CGA:   8    -0.319082757803E+03   -0.11693E-03   -0.11697E-03  8112   0.446E-03 0.102E-05
CGA:   9    -0.319082822076E+03   -0.64273E-04   -0.64256E-04  8112   0.164E-03 0.136E-05
CGA:  10    -0.319082849945E+03   -0.27869E-04   -0.27871E-04  8112   0.107E-03-0.592E-07
CGA:  11    -0.319082860933E+03   -0.10988E-04   -0.10978E-04  8112   0.589E-04-0.323E-06
CGA:  12    -0.319082869244E+03   -0.83113E-05   -0.83156E-05  8112   0.321E-04-0.488E-06
  32 F= -.31908287E+03 E0= -.31907795E+03  d E =0.282665E-02  mag=    44.0000
       N       E                     dE             d eps       ncg     rms          ort
SDA:   1    -0.319026537352E+03    0.56324E-01    0.00000E+00  8112   0.151E+00 0.000E+00
CGA:   2    -0.319057610058E+03   -0.31073E-01   -0.31103E-01  8112   0.131E+00-0.345E-03
CGA:   3    -0.319068658864E+03   -0.11049E-01   -0.11107E-01  8112   0.543E-01-0.226E-03
CGA:   4    -0.319075653001E+03   -0.69941E-02   -0.69947E-02  8112   0.195E-01 0.506E-04
CGA:   5    -0.319077840178E+03   -0.21872E-02   -0.21859E-02  8112   0.524E-02-0.190E-04
CGA:   6    -0.319078566371E+03   -0.72619E-03   -0.72620E-03  8112   0.209E-02-0.405E-05
CGA:   7    -0.319078772232E+03   -0.20586E-03   -0.20587E-03  8112   0.110E-02-0.589E-06
CGA:   8    -0.319078894714E+03   -0.12248E-03   -0.12249E-03  8112   0.322E-03 0.748E-06
CGA:   9    -0.319078945806E+03   -0.51092E-04   -0.51062E-04  8112   0.152E-03 0.108E-05
CGA:  10    -0.319078966136E+03   -0.20330E-04   -0.20330E-04  8112   0.102E-03-0.131E-06
CGA:  11    -0.319078976622E+03   -0.10485E-04   -0.10477E-04  8112   0.464E-04-0.295E-06
CGA:  12    -0.319078984092E+03   -0.74702E-05   -0.74792E-05  8112   0.241E-04-0.296E-06
  33 F= -.31907898E+03 E0= -.31907407E+03  d E =0.388515E-02  mag=    44.0000
       N       E                     dE             d eps       ncg     rms          ort
SDA:   1    -0.318960267153E+03    0.11871E+00    0.00000E+00  8112   0.303E+00 0.000E+00
CGA:   2    -0.319036895260E+03   -0.76628E-01   -0.76632E-01  8112   0.195E+00-0.195E-04
CGA:   3    -0.319054846964E+03   -0.17952E-01   -0.17957E-01  8112   0.113E+00-0.157E-03
CGA:   4    -0.319067641257E+03   -0.12794E-01   -0.12800E-01  8112   0.267E-01 0.703E-04
CGA:   5    -0.319071011652E+03   -0.33704E-02   -0.33696E-02  8112   0.787E-02-0.380E-04
CGA:   6    -0.319072005126E+03   -0.99347E-03   -0.99360E-03  8112   0.379E-02 0.726E-05
CGA:   7    -0.319072382230E+03   -0.37710E-03   -0.37705E-03  8112   0.159E-02-0.306E-07
CGA:   8    -0.319072550966E+03   -0.16874E-03   -0.16872E-03  8112   0.588E-03-0.108E-06
CGA:   9    -0.319072640394E+03   -0.89428E-04   -0.89415E-04  8112   0.236E-03 0.568E-06
CGA:  10    -0.319072675797E+03   -0.35403E-04   -0.35402E-04  8112   0.187E-03 0.369E-07
CGA:  11    -0.319072694021E+03   -0.18224E-04   -0.18221E-04  8112   0.798E-04-0.726E-07
CGA:  12    -0.319072708254E+03   -0.14233E-04   -0.14239E-04  8112   0.436E-04-0.138E-06
CGA:  13    -0.319072714996E+03   -0.67424E-05   -0.67444E-05  8112   0.314E-04-0.998E-07
  34 F= -.31907271E+03 E0= -.31906780E+03  d E =0.626910E-02  mag=    44.0000
       N       E                     dE             d eps       ncg     rms          ort
SDA:   1    -0.318655823609E+03    0.41688E+00    0.00000E+00  8112   0.107E+01 0.000E+00
CGA:   2    -0.318940908450E+03   -0.28508E+00   -0.28505E+00  8112   0.503E+00 0.238E-03
CGA:   3    -0.319028112986E+03   -0.87205E-01   -0.87225E-01  8112   0.186E+00-0.430E-03
CGA:   4    -0.319049748061E+03   -0.21635E-01   -0.21644E-01  8112   0.862E-01 0.865E-04
CGA:   5    -0.319056348655E+03   -0.66006E-02   -0.65755E-02  8112   0.233E-01 0.990E-04
CGA:   6    -0.319059951954E+03   -0.36033E-02   -0.36029E-02  8112   0.661E-02 0.155E-04
CGA:   7    -0.319060974977E+03   -0.10230E-02   -0.10230E-02  8112   0.322E-02 0.156E-05
CGA:   8    -0.319061287268E+03   -0.31229E-03   -0.31242E-03  8112   0.174E-02 0.889E-06
CGA:   9    -0.319061494194E+03   -0.20693E-03   -0.20693E-03  8112   0.632E-03 0.174E-06
CGA:  10    -0.319061607000E+03   -0.11281E-03   -0.11282E-03  8112   0.314E-03-0.174E-06
CGA:  11    -0.319061649856E+03   -0.42856E-04   -0.42856E-04  8112   0.281E-03 0.173E-06
CGA:  12    -0.319061680427E+03   -0.30571E-04   -0.30578E-04  8112   0.109E-03 0.209E-06
CGA:  13    -0.319061700194E+03   -0.19767E-04   -0.19762E-04  8112   0.557E-04 0.122E-06
CGA:  14    -0.319061707749E+03   -0.75549E-05   -0.75555E-05  8112   0.416E-04 0.182E-06
  35 F= -.31906171E+03 E0= -.31905681E+03  d E =0.110072E-01  mag=    44.0000
       N       E                     dE             d eps       ncg     rms          ort
SDA:   1    -0.318932843889E+03    0.12886E+00    0.00000E+00  8112   0.344E+00 0.000E+00
CGA:   2    -0.318996752632E+03   -0.63909E-01   -0.63899E-01  8112   0.507E+00 0.426E-03
CGA:   3    -0.319039623888E+03   -0.42871E-01   -0.42859E-01  8112   0.972E-01-0.102E-02
CGA:   4    -0.319055129565E+03   -0.15506E-01   -0.15508E-01  8112   0.266E-01-0.839E-04
CGA:   5    -0.319058727721E+03   -0.35982E-02   -0.35983E-02  8112   0.866E-02 0.326E-04
CGA:   6    -0.319059564342E+03   -0.83662E-03   -0.83589E-03  8112   0.499E-02 0.131E-05
CGA:   7    -0.319060106563E+03   -0.54222E-03   -0.54230E-03  8112   0.115E-02 0.173E-05
CGA:   8    -0.319060294382E+03   -0.18782E-03   -0.18783E-03  8112   0.575E-03-0.675E-06
CGA:   9    -0.319060358013E+03   -0.63631E-04   -0.63610E-04  8112   0.254E-03-0.643E-06
CGA:  10    -0.319060388388E+03   -0.30374E-04   -0.30377E-04  8112   0.171E-03 0.207E-06
CGA:  11    -0.319060408471E+03   -0.20084E-04   -0.20093E-04  8112   0.573E-04 0.529E-06
CGA:  12    -0.319060420187E+03   -0.11716E-04   -0.11717E-04  8112   0.402E-04-0.817E-08
CGA:  13    -0.319060424813E+03   -0.46260E-05   -0.46243E-05  8112   0.284E-04-0.901E-07
  36 F= -.31906042E+03 E0= -.31905553E+03  d E =0.128294E-02  mag=    44.0000
       N       E                     dE             d eps       ncg     rms          ort
SDA:   1    -0.318581184934E+03    0.47924E+00    0.00000E+00  8112   0.127E+01 0.000E+00
CGA:   2    -0.318834283310E+03   -0.25310E+00   -0.25234E+00  8112   0.172E+01 0.129E-01
CGA:   3    -0.318975446011E+03   -0.14116E+00   -0.14037E+00  8112   0.397E+00-0.135E-01
CGA:   4    -0.319036419441E+03   -0.60973E-01   -0.61001E-01  8112   0.104E+00-0.885E-03
CGA:   5    -0.319049238551E+03   -0.12819E-01   -0.12825E-01  8112   0.484E-01 0.220E-03
CGA:   6    -0.319053326796E+03   -0.40882E-02   -0.40813E-02  8112   0.172E-01 0.146E-04
CGA:   7    -0.319055599604E+03   -0.22728E-02   -0.22728E-02  8112   0.553E-02 0.156E-04
CGA:   8    -0.319056344615E+03   -0.74501E-03   -0.74502E-03  8112   0.284E-02-0.295E-05
CGA:   9    -0.319056638322E+03   -0.29371E-03   -0.29375E-03  8112   0.130E-02-0.582E-06
CGA:  10    -0.319056785979E+03   -0.14766E-03   -0.14766E-03  8112   0.607E-03 0.339E-06
CGA:  11    -0.319056877295E+03   -0.91316E-04   -0.91287E-04  8112   0.270E-03 0.137E-05
CGA:  12    -0.319056915312E+03   -0.38018E-04   -0.38013E-04  8112   0.230E-03 0.476E-06
CGA:  13    -0.319056940388E+03   -0.25076E-04   -0.25078E-04  8112   0.934E-04 0.412E-07
CGA:  14    -0.319056956269E+03   -0.15880E-04   -0.15887E-04  8112   0.528E-04-0.181E-06
CGA:  15    -0.319056962804E+03   -0.65350E-05   -0.65370E-05  8112   0.327E-04 0.223E-06
  37 F= -.31905696E+03 E0= -.31905209E+03  d E =0.346201E-02  mag=    44.0000
       N       E                     dE             d eps       ncg     rms          ort
SDA:   1    -0.316271987868E+03    0.27850E+01    0.00000E+00  8112   0.701E+01 0.000E+00
CGA:   2    -0.318024488619E+03   -0.17525E+01   -0.17324E+01  8112   0.744E+01 0.205E+00
CGA:   3    -0.318629787053E+03   -0.60530E+00   -0.58347E+00  8112   0.227E+01-0.210E+00
CGA:   4    -0.318935800272E+03   -0.30601E+00   -0.30633E+00  8112   0.604E+00-0.341E-01
CGA:   5    -0.319008664304E+03   -0.72864E-01   -0.72962E-01  8112   0.224E+00 0.346E-02
CGA:   6    -0.319028272593E+03   -0.19608E-01   -0.19490E-01  8112   0.102E+00-0.131E-03
CGA:   7    -0.319041132148E+03   -0.12860E-01   -0.12861E-01  8112   0.268E-01 0.203E-03
CGA:   8    -0.319044829288E+03   -0.36971E-02   -0.36965E-02  8112   0.163E-01 0.529E-04
CGA:   9    -0.319046338903E+03   -0.15096E-02   -0.15119E-02  8112   0.622E-02 0.214E-05
CGA:  10    -0.319047164490E+03   -0.82559E-03   -0.82559E-03  8112   0.325E-02-0.749E-06
CGA:  11    -0.319047608441E+03   -0.44395E-03   -0.44383E-03  8112   0.167E-02 0.111E-04
CGA:  12    -0.319047813152E+03   -0.20471E-03   -0.20475E-03  8112   0.123E-02 0.378E-05
CGA:  13    -0.319047969985E+03   -0.15683E-03   -0.15684E-03  8112   0.560E-03 0.348E-05
CGA:  14    -0.319048054421E+03   -0.84436E-04   -0.84396E-04  8112   0.320E-03 0.174E-05
CGA:  15    -0.319048092364E+03   -0.37942E-04   -0.37957E-04  8112   0.208E-03 0.938E-06
CGA:  16    -0.319048115753E+03   -0.23389E-04   -0.23404E-04  8112   0.674E-04 0.823E-06
CGA:  17    -0.319048125898E+03   -0.10145E-04   -0.10126E-04  8112   0.361E-04 0.878E-06
CGA:  18    -0.319048129620E+03   -0.37225E-05   -0.37329E-05  8112   0.185E-04 0.367E-06
  38 F= -.31904813E+03 E0= -.31904333E+03  d E =0.883318E-02  mag=    44.0000
       N       E                     dE             d eps       ncg     rms          ort
SDA:   1    -0.288480722604E+03    0.30567E+02    0.00000E+00  8112   0.783E+02 0.000E+00
CGA:   2    -0.307957258101E+03   -0.19477E+02   -0.19042E+02  8112   0.740E+02 0.163E+01
CGA:   3    -0.314400595730E+03   -0.64433E+01   -0.63559E+01  8112   0.251E+02-0.341E+01
CGA:   4    -0.317550332171E+03   -0.31497E+01   -0.31469E+01  8112   0.130E+02-0.472E+01
CGA:   5    -0.318299578079E+03   -0.74925E+00   -0.75206E+00  8112   0.404E+01-0.487E+00
CGA:   6    -0.318647909078E+03   -0.34833E+00   -0.34040E+00  8112   0.228E+01-0.283E-01
CGA:   7    -0.318808921583E+03   -0.16101E+00   -0.17256E+00  8112   0.956E+00-0.392E-01
CGA:   8    -0.318894421387E+03   -0.85500E-01   -0.86540E-01  8112   0.522E+00 0.441E-02
CGA:   9    -0.318938562748E+03   -0.44141E-01   -0.45847E-01  8112   0.205E+00 0.655E-02
CGA:  10    -0.318960496839E+03   -0.21934E-01   -0.21976E-01  8112   0.123E+00 0.993E-03
CGA:  11    -0.318971943758E+03   -0.11447E-01   -0.11673E-01  8112   0.505E-01 0.230E-02
CGA:  12    -0.318979256290E+03   -0.73125E-02   -0.72829E-02  8112   0.384E-01 0.871E-03
CGA:  13    -0.318982775346E+03   -0.35191E-02   -0.35599E-02  8112   0.163E-01 0.282E-03
CGA:  14    -0.318985465577E+03   -0.26902E-02   -0.26778E-02  8112   0.124E-01 0.223E-03
CGA:  15    -0.318986672666E+03   -0.12071E-02   -0.12177E-02  8112   0.556E-02 0.127E-03
CGA:  16    -0.318987472410E+03   -0.79974E-03   -0.79790E-03  8112   0.323E-02 0.580E-04
CGA:  17    -0.318987828962E+03   -0.35655E-03   -0.35725E-03  8112   0.158E-02 0.305E-04
CGA:  18    -0.318988023231E+03   -0.19427E-03   -0.19424E-03  8112   0.747E-03 0.126E-04
CGA:  19    -0.318988111793E+03   -0.88563E-04   -0.88593E-04  8112   0.352E-03 0.911E-05
CGA:  20    -0.318988153814E+03   -0.42020E-04   -0.42029E-04  8112   0.181E-03 0.365E-05
CGA:  21    -0.318988177705E+03   -0.23892E-04   -0.23871E-04  8112   0.991E-04 0.173E-05
CGA:  22    -0.318988190255E+03   -0.12549E-04   -0.12547E-04  8112   0.565E-04 0.458E-06
CGA:  23    -0.318988198253E+03   -0.79984E-05   -0.79986E-05  8112   0.395E-04-0.611E-07
  39 F= -.31898820E+03 E0= -.31898360E+03  d E =0.599314E-01  mag=    44.0000
       N       E                     dE             d eps       ncg     rms          ort
SDA:   1    -0.314942084352E+03    0.40461E+01    0.00000E+00  8112   0.105E+02 0.000E+00
CGA:   2    -0.317693729754E+03   -0.27516E+01   -0.27387E+01  8112   0.747E+01 0.129E+00
CGA:   3    -0.318439470402E+03   -0.74574E+00   -0.74679E+00  8112   0.404E+01-0.845E-01
CGA:   4    -0.318843821438E+03   -0.40435E+00   -0.39491E+00  8112   0.105E+01-0.853E-01
CGA:   5    -0.318974691038E+03   -0.13087E+00   -0.13084E+00  8112   0.259E+00 0.105E-01
CGA:   6    -0.319010302901E+03   -0.35612E-01   -0.35665E-01  8112   0.150E+00-0.303E-02
CGA:   7    -0.319023036525E+03   -0.12734E-01   -0.12806E-01  8112   0.564E-01-0.146E-04
CGA:   8    -0.319029446919E+03   -0.64104E-02   -0.64126E-02  8112   0.224E-01 0.854E-04
CGA:   9    -0.319032601050E+03   -0.31541E-02   -0.31545E-02  8112   0.789E-02-0.128E-04
CGA:  10    -0.319033700478E+03   -0.10994E-02   -0.10993E-02  8112   0.715E-02 0.700E-05
CGA:  11    -0.319034379484E+03   -0.67901E-03   -0.68030E-03  8112   0.234E-02 0.117E-04
CGA:  12    -0.319034802794E+03   -0.42331E-03   -0.42304E-03  8112   0.142E-02 0.489E-05
CGA:  13    -0.319035010503E+03   -0.20771E-03   -0.20756E-03  8112   0.108E-02 0.606E-05
CGA:  14    -0.319035111557E+03   -0.10105E-03   -0.10113E-03  8112   0.462E-03 0.203E-05
CGA:  15    -0.319035187813E+03   -0.76255E-04   -0.76180E-04  8112   0.208E-03 0.193E-05
CGA:  16    -0.319035215746E+03   -0.27934E-04   -0.27926E-04  8112   0.120E-03 0.137E-05
CGA:  17    -0.319035227660E+03   -0.11914E-04   -0.11937E-04  8112   0.584E-04 0.731E-06
CGA:  18    -0.319035235044E+03   -0.73840E-05   -0.73849E-05  8112   0.224E-04 0.563E-06
  40 F= -.31903524E+03 E0= -.31903052E+03  d E =-.470368E-01  mag=    44.0000
       N       E                     dE             d eps       ncg     rms          ort
SDA:   1    -0.317416484822E+03    0.16187E+01    0.00000E+00  8112   0.443E+01 0.000E+00
CGA:   2    -0.318444523619E+03   -0.10280E+01   -0.10277E+01  8112   0.243E+01 0.381E-02
CGA:   3    -0.318844377030E+03   -0.39985E+00   -0.40027E+00  8112   0.135E+01-0.790E-02
CGA:   4    -0.318946542651E+03   -0.10217E+00   -0.10357E+00  8112   0.506E+00-0.152E-01
CGA:   5    -0.319004642728E+03   -0.58100E-01   -0.58067E-01  8112   0.110E+00-0.781E-03
CGA:   6    -0.319022568953E+03   -0.17926E-01   -0.17928E-01  8112   0.525E-01-0.407E-04
CGA:   7    -0.319026975551E+03   -0.44066E-02   -0.44035E-02  8112   0.237E-01-0.232E-05
CGA:   8    -0.319030011557E+03   -0.30360E-02   -0.30361E-02  8112   0.849E-02 0.293E-04
CGA:   9    -0.319031138670E+03   -0.11271E-02   -0.11271E-02  8112   0.418E-02-0.121E-05
CGA:  10    -0.319031630875E+03   -0.49220E-03   -0.49229E-03  8112   0.258E-02 0.267E-05
CGA:  11    -0.319031902191E+03   -0.27132E-03   -0.27135E-03  8112   0.108E-02 0.857E-06
CGA:  12    -0.319032070956E+03   -0.16877E-03   -0.16870E-03  8112   0.556E-03 0.241E-05
CGA:  13    -0.319032141574E+03   -0.70617E-04   -0.70622E-04  8112   0.398E-03 0.167E-05
CGA:  14    -0.319032183860E+03   -0.42286E-04   -0.42316E-04  8112   0.172E-03 0.103E-05
CGA:  15    -0.319032211520E+03   -0.27660E-04   -0.27659E-04  8112   0.828E-04 0.182E-07
CGA:  16    -0.319032221754E+03   -0.10234E-04   -0.10232E-04  8112   0.616E-04-0.230E-06
CGA:  17    -0.319032228113E+03   -0.63592E-05   -0.63556E-05  8112   0.192E-04-0.135E-06
  41 F= -.31903223E+03 E0= -.31902746E+03  d E =0.300693E-02  mag=    44.0000
       N       E                     dE             d eps       ncg     rms          ort
SDA:   1    -0.317941764835E+03    0.10905E+01    0.00000E+00  8112   0.281E+01 0.000E+00
CGA:   2    -0.318695600410E+03   -0.75384E+00   -0.75402E+00  8112   0.158E+01-0.123E-02
CGA:   3    -0.318947167821E+03   -0.25157E+00   -0.25132E+00  8112   0.505E+00 0.661E-02
CGA:   4    -0.319011047420E+03   -0.63880E-01   -0.63828E-01  8112   0.183E+00-0.166E-02
CGA:   5    -0.319027241817E+03   -0.16194E-01   -0.16298E-01  8112   0.855E-01-0.197E-03
CGA:   6    -0.319035867302E+03   -0.86255E-02   -0.86232E-02  8112   0.281E-01-0.941E-05
CGA:   7    -0.319039583915E+03   -0.37166E-02   -0.37166E-02  8112   0.885E-02-0.246E-04
CGA:   8    -0.319041038611E+03   -0.14547E-02   -0.14545E-02  8112   0.408E-02 0.492E-05
CGA:   9    -0.319041423123E+03   -0.38451E-03   -0.38479E-03  8112   0.253E-02 0.133E-05
CGA:  10    -0.319041735722E+03   -0.31260E-03   -0.31261E-03  8112   0.867E-03 0.141E-05
CGA:  11    -0.319041887430E+03   -0.15171E-03   -0.15162E-03  8112   0.515E-03 0.181E-05
CGA:  12    -0.319041954427E+03   -0.66996E-04   -0.66994E-04  8112   0.359E-03-0.203E-06
CGA:  13    -0.319041991620E+03   -0.37193E-04   -0.37198E-04  8112   0.188E-03 0.452E-07
CGA:  14    -0.319042018444E+03   -0.26824E-04   -0.26817E-04  8112   0.734E-04 0.618E-06
CGA:  15    -0.319042030823E+03   -0.12379E-04   -0.12356E-04  8112   0.423E-04 0.679E-06
CGA:  16    -0.319042034926E+03   -0.41030E-05   -0.41160E-05  8112   0.240E-04 0.339E-06
  42 F= -.31904203E+03 E0= -.31903732E+03  d E =-.980681E-02  mag=    44.0000
       N       E                     dE             d eps       ncg     rms          ort
SDA:   1    -0.318909678433E+03    0.13235E+00    0.00000E+00  8112   0.321E+00 0.000E+00
CGA:   2    -0.319002098929E+03   -0.92420E-01   -0.92389E-01  8112   0.252E+00 0.224E-03
CGA:   3    -0.319022168703E+03   -0.20070E-01   -0.20143E-01  8112   0.117E+00-0.763E-03
CGA:   4    -0.319035354704E+03   -0.13186E-01   -0.13171E-01  8112   0.271E-01-0.191E-03
CGA:   5    -0.319038668822E+03   -0.33141E-02   -0.33161E-02  8112   0.921E-02 0.632E-04
CGA:   6    -0.319039773095E+03   -0.11043E-02   -0.11039E-02  8112   0.416E-02-0.562E-05
CGA:   7    -0.319040150719E+03   -0.37762E-03   -0.37773E-03  8112   0.192E-02 0.760E-07
CGA:   8    -0.319040377463E+03   -0.22674E-03   -0.22673E-03  8112   0.497E-03-0.127E-05
CGA:   9    -0.319040461903E+03   -0.84440E-04   -0.84474E-04  8112   0.306E-03-0.854E-06
CGA:  10    -0.319040489217E+03   -0.27314E-04   -0.27316E-04  8112   0.150E-03 0.128E-06
CGA:  11    -0.319040509990E+03   -0.20772E-04   -0.20769E-04  8112   0.722E-04 0.510E-06
[...]
CGA:  19    -0.318573417361E+03   -0.25053E-04   -0.25129E-04  8112   0.862E-04 0.180E-05
CGA:  20    -0.318573433303E+03   -0.15942E-04   -0.15883E-04  8112   0.532E-04 0.108E-05
CGA:  21    -0.318573439867E+03   -0.65631E-05   -0.65675E-05  8112   0.341E-04 0.418E-06
  62 F= -.31857344E+03 E0= -.31856896E+03  d E =0.494148E+00  mag=    44.0000
       N       E                     dE             d eps       ncg     rms          ort
SDA:   1    -0.229061256084E+03    0.89512E+02    0.00000E+00  8112   0.703E+03 0.000E+00
CGA:   2    -0.284611208553E+03   -0.55550E+02   -0.26009E+02  8112   0.103E+03 0.806E+02
CGA:   3    -0.304481394164E+03   -0.19870E+02   -0.19861E+02  8112   0.781E+02-0.637E+01
CGA:   4    -0.312069496221E+03   -0.75881E+01   -0.73401E+01  8112   0.362E+02-0.168E+01
CGA:   5    -0.314544241774E+03   -0.24747E+01   -0.29391E+01  8112   0.538E+02 0.462E+00
CGA:   6    -0.316499954361E+03   -0.19557E+01   -0.17021E+01  8112   0.135E+02 0.374E+01
CGA:   7    -0.317195478026E+03   -0.69552E+00   -0.78896E+00  8112   0.127E+02-0.207E+01
CGA:   8    -0.317727753213E+03   -0.53228E+00   -0.68290E+00  8112   0.108E+02-0.234E+00
CGA:   9    -0.318218081758E+03   -0.49033E+00   -0.46562E+00  8112   0.252E+01-0.874E-01
CGA:  10    -0.318336224993E+03   -0.11814E+00   -0.12361E+00  8112   0.231E+01-0.907E-01
CGA:  11    -0.318521719682E+03   -0.18549E+00   -0.18806E+00  8112   0.167E+01 0.246E-01
CGA:  12    -0.318610998824E+03   -0.89279E-01   -0.10059E+00  8112   0.843E+00-0.407E-01
CGA:  13    -0.318672516074E+03   -0.61517E-01   -0.62294E-01  8112   0.411E+00 0.479E-02
CGA:  14    -0.318710482206E+03   -0.37966E-01   -0.38367E-01  8112   0.264E+00 0.171E-01
CGA:  15    -0.318739128447E+03   -0.28646E-01   -0.28594E-01  8112   0.139E+00 0.125E-01
CGA:  16    -0.318752649936E+03   -0.13521E-01   -0.13545E-01  8112   0.818E-01 0.107E-02
CGA:  17    -0.318761137271E+03   -0.84873E-02   -0.84860E-02  8112   0.313E-01 0.488E-03
CGA:  18    -0.318766840612E+03   -0.57033E-02   -0.56728E-02  8112   0.144E-01 0.340E-03
CGA:  19    -0.318768735108E+03   -0.18945E-02   -0.18915E-02  8112   0.141E-01 0.841E-04
CGA:  20    -0.318770134480E+03   -0.13994E-02   -0.14001E-02  8112   0.516E-02 0.366E-04
CGA:  21    -0.318770906305E+03   -0.77182E-03   -0.77165E-03  8112   0.278E-02 0.264E-05
CGA:  22    -0.318771397906E+03   -0.49160E-03   -0.49164E-03  8112   0.149E-02-0.150E-05
CGA:  23    -0.318771568144E+03   -0.17024E-03   -0.17023E-03  8112   0.103E-02 0.751E-06
CGA:  24    -0.318771688613E+03   -0.12047E-03   -0.12045E-03  8112   0.645E-03 0.359E-05
CGA:  25    -0.318771771513E+03   -0.82900E-04   -0.82806E-04  8112   0.216E-03 0.568E-05
CGA:  26    -0.318771824977E+03   -0.53464E-04   -0.52681E-04  8112   0.136E-03 0.610E-05
CGA:  27    -0.318771844795E+03   -0.19818E-04   -0.19790E-04  8112   0.888E-04 0.125E-05
CGA:  28    -0.318771854343E+03   -0.95482E-05   -0.95524E-05  8112   0.651E-04 0.223E-06
  63 F= -.31877185E+03 E0= -.31876747E+03  d E =-.198414E+00  mag=    44.0000
       N       E                     dE             d eps       ncg     rms          ort
SDA:   1    -0.313121294449E+03    0.56506E+01    0.00000E+00  8112   0.197E+02 0.000E+00
CGA:   2    -0.316434585059E+03   -0.33133E+01   -0.33093E+01  8112   0.107E+02 0.637E-01
CGA:   3    -0.317870506801E+03   -0.14359E+01   -0.14337E+01  8112   0.777E+01 0.156E+00
CGA:   4    -0.318614510436E+03   -0.74400E+00   -0.72794E+00  8112   0.266E+01-0.165E+00
CGA:   5    -0.318900077711E+03   -0.28557E+00   -0.28609E+00  8112   0.813E+00 0.160E-01
CGA:   6    -0.319005560623E+03   -0.10548E+00   -0.10549E+00  8112   0.265E+00-0.242E-03
CGA:   7    -0.319044291235E+03   -0.38731E-01   -0.38622E-01  8112   0.998E-01 0.290E-02
CGA:   8    -0.319054657158E+03   -0.10366E-01   -0.10377E-01  8112   0.637E-01 0.175E-03
CGA:   9    -0.319061122785E+03   -0.64656E-02   -0.64698E-02  8112   0.249E-01 0.759E-04
CGA:  10    -0.319064310890E+03   -0.31881E-02   -0.31862E-02  8112   0.864E-02 0.166E-03
CGA:  11    -0.319065915275E+03   -0.16044E-02   -0.16030E-02  8112   0.503E-02 0.201E-04
CGA:  12    -0.319066552293E+03   -0.63702E-03   -0.63697E-03  8112   0.254E-02 0.167E-04
CGA:  13    -0.319066831353E+03   -0.27906E-03   -0.27920E-03  8112   0.189E-02 0.479E-05
CGA:  14    -0.319067069859E+03   -0.23851E-03   -0.23849E-03  8112   0.574E-03 0.408E-05
CGA:  15    -0.319067171657E+03   -0.10180E-03   -0.10165E-03  8112   0.385E-03 0.259E-05
CGA:  16    -0.319067227538E+03   -0.55880E-04   -0.55849E-04  8112   0.173E-03 0.165E-05
CGA:  17    -0.319067244228E+03   -0.16690E-04   -0.16709E-04  8112   0.110E-03 0.492E-06
CGA:  18    -0.319067259519E+03   -0.15291E-04   -0.15284E-04  8112   0.421E-04 0.481E-06
CGA:  19    -0.319067265786E+03   -0.62671E-05   -0.62602E-05  8112   0.186E-04 0.316E-06
  64 F= -.31906727E+03 E0= -.31906280E+03  d E =-.295411E+00  mag=    44.0000
       N       E                     dE             d eps       ncg     rms          ort
SDA:   1    -0.318873013277E+03    0.19425E+00    0.00000E+00  8112   0.581E+00 0.000E+00
CGA:   2    -0.319002615534E+03   -0.12960E+00   -0.12958E+00  8112   0.314E+00 0.326E-03
CGA:   3    -0.319053322697E+03   -0.50707E-01   -0.50684E-01  8112   0.184E+00 0.585E-03
CGA:   4    -0.319068298450E+03   -0.14976E-01   -0.14991E-01  8112   0.664E-01-0.169E-03
CGA:   5    -0.319075447262E+03   -0.71488E-02   -0.71488E-02  8112   0.202E-01-0.107E-04
CGA:   6    -0.319078037961E+03   -0.25907E-02   -0.25908E-02  8112   0.689E-02 0.121E-04
CGA:   7    -0.319078948120E+03   -0.91016E-03   -0.91016E-03  8112   0.313E-02-0.413E-06
CGA:   8    -0.319079234153E+03   -0.28603E-03   -0.28604E-03  8112   0.159E-02 0.152E-06
CGA:   9    -0.319079442408E+03   -0.20826E-03   -0.20825E-03  8112   0.494E-03 0.126E-05
CGA:  10    -0.319079516847E+03   -0.74438E-04   -0.74410E-04  8112   0.306E-03 0.133E-05
CGA:  11    -0.319079555075E+03   -0.38229E-04   -0.38231E-04  8112   0.183E-03 0.391E-06
CGA:  12    -0.319079573485E+03   -0.18409E-04   -0.18405E-04  8112   0.832E-04-0.134E-06
CGA:  13    -0.319079587214E+03   -0.13729E-04   -0.13745E-04  8112   0.419E-04-0.419E-06
CGA:  14    -0.319079592758E+03   -0.55442E-05   -0.55438E-05  8112   0.252E-04 0.166E-06
  65 F= -.31907959E+03 E0= -.31907512E+03  d E =-.123270E-01  mag=    44.0000
       N       E                     dE             d eps       ncg     rms          ort
SDA:   1    -0.318275465273E+03    0.80412E+00    0.00000E+00  8112   0.214E+01 0.000E+00
CGA:   2    -0.318794165126E+03   -0.51870E+00   -0.51821E+00  8112   0.153E+01 0.498E-02
CGA:   3    -0.318940966508E+03   -0.14680E+00   -0.14654E+00  8112   0.886E+00-0.750E-02
CGA:   4    -0.319033877042E+03   -0.92911E-01   -0.92891E-01  8112   0.232E+00-0.502E-03
CGA:   5    -0.319061097122E+03   -0.27220E-01   -0.27191E-01  8112   0.762E-01-0.756E-03
CGA:   6    -0.319070955829E+03   -0.98587E-02   -0.98589E-02  8112   0.296E-01 0.675E-04
CGA:   7    -0.319073700960E+03   -0.27451E-02   -0.27458E-02  8112   0.154E-01-0.154E-05
CGA:   8    -0.319075519026E+03   -0.18181E-02   -0.18182E-02  8112   0.419E-02 0.278E-05
CGA:   9    -0.319076195788E+03   -0.67676E-03   -0.67667E-03  8112   0.247E-02 0.273E-05
CGA:  10    -0.319076448142E+03   -0.25235E-03   -0.25249E-03  8112   0.132E-02 0.266E-05
CGA:  11    -0.319076611118E+03   -0.16298E-03   -0.16299E-03  8112   0.680E-03 0.174E-05
CGA:  12    -0.319076708322E+03   -0.97204E-04   -0.97209E-04  8112   0.326E-03-0.320E-06
CGA:  13    -0.319076754602E+03   -0.46281E-04   -0.46290E-04  8112   0.243E-03-0.765E-06
CGA:  14    -0.319076780440E+03   -0.25837E-04   -0.25840E-04  8112   0.118E-03 0.425E-07
CGA:  15    -0.319076796140E+03   -0.15700E-04   -0.15696E-04  8112   0.473E-04 0.117E-05
CGA:  16    -0.319076803793E+03   -0.76528E-05   -0.76022E-05  8112   0.306E-04 0.167E-05
  66 F= -.31907680E+03 E0= -.31907235E+03  d E =0.278897E-02  mag=    44.0000
       N       E                     dE             d eps       ncg     rms          ort
SDA:   1    -0.318742404121E+03    0.33439E+00    0.00000E+00  8112   0.864E+00 0.000E+00
CGA:   2    -0.318971863442E+03   -0.22946E+00   -0.22948E+00  8112   0.452E+00-0.145E-03
CGA:   3    -0.319030114242E+03   -0.58251E-01   -0.58280E-01  8112   0.207E+00 0.203E-02
CGA:   4    -0.319058686831E+03   -0.28573E-01   -0.28572E-01  8112   0.392E-01 0.760E-05
CGA:   5    -0.319064056768E+03   -0.53699E-02   -0.53699E-02  8112   0.210E-01 0.426E-05
CGA:   6    -0.319065922872E+03   -0.18661E-02   -0.18661E-02  8112   0.896E-02 0.233E-06
CGA:   7    -0.319066839693E+03   -0.91682E-03   -0.91712E-03  8112   0.258E-02-0.144E-05
CGA:   8    -0.319067259955E+03   -0.42026E-03   -0.42042E-03  8112   0.108E-02-0.465E-05
CGA:   9    -0.319067418913E+03   -0.15896E-03   -0.15894E-03  8112   0.614E-03 0.130E-05
CGA:  10    -0.319067494790E+03   -0.75877E-04   -0.75886E-04  8112   0.436E-03 0.925E-06
CGA:  11    -0.319067538403E+03   -0.43613E-04   -0.43613E-04  8112   0.183E-03-0.342E-07
CGA:  12    -0.319067575333E+03   -0.36930E-04   -0.37028E-04  8112   0.966E-04-0.138E-05
CGA:  13    -0.319067589256E+03   -0.13923E-04   -0.13922E-04  8112   0.577E-04 0.799E-07
CGA:  14    -0.319067595736E+03   -0.64799E-05   -0.64984E-05  8112   0.396E-04 0.806E-06
  67 F= -.31906760E+03 E0= -.31906315E+03  d E =0.920806E-02  mag=    44.0000
       N       E                     dE             d eps       ncg     rms          ort
SDA:   1    -0.318151835293E+03    0.91575E+00    0.00000E+00  8112   0.264E+01 0.000E+00
CGA:   2    -0.318731215364E+03   -0.57938E+00   -0.57853E+00  8112   0.163E+01 0.932E-02
CGA:   3    -0.318902334042E+03   -0.17112E+00   -0.17016E+00  8112   0.795E+00-0.842E-02
CGA:   4    -0.318989413665E+03   -0.87080E-01   -0.87153E-01  8112   0.415E+00 0.181E-03
CGA:   5    -0.319026885190E+03   -0.37472E-01   -0.37412E-01  8112   0.785E-01-0.526E-03
CGA:   6    -0.319038605531E+03   -0.11720E-01   -0.11721E-01  8112   0.310E-01-0.628E-05
CGA:   7    -0.319042565155E+03   -0.39596E-02   -0.39596E-02  8112   0.130E-01-0.211E-05
CGA:   8    -0.319043761585E+03   -0.11964E-02   -0.11972E-02  8112   0.709E-02-0.964E-06
CGA:   9    -0.319044659842E+03   -0.89826E-03   -0.89826E-03  8112   0.228E-02-0.291E-06
CGA:  10    -0.319045083710E+03   -0.42387E-03   -0.42364E-03  8112   0.153E-02 0.395E-05
CGA:  11    -0.319045268094E+03   -0.18438E-03   -0.18441E-03  8112   0.999E-03 0.130E-05
CGA:  12    -0.319045381111E+03   -0.11302E-03   -0.11303E-03  8112   0.576E-03 0.229E-06
CGA:  13    -0.319045466905E+03   -0.85793E-04   -0.85800E-04  8112   0.271E-03-0.480E-06
CGA:  14    -0.319045508115E+03   -0.41210E-04   -0.41203E-04  8112   0.145E-03 0.367E-06
CGA:  15    -0.319045524874E+03   -0.16759E-04   -0.16772E-04  8112   0.104E-03 0.691E-06
CGA:  16    -0.319045536321E+03   -0.11447E-04   -0.11467E-04  8112   0.301E-04 0.863E-06
CGA:  17    -0.319045541210E+03   -0.48887E-05   -0.48738E-05  8112   0.153E-04 0.515E-06
  68 F= -.31904554E+03 E0= -.31904111E+03  d E =0.220545E-01  mag=    44.0000
       N       E                     dE             d eps       ncg     rms          ort
SDA:   1    -0.318190179459E+03    0.85536E+00    0.00000E+00  8112   0.234E+01 0.000E+00
CGA:   2    -0.318725348902E+03   -0.53517E+00   -0.53520E+00  8112   0.124E+01-0.301E-03
CGA:   3    -0.318938860488E+03   -0.21351E+00   -0.21342E+00  8112   0.449E+00 0.173E-02
CGA:   4    -0.319001135864E+03   -0.62275E-01   -0.62275E-01  8112   0.121E+00-0.310E-03
CGA:   5    -0.319017597023E+03   -0.16461E-01   -0.16462E-01  8112   0.562E-01 0.989E-04
CGA:   6    -0.319022578397E+03   -0.49814E-02   -0.49839E-02  8112   0.249E-01-0.772E-05
CGA:   7    -0.319025219431E+03   -0.26410E-02   -0.26411E-02  8112   0.877E-02 0.147E-05
CGA:   8    -0.319026473002E+03   -0.12536E-02   -0.12535E-02  8112   0.312E-02 0.376E-05
CGA:   9    -0.319026977039E+03   -0.50404E-03   -0.50403E-03  8112   0.158E-02-0.893E-07
CGA:  10    -0.319027159236E+03   -0.18220E-03   -0.18220E-03  8112   0.113E-02 0.132E-07
CGA:  11    -0.319027282475E+03   -0.12324E-03   -0.12326E-03  8112   0.470E-03 0.439E-06
CGA:  12    -0.319027350500E+03   -0.68025E-04   -0.68016E-04  8112   0.232E-03 0.750E-06
CGA:  13    -0.319027388853E+03   -0.38353E-04   -0.38333E-04  8112   0.130E-03 0.695E-06
CGA:  14    -0.319027403857E+03   -0.15004E-04   -0.15011E-04  8112   0.888E-04 0.314E-06
CGA:  15    -0.319027413385E+03   -0.95276E-05   -0.95338E-05  8112   0.351E-04 0.210E-06
  69 F= -.31902741E+03 E0= -.31902302E+03  d E =0.181278E-01  mag=    44.0000
       N       E                     dE             d eps       ncg     rms          ort
SDA:   1    -0.318736499140E+03    0.29090E+00    0.00000E+00  8112   0.898E+00 0.000E+00
CGA:   2    -0.318918989931E+03   -0.18249E+00   -0.18243E+00  8112   0.612E+00 0.878E-03
CGA:   3    -0.318982014085E+03   -0.63024E-01   -0.63061E-01  8112   0.412E+00-0.763E-03
CGA:   4    -0.319024635143E+03   -0.42621E-01   -0.42593E-01  8112   0.967E-01-0.250E-03
CGA:   5    -0.319037937816E+03   -0.13303E-01   -0.13303E-01  8112   0.309E-01-0.842E-04
CGA:   6    -0.319041856827E+03   -0.39190E-02   -0.39193E-02  8112   0.153E-01 0.163E-04
CGA:   7    -0.319043208412E+03   -0.13516E-02   -0.13515E-02  8112   0.609E-02 0.133E-06
CGA:   8    -0.319043946097E+03   -0.73768E-03   -0.73768E-03  8112   0.217E-02-0.122E-06
CGA:   9    -0.319044264360E+03   -0.31826E-03   -0.31824E-03  8112   0.995E-03 0.137E-05
CGA:  10    -0.319044381938E+03   -0.11758E-03   -0.11760E-03  8112   0.624E-03 0.131E-05
CGA:  11    -0.319044447149E+03   -0.65211E-04   -0.65238E-04  8112   0.278E-03 0.935E-06
CGA:  12    -0.319044491244E+03   -0.44094E-04   -0.44077E-04  8112   0.118E-03 0.635E-06
CGA:  13    -0.319044507839E+03   -0.16595E-04   -0.16594E-04  8112   0.937E-04 0.126E-06
CGA:  14    -0.319044517894E+03   -0.10055E-04   -0.10054E-04  8112   0.424E-04-0.338E-07
CGA:  15    -0.319044523656E+03   -0.57625E-05   -0.57631E-05  8112   0.211E-04-0.143E-06
  70 F= -.31904452E+03 E0= -.31904012E+03  d E =-.171103E-01  mag=    44.0000
       N       E                     dE             d eps       ncg     rms          ort
SDA:   1    -0.319037676488E+03    0.68414E-02    0.00000E+00  8112   0.228E-01 0.000E+00
CGA:   2    -0.319040803474E+03   -0.31270E-02   -0.31270E-02  8112   0.301E-01 0.607E-06
CGA:   3    -0.319043926531E+03   -0.31231E-02   -0.31224E-02  8112   0.568E-02-0.589E-05
CGA:   4    -0.319044896651E+03   -0.97012E-03   -0.96975E-03  8112   0.164E-02 0.900E-05
CGA:   5    -0.319045130903E+03   -0.23425E-03   -0.23423E-03  8112   0.552E-03 0.329E-05
CGA:   6    -0.319045185408E+03   -0.54504E-04   -0.54560E-04  8112   0.283E-03 0.152E-05
CGA:   7    -0.319045213387E+03   -0.27979E-04   -0.28000E-04  8112   0.982E-04 0.595E-06
CGA:   8    -0.319045225571E+03   -0.12184E-04   -0.12183E-04  8112   0.380E-04-0.194E-06
CGA:   9    -0.319045231120E+03   -0.55490E-05   -0.55524E-05  8112   0.148E-04-0.199E-06
  71 F= -.31904523E+03 E0= -.31904083E+03  d E =-.707464E-03  mag=    44.0000
       N       E                     dE             d eps       ncg     rms          ort
SDA:   1    -0.318728391158E+03    0.31683E+00    0.00000E+00  8112   0.834E+00 0.000E+00
CGA:   2    -0.318925295368E+03   -0.19690E+00   -0.19741E+00  8112   0.821E+00-0.451E-02
CGA:   3    -0.319001522437E+03   -0.76227E-01   -0.76271E-01  8112   0.276E+00-0.699E-03
CGA:   4    -0.319027608856E+03   -0.26086E-01   -0.26149E-01  8112   0.119E+00-0.371E-04
CGA:   5    -0.319040897256E+03   -0.13288E-01   -0.13282E-01  8112   0.268E-01-0.886E-04
CGA:   6    -0.319044542749E+03   -0.36455E-02   -0.36455E-02  8112   0.105E-01 0.135E-04
CGA:   7    -0.319045710188E+03   -0.11674E-02   -0.11676E-02  8112   0.532E-02 0.564E-05
CGA:   8    -0.319046196086E+03   -0.48590E-03   -0.48609E-03  8112   0.190E-02-0.530E-06
CGA:   9    -0.319046474350E+03   -0.27826E-03   -0.27831E-03  8112   0.655E-03-0.283E-05
CGA:  10    -0.319046567442E+03   -0.93092E-04   -0.93090E-04  8112   0.431E-03 0.882E-07
CGA:  11    -0.319046613428E+03   -0.45986E-04   -0.46007E-04  8112   0.230E-03 0.809E-06
CGA:  12    -0.319046641959E+03   -0.28530E-04   -0.28535E-04  8112   0.108E-03 0.978E-06
CGA:  13    -0.319046659642E+03   -0.17684E-04   -0.17670E-04  8112   0.612E-04 0.371E-06
CGA:  14    -0.319046668065E+03   -0.84226E-05   -0.84226E-05  8112   0.446E-04-0.260E-07
  72 F= -.31904667E+03 E0= -.31904230E+03  d E =-.143694E-02  mag=    44.0000
       N       E                     dE             d eps       ncg     rms          ort
SDA:   1    -0.318939074813E+03    0.10758E+00    0.00000E+00  8112   0.305E+00 0.000E+00
CGA:   2    -0.318999471191E+03   -0.60396E-01   -0.60440E-01  8112   0.347E+00-0.449E-03
CGA:   3    -0.319027843322E+03   -0.28372E-01   -0.28334E-01  8112   0.119E+00-0.393E-03
CGA:   4    -0.319043636762E+03   -0.15793E-01   -0.15792E-01  8112   0.347E-01 0.195E-03
CGA:   5    -0.319047754755E+03   -0.41180E-02   -0.41173E-02  8112   0.107E-01-0.249E-04
CGA:   6    -0.319049119290E+03   -0.13645E-02   -0.13645E-02  8112   0.540E-02-0.124E-05
CGA:   7    -0.319049563828E+03   -0.44454E-03   -0.44470E-03  8112   0.192E-02-0.945E-06
CGA:   8    -0.319049841696E+03   -0.27787E-03   -0.27787E-03  8112   0.610E-03-0.188E-06
CGA:   9    -0.319049934557E+03   -0.92860E-04   -0.92862E-04  8112   0.341E-03-0.402E-07
CGA:  10    -0.319049967633E+03   -0.33076E-04   -0.33071E-04  8112   0.182E-03-0.186E-06
CGA:  11    -0.319049990981E+03   -0.23349E-04   -0.23349E-04  8112   0.725E-04-0.171E-06
CGA:  12    -0.319050003322E+03   -0.12340E-04   -0.12341E-04  8112   0.428E-04-0.661E-08
CGA:  13    -0.319050008174E+03   -0.48525E-05   -0.48526E-05  8112   0.275E-04 0.462E-08
  73 F= -.31905001E+03 E0= -.31904566E+03  d E =-.334011E-02  mag=    44.0000
       N       E                     dE             d eps       ncg     rms          ort
SDA:   1    -0.319036852963E+03    0.13150E-01    0.00000E+00  8112   0.419E-01 0.000E+00
CGA:   2    -0.319043664485E+03   -0.68115E-02   -0.68147E-02  8112   0.487E-01-0.624E-04
CGA:   3    -0.319048311240E+03   -0.46468E-02   -0.46460E-02  8112   0.165E-01-0.937E-05
CGA:   4    -0.319050058109E+03   -0.17469E-02   -0.17478E-02  8112   0.554E-02 0.410E-05
CGA:   5    -0.319050821614E+03   -0.76351E-03   -0.76365E-03  8112   0.121E-02-0.129E-04
CGA:   6    -0.319051002614E+03   -0.18100E-03   -0.18102E-03  8112   0.539E-03-0.732E-06
CGA:   7    -0.319051052163E+03   -0.49549E-04   -0.49543E-04  8112   0.255E-03-0.251E-06
CGA:   8    -0.319051079363E+03   -0.27200E-04   -0.27189E-04  8112   0.876E-04-0.533E-06
CGA:   9    -0.319051092263E+03   -0.12900E-04   -0.12906E-04  8112   0.337E-04-0.246E-06
CGA:  10    -0.319051096962E+03   -0.46990E-05   -0.46966E-05  8112   0.192E-04 0.185E-06
  74 F= -.31905110E+03 E0= -.31904676E+03  d E =-.108879E-02  mag=    44.0000
       N       E                     dE             d eps       ncg     rms          ort
SDA:   1    -0.319030360768E+03    0.20731E-01    0.00000E+00  8112   0.608E-01 0.000E+00
CGA:   2    -0.319041159114E+03   -0.10798E-01   -0.10802E-01  8112   0.837E-01-0.557E-04
CGA:   3    -0.319048906339E+03   -0.77472E-02   -0.77439E-02  8112   0.215E-01-0.210E-04
CGA:   4    -0.319051097758E+03   -0.21914E-02   -0.21944E-02  8112   0.761E-02 0.241E-04
CGA:   5    -0.319052126653E+03   -0.10289E-02   -0.10290E-02  8112   0.154E-02-0.615E-05
CGA:   6    -0.319052351858E+03   -0.22521E-03   -0.22518E-03  8112   0.706E-03 0.143E-05
CGA:   7    -0.319052424239E+03   -0.72381E-04   -0.72388E-04  8112   0.349E-03 0.177E-06
CGA:   8    -0.319052457354E+03   -0.33115E-04   -0.33102E-04  8112   0.117E-03-0.497E-06
CGA:   9    -0.319052473664E+03   -0.16309E-04   -0.16320E-04  8112   0.466E-04-0.749E-06
CGA:  10    -0.319052480385E+03   -0.67217E-05   -0.67226E-05  8112   0.206E-04-0.409E-07
  75 F= -.31905248E+03 E0= -.31904815E+03  d E =-.138342E-02  mag=    44.0000
