       N       E                     dE             d eps       ncg     rms          ort
DAV:   1     0.958675117944E+04    0.95868E+04   -0.30187E+05 29792   0.205E+03
DAV:   2     0.125240687496E+04   -0.83343E+04   -0.76099E+04 29792   0.558E+02
DAV:   3    -0.306192960580E+03   -0.15586E+04   -0.14497E+04 29792   0.253E+02
DAV:   4    -0.403518834639E+03   -0.97326E+02   -0.96285E+02 29792   0.634E+01
DAV:   5    -0.405025913799E+03   -0.15071E+01   -0.14968E+01 29792   0.816E+00
SDA:   6    -0.845514896100E+01    0.39657E+03   -0.14968E+01 29792   0.481E+04 0.000E+00
CGA:   7    -0.359854228748E+02   -0.27530E+02   -0.20810E+03 29792   0.916E+04-0.393E+04
CGA:   8     0.136117881901E+03    0.17210E+03   -0.53547E+03 29792   0.933E+04-0.514E+04
CGA:   9     0.973906520238E+02   -0.38727E+02   -0.36873E+03 29792   0.155E+05-0.143E+05
CGA:  10     0.546061889320E+03    0.44867E+03   -0.89215E+03 29792   0.178E+05-0.112E+05
CGA:  11     0.447659104738E+03   -0.98403E+02   -0.87593E+03 29792   0.102E+05-0.111E+05
CGA:  12     0.482727979708E+02   -0.39939E+03   -0.36251E+03 29792   0.127E+05-0.180E+05
CGA:  13     0.262251290375E+03    0.21398E+03   -0.53472E+03 29792   0.192E+05-0.147E+05
CGA:  14     0.499313755561E+03    0.23706E+03   -0.97126E+03 29792   0.243E+05-0.190E+05
CGA:  15     0.438854831844E+03   -0.60459E+02   -0.12594E+04 29792   0.134E+05-0.138E+05
CGA:  16     0.183312344941E+03   -0.25554E+03   -0.55954E+03 29792   0.107E+05-0.136E+05
CGA:  17     0.935654663353E+02   -0.89747E+02   -0.36836E+03 29792   0.126E+05-0.143E+05
CGA:  18     0.156881001774E+03    0.63316E+02   -0.45697E+03 29792   0.117E+05-0.108E+05
CGA:  19     0.787876193100E+02   -0.78093E+02   -0.38409E+03 29792   0.120E+05-0.132E+05
CGA:  20     0.818990776309E+02    0.31115E+01   -0.38827E+03 29792   0.102E+05-0.101E+05
CGA:  21    -0.288551688200E+02   -0.11075E+03   -0.28200E+03 29792   0.123E+05-0.147E+05
CGA:  22     0.386886686249E+02    0.67544E+02   -0.37810E+03 29792   0.126E+05-0.113E+05
CGA:  23     0.691250815505E+01   -0.31776E+02   -0.36503E+03 29792   0.987E+04-0.103E+05
CGA:  24    -0.701688756093E+02   -0.77081E+02   -0.26084E+03 29792   0.121E+05-0.140E+05
CGA:  25     0.143073739780E+02    0.84476E+02   -0.37540E+03 29792   0.104E+05-0.888E+04
CGA:  26    -0.668441833187E+02   -0.81152E+02   -0.27665E+03 29792   0.123E+05-0.143E+05
CGA:  27    -0.480192172625E+01    0.62042E+02   -0.36669E+03 29792   0.991E+04-0.881E+04
CGA:  28    -0.864015209248E+02   -0.81600E+02   -0.25534E+03 29792   0.117E+05-0.137E+05
CGA:  29    -0.179218085332E+02    0.68480E+02   -0.34465E+03 29792   0.994E+04-0.865E+04
CGA:  30    -0.810796331500E+02   -0.63158E+02   -0.25750E+03 29792   0.119E+05-0.135E+05
CGA:  31    -0.260603792661E+02    0.55019E+02   -0.34453E+03 29792   0.101E+05-0.906E+04
CGA:  32    -0.890780491697E+02   -0.63018E+02   -0.25867E+03 29792   0.117E+05-0.133E+05
CGA:  33    -0.476010187379E+02    0.41477E+02   -0.32747E+03 29792   0.109E+05-0.997E+04
CGA:  34    -0.804784276214E+02   -0.32877E+02   -0.28172E+03 29792   0.120E+05-0.128E+05
CGA:  35    -0.716918815771E+02    0.87865E+01   -0.31757E+03 29792   0.115E+05-0.113E+05
CGA:  36    -0.901528325883E+02   -0.18461E+02   -0.29420E+03 29792   0.118E+05-0.123E+05
CGA:  37    -0.106884264178E+03   -0.16731E+02   -0.29613E+03 29792   0.113E+05-0.118E+05
CGA:  38    -0.122561333324E+03   -0.15677E+02   -0.28043E+03 29792   0.110E+05-0.115E+05
CGA:  39    -0.154329330684E+03   -0.31768E+02   -0.26074E+03 29792   0.103E+05-0.113E+05
CGA:  40    -0.180418093255E+03   -0.26089E+02   -0.23652E+03 29792   0.904E+04-0.990E+04
CGA:  41    -0.234374893176E+03   -0.53957E+02   -0.18762E+03 29792   0.611E+04-0.797E+04
CGA:  42    -0.275915716879E+03   -0.41541E+02   -0.11591E+03 29792   0.299E+04-0.439E+04
CGA:  43    -0.306253068655E+03   -0.30337E+02   -0.45574E+02 29792   0.476E+03-0.122E+04
CGA:  44    -0.311458154860E+03   -0.52051E+01   -0.46173E+01 29792   0.111E+02 0.306E+02
CGA:  45    -0.311627258460E+03   -0.16910E+00   -0.17137E+00 29792   0.458E+01-0.128E+00
CGA:  46    -0.312416926238E+03   -0.78967E+00   -0.78755E+00 29792   0.383E+02-0.969E-02
CGA:  47    -0.313121784062E+03   -0.70486E+00   -0.45274E+00 29792   0.162E+02 0.174E+02
CGA:  48    -0.313290945550E+03   -0.16916E+00   -0.14332E+00 29792   0.380E+01 0.280E+01
CGA:  49    -0.313325335647E+03   -0.34390E-01   -0.33085E-01 29792   0.200E+01 0.156E+00
CGA:  50    -0.313347228485E+03   -0.21893E-01   -0.22262E-01 29792   0.246E+01-0.271E-01
CGA:  51    -0.313385162828E+03   -0.37934E-01   -0.39178E-01 29792   0.584E+01-0.518E-01
CGA:  52    -0.313483429002E+03   -0.98266E-01   -0.87492E-01 29792   0.110E+02 0.740E+00
CGA:  53    -0.313605922449E+03   -0.12249E+00   -0.88577E-01 29792   0.751E+01 0.444E+01
CGA:  54    -0.313678371718E+03   -0.72449E-01   -0.57328E-01 29792   0.248E+01 0.260E+01
CGA:  55    -0.313701012003E+03   -0.22640E-01   -0.21252E-01 29792   0.101E+01 0.208E+00
CGA:  56    -0.313712027733E+03   -0.11016E-01   -0.11342E-01 29792   0.131E+01-0.230E-01
CGA:  57    -0.313730023168E+03   -0.17995E-01   -0.19183E-01 29792   0.289E+01-0.492E-01
CGA:  58    -0.313768399718E+03   -0.38377E-01   -0.42997E-01 29792   0.450E+01-0.144E+00
CGA:  59    -0.313815107661E+03   -0.46708E-01   -0.49053E-01 29792   0.277E+01-0.249E-01
CGA:  60    -0.313840498821E+03   -0.25391E-01   -0.25707E-01 29792   0.946E+00-0.197E-02
CGA:  61    -0.313849847683E+03   -0.93489E-02   -0.94546E-02 29792   0.521E+00-0.738E-02
CGA:  62    -0.313859646287E+03   -0.97986E-02   -0.99519E-02 29792   0.103E+01-0.253E-02
CGA:  63    -0.313892979328E+03   -0.33333E-01   -0.33245E-01 29792   0.279E+01 0.347E-01
CGA:  64    -0.313945773638E+03   -0.52794E-01   -0.51642E-01 29792   0.236E+01 0.221E-01
CGA:  65    -0.313976182919E+03   -0.30409E-01   -0.31120E-01 29792   0.130E+01-0.287E-01
CGA:  66    -0.313992760217E+03   -0.16577E-01   -0.17173E-01 29792   0.778E+00-0.248E-01
CGA:  67    -0.314006352181E+03   -0.13592E-01   -0.13829E-01 29792   0.912E+00-0.228E-02
CGA:  68    -0.314033102804E+03   -0.26751E-01   -0.26719E-01 29792   0.183E+01 0.151E-01
CGA:  69    -0.314078752877E+03   -0.45650E-01   -0.45631E-01 29792   0.191E+01-0.282E-02
CGA:  70    -0.314109832010E+03   -0.31079E-01   -0.31594E-01 29792   0.112E+01-0.996E-02
CGA:  71    -0.314129001203E+03   -0.19169E-01   -0.19601E-01 29792   0.731E+00-0.326E-02
CGA:  72    -0.314145152229E+03   -0.16151E-01   -0.16264E-01 29792   0.769E+00 0.626E-02
SDA:  73    -0.314174264902E+03   -0.29113E-01   -0.29095E-01 29792   0.166E+01 0.689E-03
CGA:  74    -0.314200643555E+03   -0.26379E-01   -0.26564E-01 29792   0.256E+00-0.310E-02
CGA:  75    -0.314236393495E+03   -0.35750E-01   -0.25954E-03 29792   0.215E+01-0.476E-01
CGA:  76    -0.314300919066E+03   -0.64526E-01   -0.63921E-01 29792   0.115E+01-0.499E-02
CGA:  77    -0.314325470959E+03   -0.24552E-01   -0.25239E-01 29792   0.601E+00-0.169E-01
CGA:  78    -0.314356422001E+03   -0.30951E-01   -0.30752E-01 29792   0.124E+01 0.239E-01
CGA:  79    -0.314429003044E+03   -0.72581E-01   -0.71896E-01 29792   0.104E+01 0.498E-01
CGA:  80    -0.314460339879E+03   -0.31337E-01   -0.31731E-01 29792   0.411E+00-0.314E-02
CGA:  81    -0.314482302509E+03   -0.21963E-01   -0.22029E-01 29792   0.879E+00-0.595E-02
CGA:  82    -0.314575377778E+03   -0.93075E-01   -0.10047E+00 29792   0.256E+01-0.120E+00
CGA:  83    -0.314629502270E+03   -0.54124E-01   -0.53577E-01 29792   0.103E+01 0.287E-01
CGA:  84    -0.314655283937E+03   -0.25782E-01   -0.25944E-01 29792   0.735E+00-0.405E-02
CGA:  85    -0.314685847942E+03   -0.30564E-01   -0.30561E-01 29792   0.987E+00-0.195E-03
CGA:  86    -0.314725639406E+03   -0.39791E-01   -0.39640E-01 29792   0.134E+01-0.782E-02
CGA:  87    -0.314773003319E+03   -0.47364E-01   -0.48356E-01 29792   0.994E+00 0.203E-01
CGA:  88    -0.314796449913E+03   -0.23447E-01   -0.23312E-01 29792   0.378E+00 0.649E-02
CGA:  89    -0.314816270633E+03   -0.19821E-01   -0.19943E-01 29792   0.890E+00-0.103E-01
CGA:  90    -0.314866719695E+03   -0.50449E-01   -0.53266E-01 29792   0.222E+01-0.955E-01
CGA:  91    -0.314904461979E+03   -0.37742E-01   -0.37354E-01 29792   0.147E+01 0.121E-01
CGA:  92    -0.314931451202E+03   -0.26989E-01   -0.25678E-01 29792   0.904E+00 0.572E-01
CGA:  93    -0.314948622560E+03   -0.17171E-01   -0.15667E-01 29792   0.629E+00 0.686E-01
CGA:  94    -0.314960382392E+03   -0.11760E-01   -0.11001E-01 29792   0.520E+00 0.351E-01
CGA:  95    -0.314971598207E+03   -0.11216E-01   -0.10913E-01 29792   0.728E+00 0.106E-01
CGA:  96    -0.314989053722E+03   -0.17456E-01   -0.15708E-01 29792   0.135E+01 0.325E-01
CGA:  97    -0.315009117298E+03   -0.20064E-01   -0.19794E-01 29792   0.179E+01-0.124E-01
CGA:  98    -0.315028523923E+03   -0.19407E-01   -0.19493E-01 29792   0.167E+01 0.147E-01
CGA:  99    -0.315046023417E+03   -0.17499E-01   -0.17570E-01 29792   0.130E+01-0.785E-02
CGA: 100    -0.315058757210E+03   -0.12734E-01   -0.13567E-01 29792   0.875E+00-0.642E-01
CGA: 101    -0.315066976305E+03   -0.82191E-02   -0.87951E-02 29792   0.581E+00-0.423E-01
CGA: 102    -0.315073609287E+03   -0.66330E-02   -0.68460E-02 29792   0.524E+00-0.122E-01
CGA: 103    -0.315081695444E+03   -0.80862E-02   -0.81469E-02 29792   0.654E+00-0.246E-02
SDA: 104    -0.315092655143E+03   -0.10960E-01   -0.10863E-01 29792   0.832E+00 0.155E-02
CGA: 105    -0.315126168484E+03   -0.33513E-01   -0.33639E-01 29792   0.393E+00-0.996E-02
CGA: 106    -0.315145697454E+03   -0.19529E-01   -0.19473E-01 29792   0.525E+00 0.243E-02
CGA: 107    -0.315200484126E+03   -0.54787E-01   -0.52876E-01 29792   0.985E+00 0.312E-01
CGA: 108    -0.315238301589E+03   -0.37817E-01   -0.37814E-01 29792   0.249E+00 0.179E-02
CGA: 109    -0.315250825226E+03   -0.12524E-01   -0.12470E-01 29792   0.305E+00 0.287E-02
CGA: 110    -0.315273948052E+03   -0.23123E-01   -0.23118E-01 29792   0.398E+00 0.366E-04
CGA: 111    -0.315299489372E+03   -0.25541E-01   -0.25601E-01 29792   0.249E+00-0.241E-02
CGA: 112    -0.315307961055E+03   -0.84717E-02   -0.84782E-02 29792   0.877E-01 0.400E-03
CGA: 113    -0.315312504173E+03   -0.45431E-02   -0.45481E-02 29792   0.118E+00-0.320E-03
CGA: 114    -0.315322558653E+03   -0.10054E-01   -0.10159E-01 29792   0.131E+00-0.231E-02
CGA: 115    -0.315328507729E+03   -0.59491E-02   -0.59520E-02 29792   0.516E-01-0.437E-03
CGA: 116    -0.315331724063E+03   -0.32163E-02   -0.32230E-02 29792   0.794E-01-0.260E-03
CGA: 117    -0.315336788433E+03   -0.50644E-02   -0.50829E-02 29792   0.942E-01-0.706E-03
CGA: 118    -0.315342105070E+03   -0.53166E-02   -0.53118E-02 29792   0.526E-01 0.349E-03
CGA: 119    -0.315344000946E+03   -0.18959E-02   -0.18936E-02 29792   0.297E-01-0.446E-05
CGA: 120    -0.315346658660E+03   -0.26577E-02   -0.26507E-02 29792   0.546E-01 0.153E-03
CGA: 121    -0.315350355385E+03   -0.36967E-02   -0.37055E-02 29792   0.391E-01-0.339E-03
CGA: 122    -0.315351832685E+03   -0.14773E-02   -0.14768E-02 29792   0.143E-01 0.205E-05
CGA: 123    -0.315352570413E+03   -0.73773E-03   -0.73810E-03 29792   0.214E-01-0.474E-04
CGA: 124    -0.315354919283E+03   -0.23489E-02   -0.23510E-02 29792   0.382E-01-0.428E-04
CGA: 125    -0.315356544850E+03   -0.16256E-02   -0.16255E-02 29792   0.189E-01 0.819E-05
CGA: 126    -0.315357234429E+03   -0.68958E-03   -0.68963E-03 29792   0.778E-02 0.163E-05
CGA: 127    -0.315357968222E+03   -0.73379E-03   -0.73692E-03 29792   0.206E-01-0.692E-04
CGA: 128    -0.315359524922E+03   -0.15567E-02   -0.15550E-02 29792   0.150E-01 0.466E-04
CGA: 129    -0.315360007180E+03   -0.48226E-03   -0.48223E-03 29792   0.650E-02-0.138E-04
CGA: 130    -0.315360351351E+03   -0.34417E-03   -0.34420E-03 29792   0.800E-02-0.164E-04
CGA: 131    -0.315361024714E+03   -0.67336E-03   -0.67250E-03 29792   0.130E-01 0.211E-04
CGA: 132    -0.315361921952E+03   -0.89724E-03   -0.89704E-03 29792   0.563E-02 0.481E-05
CGA: 133    -0.315362114638E+03   -0.19269E-03   -0.19260E-03 29792   0.336E-02-0.214E-05
CGA: 134    -0.315362471020E+03   -0.35638E-03   -0.35771E-03 29792   0.106E-01-0.270E-04
SDA: 135    -0.315363056885E+03   -0.58587E-03   -0.58586E-03 29792   0.536E-02-0.867E-05
CGA: 136    -0.315363195555E+03   -0.13867E-03   -0.13874E-03 29792   0.191E-02-0.178E-05
CGA: 137    -0.315363288575E+03   -0.93020E-04   -0.93019E-04 29792   0.217E-02-0.191E-05
CGA: 138    -0.315363517607E+03   -0.22903E-03   -0.22854E-03 29792   0.595E-02 0.781E-05
CGA: 139    -0.315363850228E+03   -0.33262E-03   -0.33262E-03 29792   0.216E-02-0.539E-05
CGA: 140    -0.315363956043E+03   -0.10581E-03   -0.10574E-03 29792   0.202E-02-0.594E-05
CGA: 141    -0.315364231235E+03   -0.27519E-03   -0.27518E-03 29792   0.536E-02-0.223E-05
CGA: 142    -0.315364443098E+03   -0.21186E-03   -0.21025E-03 29792   0.254E-02 0.476E-05
CGA: 143    -0.315364539359E+03   -0.96260E-04   -0.96088E-04 29792   0.980E-03 0.175E-05
CGA: 144    -0.315364598255E+03   -0.58897E-04   -0.58889E-04 29792   0.173E-02 0.428E-05
CGA: 145    -0.315364775814E+03   -0.17756E-03   -0.17763E-03 29792   0.254E-02-0.719E-06
CGA: 146    -0.315364846700E+03   -0.70886E-04   -0.71199E-04 29792   0.567E-03 0.972E-05
CGA: 147    -0.315364912423E+03   -0.65723E-04   -0.65700E-04 29792   0.229E-02-0.491E-06
CGA: 148    -0.315365076429E+03   -0.16401E-03   -0.16432E-03 29792   0.273E-02-0.207E-04
CGA: 149    -0.315365200851E+03   -0.12442E-03   -0.12415E-03 29792   0.121E-02-0.160E-05
CGA: 150    -0.315365248664E+03   -0.47813E-04   -0.47758E-04 29792   0.933E-03 0.932E-06
CGA: 151    -0.315365353854E+03   -0.10519E-03   -0.10509E-03 29792   0.247E-02 0.114E-05
CGA: 152    -0.315365479148E+03   -0.12529E-03   -0.12508E-03 29792   0.761E-03 0.294E-06
CGA: 153    -0.315365513265E+03   -0.34117E-04   -0.34109E-04 29792   0.885E-03-0.278E-05
CGA: 154    -0.315365609618E+03   -0.96352E-04   -0.97001E-04 29792   0.196E-02-0.146E-04
CGA: 155    -0.315365668275E+03   -0.58657E-04   -0.58184E-04 29792   0.491E-03-0.916E-05
CGA: 156    -0.315365698894E+03   -0.30619E-04   -0.30619E-04 29792   0.555E-03-0.136E-05
CGA: 157    -0.315365740382E+03   -0.41489E-04   -0.41382E-04 29792   0.115E-02 0.644E-05
CGA: 158    -0.315365817931E+03   -0.77548E-04   -0.77414E-04 29792   0.105E-02 0.240E-04
CGA: 159    -0.315365848786E+03   -0.30855E-04   -0.31159E-04 29792   0.323E-03 0.376E-05
CGA: 160    -0.315365925623E+03   -0.76837E-04   -0.74611E-04 29792   0.144E-02 0.140E-04
CGA: 161    -0.315365995168E+03   -0.69545E-04   -0.69312E-04 29792   0.109E-02 0.430E-05
CGA: 162    -0.315366038349E+03   -0.43181E-04   -0.43481E-04 29792   0.333E-03 0.211E-05
CGA: 163    -0.315366063378E+03   -0.25028E-04   -0.25012E-04 29792   0.728E-03 0.150E-05
CGA: 164    -0.315366134927E+03   -0.71549E-04   -0.71371E-04 29792   0.749E-03 0.588E-05
CGA: 165    -0.315366155163E+03   -0.20236E-04   -0.20375E-04 29792   0.188E-03 0.436E-06
SDA: 166    -0.315366169237E+03   -0.14074E-04   -0.14066E-04 29792   0.337E-03 0.718E-06
CGA: 167    -0.315366178063E+03   -0.88265E-05   -0.88265E-05 29792   0.133E-03-0.276E-06
CGA: 168    -0.315366188862E+03   -0.10799E-04   -0.10814E-04 29792   0.330E-03-0.134E-05
CGA: 169    -0.315366214736E+03   -0.25875E-04   -0.25926E-04 29792   0.384E-03-0.374E-05
CGA: 170    -0.315366230245E+03   -0.15509E-04   -0.15456E-04 29792   0.174E-03-0.230E-05
CGA: 171    -0.315366237319E+03   -0.70745E-05   -0.70165E-05 29792   0.150E-03-0.213E-05
CGA: 172    -0.315366254416E+03   -0.17096E-04   -0.17519E-04 29792   0.464E-03-0.811E-05
CGA: 173    -0.315366278979E+03   -0.24563E-04   -0.24260E-04 29792   0.158E-03-0.140E-04
CGA: 174    -0.315366285309E+03   -0.63300E-05   -0.62970E-05 29792   0.119E-03-0.108E-05
   1 F= -.31536629E+03 E0= -.31533518E+03  d E =-.315366E+03  mag=    47.7947
       N       E                     dE             d eps       ncg     rms          ort
SDA:   1    -0.315376630848E+03   -0.10352E-01    0.00000E+00 29792   0.261E+00 0.000E+00
CGA:   2    -0.315381642986E+03   -0.50121E-02   -0.50760E-02 29792   0.313E-01-0.257E-02
CGA:   3    -0.315382529683E+03   -0.88670E-03   -0.89143E-03 29792   0.370E-02-0.826E-04
CGA:   4    -0.315382717238E+03   -0.18756E-03   -0.18763E-03 29792   0.487E-02 0.676E-05
CGA:   5    -0.315383103956E+03   -0.38672E-03   -0.38650E-03 29792   0.553E-02 0.119E-04
CGA:   6    -0.315383274843E+03   -0.17089E-03   -0.17097E-03 29792   0.154E-02 0.330E-05
CGA:   7    -0.315383328274E+03   -0.53431E-04   -0.53406E-04 29792   0.671E-03-0.118E-05
CGA:   8    -0.315383365527E+03   -0.37253E-04   -0.37236E-04 29792   0.832E-03-0.536E-05
CGA:   9    -0.315383407726E+03   -0.42199E-04   -0.42149E-04 29792   0.340E-03-0.687E-05
CGA:  10    -0.315383417068E+03   -0.93426E-05   -0.93264E-05 29792   0.730E-04-0.585E-06
   2 F= -.31538342E+03 E0= -.31535235E+03  d E =-.171318E-01  mag=    47.7953
       N       E                     dE             d eps       ncg     rms          ort
SDA:   1    -0.311563909760E+03    0.38195E+01    0.00000E+00 29792   0.264E+02 0.000E+00
CGA:   2    -0.312261605071E+03   -0.69770E+00   -0.71318E+00 29792   0.177E+02-0.623E+00
CGA:   3    -0.314825704622E+03   -0.25641E+01   -0.25788E+01 29792   0.394E+02-0.322E+00
CGA:   4    -0.315648776725E+03   -0.82307E+00   -0.71972E+00 29792   0.523E+01 0.419E+01
CGA:   5    -0.315764639104E+03   -0.11586E+00   -0.12133E+00 29792   0.382E+01-0.198E+00
CGA:   6    -0.316003415431E+03   -0.23878E+00   -0.23876E+00 29792   0.665E+01 0.332E-03
CGA:   7    -0.316194903637E+03   -0.19149E+00   -0.18927E+00 29792   0.248E+01 0.429E-01
CGA:   8    -0.316244282085E+03   -0.49378E-01   -0.51059E-01 29792   0.928E+00-0.603E-01
CGA:   9    -0.316274233565E+03   -0.29951E-01   -0.29791E-01 29792   0.559E+00 0.136E-02
CGA:  10    -0.316297489084E+03   -0.23256E-01   -0.23212E-01 29792   0.735E+00-0.707E-03
CGA:  11    -0.316323148107E+03   -0.25659E-01   -0.26297E-01 29792   0.405E+00 0.170E-02
CGA:  12    -0.316332038823E+03   -0.88907E-02   -0.90348E-02 29792   0.823E-01-0.379E-02
CGA:  13    -0.316335334851E+03   -0.32960E-02   -0.32900E-02 29792   0.119E+00-0.165E-03
CGA:  14    -0.316342321776E+03   -0.69869E-02   -0.69420E-02 29792   0.136E+00 0.332E-02
CGA:  15    -0.316346346147E+03   -0.40244E-02   -0.40913E-02 29792   0.496E-01-0.557E-03
CGA:  16    -0.316347943204E+03   -0.15971E-02   -0.15982E-02 29792   0.183E-01-0.974E-07
CGA:  17    -0.316348732638E+03   -0.78943E-03   -0.79012E-03 29792   0.236E-01 0.516E-04
CGA:  18    -0.316350243410E+03   -0.15108E-02   -0.15086E-02 29792   0.332E-01 0.909E-04
CGA:  19    -0.316351433973E+03   -0.11906E-02   -0.11931E-02 29792   0.868E-02 0.556E-04
CGA:  20    -0.316351698018E+03   -0.26404E-03   -0.26434E-03 29792   0.587E-02-0.533E-05
CGA:  21    -0.316352102471E+03   -0.40445E-03   -0.40490E-03 29792   0.922E-02-0.262E-04
CGA:  22    -0.316352441233E+03   -0.33876E-03   -0.33902E-03 29792   0.548E-02-0.108E-04
CGA:  23    -0.316352655832E+03   -0.21460E-03   -0.21462E-03 29792   0.232E-02-0.181E-05
CGA:  24    -0.316352739474E+03   -0.83642E-04   -0.83761E-04 29792   0.208E-02 0.836E-05
CGA:  25    -0.316352878917E+03   -0.13944E-03   -0.13862E-03 29792   0.280E-02 0.396E-04
CGA:  26    -0.316352963299E+03   -0.84382E-04   -0.84841E-04 29792   0.658E-03 0.223E-04
CGA:  27    -0.316352994038E+03   -0.30739E-04   -0.30744E-04 29792   0.859E-03 0.417E-05
CGA:  28    -0.316353045810E+03   -0.51772E-04   -0.51679E-04 29792   0.895E-03 0.567E-05
CGA:  29    -0.316353084443E+03   -0.38633E-04   -0.38647E-04 29792   0.677E-03 0.198E-05
CGA:  30    -0.316353105387E+03   -0.20944E-04   -0.20968E-04 29792   0.243E-03 0.456E-06
CGA:  31    -0.316353121927E+03   -0.16540E-04   -0.16513E-04 29792   0.491E-03 0.382E-06
SDA:  32    -0.316353152975E+03   -0.31048E-04   -0.31020E-04 29792   0.555E-03 0.985E-06
CGA:  33    -0.316353163041E+03   -0.10066E-04   -0.10065E-04 29792   0.936E-04-0.829E-06
CGA:  34    -0.316353168534E+03   -0.54924E-05   -0.55000E-05 29792   0.142E-03-0.137E-05
CGA:  35    -0.316353186845E+03   -0.18311E-04   -0.18633E-04 29792   0.233E-03-0.441E-05
CGA:  36    -0.316353196842E+03   -0.99970E-05   -0.99727E-05 29792   0.728E-04-0.363E-05
   3 F= -.31635320E+03 E0= -.31632201E+03  d E =-.969780E+00  mag=    47.8225
       N       E                     dE             d eps       ncg     rms          ort
SDA:   1    -0.292226670057E+03    0.24127E+02    0.00000E+00 29792   0.254E+03 0.000E+00
CGA:   2    -0.297479891095E+03   -0.52532E+01   -0.55781E+01 29792   0.769E+02-0.460E+01
CGA:   3    -0.306614441389E+03   -0.91346E+01   -0.92505E+01 29792   0.232E+03-0.349E+01
CGA:   4    -0.313185135744E+03   -0.65707E+01   -0.57494E+01 29792   0.908E+02 0.171E+02
CGA:   5    -0.314366374367E+03   -0.11812E+01   -0.14293E+01 29792   0.364E+02-0.147E+02
CGA:   6    -0.315140485838E+03   -0.77411E+00   -0.78495E+00 29792   0.273E+02-0.431E+00
CGA:   7    -0.315888362354E+03   -0.74788E+00   -0.73431E+00 29792   0.282E+02 0.183E+00
CGA:   8    -0.316528250574E+03   -0.63989E+00   -0.64157E+00 29792   0.211E+02-0.313E+00
CGA:   9    -0.317052126625E+03   -0.52388E+00   -0.53485E+00 29792   0.136E+02-0.189E+00
CGA:  10    -0.317272766881E+03   -0.22064E+00   -0.22423E+00 29792   0.549E+01-0.216E+00
CGA:  11    -0.317394459736E+03   -0.12169E+00   -0.12047E+00 29792   0.310E+01 0.222E-01
CGA:  12    -0.317469073793E+03   -0.74614E-01   -0.75548E-01 29792   0.349E+01-0.186E-01
CGA:  13    -0.317582552092E+03   -0.11348E+00   -0.11463E+00 29792   0.284E+01 0.317E-01
CGA:  14    -0.317645675926E+03   -0.63124E-01   -0.62621E-01 29792   0.183E+01 0.936E-02
CGA:  15    -0.317682792877E+03   -0.37117E-01   -0.37897E-01 29792   0.823E+00-0.175E-01
CGA:  16    -0.317705397545E+03   -0.22605E-01   -0.23044E-01 29792   0.704E+00 0.446E-02
CGA:  17    -0.317724173951E+03   -0.18776E-01   -0.18763E-01 29792   0.656E+00 0.637E-03
CGA:  18    -0.317747364172E+03   -0.23190E-01   -0.23192E-01 29792   0.637E+00 0.769E-03
CGA:  19    -0.317766331237E+03   -0.18967E-01   -0.19729E-01 29792   0.448E+00 0.292E-01
CGA:  20    -0.317776235806E+03   -0.99046E-02   -0.99010E-02 29792   0.147E+00 0.368E-03
CGA:  21    -0.317782993152E+03   -0.67573E-02   -0.67705E-02 29792   0.165E+00-0.998E-03
CGA:  22    -0.317790715596E+03   -0.77224E-02   -0.75195E-02 29792   0.161E+00 0.159E-01
CGA:  23    -0.317795757221E+03   -0.50416E-02   -0.50281E-02 29792   0.741E-01-0.251E-03
CGA:  24    -0.317798895704E+03   -0.31385E-02   -0.31349E-02 29792   0.467E-01 0.436E-03
CGA:  25    -0.317801180714E+03   -0.22850E-02   -0.22696E-02 29792   0.412E-01 0.102E-02
CGA:  26    -0.317803606699E+03   -0.24260E-02   -0.24362E-02 29792   0.322E-01-0.430E-03
CGA:  27    -0.317804689261E+03   -0.10826E-02   -0.10855E-02 29792   0.180E-01 0.202E-03
CGA:  28    -0.317805379675E+03   -0.69041E-03   -0.69045E-03 29792   0.123E-01 0.261E-04
CGA:  29    -0.317805995468E+03   -0.61579E-03   -0.61510E-03 29792   0.967E-02 0.514E-04
CGA:  30    -0.317806638380E+03   -0.64291E-03   -0.63926E-03 29792   0.927E-02 0.127E-03
CGA:  31    -0.317806999155E+03   -0.36077E-03   -0.36084E-03 29792   0.501E-02 0.293E-04
SDA:  32    -0.317807213616E+03   -0.21446E-03   -0.21434E-03 29792   0.486E-02 0.423E-04
CGA:  33    -0.317807302365E+03   -0.88749E-04   -0.88827E-04 29792   0.124E-02-0.152E-05
CGA:  34    -0.317807489171E+03   -0.18681E-03   -0.18441E-03 29792   0.541E-02 0.218E-04
CGA:  35    -0.317807756219E+03   -0.26705E-03   -0.26699E-03 29792   0.180E-02 0.189E-04
CGA:  36    -0.317807832227E+03   -0.76008E-04   -0.76027E-04 29792   0.128E-02 0.485E-05
CGA:  37    -0.317807932168E+03   -0.99941E-04   -0.99867E-04 29792   0.250E-02 0.174E-05
CGA:  38    -0.317808151898E+03   -0.21973E-03   -0.21822E-03 29792   0.240E-02 0.349E-04
CGA:  39    -0.317808217694E+03   -0.65796E-04   -0.65834E-04 29792   0.692E-03 0.371E-05
CGA:  40    -0.317808285304E+03   -0.67611E-04   -0.67662E-04 29792   0.218E-02-0.184E-05
CGA:  41    -0.317808433599E+03   -0.14829E-03   -0.14783E-03 29792   0.105E-02 0.198E-04
CGA:  42    -0.317808468417E+03   -0.34818E-04   -0.34825E-04 29792   0.547E-03-0.262E-06
CGA:  43    -0.317808494645E+03   -0.26228E-04   -0.26227E-04 29792   0.584E-03-0.910E-06
CGA:  44    -0.317808546067E+03   -0.51422E-04   -0.51434E-04 29792   0.108E-02-0.933E-06
CGA:  45    -0.317808586484E+03   -0.40417E-04   -0.40417E-04 29792   0.151E-03-0.277E-06
CGA:  46    -0.317808598774E+03   -0.12289E-04   -0.12268E-04 29792   0.429E-03 0.188E-06
CGA:  47    -0.317808635199E+03   -0.36426E-04   -0.36285E-04 29792   0.288E-03 0.388E-05
CGA:  48    -0.317808645826E+03   -0.10627E-04   -0.10625E-04 29792   0.187E-03-0.640E-06
CGA:  49    -0.317808662865E+03   -0.17039E-04   -0.17197E-04 29792   0.302E-03-0.447E-05
CGA:  50    -0.317808690866E+03   -0.28001E-04   -0.28320E-04 29792   0.383E-03-0.820E-05
CGA:  51    -0.317808700664E+03   -0.97979E-05   -0.97412E-05 29792   0.112E-03-0.188E-05
   4 F= -.31780870E+03 E0= -.31777711E+03  d E =-.145550E+01  mag=    47.8632
       N       E                     dE             d eps       ncg     rms          ort
SDA:   1    -0.313678949420E+03    0.41297E+01    0.00000E+00 29792   0.257E+02 0.000E+00
CGA:   2    -0.314430385895E+03   -0.75144E+00   -0.79497E+00 29792   0.173E+02-0.541E+00
CGA:   3    -0.316738042932E+03   -0.23077E+01   -0.23342E+01 29792   0.342E+02-0.391E+00
CGA:   4    -0.317537834637E+03   -0.79979E+00   -0.78204E+00 29792   0.373E+01 0.654E+00
CGA:   5    -0.317772054397E+03   -0.23422E+00   -0.23383E+00 29792   0.583E+01 0.579E-01
CGA:   6    -0.318020713202E+03   -0.24866E+00   -0.24728E+00 29792   0.289E+01-0.802E-02
CGA:   7    -0.318135667298E+03   -0.11495E+00   -0.11428E+00 29792   0.124E+01-0.167E-02
CGA:   8    -0.318174068121E+03   -0.38401E-01   -0.38242E-01 29792   0.510E+00 0.196E-02
CGA:   9    -0.318206902328E+03   -0.32834E-01   -0.32797E-01 29792   0.622E+00 0.271E-02
CGA:  10    -0.318232589496E+03   -0.25687E-01   -0.25723E-01 29792   0.143E+00 0.546E-03
CGA:  11    -0.318237196714E+03   -0.46072E-02   -0.46063E-02 29792   0.764E-01 0.328E-04
CGA:  12    -0.318242515761E+03   -0.53190E-02   -0.53135E-02 29792   0.978E-01 0.250E-03
CGA:  13    -0.318247461608E+03   -0.49458E-02   -0.49473E-02 29792   0.674E-01 0.151E-03
CGA:  14    -0.318249683256E+03   -0.22216E-02   -0.22319E-02 29792   0.135E-01-0.531E-04
CGA:  15    -0.318250496764E+03   -0.81351E-03   -0.81308E-03 29792   0.238E-01 0.415E-04
CGA:  16    -0.318252190016E+03   -0.16933E-02   -0.16919E-02 29792   0.190E-01 0.628E-04
CGA:  17    -0.318252733934E+03   -0.54392E-03   -0.54567E-03 29792   0.706E-02-0.145E-04
CGA:  18    -0.318253080476E+03   -0.34654E-03   -0.34659E-03 29792   0.460E-02 0.528E-05
CGA:  19    -0.318253418338E+03   -0.33786E-03   -0.33773E-03 29792   0.834E-02 0.256E-05
CGA:  20    -0.318253842445E+03   -0.42411E-03   -0.42420E-03 29792   0.307E-02 0.125E-04
CGA:  21    -0.318253932102E+03   -0.89658E-04   -0.89747E-04 29792   0.137E-02 0.178E-05
CGA:  22    -0.318254059220E+03   -0.12712E-03   -0.12646E-03 29792   0.183E-02 0.151E-04
CGA:  23    -0.318254169584E+03   -0.11036E-03   -0.11028E-03 29792   0.142E-02 0.153E-04
CGA:  24    -0.318254216770E+03   -0.47185E-04   -0.47319E-04 29792   0.425E-03 0.493E-05
CGA:  25    -0.318254238452E+03   -0.21682E-04   -0.21687E-04 29792   0.618E-03 0.638E-06
CGA:  26    -0.318254284858E+03   -0.46406E-04   -0.46376E-04 29792   0.490E-03 0.435E-06
CGA:  27    -0.318254303153E+03   -0.18296E-04   -0.18310E-04 29792   0.287E-03 0.136E-06
CGA:  28    -0.318254317432E+03   -0.14279E-04   -0.14288E-04 29792   0.235E-03 0.146E-05
CGA:  29    -0.318254334419E+03   -0.16987E-04   -0.16920E-04 29792   0.398E-03 0.298E-05
CGA:  30    -0.318254358020E+03   -0.23601E-04   -0.23582E-04 29792   0.221E-03 0.428E-05
CGA:  31    -0.318254367141E+03   -0.91207E-05   -0.91267E-05 29792   0.171E-03-0.165E-06
SDA:  32    -0.318254388623E+03   -0.21482E-04   -0.21805E-04 29792   0.417E-03-0.497E-05
CGA:  33    -0.318254397312E+03   -0.86891E-05   -0.86945E-05 29792   0.878E-04-0.465E-06
   5 F= -.31825440E+03 E0= -.31822259E+03  d E =-.445697E+00  mag=    47.8876
       N       E                     dE             d eps       ncg     rms          ort
SDA:   1    -0.273624745645E+03    0.44630E+02    0.00000E+00 29792   0.574E+03 0.000E+00
CGA:   2    -0.285780715217E+03   -0.12156E+02   -0.12234E+02 29792   0.123E+03 0.321E+01
CGA:   3    -0.298805009160E+03   -0.13024E+02   -0.12803E+02 29792   0.292E+03 0.288E+01
CGA:   4    -0.310910240759E+03   -0.12105E+02   -0.10590E+02 29792   0.619E+02 0.233E+02
CGA:   5    -0.312712736660E+03   -0.18025E+01   -0.16878E+01 29792   0.392E+02 0.257E+01
CGA:   6    -0.315269329363E+03   -0.25566E+01   -0.25422E+01 29792   0.568E+02 0.111E+01
CGA:   7    -0.317093861459E+03   -0.18245E+01   -0.17044E+01 29792   0.247E+02 0.208E+01
CGA:   8    -0.317753133486E+03   -0.65927E+00   -0.63054E+00 29792   0.112E+02 0.652E+00
CGA:   9    -0.318075246844E+03   -0.32211E+00   -0.32367E+00 29792   0.561E+01-0.261E-01
CGA:  10    -0.318275103128E+03   -0.19986E+00   -0.20153E+00 29792   0.669E+01 0.993E-02
CGA:  11    -0.318584713971E+03   -0.30961E+00   -0.31015E+00 29792   0.427E+01 0.628E-01
CGA:  12    -0.318676112530E+03   -0.91399E-01   -0.95498E-01 29792   0.103E+01-0.982E-01
CGA:  13    -0.318712303546E+03   -0.36191E-01   -0.36460E-01 29792   0.931E+00 0.472E-02
CGA:  14    -0.318760394543E+03   -0.48091E-01   -0.48045E-01 29792   0.924E+00 0.788E-02
CGA:  15    -0.318799485972E+03   -0.39091E-01   -0.39300E-01 29792   0.704E+00 0.141E-01
CGA:  16    -0.318823369698E+03   -0.23884E-01   -0.24119E-01 29792   0.252E+00 0.221E-02
CGA:  17    -0.318832521305E+03   -0.91516E-02   -0.91902E-02 29792   0.213E+00 0.971E-03
CGA:  18    -0.318847639874E+03   -0.15119E-01   -0.15055E-01 29792   0.276E+00 0.220E-02
CGA:  19    -0.318856653072E+03   -0.90132E-02   -0.90825E-02 29792   0.906E-01 0.393E-03
CGA:  20    -0.318861146882E+03   -0.44938E-02   -0.44911E-02 29792   0.767E-01 0.597E-03
CGA:  21    -0.318865058410E+03   -0.39115E-02   -0.39094E-02 29792   0.812E-01 0.356E-03
CGA:  22    -0.318869401280E+03   -0.43429E-02   -0.43396E-02 29792   0.736E-01 0.350E-03
CGA:  23    -0.318871895421E+03   -0.24941E-02   -0.25022E-02 29792   0.199E-01 0.857E-04
CGA:  24    -0.318872784143E+03   -0.88872E-03   -0.88890E-03 29792   0.206E-01 0.543E-04
CGA:  25    -0.318874301145E+03   -0.15170E-02   -0.15118E-02 29792   0.232E-01 0.179E-03
CGA:  26    -0.318875483246E+03   -0.11821E-02   -0.11817E-02 29792   0.137E-01 0.117E-03
CGA:  27    -0.318876009068E+03   -0.52582E-03   -0.52606E-03 29792   0.618E-02 0.222E-04
CGA:  28    -0.318876307215E+03   -0.29815E-03   -0.29813E-03 29792   0.779E-02 0.149E-04
CGA:  29    -0.318876829490E+03   -0.52228E-03   -0.52252E-03 29792   0.777E-02-0.107E-04
CGA:  30    -0.318877120466E+03   -0.29098E-03   -0.29123E-03 29792   0.363E-02 0.413E-05
CGA:  31    -0.318877302324E+03   -0.18186E-03   -0.18186E-03 29792   0.276E-02-0.101E-05
SDA:  32    -0.318877504575E+03   -0.20225E-03   -0.20239E-03 29792   0.476E-02-0.489E-05
CGA:  33    -0.318877612663E+03   -0.10809E-03   -0.10810E-03 29792   0.957E-03-0.878E-06
CGA:  34    -0.318877708558E+03   -0.95895E-04   -0.95770E-04 29792   0.256E-02 0.157E-05
CGA:  35    -0.318877888090E+03   -0.17953E-03   -0.17949E-03 29792   0.511E-02 0.114E-06
CGA:  36    -0.318878149264E+03   -0.26117E-03   -0.26115E-03 29792   0.126E-02-0.238E-04
CGA:  37    -0.318878221402E+03   -0.72138E-04   -0.72165E-04 29792   0.228E-02-0.611E-05
CGA:  38    -0.318878543223E+03   -0.32182E-03   -0.32700E-03 29792   0.271E-02-0.596E-04
CGA:  39    -0.318878640849E+03   -0.97626E-04   -0.97459E-04 29792   0.145E-02-0.712E-05
CGA:  40    -0.318878756386E+03   -0.11554E-03   -0.11560E-03 29792   0.243E-02-0.216E-05
CGA:  41    -0.318878901669E+03   -0.14528E-03   -0.14519E-03 29792   0.325E-02 0.178E-04
CGA:  42    -0.318879058418E+03   -0.15675E-03   -0.15652E-03 29792   0.124E-02-0.506E-05
CGA:  43    -0.318879120256E+03   -0.61837E-04   -0.61836E-04 29792   0.175E-02-0.230E-05
CGA:  44    -0.318879320896E+03   -0.20064E-03   -0.20217E-03 29792   0.337E-02-0.267E-04
CGA:  45    -0.318879424235E+03   -0.10334E-03   -0.10327E-03 29792   0.652E-03-0.821E-05
CGA:  46    -0.318879479754E+03   -0.55519E-04   -0.55436E-04 29792   0.193E-02 0.236E-05
CGA:  47    -0.318879660114E+03   -0.18036E-03   -0.17934E-03 29792   0.155E-02 0.280E-04
CGA:  48    -0.318879707676E+03   -0.47562E-04   -0.47650E-04 29792   0.612E-03 0.611E-05
CGA:  49    -0.318879737283E+03   -0.29608E-04   -0.29648E-04 29792   0.466E-03 0.212E-05
CGA:  50    -0.318879805090E+03   -0.67806E-04   -0.67576E-04 29792   0.151E-02 0.224E-05
CGA:  51    -0.318879858706E+03   -0.53617E-04   -0.53630E-04 29792   0.212E-03 0.755E-06
CGA:  52    -0.318879873567E+03   -0.14861E-04   -0.14858E-04 29792   0.568E-03-0.888E-07
CGA:  53    -0.318879925098E+03   -0.51530E-04   -0.51370E-04 29792   0.516E-03 0.456E-05
CGA:  54    -0.318879943598E+03   -0.18500E-04   -0.18501E-04 29792   0.220E-03-0.740E-07
CGA:  55    -0.318879958132E+03   -0.14534E-04   -0.14537E-04 29792   0.273E-03-0.118E-05
CGA:  56    -0.318879988820E+03   -0.30688E-04   -0.30914E-04 29792   0.939E-03-0.468E-05
CGA:  57    -0.318880026867E+03   -0.38047E-04   -0.38021E-04 29792   0.176E-03-0.494E-05
CGA:  58    -0.318880034383E+03   -0.75159E-05   -0.75007E-05 29792   0.161E-03-0.107E-05
CGA:  59    -0.318880055923E+03   -0.21540E-04   -0.21600E-04 29792   0.370E-03-0.112E-05
CGA:  60    -0.318880079448E+03   -0.23526E-04   -0.23516E-04 29792   0.280E-03-0.339E-05
CGA:  61    -0.318880087211E+03   -0.77629E-05   -0.77266E-05 29792   0.716E-04-0.152E-05
   6 F= -.31888009E+03 E0= -.31884797E+03  d E =-.625690E+00  mag=    48.0011
       N       E                     dE             d eps       ncg     rms          ort
SDA:   1    -0.316036056695E+03    0.28440E+01    0.00000E+00 29792   0.115E+02 0.000E+00
CGA:   2    -0.316506991197E+03   -0.47093E+00   -0.47618E+00 29792   0.141E+02-0.215E-01
CGA:   3    -0.318042489915E+03   -0.15355E+01   -0.15377E+01 29792   0.133E+02-0.623E-01
CGA:   4    -0.318398846631E+03   -0.35636E+00   -0.33152E+00 29792   0.426E+01 0.715E+00
CGA:   5    -0.318616478382E+03   -0.21763E+00   -0.21414E+00 29792   0.325E+01-0.327E-01
CGA:   6    -0.318779919408E+03   -0.16344E+00   -0.16370E+00 29792   0.235E+01 0.626E-02
CGA:   7    -0.318880284982E+03   -0.10037E+00   -0.10114E+00 29792   0.104E+01 0.236E-02
CGA:   8    -0.318908115410E+03   -0.27830E-01   -0.27696E-01 29792   0.308E+00 0.316E-02
CGA:   9    -0.318930129252E+03   -0.22014E-01   -0.22007E-01 29792   0.558E+00 0.427E-03
CGA:  10    -0.318949810761E+03   -0.19682E-01   -0.19745E-01 29792   0.966E-01-0.319E-03
CGA:  11    -0.318952898649E+03   -0.30879E-02   -0.30885E-02 29792   0.546E-01 0.999E-05
CGA:  12    -0.318956279352E+03   -0.33807E-02   -0.33793E-02 29792   0.511E-01 0.189E-03
CGA:  13    -0.318959550644E+03   -0.32713E-02   -0.32705E-02 29792   0.482E-01 0.733E-04
CGA:  14    -0.318960784192E+03   -0.12335E-02   -0.12364E-02 29792   0.833E-02-0.727E-04
CGA:  15    -0.318961219778E+03   -0.43559E-03   -0.43574E-03 29792   0.106E-01 0.172E-04
CGA:  16    -0.318962059360E+03   -0.83958E-03   -0.83811E-03 29792   0.104E-01 0.542E-04
CGA:  17    -0.318962427005E+03   -0.36765E-03   -0.36822E-03 29792   0.533E-02 0.649E-05
CGA:  18    -0.318962623360E+03   -0.19635E-03   -0.19649E-03 29792   0.206E-02 0.538E-06
CGA:  19    -0.318962755800E+03   -0.13244E-03   -0.13237E-03 29792   0.367E-02 0.347E-05
CGA:  20    -0.318963045680E+03   -0.28988E-03   -0.28964E-03 29792   0.177E-02 0.755E-05
CGA:  21    -0.318963101465E+03   -0.55785E-04   -0.55851E-04 29792   0.866E-03 0.144E-05
CGA:  22    -0.318963174493E+03   -0.73029E-04   -0.72728E-04 29792   0.137E-02 0.928E-05
CGA:  23    -0.318963235409E+03   -0.60916E-04   -0.61045E-04 29792   0.115E-02 0.842E-05
CGA:  24    -0.318963289452E+03   -0.54043E-04   -0.54128E-04 29792   0.450E-03 0.726E-05
CGA:  25    -0.318963306116E+03   -0.16664E-04   -0.16685E-04 29792   0.333E-03-0.122E-06
CGA:  26    -0.318963344196E+03   -0.38079E-04   -0.38334E-04 29792   0.604E-03-0.501E-05
CGA:  27    -0.318963365244E+03   -0.21049E-04   -0.21023E-04 29792   0.231E-03-0.212E-05
CGA:  28    -0.318963380042E+03   -0.14797E-04   -0.14788E-04 29792   0.206E-03 0.765E-06
CGA:  29    -0.318963398145E+03   -0.18104E-04   -0.18009E-04 29792   0.449E-03 0.266E-05
CGA:  30    -0.318963420083E+03   -0.21938E-04   -0.21973E-04 29792   0.274E-03 0.314E-05
CGA:  31    -0.318963430361E+03   -0.10278E-04   -0.10291E-04 29792   0.199E-03 0.103E-06
SDA:  32    -0.318963451618E+03   -0.21257E-04   -0.21427E-04 29792   0.364E-03-0.372E-05
CGA:  33    -0.318963461661E+03   -0.10043E-04   -0.10024E-04 29792   0.123E-03-0.942E-06
CGA:  34    -0.318963467836E+03   -0.61742E-05   -0.61639E-05 29792   0.118E-03-0.163E-05
CGA:  35    -0.318963479567E+03   -0.11731E-04   -0.11893E-04 29792   0.327E-03-0.396E-05
CGA:  36    -0.318963492861E+03   -0.13294E-04   -0.13230E-04 29792   0.938E-04-0.376E-05
CGA:  37    -0.318963496307E+03   -0.34463E-05   -0.34491E-05 29792   0.679E-04-0.114E-06
   7 F= -.31896350E+03 E0= -.31893156E+03  d E =-.834091E-01  mag=    48.0174
       N       E                     dE             d eps       ncg     rms          ort
SDA:   1    -0.287771761774E+03    0.31192E+02    0.00000E+00 29792   0.195E+03 0.000E+00
CGA:   2    -0.292922180812E+03   -0.51504E+01   -0.54747E+01 29792   0.110E+03-0.864E+01
CGA:   3    -0.307272993138E+03   -0.14351E+02   -0.15843E+02 29792   0.318E+03-0.326E+02
CGA:   4    -0.311871516220E+03   -0.45985E+01   -0.42558E+01 29792   0.145E+03-0.983E+00
CGA:   5    -0.313389348712E+03   -0.15178E+01   -0.20636E+01 29792   0.698E+02-0.375E+02
CGA:   6    -0.314826232118E+03   -0.14369E+01   -0.14050E+01 29792   0.673E+02 0.569E+00
CGA:   7    -0.315963375760E+03   -0.11371E+01   -0.11097E+01 29792   0.355E+02 0.189E-01
CGA:   8    -0.316759876279E+03   -0.79650E+00   -0.83790E+00 29792   0.401E+02-0.127E+01
CGA:   9    -0.317646241359E+03   -0.88637E+00   -0.90809E+00 29792   0.302E+02-0.778E+00
CGA:  10    -0.318114519711E+03   -0.46828E+00   -0.44856E+00 29792   0.878E+01 0.670E+00
CGA:  11    -0.318259585169E+03   -0.14507E+00   -0.14282E+00 29792   0.541E+01 0.840E-01
CGA:  12    -0.318420862629E+03   -0.16128E+00   -0.17005E+00 29792   0.896E+01-0.197E-01
CGA:  13    -0.318697898130E+03   -0.27704E+00   -0.28463E+00 29792   0.740E+01-0.821E-02
CGA:  14    -0.318811272601E+03   -0.11337E+00   -0.11633E+00 29792   0.244E+01-0.152E+00
CGA:  15    -0.318875571651E+03   -0.64299E-01   -0.65766E-01 29792   0.194E+01-0.804E-02
CGA:  16    -0.318916172269E+03   -0.40601E-01   -0.43329E-01 29792   0.112E+01-0.558E-01
CGA:  17    -0.318957890898E+03   -0.41719E-01   -0.41727E-01 29792   0.147E+01 0.943E-03
CGA:  18    -0.319014096824E+03   -0.56206E-01   -0.56167E-01 29792   0.128E+01-0.208E-02
CGA:  19    -0.319040995525E+03   -0.26899E-01   -0.29872E-01 29792   0.385E+00-0.388E-01
CGA:  20    -0.319052527475E+03   -0.11532E-01   -0.11669E-01 29792   0.280E+00 0.256E-02
CGA:  21    -0.319065218267E+03   -0.12691E-01   -0.12713E-01 29792   0.263E+00-0.333E-02
CGA:  22    -0.319075613925E+03   -0.10396E-01   -0.10416E-01 29792   0.236E+00 0.808E-02
CGA:  23    -0.319084706594E+03   -0.90927E-02   -0.91223E-02 29792   0.111E+00 0.338E-02
CGA:  24    -0.319088079837E+03   -0.33732E-02   -0.33794E-02 29792   0.460E-01 0.826E-04
CGA:  25    -0.319091254277E+03   -0.31744E-02   -0.31343E-02 29792   0.854E-01 0.128E-02
CGA:  26    -0.319094816998E+03   -0.35627E-02   -0.35636E-02 29792   0.342E-01 0.337E-03
CGA:  27    -0.319096145289E+03   -0.13283E-02   -0.13289E-02 29792   0.192E-01 0.824E-04
CGA:  28    -0.319097031509E+03   -0.88622E-03   -0.88541E-03 29792   0.156E-01 0.112E-03
CGA:  29    -0.319097833664E+03   -0.80216E-03   -0.80107E-03 29792   0.201E-01 0.880E-04
CGA:  30    -0.319098907891E+03   -0.10742E-02   -0.10723E-02 29792   0.111E-01 0.140E-03
CGA:  31    -0.319099304986E+03   -0.39709E-03   -0.39759E-03 29792   0.573E-02 0.342E-04
SDA:  32    -0.319099717631E+03   -0.41265E-03   -0.41162E-03 29792   0.863E-02 0.323E-04
CGA:  33    -0.319099900880E+03   -0.18325E-03   -0.18326E-03 29792   0.244E-02-0.110E-05
CGA:  34    -0.319100154785E+03   -0.25390E-03   -0.25350E-03 29792   0.640E-02 0.483E-05
CGA:  35    -0.319100558162E+03   -0.40338E-03   -0.40328E-03 29792   0.894E-02 0.331E-05
CGA:  36    -0.319100925963E+03   -0.36780E-03   -0.36790E-03 29792   0.210E-02 0.817E-05
CGA:  37    -0.319101011296E+03   -0.85332E-04   -0.85370E-04 29792   0.257E-02 0.410E-05
CGA:  38    -0.319101568219E+03   -0.55692E-03   -0.53989E-03 29792   0.737E-02 0.117E-03
CGA:  39    -0.319101830863E+03   -0.26264E-03   -0.26188E-03 29792   0.229E-02 0.235E-04
CGA:  40    -0.319101984431E+03   -0.15357E-03   -0.15336E-03 29792   0.305E-02 0.112E-04
CGA:  41    -0.319102253822E+03   -0.26939E-03   -0.27010E-03 29792   0.605E-02-0.192E-04
CGA:  42    -0.319102520220E+03   -0.26640E-03   -0.26667E-03 29792   0.296E-02 0.174E-05
CGA:  43    -0.319102611420E+03   -0.91200E-04   -0.91066E-04 29792   0.119E-02-0.722E-06
CGA:  44    -0.319102740682E+03   -0.12926E-03   -0.12888E-03 29792   0.324E-02 0.625E-05
CGA:  45    -0.319102888078E+03   -0.14740E-03   -0.14750E-03 29792   0.106E-02 0.454E-05
CGA:  46    -0.319102934978E+03   -0.46900E-04   -0.46850E-04 29792   0.801E-03-0.498E-05
CGA:  47    -0.319102980313E+03   -0.45335E-04   -0.45347E-04 29792   0.866E-03-0.924E-05
CGA:  48    -0.319103077038E+03   -0.96725E-04   -0.97982E-04 29792   0.867E-03-0.220E-04
CGA:  49    -0.319103104102E+03   -0.27064E-04   -0.26994E-04 29792   0.496E-03-0.405E-05
CGA:  50    -0.319103153391E+03   -0.49289E-04   -0.49083E-04 29792   0.158E-02 0.420E-05
CGA:  51    -0.319103234178E+03   -0.80787E-04   -0.80828E-04 29792   0.388E-03 0.637E-05
CGA:  52    -0.319103254720E+03   -0.20542E-04   -0.20546E-04 29792   0.602E-03-0.420E-06
CGA:  53    -0.319103330419E+03   -0.75698E-04   -0.76262E-04 29792   0.110E-02-0.873E-05
CGA:  54    -0.319103373362E+03   -0.42943E-04   -0.42844E-04 29792   0.459E-03-0.559E-05
CGA:  55    -0.319103393354E+03   -0.19992E-04   -0.19953E-04 29792   0.261E-03-0.249E-05
CGA:  56    -0.319103417178E+03   -0.23824E-04   -0.23792E-04 29792   0.777E-03 0.537E-06
CGA:  57    -0.319103454607E+03   -0.37430E-04   -0.37461E-04 29792   0.226E-03 0.142E-05
CGA:  58    -0.319103462166E+03   -0.75590E-05   -0.75620E-05 29792   0.102E-03-0.143E-06
CGA:  59    -0.319103472619E+03   -0.10453E-04   -0.10461E-04 29792   0.234E-03-0.501E-06
CGA:  60    -0.319103487694E+03   -0.15074E-04   -0.15077E-04 29792   0.195E-03-0.118E-05
CGA:  61    -0.319103495866E+03   -0.81726E-05   -0.81538E-05 29792   0.974E-04-0.124E-05
   8 F= -.31910350E+03 E0= -.31907238E+03  d E =-.140000E+00  mag=    48.0848
       N       E                     dE             d eps       ncg     rms          ort
SDA:   1    -0.312507417348E+03    0.65961E+01    0.00000E+00 29792   0.217E+02 0.000E+00
CGA:   2    -0.313749532523E+03   -0.12421E+01   -0.12432E+01 29792   0.415E+02 0.228E+00
CGA:   3    -0.317175860072E+03   -0.34263E+01   -0.34507E+01 29792   0.382E+02-0.901E+00
CGA:   4    -0.318002703982E+03   -0.82684E+00   -0.66336E+00 29792   0.763E+01 0.753E+01
CGA:   5    -0.318281768826E+03   -0.27906E+00   -0.28104E+00 29792   0.813E+01-0.248E-01
CGA:   6    -0.318595072656E+03   -0.31330E+00   -0.31447E+00 29792   0.805E+01-0.141E-04
CGA:   7    -0.318820700853E+03   -0.22563E+00   -0.22575E+00 29792   0.565E+01 0.150E-02
CGA:   8    -0.318962702818E+03   -0.14200E+00   -0.14083E+00 29792   0.251E+01 0.289E-01
CGA:   9    -0.319017624932E+03   -0.54922E-01   -0.54574E-01 29792   0.948E+00 0.114E-01
CGA:  10    -0.319044495151E+03   -0.26870E-01   -0.26731E-01 29792   0.978E+00 0.205E-02
CGA:  11    -0.319093817065E+03   -0.49322E-01   -0.49321E-01 29792   0.124E+01-0.121E-02
CGA:  12    -0.319117369562E+03   -0.23552E-01   -0.24712E-01 29792   0.244E+00-0.364E-01
CGA:  13    -0.319122416633E+03   -0.50471E-02   -0.51598E-02 29792   0.125E+00-0.295E-02
CGA:  14    -0.319128230357E+03   -0.58137E-02   -0.58134E-02 29792   0.174E+00-0.273E-03
CGA:  15    -0.319134004364E+03   -0.57740E-02   -0.57666E-02 29792   0.148E+00-0.120E-03
CGA:  16    -0.319139573769E+03   -0.55694E-02   -0.56013E-02 29792   0.931E-01 0.913E-03
CGA:  17    -0.319141536232E+03   -0.19625E-02   -0.19697E-02 29792   0.232E-01-0.203E-03
CGA:  18    -0.319142230504E+03   -0.69427E-03   -0.69501E-03 29792   0.196E-01 0.145E-04
CGA:  19    -0.319143528666E+03   -0.12982E-02   -0.12944E-02 29792   0.391E-01 0.148E-03
CGA:  20    -0.319144712672E+03   -0.11840E-02   -0.11899E-02 29792   0.165E-01 0.646E-04
CGA:  21    -0.319145227048E+03   -0.51438E-03   -0.51494E-03 29792   0.942E-02 0.147E-04
CGA:  22    -0.319145532762E+03   -0.30571E-03   -0.30580E-03 29792   0.633E-02-0.260E-05
CGA:  23    -0.319145806677E+03   -0.27391E-03   -0.27391E-03 29792   0.800E-02-0.950E-05
CGA:  24    -0.319146169375E+03   -0.36270E-03   -0.36269E-03 29792   0.513E-02-0.928E-05
CGA:  25    -0.319146291149E+03   -0.12177E-03   -0.12195E-03 29792   0.205E-02-0.471E-05
CGA:  26    -0.319146394321E+03   -0.10317E-03   -0.10303E-03 29792   0.340E-02 0.157E-04
CGA:  27    -0.319146568946E+03   -0.17463E-03   -0.17432E-03 29792   0.280E-02 0.371E-04
CGA:  28    -0.319146645604E+03   -0.76657E-04   -0.77032E-04 29792   0.144E-02 0.169E-04
CGA:  29    -0.319146696161E+03   -0.50558E-04   -0.50661E-04 29792   0.669E-03 0.115E-04
CGA:  30    -0.319146720177E+03   -0.24015E-04   -0.24031E-04 29792   0.781E-03 0.119E-05
CGA:  31    -0.319146779933E+03   -0.59756E-04   -0.59847E-04 29792   0.162E-02-0.391E-05
SDA:  32    -0.319146827995E+03   -0.48062E-04   -0.48039E-04 29792   0.410E-03-0.436E-05
CGA:  33    -0.319146839902E+03   -0.11907E-04   -0.11925E-04 29792   0.253E-03 0.412E-06
CGA:  34    -0.319146856250E+03   -0.16348E-04   -0.16274E-04 29792   0.377E-03 0.252E-05
CGA:  35    -0.319146888081E+03   -0.31832E-04   -0.31635E-04 29792   0.436E-03 0.428E-05
CGA:  36    -0.319146906890E+03   -0.18808E-04   -0.18810E-04 29792   0.160E-03-0.166E-06
CGA:  37    -0.319146917410E+03   -0.10521E-04   -0.10585E-04 29792   0.324E-03-0.365E-05
CGA:  38    -0.319146956962E+03   -0.39552E-04   -0.40723E-04 29792   0.408E-03-0.148E-04
CGA:  39    -0.319146970724E+03   -0.13762E-04   -0.13726E-04 29792   0.234E-03-0.291E-05
CGA:  40    -0.319146998544E+03   -0.27820E-04   -0.27631E-04 29792   0.667E-03 0.226E-05
CGA:  41    -0.319147034712E+03   -0.36168E-04   -0.36164E-04 29792   0.452E-03 0.596E-05
CGA:  42    -0.319147053664E+03   -0.18951E-04   -0.18981E-04 29792   0.237E-03 0.220E-05
CGA:  43    -0.319147066279E+03   -0.12615E-04   -0.12615E-04 29792   0.350E-03-0.134E-05
CGA:  44    -0.319147098777E+03   -0.32499E-04   -0.32667E-04 29792   0.499E-03-0.445E-05
CGA:  45    -0.319147114351E+03   -0.15574E-04   -0.15530E-04 29792   0.131E-03-0.173E-05
CGA:  46    -0.319147125587E+03   -0.11235E-04   -0.11181E-04 29792   0.276E-03 0.137E-05
CGA:  47    -0.319147145816E+03   -0.20229E-04   -0.20161E-04 29792   0.226E-03 0.374E-05
CGA:  48    -0.319147158838E+03   -0.13022E-04   -0.13020E-04 29792   0.746E-04 0.261E-05
CGA:  49    -0.319147163097E+03   -0.42589E-05   -0.42587E-05 29792   0.116E-03-0.814E-07
CGA:  50    -0.319147178312E+03   -0.15215E-04   -0.15324E-04 29792   0.271E-03-0.158E-05
CGA:  51    -0.319147185067E+03   -0.67551E-05   -0.67300E-05 29792   0.361E-04-0.618E-06
   9 F= -.31914719E+03 E0= -.31911679E+03  d E =-.436892E-01  mag=    48.1499
       N       E                     dE             d eps       ncg     rms          ort
SDA:   1    -0.312910900637E+03    0.62363E+01    0.00000E+00 29792   0.182E+02 0.000E+00
CGA:   2    -0.314212340830E+03   -0.13014E+01   -0.12893E+01 29792   0.472E+02 0.686E+00
CGA:   3    -0.317715726146E+03   -0.35034E+01   -0.35604E+01 29792   0.255E+02-0.359E+01
CGA:   4    -0.318266431181E+03   -0.55071E+00   -0.54421E+00 29792   0.515E+01 0.246E+00
CGA:   5    -0.318650297496E+03   -0.38387E+00   -0.38362E+00 29792   0.831E+01 0.120E-01
CGA:   6    -0.318957911421E+03   -0.30761E+00   -0.30732E+00 29792   0.200E+01-0.134E-02
CGA:   7    -0.319034267428E+03   -0.76356E-01   -0.75803E-01 29792   0.112E+01 0.879E-03
CGA:   8    -0.319088000835E+03   -0.53733E-01   -0.53772E-01 29792   0.766E+00 0.144E-02
CGA:   9    -0.319136348694E+03   -0.48348E-01   -0.48312E-01 29792   0.462E+00 0.352E-02
CGA:  10    -0.319148076948E+03   -0.11728E-01   -0.11787E-01 29792   0.995E-01-0.120E-02
CGA:  11    -0.319156115159E+03   -0.80382E-02   -0.80445E-02 29792   0.214E+00-0.201E-03
CGA:  12    -0.319164687788E+03   -0.85726E-02   -0.86494E-02 29792   0.667E-01 0.560E-03
CGA:  13    -0.319167022748E+03   -0.23350E-02   -0.23370E-02 29792   0.348E-01-0.303E-04
CGA:  14    -0.319168281844E+03   -0.12591E-02   -0.12694E-02 29792   0.196E-01-0.481E-05
CGA:  15    -0.319170241273E+03   -0.19594E-02   -0.19627E-02 29792   0.300E-01-0.738E-04
CGA:  16    -0.319171148615E+03   -0.90734E-03   -0.91895E-03 29792   0.591E-02-0.131E-03
CGA:  17    -0.319171492692E+03   -0.34408E-03   -0.34403E-03 29792   0.720E-02 0.814E-05
CGA:  18    -0.319171976881E+03   -0.48419E-03   -0.48233E-03 29792   0.805E-02 0.112E-03
CGA:  19    -0.319172381894E+03   -0.40501E-03   -0.40512E-03 29792   0.365E-02 0.192E-04
CGA:  20    -0.319172504445E+03   -0.12255E-03   -0.12309E-03 29792   0.156E-02 0.534E-05
CGA:  21    -0.319172656195E+03   -0.15175E-03   -0.15138E-03 29792   0.416E-02 0.684E-05
CGA:  22    -0.319172826702E+03   -0.17051E-03   -0.17120E-03 29792   0.119E-02 0.148E-04
CGA:  23    -0.319172869689E+03   -0.42987E-04   -0.43087E-04 29792   0.693E-03 0.397E-05
CGA:  24    -0.319172906207E+03   -0.36518E-04   -0.36533E-04 29792   0.599E-03 0.526E-05
CGA:  25    -0.319172953955E+03   -0.47748E-04   -0.47522E-04 29792   0.782E-03 0.831E-05
CGA:  26    -0.319172984100E+03   -0.30145E-04   -0.30214E-04 29792   0.191E-03 0.329E-05
CGA:  27    -0.319172994442E+03   -0.10342E-04   -0.10342E-04 29792   0.252E-03-0.358E-07
CGA:  28    -0.319173018622E+03   -0.24180E-04   -0.24178E-04 29792   0.282E-03-0.538E-06
CGA:  29    -0.319173030939E+03   -0.12317E-04   -0.12326E-04 29792   0.171E-03-0.192E-06
CGA:  30    -0.319173040731E+03   -0.97921E-05   -0.97917E-05 29792   0.170E-03 0.773E-07
CGA:  31    -0.319173058995E+03   -0.18264E-04   -0.18088E-04 29792   0.398E-03 0.312E-05
SDA:  32    -0.319173078498E+03   -0.19503E-04   -0.19542E-04 29792   0.155E-03 0.328E-05
CGA:  33    -0.319173083288E+03   -0.47903E-05   -0.47639E-05 29792   0.110E-03-0.136E-05
CGA:  34    -0.319173094635E+03   -0.11347E-04   -0.11584E-04 29792   0.221E-03-0.516E-05
CGA:  35    -0.319173109074E+03   -0.14439E-04   -0.14488E-04 29792   0.139E-03-0.546E-05
CGA:  36    -0.319173113986E+03   -0.49123E-05   -0.48989E-05 29792   0.597E-04-0.844E-06
  10 F= -.31917311E+03 E0= -.31914321E+03  d E =-.259289E-01  mag=    48.1515
       N       E                     dE             d eps       ncg     rms          ort
SDA:   1    -0.300231024922E+03    0.18942E+02    0.00000E+00 29792   0.578E+02 0.000E+00
CGA:   2    -0.304346051999E+03   -0.41150E+01   -0.41127E+01 29792   0.126E+03 0.538E-01
CGA:   3    -0.313850258919E+03   -0.95042E+01   -0.97839E+01 29792   0.126E+03-0.158E+02
CGA:   4    -0.315981000887E+03   -0.21307E+01   -0.17829E+01 29792   0.292E+02 0.166E+02
CGA:   5    -0.316619298193E+03   -0.63830E+00   -0.68082E+00 29792   0.246E+02-0.148E+01
CGA:   6    -0.317543066538E+03   -0.92377E+00   -0.89588E+00 29792   0.283E+02-0.591E-01
CGA:   7    -0.318076638371E+03   -0.53357E+00   -0.49332E+00 29792   0.164E+02 0.182E+01
CGA:   8    -0.318476111585E+03   -0.39947E+00   -0.40890E+00 29792   0.141E+02-0.239E+00
CGA:   9    -0.318733498099E+03   -0.25739E+00   -0.28533E+00 29792   0.594E+01-0.883E+00
CGA:  10    -0.318830059787E+03   -0.96562E-01   -0.97778E-01 29792   0.254E+01-0.453E-01
CGA:  11    -0.318910674626E+03   -0.80615E-01   -0.80166E-01 29792   0.389E+01 0.160E-02
CGA:  12    -0.319021453328E+03   -0.11078E+00   -0.11214E+00 29792   0.260E+01-0.894E-02
CGA:  13    -0.319071078830E+03   -0.49626E-01   -0.52929E-01 29792   0.115E+01-0.931E-01
CGA:  14    -0.319099264122E+03   -0.28185E-01   -0.28659E-01 29792   0.706E+00-0.591E-02
CGA:  15    -0.319117183573E+03   -0.17919E-01   -0.18139E-01 29792   0.417E+00-0.259E-02
CGA:  16    -0.319129537291E+03   -0.12354E-01   -0.12478E-01 29792   0.356E+00 0.408E-03
CGA:  17    -0.319142986913E+03   -0.13450E-01   -0.13484E-01 29792   0.420E+00 0.204E-02
CGA:  18    -0.319156904738E+03   -0.13918E-01   -0.13966E-01 29792   0.196E+00 0.924E-03
CGA:  19    -0.319161002410E+03   -0.40977E-02   -0.41631E-02 29792   0.841E-01-0.153E-02
CGA:  20    -0.319164473982E+03   -0.34716E-02   -0.34717E-02 29792   0.766E-01 0.585E-03
CGA:  21    -0.319166804526E+03   -0.23305E-02   -0.23338E-02 29792   0.595E-01 0.495E-04
CGA:  22    -0.319169665913E+03   -0.28614E-02   -0.28551E-02 29792   0.705E-01 0.597E-03
CGA:  23    -0.319171651580E+03   -0.19857E-02   -0.19997E-02 29792   0.223E-01 0.793E-04
CGA:  24    -0.319172386868E+03   -0.73529E-03   -0.73603E-03 29792   0.225E-01 0.295E-04
CGA:  25    -0.319173441622E+03   -0.10548E-02   -0.10536E-02 29792   0.173E-01 0.106E-03
CGA:  26    -0.319174124575E+03   -0.68295E-03   -0.68329E-03 29792   0.178E-01 0.110E-03
CGA:  27    -0.319174769212E+03   -0.64464E-03   -0.64472E-03 29792   0.932E-02 0.116E-04
CGA:  28    -0.319175054687E+03   -0.28547E-03   -0.28584E-03 29792   0.463E-02 0.149E-04
CGA:  29    -0.319175272092E+03   -0.21741E-03   -0.21698E-03 29792   0.687E-02 0.482E-04
CGA:  30    -0.319175592895E+03   -0.32080E-03   -0.32032E-03 29792   0.520E-02 0.735E-04
CGA:  31    -0.319175786256E+03   -0.19336E-03   -0.19354E-03 29792   0.378E-02 0.441E-04
SDA:  32    -0.319175912734E+03   -0.12648E-03   -0.12674E-03 29792   0.178E-02 0.279E-04
CGA:  33    -0.319175959392E+03   -0.46658E-04   -0.46638E-04 29792   0.928E-03-0.465E-05
CGA:  34    -0.319176031493E+03   -0.72100E-04   -0.72443E-04 29792   0.164E-02-0.103E-04
CGA:  35    -0.319176139654E+03   -0.10816E-03   -0.10846E-03 29792   0.176E-02-0.130E-04
CGA:  36    -0.319176209600E+03   -0.69946E-04   -0.69954E-04 29792   0.532E-03-0.390E-07
CGA:  37    -0.319176248090E+03   -0.38490E-04   -0.38045E-04 29792   0.959E-03 0.142E-04
CGA:  38    -0.319176327541E+03   -0.79451E-04   -0.78197E-04 29792   0.899E-03 0.344E-04
CGA:  39    -0.319176365178E+03   -0.37637E-04   -0.37695E-04 29792   0.634E-03 0.107E-04
CGA:  40    -0.319176438239E+03   -0.73061E-04   -0.72554E-04 29792   0.162E-02 0.676E-05
CGA:  41    -0.319176531750E+03   -0.93511E-04   -0.93334E-04 29792   0.124E-02 0.149E-04
CGA:  42    -0.319176590157E+03   -0.58407E-04   -0.58403E-04 29792   0.459E-03-0.220E-06
CGA:  43    -0.319176634975E+03   -0.44818E-04   -0.44686E-04 29792   0.143E-02 0.219E-05
CGA:  44    -0.319176741384E+03   -0.10641E-03   -0.10641E-03 29792   0.120E-02-0.222E-06
CGA:  45    -0.319176777511E+03   -0.36126E-04   -0.36196E-04 29792   0.466E-03-0.228E-07
CGA:  46    -0.319176805106E+03   -0.27596E-04   -0.27590E-04 29792   0.488E-03-0.191E-07
CGA:  47    -0.319176850807E+03   -0.45701E-04   -0.46068E-04 29792   0.857E-03-0.893E-05
CGA:  48    -0.319176887066E+03   -0.36258E-04   -0.36235E-04 29792   0.322E-03-0.555E-05
CGA:  49    -0.319176900822E+03   -0.13757E-04   -0.13722E-04 29792   0.313E-03-0.401E-05
CGA:  50    -0.319176956974E+03   -0.56152E-04   -0.58959E-04 29792   0.643E-03-0.205E-04
CGA:  51    -0.319176976592E+03   -0.19618E-04   -0.19466E-04 29792   0.195E-03-0.493E-05
CGA:  52    -0.319177001241E+03   -0.24650E-04   -0.24472E-04 29792   0.728E-03 0.230E-05
CGA:  53    -0.319177046817E+03   -0.45576E-04   -0.45576E-04 29792   0.250E-03 0.512E-05
CGA:  54    -0.319177058067E+03   -0.11249E-04   -0.11243E-04 29792   0.289E-03-0.950E-06
CGA:  55    -0.319177084456E+03   -0.26389E-04   -0.26609E-04 29792   0.476E-03-0.712E-05
CGA:  56    -0.319177107889E+03   -0.23433E-04   -0.23382E-04 29792   0.305E-03-0.522E-05
CGA:  57    -0.319177119276E+03   -0.11386E-04   -0.11367E-04 29792   0.125E-03-0.187E-05
CGA:  58    -0.319177128270E+03   -0.89948E-05   -0.89951E-05 29792   0.252E-03-0.241E-06
CGA:  59    -0.319177146343E+03   -0.18072E-04   -0.18056E-04 29792   0.136E-03 0.983E-06
CGA:  60    -0.319177152440E+03   -0.60970E-05   -0.60982E-05 29792   0.675E-04-0.164E-06
  11 F= -.31917715E+03 E0= -.31914817E+03  d E =-.403845E-02  mag=    48.2122
       N       E                     dE             d eps       ncg     rms          ort
SDA:   1    -0.316801053529E+03    0.23761E+01    0.00000E+00 29792   0.818E+01 0.000E+00
CGA:   2    -0.317426476437E+03   -0.62542E+00   -0.62715E+00 29792   0.156E+02-0.834E-01
CGA:   3    -0.318450553307E+03   -0.10241E+01   -0.10238E+01 29792   0.814E+01 0.421E-01
CGA:   4    -0.318687965982E+03   -0.23741E+00   -0.23117E+00 29792   0.325E+01 0.143E+00
CGA:   5    -0.318942707189E+03   -0.25474E+00   -0.25533E+00 29792   0.403E+01-0.261E-01
CGA:   6    -0.319081633002E+03   -0.13893E+00   -0.13985E+00 29792   0.111E+01-0.879E-02
CGA:   7    -0.319131358557E+03   -0.49726E-01   -0.49658E-01 29792   0.565E+00-0.510E-03
CGA:   8    -0.319158791788E+03   -0.27433E-01   -0.27431E-01 29792   0.546E+00-0.618E-05
CGA:   9    -0.319187385267E+03   -0.28593E-01   -0.28597E-01 29792   0.184E+00 0.207E-03
CGA:  10    -0.319193260436E+03   -0.58752E-02   -0.58769E-02 29792   0.601E-01 0.113E-05
CGA:  11    -0.319197753680E+03   -0.44932E-02   -0.44916E-02 29792   0.813E-01 0.743E-04
CGA:  12    -0.319201616641E+03   -0.38630E-02   -0.38645E-02 29792   0.354E-01 0.525E-04
CGA:  13    -0.319202980633E+03   -0.13640E-02   -0.13647E-02 29792   0.128E-01 0.600E-05
CGA:  14    -0.319203506310E+03   -0.52568E-03   -0.52608E-03 29792   0.131E-01 0.624E-05
CGA:  15    -0.319204699972E+03   -0.11937E-02   -0.11923E-02 29792   0.122E-01 0.342E-04
CGA:  16    -0.319205083160E+03   -0.38319E-03   -0.38343E-03 29792   0.244E-02-0.793E-07
CGA:  17    -0.319205287561E+03   -0.20440E-03   -0.20425E-03 29792   0.432E-02 0.463E-05
CGA:  18    -0.319205540242E+03   -0.25268E-03   -0.25267E-03 29792   0.400E-02 0.131E-04
CGA:  19    -0.319205706521E+03   -0.16628E-03   -0.16646E-03 29792   0.142E-02 0.776E-05
CGA:  20    -0.319205761946E+03   -0.55425E-04   -0.55466E-04 29792   0.846E-03 0.126E-05
CGA:  21    -0.319205875703E+03   -0.11376E-03   -0.11353E-03 29792   0.215E-02 0.246E-05
CGA:  22    -0.319205939940E+03   -0.64237E-04   -0.64331E-04 29792   0.543E-03-0.241E-06
CGA:  23    -0.319205968889E+03   -0.28950E-04   -0.28954E-04 29792   0.325E-03 0.285E-06
CGA:  24    -0.319205995523E+03   -0.26633E-04   -0.26622E-04 29792   0.625E-03 0.350E-07
CGA:  25    -0.319206036572E+03   -0.41050E-04   -0.41060E-04 29792   0.341E-03-0.201E-05
CGA:  26    -0.319206047144E+03   -0.10571E-04   -0.10539E-04 29792   0.134E-03-0.149E-05
CGA:  27    -0.319206061466E+03   -0.14322E-04   -0.14438E-04 29792   0.430E-03-0.261E-05
CGA:  28    -0.319206086285E+03   -0.24819E-04   -0.24812E-04 29792   0.265E-03-0.396E-05
CGA:  29    -0.319206097801E+03   -0.11516E-04   -0.11478E-04 29792   0.156E-03-0.233E-05
CGA:  30    -0.319206108005E+03   -0.10204E-04   -0.10215E-04 29792   0.226E-03-0.208E-05
CGA:  31    -0.319206128994E+03   -0.20990E-04   -0.21094E-04 29792   0.480E-03-0.319E-05
SDA:  32    -0.319206149594E+03   -0.20599E-04   -0.20548E-04 29792   0.132E-03-0.342E-05
CGA:  33    -0.319206155046E+03   -0.54522E-05   -0.54289E-05 29792   0.127E-03-0.134E-05
  12 F= -.31920616E+03 E0= -.31917730E+03  d E =-.290026E-01  mag=    48.3017
       N       E                     dE             d eps       ncg     rms          ort
SDA:   1    -0.319101014637E+03    0.10513E+00    0.00000E+00 29792   0.901E+00 0.000E+00
CGA:   2    -0.319122970861E+03   -0.21956E-01   -0.22020E-01 29792   0.408E+00-0.181E-02
CGA:   3    -0.319154458795E+03   -0.31488E-01   -0.31514E-01 29792   0.496E+00-0.101E-02
CGA:   4    -0.319186330393E+03   -0.31872E-01   -0.31865E-01 29792   0.287E+00 0.903E-03
CGA:   5    -0.319195683465E+03   -0.93531E-02   -0.93392E-02 29792   0.110E+00 0.181E-03
CGA:   6    -0.319202051995E+03   -0.63685E-02   -0.63686E-02 29792   0.135E+00 0.281E-04
CGA:   7    -0.319208793380E+03   -0.67414E-02   -0.67414E-02 29792   0.210E-01 0.109E-04
CGA:   8    -0.319209852800E+03   -0.10594E-02   -0.10597E-02 29792   0.188E-01 0.195E-04
CGA:   9    -0.319210992795E+03   -0.11400E-02   -0.11400E-02 29792   0.134E-01 0.229E-05
CGA:  10    -0.319211512579E+03   -0.51978E-03   -0.52003E-03 29792   0.548E-02 0.360E-05
CGA:  11    -0.319211698678E+03   -0.18610E-03   -0.18608E-03 29792   0.194E-02 0.152E-05
CGA:  12    -0.319211810660E+03   -0.11198E-03   -0.11198E-03 29792   0.273E-02-0.246E-06
CGA:  13    -0.319211976630E+03   -0.16597E-03   -0.16596E-03 29792   0.773E-03 0.143E-05
CGA:  14    -0.319212002242E+03   -0.25612E-04   -0.25620E-04 29792   0.401E-03 0.280E-06
CGA:  15    -0.319212037552E+03   -0.35310E-04   -0.35320E-04 29792   0.657E-03-0.343E-06
CGA:  16    -0.319212067907E+03   -0.30355E-04   -0.30360E-04 29792   0.361E-03 0.380E-06
CGA:  17    -0.319212082682E+03   -0.14775E-04   -0.14790E-04 29792   0.108E-03 0.896E-06
CGA:  18    -0.319212090778E+03   -0.80961E-05   -0.80967E-05 29792   0.210E-03-0.763E-07
CGA:  19    -0.319212106099E+03   -0.15320E-04   -0.15326E-04 29792   0.206E-03-0.381E-06
CGA:  20    -0.319212112085E+03   -0.59862E-05   -0.59842E-05 29792   0.578E-04-0.115E-06
  13 F= -.31921211E+03 E0= -.31918331E+03  d E =-.595704E-02  mag=    48.3169
       N       E                     dE             d eps       ncg     rms          ort
SDA:   1    -0.319044383173E+03    0.16772E+00    0.00000E+00 29792   0.644E+00 0.000E+00
CGA:   2    -0.319072702437E+03   -0.28319E-01   -0.28311E-01 29792   0.892E+00-0.132E-03
CGA:   3    -0.319159891043E+03   -0.87189E-01   -0.87170E-01 29792   0.924E+00 0.381E-03
CGA:   4    -0.319188515563E+03   -0.28625E-01   -0.28576E-01 29792   0.216E+00 0.812E-03
CGA:   5    -0.319199430118E+03   -0.10915E-01   -0.10911E-01 29792   0.188E+00-0.180E-03
CGA:   6    -0.319208616278E+03   -0.91862E-02   -0.91834E-02 29792   0.130E+00-0.103E-03
CGA:   7    -0.319213538123E+03   -0.49218E-02   -0.49288E-02 29792   0.335E-01 0.187E-04
CGA:   8    -0.319214841405E+03   -0.13033E-02   -0.13035E-02 29792   0.206E-01 0.108E-04
CGA:   9    -0.319216461238E+03   -0.16198E-02   -0.16197E-02 29792   0.178E-01 0.115E-04
CGA:  10    -0.319217093993E+03   -0.63275E-03   -0.63344E-03 29792   0.357E-02 0.114E-04
CGA:  11    -0.319217288982E+03   -0.19499E-03   -0.19499E-03 29792   0.333E-02 0.715E-06
CGA:  12    -0.319217465842E+03   -0.17686E-03   -0.17686E-03 29792   0.327E-02-0.601E-06
CGA:  13    -0.319217620380E+03   -0.15454E-03   -0.15452E-03 29792   0.140E-02-0.265E-05
CGA:  14    -0.319217659778E+03   -0.39398E-04   -0.39366E-04 29792   0.378E-03-0.114E-05
CGA:  15    -0.319217716939E+03   -0.57161E-04   -0.57057E-04 29792   0.817E-03 0.983E-06
CGA:  16    -0.319217748220E+03   -0.31281E-04   -0.31295E-04 29792   0.225E-03 0.472E-06
CGA:  17    -0.319217757846E+03   -0.96264E-05   -0.96313E-05 29792   0.201E-03 0.211E-06
CGA:  18    -0.319217771506E+03   -0.13660E-04   -0.13651E-04 29792   0.248E-03 0.682E-06
CGA:  19    -0.319217791948E+03   -0.20442E-04   -0.20421E-04 29792   0.162E-03 0.780E-06
CGA:  20    -0.319217797014E+03   -0.50658E-05   -0.50699E-05 29792   0.810E-04 0.445E-07
  14 F= -.31921780E+03 E0= -.31918906E+03  d E =-.568493E-02  mag=    48.3405
       N       E                     dE             d eps       ncg     rms          ort
SDA:   1    -0.318782274855E+03    0.43552E+00    0.00000E+00 29792   0.185E+01 0.000E+00
CGA:   2    -0.318844718512E+03   -0.62444E-01   -0.62968E-01 29792   0.191E+01-0.473E-02
CGA:   3    -0.319074057629E+03   -0.22934E+00   -0.22963E+00 29792   0.272E+01-0.568E-02
CGA:   4    -0.319162884777E+03   -0.88827E-01   -0.88513E-01 29792   0.480E+00 0.563E-02
CGA:   5    -0.319183987798E+03   -0.21103E-01   -0.21111E-01 29792   0.362E+00 0.113E-03
CGA:   6    -0.319203092826E+03   -0.19105E-01   -0.19107E-01 29792   0.271E+00 0.122E-03
CGA:   7    -0.319214827434E+03   -0.11735E-01   -0.11734E-01 29792   0.104E+00 0.161E-04
CGA:   8    -0.319218653850E+03   -0.38264E-02   -0.38254E-02 29792   0.312E-01 0.293E-04
CGA:   9    -0.319221349120E+03   -0.26953E-02   -0.26942E-02 29792   0.444E-01 0.390E-04
CGA:  10    -0.319222984085E+03   -0.16350E-02   -0.16376E-02 29792   0.103E-01 0.313E-04
CGA:  11    -0.319223354152E+03   -0.37007E-03   -0.37020E-03 29792   0.611E-02 0.561E-06
CGA:  12    -0.319223685833E+03   -0.33168E-03   -0.33167E-03 29792   0.636E-02-0.905E-05
CGA:  13    -0.319224084890E+03   -0.39906E-03   -0.39907E-03 29792   0.391E-02-0.609E-05
CGA:  14    -0.319224201270E+03   -0.11638E-03   -0.11637E-03 29792   0.772E-03-0.300E-05
CGA:  15    -0.319224259646E+03   -0.58375E-04   -0.58339E-04 29792   0.157E-02 0.110E-05
CGA:  16    -0.319224356886E+03   -0.97240E-04   -0.97206E-04 29792   0.855E-03 0.473E-05
CGA:  17    -0.319224390121E+03   -0.33235E-04   -0.33274E-04 29792   0.408E-03 0.160E-05
CGA:  18    -0.319224411531E+03   -0.21410E-04   -0.21412E-04 29792   0.287E-03 0.269E-06
CGA:  19    -0.319224450926E+03   -0.39395E-04   -0.39417E-04 29792   0.572E-03-0.556E-06
CGA:  20    -0.319224471896E+03   -0.20970E-04   -0.20969E-04 29792   0.165E-03-0.217E-06
CGA:  21    -0.319224479107E+03   -0.72102E-05   -0.72187E-05 29792   0.190E-03 0.325E-06
CGA:  22    -0.319224498707E+03   -0.19600E-04   -0.19506E-04 29792   0.236E-03 0.185E-05
CGA:  23    -0.319224509072E+03   -0.10365E-04   -0.10360E-04 29792   0.140E-03-0.462E-06
CGA:  24    -0.319224515386E+03   -0.63142E-05   -0.62964E-05 29792   0.106E-03-0.148E-05
  15 F= -.31922452E+03 E0= -.31919583E+03  d E =-.671837E-02  mag=    48.3769
       N       E                     dE             d eps       ncg     rms          ort
SDA:   1    -0.308928521340E+03    0.10296E+02    0.00000E+00 29792   0.277E+02 0.000E+00
CGA:   2    -0.312016699144E+03   -0.30882E+01   -0.30557E+01 29792   0.945E+02 0.663E+00
CGA:   3    -0.316526983867E+03   -0.45103E+01   -0.42946E+01 29792   0.302E+02 0.467E+00
CGA:   4    -0.317647573600E+03   -0.11206E+01   -0.10351E+01 29792   0.126E+02 0.123E+01
CGA:   5    -0.318223805179E+03   -0.57623E+00   -0.55949E+00 29792   0.984E+01-0.105E+00
CGA:   6    -0.318671971317E+03   -0.44817E+00   -0.45266E+00 29792   0.799E+01 0.955E-01
CGA:   7    -0.318976105058E+03   -0.30413E+00   -0.30188E+00 29792   0.202E+01 0.235E-01
CGA:   8    -0.319034767229E+03   -0.58662E-01   -0.58443E-01 29792   0.116E+01 0.455E-02
CGA:   9    -0.319115051787E+03   -0.80285E-01   -0.80220E-01 29792   0.143E+01 0.347E-02
CGA:  10    -0.319160773290E+03   -0.45722E-01   -0.46669E-01 29792   0.358E+00-0.754E-02
CGA:  11    -0.319172481760E+03   -0.11708E-01   -0.11727E-01 29792   0.162E+00-0.472E-04
CGA:  12    -0.319183078248E+03   -0.10596E-01   -0.10555E-01 29792   0.197E+00 0.249E-02
CGA:  13    -0.319191790993E+03   -0.87127E-02   -0.87256E-02 29792   0.146E+00 0.266E-03
CGA:  14    -0.319197228937E+03   -0.54379E-02   -0.54568E-02 29792   0.369E-01 0.400E-04
CGA:  15    -0.319198465553E+03   -0.12366E-02   -0.12391E-02 29792   0.250E-01-0.490E-05
CGA:  16    -0.319201471081E+03   -0.30055E-02   -0.29683E-02 29792   0.347E-01 0.571E-03
CGA:  17    -0.319202587294E+03   -0.11162E-02   -0.11174E-02 29792   0.118E-01 0.226E-04
CGA:  18    -0.319203112310E+03   -0.52502E-03   -0.52557E-03 29792   0.947E-02 0.225E-04
CGA:  19    -0.319203748655E+03   -0.63634E-03   -0.63587E-03 29792   0.116E-01 0.269E-04
CGA:  20    -0.319204468132E+03   -0.71948E-03   -0.71809E-03 29792   0.810E-02 0.124E-03
CGA:  21    -0.319204708904E+03   -0.24077E-03   -0.24129E-03 29792   0.298E-02 0.796E-05
CGA:  22    -0.319204979123E+03   -0.27022E-03   -0.26867E-03 29792   0.468E-02 0.402E-04
CGA:  23    -0.319205251733E+03   -0.27261E-03   -0.27251E-03 29792   0.378E-02 0.397E-04
CGA:  24    -0.319205407784E+03   -0.15605E-03   -0.15652E-03 29792   0.148E-02 0.170E-04
CGA:  25    -0.319205473683E+03   -0.65898E-04   -0.65921E-04 29792   0.145E-02 0.126E-05
CGA:  26    -0.319205613657E+03   -0.13997E-03   -0.13983E-03 29792   0.228E-02 0.243E-05
CGA:  27    -0.319205702182E+03   -0.88526E-04   -0.88359E-04 29792   0.920E-03-0.389E-05
CGA:  28    -0.319205755914E+03   -0.53732E-04   -0.53731E-04 29792   0.124E-02-0.643E-07
CGA:  29    -0.319205847450E+03   -0.91536E-04   -0.91429E-04 29792   0.159E-02 0.537E-05
CGA:  30    -0.319205966640E+03   -0.11919E-03   -0.11880E-03 29792   0.171E-02 0.174E-04
CGA:  31    -0.319206037751E+03   -0.71112E-04   -0.70841E-04 29792   0.108E-02-0.662E-06
SDA:  32    -0.319206167600E+03   -0.12985E-03   -0.12844E-03 29792   0.333E-02 0.226E-04
CGA:  33    -0.319206233930E+03   -0.66330E-04   -0.66194E-04 29792   0.574E-03 0.169E-05
CGA:  34    -0.319206273432E+03   -0.39502E-04   -0.39549E-04 29792   0.121E-02-0.460E-05
CGA:  35    -0.319206394385E+03   -0.12095E-03   -0.12162E-03 29792   0.111E-02-0.161E-04
CGA:  36    -0.319206443943E+03   -0.49558E-04   -0.49467E-04 29792   0.486E-03-0.529E-05
CGA:  37    -0.319206468096E+03   -0.24153E-04   -0.24166E-04 29792   0.467E-03 0.944E-06
CGA:  38    -0.319206507661E+03   -0.39565E-04   -0.39482E-04 29792   0.869E-03 0.316E-05
CGA:  39    -0.319206548755E+03   -0.41094E-04   -0.41106E-04 29792   0.401E-03 0.134E-05
CGA:  40    -0.319206584045E+03   -0.35289E-04   -0.35467E-04 29792   0.902E-03-0.642E-05
CGA:  41    -0.319206697656E+03   -0.11361E-03   -0.11727E-03 29792   0.741E-03-0.538E-04
CGA:  42    -0.319206734990E+03   -0.37334E-04   -0.37358E-04 29792   0.637E-03-0.452E-05
CGA:  43    -0.319206774871E+03   -0.39880E-04   -0.39864E-04 29792   0.113E-02-0.810E-05
CGA:  44    -0.319206869580E+03   -0.94709E-04   -0.95258E-04 29792   0.183E-02-0.205E-04
CGA:  45    -0.319206934964E+03   -0.65384E-04   -0.66281E-04 29792   0.397E-03-0.797E-05
CGA:  46    -0.319206972679E+03   -0.37715E-04   -0.37732E-04 29792   0.103E-02-0.973E-06
CGA:  47    -0.319207044439E+03   -0.71760E-04   -0.71877E-04 29792   0.622E-03-0.149E-04
CGA:  48    -0.319207063225E+03   -0.18786E-04   -0.18903E-04 29792   0.212E-03-0.209E-06
CGA:  49    -0.319207078736E+03   -0.15511E-04   -0.15482E-04 29792   0.390E-03 0.284E-05
CGA:  50    -0.319207109561E+03   -0.30825E-04   -0.30748E-04 29792   0.522E-03 0.605E-05
CGA:  51    -0.319207129682E+03   -0.20121E-04   -0.20290E-04 29792   0.105E-03 0.502E-05
CGA:  52    -0.319207133777E+03   -0.40952E-05   -0.41268E-05 29792   0.891E-04 0.110E-05
  16 F= -.31920713E+03 E0= -.31917754E+03  d E =0.173816E-01  mag=    48.4857
       N       E                     dE             d eps       ncg     rms          ort
SDA:   1    -0.318339540505E+03    0.86759E+00    0.00000E+00 29792   0.379E+01 0.000E+00
CGA:   2    -0.318538832979E+03   -0.19929E+00   -0.19927E+00 29792   0.476E+01 0.302E-03
CGA:   3    -0.318910145913E+03   -0.37131E+00   -0.37171E+00 29792   0.322E+01-0.184E-01
CGA:   4    -0.319024443633E+03   -0.11430E+00   -0.11488E+00 29792   0.146E+01-0.410E-02
CGA:   5    -0.319100899727E+03   -0.76456E-01   -0.76150E-01 29792   0.159E+01-0.917E-02
CGA:   6    -0.319174991155E+03   -0.74091E-01   -0.74199E-01 29792   0.683E+00 0.149E-02
CGA:   7    -0.319200467546E+03   -0.25476E-01   -0.25650E-01 29792   0.241E+00-0.835E-03
CGA:   8    -0.319211803324E+03   -0.11336E-01   -0.11334E-01 29792   0.199E+00-0.145E-04
CGA:   9    -0.319223561378E+03   -0.11758E-01   -0.11758E-01 29792   0.157E+00-0.687E-04
CGA:  10    -0.319228397597E+03   -0.48362E-02   -0.48475E-02 29792   0.277E-01-0.150E-03
CGA:  11    -0.319229829239E+03   -0.14316E-02   -0.14315E-02 29792   0.291E-01-0.111E-05
CGA:  12    -0.319231941685E+03   -0.21124E-02   -0.21118E-02 29792   0.150E-01 0.308E-04
CGA:  13    -0.319232557979E+03   -0.61629E-03   -0.61676E-03 29792   0.629E-02 0.775E-05
CGA:  14    -0.319232804481E+03   -0.24650E-03   -0.24666E-03 29792   0.452E-02 0.455E-05
CGA:  15    -0.319233164489E+03   -0.36001E-03   -0.35978E-03 29792   0.745E-02 0.902E-05
CGA:  16    -0.319233435254E+03   -0.27077E-03   -0.27096E-03 29792   0.144E-02 0.457E-05
CGA:  17    -0.319233503515E+03   -0.68262E-04   -0.68304E-04 29792   0.116E-02 0.326E-05
CGA:  18    -0.319233608689E+03   -0.10517E-03   -0.10506E-03 29792   0.191E-02 0.292E-05
CGA:  19    -0.319233684353E+03   -0.75665E-04   -0.75697E-04 29792   0.793E-03 0.962E-06
CGA:  20    -0.319233715491E+03   -0.31138E-04   -0.31157E-04 29792   0.334E-03 0.580E-06
CGA:  21    -0.319233743564E+03   -0.28073E-04   -0.28047E-04 29792   0.613E-03 0.731E-06
CGA:  22    -0.319233784444E+03   -0.40880E-04   -0.40857E-04 29792   0.363E-03 0.217E-05
CGA:  23    -0.319233795428E+03   -0.10984E-04   -0.10985E-04 29792   0.135E-03-0.124E-06
CGA:  24    -0.319233803867E+03   -0.84395E-05   -0.84432E-05 29792   0.197E-03-0.783E-06
CGA:  25    -0.319233816324E+03   -0.12456E-04   -0.12462E-04 29792   0.189E-03-0.929E-06
CGA:  26    -0.319233825899E+03   -0.95755E-05   -0.95714E-05 29792   0.627E-04-0.750E-06
  17 F= -.31923383E+03 E0= -.31920457E+03  d E =-.266921E-01  mag=    48.5075
       N       E                     dE             d eps       ncg     rms          ort
SDA:   1    -0.319206059561E+03    0.27757E-01    0.00000E+00 29792   0.227E+00 0.000E+00
CGA:   2    -0.319211769554E+03   -0.57100E-02   -0.56955E-02 29792   0.103E+00 0.352E-03
CGA:   3    -0.319225006825E+03   -0.13237E-01   -0.13239E-01 29792   0.226E+00-0.255E-04
CGA:   4    -0.319231708870E+03   -0.67020E-02   -0.67058E-02 29792   0.444E-01-0.437E-04
CGA:   5    -0.319234117226E+03   -0.24084E-02   -0.24082E-02 29792   0.393E-01-0.231E-04
CGA:   6    -0.319236286534E+03   -0.21693E-02   -0.21692E-02 29792   0.299E-01-0.267E-04
CGA:   7    -0.319237306316E+03   -0.10198E-02   -0.10210E-02 29792   0.801E-02-0.945E-06
CGA:   8    -0.319237636764E+03   -0.33045E-03   -0.33055E-03 29792   0.491E-02 0.549E-05
CGA:   9    -0.319237954165E+03   -0.31740E-03   -0.31737E-03 29792   0.458E-02 0.443E-05
CGA:  10    -0.319238151679E+03   -0.19751E-03   -0.19755E-03 29792   0.835E-03 0.294E-05
CGA:  11    -0.319238189203E+03   -0.37524E-04   -0.37515E-04 29792   0.673E-03-0.800E-06
CGA:  12    -0.319238236613E+03   -0.47411E-04   -0.47412E-04 29792   0.807E-03-0.409E-07
CGA:  13    -0.319238264831E+03   -0.28217E-04   -0.28224E-04 29792   0.299E-03 0.805E-07
CGA:  14    -0.319238276973E+03   -0.12143E-04   -0.12133E-04 29792   0.108E-03-0.692E-06
CGA:  15    -0.319238285506E+03   -0.85322E-05   -0.85362E-05 29792   0.212E-03-0.174E-06
CGA:  16    -0.319238298853E+03   -0.13347E-04   -0.13345E-04 29792   0.661E-04 0.212E-06
CGA:  17    -0.319238301135E+03   -0.22827E-05   -0.22834E-05 29792   0.477E-04 0.157E-07
  18 F= -.31923830E+03 E0= -.31920909E+03  d E =-.447524E-02  mag=    48.5147
       N       E                     dE             d eps       ncg     rms          ort
SDA:   1    -0.318756858432E+03    0.48144E+00    0.00000E+00 29792   0.170E+01 0.000E+00
CGA:   2    -0.318860892312E+03   -0.10403E+00   -0.10416E+00 29792   0.301E+01-0.137E-01
CGA:   3    -0.319062411771E+03   -0.20152E+00   -0.20134E+00 29792   0.283E+01 0.101E-01
CGA:   4    -0.319155755282E+03   -0.93344E-01   -0.93247E-01 29792   0.872E+00 0.173E-02
CGA:   5    -0.319194561321E+03   -0.38806E-01   -0.38697E-01 29792   0.392E+00-0.239E-02
CGA:   6    -0.319221513939E+03   -0.26953E-01   -0.26968E-01 29792   0.436E+00-0.770E-03
CGA:   7    -0.319238788851E+03   -0.17275E-01   -0.17305E-01 29792   0.953E-01 0.224E-03
CGA:   8    -0.319242622626E+03   -0.38338E-02   -0.38334E-02 29792   0.618E-01 0.227E-04
CGA:   9    -0.319246531270E+03   -0.39086E-02   -0.39078E-02 29792   0.568E-01 0.802E-04
CGA:  10    -0.319248692684E+03   -0.21614E-02   -0.21618E-02 29792   0.179E-01 0.250E-04
CGA:  11    -0.319249349333E+03   -0.65665E-03   -0.65624E-03 29792   0.643E-02 0.215E-05
CGA:  12    -0.319249887805E+03   -0.53847E-03   -0.53812E-03 29792   0.907E-02 0.995E-05
CGA:  13    -0.319250400473E+03   -0.51267E-03   -0.51268E-03 29792   0.366E-02-0.500E-05
CGA:  14    -0.319250491290E+03   -0.90817E-04   -0.90843E-04 29792   0.125E-02-0.240E-05
CGA:  15    -0.319250609416E+03   -0.11813E-03   -0.11807E-03 29792   0.212E-02 0.124E-05
CGA:  16    -0.319250724586E+03   -0.11517E-03   -0.11517E-03 29792   0.107E-02 0.392E-05
CGA:  17    -0.319250772022E+03   -0.47436E-04   -0.47464E-04 29792   0.517E-03 0.220E-05
CGA:  18    -0.319250793809E+03   -0.21787E-04   -0.21798E-04 29792   0.478E-03 0.747E-06
CGA:  19    -0.319250847301E+03   -0.53492E-04   -0.53387E-04 29792   0.642E-03 0.170E-05
CGA:  20    -0.319250870469E+03   -0.23168E-04   -0.23199E-04 29792   0.183E-03 0.118E-05
CGA:  21    -0.319250880473E+03   -0.10004E-04   -0.10005E-04 29792   0.202E-03 0.572E-06
CGA:  22    -0.319250898344E+03   -0.17871E-04   -0.17841E-04 29792   0.271E-03 0.868E-06
CGA:  23    -0.319250909723E+03   -0.11379E-04   -0.11378E-04 29792   0.145E-03-0.190E-06
CGA:  24    -0.319250914821E+03   -0.50978E-05   -0.50835E-05 29792   0.598E-04-0.746E-06
  19 F= -.31925091E+03 E0= -.31922186E+03  d E =-.126137E-01  mag=    48.5377
       N       E                     dE             d eps       ncg     rms          ort
SDA:   1    -0.319163758553E+03    0.87151E-01    0.00000E+00 29792   0.624E+00 0.000E+00
CGA:   2    -0.319180349121E+03   -0.16591E-01   -0.16650E-01 29792   0.283E+00-0.108E-02
CGA:   3    -0.319207750890E+03   -0.27402E-01   -0.27428E-01 29792   0.667E+00-0.584E-03
CGA:   4    -0.319236872952E+03   -0.29122E-01   -0.29107E-01 29792   0.189E+00-0.213E-03
CGA:   5    -0.319243507452E+03   -0.66345E-02   -0.66522E-02 29792   0.764E-01-0.703E-04
CGA:   6    -0.319247556193E+03   -0.40487E-02   -0.40485E-02 29792   0.609E-01-0.272E-04
CGA:   7    -0.319250768984E+03   -0.32128E-02   -0.32130E-02 29792   0.409E-01 0.428E-04
CGA:   8    -0.319252136314E+03   -0.13673E-02   -0.13670E-02 29792   0.100E-01 0.152E-04
CGA:   9    -0.319252552712E+03   -0.41640E-03   -0.41638E-03 29792   0.708E-02 0.227E-05
CGA:  10    -0.319253167328E+03   -0.61462E-03   -0.61426E-03 29792   0.485E-02 0.105E-04
CGA:  11    -0.319253312011E+03   -0.14468E-03   -0.14474E-03 29792   0.953E-03 0.301E-05
CGA:  12    -0.319253381565E+03   -0.69554E-04   -0.69579E-04 29792   0.147E-02-0.130E-05
CGA:  13    -0.319253450771E+03   -0.69206E-04   -0.69195E-04 29792   0.115E-02-0.177E-05
CGA:  14    -0.319253496025E+03   -0.45254E-04   -0.45235E-04 29792   0.270E-03-0.125E-05
CGA:  15    -0.319253507721E+03   -0.11696E-04   -0.11695E-04 29792   0.188E-03-0.148E-06
CGA:  16    -0.319253529010E+03   -0.21289E-04   -0.21282E-04 29792   0.314E-03 0.641E-07
CGA:  17    -0.319253540346E+03   -0.11337E-04   -0.11336E-04 29792   0.123E-03-0.162E-06
CGA:  18    -0.319253545275E+03   -0.49282E-05   -0.49266E-05 29792   0.645E-04-0.135E-06
  20 F= -.31925355E+03 E0= -.31922445E+03  d E =-.263045E-02  mag=    48.5475
       N       E                     dE             d eps       ncg     rms          ort
SDA:   1    -0.318139992830E+03    0.11135E+01    0.00000E+00 29792   0.330E+01 0.000E+00
CGA:   2    -0.318368224902E+03   -0.22823E+00   -0.22903E+00 29792   0.827E+01-0.402E-01
CGA:   3    -0.318947235562E+03   -0.57901E+00   -0.57948E+00 29792   0.455E+01-0.260E-01
CGA:   4    -0.319085944058E+03   -0.13871E+00   -0.13816E+00 29792   0.154E+01 0.113E-01
CGA:   5    -0.319151662382E+03   -0.65718E-01   -0.65442E-01 29792   0.811E+00-0.357E-02
CGA:   6    -0.319204861213E+03   -0.53199E-01   -0.53165E-01 29792   0.645E+00 0.212E-02
CGA:   7    -0.319233558528E+03   -0.28697E-01   -0.28699E-01 29792   0.169E+00 0.109E-03
[...]
CGA:   5    -0.319019327281E+03   -0.73566E-01   -0.73417E-01 29792   0.112E+01-0.341E-02
CGA:   6    -0.319090982977E+03   -0.71656E-01   -0.71621E-01 29792   0.665E+00 0.307E-02
CGA:   7    -0.319110989467E+03   -0.20006E-01   -0.19879E-01 29792   0.199E+00 0.195E-02
CGA:   8    -0.319121457609E+03   -0.10468E-01   -0.10468E-01 29792   0.192E+00 0.197E-04
CGA:   9    -0.319131953323E+03   -0.10496E-01   -0.10496E-01 29792   0.935E-01 0.909E-04
CGA:  10    -0.319135781015E+03   -0.38277E-02   -0.38274E-02 29792   0.255E-01 0.197E-04
CGA:  11    -0.319136946625E+03   -0.11656E-02   -0.11661E-02 29792   0.225E-01 0.232E-04
CGA:  12    -0.319138634185E+03   -0.16876E-02   -0.16870E-02 29792   0.198E-01 0.245E-04
CGA:  13    -0.319139258221E+03   -0.62404E-03   -0.62390E-03 29792   0.523E-02 0.842E-05
CGA:  14    -0.319139513409E+03   -0.25519E-03   -0.25523E-03 29792   0.411E-02 0.448E-05
CGA:  15    -0.319139808548E+03   -0.29514E-03   -0.29508E-03 29792   0.527E-02 0.314E-05
CGA:  16    -0.319140057144E+03   -0.24860E-03   -0.24867E-03 29792   0.179E-02 0.578E-05
CGA:  17    -0.319140116713E+03   -0.59569E-04   -0.59583E-04 29792   0.929E-03 0.116E-05
CGA:  18    -0.319140205549E+03   -0.88836E-04   -0.88835E-04 29792   0.157E-02-0.780E-07
CGA:  19    -0.319140289604E+03   -0.84054E-04   -0.84053E-04 29792   0.795E-03-0.982E-06
CGA:  20    -0.319140322039E+03   -0.32436E-04   -0.32454E-04 29792   0.336E-03 0.694E-06
CGA:  21    -0.319140341392E+03   -0.19352E-04   -0.19349E-04 29792   0.457E-03 0.101E-05
CGA:  22    -0.319140375248E+03   -0.33856E-04   -0.33809E-04 29792   0.477E-03 0.233E-05
CGA:  23    -0.319140392253E+03   -0.17005E-04   -0.17035E-04 29792   0.118E-03 0.132E-05
CGA:  24    -0.319140399356E+03   -0.71025E-05   -0.70963E-05 29792   0.116E-03 0.111E-05
  46 F= -.31914040E+03 E0= -.31911330E+03  d E =0.181439E-01  mag=    48.8748
       N       E                     dE             d eps       ncg     rms          ort
SDA:   1    -0.318638137047E+03    0.50226E+00    0.00000E+00 29792   0.278E+01 0.000E+00
CGA:   2    -0.318720300840E+03   -0.82164E-01   -0.80607E-01 29792   0.207E+01 0.205E-01
CGA:   3    -0.318972340300E+03   -0.25204E+00   -0.25214E+00 29792   0.287E+01-0.208E-02
CGA:   4    -0.319068228221E+03   -0.95888E-01   -0.95890E-01 29792   0.739E+00 0.803E-03
CGA:   5    -0.319105409824E+03   -0.37182E-01   -0.37167E-01 29792   0.566E+00-0.764E-03
CGA:   6    -0.319145080986E+03   -0.39671E-01   -0.39663E-01 29792   0.379E+00 0.393E-03
CGA:   7    -0.319157404927E+03   -0.12324E-01   -0.12343E-01 29792   0.105E+00-0.143E-03
CGA:   8    -0.319161979245E+03   -0.45743E-02   -0.45754E-02 29792   0.900E-01 0.281E-04
CGA:   9    -0.319167747458E+03   -0.57682E-02   -0.57690E-02 29792   0.558E-01-0.604E-04
CGA:  10    -0.319169594766E+03   -0.18473E-02   -0.18507E-02 29792   0.154E-01-0.233E-04
CGA:  11    -0.319170266351E+03   -0.67159E-03   -0.67165E-03 29792   0.110E-01 0.358E-05
CGA:  12    -0.319170911118E+03   -0.64477E-03   -0.64472E-03 29792   0.126E-01 0.494E-05
CGA:  13    -0.319171555192E+03   -0.64407E-03   -0.64407E-03 29792   0.337E-02-0.794E-06
CGA:  14    -0.319171678299E+03   -0.12311E-03   -0.12314E-03 29792   0.165E-02 0.690E-06
CGA:  15    -0.319171872065E+03   -0.19377E-03   -0.19355E-03 29792   0.261E-02 0.321E-05
CGA:  16    -0.319171982547E+03   -0.11048E-03   -0.11052E-03 29792   0.101E-02 0.180E-05
CGA:  17    -0.319172025145E+03   -0.42598E-04   -0.42631E-04 29792   0.527E-03 0.207E-05
CGA:  18    -0.319172065292E+03   -0.40147E-04   -0.40056E-04 29792   0.948E-03 0.410E-05
CGA:  19    -0.319172123753E+03   -0.58461E-04   -0.58420E-04 29792   0.479E-03 0.750E-05
CGA:  20    -0.319172139910E+03   -0.16157E-04   -0.16197E-04 29792   0.188E-03 0.143E-05
CGA:  21    -0.319172155938E+03   -0.16028E-04   -0.16028E-04 29792   0.297E-03-0.181E-06
CGA:  22    -0.319172174214E+03   -0.18276E-04   -0.18282E-04 29792   0.299E-03-0.140E-05
CGA:  23    -0.319172183410E+03   -0.91964E-05   -0.91779E-05 29792   0.519E-04-0.969E-06
  47 F= -.31917218E+03 E0= -.31914511E+03  d E =-.317841E-01  mag=    48.8843
       N       E                     dE             d eps       ncg     rms          ort
SDA:   1    -0.319021779746E+03    0.15039E+00    0.00000E+00 29792   0.700E+00 0.000E+00
CGA:   2    -0.319044798126E+03   -0.23018E-01   -0.22910E-01 29792   0.525E+00 0.105E-02
CGA:   3    -0.319115449526E+03   -0.70651E-01   -0.70661E-01 29792   0.850E+00-0.161E-03
CGA:   4    -0.319138893988E+03   -0.23444E-01   -0.23411E-01 29792   0.173E+00 0.753E-03
CGA:   5    -0.319148967207E+03   -0.10073E-01   -0.10073E-01 29792   0.161E+00-0.594E-04
CGA:   6    -0.319157286389E+03   -0.83192E-02   -0.83195E-02 29792   0.862E-01 0.214E-04
CGA:   7    -0.319160619850E+03   -0.33335E-02   -0.33345E-02 29792   0.297E-01 0.942E-05
CGA:   8    -0.319161699456E+03   -0.10796E-02   -0.10795E-02 29792   0.182E-01 0.653E-05
CGA:   9    -0.319163080929E+03   -0.13815E-02   -0.13808E-02 29792   0.135E-01 0.324E-04
CGA:  10    -0.319163587433E+03   -0.50650E-03   -0.50658E-03 29792   0.316E-02 0.961E-05
CGA:  11    -0.319163741726E+03   -0.15429E-03   -0.15431E-03 29792   0.255E-02 0.221E-05
CGA:  12    -0.319163913017E+03   -0.17129E-03   -0.17127E-03 29792   0.242E-02 0.133E-05
CGA:  13    -0.319164026131E+03   -0.11311E-03   -0.11313E-03 29792   0.969E-03 0.133E-05
CGA:  14    -0.319164052987E+03   -0.26856E-04   -0.26853E-04 29792   0.327E-03-0.851E-07
CGA:  15    -0.319164091282E+03   -0.38295E-04   -0.38364E-04 29792   0.625E-03-0.114E-05
CGA:  16    -0.319164117724E+03   -0.26442E-04   -0.26433E-04 29792   0.185E-03-0.792E-06
CGA:  17    -0.319164126164E+03   -0.84396E-05   -0.84391E-05 29792   0.111E-03-0.178E-06
  48 F= -.31916413E+03 E0= -.31913716E+03  d E =0.805725E-02  mag=    48.8900
       N       E                     dE             d eps       ncg     rms          ort
SDA:   1    -0.318137043882E+03    0.10271E+01    0.00000E+00 29792   0.385E+01 0.000E+00
CGA:   2    -0.318293373913E+03   -0.15633E+00   -0.15419E+00 29792   0.494E+01-0.134E-01
CGA:   3    -0.318824597554E+03   -0.53122E+00   -0.53160E+00 29792   0.460E+01-0.827E-02
CGA:   4    -0.318973072737E+03   -0.14848E+00   -0.14847E+00 29792   0.139E+01 0.131E-02
CGA:   5    -0.319044276296E+03   -0.71204E-01   -0.71113E-01 29792   0.961E+00-0.640E-02
CGA:   6    -0.319091644863E+03   -0.47369E-01   -0.47333E-01 29792   0.801E+00-0.185E-02
CGA:   7    -0.319123174231E+03   -0.31529E-01   -0.31571E-01 29792   0.170E+00 0.268E-03
CGA:   8    -0.319130483737E+03   -0.73095E-02   -0.73132E-02 29792   0.131E+00 0.997E-04
CGA:   9    -0.319139625715E+03   -0.91420E-02   -0.91442E-02 29792   0.794E-01-0.845E-04
CGA:  10    -0.319142982656E+03   -0.33569E-02   -0.33613E-02 29792   0.295E-01 0.988E-04
CGA:  11    -0.319143932337E+03   -0.94968E-03   -0.95077E-03 29792   0.148E-01 0.289E-05
CGA:  12    -0.319145047757E+03   -0.11154E-02   -0.11148E-02 29792   0.217E-01 0.225E-04
CGA:  13    -0.319145996537E+03   -0.94878E-03   -0.94874E-03 29792   0.454E-02-0.292E-05
CGA:  14    -0.319146201246E+03   -0.20471E-03   -0.20476E-03 29792   0.278E-02 0.971E-06
CGA:  15    -0.319146394602E+03   -0.19336E-03   -0.19333E-03 29792   0.327E-02-0.313E-07
CGA:  16    -0.319146621255E+03   -0.22665E-03   -0.22660E-03 29792   0.171E-02 0.184E-05
CGA:  17    -0.319146673713E+03   -0.52458E-04   -0.52506E-04 29792   0.645E-03-0.415E-06
CGA:  18    -0.319146730403E+03   -0.56690E-04   -0.56627E-04 29792   0.121E-02 0.120E-05
CGA:  19    -0.319146797225E+03   -0.66822E-04   -0.66824E-04 29792   0.788E-03 0.143E-05
CGA:  20    -0.319146832416E+03   -0.35191E-04   -0.35220E-04 29792   0.260E-03 0.152E-05
CGA:  21    -0.319146846060E+03   -0.13644E-04   -0.13647E-04 29792   0.297E-03 0.746E-06
CGA:  22    -0.319146869960E+03   -0.23899E-04   -0.23846E-04 29792   0.376E-03 0.166E-05
CGA:  23    -0.319146883781E+03   -0.13821E-04   -0.13848E-04 29792   0.131E-03 0.656E-06
CGA:  24    -0.319146889275E+03   -0.54933E-05   -0.55014E-05 29792   0.583E-04 0.296E-06
  49 F= -.31914689E+03 E0= -.31912027E+03  d E =0.172369E-01  mag=    48.9191
       N       E                     dE             d eps       ncg     rms          ort
SDA:   1    -0.318416718700E+03    0.73017E+00    0.00000E+00 29792   0.265E+01 0.000E+00
CGA:   2    -0.318556328309E+03   -0.13961E+00   -0.13975E+00 29792   0.397E+01 0.158E-01
CGA:   3    -0.318932999738E+03   -0.37667E+00   -0.37739E+00 29792   0.293E+01-0.187E-01
CGA:   4    -0.319025193179E+03   -0.92193E-01   -0.91319E-01 29792   0.963E+00 0.140E-01
CGA:   5    -0.319072436446E+03   -0.47243E-01   -0.47259E-01 29792   0.762E+00 0.686E-03
CGA:   6    -0.319121284650E+03   -0.48848E-01   -0.48846E-01 29792   0.366E+00 0.145E-03
CGA:   7    -0.319135026893E+03   -0.13742E-01   -0.13780E-01 29792   0.135E+00 0.210E-04
CGA:   8    -0.319140682654E+03   -0.56558E-02   -0.56537E-02 29792   0.104E+00-0.166E-05
CGA:   9    -0.319147144990E+03   -0.64623E-02   -0.64621E-02 29792   0.683E-01 0.359E-04
CGA:  10    -0.319149489228E+03   -0.23442E-02   -0.23466E-02 29792   0.186E-01 0.835E-05
CGA:  11    -0.319150388598E+03   -0.89937E-03   -0.89939E-03 29792   0.114E-01 0.557E-05
CGA:  12    -0.319151323120E+03   -0.93452E-03   -0.93434E-03 29792   0.138E-01 0.522E-05
CGA:  13    -0.319151899268E+03   -0.57615E-03   -0.57632E-03 29792   0.249E-02 0.313E-05
CGA:  14    -0.319152022255E+03   -0.12299E-03   -0.12299E-03 29792   0.280E-02-0.111E-05
CGA:  15    -0.319152203729E+03   -0.18147E-03   -0.18144E-03 29792   0.287E-02 0.115E-05
CGA:  16    -0.319152334190E+03   -0.13046E-03   -0.13049E-03 29792   0.106E-02 0.119E-05
CGA:  17    -0.319152376542E+03   -0.42352E-04   -0.42385E-04 29792   0.497E-03 0.119E-05
CGA:  18    -0.319152432523E+03   -0.55981E-04   -0.55659E-04 29792   0.107E-02 0.516E-05
CGA:  19    -0.319152478037E+03   -0.45514E-04   -0.45585E-04 29792   0.370E-03 0.384E-05
CGA:  20    -0.319152493655E+03   -0.15618E-04   -0.15634E-04 29792   0.238E-03 0.789E-06
CGA:  21    -0.319152507709E+03   -0.14054E-04   -0.14053E-04 29792   0.236E-03-0.155E-07
CGA:  22    -0.319152530297E+03   -0.22588E-04   -0.22607E-04 29792   0.218E-03-0.764E-06
CGA:  23    -0.319152537111E+03   -0.68139E-05   -0.68119E-05 29792   0.550E-04-0.413E-06
  50 F= -.31915254E+03 E0= -.31912609E+03  d E =-.564784E-02  mag=    48.9477
       N       E                     dE             d eps       ncg     rms          ort
SDA:   1    -0.318879831181E+03    0.27270E+00    0.00000E+00 29792   0.116E+01 0.000E+00
CGA:   2    -0.318927471254E+03   -0.47640E-01   -0.47529E-01 29792   0.145E+01-0.745E-03
CGA:   3    -0.319059692669E+03   -0.13222E+00   -0.13214E+00 29792   0.129E+01 0.193E-02
CGA:   4    -0.319105171591E+03   -0.45479E-01   -0.45500E-01 29792   0.350E+00 0.332E-03
CGA:   5    -0.319129869963E+03   -0.24698E-01   -0.24689E-01 29792   0.397E+00 0.474E-03
CGA:   6    -0.319147853411E+03   -0.17983E-01   -0.17970E-01 29792   0.176E+00-0.236E-03
CGA:   7    -0.319153870535E+03   -0.60171E-02   -0.60151E-02 29792   0.553E-01 0.134E-04
CGA:   8    -0.319156959039E+03   -0.30885E-02   -0.30885E-02 29792   0.507E-01-0.356E-04
CGA:   9    -0.319160142038E+03   -0.31830E-02   -0.31826E-02 29792   0.220E-01 0.317E-04
CGA:  10    -0.319160842171E+03   -0.70013E-03   -0.69964E-03 29792   0.533E-02 0.347E-05
CGA:  11    -0.319161371633E+03   -0.52946E-03   -0.52965E-03 29792   0.816E-02-0.416E-05
CGA:  12    -0.319161700801E+03   -0.32917E-03   -0.32917E-03 29792   0.366E-02-0.873E-06
CGA:  13    -0.319161832981E+03   -0.13218E-03   -0.13228E-03 29792   0.129E-02 0.611E-06
CGA:  14    -0.319161897494E+03   -0.64513E-04   -0.64518E-04 29792   0.121E-02 0.942E-06
CGA:  15    -0.319162008706E+03   -0.11121E-03   -0.11109E-03 29792   0.102E-02 0.306E-05
CGA:  16    -0.319162041574E+03   -0.32868E-04   -0.32893E-04 29792   0.291E-03 0.743E-06
CGA:  17    -0.319162058871E+03   -0.17297E-04   -0.17292E-04 29792   0.341E-03 0.112E-05
CGA:  18    -0.319162084851E+03   -0.25980E-04   -0.25947E-04 29792   0.425E-03 0.152E-05
CGA:  19    -0.319162102717E+03   -0.17866E-04   -0.17878E-04 29792   0.967E-04 0.658E-06
CGA:  20    -0.319162107687E+03   -0.49695E-05   -0.49714E-05 29792   0.100E-03 0.266E-06
  51 F= -.31916211E+03 E0= -.31913556E+03  d E =-.957058E-02  mag=    48.9402
       N       E                     dE             d eps       ncg     rms          ort
SDA:   1    -0.318864135848E+03    0.29797E+00    0.00000E+00 29792   0.118E+01 0.000E+00
CGA:   2    -0.318908239175E+03   -0.44103E-01   -0.44468E-01 29792   0.130E+01-0.763E-03
CGA:   3    -0.319047319611E+03   -0.13908E+00   -0.13926E+00 29792   0.154E+01-0.366E-02
CGA:   4    -0.319101945646E+03   -0.54626E-01   -0.54339E-01 29792   0.427E+00 0.271E-02
CGA:   5    -0.319120662343E+03   -0.18717E-01   -0.18715E-01 29792   0.225E+00-0.605E-06
CGA:   6    -0.319137335380E+03   -0.16673E-01   -0.16669E-01 29792   0.180E+00 0.167E-03
CGA:   7    -0.319144149975E+03   -0.68146E-02   -0.68144E-02 29792   0.455E-01 0.140E-04
CGA:   8    -0.319146129901E+03   -0.19799E-02   -0.19812E-02 29792   0.342E-01 0.306E-04
CGA:   9    -0.319148275548E+03   -0.21456E-02   -0.21458E-02 29792   0.282E-01 0.104E-05
CGA:  10    -0.319149265861E+03   -0.99031E-03   -0.99154E-03 29792   0.751E-02 0.130E-04
CGA:  11    -0.319149582553E+03   -0.31669E-03   -0.31671E-03 29792   0.362E-02 0.340E-05
CGA:  12    -0.319149896389E+03   -0.31384E-03   -0.31375E-03 29792   0.550E-02 0.276E-05
CGA:  13    -0.319150112183E+03   -0.21579E-03   -0.21580E-03 29792   0.169E-02-0.579E-06
CGA:  14    -0.319150169137E+03   -0.56954E-04   -0.56964E-04 29792   0.648E-03-0.177E-06
CGA:  15    -0.319150221252E+03   -0.52115E-04   -0.52127E-04 29792   0.914E-03-0.616E-06
CGA:  16    -0.319150279151E+03   -0.57899E-04   -0.57899E-04 29792   0.592E-03-0.327E-06
CGA:  17    -0.319150300094E+03   -0.20944E-04   -0.20942E-04 29792   0.159E-03-0.352E-06
CGA:  18    -0.319150313023E+03   -0.12929E-04   -0.12935E-04 29792   0.357E-03-0.372E-06
CGA:  19    -0.319150334229E+03   -0.21206E-04   -0.21208E-04 29792   0.218E-03-0.907E-06
CGA:  20    -0.319150342830E+03   -0.86016E-05   -0.85985E-05 29792   0.854E-04-0.347E-06
  52 F= -.31915034E+03 E0= -.31912388E+03  d E =0.117649E-01  mag=    48.9465
       N       E                     dE             d eps       ncg     rms          ort
SDA:   1    -0.318407447575E+03    0.74289E+00    0.00000E+00 29792   0.272E+01 0.000E+00
CGA:   2    -0.318544500065E+03   -0.13705E+00   -0.13670E+00 29792   0.378E+01-0.256E-01
CGA:   3    -0.318884811928E+03   -0.34031E+00   -0.33953E+00 29792   0.352E+01 0.190E-01
CGA:   4    -0.319008567101E+03   -0.12376E+00   -0.12396E+00 29792   0.114E+01 0.137E-02
CGA:   5    -0.319052999585E+03   -0.44432E-01   -0.44388E-01 29792   0.708E+00-0.353E-04
CGA:   6    -0.319104818861E+03   -0.51819E-01   -0.51849E-01 29792   0.522E+00-0.126E-02
CGA:   7    -0.319123110181E+03   -0.18291E-01   -0.18299E-01 29792   0.104E+00-0.357E-05
CGA:   8    -0.319129532602E+03   -0.64224E-02   -0.64231E-02 29792   0.119E+00-0.419E-04
CGA:   9    -0.319135979220E+03   -0.64466E-02   -0.64471E-02 29792   0.577E-01 0.214E-03
CGA:  10    -0.319137768391E+03   -0.17892E-02   -0.17875E-02 29792   0.175E-01 0.310E-04
CGA:  11    -0.319138613620E+03   -0.84523E-03   -0.84531E-03 29792   0.121E-01 0.707E-05
CGA:  12    -0.319139674627E+03   -0.10610E-02   -0.10607E-02 29792   0.125E-01 0.697E-05
CGA:  13    -0.319140115051E+03   -0.44042E-03   -0.44066E-03 29792   0.321E-02-0.268E-05
CGA:  14    -0.319140246763E+03   -0.13171E-03   -0.13172E-03 29792   0.240E-02 0.101E-06
CGA:  15    -0.319140430728E+03   -0.18397E-03   -0.18384E-03 29792   0.282E-02 0.479E-05
CGA:  16    -0.319140578546E+03   -0.14782E-03   -0.14783E-03 29792   0.119E-02 0.323E-05
CGA:  17    -0.319140624305E+03   -0.45759E-04   -0.45783E-04 29792   0.476E-03 0.794E-06
CGA:  18    -0.319140670292E+03   -0.45987E-04   -0.45940E-04 29792   0.124E-02 0.734E-06
CGA:  19    -0.319140731354E+03   -0.61062E-04   -0.61080E-04 29792   0.320E-03 0.172E-05
CGA:  20    -0.319140743216E+03   -0.11862E-04   -0.11881E-04 29792   0.206E-03 0.698E-06
CGA:  21    -0.319140762818E+03   -0.19602E-04   -0.19484E-04 29792   0.264E-03 0.276E-05
CGA:  22    -0.319140781028E+03   -0.18210E-04   -0.18174E-04 29792   0.161E-03 0.299E-05
CGA:  23    -0.319140785831E+03   -0.48030E-05   -0.48288E-05 29792   0.535E-04 0.658E-06
  53 F= -.31914079E+03 E0= -.31911446E+03  d E =0.955700E-02  mag=    48.9299
       N       E                     dE             d eps       ncg     rms          ort
SDA:   1    -0.319019475637E+03    0.12131E+00    0.00000E+00 29792   0.627E+00 0.000E+00
CGA:   2    -0.319044024292E+03   -0.24549E-01   -0.24573E-01 29792   0.511E+00 0.192E-03
CGA:   3    -0.319085432807E+03   -0.41409E-01   -0.41414E-01 29792   0.733E+00-0.183E-03
CGA:   4    -0.319116655165E+03   -0.31222E-01   -0.31186E-01 29792   0.254E+00-0.373E-03
CGA:   5    -0.319125783260E+03   -0.91281E-02   -0.91377E-02 29792   0.114E+00-0.322E-04
CGA:   6    -0.319135642624E+03   -0.98594E-02   -0.98690E-02 29792   0.123E+00-0.267E-03
CGA:   7    -0.319139953748E+03   -0.43111E-02   -0.43168E-02 29792   0.216E-01-0.223E-04
CGA:   8    -0.319140969836E+03   -0.10161E-02   -0.10161E-02 29792   0.233E-01 0.299E-05
CGA:   9    -0.319142472314E+03   -0.15025E-02   -0.15025E-02 29792   0.106E-01 0.326E-05
CGA:  10    -0.319142844501E+03   -0.37219E-03   -0.37222E-03 29792   0.314E-02 0.119E-05
CGA:  11    -0.319142998224E+03   -0.15372E-03   -0.15373E-03 29792   0.227E-02 0.135E-05
CGA:  12    -0.319143177837E+03   -0.17961E-03   -0.17959E-03 29792   0.248E-02 0.105E-05
CGA:  13    -0.319143264383E+03   -0.86546E-04   -0.86592E-04 29792   0.680E-03 0.455E-06
CGA:  14    -0.319143290499E+03   -0.26116E-04   -0.26120E-04 29792   0.434E-03 0.753E-07
CGA:  15    -0.319143331395E+03   -0.40896E-04   -0.40868E-04 29792   0.610E-03 0.665E-06
CGA:  16    -0.319143359138E+03   -0.27743E-04   -0.27749E-04 29792   0.226E-03 0.580E-06
CGA:  17    -0.319143368474E+03   -0.93357E-05   -0.93359E-05 29792   0.103E-03-0.758E-07
  54 F= -.31914337E+03 E0= -.31911703E+03  d E =-.258264E-02  mag=    48.9413
       N       E                     dE             d eps       ncg     rms          ort
SDA:   1    -0.319055118762E+03    0.88240E-01    0.00000E+00 29792   0.892E+00 0.000E+00
CGA:   2    -0.319073600481E+03   -0.18482E-01   -0.18297E-01 29792   0.198E+00 0.637E-02
CGA:   3    -0.319099270941E+03   -0.25670E-01   -0.25669E-01 29792   0.513E+00 0.280E-04
CGA:   4    -0.319123331571E+03   -0.24061E-01   -0.24065E-01 29792   0.146E+00 0.106E-03
CGA:   5    -0.319128711942E+03   -0.53804E-02   -0.53755E-02 29792   0.609E-01 0.183E-04
CGA:   6    -0.319131756898E+03   -0.30450E-02   -0.30443E-02 29792   0.512E-01-0.411E-04
CGA:   7    -0.319134623413E+03   -0.28665E-02   -0.28665E-02 29792   0.277E-01 0.313E-04
CGA:   8    -0.319135519745E+03   -0.89633E-03   -0.89691E-03 29792   0.657E-02 0.596E-06
CGA:   9    -0.319135942893E+03   -0.42315E-03   -0.42311E-03 29792   0.698E-02 0.557E-05
CGA:  10    -0.319136377680E+03   -0.43479E-03   -0.43471E-03 29792   0.224E-02 0.110E-04
CGA:  11    -0.319136476689E+03   -0.99009E-04   -0.99040E-04 29792   0.941E-03 0.224E-05
CGA:  12    -0.319136524799E+03   -0.48110E-04   -0.48114E-04 29792   0.936E-03 0.832E-06
CGA:  13    -0.319136599354E+03   -0.74554E-04   -0.74564E-04 29792   0.780E-03-0.417E-06
CGA:  14    -0.319136620247E+03   -0.20894E-04   -0.20872E-04 29792   0.147E-03-0.262E-06
CGA:  15    -0.319136629762E+03   -0.95150E-05   -0.95181E-05 29792   0.220E-03-0.358E-06
CGA:  16    -0.319136646816E+03   -0.17054E-04   -0.17069E-04 29792   0.154E-03-0.711E-06
CGA:  17    -0.319136654298E+03   -0.74825E-05   -0.74823E-05 29792   0.588E-04-0.660E-07
  55 F= -.31913665E+03 E0= -.31911034E+03  d E =0.671418E-02  mag=    48.9466
