       N       E                     dE             d eps       ncg     rms          rms(c)
DAV:   1     0.189171197136E+04    0.18917E+04   -0.87669E+04143272   0.178E+03
DAV:   2     0.398957642893E+02   -0.18518E+04   -0.17162E+04146576   0.498E+02
DAV:   3    -0.189866460304E+03   -0.22976E+03   -0.22296E+03147560   0.191E+02
DAV:   4    -0.196545794068E+03   -0.66793E+01   -0.66528E+01151000   0.347E+01
DAV:   5    -0.196641707505E+03   -0.95913E-01   -0.95874E-01159800   0.409E+00    0.730E+00
DAV:   6    -0.155306284611E+03    0.41335E+02   -0.13281E+01144448   0.148E+01    0.102E+01
DAV:   7    -0.155170182072E+03    0.13610E+00   -0.26563E-01150080   0.233E+00    0.403E+00
DAV:   8    -0.155101162262E+03    0.69020E-01   -0.87638E-02147904   0.121E+00    0.234E+00
DAV:   9    -0.155082033221E+03    0.19129E-01   -0.10873E-02150224   0.450E-01    0.184E+00
DAV:  10    -0.155071907032E+03    0.10126E-01   -0.50438E-03149816   0.309E-01    0.146E+00
DAV:  11    -0.155062886248E+03    0.90208E-02   -0.66439E-03150640   0.350E-01    0.103E+00
DAV:  12    -0.155058944213E+03    0.39420E-02   -0.25935E-03150008   0.215E-01    0.765E-01
DAV:  13    -0.155058913914E+03    0.30300E-04   -0.39592E-05134128   0.308E-02    0.770E-01
DAV:  14    -0.155058885008E+03    0.28906E-04   -0.15849E-06 84808   0.641E-03    0.768E-01
DAV:  15    -0.155058890048E+03   -0.50406E-05   -0.31005E-07 82584   0.347E-03
   1 F= -.15505889E+03 E0= -.15505889E+03  d E =-.155059E+03  mag=    18.0000
       N       E                     dE             d eps       ncg     rms          rms(c)
DAV:   1    -0.160394278897E+03   -0.53354E+01   -0.11609E+02157640   0.630E+01    0.233E+01
DAV:   2    -0.155247921555E+03    0.51464E+01   -0.14445E+01144176   0.247E+01    0.258E+01
DAV:   3    -0.154974984387E+03    0.27294E+00   -0.14134E+00147160   0.679E+00    0.796E+00
DAV:   4    -0.154819182047E+03    0.15580E+00   -0.55945E-01150024   0.349E+00    0.488E+00
DAV:   5    -0.154786529491E+03    0.32653E-01   -0.43130E-02142640   0.156E+00    0.264E+00
DAV:   6    -0.154776457724E+03    0.10072E-01   -0.24196E-02147552   0.134E+00    0.126E+00
DAV:   7    -0.154775753118E+03    0.70461E-03   -0.33433E-03152912   0.544E-01    0.234E-01
DAV:   8    -0.154776623848E+03   -0.87073E-03   -0.82126E-04151768   0.187E-01    0.105E-01
DAV:   9    -0.154776876973E+03   -0.25313E-03   -0.16958E-04144112   0.589E-02    0.643E-02
DAV:  10    -0.154777011845E+03   -0.13487E-03   -0.21410E-05105240   0.282E-02    0.304E-02
DAV:  11    -0.154776995065E+03    0.16780E-04   -0.14954E-05 93400   0.206E-02    0.514E-03
DAV:  12    -0.154776995023E+03    0.41990E-07   -0.21110E-06 92616   0.817E-03
   2 F= -.15477700E+03 E0= -.15477700E+03  d E =0.281895E+00  mag=    18.0000
       N       E                     dE             d eps       ncg     rms          rms(c)
DAV:   1    -0.156764537873E+03   -0.19875E+01   -0.34071E+01157712   0.329E+01    0.120E+01
DAV:   2    -0.155194498705E+03    0.15700E+01   -0.38790E+00144624   0.123E+01    0.119E+01
DAV:   3    -0.155073388077E+03    0.12111E+00   -0.38586E-01147128   0.340E+00    0.393E+00
DAV:   4    -0.155006370142E+03    0.67018E-01   -0.12975E-01146016   0.189E+00    0.268E+00
DAV:   5    -0.155001042022E+03    0.53281E-02   -0.11172E-02143960   0.554E-01    0.111E+00
DAV:   6    -0.154995629113E+03    0.54129E-02   -0.37142E-03147944   0.462E-01    0.548E-01
DAV:   7    -0.154997160304E+03   -0.15312E-02   -0.70031E-04153800   0.205E-01    0.119E-01
DAV:   8    -0.154996783028E+03    0.37728E-03   -0.12704E-04145384   0.701E-02    0.570E-02
DAV:   9    -0.154996761925E+03    0.21104E-04   -0.23755E-05122544   0.254E-02    0.309E-02
DAV:  10    -0.154996720996E+03    0.40929E-04   -0.64690E-06 88208   0.168E-02    0.129E-02
DAV:  11    -0.154996739269E+03   -0.18273E-04   -0.40518E-06 90816   0.124E-02    0.552E-03
DAV:  12    -0.154996743399E+03   -0.41296E-05   -0.69705E-07 82992   0.492E-03
   3 F= -.15499674E+03 E0= -.15499674E+03  d E =0.621466E-01  mag=    18.0000
       N       E                     dE             d eps       ncg     rms          rms(c)
DAV:   1    -0.155188657541E+03   -0.19192E+00   -0.31146E+00157664   0.101E+01    0.365E+00
DAV:   2    -0.155058976040E+03    0.12968E+00   -0.35367E-01144928   0.381E+00    0.374E+00
DAV:   3    -0.155041423927E+03    0.17552E-01   -0.34761E-02148120   0.111E+00    0.122E+00
DAV:   4    -0.155031973159E+03    0.94508E-02   -0.13595E-02148424   0.572E-01    0.835E-01
DAV:   5    -0.155031762839E+03    0.21032E-03   -0.98507E-04145168   0.180E-01    0.367E-01
DAV:   6    -0.155030928209E+03    0.83463E-03   -0.41200E-04148024   0.162E-01    0.188E-01
DAV:   7    -0.155031291466E+03   -0.36326E-03   -0.69154E-05139008   0.716E-02    0.377E-02
DAV:   8    -0.155031182996E+03    0.10847E-03   -0.13251E-05 99752   0.248E-02    0.190E-02
DAV:   9    -0.155031179267E+03    0.37285E-05   -0.43557E-06 87104   0.112E-02
   4 F= -.15503118E+03 E0= -.15503118E+03  d E =0.277108E-01  mag=    18.0000
       N       E                     dE             d eps       ncg     rms          rms(c)
DAV:   1    -0.155162826554E+03   -0.13164E+00   -0.22712E+00157688   0.866E+00    0.312E+00
DAV:   2    -0.155070421965E+03    0.92405E-01   -0.25696E-01144856   0.328E+00    0.322E+00
DAV:   3    -0.155056450084E+03    0.13972E-01   -0.25427E-02148144   0.941E-01    0.105E+00
DAV:   4    -0.155048963019E+03    0.74871E-02   -0.10120E-02148376   0.494E-01    0.717E-01
DAV:   5    -0.155048887026E+03    0.75992E-04   -0.72388E-04145120   0.156E-01    0.317E-01
DAV:   6    -0.155048194074E+03    0.69295E-03   -0.31119E-04148096   0.142E-01    0.163E-01
DAV:   7    -0.155048498454E+03   -0.30438E-03   -0.51765E-05133344   0.633E-02    0.325E-02
DAV:   8    -0.155048404129E+03    0.94325E-04   -0.10103E-05 94896   0.217E-02    0.167E-02
DAV:   9    -0.155048403236E+03    0.89300E-06   -0.33565E-06 85256   0.981E-03
   5 F= -.15504840E+03 E0= -.15504840E+03  d E =0.104868E-01  mag=    18.0000
       N       E                     dE             d eps       ncg     rms          rms(c)
DAV:   1    -0.155081393149E+03   -0.32989E-01   -0.57047E-01157656   0.436E+00    0.156E+00
DAV:   2    -0.155061181950E+03    0.20211E-01   -0.64523E-02144960   0.165E+00    0.163E+00
DAV:   3    -0.155055682674E+03    0.54993E-02   -0.63784E-03148688   0.487E-01    0.531E-01
DAV:   4    -0.155052829505E+03    0.28532E-02   -0.26188E-03148496   0.251E-01    0.361E-01
DAV:   5    -0.155052908003E+03   -0.78497E-04   -0.18273E-04140144   0.803E-02    0.161E-01
DAV:   6    -0.155052622958E+03    0.28504E-03   -0.83643E-05144584   0.750E-02    0.839E-02
DAV:   7    -0.155052757754E+03   -0.13480E-03   -0.13403E-05102160   0.338E-02    0.165E-02
DAV:   8    -0.155052712734E+03    0.45020E-04   -0.30041E-06 79808   0.119E-02    0.830E-03
DAV:   9    -0.155052711107E+03    0.16263E-05   -0.10140E-06 76320   0.545E-03
   6 F= -.15505271E+03 E0= -.15505271E+03  d E =0.617894E-02  mag=    18.0000
       N       E                     dE             d eps       ncg     rms          rms(c)
DAV:   1    -0.155060982942E+03   -0.82702E-02   -0.14294E-01157576   0.219E+00    0.783E-01
DAV:   2    -0.155057331945E+03    0.36510E-02   -0.16178E-02145000   0.831E-01    0.818E-01
DAV:   3    -0.155054968733E+03    0.23632E-02   -0.16022E-03148936   0.237E-01    0.267E-01
DAV:   4    -0.155053762525E+03    0.12062E-02   -0.65679E-04148584   0.125E-01    0.181E-01
DAV:   5    -0.155053841426E+03   -0.78901E-04   -0.45198E-05124368   0.410E-02    0.817E-02
DAV:   6    -0.155053707579E+03    0.13385E-03   -0.21844E-05119744   0.398E-02    0.433E-02
DAV:   7    -0.155053775458E+03   -0.67879E-04   -0.44773E-06 82720   0.196E-02    0.848E-03
DAV:   8    -0.155053751939E+03    0.23519E-04   -0.10654E-06 74608   0.728E-03    0.418E-03
DAV:   9    -0.155053751522E+03    0.41632E-06   -0.34537E-07 73120   0.345E-03
   7 F= -.15505375E+03 E0= -.15505375E+03  d E =0.513853E-02  mag=    18.0000
       N       E                     dE             d eps       ncg     rms          rms(c)
DAV:   1    -0.155055829492E+03   -0.20776E-02   -0.35786E-02157560   0.110E+00    0.392E-01
DAV:   2    -0.155055613218E+03    0.21627E-03   -0.40518E-03145080   0.417E-01    0.410E-01
DAV:   3    -0.155054529487E+03    0.10837E-02   -0.40151E-04149032   0.118E-01    0.134E-01
DAV:   4    -0.155053982900E+03    0.54659E-03   -0.16502E-04146080   0.623E-02    0.906E-02
DAV:   5    -0.155054032081E+03   -0.49182E-04   -0.11111E-05 92600   0.210E-02    0.413E-02
DAV:   6    -0.155053965716E+03    0.66366E-04   -0.60681E-06 86680   0.209E-02    0.219E-02
DAV:   7    -0.155054001327E+03   -0.35611E-04   -0.14174E-06 73272   0.107E-02    0.448E-03
DAV:   8    -0.155053991099E+03    0.10228E-04   -0.33530E-07 71584   0.402E-03    0.208E-03
DAV:   9    -0.155053988439E+03    0.26608E-05   -0.10699E-07 71032   0.197E-03
   8 F= -.15505399E+03 E0= -.15505399E+03  d E =0.490161E-02  mag=    18.0000
