       N       E                     dE             d eps       ncg     rms          ort
DAV:   1     0.554543710789E+04    0.55454E+04   -0.26938E+05  7488   0.168E+03
DAV:   2     0.206534893047E+03   -0.53389E+04   -0.49537E+04  7488   0.471E+02
DAV:   3    -0.388404512830E+03   -0.59494E+03   -0.58640E+03  7488   0.172E+02
DAV:   4    -0.402378645768E+03   -0.13974E+02   -0.13902E+02  7488   0.279E+01
DAV:   5    -0.402806780561E+03   -0.42813E+00   -0.42783E+00  7488   0.405E+00
SDA:   6    -0.163750428282E+03    0.23906E+03   -0.42783E+00  7488   0.108E+04 0.000E+00
CGA:   7    -0.252863980534E+03   -0.89114E+02   -0.11741E+03  7488   0.129E+04-0.175E+02
CGA:   8    -0.281193466546E+03   -0.28329E+02   -0.29461E+02  7488   0.111E+04 0.235E+03
CGA:   9    -0.284838628775E+03   -0.36452E+01   -0.44024E+02  7488   0.683E+03-0.100E+03
CGA:  10    -0.270851189846E+03    0.13987E+02   -0.17194E+02  7488   0.182E+04-0.882E+03
CGA:  11    -0.290806097572E+03   -0.19955E+02   -0.53198E+02  7488   0.383E+03-0.112E+03
CGA:  12    -0.300160133776E+03   -0.93540E+01   -0.50599E+01  7488   0.339E+03 0.387E+03
CGA:  13    -0.302187316576E+03   -0.20272E+01   -0.83766E+01  7488   0.132E+04-0.770E+03
CGA:  14    -0.291550474668E+03    0.10637E+02   -0.64935E+02  7488   0.842E+03-0.233E+03
CGA:  15    -0.313453431407E+03   -0.21903E+02   -0.12406E+02  7488   0.222E+03 0.314E+03
CGA:  16    -0.288716227794E+03    0.24737E+02   -0.11090E+02  7488   0.250E+04-0.518E+03
CGA:  17    -0.295216441401E+03   -0.65002E+01   -0.68913E+02  7488   0.185E+04-0.507E+03
CGA:  18    -0.302897415713E+03   -0.76810E+01   -0.42273E+02  7488   0.993E+03-0.354E+03
CGA:  19    -0.309643365617E+03   -0.67459E+01   -0.20727E+02  7488   0.974E+03-0.375E+02
CGA:  20    -0.292066954667E+03    0.17576E+02   -0.39183E+02  7488   0.806E+03-0.851E+02
CGA:  21    -0.323363687131E+03   -0.31297E+02   -0.13610E+02  7488   0.143E+03-0.259E+03
CGA:  22    -0.325697504797E+03   -0.23338E+01   -0.15546E+01  7488   0.264E+03 0.307E+02
CGA:  23    -0.294391216376E+03    0.31306E+02   -0.88486E+01  7488   0.118E+04-0.338E+03
CGA:  24    -0.307196593471E+03   -0.12805E+02   -0.27124E+02  7488   0.186E+04-0.112E+04
CGA:  25    -0.316990241292E+03   -0.97936E+01   -0.59125E+02  7488   0.325E+03-0.170E+03
CGA:  26    -0.320302536834E+03   -0.33123E+01   -0.84500E+01  7488   0.107E+04 0.184E+03
CGA:  27    -0.310177114051E+03    0.10125E+02   -0.43699E+02  7488   0.718E+03-0.156E+03
CGA:  28    -0.309092380320E+03    0.10847E+01   -0.21442E+02  7488   0.196E+04-0.153E+03
CGA:  29    -0.281758359803E+03    0.27334E+02   -0.43426E+02  7488   0.663E+03-0.125E+03
CGA:  30    -0.318034682992E+03   -0.36276E+02   -0.95472E+01  7488   0.295E+03-0.725E+02
CGA:  31    -0.326442798899E+03   -0.84081E+01   -0.50293E+01  7488   0.304E+03-0.127E+02
CGA:  32    -0.311769320025E+03    0.14673E+02   -0.56558E+01  7488   0.837E+03-0.648E+03
CGA:  33    -0.325200226818E+03   -0.13431E+02   -0.22061E+02  7488   0.328E+03-0.503E+03
CGA:  34    -0.331294088314E+03   -0.60939E+01   -0.69728E+01  7488   0.118E+03-0.231E+03
CGA:  35    -0.332943631609E+03   -0.16495E+01   -0.15621E+01  7488   0.163E+02-0.154E+02
CGA:  36    -0.333134216011E+03   -0.19058E+00   -0.27384E+00  7488   0.582E+01-0.369E+01
CGA:  37    -0.333281704948E+03   -0.14749E+00   -0.15301E+00  7488   0.878E+01-0.111E+00
CGA:  38    -0.333480064184E+03   -0.19836E+00   -0.16838E+00  7488   0.652E+01 0.117E+01
CGA:  39    -0.333649328202E+03   -0.16926E+00   -0.11496E+00  7488   0.376E+01 0.310E+01
CGA:  40    -0.333774072012E+03   -0.12474E+00   -0.12494E+00  7488   0.687E+01-0.859E-01
CGA:  41    -0.333840294940E+03   -0.66223E-01   -0.36391E-01  7488   0.759E+01 0.553E+01
CGA:  42    -0.333919050389E+03   -0.78755E-01   -0.61676E-01  7488   0.121E+01 0.186E+01
CGA:  43    -0.333947265178E+03   -0.28215E-01   -0.26824E-01  7488   0.198E+01 0.562E-01
CGA:  44    -0.334029093439E+03   -0.81828E-01   -0.83589E-01  7488   0.681E+01 0.976E-01
CGA:  45    -0.334075712713E+03   -0.46619E-01   -0.25778E-01  7488   0.657E+01 0.565E+01
CGA:  46    -0.334187893424E+03   -0.11218E+00   -0.11066E+00  7488   0.960E+00 0.554E-01
CGA:  47    -0.334211082976E+03   -0.23190E-01   -0.23436E-01  7488   0.144E+01-0.584E-02
CGA:  48    -0.334304319723E+03   -0.93237E-01   -0.93535E-01  7488   0.452E+01-0.169E-01
CGA:  49    -0.334357230649E+03   -0.52911E-01   -0.29496E-01  7488   0.328E+01 0.355E+01
CGA:  50    -0.334407351251E+03   -0.50121E-01   -0.48681E-01  7488   0.776E+00 0.688E-01
CGA:  51    -0.334421932658E+03   -0.14581E-01   -0.14855E-01  7488   0.765E+00-0.959E-02
CGA:  52    -0.334457013539E+03   -0.35081E-01   -0.35699E-01  7488   0.102E+01-0.632E-01
CGA:  53    -0.334479826242E+03   -0.22813E-01   -0.21861E-01  7488   0.125E+01 0.153E-01
CGA:  54    -0.334531284337E+03   -0.51458E-01   -0.51762E-01  7488   0.278E+01-0.354E+00
CGA:  55    -0.334540625165E+03   -0.93408E-02   -0.63594E-02  7488   0.232E+01 0.899E+00
CGA:  56    -0.334559207844E+03   -0.18583E-01   -0.18963E-01  7488   0.128E+01-0.863E-01
CGA:  57    -0.334569025255E+03   -0.98174E-02   -0.10984E-01  7488   0.129E+01-0.115E+00
CGA:  58    -0.334576462585E+03   -0.74373E-02   -0.72399E-02  7488   0.682E+00 0.347E-01
CGA:  59    -0.334580871525E+03   -0.44089E-02   -0.41047E-02  7488   0.517E+00 0.464E-01
CGA:  60    -0.334586766317E+03   -0.58948E-02   -0.60201E-02  7488   0.106E+01-0.796E-02
CGA:  61    -0.334598237326E+03   -0.11471E-01   -0.12399E-01  7488   0.162E+01-0.153E-01
CGA:  62    -0.334611688569E+03   -0.13451E-01   -0.11608E-01  7488   0.932E+00 0.325E+00
CGA:  63    -0.334622872018E+03   -0.11183E-01   -0.10824E-01  7488   0.467E+00 0.612E-01
CGA:  64    -0.334628701456E+03   -0.58294E-02   -0.54806E-02  7488   0.364E+00 0.189E-01
CGA:  65    -0.334634889369E+03   -0.61879E-02   -0.60328E-02  7488   0.598E+00 0.169E-03
CGA:  66    -0.334641407959E+03   -0.65186E-02   -0.63870E-02  7488   0.452E+00 0.697E-02
CGA:  67    -0.334645087061E+03   -0.36791E-02   -0.41585E-02  7488   0.275E+00-0.429E-01
CGA:  68    -0.334648519904E+03   -0.34328E-02   -0.36897E-02  7488   0.352E+00-0.907E-02
CGA:  69    -0.334654231828E+03   -0.57119E-02   -0.59575E-02  7488   0.305E+00 0.203E-02
CGA:  70    -0.334659487324E+03   -0.52555E-02   -0.53119E-02  7488   0.202E+00-0.152E-02
CGA:  71    -0.334663261103E+03   -0.37738E-02   -0.38527E-02  7488   0.174E+00 0.194E-02
CGA:  72    -0.334667209123E+03   -0.39480E-02   -0.39578E-02  7488   0.109E+00 0.259E-02
CGA:  73    -0.334670044288E+03   -0.28352E-02   -0.28329E-02  7488   0.130E+00 0.481E-04
CGA:  74    -0.334674294532E+03   -0.42502E-02   -0.41754E-02  7488   0.142E+00 0.640E-02
CGA:  75    -0.334677186975E+03   -0.28924E-02   -0.29042E-02  7488   0.910E-01 0.239E-03
CGA:  76    -0.334682929755E+03   -0.57428E-02   -0.56932E-02  7488   0.164E+00 0.765E-03
CGA:  77    -0.334686009523E+03   -0.30798E-02   -0.31640E-02  7488   0.624E-01 0.153E-02
CGA:  78    -0.334687506437E+03   -0.14969E-02   -0.14939E-02  7488   0.601E-01-0.845E-03
CGA:  79    -0.334690250264E+03   -0.27438E-02   -0.26890E-02  7488   0.707E-01 0.243E-02
SDA:  80    -0.334694038181E+03   -0.37879E-02   -0.37641E-02  7488   0.114E+00 0.593E-03
CGA:  81    -0.334695322090E+03   -0.12839E-02   -0.12609E-02  7488   0.204E-01 0.141E-02
CGA:  82    -0.334696414309E+03   -0.10922E-02   -0.10960E-02  7488   0.491E-01-0.149E-03
CGA:  83    -0.334697614866E+03   -0.12006E-02   -0.12011E-02  7488   0.493E-01 0.125E-03
CGA:  84    -0.334699459670E+03   -0.18448E-02   -0.18515E-02  7488   0.540E-01-0.494E-03
CGA:  85    -0.334702472915E+03   -0.30132E-02   -0.29842E-02  7488   0.533E-01 0.801E-03
CGA:  86    -0.334705236108E+03   -0.27632E-02   -0.26550E-02  7488   0.100E+00 0.500E-02
CGA:  87    -0.334706699530E+03   -0.14634E-02   -0.13237E-02  7488   0.161E-01 0.838E-02
CGA:  88    -0.334707207281E+03   -0.50775E-03   -0.50791E-03  7488   0.191E-01 0.113E-03
CGA:  89    -0.334707637882E+03   -0.43060E-03   -0.43069E-03  7488   0.112E-01 0.139E-04
CGA:  90    -0.334708844728E+03   -0.12068E-02   -0.12037E-02  7488   0.291E-01-0.100E-03
CGA:  91    -0.334709557773E+03   -0.71305E-03   -0.70329E-03  7488   0.216E-01-0.124E-03
CGA:  92    -0.334710016451E+03   -0.45868E-03   -0.47785E-03  7488   0.293E-01-0.157E-06
CGA:  93    -0.334711047688E+03   -0.10312E-02   -0.14223E-02  7488   0.129E+00-0.211E-01
CGA:  94    -0.334712054572E+03   -0.10069E-02   -0.10032E-02  7488   0.108E-01 0.383E-03
CGA:  95    -0.334712373568E+03   -0.31900E-03   -0.31882E-03  7488   0.161E-01-0.353E-04
CGA:  96    -0.334712736171E+03   -0.36260E-03   -0.36313E-03  7488   0.901E-02-0.138E-04
CGA:  97    -0.334713230159E+03   -0.49399E-03   -0.49300E-03  7488   0.851E-02 0.341E-04
CGA:  98    -0.334713503493E+03   -0.27333E-03   -0.27331E-03  7488   0.524E-02-0.361E-04
CGA:  99    -0.334714008927E+03   -0.50543E-03   -0.49290E-03  7488   0.272E-01 0.230E-03
CGA: 100    -0.334714496202E+03   -0.48727E-03   -0.42450E-03  7488   0.209E-01 0.277E-02
CGA: 101    -0.334715277477E+03   -0.78127E-03   -0.78208E-03  7488   0.409E-01 0.663E-03
CGA: 102    -0.334715963670E+03   -0.68619E-03   -0.71103E-03  7488   0.109E-01 0.321E-03
CGA: 103    -0.334716703033E+03   -0.73936E-03   -0.79135E-03  7488   0.356E-01-0.179E-02
CGA: 104    -0.334716995659E+03   -0.29263E-03   -0.23769E-03  7488   0.186E-01 0.628E-02
CGA: 105    -0.334717181114E+03   -0.18546E-03   -0.19795E-03  7488   0.107E-01-0.107E-02
CGA: 106    -0.334717392866E+03   -0.21175E-03   -0.22191E-03  7488   0.198E-01 0.244E-04
CGA: 107    -0.334717628279E+03   -0.23541E-03   -0.21586E-03  7488   0.887E-02 0.143E-02
CGA: 108    -0.334717793868E+03   -0.16559E-03   -0.15983E-03  7488   0.139E-01 0.164E-03
CGA: 109    -0.334718016523E+03   -0.22265E-03   -0.22355E-03  7488   0.147E-01 0.503E-04
CGA: 110    -0.334718194264E+03   -0.17774E-03   -0.18070E-03  7488   0.120E-01-0.724E-04
CGA: 111    -0.334718343585E+03   -0.14932E-03   -0.14122E-03  7488   0.801E-02 0.487E-03
CGA: 112    -0.334718429529E+03   -0.85944E-04   -0.83418E-04  7488   0.526E-02 0.191E-03
CGA: 113    -0.334718508792E+03   -0.79262E-04   -0.80282E-04  7488   0.813E-02-0.256E-04
CGA: 114    -0.334718664111E+03   -0.15532E-03   -0.15892E-03  7488   0.101E-01 0.852E-04
CGA: 115    -0.334718773382E+03   -0.10927E-03   -0.10405E-03  7488   0.697E-02 0.371E-03
CGA: 116    -0.334718923951E+03   -0.15057E-03   -0.14806E-03  7488   0.152E-01-0.122E-03
CGA: 117    -0.334719084633E+03   -0.16068E-03   -0.14790E-03  7488   0.106E-01 0.102E-02
CGA: 118    -0.334719160455E+03   -0.75822E-04   -0.76161E-04  7488   0.433E-02-0.118E-04
CGA: 119    -0.334719212233E+03   -0.51778E-04   -0.52190E-04  7488   0.689E-02-0.751E-05
CGA: 120    -0.334719328718E+03   -0.11649E-03   -0.11617E-03  7488   0.117E-01 0.163E-04
CGA: 121    -0.334719433498E+03   -0.10478E-03   -0.99935E-04  7488   0.742E-02 0.488E-03
CGA: 122    -0.334719495762E+03   -0.62264E-04   -0.63582E-04  7488   0.500E-02-0.754E-04
CGA: 123    -0.334719551188E+03   -0.55426E-04   -0.56625E-04  7488   0.598E-02-0.212E-04
SDA: 124    -0.334719618093E+03   -0.66905E-04   -0.65463E-04  7488   0.565E-02 0.917E-04
CGA: 125    -0.334719718863E+03   -0.10077E-03   -0.10078E-03  7488   0.362E-02 0.223E-05
CGA: 126    -0.334719795159E+03   -0.76296E-04   -0.76292E-04  7488   0.621E-02 0.489E-05
CGA: 127    -0.334720351279E+03   -0.55612E-03   -0.55525E-03  7488   0.457E-02 0.898E-06
CGA: 128    -0.334720661722E+03   -0.31044E-03   -0.30915E-03  7488   0.158E-01 0.292E-04
CGA: 129    -0.334720972875E+03   -0.31115E-03   -0.31140E-03  7488   0.586E-02 0.200E-04
CGA: 130    -0.334721161113E+03   -0.18824E-03   -0.18884E-03  7488   0.975E-02-0.631E-04
CGA: 131    -0.334721268506E+03   -0.10739E-03   -0.10779E-03  7488   0.960E-03-0.196E-04
CGA: 132    -0.334721364866E+03   -0.96360E-04   -0.96671E-04  7488   0.454E-02-0.202E-05
CGA: 133    -0.334721452957E+03   -0.88091E-04   -0.86964E-04  7488   0.433E-02-0.144E-04
CGA: 134    -0.334721517122E+03   -0.64165E-04   -0.64577E-04  7488   0.115E-02-0.293E-04
CGA: 135    -0.334721543984E+03   -0.26863E-04   -0.26807E-04  7488   0.137E-02-0.925E-05
CGA: 136    -0.334721581620E+03   -0.37636E-04   -0.37638E-04  7488   0.187E-02-0.248E-04
CGA: 137    -0.334721626109E+03   -0.44489E-04   -0.44645E-04  7488   0.340E-02 0.115E-04
CGA: 138    -0.334721714468E+03   -0.88359E-04   -0.88243E-04  7488   0.439E-03-0.386E-04
CGA: 139    -0.334721743266E+03   -0.28798E-04   -0.28685E-04  7488   0.879E-03 0.145E-05
CGA: 140    -0.334721783029E+03   -0.39763E-04   -0.39496E-04  7488   0.286E-02 0.139E-04
CGA: 141    -0.334721016543E+03    0.76649E-03   -0.18093E-03  7488   0.146E+00-0.386E-01
CGA: 142    -0.334721944739E+03   -0.92820E-03   -0.93437E-03  7488   0.592E-02-0.853E-03
CGA: 143    -0.334722068283E+03   -0.12354E-03   -0.12369E-03  7488   0.232E-02-0.412E-05
CGA: 144    -0.334722115542E+03   -0.47259E-04   -0.47249E-04  7488   0.187E-02-0.580E-05
CGA: 145    -0.334722178324E+03   -0.62782E-04   -0.62834E-04  7488   0.227E-02-0.130E-04
CGA: 146    -0.334722231048E+03   -0.52724E-04   -0.52691E-04  7488   0.248E-02-0.896E-05
CGA: 147    -0.334722262550E+03   -0.31502E-04   -0.31252E-04  7488   0.656E-03 0.154E-05
CGA: 148    -0.334722336799E+03   -0.74249E-04   -0.72763E-04  7488   0.129E-02 0.234E-04
CGA: 149    -0.334722403062E+03   -0.66263E-04   -0.68431E-04  7488   0.340E-02-0.110E-03
CGA: 150    -0.334722433258E+03   -0.30196E-04   -0.26241E-04  7488   0.907E-03 0.419E-03
CGA: 151    -0.334722444998E+03   -0.11740E-04   -0.11828E-04  7488   0.111E-02-0.338E-05
CGA: 152    -0.334722476757E+03   -0.31759E-04   -0.31853E-04  7488   0.381E-02 0.202E-04
CGA: 153    -0.334722539058E+03   -0.62301E-04   -0.49253E-04  7488   0.266E-02 0.931E-03
CGA: 154    -0.334722562434E+03   -0.23376E-04   -0.20607E-04  7488   0.372E-03 0.433E-03
CGA: 155    -0.334722566686E+03   -0.42518E-05   -0.42784E-05  7488   0.433E-03-0.695E-06
CGA: 156    -0.334722582220E+03   -0.15534E-04   -0.15559E-04  7488   0.176E-02-0.352E-05
CGA: 157    -0.334722595022E+03   -0.12802E-04   -0.10734E-04  7488   0.656E-03 0.316E-03
CGA: 158    -0.334722599747E+03   -0.47259E-05   -0.46097E-05  7488   0.368E-03 0.174E-04
   1 F= -.33472260E+03 E0= -.33468830E+03  d E =-.334723E+03  mag=    32.0000
       N       E                     dE             d eps       ncg     rms          ort
SDA:   1    -0.321328146400E+03    0.13394E+02    0.00000E+00  7488   0.597E+03 0.000E+00
CGA:   2    -0.330161273660E+03   -0.88331E+01   -0.77673E+01  7488   0.369E+03-0.646E+03
CGA:   3    -0.333694548824E+03   -0.35333E+01   -0.29089E+01  7488   0.108E+02-0.584E+02
CGA:   4    -0.333807284021E+03   -0.11274E+00   -0.11241E+00  7488   0.376E+01-0.709E-02
CGA:   5    -0.333953926957E+03   -0.14664E+00   -0.15650E+00  7488   0.106E+02-0.516E+00
CGA:   6    -0.334135086398E+03   -0.18116E+00   -0.18065E+00  7488   0.118E+02-0.314E-01
CGA:   7    -0.334467237028E+03   -0.33215E+00   -0.32829E+00  7488   0.437E+01 0.642E+00
CGA:   8    -0.334504811739E+03   -0.37575E-01   -0.37588E-01  7488   0.109E+01-0.976E-02
CGA:   9    -0.334545949009E+03   -0.41137E-01   -0.40414E-01  7488   0.301E+01 0.457E-01
CGA:  10    -0.334656715828E+03   -0.11077E+00   -0.10959E+00  7488   0.106E+01 0.882E-01
CGA:  11    -0.334673217676E+03   -0.16502E-01   -0.16121E-01  7488   0.403E+00 0.677E-02
CGA:  12    -0.334678771809E+03   -0.55541E-02   -0.55799E-02  7488   0.313E+00-0.678E-03
CGA:  13    -0.334689086727E+03   -0.10315E-01   -0.10394E-01  7488   0.512E+00-0.653E-02
CGA:  14    -0.334700313896E+03   -0.11227E-01   -0.11213E-01  7488   0.211E+00-0.310E-02
CGA:  15    -0.334704147504E+03   -0.38336E-02   -0.38524E-02  7488   0.147E+00 0.619E-03
CGA:  16    -0.334705933252E+03   -0.17857E-02   -0.17757E-02  7488   0.688E-01 0.414E-03
CGA:  17    -0.334708858092E+03   -0.29248E-02   -0.29151E-02  7488   0.126E+00 0.487E-03
CGA:  18    -0.334711180603E+03   -0.23225E-02   -0.23261E-02  7488   0.327E-01 0.140E-03
CGA:  19    -0.334711773789E+03   -0.59319E-03   -0.59344E-03  7488   0.403E-01 0.168E-04
CGA:  20    -0.334712678037E+03   -0.90425E-03   -0.90464E-03  7488   0.414E-01 0.160E-03
CGA:  21    -0.334713931332E+03   -0.12533E-02   -0.12512E-02  7488   0.382E-01 0.242E-03
CGA:  22    -0.334714621306E+03   -0.68997E-03   -0.68895E-03  7488   0.116E-01-0.159E-04
CGA:  23    -0.334714800534E+03   -0.17923E-03   -0.17927E-03  7488   0.105E-01 0.277E-05
CGA:  24    -0.334715048552E+03   -0.24802E-03   -0.24803E-03  7488   0.139E-01-0.228E-04
CGA:  25    -0.334715638560E+03   -0.59001E-03   -0.59155E-03  7488   0.153E-01-0.756E-04
CGA:  26    -0.334715844821E+03   -0.20626E-03   -0.20648E-03  7488   0.319E-02-0.792E-05
CGA:  27    -0.334715902416E+03   -0.57595E-04   -0.57581E-04  7488   0.520E-02-0.186E-05
CGA:  28    -0.334716181912E+03   -0.27950E-03   -0.27967E-03  7488   0.946E-02-0.580E-05
CGA:  29    -0.334716334820E+03   -0.15291E-03   -0.15315E-03  7488   0.227E-02-0.451E-05
CGA:  30    -0.334716377359E+03   -0.42539E-04   -0.42515E-04  7488   0.156E-02-0.549E-06
CGA:  31    -0.334716405359E+03   -0.28000E-04   -0.28016E-04  7488   0.201E-02 0.250E-05
CGA:  32    -0.334716489245E+03   -0.83886E-04   -0.83712E-04  7488   0.334E-02 0.987E-05
SDA:  33    -0.334716564485E+03   -0.75240E-04   -0.75265E-04  7488   0.150E-02 0.101E-04
CGA:  34    -0.334716580112E+03   -0.15627E-04   -0.15650E-04  7488   0.415E-03-0.240E-05
CGA:  35    -0.334716591383E+03   -0.11271E-04   -0.11277E-04  7488   0.657E-03-0.212E-05
CGA:  36    -0.334716605475E+03   -0.14093E-04   -0.14085E-04  7488   0.780E-03-0.294E-05
CGA:  37    -0.334716626397E+03   -0.20921E-04   -0.20936E-04  7488   0.403E-03-0.480E-05
CGA:  38    -0.334716642606E+03   -0.16209E-04   -0.16256E-04  7488   0.330E-03-0.285E-05
CGA:  39    -0.334716672549E+03   -0.29943E-04   -0.29822E-04  7488   0.465E-03 0.191E-05
CGA:  40    -0.334716676280E+03   -0.37310E-05   -0.37318E-05  7488   0.101E-03 0.300E-06
CGA:  41    -0.334716686645E+03   -0.10365E-04   -0.10276E-04  7488   0.246E-03 0.114E-05
CGA:  42    -0.334716695059E+03   -0.84145E-05   -0.84119E-05  7488   0.240E-03 0.851E-06
   2 F= -.33471670E+03 E0= -.33468205E+03  d E =0.590469E-02  mag=    32.0000
       N       E                     dE             d eps       ncg     rms          ort
SDA:   1    -0.320372039342E+03    0.14345E+02    0.00000E+00  7488   0.116E+03 0.000E+00
CGA:   2    -0.322501367877E+03   -0.21293E+01   -0.77564E+00  7488   0.187E+03 0.212E+03
CGA:   3    -0.326053428502E+03   -0.35521E+01   -0.12212E+01  7488   0.360E+03 0.453E+03
CGA:   4    -0.333573114929E+03   -0.75197E+01   -0.33516E+01  7488   0.102E+03-0.105E+03
CGA:   5    -0.333921878234E+03   -0.34876E+00   -0.23785E+00  7488   0.825E+02 0.307E+02
CGA:   6    -0.334320726154E+03   -0.39885E+00   -0.38519E+00  7488   0.263E+02-0.132E+01
CGA:   7    -0.334400630206E+03   -0.79904E-01   -0.11844E+00  7488   0.126E+02-0.777E+01
CGA:   8    -0.334437410917E+03   -0.36781E-01   -0.42308E-01  7488   0.103E+02-0.105E+01
CGA:   9    -0.334486990987E+03   -0.49580E-01   -0.48090E-01  7488   0.628E+01 0.255E+00
CGA:  10    -0.334513005414E+03   -0.26014E-01   -0.22699E-01  7488   0.274E+01 0.841E+00
CGA:  11    -0.334526744704E+03   -0.13739E-01   -0.13279E-01  7488   0.195E+01 0.907E-01
CGA:  12    -0.334538669309E+03   -0.11925E-01   -0.11325E-01  7488   0.239E+01 0.842E-01
CGA:  13    -0.334551785785E+03   -0.13116E-01   -0.13268E-01  7488   0.243E+01-0.251E-01
CGA:  14    -0.334563456256E+03   -0.11670E-01   -0.12645E-01  7488   0.248E+01-0.149E+00
CGA:  15    -0.334577606779E+03   -0.14151E-01   -0.14234E-01  7488   0.374E+01-0.111E-01
CGA:  16    -0.334605193323E+03   -0.27587E-01   -0.28134E-01  7488   0.574E+01-0.466E-01
CGA:  17    -0.334633459514E+03   -0.28266E-01   -0.26370E-01  7488   0.403E+01 0.321E+00
CGA:  18    -0.334651550017E+03   -0.18091E-01   -0.17759E-01  7488   0.271E+01 0.606E-01
CGA:  19    -0.334664548520E+03   -0.12999E-01   -0.12439E-01  7488   0.215E+01 0.981E-01
CGA:  20    -0.334673618824E+03   -0.90703E-02   -0.90233E-02  7488   0.131E+01 0.860E-02
CGA:  21    -0.334678651183E+03   -0.50324E-02   -0.52813E-02  7488   0.802E+00-0.503E-01
CGA:  22    -0.334682175952E+03   -0.35248E-02   -0.35525E-02  7488   0.711E+00-0.460E-02
CGA:  23    -0.334685862664E+03   -0.36867E-02   -0.37485E-02  7488   0.658E+00-0.786E-02
CGA:  24    -0.334688838945E+03   -0.29763E-02   -0.29465E-02  7488   0.471E+00 0.485E-02
CGA:  25    -0.334691216997E+03   -0.23781E-02   -0.23669E-02  7488   0.495E+00 0.153E-02
CGA:  26    -0.334694603882E+03   -0.33869E-02   -0.33873E-02  7488   0.785E+00 0.200E-04
CGA:  27    -0.334699076874E+03   -0.44730E-02   -0.44405E-02  7488   0.789E+00 0.335E-02
CGA:  28    -0.334702595917E+03   -0.35190E-02   -0.35625E-02  7488   0.568E+00-0.649E-02
CGA:  29    -0.334705354289E+03   -0.27584E-02   -0.27750E-02  7488   0.530E+00-0.198E-02
CGA:  30    -0.334708207786E+03   -0.28535E-02   -0.28941E-02  7488   0.490E+00-0.364E-02
CGA:  31    -0.334710413572E+03   -0.22058E-02   -0.22030E-02  7488   0.306E+00 0.480E-03
CGA:  32    -0.334711796626E+03   -0.13831E-02   -0.13761E-02  7488   0.228E+00 0.103E-02
CGA:  33    -0.334713015657E+03   -0.12190E-02   -0.12129E-02  7488   0.214E+00 0.572E-03
SDA:  34    -0.334714054921E+03   -0.10393E-02   -0.10392E-02  7488   0.161E+00 0.562E-04
CGA:  35    -0.334715304677E+03   -0.12498E-02   -0.12505E-02  7488   0.270E-01 0.111E-03
CGA:  36    -0.334715952065E+03   -0.64739E-03   -0.64792E-03  7488   0.385E-01-0.404E-04
CGA:  37    -0.334717184553E+03   -0.12325E-02   -0.12294E-02  7488   0.458E-01 0.171E-03
CGA:  38    -0.334718169618E+03   -0.98507E-03   -0.98565E-03  7488   0.107E-01-0.550E-04
CGA:  39    -0.334719383602E+03   -0.12140E-02   -0.56119E-03  7488   0.134E-01 0.508E-02
CGA:  40    -0.334719670582E+03   -0.28698E-03   -0.28686E-03  7488   0.153E-01-0.116E-04
CGA:  41    -0.334720253519E+03   -0.58294E-03   -0.58588E-03  7488   0.899E-02-0.165E-03
CGA:  42    -0.334720397737E+03   -0.14422E-03   -0.14419E-03  7488   0.741E-02-0.783E-05
CGA:  43    -0.334720680015E+03   -0.28228E-03   -0.28303E-03  7488   0.156E-01-0.432E-04
CGA:  44    -0.334720897126E+03   -0.21711E-03   -0.21695E-03  7488   0.916E-02-0.757E-06
CGA:  45    -0.334721110897E+03   -0.21377E-03   -0.21371E-03  7488   0.245E-02 0.302E-04
CGA:  46    -0.334721155833E+03   -0.44935E-04   -0.44927E-04  7488   0.324E-02-0.807E-06
CGA:  47    -0.334721226479E+03   -0.70647E-04   -0.70647E-04  7488   0.406E-02 0.959E-07
CGA:  48    -0.334721462082E+03   -0.23560E-03   -0.23634E-03  7488   0.472E-02-0.220E-04
CGA:  49    -0.334721505099E+03   -0.43017E-04   -0.42908E-04  7488   0.107E-02 0.560E-05
CGA:  50    -0.334721526573E+03   -0.21475E-04   -0.21479E-04  7488   0.154E-02 0.493E-06
CGA:  51    -0.334721572903E+03   -0.46329E-04   -0.46321E-04  7488   0.108E-02 0.847E-06
CGA:  52    -0.334721601989E+03   -0.29086E-04   -0.29092E-04  7488   0.158E-02-0.975E-06
CGA:  53    -0.334721618050E+03   -0.16061E-04   -0.16056E-04  7488   0.236E-03 0.121E-05
CGA:  54    -0.334721636305E+03   -0.18255E-04   -0.18086E-04  7488   0.110E-02 0.317E-05
CGA:  55    -0.334721648669E+03   -0.12364E-04   -0.12387E-04  7488   0.226E-03 0.200E-05
CGA:  56    -0.334721652526E+03   -0.38573E-05   -0.38642E-05  7488   0.217E-03 0.889E-06
   3 F= -.33472165E+03 E0= -.33468695E+03  d E =0.947222E-03  mag=    32.0000
       N       E                     dE             d eps       ncg     rms          ort
SDA:   1    -0.334683445116E+03    0.38204E-01    0.00000E+00  7488   0.232E+01 0.000E+00
CGA:   2    -0.334705083995E+03   -0.21639E-01   -0.20995E-01  7488   0.348E+00 0.503E-01
CGA:   3    -0.334709030538E+03   -0.39465E-02   -0.38670E-02  7488   0.904E-01 0.444E-02
CGA:   4    -0.334710464352E+03   -0.14338E-02   -0.14259E-02  7488   0.609E-01 0.432E-04
CGA:   5    -0.334713496456E+03   -0.30321E-02   -0.30430E-02  7488   0.130E+00-0.421E-03
CGA:   6    -0.334716691907E+03   -0.31955E-02   -0.31955E-02  7488   0.193E+00-0.374E-04
CGA:   7    -0.334718950462E+03   -0.22586E-02   -0.22908E-02  7488   0.196E-01-0.143E-02
CGA:   8    -0.334720640449E+03   -0.16900E-02   -0.17106E-02  7488   0.492E-01-0.397E-03
CGA:   9    -0.334721090033E+03   -0.44958E-03   -0.44913E-03  7488   0.126E-01 0.193E-04
CGA:  10    -0.334721328327E+03   -0.23829E-03   -0.23849E-03  7488   0.814E-02-0.230E-05
CGA:  11    -0.334721610526E+03   -0.28220E-03   -0.28215E-03  7488   0.157E-01 0.140E-05
CGA:  12    -0.334721936008E+03   -0.32548E-03   -0.32541E-03  7488   0.857E-02-0.115E-04
CGA:  13    -0.334722036287E+03   -0.10028E-03   -0.10004E-03  7488   0.381E-02 0.808E-05
CGA:  14    -0.334722099210E+03   -0.62923E-04   -0.62699E-04  7488   0.787E-03 0.233E-06
CGA:  15    -0.334722160548E+03   -0.61338E-04   -0.61146E-04  7488   0.540E-02 0.369E-05
CGA:  16    -0.334722233574E+03   -0.73027E-04   -0.73065E-04  7488   0.709E-03 0.507E-05
CGA:  17    -0.334722249954E+03   -0.16380E-04   -0.16378E-04  7488   0.370E-03-0.146E-07
CGA:  18    -0.334722259160E+03   -0.92055E-05   -0.92038E-05  7488   0.687E-03-0.756E-06
CGA:  19    -0.334722273898E+03   -0.14738E-04   -0.14732E-04  7488   0.588E-03-0.124E-05
CGA:  20    -0.334722286240E+03   -0.12342E-04   -0.12336E-04  7488   0.361E-03-0.134E-05
CGA:  21    -0.334722291823E+03   -0.55830E-05   -0.55773E-05  7488   0.124E-03-0.665E-06
   4 F= -.33472229E+03 E0= -.33468759E+03  d E =0.307925E-03  mag=    32.0000
       N       E                     dE             d eps       ncg     rms          ort
SDA:   1    -0.334596566299E+03    0.12572E+00    0.00000E+00  7488   0.210E+02 0.000E+00
CGA:   2    -0.334719426991E+03   -0.12286E+00   -0.13365E+00  7488   0.229E+00-0.164E+01
CGA:   3    -0.334721034888E+03   -0.16079E-02   -0.15761E-02  7488   0.134E-01 0.339E-02
CGA:   4    -0.334721265329E+03   -0.23044E-03   -0.23143E-03  7488   0.560E-02 0.611E-05
CGA:   5    -0.334721461277E+03   -0.19595E-03   -0.19583E-03  7488   0.141E-01 0.104E-04
CGA:   6    -0.334721792830E+03   -0.33155E-03   -0.33157E-03  7488   0.876E-02 0.109E-04
CGA:   7    -0.334721941859E+03   -0.14903E-03   -0.14886E-03  7488   0.660E-02 0.349E-05
CGA:   8    -0.334722081910E+03   -0.14005E-03   -0.13999E-03  7488   0.372E-02-0.446E-05
CGA:   9    -0.334722267115E+03   -0.18521E-03   -0.18531E-03  7488   0.759E-02-0.446E-05
CGA:  10    -0.334722337230E+03   -0.70115E-04   -0.70159E-04  7488   0.517E-03-0.540E-05
CGA:  11    -0.334722359108E+03   -0.21878E-04   -0.21918E-04  7488   0.149E-02-0.233E-05
CGA:  12    -0.334722400635E+03   -0.41527E-04   -0.41537E-04  7488   0.163E-02-0.484E-05
CGA:  13    -0.334722427755E+03   -0.27121E-04   -0.27087E-04  7488   0.589E-03-0.312E-05
CGA:  14    -0.334722434638E+03   -0.68826E-05   -0.68820E-05  7488   0.185E-03-0.508E-06
   5 F= -.33472243E+03 E0= -.33468773E+03  d E =0.165110E-03  mag=    32.0000
       N       E                     dE             d eps       ncg     rms          ort
SDA:   1    -0.334623012579E+03    0.99415E-01    0.00000E+00  7488   0.952E+01 0.000E+00
CGA:   2    -0.334682530003E+03   -0.59517E-01   -0.58056E-01  7488   0.371E+00 0.165E+00
CGA:   3    -0.334689753602E+03   -0.72236E-02   -0.72412E-02  7488   0.144E+00 0.869E-03
CGA:   4    -0.334693983381E+03   -0.42298E-02   -0.42223E-02  7488   0.351E+00 0.982E-03
CGA:   5    -0.334702633818E+03   -0.86504E-02   -0.86506E-02  7488   0.386E+00-0.314E-03
CGA:   6    -0.334711393506E+03   -0.87597E-02   -0.87619E-02  7488   0.279E+00 0.656E-03
CGA:   7    -0.334715323155E+03   -0.39296E-02   -0.39590E-02  7488   0.379E-01-0.576E-03
CGA:   8    -0.334717889743E+03   -0.25666E-02   -0.25678E-02  7488   0.195E+00-0.336E-04
CGA:   9    -0.334720230141E+03   -0.23404E-02   -0.23367E-02  7488   0.292E-01 0.181E-03
CGA:  10    -0.334720985213E+03   -0.75507E-03   -0.75533E-03  7488   0.163E-01-0.211E-03
CGA:  11    -0.334721548379E+03   -0.56317E-03   -0.56319E-03  7488   0.386E-01-0.250E-05
CGA:  12    -0.334722069656E+03   -0.52128E-03   -0.52174E-03  7488   0.112E-01-0.158E-04
CGA:  13    -0.334722317372E+03   -0.24772E-03   -0.24792E-03  7488   0.376E-02 0.271E-04
CGA:  14    -0.334722386205E+03   -0.68833E-04   -0.68849E-04  7488   0.380E-02-0.442E-07
CGA:  15    -0.334722637927E+03   -0.25172E-03   -0.25180E-03  7488   0.829E-02-0.188E-05
CGA:  16    -0.334722705901E+03   -0.67975E-04   -0.67880E-04  7488   0.845E-03 0.627E-05
CGA:  17    -0.334722739722E+03   -0.33821E-04   -0.33864E-04  7488   0.119E-02-0.290E-05
CGA:  18    -0.334722799885E+03   -0.60163E-04   -0.60261E-04  7488   0.240E-02-0.403E-05
CGA:  19    -0.334722825886E+03   -0.26001E-04   -0.25917E-04  7488   0.709E-03-0.200E-06
CGA:  20    -0.334722839357E+03   -0.13472E-04   -0.13452E-04  7488   0.423E-03-0.135E-05
CGA:  21    -0.334722847695E+03   -0.83380E-05   -0.83355E-05  7488   0.372E-03-0.524E-06
CGA:  22    -0.334722876788E+03   -0.29093E-04   -0.29118E-04  7488   0.518E-03-0.509E-06
CGA:  23    -0.334722880996E+03   -0.42082E-05   -0.42147E-05  7488   0.123E-03-0.103E-06
   6 F= -.33472288E+03 E0= -.33468815E+03  d E =-.281249E-03  mag=    32.0000
       N       E                     dE             d eps       ncg     rms          ort
SDA:   1    -0.334705245972E+03    0.17631E-01    0.00000E+00  7488   0.146E+01 0.000E+00
CGA:   2    -0.334720484433E+03   -0.15238E-01   -0.15800E-01  7488   0.178E+00-0.361E-01
CGA:   3    -0.334722169427E+03   -0.16850E-02   -0.16325E-02  7488   0.156E-01 0.411E-02
CGA:   4    -0.334722323081E+03   -0.15365E-03   -0.15405E-03  7488   0.484E-02-0.318E-04
CGA:   5    -0.334722439602E+03   -0.11652E-03   -0.11642E-03  7488   0.234E-02-0.243E-04
CGA:   6    -0.334722615362E+03   -0.17576E-03   -0.17636E-03  7488   0.376E-02-0.129E-04
CGA:   7    -0.334722658956E+03   -0.43594E-04   -0.43628E-04  7488   0.150E-02-0.403E-05
CGA:   8    -0.334722722225E+03   -0.63270E-04   -0.63295E-04  7488   0.475E-02-0.141E-05
CGA:   9    -0.334722800696E+03   -0.78471E-04   -0.78458E-04  7488   0.158E-02 0.243E-05
CGA:  10    -0.334722843672E+03   -0.42976E-04   -0.42981E-04  7488   0.349E-03 0.611E-05
CGA:  11    -0.334722851319E+03   -0.76477E-05   -0.76566E-05  7488   0.467E-03 0.171E-05
CGA:  12    -0.334722868275E+03   -0.16956E-04   -0.16902E-04  7488   0.722E-03 0.614E-05
CGA:  13    -0.334722880089E+03   -0.11813E-04   -0.11856E-04  7488   0.371E-03 0.395E-05
CGA:  14    -0.334722884140E+03   -0.40512E-05   -0.40721E-05  7488   0.428E-04 0.117E-05
   7 F= -.33472288E+03 E0= -.33468816E+03  d E =-.284393E-03  mag=    32.0000
       N       E                     dE             d eps       ncg     rms          ort
SDA:   1    -0.334704126563E+03    0.18754E-01    0.00000E+00  7488   0.217E+01 0.000E+00
CGA:   2    -0.334722096181E+03   -0.17970E-01   -0.17116E-01  7488   0.302E-01 0.889E-01
CGA:   3    -0.334722587184E+03   -0.49100E-03   -0.49554E-03  7488   0.620E-02-0.127E-03
CGA:   4    -0.334722653821E+03   -0.66638E-04   -0.67067E-04  7488   0.121E-02-0.260E-04
CGA:   5    -0.334722688499E+03   -0.34678E-04   -0.34678E-04  7488   0.173E-02 0.570E-07
CGA:   6    -0.334722736499E+03   -0.48000E-04   -0.48003E-04  7488   0.388E-02 0.299E-05
CGA:   7    -0.334722834189E+03   -0.97690E-04   -0.97703E-04  7488   0.878E-03 0.341E-05
CGA:   8    -0.334722847225E+03   -0.13036E-04   -0.13044E-04  7488   0.587E-03-0.560E-06
CGA:   9    -0.334722866345E+03   -0.19120E-04   -0.19124E-04  7488   0.477E-03-0.130E-05
CGA:  10    -0.334722889868E+03   -0.23523E-04   -0.23629E-04  7488   0.492E-03-0.482E-05
CGA:  11    -0.334722894946E+03   -0.50784E-05   -0.50562E-05  7488   0.109E-03-0.682E-06
   8 F= -.33472289E+03 E0= -.33468817E+03  d E =-.295199E-03  mag=    32.0000
       N       E                     dE             d eps       ncg     rms          ort
SDA:   1    -0.334617491951E+03    0.10540E+00    0.00000E+00  7488   0.173E+02 0.000E+00
CGA:   2    -0.334722015080E+03   -0.10452E+00   -0.10367E+00  7488   0.834E-01-0.332E-01
CGA:   3    -0.334722708889E+03   -0.69381E-03   -0.69500E-03  7488   0.336E-02-0.114E-03
CGA:   4    -0.334722795129E+03   -0.86240E-04   -0.86230E-04  7488   0.174E-02-0.894E-05
CGA:   5    -0.334722854600E+03   -0.59472E-04   -0.59524E-04  7488   0.160E-02-0.504E-05
CGA:   6    -0.334722870613E+03   -0.16012E-04   -0.16013E-04  7488   0.512E-03-0.143E-05
CGA:   7    -0.334722881206E+03   -0.10593E-04   -0.10594E-04  7488   0.135E-03-0.237E-06
CGA:   8    -0.334722901457E+03   -0.20251E-04   -0.50767E-06  7488   0.190E-03-0.129E-04
CGA:   9    -0.334722904177E+03   -0.27207E-05   -0.27333E-05  7488   0.149E-03 0.971E-07
   9 F= -.33472290E+03 E0= -.33468818E+03  d E =-.304430E-03  mag=    32.0000
       N       E                     dE             d eps       ncg     rms          ort
SDA:   1    -0.333626421480E+03    0.10965E+01    0.00000E+00  7488   0.183E+03 0.000E+00
CGA:   2    -0.333115307812E+03    0.51111E+00   -0.24852E+01  7488   0.224E+03-0.183E+03
CGA:   3    -0.334031696418E+03   -0.91639E+00   -0.22817E+01  7488   0.117E+03-0.179E+03
CGA:   4    -0.334267348735E+03   -0.23565E+00   -0.12593E+01  7488   0.719E+02-0.887E+02
CGA:   5    -0.334704778767E+03   -0.43743E+00   -0.51869E+00  7488   0.303E+01-0.153E+02
CGA:   6    -0.334722534149E+03   -0.17755E-01   -0.18289E-01  7488   0.605E-02-0.643E-01
CGA:   7    -0.334722601726E+03   -0.67577E-04   -0.67323E-04  7488   0.376E-02 0.174E-04
CGA:   8    -0.334722713335E+03   -0.11161E-03   -0.11152E-03  7488   0.279E-02-0.473E-05
CGA:   9    -0.334722785498E+03   -0.72162E-04   -0.72168E-04  7488   0.313E-02 0.130E-05
CGA:  10    -0.334722833639E+03   -0.48142E-04   -0.48238E-04  7488   0.679E-03-0.119E-05
CGA:  11    -0.334722845953E+03   -0.12313E-04   -0.12311E-04  7488   0.972E-03 0.227E-06
CGA:  12    -0.334722889938E+03   -0.43986E-04   -0.43984E-04  7488   0.374E-03 0.237E-06
CGA:  13    -0.334722895734E+03   -0.57952E-05   -0.57883E-05  7488   0.237E-03-0.340E-06
  10 F= -.33472290E+03 E0= -.33468817E+03  d E =-.295986E-03  mag=    32.0000
       N       E                     dE             d eps       ncg     rms          ort
SDA:   1    -0.322559689323E+03    0.12163E+02    0.00000E+00  7488   0.142E+03 0.000E+00
CGA:   2    -0.324942291098E+03   -0.23826E+01   -0.81287E+00  7488   0.285E+03 0.325E+03
CGA:   3    -0.332960299318E+03   -0.80180E+01   -0.21396E+01  7488   0.216E+03 0.536E+03
CGA:   4    -0.334441969818E+03   -0.14817E+01   -0.18436E+01  7488   0.413E+02-0.747E+02
CGA:   5    -0.334672728954E+03   -0.23076E+00   -0.25178E+00  7488   0.402E+01-0.196E+01
CGA:   6    -0.334701523943E+03   -0.28795E-01   -0.30040E-01  7488   0.702E+00-0.129E+00
CGA:   7    -0.334706754473E+03   -0.52305E-02   -0.49827E-02  7488   0.114E+00 0.271E-01
CGA:   8    -0.334708888310E+03   -0.21338E-02   -0.21260E-02  7488   0.207E+00-0.126E-03
CGA:   9    -0.334712649063E+03   -0.37608E-02   -0.37524E-02  7488   0.223E+00-0.201E-03
CGA:  10    -0.334716353807E+03   -0.37047E-02   -0.37055E-02  7488   0.270E+00-0.282E-04
CGA:  11    -0.334719443688E+03   -0.30899E-02   -0.30586E-02  7488   0.128E+00 0.145E-02
CGA:  12    -0.334720812043E+03   -0.13684E-02   -0.13836E-02  7488   0.415E-01-0.812E-03
CGA:  13    -0.334721108105E+03   -0.29606E-03   -0.29825E-03  7488   0.108E-01-0.225E-03
CGA:  14    -0.334721348118E+03   -0.24001E-03   -0.23999E-03  7488   0.243E-01 0.270E-04
CGA:  15    -0.334721792227E+03   -0.44411E-03   -0.44399E-03  7488   0.313E-01 0.654E-05
CGA:  16    -0.334722310437E+03   -0.51821E-03   -0.51817E-03  7488   0.201E-01 0.229E-04
CGA:  17    -0.334722481560E+03   -0.17112E-03   -0.17170E-03  7488   0.699E-02-0.220E-04
CGA:  18    -0.334722573916E+03   -0.92356E-04   -0.92512E-04  7488   0.405E-02 0.493E-05
CGA:  19    -0.334722627542E+03   -0.53626E-04   -0.53636E-04  7488   0.445E-02 0.235E-05
CGA:  20    -0.334722714413E+03   -0.86871E-04   -0.86874E-04  7488   0.399E-02 0.418E-05
CGA:  21    -0.334722763090E+03   -0.48677E-04   -0.48671E-04  7488   0.296E-02 0.217E-05
CGA:  22    -0.334722797843E+03   -0.34753E-04   -0.34718E-04  7488   0.108E-02 0.116E-05
CGA:  23    -0.334722811407E+03   -0.13564E-04   -0.13553E-04  7488   0.968E-03-0.531E-06
CGA:  24    -0.334722828170E+03   -0.16764E-04   -0.16762E-04  7488   0.134E-02-0.101E-05
CGA:  25    -0.334722864595E+03   -0.36424E-04   -0.36450E-04  7488   0.223E-02-0.294E-05
CGA:  26    -0.334722882922E+03   -0.18328E-04   -0.18311E-04  7488   0.349E-03-0.198E-05
CGA:  27    -0.334722886741E+03   -0.38189E-05   -0.38141E-05  7488   0.225E-03-0.601E-06
  11 F= -.33472289E+03 E0= -.33468815E+03  d E =-.286994E-03  mag=    32.0000
       N       E                     dE             d eps       ncg     rms          ort
SDA:   1    -0.334512542113E+03    0.21034E+00    0.00000E+00  7488   0.261E+02 0.000E+00
CGA:   2    -0.334718615704E+03   -0.20607E+00   -0.18417E+00  7488   0.464E+00 0.197E+01
CGA:   3    -0.334722305756E+03   -0.36901E-02   -0.37424E-02  7488   0.196E-01-0.442E-02
CGA:   4    -0.334722710003E+03   -0.40425E-03   -0.40363E-03  7488   0.226E-02 0.112E-03
CGA:   5    -0.334722784016E+03   -0.74013E-04   -0.74160E-04  7488   0.249E-02-0.953E-05
CGA:   6    -0.334722834106E+03   -0.50090E-04   -0.50103E-04  7488   0.246E-02-0.510E-05
CGA:   7    -0.334722866249E+03   -0.32143E-04   -0.32138E-04  7488   0.386E-03-0.179E-05
CGA:   8    -0.334722872731E+03   -0.64819E-05   -0.64811E-05  7488   0.381E-03-0.583E-06
CGA:   9    -0.334722899651E+03   -0.26920E-04   -0.26956E-04  7488   0.197E-03-0.647E-06
CGA:  10    -0.334722905134E+03   -0.54832E-05   -0.54849E-05  7488   0.707E-04-0.151E-06
  12 F= -.33472291E+03 E0= -.33468818E+03  d E =-.305387E-03  mag=    32.0000
       N       E                     dE             d eps       ncg     rms          ort
SDA:   1    -0.334693900636E+03    0.28999E-01    0.00000E+00  7488   0.483E+01 0.000E+00
CGA:   2    -0.334722216509E+03   -0.28316E-01   -0.29478E-01  7488   0.406E-01-0.159E+00
CGA:   3    -0.334722715912E+03   -0.49940E-03   -0.49669E-03  7488   0.123E-01 0.350E-04
CGA:   4    -0.334722850585E+03   -0.13467E-03   -0.13414E-03  7488   0.127E-02 0.198E-04
CGA:   5    -0.334722868653E+03   -0.18068E-04   -0.18067E-04  7488   0.952E-03 0.263E-06
CGA:   6    -0.334722901402E+03   -0.32749E-04   -0.32668E-04  7488   0.300E-03 0.520E-05
CGA:   7    -0.334722904396E+03   -0.29934E-05   -0.29973E-05  7488   0.101E-03 0.475E-06
  13 F= -.33472290E+03 E0= -.33468820E+03  d E =-.304648E-03  mag=    32.0000
       N       E                     dE             d eps       ncg     rms          ort
SDA:   1    -0.334716670456E+03    0.62309E-02    0.00000E+00  7488   0.765E+00 0.000E+00
CGA:   2    -0.334721936403E+03   -0.52659E-02   -0.53633E-02  7488   0.749E-01-0.102E-01
CGA:   3    -0.334722836905E+03   -0.90050E-03   -0.90377E-03  7488   0.225E-02-0.246E-04
CGA:   4    -0.334722879530E+03   -0.42625E-04   -0.42620E-04  7488   0.845E-03 0.755E-05
CGA:   5    -0.334722888201E+03   -0.86710E-05   -0.86739E-05  7488   0.368E-03 0.339E-06
CGA:   6    -0.334722907748E+03   -0.19547E-04   -0.19435E-04  7488   0.869E-04 0.332E-05
CGA:   7    -0.334722909106E+03   -0.13579E-05   -0.13571E-05  7488   0.870E-04-0.172E-06
  14 F= -.33472291E+03 E0= -.33468818E+03  d E =-.309359E-03  mag=    32.0000
       N       E                     dE             d eps       ncg     rms          ort
SDA:   1    -0.334682534465E+03    0.40373E-01    0.00000E+00  7488   0.506E+00 0.000E+00
CGA:   2    -0.334690502202E+03   -0.79677E-02   -0.80843E-02  7488   0.216E+00 0.792E-02
CGA:   3    -0.334694798955E+03   -0.42968E-02   -0.42971E-02  7488   0.134E+00 0.254E-02
CGA:   4    -0.334709447305E+03   -0.14648E-01   -0.19412E-03  7488   0.717E+00-0.207E-01
CGA:   5    -0.334714554702E+03   -0.51074E-02   -0.50928E-02  7488   0.111E+00 0.120E-02
CGA:   6    -0.334715849033E+03   -0.12943E-02   -0.13117E-02  7488   0.694E-01-0.108E-02
CGA:   7    -0.334717138948E+03   -0.12899E-02   -0.13050E-02  7488   0.863E-01-0.252E-03
CGA:   8    -0.334718513803E+03   -0.13749E-02   -0.13826E-02  7488   0.806E-01-0.225E-03
CGA:   9    -0.334721069451E+03   -0.25556E-02   -0.25557E-02  7488   0.112E+00-0.144E-03
CGA:  10    -0.334721933604E+03   -0.86415E-03   -0.85198E-03  7488   0.117E-01 0.139E-02
CGA:  11    -0.334722118969E+03   -0.18537E-03   -0.18522E-03  7488   0.986E-02 0.586E-05
CGA:  12    -0.334722255311E+03   -0.13634E-03   -0.13671E-03  7488   0.103E-01-0.147E-04
CGA:  13    -0.334722885142E+03   -0.62983E-03   -0.62984E-03  7488   0.261E-01-0.690E-06
CGA:  14    -0.334723070409E+03   -0.18527E-03   -0.18518E-03  7488   0.178E-02-0.186E-06
CGA:  15    -0.334723096643E+03   -0.26234E-04   -0.26176E-04  7488   0.195E-02 0.460E-06
CGA:  16    -0.334723162456E+03   -0.65813E-04   -0.65828E-04  7488   0.553E-02-0.288E-05
CGA:  17    -0.334723248776E+03   -0.86320E-04   -0.86273E-04  7488   0.218E-02-0.476E-05
CGA:  18    -0.334723284789E+03   -0.36013E-04   -0.35969E-04  7488   0.182E-02-0.157E-05
CGA:  19    -0.334723304106E+03   -0.19317E-04   -0.19347E-04  7488   0.713E-03-0.355E-05
CGA:  20    -0.334723330566E+03   -0.26460E-04   -0.26453E-04  7488   0.166E-02 0.519E-06
CGA:  21    -0.334723351348E+03   -0.20783E-04   -0.20775E-04  7488   0.112E-02-0.143E-07
CGA:  22    -0.334723376012E+03   -0.24663E-04   -0.24659E-04  7488   0.424E-03 0.154E-07
CGA:  23    -0.334723379514E+03   -0.35022E-05   -0.35085E-05  7488   0.169E-03 0.248E-06
  15 F= -.33472338E+03 E0= -.33468855E+03  d E =-.470408E-03  mag=    32.0000
       N       E                     dE             d eps       ncg     rms          ort
SDA:   1    -0.334549976858E+03    0.17340E+00    0.00000E+00  7488   0.270E+02 0.000E+00
CGA:   2    -0.334718265842E+03   -0.16829E+00   -0.15030E+00  7488   0.427E+00 0.250E+01
CGA:   3    -0.334721572586E+03   -0.33067E-02   -0.31989E-02  7488   0.624E-01 0.128E-01
CGA:   4    -0.334722223220E+03   -0.65063E-03   -0.65994E-03  7488   0.150E-01-0.573E-03
CGA:   5    -0.334722410645E+03   -0.18743E-03   -0.18738E-03  7488   0.597E-02 0.497E-05
CGA:   6    -0.334722512906E+03   -0.10226E-03   -0.10228E-03  7488   0.839E-02 0.298E-05
CGA:   7    -0.334722710760E+03   -0.19785E-03   -0.19784E-03  7488   0.849E-02 0.133E-04
CGA:   8    -0.334722939320E+03   -0.22856E-03   -0.22852E-03  7488   0.126E-01 0.105E-04
CGA:   9    -0.334723056646E+03   -0.11733E-03   -0.11735E-03  7488   0.226E-02 0.821E-05
CGA:  10    -0.334723151733E+03   -0.95087E-04   -0.95013E-04  7488   0.879E-02 0.381E-05
CGA:  11    -0.334723280655E+03   -0.12892E-03   -0.12900E-03  7488   0.289E-02 0.491E-05
CGA:  12    -0.334723314679E+03   -0.34023E-04   -0.33978E-04  7488   0.999E-03 0.345E-05
CGA:  13    -0.334723331253E+03   -0.16574E-04   -0.16568E-04  7488   0.911E-03 0.803E-07
CGA:  14    -0.334723345854E+03   -0.14601E-04   -0.14604E-04  7488   0.910E-03 0.439E-06
CGA:  15    -0.334723377209E+03   -0.31355E-04   -0.31358E-04  7488   0.947E-03-0.135E-06
CGA:  16    -0.334723387014E+03   -0.98052E-05   -0.98087E-05  7488   0.465E-03-0.250E-06
  16 F= -.33472339E+03 E0= -.33468857E+03  d E =-.477908E-03  mag=    32.0000
       N       E                     dE             d eps       ncg     rms          ort
SDA:   1    -0.334664602482E+03    0.58775E-01    0.00000E+00  7488   0.455E+01 0.000E+00
CGA:   2    -0.334692582325E+03   -0.27980E-01   -0.26910E-01  7488   0.127E+00 0.140E+00
CGA:   3    -0.334696088312E+03   -0.35060E-02   -0.34936E-02  7488   0.222E+00 0.149E-02
CGA:   4    -0.334701731375E+03   -0.56431E-02   -0.56293E-02  7488   0.316E+00 0.219E-02
CGA:   5    -0.334708692691E+03   -0.69613E-02   -0.69617E-02  7488   0.400E+00-0.497E-03
CGA:   6    -0.334715791096E+03   -0.70984E-02   -0.70783E-02  7488   0.774E-01-0.182E-02
CGA:   7    -0.334717417102E+03   -0.16260E-02   -0.16260E-02  7488   0.109E+00 0.103E-03
CGA:   8    -0.334719274907E+03   -0.18578E-02   -0.18581E-02  7488   0.851E-01 0.144E-04
CGA:   9    -0.334721582007E+03   -0.23071E-02   -0.23017E-02  7488   0.162E-01 0.643E-03
CGA:  10    -0.334721834670E+03   -0.25266E-03   -0.25304E-03  7488   0.219E-01 0.215E-04
CGA:  11    -0.334722707526E+03   -0.87286E-03   -0.87433E-03  7488   0.309E-01-0.747E-04
CGA:  12    -0.334723197146E+03   -0.48962E-03   -0.49024E-03  7488   0.146E-01 0.505E-04
CGA:  13    -0.334723489058E+03   -0.29191E-03   -0.29220E-03  7488   0.368E-02 0.849E-04
CGA:  14    -0.334723523329E+03   -0.34271E-04   -0.34270E-04  7488   0.177E-02 0.303E-06
CGA:  15    -0.334723761290E+03   -0.23796E-03   -0.11951E-04  7488   0.148E-02-0.171E-04
CGA:  16    -0.334723778225E+03   -0.16935E-04   -0.16940E-04  7488   0.887E-03-0.423E-05
CGA:  17    -0.334723805846E+03   -0.27621E-04   -0.27608E-04  7488   0.155E-02-0.310E-05
CGA:  18    -0.334723835610E+03   -0.29764E-04   -0.29730E-04  7488   0.106E-02-0.431E-05
CGA:  19    -0.334723867265E+03   -0.31655E-04   -0.31618E-04  7488   0.197E-03-0.474E-05
CGA:  20    -0.334723871518E+03   -0.42533E-05   -0.42513E-05  7488   0.468E-03-0.132E-06
CGA:  21    -0.334723895180E+03   -0.23662E-04   -0.23642E-04  7488   0.241E-03 0.121E-05
CGA:  22    -0.334723899460E+03   -0.42794E-05   -0.42843E-05  7488   0.157E-03 0.450E-06
  17 F= -.33472390E+03 E0= -.33468904E+03  d E =-.512446E-03  mag=    32.0000
       N       E                     dE             d eps       ncg     rms          ort
SDA:   1    -0.334714686408E+03    0.92088E-02    0.00000E+00  7488   0.122E+01 0.000E+00
CGA:   2    -0.334722374279E+03   -0.76879E-02   -0.73698E-02  7488   0.528E-01 0.461E-01
CGA:   3    -0.334723354591E+03   -0.98031E-03   -0.96109E-03  7488   0.149E-01 0.458E-03
CGA:   4    -0.334723483896E+03   -0.12930E-03   -0.12872E-03  7488   0.300E-02 0.507E-04
CGA:   5    -0.334723536090E+03   -0.52193E-04   -0.52109E-04  7488   0.330E-02-0.244E-05
CGA:   6    -0.334723642109E+03   -0.10602E-03   -0.10602E-03  7488   0.415E-02-0.433E-05
CGA:   7    -0.334723724590E+03   -0.82481E-04   -0.82423E-04  7488   0.353E-02-0.840E-05
CGA:   8    -0.334723762994E+03   -0.38405E-04   -0.38212E-04  7488   0.143E-02 0.256E-05
CGA:   9    -0.334723860320E+03   -0.97325E-04   -0.98012E-04  7488   0.333E-02-0.178E-04
CGA:  10    -0.334723892992E+03   -0.32672E-04   -0.32629E-04  7488   0.143E-02-0.518E-05
CGA:  11    -0.334723921647E+03   -0.28655E-04   -0.28677E-04  7488   0.253E-03-0.210E-05
CGA:  12    -0.334723924730E+03   -0.30833E-05   -0.30875E-05  7488   0.237E-03 0.296E-06
CGA:  13    -0.334723936145E+03   -0.11414E-04   -0.11347E-04  7488   0.652E-03 0.345E-05
CGA:  14    -0.334723946400E+03   -0.10256E-04   -0.10297E-04  7488   0.206E-03 0.342E-05
CGA:  15    -0.334723950531E+03   -0.41307E-05   -0.41423E-05  7488   0.188E-03 0.124E-05
  18 F= -.33472395E+03 E0= -.33468909E+03  d E =-.563517E-03  mag=    32.0000
       N       E                     dE             d eps       ncg     rms          ort
SDA:   1    -0.325221161326E+03    0.95028E+01    0.00000E+00  7488   0.319E+03 0.000E+00
CGA:   2    -0.333842317669E+03   -0.86212E+01   -0.26565E+01  7488   0.109E+03 0.362E+03
CGA:   3    -0.334650204897E+03   -0.80789E+00   -0.61214E+00  7488   0.701E+01 0.249E+02
CGA:   4    -0.334701441540E+03   -0.51237E-01   -0.42076E-01  7488   0.106E+01 0.163E+01
CGA:   5    -0.334711537641E+03   -0.10096E-01   -0.94659E-02  7488   0.370E+00 0.692E-01
CGA:   6    -0.334714806879E+03   -0.32692E-02   -0.32182E-02  7488   0.180E+00 0.460E-02
CGA:   7    -0.334716479583E+03   -0.16727E-02   -0.16345E-02  7488   0.938E-01 0.285E-02
CGA:   8    -0.334717261403E+03   -0.78182E-03   -0.77368E-03  7488   0.651E-01 0.681E-03
CGA:   9    -0.334718448368E+03   -0.11870E-02   -0.11852E-02  7488   0.154E+00-0.202E-03
CGA:  10    -0.334720244380E+03   -0.17960E-02   -0.18050E-02  7488   0.115E+00-0.343E-03
CGA:  11    -0.334721299840E+03   -0.10555E-02   -0.10587E-02  7488   0.982E-01-0.251E-03
CGA:  12    -0.334722307191E+03   -0.10074E-02   -0.10070E-02  7488   0.446E-01-0.194E-04
CGA:  13    -0.334722576144E+03   -0.26895E-03   -0.26753E-03  7488   0.152E-01 0.166E-03
CGA:  14    -0.334722779744E+03   -0.20360E-03   -0.20302E-03  7488   0.219E-01-0.979E-05
CGA:  15    -0.334722979620E+03   -0.19988E-03   -0.19905E-03  7488   0.106E-01 0.495E-04
CGA:  16    -0.334723078754E+03   -0.99134E-04   -0.99302E-04  7488   0.121E-01-0.359E-05
CGA:  17    -0.334723306054E+03   -0.22730E-03   -0.22727E-03  7488   0.220E-01 0.206E-04
CGA:  18    -0.334723484108E+03   -0.17805E-03   -0.17852E-03  7488   0.931E-02-0.190E-04
CGA:  19    -0.334723560773E+03   -0.76665E-04   -0.76631E-04  7488   0.572E-02 0.824E-05
CGA:  20    -0.334723622334E+03   -0.61561E-04   -0.61574E-04  7488   0.628E-02 0.252E-05
CGA:  21    -0.334723708845E+03   -0.86511E-04   -0.86464E-04  7488   0.724E-02-0.333E-05
CGA:  22    -0.334723765555E+03   -0.56711E-04   -0.56620E-04  7488   0.346E-02 0.827E-05
CGA:  23    -0.334723808381E+03   -0.42825E-04   -0.42824E-04  7488   0.541E-02 0.474E-06
CGA:  24    -0.334723873805E+03   -0.65424E-04   -0.65510E-04  7488   0.301E-02 0.633E-05
CGA:  25    -0.334723890895E+03   -0.17090E-04   -0.17096E-04  7488   0.866E-03-0.141E-07
CGA:  26    -0.334723902292E+03   -0.11397E-04   -0.11395E-04  7488   0.139E-02-0.127E-05
CGA:  27    -0.334723918355E+03   -0.16063E-04   -0.16041E-04  7488   0.110E-02-0.403E-05
CGA:  28    -0.334723930486E+03   -0.12131E-04   -0.12115E-04  7488   0.146E-02-0.364E-05
CGA:  29    -0.334723952783E+03   -0.22298E-04   -0.22301E-04  7488   0.174E-02-0.587E-05
CGA:  30    -0.334723966819E+03   -0.14035E-04   -0.14019E-04  7488   0.102E-02-0.386E-05
CGA:  31    -0.334723978379E+03   -0.11560E-04   -0.11555E-04  7488   0.932E-03-0.253E-05
CGA:  32    -0.334723985962E+03   -0.75834E-05   -0.75722E-05  7488   0.420E-03-0.188E-05
  19 F= -.33472399E+03 E0= -.33468912E+03  d E =-.598948E-03  mag=    32.0000
       N       E                     dE             d eps       ncg     rms          ort
SDA:   1    -0.334689092693E+03    0.34886E-01    0.00000E+00  7488   0.519E+01 0.000E+00
CGA:   2    -0.334721034007E+03   -0.31941E-01   -0.31644E-01  7488   0.169E+00 0.244E-01
CGA:   3    -0.334723628784E+03   -0.25948E-02   -0.25877E-02  7488   0.123E-01 0.222E-02
CGA:   4    -0.334723785340E+03   -0.15656E-03   -0.15660E-03  7488   0.376E-02 0.262E-04
CGA:   5    -0.334723859582E+03   -0.74243E-04   -0.74232E-04  7488   0.290E-02 0.121E-05
CGA:   6    -0.334723912545E+03   -0.52962E-04   -0.52973E-04  7488   0.283E-02-0.155E-05
CGA:   7    -0.334723956515E+03   -0.43970E-04   -0.43978E-04  7488   0.191E-03-0.309E-05
CGA:   8    -0.334723972908E+03   -0.16393E-04   -0.60160E-06  7488   0.877E-03-0.981E-05
CGA:   9    -0.334723984813E+03   -0.11906E-04   -0.11912E-04  7488   0.555E-03 0.441E-06
CGA:  10    -0.334723995599E+03   -0.10786E-04   -0.10795E-04  7488   0.263E-03 0.132E-05
CGA:  11    -0.334723998888E+03   -0.32885E-05   -0.33018E-05  7488   0.752E-04 0.107E-05
  20 F= -.33472400E+03 E0= -.33468913E+03  d E =-.611874E-03  mag=    32.0000
       N       E                     dE             d eps       ncg     rms          ort
SDA:   1    -0.334693510495E+03    0.30485E-01    0.00000E+00  7488   0.465E+01 0.000E+00
CGA:   2    -0.334721797305E+03   -0.28287E-01   -0.29780E-01  7488   0.170E+00-0.202E+00
CGA:   3    -0.334723810406E+03   -0.20131E-02   -0.20048E-02  7488   0.127E-01 0.319E-03
CGA:   4    -0.334723929394E+03   -0.11899E-03   -0.11898E-03  7488   0.262E-02 0.141E-05
CGA:   5    -0.334723968245E+03   -0.38851E-04   -0.38804E-04  7488   0.516E-03-0.146E-07
CGA:   6    -0.334723975986E+03   -0.77411E-05   -0.77438E-05  7488   0.390E-03 0.673E-07
CGA:   7    -0.334723992833E+03   -0.16847E-04   -0.16841E-04  7488   0.595E-03 0.273E-06
CGA:   8    -0.334723999592E+03   -0.67592E-05   -0.67614E-05  7488   0.132E-03 0.108E-06
  21 F= -.33472400E+03 E0= -.33468913E+03  d E =-.612578E-03  mag=    32.0000
       N       E                     dE             d eps       ncg     rms          ort
SDA:   1    -0.334711952070E+03    0.12041E-01    0.00000E+00  7488   0.170E+01 0.000E+00
CGA:   2    -0.334722844286E+03   -0.10892E-01   -0.10708E-01  7488   0.789E-01 0.224E-01
CGA:   3    -0.334723852696E+03   -0.10084E-02   -0.10153E-02  7488   0.398E-02-0.160E-03
CGA:   4    -0.334723908390E+03   -0.55694E-04   -0.55716E-04  7488   0.241E-02 0.652E-06
CGA:   5    -0.334723963902E+03   -0.55512E-04   -0.55498E-04  7488   0.184E-02 0.446E-05
CGA:   6    -0.334723984734E+03   -0.20832E-04   -0.20854E-04  7488   0.632E-03 0.887E-06
CGA:   7    -0.334723999167E+03   -0.14433E-04   -0.14428E-04  7488   0.645E-04 0.181E-05
CGA:   8    -0.334724002561E+03   -0.33940E-05   -0.33678E-05  7488   0.322E-03 0.836E-06
  22 F= -.33472400E+03 E0= -.33468914E+03  d E =-.615547E-03  mag=    32.0000
       N       E                     dE             d eps       ncg     rms          ort
SDA:   1    -0.334706679183E+03    0.17320E-01    0.00000E+00  7488   0.180E+01 0.000E+00
CGA:   2    -0.334721076205E+03   -0.14397E-01   -0.14915E-01  7488   0.308E+00-0.449E-01
CGA:   3    -0.334723965676E+03   -0.28895E-02   -0.27977E-02  7488   0.219E-02 0.599E-02
CGA:   4    -0.334723985548E+03   -0.19872E-04   -0.19887E-04  7488   0.255E-03-0.175E-05
CGA:   5    -0.334723993039E+03   -0.74908E-05   -0.74999E-05  7488   0.537E-03-0.103E-05
CGA:   6    -0.334724001640E+03   -0.86009E-05   -0.85913E-05  7488   0.252E-03-0.227E-05
  23 F= -.33472400E+03 E0= -.33468914E+03  d E =-.614626E-03  mag=    32.0000
       N       E                     dE             d eps       ncg     rms          ort
SDA:   1    -0.334715432125E+03    0.85609E-02    0.00000E+00  7488   0.892E+00 0.000E+00
CGA:   2    -0.334723409017E+03   -0.79769E-02   -0.79029E-02  7488   0.435E-01 0.505E-02
CGA:   3    -0.334723917542E+03   -0.50852E-03   -0.51042E-03  7488   0.472E-02-0.522E-04
CGA:   4    -0.334723957308E+03   -0.39766E-04   -0.39766E-04  7488   0.115E-02-0.137E-05
CGA:   5    -0.334723991231E+03   -0.33924E-04   -0.33934E-04  7488   0.427E-03-0.109E-05
CGA:   6    -0.334724008891E+03   -0.17660E-04   -0.17725E-04  7488   0.397E-04-0.303E-05
CGA:   7    -0.334724009529E+03   -0.63733E-06   -0.63640E-06  7488   0.572E-04-0.200E-06
  24 F= -.33472401E+03 E0= -.33468915E+03  d E =-.622515E-03  mag=    32.0000
       N       E                     dE             d eps       ncg     rms          ort
SDA:   1    -0.334704279244E+03    0.19730E-01    0.00000E+00  7488   0.267E+01 0.000E+00
CGA:   2    -0.334723230863E+03   -0.18952E-01   -0.18467E-01  7488   0.832E-01 0.531E-01
CGA:   3    -0.334723886551E+03   -0.65569E-03   -0.66630E-03  7488   0.754E-02-0.971E-03
CGA:   4    -0.334724003210E+03   -0.11666E-03   -0.11694E-03  7488   0.168E-03 0.809E-05
CGA:   5    -0.334724006521E+03   -0.33108E-05   -0.33106E-05  7488   0.669E-04-0.265E-06
CGA:   6    -0.334724009253E+03   -0.27318E-05   -0.27523E-05  7488   0.257E-03-0.997E-06
  25 F= -.33472401E+03 E0= -.33468914E+03  d E =-.622239E-03  mag=    32.0000
       N       E                     dE             d eps       ncg     rms          ort
SDA:   1    -0.334701551902E+03    0.22455E-01    0.00000E+00  7488   0.309E+00 0.000E+00
CGA:   2    -0.334704110281E+03   -0.25584E-02   -0.25353E-02  7488   0.744E-01 0.187E-02
CGA:   3    -0.334706717307E+03   -0.26070E-02   -0.26039E-02  7488   0.208E+00 0.190E-03
CGA:   4    -0.334714751208E+03   -0.80339E-02   -0.80214E-02  7488   0.276E+00 0.663E-03
CGA:   5    -0.334720309625E+03   -0.55584E-02   -0.55615E-02  7488   0.277E-01 0.328E-03
CGA:   6    -0.334721301415E+03   -0.99179E-03   -0.98563E-03  7488   0.506E-01 0.412E-03
CGA:   7    -0.334722051518E+03   -0.75010E-03   -0.75117E-03  7488   0.369E-01 0.447E-04
CGA:   8    -0.334723432972E+03   -0.13815E-02   -0.13821E-02  7488   0.242E-01-0.244E-04
CGA:   9    -0.334723692125E+03   -0.25915E-03   -0.25873E-03  7488   0.460E-02 0.698E-04
CGA:  10    -0.334724005686E+03   -0.31356E-03   -0.31106E-03  7488   0.124E-01 0.580E-04
CGA:  11    -0.334724144218E+03   -0.13853E-03   -0.13856E-03  7488   0.413E-02 0.239E-04
CGA:  12    -0.334724236624E+03   -0.92406E-04   -0.92399E-04  7488   0.134E-02 0.241E-05
CGA:  13    -0.334724283124E+03   -0.46501E-04   -0.46558E-04  7488   0.293E-02-0.506E-05
CGA:  14    -0.334724344774E+03   -0.61650E-04   -0.61629E-04  7488   0.260E-02-0.651E-05
CGA:  15    -0.334724392658E+03   -0.47884E-04   -0.47841E-04  7488   0.865E-03-0.737E-05
CGA:  16    -0.334724402702E+03   -0.10044E-04   -0.10018E-04  7488   0.255E-03-0.229E-05
CGA:  17    -0.334724429971E+03   -0.27270E-04   -0.28361E-04  7488   0.146E-02-0.124E-04
CGA:  18    -0.334724443035E+03   -0.13064E-04   -0.12971E-04  7488   0.147E-03-0.435E-05
CGA:  19    -0.334724447933E+03   -0.48981E-05   -0.49024E-05  7488   0.147E-03-0.735E-06
  26 F= -.33472445E+03 E0= -.33468958E+03  d E =-.438681E-03  mag=    32.0000
       N       E                     dE             d eps       ncg     rms          ort
SDA:   1    -0.334526264072E+03    0.19818E+00    0.00000E+00  7488   0.120E+02 0.000E+00
CGA:   2    -0.334601778490E+03   -0.75514E-01   -0.75210E-01  7488   0.492E+00-0.278E-01
CGA:   3    -0.334613949103E+03   -0.12171E-01   -0.12192E-01  7488   0.793E+00 0.916E-02
CGA:   4    -0.334649870229E+03   -0.35921E-01   -0.35470E-01  7488   0.102E+01 0.223E-01
CGA:   5    -0.334697100690E+03   -0.47230E-01   -0.47460E-01  7488   0.831E+00-0.117E-01
CGA:   6    -0.334705702323E+03   -0.86016E-02   -0.81956E-02  7488   0.122E+00 0.293E-01
CGA:   7    -0.334707939559E+03   -0.22372E-02   -0.22470E-02  7488   0.174E+00 0.386E-04
CGA:   8    -0.334716296953E+03   -0.83574E-02   -0.83550E-02  7488   0.245E+00 0.114E-03
CGA:   9    -0.334721770630E+03   -0.54737E-02   -0.54689E-02  7488   0.153E-01-0.930E-04
CGA:  10    -0.334722537815E+03   -0.76719E-03   -0.77227E-03  7488   0.322E-01-0.210E-03
CGA:  11    -0.334723367241E+03   -0.82943E-03   -0.82934E-03  7488   0.373E-01-0.165E-04
CGA:  12    -0.334724368380E+03   -0.10011E-02   -0.10015E-02  7488   0.527E-02 0.118E-03
CGA:  13    -0.334724423299E+03   -0.54919E-04   -0.54930E-04  7488   0.358E-02-0.754E-05
CGA:  14    -0.334724801883E+03   -0.37858E-03   -0.38209E-03  7488   0.310E-02-0.424E-04
CGA:  15    -0.334724888063E+03   -0.86180E-04   -0.86204E-04  7488   0.296E-02-0.280E-05
CGA:  16    -0.334724924529E+03   -0.36466E-04   -0.36452E-04  7488   0.168E-02-0.591E-05
CGA:  17    -0.334725001566E+03   -0.77037E-04   -0.77121E-04  7488   0.289E-02-0.504E-05
CGA:  18    -0.334725038161E+03   -0.36595E-04   -0.36545E-04  7488   0.373E-03 0.173E-05
CGA:  19    -0.334725055372E+03   -0.17211E-04   -0.17133E-04  7488   0.997E-03 0.482E-05
CGA:  20    -0.334725078056E+03   -0.22684E-04   -0.22734E-04  7488   0.151E-02 0.648E-05
CGA:  21    -0.334725113281E+03   -0.35225E-04   -0.35304E-04  7488   0.321E-03 0.113E-04
CGA:  22    -0.334725121756E+03   -0.84744E-05   -0.84798E-05  7488   0.181E-03 0.169E-05
  27 F= -.33472512E+03 E0= -.33469025E+03  d E =-.111250E-02  mag=    32.0000
       N       E                     dE             d eps       ncg     rms          ort
SDA:   1    -0.322518059722E+03    0.12207E+02    0.00000E+00  7488   0.166E+03 0.000E+00
CGA:   2    -0.325784801240E+03   -0.32667E+01   -0.10483E+01  7488   0.369E+03 0.443E+03
CGA:   3    -0.334089208830E+03   -0.83044E+01   -0.31032E+01  7488   0.187E+02 0.130E+03
CGA:   4    -0.334219482932E+03   -0.13027E+00   -0.12501E+00  7488   0.454E+01 0.620E+00
CGA:   5    -0.334261293982E+03   -0.41811E-01   -0.37959E-01  7488   0.295E+01 0.365E+00
CGA:   6    -0.334288585689E+03   -0.27292E-01   -0.29433E-01  7488   0.299E+01-0.168E+00
CGA:   7    -0.334338116182E+03   -0.49530E-01   -0.50600E-01  7488   0.724E+01 0.229E-01
CGA:   8    -0.334437769421E+03   -0.99653E-01   -0.96804E-01  7488   0.960E+01 0.763E-01
CGA:   9    -0.334567834161E+03   -0.13006E+00   -0.12402E+00  7488   0.959E+01 0.179E+00
CGA:  10    -0.334627900886E+03   -0.60067E-01   -0.64602E-01  7488   0.212E+01-0.571E+00
CGA:  11    -0.334639586147E+03   -0.11685E-01   -0.11776E-01  7488   0.864E+00-0.140E-01
CGA:  12    -0.334649278658E+03   -0.96925E-02   -0.97890E-02  7488   0.922E+00-0.364E-02
CGA:  13    -0.334657757279E+03   -0.84786E-02   -0.82553E-02  7488   0.762E+00 0.154E-01
CGA:  14    -0.334668862435E+03   -0.11105E-01   -0.11085E-01  7488   0.141E+01-0.161E-03
CGA:  15    -0.334686049957E+03   -0.17188E-01   -0.17403E-01  7488   0.159E+01-0.310E-02
CGA:  16    -0.334700704525E+03   -0.14655E-01   -0.14856E-01  7488   0.104E+01-0.113E-01
CGA:  17    -0.334708027510E+03   -0.73230E-02   -0.74309E-02  7488   0.266E+00-0.101E-01
CGA:  18    -0.334709788006E+03   -0.17605E-02   -0.17450E-02  7488   0.135E+00 0.177E-02
CGA:  19    -0.334711596372E+03   -0.18084E-02   -0.18007E-02  7488   0.171E+00-0.203E-03
CGA:  20    -0.334713234326E+03   -0.16380E-02   -0.16392E-02  7488   0.148E+00 0.176E-04
CGA:  21    -0.334715396011E+03   -0.21617E-02   -0.21601E-02  7488   0.258E+00-0.145E-03
CGA:  22    -0.334718012616E+03   -0.26166E-02   -0.26212E-02  7488   0.141E+00-0.191E-04
CGA:  23    -0.334719028972E+03   -0.10164E-02   -0.10118E-02  7488   0.699E-01 0.449E-03
CGA:  24    -0.334719669291E+03   -0.64032E-03   -0.64092E-03  7488   0.487E-01-0.137E-04
CGA:  25    -0.334720187360E+03   -0.51807E-03   -0.51921E-03  7488   0.594E-01 0.803E-05
CGA:  26    -0.334721068016E+03   -0.88066E-03   -0.88096E-03  7488   0.771E-01 0.176E-03
CGA:  27    -0.334721740307E+03   -0.67229E-03   -0.67142E-03  7488   0.536E-01 0.376E-04
CGA:  28    -0.334722391221E+03   -0.65091E-03   -0.65018E-03  7488   0.531E-01-0.581E-04
CGA:  29    -0.334722763113E+03   -0.37189E-03   -0.37324E-03  7488   0.148E-01-0.117E-03
CGA:  30    -0.334722879125E+03   -0.11601E-03   -0.11602E-03  7488   0.115E-01-0.773E-05
CGA:  31    -0.334723059063E+03   -0.17994E-03   -0.17994E-03  7488   0.197E-01-0.944E-05
CGA:  32    -0.334723308073E+03   -0.24901E-03   -0.24891E-03  7488   0.274E-01-0.383E-04
SDA:  33    -0.334723658398E+03   -0.35033E-03   -0.35024E-03  7488   0.269E-01-0.468E-04
CGA:  34    -0.334723854730E+03   -0.19633E-03   -0.19654E-03  7488   0.386E-02-0.125E-04
CGA:  35    -0.334723918417E+03   -0.63687E-04   -0.63722E-04  7488   0.185E-02-0.916E-05
CGA:  36    -0.334724070745E+03   -0.15233E-03   -0.37787E-05  7488   0.126E-01-0.179E-03
CGA:  37    -0.334724303087E+03   -0.23234E-03   -0.23229E-03  7488   0.225E-02-0.657E-05
CGA:  38    -0.334724348629E+03   -0.45542E-04   -0.45532E-04  7488   0.298E-02-0.197E-05
CGA:  39    -0.334724431177E+03   -0.82548E-04   -0.82562E-04  7488   0.260E-02-0.514E-05
CGA:  40    -0.334724516586E+03   -0.85409E-04   -0.85471E-04  7488   0.429E-02-0.802E-05
CGA:  41    -0.334724570725E+03   -0.54139E-04   -0.54098E-04  7488   0.691E-03-0.475E-05
CGA:  42    -0.334724585328E+03   -0.14603E-04   -0.14597E-04  7488   0.107E-02-0.169E-05
CGA:  43    -0.334724625323E+03   -0.39995E-04   -0.40051E-04  7488   0.239E-02-0.434E-05
CGA:  44    -0.334724706005E+03   -0.80681E-04   -0.80755E-04  7488   0.177E-02-0.844E-05
CGA:  45    -0.334724723262E+03   -0.17257E-04   -0.17285E-04  7488   0.302E-03-0.374E-05
CGA:  46    -0.334724738326E+03   -0.15064E-04   -0.14956E-04  7488   0.889E-03 0.423E-05
CGA:  47    -0.334724758016E+03   -0.19690E-04   -0.19719E-04  7488   0.896E-03 0.635E-05
CGA:  48    -0.334724786353E+03   -0.28337E-04   -0.28288E-04  7488   0.378E-03 0.974E-05
CGA:  49    -0.334724790595E+03   -0.42416E-05   -0.42691E-05  7488   0.186E-03 0.188E-05
CGA:  50    -0.334724803464E+03   -0.12869E-04   -0.12552E-04  7488   0.672E-03 0.747E-05
CGA:  51    -0.334724812724E+03   -0.92599E-05   -0.93308E-05  7488   0.175E-03 0.474E-05
  28 F= -.33472481E+03 E0= -.33468994E+03  d E =-.803471E-03  mag=    32.0000
       N       E                     dE             d eps       ncg     rms          ort
SDA:   1    -0.334491819996E+03    0.23298E+00    0.00000E+00  7488   0.458E+01 0.000E+00
CGA:   2    -0.334522703734E+03   -0.30884E-01   -0.32203E-01  7488   0.716E+00-0.162E+00
CGA:   3    -0.334562394463E+03   -0.39691E-01   -0.39259E-01  7488   0.200E+01 0.147E-01
CGA:   4    -0.334633792235E+03   -0.71398E-01   -0.71155E-01  7488   0.373E+01 0.230E-01
CGA:   5    -0.334679645158E+03   -0.45853E-01   -0.43823E-01  7488   0.331E+00 0.109E+00
CGA:   6    -0.334688560383E+03   -0.89152E-02   -0.89147E-02  7488   0.520E+00-0.550E-03
CGA:   7    -0.334701508220E+03   -0.12948E-01   -0.12939E-01  7488   0.456E+00-0.219E-02
CGA:   8    -0.334710716577E+03   -0.92084E-02   -0.92369E-02  7488   0.374E+00 0.780E-03
CGA:   9    -0.334715399951E+03   -0.46834E-02   -0.47431E-02  7488   0.658E-01-0.267E-02
CGA:  10    -0.334719097942E+03   -0.36980E-02   -0.36780E-02  7488   0.167E+00 0.681E-03
CGA:  11    -0.334721426574E+03   -0.23286E-02   -0.23266E-02  7488   0.804E-01-0.378E-04
CGA:  12    -0.334722707255E+03   -0.12807E-02   -0.12770E-02  7488   0.110E-01 0.171E-04
CGA:  13    -0.334723139272E+03   -0.43202E-03   -0.43211E-03  7488   0.404E-01-0.618E-05
CGA:  14    -0.334724155758E+03   -0.10165E-02   -0.10166E-02  7488   0.204E-01 0.464E-04
CGA:  15    -0.334724517713E+03   -0.36195E-03   -0.36130E-03  7488   0.934E-02 0.143E-04
CGA:  16    -0.334724645538E+03   -0.12783E-03   -0.12807E-03  7488   0.326E-02 0.304E-05
CGA:  17    -0.334724743911E+03   -0.98372E-04   -0.98361E-04  7488   0.675E-02 0.477E-05
CGA:  18    -0.334724896757E+03   -0.15285E-03   -0.15292E-03  7488   0.565E-02 0.196E-04
CGA:  19    -0.334725051712E+03   -0.15496E-03   -0.15492E-03  7488   0.173E-02 0.188E-04
CGA:  20    -0.334725072316E+03   -0.20604E-04   -0.20634E-04  7488   0.128E-02 0.130E-05
CGA:  21    -0.334725160706E+03   -0.88390E-04   -0.88375E-04  7488   0.191E-02 0.200E-06
CGA:  22    -0.334725192718E+03   -0.32012E-04   -0.32025E-04  7488   0.108E-02-0.559E-06
CGA:  23    -0.334725205981E+03   -0.13262E-04   -0.13240E-04  7488   0.389E-03-0.562E-06
CGA:  24    -0.334725232914E+03   -0.26933E-04   -0.27104E-04  7488   0.156E-02-0.384E-05
CGA:  25    -0.334725259381E+03   -0.26467E-04   -0.26414E-04  7488   0.710E-03-0.431E-05
CGA:  26    -0.334725272357E+03   -0.12975E-04   -0.12956E-04  7488   0.395E-03-0.171E-05
CGA:  27    -0.334725277659E+03   -0.53024E-05   -0.52957E-05  7488   0.183E-03-0.315E-06
CGA:  28    -0.334725291099E+03   -0.13440E-04   -0.13333E-04  7488   0.548E-03 0.233E-05
CGA:  29    -0.334725298614E+03   -0.75154E-05   -0.75363E-05  7488   0.267E-03 0.108E-05
  29 F= -.33472530E+03 E0= -.33469043E+03  d E =-.128936E-02  mag=    32.0000
       N       E                     dE             d eps       ncg     rms          ort
SDA:   1    -0.334293171236E+03    0.43212E+00    0.00000E+00  7488   0.663E+02 0.000E+00
CGA:   2    -0.334708728879E+03   -0.41556E+00   -0.43411E+00  7488   0.134E+01-0.494E+01
CGA:   3    -0.334717540191E+03   -0.88113E-02   -0.93070E-02  7488   0.267E-01-0.537E-01
CGA:   4    -0.334718394489E+03   -0.85430E-03   -0.85426E-03  7488   0.867E-01-0.911E-05
CGA:   5    -0.334721135270E+03   -0.27408E-02   -0.27429E-02  7488   0.621E-01-0.301E-03
CGA:   6    -0.334722344467E+03   -0.12092E-02   -0.12075E-02  7488   0.472E-01-0.103E-03
CGA:   7    -0.334723133799E+03   -0.78933E-03   -0.78644E-03  7488   0.223E-01-0.245E-04
CGA:   8    -0.334723728206E+03   -0.59441E-03   -0.59449E-03  7488   0.408E-01-0.398E-04
CGA:   9    -0.334724644787E+03   -0.91658E-03   -0.91702E-03  7488   0.608E-02 0.541E-04
CGA:  10    -0.334724721263E+03   -0.76476E-04   -0.76480E-04  7488   0.437E-02 0.838E-05
CGA:  11    -0.334724913874E+03   -0.19261E-03   -0.19167E-03  7488   0.858E-02 0.485E-04
CGA:  12    -0.334725127856E+03   -0.21398E-03   -0.21402E-03  7488   0.591E-02 0.398E-04
CGA:  13    -0.334725191827E+03   -0.63972E-04   -0.64243E-04  7488   0.922E-03 0.864E-05
CGA:  14    -0.334725209306E+03   -0.17478E-04   -0.17487E-04  7488   0.900E-03 0.190E-05
CGA:  15    -0.334725232889E+03   -0.23584E-04   -0.23581E-04  7488   0.848E-03 0.155E-05
CGA:  16    -0.334725258074E+03   -0.25185E-04   -0.25195E-04  7488   0.138E-02-0.191E-05
CGA:  17    -0.334725276978E+03   -0.18904E-04   -0.18875E-04  7488   0.143E-03-0.146E-05
CGA:  18    -0.334725280787E+03   -0.38091E-05   -0.38130E-05  7488   0.332E-03-0.161E-05
CGA:  19    -0.334725293053E+03   -0.12265E-04   -0.12343E-04  7488   0.351E-03-0.588E-05
CGA:  20    -0.334725297762E+03   -0.47095E-05   -0.46811E-05  7488   0.910E-04-0.237E-05
  30 F= -.33472530E+03 E0= -.33469043E+03  d E =-.128851E-02  mag=    32.0000
       N       E                     dE             d eps       ncg     rms          ort
SDA:   1    -0.334717680197E+03    0.76129E-02    0.00000E+00  7488   0.101E+01 0.000E+00
CGA:   2    -0.334723652316E+03   -0.59721E-02   -0.60810E-02  7488   0.156E-01-0.155E-01
CGA:   3    -0.334723912857E+03   -0.26054E-03   -0.26002E-03  7488   0.516E-02-0.628E-06
CGA:   4    -0.334724123278E+03   -0.21042E-03   -0.20954E-03  7488   0.215E-01 0.484E-04
CGA:   5    -0.334724756445E+03   -0.63317E-03   -0.63246E-03  7488   0.940E-02 0.121E-03
CGA:   6    -0.334724919891E+03   -0.16345E-03   -0.16344E-03  7488   0.608E-02 0.193E-04
CGA:   7    -0.334725035811E+03   -0.11592E-03   -0.11583E-03  7488   0.296E-02 0.634E-06
CGA:   8    -0.334725117616E+03   -0.81805E-04   -0.81809E-04  7488   0.631E-02-0.199E-05
CGA:   9    -0.334725240584E+03   -0.12297E-03   -0.12292E-03  7488   0.594E-03-0.117E-04
CGA:  10    -0.334725254001E+03   -0.13417E-04   -0.13413E-04  7488   0.687E-03-0.473E-05
CGA:  11    -0.334725267616E+03   -0.13614E-04   -0.13586E-04  7488   0.866E-03-0.796E-05
CGA:  12    -0.334725299483E+03   -0.31867E-04   -0.32178E-04  7488   0.392E-03-0.216E-04
CGA:  13    -0.334725306261E+03   -0.67778E-05   -0.67534E-05  7488   0.242E-03-0.414E-05
  31 F= -.33472531E+03 E0= -.33469044E+03  d E =-.129701E-02  mag=    32.0000
       N       E                     dE             d eps       ncg     rms          ort
SDA:   1    -0.331342763253E+03    0.33825E+01    0.00000E+00  7488   0.404E+03 0.000E+00
CGA:   2    -0.334572652260E+03   -0.32299E+01   -0.31629E+01  7488   0.255E+02-0.118E+03
CGA:   3    -0.334721856051E+03   -0.14920E+00   -0.15633E+00  7488   0.196E+00-0.652E+00
CGA:   4    -0.334723567352E+03   -0.17113E-02   -0.16796E-02  7488   0.227E-01 0.235E-02
CGA:   5    -0.334723910190E+03   -0.34284E-03   -0.34318E-03  7488   0.123E-01 0.875E-06
CGA:   6    -0.334724178278E+03   -0.26809E-03   -0.26815E-03  7488   0.162E-01-0.327E-04
CGA:   7    -0.334724752827E+03   -0.57455E-03   -0.57517E-03  7488   0.112E-01-0.409E-04
CGA:   8    -0.334724957872E+03   -0.20504E-03   -0.20513E-03  7488   0.747E-02-0.940E-07
CGA:   9    -0.334725040976E+03   -0.83104E-04   -0.83212E-04  7488   0.149E-02-0.107E-04
CGA:  10    -0.334725138205E+03   -0.97229E-04   -0.97465E-04  7488   0.507E-02-0.532E-05
CGA:  11    -0.334725203435E+03   -0.65230E-04   -0.65194E-04  7488   0.111E-02-0.106E-05
CGA:  12    -0.334725224440E+03   -0.21005E-04   -0.21008E-04  7488   0.975E-03 0.523E-06
CGA:  13    -0.334725244336E+03   -0.19896E-04   -0.19902E-04  7488   0.764E-03 0.230E-05
CGA:  14    -0.334725276717E+03   -0.32381E-04   -0.32326E-04  7488   0.109E-02 0.274E-05
CGA:  15    -0.334725289428E+03   -0.12711E-04   -0.12725E-04  7488   0.324E-03 0.119E-05
CGA:  16    -0.334725294698E+03   -0.52694E-05   -0.52678E-05  7488   0.988E-04 0.915E-07
  32 F= -.33472529E+03 E0= -.33469043E+03  d E =-.128544E-02  mag=    32.0000
       N       E                     dE             d eps       ncg     rms          ort
SDA:   1    -0.334612916139E+03    0.11237E+00    0.00000E+00  7488   0.193E+02 0.000E+00
CGA:   2    -0.334721248399E+03   -0.10833E+00   -0.12880E+00  7488   0.572E+00-0.259E+01
CGA:   3    -0.334724887268E+03   -0.36389E-02   -0.35983E-02  7488   0.129E-01 0.421E-02
CGA:   4    -0.334725074475E+03   -0.18721E-03   -0.18686E-03  7488   0.130E-02 0.581E-05
CGA:   5    -0.334725117199E+03   -0.42724E-04   -0.42671E-04  7488   0.262E-02 0.507E-05
CGA:   6    -0.334725172549E+03   -0.55350E-04   -0.55365E-04  7488   0.209E-02 0.117E-04
CGA:   7    -0.334725210748E+03   -0.38199E-04   -0.38241E-04  7488   0.162E-02 0.950E-05
CGA:   8    -0.334725237886E+03   -0.27138E-04   -0.27200E-04  7488   0.535E-03 0.804E-05
CGA:   9    -0.334725290243E+03   -0.52358E-04   -0.51327E-04  7488   0.550E-03 0.143E-04
CGA:  10    -0.334725296049E+03   -0.58053E-05   -0.58220E-05  7488   0.197E-03 0.939E-06
  33 F= -.33472530E+03 E0= -.33469042E+03  d E =-.128680E-02  mag=    32.0000
       N       E                     dE             d eps       ncg     rms          ort
SDA:   1    -0.334712093711E+03    0.13197E-01    0.00000E+00  7488   0.167E+01 0.000E+00
CGA:   2    -0.334723908429E+03   -0.11815E-01   -0.11513E-01  7488   0.118E+00 0.341E-01
CGA:   3    -0.334725120828E+03   -0.12124E-02   -0.12134E-02  7488   0.103E-01-0.692E-04
CGA:   4    -0.334725225094E+03   -0.10427E-03   -0.10422E-03  7488   0.907E-03-0.520E-06
CGA:   5    -0.334725256177E+03   -0.31082E-04   -0.31152E-04  7488   0.167E-02-0.576E-05
CGA:   6    -0.334725275260E+03   -0.19083E-04   -0.19035E-04  7488   0.558E-03-0.421E-05
CGA:   7    -0.334725292269E+03   -0.17009E-04   -0.17046E-04  7488   0.130E-03-0.474E-05
CGA:   8    -0.334725297110E+03   -0.48401E-05   -0.48903E-05  7488   0.501E-03-0.329E-05
CGA:   9    -0.334725307583E+03   -0.10473E-04   -0.10459E-04  7488   0.249E-03-0.704E-05
CGA:  10    -0.334725312529E+03   -0.49463E-05   -0.49361E-05  7488   0.571E-04-0.331E-05
  34 F= -.33472531E+03 E0= -.33469044E+03  d E =-.130328E-02  mag=    32.0000
       N       E                     dE             d eps       ncg     rms          ort
SDA:   1    -0.334720443828E+03    0.48638E-02    0.00000E+00  7488   0.765E+00 0.000E+00
CGA:   2    -0.334725098270E+03   -0.46544E-02   -0.46173E-02  7488   0.161E-01 0.483E-02
CGA:   3    -0.334725290978E+03   -0.19271E-03   -0.19262E-03  7488   0.114E-02 0.451E-05
CGA:   4    -0.334725302530E+03   -0.11552E-04   -0.11564E-04  7488   0.155E-03 0.999E-06
CGA:   5    -0.334725308227E+03   -0.56969E-05   -0.56505E-05  7488   0.295E-03 0.295E-05
CGA:   6    -0.334725311735E+03   -0.35085E-05   -0.35319E-05  7488   0.976E-04 0.241E-05
  35 F= -.33472531E+03 E0= -.33469045E+03  d E =-.130248E-02  mag=    32.0000
       N       E                     dE             d eps       ncg     rms          ort
SDA:   1    -0.334725000842E+03    0.30738E-03    0.00000E+00  7488   0.211E-01 0.000E+00
CGA:   2    -0.334725216289E+03   -0.21545E-03   -0.21557E-03  7488   0.569E-02-0.929E-05
CGA:   3    -0.334725282811E+03   -0.66523E-04   -0.66708E-04  7488   0.102E-02-0.647E-05
CGA:   4    -0.334725295424E+03   -0.12613E-04   -0.12607E-04  7488   0.442E-03-0.123E-05
CGA:   5    -0.334725312411E+03   -0.16986E-04   -0.17070E-04  7488   0.180E-03-0.446E-05
CGA:   6    -0.334725315539E+03   -0.31285E-05   -0.31250E-05  7488   0.209E-04-0.104E-05
  36 F= -.33472532E+03 E0= -.33469044E+03  d E =-.130629E-02  mag=    32.0000
       N       E                     dE             d eps       ncg     rms          ort
SDA:   1    -0.334716580657E+03    0.87318E-02    0.00000E+00  7488   0.149E+01 0.000E+00
CGA:   2    -0.334725240116E+03   -0.86595E-02   -0.87893E-02  7488   0.529E-02-0.183E-01
CGA:   3    -0.334725308664E+03   -0.68548E-04   -0.68548E-04  7488   0.490E-03 0.566E-06
CGA:   4    -0.334725312544E+03   -0.38808E-05   -0.38870E-05  7488   0.793E-04 0.512E-06
CGA:   5    -0.334725314441E+03   -0.18965E-05   -0.18910E-05  7488   0.571E-04 0.118E-05
CGA:   6    -0.334725315889E+03   -0.14486E-05   -0.14389E-05  7488   0.732E-04 0.173E-05
  37 F= -.33472532E+03 E0= -.33469044E+03  d E =-.130664E-02  mag=    32.0000
       N       E                     dE             d eps       ncg     rms          ort
SDA:   1    -0.334717416895E+03    0.78975E-02    0.00000E+00  7488   0.787E+00 0.000E+00
CGA:   2    -0.334722111209E+03   -0.46943E-02   -0.46352E-02  7488   0.127E-01 0.772E-02
CGA:   3    -0.334722493774E+03   -0.38257E-03   -0.38366E-03  7488   0.169E-01-0.916E-04
CGA:   4    -0.334723449919E+03   -0.95614E-03   -0.95979E-03  7488   0.778E-01-0.913E-04
CGA:   5    -0.334724639363E+03   -0.11894E-02   -0.11872E-02  7488   0.142E-01-0.170E-03
CGA:   6    -0.334724785650E+03   -0.14629E-03   -0.14651E-03  7488   0.425E-02-0.239E-04
CGA:   7    -0.334725145280E+03   -0.35963E-03   -0.35766E-03  7488   0.531E-02 0.239E-04
CGA:   8    -0.334725205892E+03   -0.60612E-04   -0.60729E-04  7488   0.317E-02 0.136E-04
CGA:   9    -0.334725270078E+03   -0.64186E-04   -0.64202E-04  7488   0.128E-02 0.140E-04
CGA:  10    -0.334725350630E+03   -0.80551E-04   -0.79315E-04  7488   0.270E-02 0.320E-04
CGA:  11    -0.334725387121E+03   -0.36491E-04   -0.36660E-04  7488   0.551E-03 0.120E-04
CGA:  12    -0.334725393933E+03   -0.68128E-05   -0.68316E-05  7488   0.267E-03 0.128E-05
  38 F= -.33472539E+03 E0= -.33469053E+03  d E =-.780440E-04  mag=    32.0000
       N       E                     dE             d eps       ncg     rms          ort
SDA:   1    -0.334662769866E+03    0.62617E-01    0.00000E+00  7488   0.473E+01 0.000E+00
CGA:   2    -0.334700127446E+03   -0.37358E-01   -0.34838E-01  7488   0.433E+00 0.257E+00
CGA:   3    -0.334705180897E+03   -0.50535E-02   -0.50440E-02  7488   0.102E+00 0.308E-03
CGA:   4    -0.334706934922E+03   -0.17540E-02   -0.17599E-02  7488   0.939E-01 0.198E-03
CGA:   5    -0.334715956172E+03   -0.90212E-02   -0.90570E-02  7488   0.479E+00-0.497E-03
CGA:   6    -0.334720492596E+03   -0.45364E-02   -0.45610E-02  7488   0.694E-01-0.222E-02
CGA:   7    -0.334721899515E+03   -0.14069E-02   -0.14000E-02  7488   0.451E-01-0.416E-03
CGA:   8    -0.334722690375E+03   -0.79086E-03   -0.79065E-03  7488   0.369E-01 0.886E-05
CGA:   9    -0.334723918883E+03   -0.12285E-02   -0.12281E-02  7488   0.501E-01 0.565E-04
CGA:  10    -0.334724440269E+03   -0.52139E-03   -0.52340E-03  7488   0.132E-01-0.567E-04
CGA:  11    -0.334724748740E+03   -0.30847E-03   -0.30849E-03  7488   0.849E-02 0.311E-04
CGA:  12    -0.334725023220E+03   -0.27448E-03   -0.27413E-03  7488   0.194E-01 0.424E-04
CGA:  13    -0.334725394510E+03   -0.37129E-03   -0.37166E-03  7488   0.599E-02 0.591E-04
CGA:  14    -0.334725448062E+03   -0.53552E-04   -0.53789E-04  7488   0.138E-02-0.302E-05
CGA:  15    -0.334725491708E+03   -0.43646E-04   -0.43611E-04  7488   0.128E-02 0.339E-05
CGA:  16    -0.334725547538E+03   -0.55829E-04   -0.55951E-04  7488   0.415E-02-0.612E-05
CGA:  17    -0.334725619288E+03   -0.71751E-04   -0.71701E-04  7488   0.171E-02-0.764E-05
CGA:  18    -0.334725641050E+03   -0.21762E-04   -0.21700E-04  7488   0.585E-03-0.256E-05
CGA:  19    -0.334725649723E+03   -0.86726E-05   -0.86559E-05  7488   0.212E-03-0.175E-05
CGA:  20    -0.334725666078E+03   -0.16355E-04   -0.16649E-04  7488   0.104E-02-0.531E-05
CGA:  21    -0.334725677161E+03   -0.11083E-04   -0.11027E-04  7488   0.192E-03-0.347E-05
CGA:  22    -0.334725680940E+03   -0.37792E-05   -0.37732E-05  7488   0.211E-03-0.103E-05
  39 F= -.33472568E+03 E0= -.33469081E+03  d E =-.365051E-03  mag=    32.0000
       N       E                     dE             d eps       ncg     rms          ort
SDA:   1    -0.334607127120E+03    0.11855E+00    0.00000E+00  7488   0.306E+01 0.000E+00
CGA:   2    -0.334637095580E+03   -0.29968E-01   -0.30560E-01  7488   0.929E+00-0.428E-01
CGA:   3    -0.334647432830E+03   -0.10337E-01   -0.97772E-02  7488   0.245E+00 0.316E-01
CGA:   4    -0.334674474705E+03   -0.27042E-01   -0.27645E-01  7488   0.201E+01-0.896E-02
CGA:   5    -0.334699898639E+03   -0.25424E-01   -0.25365E-01  7488   0.751E+00 0.131E-02
CGA:   6    -0.334709637956E+03   -0.97393E-02   -0.99790E-02  7488   0.317E+00-0.963E-02
CGA:   7    -0.334713659899E+03   -0.40219E-02   -0.41482E-02  7488   0.931E-01-0.472E-02
CGA:   8    -0.334715097064E+03   -0.14372E-02   -0.14448E-02  7488   0.135E+00-0.610E-04
[...]
CGA:  17    -0.334729884335E+03   -0.12731E-03   -0.12748E-03  7488   0.358E-03-0.838E-05
CGA:  18    -0.334729893218E+03   -0.88828E-05   -0.88827E-05  7488   0.736E-03-0.708E-06
CGA:  19    -0.334729913328E+03   -0.20110E-04   -0.20113E-04  7488   0.739E-03-0.143E-05
CGA:  20    -0.334729925096E+03   -0.11768E-04   -0.11753E-04  7488   0.358E-03-0.145E-05
CGA:  21    -0.334729932599E+03   -0.75032E-05   -0.74975E-05  7488   0.945E-04-0.120E-05
  75 F= -.33472993E+03 E0= -.33469520E+03  d E =-.233284E-03  mag=    32.0000
       N       E                     dE             d eps       ncg     rms          ort
SDA:   1    -0.334677529844E+03    0.52395E-01    0.00000E+00  7488   0.436E+01 0.000E+00
CGA:   2    -0.334714525593E+03   -0.36996E-01   -0.39102E-01  7488   0.387E+00-0.184E+00
CGA:   3    -0.334718281939E+03   -0.37563E-02   -0.36364E-02  7488   0.800E-01 0.834E-02
CGA:   4    -0.334719317716E+03   -0.10358E-02   -0.10386E-02  7488   0.463E-01-0.174E-03
CGA:   5    -0.334724635245E+03   -0.53175E-02   -0.53800E-02  7488   0.140E+00-0.727E-03
CGA:   6    -0.334726426777E+03   -0.17915E-02   -0.17794E-02  7488   0.796E-01 0.317E-03
CGA:   7    -0.334727596681E+03   -0.11699E-02   -0.11849E-02  7488   0.246E-01-0.535E-03
CGA:   8    -0.334728069076E+03   -0.47240E-03   -0.47299E-03  7488   0.237E-01 0.132E-04
CGA:   9    -0.334729285189E+03   -0.12161E-02   -0.12169E-02  7488   0.181E-01-0.282E-04
CGA:  10    -0.334729509715E+03   -0.22453E-03   -0.22542E-03  7488   0.926E-02 0.925E-05
CGA:  11    -0.334729659738E+03   -0.15002E-03   -0.15016E-03  7488   0.669E-02 0.329E-04
CGA:  12    -0.334729963469E+03   -0.30373E-03   -0.30185E-03  7488   0.927E-02 0.102E-03
CGA:  13    -0.334730102042E+03   -0.13857E-03   -0.13918E-03  7488   0.181E-02 0.337E-04
CGA:  14    -0.334730141425E+03   -0.39383E-04   -0.39405E-04  7488   0.175E-02 0.760E-05
CGA:  15    -0.334730165091E+03   -0.23666E-04   -0.23715E-04  7488   0.114E-02 0.444E-05
CGA:  16    -0.334730240399E+03   -0.75309E-04   -0.75080E-04  7488   0.268E-02 0.579E-05
CGA:  17    -0.334730277610E+03   -0.37211E-04   -0.37278E-04  7488   0.234E-03 0.379E-06
CGA:  18    -0.334730284189E+03   -0.65783E-05   -0.65790E-05  7488   0.525E-03-0.124E-05
CGA:  19    -0.334730298065E+03   -0.13876E-04   -0.13871E-04  7488   0.763E-03-0.443E-05
CGA:  20    -0.334730313819E+03   -0.15754E-04   -0.15722E-04  7488   0.229E-03-0.504E-05
CGA:  21    -0.334730317317E+03   -0.34987E-05   -0.34827E-05  7488   0.104E-03-0.112E-05
  76 F= -.33473032E+03 E0= -.33469558E+03  d E =-.384718E-03  mag=    32.0000
       N       E                     dE             d eps       ncg     rms          ort
SDA:   1    -0.334682367373E+03    0.47946E-01    0.00000E+00  7488   0.719E+01 0.000E+00
CGA:   2    -0.334727207004E+03   -0.44840E-01   -0.41267E-01  7488   0.172E+00 0.525E+00
CGA:   3    -0.334729238118E+03   -0.20311E-02   -0.19731E-02  7488   0.698E-01 0.369E-02
CGA:   4    -0.334729990616E+03   -0.75250E-03   -0.74208E-03  7488   0.141E-01 0.670E-03
CGA:   5    -0.334730107884E+03   -0.11727E-03   -0.11649E-03  7488   0.133E-02 0.614E-04
CGA:   6    -0.334730127887E+03   -0.20003E-04   -0.19943E-04  7488   0.211E-02-0.544E-05
CGA:   7    -0.334730214003E+03   -0.86116E-04   -0.86623E-04  7488   0.245E-02-0.302E-04
CGA:   8    -0.334730244900E+03   -0.30897E-04   -0.30748E-04  7488   0.240E-02-0.125E-04
CGA:   9    -0.334730291142E+03   -0.46242E-04   -0.46091E-04  7488   0.891E-03-0.215E-04
CGA:  10    -0.334730304778E+03   -0.13636E-04   -0.13594E-04  7488   0.121E-02-0.421E-05
CGA:  11    -0.334730330037E+03   -0.25258E-04   -0.25245E-04  7488   0.995E-03-0.527E-05
CGA:  12    -0.334730353231E+03   -0.23195E-04   -0.23194E-04  7488   0.117E-02-0.192E-05
CGA:  13    -0.334730362990E+03   -0.97583E-05   -0.97517E-05  7488   0.149E-03-0.434E-07
  77 F= -.33473036E+03 E0= -.33469563E+03  d E =-.430390E-03  mag=    32.0000
       N       E                     dE             d eps       ncg     rms          ort
SDA:   1    -0.334664671347E+03    0.65682E-01    0.00000E+00  7488   0.972E+01 0.000E+00
CGA:   2    -0.334726202483E+03   -0.61531E-01   -0.55552E-01  7488   0.191E+00 0.844E+00
CGA:   3    -0.334727760225E+03   -0.15577E-02   -0.15313E-02  7488   0.232E-01 0.267E-02
CGA:   4    -0.334728023318E+03   -0.26309E-03   -0.26314E-03  7488   0.149E-01-0.150E-04
CGA:   5    -0.334728414895E+03   -0.39158E-03   -0.39252E-03  7488   0.181E-01-0.132E-03
CGA:   6    -0.334728920272E+03   -0.50538E-03   -0.50571E-03  7488   0.477E-01-0.490E-04
CGA:   7    -0.334729702712E+03   -0.78244E-03   -0.78248E-03  7488   0.135E-01-0.595E-04
CGA:   8    -0.334729910290E+03   -0.20758E-03   -0.20774E-03  7488   0.964E-02-0.812E-05
CGA:   9    -0.334730036642E+03   -0.12635E-03   -0.12627E-03  7488   0.690E-02-0.129E-05
CGA:  10    -0.334730248965E+03   -0.21232E-03   -0.21210E-03  7488   0.990E-02 0.205E-04
CGA:  11    -0.334730378649E+03   -0.12968E-03   -0.12985E-03  7488   0.279E-02 0.116E-04
CGA:  12    -0.334730403860E+03   -0.25211E-04   -0.25244E-04  7488   0.110E-02 0.597E-05
CGA:  13    -0.334730497724E+03   -0.93864E-04   -0.91528E-04  7488   0.522E-02 0.372E-04
CGA:  14    -0.334730549658E+03   -0.51934E-04   -0.52226E-04  7488   0.886E-03 0.171E-04
CGA:  15    -0.334730562379E+03   -0.12721E-04   -0.12753E-04  7488   0.356E-03 0.460E-05
CGA:  16    -0.334730568907E+03   -0.65275E-05   -0.65330E-05  7488   0.251E-03 0.176E-05
  78 F= -.33473057E+03 E0= -.33469584E+03  d E =-.205917E-03  mag=    32.0000
       N       E                     dE             d eps       ncg     rms          ort
SDA:   1    -0.329823842534E+03    0.49067E+01    0.00000E+00  7488   0.491E+03 0.000E+00
CGA:   2    -0.334455766736E+03   -0.46319E+01   -0.40250E+01  7488   0.463E+02-0.158E+03
CGA:   3    -0.334714433623E+03   -0.25867E+00   -0.28638E+00  7488   0.171E+01-0.210E+01
CGA:   4    -0.334727621258E+03   -0.13188E-01   -0.13434E-01  7488   0.141E+00-0.202E-01
CGA:   5    -0.334728599656E+03   -0.97840E-03   -0.96390E-03  7488   0.171E-01 0.153E-02
CGA:   6    -0.334729002310E+03   -0.40265E-03   -0.40345E-03  7488   0.209E-01-0.138E-03
CGA:   7    -0.334729336836E+03   -0.33453E-03   -0.33446E-03  7488   0.237E-01-0.100E-04
CGA:   8    -0.334729919485E+03   -0.58265E-03   -0.58282E-03  7488   0.252E-01-0.279E-04
CGA:   9    -0.334730295488E+03   -0.37600E-03   -0.37640E-03  7488   0.820E-02 0.763E-05
CGA:  10    -0.334730362958E+03   -0.67470E-04   -0.67606E-04  7488   0.192E-02-0.109E-04
CGA:  11    -0.334730402007E+03   -0.39049E-04   -0.39045E-04  7488   0.176E-02 0.252E-05
CGA:  12    -0.334730450795E+03   -0.48788E-04   -0.48759E-04  7488   0.439E-02 0.351E-05
CGA:  13    -0.334730531347E+03   -0.80552E-04   -0.80562E-04  7488   0.187E-02 0.926E-05
CGA:  14    -0.334730554564E+03   -0.23217E-04   -0.23251E-04  7488   0.610E-03 0.295E-05
CGA:  15    -0.334730563256E+03   -0.86925E-05   -0.87000E-05  7488   0.523E-03 0.117E-05
  79 F= -.33473056E+03 E0= -.33469585E+03  d E =-.200267E-03  mag=    32.0000
       N       E                     dE             d eps       ncg     rms          ort
SDA:   1    -0.334699698275E+03    0.30856E-01    0.00000E+00  7488   0.288E+01 0.000E+00
CGA:   2    -0.334725867608E+03   -0.26169E-01   -0.25601E-01  7488   0.189E+00 0.346E-01
CGA:   3    -0.334728842397E+03   -0.29748E-02   -0.29969E-02  7488   0.243E-01 0.301E-02
CGA:   4    -0.334729076359E+03   -0.23396E-03   -0.23395E-03  7488   0.978E-02-0.322E-05
CGA:   5    -0.334729445452E+03   -0.36909E-03   -0.36865E-03  7488   0.124E-01 0.227E-04
CGA:   6    -0.334729883127E+03   -0.43768E-03   -0.43674E-03  7488   0.845E-02 0.549E-04
CGA:   7    -0.334730002524E+03   -0.11940E-03   -0.11946E-03  7488   0.563E-02 0.146E-05
CGA:   8    -0.334730247945E+03   -0.24542E-03   -0.24527E-03  7488   0.148E-01 0.628E-05
CGA:   9    -0.334730466685E+03   -0.21874E-03   -0.21892E-03  7488   0.476E-02 0.595E-05
CGA:  10    -0.334730584203E+03   -0.11752E-03   -0.11758E-03  7488   0.654E-03-0.893E-05
CGA:  11    -0.334730598819E+03   -0.14615E-04   -0.14614E-04  7488   0.137E-02 0.581E-06
CGA:  12    -0.334730651753E+03   -0.52935E-04   -0.52955E-04  7488   0.172E-02-0.102E-05
CGA:  13    -0.334730687868E+03   -0.36115E-04   -0.36116E-04  7488   0.496E-03 0.144E-05
CGA:  14    -0.334730693450E+03   -0.55815E-05   -0.55813E-05  7488   0.136E-03 0.208E-06
  80 F= -.33473069E+03 E0= -.33469600E+03  d E =-.130194E-03  mag=    32.0000
       N       E                     dE             d eps       ncg     rms          ort
SDA:   1    -0.334651439119E+03    0.79249E-01    0.00000E+00  7488   0.125E+02 0.000E+00
CGA:   2    -0.334726864607E+03   -0.75425E-01   -0.77866E-01  7488   0.177E+00-0.360E+00
CGA:   3    -0.334728476549E+03   -0.16119E-02   -0.16110E-02  7488   0.265E-01 0.601E-04
CGA:   4    -0.334728946707E+03   -0.47016E-03   -0.47139E-03  7488   0.777E-02 0.172E-03
CGA:   5    -0.334729112398E+03   -0.16569E-03   -0.16570E-03  7488   0.158E-01-0.324E-05
CGA:   6    -0.334730091659E+03   -0.97926E-03   -0.97714E-03  7488   0.644E-02 0.585E-04
CGA:   7    -0.334730201139E+03   -0.10948E-03   -0.10938E-03  7488   0.756E-02-0.409E-05
CGA:   8    -0.334730448281E+03   -0.24714E-03   -0.24740E-03  7488   0.803E-02-0.204E-04
CGA:   9    -0.334730577655E+03   -0.12937E-03   -0.12940E-03  7488   0.465E-02-0.217E-05
CGA:  10    -0.334730664641E+03   -0.86985E-04   -0.87060E-04  7488   0.776E-03 0.504E-05
CGA:  11    -0.334730684750E+03   -0.20109E-04   -0.20117E-04  7488   0.193E-02-0.195E-05
CGA:  12    -0.334730749133E+03   -0.64384E-04   -0.64454E-04  7488   0.912E-03-0.608E-05
CGA:  13    -0.334730770030E+03   -0.20897E-04   -0.20897E-04  7488   0.502E-03-0.960E-06
CGA:  14    -0.334730775969E+03   -0.59389E-05   -0.59426E-05  7488   0.236E-03 0.806E-08
  81 F= -.33473078E+03 E0= -.33469610E+03  d E =-.212713E-03  mag=    32.0000
       N       E                     dE             d eps       ncg     rms          ort
SDA:   1    -0.334657462776E+03    0.73307E-01    0.00000E+00  7488   0.838E+01 0.000E+00
CGA:   2    -0.334717434539E+03   -0.59972E-01   -0.53672E-01  7488   0.441E+00 0.778E+00
CGA:   3    -0.334722280571E+03   -0.48460E-02   -0.49615E-02  7488   0.104E+00-0.638E-02
CGA:   4    -0.334723577853E+03   -0.12973E-02   -0.13048E-02  7488   0.435E-01-0.172E-03
CGA:   5    -0.334724249275E+03   -0.67142E-03   -0.67112E-03  7488   0.494E-01-0.107E-04
CGA:   6    -0.334726175800E+03   -0.19265E-02   -0.19245E-02  7488   0.755E-01 0.108E-03
CGA:   7    -0.334727695751E+03   -0.15200E-02   -0.15198E-02  7488   0.972E-01-0.474E-04
CGA:   8    -0.334728837636E+03   -0.11419E-02   -0.11377E-02  7488   0.152E-01 0.143E-03
CGA:   9    -0.334729410544E+03   -0.57291E-03   -0.57269E-03  7488   0.503E-01 0.106E-04
CGA:  10    -0.334730073588E+03   -0.66304E-03   -0.66124E-03  7488   0.114E-01 0.451E-04
CGA:  11    -0.334730286175E+03   -0.21259E-03   -0.21266E-03  7488   0.709E-02 0.102E-04
CGA:  12    -0.334730360404E+03   -0.74229E-04   -0.74142E-04  7488   0.345E-02 0.524E-05
CGA:  13    -0.334730478902E+03   -0.11850E-03   -0.11852E-03  7488   0.776E-02-0.886E-06
CGA:  14    -0.334730649438E+03   -0.17054E-03   -0.17053E-03  7488   0.675E-02 0.108E-04
CGA:  15    -0.334730739794E+03   -0.90356E-04   -0.90348E-04  7488   0.343E-02 0.297E-05
CGA:  16    -0.334730776609E+03   -0.36815E-04   -0.36863E-04  7488   0.336E-03 0.305E-07
CGA:  17    -0.334730784736E+03   -0.81269E-05   -0.81239E-05  7488   0.915E-03 0.770E-06
CGA:  18    -0.334730812156E+03   -0.27421E-04   -0.27415E-04  7488   0.651E-03 0.894E-06
CGA:  19    -0.334730826640E+03   -0.14484E-04   -0.14483E-04  7488   0.591E-03 0.144E-05
CGA:  20    -0.334730832234E+03   -0.55946E-05   -0.56099E-05  7488   0.163E-03 0.672E-06
  82 F= -.33473083E+03 E0= -.33469621E+03  d E =-.268978E-03  mag=    32.0000
       N       E                     dE             d eps       ncg     rms          ort
SDA:   1    -0.334694303896E+03    0.36523E-01    0.00000E+00  7488   0.507E+01 0.000E+00
CGA:   2    -0.334726848884E+03   -0.32545E-01   -0.36020E-01  7488   0.315E+00-0.373E+00
CGA:   3    -0.334729743800E+03   -0.28949E-02   -0.28799E-02  7488   0.420E-01 0.816E-03
CGA:   4    -0.334730256179E+03   -0.51238E-03   -0.51615E-03  7488   0.538E-02-0.688E-04
CGA:   5    -0.334730373631E+03   -0.11745E-03   -0.11741E-03  7488   0.438E-02 0.110E-04
CGA:   6    -0.334730457058E+03   -0.83426E-04   -0.83431E-04  7488   0.508E-02 0.225E-05
CGA:   7    -0.334730595548E+03   -0.13849E-03   -0.13858E-03  7488   0.292E-02-0.963E-05
CGA:   8    -0.334730638999E+03   -0.43451E-04   -0.43473E-04  7488   0.144E-02 0.681E-06
CGA:   9    -0.334730724481E+03   -0.85482E-04   -0.85336E-04  7488   0.447E-02 0.399E-05
CGA:  10    -0.334730787200E+03   -0.62718E-04   -0.62732E-04  7488   0.189E-02 0.273E-05
CGA:  11    -0.334730821581E+03   -0.34381E-04   -0.34377E-04  7488   0.459E-03 0.903E-06
CGA:  12    -0.334730829066E+03   -0.74856E-05   -0.74920E-05  7488   0.271E-03 0.132E-05
  83 F= -.33473083E+03 E0= -.33469618E+03  d E =-.265810E-03  mag=    32.0000
       N       E                     dE             d eps       ncg     rms          ort
SDA:   1    -0.334646790046E+03    0.84032E-01    0.00000E+00  7488   0.125E+02 0.000E+00
CGA:   2    -0.334725381725E+03   -0.78592E-01   -0.74216E-01  7488   0.303E+00 0.549E+00
CGA:   3    -0.334729881724E+03   -0.45000E-02   -0.44289E-02  7488   0.736E-01-0.168E-03
CGA:   4    -0.334730423522E+03   -0.54180E-03   -0.53945E-03  7488   0.938E-02 0.232E-03
CGA:   5    -0.334730575326E+03   -0.15180E-03   -0.15165E-03  7488   0.274E-02-0.125E-04
CGA:   6    -0.334730605738E+03   -0.30412E-04   -0.30366E-04  7488   0.193E-02 0.825E-07
CGA:   7    -0.334730679709E+03   -0.73971E-04   -0.73905E-04  7488   0.439E-02 0.339E-05
CGA:   8    -0.334730745302E+03   -0.65593E-04   -0.65597E-04  7488   0.110E-02-0.199E-05
CGA:   9    -0.334730760907E+03   -0.15604E-04   -0.15599E-04  7488   0.125E-02-0.646E-06
CGA:  10    -0.334730794239E+03   -0.33333E-04   -0.33352E-04  7488   0.916E-03-0.215E-05
CGA:  11    -0.334730818824E+03   -0.24585E-04   -0.24574E-04  7488   0.163E-02 0.158E-05
CGA:  12    -0.334730836160E+03   -0.17336E-04   -0.17352E-04  7488   0.193E-03 0.727E-06
CGA:  13    -0.334730840466E+03   -0.43062E-05   -0.43036E-05  7488   0.219E-03 0.101E-05
  84 F= -.33473084E+03 E0= -.33469620E+03  d E =-.277210E-03  mag=    32.0000
       N       E                     dE             d eps       ncg     rms          ort
SDA:   1    -0.334699682159E+03    0.31154E-01    0.00000E+00  7488   0.415E+01 0.000E+00
CGA:   2    -0.334727118783E+03   -0.27437E-01   -0.28570E-01  7488   0.319E+00-0.126E+00
CGA:   3    -0.334730639618E+03   -0.35208E-02   -0.35310E-02  7488   0.612E-02-0.247E-03
CGA:   4    -0.334730709225E+03   -0.69607E-04   -0.69714E-04  7488   0.296E-02-0.611E-06
CGA:   5    -0.334730760103E+03   -0.50878E-04   -0.50894E-04  7488   0.969E-03 0.718E-05
CGA:   6    -0.334730796223E+03   -0.36120E-04   -0.36084E-04  7488   0.166E-02 0.193E-05
CGA:   7    -0.334730819483E+03   -0.23260E-04   -0.23268E-04  7488   0.443E-03 0.148E-05
CGA:   8    -0.334730826788E+03   -0.73046E-05   -0.73074E-05  7488   0.334E-03 0.933E-06
CGA:   9    -0.334730836854E+03   -0.10066E-04   -0.10055E-04  7488   0.524E-03 0.977E-06
CGA:  10    -0.334730853324E+03   -0.16470E-04   -0.16446E-04  7488   0.242E-03 0.194E-05
CGA:  11    -0.334730855621E+03   -0.22975E-05   -0.22975E-05  7488   0.644E-04 0.614E-07
  85 F= -.33473086E+03 E0= -.33469621E+03  d E =-.292365E-03  mag=    32.0000
       N       E                     dE             d eps       ncg     rms          ort
SDA:   1    -0.334727660375E+03    0.31929E-02    0.00000E+00  7488   0.424E+00 0.000E+00
CGA:   2    -0.334730366360E+03   -0.27060E-02   -0.27142E-02  7488   0.255E-01-0.102E-02
CGA:   3    -0.334730832717E+03   -0.46636E-03   -0.46578E-03  7488   0.893E-03-0.321E-03
CGA:   4    -0.334730842083E+03   -0.93660E-05   -0.93611E-05  7488   0.214E-03 0.796E-07
CGA:   5    -0.334730850909E+03   -0.88258E-05   -0.88196E-05  7488   0.240E-03 0.280E-06
CGA:   6    -0.334730855217E+03   -0.43084E-05   -0.43084E-05  7488   0.208E-03 0.952E-08
  86 F= -.33473086E+03 E0= -.33469621E+03  d E =-.291961E-03  mag=    32.0000
       N       E                     dE             d eps       ncg     rms          ort
SDA:   1    -0.334727652855E+03    0.31981E-02    0.00000E+00  7488   0.312E+00 0.000E+00
CGA:   2    -0.334730237207E+03   -0.25844E-02   -0.25449E-02  7488   0.525E-01 0.304E-02
CGA:   3    -0.334730789653E+03   -0.55245E-03   -0.55309E-03  7488   0.144E-02-0.225E-04
CGA:   4    -0.334730826570E+03   -0.36917E-04   -0.36877E-04  7488   0.111E-02 0.443E-05
CGA:   5    -0.334730844035E+03   -0.17465E-04   -0.17466E-04  7488   0.593E-03 0.632E-07
CGA:   6    -0.334730855128E+03   -0.11092E-04   -0.11092E-04  7488   0.359E-03 0.480E-06
CGA:   7    -0.334730858639E+03   -0.35114E-05   -0.35124E-05  7488   0.257E-04 0.162E-06
  87 F= -.33473086E+03 E0= -.33469622E+03  d E =-.295383E-03  mag=    32.0000
       N       E                     dE             d eps       ncg     rms          ort
SDA:   1    -0.334721828526E+03    0.90266E-02    0.00000E+00  7488   0.101E+01 0.000E+00
CGA:   2    -0.334729328338E+03   -0.74998E-02   -0.74234E-02  7488   0.119E+00 0.838E-02
CGA:   3    -0.334730736320E+03   -0.14080E-02   -0.14534E-02  7488   0.944E-02-0.257E-02
CGA:   4    -0.334730838316E+03   -0.10200E-03   -0.10229E-03  7488   0.127E-02-0.191E-04
CGA:   5    -0.334730856004E+03   -0.17688E-04   -0.17686E-04  7488   0.455E-04-0.197E-06
CGA:   6    -0.334730859472E+03   -0.34682E-05   -0.35010E-05  7488   0.209E-03-0.689E-06
  88 F= -.33473086E+03 E0= -.33469621E+03  d E =-.296216E-03  mag=    32.0000
       N       E                     dE             d eps       ncg     rms          ort
SDA:   1    -0.322587190603E+03    0.12144E+02    0.00000E+00  7488   0.146E+03 0.000E+00
CGA:   2    -0.324974847093E+03   -0.23877E+01   -0.87424E+00  7488   0.247E+03 0.285E+03
CGA:   3    -0.331776006942E+03   -0.68012E+01   -0.17365E+01  7488   0.349E+03 0.642E+03
CGA:   4    -0.334122169234E+03   -0.23462E+01   -0.32628E+01  7488   0.102E+03-0.205E+03
CGA:   5    -0.334638698168E+03   -0.51653E+00   -0.80347E+00  7488   0.119E+02-0.336E+02
CGA:   6    -0.334712289589E+03   -0.73591E-01   -0.70454E-01  7488   0.849E-01 0.244E+00
CGA:   7    -0.334716479952E+03   -0.41904E-02   -0.41989E-02  7488   0.414E+00-0.359E-03
CGA:   8    -0.334724882478E+03   -0.84025E-02   -0.84134E-02  7488   0.159E+00 0.279E-03
CGA:   9    -0.334727235813E+03   -0.23533E-02   -0.23128E-02  7488   0.643E-01 0.106E-02
CGA:  10    -0.334728291515E+03   -0.10557E-02   -0.10430E-02  7488   0.172E-01 0.132E-03
CGA:  11    -0.334728645286E+03   -0.35377E-03   -0.35397E-03  7488   0.347E-01 0.240E-04
CGA:  12    -0.334729871390E+03   -0.12261E-02   -0.12266E-02  7488   0.140E-01-0.197E-04
CGA:  13    -0.334730133828E+03   -0.26244E-03   -0.26255E-03  7488   0.837E-02 0.187E-04
CGA:  14    -0.334730258333E+03   -0.12450E-03   -0.12468E-03  7488   0.822E-02 0.779E-05
CGA:  15    -0.334730554433E+03   -0.29610E-03   -0.29570E-03  7488   0.733E-02 0.320E-04
CGA:  16    -0.334730647982E+03   -0.93549E-04   -0.93627E-04  7488   0.203E-02 0.468E-05
CGA:  17    -0.334730693725E+03   -0.45743E-04   -0.45766E-04  7488   0.136E-02 0.529E-05
CGA:  18    -0.334730711637E+03   -0.17912E-04   -0.17892E-04  7488   0.122E-02-0.637E-06
CGA:  19    -0.334730818576E+03   -0.10694E-03   -0.10781E-03  7488   0.377E-03-0.139E-04
CGA:  20    -0.334730822564E+03   -0.39877E-05   -0.39822E-05  7488   0.247E-03-0.690E-06
CGA:  21    -0.334730833180E+03   -0.10616E-04   -0.10653E-04  7488   0.467E-03-0.217E-05
CGA:  22    -0.334730842537E+03   -0.93569E-05   -0.93442E-05  7488   0.353E-03-0.217E-05
  89 F= -.33473084E+03 E0= -.33469620E+03  d E =-.279281E-03  mag=    32.0000
