       N       E                     dE             d eps       ncg     rms          rms(c)
DAV:   1     0.653327572400E+04    0.65333E+04   -0.26955E+05 35448   0.155E+03
DAV:   2     0.412338145655E+03   -0.61209E+04   -0.58720E+04 35768   0.476E+02
DAV:   3    -0.366985897771E+03   -0.77932E+03   -0.76180E+03 38272   0.179E+02
DAV:   4    -0.409443299012E+03   -0.42457E+02   -0.41210E+02 50512   0.432E+01
DAV:   5    -0.412801383568E+03   -0.33581E+01   -0.32980E+01 63472   0.854E+00    0.664E+01
DAV:   6    -0.340860174856E+03    0.71941E+02   -0.32659E+02 46296   0.410E+01    0.393E+01
DAV:   7    -0.369670606627E+03   -0.28810E+02   -0.97753E+01 48232   0.220E+01    0.723E+01
DAV:   8    -0.361415203626E+03    0.82554E+01   -0.53151E+01 48168   0.163E+01    0.308E+01
DAV:   9    -0.359667534025E+03    0.17477E+01   -0.76064E+00 47672   0.786E+00    0.276E+01
DAV:  10    -0.365588179762E+03   -0.59206E+01   -0.38538E+01 47440   0.959E+00    0.404E+01
DAV:  11    -0.365555344437E+03    0.32835E-01   -0.34199E+01 47680   0.895E+00    0.260E+01
DAV:  12    -0.366729153908E+03   -0.11738E+01   -0.93053E+00 46144   0.593E+00    0.227E+01
DAV:  13    -0.370986106324E+03   -0.42570E+01   -0.38946E+00 44976   0.463E+00    0.147E+01
DAV:  14    -0.373562768059E+03   -0.25767E+01   -0.50694E+00 47648   0.346E+00    0.169E+01
DAV:  15    -0.378221548356E+03   -0.46588E+01   -0.15562E+01 44696   0.408E+00    0.175E+01
DAV:  16    -0.379645315139E+03   -0.14238E+01   -0.10715E+01 46704   0.251E+00    0.169E+01
DAV:  17    -0.379648914158E+03   -0.35990E-02   -0.95690E-01 41352   0.111E+00    0.115E+01
DAV:  18    -0.379799379711E+03   -0.15047E+00   -0.58476E-02 38128   0.562E-01    0.116E+01
DAV:  19    -0.379803369014E+03   -0.39893E-02   -0.55815E-03 46400   0.158E-01    0.116E+01
DAV:  20    -0.379821541677E+03   -0.18173E-01   -0.20043E-02 41608   0.235E-01    0.115E+01
DAV:  21    -0.379824951735E+03   -0.34101E-02   -0.32497E-03 44368   0.667E-02    0.115E+01
DAV:  22    -0.379822402234E+03    0.25495E-02   -0.12734E-03 40560   0.660E-02    0.114E+01
DAV:  23    -0.380217642862E+03   -0.39524E+00   -0.37690E-01 44432   0.856E-01    0.133E+01
DAV:  24    -0.381294301313E+03   -0.10767E+01   -0.10283E+00 44512   0.241E+00    0.977E+00
DAV:  25    -0.382305118032E+03   -0.10108E+01   -0.65126E-01 43856   0.164E+00    0.765E+00
DAV:  26    -0.383122943316E+03   -0.81783E+00   -0.71793E-01 45360   0.145E+00    0.766E+00
DAV:  27    -0.383461062318E+03   -0.33812E+00   -0.23178E-01 45712   0.106E+00    0.610E+00
DAV:  28    -0.383846907509E+03   -0.38585E+00   -0.32805E-01 43960   0.103E+00    0.657E+00
DAV:  29    -0.384019361167E+03   -0.17245E+00   -0.31262E-01 45824   0.100E+00    0.465E+00
DAV:  30    -0.384032411522E+03   -0.13050E-01   -0.33538E-02 41200   0.438E-01    0.450E+00
DAV:  31    -0.384078880974E+03   -0.46469E-01   -0.23104E-02 46128   0.377E-01    0.369E+00
DAV:  32    -0.384247123690E+03   -0.16824E+00   -0.12755E-01 42440   0.667E-01    0.391E+00
DAV:  33    -0.384315250074E+03   -0.68126E-01   -0.66408E-02 45296   0.649E-01    0.305E+00
DAV:  34    -0.384345329212E+03   -0.30079E-01   -0.35011E-02 42392   0.438E-01    0.364E+00
DAV:  35    -0.384346526308E+03   -0.11971E-02   -0.22096E-02 47240   0.374E-01    0.400E+00
DAV:  36    -0.384339991326E+03    0.65350E-02   -0.10237E-02 42248   0.271E-01    0.464E+00
DAV:  37    -0.384334385309E+03    0.56060E-02   -0.19330E-03 42768   0.126E-01    0.490E+00
DAV:  38    -0.384342316906E+03   -0.79316E-02   -0.20929E-03 43296   0.129E-01    0.450E+00
DAV:  39    -0.384352503046E+03   -0.10186E-01   -0.63988E-03 45544   0.221E-01    0.373E+00
DAV:  40    -0.384365518661E+03   -0.13016E-01   -0.22867E-02 46536   0.386E-01    0.245E+00
DAV:  41    -0.384370670938E+03   -0.51523E-02   -0.12957E-02 45912   0.313E-01    0.147E+00
DAV:  42    -0.384372572250E+03   -0.19013E-02   -0.77520E-03 46024   0.221E-01    0.839E-01
DAV:  43    -0.384372902178E+03   -0.32993E-03   -0.50722E-03 47200   0.157E-01    0.666E-01
DAV:  44    -0.384372902590E+03   -0.41206E-06   -0.14518E-03 46456   0.104E-01    0.370E-01
DAV:  45    -0.384373106263E+03   -0.20367E-03   -0.65701E-04 42056   0.614E-02    0.446E-01
DAV:  46    -0.384373073308E+03    0.32955E-04   -0.21434E-04 43024   0.454E-02    0.330E-01
DAV:  47    -0.384373090874E+03   -0.17566E-04   -0.76840E-05 36544   0.231E-02    0.282E-01
DAV:  48    -0.384373127693E+03   -0.36820E-04   -0.73972E-05 33128   0.197E-02    0.214E-01
DAV:  49    -0.384373176105E+03   -0.48411E-04   -0.43361E-05 30632   0.159E-02    0.173E-01
DAV:  50    -0.384373218125E+03   -0.42020E-04   -0.34450E-05 27664   0.122E-02    0.131E-01
DAV:  51    -0.384373272381E+03   -0.54256E-04   -0.32772E-05 29624   0.151E-02    0.945E-02
DAV:  52    -0.384373288362E+03   -0.15982E-04   -0.17358E-05 26032   0.973E-03    0.623E-02
DAV:  53    -0.384373299290E+03   -0.10928E-04   -0.12480E-05 24720   0.798E-03    0.380E-02
DAV:  54    -0.384373302326E+03   -0.30358E-05   -0.40685E-06 21384   0.492E-03
   1 F= -.38437330E+03 E0= -.38436083E+03  d E =-.384373E+03  mag=    34.0008
       N       E                     dE             d eps       ncg     rms          rms(c)
DAV:   1    -0.384408153770E+03   -0.34854E-01   -0.39407E-02 38272   0.384E-01    0.500E-02
DAV:   2    -0.384408279641E+03   -0.12587E-03   -0.14898E-03 38192   0.694E-02    0.691E-02
DAV:   3    -0.384408281970E+03   -0.23293E-05   -0.18035E-04 44992   0.247E-02    0.819E-02
DAV:   4    -0.384408282998E+03   -0.10273E-05   -0.15156E-04 30136   0.200E-02    0.922E-02
DAV:   5    -0.384408268698E+03    0.14300E-04   -0.70947E-05 27472   0.169E-02    0.263E-02
DAV:   6    -0.384408271392E+03   -0.26948E-05   -0.17418E-05 27960   0.129E-02
   2 F= -.38440827E+03 E0= -.38439576E+03  d E =-.349691E-01  mag=    34.0004
       N       E                     dE             d eps       ncg     rms          rms(c)
DAV:   1    -0.385141132054E+03   -0.73286E+00   -0.42699E+01 37560   0.127E+01    0.156E+00
DAV:   2    -0.385304078432E+03   -0.16295E+00   -0.18288E+00 39360   0.239E+00    0.317E+00
DAV:   3    -0.385308142593E+03   -0.40642E-02   -0.41455E-01 57224   0.887E-01    0.302E+00
DAV:   4    -0.385307667243E+03    0.47535E-03   -0.22572E-01 49408   0.599E-01    0.300E+00
DAV:   5    -0.385290820431E+03    0.16847E-01   -0.71171E-02 48856   0.467E-01    0.844E-01
DAV:   6    -0.385294198390E+03   -0.33780E-02   -0.25974E-02 49448   0.437E-01    0.122E+00
DAV:   7    -0.385292670017E+03    0.15284E-02   -0.25717E-02 50192   0.342E-01    0.113E+00
DAV:   8    -0.385291546529E+03    0.11235E-02   -0.80970E-03 50960   0.272E-01    0.101E+00
DAV:   9    -0.385289991312E+03    0.15552E-02   -0.13177E-02 49496   0.209E-01    0.505E-01
DAV:  10    -0.385290339984E+03   -0.34867E-03   -0.41462E-03 48048   0.149E-01    0.218E-01
DAV:  11    -0.385290595011E+03   -0.25503E-03   -0.10859E-03 43352   0.779E-02    0.213E-01
DAV:  12    -0.385290574848E+03    0.20163E-04   -0.25096E-04 43088   0.515E-02    0.139E-01
DAV:  13    -0.385290578187E+03   -0.33393E-05   -0.35836E-04 33984   0.367E-02    0.661E-02
DAV:  14    -0.385290608804E+03   -0.30617E-04   -0.75596E-05 29584   0.188E-02    0.690E-02
DAV:  15    -0.385290605863E+03    0.29410E-05   -0.75365E-06 21808   0.812E-03
   3 F= -.38529061E+03 E0= -.38527767E+03  d E =-.882334E+00  mag=    34.0001
       N       E                     dE             d eps       ncg     rms          rms(c)
DAV:   1    -0.385490046842E+03   -0.19944E+00   -0.13308E+02 37840   0.262E+01    0.299E+00
DAV:   2    -0.386192669237E+03   -0.70262E+00   -0.73532E+00 37040   0.510E+00    0.748E+00
DAV:   3    -0.386146190512E+03    0.46479E-01   -0.20122E+00 56160   0.192E+00    0.346E+00
DAV:   4    -0.386166084355E+03   -0.19894E-01   -0.40337E-01 50856   0.965E-01    0.451E+00
DAV:   5    -0.386127022241E+03    0.39062E-01   -0.13845E-01 47200   0.624E-01    0.177E+00
DAV:   6    -0.386125961120E+03    0.10611E-02   -0.54784E-02 50408   0.692E-01    0.176E+00
DAV:   7    -0.386131684022E+03   -0.57229E-02   -0.12587E-01 50056   0.614E-01    0.276E+00
DAV:   8    -0.386120604722E+03    0.11079E-01   -0.23818E-02 48432   0.410E-01    0.183E+00
DAV:   9    -0.386120849374E+03   -0.24465E-03   -0.33747E-02 50792   0.335E-01    0.195E+00
DAV:  10    -0.386116466667E+03    0.43827E-02   -0.31871E-02 48272   0.310E-01    0.675E-01
DAV:  11    -0.386119339705E+03   -0.28730E-02   -0.55187E-03 41672   0.185E-01    0.323E-01
DAV:  12    -0.386119556452E+03   -0.21675E-03   -0.14534E-03 48224   0.106E-01    0.284E-01
DAV:  13    -0.386119799224E+03   -0.24277E-03   -0.26731E-03 50600   0.942E-02    0.254E-01
DAV:  14    -0.386119921839E+03   -0.12262E-03   -0.60059E-04 47624   0.599E-02    0.260E-01
DAV:  15    -0.386119842222E+03    0.79617E-04   -0.27038E-04 36336   0.397E-02    0.164E-01
DAV:  16    -0.386119859345E+03   -0.17124E-04   -0.86782E-05 34968   0.224E-02    0.117E-01
DAV:  17    -0.386119858900E+03    0.44538E-06   -0.13011E-04 34872   0.350E-02    0.103E-01
DAV:  18    -0.386119862955E+03   -0.40551E-05   -0.13421E-04 38344   0.300E-02    0.128E-01
DAV:  19    -0.386119841504E+03    0.21451E-04   -0.67468E-05 28984   0.213E-02    0.456E-02
DAV:  20    -0.386119849648E+03   -0.81443E-05   -0.22540E-05 26432   0.168E-02
   4 F= -.38611985E+03 E0= -.38610660E+03  d E =-.829244E+00  mag=    34.0000
       N       E                     dE             d eps       ncg     rms          rms(c)
DAV:   1    -0.385598437689E+03    0.52140E+00   -0.15666E+02 36976   0.324E+01    0.389E+00
DAV:   2    -0.386628226613E+03   -0.10298E+01   -0.10301E+01 35680   0.597E+00    0.907E+00
DAV:   3    -0.386583748179E+03    0.44478E-01   -0.36545E+00 55752   0.245E+00    0.450E+00
DAV:   4    -0.386694014931E+03   -0.11027E+00   -0.14852E+00 51248   0.139E+00    0.779E+00
DAV:   5    -0.386571311814E+03    0.12270E+00   -0.56306E-01 48416   0.106E+00    0.256E+00
DAV:   6    -0.386576340560E+03   -0.50287E-02   -0.64925E-02 50176   0.620E-01    0.207E+00
DAV:   7    -0.386567907510E+03    0.84330E-02   -0.46672E-02 50488   0.654E-01    0.182E+00
DAV:   8    -0.386566559769E+03    0.13477E-02   -0.76787E-02 50736   0.575E-01    0.171E+00
DAV:   9    -0.386564405073E+03    0.21547E-02   -0.19468E-02 48256   0.397E-01    0.110E+00
DAV:  10    -0.386565649770E+03   -0.12447E-02   -0.18113E-02 49568   0.291E-01    0.121E+00
DAV:  11    -0.386563401736E+03    0.22480E-02   -0.11458E-02 51360   0.253E-01    0.432E-01
DAV:  12    -0.386564502302E+03   -0.11006E-02   -0.29081E-03 47120   0.135E-01    0.385E-01
DAV:  13    -0.386564946014E+03   -0.44371E-03   -0.20457E-03 49760   0.124E-01    0.528E-01
DAV:  14    -0.386564632186E+03    0.31383E-03   -0.30119E-03 48184   0.117E-01    0.235E-01
DAV:  15    -0.386564853661E+03   -0.22148E-03   -0.96115E-04 44808   0.641E-02    0.218E-01
DAV:  16    -0.386564869889E+03   -0.16227E-04   -0.89601E-05 36624   0.287E-02    0.180E-01
DAV:  17    -0.386564850332E+03    0.19557E-04   -0.84364E-05 30216   0.157E-02    0.134E-01
DAV:  18    -0.386564837786E+03    0.12546E-04   -0.40867E-05 30376   0.201E-02    0.875E-02
DAV:  19    -0.386564839436E+03   -0.16506E-05   -0.15370E-04 36616   0.252E-02    0.492E-02
DAV:  20    -0.386564841673E+03   -0.22369E-05   -0.29505E-05 27896   0.196E-02
   5 F= -.38656484E+03 E0= -.38655165E+03  d E =-.444992E+00  mag=    34.0000
       N       E                     dE             d eps       ncg     rms          rms(c)
DAV:   1    -0.386103879883E+03    0.46096E+00   -0.10340E+02 36408   0.273E+01    0.311E+00
DAV:   2    -0.386718941569E+03   -0.61506E+00   -0.61223E+00 35832   0.478E+00    0.507E+00
DAV:   3    -0.386793821656E+03   -0.74880E-01   -0.19787E+00 55984   0.187E+00    0.673E+00
DAV:   4    -0.386734220494E+03    0.59601E-01   -0.78021E-01 50864   0.135E+00    0.417E+00
DAV:   5    -0.386713118090E+03    0.21102E-01   -0.21087E-01 49296   0.791E-01    0.158E+00
DAV:   6    -0.386718841166E+03   -0.57231E-02   -0.32704E-02 49904   0.467E-01    0.112E+00
DAV:   7    -0.386720321075E+03   -0.14799E-02   -0.22029E-02 48040   0.312E-01    0.130E+00
DAV:   8    -0.386719974195E+03    0.34688E-03   -0.22760E-02 50136   0.315E-01    0.119E+00
DAV:   9    -0.386719872829E+03    0.10137E-03   -0.26967E-02 48240   0.346E-01    0.984E-01
DAV:  10    -0.386719496354E+03    0.37647E-03   -0.11190E-02 49304   0.241E-01    0.401E-01
DAV:  11    -0.386719680200E+03   -0.18385E-03   -0.24489E-03 48944   0.155E-01    0.322E-01
DAV:  12    -0.386719622389E+03    0.57812E-04   -0.65459E-04 47096   0.914E-02    0.202E-01
DAV:  13    -0.386719643089E+03   -0.20700E-04   -0.92831E-04 45464   0.527E-02    0.176E-01
DAV:  14    -0.386719681048E+03   -0.37959E-04   -0.19274E-04 36032   0.338E-02    0.124E-01
DAV:  15    -0.386719679673E+03    0.13747E-05   -0.22763E-05 28152   0.115E-02
   6 F= -.38671968E+03 E0= -.38670668E+03  d E =-.154838E+00  mag=    34.0000
       N       E                     dE             d eps       ncg     rms          rms(c)
DAV:   1    -0.386411990341E+03    0.30769E+00   -0.10442E+02 36352   0.260E+01    0.224E+00
DAV:   2    -0.386812373317E+03   -0.40038E+00   -0.41035E+00 35776   0.461E+00    0.304E+00
DAV:   3    -0.386853394763E+03   -0.41021E-01   -0.74003E-01 54568   0.146E+00    0.529E+00
DAV:   4    -0.386828671085E+03    0.24724E-01   -0.61974E-01 52576   0.932E-01    0.410E+00
DAV:   5    -0.386806414963E+03    0.22256E-01   -0.12336E-01 48832   0.695E-01    0.115E+00
DAV:   6    -0.386809636430E+03   -0.32215E-02   -0.14632E-02 50816   0.392E-01    0.828E-01
DAV:   7    -0.386812029763E+03   -0.23933E-02   -0.23425E-02 48520   0.335E-01    0.153E+00
DAV:   8    -0.386811635713E+03    0.39405E-03   -0.41544E-02 48160   0.339E-01    0.165E+00
DAV:   9    -0.386807367870E+03    0.42678E-02   -0.31814E-02 48608   0.300E-01    0.761E-01
DAV:  10    -0.386808678988E+03   -0.13111E-02   -0.97469E-03 47904   0.193E-01    0.384E-01
DAV:  11    -0.386809195224E+03   -0.51624E-03   -0.16724E-03 42560   0.106E-01    0.471E-01
DAV:  12    -0.386808927203E+03    0.26802E-03   -0.42895E-04 48320   0.593E-02    0.364E-01
DAV:  13    -0.386808821875E+03    0.10533E-03   -0.15510E-03 48880   0.818E-02    0.209E-01
DAV:  14    -0.386809032901E+03   -0.21103E-03   -0.11124E-03 45904   0.689E-02    0.321E-01
DAV:  15    -0.386808981065E+03    0.51836E-04   -0.59381E-04 38856   0.431E-02    0.128E-01
DAV:  16    -0.386809028967E+03   -0.47902E-04   -0.93402E-05 35824   0.219E-02    0.989E-02
DAV:  17    -0.386809022114E+03    0.68532E-05   -0.63175E-05 30600   0.209E-02
   7 F= -.38680902E+03 E0= -.38679598E+03  d E =-.893424E-01  mag=    34.0000
       N       E                     dE             d eps       ncg     rms          rms(c)
DAV:   1    -0.385663519100E+03    0.11455E+01   -0.23680E+02 36360   0.434E+01    0.427E+00
DAV:   2    -0.386868101305E+03   -0.12046E+01   -0.12252E+01 35120   0.791E+00    0.652E+00
DAV:   3    -0.386960230079E+03   -0.92129E-01   -0.23172E+00 50216   0.245E+00    0.811E+00
DAV:   4    -0.386854648537E+03    0.10558E+00   -0.85734E-01 51752   0.149E+00    0.315E+00
DAV:   5    -0.386861635946E+03   -0.69874E-02   -0.19108E-01 51064   0.756E-01    0.307E+00
DAV:   6    -0.386868745520E+03   -0.71096E-02   -0.27556E-01 49560   0.763E-01    0.314E+00
DAV:   7    -0.386867536705E+03    0.12088E-02   -0.24321E-01 48656   0.604E-01    0.270E+00
DAV:   8    -0.386861879247E+03    0.56575E-02   -0.81461E-02 47784   0.452E-01    0.198E+00
DAV:   9    -0.386861891659E+03   -0.12411E-04   -0.35742E-02 50008   0.449E-01    0.207E+00
DAV:  10    -0.386861970122E+03   -0.78463E-04   -0.38830E-02 47080   0.401E-01    0.187E+00
DAV:  11    -0.386858976217E+03    0.29939E-02   -0.25390E-02 48248   0.343E-01    0.553E-01
DAV:  12    -0.386861853770E+03   -0.28776E-02   -0.84891E-03 46560   0.213E-01    0.903E-01
DAV:  13    -0.386861391532E+03    0.46224E-03   -0.17733E-03 45328   0.130E-01    0.716E-01
DAV:  14    -0.386860896404E+03    0.49513E-03   -0.12019E-03 49496   0.720E-02    0.274E-01
DAV:  15    -0.386861221490E+03   -0.32509E-03   -0.11373E-03 43904   0.544E-02    0.185E-01
DAV:  16    -0.386861340349E+03   -0.11886E-03   -0.23102E-04 36032   0.405E-02    0.131E-01
DAV:  17    -0.386861331924E+03    0.84250E-05   -0.21186E-05 29968   0.119E-02
   8 F= -.38686133E+03 E0= -.38684844E+03  d E =-.523098E-01  mag=    34.0000
       N       E                     dE             d eps       ncg     rms          rms(c)
DAV:   1    -0.382335302902E+03    0.45260E+01   -0.35790E+02 37064   0.597E+01    0.161E+01
DAV:   2    -0.411318386560E+03   -0.28983E+02   -0.12660E+02 45760   0.194E+01    0.710E+01
DAV:   3    -0.385288536720E+03    0.26030E+02   -0.23534E+01 46752   0.129E+01    0.186E+01
DAV:   4    -0.386583514263E+03   -0.12950E+01   -0.15209E+01 49496   0.463E+00    0.132E+01
DAV:   5    -0.386758034003E+03   -0.17452E+00   -0.32211E+00 49864   0.299E+00    0.123E+01
DAV:   6    -0.386627566792E+03    0.13047E+00   -0.39952E+00 50136   0.216E+00    0.806E+00
DAV:   7    -0.386736945557E+03   -0.10938E+00   -0.67817E-01 50424   0.208E+00    0.908E+00
DAV:   8    -0.386953535083E+03   -0.21659E+00   -0.33898E+00 51104   0.185E+00    0.123E+01
DAV:   9    -0.386682647508E+03    0.27089E+00   -0.22538E+00 48448   0.164E+00    0.567E+00
DAV:  10    -0.386672308537E+03    0.10339E-01   -0.53065E-01 50024   0.122E+00    0.472E+00
DAV:  11    -0.386653857373E+03    0.18451E-01   -0.77010E-02 48816   0.749E-01    0.408E+00
DAV:  12    -0.386650738714E+03    0.31187E-02   -0.10715E-02 49024   0.347E-01    0.374E+00
DAV:  13    -0.386630295947E+03    0.20443E-01   -0.42567E-02 51104   0.499E-01    0.352E+00
DAV:  14    -0.386574024924E+03    0.56271E-01   -0.41483E-02 52248   0.901E-01    0.213E+00
DAV:  15    -0.386579930324E+03   -0.59054E-02   -0.16684E-01 50600   0.768E-01    0.299E+00
DAV:  16    -0.386582532781E+03   -0.26025E-02   -0.13830E-02 42128   0.369E-01    0.217E+00
DAV:  17    -0.386581392639E+03    0.11401E-02   -0.11821E-02 50024   0.242E-01    0.138E+00
DAV:  18    -0.386586241453E+03   -0.48488E-02   -0.10496E-02 44672   0.222E-01    0.164E+00
DAV:  19    -0.386583948471E+03    0.22930E-02   -0.34672E-03 45880   0.124E-01    0.117E+00
DAV:  20    -0.386584582122E+03   -0.63365E-03   -0.32528E-03 50360   0.159E-01    0.121E+00
DAV:  21    -0.386584484510E+03    0.97613E-04   -0.13710E-02 50640   0.238E-01    0.101E+00
DAV:  22    -0.386585181617E+03   -0.69711E-03   -0.10022E-02 44720   0.205E-01    0.662E-01
DAV:  23    -0.386585591002E+03   -0.40938E-03   -0.15298E-03 42312   0.106E-01    0.493E-01
DAV:  24    -0.386585454251E+03    0.13675E-03   -0.84083E-04 47128   0.921E-02    0.264E-01
DAV:  25    -0.386585548643E+03   -0.94392E-04   -0.77316E-04 46760   0.783E-02    0.253E-01
DAV:  26    -0.386585478157E+03    0.70485E-04   -0.86965E-04 47304   0.664E-02    0.120E-01
DAV:  27    -0.386585515543E+03   -0.37385E-04   -0.15590E-04 38792   0.338E-02    0.808E-02
DAV:  28    -0.386585517625E+03   -0.20821E-05   -0.55878E-05 32352   0.229E-02
   9 F= -.38658552E+03 E0= -.38657047E+03  d E =0.275814E+00  mag=    34.0065
       N       E                     dE             d eps       ncg     rms          rms(c)
DAV:   1    -0.385659074247E+03    0.92644E+00   -0.85727E+01 37968   0.313E+01    0.533E+00
DAV:   2    -0.387423272278E+03   -0.17642E+01   -0.16663E+01 37840   0.718E+00    0.173E+01
DAV:   3    -0.386904066056E+03    0.51921E+00   -0.72598E+00 48320   0.296E+00    0.747E+00
DAV:   4    -0.386911357199E+03   -0.72911E-02   -0.66458E-01 51048   0.179E+00    0.607E+00
DAV:   5    -0.386891575000E+03    0.19782E-01   -0.12070E+00 50088   0.126E+00    0.421E+00
DAV:   6    -0.386885418804E+03    0.61562E-02   -0.38754E-01 49136   0.123E+00    0.382E+00
DAV:   7    -0.386896180960E+03   -0.10762E-01   -0.38624E-01 49656   0.886E-01    0.423E+00
DAV:   8    -0.386885402816E+03    0.10778E-01   -0.61724E-02 48360   0.544E-01    0.284E+00
DAV:   9    -0.386889301598E+03   -0.38988E-02   -0.34176E-02 48760   0.362E-01    0.285E+00
DAV:  10    -0.386883939828E+03    0.53618E-02   -0.14985E-02 48152   0.289E-01    0.206E+00
DAV:  11    -0.386884230338E+03   -0.29051E-03   -0.38130E-02 48952   0.312E-01    0.110E+00
DAV:  12    -0.386889702333E+03   -0.54720E-02   -0.28770E-02 48432   0.348E-01    0.116E+00
DAV:  13    -0.386888647329E+03    0.10550E-02   -0.20246E-02 49128   0.323E-01    0.873E-01
DAV:  14    -0.386887436691E+03    0.12106E-02   -0.82155E-03 48840   0.184E-01    0.445E-01
DAV:  15    -0.386888355158E+03   -0.91847E-03   -0.44792E-03 48552   0.179E-01    0.714E-01
DAV:  16    -0.386887374810E+03    0.98035E-03   -0.26547E-03 46032   0.126E-01    0.420E-01
DAV:  17    -0.386887897152E+03   -0.52234E-03   -0.45740E-03 48248   0.103E-01    0.330E-01
DAV:  18    -0.386888112367E+03   -0.21522E-03   -0.97054E-04 44184   0.727E-02    0.317E-01
DAV:  19    -0.386888017986E+03    0.94381E-04   -0.38193E-04 45424   0.509E-02    0.194E-01
DAV:  20    -0.386888016957E+03    0.10295E-05   -0.27490E-04 44896   0.442E-02    0.122E-01
DAV:  21    -0.386888023046E+03   -0.60892E-05   -0.11980E-04 39488   0.274E-02    0.892E-02
DAV:  22    -0.386888011521E+03    0.11525E-04   -0.85634E-05 30592   0.227E-02    0.440E-02
DAV:  23    -0.386888013910E+03   -0.23897E-05   -0.34281E-05 29600   0.185E-02
  10 F= -.38688801E+03 E0= -.38687463E+03  d E =-.302496E+00  mag=    34.0005
       N       E                     dE             d eps       ncg     rms          rms(c)
DAV:   1    -0.386798422194E+03    0.89589E-01   -0.87239E+00 37720   0.977E+00    0.149E+00
DAV:   2    -0.386910770259E+03   -0.11235E+00   -0.10920E+00 35344   0.187E+00    0.193E+00
DAV:   3    -0.386940965971E+03   -0.30196E-01   -0.37921E-01 51936   0.806E-01    0.459E+00
DAV:   4    -0.386911481829E+03    0.29484E-01   -0.14750E-01 49792   0.665E-01    0.143E+00
DAV:   5    -0.386915319210E+03   -0.38374E-02   -0.20194E-02 45736   0.319E-01    0.546E-01
DAV:   6    -0.386917550528E+03   -0.22313E-02   -0.10717E-02 48840   0.216E-01    0.815E-01
DAV:   7    -0.386917543527E+03    0.70012E-05   -0.12023E-02 49064   0.206E-01    0.655E-01
DAV:   8    -0.386917332835E+03    0.21069E-03   -0.53636E-03 49792   0.187E-01    0.496E-01
DAV:   9    -0.386917417796E+03   -0.84961E-04   -0.36262E-03 47976   0.140E-01    0.361E-01
DAV:  10    -0.386917366124E+03    0.51672E-04   -0.16319E-03 49000   0.952E-02    0.192E-01
DAV:  11    -0.386917407229E+03   -0.41104E-04   -0.51528E-04 43840   0.463E-02    0.124E-01
DAV:  12    -0.386917416871E+03   -0.96420E-05   -0.42485E-05 30336   0.184E-02
  11 F= -.38691742E+03 E0= -.38690424E+03  d E =-.294030E-01  mag=    34.0001
       N       E                     dE             d eps       ncg     rms          rms(c)
DAV:   1    -0.386904473891E+03    0.12933E-01   -0.28597E+00 36864   0.495E+00    0.671E-01
DAV:   2    -0.386928221698E+03   -0.23748E-01   -0.22844E-01 35576   0.925E-01    0.146E+00
DAV:   3    -0.386930210664E+03   -0.19890E-02   -0.69098E-02 51608   0.383E-01    0.201E+00
DAV:   4    -0.386926334271E+03    0.38764E-02   -0.20342E-02 45512   0.259E-01    0.504E-01
DAV:   5    -0.386927418548E+03   -0.10843E-02   -0.39460E-03 47880   0.131E-01    0.365E-01
DAV:   6    -0.386927584350E+03   -0.16580E-03   -0.17059E-03 47288   0.107E-01    0.335E-01
DAV:   7    -0.386927594498E+03   -0.10147E-04   -0.24267E-03 50368   0.103E-01    0.301E-01
DAV:   8    -0.386927782364E+03   -0.18787E-03   -0.21679E-03 45624   0.686E-02    0.273E-01
DAV:   9    -0.386927765878E+03    0.16486E-04   -0.24703E-04 36728   0.389E-02    0.251E-01
DAV:  10    -0.386927740287E+03    0.25592E-04   -0.22417E-05 28040   0.138E-02    0.268E-01
DAV:  11    -0.386927729478E+03    0.10808E-04   -0.43116E-06 21960   0.662E-03    0.263E-01
DAV:  12    -0.386927697106E+03    0.32373E-04   -0.14912E-04 32376   0.297E-02    0.195E-01
DAV:  13    -0.386927710225E+03   -0.13119E-04   -0.28673E-04 46032   0.484E-02    0.113E-01
DAV:  14    -0.386927722087E+03   -0.11862E-04   -0.11927E-04 35920   0.298E-02    0.474E-02
DAV:  15    -0.386927726107E+03   -0.40204E-05   -0.14304E-05 24584   0.124E-02
  12 F= -.38692773E+03 E0= -.38691469E+03  d E =-.103092E-01  mag=    34.0000
       N       E                     dE             d eps       ncg     rms          rms(c)
DAV:   1    -0.386913538608E+03    0.14183E-01   -0.73443E+00 36392   0.687E+00    0.660E-01
DAV:   2    -0.386942862760E+03   -0.29324E-01   -0.30614E-01 35792   0.121E+00    0.471E-01
DAV:   3    -0.386946710504E+03   -0.38477E-02   -0.24136E-02 53184   0.300E-01    0.175E+00
DAV:   4    -0.386942339249E+03    0.43713E-02   -0.19729E-02 48904   0.226E-01    0.385E-01
DAV:   5    -0.386943669612E+03   -0.13304E-02   -0.27339E-03 48104   0.138E-01    0.410E-01
DAV:   6    -0.386943893098E+03   -0.22349E-03   -0.34622E-03 50256   0.133E-01    0.630E-01
DAV:   7    -0.386943137598E+03    0.75550E-03   -0.18776E-03 48408   0.117E-01    0.190E-01
DAV:   8    -0.386943464293E+03   -0.32669E-03   -0.13420E-03 49864   0.786E-02    0.269E-01
DAV:   9    -0.386943405994E+03    0.58299E-04   -0.72606E-04 45240   0.574E-02    0.146E-01
DAV:  10    -0.386943452223E+03   -0.46229E-04   -0.71748E-05 29512   0.203E-02    0.137E-01
DAV:  11    -0.386943442710E+03    0.95126E-05   -0.90517E-06 25288   0.853E-03
  13 F= -.38694344E+03 E0= -.38693042E+03  d E =-.157166E-01  mag=    34.0000
       N       E                     dE             d eps       ncg     rms          rms(c)
DAV:   1    -0.386837892228E+03    0.10556E+00   -0.39175E+01 36608   0.150E+01    0.135E+00
DAV:   2    -0.386973322935E+03   -0.13543E+00   -0.14379E+00 35144   0.263E+00    0.966E-01
DAV:   3    -0.386986797931E+03   -0.13475E-01   -0.15589E-01 50520   0.653E-01    0.291E+00
DAV:   4    -0.386971570343E+03    0.15228E-01   -0.88679E-02 51336   0.506E-01    0.125E+00
DAV:   5    -0.386974127599E+03   -0.25573E-02   -0.15739E-02 50096   0.258E-01    0.717E-01
DAV:   6    -0.386974551217E+03   -0.42362E-03   -0.84561E-03 48728   0.258E-01    0.792E-01
DAV:   7    -0.386973711210E+03    0.84001E-03   -0.10552E-02 49936   0.249E-01    0.677E-01
DAV:   8    -0.386973202640E+03    0.50857E-03   -0.34191E-03 48552   0.172E-01    0.335E-01
DAV:   9    -0.386973390754E+03   -0.18811E-03   -0.17171E-03 49384   0.963E-02    0.194E-01
DAV:  10    -0.386973555778E+03   -0.16502E-03   -0.94956E-04 45296   0.627E-02    0.181E-01
DAV:  11    -0.386973565117E+03   -0.93387E-05   -0.21777E-04 32264   0.299E-02    0.166E-01
DAV:  12    -0.386973551011E+03    0.14105E-04   -0.13407E-05 25328   0.109E-02    0.169E-01
DAV:  13    -0.386973538126E+03    0.12885E-04   -0.51544E-06 19504   0.722E-03    0.180E-01
DAV:  14    -0.386973550490E+03   -0.12364E-04   -0.64311E-05 30600   0.227E-02    0.149E-01
DAV:  15    -0.386973538929E+03    0.11561E-04   -0.27162E-04 41728   0.366E-02    0.889E-02
DAV:  16    -0.386973541979E+03   -0.30500E-05   -0.52771E-05 30784   0.175E-02
  14 F= -.38697354E+03 E0= -.38696066E+03  d E =-.300993E-01  mag=    34.0000
       N       E                     dE             d eps       ncg     rms          rms(c)
DAV:   1    -0.383429301014E+03    0.35442E+01   -0.32828E+02 37424   0.545E+01    0.906E+00
DAV:   2    -0.388162415948E+03   -0.47331E+01   -0.49356E+01 40384   0.135E+01    0.212E+01
DAV:   3    -0.387258318546E+03    0.90410E+00   -0.62970E+00 48360   0.483E+00    0.174E+01
DAV:   4    -0.386741334938E+03    0.51698E+00   -0.82226E+00 51328   0.285E+00    0.981E+00
DAV:   5    -0.386691497029E+03    0.49838E-01   -0.24586E+00 48968   0.234E+00    0.632E+00
DAV:   6    -0.386607548837E+03    0.83948E-01   -0.88211E-01 49912   0.216E+00    0.524E+00
DAV:   7    -0.386618127282E+03   -0.10578E-01   -0.89180E-01 49976   0.146E+00    0.428E+00
DAV:   8    -0.386611816403E+03    0.63109E-02   -0.20696E-01 50232   0.103E+00    0.254E+00
DAV:   9    -0.386636048254E+03   -0.24232E-01   -0.34853E-01 48736   0.872E-01    0.337E+00
DAV:  10    -0.386626790927E+03    0.92573E-02   -0.32494E-02 49784   0.502E-01    0.292E+00
DAV:  11    -0.386613027738E+03    0.13763E-01   -0.10958E-01 50240   0.739E-01    0.164E+00
DAV:  12    -0.386633866746E+03   -0.20839E-01   -0.11240E-01 48336   0.493E-01    0.320E+00
DAV:  13    -0.386622823792E+03    0.11043E-01   -0.11072E-01 49032   0.617E-01    0.162E+00
DAV:  14    -0.386626243662E+03   -0.34199E-02   -0.39998E-02 48600   0.457E-01    0.199E+00
DAV:  15    -0.386624628058E+03    0.16156E-02   -0.81747E-03 44160   0.205E-01    0.198E+00
DAV:  16    -0.386624786166E+03   -0.15811E-03   -0.87627E-04 41176   0.719E-02    0.222E+00
DAV:  17    -0.386622574043E+03    0.22121E-02   -0.11231E-02 50440   0.217E-01    0.146E+00
DAV:  18    -0.386622950945E+03   -0.37690E-03   -0.25311E-02 48032   0.252E-01    0.761E-01
DAV:  19    -0.386623941647E+03   -0.99070E-03   -0.95901E-03 45960   0.209E-01    0.643E-01
DAV:  20    -0.386623628053E+03    0.31359E-03   -0.29748E-03 46680   0.132E-01    0.239E-01
DAV:  21    -0.386623787900E+03   -0.15985E-03   -0.14978E-03 45632   0.770E-02    0.178E-01
DAV:  22    -0.386623783246E+03    0.46540E-05   -0.34944E-04 43504   0.479E-02    0.108E-01
DAV:  23    -0.386623793648E+03   -0.10402E-04   -0.69045E-05 32976   0.240E-02    0.109E-01
DAV:  24    -0.386623785771E+03    0.78768E-05   -0.38597E-05 30000   0.177E-02
  15 F= -.38662379E+03 E0= -.38660984E+03  d E =0.349756E+00  mag=    34.0000
       N       E                     dE             d eps       ncg     rms          rms(c)
DAV:   1    -0.386006866240E+03    0.61693E+00   -0.75538E+01 37536   0.282E+01    0.427E+00
DAV:   2    -0.386900491013E+03   -0.89362E+00   -0.87397E+00 35184   0.564E+00    0.603E+00
DAV:   3    -0.386992831781E+03   -0.92341E-01   -0.21969E+00 52112   0.257E+00    0.680E+00
DAV:   4    -0.387013518229E+03   -0.20686E-01   -0.21755E+00 50640   0.155E+00    0.770E+00
DAV:   5    -0.386912788367E+03    0.10073E+00   -0.59016E-01 49888   0.118E+00    0.282E+00
DAV:   6    -0.386913122957E+03   -0.33459E-03   -0.51970E-02 50280   0.581E-01    0.146E+00
DAV:   7    -0.386927679608E+03   -0.14557E-01   -0.17980E-01 52880   0.702E-01    0.295E+00
DAV:   8    -0.386917523499E+03    0.10156E-01   -0.76673E-02 49128   0.529E-01    0.122E+00
DAV:   9    -0.386919889896E+03   -0.23664E-02   -0.16813E-02 47928   0.427E-01    0.100E+00
DAV:  10    -0.386920286797E+03   -0.39690E-03   -0.81166E-03 49192   0.246E-01    0.669E-01
DAV:  11    -0.386920436708E+03   -0.14991E-03   -0.89762E-03 51144   0.182E-01    0.511E-01
DAV:  12    -0.386920855957E+03   -0.41925E-03   -0.57142E-03 48528   0.168E-01    0.659E-01
DAV:  13    -0.386920443868E+03    0.41209E-03   -0.14937E-03 43720   0.105E-01    0.437E-01
DAV:  14    -0.386920380770E+03    0.63098E-04   -0.10063E-03 46512   0.586E-02    0.178E-01
DAV:  15    -0.386920549748E+03   -0.16898E-03   -0.24081E-04 37616   0.344E-02    0.136E-01
DAV:  16    -0.386920573678E+03   -0.23931E-04   -0.21580E-05 28328   0.128E-02    0.139E-01
DAV:  17    -0.386920558491E+03    0.15187E-04   -0.84849E-05 32168   0.225E-02    0.184E-01
DAV:  18    -0.386920565273E+03   -0.67817E-05   -0.25105E-05 28344   0.176E-02
  16 F= -.38692057E+03 E0= -.38690734E+03  d E =-.296780E+00  mag=    34.0000
       N       E                     dE             d eps       ncg     rms          rms(c)
DAV:   1    -0.386721777569E+03    0.19878E+00   -0.19577E+01 37544   0.143E+01    0.224E+00
DAV:   2    -0.386992557986E+03   -0.27078E+00   -0.26448E+00 35624   0.283E+00    0.593E+00
DAV:   3    -0.386971000226E+03    0.21558E-01   -0.10331E+00 51416   0.143E+00    0.474E+00
DAV:   4    -0.386974470453E+03   -0.34702E-02   -0.48006E-01 49040   0.808E-01    0.325E+00
DAV:   5    -0.386962626484E+03    0.11844E-01   -0.40312E-02 49952   0.467E-01    0.192E+00
DAV:   6    -0.386964454699E+03   -0.18282E-02   -0.50142E-02 49016   0.369E-01    0.162E+00
DAV:   7    -0.386967072732E+03   -0.26180E-02   -0.74515E-02 49440   0.370E-01    0.176E+00
DAV:   8    -0.386966331410E+03    0.74132E-03   -0.10324E-02 46328   0.278E-01    0.157E+00
DAV:   9    -0.386963832599E+03    0.24988E-02   -0.87973E-03 50000   0.178E-01    0.504E-01
DAV:  10    -0.386965603164E+03   -0.17706E-02   -0.65813E-03 47136   0.190E-01    0.755E-01
DAV:  11    -0.386965494739E+03    0.10842E-03   -0.55067E-03 48672   0.174E-01    0.446E-01
DAV:  12    -0.386965590966E+03   -0.96226E-04   -0.26202E-03 48944   0.102E-01    0.253E-01
DAV:  13    -0.386965755790E+03   -0.16482E-03   -0.38431E-04 41176   0.445E-02    0.271E-01
DAV:  14    -0.386965696982E+03    0.58808E-04   -0.15648E-04 36200   0.308E-02    0.337E-01
DAV:  15    -0.386965665623E+03    0.31359E-04   -0.96886E-05 32320   0.251E-02    0.245E-01
DAV:  16    -0.386965645306E+03    0.20317E-04   -0.44074E-04 46032   0.511E-02    0.143E-01
DAV:  17    -0.386965665588E+03   -0.20282E-04   -0.17099E-04 38176   0.266E-02    0.749E-02
DAV:  18    -0.386965670431E+03   -0.48436E-05   -0.37640E-05 28408   0.196E-02
  17 F= -.38696567E+03 E0= -.38695279E+03  d E =-.451052E-01  mag=    34.0000
       N       E                     dE             d eps       ncg     rms          rms(c)
DAV:   1    -0.386968206783E+03   -0.25412E-02   -0.75629E-01 36328   0.263E+00    0.295E-01
DAV:   2    -0.386973080782E+03   -0.48740E-02   -0.50433E-02 35912   0.483E-01    0.264E-01
DAV:   3    -0.386973845734E+03   -0.76495E-03   -0.42181E-03 52160   0.160E-01    0.598E-01
DAV:   4    -0.386973148928E+03    0.69681E-03   -0.17758E-03 49336   0.113E-01    0.142E-01
DAV:   5    -0.386973350687E+03   -0.20176E-03   -0.39689E-04 44088   0.521E-02    0.157E-01
DAV:   6    -0.386973428040E+03   -0.77353E-04   -0.76373E-04 41600   0.487E-02    0.299E-01
DAV:   7    -0.386973339943E+03    0.88097E-04   -0.10055E-03 42488   0.525E-02    0.184E-01
DAV:   8    -0.386973339709E+03    0.23392E-06   -0.33762E-04 40856   0.448E-02    0.841E-02
DAV:   9    -0.386973349325E+03   -0.96152E-05   -0.10835E-04 30280   0.249E-02    0.493E-02
DAV:  10    -0.386973350689E+03   -0.13646E-05   -0.30996E-05 27304   0.149E-02
  18 F= -.38697335E+03 E0= -.38696049E+03  d E =-.768026E-02  mag=    34.0000
       N       E                     dE             d eps       ncg     rms          rms(c)
DAV:   1    -0.386958825663E+03    0.14524E-01   -0.63526E+00 36496   0.712E+00    0.737E-01
DAV:   2    -0.386993142898E+03   -0.34317E-01   -0.35236E-01 35896   0.132E+00    0.168E+00
DAV:   3    -0.386995066892E+03   -0.19240E-02   -0.10673E-01 53248   0.445E-01    0.214E+00
DAV:   4    -0.386990243206E+03    0.48237E-02   -0.23245E-02 47240   0.317E-01    0.684E-01
DAV:   5    -0.386991168792E+03   -0.92559E-03   -0.42800E-03 50552   0.179E-01    0.336E-01
DAV:   6    -0.386991659324E+03   -0.49053E-03   -0.22086E-03 49480   0.128E-01    0.454E-01
DAV:   7    -0.386991511536E+03    0.14779E-03   -0.20666E-03 48696   0.117E-01    0.415E-01
DAV:   8    -0.386991379544E+03    0.13199E-03   -0.22636E-03 50784   0.106E-01    0.319E-01
DAV:   9    -0.386991357650E+03    0.21894E-04   -0.79966E-04 47872   0.751E-02    0.121E-01
DAV:  10    -0.386991429007E+03   -0.71357E-04   -0.30524E-04 42664   0.494E-02    0.111E-01
DAV:  11    -0.386991447619E+03   -0.18612E-04   -0.18153E-04 31032   0.202E-02    0.873E-02
DAV:  12    -0.386991446424E+03    0.11944E-05   -0.11817E-05 23296   0.852E-03
  19 F= -.38699145E+03 E0= -.38697857E+03  d E =-.180957E-01  mag=    34.0000
       N       E                     dE             d eps       ncg     rms          rms(c)
DAV:   1    -0.386986831491E+03    0.46161E-02   -0.37038E+00 36400   0.488E+00    0.491E-01
DAV:   2    -0.387001874907E+03   -0.15043E-01   -0.15994E-01 35392   0.875E-01    0.566E-01
DAV:   3    -0.387005124318E+03   -0.32494E-02   -0.24168E-02 51984   0.270E-01    0.180E+00
DAV:   4    -0.387000962202E+03    0.41621E-02   -0.20783E-02 48664   0.220E-01    0.534E-01
DAV:   5    -0.387001745792E+03   -0.78359E-03   -0.28047E-03 45448   0.123E-01    0.241E-01
DAV:   6    -0.387001908724E+03   -0.16293E-03   -0.10681E-03 46904   0.921E-02    0.252E-01
DAV:   7    -0.387001832932E+03    0.75792E-04   -0.95648E-04 50696   0.728E-02    0.145E-01
DAV:   8    -0.387001921722E+03   -0.88790E-04   -0.51374E-04 41696   0.392E-02    0.159E-01
DAV:   9    -0.387001904282E+03    0.17441E-04   -0.54683E-05 28704   0.193E-02    0.146E-01
DAV:  10    -0.387001876723E+03    0.27559E-04   -0.31996E-05 28256   0.164E-02    0.167E-01
DAV:  11    -0.387001876938E+03   -0.21467E-06   -0.50738E-06 22376   0.710E-03
  20 F= -.38700188E+03 E0= -.38698915E+03  d E =-.104305E-01  mag=    34.0000
       N       E                     dE             d eps       ncg     rms          rms(c)
DAV:   1    -0.385995648427E+03    0.10062E+01   -0.22503E+02 36104   0.372E+01    0.386E+00
DAV:   2    -0.387209042449E+03   -0.12134E+01   -0.12484E+01 36376   0.702E+00    0.143E+01
DAV:   3    -0.387010366785E+03    0.19868E+00   -0.50965E+00 48840   0.222E+00    0.538E+00
DAV:   4    -0.387071979534E+03   -0.61613E-01   -0.49700E-01 49560   0.138E+00    0.534E+00
DAV:   5    -0.387033090730E+03    0.38889E-01   -0.37410E-01 50128   0.107E+00    0.376E+00
DAV:   6    -0.387024328159E+03    0.87626E-02   -0.21786E-01 51568   0.786E-01    0.246E+00
DAV:   7    -0.387046259985E+03   -0.21932E-01   -0.20007E-01 50656   0.639E-01    0.410E+00
DAV:   8    -0.387033842015E+03    0.12418E-01   -0.12265E-02 43768   0.362E-01    0.389E+00
DAV:   9    -0.387026893164E+03    0.69489E-02   -0.14848E-03 43904   0.995E-02    0.357E+00
DAV:  10    -0.387015192779E+03    0.11700E-01   -0.57885E-02 51288   0.384E-01    0.145E+00
DAV:  11    -0.387025965397E+03   -0.10773E-01   -0.33151E-02 47544   0.335E-01    0.113E+00
DAV:  12    -0.387027236606E+03   -0.12712E-02   -0.16210E-02 47648   0.290E-01    0.839E-01
DAV:  13    -0.387028224755E+03   -0.98815E-03   -0.44752E-03 47896   0.158E-01    0.125E+00
DAV:  14    -0.387027662841E+03    0.56191E-03   -0.43119E-04 36712   0.556E-02    0.134E+00
DAV:  15    -0.387028823764E+03   -0.11609E-02   -0.42950E-03 50552   0.168E-01    0.163E+00
DAV:  16    -0.387027501869E+03    0.13219E-02   -0.52330E-03 47176   0.162E-01    0.151E+00
DAV:  17    -0.387028216895E+03   -0.71503E-03   -0.20021E-03 48728   0.133E-01    0.154E+00
DAV:  18    -0.387027229224E+03    0.98767E-03   -0.65864E-04 45192   0.744E-02    0.133E+00
DAV:  19    -0.387027641768E+03   -0.41254E-03   -0.88710E-05 36672   0.215E-02    0.129E+00
DAV:  20    -0.387027678128E+03   -0.36360E-04   -0.49449E-05 30424   0.200E-02    0.123E+00
DAV:  21    -0.387027216198E+03    0.46193E-03   -0.31817E-04 47240   0.449E-02    0.101E+00
DAV:  22    -0.387026972592E+03    0.24361E-03   -0.10580E-03 46496   0.655E-02    0.682E-01
DAV:  23    -0.387026859272E+03    0.11332E-03   -0.66516E-04 47560   0.661E-02    0.338E-01
DAV:  24    -0.387027139978E+03   -0.28071E-03   -0.15759E-04 37648   0.327E-02    0.289E-01
DAV:  25    -0.387027154120E+03   -0.14142E-04   -0.35874E-05 31744   0.173E-02    0.236E-01
DAV:  26    -0.387027169478E+03   -0.15358E-04   -0.14321E-05 24824   0.102E-02    0.226E-01
DAV:  27    -0.387027168851E+03    0.62745E-06   -0.11435E-05 19704   0.931E-03
  21 F= -.38702717E+03 E0= -.38701463E+03  d E =-.252919E-01  mag=    34.0000
       N       E                     dE             d eps       ncg     rms          rms(c)
DAV:   1    -0.381108481206E+03    0.59187E+01   -0.49817E+02 36864   0.691E+01    0.190E+01
DAV:   2    -0.412951071573E+03   -0.31843E+02   -0.13853E+02 47240   0.220E+01    0.774E+01
DAV:   3    -0.385283657021E+03    0.27667E+02   -0.22027E+01 46944   0.129E+01    0.288E+01
DAV:   4    -0.386500629630E+03   -0.12170E+01   -0.29498E+01 49880   0.836E+00    0.211E+01
DAV:   5    -0.386512787928E+03   -0.12158E-01   -0.99671E+00 49040   0.413E+00    0.199E+01
DAV:   6    -0.386052181491E+03    0.46061E+00   -0.18336E+00 48064   0.223E+00    0.135E+01
DAV:   7    -0.386013757147E+03    0.38424E-01   -0.10745E+00 50064   0.107E+00    0.108E+01
DAV:   8    -0.386048956960E+03   -0.35200E-01   -0.46579E-01 50288   0.169E+00    0.675E+00
DAV:   9    -0.386239545622E+03   -0.19059E+00   -0.94654E-01 48888   0.159E+00    0.933E+00
DAV:  10    -0.386137258375E+03    0.10229E+00   -0.74255E-01 50592   0.168E+00    0.657E+00
DAV:  11    -0.386079175136E+03    0.58083E-01   -0.52163E-01 49824   0.128E+00    0.592E+00
DAV:  12    -0.386028928939E+03    0.50246E-01   -0.27018E-01 49600   0.115E+00    0.553E+00
DAV:  13    -0.385988453730E+03    0.40475E-01   -0.51345E-01 50064   0.108E+00    0.603E+00
DAV:  14    -0.386070154759E+03   -0.81701E-01   -0.81736E-02 45936   0.607E-01    0.693E+00
DAV:  15    -0.386040983145E+03    0.29172E-01   -0.14963E-02 43480   0.287E-01    0.807E+00
DAV:  16    -0.386030187989E+03    0.10795E-01   -0.15421E-03 40976   0.112E-01    0.820E+00
DAV:  17    -0.386031850818E+03   -0.16628E-02   -0.41626E-02 52064   0.491E-01    0.619E+00
DAV:  18    -0.386045046663E+03   -0.13196E-01   -0.47822E-02 48200   0.596E-01    0.489E+00
DAV:  19    -0.386048928850E+03   -0.38822E-02   -0.29509E-02 47552   0.320E-01    0.481E+00
DAV:  20    -0.386051028667E+03   -0.20998E-02   -0.54030E-03 44848   0.209E-01    0.496E+00
DAV:  21    -0.386055516816E+03   -0.44881E-02   -0.18051E-02 48328   0.284E-01    0.510E+00
DAV:  22    -0.386048432280E+03    0.70845E-02   -0.84164E-03 45864   0.276E-01    0.432E+00
DAV:  23    -0.386062702430E+03   -0.14270E-01   -0.38041E-02 47864   0.456E-01    0.248E+00
DAV:  24    -0.386067996430E+03   -0.52940E-02   -0.15511E-02 46592   0.346E-01    0.164E+00
DAV:  25    -0.386067397036E+03    0.59939E-03   -0.79461E-03 47944   0.215E-01    0.121E+00
DAV:  26    -0.386068386485E+03   -0.98945E-03   -0.42676E-03 45200   0.167E-01    0.103E+00
DAV:  27    -0.386069360261E+03   -0.97378E-03   -0.16958E-03 44664   0.117E-01    0.101E+00
DAV:  28    -0.386068842612E+03    0.51765E-03   -0.99047E-04 45032   0.926E-02    0.748E-01
DAV:  29    -0.386068906345E+03   -0.63733E-04   -0.12332E-03 47008   0.845E-02    0.469E-01
DAV:  30    -0.386069573772E+03   -0.66743E-03   -0.63072E-04 45840   0.829E-02    0.353E-01
DAV:  31    -0.386069672807E+03   -0.99035E-04   -0.40351E-04 44712   0.532E-02    0.204E-01
DAV:  32    -0.386069843337E+03   -0.17053E-03   -0.22997E-04 40712   0.401E-02    0.244E-01
DAV:  33    -0.386069811894E+03    0.31443E-04   -0.21377E-04 39952   0.471E-02    0.120E-01
DAV:  34    -0.386069846249E+03   -0.34354E-04   -0.10883E-04 34656   0.201E-02    0.630E-02
DAV:  35    -0.386069865397E+03   -0.19148E-04   -0.39347E-05 27936   0.199E-02    0.263E-02
DAV:  36    -0.386069869491E+03   -0.40946E-05   -0.85650E-06 24312   0.115E-02
  22 F= -.38606987E+03 E0= -.38605643E+03  d E =0.957299E+00  mag=    33.9960
       N       E                     dE             d eps       ncg     rms          rms(c)
DAV:   1    -0.383479077869E+03    0.25908E+01   -0.32454E+02 38704   0.458E+01    0.102E+01
DAV:   2    -0.394116164930E+03   -0.10637E+02   -0.62976E+01 45264   0.129E+01    0.548E+01
DAV:   3    -0.386320202235E+03    0.77960E+01   -0.12871E+01 48504   0.948E+00    0.984E+00
DAV:   4    -0.386842167737E+03   -0.52197E+00   -0.62609E-01 43920   0.216E+00    0.730E+00
DAV:   5    -0.386901142930E+03   -0.58975E-01   -0.54027E-01 49616   0.177E+00    0.814E+00
DAV:   6    -0.386972776420E+03   -0.71633E-01   -0.19292E+00 50496   0.238E+00    0.730E+00
DAV:   7    -0.387068020561E+03   -0.95244E-01   -0.24295E+00 49096   0.209E+00    0.985E+00
DAV:   8    -0.386974034042E+03    0.93987E-01   -0.36761E-01 46072   0.868E-01    0.716E+00
DAV:   9    -0.387030323284E+03   -0.56289E-01   -0.31367E-01 49336   0.781E-01    0.942E+00
DAV:  10    -0.386999435509E+03    0.30888E-01   -0.23276E-02 42464   0.389E-01    0.102E+01
DAV:  11    -0.386982913951E+03    0.16522E-01   -0.22691E-02 49848   0.320E-01    0.969E+00
DAV:  12    -0.386966025000E+03    0.16889E-01   -0.10800E-01 51368   0.753E-01    0.844E+00
DAV:  13    -0.386894626537E+03    0.71398E-01   -0.38646E-01 50216   0.101E+00    0.665E+00
DAV:  14    -0.386874391958E+03    0.20235E-01   -0.79409E-02 49576   0.972E-01    0.449E+00
DAV:  15    -0.386919224190E+03   -0.44832E-01   -0.40583E-02 46968   0.593E-01    0.301E+00
DAV:  16    -0.386940925456E+03   -0.21701E-01   -0.26078E-02 48592   0.374E-01    0.247E+00
DAV:  17    -0.386939951786E+03    0.97367E-03   -0.49057E-03 39400   0.184E-01    0.237E+00
DAV:  18    -0.386940531543E+03   -0.57976E-03   -0.50668E-04 42632   0.572E-02    0.245E+00
DAV:  19    -0.386936759408E+03    0.37721E-02   -0.18595E-02 52176   0.283E-01    0.276E+00
DAV:  20    -0.386940701399E+03   -0.39420E-02   -0.14083E-02 46248   0.304E-01    0.205E+00
DAV:  21    -0.386944120702E+03   -0.34193E-02   -0.70249E-03 49416   0.268E-01    0.131E+00
DAV:  22    -0.386946787819E+03   -0.26671E-02   -0.26914E-03 42552   0.136E-01    0.117E+00
DAV:  23    -0.386947695561E+03   -0.90774E-03   -0.21186E-03 49016   0.119E-01    0.848E-01
DAV:  24    -0.386949446087E+03   -0.17505E-02   -0.96963E-04 44400   0.110E-01    0.552E-01
DAV:  25    -0.386950049897E+03   -0.60381E-03   -0.73632E-04 45056   0.798E-02    0.314E-01
DAV:  26    -0.386950304339E+03   -0.25444E-03   -0.24597E-04 41968   0.434E-02    0.208E-01
DAV:  27    -0.386950344425E+03   -0.40087E-04   -0.24478E-04 39320   0.416E-02    0.151E-01
DAV:  28    -0.386950381954E+03   -0.37529E-04   -0.13679E-04 39936   0.355E-02    0.820E-02
DAV:  29    -0.386950392943E+03   -0.10989E-04   -0.36033E-05 31888   0.195E-02    0.381E-02
DAV:  30    -0.386950398405E+03   -0.54619E-05   -0.17669E-05 26440   0.119E-02
  23 F= -.38695040E+03 E0= -.38693814E+03  d E =-.880529E+00  mag=    33.9843
       N       E                     dE             d eps       ncg     rms          rms(c)
DAV:   1    -0.386852200908E+03    0.98192E-01   -0.99931E+00 38440   0.116E+01    0.175E+00
DAV:   2    -0.387052344332E+03   -0.20014E+00   -0.19437E+00 38984   0.237E+00    0.918E+00
DAV:   3    -0.386949888580E+03    0.10246E+00   -0.14889E+00 46344   0.114E+00    0.279E+00
DAV:   4    -0.386998724606E+03   -0.48836E-01   -0.22540E-01 47704   0.782E-01    0.344E+00
DAV:   5    -0.386978905184E+03    0.19819E-01   -0.10795E-01 48064   0.590E-01    0.144E+00
DAV:   6    -0.386981407950E+03   -0.25028E-02   -0.17969E-02 48824   0.344E-01    0.112E+00
DAV:   7    -0.386982826459E+03   -0.14185E-02   -0.16207E-02 48792   0.239E-01    0.862E-01
DAV:   8    -0.386983766430E+03   -0.93997E-03   -0.28909E-03 46160   0.168E-01    0.783E-01
DAV:   9    -0.386983400839E+03    0.36559E-03   -0.21528E-03 47448   0.100E-01    0.466E-01
DAV:  10    -0.386983631032E+03   -0.23019E-03   -0.32373E-03 48256   0.124E-01    0.429E-01
DAV:  11    -0.386983866976E+03   -0.23594E-03   -0.35014E-03 48648   0.142E-01    0.415E-01
DAV:  12    -0.386983728657E+03    0.13832E-03   -0.14419E-03 48864   0.960E-02    0.245E-01
DAV:  13    -0.386983764475E+03   -0.35819E-04   -0.70299E-04 47896   0.574E-02    0.273E-01
DAV:  14    -0.386983775441E+03   -0.10966E-04   -0.65270E-05 35328   0.226E-02    0.277E-01
DAV:  15    -0.386983789229E+03   -0.13788E-04   -0.14081E-05 26776   0.105E-02    0.319E-01
DAV:  16    -0.386983711072E+03    0.78157E-04   -0.55533E-04 43936   0.490E-02    0.121E-01
DAV:  17    -0.386983748864E+03   -0.37792E-04   -0.12822E-04 38432   0.311E-02    0.671E-02
DAV:  18    -0.386983765412E+03   -0.16548E-04   -0.54534E-05 36784   0.231E-02    0.505E-02
DAV:  19    -0.386983763667E+03    0.17446E-05   -0.19414E-05 28720   0.139E-02
  24 F= -.38698376E+03 E0= -.38697140E+03  d E =-.333653E-01  mag=    33.9979
       N       E                     dE             d eps       ncg     rms          rms(c)
DAV:   1    -0.386939284802E+03    0.44481E-01   -0.63143E+00 37320   0.886E+00    0.121E+00
DAV:   2    -0.387019508952E+03   -0.80224E-01   -0.78700E-01 36392   0.173E+00    0.331E+00
DAV:   3    -0.387010948456E+03    0.85605E-02   -0.28851E-01 48728   0.798E-01    0.200E+00
DAV:   4    -0.387023193583E+03   -0.12245E-01   -0.13561E-01 48608   0.493E-01    0.276E+00
DAV:   5    -0.387009388346E+03    0.13805E-01   -0.45501E-02 46704   0.366E-01    0.592E-01
DAV:   6    -0.387012583242E+03   -0.31949E-02   -0.38099E-03 48144   0.186E-01    0.463E-01
DAV:   7    -0.387013064321E+03   -0.48108E-03   -0.29150E-03 50200   0.135E-01    0.352E-01
DAV:   8    -0.387013424938E+03   -0.36062E-03   -0.19586E-03 48832   0.125E-01    0.477E-01
DAV:   9    -0.387013135063E+03    0.28988E-03   -0.15120E-03 49232   0.112E-01    0.288E-01
DAV:  10    -0.387013135046E+03    0.16422E-07   -0.11321E-03 47304   0.792E-02    0.155E-01
DAV:  11    -0.387013186652E+03   -0.51605E-04   -0.38373E-04 44728   0.451E-02    0.103E-01
DAV:  12    -0.387013184594E+03    0.20578E-05   -0.43809E-05 31480   0.201E-02
  25 F= -.38701318E+03 E0= -.38700052E+03  d E =-.294209E-01  mag=    33.9994
       N       E                     dE             d eps       ncg     rms          rms(c)
DAV:   1    -0.386991856958E+03    0.21330E-01   -0.41934E+00 36624   0.512E+00    0.132E+00
DAV:   2    -0.387107823158E+03   -0.11597E+00   -0.12546E+00 45960   0.146E+00    0.602E+00
DAV:   3    -0.387017175346E+03    0.90648E-01   -0.25879E-01 47128   0.110E+00    0.170E+00
DAV:   4    -0.387028752138E+03   -0.11577E-01   -0.41909E-02 47912   0.445E-01    0.102E+00
DAV:   5    -0.387030793147E+03   -0.20410E-02   -0.18640E-02 47576   0.292E-01    0.922E-01
DAV:   6    -0.387030259289E+03    0.53386E-03   -0.97852E-03 48328   0.209E-01    0.467E-01
DAV:   7    -0.387030376997E+03   -0.11771E-03   -0.20970E-03 48184   0.135E-01    0.350E-01
DAV:   8    -0.387030567048E+03   -0.19005E-03   -0.22340E-03 49080   0.121E-01    0.412E-01
DAV:   9    -0.387030282462E+03    0.28459E-03   -0.15524E-03 49560   0.912E-02    0.163E-01
DAV:  10    -0.387030353720E+03   -0.71258E-04   -0.39107E-04 44400   0.491E-02    0.113E-01
DAV:  11    -0.387030349915E+03    0.38050E-05   -0.16759E-04 34192   0.325E-02    0.581E-02
DAV:  12    -0.387030369869E+03   -0.19954E-04   -0.16205E-04 31872   0.211E-02    0.107E-01
DAV:  13    -0.387030366561E+03    0.33081E-05   -0.13707E-04 30560   0.200E-02    0.530E-02
DAV:  14    -0.387030372085E+03   -0.55237E-05   -0.15143E-05 25224   0.113E-02
  26 F= -.38703037E+03 E0= -.38701766E+03  d E =-.171875E-01  mag=    33.9999
       N       E                     dE             d eps       ncg     rms          rms(c)
DAV:   1    -0.386997707968E+03    0.32659E-01   -0.53936E+00 36720   0.562E+00    0.144E+00
DAV:   2    -0.387136857774E+03   -0.13915E+00   -0.15783E+00 45720   0.165E+00    0.650E+00
DAV:   3    -0.387023824375E+03    0.11303E+00   -0.31515E-01 46928   0.124E+00    0.230E+00
DAV:   4    -0.387031954485E+03   -0.81301E-02   -0.58618E-02 48464   0.469E-01    0.947E-01
DAV:   5    -0.387035628678E+03   -0.36742E-02   -0.15265E-02 46560   0.300E-01    0.860E-01
DAV:   6    -0.387035302187E+03    0.32649E-03   -0.76598E-03 47112   0.203E-01    0.474E-01
DAV:   7    -0.387035601056E+03   -0.29887E-03   -0.28031E-03 48664   0.141E-01    0.533E-01
DAV:   8    -0.387035728148E+03   -0.12709E-03   -0.47641E-03 48592   0.154E-01    0.592E-01
DAV:   9    -0.387035195102E+03    0.53305E-03   -0.29053E-03 49808   0.126E-01    0.173E-01
DAV:  10    -0.387035353081E+03   -0.15798E-03   -0.49233E-04 46952   0.609E-02    0.103E-01
DAV:  11    -0.387035373069E+03   -0.19988E-04   -0.13007E-04 36136   0.321E-02    0.576E-02
DAV:  12    -0.387035373882E+03   -0.81280E-06   -0.48824E-05 29432   0.148E-02
  27 F= -.38703537E+03 E0= -.38702259E+03  d E =-.500180E-02  mag=    34.0000
       N       E                     dE             d eps       ncg     rms          rms(c)
DAV:   1    -0.387029364726E+03    0.60083E-02   -0.19965E+00 36352   0.384E+00    0.375E-01
DAV:   2    -0.387038378552E+03   -0.90138E-02   -0.92696E-02 35136   0.688E-01    0.463E-01
DAV:   3    -0.387040765758E+03   -0.23872E-02   -0.19331E-02 50672   0.219E-01    0.148E+00
DAV:   4    -0.387037585774E+03    0.31800E-02   -0.96759E-03 47976   0.165E-01    0.297E-01
DAV:   5    -0.387038460568E+03   -0.87479E-03   -0.10765E-03 46688   0.805E-02    0.226E-01
DAV:   6    -0.387038535198E+03   -0.74631E-04   -0.33047E-04 45312   0.582E-02    0.174E-01
DAV:   7    -0.387038540172E+03   -0.49740E-05   -0.58593E-04 48552   0.560E-02    0.187E-01
DAV:   8    -0.387038491099E+03    0.49073E-04   -0.46428E-04 45432   0.531E-02    0.113E-01
DAV:   9    -0.387038529850E+03   -0.38752E-04   -0.35800E-04 40000   0.400E-02    0.118E-01
DAV:  10    -0.387038536148E+03   -0.62981E-05   -0.17067E-04 30184   0.285E-02    0.873E-02
DAV:  11    -0.387038541770E+03   -0.56219E-05   -0.22432E-05 23568   0.115E-02
  28 F= -.38703854E+03 E0= -.38702581E+03  d E =-.316789E-02  mag=    34.0000
       N       E                     dE             d eps       ncg     rms          rms(c)
DAV:   1    -0.386957414978E+03    0.81121E-01   -0.20707E+01 36576   0.120E+01    0.110E+00
DAV:   2    -0.387041941235E+03   -0.84526E-01   -0.87594E-01 34952   0.213E+00    0.968E-01
DAV:   3    -0.387060092540E+03   -0.18151E-01   -0.17586E-01 50848   0.543E-01    0.375E+00
DAV:   4    -0.387037362137E+03    0.22730E-01   -0.87224E-02 48472   0.481E-01    0.752E-01
DAV:   5    -0.387043359597E+03   -0.59975E-02   -0.87552E-03 48456   0.216E-01    0.627E-01
DAV:   6    -0.387044082872E+03   -0.72327E-03   -0.61399E-03 47096   0.184E-01    0.757E-01
DAV:   7    -0.387043878877E+03    0.20399E-03   -0.62850E-03 49432   0.198E-01    0.764E-01
DAV:   8    -0.387043128542E+03    0.75033E-03   -0.20897E-03 48936   0.146E-01    0.364E-01
DAV:   9    -0.387043354008E+03   -0.22547E-03   -0.19290E-03 48432   0.891E-02    0.279E-01
DAV:  10    -0.387043386624E+03   -0.32616E-04   -0.86879E-04 44408   0.728E-02    0.201E-01
DAV:  11    -0.387043449160E+03   -0.62536E-04   -0.66811E-04 42776   0.486E-02    0.129E-01
DAV:  12    -0.387043490148E+03   -0.40988E-04   -0.25112E-04 34200   0.378E-02    0.123E-01
DAV:  13    -0.387043505690E+03   -0.15542E-04   -0.96549E-05 34072   0.249E-02    0.114E-01
DAV:  14    -0.387043503508E+03    0.21827E-05   -0.42324E-05 30152   0.184E-02
  29 F= -.38704350E+03 E0= -.38703082E+03  d E =-.496174E-02  mag=    34.0000
       N       E                     dE             d eps       ncg     rms          rms(c)
DAV:   1    -0.386128672899E+03    0.91483E+00   -0.21100E+02 36384   0.377E+01    0.347E+00
DAV:   2    -0.387044877154E+03   -0.91620E+00   -0.95746E+00 34984   0.679E+00    0.423E+00
DAV:   3    -0.387179023354E+03   -0.13415E+00   -0.25649E+00 50312   0.198E+00    0.751E+00
DAV:   4    -0.387063861035E+03    0.11516E+00   -0.82152E-01 50352   0.147E+00    0.488E+00
DAV:   5    -0.387036520965E+03    0.27340E-01   -0.23701E-01 51056   0.792E-01    0.200E+00
DAV:   6    -0.387041804509E+03   -0.52835E-02   -0.54863E-02 49592   0.600E-01    0.150E+00
DAV:   7    -0.387054051390E+03   -0.12247E-01   -0.10356E-01 51176   0.588E-01    0.358E+00
DAV:   8    -0.387039711846E+03    0.14340E-01   -0.25280E-02 48256   0.460E-01    0.303E+00
DAV:   9    -0.387029934432E+03    0.97774E-02   -0.25509E-02 50680   0.294E-01    0.135E+00
DAV:  10    -0.387036417203E+03   -0.64828E-02   -0.38902E-02 48496   0.349E-01    0.143E+00
DAV:  11    -0.387039987296E+03   -0.35701E-02   -0.17152E-02 44552   0.260E-01    0.119E+00
DAV:  12    -0.387039834214E+03    0.15308E-03   -0.50715E-03 46560   0.152E-01    0.919E-01
DAV:  13    -0.387041201715E+03   -0.13675E-02   -0.26995E-03 47984   0.125E-01    0.113E+00
DAV:  14    -0.387040970648E+03    0.23107E-03   -0.10452E-03 45760   0.929E-02    0.118E+00
DAV:  15    -0.387039384030E+03    0.15866E-02   -0.31466E-03 47936   0.973E-02    0.489E-01
DAV:  16    -0.387040294371E+03   -0.91034E-03   -0.11322E-03 42992   0.911E-02    0.176E-01
DAV:  17    -0.387040598491E+03   -0.30412E-03   -0.37838E-04 41800   0.513E-02    0.886E-02
DAV:  18    -0.387040663509E+03   -0.65018E-04   -0.13720E-04 38632   0.335E-02    0.909E-02
DAV:  19    -0.387040660580E+03    0.29293E-05   -0.53751E-05 30512   0.206E-02
  30 F= -.38704066E+03 E0= -.38702812E+03  d E =0.284293E-02  mag=    34.0000
       N       E                     dE             d eps       ncg     rms          rms(c)
DAV:   1    -0.386801982889E+03    0.23868E+00   -0.51149E+01 36576   0.195E+01    0.183E+00
DAV:   2    -0.387027726305E+03   -0.22574E+00   -0.23665E+00 35008   0.350E+00    0.241E+00
DAV:   3    -0.387076863693E+03   -0.49137E-01   -0.81713E-01 50680   0.107E+00    0.599E+00
DAV:   4    -0.387016868679E+03    0.59995E-01   -0.28040E-01 49344   0.832E-01    0.211E+00
DAV:   5    -0.387024746722E+03   -0.78780E-02   -0.31914E-02 51184   0.399E-01    0.852E-01
DAV:   6    -0.387027956384E+03   -0.32097E-02   -0.14668E-02 47160   0.317E-01    0.974E-01
DAV:   7    -0.387029300126E+03   -0.13437E-02   -0.25415E-02 51504   0.334E-01    0.151E+00
DAV:   8    -0.387026382617E+03    0.29175E-02   -0.56867E-03 47880   0.250E-01    0.104E+00
DAV:   9    -0.387025709252E+03    0.67336E-03   -0.75933E-03 50568   0.190E-01    0.514E-01
DAV:  10    -0.387026605045E+03   -0.89579E-03   -0.55537E-03 46616   0.154E-01    0.514E-01
DAV:  11    -0.387026910255E+03   -0.30521E-03   -0.20960E-03 44512   0.107E-01    0.385E-01
DAV:  12    -0.387026877173E+03    0.33081E-04   -0.46493E-04 41624   0.434E-02    0.323E-01
DAV:  13    -0.387026874232E+03    0.29412E-05   -0.36534E-05 29384   0.144E-02
  31 F= -.38702687E+03 E0= -.38701430E+03  d E =0.137863E-01  mag=    34.0000
       N       E                     dE             d eps       ncg     rms          rms(c)
DAV:   1    -0.386974222364E+03    0.52655E-01   -0.97432E+00 36544   0.912E+00    0.109E+00
DAV:   2    -0.387048197571E+03   -0.73975E-01   -0.71314E-01 37112   0.174E+00    0.374E+00
DAV:   3    -0.387027981367E+03    0.20216E-01   -0.16266E-01 48704   0.623E-01    0.159E+00
DAV:   4    -0.387034687859E+03   -0.67065E-02   -0.24796E-02 47160   0.333E-01    0.118E+00
DAV:   5    -0.387033586599E+03    0.11013E-02   -0.20141E-03 48248   0.111E-01    0.103E+00
DAV:   6    -0.387033924596E+03   -0.33800E-03   -0.70448E-03 48160   0.160E-01    0.139E+00
DAV:   7    -0.387033317842E+03    0.60675E-03   -0.17953E-03 45072   0.101E-01    0.128E+00
DAV:   8    -0.387033491059E+03   -0.17322E-03   -0.34442E-03 44552   0.145E-01    0.993E-01
DAV:   9    -0.387034442663E+03   -0.95160E-03   -0.22624E-02 49272   0.277E-01    0.113E+00
DAV:  10    -0.387033826588E+03    0.61608E-03   -0.72124E-03 47800   0.181E-01    0.841E-01
DAV:  11    -0.387033594009E+03    0.23258E-03   -0.28915E-03 48176   0.109E-01    0.460E-01
DAV:  12    -0.387034044326E+03   -0.45032E-03   -0.14310E-03 46960   0.116E-01    0.477E-01
DAV:  13    -0.387034002979E+03    0.41346E-04   -0.12617E-03 48544   0.105E-01    0.233E-01
DAV:  14    -0.387034054492E+03   -0.51513E-04   -0.77121E-04 48992   0.831E-02    0.212E-01
DAV:  15    -0.387034015002E+03    0.39490E-04   -0.15327E-04 43432   0.372E-02    0.918E-02
DAV:  16    -0.387034025746E+03   -0.10744E-04   -0.43029E-05 32224   0.168E-02    0.596E-02
DAV:  17    -0.387034032170E+03   -0.64236E-05   -0.12055E-05 24488   0.116E-02
  32 F= -.38703403E+03 E0= -.38702132E+03  d E =-.715794E-02  mag=    34.0000
       N       E                     dE             d eps       ncg     rms          rms(c)
DAV:   1    -0.386971097084E+03    0.62929E-01   -0.19186E+01 36608   0.111E+01    0.976E-01
DAV:   2    -0.387045804371E+03   -0.74707E-01   -0.75115E-01 35096   0.197E+00    0.278E+00
DAV:   3    -0.387040756942E+03    0.50474E-02   -0.18932E-01 50000   0.569E-01    0.216E+00
DAV:   4    -0.387039435733E+03    0.13212E-02   -0.20545E-02 46448   0.343E-01    0.964E-01
DAV:   5    -0.387039232254E+03    0.20348E-03   -0.58007E-03 50560   0.195E-01    0.548E-01
DAV:   6    -0.387039727492E+03   -0.49524E-03   -0.35281E-03 48928   0.145E-01    0.666E-01
DAV:   7    -0.387039649019E+03    0.78473E-04   -0.26546E-03 47584   0.129E-01    0.762E-01
DAV:   8    -0.387039069178E+03    0.57984E-03   -0.16757E-03 49224   0.113E-01    0.641E-01
DAV:   9    -0.387038972352E+03    0.96826E-04   -0.41170E-03 50336   0.126E-01    0.487E-01
DAV:  10    -0.387039535484E+03   -0.56313E-03   -0.36033E-03 45744   0.124E-01    0.620E-01
DAV:  11    -0.387039251938E+03    0.28355E-03   -0.16548E-03 42800   0.782E-02    0.291E-01
DAV:  12    -0.387039439537E+03   -0.18760E-03   -0.28077E-04 37192   0.390E-02    0.255E-01
DAV:  13    -0.387039489401E+03   -0.49864E-04   -0.61649E-05 32040   0.202E-02    0.229E-01
DAV:  14    -0.387039542761E+03   -0.53360E-04   -0.25515E-04 41080   0.418E-02    0.178E-01
DAV:  15    -0.387039495945E+03    0.46816E-04   -0.19361E-04 40824   0.405E-02    0.542E-02
DAV:  16    -0.387039512822E+03   -0.16877E-04   -0.49880E-05 35400   0.189E-02    0.231E-02
DAV:  17    -0.387039516889E+03   -0.40667E-05   -0.10740E-05 23136   0.997E-03
  33 F= -.38703952E+03 E0= -.38702677E+03  d E =-.548472E-02  mag=    34.0000
       N       E                     dE             d eps       ncg     rms          rms(c)
DAV:   1    -0.386576936731E+03    0.46258E+00   -0.13403E+02 36560   0.293E+01    0.251E+00
DAV:   2    -0.387069175289E+03   -0.49224E+00   -0.51080E+00 34944   0.514E+00    0.231E+00
DAV:   3    -0.387130145290E+03   -0.60970E-01   -0.87636E-01 51104   0.149E+00    0.645E+00
DAV:   4    -0.387070296818E+03    0.59848E-01   -0.72111E-01 50536   0.101E+00    0.349E+00
DAV:   5    -0.387068716710E+03    0.15801E-02   -0.48364E-02 49560   0.577E-01    0.157E+00
DAV:   6    -0.387068834185E+03   -0.11747E-03   -0.28018E-02 51928   0.399E-01    0.165E+00
DAV:   7    -0.387067763625E+03    0.10706E-02   -0.18542E-02 49440   0.314E-01    0.128E+00
DAV:   8    -0.387066373383E+03    0.13902E-02   -0.21046E-02 48792   0.381E-01    0.101E+00
DAV:   9    -0.387068656697E+03   -0.22833E-02   -0.24099E-02 49288   0.348E-01    0.116E+00
DAV:  10    -0.387068017842E+03    0.63886E-03   -0.91504E-03 46392   0.218E-01    0.715E-01
DAV:  11    -0.387067932170E+03    0.85673E-04   -0.15126E-03 47840   0.117E-01    0.539E-01
DAV:  12    -0.387068228372E+03   -0.29620E-03   -0.89619E-04 46048   0.933E-02    0.565E-01
DAV:  13    -0.387068367134E+03   -0.13876E-03   -0.79290E-04 47784   0.793E-02    0.644E-01
DAV:  14    -0.387067854170E+03    0.51296E-03   -0.81215E-04 47560   0.801E-02    0.365E-01
DAV:  15    -0.387067944830E+03   -0.90660E-04   -0.12028E-03 46848   0.598E-02    0.211E-01
DAV:  16    -0.387068088704E+03   -0.14387E-03   -0.20520E-04 37736   0.488E-02    0.911E-02
DAV:  17    -0.387068102028E+03   -0.13325E-04   -0.56790E-05 31416   0.220E-02    0.374E-02
DAV:  18    -0.387068109397E+03   -0.73686E-05   -0.14680E-05 26712   0.138E-02
  34 F= -.38706811E+03 E0= -.38705544E+03  d E =-.285925E-01  mag=    34.0000
       N       E                     dE             d eps       ncg     rms          rms(c)
DAV:   1    -0.385345869725E+03    0.17222E+01   -0.12646E+02 38384   0.389E+01    0.727E+00
DAV:   2    -0.388090399963E+03   -0.27445E+01   -0.30440E+01 46064   0.993E+00    0.189E+01
DAV:   3    -0.386936599475E+03    0.11538E+01   -0.75245E+00 48488   0.580E+00    0.947E+00
DAV:   4    -0.386959429518E+03   -0.22830E-01   -0.46741E+00 49392   0.260E+00    0.673E+00
DAV:   5    -0.386911625959E+03    0.47804E-01   -0.14561E+00 48976   0.167E+00    0.837E+00
DAV:   6    -0.386856942893E+03    0.54683E-01   -0.95855E-01 48704   0.110E+00    0.389E+00
DAV:   7    -0.386911059758E+03   -0.54117E-01   -0.19884E-01 49040   0.770E-01    0.535E+00
DAV:   8    -0.386915192866E+03   -0.41331E-02   -0.16394E-02 44392   0.360E-01    0.525E+00
DAV:   9    -0.386908589014E+03    0.66039E-02   -0.13239E-03 42568   0.100E-01    0.535E+00
DAV:  10    -0.386904589320E+03    0.39997E-02   -0.33433E-02 52528   0.540E-01    0.295E+00
DAV:  11    -0.386924844080E+03   -0.20255E-01   -0.10004E-01 48600   0.750E-01    0.225E+00
DAV:  12    -0.386935842212E+03   -0.10998E-01   -0.12827E-01 50648   0.782E-01    0.352E+00
DAV:  13    -0.386924671202E+03    0.11171E-01   -0.26626E-02 44232   0.363E-01    0.249E+00
DAV:  14    -0.386924582786E+03    0.88416E-04   -0.32732E-03 43152   0.112E-01    0.281E+00
DAV:  15    -0.386921381142E+03    0.32016E-02   -0.39234E-02 51760   0.430E-01    0.349E+00
DAV:  16    -0.386924161428E+03   -0.27803E-02   -0.30226E-02 47136   0.308E-01    0.441E+00
DAV:  17    -0.386913037891E+03    0.11124E-01   -0.41829E-02 48336   0.297E-01    0.211E+00
DAV:  18    -0.386919497455E+03   -0.64596E-02   -0.34041E-02 47872   0.325E-01    0.102E+00
DAV:  19    -0.386925029963E+03   -0.55325E-02   -0.17044E-02 45416   0.259E-01    0.161E+00
DAV:  20    -0.386922492157E+03    0.25378E-02   -0.55272E-03 46808   0.172E-01    0.132E+00
DAV:  21    -0.386923900358E+03   -0.14082E-02   -0.46059E-04 38320   0.514E-02    0.128E+00
DAV:  22    -0.386923800731E+03    0.99627E-04   -0.96995E-04 48960   0.760E-02    0.102E+00
DAV:  23    -0.386924913160E+03   -0.11124E-02   -0.31462E-03 46824   0.157E-01    0.780E-01
DAV:  24    -0.386924862174E+03    0.50986E-04   -0.10403E-03 45176   0.961E-02    0.579E-01
DAV:  25    -0.386925483345E+03   -0.62117E-03   -0.85005E-04 45360   0.835E-02    0.448E-01
DAV:  26    -0.386925517003E+03   -0.33658E-04   -0.18068E-04 42392   0.394E-02    0.378E-01
DAV:  27    -0.386925548625E+03   -0.31621E-04   -0.56185E-05 34400   0.185E-02    0.367E-01
DAV:  28    -0.386925537720E+03    0.10904E-04   -0.49091E-05 36304   0.203E-02    0.307E-01
DAV:  29    -0.386925563025E+03   -0.25305E-04   -0.35954E-05 34576   0.172E-02    0.257E-01
DAV:  30    -0.386925573119E+03   -0.10094E-04   -0.87143E-05 39280   0.251E-02    0.196E-01
DAV:  31    -0.386925572738E+03    0.38083E-06   -0.13830E-04 41792   0.327E-02    0.113E-01
DAV:  32    -0.386925589830E+03   -0.17092E-04   -0.81695E-05 40216   0.214E-02    0.675E-02
DAV:  33    -0.386925600761E+03   -0.10931E-04   -0.14670E-05 25032   0.102E-02    0.661E-02
DAV:  34    -0.386925601333E+03   -0.57115E-06   -0.34185E-06 19248   0.494E-03
  35 F= -.38692560E+03 E0= -.38691229E+03  d E =0.142508E+00  mag=    33.9985
       N       E                     dE             d eps       ncg     rms          rms(c)
DAV:   1    -0.386702837070E+03    0.22276E+00   -0.26366E+01 37648   0.177E+01    0.276E+00
DAV:   2    -0.387174240349E+03   -0.47140E+00   -0.46203E+00 36152   0.362E+00    0.122E+01
DAV:   3    -0.387039806724E+03    0.13443E+00   -0.33508E+00 47616   0.166E+00    0.527E+00
DAV:   4    -0.387089798913E+03   -0.49992E-01   -0.27029E-01 48784   0.106E+00    0.392E+00
DAV:   5    -0.387074434696E+03    0.15364E-01   -0.17576E-01 50960   0.767E-01    0.256E+00
DAV:   6    -0.387071187208E+03    0.32475E-02   -0.40042E-02 49240   0.498E-01    0.162E+00
DAV:   7    -0.387076341449E+03   -0.51542E-02   -0.34346E-02 48432   0.300E-01    0.184E+00
DAV:   8    -0.387074707509E+03    0.16339E-02   -0.35809E-03 42096   0.172E-01    0.182E+00
DAV:   9    -0.387073090363E+03    0.16171E-02   -0.56385E-03 47536   0.164E-01    0.233E+00
DAV:  10    -0.387073440286E+03   -0.34992E-03   -0.40717E-03 46104   0.130E-01    0.311E+00
DAV:  11    -0.387068974205E+03    0.44661E-02   -0.70219E-03 46712   0.237E-01    0.220E+00
DAV:  12    -0.387073147929E+03   -0.41737E-02   -0.29533E-02 48680   0.394E-01    0.128E+00
DAV:  13    -0.387076033166E+03   -0.28852E-02   -0.24469E-02 46544   0.317E-01    0.977E-01
DAV:  14    -0.387076915188E+03   -0.88202E-03   -0.48148E-03 43336   0.121E-01    0.804E-01
DAV:  15    -0.387076895393E+03    0.19795E-04   -0.55116E-04 37824   0.466E-02    0.823E-01
DAV:  16    -0.387076263977E+03    0.63142E-03   -0.45315E-04 38088   0.461E-02    0.878E-01
DAV:  17    -0.387076981215E+03   -0.71724E-03   -0.93043E-04 41256   0.678E-02    0.722E-01
DAV:  18    -0.387076195876E+03    0.78534E-03   -0.13679E-02 44496   0.244E-01    0.775E-01
DAV:  19    -0.387075876809E+03    0.31907E-03   -0.40009E-03 45040   0.120E-01    0.645E-01
DAV:  20    -0.387076686341E+03   -0.80953E-03   -0.19353E-03 41312   0.893E-02    0.248E-01
DAV:  21    -0.387076960529E+03   -0.27419E-03   -0.10083E-03 41304   0.690E-02    0.132E-01
DAV:  22    -0.387077062538E+03   -0.10201E-03   -0.20773E-04 39048   0.328E-02    0.471E-02
DAV:  23    -0.387077088731E+03   -0.26193E-04   -0.25453E-05 31000   0.135E-02    0.398E-02
DAV:  24    -0.387077091097E+03   -0.23656E-05   -0.35577E-05 27952   0.118E-02
  36 F= -.38707709E+03 E0= -.38706414E+03  d E =-.151490E+00  mag=    33.9998
       N       E                     dE             d eps       ncg     rms          rms(c)
DAV:   1    -0.387030220901E+03    0.46868E-01   -0.57576E+00 37688   0.840E+00    0.129E+00
DAV:   2    -0.387128878238E+03   -0.98657E-01   -0.92963E-01 35704   0.169E+00    0.454E+00
DAV:   3    -0.387113682022E+03    0.15196E-01   -0.54492E-01 47784   0.792E-01    0.294E+00
DAV:   4    -0.387117301109E+03   -0.36191E-02   -0.34207E-02 47088   0.468E-01    0.184E+00
DAV:   5    -0.387114549038E+03    0.27521E-02   -0.12159E-02 50512   0.316E-01    0.116E+00
DAV:   6    -0.387114454059E+03    0.94979E-04   -0.68754E-03 49384   0.181E-01    0.551E-01
DAV:   7    -0.387115889517E+03   -0.14355E-02   -0.41938E-03 44688   0.126E-01    0.715E-01
DAV:   8    -0.387115755095E+03    0.13442E-03   -0.83524E-04 41992   0.771E-02    0.759E-01
DAV:   9    -0.387115449801E+03    0.30529E-03   -0.75322E-05 32912   0.243E-02    0.781E-01
DAV:  10    -0.387116041542E+03   -0.59174E-03   -0.52947E-03 45480   0.121E-01    0.982E-01
DAV:  11    -0.387115595616E+03    0.44593E-03   -0.27249E-03 42768   0.983E-02    0.812E-01
DAV:  12    -0.387115468112E+03    0.12750E-03   -0.14745E-03 44512   0.775E-02    0.452E-01
DAV:  13    -0.387115708210E+03   -0.24010E-03   -0.13866E-03 47648   0.843E-02    0.237E-01
DAV:  14    -0.387115906392E+03   -0.19818E-03   -0.89570E-04 43800   0.809E-02    0.152E-01
DAV:  15    -0.387115891344E+03    0.15048E-04   -0.35355E-04 42128   0.436E-02    0.794E-02
DAV:  16    -0.387115899064E+03   -0.77200E-05   -0.33774E-05 31480   0.187E-02
  37 F= -.38711590E+03 E0= -.38710311E+03  d E =-.388080E-01  mag=    34.0000
       N       E                     dE             d eps       ncg     rms          rms(c)
DAV:   1    -0.387049029007E+03    0.66862E-01   -0.68548E+00 38528   0.916E+00    0.125E+00
DAV:   2    -0.387133288059E+03   -0.84259E-01   -0.81664E-01 35280   0.176E+00    0.177E+00
DAV:   3    -0.387155084536E+03   -0.21796E-01   -0.31073E-01 49656   0.767E-01    0.428E+00
DAV:   4    -0.387127207356E+03    0.27877E-01   -0.14258E-01 48152   0.571E-01    0.929E-01
DAV:   5    -0.387135458663E+03   -0.82513E-02   -0.74533E-03 46352   0.278E-01    0.543E-01
DAV:   6    -0.387136207585E+03   -0.74892E-03   -0.38092E-03 49944   0.174E-01    0.578E-01
DAV:   7    -0.387135953068E+03    0.25452E-03   -0.30198E-03 49416   0.134E-01    0.351E-01
DAV:   8    -0.387136113814E+03   -0.16075E-03   -0.23606E-03 49200   0.119E-01    0.338E-01
DAV:   9    -0.387136216263E+03   -0.10245E-03   -0.25102E-03 49064   0.101E-01    0.415E-01
DAV:  10    -0.387135999586E+03    0.21668E-03   -0.15952E-03 47088   0.891E-02    0.133E-01
DAV:  11    -0.387136153854E+03   -0.15427E-03   -0.44417E-04 37288   0.323E-02    0.107E-01
DAV:  12    -0.387136176570E+03   -0.22715E-04   -0.78544E-05 31768   0.193E-02    0.108E-01
DAV:  13    -0.387136169428E+03    0.71415E-05   -0.13575E-05 25328   0.104E-02
  38 F= -.38713617E+03 E0= -.38712356E+03  d E =-.202704E-01  mag=    34.0000
       N       E                     dE             d eps       ncg     rms          rms(c)
DAV:   1    -0.387134898565E+03    0.12780E-02   -0.36890E-01 37696   0.192E+00    0.275E-01
DAV:   2    -0.387139661538E+03   -0.47630E-02   -0.39777E-02 40368   0.395E-01    0.144E+00
DAV:   3    -0.387136329166E+03    0.33324E-02   -0.13428E-02 43000   0.208E-01    0.275E-01
DAV:   4    -0.387137733129E+03   -0.14040E-02   -0.16184E-03 41976   0.966E-02    0.326E-01
DAV:   5    -0.387137601025E+03    0.13210E-03   -0.64493E-04 43184   0.620E-02    0.178E-01
DAV:   6    -0.387137625899E+03   -0.24874E-04   -0.13975E-04 34128   0.369E-02    0.160E-01
DAV:   7    -0.387137631766E+03   -0.58673E-05   -0.26064E-04 40896   0.488E-02    0.177E-01
DAV:   8    -0.387137662048E+03   -0.30282E-04   -0.53044E-04 41544   0.477E-02    0.154E-01
DAV:   9    -0.387137674404E+03   -0.12357E-04   -0.34727E-04 31544   0.350E-02    0.984E-02
DAV:  10    -0.387137686423E+03   -0.12018E-04   -0.71271E-05 29888   0.211E-02    0.790E-02
DAV:  11    -0.387137683030E+03    0.33929E-05   -0.19827E-05 25896   0.108E-02
  39 F= -.38713768E+03 E0= -.38712507E+03  d E =-.151360E-02  mag=    34.0000
       N       E                     dE             d eps       ncg     rms          rms(c)
DAV:   1    -0.387128925839E+03    0.87606E-02   -0.83172E-01 36976   0.286E+00    0.354E-01
DAV:   2    -0.387137412477E+03   -0.84866E-02   -0.74923E-02 38720   0.570E-01    0.171E+00
DAV:   3    -0.387132884507E+03    0.45280E-02   -0.22380E-02 44184   0.265E-01    0.393E-01
DAV:   4    -0.387134852539E+03   -0.19680E-02   -0.26539E-03 43288   0.131E-01    0.390E-01
DAV:   5    -0.387134612227E+03    0.24031E-03   -0.10840E-03 46632   0.805E-02    0.164E-01
DAV:   6    -0.387134704772E+03   -0.92544E-04   -0.22337E-04 40376   0.501E-02    0.177E-01
DAV:   7    -0.387134682422E+03    0.22350E-04   -0.28031E-04 42864   0.502E-02    0.143E-01
DAV:   8    -0.387134698285E+03   -0.15863E-04   -0.30401E-04 41872   0.443E-02    0.131E-01
DAV:   9    -0.387134684522E+03    0.13763E-04   -0.14263E-04 33328   0.261E-02    0.807E-02
DAV:  10    -0.387134685305E+03   -0.78318E-06   -0.20432E-05 24128   0.127E-02
  40 F= -.38713469E+03 E0= -.38712208E+03  d E =0.299772E-02  mag=    34.0000
       N       E                     dE             d eps       ncg     rms          rms(c)
DAV:   1    -0.387129830112E+03    0.48544E-02   -0.19969E-01 36400   0.117E+00    0.135E-01
DAV:   2    -0.387130758202E+03   -0.92809E-03   -0.97129E-03 36352   0.218E-01    0.308E-01
DAV:   3    -0.387130710782E+03    0.47419E-04   -0.12250E-03 50104   0.712E-02    0.286E-01
DAV:   4    -0.387130652606E+03    0.58176E-04   -0.39238E-04 41416   0.487E-02    0.106E-01
DAV:   5    -0.387130682072E+03   -0.29466E-04   -0.12136E-04 33168   0.337E-02    0.109E-01
DAV:   6    -0.387130680055E+03    0.20168E-05   -0.11868E-04 32088   0.319E-02    0.926E-02
DAV:   7    -0.387130681371E+03   -0.13161E-05   -0.77990E-05 32256   0.261E-02
  41 F= -.38713068E+03 E0= -.38711815E+03  d E =0.400393E-02  mag=    34.0000
       N       E                     dE             d eps       ncg     rms          rms(c)
DAV:   1    -0.387103918490E+03    0.26762E-01   -0.27556E+00 36624   0.446E+00    0.494E-01
DAV:   2    -0.387117789636E+03   -0.13871E-01   -0.14313E-01 36224   0.820E-01    0.133E+00
DAV:   3    -0.387116355262E+03    0.14344E-02   -0.26678E-02 49120   0.286E-01    0.107E+00
DAV:   4    -0.387115974265E+03    0.38100E-03   -0.53256E-03 45664   0.169E-01    0.380E-01
DAV:   5    -0.387116206745E+03   -0.23248E-03   -0.18685E-03 51128   0.104E-01    0.319E-01
DAV:   6    -0.387116263927E+03   -0.57182E-04   -0.13002E-03 49040   0.109E-01    0.321E-01
DAV:   7    -0.387116142422E+03    0.12150E-03   -0.14207E-03 50728   0.885E-02    0.204E-01
DAV:   8    -0.387116149886E+03   -0.74636E-05   -0.62834E-04 47032   0.631E-02    0.142E-01
DAV:   9    -0.387116177792E+03   -0.27906E-04   -0.23773E-04 34296   0.369E-02    0.110E-01
DAV:  10    -0.387116182619E+03   -0.48269E-05   -0.52159E-05 28624   0.198E-02
  42 F= -.38711618E+03 E0= -.38710357E+03  d E =0.144988E-01  mag=    34.0000
       N       E                     dE             d eps       ncg     rms          rms(c)
DAV:   1    -0.387110557086E+03    0.56207E-02   -0.81134E-01 36408   0.262E+00    0.354E-01
DAV:   2    -0.387120758482E+03   -0.10201E-01   -0.74975E-02 41648   0.550E-01    0.262E+00
DAV:   3    -0.387110480492E+03    0.10278E-01   -0.42381E-02 43408   0.313E-01    0.286E-01
DAV:   4    -0.387114762489E+03   -0.42820E-02   -0.30407E-03 41600   0.140E-01    0.533E-01
DAV:   5    -0.387114397407E+03    0.36508E-03   -0.13830E-03 44024   0.984E-02    0.243E-01
DAV:   6    -0.387114454263E+03   -0.56856E-04   -0.38433E-04 43848   0.505E-02    0.184E-01
DAV:   7    -0.387114496127E+03   -0.41865E-04   -0.55058E-04 45752   0.577E-02    0.225E-01
DAV:   8    -0.387114569240E+03   -0.73113E-04   -0.64550E-04 43640   0.505E-02    0.284E-01
DAV:   9    -0.387114503523E+03    0.65717E-04   -0.31132E-04 33240   0.356E-02    0.214E-01
DAV:  10    -0.387114497422E+03    0.61001E-05   -0.57256E-05 28976   0.190E-02
  43 F= -.38711450E+03 E0= -.38710197E+03  d E =0.168520E-02  mag=    34.0000
       N       E                     dE             d eps       ncg     rms          rms(c)
DAV:   1    -0.387096951354E+03    0.17552E-01   -0.50117E+00 36464   0.618E+00    0.540E-01
DAV:   2    -0.387117588591E+03   -0.20637E-01   -0.20588E-01 34944   0.109E+00    0.957E-01
DAV:   3    -0.387120193696E+03   -0.26051E-02   -0.36984E-02 51296   0.316E-01    0.188E+00
DAV:   4    -0.387115723502E+03    0.44702E-02   -0.20157E-02 47640   0.234E-01    0.501E-01
DAV:   5    -0.387117120691E+03   -0.13972E-02   -0.17849E-03 45992   0.118E-01    0.253E-01
DAV:   6    -0.387117282629E+03   -0.16194E-03   -0.79044E-04 45480   0.866E-02    0.247E-01
DAV:   7    -0.387117255518E+03    0.27111E-04   -0.14667E-03 49928   0.824E-02    0.287E-01
DAV:   8    -0.387117241631E+03    0.13886E-04   -0.10788E-03 48256   0.809E-02    0.229E-01
DAV:   9    -0.387117294058E+03   -0.52427E-04   -0.70431E-04 44344   0.557E-02    0.159E-01
DAV:  10    -0.387117339995E+03   -0.45937E-04   -0.15426E-04 32064   0.302E-02    0.152E-01
DAV:  11    -0.387117324834E+03    0.15162E-04   -0.18970E-05 25960   0.120E-02    0.146E-01
DAV:  12    -0.387117316332E+03    0.85021E-05   -0.32739E-06 20248   0.562E-03
  44 F= -.38711732E+03 E0= -.38710470E+03  d E =-.281891E-02  mag=    34.0000
       N       E                     dE             d eps       ncg     rms          rms(c)
DAV:   1    -0.386898155366E+03    0.21917E+00   -0.52338E+01 37168   0.203E+01    0.189E+00
DAV:   2    -0.387142469771E+03   -0.24431E+00   -0.24105E+00 34944   0.358E+00    0.371E+00
DAV:   3    -0.387174780824E+03   -0.32311E-01   -0.98856E-01 50536   0.116E+00    0.542E+00
DAV:   4    -0.387132768455E+03    0.42012E-01   -0.19131E-01 48272   0.824E-01    0.227E+00
DAV:   5    -0.387136410002E+03   -0.36415E-02   -0.26068E-02 51592   0.394E-01    0.133E+00
DAV:   6    -0.387137512050E+03   -0.11020E-02   -0.99746E-03 48768   0.291E-01    0.789E-01
DAV:   7    -0.387139845412E+03   -0.23334E-02   -0.13202E-02 49896   0.270E-01    0.114E+00
DAV:   8    -0.387139735378E+03    0.11003E-03   -0.87994E-03 46824   0.217E-01    0.140E+00
DAV:   9    -0.387137222218E+03    0.25132E-02   -0.66862E-03 47200   0.173E-01    0.629E-01
DAV:  10    -0.387138073399E+03   -0.85118E-03   -0.49268E-03 47000   0.134E-01    0.366E-01
DAV:  11    -0.387138613483E+03   -0.54008E-03   -0.12403E-03 44424   0.111E-01    0.230E-01
DAV:  12    -0.387138620921E+03   -0.74378E-05   -0.83140E-04 49312   0.679E-02    0.143E-01
DAV:  13    -0.387138675114E+03   -0.54193E-04   -0.21198E-04 40400   0.399E-02    0.130E-01
DAV:  14    -0.387138664898E+03    0.10216E-04   -0.85660E-05 30440   0.206E-02    0.101E-01
DAV:  15    -0.387138673696E+03   -0.87971E-05   -0.43949E-05 28368   0.141E-02
  45 F= -.38713867E+03 E0= -.38712624E+03  d E =-.213574E-01  mag=    34.0000
       N       E                     dE             d eps       ncg     rms          rms(c)
DAV:   1    -0.387113719989E+03    0.24945E-01   -0.35214E+00 37296   0.641E+00    0.873E-01
DAV:   2    -0.387161508878E+03   -0.47789E-01   -0.44796E-01 37336   0.126E+00    0.351E+00
DAV:   3    -0.387142619446E+03    0.18889E-01   -0.14040E-01 46216   0.586E-01    0.108E+00
DAV:   4    -0.387150481139E+03   -0.78617E-02   -0.14374E-02 45152   0.287E-01    0.781E-01
DAV:   5    -0.387149646102E+03    0.83504E-03   -0.47814E-03 49120   0.166E-01    0.280E-01
DAV:   6    -0.387150108112E+03   -0.46201E-03   -0.99420E-04 47192   0.104E-01    0.351E-01
DAV:   7    -0.387149945144E+03    0.16297E-03   -0.11132E-03 50136   0.961E-02    0.203E-01
DAV:   8    -0.387150024240E+03   -0.79096E-04   -0.38468E-04 46688   0.694E-02    0.163E-01
DAV:   9    -0.387150010794E+03    0.13446E-04   -0.18411E-04 48000   0.473E-02    0.815E-02
DAV:  10    -0.387150026442E+03   -0.15648E-04   -0.86045E-05 31632   0.213E-02    0.554E-02
DAV:  11    -0.387150032407E+03   -0.59656E-05   -0.17031E-05 25720   0.113E-02
  46 F= -.38715003E+03 E0= -.38713763E+03  d E =-.113587E-01  mag=    34.0000
       N       E                     dE             d eps       ncg     rms          rms(c)
DAV:   1    -0.387142984904E+03    0.70415E-02   -0.10657E+00 37992   0.320E+00    0.395E-01
DAV:   2    -0.387154083197E+03   -0.11098E-01   -0.95207E-02 40048   0.627E-01    0.218E+00
DAV:   3    -0.387146526664E+03    0.75565E-02   -0.31371E-02 44184   0.310E-01    0.321E-01
DAV:   4    -0.387149939283E+03   -0.34126E-02   -0.34601E-03 44096   0.157E-01    0.522E-01
DAV:   5    -0.387149470539E+03    0.46874E-03   -0.14257E-03 46408   0.106E-01    0.191E-01
DAV:   6    -0.387149594215E+03   -0.12368E-03   -0.30607E-04 44240   0.505E-02    0.150E-01
DAV:   7    -0.387149621988E+03   -0.27773E-04   -0.37306E-04 41544   0.483E-02    0.160E-01
DAV:   8    -0.387149620522E+03    0.14654E-05   -0.25966E-04 38296   0.385E-02    0.144E-01
DAV:   9    -0.387149604462E+03    0.16060E-04   -0.94929E-05 30464   0.226E-02    0.988E-02
DAV:  10    -0.387149603995E+03    0.46671E-06   -0.18368E-05 23624   0.120E-02
  47 F= -.38714960E+03 E0= -.38713708E+03  d E =0.428412E-03  mag=    34.0000
       N       E                     dE             d eps       ncg     rms          rms(c)
DAV:   1    -0.387152520435E+03   -0.29160E-02   -0.88897E-01 36416   0.258E+00    0.270E-01
DAV:   2    -0.387157481166E+03   -0.49607E-02   -0.45114E-02 37480   0.486E-01    0.109E+00
DAV:   3    -0.387156008956E+03    0.14722E-02   -0.97224E-03 47104   0.189E-01    0.452E-01
DAV:   4    -0.387156543866E+03   -0.53491E-03   -0.11110E-03 43264   0.922E-02    0.279E-01
DAV:   5    -0.387156450276E+03    0.93590E-04   -0.45089E-04 44408   0.559E-02    0.161E-01
DAV:   6    -0.387156506195E+03   -0.55918E-04   -0.40036E-04 38792   0.479E-02    0.185E-01
DAV:   7    -0.387156490347E+03    0.15848E-04   -0.33337E-04 42104   0.447E-02    0.179E-01
DAV:   8    -0.387156465564E+03    0.24783E-04   -0.11526E-04 32808   0.262E-02    0.116E-01
DAV:   9    -0.387156462158E+03    0.34067E-05   -0.53615E-05 28640   0.183E-02
  48 F= -.38715646E+03 E0= -.38714397E+03  d E =-.685816E-02  mag=    34.0000
       N       E                     dE             d eps       ncg     rms          rms(c)
DAV:   1    -0.387091429170E+03    0.65036E-01   -0.16409E+01 36680   0.117E+01    0.124E+00
DAV:   2    -0.387192612456E+03   -0.10118E+00   -0.99806E-01 35696   0.218E+00    0.368E+00
DAV:   3    -0.387176698461E+03    0.15914E-01   -0.22043E-01 49120   0.748E-01    0.214E+00
DAV:   4    -0.387184698306E+03   -0.79998E-02   -0.87737E-02 49160   0.493E-01    0.190E+00
DAV:   5    -0.387178939020E+03    0.57593E-02   -0.20110E-02 49248   0.326E-01    0.536E-01
DAV:   6    -0.387180818182E+03   -0.18792E-02   -0.50717E-03 48544   0.188E-01    0.569E-01
DAV:   7    -0.387181144702E+03   -0.32652E-03   -0.58012E-03 50272   0.169E-01    0.714E-01
DAV:   8    -0.387180545034E+03    0.59967E-03   -0.22882E-03 46704   0.133E-01    0.376E-01
DAV:   9    -0.387180770225E+03   -0.22519E-03   -0.19416E-03 48584   0.100E-01    0.294E-01
DAV:  10    -0.387180840879E+03   -0.70655E-04   -0.10325E-03 45888   0.742E-02    0.256E-01
DAV:  11    -0.387180798951E+03    0.41928E-04   -0.12953E-04 36240   0.357E-02    0.187E-01
DAV:  12    -0.387180771894E+03    0.27057E-04   -0.51772E-05 31640   0.193E-02    0.141E-01
DAV:  13    -0.387180776840E+03   -0.49467E-05   -0.75346E-05 32720   0.251E-02
  49 F= -.38718078E+03 E0= -.38716821E+03  d E =-.243147E-01  mag=    34.0000
       N       E                     dE             d eps       ncg     rms          rms(c)
DAV:   1    -0.386366272136E+03    0.81450E+00   -0.18021E+02 36752   0.364E+01    0.365E+00
DAV:   2    -0.387327852923E+03   -0.96158E+00   -0.98174E+00 35336   0.671E+00    0.945E+00
DAV:   3    -0.387327912718E+03   -0.59795E-04   -0.45514E+00 48456   0.228E+00    0.627E+00
DAV:   4    -0.387301055565E+03    0.26857E-01   -0.55479E-01 50512   0.136E+00    0.523E+00
DAV:   5    -0.387266727483E+03    0.34328E-01   -0.50979E-01 50376   0.920E-01    0.377E+00
DAV:   6    -0.387248231359E+03    0.18496E-01   -0.44993E-02 51344   0.706E-01    0.253E+00
DAV:   7    -0.387252551740E+03   -0.43204E-02   -0.15284E-01 51744   0.629E-01    0.274E+00
DAV:   8    -0.387258078801E+03   -0.55271E-02   -0.28644E-02 46728   0.419E-01    0.327E+00
DAV:   9    -0.387247209079E+03    0.10870E-01   -0.98901E-03 48656   0.232E-01    0.242E+00
DAV:  10    -0.387244840176E+03    0.23689E-02   -0.41244E-02 52104   0.281E-01    0.107E+00
DAV:  11    -0.387252137276E+03   -0.72971E-02   -0.22913E-02 45800   0.330E-01    0.123E+00
DAV:  12    -0.387250360117E+03    0.17772E-02   -0.13965E-02 49280   0.294E-01    0.620E-01
DAV:  13    -0.387251041879E+03   -0.68176E-03   -0.67794E-03 48448   0.196E-01    0.656E-01
DAV:  14    -0.387250503684E+03    0.53819E-03   -0.21443E-03 46728   0.131E-01    0.219E-01
DAV:  15    -0.387250736182E+03   -0.23250E-03   -0.51092E-04 46544   0.715E-02    0.908E-02
DAV:  16    -0.387250820919E+03   -0.84737E-04   -0.16188E-04 39904   0.321E-02    0.797E-02
DAV:  17    -0.387250811890E+03    0.90288E-05   -0.24595E-05 31728   0.174E-02
  50 F= -.38725081E+03 E0= -.38723861E+03  d E =-.700350E-01  mag=    34.0000
       N       E                     dE             d eps       ncg     rms          rms(c)
DAV:   1    -0.387094142693E+03    0.15668E+00   -0.14931E+01 37728   0.120E+01    0.242E+00
DAV:   2    -0.387426773887E+03   -0.33263E+00   -0.38155E+00 44328   0.308E+00    0.725E+00
DAV:   3    -0.387267784482E+03    0.15899E+00   -0.48090E-01 47088   0.179E+00    0.340E+00
DAV:   4    -0.387268125606E+03   -0.34112E-03   -0.13818E-01 49536   0.787E-01    0.158E+00
DAV:   5    -0.387277829866E+03   -0.97043E-02   -0.50281E-02 50896   0.548E-01    0.182E+00
DAV:   6    -0.387275763650E+03    0.20662E-02   -0.31876E-02 48424   0.420E-01    0.869E-01
DAV:   7    -0.387276637044E+03   -0.87339E-03   -0.79166E-03 48456   0.257E-01    0.878E-01
DAV:   8    -0.387276848959E+03   -0.21192E-03   -0.12241E-02 48432   0.238E-01    0.844E-01
DAV:   9    -0.387275925108E+03    0.92385E-03   -0.72173E-03 50464   0.198E-01    0.219E-01
DAV:  10    -0.387276567564E+03   -0.64246E-03   -0.12402E-03 46624   0.906E-02    0.258E-01
DAV:  11    -0.387276509148E+03    0.58416E-04   -0.70741E-04 47864   0.666E-02    0.128E-01
DAV:  12    -0.387276560817E+03   -0.51669E-04   -0.17626E-04 35088   0.318E-02    0.156E-01
DAV:  13    -0.387276526991E+03    0.33826E-04   -0.90229E-05 31048   0.224E-02    0.779E-02
DAV:  14    -0.387276552654E+03   -0.25662E-04   -0.11247E-04 31152   0.236E-02    0.162E-01
DAV:  15    -0.387276501554E+03    0.51100E-04   -0.13241E-04 31352   0.233E-02    0.244E-02
DAV:  16    -0.387276524937E+03   -0.23383E-04   -0.20343E-05 25848   0.120E-02    0.371E-02
DAV:  17    -0.387276524291E+03    0.64608E-06   -0.10298E-05 22144   0.793E-03
  51 F= -.38727652E+03 E0= -.38726426E+03  d E =-.257124E-01  mag=    34.0000
       N       E                     dE             d eps       ncg     rms          rms(c)
DAV:   1    -0.387064658727E+03    0.21187E+00   -0.26748E+01 36904   0.148E+01    0.167E+00
DAV:   2    -0.387225029958E+03   -0.16037E+00   -0.16635E+00 34968   0.270E+00    0.994E-01
DAV:   3    -0.387239743301E+03   -0.14713E-01   -0.10494E-01 50128   0.639E-01    0.226E+00
DAV:   4    -0.387230033137E+03    0.97102E-02   -0.65725E-02 49512   0.471E-01    0.920E-01
DAV:   5    -0.387234540424E+03   -0.45073E-02   -0.27453E-02 50888   0.267E-01    0.169E+00
DAV:   6    -0.387231051008E+03    0.34894E-02   -0.16478E-02 47536   0.261E-01    0.770E-01
DAV:   7    -0.387232121024E+03   -0.10700E-02   -0.88813E-03 48992   0.232E-01    0.591E-01
DAV:   8    -0.387232293852E+03   -0.17283E-03   -0.21821E-03 47008   0.167E-01    0.366E-01
DAV:   9    -0.387232169547E+03    0.12431E-03   -0.10020E-03 49528   0.925E-02    0.144E-01
DAV:  10    -0.387232185039E+03   -0.15492E-04   -0.31329E-04 41256   0.380E-02    0.129E-01
DAV:  11    -0.387232172270E+03    0.12770E-04   -0.15459E-04 33576   0.307E-02    0.998E-02
DAV:  12    -0.387232195769E+03   -0.23499E-04   -0.21382E-04 30368   0.258E-02    0.884E-02
DAV:  13    -0.387232201941E+03   -0.61718E-05   -0.59102E-05 29392   0.220E-02
  52 F= -.38723220E+03 E0= -.38721980E+03  d E =0.443224E-01  mag=    34.0000
       N       E                     dE             d eps       ncg     rms          rms(c)
DAV:   1    -0.387207801549E+03    0.24394E-01   -0.15508E+00 36568   0.383E+00    0.439E-01
DAV:   2    -0.387218501730E+03   -0.10700E-01   -0.10718E-01 35456   0.728E-01    0.983E-01
DAV:   3    -0.387218887862E+03   -0.38613E-03   -0.23219E-02 49360   0.260E-01    0.125E+00
DAV:   4    -0.387217255096E+03    0.16328E-02   -0.61895E-03 46088   0.165E-01    0.294E-01
DAV:   5    -0.387217890076E+03   -0.63498E-03   -0.12903E-03 47448   0.920E-02    0.269E-01
DAV:   6    -0.387217945518E+03   -0.55442E-04   -0.49966E-04 48784   0.823E-02    0.239E-01
DAV:   7    -0.387217901565E+03    0.43953E-04   -0.64784E-04 48472   0.688E-02    0.142E-01
DAV:   8    -0.387217931346E+03   -0.29781E-04   -0.46857E-04 42952   0.529E-02    0.142E-01
DAV:   9    -0.387217923628E+03    0.77176E-05   -0.21744E-04 32472   0.337E-02    0.927E-02
DAV:  10    -0.387217925640E+03   -0.20120E-05   -0.48981E-05 27640   0.182E-02
  53 F= -.38721793E+03 E0= -.38720544E+03  d E =0.142763E-01  mag=    34.0000
       N       E                     dE             d eps       ncg     rms          rms(c)
DAV:   1    -0.387214281439E+03    0.36422E-02   -0.21627E+00 37336   0.417E+00    0.427E-01
DAV:   2    -0.387227116307E+03   -0.12835E-01   -0.11713E-01 36944   0.765E-01    0.172E+00
DAV:   3    -0.387223271788E+03    0.38445E-02   -0.31826E-02 46304   0.291E-01    0.714E-01
DAV:   4    -0.387224703366E+03   -0.14316E-02   -0.19366E-03 41440   0.134E-01    0.300E-01
DAV:   5    -0.387224709925E+03   -0.65585E-05   -0.58347E-04 51408   0.666E-02    0.235E-01
DAV:   6    -0.387224740455E+03   -0.30530E-04   -0.51776E-04 46264   0.639E-02    0.217E-01
DAV:   7    -0.387224795594E+03   -0.55139E-04   -0.32477E-04 43248   0.527E-02    0.265E-01
DAV:   8    -0.387224710480E+03    0.85114E-04   -0.31752E-04 36904   0.399E-02    0.189E-01
DAV:   9    -0.387224699604E+03    0.10876E-04   -0.12065E-04 30040   0.242E-02    0.606E-02
DAV:  10    -0.387224734762E+03   -0.35158E-04   -0.30643E-05 28096   0.174E-02    0.396E-02
DAV:  11    -0.387224741747E+03   -0.69844E-05   -0.20834E-05 24856   0.132E-02
  54 F= -.38722474E+03 E0= -.38721222E+03  d E =-.681611E-02  mag=    34.0000
       N       E                     dE             d eps       ncg     rms          rms(c)
DAV:   1    -0.386882261636E+03    0.34247E+00   -0.72652E+01 37024   0.241E+01    0.231E+00
DAV:   2    -0.387247918439E+03   -0.36566E+00   -0.36858E+00 34944   0.429E+00    0.243E+00
DAV:   3    -0.387317944428E+03   -0.70026E-01   -0.75895E-01 51000   0.127E+00    0.827E+00
DAV:   4    -0.387244650945E+03    0.73293E-01   -0.11854E+00 49344   0.957E-01    0.331E+00
DAV:   5    -0.387255964448E+03   -0.11314E-01   -0.77368E-02 45552   0.639E-01    0.174E+00
DAV:   6    -0.387254712630E+03    0.12518E-02   -0.24258E-02 51888   0.386E-01    0.138E+00
DAV:   7    -0.387254826429E+03   -0.11380E-03   -0.20973E-02 49064   0.310E-01    0.100E+00
DAV:   8    -0.387257083735E+03   -0.22573E-02   -0.11611E-02 47656   0.249E-01    0.139E+00
DAV:   9    -0.387255510476E+03    0.15733E-02   -0.31224E-03 45824   0.150E-01    0.129E+00
DAV:  10    -0.387253750422E+03    0.17601E-02   -0.33927E-03 49560   0.109E-01    0.627E-01
DAV:  11    -0.387255650656E+03   -0.19002E-02   -0.76801E-03 47640   0.164E-01    0.816E-01
DAV:  12    -0.387255460303E+03    0.19035E-03   -0.28435E-03 45424   0.170E-01    0.534E-01
DAV:  13    -0.387255447274E+03    0.13029E-04   -0.18123E-03 49768   0.102E-01    0.256E-01
DAV:  14    -0.387255563916E+03   -0.11664E-03   -0.38723E-04 40016   0.685E-02    0.999E-02
DAV:  15    -0.387255592856E+03   -0.28940E-04   -0.10715E-04 39248   0.268E-02    0.376E-02
DAV:  16    -0.387255610110E+03   -0.17254E-04   -0.39277E-05 27160   0.151E-02    0.336E-02
DAV:  17    -0.387255609918E+03    0.19153E-06   -0.70750E-06 21248   0.912E-03
  55 F= -.38725561E+03 E0= -.38724304E+03  d E =-.308682E-01  mag=    34.0000
       N       E                     dE             d eps       ncg     rms          rms(c)
DAV:   1    -0.387113490154E+03    0.14212E+00   -0.12757E+01 36880   0.116E+01    0.147E+00
DAV:   2    -0.387232655426E+03   -0.11917E+00   -0.11824E+00 35384   0.218E+00    0.292E+00
DAV:   3    -0.387241591059E+03   -0.89356E-02   -0.44134E-01 49776   0.898E-01    0.393E+00
DAV:   4    -0.387224548905E+03    0.17042E-01   -0.14681E-01 50008   0.649E-01    0.131E+00
DAV:   5    -0.387228735380E+03   -0.41865E-02   -0.11590E-02 49672   0.385E-01    0.568E-01
DAV:   6    -0.387229939796E+03   -0.12044E-02   -0.70474E-03 48696   0.222E-01    0.690E-01
DAV:   7    -0.387229432167E+03    0.50763E-03   -0.54698E-03 50256   0.190E-01    0.412E-01
DAV:   8    -0.387229534040E+03   -0.10187E-03   -0.33338E-03 49536   0.146E-01    0.329E-01
DAV:   9    -0.387229681745E+03   -0.14771E-03   -0.29932E-03 50088   0.113E-01    0.396E-01
DAV:  10    -0.387229429947E+03    0.25180E-03   -0.12998E-03 48080   0.842E-02    0.137E-01
DAV:  11    -0.387229499724E+03   -0.69777E-04   -0.21899E-04 43320   0.493E-02    0.109E-01
DAV:  12    -0.387229491862E+03    0.78621E-05   -0.60365E-05 33056   0.283E-02
  56 F= -.38722949E+03 E0= -.38721671E+03  d E =0.261181E-01  mag=    34.0000
       N       E                     dE             d eps       ncg     rms          rms(c)
DAV:   1    -0.387146645429E+03    0.82854E-01   -0.14482E+01 36752   0.110E+01    0.106E+00
DAV:   2    -0.387220428826E+03   -0.73783E-01   -0.73733E-01 34968   0.196E+00    0.133E+00
DAV:   3    -0.387238365889E+03   -0.17937E-01   -0.22256E-01 50288   0.663E-01    0.391E+00
DAV:   4    -0.387215945073E+03    0.22421E-01   -0.10242E-01 48856   0.467E-01    0.139E+00
DAV:   5    -0.387220855492E+03   -0.49104E-02   -0.17245E-02 46728   0.267E-01    0.432E-01
DAV:   6    -0.387222229600E+03   -0.13741E-02   -0.35855E-03 47008   0.162E-01    0.422E-01
DAV:   7    -0.387222228661E+03    0.93908E-06   -0.20743E-03 49752   0.134E-01    0.436E-01
DAV:   8    -0.387222268745E+03   -0.40084E-04   -0.26227E-03 48392   0.111E-01    0.484E-01
DAV:   9    -0.387222008607E+03    0.26014E-03   -0.21076E-03 48016   0.984E-02    0.255E-01
DAV:  10    -0.387222097137E+03   -0.88530E-04   -0.77185E-04 44680   0.615E-02    0.194E-01
DAV:  11    -0.387222132947E+03   -0.35810E-04   -0.11703E-04 38184   0.353E-02    0.124E-01
DAV:  12    -0.387222118350E+03    0.14596E-04   -0.63958E-05 31944   0.204E-02    0.485E-02
DAV:  13    -0.387222133327E+03   -0.14976E-04   -0.24841E-05 27040   0.141E-02    0.398E-02
DAV:  14    -0.387222134880E+03   -0.15532E-05   -0.11773E-05 22720   0.101E-02
  57 F= -.38722213E+03 E0= -.38720955E+03  d E =0.735698E-02  mag=    34.0000
