       N       E                     dE             d eps       ncg     rms          rms(c)
DAV:   1     0.222160588036E+04    0.22216E+04   -0.97373E+04117208   0.167E+03
DAV:   2    -0.725556395561E+01   -0.22289E+04   -0.21362E+04126272   0.507E+02
DAV:   3    -0.258762378843E+03   -0.25151E+03   -0.24800E+03134448   0.181E+02
DAV:   4    -0.269178214239E+03   -0.10416E+02   -0.10081E+02183440   0.317E+01
DAV:   5    -0.269854021967E+03   -0.67581E+00   -0.66688E+00195504   0.600E+00    0.339E+01
DAV:   6    -0.217655772903E+03    0.52198E+02   -0.16868E+02167800   0.489E+01    0.418E+01
DAV:   7    -0.218958483321E+03   -0.13027E+01   -0.16324E+01151864   0.207E+01    0.220E+01
DAV:   8    -0.218526097149E+03    0.43239E+00   -0.34576E+00159032   0.879E+00    0.122E+01
DAV:   9    -0.218635097143E+03   -0.10900E+00   -0.22120E+00153048   0.629E+00    0.492E+00
DAV:  10    -0.218695859024E+03   -0.60762E-01   -0.14960E-01142400   0.171E+00    0.389E+00
DAV:  11    -0.218721065940E+03   -0.25207E-01   -0.18223E-02165904   0.589E-01    0.311E+00
DAV:  12    -0.218731797236E+03   -0.10731E-01   -0.16229E-02143288   0.761E-01    0.108E+00
DAV:  13    -0.218736881613E+03   -0.50844E-02   -0.86186E-03148000   0.460E-01    0.435E-01
DAV:  14    -0.218737736604E+03   -0.85499E-03   -0.14499E-03147752   0.156E-01    0.260E-01
DAV:  15    -0.218737752479E+03   -0.15875E-04   -0.13641E-04164880   0.566E-02    0.147E-01
DAV:  16    -0.218737862203E+03   -0.10972E-03   -0.65334E-05141144   0.449E-02    0.526E-02
DAV:  17    -0.218737905506E+03   -0.43302E-04   -0.20312E-05103384   0.266E-02    0.294E-02
DAV:  18    -0.218737878353E+03    0.27153E-04   -0.18886E-05102360   0.241E-02    0.199E-02
DAV:  19    -0.218737917859E+03   -0.39507E-04   -0.52551E-06 88552   0.116E-02    0.132E-02
DAV:  20    -0.218737901906E+03    0.15954E-04   -0.28823E-06 73832   0.102E-02    0.667E-03
DAV:  21    -0.218737890096E+03    0.11810E-04   -0.15226E-06 70416   0.539E-03    0.406E-03
DAV:  22    -0.218737900211E+03   -0.10115E-04   -0.33645E-07 70016   0.258E-03    0.256E-03
DAV:  23    -0.218737903565E+03   -0.33545E-05   -0.18194E-07 69640   0.257E-03
   1 F= -.21873790E+03 E0= -.21873790E+03  d E =-.218738E+03  mag=    16.0000
       N       E                     dE             d eps       ncg     rms          rms(c)
DAV:   1    -0.218732960441E+03    0.49398E-02   -0.30514E-01149944   0.393E+00    0.377E-01
DAV:   2    -0.218738352522E+03   -0.53921E-02   -0.43655E-02120720   0.608E-01    0.235E-01
DAV:   3    -0.218738650983E+03   -0.29846E-03   -0.17478E-03128008   0.110E-01    0.815E-02
DAV:   4    -0.218738610939E+03    0.40045E-04   -0.99807E-05124648   0.314E-02    0.503E-02
DAV:   5    -0.218738603693E+03    0.72455E-05   -0.13276E-05 90368   0.205E-02    0.355E-02
DAV:   6    -0.218738592654E+03    0.11039E-04   -0.46586E-06 72536   0.113E-02    0.258E-02
DAV:   7    -0.218738563852E+03    0.28802E-04   -0.41942E-06 69000   0.132E-02    0.691E-03
DAV:   8    -0.218738556007E+03    0.78451E-05   -0.17996E-06 68032   0.652E-03
   2 F= -.21873856E+03 E0= -.21873856E+03  d E =-.652442E-03  mag=    16.0000
       N       E                     dE             d eps       ncg     rms          rms(c)
DAV:   1    -0.218738551269E+03    0.12583E-04   -0.20298E-04137328   0.102E-01    0.996E-03
DAV:   2    -0.218738551350E+03   -0.81345E-07   -0.29659E-05 88720   0.169E-02    0.615E-03
DAV:   3    -0.218738549874E+03    0.14759E-05   -0.15084E-06 68872   0.440E-03    0.250E-03
DAV:   4    -0.218738550758E+03   -0.88335E-06   -0.19468E-07 66488   0.177E-03    0.174E-03
DAV:   5    -0.218738550411E+03    0.34684E-06   -0.73895E-08 66272   0.125E-03    0.129E-03
DAV:   6    -0.218738550713E+03   -0.30268E-06   -0.32905E-08 66104   0.712E-04
   3 F= -.21873855E+03 E0= -.21873855E+03  d E =-.647148E-03  mag=    16.0000
       N       E                     dE             d eps       ncg     rms          rms(c)
DAV:   1    -0.218738242901E+03    0.30751E-03   -0.11803E-01130176   0.196E+00    0.150E-01
DAV:   2    -0.218739003476E+03   -0.76057E-03   -0.66745E-03118696   0.338E-01    0.107E-01
DAV:   3    -0.218738849392E+03    0.15408E-03   -0.14702E-04140040   0.492E-02    0.518E-02
DAV:   4    -0.218738955443E+03   -0.10605E-03   -0.18092E-05 97688   0.241E-02    0.314E-02
DAV:   5    -0.218738946464E+03    0.89792E-05   -0.64340E-06 71584   0.123E-02    0.264E-02
DAV:   6    -0.218738859573E+03    0.86890E-04   -0.22883E-06 67120   0.853E-03    0.169E-02
DAV:   7    -0.218738879078E+03   -0.19505E-04   -0.22111E-06 66496   0.761E-03    0.471E-03
DAV:   8    -0.218738887622E+03   -0.85435E-05   -0.87240E-07 65592   0.478E-03
   4 F= -.21873889E+03 E0= -.21873889E+03  d E =-.336908E-03  mag=    16.0000
