       N       E                     dE             d eps       ncg     rms          ort
DAV:   1     0.737340593203E+04    0.73734E+04   -0.35075E+05  9568   0.175E+03
DAV:   2     0.488892429207E+03   -0.68845E+04   -0.64567E+04  9568   0.514E+02
DAV:   3    -0.318241593502E+03   -0.80713E+03   -0.78240E+03  9568   0.196E+02
DAV:   4    -0.351663110543E+03   -0.33422E+02   -0.32988E+02  9568   0.386E+01
DAV:   5    -0.353810205721E+03   -0.21471E+01   -0.21183E+01  9568   0.755E+00
SDA:   6    -0.176588440921E+03    0.17722E+03   -0.21183E+01  9568   0.132E+04 0.000E+00
CGA:   7    -0.281188029365E+03   -0.10460E+03   -0.12845E+03  9568   0.371E+03 0.658E+01
CGA:   8    -0.288701880093E+03   -0.75139E+01   -0.77457E+01  9568   0.472E+03-0.828E+01
CGA:   9    -0.283658499217E+03    0.50434E+01   -0.14593E+02  9568   0.909E+03-0.264E+03
CGA:  10    -0.278098426062E+03    0.55601E+01   -0.36190E+02  9568   0.737E+03-0.195E+03
CGA:  11    -0.293373856035E+03   -0.15275E+02   -0.95352E+01  9568   0.498E+03-0.403E+03
CGA:  12    -0.288435325152E+03    0.49385E+01   -0.15125E+02  9568   0.119E+04-0.203E+03
CGA:  13    -0.288079302408E+03    0.35602E+00   -0.12966E+02  9568   0.113E+04-0.535E+03
CGA:  14    -0.274813592073E+03    0.13266E+02   -0.40058E+02  9568   0.870E+03-0.359E+03
CGA:  15    -0.295925987043E+03   -0.21112E+02   -0.11833E+02  9568   0.810E+03 0.245E+03
CGA:  16    -0.252333553781E+03    0.43592E+02   -0.42457E+02  9568   0.215E+04-0.116E+04
CGA:  17    -0.251338459411E+03    0.99509E+00   -0.99794E+02  9568   0.185E+04-0.117E+04
CGA:  18    -0.273018906843E+03   -0.21680E+02   -0.67618E+02  9568   0.169E+04-0.575E+03
CGA:  19    -0.287500239597E+03   -0.14481E+02   -0.23821E+02  9568   0.552E+03 0.222E+03
CGA:  20    -0.299248655851E+03   -0.11748E+02   -0.17456E+02  9568   0.401E+03-0.911E+03
CGA:  21    -0.303048241372E+03   -0.37996E+01   -0.84236E+01  9568   0.547E+03-0.719E+03
CGA:  22    -0.280942294668E+03    0.22106E+02   -0.19244E+02  9568   0.297E+04-0.102E+04
CGA:  23    -0.265101443536E+03    0.15841E+02   -0.12933E+03  9568   0.125E+04-0.510E+03
CGA:  24    -0.294543650515E+03   -0.29442E+02   -0.19022E+02  9568   0.405E+03 0.190E+03
CGA:  25    -0.300553908665E+03   -0.60103E+01   -0.10701E+02  9568   0.535E+03-0.329E+03
CGA:  26    -0.301556165773E+03   -0.10023E+01   -0.10010E+02  9568   0.131E+04-0.600E+03
CGA:  27    -0.294596582423E+03    0.69596E+01   -0.47716E+02  9568   0.868E+03-0.405E+03
CGA:  28    -0.306026107713E+03   -0.11430E+02   -0.12206E+02  9568   0.194E+03-0.293E+03
CGA:  29    -0.307689426141E+03   -0.16633E+01   -0.94793E+00  9568   0.108E+03 0.914E+02
CGA:  30    -0.308752097791E+03   -0.10627E+01   -0.13511E+01  9568   0.584E+02-0.435E+02
CGA:  31    -0.308894926147E+03   -0.14283E+00   -0.68041E-01  9568   0.622E+02 0.396E+02
CGA:  32    -0.309307142919E+03   -0.41222E+00   -0.24110E+00  9568   0.324E+02 0.440E+02
CGA:  33    -0.309468662687E+03   -0.16152E+00   -0.79911E-01  9568   0.292E+02 0.331E+02
CGA:  34    -0.309616275975E+03   -0.14761E+00   -0.72203E-01  9568   0.268E+02 0.303E+02
CGA:  35    -0.309758516887E+03   -0.14224E+00   -0.70194E-01  9568   0.236E+02 0.273E+02
CGA:  36    -0.309894748107E+03   -0.13623E+00   -0.68801E-01  9568   0.190E+02 0.228E+02
CGA:  37    -0.310023856648E+03   -0.12911E+00   -0.67822E-01  9568   0.132E+02 0.168E+02
CGA:  38    -0.310144035480E+03   -0.12018E+00   -0.67949E-01  9568   0.699E+01 0.974E+01
CGA:  39    -0.310262821005E+03   -0.11879E+00   -0.81195E-01  9568   0.350E+01 0.284E+01
CGA:  40    -0.310452987556E+03   -0.19017E+00   -0.18927E+00  9568   0.109E+02-0.116E-01
CGA:  41    -0.310537476629E+03   -0.84489E-01   -0.50914E-01  9568   0.839E+01 0.723E+01
CGA:  42    -0.310653172605E+03   -0.11570E+00   -0.15745E+00  9568   0.696E+01-0.120E+01
CGA:  43    -0.310731715923E+03   -0.78543E-01   -0.50277E-01  9568   0.342E+01 0.319E+01
CGA:  44    -0.310786903548E+03   -0.55188E-01   -0.44234E-01  9568   0.254E+01 0.110E+01
CGA:  45    -0.310892945088E+03   -0.10604E+00   -0.10448E+00  9568   0.126E+02 0.534E-01
CGA:  46    -0.310966210321E+03   -0.73265E-01   -0.81708E-01  9568   0.214E+02-0.103E+02
CGA:  47    -0.311143403026E+03   -0.17719E+00   -0.28352E+00  9568   0.915E+01-0.603E+01
CGA:  48    -0.311212937251E+03   -0.69534E-01   -0.53557E-01  9568   0.275E+01 0.171E+01
CGA:  49    -0.311247707621E+03   -0.34770E-01   -0.31138E-01  9568   0.194E+01 0.303E+00
CGA:  50    -0.311290356361E+03   -0.42649E-01   -0.40953E-01  9568   0.498E+01 0.453E-01
CGA:  51    -0.311360458098E+03   -0.70102E-01   -0.45558E-01  9568   0.646E+01 0.273E+01
CGA:  52    -0.311416846151E+03   -0.56388E-01   -0.62991E-01  9568   0.160E+01-0.554E+00
CGA:  53    -0.311452817125E+03   -0.35971E-01   -0.37486E-01  9568   0.205E+01 0.507E-01
CGA:  54    -0.311550584507E+03   -0.97767E-01   -0.97115E-01  9568   0.599E+01-0.331E-01
CGA:  55    -0.311610917266E+03   -0.60333E-01   -0.40957E-01  9568   0.417E+01 0.225E+01
CGA:  56    -0.311651946233E+03   -0.41029E-01   -0.37639E-01  9568   0.202E+01 0.343E+00
CGA:  57    -0.311670514197E+03   -0.18568E-01   -0.16466E-01  9568   0.203E+01 0.232E+00
CGA:  58    -0.311691009463E+03   -0.20495E-01   -0.18890E-01  9568   0.248E+01 0.145E+00
CGA:  59    -0.311712882299E+03   -0.21873E-01   -0.17410E-01  9568   0.268E+01 0.632E+00
CGA:  60    -0.311733264316E+03   -0.20382E-01   -0.14001E-01  9568   0.218E+01 0.144E+01
CGA:  61    -0.311764918173E+03   -0.31654E-01   -0.34334E-01  9568   0.161E+01-0.333E-01
CGA:  62    -0.311797719855E+03   -0.32802E-01   -0.33237E-01  9568   0.161E+01 0.283E-01
CGA:  63    -0.311882840612E+03   -0.85121E-01   -0.75932E-01  9568   0.104E+01 0.385E+00
CGA:  64    -0.311910764935E+03   -0.27924E-01   -0.28629E-01  9568   0.672E+00 0.598E-01
CGA:  65    -0.311946579159E+03   -0.35814E-01   -0.35561E-01  9568   0.113E+01 0.624E-02
CGA:  66    -0.311980788503E+03   -0.34209E-01   -0.36439E-01  9568   0.103E+01-0.329E+00
CGA:  67    -0.311989084600E+03   -0.82961E-02   -0.70613E-02  9568   0.649E+00 0.102E+00
CGA:  68    -0.311997575901E+03   -0.84913E-02   -0.84505E-02  9568   0.563E+00 0.267E-02
CGA:  69    -0.312010072160E+03   -0.12496E-01   -0.12810E-01  9568   0.852E+00 0.291E-01
CGA:  70    -0.312028912593E+03   -0.18840E-01   -0.18418E-01  9568   0.652E+00 0.122E-01
CGA:  71    -0.312037920049E+03   -0.90075E-02   -0.59375E-02  9568   0.548E+00 0.275E+00
CGA:  72    -0.312045913781E+03   -0.79937E-02   -0.62771E-02  9568   0.495E+00 0.172E+00
CGA:  73    -0.312051840119E+03   -0.59263E-02   -0.54732E-02  9568   0.561E+00 0.432E-01
CGA:  74    -0.312056503457E+03   -0.46633E-02   -0.47874E-02  9568   0.637E+00-0.657E-02
CGA:  75    -0.312061581894E+03   -0.50784E-02   -0.53772E-02  9568   0.700E+00-0.130E-01
CGA:  76    -0.312068202596E+03   -0.66207E-02   -0.64733E-02  9568   0.698E+00 0.254E-01
CGA:  77    -0.312075534093E+03   -0.73315E-02   -0.69850E-02  9568   0.559E+00 0.308E-01
CGA:  78    -0.312081139982E+03   -0.56059E-02   -0.56249E-02  9568   0.360E+00 0.467E-03
CGA:  79    -0.312084461747E+03   -0.33218E-02   -0.34830E-02  9568   0.193E+00-0.107E-01
CGA:  80    -0.312086482835E+03   -0.20211E-02   -0.21154E-02  9568   0.147E+00-0.485E-02
CGA:  81    -0.312089340133E+03   -0.28573E-02   -0.28475E-02  9568   0.241E+00 0.365E-02
CGA:  82    -0.312094798943E+03   -0.54588E-02   -0.54180E-02  9568   0.187E+00 0.564E-02
CGA:  83    -0.312097697072E+03   -0.28981E-02   -0.28901E-02  9568   0.123E+00-0.203E-02
CGA:  84    -0.312100312605E+03   -0.26155E-02   -0.26096E-02  9568   0.115E+00 0.432E-03
CGA:  85    -0.312102349749E+03   -0.20371E-02   -0.20441E-02  9568   0.963E-01 0.151E-02
CGA:  86    -0.312105369536E+03   -0.30198E-02   -0.29437E-02  9568   0.112E+00 0.536E-02
CGA:  87    -0.312107486004E+03   -0.21165E-02   -0.21204E-02  9568   0.611E-01 0.977E-03
CGA:  88    -0.312109514557E+03   -0.20286E-02   -0.19638E-02  9568   0.687E-01 0.437E-02
CGA:  89    -0.312111551706E+03   -0.20371E-02   -0.20149E-02  9568   0.719E-01 0.228E-02
CGA:  90    -0.312114337292E+03   -0.27856E-02   -0.26934E-02  9568   0.424E-01 0.536E-02
SDA:  91    -0.312115933785E+03   -0.15965E-02   -0.15938E-02  9568   0.375E-01 0.167E-03
CGA:  92    -0.312116493388E+03   -0.55960E-03   -0.56052E-03  9568   0.137E-01-0.116E-04
CGA:  93    -0.312118359575E+03   -0.18662E-02   -0.90487E-04  9568   0.499E-01-0.125E-03
CGA:  94    -0.312120280262E+03   -0.19207E-02   -0.19215E-02  9568   0.315E-01 0.653E-03
CGA:  95    -0.312122555300E+03   -0.22750E-02   -0.22517E-02  9568   0.193E-01 0.680E-03
CGA:  96    -0.312123278517E+03   -0.72322E-03   -0.72409E-03  9568   0.191E-01 0.549E-04
CGA:  97    -0.312123770224E+03   -0.49171E-03   -0.49198E-03  9568   0.881E-02-0.284E-04
CGA:  98    -0.312124328236E+03   -0.55801E-03   -0.55298E-03  9568   0.107E-01 0.186E-03
CGA:  99    -0.312124730399E+03   -0.40216E-03   -0.40197E-03  9568   0.478E-02-0.252E-04
CGA: 100    -0.312124901166E+03   -0.17077E-03   -0.17084E-03  9568   0.436E-02 0.529E-05
CGA: 101    -0.312125031556E+03   -0.13039E-03   -0.13052E-03  9568   0.314E-02 0.685E-05
CGA: 102    -0.312125260536E+03   -0.22898E-03   -0.22696E-03  9568   0.249E-02 0.597E-04
CGA: 103    -0.312125364310E+03   -0.10377E-03   -0.10379E-03  9568   0.219E-02 0.139E-04
CGA: 104    -0.312125431978E+03   -0.67668E-04   -0.67846E-04  9568   0.190E-02 0.822E-05
CGA: 105    -0.312125528279E+03   -0.96301E-04   -0.96131E-04  9568   0.183E-02 0.157E-04
CGA: 106    -0.312125592194E+03   -0.63914E-04   -0.64080E-04  9568   0.579E-03 0.132E-04
CGA: 107    -0.312125631697E+03   -0.39503E-04   -0.39385E-04  9568   0.164E-02 0.425E-05
CGA: 108    -0.312125683845E+03   -0.52148E-04   -0.52284E-04  9568   0.591E-03 0.703E-05
CGA: 109    -0.312125720476E+03   -0.36632E-04   -0.36488E-04  9568   0.902E-03 0.711E-05
CGA: 110    -0.312125763183E+03   -0.42707E-04   -0.42644E-04  9568   0.662E-03 0.135E-04
CGA: 111    -0.312125782359E+03   -0.19176E-04   -0.19254E-04  9568   0.574E-03 0.608E-05
CGA: 112    -0.312125808382E+03   -0.26023E-04   -0.25997E-04  9568   0.382E-03 0.107E-04
CGA: 113    -0.312125836778E+03   -0.28395E-04   -0.27907E-04  9568   0.373E-03 0.159E-04
CGA: 114    -0.312125847145E+03   -0.10367E-04   -0.10439E-04  9568   0.291E-03 0.383E-05
CGA: 115    -0.312125860537E+03   -0.13392E-04   -0.13382E-04  9568   0.283E-03 0.413E-05
CGA: 116    -0.312125873467E+03   -0.12930E-04   -0.12925E-04  9568   0.193E-03 0.252E-05
CGA: 117    -0.312125883711E+03   -0.10244E-04   -0.10236E-04  9568   0.238E-03 0.433E-06
CGA: 118    -0.312125890833E+03   -0.71216E-05   -0.71246E-05  9568   0.174E-03-0.540E-06
   1 F= -.31212589E+03 E0= -.31210514E+03  d E =-.312126E+03  mag=    24.2011
       N       E                     dE             d eps       ncg     rms          ort
SDA:   1    -0.312130233839E+03   -0.43501E-02    0.00000E+00  9568   0.164E+00 0.000E+00
CGA:   2    -0.312132373219E+03   -0.21394E-02   -0.20783E-02  9568   0.135E-01 0.375E-02
CGA:   3    -0.312132670382E+03   -0.29716E-03   -0.29831E-03  9568   0.456E-02-0.301E-04
CGA:   4    -0.312132959471E+03   -0.28909E-03   -0.29063E-03  9568   0.615E-02-0.575E-04
CGA:   5    -0.312133326948E+03   -0.36748E-03   -0.36747E-03  9568   0.700E-02-0.908E-06
CGA:   6    -0.312133461698E+03   -0.13475E-03   -0.13459E-03  9568   0.271E-02 0.690E-08
CGA:   7    -0.312133574328E+03   -0.11263E-03   -0.11263E-03  9568   0.827E-03-0.183E-05
CGA:   8    -0.312133629641E+03   -0.55312E-04   -0.55350E-04  9568   0.698E-03-0.134E-05
CGA:   9    -0.312133651380E+03   -0.21740E-04   -0.21723E-04  9568   0.764E-03-0.113E-05
CGA:  10    -0.312133676521E+03   -0.25140E-04   -0.25137E-04  9568   0.280E-03-0.927E-06
CGA:  11    -0.312133684702E+03   -0.81813E-05   -0.81751E-05  9568   0.118E-03-0.406E-06
   2 F= -.31213368E+03 E0= -.31211293E+03  d E =-.779387E-02  mag=    24.1987
       N       E                     dE             d eps       ncg     rms          ort
SDA:   1    -0.311100949746E+03    0.10327E+01    0.00000E+00  9568   0.359E+01 0.000E+00
CGA:   2    -0.311466749014E+03   -0.36580E+00   -0.37897E+00  9568   0.178E+02-0.215E+00
CGA:   3    -0.311936771777E+03   -0.47002E+00   -0.46656E+00  9568   0.609E+01-0.220E-01
CGA:   4    -0.312086196254E+03   -0.14942E+00   -0.13347E+00  9568   0.157E+01 0.336E+00
CGA:   5    -0.312203180248E+03   -0.11698E+00   -0.11643E+00  9568   0.202E+01 0.190E-01
CGA:   6    -0.312263742242E+03   -0.60562E-01   -0.60232E-01  9568   0.185E+01-0.183E-02
CGA:   7    -0.312314808369E+03   -0.51066E-01   -0.50386E-01  9568   0.322E+00 0.183E-02
CGA:   8    -0.312327428899E+03   -0.12621E-01   -0.12613E-01  9568   0.392E+00-0.883E-03
CGA:   9    -0.312342700713E+03   -0.15272E-01   -0.15263E-01  9568   0.346E+00-0.112E-02
CGA:  10    -0.312350134694E+03   -0.74340E-02   -0.73081E-02  9568   0.103E+00 0.281E-02
CGA:  11    -0.312354212066E+03   -0.40774E-02   -0.40772E-02  9568   0.502E-01-0.372E-04
CGA:  12    -0.312356366685E+03   -0.21546E-02   -0.21534E-02  9568   0.614E-01 0.384E-03
CGA:  13    -0.312357854129E+03   -0.14874E-02   -0.14910E-02  9568   0.348E-01-0.306E-04
CGA:  14    -0.312359771604E+03   -0.19175E-02   -0.19089E-02  9568   0.236E-01 0.453E-03
CGA:  15    -0.312360411793E+03   -0.64019E-03   -0.64088E-03  9568   0.102E-01 0.194E-04
CGA:  16    -0.312360810482E+03   -0.39869E-03   -0.39865E-03  9568   0.126E-01-0.968E-05
CGA:  17    -0.312361131895E+03   -0.32141E-03   -0.32179E-03  9568   0.544E-02 0.106E-04
CGA:  18    -0.312361762337E+03   -0.63044E-03   -0.62677E-03  9568   0.457E-02 0.513E-04
CGA:  19    -0.312361860816E+03   -0.98479E-04   -0.98597E-04  9568   0.226E-02 0.347E-05
CGA:  20    -0.312361959524E+03   -0.98708E-04   -0.98698E-04  9568   0.353E-02 0.510E-05
CGA:  21    -0.312362106749E+03   -0.14722E-03   -0.14723E-03  9568   0.216E-02 0.696E-05
CGA:  22    -0.312362250898E+03   -0.14415E-03   -0.14410E-03  9568   0.153E-02 0.215E-05
CGA:  23    -0.312362306950E+03   -0.56053E-04   -0.56082E-04  9568   0.182E-02 0.206E-05
CGA:  24    -0.312362353769E+03   -0.46819E-04   -0.46706E-04  9568   0.651E-03 0.145E-05
CGA:  25    -0.312362389267E+03   -0.35499E-04   -0.35468E-04  9568   0.950E-03 0.223E-05
CGA:  26    -0.312362446291E+03   -0.57024E-04   -0.56905E-04  9568   0.814E-03 0.685E-05
CGA:  27    -0.312362472581E+03   -0.26290E-04   -0.26347E-04  9568   0.467E-03 0.305E-05
CGA:  28    -0.312362482494E+03   -0.99130E-05   -0.99424E-05  9568   0.242E-03 0.180E-05
CGA:  29    -0.312362501116E+03   -0.18623E-04   -0.18468E-04  9568   0.221E-03 0.454E-05
CGA:  30    -0.312362517565E+03   -0.16449E-04   -0.16337E-04  9568   0.337E-03 0.387E-05
CGA:  31    -0.312362526154E+03   -0.85891E-05   -0.86207E-05  9568   0.140E-03 0.164E-05
   3 F= -.31236253E+03 E0= -.31234181E+03  d E =-.228841E+00  mag=    24.1994
       N       E                     dE             d eps       ncg     rms          ort
SDA:   1    -0.303704706841E+03    0.86578E+01    0.00000E+00  9568   0.107E+03 0.000E+00
CGA:   2    -0.305134986807E+03   -0.14303E+01   -0.21995E+01  9568   0.705E+02-0.488E+02
CGA:   3    -0.306820464605E+03   -0.16855E+01   -0.43811E+01  9568   0.189E+03-0.376E+02
CGA:   4    -0.308306951398E+03   -0.14865E+01   -0.41218E+01  9568   0.127E+03-0.111E+03
CGA:   5    -0.309717879886E+03   -0.14109E+01   -0.23913E+01  9568   0.769E+02-0.965E+02
CGA:   6    -0.310573567989E+03   -0.85569E+00   -0.12163E+01  9568   0.302E+02-0.442E+02
CGA:   7    -0.310905204395E+03   -0.33164E+00   -0.39136E+00  9568   0.739E+01-0.619E+01
CGA:   8    -0.311547432392E+03   -0.64223E+00   -0.62351E+00  9568   0.234E+02 0.399E+00
CGA:   9    -0.312120331515E+03   -0.57290E+00   -0.53208E+00  9568   0.622E+01 0.347E+00
CGA:  10    -0.312293141266E+03   -0.17281E+00   -0.17576E+00  9568   0.478E+01-0.433E-01
CGA:  11    -0.312468517254E+03   -0.17538E+00   -0.17346E+00  9568   0.448E+01-0.129E+00
CGA:  12    -0.312593288405E+03   -0.12477E+00   -0.13041E+00  9568   0.211E+01 0.465E-01
CGA:  13    -0.312641432852E+03   -0.48144E-01   -0.46628E-01  9568   0.896E+00 0.246E-01
CGA:  14    -0.312675066507E+03   -0.33634E-01   -0.33802E-01  9568   0.833E+00 0.253E-01
CGA:  15    -0.312697717287E+03   -0.22651E-01   -0.22283E-01  9568   0.385E+00 0.454E-03
CGA:  16    -0.312711080103E+03   -0.13363E-01   -0.13502E-01  9568   0.376E+00 0.124E-01
CGA:  17    -0.312724860216E+03   -0.13780E-01   -0.13662E-01  9568   0.321E+00-0.119E-01
CGA:  18    -0.312735467341E+03   -0.10607E-01   -0.10798E-01  9568   0.143E+00 0.177E-01
CGA:  19    -0.312739056105E+03   -0.35888E-02   -0.35495E-02  9568   0.824E-01 0.345E-03
CGA:  20    -0.312744536933E+03   -0.54808E-02   -0.51718E-02  9568   0.109E+00 0.109E-01
CGA:  21    -0.312747842226E+03   -0.33053E-02   -0.32294E-02  9568   0.689E-01-0.571E-04
CGA:  22    -0.312751717347E+03   -0.38751E-02   -0.37401E-02  9568   0.557E-01 0.655E-02
CGA:  23    -0.312753223755E+03   -0.15064E-02   -0.14907E-02  9568   0.318E-01 0.898E-04
CGA:  24    -0.312755092900E+03   -0.18691E-02   -0.18300E-02  9568   0.336E-01 0.168E-02
CGA:  25    -0.312756055590E+03   -0.96269E-03   -0.95631E-03  9568   0.203E-01-0.155E-04
CGA:  26    -0.312757203175E+03   -0.11476E-02   -0.11374E-02  9568   0.236E-01 0.473E-03
CGA:  27    -0.312757830576E+03   -0.62740E-03   -0.62398E-03  9568   0.851E-02 0.141E-04
CGA:  28    -0.312758145846E+03   -0.31527E-03   -0.31538E-03  9568   0.766E-02 0.267E-04
CGA:  29    -0.312758466095E+03   -0.32025E-03   -0.32039E-03  9568   0.719E-02-0.268E-04
CGA:  30    -0.312758722695E+03   -0.25660E-03   -0.25674E-03  9568   0.429E-02 0.212E-04
CGA:  31    -0.312758861703E+03   -0.13901E-03   -0.13890E-03  9568   0.303E-02-0.316E-05
CGA:  32    -0.312758980736E+03   -0.11903E-03   -0.11901E-03  9568   0.209E-02 0.141E-04
CGA:  33    -0.312759050494E+03   -0.69758E-04   -0.69728E-04  9568   0.176E-02-0.193E-05
CGA:  34    -0.312759139181E+03   -0.88687E-04   -0.88513E-04  9568   0.172E-02 0.109E-04
CGA:  35    -0.312759189693E+03   -0.50512E-04   -0.50460E-04  9568   0.101E-02-0.274E-06
CGA:  36    -0.312759239288E+03   -0.49595E-04   -0.49515E-04  9568   0.110E-02 0.547E-05
SDA:  37    -0.312759272025E+03   -0.32737E-04   -0.32690E-04  9568   0.545E-03-0.102E-05
CGA:  38    -0.312759280208E+03   -0.81828E-05   -0.81823E-05  9568   0.186E-03-0.782E-06
CGA:  39    -0.312759294951E+03   -0.14743E-04   -0.14800E-04  9568   0.283E-03-0.211E-05
CGA:  40    -0.312759328775E+03   -0.33824E-04   -0.34124E-04  9568   0.532E-03-0.403E-05
CGA:  41    -0.312759350419E+03   -0.21644E-04   -0.21630E-04  9568   0.606E-03-0.368E-05
CGA:  42    -0.312759363949E+03   -0.13530E-04   -0.13543E-04  9568   0.157E-03-0.149E-05
CGA:  43    -0.312759373260E+03   -0.93114E-05   -0.93217E-05  9568   0.134E-03-0.859E-06
   4 F= -.31275937E+03 E0= -.31273884E+03  d E =-.396847E+00  mag=    24.1939
       N       E                     dE             d eps       ncg     rms          ort
SDA:   1    -0.301158116197E+03    0.11601E+02    0.00000E+00  9568   0.530E+02 0.000E+00
CGA:   2    -0.303620544611E+03   -0.24624E+01   -0.24169E+01  9568   0.441E+02 0.120E+02
CGA:   3    -0.307839494683E+03   -0.42190E+01   -0.43687E+01  9568   0.622E+02 0.101E+01
CGA:   4    -0.310419037849E+03   -0.25795E+01   -0.25392E+01  9568   0.383E+02-0.392E+01
CGA:   5    -0.311034364955E+03   -0.61533E+00   -0.64021E+00  9568   0.188E+02-0.180E+01
CGA:   6    -0.311519636175E+03   -0.48527E+00   -0.50371E+00  9568   0.297E+02-0.262E+00
CGA:   7    -0.311992856753E+03   -0.47322E+00   -0.36007E+00  9568   0.101E+02 0.652E+01
CGA:   8    -0.312230926205E+03   -0.23807E+00   -0.27490E+00  9568   0.159E+02-0.768E+00
CGA:   9    -0.312480274488E+03   -0.24935E+00   -0.28404E+00  9568   0.136E+02-0.928E+00
CGA:  10    -0.312663716745E+03   -0.18344E+00   -0.18141E+00  9568   0.420E+01-0.491E-01
CGA:  11    -0.312748060594E+03   -0.84344E-01   -0.82635E-01  9568   0.386E+01 0.203E-01
CGA:  12    -0.312799902627E+03   -0.51842E-01   -0.39093E-01  9568   0.165E+01 0.104E+01
CGA:  13    -0.312824660840E+03   -0.24758E-01   -0.23353E-01  9568   0.141E+01 0.920E-01
CGA:  14    -0.312853715397E+03   -0.29055E-01   -0.28809E-01  9568   0.283E+01 0.498E-02
CGA:  15    -0.312892685248E+03   -0.38970E-01   -0.38563E-01  9568   0.340E+01 0.167E-01
CGA:  16    -0.312929149626E+03   -0.36464E-01   -0.41066E-01  9568   0.224E+01-0.276E+00
CGA:  17    -0.312947524614E+03   -0.18375E-01   -0.20395E-01  9568   0.116E+01-0.162E+00
CGA:  18    -0.312960604693E+03   -0.13080E-01   -0.13222E-01  9568   0.895E+00-0.948E-02
CGA:  19    -0.312970717652E+03   -0.10113E-01   -0.10204E-01  9568   0.463E+00-0.588E-02
CGA:  20    -0.312975545802E+03   -0.48282E-02   -0.50796E-02  9568   0.277E+00-0.155E-01
CGA:  21    -0.312981337316E+03   -0.57915E-02   -0.57903E-02  9568   0.556E+00 0.497E-04
CGA:  22    -0.312993607664E+03   -0.12270E-01   -0.12307E-01  9568   0.596E+00 0.195E-02
CGA:  23    -0.313001134512E+03   -0.75268E-02   -0.76852E-02  9568   0.418E+00-0.654E-02
CGA:  24    -0.313010693403E+03   -0.95589E-02   -0.97046E-02  9568   0.482E+00 0.168E-01
CGA:  25    -0.313017419182E+03   -0.67258E-02   -0.68376E-02  9568   0.110E+00-0.361E-02
CGA:  26    -0.313019424156E+03   -0.20050E-02   -0.20042E-02  9568   0.815E-01 0.854E-05
CGA:  27    -0.313021513153E+03   -0.20890E-02   -0.20888E-02  9568   0.879E-01 0.112E-02
CGA:  28    -0.313024064369E+03   -0.25512E-02   -0.25463E-02  9568   0.981E-01 0.949E-03
CGA:  29    -0.313026508994E+03   -0.24446E-02   -0.24451E-02  9568   0.938E-01 0.235E-03
CGA:  30    -0.313029165004E+03   -0.26560E-02   -0.26574E-02  9568   0.561E-01-0.318E-03
CGA:  31    -0.313030061466E+03   -0.89646E-03   -0.89529E-03  9568   0.306E-01 0.115E-04
SDA:  32    -0.313031124379E+03   -0.10629E-02   -0.10621E-02  9568   0.285E-01 0.560E-04
CGA:  33    -0.313031643899E+03   -0.51952E-03   -0.51827E-03  9568   0.127E-01-0.186E-04
CGA:  34    -0.313032267734E+03   -0.62384E-03   -0.62304E-03  9568   0.169E-01 0.331E-04
CGA:  35    -0.313032990508E+03   -0.72277E-03   -0.72308E-03  9568   0.820E-02-0.167E-04
CGA:  36    -0.313033417038E+03   -0.42653E-03   -0.42588E-03  9568   0.463E-02 0.254E-04
CGA:  37    -0.313033719323E+03   -0.30229E-03   -0.30170E-03  9568   0.387E-02 0.161E-04
CGA:  38    -0.313033907167E+03   -0.18784E-03   -0.18776E-03  9568   0.745E-02 0.493E-05
CGA:  39    -0.313034119426E+03   -0.21226E-03   -0.21237E-03  9568   0.190E-02 0.215E-04
CGA:  40    -0.313034256434E+03   -0.13701E-03   -0.13690E-03  9568   0.120E-02 0.215E-05
CGA:  41    -0.313034314124E+03   -0.57689E-04   -0.57690E-04  9568   0.155E-02-0.640E-06
CGA:  42    -0.313034484553E+03   -0.17043E-03   -0.17059E-03  9568   0.241E-02-0.183E-05
CGA:  43    -0.313034546963E+03   -0.62409E-04   -0.62384E-04  9568   0.161E-02-0.583E-06
CGA:  44    -0.313034589955E+03   -0.42992E-04   -0.43081E-04  9568   0.418E-03 0.304E-05
CGA:  45    -0.313034653888E+03   -0.63934E-04   -0.61841E-04  9568   0.756E-03 0.188E-04
CGA:  46    -0.313034691285E+03   -0.37397E-04   -0.37360E-04  9568   0.338E-03 0.750E-05
CGA:  47    -0.313034715901E+03   -0.24617E-04   -0.24538E-04  9568   0.641E-03 0.255E-05
CGA:  48    -0.313034750454E+03   -0.34553E-04   -0.34543E-04  9568   0.321E-03 0.631E-06
CGA:  49    -0.313034757485E+03   -0.70308E-05   -0.70103E-05  9568   0.239E-03-0.102E-05
CGA:  50    -0.313034774639E+03   -0.17154E-04   -0.17282E-04  9568   0.142E-03-0.449E-05
CGA:  51    -0.313034782783E+03   -0.81439E-05   -0.81701E-05  9568   0.883E-04-0.203E-05
   5 F= -.31303478E+03 E0= -.31301448E+03  d E =-.275410E+00  mag=    24.1843
       N       E                     dE             d eps       ncg     rms          ort
SDA:   1    -0.301908685347E+03    0.11126E+02    0.00000E+00  9568   0.476E+02 0.000E+00
CGA:   2    -0.304226871351E+03   -0.23182E+01   -0.22873E+01  9568   0.445E+02 0.985E+01
CGA:   3    -0.308347902636E+03   -0.41210E+01   -0.45801E+01  9568   0.841E+02-0.730E+01
CGA:   4    -0.309916747663E+03   -0.15688E+01   -0.17995E+01  9568   0.631E+02-0.761E+01
CGA:   5    -0.311048313987E+03   -0.11316E+01   -0.89731E+00  9568   0.132E+02 0.351E+01
CGA:   6    -0.311575476403E+03   -0.52716E+00   -0.53144E+00  9568   0.234E+02 0.176E+00
CGA:   7    -0.312045258539E+03   -0.46978E+00   -0.39747E+00  9568   0.196E+02 0.324E+01
CGA:   8    -0.312488047321E+03   -0.44279E+00   -0.42645E+00  9568   0.106E+02 0.174E+00
CGA:   9    -0.312725639036E+03   -0.23759E+00   -0.27336E+00  9568   0.691E+01-0.171E+00
CGA:  10    -0.312810489015E+03   -0.84850E-01   -0.72494E-01  9568   0.289E+01 0.920E+00
CGA:  11    -0.312882088327E+03   -0.71599E-01   -0.72688E-01  9568   0.356E+01-0.357E-01
CGA:  12    -0.312933337639E+03   -0.51249E-01   -0.55040E-01  9568   0.253E+01-0.180E+00
CGA:  13    -0.312978426981E+03   -0.45089E-01   -0.45318E-01  9568   0.273E+01-0.685E-02
CGA:  14    -0.313036133989E+03   -0.57707E-01   -0.56180E-01  9568   0.278E+01 0.242E-01
CGA:  15    -0.313070355512E+03   -0.34222E-01   -0.32443E-01  9568   0.114E+01 0.102E+00
CGA:  16    -0.313084688546E+03   -0.14333E-01   -0.15727E-01  9568   0.734E+00-0.727E-01
CGA:  17    -0.313097525961E+03   -0.12837E-01   -0.13147E-01  9568   0.795E+00-0.591E-02
CGA:  18    -0.313110819654E+03   -0.13294E-01   -0.13145E-01  9568   0.428E+00 0.395E-02
CGA:  19    -0.313118732239E+03   -0.79126E-02   -0.79256E-02  9568   0.520E+00-0.307E-03
CGA:  20    -0.313132108833E+03   -0.13377E-01   -0.13425E-01  9568   0.627E+00 0.232E-02
CGA:  21    -0.313142065558E+03   -0.99567E-02   -0.10620E-01  9568   0.358E+00-0.156E-01
CGA:  22    -0.313151130799E+03   -0.90652E-02   -0.92643E-02  9568   0.298E+00 0.166E-01
CGA:  23    -0.313156269543E+03   -0.51387E-02   -0.49997E-02  9568   0.699E-01 0.390E-02
CGA:  24    -0.313158316118E+03   -0.20466E-02   -0.20459E-02  9568   0.867E-01-0.340E-03
CGA:  25    -0.313162571160E+03   -0.42550E-02   -0.42277E-02  9568   0.147E+00 0.122E-02
CGA:  26    -0.313165828929E+03   -0.32578E-02   -0.33090E-02  9568   0.800E-01 0.838E-03
CGA:  27    -0.313168751090E+03   -0.29222E-02   -0.28956E-02  9568   0.370E-01 0.302E-02
CGA:  28    -0.313169588821E+03   -0.83773E-03   -0.83961E-03  9568   0.202E-01 0.301E-04
CGA:  29    -0.313170388296E+03   -0.79948E-03   -0.79781E-03  9568   0.228E-01 0.130E-03
CGA:  30    -0.313171180366E+03   -0.79207E-03   -0.79089E-03  9568   0.173E-01 0.184E-03
CGA:  31    -0.313172106793E+03   -0.92643E-03   -0.92400E-03  9568   0.174E-01 0.981E-04
SDA:  32    -0.313172488280E+03   -0.38149E-03   -0.38172E-03  9568   0.863E-02 0.490E-05
CGA:  33    -0.313172689304E+03   -0.20102E-03   -0.20107E-03  9568   0.516E-02 0.155E-05
CGA:  34    -0.313172858137E+03   -0.16883E-03   -0.16884E-03  9568   0.458E-02-0.216E-05
CGA:  35    -0.313173226132E+03   -0.36799E-03   -0.36696E-03  9568   0.369E-02 0.208E-04
CGA:  36    -0.313173405735E+03   -0.17960E-03   -0.17936E-03  9568   0.321E-02 0.134E-04
CGA:  37    -0.313173563793E+03   -0.15806E-03   -0.15787E-03  9568   0.156E-02 0.115E-04
CGA:  38    -0.313173703483E+03   -0.13969E-03   -0.13898E-03  9568   0.941E-03 0.131E-04
CGA:  39    -0.313173790737E+03   -0.87254E-04   -0.86965E-04  9568   0.195E-02 0.502E-05
CGA:  40    -0.313173831662E+03   -0.40925E-04   -0.40955E-04  9568   0.809E-03 0.516E-06
CGA:  41    -0.313173882130E+03   -0.50468E-04   -0.50413E-04  9568   0.115E-02 0.208E-05
CGA:  42    -0.313173957043E+03   -0.74913E-04   -0.74740E-04  9568   0.134E-02 0.644E-05
CGA:  43    -0.313174028831E+03   -0.71788E-04   -0.71475E-04  9568   0.325E-03 0.204E-04
CGA:  44    -0.313174053233E+03   -0.24402E-04   -0.24331E-04  9568   0.980E-03 0.197E-05
CGA:  45    -0.313174079259E+03   -0.26027E-04   -0.26074E-04  9568   0.307E-03 0.257E-05
CGA:  46    -0.313174103203E+03   -0.23943E-04   -0.23817E-04  9568   0.361E-03 0.345E-05
CGA:  47    -0.313174125292E+03   -0.22090E-04   -0.22046E-04  9568   0.170E-03 0.252E-05
CGA:  48    -0.313174132979E+03   -0.76866E-05   -0.76864E-05  9568   0.185E-03-0.311E-06
   6 F= -.31317413E+03 E0= -.31315403E+03  d E =-.139350E+00  mag=    24.1723
       N       E                     dE             d eps       ncg     rms          ort
SDA:   1    -0.294919585458E+03    0.18255E+02    0.00000E+00  9568   0.632E+02 0.000E+00
CGA:   2    -0.298380642880E+03   -0.34611E+01   -0.33150E+01  9568   0.110E+03 0.132E+02
CGA:   3    -0.303815068870E+03   -0.54344E+01   -0.55027E+01  9568   0.172E+03 0.442E+01
CGA:   4    -0.307561977680E+03   -0.37469E+01   -0.44536E+01  9568   0.155E+03-0.474E+02
CGA:   5    -0.308849778794E+03   -0.12878E+01   -0.22634E+01  9568   0.626E+02-0.268E+02
CGA:   6    -0.310375348854E+03   -0.15256E+01   -0.11864E+01  9568   0.166E+02 0.479E+01
CGA:   7    -0.310911671353E+03   -0.53632E+00   -0.52493E+00  9568   0.391E+02-0.205E+00
CGA:   8    -0.312005487960E+03   -0.10938E+01   -0.97838E+00  9568   0.217E+02 0.670E+00
CGA:   9    -0.312377261280E+03   -0.37177E+00   -0.45096E+00  9568   0.194E+02-0.206E+01
CGA:  10    -0.312581075293E+03   -0.20381E+00   -0.26799E+00  9568   0.725E+01-0.303E+01
CGA:  11    -0.312689616456E+03   -0.10854E+00   -0.10206E+00  9568   0.349E+01 0.177E+00
CGA:  12    -0.312794122677E+03   -0.10451E+00   -0.10542E+00  9568   0.510E+01 0.212E-01
CGA:  13    -0.312926505029E+03   -0.13238E+00   -0.13055E+00  9568   0.476E+01-0.201E-01
CGA:  14    -0.313000614420E+03   -0.74109E-01   -0.65634E-01  9568   0.239E+01 0.410E+00
CGA:  15    -0.313067453771E+03   -0.66839E-01   -0.67473E-01  9568   0.309E+01 0.778E-02
CGA:  16    -0.313100960084E+03   -0.33506E-01   -0.28097E-01  9568   0.126E+01 0.486E+00
CGA:  17    -0.313119692640E+03   -0.18733E-01   -0.20075E-01  9568   0.140E+01-0.647E-01
CGA:  18    -0.313141274652E+03   -0.21582E-01   -0.22477E-01  9568   0.142E+01-0.264E-01
CGA:  19    -0.313159704390E+03   -0.18430E-01   -0.20155E-01  9568   0.115E+01-0.709E-01
CGA:  20    -0.313177226948E+03   -0.17523E-01   -0.17491E-01  9568   0.106E+01-0.472E-03
CGA:  21    -0.313196382568E+03   -0.19156E-01   -0.19055E-01  9568   0.968E+00 0.177E-02
CGA:  22    -0.313209643521E+03   -0.13261E-01   -0.12627E-01  9568   0.638E+00 0.289E-01
CGA:  23    -0.313217867641E+03   -0.82241E-02   -0.83206E-02  9568   0.413E+00-0.531E-02
CGA:  24    -0.313224633817E+03   -0.67662E-02   -0.69317E-02  9568   0.487E+00-0.221E-02
CGA:  25    -0.313232079441E+03   -0.74456E-02   -0.75568E-02  9568   0.232E+00-0.201E-02
CGA:  26    -0.313235443018E+03   -0.33636E-02   -0.34036E-02  9568   0.226E+00-0.109E-02
CGA:  27    -0.313241925582E+03   -0.64826E-02   -0.64770E-02  9568   0.326E+00 0.123E-02
CGA:  28    -0.313246715096E+03   -0.47895E-02   -0.49048E-02  9568   0.184E+00-0.264E-02
CGA:  29    -0.313250429238E+03   -0.37141E-02   -0.37161E-02  9568   0.164E+00 0.682E-04
CGA:  30    -0.313252899627E+03   -0.24704E-02   -0.25001E-02  9568   0.646E-01-0.474E-03
CGA:  31    -0.313254106167E+03   -0.12065E-02   -0.12062E-02  9568   0.639E-01 0.109E-04
SDA:  32    -0.313255778411E+03   -0.16722E-02   -0.16711E-02  9568   0.753E-01 0.445E-03
CGA:  33    -0.313257265011E+03   -0.14866E-02   -0.14874E-02  9568   0.146E-01 0.340E-04
CGA:  34    -0.313258483105E+03   -0.12181E-02   -0.12165E-02  9568   0.581E-01 0.307E-04
CGA:  35    -0.313260374086E+03   -0.18910E-02   -0.18901E-02  9568   0.263E-01 0.133E-03
CGA:  36    -0.313261394467E+03   -0.10204E-02   -0.10162E-02  9568   0.860E-02 0.303E-03
CGA:  37    -0.313261953064E+03   -0.55860E-03   -0.55858E-03  9568   0.350E-02-0.364E-06
CGA:  38    -0.313262127015E+03   -0.17395E-03   -0.17395E-03  9568   0.754E-02-0.135E-05
CGA:  39    -0.313262386448E+03   -0.25943E-03   -0.25944E-03  9568   0.445E-02-0.270E-05
CGA:  40    -0.313262603786E+03   -0.21734E-03   -0.21696E-03  9568   0.385E-02 0.185E-04
CGA:  41    -0.313262763214E+03   -0.15943E-03   -0.15918E-03  9568   0.139E-02 0.210E-04
CGA:  42    -0.313262894460E+03   -0.13125E-03   -0.12992E-03  9568   0.460E-02 0.222E-04
CGA:  43    -0.313262998699E+03   -0.10424E-03   -0.10461E-03  9568   0.110E-02 0.127E-04
CGA:  44    -0.313263063962E+03   -0.65264E-04   -0.65127E-04  9568   0.102E-02 0.547E-05
CGA:  45    -0.313263154871E+03   -0.90909E-04   -0.90446E-04  9568   0.132E-02 0.929E-05
CGA:  46    -0.313263204089E+03   -0.49217E-04   -0.49219E-04  9568   0.153E-02 0.180E-06
CGA:  47    -0.313263256738E+03   -0.52650E-04   -0.52664E-04  9568   0.994E-03 0.772E-06
CGA:  48    -0.313263289579E+03   -0.32840E-04   -0.32838E-04  9568   0.372E-03 0.405E-06
CGA:  49    -0.313263316207E+03   -0.26629E-04   -0.26528E-04  9568   0.312E-03 0.287E-05
CGA:  50    -0.313263344341E+03   -0.28134E-04   -0.28057E-04  9568   0.285E-03 0.146E-05
CGA:  51    -0.313263350158E+03   -0.58166E-05   -0.58198E-05  9568   0.156E-03-0.764E-07
   7 F= -.31326335E+03 E0= -.31324331E+03  d E =-.892172E-01  mag=    24.1638
       N       E                     dE             d eps       ncg     rms          ort
SDA:   1    -0.280673134424E+03    0.32590E+02    0.00000E+00  9568   0.203E+03 0.000E+00
CGA:   2    -0.286674278675E+03   -0.60011E+01   -0.64528E+01  9568   0.160E+03-0.644E+01
CGA:   3    -0.294358800819E+03   -0.76845E+01   -0.79557E+01  9568   0.301E+03-0.190E+01
CGA:   4    -0.299180061685E+03   -0.48213E+01   -0.66617E+01  9568   0.329E+03-0.853E+02
CGA:   5    -0.305084216090E+03   -0.59042E+01   -0.61110E+01  9568   0.581E+02-0.997E+01
CGA:   6    -0.307032560997E+03   -0.19483E+01   -0.18939E+01  9568   0.684E+02-0.358E+01
CGA:   7    -0.309217133021E+03   -0.21846E+01   -0.19717E+01  9568   0.546E+02-0.529E+01
CGA:   8    -0.310758836000E+03   -0.15417E+01   -0.15981E+01  9568   0.547E+02 0.191E+01
CGA:   9    -0.311647783821E+03   -0.88895E+00   -0.85417E+00  9568   0.172E+02-0.289E+01
CGA:  10    -0.311976337539E+03   -0.32855E+00   -0.29363E+00  9568   0.133E+02 0.694E+00
CGA:  11    -0.312199774494E+03   -0.22344E+00   -0.17796E+00  9568   0.115E+02 0.267E+01
CGA:  12    -0.312386522394E+03   -0.18675E+00   -0.17877E+00  9568   0.102E+02 0.226E+00
CGA:  13    -0.312512108940E+03   -0.12559E+00   -0.12990E+00  9568   0.107E+02-0.297E+00
CGA:  14    -0.312650640987E+03   -0.13853E+00   -0.14212E+00  9568   0.119E+02-0.320E+00
CGA:  15    -0.312766634855E+03   -0.11599E+00   -0.11661E+00  9568   0.929E+01-0.265E+00
CGA:  16    -0.312859469735E+03   -0.92835E-01   -0.87523E-01  9568   0.714E+01 0.331E+00
CGA:  17    -0.312919792689E+03   -0.60323E-01   -0.51645E-01  9568   0.491E+01 0.942E+00
CGA:  18    -0.312962815626E+03   -0.43023E-01   -0.41788E-01  9568   0.377E+01 0.859E-01
CGA:  19    -0.312989447608E+03   -0.26632E-01   -0.23014E-01  9568   0.292E+01 0.511E+00
CGA:  20    -0.313010463601E+03   -0.21016E-01   -0.17341E-01  9568   0.238E+01 0.622E+00
CGA:  21    -0.313028989953E+03   -0.18526E-01   -0.15821E-01  9568   0.232E+01 0.433E+00
CGA:  22    -0.313045543569E+03   -0.16554E-01   -0.15366E-01  9568   0.250E+01 0.180E+00
CGA:  23    -0.313060289087E+03   -0.14746E-01   -0.16129E-01  9568   0.290E+01-0.198E+00
CGA:  24    -0.313074114483E+03   -0.13825E-01   -0.17227E-01  9568   0.363E+01-0.434E+00
CGA:  25    -0.313092447220E+03   -0.18333E-01   -0.24590E-01  9568   0.532E+01-0.593E+00
CGA:  26    -0.313141460588E+03   -0.49013E-01   -0.43842E-01  9568   0.617E+01 0.723E+00
CGA:  27    -0.313169979787E+03   -0.28519E-01   -0.18227E-01  9568   0.382E+01 0.362E+01
CGA:  28    -0.313218685776E+03   -0.48706E-01   -0.49660E-01  9568   0.791E+00-0.901E-02
CGA:  29    -0.313240151509E+03   -0.21466E-01   -0.21696E-01  9568   0.305E+00-0.225E-01
CGA:  30    -0.313256344820E+03   -0.16193E-01   -0.16381E-01  9568   0.480E+00-0.586E-02
CGA:  31    -0.313271502321E+03   -0.15158E-01   -0.14858E-01  9568   0.345E+00 0.244E-01
CGA:  32    -0.313286628113E+03   -0.15126E-01   -0.15950E-01  9568   0.414E+00-0.378E-01
CGA:  33    -0.313295948894E+03   -0.93208E-02   -0.92622E-02  9568   0.211E+00 0.183E-01
CGA:  34    -0.313304493887E+03   -0.85450E-02   -0.82789E-02  9568   0.668E-01 0.159E-01
CGA:  35    -0.313307535372E+03   -0.30415E-02   -0.30700E-02  9568   0.151E+00-0.144E-02
CGA:  36    -0.313313441199E+03   -0.59058E-02   -0.57000E-02  9568   0.841E-01 0.122E-01
CGA:  37    -0.313315158231E+03   -0.17170E-02   -0.17379E-02  9568   0.299E-01 0.515E-03
CGA:  38    -0.313316451734E+03   -0.12935E-02   -0.13081E-02  9568   0.679E-01-0.728E-03
CGA:  39    -0.313319441912E+03   -0.29902E-02   -0.29481E-02  9568   0.483E-01 0.194E-02
CGA:  40    -0.313320787007E+03   -0.13451E-02   -0.13454E-02  9568   0.468E-01 0.126E-02
CGA:  41    -0.313322070554E+03   -0.12835E-02   -0.12831E-02  9568   0.165E-01-0.441E-03
CGA:  42    -0.313323256385E+03   -0.11858E-02   -0.11876E-02  9568   0.226E-01-0.502E-04
CGA:  43    -0.313323708990E+03   -0.45260E-03   -0.45518E-03  9568   0.122E-01 0.278E-05
CGA:  44    -0.313324412482E+03   -0.70349E-03   -0.69967E-03  9568   0.896E-02 0.130E-03
CGA:  45    -0.313324853637E+03   -0.44116E-03   -0.43869E-03  9568   0.110E-01 0.117E-03
CGA:  46    -0.313325216980E+03   -0.36334E-03   -0.36319E-03  9568   0.879E-02 0.597E-04
CGA:  47    -0.313325464580E+03   -0.24760E-03   -0.24789E-03  9568   0.445E-02 0.409E-04
CGA:  48    -0.313325745342E+03   -0.28076E-03   -0.27928E-03  9568   0.407E-02 0.460E-04
CGA:  49    -0.313325970308E+03   -0.22497E-03   -0.22329E-03  9568   0.360E-02 0.718E-04
CGA:  50    -0.313326071007E+03   -0.10070E-03   -0.10076E-03  9568   0.349E-02 0.106E-04
CGA:  51    -0.313326243468E+03   -0.17246E-03   -0.17193E-03  9568   0.138E-02 0.303E-04
CGA:  52    -0.313326338628E+03   -0.95160E-04   -0.94498E-04  9568   0.171E-02 0.192E-04
CGA:  53    -0.313326394503E+03   -0.55875E-04   -0.55865E-04  9568   0.143E-02-0.231E-05
CGA:  54    -0.313326445592E+03   -0.51089E-04   -0.51089E-04  9568   0.163E-02-0.236E-05
CGA:  55    -0.313326537115E+03   -0.91524E-04   -0.91713E-04  9568   0.111E-02-0.923E-05
CGA:  56    -0.313326590612E+03   -0.53496E-04   -0.53492E-04  9568   0.608E-03-0.562E-07
CGA:  57    -0.313326603623E+03   -0.13012E-04   -0.13032E-04  9568   0.436E-03 0.992E-06
SDA:  58    -0.313326640152E+03   -0.36529E-04   -0.36263E-04  9568   0.373E-03 0.553E-05
CGA:  59    -0.313326652008E+03   -0.11856E-04   -0.11851E-04  9568   0.166E-03-0.991E-06
CGA:  60    -0.313326659960E+03   -0.79511E-05   -0.79756E-05  9568   0.107E-03-0.261E-05
CGA:  61    -0.313326674022E+03   -0.14063E-04   -0.14588E-04  9568   0.283E-03-0.535E-05
CGA:  62    -0.313326679547E+03   -0.55251E-05   -0.54843E-05  9568   0.125E-03-0.187E-05
   8 F= -.31332668E+03 E0= -.31330645E+03  d E =-.633294E-01  mag=    24.2018
       N       E                     dE             d eps       ncg     rms          ort
SDA:   1    -0.308704174523E+03    0.46225E+01    0.00000E+00  9568   0.211E+02 0.000E+00
CGA:   2    -0.309894580431E+03   -0.11904E+01   -0.11516E+01  9568   0.303E+02 0.237E+01
CGA:   3    -0.311075516467E+03   -0.11809E+01   -0.11933E+01  9568   0.288E+02 0.248E+00
CGA:   4    -0.311733358334E+03   -0.65784E+00   -0.68807E+00  9568   0.110E+02-0.909E+00
CGA:   5    -0.312322233600E+03   -0.58888E+00   -0.58372E+00  9568   0.693E+01 0.358E+00
CGA:   6    -0.312913373706E+03   -0.59114E+00   -0.59453E+00  9568   0.772E+01-0.343E-01
CGA:   7    -0.313045014122E+03   -0.13164E+00   -0.13030E+00  9568   0.323E+01-0.304E-01
CGA:   8    -0.313169846091E+03   -0.12483E+00   -0.12470E+00  9568   0.242E+01-0.120E-01
CGA:   9    -0.313232853956E+03   -0.63008E-01   -0.63308E-01  9568   0.186E+01-0.585E-02
CGA:  10    -0.313280765762E+03   -0.47912E-01   -0.46520E-01  9568   0.105E+01 0.134E-01
CGA:  11    -0.313315533432E+03   -0.34768E-01   -0.35321E-01  9568   0.462E+00 0.177E-01
CGA:  12    -0.313327500907E+03   -0.11967E-01   -0.12045E-01  9568   0.478E+00-0.602E-03
CGA:  13    -0.313341916436E+03   -0.14416E-01   -0.14532E-01  9568   0.216E+00 0.225E-02
CGA:  14    -0.313349568704E+03   -0.76523E-02   -0.76745E-02  9568   0.230E+00 0.192E-02
CGA:  15    -0.313354622634E+03   -0.50539E-02   -0.50441E-02  9568   0.124E+00 0.190E-03
CGA:  16    -0.313360072888E+03   -0.54503E-02   -0.54467E-02  9568   0.888E-01 0.418E-03
CGA:  17    -0.313362242596E+03   -0.21697E-02   -0.21550E-02  9568   0.645E-01 0.127E-03
CGA:  18    -0.313364156583E+03   -0.19140E-02   -0.19136E-02  9568   0.434E-01-0.280E-05
CGA:  19    -0.313366104049E+03   -0.19475E-02   -0.19435E-02  9568   0.397E-01 0.380E-03
CGA:  20    -0.313367192284E+03   -0.10882E-02   -0.10894E-02  9568   0.406E-01 0.246E-04
CGA:  21    -0.313368539890E+03   -0.13476E-02   -0.13500E-02  9568   0.121E-01 0.218E-03
CGA:  22    -0.313369073261E+03   -0.53337E-03   -0.53308E-03  9568   0.223E-01 0.367E-04
CGA:  23    -0.313369696582E+03   -0.62332E-03   -0.62436E-03  9568   0.126E-01 0.244E-04
CGA:  24    -0.313370269752E+03   -0.57317E-03   -0.57220E-03  9568   0.119E-01 0.847E-04
CGA:  25    -0.313370605890E+03   -0.33614E-03   -0.33570E-03  9568   0.871E-02-0.157E-05
CGA:  26    -0.313370814551E+03   -0.20866E-03   -0.20888E-03  9568   0.430E-02 0.728E-05
CGA:  27    -0.313371111244E+03   -0.29669E-03   -0.29548E-03  9568   0.621E-02 0.369E-04
CGA:  28    -0.313371260900E+03   -0.14966E-03   -0.14988E-03  9568   0.477E-02 0.456E-05
CGA:  29    -0.313371433253E+03   -0.17235E-03   -0.17239E-03  9568   0.235E-02 0.165E-04
CGA:  30    -0.313371537362E+03   -0.10411E-03   -0.10402E-03  9568   0.297E-02 0.919E-05
CGA:  31    -0.313371605666E+03   -0.68304E-04   -0.68305E-04  9568   0.164E-02 0.139E-05
SDA:  32    -0.313371685508E+03   -0.79842E-04   -0.79843E-04  9568   0.148E-02 0.562E-06
CGA:  33    -0.313371716021E+03   -0.30513E-04   -0.30479E-04  9568   0.423E-03-0.602E-06
CGA:  34    -0.313371738836E+03   -0.22815E-04   -0.22843E-04  9568   0.110E-02-0.171E-05
CGA:  35    -0.313371789342E+03   -0.50506E-04   -0.50522E-04  9568   0.664E-03-0.227E-05
CGA:  36    -0.313371828697E+03   -0.39355E-04   -0.39423E-04  9568   0.401E-03-0.322E-05
CGA:  37    -0.313371849403E+03   -0.20706E-04   -0.20725E-04  9568   0.114E-03-0.154E-05
CGA:  38    -0.313371857554E+03   -0.81514E-05   -0.81279E-05  9568   0.251E-03 0.625E-06
   9 F= -.31337186E+03 E0= -.31335155E+03  d E =-.451780E-01  mag=    24.1926
       N       E                     dE             d eps       ncg     rms          ort
SDA:   1    -0.313071566376E+03    0.30028E+00    0.00000E+00  9568   0.381E+01 0.000E+00
CGA:   2    -0.313138489880E+03   -0.66924E-01   -0.63538E-01  9568   0.134E+01 0.111E+00
CGA:   3    -0.313213745385E+03   -0.75256E-01   -0.74341E-01  9568   0.118E+01 0.485E-01
CGA:   4    -0.313274044505E+03   -0.60299E-01   -0.60717E-01  9568   0.101E+01-0.310E-01
CGA:   5    -0.313303176949E+03   -0.29132E-01   -0.29182E-01  9568   0.522E+00 0.584E-04
CGA:   6    -0.313319514338E+03   -0.16337E-01   -0.16250E-01  9568   0.504E+00-0.205E-02
CGA:   7    -0.313355941906E+03   -0.36428E-01   -0.36637E-01  9568   0.199E+00-0.602E-02
CGA:   8    -0.313362965530E+03   -0.70236E-02   -0.70246E-02  9568   0.207E+00 0.447E-04
CGA:   9    -0.313368788225E+03   -0.58227E-02   -0.58134E-02  9568   0.923E-01-0.369E-04
CGA:  10    -0.313372819477E+03   -0.40313E-02   -0.40323E-02  9568   0.405E-01-0.182E-03
CGA:  11    -0.313374680204E+03   -0.18607E-02   -0.18586E-02  9568   0.471E-01 0.243E-03
CGA:  12    -0.313375827801E+03   -0.11476E-02   -0.11478E-02  9568   0.162E-01-0.949E-05
CGA:  13    -0.313376497189E+03   -0.66939E-03   -0.66940E-03  9568   0.118E-01-0.286E-05
CGA:  14    -0.313376943812E+03   -0.44662E-03   -0.44667E-03  9568   0.706E-02 0.141E-04
CGA:  15    -0.313377224171E+03   -0.28036E-03   -0.28036E-03  9568   0.933E-02 0.501E-05
CGA:  16    -0.313377528284E+03   -0.30411E-03   -0.30381E-03  9568   0.219E-02-0.898E-05
CGA:  17    -0.313377655175E+03   -0.12689E-03   -0.12685E-03  9568   0.246E-02 0.270E-05
CGA:  18    -0.313377715703E+03   -0.60528E-04   -0.60573E-04  9568   0.166E-02 0.214E-05
CGA:  19    -0.313377845590E+03   -0.12989E-03   -0.12947E-03  9568   0.900E-03 0.109E-04
CGA:  20    -0.313377877904E+03   -0.32314E-04   -0.32321E-04  9568   0.111E-02 0.134E-05
CGA:  21    -0.313377913316E+03   -0.35412E-04   -0.35441E-04  9568   0.350E-03 0.184E-05
CGA:  22    -0.313377948232E+03   -0.34916E-04   -0.35012E-04  9568   0.794E-03-0.172E-05
CGA:  23    -0.313377966211E+03   -0.17979E-04   -0.17965E-04  9568   0.315E-03-0.499E-06
CGA:  24    -0.313377978762E+03   -0.12551E-04   -0.12549E-04  9568   0.156E-03-0.622E-06
CGA:  25    -0.313377988648E+03   -0.98863E-05   -0.98924E-05  9568   0.251E-03-0.378E-06
  10 F= -.31337799E+03 E0= -.31335767E+03  d E =-.613109E-02  mag=    24.1952
       N       E                     dE             d eps       ncg     rms          ort
SDA:   1    -0.313152430830E+03    0.22555E+00    0.00000E+00  9568   0.144E+01 0.000E+00
CGA:   2    -0.313178880435E+03   -0.26450E-01   -0.26974E-01  9568   0.948E+00-0.204E-01
CGA:   3    -0.313278918911E+03   -0.10004E+00   -0.10088E+00  9568   0.147E+01-0.130E-01
CGA:   4    -0.313336885734E+03   -0.57967E-01   -0.58023E-01  9568   0.327E+00 0.401E-02
CGA:   5    -0.313348569376E+03   -0.11684E-01   -0.11672E-01  9568   0.526E+00-0.308E-03
CGA:   6    -0.313371769931E+03   -0.23201E-01   -0.23201E-01  9568   0.109E+00-0.235E-03
CGA:   7    -0.313378592910E+03   -0.68230E-02   -0.68660E-02  9568   0.977E-01-0.187E-02
CGA:   8    -0.313380521559E+03   -0.19286E-02   -0.19240E-02  9568   0.388E-01 0.126E-03
CGA:   9    -0.313382360928E+03   -0.18394E-02   -0.18394E-02  9568   0.349E-01 0.251E-05
CGA:  10    -0.313383722788E+03   -0.13619E-02   -0.13620E-02  9568   0.140E-01 0.182E-04
CGA:  11    -0.313384320515E+03   -0.59773E-03   -0.59778E-03  9568   0.687E-02 0.264E-04
CGA:  12    -0.313384502693E+03   -0.18218E-03   -0.18240E-03  9568   0.650E-02-0.164E-05
CGA:  13    -0.313384867847E+03   -0.36515E-03   -0.36499E-03  9568   0.345E-02 0.112E-04
CGA:  14    -0.313385038650E+03   -0.17080E-03   -0.17068E-03  9568   0.171E-02 0.157E-04
CGA:  15    -0.313385099613E+03   -0.60962E-04   -0.60977E-04  9568   0.187E-02 0.237E-05
CGA:  16    -0.313385152023E+03   -0.52410E-04   -0.52506E-04  9568   0.756E-03 0.174E-05
CGA:  17    -0.313385222965E+03   -0.70942E-04   -0.70761E-04  9568   0.593E-03 0.350E-05
CGA:  18    -0.313385249669E+03   -0.26704E-04   -0.26704E-04  9568   0.880E-03 0.115E-05
CGA:  19    -0.313385271643E+03   -0.21974E-04   -0.21986E-04  9568   0.201E-03 0.126E-05
CGA:  20    -0.313385290893E+03   -0.19249E-04   -0.19210E-04  9568   0.522E-03 0.747E-06
CGA:  21    -0.313385313347E+03   -0.22454E-04   -0.22454E-04  9568   0.274E-03-0.224E-06
CGA:  22    -0.313385320448E+03   -0.71012E-05   -0.71017E-05  9568   0.199E-03-0.359E-06
  11 F= -.31338532E+03 E0= -.31336497E+03  d E =-.733180E-02  mag=    24.1970
       N       E                     dE             d eps       ncg     rms          ort
SDA:   1    -0.312588951109E+03    0.79636E+00    0.00000E+00  9568   0.705E+01 0.000E+00
CGA:   2    -0.312691866191E+03   -0.10292E+00   -0.10715E+00  9568   0.263E+01-0.319E+00
CGA:   3    -0.313161203119E+03   -0.46934E+00   -0.47333E+00  9568   0.334E+01-0.369E-01
CGA:   4    -0.313234899471E+03   -0.73696E-01   -0.73842E-01  9568   0.141E+01-0.219E-01
CGA:   5    -0.313285992299E+03   -0.51093E-01   -0.51197E-01  9568   0.149E+01-0.158E-03
CGA:   6    -0.313339549612E+03   -0.53557E-01   -0.53296E-01  9568   0.690E+00-0.305E-02
CGA:   7    -0.313372231321E+03   -0.32682E-01   -0.32714E-01  9568   0.144E+00 0.187E-01
CGA:   8    -0.313381155495E+03   -0.89242E-02   -0.89542E-02  9568   0.271E+00-0.168E-02
CGA:   9    -0.313386925452E+03   -0.57700E-02   -0.58422E-02  9568   0.807E-01-0.203E-02
CGA:  10    -0.313392043032E+03   -0.51176E-02   -0.50988E-02  9568   0.344E-01 0.871E-03
CGA:  11    -0.313393020452E+03   -0.97742E-03   -0.98352E-03  9568   0.243E-01-0.568E-04
CGA:  12    -0.313393868288E+03   -0.84784E-03   -0.84991E-03  9568   0.259E-01 0.291E-04
CGA:  13    -0.313394818011E+03   -0.94972E-03   -0.94989E-03  9568   0.134E-01 0.579E-05
CGA:  14    -0.313395509012E+03   -0.69100E-03   -0.69091E-03  9568   0.535E-02 0.125E-04
CGA:  15    -0.313395673519E+03   -0.16451E-03   -0.16470E-03  9568   0.487E-02 0.105E-05
CGA:  16    -0.313395817184E+03   -0.14367E-03   -0.14350E-03  9568   0.334E-02 0.154E-05
CGA:  17    -0.313396060266E+03   -0.24308E-03   -0.24296E-03  9568   0.211E-02 0.397E-05
CGA:  18    -0.313396167849E+03   -0.10758E-03   -0.10752E-03  9568   0.193E-02 0.820E-05
CGA:  19    -0.313396219967E+03   -0.52118E-04   -0.52256E-04  9568   0.126E-02 0.225E-06
CGA:  20    -0.313396263966E+03   -0.43999E-04   -0.44021E-04  9568   0.111E-02 0.213E-05
CGA:  21    -0.313396328997E+03   -0.65031E-04   -0.64956E-04  9568   0.873E-03 0.407E-05
CGA:  22    -0.313396415518E+03   -0.86521E-04   -0.86315E-04  9568   0.496E-03 0.365E-05
CGA:  23    -0.313396428502E+03   -0.12985E-04   -0.12984E-04  9568   0.485E-03-0.334E-07
CGA:  24    -0.313396453658E+03   -0.25156E-04   -0.25150E-04  9568   0.526E-03 0.305E-06
CGA:  25    -0.313396478807E+03   -0.25148E-04   -0.25148E-04  9568   0.407E-03 0.110E-05
CGA:  26    -0.313396498525E+03   -0.19718E-04   -0.19717E-04  9568   0.160E-03 0.779E-06
CGA:  27    -0.313396504789E+03   -0.62642E-05   -0.62695E-05  9568   0.243E-03 0.370E-06
  12 F= -.31339650E+03 E0= -.31337612E+03  d E =-.111843E-01  mag=    24.1979
       N       E                     dE             d eps       ncg     rms          ort
SDA:   1    -0.292758987141E+03    0.20638E+02    0.00000E+00  9568   0.128E+03 0.000E+00
CGA:   2    -0.295485691724E+03   -0.27267E+01   -0.37340E+01  9568   0.989E+02-0.978E+01
CGA:   3    -0.294984960921E+03    0.50073E+00   -0.15728E+02  9568   0.545E+03-0.634E+02
CGA:   4    -0.308186897419E+03   -0.13202E+02   -0.17289E+02  9568   0.356E+02-0.128E+02
CGA:   5    -0.304394900900E+03    0.37920E+01   -0.31265E+01  9568   0.739E+03-0.228E+03
CGA:   6    -0.308116533594E+03   -0.37216E+01   -0.19809E+02  9568   0.131E+03-0.502E+02
CGA:   7    -0.310343891932E+03   -0.22274E+01   -0.33769E+01  9568   0.834E+02-0.582E+02
CGA:   8    -0.311011696144E+03   -0.66780E+00   -0.43512E+00  9568   0.452E+02 0.104E+02
CGA:   9    -0.311973386497E+03   -0.96169E+00   -0.10151E+01  9568   0.302E+02-0.632E+01
CGA:  10    -0.312021062335E+03   -0.47676E-01   -0.19402E+00  9568   0.198E+02-0.208E+02
CGA:  11    -0.312379074309E+03   -0.35801E+00   -0.33011E+00  9568   0.112E+02 0.845E+00
CGA:  12    -0.312510149798E+03   -0.13108E+00   -0.10869E+00  9568   0.324E+01 0.210E+01
CGA:  13    -0.312560174215E+03   -0.50024E-01   -0.64042E-01  9568   0.430E+01-0.577E+00
CGA:  14    -0.312771902893E+03   -0.21173E+00   -0.20523E+00  9568   0.192E+02 0.303E+00
CGA:  15    -0.313122784488E+03   -0.35088E+00   -0.26469E+00  9568   0.570E+01 0.495E+01
CGA:  16    -0.313219492677E+03   -0.96708E-01   -0.10482E+00  9568   0.424E+01-0.458E+00
CGA:  17    -0.313284237682E+03   -0.64745E-01   -0.69272E-01  9568   0.258E+01-0.110E+00
CGA:  18    -0.313320810821E+03   -0.36573E-01   -0.37485E-01  9568   0.894E+00-0.527E-01
CGA:  19    -0.313332438570E+03   -0.11628E-01   -0.11746E-01  9568   0.490E+00-0.733E-02
CGA:  20    -0.313345375232E+03   -0.12937E-01   -0.12853E-01  9568   0.657E+00-0.168E-02
CGA:  21    -0.313357420813E+03   -0.12046E-01   -0.13013E-01  9568   0.441E+00-0.157E-01
CGA:  22    -0.313372438059E+03   -0.15017E-01   -0.15003E-01  9568   0.573E+00 0.105E-01
CGA:  23    -0.313382595356E+03   -0.10157E-01   -0.95381E-02  9568   0.271E+00 0.204E-01
CGA:  24    -0.313390429062E+03   -0.78337E-02   -0.78841E-02  9568   0.236E+00 0.303E-02
CGA:  25    -0.313394319428E+03   -0.38904E-02   -0.40506E-02  9568   0.124E+00-0.423E-02
CGA:  26    -0.313398484834E+03   -0.41654E-02   -0.41580E-02  9568   0.124E+00 0.230E-02
CGA:  27    -0.313401703492E+03   -0.32187E-02   -0.31613E-02  9568   0.109E+00-0.164E-02
CGA:  28    -0.313404516388E+03   -0.28129E-02   -0.28381E-02  9568   0.105E+00 0.136E-02
CGA:  29    -0.313408577794E+03   -0.40614E-02   -0.40000E-02  9568   0.109E+00 0.684E-02
CGA:  30    -0.313410519749E+03   -0.19420E-02   -0.19342E-02  9568   0.328E-01 0.240E-03
CGA:  31    -0.313412931436E+03   -0.24117E-02   -0.24169E-02  9568   0.314E-01-0.149E-03
CGA:  32    -0.313413631464E+03   -0.70003E-03   -0.70178E-03  9568   0.221E-01 0.764E-05
CGA:  33    -0.313414542116E+03   -0.91065E-03   -0.91010E-03  9568   0.193E-01 0.528E-04
CGA:  34    -0.313415191393E+03   -0.64928E-03   -0.64924E-03  9568   0.101E-01 0.618E-04
CGA:  35    -0.313415599667E+03   -0.40827E-03   -0.40695E-03  9568   0.126E-01 0.129E-03
CGA:  36    -0.313415941267E+03   -0.34160E-03   -0.34143E-03  9568   0.781E-02-0.186E-05
CGA:  37    -0.313416275936E+03   -0.33467E-03   -0.33371E-03  9568   0.423E-02 0.719E-04
CGA:  38    -0.313416484036E+03   -0.20810E-03   -0.20779E-03  9568   0.666E-02 0.162E-04
CGA:  39    -0.313416639948E+03   -0.15591E-03   -0.15572E-03  9568   0.245E-02 0.184E-05
CGA:  40    -0.313416766354E+03   -0.12641E-03   -0.12615E-03  9568   0.318E-02 0.114E-04
SDA:  41    -0.313416892628E+03   -0.12627E-03   -0.12609E-03  9568   0.191E-02 0.263E-04
CGA:  42    -0.313416933383E+03   -0.40755E-04   -0.40693E-04  9568   0.118E-02-0.746E-06
CGA:  43    -0.313416975541E+03   -0.42158E-04   -0.42159E-04  9568   0.579E-03-0.219E-05
CGA:  44    -0.313417065178E+03   -0.89637E-04   -0.90293E-04  9568   0.145E-02-0.467E-05
CGA:  45    -0.313417151357E+03   -0.86179E-04   -0.86339E-04  9568   0.600E-03-0.846E-05
CGA:  46    -0.313417199648E+03   -0.48292E-04   -0.48243E-04  9568   0.969E-03 0.104E-05
CGA:  47    -0.313417222104E+03   -0.22456E-04   -0.22434E-04  9568   0.568E-03-0.101E-06
CGA:  48    -0.313417253478E+03   -0.31375E-04   -0.31358E-04  9568   0.492E-03 0.959E-06
CGA:  49    -0.313417269384E+03   -0.15906E-04   -0.15900E-04  9568   0.186E-03-0.501E-06
CGA:  50    -0.313417292121E+03   -0.22737E-04   -0.22732E-04  9568   0.130E-03-0.362E-07
CGA:  51    -0.313417301011E+03   -0.88896E-05   -0.88904E-05  9568   0.115E-03-0.208E-06
  13 F= -.31341730E+03 E0= -.31339678E+03  d E =-.207962E-01  mag=    24.1962
       N       E                     dE             d eps       ncg     rms          ort
SDA:   1    -0.283598615401E+03    0.29819E+02    0.00000E+00  9568   0.273E+03 0.000E+00
CGA:   2    -0.291774226441E+03   -0.81756E+01   -0.84867E+01  9568   0.165E+03-0.235E+02
CGA:   3    -0.297290351456E+03   -0.55161E+01   -0.56893E+01  9568   0.189E+03-0.254E+01
CGA:   4    -0.302696206389E+03   -0.54059E+01   -0.63489E+01  9568   0.669E+02 0.696E+01
CGA:   5    -0.305930703946E+03   -0.32345E+01   -0.28354E+01  9568   0.110E+03-0.359E+02
CGA:   6    -0.307016432217E+03   -0.10857E+01   -0.25877E+01  9568   0.599E+02-0.235E+02
CGA:   7    -0.308279521922E+03   -0.12631E+01   -0.12875E+01  9568   0.407E+02-0.312E+01
CGA:   8    -0.309513163101E+03   -0.12336E+01   -0.11239E+01  9568   0.285E+02-0.794E+00
CGA:   9    -0.310431252817E+03   -0.91809E+00   -0.93863E+00  9568   0.338E+02 0.534E-01
CGA:  10    -0.311360452333E+03   -0.92920E+00   -0.10293E+01  9568   0.225E+02 0.487E+00
CGA:  11    -0.312042999064E+03   -0.68255E+00   -0.66055E+00  9568   0.217E+02-0.632E+00
CGA:  12    -0.312303572992E+03   -0.26057E+00   -0.23891E+00  9568   0.113E+02 0.964E+00
CGA:  13    -0.312538681085E+03   -0.23511E+00   -0.23828E+00  9568   0.112E+02-0.189E+00
CGA:  14    -0.312711680360E+03   -0.17300E+00   -0.20427E+00  9568   0.113E+02-0.101E+01
CGA:  15    -0.312876645528E+03   -0.16497E+00   -0.14896E+00  9568   0.869E+01 0.673E+00
CGA:  16    -0.313016761398E+03   -0.14012E+00   -0.13169E+00  9568   0.457E+01 0.272E+00
CGA:  17    -0.313076235023E+03   -0.59474E-01   -0.68386E-01  9568   0.369E+01-0.411E+00
CGA:  18    -0.313121268096E+03   -0.45033E-01   -0.46372E-01  9568   0.181E+01-0.766E-01
CGA:  19    -0.313151088339E+03   -0.29820E-01   -0.30099E-01  9568   0.183E+01-0.104E-01
CGA:  20    -0.313183435484E+03   -0.32347E-01   -0.31582E-01  9568   0.156E+01 0.158E-01
CGA:  21    -0.313205733291E+03   -0.22298E-01   -0.23017E-01  9568   0.117E+01-0.304E-01
CGA:  22    -0.313231710317E+03   -0.25977E-01   -0.26737E-01  9568   0.139E+01 0.166E-01
CGA:  23    -0.313254249923E+03   -0.22540E-01   -0.22345E-01  9568   0.834E+00 0.325E-02
CGA:  24    -0.313271367108E+03   -0.17117E-01   -0.17434E-01  9568   0.716E+00 0.193E-02
CGA:  25    -0.313283800638E+03   -0.12434E-01   -0.12677E-01  9568   0.507E+00-0.382E-02
CGA:  26    -0.313296607178E+03   -0.12807E-01   -0.12842E-01  9568   0.450E+00 0.381E-02
CGA:  27    -0.313305226911E+03   -0.86197E-02   -0.87245E-02  9568   0.342E+00 0.791E-04
CGA:  28    -0.313316117901E+03   -0.10891E-01   -0.10800E-01  9568   0.328E+00 0.165E-01
CGA:  29    -0.313322203893E+03   -0.60860E-02   -0.61138E-02  9568   0.182E+00-0.242E-03
CGA:  30    -0.313328044910E+03   -0.58410E-02   -0.58351E-02  9568   0.142E+00 0.923E-03
CGA:  31    -0.313331466407E+03   -0.34215E-02   -0.34229E-02  9568   0.129E+00 0.137E-03
CGA:  32    -0.313335337392E+03   -0.38710E-02   -0.38664E-02  9568   0.824E-01 0.122E-02
CGA:  33    -0.313337779085E+03   -0.24417E-02   -0.24379E-02  9568   0.684E-01 0.162E-02
CGA:  34    -0.313339290421E+03   -0.15113E-02   -0.15160E-02  9568   0.419E-01 0.169E-03
CGA:  35    -0.313340858291E+03   -0.15679E-02   -0.15677E-02  9568   0.307E-01 0.147E-04
SDA:  36    -0.313341632076E+03   -0.77378E-03   -0.77394E-03  9568   0.313E-01 0.280E-04
CGA:  37    -0.313342063901E+03   -0.43182E-03   -0.43128E-03  9568   0.621E-02 0.277E-04
CGA:  38    -0.313342393301E+03   -0.32940E-03   -0.32682E-03  9568   0.104E-01 0.992E-04
CGA:  39    -0.313343284859E+03   -0.89156E-03   -0.88759E-03  9568   0.167E-01 0.779E-04
CGA:  40    -0.313344009069E+03   -0.72421E-03   -0.72382E-03  9568   0.641E-02 0.282E-04
CGA:  41    -0.313344339747E+03   -0.33068E-03   -0.32869E-03  9568   0.400E-02 0.898E-04
CGA:  42    -0.313344774517E+03   -0.43477E-03   -0.43771E-03  9568   0.641E-02-0.437E-04
CGA:  43    -0.313344900615E+03   -0.12610E-03   -0.12613E-03  9568   0.346E-02-0.704E-05
CGA:  44    -0.313345183770E+03   -0.28316E-03   -0.27663E-03  9568   0.360E-02 0.153E-03
CGA:  45    -0.313345424791E+03   -0.24102E-03   -0.24173E-03  9568   0.350E-02-0.237E-04
CGA:  46    -0.313345538775E+03   -0.11398E-03   -0.11409E-03  9568   0.115E-02 0.102E-04
CGA:  47    -0.313345619372E+03   -0.80597E-04   -0.80194E-04  9568   0.131E-02 0.125E-04
CGA:  48    -0.313345651187E+03   -0.31815E-04   -0.31859E-04  9568   0.983E-03 0.863E-06
CGA:  49    -0.313345711915E+03   -0.60728E-04   -0.60718E-04  9568   0.919E-03-0.106E-06
CGA:  50    -0.313345755088E+03   -0.43173E-04   -0.43149E-04  9568   0.311E-03 0.247E-05
CGA:  51    -0.313345771690E+03   -0.16602E-04   -0.16569E-04  9568   0.295E-03 0.254E-05
CGA:  52    -0.313345782857E+03   -0.11167E-04   -0.11178E-04  9568   0.212E-03 0.260E-05
CGA:  53    -0.313345791007E+03   -0.81498E-05   -0.81596E-05  9568   0.268E-03 0.259E-05
  14 F= -.31334579E+03 E0= -.31332524E+03  d E =0.715100E-01  mag=    24.1505
       N       E                     dE             d eps       ncg     rms          ort
SDA:   1    -0.307380061845E+03    0.59657E+01    0.00000E+00  9568   0.104E+03 0.000E+00
CGA:   2    -0.309292563245E+03   -0.19125E+01   -0.25741E+01  9568   0.272E+02-0.623E+01
CGA:   3    -0.310429268393E+03   -0.11367E+01   -0.11418E+01  9568   0.279E+02-0.486E+00
CGA:   4    -0.311203239185E+03   -0.77397E+00   -0.79471E+00  9568   0.269E+02-0.170E+00
CGA:   5    -0.312006759570E+03   -0.80352E+00   -0.80705E+00  9568   0.102E+02-0.135E+00
CGA:   6    -0.312318841397E+03   -0.31208E+00   -0.30937E+00  9568   0.106E+02-0.119E+00
CGA:   7    -0.312704910806E+03   -0.38607E+00   -0.38706E+00  9568   0.801E+01 0.216E+00
CGA:   8    -0.313079138020E+03   -0.37423E+00   -0.38158E+00  9568   0.409E+01-0.622E+00
CGA:   9    -0.313238711279E+03   -0.15957E+00   -0.16277E+00  9568   0.196E+01-0.468E+00
CGA:  10    -0.313309710973E+03   -0.71000E-01   -0.70854E-01  9568   0.136E+01 0.510E-01
CGA:  11    -0.313344064303E+03   -0.34353E-01   -0.33789E-01  9568   0.835E+00 0.372E-02
CGA:  12    -0.313376303488E+03   -0.32239E-01   -0.32247E-01  9568   0.449E+00 0.268E-01
CGA:  13    -0.313398428344E+03   -0.22125E-01   -0.22108E-01  9568   0.293E+00 0.135E-02
CGA:  14    -0.313408733425E+03   -0.10305E-01   -0.10315E-01  9568   0.155E+00 0.989E-03
CGA:  15    -0.313413126676E+03   -0.43933E-02   -0.43970E-02  9568   0.141E+00 0.976E-04
CGA:  16    -0.313420488019E+03   -0.73613E-02   -0.73431E-02  9568   0.824E-01 0.104E-02
CGA:  17    -0.313423723861E+03   -0.32358E-02   -0.32359E-02  9568   0.484E-01 0.876E-03
CGA:  18    -0.313425652629E+03   -0.19288E-02   -0.19285E-02  9568   0.497E-01 0.349E-03
CGA:  19    -0.313427177319E+03   -0.15247E-02   -0.15265E-02  9568   0.360E-01 0.661E-04
CGA:  20    -0.313429129442E+03   -0.19521E-02   -0.19447E-02  9568   0.233E-01 0.393E-03
CGA:  21    -0.313430125792E+03   -0.99635E-03   -0.99591E-03  9568   0.156E-01 0.990E-04
CGA:  22    -0.313430649481E+03   -0.52369E-03   -0.52398E-03  9568   0.162E-01 0.227E-04
CGA:  23    -0.313431283538E+03   -0.63406E-03   -0.63405E-03  9568   0.109E-01-0.787E-05
CGA:  24    -0.313431799240E+03   -0.51570E-03   -0.51547E-03  9568   0.673E-02 0.197E-04
CGA:  25    -0.313432062083E+03   -0.26284E-03   -0.26288E-03  9568   0.495E-02 0.252E-04
CGA:  26    -0.313432201119E+03   -0.13904E-03   -0.13908E-03  9568   0.387E-02 0.617E-06
CGA:  27    -0.313432418721E+03   -0.21760E-03   -0.21732E-03  9568   0.271E-02 0.126E-04
CGA:  28    -0.313432529676E+03   -0.11095E-03   -0.11095E-03  9568   0.193E-02 0.115E-05
CGA:  29    -0.313432596196E+03   -0.66520E-04   -0.66503E-04  9568   0.163E-02-0.246E-05
CGA:  30    -0.313432643612E+03   -0.47416E-04   -0.47401E-04  9568   0.776E-03-0.146E-05
CGA:  31    -0.313432696079E+03   -0.52468E-04   -0.52567E-04  9568   0.841E-03-0.330E-05
SDA:  32    -0.313432725363E+03   -0.29284E-04   -0.29283E-04  9568   0.609E-03-0.780E-06
CGA:  33    -0.313432733546E+03   -0.81832E-05   -0.81754E-05  9568   0.131E-03 0.111E-06
CGA:  34    -0.313432745576E+03   -0.12030E-04   -0.11960E-04  9568   0.234E-03 0.124E-05
CGA:  35    -0.313432770324E+03   -0.24748E-04   -0.24629E-04  9568   0.166E-03 0.182E-05
CGA:  36    -0.313432776072E+03   -0.57477E-05   -0.57490E-05  9568   0.805E-04 0.359E-07
  15 F= -.31343278E+03 E0= -.31341223E+03  d E =-.869851E-01  mag=    24.1732
       N       E                     dE             d eps       ncg     rms          ort
SDA:   1    -0.312474680145E+03    0.95809E+00    0.00000E+00  9568   0.551E+01 0.000E+00
CGA:   2    -0.312700596976E+03   -0.22592E+00   -0.22849E+00  9568   0.485E+01 0.442E+00
CGA:   3    -0.313007574326E+03   -0.30698E+00   -0.30725E+00  9568   0.377E+01-0.100E-01
CGA:   4    -0.313115282891E+03   -0.10771E+00   -0.10770E+00  9568   0.311E+01-0.844E-02
CGA:   5    -0.313213915027E+03   -0.98632E-01   -0.10127E+00  9568   0.167E+01 0.347E-01
CGA:   6    -0.313312721124E+03   -0.98806E-01   -0.97494E-01  9568   0.178E+01 0.684E-01
CGA:   7    -0.313369192725E+03   -0.56472E-01   -0.56646E-01  9568   0.124E+01-0.480E-03
CGA:   8    -0.313397417641E+03   -0.28225E-01   -0.28813E-01  9568   0.444E+00-0.122E-01
CGA:   9    -0.313417214877E+03   -0.19797E-01   -0.19860E-01  9568   0.272E+00-0.122E-01
CGA:  10    -0.313431480809E+03   -0.14266E-01   -0.14169E-01  9568   0.152E+00 0.614E-02
CGA:  11    -0.313436273130E+03   -0.47923E-02   -0.47683E-02  9568   0.118E+00-0.195E-03
CGA:  12    -0.313439242163E+03   -0.29690E-02   -0.30085E-02  9568   0.497E-01-0.393E-03
CGA:  13    -0.313441859551E+03   -0.26174E-02   -0.26164E-02  9568   0.435E-01 0.672E-04
CGA:  14    -0.313443681189E+03   -0.18216E-02   -0.18217E-02  9568   0.188E-01 0.458E-04
CGA:  15    -0.313444340675E+03   -0.65949E-03   -0.65982E-03  9568   0.248E-01 0.190E-04
CGA:  16    -0.313445136927E+03   -0.79625E-03   -0.79488E-03  9568   0.831E-02-0.194E-04
CGA:  17    -0.313445551577E+03   -0.41465E-03   -0.41442E-03  9568   0.771E-02 0.227E-04
CGA:  18    -0.313445953973E+03   -0.40240E-03   -0.40220E-03  9568   0.587E-02 0.172E-04
CGA:  19    -0.313446125071E+03   -0.17110E-03   -0.17114E-03  9568   0.526E-02 0.486E-05
CGA:  20    -0.313446297926E+03   -0.17285E-03   -0.17318E-03  9568   0.234E-02 0.138E-04
CGA:  21    -0.313446433819E+03   -0.13589E-03   -0.13569E-03  9568   0.212E-02 0.102E-04
CGA:  22    -0.313446555370E+03   -0.12155E-03   -0.12158E-03  9568   0.218E-02-0.811E-06
CGA:  23    -0.313446611196E+03   -0.55826E-04   -0.55808E-04  9568   0.130E-02-0.764E-06
CGA:  24    -0.313446652228E+03   -0.41031E-04   -0.41041E-04  9568   0.781E-03-0.121E-05
CGA:  25    -0.313446704318E+03   -0.52090E-04   -0.52046E-04  9568   0.669E-03 0.151E-05
CGA:  26    -0.313446742375E+03   -0.38057E-04   -0.38066E-04  9568   0.534E-03-0.766E-06
CGA:  27    -0.313446756094E+03   -0.13720E-04   -0.13718E-04  9568   0.374E-03-0.230E-06
CGA:  28    -0.313446770789E+03   -0.14695E-04   -0.14696E-04  9568   0.336E-03 0.228E-06
CGA:  29    -0.313446786613E+03   -0.15824E-04   -0.15822E-04  9568   0.153E-03 0.217E-06
CGA:  30    -0.313446797674E+03   -0.11061E-04   -0.11039E-04  9568   0.170E-03 0.699E-06
CGA:  31    -0.313446802605E+03   -0.49309E-05   -0.49380E-05  9568   0.123E-03 0.249E-06
  16 F= -.31344680E+03 E0= -.31342628E+03  d E =-.140265E-01  mag=    24.1823
       N       E                     dE             d eps       ncg     rms          ort
SDA:   1    -0.313316354166E+03    0.13044E+00    0.00000E+00  9568   0.101E+01 0.000E+00
CGA:   2    -0.313336996488E+03   -0.20642E-01   -0.19856E-01  9568   0.529E+00 0.214E-01
CGA:   3    -0.313372201122E+03   -0.35205E-01   -0.34769E-01  9568   0.105E+01 0.163E-01
CGA:   4    -0.313412562072E+03   -0.40361E-01   -0.40334E-01  9568   0.206E+00-0.169E-02
CGA:   5    -0.313427426778E+03   -0.14865E-01   -0.15011E-01  9568   0.243E+00-0.431E-02
CGA:   6    -0.313441585156E+03   -0.14158E-01   -0.14133E-01  9568   0.915E-01 0.128E-02
CGA:   7    -0.313443892941E+03   -0.23078E-02   -0.23259E-02  9568   0.770E-01-0.245E-03
CGA:   8    -0.313446696540E+03   -0.28036E-02   -0.27998E-02  9568   0.246E-01-0.157E-03
CGA:   9    -0.313448964041E+03   -0.22675E-02   -0.22600E-02  9568   0.107E-01 0.159E-03
CGA:  10    -0.313449294448E+03   -0.33041E-03   -0.33014E-03  9568   0.988E-02 0.181E-05
CGA:  11    -0.313449596239E+03   -0.30179E-03   -0.30190E-03  9568   0.505E-02 0.393E-05
CGA:  12    -0.313449895429E+03   -0.29919E-03   -0.29927E-03  9568   0.528E-02-0.229E-05
CGA:  13    -0.313450076332E+03   -0.18090E-03   -0.18098E-03  9568   0.129E-02 0.552E-05
CGA:  14    -0.313450144585E+03   -0.68253E-04   -0.68249E-04  9568   0.184E-02 0.685E-06
CGA:  15    -0.313450191604E+03   -0.47018E-04   -0.47110E-04  9568   0.105E-02 0.725E-06
CGA:  16    -0.313450264286E+03   -0.72682E-04   -0.72564E-04  9568   0.654E-03 0.441E-05
CGA:  17    -0.313450293784E+03   -0.29498E-04   -0.29498E-04  9568   0.343E-03 0.941E-06
CGA:  18    -0.313450306037E+03   -0.12253E-04   -0.12254E-04  9568   0.516E-03 0.110E-06
CGA:  19    -0.313450330642E+03   -0.24605E-04   -0.24602E-04  9568   0.209E-03 0.101E-05
CGA:  20    -0.313450349771E+03   -0.19129E-04   -0.19151E-04  9568   0.249E-03-0.457E-06
CGA:  21    -0.313450356087E+03   -0.63152E-05   -0.63240E-05  9568   0.143E-03 0.246E-06
  17 F= -.31345036E+03 E0= -.31342985E+03  d E =-.355348E-02  mag=    24.1842
       N       E                     dE             d eps       ncg     rms          ort
SDA:   1    -0.313301182675E+03    0.14917E+00    0.00000E+00  9568   0.146E+01 0.000E+00
CGA:   2    -0.313324431079E+03   -0.23248E-01   -0.24356E-01  9568   0.573E+00-0.515E-01
CGA:   3    -0.313362683151E+03   -0.38252E-01   -0.38565E-01  9568   0.128E+01-0.103E-01
CGA:   4    -0.313415839471E+03   -0.53156E-01   -0.53139E-01  9568   0.250E+00-0.225E-02
CGA:   5    -0.313428966892E+03   -0.13127E-01   -0.13100E-01  9568   0.331E+00 0.253E-02
CGA:   6    -0.313437463302E+03   -0.84964E-02   -0.84525E-02  9568   0.191E+00 0.595E-03
CGA:   7    -0.313446053751E+03   -0.85904E-02   -0.85904E-02  9568   0.801E-01 0.178E-02
CGA:   8    -0.313449284305E+03   -0.32306E-02   -0.32232E-02  9568   0.326E-01-0.556E-03
CGA:   9    -0.313450862270E+03   -0.15780E-02   -0.15780E-02  9568   0.234E-01 0.661E-05
CGA:  10    -0.313452233015E+03   -0.13707E-02   -0.13687E-02  9568   0.973E-02 0.113E-03
CGA:  11    -0.313452670909E+03   -0.43789E-03   -0.43788E-03  9568   0.740E-02-0.709E-05
CGA:  12    -0.313452842977E+03   -0.17207E-03   -0.17227E-03  9568   0.418E-02-0.122E-05
CGA:  13    -0.313453041727E+03   -0.19875E-03   -0.19871E-03  9568   0.343E-02 0.962E-05
CGA:  14    -0.313453183754E+03   -0.14203E-03   -0.14207E-03  9568   0.167E-02 0.656E-05
CGA:  15    -0.313453296015E+03   -0.11226E-03   -0.11208E-03  9568   0.840E-03 0.687E-05
CGA:  16    -0.313453326070E+03   -0.30055E-04   -0.30041E-04  9568   0.101E-02-0.395E-06
CGA:  17    -0.313453362658E+03   -0.36588E-04   -0.36606E-04  9568   0.785E-03 0.900E-06
CGA:  18    -0.313453399537E+03   -0.36879E-04   -0.36877E-04  9568   0.560E-03 0.782E-06
CGA:  19    -0.313453429156E+03   -0.29619E-04   -0.29620E-04  9568   0.310E-03 0.182E-08
CGA:  20    -0.313453443669E+03   -0.14513E-04   -0.14511E-04  9568   0.247E-03 0.970E-06
CGA:  21    -0.313453454424E+03   -0.10755E-04   -0.10756E-04  9568   0.479E-03 0.662E-06
CGA:  22    -0.313453476917E+03   -0.22493E-04   -0.22492E-04  9568   0.176E-03 0.781E-06
CGA:  23    -0.313453484074E+03   -0.71566E-05   -0.71613E-05  9568   0.116E-03 0.958E-06
  18 F= -.31345348E+03 E0= -.31343300E+03  d E =-.312799E-02  mag=    24.1829
       N       E                     dE             d eps       ncg     rms          ort
SDA:   1    -0.312942320915E+03    0.51116E+00    0.00000E+00  9568   0.192E+01 0.000E+00
CGA:   2    -0.313022906608E+03   -0.80586E-01   -0.80101E-01  9568   0.358E+01-0.549E-01
CGA:   3    -0.313220883378E+03   -0.19798E+00   -0.19638E+00  9568   0.389E+01 0.999E-01
CGA:   4    -0.313330462118E+03   -0.10958E+00   -0.10490E+00  9568   0.850E+00 0.478E-01
CGA:   5    -0.313381500455E+03   -0.51038E-01   -0.51059E-01  9568   0.725E+00-0.731E-03
CGA:   6    -0.313425469036E+03   -0.43969E-01   -0.44064E-01  9568   0.494E+00-0.461E-02
CGA:   7    -0.313436883761E+03   -0.11415E-01   -0.11508E-01  9568   0.266E+00-0.211E-02
CGA:   8    -0.313444231326E+03   -0.73476E-02   -0.73261E-02  9568   0.114E+00 0.984E-04
CGA:   9    -0.313448905458E+03   -0.46741E-02   -0.46750E-02  9568   0.928E-01 0.120E-03
CGA:  10    -0.313453445297E+03   -0.45398E-02   -0.45333E-02  9568   0.602E-01 0.857E-03
CGA:  11    -0.313454543119E+03   -0.10978E-02   -0.11064E-02  9568   0.240E-01-0.294E-03
CGA:  12    -0.313455641854E+03   -0.10987E-02   -0.10983E-02  9568   0.109E-01 0.989E-04
CGA:  13    -0.313456500338E+03   -0.85848E-03   -0.85774E-03  9568   0.169E-01 0.218E-04
CGA:  14    -0.313456816750E+03   -0.31641E-03   -0.31672E-03  9568   0.622E-02-0.258E-05
CGA:  15    -0.313457149427E+03   -0.33268E-03   -0.33268E-03  9568   0.321E-02 0.465E-06
CGA:  16    -0.313457307182E+03   -0.15775E-03   -0.15780E-03  9568   0.249E-02-0.554E-05
CGA:  17    -0.313457372845E+03   -0.65664E-04   -0.65681E-04  9568   0.236E-02 0.139E-05
CGA:  18    -0.313457504892E+03   -0.13205E-03   -0.13200E-03  9568   0.159E-02 0.275E-05
CGA:  19    -0.313457565606E+03   -0.60714E-04   -0.60725E-04  9568   0.103E-02 0.100E-05
CGA:  20    -0.313457613943E+03   -0.48337E-04   -0.48325E-04  9568   0.744E-03 0.286E-05
CGA:  21    -0.313457633106E+03   -0.19164E-04   -0.19169E-04  9568   0.705E-03 0.421E-06
CGA:  22    -0.313457688378E+03   -0.55271E-04   -0.55224E-04  9568   0.520E-03 0.129E-05
CGA:  23    -0.313457717210E+03   -0.28833E-04   -0.28804E-04  9568   0.337E-03 0.245E-05
CGA:  24    -0.313457730330E+03   -0.13120E-04   -0.13128E-04  9568   0.511E-03 0.861E-06
CGA:  25    -0.313457747083E+03   -0.16753E-04   -0.16770E-04  9568   0.205E-03 0.152E-05
CGA:  26    -0.313457762483E+03   -0.15400E-04   -0.15323E-04  9568   0.141E-03 0.245E-05
CGA:  27    -0.313457772239E+03   -0.97557E-05   -0.97202E-05  9568   0.286E-03 0.151E-05
  19 F= -.31345777E+03 E0= -.31343733E+03  d E =-.428817E-02  mag=    24.1791
       N       E                     dE             d eps       ncg     rms          ort
SDA:   1    -0.311316311127E+03    0.21415E+01    0.00000E+00  9568   0.350E+02 0.000E+00
CGA:   2    -0.311788054421E+03   -0.47174E+00   -0.53428E+00  9568   0.912E+01-0.702E+01
CGA:   3    -0.312339273059E+03   -0.55122E+00   -0.54321E+00  9568   0.135E+02 0.284E+00
CGA:   4    -0.312803220617E+03   -0.46395E+00   -0.47143E+00  9568   0.663E+01 0.191E-01
CGA:   5    -0.312980614702E+03   -0.17739E+00   -0.18436E+00  9568   0.453E+01-0.980E-01
CGA:   6    -0.313200250024E+03   -0.21964E+00   -0.21858E+00  9568   0.302E+01 0.137E+00
CGA:   7    -0.313334371469E+03   -0.13412E+00   -0.13376E+00  9568   0.168E+01-0.111E+00
CGA:   8    -0.313378746820E+03   -0.44375E-01   -0.44016E-01  9568   0.983E+00 0.114E-02
CGA:   9    -0.313409412302E+03   -0.30665E-01   -0.30001E-01  9568   0.471E+00-0.383E-02
CGA:  10    -0.313431254401E+03   -0.21842E-01   -0.21867E-01  9568   0.351E+00-0.372E-02
CGA:  11    -0.313442904246E+03   -0.11650E-01   -0.11662E-01  9568   0.244E+00 0.257E-03
CGA:  12    -0.313449099006E+03   -0.61948E-02   -0.61307E-02  9568   0.819E-01 0.680E-03
CGA:  13    -0.313452972869E+03   -0.38739E-02   -0.38673E-02  9568   0.685E-01 0.775E-03
CGA:  14    -0.313455652005E+03   -0.26791E-02   -0.26791E-02  9568   0.679E-01 0.975E-05
CGA:  15    -0.313457702115E+03   -0.20501E-02   -0.20538E-02  9568   0.306E-01 0.537E-04
CGA:  16    -0.313458885539E+03   -0.11834E-02   -0.11842E-02  9568   0.179E-01 0.136E-03
CGA:  17    -0.313459662725E+03   -0.77719E-03   -0.77729E-03  9568   0.219E-01-0.208E-04
CGA:  18    -0.313460371139E+03   -0.70841E-03   -0.70920E-03  9568   0.127E-01 0.224E-04
CGA:  19    -0.313460950350E+03   -0.57921E-03   -0.57930E-03  9568   0.844E-02-0.710E-05
CGA:  20    -0.313461269038E+03   -0.31869E-03   -0.31868E-03  9568   0.831E-02 0.168E-05
CGA:  21    -0.313461557972E+03   -0.28893E-03   -0.28885E-03  9568   0.617E-02 0.900E-06
CGA:  22    -0.313461842478E+03   -0.28451E-03   -0.28451E-03  9568   0.428E-02 0.322E-05
CGA:  23    -0.313462013800E+03   -0.17132E-03   -0.17133E-03  9568   0.410E-02 0.750E-05
CGA:  24    -0.313462136872E+03   -0.12307E-03   -0.12304E-03  9568   0.237E-02 0.133E-05
CGA:  25    -0.313462253153E+03   -0.11628E-03   -0.11617E-03  9568   0.188E-02 0.103E-04
CGA:  26    -0.313462328542E+03   -0.75389E-04   -0.75391E-04  9568   0.188E-02 0.215E-05
CGA:  27    -0.313462387957E+03   -0.59416E-04   -0.59451E-04  9568   0.105E-02 0.279E-05
CGA:  28    -0.313462429774E+03   -0.41817E-04   -0.41819E-04  9568   0.595E-03 0.305E-05
CGA:  29    -0.313462454877E+03   -0.25103E-04   -0.25102E-04  9568   0.666E-03 0.999E-06
CGA:  30    -0.313462476602E+03   -0.21725E-04   -0.21731E-04  9568   0.428E-03 0.612E-06
CGA:  31    -0.313462496392E+03   -0.19790E-04   -0.19780E-04  9568   0.269E-03 0.153E-05
SDA:  32    -0.313462505563E+03   -0.91713E-05   -0.91712E-05  9568   0.216E-03-0.543E-07
  20 F= -.31346251E+03 E0= -.31344218E+03  d E =-.473332E-02  mag=    24.1694
       N       E                     dE             d eps       ncg     rms          ort
SDA:   1    -0.198283125801E+03    0.11518E+03    0.00000E+00  9568   0.489E+03 0.000E+00
CGA:   2    -0.218501492232E+03   -0.20218E+02   -0.48543E+02  9568   0.517E+04-0.163E+04
CGA:   3    -0.259106603708E+03   -0.40605E+02   -0.11967E+03  9568   0.229E+03 0.952E+02
CGA:   4    -0.269408158919E+03   -0.10302E+02   -0.99843E+01  9568   0.132E+03 0.793E+02
CGA:   5    -0.122449454446E+03    0.14696E+03   -0.35756E+02  9568   0.188E+05-0.273E+04
CGA:   6    -0.297485960878E+03   -0.17504E+03   -0.49285E+03  9568   0.191E+03-0.680E+03
CGA:   7    -0.303181520525E+03   -0.56956E+01   -0.38070E+01  9568   0.725E+02 0.133E+02
CGA:   8    -0.306227805094E+03   -0.30463E+01   -0.27178E+01  9568   0.125E+03-0.549E+01
CGA:   9    -0.307091809859E+03   -0.86400E+00   -0.16537E+01  9568   0.885E+02-0.445E+02
CGA:  10    -0.307990288953E+03   -0.89848E+00   -0.11539E+01  9568   0.548E+02-0.385E+01
CGA:  11    -0.308792658999E+03   -0.80237E+00   -0.89071E+00  9568   0.368E+02-0.630E+01
CGA:  12    -0.309347151403E+03   -0.55449E+00   -0.37425E+00  9568   0.374E+02 0.108E+02
CGA:  13    -0.309816120964E+03   -0.46897E+00   -0.28703E+00  9568   0.366E+02 0.271E+02
CGA:  14    -0.310454966236E+03   -0.63885E+00   -0.81898E+00  9568   0.185E+02-0.227E+01
CGA:  15    -0.311330367155E+03   -0.87540E+00   -0.91033E+00  9568   0.241E+02-0.238E+01
CGA:  16    -0.311581902565E+03   -0.25154E+00   -0.30718E+00  9568   0.903E+01-0.250E+01
CGA:  17    -0.311830447674E+03   -0.24855E+00   -0.25722E+00  9568   0.120E+02 0.537E+00
CGA:  18    -0.312307941143E+03   -0.47749E+00   -0.48068E+00  9568   0.963E+01-0.205E+01
CGA:  19    -0.312740273437E+03   -0.43233E+00   -0.41778E+00  9568   0.324E+01 0.669E+00
CGA:  20    -0.312876683639E+03   -0.13641E+00   -0.13620E+00  9568   0.270E+01 0.764E-01
CGA:  21    -0.312959289766E+03   -0.82606E-01   -0.83425E-01  9568   0.196E+01 0.243E-01
CGA:  22    -0.313061533680E+03   -0.10224E+00   -0.10397E+00  9568   0.277E+01-0.946E-01
CGA:  23    -0.313123755336E+03   -0.62222E-01   -0.67620E-01  9568   0.847E+00 0.260E-01
CGA:  24    -0.313161106570E+03   -0.37351E-01   -0.37700E-01  9568   0.801E+00-0.350E-01
CGA:  25    -0.313181911658E+03   -0.20805E-01   -0.20224E-01  9568   0.478E+00-0.161E-02
CGA:  26    -0.313207792647E+03   -0.25881E-01   -0.25345E-01  9568   0.921E+00 0.265E-01
CGA:  27    -0.313234180399E+03   -0.26388E-01   -0.25581E-01  9568   0.354E+00-0.238E-02
CGA:  28    -0.313245741208E+03   -0.11561E-01   -0.11597E-01  9568   0.341E+00 0.292E-02
CGA:  29    -0.313262433243E+03   -0.16692E-01   -0.16753E-01  9568   0.207E+00-0.397E-02
CGA:  30    -0.313279281154E+03   -0.16848E-01   -0.16534E-01  9568   0.217E+00 0.665E-02
CGA:  31    -0.313284766537E+03   -0.54854E-02   -0.56787E-02  9568   0.735E-01-0.801E-03
CGA:  32    -0.313287761517E+03   -0.29950E-02   -0.29968E-02  9568   0.791E-01-0.588E-03
CGA:  33    -0.313290072200E+03   -0.23107E-02   -0.23262E-02  9568   0.496E-01 0.222E-03
CGA:  34    -0.313293071721E+03   -0.29995E-02   -0.29864E-02  9568   0.257E-01 0.510E-03
CGA:  35    -0.313294639552E+03   -0.15678E-02   -0.15560E-02  9568   0.241E-01 0.485E-03
CGA:  36    -0.313295234085E+03   -0.59453E-03   -0.58698E-03  9568   0.164E-01 0.118E-03
CGA:  37    -0.313296301328E+03   -0.10672E-02   -0.10448E-02  9568   0.128E-01 0.834E-03
CGA:  38    -0.313297327372E+03   -0.10260E-02   -0.10989E-02  9568   0.173E-01-0.192E-02
CGA:  39    -0.313298288598E+03   -0.96123E-03   -0.91160E-03  9568   0.182E-01 0.195E-02
CGA:  40    -0.313298785854E+03   -0.49726E-03   -0.46916E-03  9568   0.102E-01 0.604E-03
CGA:  41    -0.313299277284E+03   -0.49143E-03   -0.48910E-03  9568   0.910E-02 0.424E-03
CGA:  42    -0.313299869346E+03   -0.59206E-03   -0.64219E-03  9568   0.858E-02-0.193E-02
CGA:  43    -0.313300105344E+03   -0.23600E-03   -0.24277E-03  9568   0.480E-02 0.215E-03
SDA:  44    -0.313300293269E+03   -0.18792E-03   -0.18890E-03  9568   0.346E-02 0.615E-04
CGA:  45    -0.313300426002E+03   -0.13273E-03   -0.13286E-03  9568   0.446E-02 0.119E-04
CGA:  46    -0.313300591194E+03   -0.16519E-03   -0.16502E-03  9568   0.369E-02-0.839E-06
CGA:  47    -0.313300802165E+03   -0.21097E-03   -0.21013E-03  9568   0.242E-02 0.484E-04
CGA:  48    -0.313300916743E+03   -0.11458E-03   -0.11464E-03  9568   0.227E-02-0.127E-04
CGA:  49    -0.313301117521E+03   -0.20078E-03   -0.20081E-03  9568   0.284E-02-0.175E-05
CGA:  50    -0.313301243292E+03   -0.12577E-03   -0.12573E-03  9568   0.189E-02-0.151E-04
[...]
CGA:   8    -0.313478181625E+03   -0.14494E-02   -0.14482E-02  9568   0.256E-01-0.898E-05
CGA:   9    -0.313478781012E+03   -0.59939E-03   -0.59823E-03  9568   0.120E-01 0.251E-04
CGA:  10    -0.313479695303E+03   -0.91429E-03   -0.91557E-03  9568   0.601E-02-0.339E-04
CGA:  11    -0.313479903314E+03   -0.20801E-03   -0.20798E-03  9568   0.604E-02-0.780E-06
CGA:  12    -0.313480061912E+03   -0.15860E-03   -0.15837E-03  9568   0.152E-02 0.843E-06
CGA:  13    -0.313480161132E+03   -0.99220E-04   -0.99361E-04  9568   0.178E-02-0.519E-05
CGA:  14    -0.313480231171E+03   -0.70038E-04   -0.70044E-04  9568   0.175E-02 0.524E-06
CGA:  15    -0.313480277007E+03   -0.45837E-04   -0.45807E-04  9568   0.590E-03 0.889E-06
CGA:  16    -0.313480304120E+03   -0.27112E-04   -0.27115E-04  9568   0.454E-03-0.609E-06
CGA:  17    -0.313480322778E+03   -0.18658E-04   -0.18659E-04  9568   0.352E-03 0.763E-06
CGA:  18    -0.313480335010E+03   -0.12232E-04   -0.12233E-04  9568   0.406E-03 0.664E-07
CGA:  19    -0.313480354242E+03   -0.19232E-04   -0.19229E-04  9568   0.142E-03 0.429E-06
CGA:  20    -0.313480362825E+03   -0.85829E-05   -0.85832E-05  9568   0.214E-03-0.295E-07
  53 F= -.31348036E+03 E0= -.31346031E+03  d E =0.494954E-04  mag=    24.0918
       N       E                     dE             d eps       ncg     rms          ort
SDA:   1    -0.312610771392E+03    0.86958E+00    0.00000E+00  9568   0.416E+02 0.000E+00
CGA:   2    -0.313127111416E+03   -0.51634E+00   -0.58263E+00  9568   0.381E+01-0.991E+01
CGA:   3    -0.313201746863E+03   -0.74635E-01   -0.75616E-01  9568   0.139E+01-0.129E-01
CGA:   4    -0.313284082507E+03   -0.82336E-01   -0.82033E-01  9568   0.272E+01 0.147E-01
CGA:   5    -0.313380856781E+03   -0.96774E-01   -0.96989E-01  9568   0.973E+00 0.115E-01
CGA:   6    -0.313408069659E+03   -0.27213E-01   -0.27220E-01  9568   0.529E+00-0.382E-03
CGA:   7    -0.313436079869E+03   -0.28010E-01   -0.27999E-01  9568   0.807E+00 0.991E-03
CGA:   8    -0.313462445518E+03   -0.26366E-01   -0.26432E-01  9568   0.192E+00 0.212E-02
CGA:   9    -0.313467404492E+03   -0.49590E-02   -0.49667E-02  9568   0.103E+00-0.515E-04
CGA:  10    -0.313471837673E+03   -0.44332E-02   -0.44340E-02  9568   0.955E-01-0.130E-03
CGA:  11    -0.313475486720E+03   -0.36490E-02   -0.36498E-02  9568   0.539E-01 0.232E-03
CGA:  12    -0.313477042960E+03   -0.15562E-02   -0.15528E-02  9568   0.279E-01-0.352E-04
CGA:  13    -0.313477955087E+03   -0.91213E-03   -0.91331E-03  9568   0.126E-01 0.619E-04
CGA:  14    -0.313478453072E+03   -0.49798E-03   -0.49799E-03  9568   0.129E-01 0.218E-05
CGA:  15    -0.313478942494E+03   -0.48942E-03   -0.48947E-03  9568   0.875E-02 0.267E-04
CGA:  16    -0.313479279014E+03   -0.33652E-03   -0.33651E-03  9568   0.579E-02-0.529E-05
CGA:  17    -0.313479464631E+03   -0.18562E-03   -0.18564E-03  9568   0.365E-02 0.211E-05
CGA:  18    -0.313479596899E+03   -0.13227E-03   -0.13227E-03  9568   0.253E-02 0.177E-05
CGA:  19    -0.313479720369E+03   -0.12347E-03   -0.12341E-03  9568   0.285E-02 0.460E-05
CGA:  20    -0.313479806831E+03   -0.86462E-04   -0.86461E-04  9568   0.135E-02 0.391E-06
CGA:  21    -0.313479863688E+03   -0.56857E-04   -0.56853E-04  9568   0.125E-02 0.157E-05
CGA:  22    -0.313479913627E+03   -0.49939E-04   -0.49939E-04  9568   0.109E-02 0.379E-06
CGA:  23    -0.313479951557E+03   -0.37930E-04   -0.37933E-04  9568   0.673E-03 0.131E-05
CGA:  24    -0.313479983625E+03   -0.32068E-04   -0.32051E-04  9568   0.730E-03 0.171E-05
CGA:  25    -0.313480005648E+03   -0.22023E-04   -0.22038E-04  9568   0.334E-03 0.138E-05
CGA:  26    -0.313480019166E+03   -0.13518E-04   -0.13519E-04  9568   0.300E-03-0.345E-06
CGA:  27    -0.313480032078E+03   -0.12912E-04   -0.12912E-04  9568   0.300E-03 0.198E-06
CGA:  28    -0.313480042446E+03   -0.10368E-04   -0.10366E-04  9568   0.169E-03-0.203E-06
CGA:  29    -0.313480049228E+03   -0.67818E-05   -0.67816E-05  9568   0.123E-03 0.128E-06
  54 F= -.31348005E+03 E0= -.31346001E+03  d E =0.313597E-03  mag=    24.0900
       N       E                     dE             d eps       ncg     rms          ort
SDA:   1    -0.313411809169E+03    0.68233E-01    0.00000E+00  9568   0.453E+00 0.000E+00
CGA:   2    -0.313420666255E+03   -0.88571E-02   -0.87313E-02  9568   0.302E+00 0.296E-02
CGA:   3    -0.313449445464E+03   -0.28779E-01   -0.28645E-01  9568   0.300E+00 0.265E-02
CGA:   4    -0.313459280100E+03   -0.98346E-02   -0.98034E-02  9568   0.112E+00-0.109E-02
CGA:   5    -0.313468933104E+03   -0.96530E-02   -0.96864E-02  9568   0.150E+00-0.700E-03
CGA:   6    -0.313474832869E+03   -0.58998E-02   -0.58956E-02  9568   0.656E-01-0.708E-03
CGA:   7    -0.313476119225E+03   -0.12864E-02   -0.12863E-02  9568   0.302E-01-0.174E-05
CGA:   8    -0.313477915001E+03   -0.17958E-02   -0.18001E-02  9568   0.160E-01-0.183E-03
CGA:   9    -0.313478827772E+03   -0.91277E-03   -0.91189E-03  9568   0.112E-01 0.446E-04
CGA:  10    -0.313479087666E+03   -0.25989E-03   -0.26050E-03  9568   0.491E-02-0.108E-04
CGA:  11    -0.313479246743E+03   -0.15908E-03   -0.15910E-03  9568   0.357E-02-0.127E-05
CGA:  12    -0.313479426497E+03   -0.17975E-03   -0.17984E-03  9568   0.202E-02-0.554E-05
CGA:  13    -0.313479550422E+03   -0.12393E-03   -0.12380E-03  9568   0.182E-02 0.516E-05
CGA:  14    -0.313479584902E+03   -0.34480E-04   -0.34504E-04  9568   0.590E-03 0.129E-06
CGA:  15    -0.313479618482E+03   -0.33580E-04   -0.33574E-04  9568   0.587E-03 0.362E-06
CGA:  16    -0.313479655706E+03   -0.37223E-04   -0.37185E-04  9568   0.607E-03 0.154E-05
CGA:  17    -0.313479670690E+03   -0.14984E-04   -0.14997E-04  9568   0.304E-03-0.417E-07
CGA:  18    -0.313479681087E+03   -0.10397E-04   -0.10401E-04  9568   0.173E-03 0.328E-06
CGA:  19    -0.313479690492E+03   -0.94056E-05   -0.94109E-05  9568   0.176E-03-0.488E-06
  55 F= -.31347969E+03 E0= -.31345965E+03  d E =0.358735E-03  mag=    24.0900
       N       E                     dE             d eps       ncg     rms          ort
SDA:   1    -0.313328855102E+03    0.15083E+00    0.00000E+00  9568   0.476E+01 0.000E+00
CGA:   2    -0.313383673562E+03   -0.54818E-01   -0.58604E-01  9568   0.362E+00-0.301E+00
CGA:   3    -0.313417229644E+03   -0.33556E-01   -0.33783E-01  9568   0.112E+01-0.394E-02
CGA:   4    -0.313446220297E+03   -0.28991E-01   -0.29156E-01  9568   0.277E+00-0.221E-02
CGA:   5    -0.313455142158E+03   -0.89219E-02   -0.89621E-02  9568   0.222E+00 0.560E-03
CGA:   6    -0.313467269261E+03   -0.12127E-01   -0.12110E-01  9568   0.210E+00 0.108E-02
CGA:   7    -0.313472443881E+03   -0.51746E-02   -0.51378E-02  9568   0.851E-01 0.511E-03
CGA:   8    -0.313476524999E+03   -0.40811E-02   -0.40824E-02  9568   0.456E-01-0.140E-03
CGA:   9    -0.313477534060E+03   -0.10091E-02   -0.10066E-02  9568   0.212E-01 0.505E-04
CGA:  10    -0.313478901051E+03   -0.13670E-02   -0.13713E-02  9568   0.210E-01-0.159E-03
CGA:  11    -0.313479421208E+03   -0.52016E-03   -0.52101E-03  9568   0.866E-02-0.826E-05
CGA:  12    -0.313479744420E+03   -0.32321E-03   -0.32309E-03  9568   0.558E-02-0.682E-05
CGA:  13    -0.313479923195E+03   -0.17877E-03   -0.17874E-03  9568   0.272E-02-0.668E-06
CGA:  14    -0.313480030012E+03   -0.10682E-03   -0.10682E-03  9568   0.314E-02 0.115E-05
CGA:  15    -0.313480162698E+03   -0.13269E-03   -0.13269E-03  9568   0.163E-02-0.520E-06
CGA:  16    -0.313480217513E+03   -0.54815E-04   -0.54831E-04  9568   0.122E-02 0.989E-06
CGA:  17    -0.313480257941E+03   -0.40428E-04   -0.40401E-04  9568   0.686E-03-0.124E-05
CGA:  18    -0.313480286523E+03   -0.28582E-04   -0.28580E-04  9568   0.532E-03 0.712E-06
CGA:  19    -0.313480307004E+03   -0.20481E-04   -0.20481E-04  9568   0.608E-03-0.370E-06
CGA:  20    -0.313480335855E+03   -0.28851E-04   -0.28845E-04  9568   0.353E-03 0.727E-06
CGA:  21    -0.313480346796E+03   -0.10941E-04   -0.10941E-04  9568   0.254E-03 0.197E-07
CGA:  22    -0.313480357251E+03   -0.10455E-04   -0.10455E-04  9568   0.209E-03 0.536E-06
CGA:  23    -0.313480366464E+03   -0.92129E-05   -0.92138E-05  9568   0.220E-03-0.268E-06
  56 F= -.31348037E+03 E0= -.31346032E+03  d E =-.675972E-03  mag=    24.0896
       N       E                     dE             d eps       ncg     rms          ort
SDA:   1    -0.313428568993E+03    0.51788E-01    0.00000E+00  9568   0.179E+01 0.000E+00
CGA:   2    -0.313449286024E+03   -0.20717E-01   -0.21147E-01  9568   0.108E+00-0.358E-01
CGA:   3    -0.313457723596E+03   -0.84376E-02   -0.84204E-02  9568   0.238E+00 0.469E-03
CGA:   4    -0.313469548457E+03   -0.11825E-01   -0.11833E-01  9568   0.118E+00-0.607E-03
CGA:   5    -0.313472631196E+03   -0.30827E-02   -0.30874E-02  9568   0.843E-01-0.345E-04
CGA:   6    -0.313475758066E+03   -0.31269E-02   -0.31279E-02  9568   0.390E-01 0.108E-03
CGA:   7    -0.313478199984E+03   -0.24419E-02   -0.24477E-02  9568   0.368E-01-0.222E-03
CGA:   8    -0.313479110280E+03   -0.91030E-03   -0.91296E-03  9568   0.172E-01-0.244E-04
CGA:   9    -0.313479564050E+03   -0.45377E-03   -0.45211E-03  9568   0.459E-02 0.595E-05
CGA:  10    -0.313479894039E+03   -0.32999E-03   -0.32968E-03  9568   0.759E-02 0.986E-05
CGA:  11    -0.313480101755E+03   -0.20772E-03   -0.20779E-03  9568   0.322E-02-0.208E-05
CGA:  12    -0.313480188451E+03   -0.86696E-04   -0.86631E-04  9568   0.119E-02 0.301E-06
CGA:  13    -0.313480239789E+03   -0.51339E-04   -0.51330E-04  9568   0.732E-03 0.237E-05
CGA:  14    -0.313480273679E+03   -0.33890E-04   -0.33883E-04  9568   0.129E-02 0.105E-05
CGA:  15    -0.313480319622E+03   -0.45943E-04   -0.45931E-04  9568   0.283E-03-0.768E-06
CGA:  16    -0.313480332908E+03   -0.13286E-04   -0.13282E-04  9568   0.299E-03 0.543E-06
CGA:  17    -0.313480341189E+03   -0.82811E-05   -0.82753E-05  9568   0.174E-03-0.387E-06
  57 F= -.31348034E+03 E0= -.31346029E+03  d E =0.252756E-04  mag=    24.0894
       N       E                     dE             d eps       ncg     rms          ort
SDA:   1    -0.313370845501E+03    0.10949E+00    0.00000E+00  9568   0.217E+01 0.000E+00
CGA:   2    -0.313400893124E+03   -0.30048E-01   -0.29945E-01  9568   0.354E+00-0.354E-02
CGA:   3    -0.313417029056E+03   -0.16136E-01   -0.16135E-01  9568   0.519E+00 0.228E-03
CGA:   4    -0.313454513424E+03   -0.37484E-01   -0.37597E-01  9568   0.126E+00-0.325E-02
CGA:   5    -0.313466958665E+03   -0.12445E-01   -0.12311E-01  9568   0.195E+00 0.255E-02
CGA:   6    -0.313471931208E+03   -0.49725E-02   -0.49546E-02  9568   0.129E+00 0.215E-03
CGA:   7    -0.313475973624E+03   -0.40424E-02   -0.40589E-02  9568   0.402E-01 0.190E-03
CGA:   8    -0.313477643997E+03   -0.16704E-02   -0.16702E-02  9568   0.252E-01-0.521E-04
CGA:   9    -0.313478990440E+03   -0.13464E-02   -0.13453E-02  9568   0.146E-01 0.726E-04
CGA:  10    -0.313479347930E+03   -0.35749E-03   -0.35770E-03  9568   0.106E-01-0.176E-05
CGA:  11    -0.313479752896E+03   -0.40497E-03   -0.40517E-03  9568   0.555E-02 0.201E-04
CGA:  12    -0.313480009143E+03   -0.25625E-03   -0.25622E-03  9568   0.173E-02 0.605E-05
CGA:  13    -0.313480111392E+03   -0.10225E-03   -0.10223E-03  9568   0.324E-02 0.900E-06
CGA:  14    -0.313480207304E+03   -0.95912E-04   -0.95872E-04  9568   0.188E-02-0.117E-05
CGA:  15    -0.313480261958E+03   -0.54654E-04   -0.54671E-04  9568   0.671E-03 0.598E-06
CGA:  16    -0.313480300445E+03   -0.38488E-04   -0.38500E-04  9568   0.358E-03-0.799E-06
CGA:  17    -0.313480328214E+03   -0.27769E-04   -0.27762E-04  9568   0.819E-03 0.988E-07
CGA:  18    -0.313480346691E+03   -0.18477E-04   -0.18490E-04  9568   0.277E-03 0.302E-06
CGA:  19    -0.313480358234E+03   -0.11543E-04   -0.11543E-04  9568   0.191E-03-0.239E-06
CGA:  20    -0.313480368795E+03   -0.10560E-04   -0.10558E-04  9568   0.125E-03 0.156E-06
CGA:  21    -0.313480377813E+03   -0.90180E-05   -0.90233E-05  9568   0.185E-03-0.255E-06
  58 F= -.31348038E+03 E0= -.31346035E+03  d E =-.366240E-04  mag=    24.0876
       N       E                     dE             d eps       ncg     rms          ort
SDA:   1    -0.313244680332E+03    0.23569E+00    0.00000E+00  9568   0.100E+01 0.000E+00
CGA:   2    -0.313282471518E+03   -0.37791E-01   -0.37889E-01  9568   0.167E+01 0.500E-02
CGA:   3    -0.313362753799E+03   -0.80282E-01   -0.80370E-01  9568   0.155E+01-0.124E-01
CGA:   4    -0.313407020816E+03   -0.44267E-01   -0.45590E-01  9568   0.440E+00 0.583E-03
CGA:   5    -0.313438070393E+03   -0.31050E-01   -0.30811E-01  9568   0.429E+00 0.791E-02
CGA:   6    -0.313463085303E+03   -0.25015E-01   -0.25068E-01  9568   0.177E+00-0.296E-02
CGA:   7    -0.313470123550E+03   -0.70382E-02   -0.70550E-02  9568   0.124E+00 0.123E-02
CGA:   8    -0.313472935282E+03   -0.28117E-02   -0.28061E-02  9568   0.631E-01 0.978E-04
CGA:   9    -0.313476604219E+03   -0.36689E-02   -0.36669E-02  9568   0.378E-01 0.114E-03
CGA:  10    -0.313477839368E+03   -0.12351E-02   -0.12380E-02  9568   0.190E-01 0.270E-04
CGA:  11    -0.313478543440E+03   -0.70407E-03   -0.70470E-03  9568   0.178E-01 0.305E-04
CGA:  12    -0.313479008279E+03   -0.46484E-03   -0.46609E-03  9568   0.582E-02-0.945E-05
CGA:  13    -0.313479477080E+03   -0.46880E-03   -0.46748E-03  9568   0.488E-02 0.345E-04
CGA:  14    -0.313479611672E+03   -0.13459E-03   -0.13453E-03  9568   0.412E-02-0.283E-06
CGA:  15    -0.313479777876E+03   -0.16620E-03   -0.16626E-03  9568   0.179E-02 0.697E-05
CGA:  16    -0.313479846450E+03   -0.68573E-04   -0.68558E-04  9568   0.113E-02-0.881E-06
CGA:  17    -0.313479911460E+03   -0.65010E-04   -0.64966E-04  9568   0.201E-02 0.304E-05
CGA:  18    -0.313479970001E+03   -0.58541E-04   -0.58533E-04  9568   0.834E-03 0.135E-05
CGA:  19    -0.313479999538E+03   -0.29537E-04   -0.29531E-04  9568   0.376E-03-0.150E-06
CGA:  20    -0.313480023824E+03   -0.24286E-04   -0.24273E-04  9568   0.611E-03 0.521E-06
CGA:  21    -0.313480041746E+03   -0.17922E-04   -0.17928E-04  9568   0.474E-03 0.337E-06
CGA:  22    -0.313480066795E+03   -0.25050E-04   -0.25047E-04  9568   0.175E-03 0.571E-07
CGA:  23    -0.313480074684E+03   -0.78885E-05   -0.78875E-05  9568   0.256E-03 0.565E-06
  59 F= -.31348007E+03 E0= -.31346006E+03  d E =0.303129E-03  mag=    24.0846
       N       E                     dE             d eps       ncg     rms          ort
SDA:   1    -0.313382901240E+03    0.97166E-01    0.00000E+00  9568   0.173E+01 0.000E+00
CGA:   2    -0.313407162769E+03   -0.24262E-01   -0.24170E-01  9568   0.332E+00-0.106E-02
CGA:   3    -0.313425198930E+03   -0.18036E-01   -0.17970E-01  9568   0.509E+00 0.406E-02
CGA:   4    -0.313453268815E+03   -0.28070E-01   -0.27982E-01  9568   0.150E+00 0.546E-02
CGA:   5    -0.313464100131E+03   -0.10831E-01   -0.10910E-01  9568   0.182E+00-0.248E-02
CGA:   6    -0.313469105641E+03   -0.50055E-02   -0.50135E-02  9568   0.155E+00-0.669E-04
CGA:   7    -0.313474680709E+03   -0.55751E-02   -0.55743E-02  9568   0.595E-01-0.401E-04
CGA:   8    -0.313477424323E+03   -0.27436E-02   -0.27430E-02  9568   0.275E-01 0.136E-03
CGA:   9    -0.313478508692E+03   -0.10844E-02   -0.10848E-02  9568   0.255E-01 0.497E-04
CGA:  10    -0.313479175701E+03   -0.66701E-03   -0.66967E-03  9568   0.148E-01-0.244E-04
CGA:  11    -0.313479692507E+03   -0.51681E-03   -0.51690E-03  9568   0.676E-02 0.820E-05
CGA:  12    -0.313480060045E+03   -0.36754E-03   -0.36722E-03  9568   0.262E-02 0.188E-04
CGA:  13    -0.313480161703E+03   -0.10166E-03   -0.10163E-03  9568   0.391E-02-0.360E-05
CGA:  14    -0.313480281496E+03   -0.11979E-03   -0.12006E-03  9568   0.138E-02 0.267E-05
CGA:  15    -0.313480368843E+03   -0.87346E-04   -0.87334E-04  9568   0.149E-02 0.471E-06
CGA:  16    -0.313480422621E+03   -0.53778E-04   -0.53803E-04  9568   0.518E-03 0.160E-05
CGA:  17    -0.313480438031E+03   -0.15411E-04   -0.15415E-04  9568   0.625E-03 0.294E-06
CGA:  18    -0.313480469321E+03   -0.31290E-04   -0.31300E-04  9568   0.331E-03-0.121E-05
CGA:  19    -0.313480495873E+03   -0.26552E-04   -0.26528E-04  9568   0.277E-03 0.622E-06
CGA:  20    -0.313480504455E+03   -0.85821E-05   -0.85809E-05  9568   0.191E-03 0.128E-06
  60 F= -.31348050E+03 E0= -.31346043E+03  d E =-.429772E-03  mag=    24.0856
       N       E                     dE             d eps       ncg     rms          ort
SDA:   1    -0.313439756914E+03    0.40739E-01    0.00000E+00  9568   0.951E+00 0.000E+00
CGA:   2    -0.313452854985E+03   -0.13098E-01   -0.13160E-01  9568   0.139E+00-0.533E-02
CGA:   3    -0.313458013787E+03   -0.51588E-02   -0.51442E-02  9568   0.155E+00-0.132E-02
CGA:   4    -0.313469862450E+03   -0.11849E-01   -0.11856E-01  9568   0.734E-01-0.201E-03
CGA:   5    -0.313473285607E+03   -0.34232E-02   -0.34208E-02  9568   0.696E-01 0.383E-03
CGA:   6    -0.313475298335E+03   -0.20127E-02   -0.20116E-02  9568   0.609E-01 0.131E-05
CGA:   7    -0.313478044502E+03   -0.27462E-02   -0.27452E-02  9568   0.241E-01 0.232E-03
CGA:   8    -0.313479305025E+03   -0.12605E-02   -0.12574E-02  9568   0.794E-02 0.231E-03
CGA:   9    -0.313479593042E+03   -0.28802E-03   -0.28815E-03  9568   0.104E-01 0.694E-05
CGA:  10    -0.313479931303E+03   -0.33826E-03   -0.33838E-03  9568   0.334E-02-0.689E-06
CGA:  11    -0.313480129052E+03   -0.19775E-03   -0.19740E-03  9568   0.235E-02 0.162E-04
CGA:  12    -0.313480200161E+03   -0.71109E-04   -0.71163E-04  9568   0.975E-03 0.948E-06
CGA:  13    -0.313480236627E+03   -0.36466E-04   -0.36474E-04  9568   0.129E-02 0.127E-05
CGA:  14    -0.313480283819E+03   -0.47192E-04   -0.47200E-04  9568   0.481E-03 0.435E-06
CGA:  15    -0.313480319754E+03   -0.35934E-04   -0.35940E-04  9568   0.304E-03-0.218E-06
CGA:  16    -0.313480328326E+03   -0.85723E-05   -0.85682E-05  9568   0.269E-03-0.372E-06
CGA:  17    -0.313480338574E+03   -0.10249E-04   -0.10248E-04  9568   0.163E-03 0.731E-07
CGA:  18    -0.313480348514E+03   -0.99401E-05   -0.99214E-05  9568   0.147E-03 0.955E-06
  61 F= -.31348035E+03 E0= -.31346029E+03  d E =0.155941E-03  mag=    24.0850
       N       E                     dE             d eps       ncg     rms          ort
SDA:   1    -0.313372977282E+03    0.10736E+00    0.00000E+00  9568   0.219E+01 0.000E+00
CGA:   2    -0.313400001361E+03   -0.27024E-01   -0.28161E-01  9568   0.287E+00-0.813E-01
CGA:   3    -0.313425495916E+03   -0.25495E-01   -0.26155E-01  9568   0.740E+00-0.130E-01
CGA:   4    -0.313452538868E+03   -0.27043E-01   -0.27113E-01  9568   0.432E+00 0.355E-02
CGA:   5    -0.313462059908E+03   -0.95210E-02   -0.94106E-02  9568   0.123E+00 0.249E-02
CGA:   6    -0.313468532894E+03   -0.64730E-02   -0.65058E-02  9568   0.174E+00-0.234E-02
CGA:   7    -0.313475449370E+03   -0.69165E-02   -0.69182E-02  9568   0.866E-01 0.219E-03
CGA:   8    -0.313477221165E+03   -0.17718E-02   -0.17640E-02  9568   0.238E-01 0.218E-03
CGA:   9    -0.313478446944E+03   -0.12258E-02   -0.12250E-02  9568   0.183E-01 0.590E-04
CGA:  10    -0.313478990004E+03   -0.54306E-03   -0.54291E-03  9568   0.157E-01 0.722E-06
CGA:  11    -0.313479779308E+03   -0.78930E-03   -0.78946E-03  9568   0.598E-02-0.128E-04
CGA:  12    -0.313479917915E+03   -0.13861E-03   -0.13854E-03  9568   0.260E-02 0.258E-05
CGA:  13    -0.313480025456E+03   -0.10754E-03   -0.10754E-03  9568   0.255E-02-0.297E-05
CGA:  14    -0.313480150447E+03   -0.12499E-03   -0.12504E-03  9568   0.245E-02-0.414E-05
CGA:  15    -0.313480229078E+03   -0.78631E-04   -0.78575E-04  9568   0.123E-02-0.161E-05
CGA:  16    -0.313480262894E+03   -0.33817E-04   -0.33818E-04  9568   0.508E-03 0.632E-06
CGA:  17    -0.313480283316E+03   -0.20421E-04   -0.20421E-04  9568   0.454E-03-0.185E-06
CGA:  18    -0.313480306801E+03   -0.23486E-04   -0.23475E-04  9568   0.677E-03 0.920E-06
CGA:  19    -0.313480329091E+03   -0.22289E-04   -0.22286E-04  9568   0.275E-03-0.679E-07
CGA:  20    -0.313480342219E+03   -0.13128E-04   -0.13126E-04  9568   0.281E-03 0.158E-06
CGA:  21    -0.313480349211E+03   -0.69925E-05   -0.69836E-05  9568   0.111E-03-0.252E-06
  62 F= -.31348035E+03 E0= -.31346028E+03  d E =-.696666E-06  mag=    24.0838
