       N       E                     dE             d eps       ncg     rms          rms(c)
DAV:   1     0.195953685290E+04    0.19595E+04   -0.92467E+04139080   0.184E+03
DAV:   2    -0.130584671241E+02   -0.19726E+04   -0.18664E+04127310   0.565E+02
DAV:   3    -0.195020867553E+03   -0.18196E+03   -0.17839E+03136285   0.194E+02
DAV:   4    -0.199111710272E+03   -0.40908E+01   -0.40674E+01133620   0.319E+01
DAV:   5    -0.199183884677E+03   -0.72174E-01   -0.72093E-01134965   0.450E+00    0.504E+01
DAV:   6    -0.139306586114E+03    0.59877E+02   -0.17931E+02155855   0.106E+02    0.732E+01
DAV:   7    -0.136560907894E+03    0.27457E+01   -0.19361E+01143445   0.574E+01    0.366E+01
DAV:   8    -0.138377099275E+03   -0.18162E+01   -0.59289E+00142025   0.239E+01    0.261E+01
DAV:   9    -0.139082425868E+03   -0.70533E+00   -0.64521E+00145745   0.487E+01    0.260E+01
DAV:  10    -0.138106847001E+03    0.97558E+00   -0.41239E+00129635   0.299E+01    0.919E+00
DAV:  11    -0.138489719970E+03   -0.38287E+00   -0.59182E-01144375   0.104E+01    0.417E+00
DAV:  12    -0.138596234907E+03   -0.10651E+00   -0.43565E-01170195   0.600E+00    0.461E+00
DAV:  13    -0.138545776973E+03    0.50458E-01   -0.12733E-01142270   0.569E+00    0.184E+00
DAV:  14    -0.138551819466E+03   -0.60425E-02   -0.73349E-02165380   0.283E+00    0.791E-01
DAV:  15    -0.138555332057E+03   -0.35126E-02   -0.10982E-02150665   0.108E+00    0.762E-01
DAV:  16    -0.138554850392E+03    0.48167E-03   -0.15421E-03136580   0.620E-01    0.598E-01
DAV:  17    -0.138553612956E+03    0.12374E-02   -0.37705E-03160150   0.856E-01    0.160E-01
DAV:  18    -0.138554508785E+03   -0.89583E-03   -0.11948E-03169985   0.255E-01    0.151E-01
DAV:  19    -0.138554803103E+03   -0.29432E-03   -0.21439E-04152005   0.175E-01    0.871E-02
DAV:  20    -0.138554931121E+03   -0.12802E-03   -0.79037E-05133780   0.110E-01    0.538E-02
DAV:  21    -0.138555021965E+03   -0.90844E-04   -0.39414E-05 97545   0.838E-02    0.269E-02
DAV:  22    -0.138555030147E+03   -0.81821E-05   -0.22224E-05 78165   0.599E-02
   1 F= -.13855503E+03 E0= -.13855503E+03  d E =-.138555E+03  mag=     3.9996
       N       E                     dE             d eps       ncg     rms          rms(c)
DAV:   1    -0.138573427011E+03   -0.18405E-01   -0.62194E-01130350   0.791E+00    0.137E+00
DAV:   2    -0.138565474928E+03    0.79521E-02   -0.14646E-01131140   0.475E+00    0.130E+00
DAV:   3    -0.138561318866E+03    0.41561E-02   -0.52128E-02136970   0.338E+00    0.105E+00
DAV:   4    -0.138557516577E+03    0.38023E-02   -0.97436E-03155235   0.151E+00    0.386E-01
DAV:   5    -0.138557251445E+03    0.26513E-03   -0.27150E-03171830   0.518E-01    0.245E-01
DAV:   6    -0.138557151931E+03    0.99514E-04   -0.86490E-04148750   0.394E-01    0.928E-02
DAV:   7    -0.138557069534E+03    0.82397E-04   -0.13345E-04146860   0.145E-01    0.386E-02
DAV:   8    -0.138557052636E+03    0.16898E-04   -0.46798E-05107260   0.934E-02    0.382E-02
DAV:   9    -0.138557047142E+03    0.54937E-05   -0.21866E-05 76215   0.784E-02
   2 F= -.13855705E+03 E0= -.13855705E+03  d E =-.201699E-02  mag=     4.0000
       N       E                     dE             d eps       ncg     rms          rms(c)
DAV:   1    -0.138557302200E+03   -0.24956E-03   -0.78040E-03131140   0.882E-01    0.153E-01
DAV:   2    -0.138557316069E+03   -0.13869E-04   -0.17603E-03131400   0.520E-01    0.134E-01
DAV:   3    -0.138557329510E+03   -0.13441E-04   -0.58720E-04139970   0.358E-01    0.117E-01
DAV:   4    -0.138557184115E+03    0.14540E-03   -0.13724E-04146720   0.177E-01    0.410E-02
DAV:   5    -0.138557184373E+03   -0.25812E-06   -0.26840E-05 75055   0.500E-02    0.296E-02
DAV:   6    -0.138557184830E+03   -0.45690E-06   -0.12705E-05 67020   0.506E-02
   3 F= -.13855718E+03 E0= -.13855718E+03  d E =-.215468E-02  mag=     4.0000
       N       E                     dE             d eps       ncg     rms          rms(c)
DAV:   1    -0.138551272454E+03    0.59119E-02   -0.37845E-01123620   0.750E+00    0.583E-01
DAV:   2    -0.138559243224E+03   -0.79708E-02   -0.93959E-02128790   0.181E+00    0.475E-01
DAV:   3    -0.138558929685E+03    0.31354E-03   -0.74641E-03144740   0.106E+00    0.400E-01
DAV:   4    -0.138558524092E+03    0.40559E-03   -0.19627E-03138735   0.719E-01    0.166E-01
DAV:   5    -0.138558507408E+03    0.16684E-04   -0.45560E-04169835   0.156E-01    0.112E-01
DAV:   6    -0.138558460181E+03    0.47227E-04   -0.14148E-04133490   0.150E-01    0.452E-02
DAV:   7    -0.138558487336E+03   -0.27155E-04   -0.42702E-05 98085   0.945E-02    0.383E-02
DAV:   8    -0.138558496000E+03   -0.86648E-05   -0.24324E-05 80935   0.849E-02
   4 F= -.13855850E+03 E0= -.13855850E+03  d E =-.131117E-02  mag=     4.0000
       N       E                     dE             d eps       ncg     rms          rms(c)
DAV:   1    -0.138557888580E+03    0.59876E-03   -0.46258E-02124190   0.262E+00    0.204E-01
DAV:   2    -0.138558899881E+03   -0.10113E-02   -0.11469E-02129040   0.633E-01    0.163E-01
DAV:   3    -0.138558819483E+03    0.80398E-04   -0.89991E-04142350   0.363E-01    0.140E-01
DAV:   4    -0.138558843257E+03   -0.23775E-04   -0.25225E-04133695   0.257E-01    0.587E-02
DAV:   5    -0.138558839443E+03    0.38143E-05   -0.53754E-05123935   0.575E-02    0.393E-02
DAV:   6    -0.138558829368E+03    0.10075E-04   -0.20203E-05 70285   0.598E-02    0.175E-02
DAV:   7    -0.138558838812E+03   -0.94444E-05   -0.83584E-06 66270   0.423E-02
   5 F= -.13855884E+03 E0= -.13855884E+03  d E =-.165398E-02  mag=     4.0000
       N       E                     dE             d eps       ncg     rms          rms(c)
DAV:   1    -0.138555669952E+03    0.31594E-02   -0.18506E-01123695   0.525E+00    0.409E-01
DAV:   2    -0.138559628440E+03   -0.39585E-02   -0.46073E-02128835   0.127E+00    0.338E-01
DAV:   3    -0.138559405654E+03    0.22279E-03   -0.37044E-03139570   0.744E-01    0.281E-01
DAV:   4    -0.138559277554E+03    0.12810E-03   -0.97425E-04141750   0.505E-01    0.116E-01
DAV:   5    -0.138559270674E+03    0.68801E-05   -0.22460E-04167045   0.108E-01    0.790E-02
DAV:   6    -0.138559239287E+03    0.31387E-04   -0.64600E-05103540   0.101E-01    0.309E-02
DAV:   7    -0.138559258375E+03   -0.19088E-04   -0.18230E-05 70460   0.594E-02    0.253E-02
DAV:   8    -0.138559264471E+03   -0.60960E-05   -0.14607E-05 67820   0.604E-02
   6 F= -.13855926E+03 E0= -.13855926E+03  d E =-.207964E-02  mag=     4.0000
       N       E                     dE             d eps       ncg     rms          rms(c)
DAV:   1    -0.138558601252E+03    0.65712E-03   -0.37569E-02124150   0.237E+00    0.184E-01
DAV:   2    -0.138559438549E+03   -0.83730E-03   -0.93506E-03129100   0.574E-01    0.150E-01
DAV:   3    -0.138559359461E+03    0.79088E-04   -0.74853E-04142240   0.332E-01    0.127E-01
DAV:   4    -0.138559389580E+03   -0.30119E-04   -0.19895E-04130380   0.229E-01    0.521E-02
DAV:   5    -0.138559385695E+03    0.38850E-05   -0.44391E-05116460   0.555E-02    0.363E-02
DAV:   6    -0.138559378121E+03    0.75738E-05   -0.20665E-05 70285   0.641E-02
   7 F= -.13855938E+03 E0= -.13855938E+03  d E =-.219329E-02  mag=     4.0000
       N       E                     dE             d eps       ncg     rms          rms(c)
DAV:   1    -0.138544907902E+03    0.14478E-01   -0.52258E-01130015   0.111E+01    0.585E-01
DAV:   2    -0.138560028511E+03   -0.15121E-01   -0.16357E-01130020   0.219E+00    0.337E-01
DAV:   3    -0.138559950046E+03    0.78466E-04   -0.42129E-03148300   0.428E-01    0.199E-01
DAV:   4    -0.138559877777E+03    0.72269E-04   -0.73488E-04176250   0.343E-01    0.155E-01
DAV:   5    -0.138559895805E+03   -0.18028E-04   -0.67307E-04141615   0.414E-01    0.119E-01
DAV:   6    -0.138559820184E+03    0.75621E-04   -0.14180E-04137925   0.200E-01    0.400E-02
DAV:   7    -0.138559849800E+03   -0.29616E-04   -0.51973E-05105690   0.921E-02    0.388E-02
DAV:   8    -0.138559833679E+03    0.16122E-04   -0.27514E-05 80380   0.716E-02    0.230E-02
DAV:   9    -0.138559849872E+03   -0.16194E-04   -0.70100E-06 67545   0.400E-02    0.998E-03
DAV:  10    -0.138559853524E+03   -0.36513E-05   -0.23138E-06 66380   0.143E-02
   8 F= -.13855985E+03 E0= -.13855985E+03  d E =-.475403E-03  mag=     4.0000
       N       E                     dE             d eps       ncg     rms          rms(c)
DAV:   1    -0.138559342212E+03    0.50766E-03   -0.20444E-02129970   0.219E+00    0.116E-01
DAV:   2    -0.138559938450E+03   -0.59624E-03   -0.63827E-03130420   0.430E-01    0.673E-02
DAV:   3    -0.138559912688E+03    0.25763E-04   -0.16302E-04139945   0.854E-02    0.404E-02
DAV:   4    -0.138559918153E+03   -0.54652E-05   -0.48673E-05 94315   0.872E-02    0.451E-02
DAV:   5    -0.138559875589E+03    0.42564E-04   -0.37923E-05 85670   0.915E-02    0.202E-02
DAV:   6    -0.138559892702E+03   -0.17113E-04   -0.59256E-06 62130   0.256E-02    0.104E-02
DAV:   7    -0.138559897328E+03   -0.46265E-05   -0.25674E-06 61255   0.180E-02
   9 F= -.13855990E+03 E0= -.13855990E+03  d E =-.519207E-03  mag=     4.0000
       N       E                     dE             d eps       ncg     rms          rms(c)
DAV:   1    -0.138559654543E+03    0.23816E-03   -0.89604E-03130005   0.145E+00    0.756E-02
DAV:   2    -0.138559911828E+03   -0.25728E-03   -0.28030E-03130410   0.285E-01    0.450E-02
DAV:   3    -0.138559903852E+03    0.79755E-05   -0.72579E-05103290   0.696E-02    0.302E-02
DAV:   4    -0.138559885541E+03    0.18312E-04   -0.28593E-05 81370   0.773E-02    0.330E-02
DAV:   5    -0.138559892516E+03   -0.69756E-05   -0.14488E-05 66670   0.612E-02    0.991E-03
DAV:   6    -0.138559886873E+03    0.56427E-05   -0.44297E-06 62605   0.230E-02
  10 F= -.13855989E+03 E0= -.13855989E+03  d E =-.508752E-03  mag=     4.0000
       N       E                     dE             d eps       ncg     rms          rms(c)
DAV:   1    -0.138558340427E+03    0.15521E-02   -0.17329E-01120100   0.447E+00    0.275E-01
DAV:   2    -0.138560615557E+03   -0.22751E-02   -0.27192E-02139975   0.123E+00    0.304E-01
DAV:   3    -0.138560604384E+03    0.11173E-04   -0.28418E-03143810   0.709E-01    0.174E-01
DAV:   4    -0.138560342705E+03    0.26168E-03   -0.32083E-04159435   0.259E-01    0.735E-02
DAV:   5    -0.138560293836E+03    0.48869E-04   -0.12514E-04134470   0.138E-01    0.524E-02
DAV:   6    -0.138560286782E+03    0.70541E-05   -0.39664E-05107145   0.836E-02
  11 F= -.13856029E+03 E0= -.13856029E+03  d E =-.399909E-03  mag=     4.0000
       N       E                     dE             d eps       ncg     rms          rms(c)
DAV:   1    -0.138559148191E+03    0.11456E-02   -0.10952E-01120125   0.356E+00    0.220E-01
DAV:   2    -0.138560600932E+03   -0.14527E-02   -0.17288E-02141820   0.989E-01    0.248E-01
DAV:   3    -0.138560609605E+03   -0.86726E-05   -0.18249E-03144140   0.570E-01    0.137E-01
DAV:   4    -0.138560417660E+03    0.19194E-03   -0.19938E-04160120   0.201E-01    0.603E-02
DAV:   5    -0.138560375102E+03    0.42558E-04   -0.79873E-05123540   0.115E-01    0.422E-02
DAV:   6    -0.138560368406E+03    0.66955E-05   -0.31016E-05 96380   0.820E-02
  12 F= -.13856037E+03 E0= -.13856037E+03  d E =-.481533E-03  mag=     4.0000
