       N       E                     dE             d eps       ncg     rms          ort
DAV:   1     0.735051188096E+04    0.73505E+04   -0.35053E+05  9568   0.175E+03
DAV:   2     0.487580106604E+03   -0.68629E+04   -0.64399E+04  9568   0.512E+02
DAV:   3    -0.314629460545E+03   -0.80221E+03   -0.77785E+03  9568   0.195E+02
DAV:   4    -0.347991777709E+03   -0.33362E+02   -0.32917E+02  9568   0.384E+01
DAV:   5    -0.350212205565E+03   -0.22204E+01   -0.21946E+01  9568   0.760E+00
SDA:   6    -0.169099003872E+03    0.18111E+03   -0.21946E+01  9568   0.143E+04 0.000E+00
CGA:   7    -0.269586556152E+03   -0.10049E+03   -0.14257E+03  9568   0.758E+03-0.333E+02
CGA:   8    -0.276939550631E+03   -0.73530E+01   -0.14929E+02  9568   0.113E+04 0.402E+02
CGA:   9    -0.272872086710E+03    0.40675E+01   -0.49379E+02  9568   0.462E+03-0.256E+03
CGA:  10    -0.284869350271E+03   -0.11997E+02   -0.81468E+01  9568   0.245E+03 0.204E+03
CGA:  11    -0.280774103825E+03    0.40952E+01   -0.81799E+01  9568   0.162E+04-0.428E+03
CGA:  12    -0.292406411321E+03   -0.11632E+02   -0.58673E+02  9568   0.119E+03 0.358E+01
CGA:  13    -0.295023103372E+03   -0.26167E+01   -0.15524E+01  9568   0.639E+02 0.792E+02
CGA:  14    -0.296051262974E+03   -0.10282E+01   -0.52832E+00  9568   0.553E+02 0.614E+02
CGA:  15    -0.296933617839E+03   -0.88235E+00   -0.44325E+00  9568   0.502E+02 0.556E+02
CGA:  16    -0.297821557685E+03   -0.88794E+00   -0.43263E+00  9568   0.476E+02 0.536E+02
CGA:  17    -0.298853952560E+03   -0.10324E+01   -0.47945E+00  9568   0.457E+02 0.559E+02
CGA:  18    -0.300098017631E+03   -0.12441E+01   -0.59856E+00  9568   0.271E+02 0.417E+02
CGA:  19    -0.300534330510E+03   -0.43631E+00   -0.23464E+00  9568   0.184E+02 0.225E+02
CGA:  20    -0.301052259623E+03   -0.51793E+00   -0.29302E+00  9568   0.128E+02 0.135E+02
CGA:  21    -0.303055424556E+03   -0.20032E+01   -0.19140E+01  9568   0.380E+02 0.155E+01
CGA:  22    -0.303764620003E+03   -0.70920E+00   -0.64216E+00  9568   0.268E+02-0.902E+01
CGA:  23    -0.302235770353E+03    0.15288E+01   -0.33745E+00  9568   0.290E+03-0.158E+03
CGA:  24    -0.295879565373E+03    0.63562E+01   -0.11129E+02  9568   0.661E+03-0.112E+03
CGA:  25    -0.298072621488E+03   -0.21931E+01   -0.10785E+02  9568   0.467E+03-0.236E+02
CGA:  26    -0.294092020525E+03    0.39806E+01   -0.17521E+02  9568   0.777E+03 0.963E+02
CGA:  27    -0.281298936943E+03    0.12793E+02   -0.34769E+02  9568   0.783E+03-0.197E+02
CGA:  28    -0.293768991320E+03   -0.12470E+02   -0.18118E+02  9568   0.371E+03-0.123E+03
CGA:  29    -0.302404202800E+03   -0.86352E+01   -0.10583E+02  9568   0.141E+03 0.388E+02
CGA:  30    -0.298400902772E+03    0.40033E+01   -0.33952E+01  9568   0.856E+03-0.534E+03
CGA:  31    -0.299945497212E+03   -0.15446E+01   -0.23222E+02  9568   0.101E+03-0.948E+02
CGA:  32    -0.302688918998E+03   -0.27434E+01   -0.12321E+01  9568   0.195E+03 0.247E+03
CGA:  33    -0.300102612649E+03    0.25863E+01   -0.36728E+01  9568   0.811E+03-0.629E+03
CGA:  34    -0.299333288958E+03    0.76932E+00   -0.22148E+02  9568   0.216E+03-0.104E+03
CGA:  35    -0.305590353496E+03   -0.62571E+01   -0.35445E+01  9568   0.972E+02 0.182E+03
CGA:  36    -0.306119853460E+03   -0.52950E+00   -0.14454E+01  9568   0.994E+02-0.732E+02
CGA:  37    -0.304503876126E+03    0.16160E+01   -0.18642E+01  9568   0.291E+03-0.153E+03
CGA:  38    -0.300537406909E+03    0.39665E+01   -0.53364E+01  9568   0.778E+03-0.442E+03
CGA:  39    -0.300016286628E+03    0.52112E+00   -0.20991E+02  9568   0.169E+03-0.993E+02
CGA:  40    -0.303102743911E+03   -0.30865E+01   -0.19751E+01  9568   0.209E+03 0.231E+03
CGA:  41    -0.305174713389E+03   -0.20720E+01   -0.28461E+01  9568   0.229E+03-0.332E+03
CGA:  42    -0.302527636606E+03    0.26471E+01   -0.46097E+01  9568   0.252E+03-0.151E+03
CGA:  43    -0.304351772565E+03   -0.18241E+01   -0.34741E+01  9568   0.337E+03-0.427E+03
CGA:  44    -0.302134659853E+03    0.22171E+01   -0.68693E+01  9568   0.161E+03-0.111E+03
CGA:  45    -0.305375596222E+03   -0.32409E+01   -0.90656E+00  9568   0.205E+03 0.248E+03
CGA:  46    -0.306072289864E+03   -0.69669E+00   -0.23467E+01  9568   0.146E+03-0.191E+03
CGA:  47    -0.305166901233E+03    0.90539E+00   -0.22526E+01  9568   0.241E+03-0.170E+03
CGA:  48    -0.305934427290E+03   -0.76753E+00   -0.27461E+01  9568   0.170E+03-0.218E+03
CGA:  49    -0.305142422941E+03    0.79200E+00   -0.25583E+01  9568   0.240E+03-0.181E+03
CGA:  50    -0.306308464317E+03   -0.11660E+01   -0.25613E+01  9568   0.118E+03-0.185E+03
CGA:  51    -0.306351580087E+03   -0.43116E-01   -0.14801E+01  9568   0.111E+03-0.113E+03
CGA:  52    -0.307011783698E+03   -0.66020E+00   -0.95014E+00  9568   0.152E+02-0.414E+02
CGA:  53    -0.307115281003E+03   -0.10350E+00   -0.10347E+00  9568   0.487E+00-0.717E-01
CGA:  54    -0.307150788298E+03   -0.35507E-01   -0.36539E-01  9568   0.409E+01-0.252E-01
CGA:  55    -0.307157225179E+03   -0.64369E-02   -0.32531E-02  9568   0.393E+01 0.379E+01
CGA:  56    -0.307185006845E+03   -0.27782E-01   -0.30191E-01  9568   0.543E+00-0.283E+00
CGA:  57    -0.307210172150E+03   -0.25165E-01   -0.24625E-01  9568   0.120E+01 0.288E-01
CGA:  58    -0.307244634703E+03   -0.34463E-01   -0.49010E-01  9568   0.567E+01-0.251E+01
CGA:  59    -0.307287014045E+03   -0.42379E-01   -0.41220E-01  9568   0.520E+00 0.107E+00
CGA:  60    -0.307304426128E+03   -0.17412E-01   -0.17416E-01  9568   0.506E+00 0.406E-02
CGA:  61    -0.307344365300E+03   -0.39939E-01   -0.38845E-01  9568   0.284E+01 0.102E-01
CGA:  62    -0.307348839026E+03   -0.44737E-02   -0.22770E-02  9568   0.262E+01 0.278E+01
CGA:  63    -0.307369376670E+03   -0.20538E-01   -0.21993E-01  9568   0.470E+00-0.150E+00
CGA:  64    -0.307383790221E+03   -0.14414E-01   -0.14415E-01  9568   0.279E+00-0.710E-02
CGA:  65    -0.307396569184E+03   -0.12779E-01   -0.12712E-01  9568   0.109E+01 0.250E-02
CGA:  66    -0.307401862201E+03   -0.52930E-02   -0.27265E-02  9568   0.940E+00 0.103E+01
CGA:  67    -0.307410255753E+03   -0.83936E-02   -0.84429E-02  9568   0.216E+00-0.628E-02
CGA:  68    -0.307421205472E+03   -0.10950E-01   -0.10619E-01  9568   0.249E+00 0.145E-01
CGA:  69    -0.307441561416E+03   -0.20356E-01   -0.23951E-01  9568   0.126E+01-0.990E-01
CGA:  70    -0.307442007173E+03   -0.44576E-03   -0.22766E-03  9568   0.126E+01 0.714E+00
CGA:  71    -0.307458462563E+03   -0.16455E-01   -0.17968E-01  9568   0.249E+00-0.623E-01
CGA:  72    -0.307463326391E+03   -0.48638E-02   -0.49050E-02  9568   0.252E+00-0.214E-02
CGA:  73    -0.307469877355E+03   -0.65510E-02   -0.66086E-02  9568   0.230E+00 0.256E-02
CGA:  74    -0.307482803488E+03   -0.12926E-01   -0.12773E-01  9568   0.366E+00-0.190E-02
CGA:  75    -0.307494247153E+03   -0.11444E-01   -0.13275E-01  9568   0.255E+00-0.271E+00
CGA:  76    -0.307500654568E+03   -0.64074E-02   -0.66203E-02  9568   0.228E+00 0.518E-02
CGA:  77    -0.307504461351E+03   -0.38068E-02   -0.38177E-02  9568   0.140E+00-0.314E-02
CGA:  78    -0.307510950835E+03   -0.64895E-02   -0.60944E-02  9568   0.696E-01 0.213E-01
CGA:  79    -0.307515019815E+03   -0.40690E-02   -0.39842E-02  9568   0.165E+00 0.279E-02
CGA:  80    -0.307519543073E+03   -0.45233E-02   -0.44872E-02  9568   0.179E+00-0.476E-04
CGA:  81    -0.307524100833E+03   -0.45578E-02   -0.40787E-02  9568   0.704E-01 0.166E-02
CGA:  82    -0.307527138380E+03   -0.30375E-02   -0.30741E-02  9568   0.120E+00-0.441E-02
CGA:  83    -0.307529791615E+03   -0.26532E-02   -0.26655E-02  9568   0.115E+00-0.213E-02
CGA:  84    -0.307532339671E+03   -0.25481E-02   -0.24950E-02  9568   0.741E-01-0.659E-03
CGA:  85    -0.307534596771E+03   -0.22571E-02   -0.22547E-02  9568   0.447E-01-0.217E-02
CGA:  86    -0.307535679333E+03   -0.10826E-02   -0.10938E-02  9568   0.548E-01-0.772E-03
CGA:  87    -0.307536990429E+03   -0.13111E-02   -0.13210E-02  9568   0.356E-01-0.115E-02
CGA:  88    -0.307538040370E+03   -0.10499E-02   -0.10519E-02  9568   0.206E-01 0.219E-03
CGA:  89    -0.307538796697E+03   -0.75633E-03   -0.74846E-03  9568   0.153E-01-0.109E-05
CGA:  90    -0.307539294900E+03   -0.49820E-03   -0.49773E-03  9568   0.238E-01-0.445E-03
CGA:  91    -0.307539964065E+03   -0.66916E-03   -0.67202E-03  9568   0.149E-01 0.147E-03
CGA:  92    -0.307540435649E+03   -0.47158E-03   -0.47138E-03  9568   0.840E-02 0.254E-04
CGA:  93    -0.307540929276E+03   -0.49363E-03   -0.47592E-03  9568   0.861E-02 0.513E-03
CGA:  94    -0.307541249356E+03   -0.32008E-03   -0.31954E-03  9568   0.125E-01 0.371E-04
CGA:  95    -0.307541577555E+03   -0.32820E-03   -0.32911E-03  9568   0.677E-02-0.194E-04
CGA:  96    -0.307541917798E+03   -0.34024E-03   -0.33443E-03  9568   0.803E-02 0.258E-03
CGA:  97    -0.307542279314E+03   -0.36152E-03   -0.36126E-03  9568   0.615E-02-0.146E-05
CGA:  98    -0.307542446791E+03   -0.16748E-03   -0.16803E-03  9568   0.635E-02-0.232E-05
CGA:  99    -0.307542683698E+03   -0.23691E-03   -0.23702E-03  9568   0.516E-02-0.305E-04
CGA: 100    -0.307542870174E+03   -0.18648E-03   -0.18628E-03  9568   0.308E-02 0.241E-04
CGA: 101    -0.307543045944E+03   -0.17577E-03   -0.17625E-03  9568   0.488E-02-0.219E-04
CGA: 102    -0.307543169610E+03   -0.12367E-03   -0.12474E-03  9568   0.365E-02 0.119E-06
CGA: 103    -0.307543321365E+03   -0.15176E-03   -0.15199E-03  9568   0.275E-02-0.278E-04
CGA: 104    -0.307543414363E+03   -0.92997E-04   -0.93021E-04  9568   0.176E-02 0.117E-04
CGA: 105    -0.307543488212E+03   -0.73849E-04   -0.73942E-04  9568   0.250E-02-0.943E-05
SDA: 106    -0.307543558681E+03   -0.70469E-04   -0.70658E-04  9568   0.168E-02 0.311E-05
CGA: 107    -0.307543588546E+03   -0.29864E-04   -0.29990E-04  9568   0.728E-03-0.152E-05
CGA: 108    -0.307543610051E+03   -0.21505E-04   -0.21504E-04  9568   0.594E-03-0.236E-05
CGA: 109    -0.307543642615E+03   -0.32564E-04   -0.32328E-04  9568   0.120E-02 0.894E-05
CGA: 110    -0.307543734732E+03   -0.92118E-04   -0.90626E-04  9568   0.114E-02 0.348E-04
CGA: 111    -0.307543800803E+03   -0.66070E-04   -0.65374E-04  9568   0.507E-03 0.322E-04
CGA: 112    -0.307543821753E+03   -0.20950E-04   -0.20930E-04  9568   0.218E-03 0.727E-05
CGA: 113    -0.307543831590E+03   -0.98367E-05   -0.98154E-05  9568   0.340E-03 0.252E-05
   1 F= -.30754383E+03 E0= -.30752299E+03  d E =-.307544E+03  mag=    25.7948
       N       E                     dE             d eps       ncg     rms          ort
SDA:   1    -0.307600127713E+03   -0.56306E-01    0.00000E+00  9568   0.138E+01 0.000E+00
CGA:   2    -0.307614432073E+03   -0.14304E-01   -0.14895E-01  9568   0.753E-01-0.453E-01
CGA:   3    -0.307616195170E+03   -0.17631E-02   -0.17494E-02  9568   0.385E-01 0.837E-05
CGA:   4    -0.307617858667E+03   -0.16635E-02   -0.16622E-02  9568   0.343E-01 0.131E-03
CGA:   5    -0.307619566045E+03   -0.17074E-02   -0.17096E-02  9568   0.586E-01-0.122E-03
CGA:   6    -0.307620980467E+03   -0.14144E-02   -0.14143E-02  9568   0.204E-01 0.230E-04
CGA:   7    -0.307621631762E+03   -0.65129E-03   -0.65170E-03  9568   0.526E-02 0.379E-04
CGA:   8    -0.307621878475E+03   -0.24671E-03   -0.24666E-03  9568   0.999E-02 0.497E-05
CGA:   9    -0.307622155211E+03   -0.27674E-03   -0.27645E-03  9568   0.495E-02-0.136E-04
CGA:  10    -0.307622390450E+03   -0.23524E-03   -0.23537E-03  9568   0.219E-02-0.970E-05
CGA:  11    -0.307622439389E+03   -0.48939E-04   -0.48778E-04  9568   0.129E-02-0.468E-05
CGA:  12    -0.307622492819E+03   -0.53430E-04   -0.53412E-04  9568   0.123E-02 0.199E-05
CGA:  13    -0.307622519870E+03   -0.27051E-04   -0.27023E-04  9568   0.310E-03-0.116E-05
CGA:  14    -0.307622546542E+03   -0.26672E-04   -0.26540E-04  9568   0.704E-03 0.276E-05
CGA:  15    -0.307622560453E+03   -0.13911E-04   -0.13887E-04  9568   0.259E-03-0.703E-06
CGA:  16    -0.307622572873E+03   -0.12419E-04   -0.12395E-04  9568   0.142E-03 0.224E-05
CGA:  17    -0.307622577454E+03   -0.45815E-05   -0.45832E-05  9568   0.165E-03 0.331E-06
   2 F= -.30762258E+03 E0= -.30760172E+03  d E =-.787459E-01  mag=    25.7993
       N       E                     dE             d eps       ncg     rms          ort
SDA:   1    -0.307175244269E+03    0.44733E+00    0.00000E+00  9568   0.596E+01 0.000E+00
CGA:   2    -0.307348969814E+03   -0.17373E+00   -0.17743E+00  9568   0.871E+01 0.106E+00
CGA:   3    -0.307847756101E+03   -0.49879E+00   -0.49876E+00  9568   0.141E+02 0.230E-01
CGA:   4    -0.308200363608E+03   -0.35261E+00   -0.36746E+00  9568   0.335E+01 0.160E-01
CGA:   5    -0.308299383555E+03   -0.99020E-01   -0.94209E-01  9568   0.129E+01-0.846E-01
CGA:   6    -0.308395447928E+03   -0.96064E-01   -0.94357E-01  9568   0.232E+01 0.433E-01
CGA:   7    -0.308440319079E+03   -0.44871E-01   -0.44203E-01  9568   0.125E+01 0.165E-01
CGA:   8    -0.308496609678E+03   -0.56291E-01   -0.55871E-01  9568   0.391E+00 0.400E-01
CGA:   9    -0.308507530170E+03   -0.10920E-01   -0.10987E-01  9568   0.237E+00 0.557E-03
CGA:  10    -0.308513921639E+03   -0.63915E-02   -0.63739E-02  9568   0.199E+00-0.239E-03
CGA:  11    -0.308519971476E+03   -0.60498E-02   -0.60731E-02  9568   0.182E+00 0.106E-02
CGA:  12    -0.308527914828E+03   -0.79434E-02   -0.79373E-02  9568   0.100E+00 0.611E-03
CGA:  13    -0.308530589058E+03   -0.26742E-02   -0.26670E-02  9568   0.499E-01-0.728E-04
CGA:  14    -0.308531528960E+03   -0.93990E-03   -0.94029E-03  9568   0.315E-01 0.101E-04
CGA:  15    -0.308534083232E+03   -0.25543E-02   -0.25685E-02  9568   0.350E-01-0.336E-03
CGA:  16    -0.308535309880E+03   -0.12266E-02   -0.12258E-02  9568   0.462E-01-0.127E-03
CGA:  17    -0.308536532030E+03   -0.12221E-02   -0.12256E-02  9568   0.219E-01 0.820E-04
CGA:  18    -0.308537008304E+03   -0.47627E-03   -0.47641E-03  9568   0.926E-02 0.244E-04
CGA:  19    -0.308537870166E+03   -0.86186E-03   -0.86264E-03  9568   0.168E-01-0.213E-04
CGA:  20    -0.308538387128E+03   -0.51696E-03   -0.51805E-03  9568   0.206E-01 0.521E-04
CGA:  21    -0.308538964086E+03   -0.57696E-03   -0.57752E-03  9568   0.923E-02 0.231E-04
CGA:  22    -0.308539319958E+03   -0.35587E-03   -0.35587E-03  9568   0.593E-02 0.751E-05
CGA:  23    -0.308539572083E+03   -0.25212E-03   -0.25192E-03  9568   0.648E-02 0.347E-04
CGA:  24    -0.308539775115E+03   -0.20303E-03   -0.20294E-03  9568   0.603E-02-0.623E-05
CGA:  25    -0.308539934614E+03   -0.15950E-03   -0.15975E-03  9568   0.448E-02 0.659E-05
CGA:  26    -0.308540178750E+03   -0.24414E-03   -0.24379E-03  9568   0.149E-02 0.183E-04
CGA:  27    -0.308540236566E+03   -0.57815E-04   -0.57816E-04  9568   0.230E-02-0.182E-05
CGA:  28    -0.308540302304E+03   -0.65738E-04   -0.65855E-04  9568   0.147E-02 0.837E-05
CGA:  29    -0.308540346662E+03   -0.44358E-04   -0.44402E-04  9568   0.111E-02 0.444E-05
CGA:  30    -0.308540402788E+03   -0.56126E-04   -0.56048E-04  9568   0.568E-03 0.564E-05
CGA:  31    -0.308540423923E+03   -0.21136E-04   -0.21141E-04  9568   0.735E-03 0.383E-05
SDA:  32    -0.308540441068E+03   -0.17144E-04   -0.17142E-04  9568   0.348E-03 0.448E-07
CGA:  33    -0.308540448454E+03   -0.73864E-05   -0.73962E-05  9568   0.197E-03-0.169E-07
   3 F= -.30854045E+03 E0= -.30851931E+03  d E =-.917871E+00  mag=    25.8033
       N       E                     dE             d eps       ncg     rms          ort
SDA:   1    -0.268921746585E+03    0.39619E+02    0.00000E+00  9568   0.261E+03 0.000E+00
CGA:   2    -0.276663811517E+03   -0.77421E+01   -0.13834E+02  9568   0.664E+03-0.154E+03
CGA:   3    -0.289290309360E+03   -0.12626E+02   -0.16269E+02  9568   0.245E+03-0.175E+03
CGA:   4    -0.297872910263E+03   -0.85826E+01   -0.99192E+01  9568   0.142E+03-0.271E+02
CGA:   5    -0.300505717041E+03   -0.26328E+01   -0.29523E+01  9568   0.762E+02 0.302E+01
CGA:   6    -0.302937979967E+03   -0.24323E+01   -0.43281E+01  9568   0.182E+03-0.107E+03
CGA:   7    -0.305769678930E+03   -0.28317E+01   -0.41798E+01  9568   0.336E+02-0.641E+01
CGA:   8    -0.306670892028E+03   -0.90121E+00   -0.71886E+00  9568   0.121E+02 0.200E+01
CGA:   9    -0.307243102197E+03   -0.57221E+00   -0.61053E+00  9568   0.513E+02-0.252E+01
CGA:  10    -0.307844411417E+03   -0.60131E+00   -0.47301E+00  9568   0.556E+02 0.757E+01
CGA:  11    -0.308311096989E+03   -0.46669E+00   -0.82621E+00  9568   0.662E+02-0.205E+02
CGA:  12    -0.308843260760E+03   -0.53216E+00   -0.67118E+00  9568   0.465E+02-0.369E+01
CGA:  13    -0.309351429977E+03   -0.50817E+00   -0.44899E+00  9568   0.199E+02 0.424E+01
CGA:  14    -0.309582100562E+03   -0.23067E+00   -0.14247E+00  9568   0.143E+02 0.119E+02
CGA:  15    -0.309860435750E+03   -0.27834E+00   -0.24269E+00  9568   0.375E+01 0.913E+00
CGA:  16    -0.310038742790E+03   -0.17831E+00   -0.19534E+00  9568   0.420E+01-0.861E+00
CGA:  17    -0.310092488934E+03   -0.53746E-01   -0.55578E-01  9568   0.236E+01-0.447E-01
CGA:  18    -0.310185522900E+03   -0.93034E-01   -0.89303E-01  9568   0.205E+01 0.331E+00
CGA:  19    -0.310228986426E+03   -0.43464E-01   -0.41784E-01  9568   0.139E+01 0.318E-01
CGA:  20    -0.310263947536E+03   -0.34961E-01   -0.34913E-01  9568   0.796E+00-0.173E-02
CGA:  21    -0.310280406595E+03   -0.16459E-01   -0.16459E-01  9568   0.664E+00 0.472E-03
CGA:  22    -0.310293855384E+03   -0.13449E-01   -0.13025E-01  9568   0.545E+00 0.485E-03
CGA:  23    -0.310313619507E+03   -0.19764E-01   -0.19768E-01  9568   0.807E+00-0.327E-03
CGA:  24    -0.310325191241E+03   -0.11572E-01   -0.11148E-01  9568   0.356E+00 0.185E-01
CGA:  25    -0.310335566254E+03   -0.10375E-01   -0.10370E-01  9568   0.598E+00-0.122E-01
CGA:  26    -0.310344728042E+03   -0.91618E-02   -0.91374E-02  9568   0.464E+00 0.332E-03
CGA:  27    -0.310355342780E+03   -0.10615E-01   -0.10780E-01  9568   0.513E+00 0.102E-01
CGA:  28    -0.310361548312E+03   -0.62055E-02   -0.59817E-02  9568   0.147E+00 0.134E-01
CGA:  29    -0.310366017500E+03   -0.44692E-02   -0.44861E-02  9568   0.345E+00-0.365E-02
CGA:  30    -0.310372548715E+03   -0.65312E-02   -0.66521E-02  9568   0.299E+00 0.205E-02
CGA:  31    -0.310378056445E+03   -0.55077E-02   -0.55703E-02  9568   0.225E+00 0.601E-03
CGA:  32    -0.310380991041E+03   -0.29346E-02   -0.28506E-02  9568   0.110E+00 0.354E-02
CGA:  33    -0.310384175140E+03   -0.31841E-02   -0.31848E-02  9568   0.211E+00-0.159E-03
CGA:  34    -0.310387075800E+03   -0.29007E-02   -0.29818E-02  9568   0.704E-01-0.221E-02
CGA:  35    -0.310388833265E+03   -0.17575E-02   -0.17574E-02  9568   0.136E+00 0.109E-02
CGA:  36    -0.310391702181E+03   -0.28689E-02   -0.28618E-02  9568   0.476E-01-0.371E-03
CGA:  37    -0.310392555611E+03   -0.85343E-03   -0.85105E-03  9568   0.431E-01-0.210E-04
CGA:  38    -0.310393417666E+03   -0.86205E-03   -0.86228E-03  9568   0.368E-01 0.203E-04
CGA:  39    -0.310394564860E+03   -0.11472E-02   -0.11445E-02  9568   0.429E-01 0.301E-03
CGA:  40    -0.310395138753E+03   -0.57389E-03   -0.57440E-03  9568   0.186E-01 0.270E-04
CGA:  41    -0.310395698354E+03   -0.55960E-03   -0.55892E-03  9568   0.205E-01 0.841E-04
CGA:  42    -0.310396122586E+03   -0.42423E-03   -0.42487E-03  9568   0.267E-01 0.491E-04
CGA:  43    -0.310396951346E+03   -0.82876E-03   -0.83394E-03  9568   0.173E-01-0.539E-03
CGA:  44    -0.310397276331E+03   -0.32498E-03   -0.32409E-03  9568   0.217E-01-0.343E-04
SDA:  45    -0.310397849718E+03   -0.57339E-03   -0.57302E-03  9568   0.114E-01 0.892E-04
CGA:  46    -0.310398061128E+03   -0.21141E-03   -0.21153E-03  9568   0.763E-02-0.108E-05
CGA:  47    -0.310398280158E+03   -0.21903E-03   -0.21896E-03  9568   0.835E-02 0.641E-05
CGA:  48    -0.310398521229E+03   -0.24107E-03   -0.24173E-03  9568   0.549E-02-0.103E-03
CGA:  49    -0.310398911677E+03   -0.39045E-03   -0.39329E-03  9568   0.631E-02-0.669E-04
CGA:  50    -0.310399304393E+03   -0.39272E-03   -0.38657E-03  9568   0.108E-01 0.186E-03
CGA:  51    -0.310399525315E+03   -0.22092E-03   -0.21838E-03  9568   0.961E-02-0.176E-04
CGA:  52    -0.310399863486E+03   -0.33817E-03   -0.33775E-03  9568   0.415E-02 0.352E-04
CGA:  53    -0.310400336252E+03   -0.47277E-03   -0.46492E-03  9568   0.114E-01 0.108E-03
CGA:  54    -0.310400599620E+03   -0.26337E-03   -0.25925E-03  9568   0.925E-02-0.818E-05
CGA:  55    -0.310400820660E+03   -0.22104E-03   -0.22355E-03  9568   0.979E-02 0.364E-04
CGA:  56    -0.310401205838E+03   -0.38518E-03   -0.38932E-03  9568   0.632E-02-0.378E-03
CGA:  57    -0.310401807126E+03   -0.60129E-03   -0.65991E-03  9568   0.271E-01-0.102E-02
CGA:  58    -0.310402186351E+03   -0.37923E-03   -0.44261E-03  9568   0.942E-02-0.100E-02
CGA:  59    -0.310402569227E+03   -0.38288E-03   -0.38906E-03  9568   0.119E-01-0.555E-03
CGA:  60    -0.310402998952E+03   -0.42973E-03   -0.43285E-03  9568   0.141E-01-0.584E-03
CGA:  61    -0.310403282297E+03   -0.28335E-03   -0.30549E-03  9568   0.868E-02-0.481E-04
CGA:  62    -0.310403557404E+03   -0.27511E-03   -0.27351E-03  9568   0.951E-02-0.164E-03
CGA:  63    -0.310403915445E+03   -0.35804E-03   -0.35744E-03  9568   0.522E-02 0.103E-03
CGA:  64    -0.310404079096E+03   -0.16365E-03   -0.16374E-03  9568   0.655E-02 0.116E-04
CGA:  65    -0.310404365343E+03   -0.28625E-03   -0.29244E-03  9568   0.944E-02-0.468E-03
CGA:  66    -0.310404530369E+03   -0.16503E-03   -0.17466E-03  9568   0.455E-02-0.138E-03
CGA:  67    -0.310404713051E+03   -0.18268E-03   -0.18096E-03  9568   0.654E-02 0.191E-03
CGA:  68    -0.310404929556E+03   -0.21650E-03   -0.21499E-03  9568   0.941E-02-0.172E-03
CGA:  69    -0.310405120539E+03   -0.19098E-03   -0.19360E-03  9568   0.293E-02-0.768E-05
CGA:  70    -0.310405175970E+03   -0.55431E-04   -0.56032E-04  9568   0.329E-02-0.958E-05
CGA:  71    -0.310405301980E+03   -0.12601E-03   -0.12597E-03  9568   0.292E-02 0.912E-05
CGA:  72    -0.310405368580E+03   -0.66601E-04   -0.66764E-04  9568   0.408E-02 0.111E-04
CGA:  73    -0.310405551359E+03   -0.18278E-03   -0.18023E-03  9568   0.525E-02 0.174E-03
CGA:  74    -0.310405645543E+03   -0.94184E-04   -0.94455E-04  9568   0.182E-02 0.123E-04
CGA:  75    -0.310405689174E+03   -0.43631E-04   -0.43662E-04  9568   0.227E-02 0.787E-05
SDA:  76    -0.310405805703E+03   -0.11653E-03   -0.11552E-03  9568   0.258E-02 0.482E-04
CGA:  77    -0.310405851763E+03   -0.46059E-04   -0.45977E-04  9568   0.180E-02-0.553E-05
CGA:  78    -0.310405943044E+03   -0.91282E-04   -0.91759E-04  9568   0.154E-02-0.219E-04
CGA:  79    -0.310406038815E+03   -0.95771E-04   -0.95845E-04  9568   0.283E-02-0.275E-05
CGA:  80    -0.310406189015E+03   -0.15020E-03   -0.15009E-03  9568   0.309E-02 0.376E-05
CGA:  81    -0.310406295828E+03   -0.10681E-03   -0.10682E-03  9568   0.140E-02 0.284E-05
CGA:  82    -0.310406347290E+03   -0.51462E-04   -0.51460E-04  9568   0.208E-02-0.316E-06
CGA:  83    -0.310406402130E+03   -0.54840E-04   -0.54634E-04  9568   0.112E-02-0.513E-06
CGA:  84    -0.310406495077E+03   -0.92947E-04   -0.92650E-04  9568   0.527E-03 0.620E-05
CGA:  85    -0.310406531331E+03   -0.36254E-04   -0.36380E-04  9568   0.101E-02-0.419E-05
CGA:  86    -0.310406559564E+03   -0.28233E-04   -0.28231E-04  9568   0.206E-03-0.239E-05
CGA:  87    -0.310406577340E+03   -0.17777E-04   -0.18068E-04  9568   0.177E-03-0.620E-05
CGA:  88    -0.310406602005E+03   -0.24665E-04   -0.25316E-04  9568   0.163E-03-0.628E-05
CGA:  89    -0.310406606838E+03   -0.48328E-05   -0.48319E-05  9568   0.227E-03 0.721E-06
   4 F= -.31040661E+03 E0= -.31038471E+03  d E =-.186616E+01  mag=    25.8254
       N       E                     dE             d eps       ncg     rms          ort
SDA:   1    -0.282939565698E+03    0.27467E+02    0.00000E+00  9568   0.135E+04 0.000E+00
CGA:   2    -0.290093476149E+03   -0.71539E+01   -0.30757E+02  9568   0.287E+03-0.980E+02
CGA:   3    -0.294898183288E+03   -0.48047E+01   -0.68845E+01  9568   0.228E+03-0.168E+02
CGA:   4    -0.294889129799E+03    0.90535E-02   -0.35400E+01  9568   0.333E+03-0.144E+03
CGA:   5    -0.299360081530E+03   -0.44710E+01   -0.48487E+01  9568   0.264E+03-0.350E+03
CGA:   6    -0.300066150006E+03   -0.70607E+00   -0.41386E+01  9568   0.195E+03-0.157E+03
CGA:   7    -0.302283275717E+03   -0.22171E+01   -0.20720E+01  9568   0.595E+02-0.891E+02
CGA:   8    -0.304167825687E+03   -0.18845E+01   -0.40462E+01  9568   0.552E+03-0.393E+02
CGA:   9    -0.303835193226E+03    0.33263E+00   -0.10385E+02  9568   0.359E+03-0.141E+03
CGA:  10    -0.305915331012E+03   -0.20801E+01   -0.55475E+01  9568   0.169E+03-0.774E+02
CGA:  11    -0.307493787307E+03   -0.15785E+01   -0.23320E+01  9568   0.168E+03-0.273E+02
CGA:  12    -0.308160259605E+03   -0.66647E+00   -0.10982E+01  9568   0.514E+02-0.820E+02
CGA:  13    -0.309160973568E+03   -0.10007E+01   -0.56205E+00  9568   0.580E+01 0.993E+01
CGA:  14    -0.309309542539E+03   -0.14857E+00   -0.15452E+00  9568   0.133E+02-0.740E-01
CGA:  15    -0.309802515541E+03   -0.49297E+00   -0.48842E+00  9568   0.255E+02 0.175E+01
CGA:  16    -0.310504767498E+03   -0.70225E+00   -0.73968E+00  9568   0.257E+02 0.306E+00
CGA:  17    -0.310797645192E+03   -0.29288E+00   -0.23394E+00  9568   0.841E+01 0.533E+01
CGA:  18    -0.310909857407E+03   -0.11221E+00   -0.83931E-01  9568   0.288E+01 0.288E+01
CGA:  19    -0.310940883370E+03   -0.31026E-01   -0.29531E-01  9568   0.102E+01 0.154E+00
CGA:  20    -0.310960491992E+03   -0.19609E-01   -0.19710E-01  9568   0.169E+01-0.169E-02
CGA:  21    -0.310980227064E+03   -0.19735E-01   -0.20617E-01  9568   0.951E+00-0.452E-01
CGA:  22    -0.310990679007E+03   -0.10452E-01   -0.10203E-01  9568   0.978E+00 0.157E-01
CGA:  23    -0.311014110752E+03   -0.23432E-01   -0.23205E-01  9568   0.245E+01-0.106E-01
CGA:  24    -0.311045097550E+03   -0.30987E-01   -0.33542E-01  9568   0.184E+01-0.888E-01
CGA:  25    -0.311063544986E+03   -0.18447E-01   -0.18363E-01  9568   0.835E+00 0.631E-02
CGA:  26    -0.311071773081E+03   -0.82281E-02   -0.81715E-02  9568   0.494E+00 0.368E-02
CGA:  27    -0.311079861973E+03   -0.80889E-02   -0.80518E-02  9568   0.592E+00 0.362E-03
CGA:  28    -0.311086784299E+03   -0.69223E-02   -0.73046E-02  9568   0.342E+00-0.161E-01
CGA:  29    -0.311092011779E+03   -0.52275E-02   -0.52962E-02  9568   0.440E+00-0.405E-03
CGA:  30    -0.311100015693E+03   -0.80039E-02   -0.79586E-02  9568   0.342E+00-0.101E-02
CGA:  31    -0.311104625538E+03   -0.46098E-02   -0.45643E-02  9568   0.319E+00 0.130E-02
CGA:  32    -0.311109956744E+03   -0.53312E-02   -0.53693E-02  9568   0.218E+00 0.698E-03
CGA:  33    -0.311112043186E+03   -0.20864E-02   -0.21722E-02  9568   0.891E-01-0.518E-02
CGA:  34    -0.311114218569E+03   -0.21754E-02   -0.21706E-02  9568   0.154E+00 0.124E-02
CGA:  35    -0.311116435072E+03   -0.22165E-02   -0.22010E-02  9568   0.681E-01 0.189E-03
CGA:  36    -0.311117769661E+03   -0.13346E-02   -0.13321E-02  9568   0.104E+00-0.327E-03
CGA:  37    -0.311120241716E+03   -0.24721E-02   -0.24717E-02  9568   0.131E+00 0.966E-04
CGA:  38    -0.311122183595E+03   -0.19419E-02   -0.19604E-02  9568   0.821E-01 0.692E-04
SDA:  39    -0.311123331268E+03   -0.11477E-02   -0.11486E-02  9568   0.480E-01 0.514E-05
CGA:  40    -0.311124479564E+03   -0.11483E-02   -0.11520E-02  9568   0.256E-01-0.906E-03
CGA:  41    -0.311125113017E+03   -0.63345E-03   -0.63237E-03  9568   0.152E-01 0.209E-03
CGA:  42    -0.311125529870E+03   -0.41685E-03   -0.41676E-03  9568   0.189E-01 0.122E-04
CGA:  43    -0.311126542636E+03   -0.10128E-02   -0.10061E-02  9568   0.915E-02 0.226E-03
CGA:  44    -0.311126998956E+03   -0.45632E-03   -0.45655E-03  9568   0.980E-02-0.114E-04
CGA:  45    -0.311127564345E+03   -0.56539E-03   -0.56152E-03  9568   0.849E-02 0.124E-03
CGA:  46    -0.311127807399E+03   -0.24305E-03   -0.24314E-03  9568   0.687E-02-0.306E-04
CGA:  47    -0.311128082272E+03   -0.27487E-03   -0.27421E-03  9568   0.800E-02 0.426E-04
CGA:  48    -0.311128251373E+03   -0.16910E-03   -0.16914E-03  9568   0.524E-02-0.118E-05
CGA:  49    -0.311128635798E+03   -0.38442E-03   -0.38133E-03  9568   0.164E-02 0.726E-04
CGA:  50    -0.311128744801E+03   -0.10900E-03   -0.10890E-03  9568   0.382E-02 0.271E-05
CGA:  51    -0.311128865265E+03   -0.12046E-03   -0.12046E-03  9568   0.241E-02 0.165E-04
CGA:  52    -0.311128931872E+03   -0.66607E-04   -0.66618E-04  9568   0.262E-02 0.163E-05
CGA:  53    -0.311129022792E+03   -0.90920E-04   -0.90886E-04  9568   0.186E-02 0.667E-05
CGA:  54    -0.311129093200E+03   -0.70408E-04   -0.70397E-04  9568   0.106E-02 0.879E-06
CGA:  55    -0.311129187307E+03   -0.94107E-04   -0.94202E-04  9568   0.116E-02-0.234E-05
CGA:  56    -0.311129217250E+03   -0.29943E-04   -0.29909E-04  9568   0.796E-03-0.299E-05
CGA:  57    -0.311129247584E+03   -0.30334E-04   -0.30324E-04  9568   0.583E-03 0.179E-05
CGA:  58    -0.311129258069E+03   -0.10485E-04   -0.10485E-04  9568   0.314E-03-0.105E-05
CGA:  59    -0.311129278523E+03   -0.20454E-04   -0.20391E-04  9568   0.192E-03 0.150E-05
CGA:  60    -0.311129288135E+03   -0.96123E-05   -0.96195E-05  9568   0.257E-03-0.813E-06
   5 F= -.31112929E+03 E0= -.31110695E+03  d E =-.722681E+00  mag=    25.8300
       N       E                     dE             d eps       ncg     rms          ort
SDA:   1    -0.249070105047E+03    0.62059E+02    0.00000E+00  9568   0.427E+03 0.000E+00
CGA:   2    -0.142727269446E+03    0.10634E+03   -0.44722E+02  9568   0.183E+04-0.540E+03
CGA:   3     0.215886974520E+04    0.23016E+04   -0.47879E+03  9568   0.322E+05-0.407E+04
CGA:   4     0.682821452920E+03   -0.14760E+04   -0.14101E+04  9568   0.204E+05 0.980E+04
CGA:   5     0.811123856243E+02   -0.60171E+03   -0.89632E+03  9568   0.258E+05 0.462E+04
CGA:   6    -0.105949293807E+02   -0.91707E+02   -0.90880E+03  9568   0.534E+04-0.252E+04
CGA:   7    -0.165635215248E+03   -0.15504E+03   -0.12112E+03  9568   0.165E+04-0.155E+04
CGA:   8    -0.220763385465E+03   -0.55128E+02   -0.58027E+02  9568   0.834E+03-0.257E+03
CGA:   9    -0.247034469729E+03   -0.26271E+02   -0.29766E+02  9568   0.410E+03 0.189E+02
CGA:  10    -0.261815276727E+03   -0.14781E+02   -0.15034E+02  9568   0.401E+03 0.439E+02
CGA:  11    -0.269582267054E+03   -0.77670E+01   -0.38823E+01  9568   0.707E+03 0.667E+03
CGA:  12    -0.273861010470E+03   -0.42787E+01   -0.95173E+01  9568   0.120E+04-0.101E+04
CGA:  13    -0.270674814855E+03    0.31862E+01   -0.24448E+02  9568   0.556E+03-0.332E+03
CGA:  14    -0.280584020410E+03   -0.99092E+01   -0.31528E+01  9568   0.752E+03 0.833E+03
CGA:  15    -0.278099698197E+03    0.24843E+01   -0.12001E+02  9568   0.817E+03-0.545E+03
CGA:  16    -0.278228231601E+03   -0.12853E+00   -0.14309E+02  9568   0.903E+03-0.721E+03
CGA:  17    -0.284757946215E+03   -0.65297E+01   -0.13717E+02  9568   0.919E+03-0.108E+04
CGA:  18    -0.283103791590E+03    0.16542E+01   -0.17768E+02  9568   0.810E+03-0.579E+03
CGA:  19    -0.287808380273E+03   -0.47046E+01   -0.13652E+02  9568   0.983E+03-0.108E+04
CGA:  20    -0.289526683612E+03   -0.17183E+01   -0.18114E+02  9568   0.537E+03-0.472E+03
CGA:  21    -0.295938666685E+03   -0.64120E+01   -0.39320E+01  9568   0.143E+03 0.199E+03
CGA:  22    -0.296958806188E+03   -0.10201E+01   -0.17290E+01  9568   0.136E+03-0.180E+03
CGA:  23    -0.297480697163E+03   -0.52189E+00   -0.21187E+01  9568   0.105E+03-0.468E+02
CGA:  24    -0.301007042052E+03   -0.35263E+01   -0.34472E+01  9568   0.888E+02 0.244E+01
CGA:  25    -0.303422545220E+03   -0.24155E+01   -0.26465E+01  9568   0.215E+02 0.129E+02
CGA:  26    -0.304878679240E+03   -0.14561E+01   -0.15739E+01  9568   0.644E+02-0.568E+01
CGA:  27    -0.307705993736E+03   -0.28273E+01   -0.29098E+01  9568   0.275E+02-0.581E+01
CGA:  28    -0.308131015680E+03   -0.42502E+00   -0.52870E+00  9568   0.942E+01-0.172E+01
CGA:  29    -0.308582000934E+03   -0.45099E+00   -0.44163E+00  9568   0.119E+02 0.675E+00
CGA:  30    -0.309238861082E+03   -0.65686E+00   -0.64472E+00  9568   0.764E+01 0.792E+00
CGA:  31    -0.309545727630E+03   -0.30687E+00   -0.24938E+00  9568   0.113E+02-0.558E+00
CGA:  32    -0.309637655143E+03   -0.91928E-01   -0.68426E-01  9568   0.121E+02 0.296E+01
CGA:  33    -0.309781443333E+03   -0.14379E+00   -0.18735E+00  9568   0.192E+02-0.280E+01
CGA:  34    -0.309888389830E+03   -0.10695E+00   -0.14792E+00  9568   0.219E+02-0.328E+01
CGA:  35    -0.310012995758E+03   -0.12461E+00   -0.23978E+00  9568   0.230E+02-0.581E+01
CGA:  36    -0.310157294879E+03   -0.14430E+00   -0.11645E+00  9568   0.110E+02 0.146E+01
CGA:  37    -0.310220899966E+03   -0.63605E-01   -0.69994E-01  9568   0.739E+01-0.163E+01
CGA:  38    -0.310263434747E+03   -0.42535E-01   -0.58671E-01  9568   0.119E+02-0.135E+01
CGA:  39    -0.310340319839E+03   -0.76885E-01   -0.64197E-01  9568   0.105E+02 0.192E+01
CGA:  40    -0.310416994953E+03   -0.76675E-01   -0.81478E-01  9568   0.506E+01-0.440E+00
CGA:  41    -0.310456609888E+03   -0.39615E-01   -0.49268E-01  9568   0.457E+01-0.554E+00
CGA:  42    -0.310525504312E+03   -0.68894E-01   -0.68321E-01  9568   0.637E+01 0.442E-01
CGA:  43    -0.310612813822E+03   -0.87310E-01   -0.82929E-01  9568   0.595E+01 0.117E+00
CGA:  44    -0.310675547130E+03   -0.62733E-01   -0.64498E-01  9568   0.463E+01-0.104E+00
CGA:  45    -0.310724634988E+03   -0.49088E-01   -0.50076E-01  9568   0.376E+01 0.518E-01
CGA:  46    -0.310770723496E+03   -0.46089E-01   -0.46522E-01  9568   0.304E+01-0.100E-01
CGA:  47    -0.310814263345E+03   -0.43540E-01   -0.46263E-01  9568   0.288E+01-0.391E-01
CGA:  48    -0.310862232363E+03   -0.47969E-01   -0.43884E-01  9568   0.217E+01 0.564E-01
CGA:  49    -0.310884904870E+03   -0.22673E-01   -0.20098E-01  9568   0.175E+01 0.186E+00
CGA:  50    -0.310907309205E+03   -0.22404E-01   -0.21885E-01  9568   0.201E+01 0.155E-01
CGA:  51    -0.310925555868E+03   -0.18247E-01   -0.16197E-01  9568   0.176E+01 0.179E+00
CGA:  52    -0.310939482478E+03   -0.13927E-01   -0.14075E-01  9568   0.147E+01-0.217E-01
SDA:  53    -0.310951564161E+03   -0.12082E-01   -0.13788E-01  9568   0.170E+01-0.104E+00
CGA:  54    -0.311002739520E+03   -0.51175E-01   -0.50226E-01  9568   0.349E+00 0.832E-01
CGA:  55    -0.311025471773E+03   -0.22732E-01   -0.25835E-01  9568   0.884E+00-0.769E-01
CGA:  56    -0.311048537542E+03   -0.23066E-01   -0.22579E-01  9568   0.660E+00 0.389E-01
CGA:  57    -0.311072115464E+03   -0.23578E-01   -0.22980E-01  9568   0.940E+00 0.481E-01
CGA:  58    -0.311106213557E+03   -0.34098E-01   -0.40932E-01  9568   0.649E+00-0.391E+00
CGA:  59    -0.311112454019E+03   -0.62405E-02   -0.63685E-02  9568   0.373E+00-0.777E-04
CGA:  60    -0.311119677031E+03   -0.72230E-02   -0.73399E-02  9568   0.299E+00 0.600E-02
CGA:  61    -0.311138375291E+03   -0.18698E-01   -0.17040E-01  9568   0.400E+00 0.514E-01
CGA:  62    -0.311147008800E+03   -0.86335E-02   -0.82574E-02  9568   0.150E+00-0.132E-02
CGA:  63    -0.311160313597E+03   -0.13305E-01   -0.14231E-01  9568   0.520E+00-0.169E-01
CGA:  64    -0.311168249124E+03   -0.79355E-02   -0.82191E-02  9568   0.147E+00-0.291E-02
CGA:  65    -0.311170815008E+03   -0.25659E-02   -0.26343E-02  9568   0.891E-01-0.545E-03
CGA:  66    -0.311174940027E+03   -0.41250E-02   -0.40666E-02  9568   0.161E+00 0.281E-02
CGA:  67    -0.311179642988E+03   -0.47030E-02   -0.47007E-02  9568   0.931E-01-0.239E-02
CGA:  68    -0.311183080968E+03   -0.34380E-02   -0.34315E-02  9568   0.150E+00 0.511E-03
CGA:  69    -0.311190140811E+03   -0.70598E-02   -0.69522E-02  9568   0.166E+00 0.542E-02
CGA:  70    -0.311195527883E+03   -0.53871E-02   -0.53850E-02  9568   0.111E+00 0.919E-03
CGA:  71    -0.311198347563E+03   -0.28197E-02   -0.28141E-02  9568   0.690E-01-0.389E-03
CGA:  72    -0.311202937277E+03   -0.45897E-02   -0.47064E-02  9568   0.175E+00-0.317E-02
CGA:  73    -0.311207254048E+03   -0.43168E-02   -0.43068E-02  9568   0.959E-01-0.384E-03
CGA:  74    -0.311211222609E+03   -0.39686E-02   -0.39672E-02  9568   0.190E+00 0.208E-04
CGA:  75    -0.311218220520E+03   -0.69979E-02   -0.69743E-02  9568   0.130E+00 0.303E-02
CGA:  76    -0.311221101989E+03   -0.28815E-02   -0.29021E-02  9568   0.802E-01-0.233E-05
CGA:  77    -0.311225751792E+03   -0.46498E-02   -0.47921E-02  9568   0.151E+00-0.495E-02
CGA:  78    -0.311229181928E+03   -0.34301E-02   -0.33919E-02  9568   0.102E+00-0.394E-03
CGA:  79    -0.311232060783E+03   -0.28789E-02   -0.28823E-02  9568   0.105E+00 0.261E-03
CGA:  80    -0.311235247022E+03   -0.31862E-02   -0.31946E-02  9568   0.832E-01 0.169E-02
CGA:  81    -0.311237456313E+03   -0.22093E-02   -0.21800E-02  9568   0.767E-01-0.110E-02
CGA:  82    -0.311240283769E+03   -0.28275E-02   -0.28514E-02  9568   0.114E+00-0.275E-02
CGA:  83    -0.311242687867E+03   -0.24041E-02   -0.24021E-02  9568   0.900E-01 0.767E-04
SDA:  84    -0.311245083358E+03   -0.23955E-02   -0.24188E-02  9568   0.106E+00 0.154E-02
CGA:  85    -0.311248052151E+03   -0.29688E-02   -0.29630E-02  9568   0.453E-01-0.615E-03
CGA:  86    -0.311250829403E+03   -0.27773E-02   -0.27849E-02  9568   0.469E-01-0.251E-03
CGA:  87    -0.311256918059E+03   -0.60887E-02   -0.62334E-02  9568   0.107E+00-0.194E-02
CGA:  88    -0.311261159458E+03   -0.42414E-02   -0.42411E-02  9568   0.876E-01 0.429E-04
CGA:  89    -0.311266074809E+03   -0.49154E-02   -0.48956E-02  9568   0.484E-01 0.823E-03
CGA:  90    -0.311271089773E+03   -0.50150E-02   -0.52268E-02  9568   0.118E+00-0.464E-02
CGA:  91    -0.311274599829E+03   -0.35101E-02   -0.36032E-02  9568   0.430E-01 0.284E-02
CGA:  92    -0.311277143713E+03   -0.25439E-02   -0.25412E-02  9568   0.522E-01 0.550E-04
CGA:  93    -0.311278437515E+03   -0.12938E-02   -0.12497E-02  9568   0.206E-01 0.596E-03
CGA:  94    -0.311279750104E+03   -0.13126E-02   -0.13239E-02  9568   0.462E-01-0.467E-03
CGA:  95    -0.311281407043E+03   -0.16569E-02   -0.16897E-02  9568   0.260E-01 0.208E-02
CGA:  96    -0.311282685520E+03   -0.12785E-02   -0.12987E-02  9568   0.609E-01-0.249E-02
CGA:  97    -0.311283953998E+03   -0.12685E-02   -0.80386E-03  9568   0.819E-01 0.257E-01
CGA:  98    -0.311285314408E+03   -0.13604E-02   -0.92477E-03  9568   0.624E-01 0.499E-01
CGA:  99    -0.311286555364E+03   -0.12410E-02   -0.12366E-02  9568   0.239E-01 0.101E-03
CGA: 100    -0.311287408908E+03   -0.85354E-03   -0.85266E-03  9568   0.217E-01-0.113E-03
CGA: 101    -0.311289204883E+03   -0.17960E-02   -0.18075E-02  9568   0.177E-01-0.279E-03
CGA: 102    -0.311290794453E+03   -0.15896E-02   -0.16740E-02  9568   0.454E-01-0.183E-02
CGA: 103    -0.311292448842E+03   -0.16544E-02   -0.16608E-02  9568   0.332E-01 0.114E-02
CGA: 104    -0.311290938928E+03    0.15099E-02   -0.39345E-02  9568   0.302E+00-0.975E-01
CGA: 105    -0.311295565183E+03   -0.46263E-02   -0.48345E-02  9568   0.381E-01-0.974E-02
CGA: 106    -0.311296394153E+03   -0.82897E-03   -0.82937E-03  9568   0.316E-01-0.174E-04
CGA: 107    -0.311297484317E+03   -0.10902E-02   -0.10899E-02  9568   0.179E-01-0.926E-05
CGA: 108    -0.311298191036E+03   -0.70672E-03   -0.70765E-03  9568   0.177E-01 0.910E-04
CGA: 109    -0.311299234227E+03   -0.10432E-02   -0.10442E-02  9568   0.794E-02-0.555E-04
CGA: 110    -0.311299498980E+03   -0.26475E-03   -0.26491E-03  9568   0.107E-01 0.410E-05
CGA: 111    -0.311299769276E+03   -0.27030E-03   -0.27100E-03  9568   0.539E-02-0.177E-05
CGA: 112    -0.311300134640E+03   -0.36536E-03   -0.36418E-03  9568   0.996E-02 0.417E-04
CGA: 113    -0.311300752263E+03   -0.61762E-03   -0.62876E-03  9568   0.123E-01-0.588E-03
CGA: 114    -0.311301233316E+03   -0.48105E-03   -0.46751E-03  9568   0.261E-01-0.108E-02
CGA: 115    -0.311301688957E+03   -0.45564E-03   -0.48052E-03  9568   0.199E-01-0.168E-02
CGA: 116    -0.311301928390E+03   -0.23943E-03   -0.24723E-03  9568   0.932E-02-0.265E-03
CGA: 117    -0.311302062792E+03   -0.13440E-03   -0.13516E-03  9568   0.576E-02-0.244E-04
CGA: 118    -0.311302242406E+03   -0.17961E-03   -0.18068E-03  9568   0.138E-01 0.217E-04
CGA: 119    -0.311302581655E+03   -0.33925E-03   -0.34959E-03  9568   0.682E-02-0.448E-04
CGA: 120    -0.311302725716E+03   -0.14406E-03   -0.14213E-03  9568   0.995E-02 0.401E-04
CGA: 121    -0.311303107991E+03   -0.38227E-03   -0.38216E-03  9568   0.126E-01-0.130E-03
CGA: 122    -0.311303292600E+03   -0.18461E-03   -0.19236E-03  9568   0.945E-02-0.316E-03
CGA: 123    -0.311303723925E+03   -0.43133E-03   -0.42255E-03  9568   0.180E-01 0.707E-03
CGA: 124    -0.311304115286E+03   -0.39136E-03   -0.36305E-03  9568   0.140E-01 0.876E-03
CGA: 125    -0.311304580536E+03   -0.46525E-03   -0.45635E-03  9568   0.265E-01-0.459E-03
CGA: 126    -0.311305315333E+03   -0.73480E-03   -0.70891E-03  9568   0.535E-01-0.257E-04
CGA: 127    -0.311305907010E+03   -0.59168E-03   -0.39596E-03  9568   0.480E-01 0.252E-01
CGA: 128    -0.311306773307E+03   -0.86630E-03   -0.72201E-03  9568   0.377E-01 0.138E-01
CGA: 129    -0.311307554046E+03   -0.78074E-03   -0.82068E-03  9568   0.521E-01 0.911E-03
CGA: 130    -0.311308450131E+03   -0.89608E-03   -0.69718E-03  9568   0.492E-01 0.156E-01
CGA: 131    -0.311309271122E+03   -0.82099E-03   -0.61256E-03  9568   0.370E-01 0.198E-01
CGA: 132    -0.311310082844E+03   -0.81172E-03   -0.70694E-03  9568   0.587E-01 0.609E-02
CGA: 133    -0.311310675222E+03   -0.59238E-03   -0.39258E-03  9568   0.775E-01 0.329E-01
CGA: 134    -0.311312210743E+03   -0.15355E-02   -0.15522E-02  9568   0.224E-01 0.181E-03
CGA: 135    -0.311313831297E+03   -0.16206E-02   -0.16137E-02  9568   0.433E-01 0.173E-03
CGA: 136    -0.311314756546E+03   -0.92525E-03   -0.92226E-03  9568   0.220E-01-0.424E-04
CGA: 137    -0.311315959676E+03   -0.12031E-02   -0.12151E-02  9568   0.350E-01-0.459E-03
CGA: 138    -0.311317037751E+03   -0.10781E-02   -0.10780E-02  9568   0.992E-02 0.104E-03
CGA: 139    -0.311317837463E+03   -0.79971E-03   -0.80979E-03  9568   0.177E-01-0.231E-03
CGA: 140    -0.311318135408E+03   -0.29795E-03   -0.29620E-03  9568   0.849E-02 0.484E-04
CGA: 141    -0.311319213288E+03   -0.10779E-02   -0.10503E-02  9568   0.127E-01 0.348E-03
CGA: 142    -0.311319487571E+03   -0.27428E-03   -0.27284E-03  9568   0.732E-02 0.154E-04
CGA: 143    -0.311319789963E+03   -0.30239E-03   -0.30319E-03  9568   0.160E-01-0.107E-03
CGA: 144    -0.311321087064E+03   -0.12971E-02   -0.12389E-02  9568   0.163E-01 0.132E-02
CGA: 145    -0.311321780995E+03   -0.69393E-03   -0.69306E-03  9568   0.396E-01 0.122E-02
CGA: 146    -0.311320962213E+03    0.81878E-03   -0.38911E-02  9568   0.560E+00-0.112E+00
CGA: 147    -0.311327579819E+03   -0.66176E-02   -0.69636E-02  9568   0.786E-01-0.220E-01
CGA: 148    -0.311330002899E+03   -0.24231E-02   -0.24614E-02  9568   0.493E-01 0.145E-02
CGA: 149    -0.311332047808E+03   -0.20449E-02   -0.20474E-02  9568   0.439E-01-0.118E-02
CGA: 150    -0.311335779074E+03   -0.37313E-02   -0.39360E-02  9568   0.311E+00-0.481E-02
CGA: 151    -0.311346185191E+03   -0.10406E-01   -0.14282E-01  9568   0.252E+01-0.295E+00
CGA: 152    -0.311379017507E+03   -0.32832E-01   -0.41438E-01  9568   0.759E+00-0.348E+00
CGA: 153    -0.311407793704E+03   -0.28776E-01   -0.28701E-01  9568   0.862E+00 0.171E-01
CGA: 154    -0.311454080600E+03   -0.46287E-01   -0.49984E-01  9568   0.871E+00-0.195E+00
CGA: 155    -0.311468316850E+03   -0.14236E-01   -0.13161E-01  9568   0.582E+00 0.258E-01
CGA: 156    -0.311485599674E+03   -0.17283E-01   -0.18819E-01  9568   0.927E+00 0.449E-01
CGA: 157    -0.311523745752E+03   -0.38146E-01   -0.38170E-01  9568   0.333E+00 0.454E-02
CGA: 158    -0.311545706668E+03   -0.21961E-01   -0.21338E-01  9568   0.752E+00 0.226E-01
CGA: 159    -0.311576409536E+03   -0.30703E-01   -0.29024E-01  9568   0.529E+00-0.948E-01
CGA: 160    -0.311588904499E+03   -0.12495E-01   -0.12016E-01  9568   0.317E+00 0.200E-02
CGA: 161    -0.311610068977E+03   -0.21164E-01   -0.21123E-01  9568   0.857E+00 0.222E-02
CGA: 162    -0.311628095048E+03   -0.18026E-01   -0.15242E-01  9568   0.416E+00 0.114E+00
CGA: 163    -0.311639451356E+03   -0.11356E-01   -0.10842E-01  9568   0.382E+00 0.929E-02
CGA: 164    -0.311646029205E+03   -0.65778E-02   -0.67249E-02  9568   0.207E+00-0.542E-02
CGA: 165    -0.311649937839E+03   -0.39086E-02   -0.39438E-02  9568   0.144E+00-0.997E-03
CGA: 166    -0.311653228934E+03   -0.32911E-02   -0.32670E-02  9568   0.193E+00 0.166E-03
CGA: 167    -0.311658693080E+03   -0.54641E-02   -0.54766E-02  9568   0.171E+00 0.313E-03
CGA: 168    -0.311660953018E+03   -0.22599E-02   -0.23180E-02  9568   0.696E-01-0.315E-02
CGA: 169    -0.311663479237E+03   -0.25262E-02   -0.25251E-02  9568   0.118E+00 0.378E-03
CGA: 170    -0.311665486966E+03   -0.20077E-02   -0.19628E-02  9568   0.590E-01 0.156E-02
CGA: 171    -0.311667307945E+03   -0.18210E-02   -0.18185E-02  9568   0.837E-01-0.219E-03
CGA: 172    -0.311668910698E+03   -0.16028E-02   -0.16288E-02  9568   0.566E-01-0.397E-03
CGA: 173    -0.311670386881E+03   -0.14762E-02   -0.14743E-02  9568   0.552E-01-0.137E-03
CGA: 174    -0.311671465420E+03   -0.10785E-02   -0.10461E-02  9568   0.411E-01 0.501E-03
CGA: 175    -0.311672325535E+03   -0.86011E-03   -0.85159E-03  9568   0.317E-01 0.615E-04
CGA: 176    -0.311672973510E+03   -0.64798E-03   -0.65421E-03  9568   0.337E-01-0.166E-04
CGA: 177    -0.311673756864E+03   -0.78335E-03   -0.78043E-03  9568   0.207E-01-0.654E-04
CGA: 178    -0.311674107265E+03   -0.35040E-03   -0.34816E-03  9568   0.202E-01 0.317E-04
CGA: 179    -0.311674880875E+03   -0.77361E-03   -0.77849E-03  9568   0.304E-01-0.453E-03
CGA: 180    -0.311675248681E+03   -0.36781E-03   -0.37515E-03  9568   0.112E-01-0.381E-03
CGA: 181    -0.311675569588E+03   -0.32091E-03   -0.32094E-03  9568   0.209E-01 0.150E-04
SDA: 182    -0.311675999251E+03   -0.42966E-03   -0.42679E-03  9568   0.143E-01-0.371E-04
CGA: 183    -0.311676378588E+03   -0.37934E-03   -0.37928E-03  9568   0.559E-02-0.119E-04
CGA: 184    -0.311676593155E+03   -0.21457E-03   -0.21415E-03  9568   0.519E-02 0.344E-04
CGA: 185    -0.311676903822E+03   -0.31067E-03   -0.30957E-03  9568   0.148E-01 0.374E-04
CGA: 186    -0.311677315969E+03   -0.41215E-03   -0.41200E-03  9568   0.584E-02-0.602E-05
CGA: 187    -0.311677703421E+03   -0.38745E-03   -0.38529E-03  9568   0.579E-02 0.591E-04
CGA: 188    -0.311678201078E+03   -0.49766E-03   -0.50484E-03  9568   0.756E-02-0.163E-03
CGA: 189    -0.311678487309E+03   -0.28623E-03   -0.28536E-03  9568   0.120E-01 0.141E-03
CGA: 190    -0.311678841408E+03   -0.35410E-03   -0.34510E-03  9568   0.633E-02-0.300E-03
CGA: 191    -0.311679051654E+03   -0.21025E-03   -0.21008E-03  9568   0.681E-02-0.787E-04
CGA: 192    -0.311679455688E+03   -0.40403E-03   -0.40612E-03  9568   0.571E-02-0.146E-03
CGA: 193    -0.311679608024E+03   -0.15234E-03   -0.15495E-03  9568   0.698E-02 0.645E-04
CGA: 194    -0.311679913090E+03   -0.30507E-03   -0.34696E-03  9568   0.792E-02-0.258E-02
CGA: 195    -0.311679974678E+03   -0.61588E-04   -0.52100E-04  9568   0.437E-02 0.803E-03
CGA: 196    -0.311680040605E+03   -0.65927E-04   -0.65503E-04  9568   0.475E-02 0.436E-04
CGA: 197    -0.311680160000E+03   -0.11939E-03   -0.12053E-03  9568   0.633E-02 0.544E-04
CGA: 198    -0.311680226700E+03   -0.66700E-04   -0.59915E-04  9568   0.257E-02 0.637E-03
CGA: 199    -0.311680269161E+03   -0.42462E-04   -0.40577E-04  9568   0.334E-02 0.813E-04
CGA: 200    -0.311680327365E+03   -0.58203E-04   -0.53419E-04  9568   0.510E-02 0.170E-03
   6 F= -.31168033E+03 E0= -.31165749E+03  d E =-.551039E+00  mag=    21.9377
       N       E                     dE             d eps       ncg     rms          ort
SDA:   1    -0.704032165511E+01    0.30464E+03    0.00000E+00  9568   0.155E+04 0.000E+00
CGA:   2    -0.130441429377E+03   -0.12340E+03    0.68945E+02  9568   0.634E+03 0.742E+03
CGA:   3     0.806349386460E+01    0.13850E+03   -0.13025E+03  9568   0.731E+04-0.206E+04
CGA:   4    -0.222712586763E+03   -0.23078E+03   -0.23336E+03  9568   0.111E+04 0.914E+01
CGA:   5    -0.250400626440E+03   -0.27688E+02   -0.30860E+02  9568   0.304E+03 0.629E+02
CGA:   6     0.737576479083E+02    0.32416E+03   -0.51825E+02  9568   0.459E+05-0.698E+04
CGA:   7    -0.268057453890E+03   -0.34182E+03   -0.10202E+04  9568   0.463E+03 0.109E+03
CGA:   8    -0.292863327358E+03   -0.24806E+02   -0.13016E+02  9568   0.698E+02-0.229E+02
CGA:   9    -0.298817811205E+03   -0.59545E+01   -0.48514E+01  9568   0.812E+02 0.240E+02
CGA:  10    -0.299761299195E+03   -0.94349E+00   -0.17242E+01  9568   0.117E+03-0.465E+02
CGA:  11    -0.300858625009E+03   -0.10973E+01   -0.13669E+01  9568   0.442E+02-0.255E+02
CGA:  12    -0.302302822396E+03   -0.14442E+01   -0.23860E+01  9568   0.193E+03-0.275E+02
CGA:  13    -0.303928780813E+03   -0.16260E+01   -0.19391E+01  9568   0.347E+02-0.423E+02
CGA:  14    -0.304777834800E+03   -0.84905E+00   -0.66890E+00  9568   0.193E+02 0.212E+01
CGA:  15    -0.305798181552E+03   -0.10203E+01   -0.97703E+00  9568   0.384E+02 0.305E+01
CGA:  16    -0.307508939407E+03   -0.17108E+01   -0.17739E+01  9568   0.895E+02-0.214E+02
CGA:  17    -0.308422736682E+03   -0.91380E+00   -0.10285E+01  9568   0.219E+02-0.169E+02
CGA:  18    -0.308817015076E+03   -0.39428E+00   -0.34459E+00  9568   0.720E+01 0.132E+01
CGA:  19    -0.309135874953E+03   -0.31886E+00   -0.31787E+00  9568   0.963E+01 0.810E-01
CGA:  20    -0.309417296911E+03   -0.28142E+00   -0.26169E+00  9568   0.223E+02-0.200E+00
CGA:  21    -0.309642856128E+03   -0.22556E+00   -0.13711E+00  9568   0.237E+02 0.132E+02
CGA:  22    -0.309916768096E+03   -0.27391E+00   -0.34145E+00  9568   0.114E+02-0.320E+01
CGA:  23    -0.310079978465E+03   -0.16321E+00   -0.14708E+00  9568   0.268E+01 0.639E+00
CGA:  24    -0.310335878311E+03   -0.25590E+00   -0.34114E+00  9568   0.168E+02-0.187E+01
CGA:  25    -0.310620795161E+03   -0.28492E+00   -0.27194E+00  9568   0.172E+01 0.431E+00
CGA:  26    -0.310755073018E+03   -0.13428E+00   -0.14304E+00  9568   0.285E+01-0.218E+00
CGA:  27    -0.310904728941E+03   -0.14966E+00   -0.15199E+00  9568   0.998E+01-0.885E-01
CGA:  28    -0.311151174563E+03   -0.24645E+00   -0.22323E+00  9568   0.766E+01 0.782E+00
CGA:  29    -0.311318222694E+03   -0.16705E+00   -0.14385E+00  9568   0.147E+01 0.664E+00
CGA:  30    -0.311350881335E+03   -0.32659E-01   -0.33146E-01  9568   0.885E+00-0.791E-02
CGA:  31    -0.311369497595E+03   -0.18616E-01   -0.18459E-01  9568   0.103E+01 0.386E-02
CGA:  32    -0.311387782868E+03   -0.18285E-01   -0.18190E-01  9568   0.483E+00 0.218E-02
CGA:  33    -0.311400272632E+03   -0.12490E-01   -0.12710E-01  9568   0.380E+00 0.452E-02
CGA:  34    -0.311408524427E+03   -0.82518E-02   -0.82445E-02  9568   0.500E+00 0.683E-03
CGA:  35    -0.311420180352E+03   -0.11656E-01   -0.11564E-01  9568   0.533E+00-0.211E-03
CGA:  36    -0.311442041826E+03   -0.21861E-01   -0.21865E-01  9568   0.639E+00-0.149E-02
CGA:  37    -0.311451464816E+03   -0.94230E-02   -0.95306E-02  9568   0.426E+00-0.327E-02
CGA:  38    -0.311459230547E+03   -0.77657E-02   -0.81355E-02  9568   0.113E+00-0.344E-02
CGA:  39    -0.311462452900E+03   -0.32224E-02   -0.32178E-02  9568   0.123E+00-0.660E-03
CGA:  40    -0.311464641527E+03   -0.21886E-02   -0.21775E-02  9568   0.105E+00 0.651E-04
CGA:  41    -0.311467472854E+03   -0.28313E-02   -0.28427E-02  9568   0.778E-01 0.936E-03
CGA:  42    -0.311470193363E+03   -0.27205E-02   -0.27178E-02  9568   0.695E-01 0.273E-03
CGA:  43    -0.311471192384E+03   -0.99902E-03   -0.99709E-03  9568   0.457E-01-0.565E-04
CGA:  44    -0.311472913356E+03   -0.17210E-02   -0.17066E-02  9568   0.457E-01 0.133E-02
CGA:  45    -0.311474862004E+03   -0.19486E-02   -0.19418E-02  9568   0.649E-01 0.427E-03
CGA:  46    -0.311475693476E+03   -0.83147E-03   -0.82857E-03  9568   0.248E-01 0.127E-03
CGA:  47    -0.311476626572E+03   -0.93310E-03   -0.93209E-03  9568   0.168E-01 0.577E-04
CGA:  48    -0.311477142204E+03   -0.51563E-03   -0.51564E-03  9568   0.362E-01 0.575E-04
CGA:  49    -0.311477992563E+03   -0.85036E-03   -0.85327E-03  9568   0.168E-01 0.838E-04
CGA:  50    -0.311478601159E+03   -0.60860E-03   -0.60601E-03  9568   0.114E-01 0.291E-03
CGA:  51    -0.311478861544E+03   -0.26039E-03   -0.26069E-03  9568   0.129E-01 0.882E-06
CGA:  52    -0.311479134560E+03   -0.27302E-03   -0.27308E-03  9568   0.759E-02-0.121E-04
CGA:  53    -0.311479402204E+03   -0.26764E-03   -0.26673E-03  9568   0.673E-02 0.108E-03
CGA:  54    -0.311479617367E+03   -0.21516E-03   -0.21509E-03  9568   0.786E-02 0.248E-04
SDA:  55    -0.311479732576E+03   -0.11521E-03   -0.11559E-03  9568   0.346E-02-0.162E-04
CGA:  56    -0.311479803301E+03   -0.70726E-04   -0.70881E-04  9568   0.277E-02 0.679E-06
CGA:  57    -0.311479860336E+03   -0.57035E-04   -0.57035E-04  9568   0.197E-02-0.541E-05
CGA:  58    -0.311479926357E+03   -0.66021E-04   -0.66092E-04  9568   0.189E-02-0.131E-04
CGA:  59    -0.311480017711E+03   -0.91354E-04   -0.91024E-04  9568   0.200E-02 0.131E-04
CGA:  60    -0.311480151749E+03   -0.13404E-03   -0.13320E-03  9568   0.211E-02 0.234E-04
CGA:  61    -0.311480242743E+03   -0.90993E-04   -0.91045E-04  9568   0.539E-02-0.643E-05
CGA:  62    -0.311480336391E+03   -0.93649E-04   -0.93780E-04  9568   0.674E-03-0.111E-04
CGA:  63    -0.311480404303E+03   -0.67911E-04   -0.67420E-04  9568   0.157E-02 0.920E-05
CGA:  64    -0.311480504983E+03   -0.10068E-03   -0.10080E-03  9568   0.150E-02-0.533E-05
CGA:  65    -0.311480539485E+03   -0.34502E-04   -0.34573E-04  9568   0.497E-03 0.792E-06
CGA:  66    -0.311480565472E+03   -0.25987E-04   -0.25987E-04  9568   0.616E-03-0.549E-06
CGA:  67    -0.311480596652E+03   -0.31180E-04   -0.31033E-04  9568   0.220E-02 0.840E-05
CGA:  68    -0.311480647327E+03   -0.50675E-04   -0.50132E-04  9568   0.407E-03 0.119E-04
CGA:  69    -0.311480674292E+03   -0.26964E-04   -0.26694E-04  9568   0.705E-03 0.854E-05
CGA:  70    -0.311480703450E+03   -0.29159E-04   -0.29255E-04  9568   0.187E-02-0.189E-04
CGA:  71    -0.311480743439E+03   -0.39989E-04   -0.39706E-04  9568   0.633E-03 0.151E-04
CGA:  72    -0.311480757410E+03   -0.13971E-04   -0.14249E-04  9568   0.655E-03-0.190E-06
CGA:  73    -0.311480770600E+03   -0.13190E-04   -0.12980E-04  9568   0.563E-03 0.523E-05
CGA:  74    -0.311480785205E+03   -0.14604E-04   -0.14525E-04  9568   0.439E-03-0.246E-06
CGA:  75    -0.311480798729E+03   -0.13525E-04   -0.13591E-04  9568   0.891E-03 0.788E-05
CGA:  76    -0.311480814028E+03   -0.15299E-04   -0.14313E-04  9568   0.177E-03 0.452E-04
CGA:  77    -0.311480820442E+03   -0.64144E-05   -0.64163E-05  9568   0.616E-03-0.145E-05
CGA:  78    -0.311480836299E+03   -0.15856E-04   -0.15675E-04  9568   0.619E-03 0.208E-05
CGA:  79    -0.311480843270E+03   -0.69716E-05   -0.72986E-05  9568   0.417E-03-0.129E-04
   7 F= -.31148084E+03 E0= -.31145827E+03  d E =0.199484E+00  mag=    21.5214
       N       E                     dE             d eps       ncg     rms          ort
SDA:   1    -0.286748628146E+03    0.24732E+02    0.00000E+00  9568   0.399E+03 0.000E+00
CGA:   2    -0.295078631874E+03   -0.83300E+01   -0.86831E+01  9568   0.899E+02-0.276E+02
CGA:   3    -0.297808093381E+03   -0.27295E+01   -0.27295E+01  9568   0.189E+03 0.615E-01
CGA:   4    -0.302400317962E+03   -0.45922E+01   -0.42778E+01  9568   0.968E+02-0.133E+02
CGA:   5    -0.305938214441E+03   -0.35379E+01   -0.37800E+01  9568   0.713E+02-0.260E+02
CGA:   6    -0.306908518527E+03   -0.97030E+00   -0.11240E+01  9568   0.786E+02-0.483E+00
CGA:   7    -0.307698311927E+03   -0.78979E+00   -0.44430E+00  9568   0.425E+02 0.534E+02
CGA:   8    -0.308214903461E+03   -0.51659E+00   -0.37555E+00  9568   0.130E+02 0.120E+02
CGA:   9    -0.308634540095E+03   -0.41964E+00   -0.41664E+00  9568   0.413E+02-0.283E+00
CGA:  10    -0.309314224524E+03   -0.67968E+00   -0.70147E+00  9568   0.625E+02-0.392E+00
CGA:  11    -0.310070473199E+03   -0.75625E+00   -0.82549E+00  9568   0.495E+02-0.294E+01
CGA:  12    -0.310375731370E+03   -0.30526E+00   -0.29783E+00  9568   0.107E+02 0.904E+00
CGA:  13    -0.310468769608E+03   -0.93038E-01   -0.93334E-01  9568   0.847E+01-0.408E-01
CGA:  14    -0.310591578014E+03   -0.12281E+00   -0.12018E+00  9568   0.109E+02 0.772E-01
CGA:  15    -0.310738396266E+03   -0.14682E+00   -0.15525E+00  9568   0.154E+02-0.231E+00
CGA:  16    -0.310974908527E+03   -0.23651E+00   -0.23594E+00  9568   0.162E+02 0.913E-01
CGA:  17    -0.311145086494E+03   -0.17018E+00   -0.16152E+00  9568   0.115E+02 0.520E+00
CGA:  18    -0.311316851043E+03   -0.17176E+00   -0.17497E+00  9568   0.147E+02-0.251E-01
CGA:  19    -0.311445439734E+03   -0.12859E+00   -0.12285E+00  9568   0.408E+01 0.644E+00
CGA:  20    -0.311483706922E+03   -0.38267E-01   -0.38496E-01  9568   0.268E+01-0.197E-01
CGA:  21    -0.311520052850E+03   -0.36346E-01   -0.37017E-01  9568   0.255E+01-0.316E-02
CGA:  22    -0.311555624173E+03   -0.35571E-01   -0.35033E-01  9568   0.322E+01 0.124E-02
CGA:  23    -0.311616428839E+03   -0.60805E-01   -0.60789E-01  9568   0.437E+01-0.381E-02
CGA:  24    -0.311654287961E+03   -0.37859E-01   -0.36489E-01  9568   0.200E+01 0.996E-01
CGA:  25    -0.311679293456E+03   -0.25005E-01   -0.25544E-01  9568   0.184E+01-0.568E-02
CGA:  26    -0.311696445926E+03   -0.17152E-01   -0.17136E-01  9568   0.894E+00 0.239E-02
CGA:  27    -0.311709221926E+03   -0.12776E-01   -0.12800E-01  9568   0.133E+01 0.650E-03
CGA:  28    -0.311731357874E+03   -0.22136E-01   -0.22366E-01  9568   0.118E+01 0.453E-01
CGA:  29    -0.311749115206E+03   -0.17757E-01   -0.17869E-01  9568   0.147E+01 0.580E-02
CGA:  30    -0.311774796493E+03   -0.25681E-01   -0.25557E-01  9568   0.859E+00-0.441E-01
CGA:  31    -0.311782118984E+03   -0.73225E-02   -0.70904E-02  9568   0.432E+00 0.159E-01
CGA:  32    -0.311788765146E+03   -0.66462E-02   -0.66897E-02  9568   0.500E+00 0.518E-02
CGA:  33    -0.311795613231E+03   -0.68481E-02   -0.68780E-02  9568   0.513E+00 0.127E-02
CGA:  34    -0.311804539659E+03   -0.89264E-02   -0.89168E-02  9568   0.475E+00-0.179E-01
CGA:  35    -0.311808751664E+03   -0.42120E-02   -0.41890E-02  9568   0.311E+00 0.106E-02
CGA:  36    -0.311814049860E+03   -0.52982E-02   -0.52982E-02  9568   0.527E+00-0.504E-04
CGA:  37    -0.311820079985E+03   -0.60301E-02   -0.61316E-02  9568   0.248E+00 0.733E-03
SDA:  38    -0.311822752270E+03   -0.26723E-02   -0.26871E-02  9568   0.239E+00-0.198E-03
CGA:  39    -0.311826200117E+03   -0.34478E-02   -0.34433E-02  9568   0.175E+00-0.789E-03
CGA:  40    -0.311830541429E+03   -0.43413E-02   -0.43523E-02  9568   0.976E-01-0.111E-02
CGA:  41    -0.311834009433E+03   -0.34680E-02   -0.34223E-02  9568   0.725E-01 0.253E-02
CGA:  42    -0.311835871253E+03   -0.18618E-02   -0.18656E-02  9568   0.605E-01-0.427E-03
CGA:  43    -0.311837112288E+03   -0.12410E-02   -0.12400E-02  9568   0.663E-01 0.243E-03
CGA:  44    -0.311838933138E+03   -0.18208E-02   -0.18113E-02  9568   0.418E-01 0.883E-03
CGA:  45    -0.311841413144E+03   -0.24800E-02   -0.24984E-02  9568   0.313E-01-0.542E-03
CGA:  46    -0.311841842908E+03   -0.42976E-03   -0.43058E-03  9568   0.184E-01 0.119E-04
CGA:  47    -0.311842317287E+03   -0.47438E-03   -0.47359E-03  9568   0.140E-01 0.110E-03
CGA:  48    -0.311842759845E+03   -0.44256E-03   -0.44354E-03  9568   0.127E-01-0.744E-04
CGA:  49    -0.311843511888E+03   -0.75204E-03   -0.74505E-03  9568   0.147E-01 0.202E-03
CGA:  50    -0.311843740897E+03   -0.22901E-03   -0.22910E-03  9568   0.117E-01 0.574E-05
CGA:  51    -0.311844197828E+03   -0.45693E-03   -0.45602E-03  9568   0.130E-01 0.534E-04
CGA:  52    -0.311844946762E+03   -0.74893E-03   -0.74357E-03  9568   0.154E-01 0.172E-03
CGA:  53    -0.311845295659E+03   -0.34890E-03   -0.34878E-03  9568   0.825E-02-0.232E-04
CGA:  54    -0.311845483196E+03   -0.18754E-03   -0.18755E-03  9568   0.100E-01 0.953E-07
CGA:  55    -0.311845710635E+03   -0.22744E-03   -0.22751E-03  9568   0.435E-02 0.102E-04
CGA:  56    -0.311846045875E+03   -0.33524E-03   -0.33648E-03  9568   0.481E-02-0.270E-04
CGA:  57    -0.311846148649E+03   -0.10277E-03   -0.10285E-03  9568   0.335E-02 0.724E-05
CGA:  58    -0.311846248556E+03   -0.99907E-04   -0.99923E-04  9568   0.612E-02-0.434E-05
CGA:  59    -0.311846402341E+03   -0.15378E-03   -0.15377E-03  9568   0.217E-02-0.136E-05
CGA:  60    -0.311846463072E+03   -0.60731E-04   -0.60722E-04  9568   0.487E-03 0.729E-05
CGA:  61    -0.311846479112E+03   -0.16041E-04   -0.16059E-04  9568   0.686E-03-0.324E-05
CGA:  62    -0.311846496865E+03   -0.17752E-04   -0.17753E-04  9568   0.976E-03 0.648E-08
CGA:  63    -0.311846529644E+03   -0.32779E-04   -0.32792E-04  9568   0.107E-02-0.194E-05
CGA:  64    -0.311846562076E+03   -0.32432E-04   -0.32434E-04  9568   0.186E-03-0.188E-05
CGA:  65    -0.311846572628E+03   -0.10552E-04   -0.10514E-04  9568   0.394E-03 0.112E-05
CGA:  66    -0.311846581188E+03   -0.85602E-05   -0.85485E-05  9568   0.353E-03-0.178E-05
   8 F= -.31184658E+03 E0= -.31182256E+03  d E =-.365738E+00  mag=    21.4807
       N       E                     dE             d eps       ncg     rms          ort
SDA:   1    -0.286055881753E+03    0.25791E+02    0.00000E+00  9568   0.780E+03 0.000E+00
CGA:   2    -0.292126329698E+03   -0.60704E+01   -0.11723E+02  9568   0.509E+03-0.298E+03
CGA:   3    -0.296504173285E+03   -0.43778E+01   -0.51754E+01  9568   0.250E+03-0.109E+03
CGA:   4    -0.300325905885E+03   -0.38217E+01   -0.27201E+01  9568   0.134E+03-0.862E+02
CGA:   5    -0.302476369119E+03   -0.21505E+01   -0.14922E+01  9568   0.651E+02-0.199E+01
CGA:   6    -0.304329246419E+03   -0.18529E+01   -0.23917E+01  9568   0.166E+03-0.359E+02
CGA:   7    -0.305974491396E+03   -0.16452E+01   -0.20822E+01  9568   0.262E+02-0.294E+02
CGA:   8    -0.306718055272E+03   -0.74356E+00   -0.76197E+00  9568   0.484E+02-0.125E+01
CGA:   9    -0.308092689810E+03   -0.13746E+01   -0.13463E+01  9568   0.620E+02 0.667E+01
CGA:  10    -0.309608594551E+03   -0.15159E+01   -0.15389E+01  9568   0.636E+02 0.140E+00
CGA:  11    -0.310303933115E+03   -0.69534E+00   -0.62912E+00  9568   0.272E+02 0.236E+01
CGA:  12    -0.310839510144E+03   -0.53558E+00   -0.47895E+00  9568   0.121E+02-0.281E+00
CGA:  13    -0.311017119609E+03   -0.17761E+00   -0.17802E+00  9568   0.115E+02-0.666E-01
CGA:  14    -0.311263727151E+03   -0.24661E+00   -0.24189E+00  9568   0.686E+01-0.463E+00
CGA:  15    -0.311515450275E+03   -0.25172E+00   -0.25825E+00  9568   0.707E+01-0.356E+00
CGA:  16    -0.311655708674E+03   -0.14026E+00   -0.14089E+00  9568   0.447E+01 0.383E-01
CGA:  17    -0.311706895025E+03   -0.51186E-01   -0.48316E-01  9568   0.151E+01 0.157E+00
CGA:  18    -0.311751472759E+03   -0.44578E-01   -0.44663E-01  9568   0.111E+01-0.125E-01
CGA:  19    -0.311800966379E+03   -0.49494E-01   -0.48871E-01  9568   0.159E+01 0.308E-01
CGA:  20    -0.311843364334E+03   -0.42398E-01   -0.42361E-01  9568   0.167E+01 0.434E-01
CGA:  21    -0.311863314175E+03   -0.19950E-01   -0.20302E-01  9568   0.696E+00-0.189E-01
CGA:  22    -0.311883825304E+03   -0.20511E-01   -0.20444E-01  9568   0.392E+00 0.936E-02
CGA:  23    -0.311895355870E+03   -0.11531E-01   -0.11541E-01  9568   0.256E+00-0.151E-02
CGA:  24    -0.311905819205E+03   -0.10463E-01   -0.10321E-01  9568   0.235E+00 0.834E-02
CGA:  25    -0.311914085251E+03   -0.82660E-02   -0.82844E-02  9568   0.371E+00-0.163E-02
CGA:  26    -0.311919508034E+03   -0.54228E-02   -0.53928E-02  9568   0.245E+00 0.806E-03
CGA:  27    -0.311924663405E+03   -0.51554E-02   -0.51627E-02  9568   0.101E+00 0.461E-03
CGA:  28    -0.311927755559E+03   -0.30922E-02   -0.30894E-02  9568   0.758E-01 0.377E-03
CGA:  29    -0.311929490963E+03   -0.17354E-02   -0.17339E-02  9568   0.113E+00-0.162E-03
CGA:  30    -0.311931467091E+03   -0.19761E-02   -0.19706E-02  9568   0.607E-01 0.159E-04
CGA:  31    -0.311933225921E+03   -0.17588E-02   -0.17592E-02  9568   0.375E-01-0.333E-04
CGA:  32    -0.311934358435E+03   -0.11325E-02   -0.11308E-02  9568   0.355E-01 0.251E-03
CGA:  33    -0.311934929463E+03   -0.57103E-03   -0.57469E-03  9568   0.343E-01-0.351E-04
CGA:  34    -0.311935770022E+03   -0.84056E-03   -0.84037E-03  9568   0.185E-01-0.108E-03
CGA:  35    -0.311936326090E+03   -0.55607E-03   -0.55580E-03  9568   0.131E-01 0.478E-04
CGA:  36    -0.311936775251E+03   -0.44916E-03   -0.44686E-03  9568   0.149E-01 0.198E-03
SDA:  37    -0.311937013783E+03   -0.23853E-03   -0.23823E-03  9568   0.134E-01 0.117E-04
CGA:  38    -0.311937126171E+03   -0.11239E-03   -0.11151E-03  9568   0.295E-02 0.739E-04
CGA:  39    -0.311937203821E+03   -0.77650E-04   -0.77654E-04  9568   0.374E-02-0.190E-05
CGA:  40    -0.311937433491E+03   -0.22967E-03   -0.22992E-03  9568   0.932E-02-0.759E-05
CGA:  41    -0.311937875720E+03   -0.44223E-03   -0.44023E-03  9568   0.624E-02 0.868E-04
CGA:  42    -0.311938192406E+03   -0.31669E-03   -0.32088E-03  9568   0.179E-01-0.172E-03
CGA:  43    -0.311938409258E+03   -0.21685E-03   -0.22568E-03  9568   0.492E-02-0.389E-03
CGA:  44    -0.311938610658E+03   -0.20140E-03   -0.20137E-03  9568   0.438E-02 0.408E-05
CGA:  45    -0.311938791812E+03   -0.18115E-03   -0.18212E-03  9568   0.911E-02-0.572E-04
CGA:  46    -0.311938904943E+03   -0.11313E-03   -0.11695E-03  9568   0.321E-02-0.157E-03
CGA:  47    -0.311939109146E+03   -0.20420E-03   -0.20235E-03  9568   0.914E-02 0.517E-04
CGA:  48    -0.311939348868E+03   -0.23972E-03   -0.23838E-03  9568   0.321E-02-0.841E-04
CGA:  49    -0.311939413415E+03   -0.64547E-04   -0.65189E-04  9568   0.458E-02 0.107E-05
CGA:  50    -0.311939530111E+03   -0.11670E-03   -0.11621E-03  9568   0.226E-02-0.402E-04
CGA:  51    -0.311939650072E+03   -0.11996E-03   -0.11994E-03  9568   0.307E-02-0.472E-06
CGA:  52    -0.311939750318E+03   -0.10025E-03   -0.10023E-03  9568   0.339E-02 0.125E-05
CGA:  53    -0.311939925797E+03   -0.17548E-03   -0.17161E-03  9568   0.525E-02 0.164E-03
CGA:  54    -0.311939999088E+03   -0.73291E-04   -0.69700E-04  9568   0.245E-02 0.196E-03
CGA:  55    -0.311940069043E+03   -0.69955E-04   -0.70199E-04  9568   0.148E-02 0.338E-04
CGA:  56    -0.311940143278E+03   -0.74235E-04   -0.73217E-04  9568   0.376E-02 0.494E-04
CGA:  57    -0.311940200663E+03   -0.57385E-04   -0.54971E-04  9568   0.166E-02 0.121E-03
CGA:  58    -0.311940249589E+03   -0.48926E-04   -0.49016E-04  9568   0.212E-02 0.225E-04
CGA:  59    -0.311940329161E+03   -0.79572E-04   -0.78796E-04  9568   0.284E-02 0.873E-04
CGA:  60    -0.311940368329E+03   -0.39168E-04   -0.37604E-04  9568   0.146E-02 0.904E-04
CGA:  61    -0.311940439515E+03   -0.71186E-04   -0.71354E-04  9568   0.210E-02-0.988E-05
CGA:  62    -0.311940470622E+03   -0.31107E-04   -0.31998E-04  9568   0.147E-02-0.317E-04
CGA:  63    -0.311940501909E+03   -0.31288E-04   -0.31097E-04  9568   0.729E-03-0.247E-05
CGA:  64    -0.311940531313E+03   -0.29403E-04   -0.29458E-04  9568   0.148E-02-0.492E-05
CGA:  65    -0.311940562710E+03   -0.31398E-04   -0.31736E-04  9568   0.110E-02 0.160E-05
CGA:  66    -0.311940580537E+03   -0.17827E-04   -0.17688E-04  9568   0.488E-03 0.552E-05
CGA:  67    -0.311940614967E+03   -0.34430E-04   -0.34405E-04  9568   0.863E-03-0.900E-07
SDA:  68    -0.311940628319E+03   -0.13353E-04   -0.13480E-04  9568   0.658E-03-0.354E-05
CGA:  69    -0.311940636310E+03   -0.79905E-05   -0.80228E-05  9568   0.320E-03 0.624E-06
   9 F= -.31194064E+03 E0= -.31191537E+03  d E =-.940551E-01  mag=    21.4819
       N       E                     dE             d eps       ncg     rms          ort
SDA:   1    -0.294771372621E+03    0.17169E+02    0.00000E+00  9568   0.110E+03 0.000E+00
CGA:   2    -0.296913333439E+03   -0.21420E+01   -0.21224E+01  9568   0.102E+03-0.905E+00
CGA:   3    -0.299101233633E+03   -0.21879E+01   -0.20787E+01  9568   0.168E+03-0.422E+01
CGA:   4    -0.301550802776E+03   -0.24496E+01   -0.24798E+01  9568   0.328E+03-0.252E+01
CGA:   5    -0.305682860782E+03   -0.41321E+01   -0.47238E+01  9568   0.803E+02-0.305E+02
CGA:   6    -0.307010582422E+03   -0.13277E+01   -0.13846E+01  9568   0.607E+02-0.631E+00
CGA:   7    -0.307595963835E+03   -0.58538E+00   -0.54299E+00  9568   0.481E+02 0.973E+00
CGA:   8    -0.308144461502E+03   -0.54850E+00   -0.38765E+00  9568   0.489E+02 0.150E+02
CGA:   9    -0.308715398206E+03   -0.57094E+00   -0.60268E+00  9568   0.925E+02-0.363E+01
CGA:  10    -0.309437149777E+03   -0.72175E+00   -0.91931E+00  9568   0.981E+02-0.850E+01
CGA:  11    -0.310011006298E+03   -0.57386E+00   -0.81282E+00  9568   0.105E+03-0.188E+02
CGA:  12    -0.310628357470E+03   -0.61735E+00   -0.56084E+00  9568   0.359E+02 0.546E+01
CGA:  13    -0.310816718306E+03   -0.18836E+00   -0.20243E+00  9568   0.114E+02-0.343E+01
CGA:  14    -0.310910355385E+03   -0.93637E-01   -0.82067E-01  9568   0.124E+02 0.100E+01
CGA:  15    -0.311033736847E+03   -0.12338E+00   -0.11557E+00  9568   0.137E+02 0.642E+00
CGA:  16    -0.311149510288E+03   -0.11577E+00   -0.12612E+00  9568   0.120E+02-0.726E+00
CGA:  17    -0.311245437065E+03   -0.95927E-01   -0.10411E+00  9568   0.124E+02-0.494E+00
CGA:  18    -0.311383667165E+03   -0.13823E+00   -0.14454E+00  9568   0.115E+02-0.265E-01
CGA:  19    -0.311516333405E+03   -0.13267E+00   -0.11741E+00  9568   0.108E+02 0.668E+00
CGA:  20    -0.311604557393E+03   -0.88224E-01   -0.80771E-01  9568   0.742E+01 0.711E+00
CGA:  21    -0.311657247868E+03   -0.52690E-01   -0.54364E-01  9568   0.494E+01-0.185E+00
CGA:  22    -0.311698756847E+03   -0.41509E-01   -0.40409E-01  9568   0.580E+01 0.662E-01
CGA:  23    -0.311746197809E+03   -0.47441E-01   -0.45084E-01  9568   0.447E+01 0.172E+00
CGA:  24    -0.311769470964E+03   -0.23273E-01   -0.22010E-01  9568   0.213E+01 0.197E+00
CGA:  25    -0.311783492839E+03   -0.14022E-01   -0.13912E-01  9568   0.226E+01 0.106E-01
CGA:  26    -0.311803043719E+03   -0.19551E-01   -0.18828E-01  9568   0.346E+01 0.384E-01
CGA:  27    -0.311823847150E+03   -0.20803E-01   -0.20238E-01  9568   0.321E+01 0.701E-01
CGA:  28    -0.311841260438E+03   -0.17413E-01   -0.18136E-01  9568   0.266E+01-0.892E-01
CGA:  29    -0.311856755711E+03   -0.15495E-01   -0.15276E-01  9568   0.277E+01 0.221E-01
CGA:  30    -0.311873556971E+03   -0.16801E-01   -0.16968E-01  9568   0.249E+01-0.186E-01
CGA:  31    -0.311885919173E+03   -0.12362E-01   -0.11983E-01  9568   0.158E+01 0.529E-01
SDA:  32    -0.311894066019E+03   -0.81468E-02   -0.77684E-02  9568   0.139E+01 0.528E-01
CGA:  33    -0.311915659032E+03   -0.21593E-01   -0.21424E-01  9568   0.831E+00 0.382E-01
CGA:  34    -0.311934623272E+03   -0.18964E-01   -0.18757E-01  9568   0.822E+00 0.197E-01
CGA:  35    -0.311954838694E+03   -0.20215E-01   -0.20364E-01  9568   0.337E+00-0.133E-01
CGA:  36    -0.311963433970E+03   -0.85953E-02   -0.86089E-02  9568   0.345E+00-0.101E-02
CGA:  37    -0.311975603171E+03   -0.12169E-01   -0.12009E-01  9568   0.393E+00 0.843E-02
CGA:  38    -0.311981882617E+03   -0.62794E-02   -0.62793E-02  9568   0.245E+00 0.175E-03
CGA:  39    -0.311991607231E+03   -0.97246E-02   -0.94361E-02  9568   0.148E+00 0.132E-01
CGA:  40    -0.311996122796E+03   -0.45156E-02   -0.45685E-02  9568   0.650E-01-0.388E-02
CGA:  41    -0.311996949708E+03   -0.82691E-03   -0.82866E-03  9568   0.395E-01 0.105E-03
CGA:  42    -0.311998915956E+03   -0.19662E-02   -0.19375E-02  9568   0.506E-01 0.101E-02
CGA:  43    -0.312001282889E+03   -0.23669E-02   -0.23773E-02  9568   0.609E-01-0.425E-03
CGA:  44    -0.312002621801E+03   -0.13389E-02   -0.13395E-02  9568   0.382E-01-0.134E-03
CGA:  45    -0.312003519294E+03   -0.89749E-03   -0.89380E-03  9568   0.356E-01 0.685E-03
CGA:  46    -0.312004117217E+03   -0.59792E-03   -0.59795E-03  9568   0.970E-02 0.877E-05
CGA:  47    -0.312004602536E+03   -0.48532E-03   -0.48375E-03  9568   0.161E-01 0.513E-04
CGA:  48    -0.312005100272E+03   -0.49774E-03   -0.49785E-03  9568   0.238E-01-0.873E-05
CGA:  49    -0.312005538741E+03   -0.43847E-03   -0.44017E-03  9568   0.103E-01 0.196E-03
CGA:  50    -0.312006286037E+03   -0.74730E-03   -0.74216E-03  9568   0.176E-01 0.112E-03
CGA:  51    -0.312006658757E+03   -0.37272E-03   -0.37313E-03  9568   0.168E-01 0.665E-04
CGA:  52    -0.312007039388E+03   -0.38063E-03   -0.38065E-03  9568   0.845E-02 0.115E-04
CGA:  53    -0.312007356601E+03   -0.31721E-03   -0.31683E-03  9568   0.990E-02 0.249E-04
CGA:  54    -0.312007555111E+03   -0.19851E-03   -0.19863E-03  9568   0.380E-02 0.984E-05
CGA:  55    -0.312007631098E+03   -0.75987E-04   -0.76071E-04  9568   0.373E-02 0.125E-04
CGA:  56    -0.312007765981E+03   -0.13488E-03   -0.13467E-03  9568   0.326E-02 0.174E-04
CGA:  57    -0.312007906445E+03   -0.14046E-03   -0.13959E-03  9568   0.318E-02 0.472E-04
CGA:  58    -0.312007949833E+03   -0.43388E-04   -0.43451E-04  9568   0.141E-02 0.878E-05
CGA:  59    -0.312008025026E+03   -0.75193E-04   -0.74506E-04  9568   0.184E-02 0.247E-04
CGA:  60    -0.312008076764E+03   -0.51738E-04   -0.51732E-04  9568   0.142E-02 0.624E-05
CGA:  61    -0.312008096626E+03   -0.19862E-04   -0.19940E-04  9568   0.473E-03 0.237E-05
CGA:  62    -0.312008126374E+03   -0.29748E-04   -0.29938E-04  9568   0.104E-02-0.549E-05
SDA:  63    -0.312008152166E+03   -0.25792E-04   -0.25779E-04  9568   0.101E-02-0.663E-05
CGA:  64    -0.312008163166E+03   -0.11001E-04   -0.10961E-04  9568   0.364E-03-0.118E-05
CGA:  65    -0.312008173818E+03   -0.10652E-04   -0.10659E-04  9568   0.313E-03-0.308E-05
CGA:  66    -0.312008188917E+03   -0.15099E-04   -0.15334E-04  9568   0.355E-03-0.107E-04
CGA:  67    -0.312008199127E+03   -0.10210E-04   -0.10220E-04  9568   0.324E-03-0.579E-05
CGA:  68    -0.312008214935E+03   -0.15808E-04   -0.16022E-04  9568   0.401E-03-0.989E-05
CGA:  69    -0.312008223879E+03   -0.89439E-05   -0.89079E-05  9568   0.457E-03-0.592E-05
  10 F= -.31200822E+03 E0= -.31198175E+03  d E =-.675876E-01  mag=    21.5060
       N       E                     dE             d eps       ncg     rms          ort
SDA:   1    -0.147142415999E+03    0.16487E+03    0.00000E+00  9568   0.238E+04 0.000E+00
CGA:   2    -0.185611765632E+03   -0.38469E+02   -0.50963E+02  9568   0.775E+03 0.471E+03
CGA:   3    -0.209980056815E+03   -0.24368E+02   -0.25064E+02  9568   0.677E+03 0.277E+03
CGA:   4    -0.232084668537E+03   -0.22105E+02   -0.22056E+02  9568   0.919E+03-0.160E+03
CGA:   5     0.170967138781E+03    0.40305E+03   -0.19985E+03  9568   0.927E+04-0.277E+04
CGA:   6    -0.858052303605E+02   -0.25677E+03   -0.29977E+03  9568   0.153E+04-0.226E+03
CGA:   7    -0.108765345524E+03   -0.22960E+02   -0.85812E+02  9568   0.168E+05-0.630E+04
CGA:   8    -0.211794778066E+03   -0.10303E+03   -0.42452E+03  9568   0.760E+03-0.444E+03
CGA:   9    -0.226685185131E+03   -0.14890E+02   -0.73674E+01  9568   0.641E+03 0.765E+03
CGA:  10    -0.237325797093E+03   -0.10641E+02   -0.49800E+01  9568   0.640E+03 0.794E+03
CGA:  11    -0.249908354466E+03   -0.12583E+02   -0.51650E+01  9568   0.513E+03 0.824E+03
CGA:  12    -0.259362036619E+03   -0.94537E+01   -0.95374E+01  9568   0.286E+03 0.112E+03
CGA:  13    -0.273498705853E+03   -0.14137E+02   -0.12619E+02  9568   0.586E+03-0.874E+02
CGA:  14    -0.282232808419E+03   -0.87341E+01   -0.11421E+02  9568   0.118E+04 0.375E+02
CGA:  15    -0.297703867928E+03   -0.15471E+02   -0.22042E+02  9568   0.235E+03-0.147E+03
CGA:  16    -0.300323004861E+03   -0.26191E+01   -0.27829E+01  9568   0.111E+03-0.201E+02
CGA:  17    -0.302927998280E+03   -0.26050E+01   -0.19760E+01  9568   0.754E+02-0.286E+02
CGA:  18    -0.304062116143E+03   -0.11341E+01   -0.12839E+01  9568   0.585E+02 0.337E+01
CGA:  19    -0.305292601743E+03   -0.12305E+01   -0.12017E+01  9568   0.850E+02-0.278E+01
CGA:  20    -0.306920963498E+03   -0.16284E+01   -0.10157E+01  9568   0.625E+02 0.323E+02
CGA:  21    -0.306723800424E+03    0.19716E+00   -0.11095E+01  9568   0.196E+03-0.775E+02
CGA:  22    -0.308126041540E+03   -0.14022E+01   -0.31108E+01  9568   0.454E+02-0.547E+02
CGA:  23    -0.308990044262E+03   -0.86400E+00   -0.78183E+00  9568   0.902E+01-0.138E+01
CGA:  24    -0.309465898622E+03   -0.47585E+00   -0.52636E+00  9568   0.247E+02-0.171E+01
CGA:  25    -0.310220224306E+03   -0.75433E+00   -0.76443E+00  9568   0.122E+02-0.140E+01
CGA:  26    -0.310509087032E+03   -0.28886E+00   -0.28938E+00  9568   0.262E+01-0.400E-02
CGA:  27    -0.310729806098E+03   -0.22072E+00   -0.24729E+00  9568   0.515E+01-0.963E+00
CGA:  28    -0.310756726932E+03   -0.26921E-01   -0.24155E-01  9568   0.346E+01 0.332E+00
CGA:  29    -0.310796394225E+03   -0.39667E-01   -0.43131E-01  9568   0.298E+01-0.219E+00
CGA:  30    -0.310837045572E+03   -0.40651E-01   -0.43454E-01  9568   0.331E+01-0.769E-01
CGA:  31    -0.310873889041E+03   -0.36843E-01   -0.34244E-01  9568   0.126E+01 0.178E+00
CGA:  32    -0.310891297357E+03   -0.17408E-01   -0.16073E-01  9568   0.159E+01 0.724E-01
CGA:  33    -0.310930635646E+03   -0.39338E-01   -0.36355E-01  9568   0.334E+01 0.923E-02
CGA:  34    -0.310944446677E+03   -0.13811E-01   -0.83556E-02  9568   0.272E+01 0.216E+01
CGA:  35    -0.310975756211E+03   -0.31310E-01   -0.34189E-01  9568   0.471E+00-0.147E+00
CGA:  36    -0.310990196442E+03   -0.14440E-01   -0.14326E-01  9568   0.418E+00 0.183E-01
CGA:  37    -0.311023383129E+03   -0.33187E-01   -0.33296E-01  9568   0.803E+00-0.443E-02
CGA:  38    -0.311046121116E+03   -0.22738E-01   -0.22655E-01  9568   0.735E+00-0.150E-01
CGA:  39    -0.311073071229E+03   -0.26950E-01   -0.26466E-01  9568   0.376E+00 0.539E-01
CGA:  40    -0.311094797496E+03   -0.21726E-01   -0.23971E-01  9568   0.658E+00-0.847E-01
CGA:  41    -0.311105888335E+03   -0.11091E-01   -0.10387E-01  9568   0.623E+00 0.114E-01
CGA:  42    -0.311120319754E+03   -0.14431E-01   -0.14358E-01  9568   0.536E+00 0.586E-02
CGA:  43    -0.311128273803E+03   -0.79540E-02   -0.81318E-02  9568   0.144E+00-0.767E-02
CGA:  44    -0.311133033766E+03   -0.47600E-02   -0.47471E-02  9568   0.302E+00 0.211E-02
CGA:  45    -0.311141609676E+03   -0.85759E-02   -0.84618E-02  9568   0.311E+00-0.147E-01
CGA:  46    -0.311148088390E+03   -0.64787E-02   -0.61839E-02  9568   0.311E+00 0.541E-03
CGA:  47    -0.311152819199E+03   -0.47308E-02   -0.48697E-02  9568   0.156E+00-0.365E-02
CGA:  48    -0.311155247855E+03   -0.24287E-02   -0.25335E-02  9568   0.135E+00-0.275E-02
CGA:  49    -0.311159018349E+03   -0.37705E-02   -0.37710E-02  9568   0.109E+00 0.545E-03
CGA:  50    -0.311160728713E+03   -0.17104E-02   -0.16514E-02  9568   0.616E-01 0.151E-02
CGA:  51    -0.311162153276E+03   -0.14246E-02   -0.14197E-02  9568   0.679E-01-0.464E-03
CGA:  52    -0.311163595929E+03   -0.14427E-02   -0.14578E-02  9568   0.752E-01 0.422E-03
CGA:  53    -0.311165606575E+03   -0.20106E-02   -0.20146E-02  9568   0.812E-01 0.208E-02
CGA:  54    -0.311167596873E+03   -0.19903E-02   -0.19788E-02  9568   0.759E-01-0.118E-02
CGA:  55    -0.311169365314E+03   -0.17684E-02   -0.17571E-02  9568   0.856E-01-0.111E-02
CGA:  56    -0.311171535225E+03   -0.21699E-02   -0.21722E-02  9568   0.115E+00 0.755E-03
CGA:  57    -0.311173820291E+03   -0.22851E-02   -0.23432E-02  9568   0.516E-01 0.173E-02
CGA:  58    -0.311175090343E+03   -0.12701E-02   -0.12755E-02  9568   0.449E-01 0.915E-03
CGA:  59    -0.311176306957E+03   -0.12166E-02   -0.12167E-02  9568   0.534E-01-0.864E-03
CGA:  60    -0.311178281123E+03   -0.19742E-02   -0.20816E-02  9568   0.983E-01-0.689E-02
CGA:  61    -0.311179754825E+03   -0.14737E-02   -0.14782E-02  9568   0.887E-01 0.612E-04
CGA:  62    -0.311181439571E+03   -0.16847E-02   -0.17612E-02  9568   0.638E-01 0.189E-02
CGA:  63    -0.311182948663E+03   -0.15091E-02   -0.15117E-02  9568   0.637E-01 0.270E-03
CGA:  64    -0.311184923124E+03   -0.19745E-02   -0.19683E-02  9568   0.727E-01 0.832E-03
SDA:  65    -0.311187110086E+03   -0.21870E-02   -0.22101E-02  9568   0.911E-01-0.411E-02
CGA:  66    -0.311188702651E+03   -0.15926E-02   -0.15968E-02  9568   0.315E-01-0.113E-04
CGA:  67    -0.311189817196E+03   -0.11145E-02   -0.11083E-02  9568   0.509E-01 0.533E-03
CGA:  68    -0.311193542730E+03   -0.37255E-02   -0.39075E-02  9568   0.565E-01-0.453E-02
CGA:  69    -0.311197563659E+03   -0.40209E-02   -0.37736E-02  9568   0.767E-01 0.589E-02
CGA:  70    -0.311199332747E+03   -0.17691E-02   -0.17021E-02  9568   0.620E-01 0.471E-03
CGA:  71    -0.311203711892E+03   -0.43791E-02   -0.41729E-02  9568   0.623E-01 0.424E-02
CGA:  72    -0.311205913906E+03   -0.22020E-02   -0.22017E-02  9568   0.934E-01 0.249E-03
CGA:  73    -0.311208095598E+03   -0.21817E-02   -0.19224E-02  9568   0.781E-01 0.293E-02
CGA:  74    -0.311209948664E+03   -0.18531E-02   -0.18172E-02  9568   0.103E+00 0.119E-03
[...]
CGA:  26    -0.312425826267E+03   -0.77934E-05   -0.77909E-05  9568   0.203E-03-0.674E-06
  77 F= -.31242583E+03 E0= -.31240382E+03  d E =-.157260E-03  mag=    21.5981
       N       E                     dE             d eps       ncg     rms          ort
SDA:   1    -0.312379345891E+03    0.46473E-01    0.00000E+00  9568   0.382E+00 0.000E+00
CGA:   2    -0.312388864640E+03   -0.95187E-02   -0.95597E-02  9568   0.157E+00 0.230E-02
CGA:   3    -0.312397126464E+03   -0.82618E-02   -0.81768E-02  9568   0.438E+00 0.360E-02
CGA:   4    -0.312411633372E+03   -0.14507E-01   -0.14522E-01  9568   0.191E+00-0.543E-02
CGA:   5    -0.312417754509E+03   -0.61211E-02   -0.61170E-02  9568   0.582E-01 0.165E-02
CGA:   6    -0.312420078446E+03   -0.23239E-02   -0.23341E-02  9568   0.112E+00-0.846E-03
CGA:   7    -0.312423256796E+03   -0.31783E-02   -0.31833E-02  9568   0.273E-01 0.787E-03
CGA:   8    -0.312424117696E+03   -0.86090E-03   -0.86085E-03  9568   0.277E-01-0.170E-03
CGA:   9    -0.312425109542E+03   -0.99185E-03   -0.99067E-03  9568   0.619E-02 0.164E-03
CGA:  10    -0.312425363099E+03   -0.25356E-03   -0.25359E-03  9568   0.971E-02-0.280E-05
CGA:  11    -0.312425573473E+03   -0.21037E-03   -0.21062E-03  9568   0.346E-02 0.873E-05
CGA:  12    -0.312425796545E+03   -0.22307E-03   -0.22383E-03  9568   0.167E-02-0.232E-04
CGA:  13    -0.312425838774E+03   -0.42229E-04   -0.42308E-04  9568   0.126E-02 0.554E-05
CGA:  14    -0.312425880576E+03   -0.41801E-04   -0.41802E-04  9568   0.111E-02-0.114E-05
CGA:  15    -0.312425914434E+03   -0.33859E-04   -0.33868E-04  9568   0.860E-03 0.348E-05
CGA:  16    -0.312425944533E+03   -0.30099E-04   -0.30095E-04  9568   0.556E-03 0.152E-05
CGA:  17    -0.312425962008E+03   -0.17475E-04   -0.17477E-04  9568   0.216E-03 0.439E-06
CGA:  18    -0.312425971255E+03   -0.92463E-05   -0.92584E-05  9568   0.412E-03-0.114E-05
  78 F= -.31242597E+03 E0= -.31240397E+03  d E =-.144987E-03  mag=    21.5989
       N       E                     dE             d eps       ncg     rms          ort
SDA:   1    -0.311735375426E+03    0.69059E+00    0.00000E+00  9568   0.216E+01 0.000E+00
CGA:   2    -0.311826127615E+03   -0.90752E-01   -0.88998E-01  9568   0.534E+01 0.148E+00
CGA:   3    -0.312179575123E+03   -0.35345E+00   -0.36399E+00  9568   0.717E+01-0.341E+00
CGA:   4    -0.312292290617E+03   -0.11272E+00   -0.12263E+00  9568   0.112E+01-0.238E+00
CGA:   5    -0.312329150825E+03   -0.36860E-01   -0.36860E-01  9568   0.926E+00-0.107E-01
CGA:   6    -0.312379713387E+03   -0.50563E-01   -0.49617E-01  9568   0.811E+00 0.404E-01
CGA:   7    -0.312396957304E+03   -0.17244E-01   -0.16849E-01  9568   0.403E+00 0.689E-02
CGA:   8    -0.312407151027E+03   -0.10194E-01   -0.10354E-01  9568   0.169E+00 0.297E-02
CGA:   9    -0.312414786707E+03   -0.76357E-02   -0.76287E-02  9568   0.162E+00 0.482E-03
CGA:  10    -0.312419241402E+03   -0.44547E-02   -0.44431E-02  9568   0.518E-01-0.396E-03
CGA:  11    -0.312421489092E+03   -0.22477E-02   -0.22539E-02  9568   0.769E-01-0.458E-03
CGA:  12    -0.312423096231E+03   -0.16071E-02   -0.16240E-02  9568   0.287E-01-0.118E-03
CGA:  13    -0.312424189414E+03   -0.10932E-02   -0.10945E-02  9568   0.185E-01-0.188E-03
CGA:  14    -0.312424700793E+03   -0.51138E-03   -0.51222E-03  9568   0.101E-01 0.501E-04
CGA:  15    -0.312425268323E+03   -0.56753E-03   -0.56982E-03  9568   0.147E-01-0.928E-04
CGA:  16    -0.312425544802E+03   -0.27648E-03   -0.27834E-03  9568   0.549E-02-0.286E-04
CGA:  17    -0.312425732183E+03   -0.18738E-03   -0.18738E-03  9568   0.378E-02 0.193E-05
CGA:  18    -0.312425866837E+03   -0.13465E-03   -0.13465E-03  9568   0.198E-02 0.340E-05
CGA:  19    -0.312425946515E+03   -0.79678E-04   -0.79713E-04  9568   0.245E-02-0.383E-05
CGA:  20    -0.312426021386E+03   -0.74871E-04   -0.74917E-04  9568   0.176E-02 0.454E-05
CGA:  21    -0.312426065940E+03   -0.44553E-04   -0.44501E-04  9568   0.128E-02-0.458E-05
CGA:  22    -0.312426136971E+03   -0.71031E-04   -0.70808E-04  9568   0.583E-03 0.929E-05
CGA:  23    -0.312426154800E+03   -0.17830E-04   -0.17819E-04  9568   0.622E-03-0.201E-05
CGA:  24    -0.312426183828E+03   -0.29027E-04   -0.28966E-04  9568   0.939E-03 0.454E-05
CGA:  25    -0.312426209619E+03   -0.25791E-04   -0.25793E-04  9568   0.559E-03 0.561E-06
CGA:  26    -0.312426229905E+03   -0.20286E-04   -0.20282E-04  9568   0.304E-03 0.214E-05
CGA:  27    -0.312426246923E+03   -0.17018E-04   -0.16992E-04  9568   0.510E-03 0.106E-05
CGA:  28    -0.312426259460E+03   -0.12536E-04   -0.12568E-04  9568   0.255E-03 0.175E-05
CGA:  29    -0.312426266316E+03   -0.68563E-05   -0.68491E-05  9568   0.192E-03-0.982E-06
CGA:  30    -0.312426277975E+03   -0.11659E-04   -0.11590E-04  9568   0.256E-03 0.241E-05
CGA:  31    -0.312426286240E+03   -0.82649E-05   -0.82656E-05  9568   0.134E-03 0.103E-06
  79 F= -.31242629E+03 E0= -.31240430E+03  d E =-.314985E-03  mag=    21.5980
       N       E                     dE             d eps       ncg     rms          ort
SDA:   1    -0.311717364791E+03    0.70891E+00    0.00000E+00  9568   0.242E+01 0.000E+00
CGA:   2    -0.311862489847E+03   -0.14513E+00   -0.14236E+00  9568   0.684E+01 0.106E+00
CGA:   3    -0.312086669634E+03   -0.22418E+00   -0.22246E+00  9568   0.423E+01-0.103E+00
CGA:   4    -0.312223810232E+03   -0.13714E+00   -0.13722E+00  9568   0.132E+01 0.909E-02
CGA:   5    -0.312297931156E+03   -0.74121E-01   -0.74899E-01  9568   0.192E+01-0.318E-01
CGA:   6    -0.312349681190E+03   -0.51750E-01   -0.52462E-01  9568   0.169E+01 0.133E-01
CGA:   7    -0.312391281433E+03   -0.41600E-01   -0.40699E-01  9568   0.256E+00 0.195E-02
CGA:   8    -0.312403062019E+03   -0.11781E-01   -0.11724E-01  9568   0.269E+00 0.423E-02
CGA:   9    -0.312411111733E+03   -0.80497E-02   -0.80148E-02  9568   0.262E+00-0.120E-02
CGA:  10    -0.312418246189E+03   -0.71345E-02   -0.71555E-02  9568   0.945E-01 0.459E-03
CGA:  11    -0.312420533180E+03   -0.22870E-02   -0.22767E-02  9568   0.491E-01 0.677E-05
CGA:  12    -0.312422462868E+03   -0.19297E-02   -0.19292E-02  9568   0.326E-01 0.806E-04
CGA:  13    -0.312423950831E+03   -0.14880E-02   -0.14915E-02  9568   0.333E-01-0.247E-03
CGA:  14    -0.312424674677E+03   -0.72385E-03   -0.72558E-03  9568   0.214E-01 0.225E-05
CGA:  15    -0.312425339267E+03   -0.66459E-03   -0.66463E-03  9568   0.719E-02 0.291E-05
CGA:  16    -0.312425810019E+03   -0.47075E-03   -0.46882E-03  9568   0.739E-02 0.625E-04
CGA:  17    -0.312425983487E+03   -0.17347E-03   -0.17324E-03  9568   0.510E-02-0.391E-05
CGA:  18    -0.312426137651E+03   -0.15416E-03   -0.15429E-03  9568   0.407E-02 0.945E-05
CGA:  19    -0.312426345193E+03   -0.20754E-03   -0.20759E-03  9568   0.411E-02-0.124E-05
CGA:  20    -0.312426439061E+03   -0.93868E-04   -0.93842E-04  9568   0.117E-02 0.112E-05
CGA:  21    -0.312426494093E+03   -0.55032E-04   -0.55034E-04  9568   0.182E-02-0.107E-06
CGA:  22    -0.312426548671E+03   -0.54578E-04   -0.54628E-04  9568   0.200E-02 0.587E-05
CGA:  23    -0.312426629086E+03   -0.80415E-04   -0.80438E-04  9568   0.754E-03-0.390E-05
CGA:  24    -0.312426661556E+03   -0.32470E-04   -0.32453E-04  9568   0.660E-03 0.203E-05
CGA:  25    -0.312426683743E+03   -0.22186E-04   -0.22179E-04  9568   0.969E-03-0.166E-05
CGA:  26    -0.312426715930E+03   -0.32187E-04   -0.32199E-04  9568   0.434E-03 0.341E-05
CGA:  27    -0.312426735959E+03   -0.20030E-04   -0.20014E-04  9568   0.543E-03 0.150E-05
CGA:  28    -0.312426754235E+03   -0.18275E-04   -0.18279E-04  9568   0.346E-03 0.815E-06
CGA:  29    -0.312426765231E+03   -0.10996E-04   -0.10992E-04  9568   0.273E-03-0.719E-06
CGA:  30    -0.312426772132E+03   -0.69010E-05   -0.69174E-05  9568   0.210E-03 0.126E-05
  80 F= -.31242677E+03 E0= -.31240471E+03  d E =-.485893E-03  mag=    21.6003
       N       E                     dE             d eps       ncg     rms          ort
SDA:   1    -0.312273404279E+03    0.15336E+00    0.00000E+00  9568   0.768E+00 0.000E+00
CGA:   2    -0.312296990144E+03   -0.23586E-01   -0.23878E-01  9568   0.109E+01 0.198E-01
CGA:   3    -0.312338674471E+03   -0.41684E-01   -0.41714E-01  9568   0.108E+01-0.101E-01
CGA:   4    -0.312370204503E+03   -0.31530E-01   -0.31665E-01  9568   0.550E+00 0.622E-02
CGA:   5    -0.312387903111E+03   -0.17699E-01   -0.17578E-01  9568   0.337E+00-0.117E-01
CGA:   6    -0.312400633618E+03   -0.12731E-01   -0.12699E-01  9568   0.273E+00 0.608E-02
CGA:   7    -0.312413481165E+03   -0.12848E-01   -0.12852E-01  9568   0.362E+00-0.307E-03
CGA:   8    -0.312419303692E+03   -0.58225E-02   -0.58850E-02  9568   0.597E-01-0.225E-02
CGA:   9    -0.312422498465E+03   -0.31948E-02   -0.32089E-02  9568   0.368E-01-0.633E-03
CGA:  10    -0.312424246653E+03   -0.17482E-02   -0.17423E-02  9568   0.545E-01 0.374E-03
CGA:  11    -0.312425315952E+03   -0.10693E-02   -0.10643E-02  9568   0.160E-01 0.106E-03
CGA:  12    -0.312425858397E+03   -0.54244E-03   -0.54285E-03  9568   0.106E-01 0.955E-04
CGA:  13    -0.312426159309E+03   -0.30091E-03   -0.29999E-03  9568   0.639E-02-0.332E-04
CGA:  14    -0.312426517184E+03   -0.35787E-03   -0.35762E-03  9568   0.569E-02 0.105E-04
CGA:  15    -0.312426620232E+03   -0.10305E-03   -0.10266E-03  9568   0.297E-02 0.273E-05
CGA:  16    -0.312426769725E+03   -0.14949E-03   -0.14934E-03  9568   0.240E-02 0.810E-05
CGA:  17    -0.312426846324E+03   -0.76599E-04   -0.76555E-04  9568   0.106E-02-0.401E-05
CGA:  18    -0.312426885724E+03   -0.39400E-04   -0.39398E-04  9568   0.157E-02 0.490E-06
CGA:  19    -0.312426935871E+03   -0.50147E-04   -0.50123E-04  9568   0.931E-03-0.440E-05
CGA:  20    -0.312426960726E+03   -0.24854E-04   -0.24893E-04  9568   0.682E-03 0.316E-05
CGA:  21    -0.312426990753E+03   -0.30028E-04   -0.30030E-04  9568   0.332E-03-0.129E-07
CGA:  22    -0.312427007939E+03   -0.17185E-04   -0.17157E-04  9568   0.636E-03 0.174E-05
CGA:  23    -0.312427021444E+03   -0.13505E-04   -0.13477E-04  9568   0.207E-03-0.125E-05
CGA:  24    -0.312427032806E+03   -0.11363E-04   -0.11351E-04  9568   0.303E-03 0.642E-06
CGA:  25    -0.312427042472E+03   -0.96656E-05   -0.96689E-05  9568   0.178E-03 0.670E-06
  81 F= -.31242704E+03 E0= -.31240501E+03  d E =-.270340E-03  mag=    21.5982
       N       E                     dE             d eps       ncg     rms          ort
SDA:   1    -0.311925824538E+03    0.50121E+00    0.00000E+00  9568   0.296E+01 0.000E+00
CGA:   2    -0.311971687524E+03   -0.45863E-01   -0.50614E-01  9568   0.221E+01-0.155E+00
CGA:   3    -0.312213275417E+03   -0.24159E+00   -0.23929E+00  9568   0.398E+01 0.369E-01
CGA:   4    -0.312321834108E+03   -0.10856E+00   -0.10703E+00  9568   0.142E+01-0.117E-01
CGA:   5    -0.312345946221E+03   -0.24112E-01   -0.22729E-01  9568   0.554E+00 0.555E-01
CGA:   6    -0.312383394981E+03   -0.37449E-01   -0.37224E-01  9568   0.625E+00 0.764E-02
CGA:   7    -0.312407223642E+03   -0.23829E-01   -0.23831E-01  9568   0.342E+00 0.851E-03
CGA:   8    -0.312413972058E+03   -0.67484E-02   -0.65338E-02  9568   0.121E+00 0.582E-02
CGA:   9    -0.312417340948E+03   -0.33689E-02   -0.34061E-02  9568   0.124E+00 0.500E-03
CGA:  10    -0.312421184506E+03   -0.38436E-02   -0.38435E-02  9568   0.626E-01 0.559E-04
CGA:  11    -0.312424082835E+03   -0.28983E-02   -0.29087E-02  9568   0.393E-01-0.782E-03
CGA:  12    -0.312424893985E+03   -0.81115E-03   -0.81706E-03  9568   0.257E-01-0.806E-04
CGA:  13    -0.312425509396E+03   -0.61541E-03   -0.61512E-03  9568   0.119E-01 0.236E-06
CGA:  14    -0.312426247311E+03   -0.73791E-03   -0.73876E-03  9568   0.884E-02-0.303E-04
CGA:  15    -0.312426479854E+03   -0.23254E-03   -0.23310E-03  9568   0.851E-02 0.113E-04
CGA:  16    -0.312426713988E+03   -0.23413E-03   -0.23400E-03  9568   0.508E-02-0.754E-05
CGA:  17    -0.312426873311E+03   -0.15932E-03   -0.15927E-03  9568   0.381E-02-0.334E-05
CGA:  18    -0.312426989778E+03   -0.11647E-03   -0.11652E-03  9568   0.130E-02 0.647E-05
CGA:  19    -0.312427039758E+03   -0.49980E-04   -0.49988E-04  9568   0.171E-02-0.316E-05
CGA:  20    -0.312427088651E+03   -0.48893E-04   -0.48948E-04  9568   0.191E-02 0.283E-05
CGA:  21    -0.312427165210E+03   -0.76559E-04   -0.76584E-04  9568   0.657E-03-0.409E-05
CGA:  22    -0.312427204228E+03   -0.39018E-04   -0.39033E-04  9568   0.833E-03-0.103E-05
CGA:  23    -0.312427224745E+03   -0.20517E-04   -0.20576E-04  9568   0.676E-03 0.322E-05
CGA:  24    -0.312427244424E+03   -0.19678E-04   -0.19673E-04  9568   0.425E-03 0.223E-06
CGA:  25    -0.312427262286E+03   -0.17862E-04   -0.17860E-04  9568   0.592E-03 0.291E-06
CGA:  26    -0.312427290584E+03   -0.28298E-04   -0.28255E-04  9568   0.401E-03 0.355E-05
CGA:  27    -0.312427305033E+03   -0.14449E-04   -0.14448E-04  9568   0.276E-03-0.440E-06
CGA:  28    -0.312427311305E+03   -0.62718E-05   -0.62925E-05  9568   0.243E-03 0.102E-05
  82 F= -.31242731E+03 E0= -.31240531E+03  d E =-.268833E-03  mag=    21.5976
       N       E                     dE             d eps       ncg     rms          ort
SDA:   1    -0.312216081438E+03    0.21122E+00    0.00000E+00  9568   0.261E+01 0.000E+00
CGA:   2    -0.312252476146E+03   -0.36395E-01   -0.34557E-01  9568   0.823E+00 0.917E-01
CGA:   3    -0.312290690288E+03   -0.38214E-01   -0.37948E-01  9568   0.115E+01 0.203E-01
CGA:   4    -0.312363536036E+03   -0.72846E-01   -0.74070E-01  9568   0.520E+00-0.424E-01
CGA:   5    -0.312378921314E+03   -0.15385E-01   -0.15358E-01  9568   0.514E+00-0.112E-02
CGA:   6    -0.312395679728E+03   -0.16758E-01   -0.16827E-01  9568   0.386E+00 0.679E-02
CGA:   7    -0.312406362345E+03   -0.10683E-01   -0.10575E-01  9568   0.359E+00-0.175E-02
CGA:   8    -0.312417523117E+03   -0.11161E-01   -0.11198E-01  9568   0.851E-01 0.288E-02
CGA:   9    -0.312421123926E+03   -0.36008E-02   -0.35989E-02  9568   0.456E-01 0.202E-03
CGA:  10    -0.312422595479E+03   -0.14716E-02   -0.14696E-02  9568   0.688E-01-0.199E-03
CGA:  11    -0.312424886585E+03   -0.22911E-02   -0.22909E-02  9568   0.317E-01-0.268E-04
CGA:  12    -0.312425508495E+03   -0.62191E-03   -0.62449E-03  9568   0.950E-02-0.461E-04
CGA:  13    -0.312425906020E+03   -0.39752E-03   -0.39751E-03  9568   0.104E-01 0.164E-05
CGA:  14    -0.312426388029E+03   -0.48201E-03   -0.48175E-03  9568   0.525E-02 0.202E-04
CGA:  15    -0.312426512557E+03   -0.12453E-03   -0.12418E-03  9568   0.578E-02-0.168E-05
CGA:  16    -0.312426751048E+03   -0.23849E-03   -0.23841E-03  9568   0.235E-02 0.963E-05
CGA:  17    -0.312426851705E+03   -0.10066E-03   -0.10070E-03  9568   0.155E-02-0.395E-05
CGA:  18    -0.312426897759E+03   -0.46054E-04   -0.46074E-04  9568   0.142E-02 0.243E-05
CGA:  19    -0.312426963823E+03   -0.66064E-04   -0.65986E-04  9568   0.167E-02 0.580E-05
CGA:  20    -0.312427000418E+03   -0.36595E-04   -0.36519E-04  9568   0.108E-02-0.225E-05
CGA:  21    -0.312427043188E+03   -0.42770E-04   -0.42762E-04  9568   0.449E-03 0.177E-05
CGA:  22    -0.312427061607E+03   -0.18419E-04   -0.18416E-04  9568   0.355E-03 0.293E-06
CGA:  23    -0.312427091763E+03   -0.30156E-04   -0.30232E-04  9568   0.701E-03-0.155E-05
CGA:  24    -0.312427103535E+03   -0.11772E-04   -0.11819E-04  9568   0.243E-03 0.126E-05
CGA:  25    -0.312427114389E+03   -0.10855E-04   -0.10855E-04  9568   0.321E-03 0.118E-06
CGA:  26    -0.312427123518E+03   -0.91288E-05   -0.91295E-05  9568   0.152E-03-0.439E-07
  83 F= -.31242712E+03 E0= -.31240508E+03  d E =0.187787E-03  mag=    21.5975
       N       E                     dE             d eps       ncg     rms          ort
SDA:   1    -0.312340743194E+03    0.86371E-01    0.00000E+00  9568   0.163E+01 0.000E+00
CGA:   2    -0.312360872642E+03   -0.20129E-01   -0.21112E-01  9568   0.403E+00-0.593E-01
CGA:   3    -0.312373948775E+03   -0.13076E-01   -0.13018E-01  9568   0.384E+00-0.706E-02
CGA:   4    -0.312400260677E+03   -0.26312E-01   -0.26089E-01  9568   0.247E+00 0.667E-02
CGA:   5    -0.312406890064E+03   -0.66294E-02   -0.65598E-02  9568   0.223E+00-0.164E-03
CGA:   6    -0.312412850856E+03   -0.59608E-02   -0.59911E-02  9568   0.124E+00 0.284E-03
CGA:   7    -0.312420079060E+03   -0.72282E-02   -0.72057E-02  9568   0.118E+00 0.924E-03
CGA:   8    -0.312422959316E+03   -0.28803E-02   -0.29070E-02  9568   0.556E-01-0.917E-04
CGA:   9    -0.312424795582E+03   -0.18363E-02   -0.18339E-02  9568   0.323E-01-0.194E-03
CGA:  10    -0.312425459536E+03   -0.66395E-03   -0.67178E-03  9568   0.197E-01-0.126E-03
CGA:  11    -0.312426323666E+03   -0.86413E-03   -0.86458E-03  9568   0.123E-01-0.393E-04
CGA:  12    -0.312426770648E+03   -0.44698E-03   -0.44698E-03  9568   0.771E-02 0.213E-05
CGA:  13    -0.312426979998E+03   -0.20935E-03   -0.20899E-03  9568   0.693E-02-0.784E-05
CGA:  14    -0.312427158908E+03   -0.17891E-03   -0.17915E-03  9568   0.200E-02 0.618E-05
CGA:  15    -0.312427247915E+03   -0.89007E-04   -0.89083E-04  9568   0.253E-02-0.792E-05
CGA:  16    -0.312427329958E+03   -0.82043E-04   -0.82071E-04  9568   0.179E-02 0.425E-05
CGA:  17    -0.312427398716E+03   -0.68757E-04   -0.68766E-04  9568   0.193E-02-0.284E-05
CGA:  18    -0.312427434011E+03   -0.35295E-04   -0.35389E-04  9568   0.349E-03-0.214E-06
CGA:  19    -0.312427461698E+03   -0.27687E-04   -0.27731E-04  9568   0.768E-03-0.982E-06
CGA:  20    -0.312427488447E+03   -0.26748E-04   -0.26753E-04  9568   0.650E-03 0.114E-05
CGA:  21    -0.312427501784E+03   -0.13338E-04   -0.13313E-04  9568   0.285E-03-0.123E-05
CGA:  22    -0.312427516678E+03   -0.14894E-04   -0.14857E-04  9568   0.261E-03 0.227E-05
CGA:  23    -0.312427523870E+03   -0.71915E-05   -0.71777E-05  9568   0.177E-03-0.111E-05
  84 F= -.31242752E+03 E0= -.31240551E+03  d E =-.400352E-03  mag=    21.5985
       N       E                     dE             d eps       ncg     rms          ort
SDA:   1    -0.312268620385E+03    0.15890E+00    0.00000E+00  9568   0.354E+01 0.000E+00
CGA:   2    -0.312302402588E+03   -0.33782E-01   -0.41291E-01  9568   0.585E+00-0.498E+00
CGA:   3    -0.312328841267E+03   -0.26439E-01   -0.26698E-01  9568   0.112E+01-0.122E-01
CGA:   4    -0.312371259422E+03   -0.42418E-01   -0.42360E-01  9568   0.104E+01 0.187E-01
CGA:   5    -0.312399600700E+03   -0.28341E-01   -0.27877E-01  9568   0.380E+00-0.389E-02
CGA:   6    -0.312407656321E+03   -0.80556E-02   -0.82762E-02  9568   0.169E+00-0.244E-02
CGA:   7    -0.312414655382E+03   -0.69991E-02   -0.70243E-02  9568   0.223E+00-0.266E-02
CGA:   8    -0.312421183334E+03   -0.65280E-02   -0.65519E-02  9568   0.953E-01 0.122E-02
CGA:   9    -0.312423391795E+03   -0.22085E-02   -0.21933E-02  9568   0.474E-01 0.532E-04
CGA:  10    -0.312425064608E+03   -0.16728E-02   -0.16727E-02  9568   0.347E-01 0.273E-03
CGA:  11    -0.312425902216E+03   -0.83761E-03   -0.83498E-03  9568   0.161E-01-0.150E-04
CGA:  12    -0.312426448215E+03   -0.54600E-03   -0.54608E-03  9568   0.139E-01 0.761E-04
CGA:  13    -0.312426883851E+03   -0.43564E-03   -0.43525E-03  9568   0.102E-01-0.501E-04
CGA:  14    -0.312427192367E+03   -0.30852E-03   -0.30873E-03  9568   0.517E-02 0.266E-04
CGA:  15    -0.312427299188E+03   -0.10682E-03   -0.10658E-03  9568   0.168E-02-0.200E-05
CGA:  16    -0.312427371675E+03   -0.72486E-04   -0.72406E-04  9568   0.286E-02 0.743E-05
CGA:  17    -0.312427481667E+03   -0.10999E-03   -0.11004E-03  9568   0.183E-02-0.770E-05
CGA:  18    -0.312427524134E+03   -0.42466E-04   -0.42542E-04  9568   0.817E-03 0.286E-05
CGA:  19    -0.312427548338E+03   -0.24204E-04   -0.24191E-04  9568   0.525E-03-0.214E-05
CGA:  20    -0.312427566526E+03   -0.18188E-04   -0.18185E-04  9568   0.603E-03 0.216E-05
CGA:  21    -0.312427591232E+03   -0.24706E-04   -0.24728E-04  9568   0.488E-03-0.271E-05
CGA:  22    -0.312427604045E+03   -0.12813E-04   -0.12829E-04  9568   0.342E-03 0.198E-05
CGA:  23    -0.312427618689E+03   -0.14643E-04   -0.14655E-04  9568   0.353E-03-0.110E-05
CGA:  24    -0.312427627821E+03   -0.91325E-05   -0.91473E-05  9568   0.191E-03 0.144E-05
  85 F= -.31242763E+03 E0= -.31240562E+03  d E =-.103952E-03  mag=    21.5974
