       N       E                     dE             d eps       ncg     rms          rms(c)
DAV:   1     0.711441136565E+04    0.71144E+04   -0.28811E+05 39856   0.157E+03
DAV:   2     0.493494183207E+03   -0.66209E+04   -0.61604E+04 39048   0.476E+02
DAV:   3    -0.372654861901E+03   -0.86615E+03   -0.85046E+03 41016   0.185E+02
DAV:   4    -0.416590374466E+03   -0.43936E+02   -0.43423E+02 49048   0.363E+01
DAV:   5    -0.419159329900E+03   -0.25690E+01   -0.25451E+01 64088   0.667E+00    0.592E+01
DAV:   6    -0.367735425129E+03    0.51424E+02   -0.23569E+02 43152   0.327E+01    0.419E+01
DAV:   7    -0.372784066090E+03   -0.50486E+01   -0.23175E+01 41736   0.121E+01    0.310E+01
DAV:   8    -0.374353146271E+03   -0.15691E+01   -0.23277E+00 47408   0.354E+00    0.180E+01
DAV:   9    -0.377988174574E+03   -0.36350E+01   -0.23879E+00 41472   0.352E+00    0.440E+00
DAV:  10    -0.379397228082E+03   -0.14091E+01   -0.59352E-01 43184   0.136E+00    0.299E+00
DAV:  11    -0.381018621108E+03   -0.16214E+01   -0.64589E-01 43880   0.110E+00    0.228E+00
DAV:  12    -0.383115545973E+03   -0.20969E+01   -0.18146E+00 41400   0.167E+00    0.118E+00
DAV:  13    -0.383545735846E+03   -0.43019E+00   -0.40694E-01 43040   0.896E-01    0.536E-01
DAV:  14    -0.383575841100E+03   -0.30105E-01   -0.29259E-02 41336   0.340E-01    0.286E-01
DAV:  15    -0.383574500288E+03    0.13408E-02   -0.57133E-03 42232   0.177E-01    0.168E-01
DAV:  16    -0.383573806411E+03    0.69388E-03   -0.21084E-03 41712   0.113E-01    0.732E-02
DAV:  17    -0.383573667714E+03    0.13870E-03   -0.40090E-04 42920   0.456E-02    0.374E-02
DAV:  18    -0.383573638519E+03    0.29195E-04   -0.16688E-04 39808   0.289E-02    0.200E-02
DAV:  19    -0.383573621527E+03    0.16992E-04   -0.32423E-05 34920   0.160E-02    0.119E-02
DAV:  20    -0.383573618331E+03    0.31958E-05   -0.10663E-05 29304   0.103E-02
   1 F= -.38357362E+03 E0= -.38357362E+03  d E =-.383574E+03  mag=    60.0000
       N       E                     dE             d eps       ncg     rms          rms(c)
DAV:   1    -0.383608390092E+03   -0.34769E-01   -0.42229E-02 42392   0.365E-01    0.488E-02
DAV:   2    -0.383608532230E+03   -0.14214E-03   -0.15494E-03 41544   0.633E-02    0.293E-02
DAV:   3    -0.383608530577E+03    0.16531E-05   -0.41989E-05 39240   0.112E-02    0.180E-02
DAV:   4    -0.383608527159E+03    0.34179E-05   -0.52073E-06 25296   0.599E-03
   2 F= -.38360853E+03 E0= -.38360853E+03  d E =-.349088E-01  mag=    60.0000
       N       E                     dE             d eps       ncg     rms          rms(c)
DAV:   1    -0.384507048299E+03   -0.89852E+00   -0.95508E+01 41520   0.174E+01    0.231E+00
DAV:   2    -0.384909041928E+03   -0.40199E+00   -0.42288E+00 41768   0.310E+00    0.141E+00
DAV:   3    -0.384904567056E+03    0.44749E-02   -0.10740E-01 52024   0.545E-01    0.859E-01
DAV:   4    -0.384897014010E+03    0.75530E-02   -0.14156E-02 50560   0.271E-01    0.522E-01
DAV:   5    -0.384893588494E+03    0.34255E-02   -0.56110E-03 49512   0.287E-01    0.118E-01
DAV:   6    -0.384893783955E+03   -0.19546E-03   -0.49918E-03 44992   0.149E-01    0.776E-02
DAV:   7    -0.384893767440E+03    0.16515E-04   -0.39197E-04 47760   0.438E-02    0.466E-02
DAV:   8    -0.384893734445E+03    0.32996E-04   -0.54825E-05 44440   0.262E-02    0.310E-02
DAV:   9    -0.384893699537E+03    0.34908E-04   -0.28055E-05 37992   0.481E-02    0.120E-02
DAV:  10    -0.384893691851E+03    0.76860E-05   -0.43109E-05 40272   0.276E-02
   3 F= -.38489369E+03 E0= -.38489369E+03  d E =-.128516E+01  mag=    60.0000
       N       E                     dE             d eps       ncg     rms          rms(c)
DAV:   1    -0.383837885772E+03    0.10558E+01   -0.33799E+02 41968   0.399E+01    0.613E+00
DAV:   2    -0.386196605700E+03   -0.23587E+01   -0.23490E+01 41808   0.727E+00    0.369E+00
DAV:   3    -0.386179471856E+03    0.17134E-01   -0.52687E-01 51352   0.136E+00    0.184E+00
DAV:   4    -0.386157992342E+03    0.21480E-01   -0.98179E-02 48792   0.559E-01    0.118E+00
DAV:   5    -0.386144432917E+03    0.13559E-01   -0.14692E-02 51552   0.393E-01    0.468E-01
DAV:   6    -0.386142939519E+03    0.14934E-02   -0.12634E-02 48288   0.264E-01    0.152E-01
DAV:   7    -0.386143179100E+03   -0.23958E-03   -0.28610E-03 47080   0.935E-02    0.939E-02
DAV:   8    -0.386143152328E+03    0.26772E-04   -0.36080E-04 48536   0.374E-02    0.562E-02
DAV:   9    -0.386143130984E+03    0.21344E-04   -0.69447E-05 43568   0.379E-02    0.223E-02
DAV:  10    -0.386143127735E+03    0.32488E-05   -0.43733E-05 41816   0.255E-02
   4 F= -.38614313E+03 E0= -.38614313E+03  d E =-.124944E+01  mag=    60.0000
       N       E                     dE             d eps       ncg     rms          rms(c)
DAV:   1    -0.384493937084E+03    0.16492E+01   -0.17818E+02 42744   0.410E+01    0.732E+00
DAV:   2    -0.386524922717E+03   -0.20310E+01   -0.18721E+01 40392   0.739E+00    0.444E+00
DAV:   3    -0.386589747989E+03   -0.64825E-01   -0.52799E-01 50592   0.134E+00    0.152E+00
DAV:   4    -0.386585248516E+03    0.44995E-02   -0.43148E-02 50608   0.380E-01    0.106E+00
DAV:   5    -0.386579875619E+03    0.53729E-02   -0.43539E-03 51272   0.256E-01    0.568E-01
DAV:   6    -0.386578379028E+03    0.14966E-02   -0.59256E-03 48464   0.259E-01    0.107E-01
DAV:   7    -0.386578621091E+03   -0.24206E-03   -0.28235E-03 43296   0.107E-01    0.804E-02
DAV:   8    -0.386578621944E+03   -0.85318E-06   -0.18705E-04 51576   0.265E-02    0.487E-02
DAV:   9    -0.386578616605E+03    0.53387E-05   -0.29126E-05 39136   0.202E-02
   5 F= -.38657862E+03 E0= -.38657862E+03  d E =-.435489E+00  mag=    60.0000
       N       E                     dE             d eps       ncg     rms          rms(c)
DAV:   1    -0.384451458651E+03    0.21272E+01   -0.20726E+02 42776   0.467E+01    0.795E+00
DAV:   2    -0.386784092555E+03   -0.23326E+01   -0.21661E+01 39320   0.843E+00    0.493E+00
DAV:   3    -0.386854299808E+03   -0.70207E-01   -0.51244E-01 48056   0.141E+00    0.163E+00
DAV:   4    -0.386849840339E+03    0.44595E-02   -0.40548E-02 51680   0.388E-01    0.111E+00
DAV:   5    -0.386844485043E+03    0.53553E-02   -0.50135E-03 49536   0.263E-01    0.582E-01
DAV:   6    -0.386843151051E+03    0.13340E-02   -0.53699E-03 47352   0.246E-01    0.118E-01
DAV:   7    -0.386843370641E+03   -0.21959E-03   -0.23546E-03 43392   0.102E-01    0.704E-02
DAV:   8    -0.386843371334E+03   -0.69318E-06   -0.14218E-04 50904   0.284E-02    0.438E-02
DAV:   9    -0.386843371026E+03    0.30820E-06   -0.27292E-05 39024   0.156E-02
   6 F= -.38684337E+03 E0= -.38684337E+03  d E =-.264754E+00  mag=    60.0000
       N       E                     dE             d eps       ncg     rms          rms(c)
DAV:   1    -0.384807680058E+03    0.20357E+01   -0.40481E+02 41984   0.533E+01    0.655E+00
DAV:   2    -0.387067530392E+03   -0.22599E+01   -0.22439E+01 41056   0.959E+00    0.364E+00
DAV:   3    -0.387068712443E+03   -0.11821E-02   -0.47637E-01 46296   0.158E+00    0.180E+00
DAV:   4    -0.387051036094E+03    0.17676E-01   -0.78711E-02 49312   0.587E-01    0.121E+00
DAV:   5    -0.387034852182E+03    0.16184E-01   -0.11609E-02 48752   0.459E-01    0.566E-01
DAV:   6    -0.387031359791E+03    0.34924E-02   -0.15313E-02 46536   0.378E-01    0.166E-01
DAV:   7    -0.387031681527E+03   -0.32174E-03   -0.54458E-03 45624   0.154E-01    0.115E-01
DAV:   8    -0.387031637434E+03    0.44093E-04   -0.43601E-04 51320   0.403E-02    0.747E-02
DAV:   9    -0.387031549735E+03    0.87699E-04   -0.97005E-05 48672   0.573E-02    0.341E-02
DAV:  10    -0.387031519168E+03    0.30566E-04   -0.66125E-05 47144   0.496E-02    0.170E-02
DAV:  11    -0.387031519061E+03    0.10745E-06   -0.85395E-05 42592   0.261E-02
   7 F= -.38703152E+03 E0= -.38703152E+03  d E =-.188148E+00  mag=    60.0000
       N       E                     dE             d eps       ncg     rms          rms(c)
DAV:   1    -0.386498899075E+03    0.53262E+00   -0.10361E+02 41864   0.265E+01    0.344E+00
DAV:   2    -0.387118712786E+03   -0.61981E+00   -0.62505E+00 40232   0.489E+00    0.184E+00
DAV:   3    -0.387127002972E+03   -0.82902E-02   -0.18955E-01 53552   0.844E-01    0.954E-01
DAV:   4    -0.387121400988E+03    0.56020E-02   -0.16588E-02 50864   0.315E-01    0.610E-01
DAV:   5    -0.387115760380E+03    0.56406E-02   -0.48021E-03 50272   0.407E-01    0.185E-01
DAV:   6    -0.387115473271E+03    0.28711E-03   -0.56593E-03 46728   0.236E-01    0.763E-02
DAV:   7    -0.387115525732E+03   -0.52461E-04   -0.17697E-03 46640   0.936E-02    0.684E-02
DAV:   8    -0.387115455865E+03    0.69866E-04   -0.13353E-04 49088   0.326E-02    0.396E-02
DAV:   9    -0.387115344110E+03    0.11176E-03   -0.55323E-05 45416   0.743E-02    0.174E-02
DAV:  10    -0.387115296404E+03    0.47706E-04   -0.70334E-05 45256   0.647E-02    0.154E-02
DAV:  11    -0.387115292372E+03    0.40323E-05   -0.11611E-04 42936   0.377E-02    0.105E-02
DAV:  12    -0.387115295774E+03   -0.34019E-05   -0.45535E-05 38240   0.121E-02
   8 F= -.38711530E+03 E0= -.38711530E+03  d E =-.837767E-01  mag=    60.0000
       N       E                     dE             d eps       ncg     rms          rms(c)
DAV:   1    -0.387015211013E+03    0.10008E+00   -0.19073E+01 41792   0.132E+01    0.187E+00
DAV:   2    -0.387169647198E+03   -0.15444E+00   -0.14531E+00 39040   0.234E+00    0.867E-01
DAV:   3    -0.387174189850E+03   -0.45427E-02   -0.40630E-02 50424   0.378E-01    0.369E-01
DAV:   4    -0.387173670511E+03    0.51934E-03   -0.30690E-03 52800   0.113E-01    0.273E-01
DAV:   5    -0.387172914010E+03    0.75650E-03   -0.45017E-04 47904   0.131E-01    0.129E-01
DAV:   6    -0.387172764187E+03    0.14982E-03   -0.69006E-04 48344   0.114E-01    0.275E-02
DAV:   7    -0.387172787959E+03   -0.23772E-04   -0.46595E-04 44544   0.520E-02    0.277E-02
DAV:   8    -0.387172780783E+03    0.71761E-05   -0.29375E-05 36392   0.141E-02
   9 F= -.38717278E+03 E0= -.38717278E+03  d E =-.574850E-01  mag=    60.0000
       N       E                     dE             d eps       ncg     rms          rms(c)
DAV:   1    -0.383942687601E+03    0.32301E+01   -0.42914E+02 41656   0.575E+01    0.765E+00
DAV:   2    -0.386963595285E+03   -0.30209E+01   -0.30596E+01 39984   0.107E+01    0.420E+00
DAV:   3    -0.386982647461E+03   -0.19052E-01   -0.74036E-01 49904   0.189E+00    0.205E+00
DAV:   4    -0.386955512606E+03    0.27135E-01   -0.10774E-01 50480   0.769E-01    0.131E+00
DAV:   5    -0.386932313223E+03    0.23199E-01   -0.13931E-02 47824   0.806E-01    0.555E-01
DAV:   6    -0.386926608654E+03    0.57046E-02   -0.21167E-02 47712   0.691E-01    0.146E-01
DAV:   7    -0.386927118462E+03   -0.50981E-03   -0.15556E-02 45560   0.320E-01    0.169E-01
DAV:   8    -0.386926945514E+03    0.17295E-03   -0.17375E-03 49232   0.767E-02    0.136E-01
DAV:   9    -0.386926588060E+03    0.35745E-03   -0.17234E-04 54848   0.859E-02    0.893E-02
DAV:  10    -0.386926115668E+03    0.47239E-03   -0.37054E-04 51344   0.176E-01    0.526E-02
DAV:  11    -0.386925942214E+03    0.17345E-03   -0.34594E-04 47728   0.137E-01    0.585E-02
DAV:  12    -0.386925932723E+03    0.94905E-05   -0.50865E-04 45264   0.677E-02    0.382E-02
DAV:  13    -0.386925939873E+03   -0.71501E-05   -0.17022E-04 41368   0.255E-02    0.163E-02
DAV:  14    -0.386925931239E+03    0.86341E-05   -0.66739E-06 28512   0.240E-02
  10 F= -.38692593E+03 E0= -.38692593E+03  d E =0.246850E+00  mag=    60.0000
       N       E                     dE             d eps       ncg     rms          rms(c)
DAV:   1    -0.384818819859E+03    0.21071E+01   -0.28501E+02 41416   0.402E+01    0.557E+00
DAV:   2    -0.387324495167E+03   -0.25057E+01   -0.26672E+01 39632   0.895E+00    0.321E+00
DAV:   3    -0.387319765804E+03    0.47294E-02   -0.72378E-01 55176   0.179E+00    0.181E+00
DAV:   4    -0.387289633317E+03    0.30132E-01   -0.93880E-02 51096   0.902E-01    0.111E+00
DAV:   5    -0.387267382281E+03    0.22251E-01   -0.19084E-02 50560   0.957E-01    0.346E-01
DAV:   6    -0.387263849511E+03    0.35328E-02   -0.24998E-02 48072   0.634E-01    0.140E-01
DAV:   7    -0.387263955845E+03   -0.10633E-03   -0.12111E-02 46200   0.274E-01    0.162E-01
DAV:   8    -0.387263551603E+03    0.40424E-03   -0.13032E-03 48056   0.838E-02    0.103E-01
DAV:   9    -0.387262702421E+03    0.84918E-03   -0.53582E-04 55256   0.220E-01    0.483E-02
DAV:  10    -0.387262456691E+03    0.24573E-03   -0.49864E-04 48024   0.144E-01    0.463E-02
DAV:  11    -0.387262425498E+03    0.31193E-04   -0.61476E-04 46040   0.837E-02    0.331E-02
DAV:  12    -0.387262431459E+03   -0.59614E-05   -0.22010E-04 42144   0.351E-02    0.172E-02
DAV:  13    -0.387262417256E+03    0.14203E-04   -0.14548E-05 32640   0.359E-02    0.103E-02
DAV:  14    -0.387262415510E+03    0.17464E-05   -0.28832E-05 38896   0.248E-02
  11 F= -.38726242E+03 E0= -.38726242E+03  d E =-.336484E+00  mag=    60.0000
       N       E                     dE             d eps       ncg     rms          rms(c)
DAV:   1    -0.387258920603E+03    0.34967E-02   -0.10881E+01 41704   0.982E+00    0.135E+00
DAV:   2    -0.387332290259E+03   -0.73370E-01   -0.76703E-01 39664   0.177E+00    0.668E-01
DAV:   3    -0.387333335158E+03   -0.10449E-02   -0.26093E-02 50744   0.372E-01    0.350E-01
DAV:   4    -0.387332204734E+03    0.11304E-02   -0.26893E-03 52088   0.171E-01    0.210E-01
DAV:   5    -0.387331164264E+03    0.10405E-02   -0.58874E-04 51600   0.227E-01    0.620E-02
DAV:   6    -0.387331016790E+03    0.14747E-03   -0.11923E-03 46592   0.132E-01    0.337E-02
DAV:   7    -0.387331011515E+03    0.52747E-05   -0.58098E-04 44144   0.592E-02    0.371E-02
DAV:   8    -0.387330981619E+03    0.29896E-04   -0.46988E-05 42336   0.224E-02    0.214E-02
DAV:   9    -0.387330925073E+03    0.56547E-04   -0.18752E-05 33160   0.590E-02    0.931E-03
DAV:  10    -0.387330904730E+03    0.20343E-04   -0.42658E-05 42168   0.503E-02    0.956E-03
DAV:  11    -0.387330907744E+03   -0.30135E-05   -0.69662E-05 41312   0.213E-02
  12 F= -.38733091E+03 E0= -.38733091E+03  d E =-.684922E-01  mag=    60.0000
       N       E                     dE             d eps       ncg     rms          rms(c)
DAV:   1    -0.387236868942E+03    0.94036E-01   -0.15973E+01 41432   0.116E+01    0.163E+00
DAV:   2    -0.387348917416E+03   -0.11205E+00   -0.11444E+00 39792   0.208E+00    0.803E-01
DAV:   3    -0.387350851560E+03   -0.19341E-02   -0.36356E-02 49832   0.410E-01    0.400E-01
DAV:   4    -0.387349532612E+03    0.13189E-02   -0.37927E-03 52256   0.183E-01    0.247E-01
DAV:   5    -0.387348318535E+03    0.12141E-02   -0.70204E-04 49136   0.237E-01    0.779E-02
DAV:   6    -0.387348155980E+03    0.16255E-03   -0.12875E-03 46160   0.145E-01    0.353E-02
DAV:   7    -0.387348163841E+03   -0.78607E-05   -0.72940E-04 44240   0.667E-02    0.415E-02
DAV:   8    -0.387348141955E+03    0.21885E-04   -0.67085E-05 44064   0.200E-02    0.267E-02
DAV:   9    -0.387348091084E+03    0.50871E-04   -0.14727E-05 31544   0.509E-02    0.130E-02
DAV:  10    -0.387348064502E+03    0.26582E-04   -0.37836E-05 41392   0.546E-02    0.970E-03
DAV:  11    -0.387348064367E+03    0.13537E-06   -0.56043E-05 40440   0.234E-02
  13 F= -.38734806E+03 E0= -.38734806E+03  d E =-.171566E-01  mag=    60.0000
       N       E                     dE             d eps       ncg     rms          rms(c)
DAV:   1    -0.387261611718E+03    0.86453E-01   -0.11185E+01 41224   0.997E+00    0.140E+00
DAV:   2    -0.387348903420E+03   -0.87292E-01   -0.83071E-01 39288   0.180E+00    0.624E-01
DAV:   3    -0.387351406532E+03   -0.25031E-02   -0.21765E-02 48064   0.280E-01    0.280E-01
DAV:   4    -0.387351070685E+03    0.33585E-03   -0.15381E-03 53624   0.813E-02    0.206E-01
DAV:   5    -0.387350634535E+03    0.43615E-03   -0.31176E-04 47624   0.987E-02    0.942E-02
DAV:   6    -0.387350586401E+03    0.48134E-04   -0.39589E-04 49040   0.710E-02    0.207E-02
DAV:   7    -0.387350595899E+03   -0.94984E-05   -0.19258E-04 44760   0.337E-02    0.214E-02
DAV:   8    -0.387350593459E+03    0.24402E-05   -0.10823E-05 24480   0.851E-03
  14 F= -.38735059E+03 E0= -.38735059E+03  d E =-.252909E-02  mag=    60.0000
       N       E                     dE             d eps       ncg     rms          rms(c)
DAV:   1    -0.380512303796E+03    0.68383E+01   -0.55211E+02 42088   0.749E+01    0.111E+01
DAV:   2    -0.386682795995E+03   -0.61705E+01   -0.61405E+01 38920   0.150E+01    0.745E+00
DAV:   3    -0.386791497078E+03   -0.10870E+00   -0.16656E+00 49992   0.282E+00    0.285E+00
DAV:   4    -0.386745200836E+03    0.46296E-01   -0.14339E-01 50608   0.105E+00    0.184E+00
DAV:   5    -0.386697323488E+03    0.47877E-01   -0.30591E-02 51960   0.121E+00    0.792E-01
DAV:   6    -0.386679413819E+03    0.17910E-01   -0.41845E-02 51392   0.113E+00    0.211E-01
DAV:   7    -0.386679893994E+03   -0.48017E-03   -0.41387E-02 45280   0.503E-01    0.228E-01
DAV:   8    -0.386679196878E+03    0.69712E-03   -0.45577E-03 50840   0.125E-01    0.164E-01
DAV:   9    -0.386677533207E+03    0.16637E-02   -0.10525E-03 53080   0.206E-01    0.103E-01
DAV:  10    -0.386676519280E+03    0.10139E-02   -0.10171E-03 48928   0.239E-01    0.744E-02
DAV:  11    -0.386676322481E+03    0.19680E-03   -0.12917E-03 47720   0.142E-01    0.620E-02
DAV:  12    -0.386676367029E+03   -0.44548E-04   -0.10497E-03 42856   0.677E-02    0.303E-02
DAV:  13    -0.386676347619E+03    0.19410E-04   -0.53687E-05 45136   0.341E-02    0.186E-02
DAV:  14    -0.386676338052E+03    0.95672E-05   -0.26556E-05 37064   0.342E-02
  15 F= -.38667634E+03 E0= -.38667633E+03  d E =0.674255E+00  mag=    59.9999
       N       E                     dE             d eps       ncg     rms          rms(c)
DAV:   1    -0.381657794238E+03    0.50186E+01   -0.35895E+02 42648   0.688E+01    0.121E+01
DAV:   2    -0.387374319961E+03   -0.57165E+01   -0.54982E+01 39944   0.136E+01    0.864E+00
DAV:   3    -0.387531313088E+03   -0.15699E+00   -0.16695E+00 50696   0.285E+00    0.289E+00
DAV:   4    -0.387490027001E+03    0.41286E-01   -0.11939E-01 51664   0.111E+00    0.194E+00
DAV:   5    -0.387440607164E+03    0.49420E-01   -0.25757E-02 55344   0.135E+00    0.900E-01
DAV:   6    -0.387414220984E+03    0.26386E-01   -0.40313E-02 49968   0.159E+00    0.217E-01
DAV:   7    -0.387416156185E+03   -0.19352E-02   -0.67204E-02 45032   0.671E-01    0.275E-01
DAV:   8    -0.387415485810E+03    0.67038E-03   -0.80423E-03 48144   0.167E-01    0.236E-01
DAV:   9    -0.387414050325E+03    0.14355E-02   -0.66127E-04 56200   0.173E-01    0.158E-01
DAV:  10    -0.387411814207E+03    0.22361E-02   -0.20315E-03 53744   0.431E-01    0.117E-01
DAV:  11    -0.387411302290E+03    0.51192E-03   -0.16961E-03 47848   0.283E-01    0.131E-01
DAV:  12    -0.387411340020E+03   -0.37730E-04   -0.25744E-03 45584   0.130E-01    0.525E-02
DAV:  13    -0.387411371082E+03   -0.31062E-04   -0.45388E-04 42272   0.430E-02    0.291E-02
DAV:  14    -0.387411353046E+03    0.18036E-04   -0.29737E-05 36608   0.461E-02    0.211E-02
DAV:  15    -0.387411353729E+03   -0.68274E-06   -0.42117E-05 41760   0.289E-02
  16 F= -.38741135E+03 E0= -.38741135E+03  d E =-.735016E+00  mag=    60.0000
       N       E                     dE             d eps       ncg     rms          rms(c)
DAV:   1    -0.387328235087E+03    0.83118E-01   -0.78288E+00 42360   0.115E+01    0.181E+00
DAV:   2    -0.387444461055E+03   -0.11623E+00   -0.10798E+00 39848   0.210E+00    0.838E-01
DAV:   3    -0.387448740545E+03   -0.42795E-02   -0.39832E-02 44416   0.486E-01    0.375E-01
DAV:   4    -0.387448124489E+03    0.61606E-03   -0.32555E-03 53408   0.166E-01    0.258E-01
DAV:   5    -0.387446872441E+03    0.12520E-02   -0.43879E-04 55424   0.234E-01    0.132E-01
DAV:   6    -0.387446107354E+03    0.76509E-03   -0.90524E-04 51336   0.299E-01    0.438E-02
DAV:   7    -0.387446143580E+03   -0.36226E-04   -0.18737E-03 45384   0.118E-01    0.414E-02
DAV:   8    -0.387446143582E+03   -0.21319E-08   -0.32643E-04 42904   0.344E-02    0.387E-02
DAV:   9    -0.387446112576E+03    0.31006E-04   -0.22726E-05 33864   0.259E-02    0.248E-02
DAV:  10    -0.387446055930E+03    0.56646E-04   -0.28751E-05 37216   0.751E-02    0.103E-02
DAV:  11    -0.387446045497E+03    0.10433E-04   -0.59512E-05 42920   0.505E-02    0.153E-02
DAV:  12    -0.387446051454E+03   -0.59575E-05   -0.75410E-05 42744   0.169E-02
  17 F= -.38744605E+03 E0= -.38744605E+03  d E =-.346977E-01  mag=    60.0000
       N       E                     dE             d eps       ncg     rms          rms(c)
DAV:   1    -0.387359324055E+03    0.86721E-01   -0.13249E+01 42032   0.118E+01    0.155E+00
DAV:   2    -0.387462029733E+03   -0.10271E+00   -0.97768E-01 40848   0.208E+00    0.722E-01
DAV:   3    -0.387464537861E+03   -0.25081E-02   -0.29325E-02 48184   0.404E-01    0.338E-01
DAV:   4    -0.387463913975E+03    0.62389E-03   -0.26102E-03 52288   0.136E-01    0.236E-01
DAV:   5    -0.387462878984E+03    0.10350E-02   -0.47451E-04 50992   0.190E-01    0.113E-01
DAV:   6    -0.387462489485E+03    0.38950E-03   -0.84849E-04 50344   0.193E-01    0.377E-02
DAV:   7    -0.387462530731E+03   -0.41246E-04   -0.11338E-03 45608   0.830E-02    0.362E-02
DAV:   8    -0.387462521323E+03    0.94082E-05   -0.12911E-04 45392   0.227E-02    0.271E-02
DAV:   9    -0.387462493222E+03    0.28101E-04   -0.84930E-06 29376   0.300E-02    0.172E-02
DAV:  10    -0.387462466441E+03    0.26781E-04   -0.26920E-05 37224   0.524E-02    0.838E-03
DAV:  11    -0.387462465086E+03    0.13554E-05   -0.41720E-05 41248   0.264E-02
  18 F= -.38746247E+03 E0= -.38746247E+03  d E =-.164136E-01  mag=    60.0000
       N       E                     dE             d eps       ncg     rms          rms(c)
DAV:   1    -0.387311928455E+03    0.15054E+00   -0.28317E+01 41216   0.147E+01    0.167E+00
DAV:   2    -0.387459585832E+03   -0.14766E+00   -0.14570E+00 40904   0.255E+00    0.785E-01
DAV:   3    -0.387461428135E+03   -0.18423E-02   -0.33734E-02 50480   0.408E-01    0.401E-01
DAV:   4    -0.387460309731E+03    0.11184E-02   -0.33015E-03 50256   0.138E-01    0.278E-01
DAV:   5    -0.387459209188E+03    0.11005E-02   -0.86470E-04 49880   0.161E-01    0.108E-01
DAV:   6    -0.387459139087E+03    0.70102E-04   -0.10380E-03 48208   0.979E-02    0.302E-02
DAV:   7    -0.387459154669E+03   -0.15582E-04   -0.33301E-04 45088   0.423E-02    0.290E-02
DAV:   8    -0.387459148505E+03    0.61641E-05   -0.23300E-05 34168   0.118E-02
  19 F= -.38745915E+03 E0= -.38745915E+03  d E =0.331658E-02  mag=    60.0000
       N       E                     dE             d eps       ncg     rms          rms(c)
DAV:   1    -0.386307394017E+03    0.11518E+01   -0.16459E+02 41336   0.389E+01    0.478E+00
DAV:   2    -0.387409757010E+03   -0.11024E+01   -0.10648E+01 39240   0.693E+00    0.229E+00
DAV:   3    -0.387431933670E+03   -0.22177E-01   -0.24343E-01 45616   0.111E+00    0.103E+00
DAV:   4    -0.387426816900E+03    0.51168E-02   -0.21142E-02 50816   0.336E-01    0.733E-01
DAV:   5    -0.387421459551E+03    0.53573E-02   -0.33043E-03 49096   0.351E-01    0.345E-01
DAV:   6    -0.387420469870E+03    0.98968E-03   -0.50076E-03 50328   0.289E-01    0.775E-02
DAV:   7    -0.387420600806E+03   -0.13094E-03   -0.28017E-03 45040   0.126E-01    0.732E-02
DAV:   8    -0.387420565510E+03    0.35296E-04   -0.22712E-04 50256   0.311E-02    0.468E-02
DAV:   9    -0.387420493879E+03    0.71631E-04   -0.30369E-05 38112   0.491E-02    0.271E-02
DAV:  10    -0.387420447193E+03    0.46687E-04   -0.53670E-05 44960   0.640E-02    0.145E-02
DAV:  11    -0.387420443632E+03    0.35608E-05   -0.81536E-05 43496   0.320E-02
  20 F= -.38742044E+03 E0= -.38742044E+03  d E =0.387049E-01  mag=    60.0000
       N       E                     dE             d eps       ncg     rms          rms(c)
DAV:   1    -0.368032255139E+03    0.19388E+02   -0.10700E+03 42728   0.128E+02    0.233E+01
DAV:   2    -0.385692974329E+03   -0.17661E+02   -0.16174E+02 40288   0.252E+01    0.188E+01
DAV:   3    -0.386403914538E+03   -0.71094E+00   -0.62123E+00 45616   0.610E+00    0.620E+00
DAV:   4    -0.386305287879E+03    0.98627E-01   -0.49402E-01 51248   0.222E+00    0.447E+00
DAV:   5    -0.386176842912E+03    0.12844E+00   -0.67576E-02 51272   0.197E+00    0.273E+00
DAV:   6    -0.386047689294E+03    0.12915E+00   -0.12525E-01 53528   0.326E+00    0.545E-01
DAV:   7    -0.386052905650E+03   -0.52164E-02   -0.25360E-01 45672   0.115E+00    0.509E-01
DAV:   8    -0.386051224052E+03    0.16816E-02   -0.29789E-02 49024   0.310E-01    0.374E-01
DAV:   9    -0.386045857095E+03    0.53670E-02   -0.53766E-03 51128   0.270E-01    0.228E-01
DAV:  10    -0.386040626128E+03    0.52310E-02   -0.51079E-03 50344   0.498E-01    0.186E-01
DAV:  11    -0.386040331573E+03    0.29455E-03   -0.64490E-03 46464   0.215E-01    0.147E-01
DAV:  12    -0.386040382958E+03   -0.51385E-04   -0.24533E-03 46696   0.998E-02    0.746E-02
DAV:  13    -0.386040344843E+03    0.38115E-04   -0.24963E-04 47824   0.103E-01    0.847E-02
DAV:  14    -0.386040316227E+03    0.28616E-04   -0.26099E-04 49072   0.439E-02    0.449E-02
DAV:  15    -0.386040314780E+03    0.14470E-05   -0.49432E-05 37264   0.242E-02
  21 F= -.38604031E+03 E0= -.38603960E+03  d E =0.138013E+01  mag=    59.9858
       N       E                     dE             d eps       ncg     rms          rms(c)
DAV:   1    -0.382449825826E+03    0.35905E+01   -0.25718E+02 44128   0.680E+01    0.126E+01
DAV:   2    -0.387248521606E+03   -0.47987E+01   -0.43746E+01 40512   0.125E+01    0.855E+00
DAV:   3    -0.387410990330E+03   -0.16247E+00   -0.12392E+00 45976   0.265E+00    0.251E+00
DAV:   4    -0.387379680780E+03    0.31310E-01   -0.88590E-02 54784   0.103E+00    0.159E+00
DAV:   5    -0.387338324546E+03    0.41356E-01   -0.17763E-02 54408   0.120E+00    0.735E-01
DAV:   6    -0.387315162428E+03    0.23162E-01   -0.34274E-02 50456   0.136E+00    0.217E-01
DAV:   7    -0.387316751201E+03   -0.15888E-02   -0.54832E-02 45120   0.565E-01    0.263E-01
DAV:   8    -0.387315823853E+03    0.92735E-03   -0.54273E-03 54032   0.153E-01    0.193E-01
DAV:   9    -0.387313776024E+03    0.20478E-02   -0.99295E-04 55792   0.274E-01    0.112E-01
DAV:  10    -0.387312647722E+03    0.11283E-02   -0.18247E-03 48504   0.353E-01    0.974E-02
DAV:  11    -0.387312631969E+03    0.15753E-04   -0.19932E-03 45576   0.146E-01    0.864E-02
DAV:  12    -0.387312682931E+03   -0.50962E-04   -0.10603E-03 41928   0.599E-02    0.421E-02
DAV:  13    -0.387312662849E+03    0.20082E-04   -0.52410E-05 41952   0.594E-02    0.366E-02
DAV:  14    -0.387312653992E+03    0.88572E-05   -0.66375E-05 44344   0.379E-02
  22 F= -.38731265E+03 E0= -.38731265E+03  d E =-.127234E+01  mag=    59.9996
       N       E                     dE             d eps       ncg     rms          rms(c)
DAV:   1    -0.386529343030E+03    0.78332E+00   -0.57854E+01 43456   0.324E+01    0.529E+00
DAV:   2    -0.387473214066E+03   -0.94387E+00   -0.87050E+00 39960   0.590E+00    0.271E+00
DAV:   3    -0.387508035434E+03   -0.34821E-01   -0.31038E-01 44800   0.141E+00    0.104E+00
DAV:   4    -0.387501723371E+03    0.63121E-02   -0.22919E-02 52816   0.526E-01    0.700E-01
DAV:   5    -0.387491240343E+03    0.10483E-01   -0.32587E-03 55440   0.708E-01    0.358E-01
DAV:   6    -0.387484255442E+03    0.69849E-02   -0.81867E-03 52152   0.920E-01    0.118E-01
DAV:   7    -0.387484644749E+03   -0.38931E-03   -0.16890E-02 45072   0.354E-01    0.124E-01
DAV:   8    -0.387484620932E+03    0.23817E-04   -0.28439E-03 47928   0.108E-01    0.113E-01
DAV:   9    -0.387484351300E+03    0.26963E-03   -0.22360E-04 50712   0.769E-02    0.759E-02
DAV:  10    -0.387483883098E+03    0.46820E-03   -0.28289E-04 56112   0.226E-01    0.354E-02
DAV:  11    -0.387483817755E+03    0.65343E-04   -0.42897E-04 46472   0.125E-01    0.431E-02
DAV:  12    -0.387483857177E+03   -0.39421E-04   -0.49320E-04 43760   0.452E-02    0.211E-02
DAV:  13    -0.387483861086E+03   -0.39096E-05   -0.36849E-05 37584   0.983E-03
  23 F= -.38748386E+03 E0= -.38748386E+03  d E =-.171207E+00  mag=    60.0000
       N       E                     dE             d eps       ncg     rms          rms(c)
DAV:   1    -0.387472061181E+03    0.11796E-01   -0.56051E+00 41392   0.699E+00    0.827E-01
DAV:   2    -0.387504080922E+03   -0.32020E-01   -0.32045E-01 39848   0.125E+00    0.396E-01
DAV:   3    -0.387504551663E+03   -0.47074E-03   -0.96574E-03 50472   0.242E-01    0.211E-01
DAV:   4    -0.387504245103E+03    0.30656E-03   -0.78757E-04 52848   0.847E-02    0.145E-01
DAV:   5    -0.387503769828E+03    0.47528E-03   -0.22439E-04 48432   0.142E-01    0.618E-02
DAV:   6    -0.387503637783E+03    0.13204E-03   -0.41194E-04 48752   0.122E-01    0.253E-02
DAV:   7    -0.387503659530E+03   -0.21747E-04   -0.47567E-04 44816   0.508E-02    0.252E-02
DAV:   8    -0.387503651681E+03    0.78492E-05   -0.32331E-05 36096   0.136E-02
  24 F= -.38750365E+03 E0= -.38750365E+03  d E =-.197906E-01  mag=    60.0000
       N       E                     dE             d eps       ncg     rms          rms(c)
DAV:   1    -0.387315871716E+03    0.18779E+00   -0.49952E+01 41896   0.178E+01    0.182E+00
DAV:   2    -0.387521396876E+03   -0.20553E+00   -0.21113E+00 40208   0.309E+00    0.938E-01
DAV:   3    -0.387520941790E+03    0.45509E-03   -0.46347E-02 51048   0.500E-01    0.532E-01
DAV:   4    -0.387518643186E+03    0.22986E-02   -0.65400E-03 51696   0.201E-01    0.347E-01
DAV:   5    -0.387516412201E+03    0.22310E-02   -0.18143E-03 50552   0.243E-01    0.113E-01
DAV:   6    -0.387516273793E+03    0.13841E-03   -0.21957E-03 47040   0.148E-01    0.423E-02
DAV:   7    -0.387516302469E+03   -0.28676E-04   -0.71366E-04 44680   0.601E-02    0.431E-02
DAV:   8    -0.387516284541E+03    0.17928E-04   -0.55846E-05 43776   0.170E-02    0.267E-02
DAV:   9    -0.387516251321E+03    0.33220E-04   -0.16014E-05 31160   0.351E-02    0.127E-02
DAV:  10    -0.387516232912E+03    0.18409E-04   -0.21476E-05 36480   0.402E-02    0.104E-02
DAV:  11    -0.387516232170E+03    0.74186E-06   -0.39900E-05 40032   0.198E-02
  25 F= -.38751623E+03 E0= -.38751623E+03  d E =-.125805E-01  mag=    60.0000
       N       E                     dE             d eps       ncg     rms          rms(c)
DAV:   1    -0.387411837916E+03    0.10439E+00   -0.15128E+01 41696   0.115E+01    0.139E+00
DAV:   2    -0.387507141775E+03   -0.95304E-01   -0.92706E-01 39832   0.202E+00    0.639E-01
DAV:   3    -0.387509109787E+03   -0.19680E-02   -0.22517E-02 50648   0.311E-01    0.312E-01
DAV:   4    -0.387508581022E+03    0.52876E-03   -0.18163E-03 51984   0.983E-02    0.218E-01
DAV:   5    -0.387508054619E+03    0.52640E-03   -0.49702E-04 47584   0.118E-01    0.777E-02
DAV:   6    -0.387508057456E+03   -0.28370E-05   -0.50425E-04 47560   0.603E-02    0.229E-02
DAV:   7    -0.387508060000E+03   -0.25437E-05   -0.10847E-04 44664   0.256E-02    0.168E-02
DAV:   8    -0.387508056994E+03    0.30056E-05   -0.79282E-06 23480   0.900E-03
  26 F= -.38750806E+03 E0= -.38750806E+03  d E =0.817518E-02  mag=    60.0000
       N       E                     dE             d eps       ncg     rms          rms(c)
DAV:   1    -0.378983162092E+03    0.85249E+01   -0.92396E+02 41904   0.958E+01    0.128E+01
DAV:   2    -0.386922469817E+03   -0.79393E+01   -0.78596E+01 40328   0.186E+01    0.783E+00
DAV:   3    -0.386956895997E+03   -0.34426E-01   -0.21208E+00 48544   0.393E+00    0.344E+00
DAV:   4    -0.386884897635E+03    0.71998E-01   -0.37512E-01 49200   0.166E+00    0.230E+00
DAV:   5    -0.386815132740E+03    0.69765E-01   -0.33081E-02 52744   0.147E+00    0.124E+00
DAV:   6    -0.386767715322E+03    0.47417E-01   -0.62056E-02 53168   0.200E+00    0.335E-01
DAV:   7    -0.386769551451E+03   -0.18361E-02   -0.10196E-01 45936   0.829E-01    0.313E-01
DAV:   8    -0.386769328687E+03    0.22276E-03   -0.15861E-02 46776   0.229E-01    0.255E-01
DAV:   9    -0.386767535155E+03    0.17935E-02   -0.22811E-03 53400   0.167E-01    0.161E-01
DAV:  10    -0.386764900904E+03    0.26343E-02   -0.21850E-03 52456   0.407E-01    0.125E-01
DAV:  11    -0.386764393104E+03    0.50780E-03   -0.24034E-03 48144   0.223E-01    0.119E-01
DAV:  12    -0.386764466595E+03   -0.73492E-04   -0.24363E-03 45280   0.100E-01    0.607E-02
DAV:  13    -0.386764450608E+03    0.15988E-04   -0.21386E-04 51416   0.366E-02    0.357E-02
DAV:  14    -0.386764410799E+03    0.39809E-04   -0.16371E-05 34744   0.598E-02    0.214E-02
DAV:  15    -0.386764407596E+03    0.32030E-05   -0.90926E-05 41992   0.357E-02
  27 F= -.38676441E+03 E0= -.38676441E+03  d E =0.743649E+00  mag=    60.0000
       N       E                     dE             d eps       ncg     rms          rms(c)
DAV:   1    -0.381577138016E+03    0.51873E+01   -0.37077E+02 42576   0.786E+01    0.135E+01
DAV:   2    -0.387361993360E+03   -0.57849E+01   -0.54145E+01 39832   0.147E+01    0.842E+00
DAV:   3    -0.387562250009E+03   -0.20026E+00   -0.17949E+00 44552   0.331E+00    0.288E+00
DAV:   4    -0.387518080142E+03    0.44170E-01   -0.11639E-01 55888   0.127E+00    0.195E+00
DAV:   5    -0.387461043643E+03    0.57036E-01   -0.18857E-02 55464   0.154E+00    0.107E+00
DAV:   6    -0.387412849631E+03    0.48194E-01   -0.48269E-02 52688   0.245E+00    0.256E-01
DAV:   7    -0.387417069832E+03   -0.42202E-02   -0.11374E-01 44888   0.857E-01    0.332E-01
DAV:   8    -0.387416537531E+03    0.53230E-03   -0.14265E-02 47888   0.225E-01    0.291E-01
DAV:   9    -0.387414937139E+03    0.16004E-02   -0.11416E-03 54576   0.173E-01    0.203E-01
DAV:  10    -0.387412060472E+03    0.28767E-02   -0.24120E-03 53448   0.467E-01    0.126E-01
DAV:  11    -0.387411453990E+03    0.60648E-03   -0.24764E-03 47760   0.314E-01    0.147E-01
DAV:  12    -0.387411593911E+03   -0.13992E-03   -0.31550E-03 46120   0.119E-01    0.700E-02
DAV:  13    -0.387411612817E+03   -0.18906E-04   -0.33917E-04 47256   0.322E-02    0.430E-02
DAV:  14    -0.387411598957E+03    0.13860E-04   -0.11275E-05 30536   0.377E-02    0.243E-02
DAV:  15    -0.387411597458E+03    0.14982E-05   -0.41880E-05 39104   0.272E-02
  28 F= -.38741160E+03 E0= -.38741160E+03  d E =-.647190E+00  mag=    60.0000
       N       E                     dE             d eps       ncg     rms          rms(c)
DAV:   1    -0.387317892014E+03    0.93707E-01   -0.97508E+00 43328   0.131E+01    0.204E+00
DAV:   2    -0.387465973108E+03   -0.14808E+00   -0.13404E+00 40056   0.228E+00    0.924E-01
DAV:   3    -0.387472015422E+03   -0.60423E-02   -0.51139E-02 44552   0.531E-01    0.364E-01
DAV:   4    -0.387471363840E+03    0.65158E-03   -0.40858E-03 52200   0.170E-01    0.259E-01
DAV:   5    -0.387470143642E+03    0.12202E-02   -0.37093E-04 54488   0.191E-01    0.146E-01
DAV:   6    -0.387469181256E+03    0.96239E-03   -0.10000E-03 50560   0.308E-01    0.464E-02
DAV:   7    -0.387469219997E+03   -0.38741E-04   -0.19936E-03 45168   0.117E-01    0.440E-02
DAV:   8    -0.387469225711E+03   -0.57144E-05   -0.38101E-04 43536   0.380E-02    0.386E-02
DAV:   9    -0.387469191698E+03    0.34013E-04   -0.30939E-05 36408   0.290E-02    0.253E-02
DAV:  10    -0.387469143296E+03    0.48402E-04   -0.29656E-05 38488   0.662E-02    0.101E-02
DAV:  11    -0.387469133240E+03    0.10056E-04   -0.53084E-05 42072   0.476E-02    0.137E-02
DAV:  12    -0.387469139231E+03   -0.59909E-05   -0.76364E-05 43456   0.170E-02
  29 F= -.38746914E+03 E0= -.38746914E+03  d E =-.575418E-01  mag=    60.0000
       N       E                     dE             d eps       ncg     rms          rms(c)
DAV:   1    -0.387272903443E+03    0.19623E+00   -0.34345E+01 42664   0.184E+01    0.237E+00
DAV:   2    -0.387519211907E+03   -0.24631E+00   -0.23214E+00 40584   0.315E+00    0.112E+00
DAV:   3    -0.387525172367E+03   -0.59605E-02   -0.69861E-02 48816   0.594E-01    0.505E-01
DAV:   4    -0.387523805050E+03    0.13673E-02   -0.62911E-03 52208   0.185E-01    0.358E-01
DAV:   5    -0.387521836443E+03    0.19686E-02   -0.10854E-03 51448   0.207E-01    0.179E-01
DAV:   6    -0.387521155301E+03    0.68114E-03   -0.17611E-03 49056   0.222E-01    0.508E-02
DAV:   7    -0.387521238558E+03   -0.83257E-04   -0.16626E-03 45608   0.939E-02    0.516E-02
DAV:   8    -0.387521228979E+03    0.95787E-05   -0.14440E-04 49912   0.237E-02    0.342E-02
DAV:   9    -0.387521198519E+03    0.30460E-04   -0.91736E-06 29392   0.295E-02    0.234E-02
DAV:  10    -0.387521169696E+03    0.28823E-04   -0.44663E-05 41528   0.572E-02    0.110E-02
DAV:  11    -0.387521171185E+03   -0.14890E-05   -0.54764E-05 41040   0.218E-02
  30 F= -.38752117E+03 E0= -.38752117E+03  d E =-.520320E-01  mag=    60.0000
       N       E                     dE             d eps       ncg     rms          rms(c)
DAV:   1    -0.387474355089E+03    0.46815E-01   -0.13483E+01 42128   0.924E+00    0.960E-01
DAV:   2    -0.387529856915E+03   -0.55502E-01   -0.55785E-01 40680   0.158E+00    0.479E-01
DAV:   3    -0.387529965372E+03   -0.10846E-03   -0.12160E-02 52440   0.236E-01    0.255E-01
DAV:   4    -0.387529417336E+03    0.54804E-03   -0.13538E-03 51576   0.851E-02    0.174E-01
DAV:   5    -0.387528884512E+03    0.53282E-03   -0.55240E-04 48152   0.101E-01    0.574E-02
DAV:   6    -0.387528881031E+03    0.34810E-05   -0.47781E-04 47112   0.495E-02    0.214E-02
DAV:   7    -0.387528884282E+03   -0.32514E-05   -0.68163E-05 44816   0.162E-02
  31 F= -.38752888E+03 E0= -.38752888E+03  d E =-.771310E-02  mag=    60.0000
       N       E                     dE             d eps       ncg     rms          rms(c)
DAV:   1    -0.387356112930E+03    0.17277E+00   -0.23356E+01 41328   0.146E+01    0.187E+00
DAV:   2    -0.387518912773E+03   -0.16280E+00   -0.15783E+00 39592   0.263E+00    0.862E-01
DAV:   3    -0.387522586754E+03   -0.36740E-02   -0.38395E-02 50424   0.403E-01    0.405E-01
DAV:   4    -0.387521796692E+03    0.79006E-03   -0.30295E-03 51456   0.124E-01    0.290E-01
DAV:   5    -0.387520957327E+03    0.83936E-03   -0.80762E-04 49536   0.144E-01    0.112E-01
DAV:   6    -0.387520948712E+03    0.86150E-05   -0.74550E-04 48392   0.725E-02    0.277E-02
DAV:   7    -0.387520955846E+03   -0.71333E-05   -0.15661E-04 46368   0.306E-02    0.193E-02
DAV:   8    -0.387520952698E+03    0.31477E-05   -0.11170E-05 26072   0.107E-02
  32 F= -.38752095E+03 E0= -.38752095E+03  d E =0.793158E-02  mag=    60.0000
       N       E                     dE             d eps       ncg     rms          rms(c)
DAV:   1    -0.385105215456E+03    0.24157E+01   -0.36177E+02 42152   0.559E+01    0.683E+00
DAV:   2    -0.387477155243E+03   -0.23719E+01   -0.23264E+01 39032   0.103E+01    0.359E+00
DAV:   3    -0.387505290440E+03   -0.28135E-01   -0.44816E-01 45848   0.155E+00    0.159E+00
DAV:   4    -0.387493623197E+03    0.11667E-01   -0.64193E-02 49840   0.553E-01    0.108E+00
DAV:   5    -0.387485217064E+03    0.84061E-02   -0.75111E-03 47728   0.381E-01    0.509E-01
DAV:   6    -0.387483883521E+03    0.13335E-02   -0.81629E-03 48512   0.275E-01    0.136E-01
DAV:   7    -0.387484010750E+03   -0.12723E-03   -0.23215E-03 45472   0.114E-01    0.809E-02
DAV:   8    -0.387483996216E+03    0.14534E-04   -0.32268E-04 47240   0.405E-02    0.488E-02
DAV:   9    -0.387483974583E+03    0.21632E-04   -0.35574E-05 39752   0.351E-02    0.231E-02
DAV:  10    -0.387483967443E+03    0.71401E-05   -0.25940E-05 37888   0.320E-02
  33 F= -.38748397E+03 E0= -.38748397E+03  d E =0.369853E-01  mag=    60.0000
       N       E                     dE             d eps       ncg     rms          rms(c)
DAV:   1    -0.377994049281E+03    0.94899E+01   -0.12812E+03 39856   0.854E+01    0.106E+01
DAV:   2    -0.387581268769E+03   -0.95872E+01   -0.10146E+02 40984   0.174E+01    0.708E+00
DAV:   3    -0.387226790526E+03    0.35448E+00   -0.23886E+00 47608   0.378E+00    0.414E+00
DAV:   4    -0.387093150507E+03    0.13364E+00   -0.78278E-01 47512   0.192E+00    0.242E+00
DAV:   5    -0.387019888479E+03    0.73262E-01   -0.14004E-01 49376   0.132E+00    0.107E+00
DAV:   6    -0.386994558460E+03    0.25330E-01   -0.50364E-02 49704   0.114E+00    0.414E-01
DAV:   7    -0.386993634349E+03    0.92411E-03   -0.41974E-02 47024   0.603E-01    0.274E-01
DAV:   8    -0.386993293471E+03    0.34088E-03   -0.85942E-03 46344   0.176E-01    0.210E-01
DAV:   9    -0.386992527120E+03    0.76635E-03   -0.13464E-03 51592   0.118E-01    0.113E-01
DAV:  10    -0.386991836974E+03    0.69015E-03   -0.51852E-04 50960   0.189E-01    0.595E-02
DAV:  11    -0.386991540972E+03    0.29600E-03   -0.62425E-04 48760   0.162E-01    0.576E-02
DAV:  12    -0.386991476046E+03    0.64925E-04   -0.84360E-04 46256   0.110E-01    0.329E-02
DAV:  13    -0.386991488872E+03   -0.12826E-04   -0.38845E-04 42672   0.450E-02    0.235E-02
DAV:  14    -0.386991475327E+03    0.13546E-04   -0.30168E-05 38936   0.240E-02    0.119E-02
DAV:  15    -0.386991464019E+03    0.11307E-04   -0.81320E-06 30296   0.345E-02    0.658E-03
DAV:  16    -0.386991464186E+03   -0.16648E-06   -0.29573E-05 37672   0.191E-02
  34 F= -.38699146E+03 E0= -.38699146E+03  d E =0.492503E+00  mag=    60.0000
       N       E                     dE             d eps       ncg     rms          rms(c)
DAV:   1    -0.385979211307E+03    0.10123E+01   -0.18743E+02 41400   0.442E+01    0.590E+00
DAV:   2    -0.387433357338E+03   -0.14541E+01   -0.14359E+01 39432   0.817E+00    0.301E+00
DAV:   3    -0.387460278355E+03   -0.26921E-01   -0.42587E-01 45864   0.163E+00    0.138E+00
DAV:   4    -0.387445421390E+03    0.14857E-01   -0.38480E-02 51808   0.640E-01    0.935E-01
DAV:   5    -0.387427257995E+03    0.18163E-01   -0.77865E-03 52632   0.943E-01    0.398E-01
DAV:   6    -0.387421640732E+03    0.56173E-02   -0.16711E-02 49480   0.796E-01    0.124E-01
DAV:   7    -0.387422279307E+03   -0.63857E-03   -0.18871E-02 45016   0.353E-01    0.158E-01
DAV:   8    -0.387422076910E+03    0.20240E-03   -0.21299E-03 51312   0.844E-02    0.130E-01
DAV:   9    -0.387421639415E+03    0.43750E-03   -0.14059E-04 55760   0.101E-01    0.875E-02
DAV:  10    -0.387420975196E+03    0.66422E-03   -0.45072E-04 53456   0.248E-01    0.454E-02
DAV:  11    -0.387420824006E+03    0.15119E-03   -0.52468E-04 47440   0.152E-01    0.558E-02
DAV:  12    -0.387420851073E+03   -0.27068E-04   -0.64239E-04 42920   0.620E-02    0.319E-02
DAV:  13    -0.387420857081E+03   -0.60073E-05   -0.10716E-04 41760   0.198E-02    0.137E-02
DAV:  14    -0.387420852772E+03    0.43087E-05   -0.52177E-06 28008   0.252E-02
  35 F= -.38742085E+03 E0= -.38742085E+03  d E =-.429389E+00  mag=    60.0000
       N       E                     dE             d eps       ncg     rms          rms(c)
DAV:   1    -0.387294276864E+03    0.12658E+00   -0.53690E+01 41504   0.189E+01    0.202E+00
DAV:   2    -0.387527574656E+03   -0.23330E+00   -0.23779E+00 39680   0.330E+00    0.104E+00
DAV:   3    -0.387527669658E+03   -0.95002E-04   -0.53866E-02 49568   0.524E-01    0.574E-01
DAV:   4    -0.387525197463E+03    0.24722E-02   -0.67616E-03 52000   0.194E-01    0.379E-01
DAV:   5    -0.387522727837E+03    0.24696E-02   -0.22590E-03 49552   0.238E-01    0.126E-01
DAV:   6    -0.387522597783E+03    0.13005E-03   -0.23326E-03 46128   0.143E-01    0.459E-02
DAV:   7    -0.387522627738E+03   -0.29955E-04   -0.64544E-04 45256   0.556E-02    0.452E-02
DAV:   8    -0.387522611876E+03    0.15862E-04   -0.49821E-05 42952   0.167E-02    0.272E-02
DAV:   9    -0.387522585442E+03    0.26434E-04   -0.14048E-05 30520   0.309E-02    0.131E-02
DAV:  10    -0.387522570099E+03    0.15343E-04   -0.16874E-05 33608   0.366E-02    0.915E-03
DAV:  11    -0.387522569300E+03    0.79898E-06   -0.33604E-05 38664   0.184E-02
  36 F= -.38752257E+03 E0= -.38752257E+03  d E =-.101717E+00  mag=    60.0000
       N       E                     dE             d eps       ncg     rms          rms(c)
DAV:   1    -0.387230812808E+03    0.29176E+00   -0.69685E+01 42008   0.221E+01    0.248E+00
DAV:   2    -0.387571690413E+03   -0.34088E+00   -0.34220E+00 39712   0.384E+00    0.126E+00
DAV:   3    -0.387572656652E+03   -0.96624E-03   -0.75084E-02 50032   0.628E-01    0.658E-01
DAV:   4    -0.387569635961E+03    0.30207E-02   -0.11642E-02 50528   0.242E-01    0.430E-01
DAV:   5    -0.387567028640E+03    0.26073E-02   -0.23850E-03 48296   0.212E-01    0.162E-01
DAV:   6    -0.387566831707E+03    0.19693E-03   -0.23059E-03 47776   0.125E-01    0.518E-02
DAV:   7    -0.387566865097E+03   -0.33390E-04   -0.49552E-04 46552   0.465E-02    0.371E-02
DAV:   8    -0.387566858391E+03    0.67061E-05   -0.55070E-05 43416   0.162E-02
  37 F= -.38756686E+03 E0= -.38756686E+03  d E =-.442891E-01  mag=    60.0000
       N       E                     dE             d eps       ncg     rms          rms(c)
DAV:   1    -0.387488184968E+03    0.78680E-01   -0.69811E+00 41568   0.965E+00    0.142E+00
DAV:   2    -0.387568074546E+03   -0.79890E-01   -0.75201E-01 39544   0.175E+00    0.631E-01
DAV:   3    -0.387570846241E+03   -0.27717E-02   -0.21746E-02 49320   0.294E-01    0.284E-01
DAV:   4    -0.387570609538E+03    0.23670E-03   -0.15106E-03 53752   0.819E-02    0.202E-01
DAV:   5    -0.387570256753E+03    0.35278E-03   -0.28198E-04 49288   0.103E-01    0.813E-02
DAV:   6    -0.387570223567E+03    0.33185E-04   -0.29578E-04 48384   0.692E-02    0.202E-02
DAV:   7    -0.387570231450E+03   -0.78823E-05   -0.17409E-04 44608   0.319E-02    0.226E-02
DAV:   8    -0.387570228929E+03    0.25206E-05   -0.97235E-06 24176   0.807E-03
  38 F= -.38757023E+03 E0= -.38757023E+03  d E =-.337054E-02  mag=    60.0000
       N       E                     dE             d eps       ncg     rms          rms(c)
DAV:   1    -0.387329724511E+03    0.24051E+00   -0.21876E+01 41928   0.166E+01    0.239E+00
DAV:   2    -0.387561468829E+03   -0.23174E+00   -0.21947E+00 39096   0.304E+00    0.109E+00
DAV:   3    -0.387569174619E+03   -0.77058E-02   -0.60350E-02 46952   0.490E-01    0.482E-01
DAV:   4    -0.387568503316E+03    0.67130E-03   -0.44424E-03 56360   0.138E-01    0.344E-01
DAV:   5    -0.387567537359E+03    0.96596E-03   -0.86705E-04 48912   0.172E-01    0.132E-01
DAV:   6    -0.387567501635E+03    0.35724E-04   -0.84161E-04 48816   0.102E-01    0.344E-02
DAV:   7    -0.387567514845E+03   -0.13210E-04   -0.35108E-04 44944   0.460E-02    0.329E-02
DAV:   8    -0.387567507875E+03    0.69695E-05   -0.21595E-05 32064   0.132E-02
  39 F= -.38756751E+03 E0= -.38756751E+03  d E =0.272105E-02  mag=    60.0000
       N       E                     dE             d eps       ncg     rms          rms(c)
DAV:   1    -0.386236287219E+03    0.13312E+01   -0.17043E+02 42032   0.419E+01    0.527E+00
DAV:   2    -0.387533988617E+03   -0.12977E+01   -0.12573E+01 38904   0.763E+00    0.263E+00
DAV:   3    -0.387562757357E+03   -0.28769E-01   -0.27516E-01 46640   0.112E+00    0.116E+00
DAV:   4    -0.387557731341E+03    0.50260E-02   -0.23732E-02 54360   0.325E-01    0.791E-01
DAV:   5    -0.387552952547E+03    0.47788E-02   -0.56526E-03 47664   0.322E-01    0.289E-01
DAV:   6    -0.387552937956E+03    0.14591E-04   -0.41257E-03 48336   0.163E-01    0.824E-02
DAV:   7    -0.387552968721E+03   -0.30764E-04   -0.71834E-04 45416   0.651E-02    0.537E-02
DAV:   8    -0.387552954933E+03    0.13788E-04   -0.81101E-05 46696   0.237E-02    0.310E-02
DAV:   9    -0.387552945047E+03    0.98857E-05   -0.18239E-05 31984   0.243E-02
  40 F= -.38755295E+03 E0= -.38755295E+03  d E =0.145628E-01  mag=    60.0000
       N       E                     dE             d eps       ncg     rms          rms(c)
DAV:   1    -0.381162266622E+03    0.63907E+01   -0.40503E+02 42832   0.812E+01    0.133E+01
DAV:   2    -0.387132449357E+03   -0.59702E+01   -0.55172E+01 39952   0.150E+01    0.899E+00
DAV:   3    -0.387351966485E+03   -0.21952E+00   -0.16788E+00 48328   0.281E+00    0.302E+00
DAV:   4    -0.387334817542E+03    0.17149E-01   -0.11843E-01 52808   0.794E-01    0.213E+00
DAV:   5    -0.387311899215E+03    0.22918E-01   -0.16605E-02 50144   0.656E-01    0.115E+00
DAV:   6    -0.387300767147E+03    0.11132E-01   -0.20113E-02 48688   0.802E-01    0.217E-01
DAV:   7    -0.387301672857E+03   -0.90571E-03   -0.19327E-02 45400   0.319E-01    0.208E-01
DAV:   8    -0.387301504062E+03    0.16880E-03   -0.14982E-03 52968   0.710E-02    0.144E-01
DAV:   9    -0.387301150002E+03    0.35406E-03   -0.33255E-04 51120   0.734E-02    0.947E-02
DAV:  10    -0.387300822050E+03    0.32795E-03   -0.36705E-04 47472   0.133E-01    0.484E-02
DAV:  11    -0.387300742871E+03    0.79179E-04   -0.36289E-04 46288   0.806E-02    0.445E-02
DAV:  12    -0.387300752768E+03   -0.98967E-05   -0.34111E-04 42440   0.419E-02    0.242E-02
DAV:  13    -0.387300743778E+03    0.89903E-05   -0.26250E-05 37728   0.227E-02
  41 F= -.38730074E+03 E0= -.38730074E+03  d E =0.252201E+00  mag=    60.0000
       N       E                     dE             d eps       ncg     rms          rms(c)
DAV:   1    -0.386895383525E+03    0.40537E+00   -0.37143E+01 43448   0.266E+01    0.407E+00
DAV:   2    -0.387476749956E+03   -0.58137E+00   -0.52722E+00 39456   0.464E+00    0.200E+00
DAV:   3    -0.387500865623E+03   -0.24116E-01   -0.17690E-01 45400   0.910E-01    0.797E-01
DAV:   4    -0.387499211866E+03    0.16538E-02   -0.12983E-02 57056   0.249E-01    0.540E-01
DAV:   5    -0.387496031248E+03    0.31806E-02   -0.25179E-03 51984   0.287E-01    0.219E-01
DAV:   6    -0.387495245987E+03    0.78526E-03   -0.24223E-03 48160   0.220E-01    0.676E-02
DAV:   7    -0.387495291364E+03   -0.45377E-04   -0.18307E-03 44888   0.101E-01    0.691E-02
DAV:   8    -0.387495255811E+03    0.35553E-04   -0.13922E-04 51912   0.249E-02    0.425E-02
DAV:   9    -0.387495199011E+03    0.56800E-04   -0.27884E-05 36992   0.307E-02    0.268E-02
DAV:  10    -0.387495148433E+03    0.50577E-04   -0.69614E-05 44568   0.569E-02    0.140E-02
DAV:  11    -0.387495147789E+03    0.64426E-06   -0.78771E-05 40696   0.259E-02
  42 F= -.38749515E+03 E0= -.38749515E+03  d E =-.194404E+00  mag=    60.0000
       N       E                     dE             d eps       ncg     rms          rms(c)
DAV:   1    -0.387204455217E+03    0.29069E+00   -0.23193E+01 43152   0.208E+01    0.321E+00
DAV:   2    -0.387569720448E+03   -0.36527E+00   -0.33440E+00 39224   0.372E+00    0.157E+00
DAV:   3    -0.387584623347E+03   -0.14903E-01   -0.11778E-01 45408   0.745E-01    0.639E-01
DAV:   4    -0.387583402525E+03    0.12208E-02   -0.87319E-03 58504   0.221E-01    0.434E-01
DAV:   5    -0.387581023630E+03    0.23789E-02   -0.13550E-03 53128   0.283E-01    0.192E-01
DAV:   6    -0.387580229831E+03    0.79380E-03   -0.18644E-03 48216   0.252E-01    0.561E-02
DAV:   7    -0.387580297976E+03   -0.68145E-04   -0.20360E-03 44736   0.109E-01    0.666E-02
DAV:   8    -0.387580271186E+03    0.26790E-04   -0.16748E-04 51032   0.273E-02    0.438E-02
DAV:   9    -0.387580214962E+03    0.56224E-04   -0.18861E-05 33504   0.366E-02    0.295E-02
DAV:  10    -0.387580156774E+03    0.58188E-04   -0.72856E-05 47624   0.760E-02    0.147E-02
DAV:  11    -0.387580153781E+03    0.29933E-05   -0.81446E-05 42320   0.344E-02
  43 F= -.38758015E+03 E0= -.38758015E+03  d E =-.850060E-01  mag=    60.0000
       N       E                     dE             d eps       ncg     rms          rms(c)
DAV:   1    -0.387563468663E+03    0.16688E-01   -0.20052E+00 42088   0.580E+00    0.865E-01
DAV:   2    -0.387591442167E+03   -0.27974E-01   -0.25884E-01 39352   0.106E+00    0.389E-01
DAV:   3    -0.387592512406E+03   -0.10702E-02   -0.82773E-03 46616   0.191E-01    0.173E-01
DAV:   4    -0.387592437937E+03    0.74469E-04   -0.61134E-04 57728   0.519E-02    0.123E-01
DAV:   5    -0.387592285899E+03    0.15204E-03   -0.96156E-05 43832   0.692E-02    0.550E-02
DAV:   6    -0.387592252590E+03    0.33309E-04   -0.12617E-04 47528   0.570E-02    0.141E-02
DAV:   7    -0.387592257618E+03   -0.50281E-05   -0.10662E-04 43632   0.248E-02    0.172E-02
DAV:   8    -0.387592256115E+03    0.15026E-05   -0.55542E-06 21728   0.611E-03
  44 F= -.38759226E+03 E0= -.38759226E+03  d E =-.121023E-01  mag=    60.0000
       N       E                     dE             d eps       ncg     rms          rms(c)
DAV:   1    -0.387424662828E+03    0.16759E+00   -0.14003E+01 41888   0.145E+01    0.214E+00
DAV:   2    -0.387599720717E+03   -0.17506E+00   -0.16284E+00 39240   0.263E+00    0.973E-01
DAV:   3    -0.387605925926E+03   -0.62052E-02   -0.46063E-02 47680   0.441E-01    0.419E-01
DAV:   4    -0.387605493930E+03    0.43200E-03   -0.34671E-03 55512   0.118E-01    0.298E-01
DAV:   5    -0.387604740597E+03    0.75333E-03   -0.60795E-04 50248   0.140E-01    0.131E-01
DAV:   6    -0.387604641403E+03    0.99194E-04   -0.61755E-04 48152   0.101E-01    0.309E-02
DAV:   7    -0.387604659955E+03   -0.18552E-04   -0.34367E-04 44584   0.443E-02    0.324E-02
DAV:   8    -0.387604655110E+03    0.48451E-05   -0.18953E-05 29992   0.112E-02
  45 F= -.38760466E+03 E0= -.38760466E+03  d E =-.123990E-01  mag=    60.0000
       N       E                     dE             d eps       ncg     rms          rms(c)
DAV:   1    -0.387583454062E+03    0.21206E-01   -0.27530E+00 41656   0.543E+00    0.727E-01
DAV:   2    -0.387606284399E+03   -0.22830E-01   -0.21896E-01 39224   0.974E-01    0.321E-01
DAV:   3    -0.387606944376E+03   -0.65998E-03   -0.57837E-03 50272   0.150E-01    0.151E-01
DAV:   4    -0.387606853403E+03    0.90972E-04   -0.44038E-04 52312   0.431E-02    0.107E-01
DAV:   5    -0.387606756598E+03    0.96805E-04   -0.11512E-04 46928   0.489E-02    0.379E-02
DAV:   6    -0.387606759933E+03   -0.33345E-05   -0.80920E-05 46528   0.211E-02
  46 F= -.38760676E+03 E0= -.38760676E+03  d E =-.210482E-02  mag=    60.0000
       N       E                     dE             d eps       ncg     rms          rms(c)
DAV:   1    -0.387448061719E+03    0.15869E+00   -0.22104E+01 41784   0.151E+01    0.186E+00
DAV:   2    -0.387609045980E+03   -0.16098E+00   -0.15724E+00 38608   0.271E+00    0.840E-01
DAV:   3    -0.387612994138E+03   -0.39482E-02   -0.37994E-02 49040   0.404E-01    0.415E-01
DAV:   4    -0.387612223694E+03    0.77044E-03   -0.28300E-03 53384   0.119E-01    0.280E-01
DAV:   5    -0.387611601312E+03    0.62238E-03   -0.86830E-04 48896   0.128E-01    0.878E-02
DAV:   6    -0.387611642159E+03   -0.40848E-04   -0.50387E-04 45688   0.497E-02    0.285E-02
DAV:   7    -0.387611640349E+03    0.18100E-05   -0.49466E-05 41312   0.192E-02
  47 F= -.38761164E+03 E0= -.38761164E+03  d E =-.488042E-02  mag=    60.0000
       N       E                     dE             d eps       ncg     rms          rms(c)
DAV:   1    -0.381733272914E+03    0.58784E+01   -0.52412E+02 42368   0.782E+01    0.122E+01
DAV:   2    -0.387293071927E+03   -0.55598E+01   -0.52462E+01 39488   0.147E+01    0.762E+00
DAV:   3    -0.387441994827E+03   -0.14892E+00   -0.14258E+00 50048   0.261E+00    0.284E+00
DAV:   4    -0.387423548795E+03    0.18446E-01   -0.14433E-01 48448   0.833E-01    0.201E+00
DAV:   5    -0.387408996634E+03    0.14552E-01   -0.12706E-02 48912   0.436E-01    0.122E+00
DAV:   6    -0.387401147965E+03    0.78487E-02   -0.15666E-02 48784   0.557E-01    0.277E-01
DAV:   7    -0.387401711516E+03   -0.56355E-03   -0.10579E-02 45840   0.234E-01    0.154E-01
DAV:   8    -0.387401714043E+03   -0.25269E-05   -0.10419E-03 48200   0.665E-02    0.939E-02
DAV:   9    -0.387401663281E+03    0.50762E-04   -0.18809E-04 47448   0.446E-02    0.599E-02
DAV:  10    -0.387401638088E+03    0.25193E-04   -0.59298E-05 44472   0.593E-02    0.239E-02
DAV:  11    -0.387401640824E+03   -0.27360E-05   -0.11337E-04 44736   0.318E-02    0.184E-02
DAV:  12    -0.387401643928E+03   -0.31040E-05   -0.32251E-05 35136   0.133E-02
  48 F= -.38740164E+03 E0= -.38740164E+03  d E =0.209996E+00  mag=    60.0000
       N       E                     dE             d eps       ncg     rms          rms(c)
DAV:   1    -0.385699524695E+03    0.17021E+01   -0.10577E+02 43224   0.441E+01    0.741E+00
DAV:   2    -0.387539165039E+03   -0.18396E+01   -0.16794E+01 39512   0.804E+00    0.424E+00
DAV:   3    -0.387613642330E+03   -0.74477E-01   -0.51463E-01 45984   0.154E+00    0.148E+00
DAV:   4    -0.387609545094E+03    0.40972E-02   -0.34007E-02 57264   0.414E-01    0.101E+00
DAV:   5    -0.387602475612E+03    0.70695E-02   -0.42603E-03 52240   0.401E-01    0.524E-01
DAV:   6    -0.387599427800E+03    0.30478E-02   -0.58484E-03 48944   0.480E-01    0.114E-01
DAV:   7    -0.387599773534E+03   -0.34573E-03   -0.69104E-03 45088   0.203E-01    0.131E-01
DAV:   8    -0.387599736902E+03    0.36631E-04   -0.62808E-04 52832   0.485E-02    0.881E-02
DAV:   9    -0.387599627659E+03    0.10924E-03   -0.81092E-05 45584   0.423E-02    0.634E-02
DAV:  10    -0.387599500240E+03    0.12742E-03   -0.14415E-04 48576   0.106E-01    0.273E-02
DAV:  11    -0.387599477382E+03    0.22858E-04   -0.13981E-04 44376   0.613E-02    0.302E-02
DAV:  12    -0.387599488273E+03   -0.10891E-04   -0.17561E-04 42432   0.284E-02    0.160E-02
DAV:  13    -0.387599486689E+03    0.15844E-05   -0.77488E-06 23808   0.954E-03
  49 F= -.38759949E+03 E0= -.38759949E+03  d E =-.197843E+00  mag=    60.0000
       N       E                     dE             d eps       ncg     rms          rms(c)
DAV:   1    -0.387577181040E+03    0.22307E-01   -0.22074E+00 42488   0.604E+00    0.921E-01
DAV:   2    -0.387607971267E+03   -0.30790E-01   -0.28604E-01 39680   0.109E+00    0.417E-01
DAV:   3    -0.387609122058E+03   -0.11508E-02   -0.10323E-02 44816   0.237E-01    0.186E-01
DAV:   4    -0.387608973412E+03    0.14865E-03   -0.82599E-04 54272   0.774E-02    0.129E-01
DAV:   5    -0.387608681383E+03    0.29203E-03   -0.11636E-04 47984   0.104E-01    0.612E-02
DAV:   6    -0.387608545827E+03    0.13556E-03   -0.21601E-04 47072   0.115E-01    0.210E-02
DAV:   7    -0.387608557833E+03   -0.12006E-04   -0.36692E-04 44664   0.481E-02    0.220E-02
DAV:   8    -0.387608555201E+03    0.26321E-05   -0.41215E-05 38888   0.140E-02
  50 F= -.38760856E+03 E0= -.38760856E+03  d E =-.906851E-02  mag=    60.0000
       N       E                     dE             d eps       ncg     rms          rms(c)
DAV:   1    -0.387580248663E+03    0.28309E-01   -0.42313E+00 41600   0.743E+00    0.107E+00
DAV:   2    -0.387625524294E+03   -0.45276E-01   -0.42788E-01 39168   0.134E+00    0.469E-01
DAV:   3    -0.387627084701E+03   -0.15604E-02   -0.12611E-02 49032   0.240E-01    0.210E-01
DAV:   4    -0.387626925844E+03    0.15886E-03   -0.95113E-04 52712   0.725E-02    0.155E-01
DAV:   5    -0.387626681148E+03    0.24470E-03   -0.14629E-04 47968   0.891E-02    0.701E-02
DAV:   6    -0.387626634251E+03    0.46897E-04   -0.20344E-04 47800   0.714E-02    0.179E-02
DAV:   7    -0.387626642068E+03   -0.78172E-05   -0.17573E-04 44864   0.323E-02    0.190E-02
DAV:   8    -0.387626639556E+03    0.25119E-05   -0.11713E-05 24888   0.923E-03
  51 F= -.38762664E+03 E0= -.38762664E+03  d E =-.180844E-01  mag=    60.0000
       N       E                     dE             d eps       ncg     rms          rms(c)
DAV:   1    -0.387489170211E+03    0.13747E+00   -0.14557E+01 41328   0.132E+01    0.196E+00
DAV:   2    -0.387643383809E+03   -0.15421E+00   -0.14608E+00 39424   0.240E+00    0.878E-01
DAV:   3    -0.387647850291E+03   -0.44665E-02   -0.33429E-02 49752   0.372E-01    0.394E-01
DAV:   4    -0.387647309532E+03    0.54076E-03   -0.24406E-03 51000   0.106E-01    0.284E-01
DAV:   5    -0.387646673469E+03    0.63606E-03   -0.71069E-04 50776   0.128E-01    0.108E-01
DAV:   6    -0.387646677527E+03   -0.40580E-05   -0.50483E-04 48048   0.564E-02    0.270E-02
DAV:   7    -0.387646679020E+03   -0.14930E-05   -0.98694E-05 44280   0.248E-02
  52 F= -.38764668E+03 E0= -.38764668E+03  d E =-.200395E-01  mag=    60.0000
       N       E                     dE             d eps       ncg     rms          rms(c)
DAV:   1    -0.387603322416E+03    0.43355E-01   -0.59119E+00 41624   0.762E+00    0.106E+00
DAV:   2    -0.387652053538E+03   -0.48731E-01   -0.47014E-01 39256   0.137E+00    0.477E-01
DAV:   3    -0.387653295029E+03   -0.12415E-02   -0.11457E-02 50712   0.203E-01    0.230E-01
DAV:   4    -0.387653066338E+03    0.22869E-03   -0.88652E-04 51096   0.621E-02    0.160E-01
DAV:   5    -0.387652845393E+03    0.22095E-03   -0.27762E-04 48720   0.706E-02    0.558E-02
DAV:   6    -0.387652854424E+03   -0.90308E-05   -0.17368E-04 47520   0.278E-02    0.159E-02
DAV:   7    -0.387652854101E+03    0.32355E-06   -0.16266E-05 29616   0.105E-02
  53 F= -.38765285E+03 E0= -.38765285E+03  d E =-.617508E-02  mag=    60.0000
       N       E                     dE             d eps       ncg     rms          rms(c)
DAV:   1    -0.387605866909E+03    0.46988E-01   -0.75065E+00 41728   0.853E+00    0.106E+00
DAV:   2    -0.387658472544E+03   -0.52606E-01   -0.51359E-01 38816   0.153E+00    0.480E-01
DAV:   3    -0.387659628487E+03   -0.11559E-02   -0.12201E-02 50008   0.225E-01    0.236E-01
DAV:   4    -0.387659352299E+03    0.27619E-03   -0.95267E-04 52304   0.685E-02    0.161E-01
DAV:   5    -0.387659102699E+03    0.24960E-03   -0.30127E-04 48128   0.826E-02    0.507E-02
DAV:   6    -0.387659113979E+03   -0.11280E-04   -0.21841E-04 46192   0.367E-02    0.180E-02
DAV:   7    -0.387659113720E+03    0.25881E-06   -0.31316E-05 37760   0.144E-02
  54 F= -.38765911E+03 E0= -.38765911E+03  d E =-.625962E-02  mag=    60.0000
       N       E                     dE             d eps       ncg     rms          rms(c)
DAV:   1    -0.386562156328E+03    0.10970E+01   -0.20388E+02 41552   0.397E+01    0.439E+00
DAV:   2    -0.387684437841E+03   -0.11223E+01   -0.11249E+01 38592   0.719E+00    0.214E+00
DAV:   3    -0.387692324203E+03   -0.78864E-02   -0.21959E-01 48056   0.108E+00    0.109E+00
DAV:   4    -0.387684740925E+03    0.75833E-02   -0.33771E-02 47904   0.420E-01    0.690E-01
DAV:   5    -0.387680203366E+03    0.45376E-02   -0.51269E-03 48680   0.292E-01    0.250E-01
DAV:   6    -0.387680132964E+03    0.70402E-04   -0.41043E-03 46848   0.151E-01    0.810E-02
DAV:   7    -0.387680149554E+03   -0.16589E-04   -0.46373E-04 48208   0.558E-02    0.493E-02
DAV:   8    -0.387680143939E+03    0.56147E-05   -0.11718E-04 43568   0.296E-02    0.315E-02
DAV:   9    -0.387680137780E+03    0.61591E-05   -0.15336E-05 31272   0.242E-02
  55 F= -.38768014E+03 E0= -.38768014E+03  d E =-.210241E-01  mag=    60.0000
       N       E                     dE             d eps       ncg     rms          rms(c)
DAV:   1    -0.385282241387E+03    0.23979E+01   -0.33037E+02 41528   0.531E+01    0.670E+00
DAV:   2    -0.387571165423E+03   -0.22889E+01   -0.22851E+01 39912   0.101E+01    0.353E+00
DAV:   3    -0.387594150656E+03   -0.22985E-01   -0.56192E-01 51072   0.175E+00    0.171E+00
DAV:   4    -0.387575832546E+03    0.18318E-01   -0.70275E-02 50184   0.636E-01    0.115E+00
DAV:   5    -0.387558966871E+03    0.16866E-01   -0.92189E-03 50960   0.646E-01    0.517E-01
DAV:   6    -0.387553803467E+03    0.51634E-02   -0.14183E-02 49152   0.606E-01    0.135E-01
DAV:   7    -0.387554269513E+03   -0.46605E-03   -0.13142E-02 45864   0.286E-01    0.146E-01
DAV:   8    -0.387554176971E+03    0.92542E-04   -0.16435E-03 49616   0.697E-02    0.109E-01
DAV:   9    -0.387553879058E+03    0.29791E-03   -0.31179E-04 51224   0.805E-02    0.631E-02
DAV:  10    -0.387553628876E+03    0.25018E-03   -0.28472E-04 48216   0.133E-01    0.496E-02
DAV:  11    -0.387553572390E+03    0.56486E-04   -0.28288E-04 46880   0.801E-02    0.467E-02
DAV:  12    -0.387553580522E+03   -0.81320E-05   -0.35955E-04 43248   0.427E-02    0.195E-02
DAV:  13    -0.387553578692E+03    0.18295E-05   -0.29812E-05 34488   0.143E-02
  56 F= -.38755358E+03 E0= -.38755358E+03  d E =0.126559E+00  mag=    60.0000
       N       E                     dE             d eps       ncg     rms          rms(c)
DAV:   1    -0.387387375943E+03    0.16620E+00   -0.18327E+01 42056   0.175E+01    0.269E+00
DAV:   2    -0.387648188744E+03   -0.26081E+00   -0.24492E+00 39912   0.316E+00    0.122E+00
DAV:   3    -0.387657490505E+03   -0.93018E-02   -0.87515E-02 44744   0.706E-01    0.531E-01
DAV:   4    -0.387655939948E+03    0.15506E-02   -0.68771E-03 52432   0.232E-01    0.382E-01
DAV:   5    -0.387653181317E+03    0.27586E-02   -0.96388E-04 54736   0.305E-01    0.193E-01
DAV:   6    -0.387651677194E+03    0.15041E-02   -0.21649E-03 50832   0.372E-01    0.655E-02
DAV:   7    -0.387651774796E+03   -0.97602E-04   -0.37164E-03 44904   0.155E-01    0.636E-02
DAV:   8    -0.387651759784E+03    0.15013E-04   -0.51275E-04 46152   0.449E-02    0.488E-02
DAV:   9    -0.387651686641E+03    0.73143E-04   -0.45525E-05 41536   0.427E-02    0.326E-02
DAV:  10    -0.387651600613E+03    0.86027E-04   -0.80888E-05 47872   0.102E-01    0.148E-02
DAV:  11    -0.387651601554E+03   -0.94091E-06   -0.12797E-04 44176   0.413E-02    0.172E-02
DAV:  12    -0.387651607900E+03   -0.63457E-05   -0.77637E-05 42824   0.169E-02
  57 F= -.38765161E+03 E0= -.38765161E+03  d E =-.980292E-01  mag=    60.0000
       N       E                     dE             d eps       ncg     rms          rms(c)
DAV:   1    -0.387597626460E+03    0.53975E-01   -0.74196E+00 42000   0.102E+01    0.147E+00
DAV:   2    -0.387679851283E+03   -0.82225E-01   -0.78461E-01 39848   0.184E+00    0.666E-01
DAV:   3    -0.387682360415E+03   -0.25091E-02   -0.26449E-02 45840   0.394E-01    0.306E-01
DAV:   4    -0.387681843895E+03    0.51652E-03   -0.22906E-03 54536   0.135E-01    0.220E-01
DAV:   5    -0.387680931673E+03    0.91222E-03   -0.36680E-04 52984   0.184E-01    0.106E-01
DAV:   6    -0.387680521056E+03    0.41062E-03   -0.71912E-04 49736   0.204E-01    0.384E-02
DAV:   7    -0.387680563001E+03   -0.41945E-04   -0.11464E-03 44824   0.839E-02    0.393E-02
DAV:   8    -0.387680555388E+03    0.76136E-05   -0.13262E-04 47448   0.246E-02    0.282E-02
DAV:   9    -0.387680531493E+03    0.23895E-04   -0.60295E-06 28592   0.282E-02    0.199E-02
DAV:  10    -0.387680506415E+03    0.25078E-04   -0.33044E-05 41384   0.570E-02    0.745E-03
DAV:  11    -0.387680506915E+03   -0.49934E-06   -0.41191E-05 41208   0.254E-02
  58 F= -.38768051E+03 E0= -.38768051E+03  d E =-.288990E-01  mag=    60.0000
       N       E                     dE             d eps       ncg     rms          rms(c)
DAV:   1    -0.387681322592E+03   -0.81618E-03   -0.13440E+00 41200   0.330E+00    0.392E-01
DAV:   2    -0.387688801842E+03   -0.74793E-02   -0.73992E-02 39224   0.573E-01    0.180E-01
DAV:   3    -0.387688916831E+03   -0.11499E-03   -0.18318E-03 51880   0.912E-02    0.936E-02
DAV:   4    -0.387688854215E+03    0.62616E-04   -0.16488E-04 50024   0.322E-02    0.630E-02
DAV:   5    -0.387688798054E+03    0.56161E-04   -0.53095E-05 40480   0.398E-02    0.209E-02
DAV:   6    -0.387688797814E+03    0.24053E-06   -0.57808E-05 44064   0.210E-02
  59 F= -.38768880E+03 E0= -.38768880E+03  d E =-.829090E-02  mag=    60.0000
       N       E                     dE             d eps       ncg     rms          rms(c)
DAV:   1    -0.387603301147E+03    0.85497E-01   -0.15390E+01 41216   0.115E+01    0.148E+00
DAV:   2    -0.387704528798E+03   -0.10123E+00   -0.98990E-01 39136   0.203E+00    0.671E-01
DAV:   3    -0.387706426827E+03   -0.18980E-02   -0.22840E-02 51320   0.309E-01    0.331E-01
DAV:   4    -0.387705768204E+03    0.65862E-03   -0.21099E-03 50104   0.106E-01    0.225E-01
DAV:   5    -0.387705223346E+03    0.54486E-03   -0.63632E-04 50864   0.113E-01    0.775E-02
DAV:   6    -0.387705234887E+03   -0.11542E-04   -0.46824E-04 47288   0.484E-02    0.249E-02
DAV:   7    -0.387705235384E+03   -0.49629E-06   -0.55131E-05 42608   0.168E-02
  60 F= -.38770524E+03 E0= -.38770524E+03  d E =-.164376E-01  mag=    60.0000
       N       E                     dE             d eps       ncg     rms          rms(c)
DAV:   1    -0.387683050138E+03    0.22185E-01   -0.32108E+00 41816   0.556E+00    0.754E-01
DAV:   2    -0.387708135471E+03   -0.25085E-01   -0.23912E-01 39712   0.986E-01    0.336E-01
DAV:   3    -0.387708796883E+03   -0.66141E-03   -0.59019E-03 50296   0.146E-01    0.154E-01
DAV:   4    -0.387708704849E+03    0.92035E-04   -0.44660E-04 51712   0.411E-02    0.110E-01
DAV:   5    -0.387708592879E+03    0.11197E-03   -0.12581E-04 46056   0.490E-02    0.423E-02
DAV:   6    -0.387708594050E+03   -0.11708E-05   -0.96527E-05 47528   0.228E-02
  61 F= -.38770859E+03 E0= -.38770859E+03  d E =-.335867E-02  mag=    60.0000
       N       E                     dE             d eps       ncg     rms          rms(c)
DAV:   1    -0.387684680652E+03    0.23912E-01   -0.32569E+00 42296   0.601E+00    0.765E-01
DAV:   2    -0.387710899257E+03   -0.26219E-01   -0.24777E-01 38600   0.107E+00    0.341E-01
DAV:   3    -0.387711681685E+03   -0.78243E-03   -0.65510E-03 46680   0.162E-01    0.150E-01
DAV:   4    -0.387711615888E+03    0.65797E-04   -0.49122E-04 54928   0.415E-02    0.107E-01
DAV:   5    -0.387711516684E+03    0.99204E-04   -0.10262E-04 45800   0.480E-02    0.421E-02
DAV:   6    -0.387711515049E+03    0.16349E-05   -0.85965E-05 46216   0.269E-02
  62 F= -.38771152E+03 E0= -.38771152E+03  d E =-.292100E-02  mag=    60.0000
       N       E                     dE             d eps       ncg     rms          rms(c)
DAV:   1    -0.387466056619E+03    0.24546E+00   -0.43040E+01 42016   0.194E+01    0.218E+00
DAV:   2    -0.387714570999E+03   -0.24851E+00   -0.24126E+00 38280   0.344E+00    0.990E-01
DAV:   3    -0.387719506970E+03   -0.49360E-02   -0.53852E-02 46112   0.496E-01    0.466E-01
DAV:   4    -0.387718506067E+03    0.10009E-02   -0.44102E-03 54072   0.139E-01    0.332E-01
DAV:   5    -0.387717435541E+03    0.10705E-02   -0.11952E-03 46560   0.156E-01    0.128E-01
DAV:   6    -0.387717466727E+03   -0.31186E-04   -0.99889E-04 48416   0.726E-02    0.335E-02
DAV:   7    -0.387717469876E+03   -0.31486E-05   -0.11813E-04 44128   0.285E-02    0.204E-02
DAV:   8    -0.387717468811E+03    0.10642E-05   -0.10428E-05 23064   0.112E-02
  63 F= -.38771747E+03 E0= -.38771747E+03  d E =-.595376E-02  mag=    60.0000
       N       E                     dE             d eps       ncg     rms          rms(c)
DAV:   1    -0.385026848241E+03    0.26906E+01   -0.33905E+02 41808   0.583E+01    0.741E+00
DAV:   2    -0.387575576979E+03   -0.25487E+01   -0.24764E+01 39944   0.107E+01    0.382E+00
DAV:   3    -0.387619958931E+03   -0.44382E-01   -0.57122E-01 49608   0.180E+00    0.167E+00
DAV:   4    -0.387606977093E+03    0.12982E-01   -0.58984E-02 49640   0.620E-01    0.115E+00
DAV:   5    -0.387594281658E+03    0.12695E-01   -0.79660E-03 49080   0.596E-01    0.535E-01
DAV:   6    -0.387590968983E+03    0.33127E-02   -0.11458E-02 48384   0.539E-01    0.132E-01
DAV:   7    -0.387591484539E+03   -0.51556E-03   -0.10200E-02 44600   0.243E-01    0.136E-01
DAV:   8    -0.387591382827E+03    0.10171E-03   -0.88498E-04 50072   0.599E-02    0.909E-02
DAV:   9    -0.387591150656E+03    0.23217E-03   -0.13304E-04 53160   0.847E-02    0.542E-02
DAV:  10    -0.387590963567E+03    0.18709E-03   -0.15951E-04 49848   0.128E-01    0.279E-02
DAV:  11    -0.387590936611E+03    0.26956E-04   -0.23805E-04 45032   0.639E-02    0.275E-02
DAV:  12    -0.387590945423E+03   -0.88117E-05   -0.18217E-04 42320   0.289E-02    0.149E-02
DAV:  13    -0.387590939612E+03    0.58103E-05   -0.84643E-06 27024   0.172E-02
  64 F= -.38759094E+03 E0= -.38759094E+03  d E =0.126529E+00  mag=    60.0000
       N       E                     dE             d eps       ncg     rms          rms(c)
DAV:   1    -0.387248698253E+03    0.34225E+00   -0.25909E+01 42688   0.218E+01    0.349E+00
DAV:   2    -0.387679822309E+03   -0.43112E+00   -0.39742E+00 39744   0.395E+00    0.165E+00
DAV:   3    -0.387697105120E+03   -0.17283E-01   -0.13287E-01 45576   0.835E-01    0.670E-01
DAV:   4    -0.387695480377E+03    0.16247E-02   -0.94877E-03 54704   0.264E-01    0.469E-01
DAV:   5    -0.387692335390E+03    0.31450E-02   -0.12701E-03 53912   0.347E-01    0.234E-01
DAV:   6    -0.387690659134E+03    0.16763E-02   -0.23122E-03 50680   0.416E-01    0.644E-02
DAV:   7    -0.387690750377E+03   -0.91243E-04   -0.41017E-03 44912   0.172E-01    0.650E-02
DAV:   8    -0.387690718167E+03    0.32210E-04   -0.58874E-04 46056   0.522E-02    0.503E-02
DAV:   9    -0.387690638959E+03    0.79208E-04   -0.53020E-05 41600   0.412E-02    0.324E-02
DAV:  10    -0.387690519648E+03    0.11931E-03   -0.60247E-05 46584   0.109E-01    0.153E-02
DAV:  11    -0.387690493570E+03    0.26078E-04   -0.10393E-04 45032   0.703E-02    0.196E-02
DAV:  12    -0.387690505058E+03   -0.11488E-04   -0.16799E-04 43216   0.277E-02    0.110E-02
DAV:  13    -0.387690505199E+03   -0.14107E-06   -0.70173E-06 22976   0.856E-03
  65 F= -.38769051E+03 E0= -.38769051E+03  d E =-.995656E-01  mag=    60.0000
       N       E                     dE             d eps       ncg     rms          rms(c)
DAV:   1    -0.387643847223E+03    0.46658E-01   -0.47820E+00 42032   0.864E+00    0.129E+00
DAV:   2    -0.387706632453E+03   -0.62785E-01   -0.58489E-01 39600   0.156E+00    0.577E-01
DAV:   3    -0.387708957402E+03   -0.23249E-02   -0.17877E-02 47648   0.300E-01    0.250E-01
DAV:   4    -0.387708758347E+03    0.19906E-03   -0.12795E-03 55032   0.879E-02    0.183E-01
DAV:   5    -0.387708374020E+03    0.38433E-03   -0.21446E-04 48696   0.123E-01    0.844E-02
DAV:   6    -0.387708258351E+03    0.11567E-03   -0.30028E-04 49328   0.114E-01    0.228E-02
DAV:   7    -0.387708272692E+03   -0.14340E-04   -0.38701E-04 44784   0.504E-02    0.240E-02
DAV:   8    -0.387708268285E+03    0.44066E-05   -0.34910E-05 36008   0.134E-02
  66 F= -.38770827E+03 E0= -.38770827E+03  d E =-.177631E-01  mag=    60.0000
       N       E                     dE             d eps       ncg     rms          rms(c)
DAV:   1    -0.387687745046E+03    0.20528E-01   -0.29817E+00 41688   0.590E+00    0.831E-01
DAV:   2    -0.387716193229E+03   -0.28448E-01   -0.26901E-01 39912   0.106E+00    0.367E-01
DAV:   3    -0.387717108951E+03   -0.91572E-03   -0.74405E-03 49672   0.177E-01    0.167E-01
DAV:   4    -0.387717020154E+03    0.88797E-04   -0.51022E-04 53040   0.484E-02    0.124E-01
DAV:   5    -0.387716878512E+03    0.14164E-03   -0.10979E-04 43704   0.637E-02    0.563E-02
DAV:   6    -0.387716860045E+03    0.18468E-04   -0.12727E-04 47936   0.469E-02    0.133E-02
DAV:   7    -0.387716863462E+03   -0.34175E-05   -0.75521E-05 42560   0.214E-02
  67 F= -.38771686E+03 E0= -.38771686E+03  d E =-.859518E-02  mag=    60.0000
       N       E                     dE             d eps       ncg     rms          rms(c)
DAV:   1    -0.387658818299E+03    0.58042E-01   -0.78335E+00 41648   0.897E+00    0.123E+00
DAV:   2    -0.387724038054E+03   -0.65220E-01   -0.61816E-01 39664   0.160E+00    0.540E-01
DAV:   3    -0.387725989081E+03   -0.19510E-02   -0.16551E-02 50080   0.252E-01    0.247E-01
DAV:   4    -0.387725780775E+03    0.20831E-03   -0.12240E-03 51216   0.695E-02    0.184E-01
DAV:   5    -0.387725494511E+03    0.28626E-03   -0.27481E-04 47912   0.795E-02    0.787E-02
DAV:   6    -0.387725482964E+03    0.11547E-04   -0.25130E-04 48800   0.456E-02    0.175E-02
DAV:   7    -0.387725485804E+03   -0.28399E-05   -0.68168E-05 41840   0.210E-02
  68 F= -.38772549E+03 E0= -.38772549E+03  d E =-.862234E-02  mag=    60.0000
       N       E                     dE             d eps       ncg     rms          rms(c)
DAV:   1    -0.387697264824E+03    0.28218E-01   -0.34385E+00 41552   0.611E+00    0.852E-01
DAV:   2    -0.387727695284E+03   -0.30430E-01   -0.28811E-01 39376   0.109E+00    0.373E-01
DAV:   3    -0.387728649909E+03   -0.95463E-03   -0.76809E-03 50528   0.173E-01    0.167E-01
DAV:   4    -0.387728561031E+03    0.88878E-04   -0.54354E-04 50992   0.458E-02    0.127E-01
DAV:   5    -0.387728426009E+03    0.13502E-03   -0.11675E-04 45080   0.572E-02    0.549E-02
DAV:   6    -0.387728420104E+03    0.59043E-05   -0.12247E-04 47880   0.342E-02    0.120E-02
DAV:   7    -0.387728421782E+03   -0.16775E-05   -0.38039E-05 38504   0.160E-02
  69 F= -.38772842E+03 E0= -.38772842E+03  d E =-.293598E-02  mag=    60.0000
       N       E                     dE             d eps       ncg     rms          rms(c)
DAV:   1    -0.387714706329E+03    0.13714E-01   -0.21632E+00 42016   0.465E+00    0.554E-01
DAV:   2    -0.387729347398E+03   -0.14641E-01   -0.13999E-01 38704   0.826E-01    0.245E-01
DAV:   3    -0.387729717365E+03   -0.36997E-03   -0.34724E-03 47184   0.126E-01    0.112E-01
DAV:   4    -0.387729669335E+03    0.48030E-04   -0.28371E-04 54640   0.345E-02    0.826E-02
DAV:   5    -0.387729599045E+03    0.70291E-04   -0.56415E-05 40016   0.424E-02    0.346E-02
DAV:   6    -0.387729595691E+03    0.33534E-05   -0.69363E-05 45232   0.271E-02
  70 F= -.38772960E+03 E0= -.38772960E+03  d E =-.117391E-02  mag=    60.0000
       N       E                     dE             d eps       ncg     rms          rms(c)
DAV:   1    -0.387702249103E+03    0.27350E-01   -0.47666E+00 42432   0.663E+00    0.744E-01
DAV:   2    -0.387730673060E+03   -0.28424E-01   -0.27455E-01 38520   0.117E+00    0.334E-01
DAV:   3    -0.387731276477E+03   -0.60342E-03   -0.60176E-03 45264   0.167E-01    0.155E-01
DAV:   4    -0.387731175174E+03    0.10130E-03   -0.49690E-04 55104   0.455E-02    0.111E-01
DAV:   5    -0.387731059924E+03    0.11525E-03   -0.13618E-04 45080   0.533E-02    0.405E-02
DAV:   6    -0.387731065671E+03   -0.57468E-05   -0.10881E-04 46880   0.235E-02    0.116E-02
DAV:   7    -0.387731065624E+03    0.46770E-07   -0.10986E-05 21888   0.999E-03
  71 F= -.38773107E+03 E0= -.38773107E+03  d E =-.146993E-02  mag=    60.0000
       N       E                     dE             d eps       ncg     rms          rms(c)
DAV:   1    -0.387293815692E+03    0.43725E+00   -0.84102E+01 42016   0.261E+01    0.279E+00
DAV:   2    -0.387732528466E+03   -0.43871E+00   -0.42902E+00 38696   0.462E+00    0.129E+00
DAV:   3    -0.387738936756E+03   -0.64083E-02   -0.85202E-02 45304   0.652E-01    0.619E-01
DAV:   4    -0.387736979458E+03    0.19573E-02   -0.80770E-03 53256   0.197E-01    0.431E-01
DAV:   5    -0.387735118591E+03    0.18609E-02   -0.20280E-03 47168   0.206E-01    0.163E-01
DAV:   6    -0.387735165294E+03   -0.46703E-04   -0.18418E-03 48128   0.100E-01    0.469E-02
DAV:   7    -0.387735174519E+03   -0.92251E-05   -0.21741E-04 45296   0.373E-02    0.302E-02
DAV:   8    -0.387735170601E+03    0.39173E-05   -0.21837E-05 31176   0.171E-02
  72 F= -.38773517E+03 E0= -.38773517E+03  d E =-.410498E-02  mag=    60.0000
       N       E                     dE             d eps       ncg     rms          rms(c)
DAV:   1    -0.386210604823E+03    0.15246E+01   -0.29230E+02 42784   0.482E+01    0.512E+00
DAV:   2    -0.387733837560E+03   -0.15232E+01   -0.14882E+01 38512   0.849E+00    0.256E+00
DAV:   3    -0.387749545632E+03   -0.15708E-01   -0.28824E-01 44152   0.125E+00    0.116E+00
DAV:   4    -0.387742756302E+03    0.67893E-02   -0.35383E-02 51368   0.402E-01    0.785E-01
DAV:   5    -0.387736611262E+03    0.61450E-02   -0.58730E-03 47432   0.331E-01    0.338E-01
DAV:   6    -0.387736172026E+03    0.43924E-03   -0.61362E-03 48168   0.206E-01    0.882E-02
DAV:   7    -0.387736273884E+03   -0.10186E-03   -0.10703E-03 44880   0.759E-02    0.591E-02
DAV:   8    -0.387736270688E+03    0.31957E-05   -0.12291E-04 45280   0.297E-02    0.371E-02
DAV:   9    -0.387736264545E+03    0.61430E-05   -0.15712E-05 30888   0.241E-02
  73 F= -.38773626E+03 E0= -.38773626E+03  d E =-.109394E-02  mag=    60.0000
       N       E                     dE             d eps       ncg     rms          rms(c)
DAV:   1    -0.385651465873E+03    0.20848E+01   -0.36090E+02 42760   0.547E+01    0.614E+00
DAV:   2    -0.387720301649E+03   -0.20688E+01   -0.20036E+01 38552   0.972E+00    0.317E+00
DAV:   3    -0.387745575066E+03   -0.25273E-01   -0.39722E-01 44592   0.146E+00    0.136E+00
DAV:   4    -0.387736807881E+03    0.87672E-02   -0.46463E-02 50952   0.451E-01    0.919E-01
DAV:   5    -0.387728773128E+03    0.80348E-02   -0.69197E-03 47600   0.353E-01    0.430E-01
DAV:   6    -0.387727622860E+03    0.11503E-02   -0.79824E-03 48264   0.258E-01    0.103E-01
DAV:   7    -0.387727794134E+03   -0.17127E-03   -0.19135E-03 45072   0.971E-02    0.736E-02
DAV:   8    -0.387727786058E+03    0.80762E-05   -0.17297E-04 47464   0.301E-02    0.456E-02
DAV:   9    -0.387727774490E+03    0.11568E-04   -0.21566E-05 33728   0.289E-02    0.221E-02
DAV:  10    -0.387727772049E+03    0.24409E-05   -0.26503E-05 37000   0.274E-02
  74 F= -.38772777E+03 E0= -.38772777E+03  d E =0.849250E-02  mag=    60.0000
       N       E                     dE             d eps       ncg     rms          rms(c)
DAV:   1    -0.387016346511E+03    0.71143E+00   -0.10326E+02 42432   0.312E+01    0.378E+00
DAV:   2    -0.387707172543E+03   -0.69083E+00   -0.65818E+00 38488   0.552E+00    0.177E+00
DAV:   3    -0.387723724146E+03   -0.16552E-01   -0.15705E-01 45304   0.849E-01    0.778E-01
DAV:   4    -0.387721493690E+03    0.22305E-02   -0.12726E-02 53048   0.232E-01    0.556E-01
DAV:   5    -0.387718749034E+03    0.27447E-02   -0.22502E-03 48248   0.222E-01    0.266E-01
DAV:   6    -0.387718376451E+03    0.37258E-03   -0.25952E-03 48504   0.160E-01    0.598E-02
DAV:   7    -0.387718433046E+03   -0.56595E-04   -0.83241E-04 44536   0.669E-02    0.478E-02
DAV:   8    -0.387718425349E+03    0.76972E-05   -0.48352E-05 41912   0.186E-02
  75 F= -.38771843E+03 E0= -.38771843E+03  d E =0.934670E-02  mag=    60.0000
       N       E                     dE             d eps       ncg     rms          rms(c)
DAV:   1    -0.387421470585E+03    0.29696E+00   -0.56929E+01 41416   0.208E+01    0.229E+00
DAV:   2    -0.387711170249E+03   -0.28970E+00   -0.28508E+00 38752   0.368E+00    0.107E+00
DAV:   3    -0.387714677906E+03   -0.35077E-02   -0.51505E-02 46768   0.509E-01    0.523E-01
DAV:   4    -0.387713220930E+03    0.14570E-02   -0.49462E-03 53256   0.160E-01    0.364E-01
DAV:   5    -0.387711862405E+03    0.13585E-02   -0.14780E-03 48568   0.187E-01    0.133E-01
DAV:   6    -0.387711906061E+03   -0.43655E-04   -0.14319E-03 48072   0.942E-02    0.408E-02
DAV:   7    -0.387711914375E+03   -0.83140E-05   -0.19931E-04 45096   0.344E-02    0.288E-02
DAV:   8    -0.387711908663E+03    0.57120E-05   -0.15581E-05 27344   0.154E-02
  76 F= -.38771191E+03 E0= -.38771191E+03  d E =0.651669E-02  mag=    60.0000
       N       E                     dE             d eps       ncg     rms          rms(c)
DAV:   1    -0.387651972108E+03    0.59942E-01   -0.12334E+01 42176   0.101E+01    0.111E+00
DAV:   2    -0.387718314530E+03   -0.66342E-01   -0.64929E-01 38632   0.177E+00    0.510E-01
DAV:   3    -0.387719424711E+03   -0.11102E-02   -0.14132E-02 46600   0.258E-01    0.251E-01
DAV:   4    -0.387719092985E+03    0.33173E-03   -0.12385E-03 56152   0.765E-02    0.177E-01
DAV:   5    -0.387718722856E+03    0.37013E-03   -0.41048E-04 47328   0.981E-02    0.603E-02
DAV:   6    -0.387718730024E+03   -0.71672E-05   -0.35438E-04 47464   0.488E-02    0.207E-02
DAV:   7    -0.387718730357E+03   -0.33325E-06   -0.66952E-05 40680   0.210E-02
  77 F= -.38771873E+03 E0= -.38771873E+03  d E =-.682169E-02  mag=    60.0000
       N       E                     dE             d eps       ncg     rms          rms(c)
DAV:   1    -0.387649282207E+03    0.69448E-01   -0.12525E+01 41808   0.105E+01    0.118E+00
DAV:   2    -0.387721870124E+03   -0.72588E-01   -0.70229E-01 38784   0.184E+00    0.532E-01
DAV:   3    -0.387723293860E+03   -0.14237E-02   -0.15043E-02 47976   0.263E-01    0.251E-01
DAV:   4    -0.387723013794E+03    0.28007E-03   -0.12266E-03 54112   0.724E-02    0.180E-01
DAV:   5    -0.387722665619E+03    0.34818E-03   -0.37734E-04 47064   0.906E-02    0.703E-02
DAV:   6    -0.387722670242E+03   -0.46231E-05   -0.32911E-04 47984   0.446E-02    0.186E-02
DAV:   7    -0.387722672037E+03   -0.17953E-05   -0.53257E-05 37936   0.189E-02
  78 F= -.38772267E+03 E0= -.38772267E+03  d E =-.394168E-02  mag=    60.0000
       N       E                     dE             d eps       ncg     rms          rms(c)
DAV:   1    -0.387597324009E+03    0.12535E+00   -0.19005E+01 41880   0.126E+01    0.157E+00
DAV:   2    -0.387717613498E+03   -0.12029E+00   -0.11422E+00 38528   0.223E+00    0.712E-01
DAV:   3    -0.387720687873E+03   -0.30744E-02   -0.26247E-02 46656   0.329E-01    0.307E-01
DAV:   4    -0.387720345771E+03    0.34210E-03   -0.17898E-03 54544   0.803E-02    0.237E-01
DAV:   5    -0.387719837968E+03    0.50780E-03   -0.35302E-04 46736   0.873E-02    0.126E-01
DAV:   6    -0.387719752289E+03    0.85679E-04   -0.51637E-04 48416   0.714E-02    0.209E-02
DAV:   7    -0.387719765430E+03   -0.13141E-04   -0.15402E-04 42448   0.292E-02    0.157E-02
DAV:   8    -0.387719765553E+03   -0.12265E-06   -0.75402E-06 22296   0.767E-03
  79 F= -.38771977E+03 E0= -.38771977E+03  d E =0.290648E-02  mag=    60.0000
       N       E                     dE             d eps       ncg     rms          rms(c)
DAV:   1    -0.387251509769E+03    0.46826E+00   -0.85000E+01 41824   0.254E+01    0.290E+00
DAV:   2    -0.387706394977E+03   -0.45489E+00   -0.43612E+00 38400   0.443E+00    0.139E+00
DAV:   3    -0.387715014403E+03   -0.86194E-02   -0.95400E-02 45256   0.653E-01    0.610E-01
DAV:   4    -0.387713340601E+03    0.16738E-02   -0.84125E-03 53464   0.186E-01    0.435E-01
DAV:   5    -0.387711270423E+03    0.20702E-02   -0.15447E-03 46920   0.189E-01    0.204E-01
DAV:   6    -0.387711013461E+03    0.25696E-03   -0.20485E-03 48312   0.143E-01    0.428E-02
DAV:   7    -0.387711068404E+03   -0.54943E-04   -0.60681E-04 44808   0.560E-02    0.385E-02
DAV:   8    -0.387711063636E+03    0.47674E-05   -0.29213E-05 35048   0.142E-02
  80 F= -.38771106E+03 E0= -.38771106E+03  d E =0.870192E-02  mag=    60.0000
       N       E                     dE             d eps       ncg     rms          rms(c)
DAV:   1    -0.385654920794E+03    0.20561E+01   -0.35121E+02 41896   0.523E+01    0.614E+00
DAV:   2    -0.387683432411E+03   -0.20285E+01   -0.19636E+01 38376   0.938E+00    0.313E+00
DAV:   3    -0.387712031889E+03   -0.28599E-01   -0.42138E-01 44952   0.146E+00    0.136E+00
DAV:   4    -0.387703884309E+03    0.81476E-02   -0.46758E-02 49064   0.457E-01    0.955E-01
DAV:   5    -0.387696607360E+03    0.72769E-02   -0.48007E-03 49368   0.315E-01    0.544E-01
DAV:   6    -0.387693955813E+03    0.26515E-02   -0.78345E-03 48440   0.344E-01    0.125E-01
DAV:   7    -0.387694225858E+03   -0.27005E-03   -0.42053E-03 44136   0.143E-01    0.896E-02
DAV:   8    -0.387694210127E+03    0.15731E-04   -0.31043E-04 48704   0.369E-02    0.553E-02
DAV:   9    -0.387694178694E+03    0.31433E-04   -0.47810E-05 40080   0.380E-02    0.333E-02
DAV:  10    -0.387694159022E+03    0.19672E-04   -0.27643E-05 37800   0.444E-02    0.112E-02
DAV:  11    -0.387694157163E+03    0.18590E-05   -0.48546E-05 41816   0.242E-02
  81 F= -.38769416E+03 E0= -.38769416E+03  d E =0.169065E-01  mag=    60.0000
       N       E                     dE             d eps       ncg     rms          rms(c)
DAV:   1    -0.383616396984E+03    0.40778E+01   -0.23004E+02 42440   0.640E+01    0.106E+01
DAV:   2    -0.387302791848E+03   -0.36864E+01   -0.34085E+01 39672   0.118E+01    0.621E+00
DAV:   3    -0.387445000586E+03   -0.14221E+00   -0.11430E+00 44184   0.251E+00    0.232E+00
DAV:   4    -0.387429038840E+03    0.15962E-01   -0.81831E-02 53808   0.838E-01    0.170E+00
DAV:   5    -0.387405014884E+03    0.24024E-01   -0.85417E-03 52512   0.885E-01    0.972E-01
DAV:   6    -0.387386511858E+03    0.18503E-01   -0.20804E-02 51488   0.137E+00    0.192E-01
DAV:   7    -0.387387901526E+03   -0.13897E-02   -0.40640E-02 44664   0.502E-01    0.218E-01
DAV:   8    -0.387387699794E+03    0.20173E-03   -0.47545E-03 49296   0.140E-01    0.163E-01
DAV:   9    -0.387387040733E+03    0.65906E-03   -0.55943E-04 52264   0.102E-01    0.111E-01
DAV:  10    -0.387386115759E+03    0.92497E-03   -0.77324E-04 53192   0.287E-01    0.648E-02
DAV:  11    -0.387386008552E+03    0.10721E-03   -0.93461E-04 47208   0.131E-01    0.657E-02
DAV:  12    -0.387386048007E+03   -0.39455E-04   -0.88698E-04 44232   0.631E-02    0.285E-02
DAV:  13    -0.387386037612E+03    0.10395E-04   -0.54833E-05 44080   0.349E-02    0.230E-02
DAV:  14    -0.387386032714E+03    0.48980E-05   -0.19646E-05 33880   0.310E-02
  82 F= -.38738603E+03 E0= -.38738603E+03  d E =0.308124E+00  mag=    60.0000
       N       E                     dE             d eps       ncg     rms          rms(c)
DAV:   1    -0.386575248059E+03    0.81079E+00   -0.55451E+01 43848   0.334E+01    0.562E+00
DAV:   2    -0.387629870266E+03   -0.10546E+01   -0.96657E+00 39440   0.602E+00    0.278E+00
DAV:   3    -0.387676676469E+03   -0.46806E-01   -0.36615E-01 45072   0.140E+00    0.108E+00
DAV:   4    -0.387671735285E+03    0.49412E-02   -0.24738E-02 54600   0.471E-01    0.769E-01
DAV:   5    -0.387663114021E+03    0.86213E-02   -0.27989E-03 55192   0.573E-01    0.409E-01
DAV:   6    -0.387657396838E+03    0.57172E-02   -0.68966E-03 52128   0.785E-01    0.112E-01
DAV:   7    -0.387657721042E+03   -0.32420E-03   -0.12872E-02 44648   0.301E-01    0.114E-01
DAV:   8    -0.387657682559E+03    0.38483E-04   -0.19413E-03 48128   0.930E-02    0.918E-02
DAV:   9    -0.387657454637E+03    0.22792E-03   -0.16904E-04 50232   0.753E-02    0.619E-02
DAV:  10    -0.387657116953E+03    0.33768E-03   -0.22703E-04 54344   0.208E-01    0.334E-02
DAV:  11    -0.387657091366E+03    0.25587E-04   -0.37221E-04 46216   0.908E-02    0.334E-02
DAV:  12    -0.387657116259E+03   -0.24893E-04   -0.31927E-04 43216   0.362E-02    0.159E-02
DAV:  13    -0.387657114920E+03    0.13394E-05   -0.11530E-05 30000   0.212E-02
  83 F= -.38765711E+03 E0= -.38765711E+03  d E =-.271082E+00  mag=    60.0000
       N       E                     dE             d eps       ncg     rms          rms(c)
DAV:   1    -0.387355120612E+03    0.30200E+00   -0.18258E+01 43168   0.193E+01    0.313E+00
DAV:   2    -0.387691458523E+03   -0.33634E+00   -0.30749E+00 39496   0.347E+00    0.145E+00
DAV:   3    -0.387706436451E+03   -0.14978E-01   -0.11444E-01 44504   0.790E-01    0.593E-01
DAV:   4    -0.387705219218E+03    0.12172E-02   -0.78065E-03 54616   0.241E-01    0.426E-01
DAV:   5    -0.387702797074E+03    0.24221E-02   -0.84300E-04 53984   0.287E-01    0.238E-01
DAV:   6    -0.387701120992E+03    0.16761E-02   -0.19085E-03 51920   0.421E-01    0.640E-02
DAV:   7    -0.387701199109E+03   -0.78117E-04   -0.37019E-03 44624   0.161E-01    0.636E-02
DAV:   8    -0.387701197412E+03    0.16975E-05   -0.61017E-04 44512   0.513E-02    0.535E-02
DAV:   9    -0.387701143075E+03    0.54337E-04   -0.53446E-05 40552   0.324E-02    0.360E-02
DAV:  10    -0.387701050284E+03    0.92791E-04   -0.51437E-05 45800   0.960E-02    0.159E-02
DAV:  11    -0.387701033476E+03    0.16808E-04   -0.86228E-05 44296   0.589E-02    0.192E-02
DAV:  12    -0.387701042762E+03   -0.92861E-05   -0.12364E-04 43728   0.227E-02    0.101E-02
DAV:  13    -0.387701042680E+03    0.81935E-07   -0.37297E-06 22576   0.852E-03
  84 F= -.38770104E+03 E0= -.38770104E+03  d E =-.439278E-01  mag=    60.0000
       N       E                     dE             d eps       ncg     rms          rms(c)
DAV:   1    -0.387691014121E+03    0.10029E-01   -0.98877E-01 42224   0.399E+00    0.610E-01
DAV:   2    -0.387705085322E+03   -0.14071E-01   -0.13052E-01 39184   0.724E-01    0.267E-01
DAV:   3    -0.387705641968E+03   -0.55665E-03   -0.40243E-03 47104   0.132E-01    0.119E-01
DAV:   4    -0.387705614949E+03    0.27020E-04   -0.24647E-04 53960   0.324E-02    0.925E-02
DAV:   5    -0.387705553394E+03    0.61554E-04   -0.35050E-05 37888   0.396E-02    0.511E-02
DAV:   6    -0.387705533807E+03    0.19587E-04   -0.57896E-05 45176   0.440E-02    0.106E-02
DAV:   7    -0.387705536443E+03   -0.26362E-05   -0.55697E-05 41056   0.186E-02
  85 F= -.38770554E+03 E0= -.38770554E+03  d E =-.449376E-02  mag=    60.0000
       N       E                     dE             d eps       ncg     rms          rms(c)
DAV:   1    -0.387681228792E+03    0.24305E-01   -0.23422E+00 41632   0.579E+00    0.854E-01
DAV:   2    -0.387709624906E+03   -0.28396E-01   -0.26644E-01 39176   0.106E+00    0.374E-01
DAV:   3    -0.387710674139E+03   -0.10492E-02   -0.80361E-03 47512   0.192E-01    0.169E-01
DAV:   4    -0.387710611933E+03    0.62207E-04   -0.54423E-04 55360   0.499E-02    0.133E-01
DAV:   5    -0.387710467324E+03    0.14461E-03   -0.80541E-05 41744   0.655E-02    0.713E-02
DAV:   6    -0.387710422814E+03    0.44510E-04   -0.13642E-04 48760   0.709E-02    0.163E-02
DAV:   7    -0.387710429479E+03   -0.66659E-05   -0.14377E-04 44288   0.295E-02    0.158E-02
DAV:   8    -0.387710428186E+03    0.12938E-05   -0.91818E-06 22584   0.768E-03
  86 F= -.38771043E+03 E0= -.38771043E+03  d E =-.489174E-02  mag=    60.0000
       N       E                     dE             d eps       ncg     rms          rms(c)
DAV:   1    -0.387706711812E+03    0.37177E-02   -0.63366E-01 42008   0.256E+00    0.323E-01
DAV:   2    -0.387711414657E+03   -0.47028E-02   -0.44923E-02 39360   0.456E-01    0.144E-01
DAV:   3    -0.387711535272E+03   -0.12062E-03   -0.11086E-03 47256   0.732E-02    0.679E-02
DAV:   4    -0.387711520338E+03    0.14934E-04   -0.84516E-05 46880   0.203E-02    0.506E-02
DAV:   5    -0.387711494206E+03    0.26132E-04   -0.17016E-05 32280   0.289E-02    0.216E-02
DAV:   6    -0.387711490997E+03    0.32095E-05   -0.27824E-05 39048   0.219E-02
  87 F= -.38771149E+03 E0= -.38771149E+03  d E =-.106281E-02  mag=    60.0000
