       N       E                     dE             d eps       ncg     rms          ort
DAV:   1     0.580989056730E+04    0.58099E+04   -0.23467E+05  7072   0.165E+03
DAV:   2     0.571838385397E+03   -0.52381E+04   -0.49026E+04  7072   0.474E+02
DAV:   3    -0.371908112414E+03   -0.94375E+03   -0.92600E+03  7072   0.205E+02
DAV:   4    -0.415484236803E+03   -0.43576E+02   -0.42195E+02  7072   0.486E+01
DAV:   5    -0.417401664872E+03   -0.19174E+01   -0.18500E+01  7072   0.944E+00
SDA:   6    -0.161912476430E+03    0.25549E+03   -0.18500E+01  7072   0.352E+04 0.000E+00
CGA:   7    -0.896765633011E+02    0.72236E+02   -0.31030E+03  7072   0.190E+04-0.114E+03
CGA:   8    -0.270179447217E+03   -0.18050E+03   -0.10738E+03  7072   0.763E+03-0.325E+03
CGA:   9    -0.278199153624E+03   -0.80197E+01   -0.34506E+02  7072   0.472E+03 0.556E+02
CGA:  10    -0.319056801068E+03   -0.40858E+02   -0.18399E+02  7072   0.359E+03-0.447E+02
CGA:  11    -0.302578737173E+03    0.16478E+02   -0.81952E+01  7072   0.135E+04-0.579E+03
CGA:  12    -0.257006461122E+03    0.45572E+02   -0.90103E+02  7072   0.162E+04-0.482E+03
CGA:  13    -0.271132570451E+03   -0.14126E+02   -0.68967E+02  7072   0.105E+04-0.609E+03
CGA:  14    -0.319090899950E+03   -0.47958E+02   -0.32121E+02  7072   0.180E+04 0.381E+03
CGA:  15    -0.286748265074E+03    0.32343E+02   -0.16592E+03  7072   0.853E+03-0.281E+03
CGA:  16    -0.334556962891E+03   -0.47809E+02   -0.45939E+02  7072   0.212E+03 0.852E+02
CGA:  17    -0.341247053530E+03   -0.66901E+01   -0.67509E+01  7072   0.103E+03-0.706E+02
CGA:  18    -0.345233513063E+03   -0.39865E+01   -0.40419E+01  7072   0.104E+03 0.376E+01
CGA:  19    -0.344347276632E+03    0.88624E+00   -0.30779E+01  7072   0.116E+03-0.109E+03
CGA:  20    -0.345799267900E+03   -0.14520E+01   -0.37798E+01  7072   0.152E+03-0.114E+03
CGA:  21    -0.347675869286E+03   -0.18766E+01   -0.32600E+01  7072   0.533E+02-0.772E+02
CGA:  22    -0.348131294132E+03   -0.45542E+00   -0.13241E+01  7072   0.430E+02-0.396E+02
CGA:  23    -0.348720856209E+03   -0.58956E+00   -0.74114E+00  7072   0.793E+01-0.957E+01
CGA:  24    -0.349095325491E+03   -0.37447E+00   -0.34883E+00  7072   0.718E+01 0.206E+00
CGA:  25    -0.349395805039E+03   -0.30048E+00   -0.29773E+00  7072   0.692E+01 0.990E-01
CGA:  26    -0.349942457772E+03   -0.54665E+00   -0.56639E+00  7072   0.156E+02 0.691E-01
CGA:  27    -0.350481238590E+03   -0.53878E+00   -0.41276E+00  7072   0.204E+01 0.435E+01
CGA:  28    -0.350773454995E+03   -0.29222E+00   -0.29000E+00  7072   0.234E+01 0.107E+00
CGA:  29    -0.350997081945E+03   -0.22363E+00   -0.22910E+00  7072   0.226E+01 0.443E+00
CGA:  30    -0.351170828801E+03   -0.17375E+00   -0.16389E+00  7072   0.252E+01 0.142E-01
CGA:  31    -0.351351570274E+03   -0.18074E+00   -0.18290E+00  7072   0.196E+01 0.249E-01
CGA:  32    -0.351420367291E+03   -0.68797E-01   -0.67158E-01  7072   0.117E+01 0.200E-01
CGA:  33    -0.351487222428E+03   -0.66855E-01   -0.66399E-01  7072   0.116E+01 0.183E-02
CGA:  34    -0.351551586978E+03   -0.64365E-01   -0.67517E-01  7072   0.154E+01-0.298E-03
CGA:  35    -0.351642401351E+03   -0.90814E-01   -0.87385E-01  7072   0.116E+01 0.660E-02
CGA:  36    -0.351690887478E+03   -0.48486E-01   -0.47282E-01  7072   0.776E+00 0.156E-01
CGA:  37    -0.351740790007E+03   -0.49903E-01   -0.49986E-01  7072   0.107E+01 0.249E-02
CGA:  38    -0.351796380525E+03   -0.55591E-01   -0.59085E-01  7072   0.692E+00 0.941E-02
CGA:  39    -0.351834259352E+03   -0.37879E-01   -0.37520E-01  7072   0.622E+00 0.442E-02
CGA:  40    -0.351887445121E+03   -0.53186E-01   -0.53259E-01  7072   0.628E+00-0.959E-02
CGA:  41    -0.351915223425E+03   -0.27778E-01   -0.27817E-01  7072   0.386E+00 0.228E-03
CGA:  42    -0.351946859339E+03   -0.31636E-01   -0.31661E-01  7072   0.496E+00-0.502E-02
CGA:  43    -0.351971297663E+03   -0.24438E-01   -0.24194E-01  7072   0.345E+00 0.857E-03
CGA:  44    -0.351993782157E+03   -0.22484E-01   -0.22442E-01  7072   0.378E+00-0.107E-02
CGA:  45    -0.352012852731E+03   -0.19071E-01   -0.19191E-01  7072   0.270E+00-0.165E-03
CGA:  46    -0.352031425688E+03   -0.18573E-01   -0.18628E-01  7072   0.344E+00 0.332E-02
CGA:  47    -0.352051293936E+03   -0.19868E-01   -0.19563E-01  7072   0.195E+00-0.288E-02
CGA:  48    -0.352061165296E+03   -0.98714E-02   -0.98512E-02  7072   0.190E+00 0.602E-04
CGA:  49    -0.352076830169E+03   -0.15665E-01   -0.15704E-01  7072   0.258E+00-0.260E-02
CGA:  50    -0.352087526955E+03   -0.10697E-01   -0.10588E-01  7072   0.145E+00 0.368E-03
CGA:  51    -0.352095956615E+03   -0.84297E-02   -0.84251E-02  7072   0.191E+00 0.353E-04
CGA:  52    -0.352107133143E+03   -0.11177E-01   -0.11004E-01  7072   0.166E+00-0.290E-02
SDA:  53    -0.352113550108E+03   -0.64170E-02   -0.61717E-02  7072   0.129E+00 0.194E-02
CGA:  54    -0.352123040247E+03   -0.94901E-02   -0.94972E-02  7072   0.933E-01-0.859E-03
CGA:  55    -0.352135666225E+03   -0.12626E-01   -0.13200E-01  7072   0.177E+00-0.766E-02
CGA:  56    -0.352152711148E+03   -0.17045E-01   -0.36878E-01  7072   0.935E+00-0.167E+00
CGA:  57    -0.352188322477E+03   -0.35611E-01   -0.34250E-01  7072   0.107E+00 0.260E-01
CGA:  58    -0.352195170040E+03   -0.68476E-02   -0.68210E-02  7072   0.507E-01-0.336E-03
CGA:  59    -0.352198102325E+03   -0.29323E-02   -0.29159E-02  7072   0.237E-01-0.106E-03
CGA:  60    -0.352203523558E+03   -0.54212E-02   -0.57479E-02  7072   0.686E-01-0.584E-02
CGA:  61    -0.352205728309E+03   -0.22048E-02   -0.17434E-02  7072   0.819E-01 0.875E-02
CGA:  62    -0.352208883684E+03   -0.31554E-02   -0.26998E-02  7072   0.628E-01 0.130E-01
CGA:  63    -0.352210929119E+03   -0.20454E-02   -0.15583E-02  7072   0.559E-01 0.195E-01
CGA:  64    -0.352212690748E+03   -0.17616E-02   -0.14315E-02  7072   0.454E-01 0.144E-01
CGA:  65    -0.352213764247E+03   -0.10735E-02   -0.10294E-02  7072   0.309E-01 0.216E-02
CGA:  66    -0.352214414816E+03   -0.65057E-03   -0.68866E-03  7072   0.369E-01-0.141E-02
CGA:  67    -0.352215380655E+03   -0.96584E-03   -0.10545E-02  7072   0.577E-01-0.167E-02
CGA:  68    -0.352216547616E+03   -0.11670E-02   -0.11652E-02  7072   0.373E-01 0.132E-03
CGA:  69    -0.352217250778E+03   -0.70316E-03   -0.70091E-03  7072   0.229E-01 0.274E-04
CGA:  70    -0.352217713335E+03   -0.46256E-03   -0.46519E-03  7072   0.138E-01-0.141E-03
CGA:  71    -0.352217973851E+03   -0.26052E-03   -0.26051E-03  7072   0.891E-02-0.353E-04
CGA:  72    -0.352218208661E+03   -0.23481E-03   -0.23306E-03  7072   0.107E-01 0.110E-04
CGA:  73    -0.352218478979E+03   -0.27032E-03   -0.26811E-03  7072   0.871E-02 0.156E-04
CGA:  74    -0.352218643575E+03   -0.16460E-03   -0.16299E-03  7072   0.591E-02 0.375E-04
CGA:  75    -0.352218821996E+03   -0.17842E-03   -0.17755E-03  7072   0.102E-01 0.264E-05
CGA:  76    -0.352219155701E+03   -0.33371E-03   -0.33289E-03  7072   0.132E-01 0.756E-05
CGA:  77    -0.352219393160E+03   -0.23746E-03   -0.23636E-03  7072   0.622E-02 0.674E-04
CGA:  78    -0.352219517763E+03   -0.12460E-03   -0.12427E-03  7072   0.503E-02 0.171E-04
CGA:  79    -0.352219660022E+03   -0.14226E-03   -0.14054E-03  7072   0.613E-02 0.252E-04
CGA:  80    -0.352219810089E+03   -0.15007E-03   -0.14304E-03  7072   0.692E-02 0.164E-03
CGA:  81    -0.352219993369E+03   -0.18328E-03   -0.17520E-03  7072   0.104E-01 0.130E-03
CGA:  82    -0.352220201550E+03   -0.20818E-03   -0.20428E-03  7072   0.970E-02 0.118E-03
CGA:  83    -0.352220326600E+03   -0.12505E-03   -0.11601E-03  7072   0.506E-02 0.701E-03
CGA:  84    -0.352220396517E+03   -0.69916E-04   -0.66964E-04  7072   0.369E-02 0.220E-03
CGA:  85    -0.352220459643E+03   -0.63126E-04   -0.61711E-04  7072   0.431E-02 0.788E-04
CGA:  86    -0.352220520930E+03   -0.61287E-04   -0.60282E-04  7072   0.349E-02 0.751E-04
SDA:  87    -0.352220559259E+03   -0.38329E-04   -0.38267E-04  7072   0.207E-02 0.224E-04
CGA:  88    -0.352220692956E+03   -0.13370E-03   -0.13403E-03  7072   0.268E-02-0.120E-04
CGA:  89    -0.352220853302E+03   -0.16035E-03   -0.16048E-03  7072   0.311E-02-0.560E-05
CGA:  90    -0.352221196789E+03   -0.34349E-03   -0.34384E-03  7072   0.212E-02-0.453E-05
CGA:  91    -0.352221327924E+03   -0.13113E-03   -0.13153E-03  7072   0.582E-03-0.173E-04
CGA:  92    -0.352221362568E+03   -0.34645E-04   -0.34615E-04  7072   0.746E-03 0.221E-05
CGA:  93    -0.352221406455E+03   -0.43887E-04   -0.43687E-04  7072   0.612E-03 0.118E-04
CGA:  94    -0.352221476559E+03   -0.70104E-04   -0.72993E-04  7072   0.760E-03-0.546E-04
CGA:  95    -0.352221507746E+03   -0.31187E-04   -0.31191E-04  7072   0.207E-03 0.158E-05
CGA:  96    -0.352221523853E+03   -0.16107E-04   -0.16209E-04  7072   0.292E-03-0.409E-05
CGA:  97    -0.352221538244E+03   -0.14390E-04   -0.14398E-04  7072   0.222E-03-0.143E-04
CGA:  98    -0.352221548901E+03   -0.10658E-04   -0.10666E-04  7072   0.140E-03-0.130E-04
CGA:  99    -0.352221555215E+03   -0.63139E-05   -0.63003E-05  7072   0.814E-04-0.669E-05
   1 F= -.35222156E+03 E0= -.35220630E+03  d E =-.352222E+03  mag=     8.0000
       N       E                     dE             d eps       ncg     rms          ort
SDA:   1    -0.352238071454E+03   -0.16523E-01    0.00000E+00  7072   0.586E-01 0.000E+00
CGA:   2    -0.352239214631E+03   -0.11432E-02   -0.11488E-02  7072   0.427E-02-0.183E-03
CGA:   3    -0.352239412720E+03   -0.19809E-03   -0.19809E-03  7072   0.305E-02-0.465E-06
CGA:   4    -0.352239647532E+03   -0.23481E-03   -0.23474E-03  7072   0.206E-02 0.274E-05
CGA:   5    -0.352239806182E+03   -0.15865E-03   -0.15844E-03  7072   0.897E-03 0.761E-05
CGA:   6    -0.352239851928E+03   -0.45746E-04   -0.45746E-04  7072   0.511E-03 0.436E-05
CGA:   7    -0.352239878780E+03   -0.26852E-04   -0.26852E-04  7072   0.520E-03 0.477E-06
CGA:   8    -0.352239907192E+03   -0.28412E-04   -0.28410E-04  7072   0.195E-03 0.435E-06
CGA:   9    -0.352239919656E+03   -0.12464E-04   -0.12455E-04  7072   0.386E-04 0.720E-06
CGA:  10    -0.352239922935E+03   -0.32788E-05   -0.32901E-05  7072   0.686E-04-0.329E-06
   2 F= -.35223992E+03 E0= -.35222464E+03  d E =-.183677E-01  mag=     8.0000
       N       E                     dE             d eps       ncg     rms          ort
SDA:   1    -0.352211038773E+03    0.28881E-01    0.00000E+00  7072   0.141E+01 0.000E+00
CGA:   2    -0.352499205211E+03   -0.28817E+00   -0.29016E+00  7072   0.202E+01-0.161E-01
CGA:   3    -0.352548491770E+03   -0.49287E-01   -0.50065E-01  7072   0.574E+00-0.241E-01
CGA:   4    -0.352605675042E+03   -0.57183E-01   -0.57061E-01  7072   0.499E+00 0.265E-02
CGA:   5    -0.352641027720E+03   -0.35353E-01   -0.35334E-01  7072   0.245E+00 0.113E-02
CGA:   6    -0.352652695398E+03   -0.11668E-01   -0.11596E-01  7072   0.117E+00-0.117E-02
CGA:   7    -0.352656958387E+03   -0.42630E-02   -0.42572E-02  7072   0.581E-01 0.205E-04
CGA:   8    -0.352661755198E+03   -0.47968E-02   -0.47996E-02  7072   0.471E-01-0.919E-04
CGA:   9    -0.352664070159E+03   -0.23150E-02   -0.23190E-02  7072   0.160E-01 0.952E-04
CGA:  10    -0.352664957671E+03   -0.88751E-03   -0.88698E-03  7072   0.985E-02-0.539E-04
CGA:  11    -0.352665555179E+03   -0.59751E-03   -0.59750E-03  7072   0.130E-01 0.650E-05
CGA:  12    -0.352666339526E+03   -0.78435E-03   -0.78434E-03  7072   0.611E-02 0.876E-05
CGA:  13    -0.352666721164E+03   -0.38164E-03   -0.38169E-03  7072   0.346E-02-0.112E-04
CGA:  14    -0.352667032359E+03   -0.31120E-03   -0.31120E-03  7072   0.426E-02-0.429E-06
CGA:  15    -0.352667232370E+03   -0.20001E-03   -0.20010E-03  7072   0.420E-02 0.460E-05
CGA:  16    -0.352667610872E+03   -0.37850E-03   -0.37825E-03  7072   0.112E-02 0.893E-05
CGA:  17    -0.352667717819E+03   -0.10695E-03   -0.10671E-03  7072   0.247E-02 0.740E-05
CGA:  18    -0.352667876090E+03   -0.15827E-03   -0.15827E-03  7072   0.172E-02 0.796E-05
CGA:  19    -0.352667948450E+03   -0.72360E-04   -0.72461E-04  7072   0.794E-03 0.595E-05
CGA:  20    -0.352667999862E+03   -0.51413E-04   -0.51400E-04  7072   0.432E-03 0.652E-05
CGA:  21    -0.352668032804E+03   -0.32942E-04   -0.32868E-04  7072   0.463E-03 0.582E-05
CGA:  22    -0.352668064818E+03   -0.32014E-04   -0.31995E-04  7072   0.473E-03 0.394E-05
CGA:  23    -0.352668081568E+03   -0.16750E-04   -0.16826E-04  7072   0.975E-04 0.249E-05
CGA:  24    -0.352668092403E+03   -0.10834E-04   -0.10771E-04  7072   0.130E-03 0.130E-05
CGA:  25    -0.352668101477E+03   -0.90749E-05   -0.90743E-05  7072   0.125E-03 0.147E-06
   3 F= -.35266810E+03 E0= -.35265287E+03  d E =-.428179E+00  mag=     8.0000
       N       E                     dE             d eps       ncg     rms          ort
SDA:   1    -0.350545550909E+03    0.21225E+01    0.00000E+00  7072   0.921E+01 0.000E+00
CGA:   2    -0.352604301831E+03   -0.20588E+01   -0.20713E+01  7072   0.637E+01-0.877E-01
CGA:   3    -0.352797486542E+03   -0.19318E+00   -0.20151E+00  7072   0.425E+01-0.199E+00
CGA:   4    -0.353202501969E+03   -0.40502E+00   -0.40494E+00  7072   0.280E+01-0.992E-03
CGA:   5    -0.353355814729E+03   -0.15331E+00   -0.15328E+00  7072   0.113E+01-0.451E-03
CGA:   6    -0.353411408218E+03   -0.55593E-01   -0.54372E-01  7072   0.632E+00-0.281E-02
CGA:   7    -0.353439166418E+03   -0.27758E-01   -0.27605E-01  7072   0.431E+00 0.830E-04
CGA:   8    -0.353470566192E+03   -0.31400E-01   -0.31397E-01  7072   0.257E+00 0.246E-03
CGA:   9    -0.353481002646E+03   -0.10436E-01   -0.10550E-01  7072   0.645E-01-0.691E-03
CGA:  10    -0.353486814275E+03   -0.58116E-02   -0.58311E-02  7072   0.107E+00-0.617E-03
CGA:  11    -0.353492215751E+03   -0.54015E-02   -0.54052E-02  7072   0.706E-01 0.275E-04
CGA:  12    -0.353495435084E+03   -0.32193E-02   -0.32138E-02  7072   0.273E-01-0.272E-05
CGA:  13    -0.353497785161E+03   -0.23501E-02   -0.23436E-02  7072   0.236E-01 0.240E-03
CGA:  14    -0.353500006668E+03   -0.22215E-02   -0.22264E-02  7072   0.426E-01-0.143E-03
CGA:  15    -0.353501733519E+03   -0.17269E-02   -0.17314E-02  7072   0.166E-01-0.188E-04
CGA:  16    -0.353502985121E+03   -0.12516E-02   -0.12514E-02  7072   0.909E-02 0.201E-04
CGA:  17    -0.353503818958E+03   -0.83384E-03   -0.83327E-03  7072   0.158E-01 0.234E-04
CGA:  18    -0.353504843116E+03   -0.10242E-02   -0.10243E-02  7072   0.114E-01 0.243E-04
CGA:  19    -0.353505238100E+03   -0.39498E-03   -0.39600E-03  7072   0.312E-02 0.444E-05
CGA:  20    -0.353505523825E+03   -0.28573E-03   -0.28528E-03  7072   0.407E-02 0.173E-04
CGA:  21    -0.353505800221E+03   -0.27640E-03   -0.27640E-03  7072   0.264E-02 0.158E-04
CGA:  22    -0.353505954250E+03   -0.15403E-03   -0.15411E-03  7072   0.221E-02 0.679E-05
CGA:  23    -0.353506035803E+03   -0.81553E-04   -0.81785E-04  7072   0.625E-03 0.309E-05
CGA:  24    -0.353506124512E+03   -0.88709E-04   -0.88594E-04  7072   0.112E-02 0.144E-05
CGA:  25    -0.353506188974E+03   -0.64462E-04   -0.64488E-04  7072   0.548E-03 0.242E-05
CGA:  26    -0.353506207083E+03   -0.18109E-04   -0.18101E-04  7072   0.234E-03-0.234E-06
CGA:  27    -0.353506236837E+03   -0.29754E-04   -0.29804E-04  7072   0.249E-03-0.925E-06
CGA:  28    -0.353506252875E+03   -0.16038E-04   -0.16032E-04  7072   0.258E-03-0.103E-05
CGA:  29    -0.353506265479E+03   -0.12604E-04   -0.12594E-04  7072   0.103E-03-0.393E-06
CGA:  30    -0.353506269743E+03   -0.42644E-05   -0.42384E-05  7072   0.583E-04-0.932E-06
   4 F= -.35350627E+03 E0= -.35349113E+03  d E =-.838168E+00  mag=     8.0000
       N       E                     dE             d eps       ncg     rms          ort
SDA:   1    -0.350289547522E+03    0.32167E+01    0.00000E+00  7072   0.126E+02 0.000E+00
CGA:   2    -0.352330072297E+03   -0.20405E+01   -0.20362E+01  7072   0.301E+02 0.959E-01
CGA:   3    -0.353153267875E+03   -0.82320E+00   -0.79172E+00  7072   0.333E+01 0.376E+00
CGA:   4    -0.353599961920E+03   -0.44669E+00   -0.45003E+00  7072   0.634E+01-0.557E-01
CGA:   5    -0.353894217087E+03   -0.29426E+00   -0.29801E+00  7072   0.114E+01-0.698E-02
CGA:   6    -0.353966888124E+03   -0.72671E-01   -0.72488E-01  7072   0.824E+00-0.539E-02
CGA:   7    -0.354012785376E+03   -0.45897E-01   -0.45556E-01  7072   0.753E+00-0.359E-02
CGA:   8    -0.354043651618E+03   -0.30866E-01   -0.31155E-01  7072   0.315E+00-0.263E-02
CGA:   9    -0.354061632602E+03   -0.17981E-01   -0.17996E-01  7072   0.816E-01 0.956E-04
CGA:  10    -0.354071249883E+03   -0.96173E-02   -0.95748E-02  7072   0.122E+00 0.825E-03
CGA:  11    -0.354078928379E+03   -0.76785E-02   -0.76751E-02  7072   0.757E-01-0.876E-04
CGA:  12    -0.354081488546E+03   -0.25602E-02   -0.25827E-02  7072   0.369E-01-0.343E-03
CGA:  13    -0.354085050206E+03   -0.35617E-02   -0.35622E-02  7072   0.376E-01-0.147E-04
CGA:  14    -0.354089519594E+03   -0.44694E-02   -0.44661E-02  7072   0.240E-01 0.612E-04
CGA:  15    -0.354090616628E+03   -0.10970E-02   -0.10978E-02  7072   0.234E-01 0.115E-05
CGA:  16    -0.354092100335E+03   -0.14837E-02   -0.14846E-02  7072   0.141E-01 0.495E-04
CGA:  17    -0.354093417730E+03   -0.13174E-02   -0.13156E-02  7072   0.201E-01 0.682E-04
CGA:  18    -0.354094582717E+03   -0.11650E-02   -0.11664E-02  7072   0.444E-02 0.337E-04
CGA:  19    -0.354094835924E+03   -0.25321E-03   -0.25326E-03  7072   0.613E-02 0.482E-05
CGA:  20    -0.354095290646E+03   -0.45472E-03   -0.45467E-03  7072   0.509E-02 0.213E-04
CGA:  21    -0.354095543898E+03   -0.25325E-03   -0.25365E-03  7072   0.154E-02 0.104E-04
CGA:  22    -0.354095675255E+03   -0.13136E-03   -0.13132E-03  7072   0.115E-02 0.259E-05
CGA:  23    -0.354095739212E+03   -0.63957E-04   -0.63976E-04  7072   0.159E-02 0.124E-05
CGA:  24    -0.354095856728E+03   -0.11752E-03   -0.11750E-03  7072   0.543E-03 0.618E-05
CGA:  25    -0.354095887730E+03   -0.31001E-04   -0.30997E-04  7072   0.294E-03 0.437E-07
CGA:  26    -0.354095916175E+03   -0.28445E-04   -0.28436E-04  7072   0.581E-03 0.297E-06
CGA:  27    -0.354095942623E+03   -0.26448E-04   -0.26432E-04  7072   0.248E-03-0.787E-06
CGA:  28    -0.354095958804E+03   -0.16181E-04   -0.16181E-04  7072   0.147E-03-0.308E-07
CGA:  29    -0.354095966979E+03   -0.81752E-05   -0.81593E-05  7072   0.884E-04-0.108E-05
   5 F= -.35409597E+03 E0= -.35408087E+03  d E =-.589697E+00  mag=     8.0000
       N       E                     dE             d eps       ncg     rms          ort
SDA:   1    -0.349938545445E+03    0.41574E+01    0.00000E+00  7072   0.171E+02 0.000E+00
CGA:   2    -0.351525699296E+03   -0.15872E+01   -0.15703E+01  7072   0.393E+02 0.639E+00
CGA:   3    -0.353268128811E+03   -0.17424E+01   -0.16265E+01  7072   0.457E+01 0.172E+01
CGA:   4    -0.353628938550E+03   -0.36081E+00   -0.36280E+00  7072   0.709E+01-0.192E+00
CGA:   5    -0.354112848952E+03   -0.48391E+00   -0.48409E+00  7072   0.410E+01-0.891E-01
CGA:   6    -0.354229988040E+03   -0.11714E+00   -0.12735E+00  7072   0.131E+01-0.205E+00
CGA:   7    -0.354296552310E+03   -0.66564E-01   -0.65709E-01  7072   0.103E+01-0.111E-01
CGA:   8    -0.354357846765E+03   -0.61294E-01   -0.61276E-01  7072   0.618E+00-0.104E-02
CGA:   9    -0.354387660837E+03   -0.29814E-01   -0.29622E-01  7072   0.352E+00-0.125E-02
CGA:  10    -0.354400495618E+03   -0.12835E-01   -0.13051E-01  7072   0.130E+00-0.209E-02
CGA:  11    -0.354411718094E+03   -0.11222E-01   -0.11224E-01  7072   0.161E+00-0.396E-04
CGA:  12    -0.354420167855E+03   -0.84498E-02   -0.84721E-02  7072   0.117E+00 0.512E-03
CGA:  13    -0.354425693066E+03   -0.55252E-02   -0.55011E-02  7072   0.493E-01-0.119E-03
CGA:  14    -0.354429042716E+03   -0.33496E-02   -0.33474E-02  7072   0.607E-01 0.361E-03
CGA:  15    -0.354433873904E+03   -0.48312E-02   -0.48300E-02  7072   0.721E-01 0.594E-04
CGA:  16    -0.354437102069E+03   -0.32282E-02   -0.32533E-02  7072   0.267E-01 0.986E-04
CGA:  17    -0.354438855796E+03   -0.17537E-02   -0.17535E-02  7072   0.293E-01 0.945E-04
CGA:  18    -0.354440761670E+03   -0.19059E-02   -0.19058E-02  7072   0.233E-01 0.141E-03
CGA:  19    -0.354442197717E+03   -0.14360E-02   -0.14360E-02  7072   0.221E-01-0.105E-04
CGA:  20    -0.354443357035E+03   -0.11593E-02   -0.11608E-02  7072   0.796E-02 0.474E-04
CGA:  21    -0.354443770725E+03   -0.41369E-03   -0.41371E-03  7072   0.651E-02 0.428E-05
CGA:  22    -0.354444283620E+03   -0.51289E-03   -0.51259E-03  7072   0.820E-02 0.190E-04
CGA:  23    -0.354444662054E+03   -0.37843E-03   -0.37830E-03  7072   0.162E-02 0.483E-05
CGA:  24    -0.354444759154E+03   -0.97100E-04   -0.97115E-04  7072   0.223E-02 0.419E-05
CGA:  25    -0.354444924298E+03   -0.16514E-03   -0.16514E-03  7072   0.140E-02 0.107E-05
CGA:  26    -0.354445005275E+03   -0.80977E-04   -0.80989E-04  7072   0.101E-02 0.292E-05
CGA:  27    -0.354445051600E+03   -0.46325E-04   -0.46326E-04  7072   0.473E-03 0.122E-05
CGA:  28    -0.354445082108E+03   -0.30508E-04   -0.30503E-04  7072   0.511E-03 0.203E-05
CGA:  29    -0.354445126639E+03   -0.44531E-04   -0.44578E-04  7072   0.548E-03-0.187E-05
CGA:  30    -0.354445147760E+03   -0.21121E-04   -0.21116E-04  7072   0.155E-03-0.138E-06
CGA:  31    -0.354445158675E+03   -0.10915E-04   -0.10919E-04  7072   0.222E-03-0.597E-06
SDA:  32    -0.354445174810E+03   -0.16136E-04   -0.16136E-04  7072   0.160E-03-0.219E-07
CGA:  33    -0.354445179670E+03   -0.48593E-05   -0.48336E-05  7072   0.825E-04-0.796E-06
   6 F= -.35444518E+03 E0= -.35443001E+03  d E =-.349213E+00  mag=     8.0000
       N       E                     dE             d eps       ncg     rms          ort
SDA:   1    -0.347418219375E+03    0.70270E+01    0.00000E+00  7072   0.285E+02 0.000E+00
CGA:   2    -0.349412723006E+03   -0.19945E+01   -0.19873E+01  7072   0.549E+02 0.637E+00
CGA:   3    -0.352440965152E+03   -0.30282E+01   -0.29689E+01  7072   0.187E+02-0.138E+01
CGA:   4    -0.353113618491E+03   -0.67265E+00   -0.64849E+00  7072   0.734E+01 0.570E+00
CGA:   5    -0.353744212056E+03   -0.63059E+00   -0.66134E+00  7072   0.103E+02-0.857E+00
CGA:   6    -0.354307284268E+03   -0.56307E+00   -0.56305E+00  7072   0.315E+01 0.585E-01
CGA:   7    -0.354392799863E+03   -0.85516E-01   -0.82993E-01  7072   0.186E+01 0.531E-01
CGA:   8    -0.354478788486E+03   -0.85989E-01   -0.87107E-01  7072   0.942E+00 0.148E-01
CGA:   9    -0.354546760778E+03   -0.67972E-01   -0.67671E-01  7072   0.838E+00 0.165E-01
CGA:  10    -0.354577038395E+03   -0.30278E-01   -0.29801E-01  7072   0.528E+00 0.367E-02
CGA:  11    -0.354596125537E+03   -0.19087E-01   -0.19497E-01  7072   0.177E+00-0.133E-02
CGA:  12    -0.354605955651E+03   -0.98301E-02   -0.98378E-02  7072   0.163E+00 0.191E-02
CGA:  13    -0.354619905836E+03   -0.13950E-01   -0.13895E-01  7072   0.196E+00 0.159E-02
CGA:  14    -0.354626471623E+03   -0.65658E-02   -0.67461E-02  7072   0.905E-01-0.123E-02
CGA:  15    -0.354631553507E+03   -0.50819E-02   -0.50806E-02  7072   0.579E-01-0.586E-03
CGA:  16    -0.354636545892E+03   -0.49924E-02   -0.49548E-02  7072   0.535E-01 0.108E-02
CGA:  17    -0.354642660475E+03   -0.61146E-02   -0.61095E-02  7072   0.703E-01 0.949E-04
CGA:  18    -0.354645002149E+03   -0.23417E-02   -0.23646E-02  7072   0.289E-01-0.235E-03
CGA:  19    -0.354646625422E+03   -0.16233E-02   -0.16223E-02  7072   0.218E-01-0.110E-03
CGA:  20    -0.354649746102E+03   -0.31207E-02   -0.31100E-02  7072   0.216E-01 0.137E-03
CGA:  21    -0.354650588408E+03   -0.84231E-03   -0.84296E-03  7072   0.112E-01-0.433E-05
CGA:  22    -0.354651110314E+03   -0.52191E-03   -0.52288E-03  7072   0.716E-02 0.108E-04
CGA:  23    -0.354651706395E+03   -0.59608E-03   -0.59606E-03  7072   0.676E-02-0.534E-06
CGA:  24    -0.354652108565E+03   -0.40217E-03   -0.40219E-03  7072   0.319E-02 0.271E-05
CGA:  25    -0.354652270563E+03   -0.16200E-03   -0.16199E-03  7072   0.276E-02 0.183E-06
CGA:  26    -0.354652389589E+03   -0.11903E-03   -0.11919E-03  7072   0.113E-02 0.365E-05
CGA:  27    -0.354652548296E+03   -0.15871E-03   -0.15911E-03  7072   0.161E-02-0.535E-05
CGA:  28    -0.354652621143E+03   -0.72846E-04   -0.72839E-04  7072   0.783E-03 0.665E-06
CGA:  29    -0.354652652531E+03   -0.31389E-04   -0.31359E-04  7072   0.478E-03 0.241E-06
CGA:  30    -0.354652694338E+03   -0.41807E-04   -0.41739E-04  7072   0.427E-03 0.277E-05
CGA:  31    -0.354652737405E+03   -0.43066E-04   -0.43074E-04  7072   0.572E-03-0.851E-07
SDA:  32    -0.354652760455E+03   -0.23050E-04   -0.23073E-04  7072   0.270E-03 0.628E-06
CGA:  33    -0.354652768207E+03   -0.77526E-05   -0.77222E-05  7072   0.141E-03-0.532E-06
CGA:  34    -0.354652780155E+03   -0.11948E-04   -0.11949E-04  7072   0.194E-03-0.913E-07
CGA:  35    -0.354652801214E+03   -0.21059E-04   -0.21041E-04  7072   0.153E-03 0.393E-06
CGA:  36    -0.354652808902E+03   -0.76876E-05   -0.76931E-05  7072   0.580E-04 0.343E-06
   7 F= -.35465281E+03 E0= -.35463737E+03  d E =-.207629E+00  mag=     8.0000
       N       E                     dE             d eps       ncg     rms          ort
SDA:   1    -0.346258350808E+03    0.83945E+01    0.00000E+00  7072   0.286E+02 0.000E+00
CGA:   2    -0.348648519668E+03   -0.23902E+01   -0.23505E+01  7072   0.639E+02 0.204E+01
CGA:   3    -0.352023131520E+03   -0.33746E+01   -0.31603E+01  7072   0.216E+02 0.166E+01
CGA:   4    -0.353034919873E+03   -0.10118E+01   -0.98589E+00  7072   0.103E+02 0.758E+00
CGA:   5    -0.353673189144E+03   -0.63827E+00   -0.62579E+00  7072   0.122E+02-0.648E+00
CGA:   6    -0.354246301294E+03   -0.57311E+00   -0.57834E+00  7072   0.828E+01 0.303E-01
CGA:   7    -0.354466817216E+03   -0.22052E+00   -0.19409E+00  7072   0.144E+01 0.847E+00
CGA:   8    -0.354573373107E+03   -0.10656E+00   -0.10666E+00  7072   0.117E+01-0.139E-01
CGA:   9    -0.354634663460E+03   -0.61290E-01   -0.61997E-01  7072   0.748E+00 0.234E-01
CGA:  10    -0.354676078094E+03   -0.41415E-01   -0.41495E-01  7072   0.551E+00 0.329E-02
CGA:  11    -0.354696526485E+03   -0.20448E-01   -0.20786E-01  7072   0.229E+00-0.196E-02
CGA:  12    -0.354703808098E+03   -0.72816E-02   -0.73003E-02  7072   0.118E+00-0.273E-03
CGA:  13    -0.354716589154E+03   -0.12781E-01   -0.12637E-01  7072   0.115E+00 0.279E-02
CGA:  14    -0.354723592950E+03   -0.70038E-02   -0.70082E-02  7072   0.762E-01 0.861E-03
CGA:  15    -0.354727932616E+03   -0.43397E-02   -0.43420E-02  7072   0.360E-01 0.194E-03
CGA:  16    -0.354730473757E+03   -0.25411E-02   -0.25356E-02  7072   0.496E-01 0.410E-03
CGA:  17    -0.354733624124E+03   -0.31504E-02   -0.31502E-02  7072   0.643E-01 0.138E-03
CGA:  18    -0.354736437167E+03   -0.28130E-02   -0.28387E-02  7072   0.209E-01 0.158E-03
CGA:  19    -0.354737927250E+03   -0.14901E-02   -0.14896E-02  7072   0.149E-01 0.300E-04
CGA:  20    -0.354739648404E+03   -0.17212E-02   -0.17179E-02  7072   0.212E-01 0.608E-04
CGA:  21    -0.354740730359E+03   -0.10820E-02   -0.10828E-02  7072   0.741E-02 0.156E-04
CGA:  22    -0.354741467817E+03   -0.73746E-03   -0.73710E-03  7072   0.364E-02 0.648E-05
CGA:  23    -0.354741747963E+03   -0.28015E-03   -0.28010E-03  7072   0.650E-02 0.223E-05
CGA:  24    -0.354742047801E+03   -0.29984E-03   -0.29959E-03  7072   0.301E-02-0.581E-05
CGA:  25    -0.354742179091E+03   -0.13129E-03   -0.13121E-03  7072   0.146E-02-0.188E-05
CGA:  26    -0.354742294139E+03   -0.11505E-03   -0.11512E-03  7072   0.107E-02-0.444E-05
CGA:  27    -0.354742391148E+03   -0.97008E-04   -0.97092E-04  7072   0.108E-02-0.316E-05
CGA:  28    -0.354742470202E+03   -0.79055E-04   -0.79073E-04  7072   0.498E-03-0.214E-05
CGA:  29    -0.354742495927E+03   -0.25724E-04   -0.25759E-04  7072   0.547E-03 0.182E-05
CGA:  30    -0.354742525050E+03   -0.29124E-04   -0.29131E-04  7072   0.465E-03 0.103E-05
CGA:  31    -0.354742569291E+03   -0.44241E-04   -0.44178E-04  7072   0.396E-03 0.213E-05
SDA:  32    -0.354742589055E+03   -0.19764E-04   -0.19774E-04  7072   0.196E-03 0.994E-06
CGA:  33    -0.354742598330E+03   -0.92747E-05   -0.92807E-05  7072   0.141E-03 0.305E-06
   8 F= -.35474260E+03 E0= -.35472687E+03  d E =-.897894E-01  mag=     8.0000
       N       E                     dE             d eps       ncg     rms          ort
SDA:   1    -0.344997109023E+03    0.97455E+01    0.00000E+00  7072   0.262E+02 0.000E+00
CGA:   2    -0.349727650744E+03   -0.47305E+01   -0.49289E+01  7072   0.861E+02-0.183E+01
CGA:   3    -0.352633420683E+03   -0.29058E+01   -0.27542E+01  7072   0.125E+02 0.579E+01
CGA:   4    -0.353207540854E+03   -0.57412E+00   -0.58567E+00  7072   0.155E+02-0.918E-01
CGA:   5    -0.354142374566E+03   -0.93483E+00   -0.93866E+00  7072   0.846E+01 0.232E+00
CGA:   6    -0.354453358571E+03   -0.31098E+00   -0.27626E+00  7072   0.341E+01 0.729E+00
CGA:   7    -0.354583313065E+03   -0.12995E+00   -0.12307E+00  7072   0.155E+01 0.115E+00
CGA:   8    -0.354656548680E+03   -0.73236E-01   -0.73877E-01  7072   0.133E+01 0.499E-02
CGA:   9    -0.354712255836E+03   -0.55707E-01   -0.56576E-01  7072   0.741E+00 0.268E-02
CGA:  10    -0.354743579670E+03   -0.31324E-01   -0.30554E-01  7072   0.668E+00-0.130E-03
CGA:  11    -0.354766340414E+03   -0.22761E-01   -0.23171E-01  7072   0.261E+00-0.367E-02
CGA:  12    -0.354777451395E+03   -0.11111E-01   -0.11274E-01  7072   0.154E+00 0.127E-02
CGA:  13    -0.354782357735E+03   -0.49063E-02   -0.49522E-02  7072   0.990E-01-0.486E-03
CGA:  14    -0.354789920824E+03   -0.75631E-02   -0.75184E-02  7072   0.118E+00 0.176E-02
CGA:  15    -0.354794139619E+03   -0.42188E-02   -0.42481E-02  7072   0.338E-01-0.160E-03
CGA:  16    -0.354795603492E+03   -0.14639E-02   -0.14662E-02  7072   0.304E-01 0.403E-04
CGA:  17    -0.354796918216E+03   -0.13147E-02   -0.13171E-02  7072   0.172E-01 0.468E-04
CGA:  18    -0.354798418168E+03   -0.15000E-02   -0.14958E-02  7072   0.208E-01 0.113E-03
CGA:  19    -0.354799428527E+03   -0.10104E-02   -0.10118E-02  7072   0.176E-01 0.459E-04
CGA:  20    -0.354800107706E+03   -0.67918E-03   -0.68150E-03  7072   0.730E-02 0.456E-05
CGA:  21    -0.354800520636E+03   -0.41293E-03   -0.41292E-03  7072   0.817E-02 0.189E-04
CGA:  22    -0.354801204447E+03   -0.68381E-03   -0.68320E-03  7072   0.652E-02 0.204E-04
CGA:  23    -0.354801517263E+03   -0.31282E-03   -0.31319E-03  7072   0.809E-02 0.174E-04
CGA:  24    -0.354801965027E+03   -0.44776E-03   -0.44785E-03  7072   0.328E-02 0.233E-04
CGA:  25    -0.354802133638E+03   -0.16861E-03   -0.16863E-03  7072   0.254E-02-0.749E-06
CGA:  26    -0.354802307316E+03   -0.17368E-03   -0.17364E-03  7072   0.280E-02 0.203E-05
CGA:  27    -0.354802446542E+03   -0.13923E-03   -0.13923E-03  7072   0.263E-02-0.348E-06
CGA:  28    -0.354802562870E+03   -0.11633E-03   -0.11637E-03  7072   0.920E-03 0.167E-05
CGA:  29    -0.354802626102E+03   -0.63232E-04   -0.63245E-04  7072   0.818E-03-0.120E-05
CGA:  30    -0.354802678821E+03   -0.52720E-04   -0.52714E-04  7072   0.111E-02 0.622E-06
CGA:  31    -0.354802731209E+03   -0.52388E-04   -0.52426E-04  7072   0.707E-03 0.358E-05
SDA:  32    -0.354802766794E+03   -0.35585E-04   -0.35593E-04  7072   0.418E-03 0.169E-05
CGA:  33    -0.354802783196E+03   -0.16403E-04   -0.16404E-04  7072   0.175E-03 0.180E-06
CGA:  34    -0.354802801768E+03   -0.18572E-04   -0.18606E-04  7072   0.269E-03-0.770E-06
CGA:  35    -0.354802816275E+03   -0.14507E-04   -0.14511E-04  7072   0.312E-03 0.102E-05
CGA:  36    -0.354802833310E+03   -0.17035E-04   -0.17036E-04  7072   0.193E-03 0.476E-06
CGA:  37    -0.354802845410E+03   -0.12100E-04   -0.12100E-04  7072   0.681E-04 0.145E-06
CGA:  38    -0.354802854223E+03   -0.88129E-05   -0.87116E-05  7072   0.902E-04 0.139E-05
CGA:  39    -0.354802866908E+03   -0.12685E-04   -0.12602E-04  7072   0.672E-04 0.105E-05
CGA:  40    -0.354802870137E+03   -0.32296E-05   -0.32253E-05  7072   0.457E-04-0.227E-06
   9 F= -.35480287E+03 E0= -.35478713E+03  d E =-.602718E-01  mag=     8.0000
       N       E                     dE             d eps       ncg     rms          ort
SDA:   1    -0.334046050013E+03    0.20757E+02    0.00000E+00  7072   0.637E+02 0.000E+00
CGA:   2    -0.339555316903E+03   -0.55093E+01   -0.55206E+01  7072   0.160E+03 0.120E+01
CGA:   3    -0.348493696035E+03   -0.89384E+01   -0.73910E+01  7072   0.688E+02 0.133E+02
CGA:   4    -0.350398469695E+03   -0.19048E+01   -0.24804E+01  7072   0.603E+02-0.102E+02
CGA:   5    -0.351549563534E+03   -0.11511E+01   -0.11204E+01  7072   0.395E+02 0.241E+01
CGA:   6    -0.352696979506E+03   -0.11474E+01   -0.81562E+00  7072   0.177E+02 0.134E+02
CGA:   7    -0.353138326638E+03   -0.44135E+00   -0.41836E+00  7072   0.171E+02 0.617E+00
CGA:   8    -0.353677512956E+03   -0.53919E+00   -0.51595E+00  7072   0.267E+02 0.508E+00
CGA:   9    -0.354058591178E+03   -0.38108E+00   -0.41947E+00  7072   0.152E+02-0.198E+01
CGA:  10    -0.354395676966E+03   -0.33709E+00   -0.35093E+00  7072   0.152E+02-0.284E+00
CGA:  11    -0.354575240152E+03   -0.17956E+00   -0.17162E+00  7072   0.231E+01 0.704E+00
CGA:  12    -0.354605234495E+03   -0.29994E-01   -0.29421E-01  7072   0.134E+01 0.358E-01
CGA:  13    -0.354659680519E+03   -0.54446E-01   -0.54362E-01  7072   0.343E+01-0.373E-02
CGA:  14    -0.354727127869E+03   -0.67447E-01   -0.73192E-01  7072   0.262E+01-0.150E+00
CGA:  15    -0.354782999977E+03   -0.55872E-01   -0.60850E-01  7072   0.196E+01-0.790E-01
CGA:  16    -0.354815029639E+03   -0.32030E-01   -0.33369E-01  7072   0.542E+00-0.491E-01
CGA:  17    -0.354825916154E+03   -0.10887E-01   -0.10828E-01  7072   0.320E+00 0.182E-02
CGA:  18    -0.354835162605E+03   -0.92465E-02   -0.94829E-02  7072   0.327E+00 0.151E-02
CGA:  19    -0.354848814845E+03   -0.13652E-01   -0.13654E-01  7072   0.361E+00 0.934E-02
CGA:  20    -0.354859344700E+03   -0.10530E-01   -0.10566E-01  7072   0.230E+00 0.884E-04
CGA:  21    -0.354868024605E+03   -0.86799E-02   -0.86804E-02  7072   0.162E+00-0.545E-04
CGA:  22    -0.354871852226E+03   -0.38276E-02   -0.39374E-02  7072   0.656E-01-0.109E-02
CGA:  23    -0.354874564335E+03   -0.27121E-02   -0.27105E-02  7072   0.545E-01 0.538E-03
CGA:  24    -0.354877216086E+03   -0.26518E-02   -0.26527E-02  7072   0.901E-01-0.610E-04
CGA:  25    -0.354881242997E+03   -0.40269E-02   -0.40180E-02  7072   0.378E-01 0.126E-02
CGA:  26    -0.354882128433E+03   -0.88544E-03   -0.90112E-03  7072   0.156E-01-0.180E-03
CGA:  27    -0.354882970939E+03   -0.84251E-03   -0.84067E-03  7072   0.203E-01 0.100E-03
CGA:  28    -0.354884119933E+03   -0.11490E-02   -0.11475E-02  7072   0.228E-01 0.754E-04
CGA:  29    -0.354885022052E+03   -0.90212E-03   -0.90255E-03  7072   0.182E-01 0.102E-03
CGA:  30    -0.354885760817E+03   -0.73877E-03   -0.73890E-03  7072   0.684E-02 0.636E-04
CGA:  31    -0.354886026066E+03   -0.26525E-03   -0.26524E-03  7072   0.620E-02-0.369E-05
SDA:  32    -0.354886287605E+03   -0.26154E-03   -0.26150E-03  7072   0.454E-02 0.202E-04
CGA:  33    -0.354886531371E+03   -0.24377E-03   -0.24383E-03  7072   0.253E-02-0.424E-05
CGA:  34    -0.354886835966E+03   -0.30460E-03   -0.30385E-03  7072   0.414E-02 0.956E-05
CGA:  35    -0.354887043417E+03   -0.20745E-03   -0.20743E-03  7072   0.404E-02 0.482E-05
CGA:  36    -0.354887249469E+03   -0.20605E-03   -0.20601E-03  7072   0.197E-02 0.726E-05
CGA:  37    -0.354887349168E+03   -0.99699E-04   -0.99716E-04  7072   0.115E-02-0.325E-05
CGA:  38    -0.354887542111E+03   -0.19294E-03   -0.19216E-03  7072   0.150E-02 0.647E-05
CGA:  39    -0.354887642201E+03   -0.10009E-03   -0.10001E-03  7072   0.967E-03 0.542E-05
CGA:  40    -0.354887718307E+03   -0.76106E-04   -0.75924E-04  7072   0.847E-03 0.715E-05
CGA:  41    -0.354887752380E+03   -0.34073E-04   -0.34081E-04  7072   0.810E-03 0.909E-06
CGA:  42    -0.354887840238E+03   -0.87858E-04   -0.87638E-04  7072   0.211E-03 0.395E-05
CGA:  43    -0.354887862216E+03   -0.21978E-04   -0.21903E-04  7072   0.314E-03 0.150E-05
CGA:  44    -0.354887884361E+03   -0.22146E-04   -0.22151E-04  7072   0.224E-03-0.532E-06
CGA:  45    -0.354887903724E+03   -0.19362E-04   -0.19426E-04  7072   0.207E-03-0.237E-05
CGA:  46    -0.354887911212E+03   -0.74886E-05   -0.74863E-05  7072   0.137E-03-0.165E-06
  10 F= -.35488791E+03 E0= -.35487226E+03  d E =-.850411E-01  mag=     8.0000
       N       E                     dE             d eps       ncg     rms          ort
SDA:   1    -0.340031791328E+03    0.14856E+02    0.00000E+00  7072   0.457E+02 0.000E+00
CGA:   2    -0.345499403976E+03   -0.54676E+01   -0.57536E+01  7072   0.118E+03-0.377E+01
CGA:   3    -0.351003532334E+03   -0.55041E+01   -0.47414E+01  7072   0.352E+02 0.301E+01
CGA:   4    -0.352123560596E+03   -0.11200E+01   -0.13111E+01  7072   0.215E+02-0.172E+01
CGA:   5    -0.353374008218E+03   -0.12504E+01   -0.12524E+01  7072   0.215E+02-0.217E+01
CGA:   6    -0.354365145387E+03   -0.99114E+00   -0.98838E+00  7072   0.619E+01 0.847E-01
CGA:   7    -0.354530101808E+03   -0.16496E+00   -0.17058E+00  7072   0.366E+01-0.147E+00
CGA:   8    -0.354694538977E+03   -0.16444E+00   -0.16360E+00  7072   0.161E+01-0.731E-02
CGA:   9    -0.354794651730E+03   -0.10011E+00   -0.10013E+00  7072   0.143E+01-0.255E-02
CGA:  10    -0.354852425594E+03   -0.57774E-01   -0.58830E-01  7072   0.738E+00 0.703E-02
CGA:  11    -0.354889180942E+03   -0.36755E-01   -0.37045E-01  7072   0.220E+00 0.145E-01
CGA:  12    -0.354905546839E+03   -0.16366E-01   -0.16254E-01  7072   0.232E+00 0.517E-02
CGA:  13    -0.354916372390E+03   -0.10826E-01   -0.10904E-01  7072   0.202E+00 0.171E-02
CGA:  14    -0.354926387141E+03   -0.10015E-01   -0.10100E-01  7072   0.101E+00 0.412E-02
CGA:  15    -0.354930249707E+03   -0.38626E-02   -0.38691E-02  7072   0.535E-01-0.915E-05
CGA:  16    -0.354933524677E+03   -0.32750E-02   -0.32699E-02  7072   0.351E-01 0.548E-03
CGA:  17    -0.354936659285E+03   -0.31346E-02   -0.31447E-02  7072   0.446E-01-0.278E-03
CGA:  18    -0.354939157157E+03   -0.24979E-02   -0.25019E-02  7072   0.241E-01 0.168E-02
CGA:  19    -0.354940070230E+03   -0.91307E-03   -0.91162E-03  7072   0.117E-01 0.872E-05
CGA:  20    -0.354941094279E+03   -0.10240E-02   -0.10192E-02  7072   0.242E-01 0.135E-03
CGA:  21    -0.354942607190E+03   -0.15129E-02   -0.15122E-02  7072   0.994E-02 0.113E-03
CGA:  22    -0.354943213144E+03   -0.60595E-03   -0.60540E-03  7072   0.836E-02 0.130E-03
CGA:  23    -0.354943618085E+03   -0.40494E-03   -0.40500E-03  7072   0.557E-02 0.359E-05
CGA:  24    -0.354943984560E+03   -0.36647E-03   -0.36629E-03  7072   0.613E-02 0.166E-04
CGA:  25    -0.354944430863E+03   -0.44630E-03   -0.44593E-03  7072   0.461E-02 0.198E-04
CGA:  26    -0.354944629026E+03   -0.19816E-03   -0.19844E-03  7072   0.177E-02 0.789E-05
CGA:  27    -0.354944734840E+03   -0.10581E-03   -0.10581E-03  7072   0.236E-02 0.938E-06
CGA:  28    -0.354944918531E+03   -0.18369E-03   -0.18356E-03  7072   0.183E-02 0.643E-05
CGA:  29    -0.354945032875E+03   -0.11434E-03   -0.11435E-03  7072   0.133E-02 0.709E-06
CGA:  30    -0.354945088565E+03   -0.55690E-04   -0.55790E-04  7072   0.683E-03 0.314E-05
CGA:  31    -0.354945136865E+03   -0.48300E-04   -0.48315E-04  7072   0.831E-03-0.699E-06
SDA:  32    -0.354945192938E+03   -0.56074E-04   -0.56071E-04  7072   0.671E-03 0.126E-05
CGA:  33    -0.354945213139E+03   -0.20201E-04   -0.20186E-04  7072   0.265E-03 0.119E-07
CGA:  34    -0.354945225719E+03   -0.12580E-04   -0.12593E-04  7072   0.195E-03 0.844E-06
CGA:  35    -0.354945246037E+03   -0.20318E-04   -0.20392E-04  7072   0.302E-03-0.163E-05
CGA:  36    -0.354945274030E+03   -0.27993E-04   -0.28081E-04  7072   0.183E-03-0.250E-05
CGA:  37    -0.354945285847E+03   -0.11817E-04   -0.11818E-04  7072   0.101E-03-0.552E-06
CGA:  38    -0.354945293771E+03   -0.79240E-05   -0.79270E-05  7072   0.968E-04-0.228E-06
  11 F= -.35494529E+03 E0= -.35492975E+03  d E =-.573826E-01  mag=     8.0000
       N       E                     dE             d eps       ncg     rms          ort
SDA:   1    -0.337418599587E+03    0.17527E+02    0.00000E+00  7072   0.500E+02 0.000E+00
CGA:   2    -0.346620370128E+03   -0.92018E+01   -0.96245E+01  7072   0.109E+03-0.306E+01
CGA:   3    -0.350903826454E+03   -0.42835E+01   -0.42603E+01  7072   0.243E+02-0.200E+01
CGA:   4    -0.352528148039E+03   -0.16243E+01   -0.16241E+01  7072   0.216E+02 0.280E+00
CGA:   5    -0.353839737249E+03   -0.13116E+01   -0.12960E+01  7072   0.173E+02-0.533E+00
CGA:   6    -0.354410027883E+03   -0.57029E+00   -0.53187E+00  7072   0.452E+01 0.110E+01
CGA:   7    -0.354665567870E+03   -0.25554E+00   -0.25412E+00  7072   0.218E+01-0.460E-01
CGA:   8    -0.354735937297E+03   -0.70369E-01   -0.69029E-01  7072   0.198E+01 0.205E-01
CGA:   9    -0.354862178169E+03   -0.12624E+00   -0.12624E+00  7072   0.120E+01 0.762E-02
CGA:  10    -0.354904329040E+03   -0.42151E-01   -0.43252E-01  7072   0.660E+00-0.955E-02
CGA:  11    -0.354924379277E+03   -0.20050E-01   -0.20145E-01  7072   0.255E+00-0.972E-03
CGA:  12    -0.354939173234E+03   -0.14794E-01   -0.14785E-01  7072   0.297E+00-0.198E-02
CGA:  13    -0.354952887272E+03   -0.13714E-01   -0.13738E-01  7072   0.242E+00 0.478E-03
CGA:  14    -0.354961723729E+03   -0.88365E-02   -0.88978E-02  7072   0.943E-01-0.252E-03
CGA:  15    -0.354965875638E+03   -0.41519E-02   -0.41889E-02  7072   0.431E-01 0.532E-03
CGA:  16    -0.354968648090E+03   -0.27725E-02   -0.27656E-02  7072   0.695E-01 0.677E-03
CGA:  17    -0.354971782025E+03   -0.31339E-02   -0.31293E-02  7072   0.338E-01-0.745E-04
CGA:  18    -0.354974810714E+03   -0.30287E-02   -0.30198E-02  7072   0.195E-01 0.230E-03
CGA:  19    -0.354975571158E+03   -0.76044E-03   -0.76467E-03  7072   0.168E-01 0.120E-04
CGA:  20    -0.354976928333E+03   -0.13572E-02   -0.13572E-02  7072   0.251E-01 0.131E-05
CGA:  21    -0.354978592146E+03   -0.16638E-02   -0.16618E-02  7072   0.112E-01 0.179E-03
CGA:  22    -0.354979235744E+03   -0.64360E-03   -0.64397E-03  7072   0.924E-02 0.748E-04
CGA:  23    -0.354979737720E+03   -0.50198E-03   -0.50189E-03  7072   0.928E-02-0.459E-05
CGA:  24    -0.354980236620E+03   -0.49890E-03   -0.49898E-03  7072   0.706E-02 0.877E-05
CGA:  25    -0.354980867271E+03   -0.63065E-03   -0.63043E-03  7072   0.299E-02 0.588E-05
CGA:  26    -0.354981012771E+03   -0.14550E-03   -0.14545E-03  7072   0.282E-02-0.102E-05
CGA:  27    -0.354981181510E+03   -0.16874E-03   -0.16874E-03  7072   0.323E-02 0.798E-05
CGA:  28    -0.354981422945E+03   -0.24143E-03   -0.24138E-03  7072   0.164E-02 0.446E-05
CGA:  29    -0.354981533643E+03   -0.11070E-03   -0.11066E-03  7072   0.123E-02 0.442E-05
CGA:  30    -0.354981590148E+03   -0.56505E-04   -0.56584E-04  7072   0.927E-03 0.307E-05
CGA:  31    -0.354981646766E+03   -0.56619E-04   -0.56620E-04  7072   0.104E-02-0.765E-06
SDA:  32    -0.354981722373E+03   -0.75607E-04   -0.75600E-04  7072   0.526E-03 0.102E-05
CGA:  33    -0.354981747353E+03   -0.24980E-04   -0.25014E-04  7072   0.175E-03 0.141E-05
CGA:  34    -0.354981764975E+03   -0.17622E-04   -0.17657E-04  7072   0.312E-03-0.943E-06
CGA:  35    -0.354981789174E+03   -0.24199E-04   -0.24223E-04  7072   0.479E-03-0.146E-05
CGA:  36    -0.354981809921E+03   -0.20746E-04   -0.20684E-04  7072   0.139E-03-0.259E-05
CGA:  37    -0.354981819452E+03   -0.95309E-05   -0.95360E-05  7072   0.117E-03-0.804E-06
CGA:  38    -0.354981829825E+03   -0.10373E-04   -0.10407E-04  7072   0.826E-04-0.126E-05
CGA:  39    -0.354981843605E+03   -0.13780E-04   -0.13961E-04  7072   0.101E-03-0.173E-05
CGA:  40    -0.354981848766E+03   -0.51613E-05   -0.51559E-05  7072   0.303E-04-0.317E-06
  12 F= -.35498185E+03 E0= -.35496662E+03  d E =-.365550E-01  mag=     8.0000
       N       E                     dE             d eps       ncg     rms          ort
SDA:   1    -0.352952495887E+03    0.20293E+01    0.00000E+00  7072   0.577E+01 0.000E+00
CGA:   2    -0.354102543892E+03   -0.11500E+01   -0.11386E+01  7072   0.890E+01 0.103E+00
CGA:   3    -0.354513668751E+03   -0.41112E+00   -0.40140E+00  7072   0.346E+01 0.533E-01
CGA:   4    -0.354681755721E+03   -0.16809E+00   -0.15928E+00  7072   0.310E+01 0.420E-01
CGA:   5    -0.354868438852E+03   -0.18668E+00   -0.18715E+00  7072   0.162E+01 0.818E-02
CGA:   6    -0.354952386383E+03   -0.83948E-01   -0.83121E-01  7072   0.348E+00 0.294E-02
CGA:   7    -0.354976403530E+03   -0.24017E-01   -0.23988E-01  7072   0.335E+00-0.318E-02
CGA:   8    -0.354990549468E+03   -0.14146E-01   -0.14163E-01  7072   0.226E+00-0.826E-04
CGA:   9    -0.355002719438E+03   -0.12170E-01   -0.12039E-01  7072   0.542E-01-0.116E-02
CGA:  10    -0.355006007273E+03   -0.32878E-02   -0.32906E-02  7072   0.342E-01 0.101E-03
CGA:  11    -0.355009560747E+03   -0.35535E-02   -0.35564E-02  7072   0.203E-01-0.736E-04
CGA:  12    -0.355011055325E+03   -0.14946E-02   -0.14944E-02  7072   0.954E-02 0.257E-04
CGA:  13    -0.355011545593E+03   -0.49027E-03   -0.49017E-03  7072   0.583E-02-0.732E-05
CGA:  14    -0.355011929825E+03   -0.38423E-03   -0.38419E-03  7072   0.837E-02-0.760E-05
CGA:  15    -0.355012360777E+03   -0.43095E-03   -0.43155E-03  7072   0.308E-02 0.416E-05
CGA:  16    -0.355012561150E+03   -0.20037E-03   -0.20037E-03  7072   0.123E-02-0.239E-06
CGA:  17    -0.355012696337E+03   -0.13519E-03   -0.13504E-03  7072   0.132E-02 0.356E-05
CGA:  18    -0.355012840592E+03   -0.14425E-03   -0.14418E-03  7072   0.167E-02 0.238E-05
CGA:  19    -0.355012911864E+03   -0.71273E-04   -0.71428E-04  7072   0.624E-03 0.299E-05
CGA:  20    -0.355012938119E+03   -0.26255E-04   -0.26278E-04  7072   0.531E-03 0.489E-06
CGA:  21    -0.355013008611E+03   -0.70492E-04   -0.70259E-04  7072   0.426E-03 0.374E-05
CGA:  22    -0.355013038730E+03   -0.30120E-04   -0.30131E-04  7072   0.187E-03 0.374E-05
CGA:  23    -0.355013057053E+03   -0.18323E-04   -0.18283E-04  7072   0.186E-03 0.164E-05
CGA:  24    -0.355013074997E+03   -0.17944E-04   -0.17906E-04  7072   0.190E-03 0.175E-05
CGA:  25    -0.355013089610E+03   -0.14613E-04   -0.14613E-04  7072   0.994E-04 0.106E-05
CGA:  26    -0.355013097654E+03   -0.80438E-05   -0.80394E-05  7072   0.115E-03 0.771E-06
  13 F= -.35501310E+03 E0= -.35499805E+03  d E =-.312489E-01  mag=     8.0000
       N       E                     dE             d eps       ncg     rms          ort
SDA:   1    -0.354248904859E+03    0.76418E+00    0.00000E+00  7072   0.237E+01 0.000E+00
CGA:   2    -0.354523513489E+03   -0.27461E+00   -0.27515E+00  7072   0.671E+01-0.930E-02
CGA:   3    -0.354805649572E+03   -0.28214E+00   -0.28389E+00  7072   0.171E+01-0.200E-01
CGA:   4    -0.354892174647E+03   -0.86525E-01   -0.85569E-01  7072   0.100E+01 0.447E-02
CGA:   5    -0.354979056588E+03   -0.86882E-01   -0.86867E-01  7072   0.544E+00 0.898E-03
CGA:   6    -0.355010848949E+03   -0.31792E-01   -0.31705E-01  7072   0.221E+00-0.135E-02
CGA:   7    -0.355020070746E+03   -0.92218E-02   -0.94127E-02  7072   0.136E+00-0.131E-02
CGA:   8    -0.355026246215E+03   -0.61755E-02   -0.61950E-02  7072   0.786E-01-0.403E-04
CGA:   9    -0.355032454892E+03   -0.62087E-02   -0.62098E-02  7072   0.212E-01-0.803E-04
CGA:  10    -0.355033945141E+03   -0.14902E-02   -0.14902E-02  7072   0.164E-01-0.401E-04
CGA:  11    -0.355034756031E+03   -0.81089E-03   -0.81236E-03  7072   0.142E-01 0.561E-05
CGA:  12    -0.355035530826E+03   -0.77479E-03   -0.77402E-03  7072   0.767E-02-0.188E-04
CGA:  13    -0.355035963911E+03   -0.43309E-03   -0.43327E-03  7072   0.240E-02 0.131E-05
CGA:  14    -0.355036172047E+03   -0.20814E-03   -0.20818E-03  7072   0.286E-02-0.177E-05
CGA:  15    -0.355036316225E+03   -0.14418E-03   -0.14435E-03  7072   0.229E-02 0.919E-06
CGA:  16    -0.355036449445E+03   -0.13322E-03   -0.13316E-03  7072   0.162E-02-0.490E-05
CGA:  17    -0.355036540486E+03   -0.91041E-04   -0.91017E-04  7072   0.549E-03-0.274E-05
CGA:  18    -0.355036597177E+03   -0.56691E-04   -0.56625E-04  7072   0.966E-03 0.169E-05
CGA:  19    -0.355036659124E+03   -0.61947E-04   -0.61965E-04  7072   0.102E-02 0.307E-05
CGA:  20    -0.355036701991E+03   -0.42867E-04   -0.42867E-04  7072   0.292E-03-0.769E-08
CGA:  21    -0.355036736039E+03   -0.34048E-04   -0.34003E-04  7072   0.228E-03 0.850E-06
CGA:  22    -0.355036751024E+03   -0.14984E-04   -0.14987E-04  7072   0.341E-03 0.627E-06
CGA:  23    -0.355036769144E+03   -0.18120E-04   -0.18164E-04  7072   0.128E-03 0.255E-05
CGA:  24    -0.355036776098E+03   -0.69537E-05   -0.69663E-05  7072   0.819E-04 0.767E-06
  14 F= -.35503678E+03 E0= -.35502173E+03  d E =-.236784E-01  mag=     8.0000
       N       E                     dE             d eps       ncg     rms          ort
SDA:   1    -0.352478363900E+03    0.25584E+01    0.00000E+00  7072   0.708E+01 0.000E+00
CGA:   2    -0.353866495612E+03   -0.13881E+01   -0.14137E+01  7072   0.159E+02-0.201E+00
CGA:   3    -0.354499807014E+03   -0.63331E+00   -0.66013E+00  7072   0.295E+01-0.212E+00
CGA:   4    -0.354764684641E+03   -0.26488E+00   -0.26771E+00  7072   0.391E+01-0.122E+00
CGA:   5    -0.354911314502E+03   -0.14663E+00   -0.14592E+00  7072   0.181E+01 0.380E-02
CGA:   6    -0.354993119130E+03   -0.81805E-01   -0.79769E-01  7072   0.429E+00 0.135E-01
CGA:   7    -0.355021234620E+03   -0.28115E-01   -0.28177E-01  7072   0.226E+00 0.398E-02
CGA:   8    -0.355041119994E+03   -0.19885E-01   -0.19887E-01  7072   0.158E+00-0.238E-04
CGA:   9    -0.355048575045E+03   -0.74551E-02   -0.74179E-02  7072   0.892E-01 0.905E-04
CGA:  10    -0.355052223828E+03   -0.36488E-02   -0.35984E-02  7072   0.428E-01 0.434E-03
CGA:  11    -0.355054696030E+03   -0.24722E-02   -0.24747E-02  7072   0.222E-01 0.663E-04
CGA:  12    -0.355056946215E+03   -0.22502E-02   -0.22498E-02  7072   0.174E-01 0.818E-05
CGA:  13    -0.355057842980E+03   -0.89677E-03   -0.89851E-03  7072   0.863E-02 0.124E-04
CGA:  14    -0.355058236307E+03   -0.39333E-03   -0.39257E-03  7072   0.742E-02-0.254E-05
CGA:  15    -0.355058756421E+03   -0.52011E-03   -0.52007E-03  7072   0.529E-02 0.117E-04
CGA:  16    -0.355059313124E+03   -0.55670E-03   -0.55691E-03  7072   0.436E-02-0.533E-05
CGA:  17    -0.355059560921E+03   -0.24780E-03   -0.24800E-03  7072   0.248E-02 0.519E-05
CGA:  18    -0.355059741599E+03   -0.18068E-03   -0.18066E-03  7072   0.477E-02 0.469E-05
CGA:  19    -0.355060066170E+03   -0.32457E-03   -0.32460E-03  7072   0.254E-02 0.122E-04
CGA:  20    -0.355060231429E+03   -0.16526E-03   -0.16526E-03  7072   0.171E-02 0.585E-06
CGA:  21    -0.355060359978E+03   -0.12855E-03   -0.12852E-03  7072   0.929E-03 0.434E-05
CGA:  22    -0.355060428355E+03   -0.68377E-04   -0.68378E-04  7072   0.181E-02-0.141E-06
CGA:  23    -0.355060526912E+03   -0.98557E-04   -0.98623E-04  7072   0.397E-03 0.306E-05
CGA:  24    -0.355060554248E+03   -0.27336E-04   -0.27336E-04  7072   0.330E-03 0.103E-05
CGA:  25    -0.355060585547E+03   -0.31299E-04   -0.31259E-04  7072   0.343E-03 0.163E-05
CGA:  26    -0.355060605408E+03   -0.19861E-04   -0.19862E-04  7072   0.295E-03 0.203E-06
CGA:  27    -0.355060616975E+03   -0.11567E-04   -0.11589E-04  7072   0.102E-03 0.763E-06
CGA:  28    -0.355060624929E+03   -0.79534E-05   -0.79514E-05  7072   0.916E-04 0.213E-06
CGA:  29    -0.355060635683E+03   -0.10755E-04   -0.10686E-04  7072   0.880E-04 0.141E-05
CGA:  30    -0.355060640301E+03   -0.46176E-05   -0.46097E-05  7072   0.716E-04-0.374E-06
  15 F= -.35506064E+03 E0= -.35504565E+03  d E =-.238642E-01  mag=     8.0000
       N       E                     dE             d eps       ncg     rms          ort
SDA:   1    -0.330926423847E+03    0.24134E+02    0.00000E+00  7072   0.650E+02 0.000E+00
CGA:   2    -0.342269314607E+03   -0.11343E+02   -0.12156E+02  7072   0.212E+03-0.566E+01
CGA:   3    -0.349179450859E+03   -0.69101E+01   -0.54669E+01  7072   0.455E+02 0.412E+02
CGA:   4    -0.350911109162E+03   -0.17317E+01   -0.22476E+01  7072   0.330E+02-0.356E+01
CGA:   5    -0.352736905436E+03   -0.18258E+01   -0.17868E+01  7072   0.394E+02 0.240E+00
CGA:   6    -0.353601776827E+03   -0.86487E+00   -0.59909E+00  7072   0.244E+02 0.148E+02
CGA:   7    -0.354131338743E+03   -0.52956E+00   -0.43382E+00  7072   0.982E+01 0.595E+01
CGA:   8    -0.354317158558E+03   -0.18582E+00   -0.16225E+00  7072   0.693E+01 0.166E+01
CGA:   9    -0.354478054733E+03   -0.16090E+00   -0.18588E+00  7072   0.743E+01-0.559E+00
CGA:  10    -0.354604508539E+03   -0.12645E+00   -0.13842E+00  7072   0.758E+01-0.437E+00
CGA:  11    -0.354769555911E+03   -0.16505E+00   -0.16301E+00  7072   0.520E+01 0.197E+00
CGA:  12    -0.354842635662E+03   -0.73080E-01   -0.64086E-01  7072   0.221E+01 0.666E+00
CGA:  13    -0.354897909072E+03   -0.55273E-01   -0.56720E-01  7072   0.313E+01-0.357E-01
CGA:  14    -0.354957931663E+03   -0.60023E-01   -0.61646E-01  7072   0.211E+01-0.720E-01
CGA:  15    -0.354980927986E+03   -0.22996E-01   -0.24029E-01  7072   0.714E+00-0.759E-01
CGA:  16    -0.354994368096E+03   -0.13440E-01   -0.14002E-01  7072   0.950E+00-0.174E-01
CGA:  17    -0.355021448658E+03   -0.27081E-01   -0.27810E-01  7072   0.105E+01-0.149E-02
CGA:  18    -0.355037656481E+03   -0.16208E-01   -0.16607E-01  7072   0.458E+00-0.162E-01
CGA:  19    -0.355048930594E+03   -0.11274E-01   -0.11406E-01  7072   0.523E+00-0.175E-02
CGA:  20    -0.355060982303E+03   -0.12052E-01   -0.12481E-01  7072   0.294E+00-0.669E-02
CGA:  21    -0.355066341380E+03   -0.53591E-02   -0.55537E-02  7072   0.163E+00-0.596E-02
CGA:  22    -0.355071345820E+03   -0.50044E-02   -0.50524E-02  7072   0.153E+00 0.787E-03
CGA:  23    -0.355074724782E+03   -0.33790E-02   -0.33466E-02  7072   0.747E-01 0.682E-03
CGA:  24    -0.355077258461E+03   -0.25337E-02   -0.25248E-02  7072   0.102E+00-0.425E-03
CGA:  25    -0.355080390452E+03   -0.31320E-02   -0.31524E-02  7072   0.818E-01 0.422E-03
CGA:  26    -0.355082716640E+03   -0.23262E-02   -0.23576E-02  7072   0.793E-01 0.349E-03
CGA:  27    -0.355085276495E+03   -0.25599E-02   -0.25741E-02  7072   0.434E-01 0.593E-03
CGA:  28    -0.355086330892E+03   -0.10544E-02   -0.10540E-02  7072   0.285E-01 0.119E-04
CGA:  29    -0.355087617198E+03   -0.12863E-02   -0.12859E-02  7072   0.361E-01 0.368E-04
CGA:  30    -0.355088615606E+03   -0.99841E-03   -0.10012E-02  7072   0.222E-01 0.613E-04
CGA:  31    -0.355089435763E+03   -0.82016E-03   -0.82040E-03  7072   0.239E-01 0.153E-03
SDA:  32    -0.355090350989E+03   -0.91523E-03   -0.91518E-03  7072   0.278E-01 0.977E-04
CGA:  33    -0.355091198571E+03   -0.84758E-03   -0.84831E-03  7072   0.591E-02 0.264E-04
CGA:  34    -0.355091583492E+03   -0.38492E-03   -0.38501E-03  7072   0.862E-02-0.313E-05
CGA:  35    -0.355092142547E+03   -0.55906E-03   -0.55704E-03  7072   0.876E-02 0.717E-04
CGA:  36    -0.355092911343E+03   -0.76880E-03   -0.76893E-03  7072   0.574E-02-0.404E-05
CGA:  37    -0.355093382866E+03   -0.47152E-03   -0.47078E-03  7072   0.292E-02 0.182E-04
CGA:  38    -0.355093607360E+03   -0.22449E-03   -0.22366E-03  7072   0.422E-02 0.252E-04
CGA:  39    -0.355093819601E+03   -0.21224E-03   -0.21221E-03  7072   0.375E-02 0.796E-05
CGA:  40    -0.355094170425E+03   -0.35082E-03   -0.34970E-03  7072   0.235E-02 0.241E-04
CGA:  41    -0.355094339844E+03   -0.16942E-03   -0.16934E-03  7072   0.120E-02 0.345E-05
CGA:  42    -0.355094462599E+03   -0.12275E-03   -0.12284E-03  7072   0.118E-02-0.166E-05
CGA:  43    -0.355094555438E+03   -0.92839E-04   -0.92909E-04  7072   0.125E-02-0.300E-05
CGA:  44    -0.355094603613E+03   -0.48176E-04   -0.48058E-04  7072   0.516E-03-0.605E-05
CGA:  45    -0.355094631497E+03   -0.27883E-04   -0.27885E-04  7072   0.434E-03-0.199E-05
CGA:  46    -0.355094685256E+03   -0.53759E-04   -0.53669E-04  7072   0.328E-03 0.115E-05
CGA:  47    -0.355094702542E+03   -0.17286E-04   -0.17288E-04  7072   0.150E-03 0.393E-06
CGA:  48    -0.355094720442E+03   -0.17900E-04   -0.17942E-04  7072   0.232E-03-0.741E-06
CGA:  49    -0.355094729756E+03   -0.93147E-05   -0.92878E-05  7072   0.183E-03-0.139E-05
CGA:  50    -0.355094747760E+03   -0.18004E-04   -0.18082E-04  7072   0.625E-04-0.197E-05
CGA:  51    -0.355094763205E+03   -0.15445E-04   -0.15632E-04  7072   0.165E-03-0.103E-05
CGA:  52    -0.355094773511E+03   -0.10306E-04   -0.10310E-04  7072   0.120E-03 0.448E-06
CGA:  53    -0.355094782375E+03   -0.88643E-05   -0.88620E-05  7072   0.817E-04 0.500E-06
  16 F= -.35509478E+03 E0= -.35508006E+03  d E =-.341421E-01  mag=     8.0000
       N       E                     dE             d eps       ncg     rms          ort
SDA:   1    -0.343585169203E+03    0.11510E+02    0.00000E+00  7072   0.376E+02 0.000E+00
CGA:   2    -0.348000588406E+03   -0.44154E+01   -0.47630E+01  7072   0.867E+02-0.631E+01
CGA:   3    -0.350554798317E+03   -0.25542E+01   -0.24795E+01  7072   0.302E+02 0.461E+01
CGA:   4    -0.351679669296E+03   -0.11249E+01   -0.92717E+00  7072   0.202E+02 0.440E+01
CGA:   5    -0.353190774604E+03   -0.15111E+01   -0.15147E+01  7072   0.228E+02 0.706E+00
CGA:   6    -0.353751708959E+03   -0.56093E+00   -0.56668E+00  7072   0.114E+02-0.100E+00
CGA:   7    -0.354256290491E+03   -0.50458E+00   -0.50129E+00  7072   0.772E+01 0.194E-01
CGA:   8    -0.354434419316E+03   -0.17813E+00   -0.16647E+00  7072   0.361E+01 0.407E+00
CGA:   9    -0.354549499773E+03   -0.11508E+00   -0.11460E+00  7072   0.219E+01 0.127E-01
CGA:  10    -0.354609132065E+03   -0.59632E-01   -0.60728E-01  7072   0.161E+01-0.172E-01
CGA:  11    -0.354686733321E+03   -0.77601E-01   -0.78133E-01  7072   0.190E+01 0.169E-01
CGA:  12    -0.354737211732E+03   -0.50478E-01   -0.52201E-01  7072   0.544E+00-0.329E-01
CGA:  13    -0.354752112523E+03   -0.14901E-01   -0.15315E-01  7072   0.348E+00-0.634E-02
CGA:  14    -0.354767863919E+03   -0.15751E-01   -0.15809E-01  7072   0.264E+00 0.183E-02
CGA:  15    -0.354781860707E+03   -0.13997E-01   -0.14022E-01  7072   0.324E+00 0.561E-02
CGA:  16    -0.354793202357E+03   -0.11342E-01   -0.11587E-01  7072   0.116E+00-0.542E-03
CGA:  17    -0.354798329663E+03   -0.51273E-02   -0.51368E-02  7072   0.669E-01 0.279E-03
CGA:  18    -0.354800971289E+03   -0.26416E-02   -0.26621E-02  7072   0.333E-01 0.246E-03
CGA:  19    -0.354803123847E+03   -0.21526E-02   -0.21461E-02  7072   0.534E-01 0.383E-03
CGA:  20    -0.354805926868E+03   -0.28030E-02   -0.28032E-02  7072   0.279E-01 0.791E-04
CGA:  21    -0.354807224418E+03   -0.12976E-02   -0.12983E-02  7072   0.111E-01 0.446E-04
CGA:  22    -0.354807821905E+03   -0.59749E-03   -0.59735E-03  7072   0.100E-01 0.964E-04
CGA:  23    -0.354808397725E+03   -0.57582E-03   -0.57551E-03  7072   0.827E-02 0.397E-04
CGA:  24    -0.354808845220E+03   -0.44749E-03   -0.44748E-03  7072   0.884E-02 0.883E-05
CGA:  25    -0.354809363612E+03   -0.51839E-03   -0.51834E-03  7072   0.281E-02-0.118E-05
CGA:  26    -0.354809499680E+03   -0.13607E-03   -0.13612E-03  7072   0.207E-02 0.184E-05
CGA:  27    -0.354809679934E+03   -0.18025E-03   -0.18024E-03  7072   0.284E-02-0.970E-06
CGA:  28    -0.354809822767E+03   -0.14283E-03   -0.14278E-03  7072   0.175E-02-0.113E-04
CGA:  29    -0.354809888317E+03   -0.65550E-04   -0.65540E-04  7072   0.783E-03-0.404E-05
CGA:  30    -0.354809941504E+03   -0.53187E-04   -0.53199E-04  7072   0.550E-03-0.124E-05
CGA:  31    -0.354809984988E+03   -0.43484E-04   -0.43503E-04  7072   0.850E-03-0.972E-06
SDA:  32    -0.354810037728E+03   -0.52740E-04   -0.52749E-04  7072   0.326E-03-0.165E-05
CGA:  33    -0.354810048007E+03   -0.10278E-04   -0.10267E-04  7072   0.170E-03-0.227E-06
CGA:  34    -0.354810059161E+03   -0.11154E-04   -0.11137E-04  7072   0.186E-03 0.147E-05
CGA:  35    -0.354810072487E+03   -0.13326E-04   -0.13294E-04  7072   0.143E-03 0.199E-05
CGA:  36    -0.354810084225E+03   -0.11738E-04   -0.11675E-04  7072   0.986E-04 0.252E-05
CGA:  37    -0.354810092476E+03   -0.82508E-05   -0.82149E-05  7072   0.929E-04 0.140E-05
  17 F= -.35481009E+03 E0= -.35479481E+03  d E =0.284690E+00  mag=     8.0000
       N       E                     dE             d eps       ncg     rms          ort
SDA:   1    -0.353302669060E+03    0.15074E+01    0.00000E+00  7072   0.617E+01 0.000E+00
CGA:   2    -0.354024264286E+03   -0.72160E+00   -0.71302E+00  7072   0.102E+02 0.162E+00
CGA:   3    -0.354354555812E+03   -0.33029E+00   -0.31176E+00  7072   0.345E+01 0.286E+00
CGA:   4    -0.354708317583E+03   -0.35376E+00   -0.34712E+00  7072   0.270E+01 0.147E+00
CGA:   5    -0.354876344707E+03   -0.16803E+00   -0.16827E+00  7072   0.182E+01 0.523E-01
CGA:   6    -0.354961113766E+03   -0.84769E-01   -0.83677E-01  7072   0.112E+01-0.839E-02
CGA:   7    -0.354997555800E+03   -0.36442E-01   -0.36502E-01  7072   0.280E+00-0.909E-03
CGA:   8    -0.355014058152E+03   -0.16502E-01   -0.16503E-01  7072   0.189E+00 0.112E-02
CGA:   9    -0.355027756266E+03   -0.13698E-01   -0.13710E-01  7072   0.196E+00-0.603E-03
CGA:  10    -0.355033165952E+03   -0.54097E-02   -0.54307E-02  7072   0.460E-01-0.401E-03
CGA:  11    -0.355037224123E+03   -0.40582E-02   -0.40566E-02  7072   0.371E-01 0.493E-04
CGA:  12    -0.355039165526E+03   -0.19414E-02   -0.19401E-02  7072   0.310E-01-0.544E-04
CGA:  13    -0.355040567369E+03   -0.14018E-02   -0.14054E-02  7072   0.236E-01 0.597E-04
CGA:  14    -0.355041651330E+03   -0.10840E-02   -0.10837E-02  7072   0.501E-02-0.171E-05
CGA:  15    -0.355042006602E+03   -0.35527E-03   -0.35554E-03  7072   0.604E-02-0.130E-04
CGA:  16    -0.355042365130E+03   -0.35853E-03   -0.35851E-03  7072   0.668E-02 0.148E-04
CGA:  17    -0.355042620589E+03   -0.25546E-03   -0.25566E-03  7072   0.172E-02 0.654E-05
CGA:  18    -0.355042736089E+03   -0.11550E-03   -0.11547E-03  7072   0.104E-02 0.261E-05
CGA:  19    -0.355042817277E+03   -0.81188E-04   -0.81126E-04  7072   0.131E-02 0.269E-05
CGA:  20    -0.355042869053E+03   -0.51776E-04   -0.51742E-04  7072   0.851E-03-0.691E-06
CGA:  21    -0.355042930414E+03   -0.61362E-04   -0.61339E-04  7072   0.454E-03 0.140E-05
CGA:  22    -0.355042955767E+03   -0.25353E-04   -0.25354E-04  7072   0.251E-03 0.178E-06
CGA:  23    -0.355042975235E+03   -0.19468E-04   -0.19495E-04  7072   0.419E-03-0.148E-05
CGA:  24    -0.355042993236E+03   -0.18001E-04   -0.18004E-04  7072   0.208E-03-0.258E-06
CGA:  25    -0.355043003959E+03   -0.10723E-04   -0.10720E-04  7072   0.678E-04-0.651E-06
CGA:  26    -0.355043010104E+03   -0.61452E-05   -0.61698E-05  7072   0.792E-04-0.828E-06
  18 F= -.35504301E+03 E0= -.35502783E+03  d E =-.232918E+00  mag=     8.0000
       N       E                     dE             d eps       ncg     rms          ort
SDA:   1    -0.354462958566E+03    0.58005E+00    0.00000E+00  7072   0.223E+01 0.000E+00
CGA:   2    -0.354706145122E+03   -0.24319E+00   -0.24061E+00  7072   0.443E+01 0.518E-01
CGA:   3    -0.354858130743E+03   -0.15199E+00   -0.14829E+00  7072   0.126E+01 0.451E-01
CGA:   4    -0.354975104412E+03   -0.11697E+00   -0.11570E+00  7072   0.108E+01 0.334E-01
CGA:   5    -0.355052959092E+03   -0.77855E-01   -0.78011E-01  7072   0.491E+00-0.120E-01
CGA:   6    -0.355083313560E+03   -0.30354E-01   -0.30354E-01  7072   0.218E+00 0.554E-03
CGA:   7    -0.355090977408E+03   -0.76638E-02   -0.76544E-02  7072   0.100E+00 0.115E-03
CGA:   8    -0.355096354921E+03   -0.53775E-02   -0.53801E-02  7072   0.785E-01 0.143E-03
CGA:   9    -0.355101645734E+03   -0.52908E-02   -0.52952E-02  7072   0.270E-01-0.393E-03
CGA:  10    -0.355103102392E+03   -0.14567E-02   -0.14591E-02  7072   0.151E-01 0.142E-03
CGA:  11    -0.355104033681E+03   -0.93129E-03   -0.93131E-03  7072   0.191E-01-0.110E-04
CGA:  12    -0.355104933500E+03   -0.89982E-03   -0.90053E-03  7072   0.680E-02 0.134E-04
CGA:  13    -0.355105411972E+03   -0.47847E-03   -0.47858E-03  7072   0.280E-02-0.782E-05
CGA:  14    -0.355105591855E+03   -0.17988E-03   -0.17984E-03  7072   0.234E-02 0.690E-05
CGA:  15    -0.355105701970E+03   -0.11012E-03   -0.11010E-03  7072   0.206E-02-0.882E-06
CGA:  16    -0.355105841404E+03   -0.13943E-03   -0.13941E-03  7072   0.103E-02 0.274E-05
CGA:  17    -0.355105894169E+03   -0.52765E-04   -0.52763E-04  7072   0.366E-03 0.709E-07
CGA:  18    -0.355105922657E+03   -0.28488E-04   -0.28440E-04  7072   0.584E-03 0.252E-05
CGA:  19    -0.355105955756E+03   -0.33099E-04   -0.33103E-04  7072   0.415E-03 0.824E-06
CGA:  20    -0.355105974546E+03   -0.18791E-04   -0.18808E-04  7072   0.167E-03 0.102E-05
CGA:  21    -0.355105992015E+03   -0.17468E-04   -0.17430E-04  7072   0.126E-03 0.867E-06
CGA:  22    -0.355105998593E+03   -0.65780E-05   -0.65860E-05  7072   0.151E-03 0.750E-06
  19 F= -.35510600E+03 E0= -.35509090E+03  d E =-.629885E-01  mag=     8.0000
       N       E                     dE             d eps       ncg     rms          ort
SDA:   1    -0.354897068639E+03    0.20892E+00    0.00000E+00  7072   0.789E+00 0.000E+00
CGA:   2    -0.354953953153E+03   -0.56885E-01   -0.57134E-01  7072   0.167E+01-0.147E-01
CGA:   3    -0.355035862556E+03   -0.81909E-01   -0.81982E-01  7072   0.500E+00 0.160E-02
CGA:   4    -0.355067271558E+03   -0.31409E-01   -0.31404E-01  7072   0.343E+00 0.222E-02
CGA:   5    -0.355102128014E+03   -0.34856E-01   -0.35016E-01  7072   0.215E+00-0.361E-02
CGA:   6    -0.355108529522E+03   -0.64015E-02   -0.65048E-02  7072   0.801E-01-0.181E-02
CGA:   7    -0.355112331340E+03   -0.38018E-02   -0.37923E-02  7072   0.425E-01-0.134E-03
CGA:   8    -0.355115107261E+03   -0.27759E-02   -0.27762E-02  7072   0.229E-01-0.423E-04
CGA:   9    -0.355116673890E+03   -0.15666E-02   -0.15667E-02  7072   0.950E-02-0.886E-05
CGA:  10    -0.355117336398E+03   -0.66251E-03   -0.66241E-03  7072   0.445E-02 0.533E-05
CGA:  11    -0.355117719738E+03   -0.38334E-03   -0.38374E-03  7072   0.508E-02-0.140E-04
CGA:  12    -0.355117930481E+03   -0.21074E-03   -0.21071E-03  7072   0.319E-02-0.263E-05
CGA:  13    -0.355118079543E+03   -0.14906E-03   -0.14871E-03  7072   0.893E-03-0.984E-05
CGA:  14    -0.355118157622E+03   -0.78079E-04   -0.78189E-04  7072   0.620E-03-0.422E-05
CGA:  15    -0.355118208828E+03   -0.51206E-04   -0.51284E-04  7072   0.456E-03-0.383E-05
CGA:  16    -0.355118244666E+03   -0.35838E-04   -0.35831E-04  7072   0.378E-03 0.343E-06
CGA:  17    -0.355118257446E+03   -0.12780E-04   -0.12762E-04  7072   0.136E-03-0.132E-06
CGA:  18    -0.355118265544E+03   -0.80973E-05   -0.81001E-05  7072   0.154E-03 0.741E-06
CGA:  19    -0.355118282288E+03   -0.16745E-04   -0.16662E-04  7072   0.732E-04 0.181E-05
CGA:  20    -0.355118289088E+03   -0.68001E-05   -0.67570E-05  7072   0.638E-04 0.161E-05
  20 F= -.35511829E+03 E0= -.35510327E+03  d E =-.122905E-01  mag=     8.0000
       N       E                     dE             d eps       ncg     rms          ort
SDA:   1    -0.355089674548E+03    0.28608E-01    0.00000E+00  7072   0.269E+00 0.000E+00
CGA:   2    -0.355095752796E+03   -0.60782E-02   -0.59753E-02  7072   0.832E-01 0.334E-02
CGA:   3    -0.355112749195E+03   -0.16996E-01   -0.16988E-01  7072   0.510E-01 0.638E-04
CGA:   4    -0.355116064867E+03   -0.33157E-02   -0.33152E-02  7072   0.433E-01-0.510E-04
CGA:   5    -0.355118201604E+03   -0.21367E-02   -0.21369E-02  7072   0.323E-01-0.210E-04
CGA:   6    -0.355119481750E+03   -0.12801E-02   -0.12836E-02  7072   0.109E-01-0.410E-04
CGA:   7    -0.355120187158E+03   -0.70541E-03   -0.70530E-03  7072   0.426E-02-0.285E-04
CGA:   8    -0.355120430536E+03   -0.24338E-03   -0.24324E-03  7072   0.226E-02-0.697E-05
CGA:   9    -0.355120620650E+03   -0.19011E-03   -0.19013E-03  7072   0.129E-02-0.211E-05
CGA:  10    -0.355120678064E+03   -0.57414E-04   -0.57262E-04  7072   0.982E-03-0.401E-05
CGA:  11    -0.355120719449E+03   -0.41385E-04   -0.41325E-04  7072   0.357E-03-0.284E-05
CGA:  12    -0.355120754105E+03   -0.34656E-04   -0.34826E-04  7072   0.238E-03-0.531E-05
CGA:  13    -0.355120771063E+03   -0.16958E-04   -0.16982E-04  7072   0.142E-03-0.430E-05
CGA:  14    -0.355120781493E+03   -0.10431E-04   -0.10461E-04  7072   0.571E-04-0.410E-05
CGA:  15    -0.355120784781E+03   -0.32872E-05   -0.32782E-05  7072   0.889E-04-0.110E-05
  21 F= -.35512078E+03 E0= -.35510580E+03  d E =-.249569E-02  mag=     8.0000
       N       E                     dE             d eps       ncg     rms          ort
SDA:   1    -0.354934510529E+03    0.18627E+00    0.00000E+00  7072   0.635E+00 0.000E+00
CGA:   2    -0.354982328271E+03   -0.47818E-01   -0.47579E-01  7072   0.114E+01 0.190E-01
CGA:   3    -0.355066329663E+03   -0.84001E-01   -0.84056E-01  7072   0.904E+00-0.815E-02
CGA:   4    -0.355093504488E+03   -0.27175E-01   -0.27304E-01  7072   0.170E+00-0.283E-02
CGA:   5    -0.355112663105E+03   -0.19159E-01   -0.19096E-01  7072   0.129E+00 0.122E-02
CGA:   6    -0.355120940420E+03   -0.82773E-02   -0.82815E-02  7072   0.474E-01 0.391E-03
CGA:   7    -0.355123976409E+03   -0.30360E-02   -0.30349E-02  7072   0.161E-01-0.107E-03
CGA:   8    -0.355125017797E+03   -0.10414E-02   -0.10412E-02  7072   0.110E-01-0.373E-04
CGA:   9    -0.355125941190E+03   -0.92339E-03   -0.92293E-03  7072   0.619E-02 0.178E-04
CGA:  10    -0.355126156549E+03   -0.21536E-03   -0.21503E-03  7072   0.319E-02-0.435E-05
CGA:  11    -0.355126320824E+03   -0.16427E-03   -0.16417E-03  7072   0.162E-02-0.659E-05
CGA:  12    -0.355126461251E+03   -0.14043E-03   -0.14062E-03  7072   0.113E-02-0.101E-04
CGA:  13    -0.355126537168E+03   -0.75917E-04   -0.75925E-04  7072   0.472E-03-0.114E-04
CGA:  14    -0.355126566213E+03   -0.29045E-04   -0.29021E-04  7072   0.338E-03-0.470E-05
CGA:  15    -0.355126586311E+03   -0.20099E-04   -0.20090E-04  7072   0.410E-03-0.155E-05
CGA:  16    -0.355126607449E+03   -0.21137E-04   -0.21094E-04  7072   0.208E-03-0.276E-05
CGA:  17    -0.355126620869E+03   -0.13421E-04   -0.13420E-04  7072   0.908E-04-0.987E-06
CGA:  18    -0.355126633129E+03   -0.12260E-04   -0.12283E-04  7072   0.131E-03-0.410E-06
CGA:  19    -0.355126639916E+03   -0.67868E-05   -0.68026E-05  7072   0.109E-03 0.699E-06
  22 F= -.35512664E+03 E0= -.35511172E+03  d E =-.585514E-02  mag=     8.0000
       N       E                     dE             d eps       ncg     rms          ort
SDA:   1    -0.355092775604E+03    0.33858E-01    0.00000E+00  7072   0.410E+00 0.000E+00
CGA:   2    -0.355101863003E+03   -0.90874E-02   -0.90884E-02  7072   0.920E-01-0.247E-03
CGA:   3    -0.355111004653E+03   -0.91417E-02   -0.90939E-02  7072   0.186E+00 0.121E-02
CGA:   4    -0.355123093065E+03   -0.12088E-01   -0.12085E-01  7072   0.284E-01-0.439E-03
CGA:   5    -0.355126313124E+03   -0.32201E-02   -0.32216E-02  7072   0.269E-01-0.267E-04
CGA:   6    -0.355127716102E+03   -0.14030E-02   -0.14028E-02  7072   0.639E-02 0.490E-06
CGA:   7    -0.355128199650E+03   -0.48355E-03   -0.48361E-03  7072   0.319E-02-0.503E-05
CGA:   8    -0.355128353747E+03   -0.15410E-03   -0.15419E-03  7072   0.301E-02 0.242E-05
CGA:   9    -0.355128509438E+03   -0.15569E-03   -0.15547E-03  7072   0.140E-02-0.264E-05
CGA:  10    -0.355128575523E+03   -0.66084E-04   -0.66147E-04  7072   0.503E-03 0.218E-05
CGA:  11    -0.355128616114E+03   -0.40591E-04   -0.40601E-04  7072   0.314E-03-0.594E-06
CGA:  12    -0.355128645589E+03   -0.29475E-04   -0.29491E-04  7072   0.225E-03-0.682E-06
CGA:  13    -0.355128653087E+03   -0.74983E-05   -0.74810E-05  7072   0.119E-03-0.314E-06
  23 F= -.35512865E+03 E0= -.35511371E+03  d E =-.201317E-02  mag=     8.0000
       N       E                     dE             d eps       ncg     rms          ort
SDA:   1    -0.354273589058E+03    0.85506E+00    0.00000E+00  7072   0.218E+01 0.000E+00
CGA:   2    -0.354717361879E+03   -0.44377E+00   -0.44385E+00  7072   0.601E+01 0.326E-04
CGA:   3    -0.354982532529E+03   -0.26517E+00   -0.26911E+00  7072   0.796E+00-0.104E-01
CGA:   4    -0.355052509326E+03   -0.69977E-01   -0.70184E-01  7072   0.122E+01-0.865E-02
CGA:   5    -0.355097413369E+03   -0.44904E-01   -0.45501E-01  7072   0.474E+00-0.759E-02
CGA:   6    -0.355117454775E+03   -0.20041E-01   -0.19957E-01  7072   0.101E+00 0.587E-03
CGA:   7    -0.355124994943E+03   -0.75402E-02   -0.75390E-02  7072   0.671E-01 0.135E-03
CGA:   8    -0.355131256201E+03   -0.62613E-02   -0.62429E-02  7072   0.350E-01 0.597E-03
CGA:   9    -0.355132680452E+03   -0.14243E-02   -0.14199E-02  7072   0.235E-01 0.391E-04
CGA:  10    -0.355133698023E+03   -0.10176E-02   -0.10169E-02  7072   0.834E-02 0.791E-05
CGA:  11    -0.355134375806E+03   -0.67778E-03   -0.67806E-03  7072   0.760E-02-0.148E-04
CGA:  12    -0.355134882596E+03   -0.50679E-03   -0.50680E-03  7072   0.200E-02 0.273E-05
CGA:  13    -0.355134996880E+03   -0.11428E-03   -0.11435E-03  7072   0.145E-02 0.262E-05
CGA:  14    -0.355135100587E+03   -0.10371E-03   -0.10373E-03  7072   0.188E-02-0.435E-05
CGA:  15    -0.355135173870E+03   -0.73283E-04   -0.73322E-04  7072   0.686E-03-0.833E-06
CGA:  16    -0.355135229705E+03   -0.55835E-04   -0.55841E-04  7072   0.255E-03-0.437E-06
CGA:  17    -0.355135253682E+03   -0.23977E-04   -0.24006E-04  7072   0.297E-03-0.111E-05
CGA:  18    -0.355135289368E+03   -0.35686E-04   -0.35648E-04  7072   0.208E-03 0.672E-06
CGA:  19    -0.355135298996E+03   -0.96274E-05   -0.96266E-05  7072   0.972E-04 0.229E-07
  24 F= -.35513530E+03 E0= -.35512033E+03  d E =-.664591E-02  mag=     8.0000
       N       E                     dE             d eps       ncg     rms          ort
SDA:   1    -0.354364663274E+03    0.77063E+00    0.00000E+00  7072   0.226E+01 0.000E+00
CGA:   2    -0.354567351357E+03   -0.20269E+00   -0.20074E+00  7072   0.635E+01 0.755E-01
CGA:   3    -0.354944973126E+03   -0.37762E+00   -0.37566E+00  7072   0.105E+01-0.357E-01
CGA:   4    -0.355031150041E+03   -0.86177E-01   -0.85832E-01  7072   0.138E+01 0.192E-01
CGA:   5    -0.355089014176E+03   -0.57864E-01   -0.56671E-01  7072   0.530E+00 0.936E-02
CGA:   6    -0.355110905855E+03   -0.21892E-01   -0.22238E-01  7072   0.164E+00-0.197E-02
CGA:   7    -0.355122300783E+03   -0.11395E-01   -0.11398E-01  7072   0.111E+00-0.734E-03
CGA:   8    -0.355126701693E+03   -0.44009E-02   -0.44213E-02  7072   0.682E-01-0.130E-03
CGA:   9    -0.355130772457E+03   -0.40708E-02   -0.40651E-02  7072   0.302E-01-0.317E-03
CGA:  10    -0.355132461930E+03   -0.16895E-02   -0.16916E-02  7072   0.162E-01 0.767E-04
CGA:  11    -0.355133129970E+03   -0.66804E-03   -0.66752E-03  7072   0.111E-01 0.305E-05
CGA:  12    -0.355133940654E+03   -0.81068E-03   -0.81009E-03  7072   0.607E-02 0.454E-04
CGA:  13    -0.355134269890E+03   -0.32924E-03   -0.32893E-03  7072   0.352E-02-0.107E-04
CGA:  14    -0.355134404702E+03   -0.13481E-03   -0.13497E-03  7072   0.174E-02-0.871E-06
CGA:  15    -0.355134534761E+03   -0.13006E-03   -0.13009E-03  7072   0.133E-02-0.250E-05
CGA:  16    -0.355134621254E+03   -0.86493E-04   -0.86487E-04  7072   0.127E-02 0.190E-05
CGA:  17    -0.355134675084E+03   -0.53830E-04   -0.53735E-04  7072   0.494E-03-0.216E-05
CGA:  18    -0.355134702455E+03   -0.27371E-04   -0.27381E-04  7072   0.333E-03 0.541E-06
CGA:  19    -0.355134729248E+03   -0.26793E-04   -0.26794E-04  7072   0.435E-03-0.270E-06
CGA:  20    -0.355134750767E+03   -0.21519E-04   -0.21542E-04  7072   0.247E-03 0.836E-06
CGA:  21    -0.355134764563E+03   -0.13796E-04   -0.13790E-04  7072   0.169E-03-0.962E-06
CGA:  22    -0.355134775642E+03   -0.11078E-04   -0.11076E-04  7072   0.107E-03 0.402E-06
CGA:  23    -0.355134780864E+03   -0.52228E-05   -0.52184E-05  7072   0.106E-03-0.431E-06
  25 F= -.35513478E+03 E0= -.35511976E+03  d E =0.518131E-03  mag=     8.0000
       N       E                     dE             d eps       ncg     rms          ort
SDA:   1    -0.344119196910E+03    0.11016E+02    0.00000E+00  7072   0.295E+02 0.000E+00
CGA:   2    -0.349300667864E+03   -0.51815E+01   -0.51070E+01  7072   0.755E+02 0.653E+00
CGA:   3    -0.352119610893E+03   -0.28189E+01   -0.24389E+01  7072   0.252E+02 0.589E+01
CGA:   4    -0.353355393642E+03   -0.12358E+01   -0.11910E+01  7072   0.109E+02 0.405E-02
CGA:   5    -0.354480059635E+03   -0.11247E+01   -0.11055E+01  7072   0.799E+01 0.420E+00
CGA:   6    -0.354785428375E+03   -0.30537E+00   -0.23727E+00  7072   0.189E+01 0.160E+01
CGA:   7    -0.354889041741E+03   -0.10361E+00   -0.10385E+00  7072   0.177E+01-0.270E-04
CGA:   8    -0.354984512965E+03   -0.95471E-01   -0.96021E-01  7072   0.148E+01 0.192E-01
CGA:   9    -0.355032346464E+03   -0.47833E-01   -0.47422E-01  7072   0.882E+00 0.620E-02
CGA:  10    -0.355069767676E+03   -0.37421E-01   -0.37369E-01  7072   0.386E+00 0.117E-02
CGA:  11    -0.355083748889E+03   -0.13981E-01   -0.14083E-01  7072   0.287E+00-0.535E-03
CGA:  12    -0.355094380990E+03   -0.10632E-01   -0.10447E-01  7072   0.132E+00 0.110E-02
CGA:  13    -0.355102059201E+03   -0.76782E-02   -0.76790E-02  7072   0.159E+00 0.775E-03
CGA:  14    -0.355108329811E+03   -0.62706E-02   -0.63397E-02  7072   0.904E-01 0.981E-04
CGA:  15    -0.355111268448E+03   -0.29386E-02   -0.29332E-02  7072   0.286E-01 0.661E-04
CGA:  16    -0.355112731919E+03   -0.14635E-02   -0.14624E-02  7072   0.266E-01-0.825E-04
CGA:  17    -0.355113865706E+03   -0.11338E-02   -0.11356E-02  7072   0.232E-01 0.180E-04
CGA:  18    -0.355115018365E+03   -0.11527E-02   -0.11538E-02  7072   0.124E-01 0.647E-04
CGA:  19    -0.355115750513E+03   -0.73215E-03   -0.73203E-03  7072   0.160E-01 0.173E-04
CGA:  20    -0.355116298455E+03   -0.54794E-03   -0.55020E-03  7072   0.484E-02-0.910E-05
CGA:  21    -0.355116543615E+03   -0.24516E-03   -0.24524E-03  7072   0.494E-02 0.122E-04
CGA:  22    -0.355116896422E+03   -0.35281E-03   -0.35280E-03  7072   0.646E-02 0.123E-05
CGA:  23    -0.355117116614E+03   -0.22019E-03   -0.22123E-03  7072   0.291E-02 0.171E-05
CGA:  24    -0.355117313840E+03   -0.19723E-03   -0.19716E-03  7072   0.208E-02 0.351E-05
CGA:  25    -0.355117385720E+03   -0.71880E-04   -0.71917E-04  7072   0.136E-02 0.956E-06
CGA:  26    -0.355117465807E+03   -0.80087E-04   -0.80046E-04  7072   0.141E-02 0.622E-05
CGA:  27    -0.355117554360E+03   -0.88553E-04   -0.88495E-04  7072   0.971E-03 0.556E-05
CGA:  28    -0.355117585948E+03   -0.31589E-04   -0.31559E-04  7072   0.455E-03-0.377E-06
CGA:  29    -0.355117608738E+03   -0.22790E-04   -0.22791E-04  7072   0.443E-03 0.147E-06
CGA:  30    -0.355117643767E+03   -0.35029E-04   -0.35026E-04  7072   0.430E-03-0.213E-07
CGA:  31    -0.355117658909E+03   -0.15142E-04   -0.15136E-04  7072   0.284E-03-0.107E-06
SDA:  32    -0.355117674707E+03   -0.15798E-04   -0.15793E-04  7072   0.188E-03 0.181E-05
CGA:  33    -0.355117682509E+03   -0.78021E-05   -0.78057E-05  7072   0.611E-04 0.259E-06
CGA:  34    -0.355117693497E+03   -0.10988E-04   -0.10902E-04  7072   0.156E-03 0.648E-06
CGA:  35    -0.355117700598E+03   -0.71011E-05   -0.71146E-05  7072   0.110E-03 0.920E-06
  26 F= -.35511770E+03 E0= -.35510291E+03  d E =0.170803E-01  mag=     8.0000
       N       E                     dE             d eps       ncg     rms          ort
SDA:   1    -0.351573166935E+03    0.35445E+01    0.00000E+00  7072   0.120E+02 0.000E+00
CGA:   2    -0.352596187545E+03   -0.10230E+01   -0.10216E+01  7072   0.264E+02 0.523E-01
CGA:   3    -0.353813393247E+03   -0.12172E+01   -0.12243E+01  7072   0.923E+01 0.816E-01
CGA:   4    -0.354308510624E+03   -0.49512E+00   -0.48734E+00  7072   0.692E+01-0.447E+00
CGA:   5    -0.354768380773E+03   -0.45987E+00   -0.46051E+00  7072   0.300E+01-0.415E-01
CGA:   6    -0.354945766075E+03   -0.17739E+00   -0.17739E+00  7072   0.179E+01-0.432E-02
CGA:   7    -0.355013974893E+03   -0.68209E-01   -0.68296E-01  7072   0.911E+00-0.117E-02
CGA:   8    -0.355050321425E+03   -0.36347E-01   -0.36593E-01  7072   0.308E+00 0.133E-02
CGA:   9    -0.355076883922E+03   -0.26562E-01   -0.26301E-01  7072   0.309E+00 0.764E-02
CGA:  10    -0.355091430761E+03   -0.14547E-01   -0.14539E-01  7072   0.807E-01-0.110E-03
CGA:  11    -0.355096271480E+03   -0.48407E-02   -0.48392E-02  7072   0.837E-01 0.429E-03
CGA:  12    -0.355100175388E+03   -0.39039E-02   -0.39179E-02  7072   0.502E-01 0.343E-03
CGA:  13    -0.355103398134E+03   -0.32227E-02   -0.32202E-02  7072   0.255E-01 0.236E-03
CGA:  14    -0.355104925498E+03   -0.15274E-02   -0.15272E-02  7072   0.123E-01 0.446E-04
CGA:  15    -0.355105528316E+03   -0.60282E-03   -0.60306E-03  7072   0.108E-01 0.973E-05
CGA:  16    -0.355106171708E+03   -0.64339E-03   -0.64347E-03  7072   0.725E-02-0.316E-04
CGA:  17    -0.355106682642E+03   -0.51093E-03   -0.51074E-03  7072   0.467E-02 0.957E-05
CGA:  18    -0.355106920337E+03   -0.23769E-03   -0.23794E-03  7072   0.275E-02 0.128E-04
CGA:  19    -0.355107086767E+03   -0.16643E-03   -0.16640E-03  7072   0.243E-02 0.692E-05
[...]
CGA:  42    -0.355199864441E+03   -0.67899E-04   -0.67920E-04  7072   0.111E-02-0.241E-05
CGA:  43    -0.355199902612E+03   -0.38171E-04   -0.38186E-04  7072   0.282E-03-0.429E-06
CGA:  44    -0.355199924780E+03   -0.22167E-04   -0.22227E-04  7072   0.273E-03-0.260E-05
CGA:  45    -0.355199969631E+03   -0.44851E-04   -0.44950E-04  7072   0.942E-04-0.996E-06
CGA:  46    -0.355199978688E+03   -0.90571E-05   -0.90792E-05  7072   0.892E-04-0.711E-06
  50 F= -.35519998E+03 E0= -.35518494E+03  d E =-.105085E-01  mag=     8.0000
       N       E                     dE             d eps       ncg     rms          ort
SDA:   1    -0.339804498397E+03    0.15395E+02    0.00000E+00  7072   0.405E+02 0.000E+00
CGA:   2    -0.349020594491E+03   -0.92161E+01   -0.94110E+01  7072   0.680E+02-0.177E+01
CGA:   3    -0.352037646265E+03   -0.30171E+01   -0.32730E+01  7072   0.239E+02 0.374E+01
CGA:   4    -0.352801538098E+03   -0.76389E+00   -0.71656E+00  7072   0.221E+02-0.241E+00
CGA:   5    -0.353923569421E+03   -0.11220E+01   -0.10633E+01  7072   0.283E+02-0.178E+00
CGA:   6    -0.354510482519E+03   -0.58691E+00   -0.48662E+00  7072   0.894E+01 0.491E+01
CGA:   7    -0.354735607490E+03   -0.22512E+00   -0.24941E+00  7072   0.584E+01-0.441E+00
CGA:   8    -0.354856847033E+03   -0.12124E+00   -0.11497E+00  7072   0.316E+01 0.244E+00
CGA:   9    -0.354952521206E+03   -0.95674E-01   -0.91118E-01  7072   0.288E+01 0.990E-01
CGA:  10    -0.355020905735E+03   -0.68385E-01   -0.75940E-01  7072   0.185E+01-0.166E+00
CGA:  11    -0.355071666419E+03   -0.50761E-01   -0.52753E-01  7072   0.198E+01-0.301E-01
CGA:  12    -0.355128479886E+03   -0.56813E-01   -0.55219E-01  7072   0.760E+00 0.296E-01
CGA:  13    -0.355146247598E+03   -0.17768E-01   -0.17402E-01  7072   0.487E+00 0.105E-01
CGA:  14    -0.355161222046E+03   -0.14974E-01   -0.14942E-01  7072   0.300E+00 0.678E-03
CGA:  15    -0.355168218517E+03   -0.69965E-02   -0.71241E-02  7072   0.228E+00-0.312E-02
CGA:  16    -0.355179946519E+03   -0.11728E-01   -0.11725E-01  7072   0.328E+00 0.164E-02
CGA:  17    -0.355187797470E+03   -0.78510E-02   -0.80139E-02  7072   0.141E+00-0.342E-02
CGA:  18    -0.355191807439E+03   -0.40100E-02   -0.40118E-02  7072   0.693E-01 0.104E-04
CGA:  19    -0.355193398553E+03   -0.15911E-02   -0.16102E-02  7072   0.347E-01-0.423E-03
CGA:  20    -0.355195273387E+03   -0.18748E-02   -0.18731E-02  7072   0.537E-01 0.156E-03
CGA:  21    -0.355196894076E+03   -0.16207E-02   -0.16244E-02  7072   0.357E-01-0.249E-04
CGA:  22    -0.355198708898E+03   -0.18148E-02   -0.18145E-02  7072   0.431E-01 0.436E-04
CGA:  23    -0.355199783918E+03   -0.10750E-02   -0.10933E-02  7072   0.145E-01-0.281E-03
CGA:  24    -0.355200341090E+03   -0.55717E-03   -0.55795E-03  7072   0.114E-01 0.402E-04
CGA:  25    -0.355200719045E+03   -0.37796E-03   -0.37843E-03  7072   0.101E-01 0.332E-05
CGA:  26    -0.355201501760E+03   -0.78271E-03   -0.78146E-03  7072   0.195E-01 0.379E-04
CGA:  27    -0.355202085867E+03   -0.58411E-03   -0.58806E-03  7072   0.102E-01 0.135E-04
CGA:  28    -0.355202511345E+03   -0.42548E-03   -0.42572E-03  7072   0.600E-02 0.332E-04
CGA:  29    -0.355202696361E+03   -0.18502E-03   -0.18505E-03  7072   0.492E-02 0.317E-05
CGA:  30    -0.355203019998E+03   -0.32364E-03   -0.32337E-03  7072   0.621E-02 0.117E-04
CGA:  31    -0.355203239872E+03   -0.21987E-03   -0.22011E-03  7072   0.554E-02 0.120E-04
SDA:  32    -0.355203479949E+03   -0.24008E-03   -0.24011E-03  7072   0.322E-02 0.811E-05
CGA:  33    -0.355203581120E+03   -0.10117E-03   -0.10106E-03  7072   0.135E-02-0.231E-05
CGA:  34    -0.355203666733E+03   -0.85613E-04   -0.85530E-04  7072   0.181E-02 0.370E-05
CGA:  35    -0.355203785223E+03   -0.11849E-03   -0.11864E-03  7072   0.137E-02-0.670E-05
CGA:  36    -0.355203930232E+03   -0.14501E-03   -0.14576E-03  7072   0.973E-03-0.126E-04
CGA:  37    -0.355204010216E+03   -0.79984E-04   -0.80077E-04  7072   0.532E-03-0.272E-05
CGA:  38    -0.355204072780E+03   -0.62563E-04   -0.62685E-04  7072   0.876E-03-0.199E-05
CGA:  39    -0.355204136329E+03   -0.63549E-04   -0.63490E-04  7072   0.110E-02 0.335E-05
CGA:  40    -0.355204174986E+03   -0.38657E-04   -0.38641E-04  7072   0.395E-03 0.101E-05
CGA:  41    -0.355204220168E+03   -0.45182E-04   -0.45084E-04  7072   0.263E-03 0.159E-05
CGA:  42    -0.355204262789E+03   -0.42621E-04   -0.42689E-04  7072   0.352E-03-0.726E-06
CGA:  43    -0.355204276403E+03   -0.13614E-04   -0.13632E-04  7072   0.186E-03 0.742E-06
CGA:  44    -0.355204284776E+03   -0.83733E-05   -0.83650E-05  7072   0.139E-03-0.349E-06
CGA:  45    -0.355204301774E+03   -0.16998E-04   -0.17012E-04  7072   0.135E-03-0.259E-06
CGA:  46    -0.355204314325E+03   -0.12552E-04   -0.12563E-04  7072   0.104E-03-0.391E-06
CGA:  47    -0.355204318540E+03   -0.42143E-05   -0.42242E-05  7072   0.397E-04 0.343E-06
  51 F= -.35520432E+03 E0= -.35518905E+03  d E =-.433985E-02  mag=     8.0000
       N       E                     dE             d eps       ncg     rms          ort
SDA:   1    -0.338523047259E+03    0.16681E+02    0.00000E+00  7072   0.468E+02 0.000E+00
CGA:   2    -0.348130586533E+03   -0.96075E+01   -0.92588E+01  7072   0.588E+02 0.384E+01
CGA:   3    -0.350691157696E+03   -0.25606E+01   -0.22395E+01  7072   0.371E+02 0.460E+01
CGA:   4    -0.352173130786E+03   -0.14820E+01   -0.17704E+01  7072   0.341E+02 0.677E+00
CGA:   5    -0.353330498820E+03   -0.11574E+01   -0.99822E+00  7072   0.135E+02 0.456E+01
CGA:   6    -0.354226558355E+03   -0.89606E+00   -0.68937E+00  7072   0.812E+01 0.748E+00
CGA:   7    -0.354505150283E+03   -0.27859E+00   -0.25748E+00  7072   0.965E+01 0.314E+00
CGA:   8    -0.354710468144E+03   -0.20532E+00   -0.21270E+00  7072   0.459E+01-0.248E+00
CGA:   9    -0.354837469689E+03   -0.12700E+00   -0.14269E+00  7072   0.492E+01-0.217E+00
CGA:  10    -0.354940060776E+03   -0.10259E+00   -0.96294E-01  7072   0.177E+01 0.265E+00
CGA:  11    -0.354988495249E+03   -0.48434E-01   -0.46852E-01  7072   0.168E+01 0.334E-01
CGA:  12    -0.355034592084E+03   -0.46097E-01   -0.45997E-01  7072   0.922E+00 0.362E-02
CGA:  13    -0.355051895845E+03   -0.17304E-01   -0.18047E-01  7072   0.614E+00-0.267E-01
CGA:  14    -0.355077648889E+03   -0.25753E-01   -0.25909E-01  7072   0.838E+00 0.552E-02
CGA:  15    -0.355096501159E+03   -0.18852E-01   -0.19332E-01  7072   0.375E+00-0.119E-01
CGA:  16    -0.355107625387E+03   -0.11124E-01   -0.11027E-01  7072   0.271E+00 0.100E-02
CGA:  17    -0.355114113907E+03   -0.64885E-02   -0.65845E-02  7072   0.136E+00-0.196E-02
CGA:  18    -0.355118210779E+03   -0.40969E-02   -0.41436E-02  7072   0.101E+00-0.130E-03
CGA:  19    -0.355121498470E+03   -0.32877E-02   -0.33191E-02  7072   0.102E+00 0.164E-03
CGA:  20    -0.355125899403E+03   -0.44009E-02   -0.44062E-02  7072   0.763E-01 0.653E-03
CGA:  21    -0.355127860383E+03   -0.19610E-02   -0.19736E-02  7072   0.500E-01-0.176E-03
CGA:  22    -0.355130532025E+03   -0.26716E-02   -0.26668E-02  7072   0.444E-01 0.375E-03
CGA:  23    -0.355131511898E+03   -0.97987E-03   -0.98434E-03  7072   0.168E-01-0.105E-03
CGA:  24    -0.355132506762E+03   -0.99486E-03   -0.99269E-03  7072   0.275E-01 0.110E-03
CGA:  25    -0.355133501431E+03   -0.99467E-03   -0.99720E-03  7072   0.211E-01 0.614E-04
CGA:  26    -0.355134363847E+03   -0.86242E-03   -0.86287E-03  7072   0.163E-01 0.467E-04
CGA:  27    -0.355135024016E+03   -0.66017E-03   -0.66017E-03  7072   0.159E-01 0.140E-05
CGA:  28    -0.355135559266E+03   -0.53525E-03   -0.53681E-03  7072   0.842E-02 0.454E-04
CGA:  29    -0.355135950066E+03   -0.39080E-03   -0.39063E-03  7072   0.101E-01 0.448E-04
CGA:  30    -0.355136310176E+03   -0.36011E-03   -0.36018E-03  7072   0.692E-02 0.867E-05
CGA:  31    -0.355136723073E+03   -0.41290E-03   -0.41308E-03  7072   0.971E-02-0.109E-04
SDA:  32    -0.355137011721E+03   -0.28865E-03   -0.28935E-03  7072   0.491E-02 0.794E-05
CGA:  33    -0.355137208540E+03   -0.19682E-03   -0.19678E-03  7072   0.169E-02-0.349E-05
CGA:  34    -0.355137320738E+03   -0.11220E-03   -0.11211E-03  7072   0.356E-02 0.340E-05
CGA:  35    -0.355137616100E+03   -0.29536E-03   -0.29644E-03  7072   0.253E-02-0.275E-04
CGA:  36    -0.355137834019E+03   -0.21792E-03   -0.21845E-03  7072   0.140E-02-0.131E-04
CGA:  37    -0.355137966709E+03   -0.13269E-03   -0.13279E-03  7072   0.190E-02-0.216E-05
CGA:  38    -0.355138132977E+03   -0.16627E-03   -0.16627E-03  7072   0.169E-02 0.751E-06
CGA:  39    -0.355138275436E+03   -0.14246E-03   -0.14245E-03  7072   0.757E-03 0.108E-05
CGA:  40    -0.355138344776E+03   -0.69341E-04   -0.69392E-04  7072   0.148E-02-0.117E-05
CGA:  41    -0.355138407294E+03   -0.62518E-04   -0.62590E-04  7072   0.908E-03 0.291E-05
CGA:  42    -0.355138473652E+03   -0.66358E-04   -0.66399E-04  7072   0.609E-03-0.189E-05
CGA:  43    -0.355138518546E+03   -0.44894E-04   -0.44899E-04  7072   0.199E-03-0.843E-07
CGA:  44    -0.355138557626E+03   -0.39080E-04   -0.39730E-04  7072   0.393E-03-0.469E-05
CGA:  45    -0.355138577124E+03   -0.19498E-04   -0.19485E-04  7072   0.206E-03-0.114E-05
CGA:  46    -0.355138591099E+03   -0.13976E-04   -0.13977E-04  7072   0.140E-03-0.330E-06
CGA:  47    -0.355138594822E+03   -0.37229E-05   -0.37526E-05  7072   0.442E-04 0.690E-06
  52 F= -.35513859E+03 E0= -.35512329E+03  d E =0.657237E-01  mag=     8.0000
       N       E                     dE             d eps       ncg     rms          ort
SDA:   1    -0.337749562077E+03    0.17389E+02    0.00000E+00  7072   0.578E+02 0.000E+00
CGA:   2    -0.342699747966E+03   -0.49502E+01   -0.48042E+01  7072   0.991E+02 0.725E+01
CGA:   3    -0.348515164313E+03   -0.58154E+01   -0.45637E+01  7072   0.516E+02 0.152E+02
CGA:   4    -0.350492912470E+03   -0.19777E+01   -0.14972E+01  7072   0.312E+02 0.123E+02
CGA:   5    -0.351969486460E+03   -0.14766E+01   -0.15184E+01  7072   0.335E+02 0.717E+00
CGA:   6    -0.353753839155E+03   -0.17844E+01   -0.16795E+01  7072   0.162E+02-0.116E+00
CGA:   7    -0.354391394993E+03   -0.63756E+00   -0.61737E+00  7072   0.120E+02 0.178E+00
CGA:   8    -0.354637091226E+03   -0.24570E+00   -0.24586E+00  7072   0.521E+01-0.517E-01
CGA:   9    -0.354844558409E+03   -0.20747E+00   -0.20807E+00  7072   0.208E+01-0.200E-01
CGA:  10    -0.354913280673E+03   -0.68722E-01   -0.69538E-01  7072   0.346E+01-0.940E-02
CGA:  11    -0.355059826223E+03   -0.14655E+00   -0.15021E+00  7072   0.139E+01 0.505E-01
CGA:  12    -0.355102188761E+03   -0.42363E-01   -0.45020E-01  7072   0.846E+00-0.272E-01
CGA:  13    -0.355120754465E+03   -0.18566E-01   -0.17589E-01  7072   0.325E+00 0.315E-01
CGA:  14    -0.355145245786E+03   -0.24491E-01   -0.24489E-01  7072   0.563E+00 0.100E-03
CGA:  15    -0.355158513276E+03   -0.13267E-01   -0.14730E-01  7072   0.314E+00-0.289E-01
CGA:  16    -0.355178681430E+03   -0.20168E-01   -0.20110E-01  7072   0.132E+00 0.264E-02
CGA:  17    -0.355183384337E+03   -0.47029E-02   -0.47377E-02  7072   0.598E-01-0.145E-04
CGA:  18    -0.355186382936E+03   -0.29986E-02   -0.30090E-02  7072   0.833E-01 0.163E-02
CGA:  19    -0.355192415067E+03   -0.60321E-02   -0.60425E-02  7072   0.770E-01-0.435E-03
CGA:  20    -0.355195481954E+03   -0.30669E-02   -0.30946E-02  7072   0.178E-01 0.403E-03
CGA:  21    -0.355196811891E+03   -0.13299E-02   -0.13303E-02  7072   0.175E-01-0.138E-04
CGA:  22    -0.355198140965E+03   -0.13291E-02   -0.13114E-02  7072   0.238E-01 0.662E-03
CGA:  23    -0.355199111797E+03   -0.97083E-03   -0.96810E-03  7072   0.105E-01-0.400E-05
CGA:  24    -0.355200060602E+03   -0.94881E-03   -0.94044E-03  7072   0.787E-02 0.213E-03
CGA:  25    -0.355200390075E+03   -0.32947E-03   -0.32943E-03  7072   0.504E-02 0.283E-05
CGA:  26    -0.355200781203E+03   -0.39113E-03   -0.38921E-03  7072   0.758E-02 0.712E-04
CGA:  27    -0.355201298531E+03   -0.51733E-03   -0.51750E-03  7072   0.437E-02-0.810E-05
CGA:  28    -0.355201513029E+03   -0.21450E-03   -0.21480E-03  7072   0.245E-02 0.157E-04
CGA:  29    -0.355201686773E+03   -0.17374E-03   -0.17380E-03  7072   0.442E-02-0.865E-06
CGA:  30    -0.355202004064E+03   -0.31729E-03   -0.31673E-03  7072   0.182E-02 0.335E-04
CGA:  31    -0.355202117324E+03   -0.11326E-03   -0.11325E-03  7072   0.154E-02 0.252E-05
SDA:  32    -0.355202201333E+03   -0.84009E-04   -0.84019E-04  7072   0.165E-02 0.221E-05
CGA:  33    -0.355202244884E+03   -0.43550E-04   -0.43446E-04  7072   0.647E-03-0.163E-05
CGA:  34    -0.355202294391E+03   -0.49507E-04   -0.49610E-04  7072   0.840E-03-0.485E-05
CGA:  35    -0.355202386674E+03   -0.92283E-04   -0.93216E-04  7072   0.504E-03-0.172E-04
CGA:  36    -0.355202425663E+03   -0.38989E-04   -0.39002E-04  7072   0.384E-03-0.825E-06
CGA:  37    -0.355202446837E+03   -0.21174E-04   -0.21168E-04  7072   0.374E-03-0.868E-06
CGA:  38    -0.355202466422E+03   -0.19585E-04   -0.19588E-04  7072   0.303E-03 0.429E-06
CGA:  39    -0.355202484677E+03   -0.18255E-04   -0.18255E-04  7072   0.175E-03-0.140E-05
CGA:  40    -0.355202496222E+03   -0.11544E-04   -0.11548E-04  7072   0.655E-04-0.492E-06
CGA:  41    -0.355202507472E+03   -0.11250E-04   -0.11499E-04  7072   0.144E-03-0.218E-05
CGA:  42    -0.355202512876E+03   -0.54042E-05   -0.53902E-05  7072   0.969E-04-0.524E-06
  53 F= -.35520251E+03 E0= -.35518733E+03  d E =-.639181E-01  mag=     8.0000
       N       E                     dE             d eps       ncg     rms          ort
SDA:   1    -0.349965110476E+03    0.52374E+01    0.00000E+00  7072   0.157E+02 0.000E+00
CGA:   2    -0.351581412326E+03   -0.16163E+01   -0.15785E+01  7072   0.396E+02 0.101E+01
CGA:   3    -0.353581596365E+03   -0.20002E+01   -0.18004E+01  7072   0.129E+02 0.735E+00
CGA:   4    -0.354261431164E+03   -0.67983E+00   -0.70527E+00  7072   0.727E+01 0.677E+00
CGA:   5    -0.354719786063E+03   -0.45835E+00   -0.45546E+00  7072   0.495E+01-0.226E+00
CGA:   6    -0.354962133517E+03   -0.24235E+00   -0.24360E+00  7072   0.346E+01 0.228E-01
CGA:   7    -0.355082750044E+03   -0.12062E+00   -0.11337E+00  7072   0.937E+00 0.112E+00
CGA:   8    -0.355135580852E+03   -0.52831E-01   -0.52936E-01  7072   0.398E+00 0.533E-02
CGA:   9    -0.355162962248E+03   -0.27381E-01   -0.27401E-01  7072   0.650E+00-0.173E-02
CGA:  10    -0.355187724037E+03   -0.24762E-01   -0.25357E-01  7072   0.127E+00-0.148E-02
CGA:  11    -0.355195029214E+03   -0.73052E-02   -0.73061E-02  7072   0.631E-01 0.112E-03
CGA:  12    -0.355199430169E+03   -0.44010E-02   -0.43846E-02  7072   0.104E+00 0.118E-02
CGA:  13    -0.355204019246E+03   -0.45891E-02   -0.45777E-02  7072   0.245E-01-0.709E-04
CGA:  14    -0.355205592050E+03   -0.15728E-02   -0.15711E-02  7072   0.207E-01 0.252E-03
CGA:  15    -0.355206509612E+03   -0.91756E-03   -0.91649E-03  7072   0.125E-01-0.112E-04
CGA:  16    -0.355207280892E+03   -0.77128E-03   -0.77071E-03  7072   0.114E-01 0.176E-03
CGA:  17    -0.355208080973E+03   -0.80008E-03   -0.80047E-03  7072   0.771E-02-0.216E-04
CGA:  18    -0.355208399487E+03   -0.31851E-03   -0.32011E-03  7072   0.432E-02 0.127E-04
CGA:  19    -0.355208672530E+03   -0.27304E-03   -0.27307E-03  7072   0.459E-02-0.574E-05
CGA:  20    -0.355209025172E+03   -0.35264E-03   -0.35174E-03  7072   0.385E-02 0.393E-04
CGA:  21    -0.355209235042E+03   -0.20987E-03   -0.20984E-03  7072   0.315E-02-0.142E-05
CGA:  22    -0.355209396788E+03   -0.16175E-03   -0.16197E-03  7072   0.206E-02 0.127E-04
CGA:  23    -0.355209520885E+03   -0.12410E-03   -0.12410E-03  7072   0.126E-02 0.118E-05
CGA:  24    -0.355209628396E+03   -0.10751E-03   -0.10730E-03  7072   0.226E-02 0.774E-05
CGA:  25    -0.355209727613E+03   -0.99217E-04   -0.99204E-04  7072   0.597E-03 0.113E-05
CGA:  26    -0.355209769144E+03   -0.41531E-04   -0.41475E-04  7072   0.607E-03 0.539E-05
CGA:  27    -0.355209806403E+03   -0.37259E-04   -0.37259E-04  7072   0.716E-03 0.201E-05
CGA:  28    -0.355209848826E+03   -0.42423E-04   -0.42428E-04  7072   0.319E-03 0.344E-05
CGA:  29    -0.355209869256E+03   -0.20431E-04   -0.20432E-04  7072   0.280E-03-0.544E-06
CGA:  30    -0.355209882887E+03   -0.13631E-04   -0.13636E-04  7072   0.229E-03 0.232E-06
CGA:  31    -0.355209901150E+03   -0.18263E-04   -0.18309E-04  7072   0.192E-03-0.220E-05
SDA:  32    -0.355209911972E+03   -0.10821E-04   -0.10822E-04  7072   0.134E-03-0.377E-07
CGA:  33    -0.355209915068E+03   -0.30960E-05   -0.30822E-05  7072   0.428E-04-0.330E-06
  54 F= -.35520992E+03 E0= -.35519480E+03  d E =-.740219E-02  mag=     8.0000
       N       E                     dE             d eps       ncg     rms          ort
SDA:   1    -0.354991445022E+03    0.21847E+00    0.00000E+00  7072   0.102E+01 0.000E+00
CGA:   2    -0.355042001178E+03   -0.50556E-01   -0.51437E-01  7072   0.990E+00 0.161E-01
CGA:   3    -0.355120553939E+03   -0.78553E-01   -0.78669E-01  7072   0.127E+01-0.517E-02
CGA:   4    -0.355162566275E+03   -0.42012E-01   -0.41946E-01  7072   0.239E+00 0.262E-03
CGA:   5    -0.355185535565E+03   -0.22969E-01   -0.23120E-01  7072   0.292E+00-0.377E-02
CGA:   6    -0.355203202914E+03   -0.17667E-01   -0.17674E-01  7072   0.414E-01 0.125E-02
CGA:   7    -0.355206663319E+03   -0.34604E-02   -0.34530E-02  7072   0.457E-01 0.286E-03
CGA:   8    -0.355208434811E+03   -0.17715E-02   -0.17656E-02  7072   0.261E-01 0.382E-04
CGA:   9    -0.355209722831E+03   -0.12880E-02   -0.12890E-02  7072   0.113E-01 0.270E-04
CGA:  10    -0.355210350897E+03   -0.62807E-03   -0.62783E-03  7072   0.418E-02-0.596E-05
CGA:  11    -0.355210714829E+03   -0.36393E-03   -0.36410E-03  7072   0.410E-02-0.470E-05
CGA:  12    -0.355211044132E+03   -0.32930E-03   -0.32915E-03  7072   0.122E-02 0.753E-05
CGA:  13    -0.355211123608E+03   -0.79476E-04   -0.79474E-04  7072   0.912E-03 0.329E-05
CGA:  14    -0.355211177836E+03   -0.54228E-04   -0.54226E-04  7072   0.109E-02-0.720E-07
CGA:  15    -0.355211228530E+03   -0.50694E-04   -0.50723E-04  7072   0.610E-03 0.987E-06
CGA:  16    -0.355211270288E+03   -0.41758E-04   -0.41768E-04  7072   0.254E-03-0.197E-05
CGA:  17    -0.355211287268E+03   -0.16980E-04   -0.16979E-04  7072   0.183E-03 0.186E-06
CGA:  18    -0.355211307978E+03   -0.20710E-04   -0.20684E-04  7072   0.269E-03 0.489E-06
CGA:  19    -0.355211324448E+03   -0.16470E-04   -0.16479E-04  7072   0.200E-03 0.161E-05
CGA:  20    -0.355211330645E+03   -0.61972E-05   -0.61934E-05  7072   0.727E-04 0.450E-07
CGA:  21    -0.355211341605E+03   -0.10960E-04   -0.10949E-04  7072   0.823E-04 0.952E-07
CGA:  22    -0.355211347607E+03   -0.60019E-05   -0.60022E-05  7072   0.695E-04-0.123E-06
  55 F= -.35521135E+03 E0= -.35519606E+03  d E =-.143254E-02  mag=     8.0000
       N       E                     dE             d eps       ncg     rms          ort
SDA:   1    -0.355166880252E+03    0.44461E-01    0.00000E+00  7072   0.176E+00 0.000E+00
CGA:   2    -0.355174410264E+03   -0.75300E-02   -0.75771E-02  7072   0.238E+00-0.123E-03
CGA:   3    -0.355197593501E+03   -0.23183E-01   -0.23215E-01  7072   0.955E-01-0.836E-03
CGA:   4    -0.355203385846E+03   -0.57923E-02   -0.57973E-02  7072   0.620E-01 0.259E-03
CGA:   5    -0.355207506202E+03   -0.41204E-02   -0.41206E-02  7072   0.343E-01 0.609E-04
CGA:   6    -0.355209210487E+03   -0.17043E-02   -0.17073E-02  7072   0.265E-01 0.290E-04
CGA:   7    -0.355210158109E+03   -0.94762E-03   -0.94583E-03  7072   0.661E-02 0.157E-04
CGA:   8    -0.355210498411E+03   -0.34030E-03   -0.34011E-03  7072   0.336E-02-0.389E-05
CGA:   9    -0.355210882967E+03   -0.38456E-03   -0.38443E-03  7072   0.187E-02 0.261E-05
CGA:  10    -0.355210942971E+03   -0.60004E-04   -0.60156E-04  7072   0.955E-03 0.138E-05
CGA:  11    -0.355210999161E+03   -0.56191E-04   -0.56184E-04  7072   0.729E-03 0.270E-06
CGA:  12    -0.355211055815E+03   -0.56653E-04   -0.56617E-04  7072   0.358E-03 0.266E-05
CGA:  13    -0.355211077661E+03   -0.21846E-04   -0.21843E-04  7072   0.247E-03-0.844E-06
CGA:  14    -0.355211087055E+03   -0.93937E-05   -0.93953E-05  7072   0.130E-03-0.182E-06
  56 F= -.35521109E+03 E0= -.35519582E+03  d E =0.260553E-03  mag=     8.0000
