       N       E                     dE             d eps       ncg     rms          ort
DAV:   1     0.602224786017E+04    0.60222E+04   -0.27000E+05  8112   0.166E+03
DAV:   2     0.346789285577E+03   -0.56755E+04   -0.51868E+04  8112   0.463E+02
DAV:   3    -0.365254634159E+03   -0.71204E+03   -0.69741E+03  8112   0.183E+02
DAV:   4    -0.387083252978E+03   -0.21829E+02   -0.21694E+02  8112   0.333E+01
DAV:   5    -0.387432955240E+03   -0.34970E+00   -0.34757E+00  8112   0.400E+00
SDA:   6    -0.122671042328E+03    0.26476E+03   -0.34757E+00  8112   0.117E+04 0.000E+00
CGA:   7    -0.262625642673E+03   -0.13995E+03   -0.14175E+03  8112   0.366E+03-0.178E+01
CGA:   8    -0.280102783324E+03   -0.17477E+02   -0.24994E+02  8112   0.199E+03-0.500E+02
CGA:   9    -0.291464072263E+03   -0.11361E+02   -0.10036E+02  8112   0.164E+03-0.358E+02
CGA:  10    -0.298321388912E+03   -0.68573E+01   -0.10682E+02  8112   0.134E+03-0.283E+02
CGA:  11    -0.304272132967E+03   -0.59507E+01   -0.51348E+01  8112   0.129E+03-0.552E+02
CGA:  12    -0.300218908179E+03    0.40532E+01   -0.37339E+01  8112   0.268E+03-0.440E+02
CGA:  13    -0.307131881675E+03   -0.69130E+01   -0.55592E+01  8112   0.624E+02-0.974E+02
CGA:  14    -0.309605935530E+03   -0.24741E+01   -0.19830E+01  8112   0.271E+02 0.886E+01
CGA:  15    -0.312021997575E+03   -0.24161E+01   -0.24416E+01  8112   0.467E+02-0.124E+01
CGA:  16    -0.313625176664E+03   -0.16032E+01   -0.21491E+01  8112   0.381E+02-0.772E+01
CGA:  17    -0.314038207733E+03   -0.41303E+00   -0.99927E+00  8112   0.381E+02-0.263E+02
CGA:  18    -0.314561173137E+03   -0.52297E+00   -0.19252E+01  8112   0.324E+02-0.147E+02
CGA:  19    -0.315814021973E+03   -0.12528E+01   -0.12806E+01  8112   0.907E+01-0.139E+01
CGA:  20    -0.316344113276E+03   -0.53009E+00   -0.49170E+00  8112   0.543E+01 0.388E+00
CGA:  21    -0.316544626403E+03   -0.20051E+00   -0.27851E+00  8112   0.652E+01-0.912E+00
CGA:  22    -0.316802715867E+03   -0.25809E+00   -0.31565E+00  8112   0.363E+01-0.594E+00
CGA:  23    -0.316958262430E+03   -0.15555E+00   -0.14487E+00  8112   0.215E+01 0.315E-01
CGA:  24    -0.317090255662E+03   -0.13199E+00   -0.11946E+00  8112   0.798E+00 0.154E+00
CGA:  25    -0.317138460563E+03   -0.48205E-01   -0.58331E-01  8112   0.804E+00-0.181E-01
CGA:  26    -0.317193467809E+03   -0.55007E-01   -0.56462E-01  8112   0.478E+00 0.142E-01
CGA:  27    -0.317227802278E+03   -0.34334E-01   -0.33512E-01  8112   0.257E+00 0.799E-02
CGA:  28    -0.317244263394E+03   -0.16461E-01   -0.17232E-01  8112   0.154E+00-0.525E-03
CGA:  29    -0.317259590717E+03   -0.15327E-01   -0.15403E-01  8112   0.112E+00 0.819E-02
CGA:  30    -0.317275572194E+03   -0.15981E-01   -0.15782E-01  8112   0.747E-01 0.428E-02
CGA:  31    -0.317282892068E+03   -0.73199E-02   -0.73236E-02  8112   0.442E-01 0.284E-03
CGA:  32    -0.317288631403E+03   -0.57393E-02   -0.56749E-02  8112   0.206E-01 0.191E-02
CGA:  33    -0.317291609236E+03   -0.29778E-02   -0.29492E-02  8112   0.119E-01 0.682E-03
CGA:  34    -0.317293237580E+03   -0.16283E-02   -0.16224E-02  8112   0.812E-02 0.197E-03
CGA:  35    -0.317294368932E+03   -0.11314E-02   -0.11230E-02  8112   0.558E-02 0.235E-03
CGA:  36    -0.317295278267E+03   -0.90934E-03   -0.91076E-03  8112   0.298E-02-0.214E-04
CGA:  37    -0.317295907192E+03   -0.62892E-03   -0.63988E-03  8112   0.264E-02-0.111E-03
CGA:  38    -0.317296207244E+03   -0.30005E-03   -0.30005E-03  8112   0.134E-02-0.958E-05
CGA:  39    -0.317296382175E+03   -0.17493E-03   -0.17564E-03  8112   0.707E-03-0.399E-04
CGA:  40    -0.317296494756E+03   -0.11258E-03   -0.11437E-03  8112   0.446E-03-0.348E-04
CGA:  41    -0.317296560508E+03   -0.65752E-04   -0.66506E-04  8112   0.224E-03-0.204E-04
CGA:  42    -0.317296586390E+03   -0.25882E-04   -0.25863E-04  8112   0.166E-03-0.902E-05
CGA:  43    -0.317296615270E+03   -0.28879E-04   -0.29544E-04  8112   0.140E-03-0.103E-04
CGA:  44    -0.317296633044E+03   -0.17774E-04   -0.17794E-04  8112   0.649E-04-0.230E-05
CGA:  45    -0.317296643364E+03   -0.10321E-04   -0.10308E-04  8112   0.618E-04 0.678E-06
CGA:  46    -0.317296651442E+03   -0.80775E-05   -0.80750E-05  8112   0.447E-04 0.265E-05
   1 F= -.31729665E+03 E0= -.31729206E+03  d E =-.317297E+03  mag=    44.0000
       N       E                     dE             d eps       ncg     rms          ort
SDA:   1    -0.317312633476E+03   -0.15990E-01    0.00000E+00  8112   0.600E-02 0.000E+00
CGA:   2    -0.317313055071E+03   -0.42160E-03   -0.42172E-03  8112   0.161E-02 0.340E-05
CGA:   3    -0.317313393152E+03   -0.33808E-03   -0.33797E-03  8112   0.824E-03 0.139E-05
CGA:   4    -0.317313475802E+03   -0.82650E-04   -0.82569E-04  8112   0.367E-03-0.317E-05
CGA:   5    -0.317313519080E+03   -0.43279E-04   -0.43240E-04  8112   0.135E-03-0.352E-05
CGA:   6    -0.317313535715E+03   -0.16635E-04   -0.16633E-04  8112   0.256E-04-0.369E-06
CGA:   7    -0.317313540032E+03   -0.43167E-05   -0.42769E-05  8112   0.139E-04 0.102E-05
   2 F= -.31731354E+03 E0= -.31730895E+03  d E =-.168886E-01  mag=    44.0000
       N       E                     dE             d eps       ncg     rms          ort
SDA:   1    -0.317256314650E+03    0.57221E-01    0.00000E+00  8112   0.123E+01 0.000E+00
CGA:   2    -0.317596696145E+03   -0.34038E+00   -0.34075E+00  8112   0.465E+00-0.268E-02
CGA:   3    -0.317667184166E+03   -0.70488E-01   -0.70629E-01  8112   0.393E+00-0.530E-02
CGA:   4    -0.317701108175E+03   -0.33924E-01   -0.34162E-01  8112   0.716E-01-0.442E-03
CGA:   5    -0.317710240521E+03   -0.91323E-02   -0.91307E-02  8112   0.326E-01-0.123E-03
CGA:   6    -0.317714010396E+03   -0.37699E-02   -0.37679E-02  8112   0.111E-01-0.496E-04
CGA:   7    -0.317715549918E+03   -0.15395E-02   -0.15395E-02  8112   0.424E-02-0.580E-06
CGA:   8    -0.317716194578E+03   -0.64466E-03   -0.64451E-03  8112   0.250E-02 0.661E-05
CGA:   9    -0.317716505352E+03   -0.31077E-03   -0.31078E-03  8112   0.147E-02 0.297E-05
CGA:  10    -0.317716691145E+03   -0.18579E-03   -0.18583E-03  8112   0.723E-03 0.440E-05
CGA:  11    -0.317716798729E+03   -0.10758E-03   -0.10756E-03  8112   0.403E-03 0.154E-05
CGA:  12    -0.317716859796E+03   -0.61067E-04   -0.61043E-04  8112   0.209E-03 0.148E-05
CGA:  13    -0.317716887233E+03   -0.27437E-04   -0.27442E-04  8112   0.105E-03 0.108E-05
CGA:  14    -0.317716902893E+03   -0.15659E-04   -0.15637E-04  8112   0.517E-04 0.170E-05
CGA:  15    -0.317716908675E+03   -0.57818E-05   -0.58067E-05  8112   0.282E-04 0.101E-05
   3 F= -.31771691E+03 E0= -.31771220E+03  d E =-.403369E+00  mag=    44.0000
       N       E                     dE             d eps       ncg     rms          ort
SDA:   1    -0.315713654382E+03    0.20032E+01    0.00000E+00  8112   0.746E+01 0.000E+00
CGA:   2    -0.317754880295E+03   -0.20412E+01   -0.20426E+01  8112   0.259E+01-0.885E-02
CGA:   3    -0.318225407573E+03   -0.47053E+00   -0.47087E+00  8112   0.170E+01-0.569E-02
CGA:   4    -0.318370193405E+03   -0.14479E+00   -0.14518E+00  8112   0.447E+00-0.587E-02
CGA:   5    -0.318420840706E+03   -0.50647E-01   -0.50377E-01  8112   0.208E+00-0.279E-02
CGA:   6    -0.318442236019E+03   -0.21395E-01   -0.21397E-01  8112   0.730E-01-0.575E-04
CGA:   7    -0.318452446952E+03   -0.10211E-01   -0.10211E-01  8112   0.253E-01 0.400E-04
CGA:   8    -0.318456406208E+03   -0.39593E-02   -0.39588E-02  8112   0.168E-01 0.176E-04
CGA:   9    -0.318458206860E+03   -0.18007E-02   -0.17990E-02  8112   0.896E-02-0.327E-05
CGA:  10    -0.318459434606E+03   -0.12277E-02   -0.12277E-02  8112   0.444E-02 0.236E-04
CGA:  11    -0.318460026022E+03   -0.59142E-03   -0.59145E-03  8112   0.266E-02 0.611E-05
CGA:  12    -0.318460415029E+03   -0.38901E-03   -0.38898E-03  8112   0.120E-02 0.348E-05
CGA:  13    -0.318460579327E+03   -0.16430E-03   -0.16430E-03  8112   0.760E-03 0.305E-05
CGA:  14    -0.318460666028E+03   -0.86702E-04   -0.86798E-04  8112   0.375E-03 0.341E-05
CGA:  15    -0.318460711557E+03   -0.45529E-04   -0.45572E-04  8112   0.158E-03 0.293E-05
CGA:  16    -0.318460737398E+03   -0.25840E-04   -0.25765E-04  8112   0.804E-04 0.285E-05
CGA:  17    -0.318460747802E+03   -0.10405E-04   -0.10419E-04  8112   0.475E-04 0.151E-05
CGA:  18    -0.318460754112E+03   -0.63095E-05   -0.63142E-05  8112   0.291E-04 0.816E-06
   4 F= -.31846075E+03 E0= -.31845575E+03  d E =-.743845E+00  mag=    44.0000
       N       E                     dE             d eps       ncg     rms          ort
SDA:   1    -0.315794762838E+03    0.26660E+01    0.00000E+00  8112   0.868E+01 0.000E+00
CGA:   2    -0.318083118860E+03   -0.22884E+01   -0.22878E+01  8112   0.317E+01 0.556E-02
CGA:   3    -0.318668171428E+03   -0.58505E+00   -0.58524E+00  8112   0.168E+01-0.486E-02
CGA:   4    -0.318842813160E+03   -0.17464E+00   -0.17498E+00  8112   0.460E+00-0.588E-03
CGA:   5    -0.318902990882E+03   -0.60178E-01   -0.60173E-01  8112   0.163E+00-0.396E-03
CGA:   6    -0.318921193674E+03   -0.18203E-01   -0.18235E-01  8112   0.101E+00 0.164E-03
CGA:   7    -0.318930497291E+03   -0.93036E-02   -0.92972E-02  8112   0.294E-01-0.346E-04
CGA:   8    -0.318935296699E+03   -0.47994E-02   -0.48018E-02  8112   0.148E-01-0.591E-04
CGA:   9    -0.318937510723E+03   -0.22140E-02   -0.22134E-02  8112   0.776E-02 0.377E-04
CGA:  10    -0.318938544679E+03   -0.10340E-02   -0.10341E-02  8112   0.532E-02 0.145E-04
CGA:  11    -0.318939131008E+03   -0.58633E-03   -0.58636E-03  8112   0.277E-02 0.340E-05
CGA:  12    -0.318939484941E+03   -0.35393E-03   -0.35396E-03  8112   0.142E-02 0.290E-05
CGA:  13    -0.318939694945E+03   -0.21000E-03   -0.20997E-03  8112   0.644E-03 0.282E-05
CGA:  14    -0.318939786017E+03   -0.91072E-04   -0.91063E-04  8112   0.361E-03 0.260E-05
CGA:  15    -0.318939827009E+03   -0.40992E-04   -0.41043E-04  8112   0.210E-03 0.209E-05
CGA:  16    -0.318939851159E+03   -0.24150E-04   -0.24201E-04  8112   0.863E-04 0.231E-05
CGA:  17    -0.318939862417E+03   -0.11259E-04   -0.11269E-04  8112   0.497E-04 0.160E-05
CGA:  18    -0.318939869983E+03   -0.75660E-05   -0.75542E-05  8112   0.209E-04 0.847E-06
   5 F= -.31893987E+03 E0= -.31893462E+03  d E =-.479116E+00  mag=    44.0000
       N       E                     dE             d eps       ncg     rms          ort
SDA:   1    -0.315446337558E+03    0.34935E+01    0.00000E+00  8112   0.106E+02 0.000E+00
CGA:   2    -0.318073055344E+03   -0.26267E+01   -0.26252E+01  8112   0.423E+01 0.130E-01
CGA:   3    -0.318861385568E+03   -0.78833E+00   -0.78750E+00  8112   0.188E+01 0.122E-01
CGA:   4    -0.319075625564E+03   -0.21424E+00   -0.21362E+00  8112   0.911E+00-0.689E-02
CGA:   5    -0.319149415596E+03   -0.73790E-01   -0.73860E-01  8112   0.274E+00-0.287E-02
CGA:   6    -0.319183956093E+03   -0.34540E-01   -0.34542E-01  8112   0.111E+00 0.280E-05
CGA:   7    -0.319197089526E+03   -0.13133E-01   -0.13150E-01  8112   0.415E-01 0.246E-03
CGA:   8    -0.319202864649E+03   -0.57751E-02   -0.57753E-02  8112   0.215E-01-0.165E-03
CGA:   9    -0.319205344849E+03   -0.24802E-02   -0.24818E-02  8112   0.130E-01 0.282E-04
CGA:  10    -0.319206734507E+03   -0.13897E-02   -0.13900E-02  8112   0.632E-02 0.870E-05
CGA:  11    -0.319207714271E+03   -0.97976E-03   -0.97965E-03  8112   0.281E-02 0.653E-05
CGA:  12    -0.319208144109E+03   -0.42984E-03   -0.42975E-03  8112   0.218E-02 0.411E-05
CGA:  13    -0.319208392601E+03   -0.24849E-03   -0.24858E-03  8112   0.101E-02 0.253E-05
CGA:  14    -0.319208512209E+03   -0.11961E-03   -0.11962E-03  8112   0.627E-03 0.118E-05
CGA:  15    -0.319208591541E+03   -0.79332E-04   -0.79345E-04  8112   0.253E-03 0.144E-05
CGA:  16    -0.319208629005E+03   -0.37464E-04   -0.37436E-04  8112   0.118E-03 0.220E-05
CGA:  17    -0.319208643997E+03   -0.14992E-04   -0.15003E-04  8112   0.877E-04 0.116E-05
CGA:  18    -0.319208653128E+03   -0.91306E-05   -0.91555E-05  8112   0.303E-04 0.791E-06
   6 F= -.31920865E+03 E0= -.31920328E+03  d E =-.268783E+00  mag=    44.0000
       N       E                     dE             d eps       ncg     rms          ort
SDA:   1    -0.312468152651E+03    0.67405E+01    0.00000E+00  8112   0.190E+02 0.000E+00
CGA:   2    -0.317118912131E+03   -0.46508E+01   -0.46319E+01  8112   0.104E+02 0.151E+00
CGA:   3    -0.318389364434E+03   -0.12705E+01   -0.12502E+01  8112   0.665E+01-0.319E+00
CGA:   4    -0.319021477229E+03   -0.63211E+00   -0.62850E+00  8112   0.203E+01-0.233E-01
CGA:   5    -0.319245000870E+03   -0.22352E+00   -0.22259E+00  8112   0.671E+00-0.775E-02
CGA:   6    -0.319318156888E+03   -0.73156E-01   -0.73118E-01  8112   0.250E+00-0.646E-04
CGA:   7    -0.319349698376E+03   -0.31541E-01   -0.31536E-01  8112   0.104E+00-0.244E-03
CGA:   8    -0.319360369635E+03   -0.10671E-01   -0.10707E-01  8112   0.546E-01 0.215E-03
CGA:   9    -0.319366285271E+03   -0.59156E-02   -0.59181E-02  8112   0.230E-01 0.275E-04
CGA:  10    -0.319369522031E+03   -0.32368E-02   -0.32355E-02  8112   0.107E-01 0.798E-04
CGA:  11    -0.319371160449E+03   -0.16384E-02   -0.16382E-02  8112   0.725E-02 0.134E-04
CGA:  12    -0.319371910100E+03   -0.74965E-03   -0.75120E-03  8112   0.412E-02 0.176E-04
CGA:  13    -0.319372502078E+03   -0.59198E-03   -0.59179E-03  8112   0.205E-02 0.115E-04
CGA:  14    -0.319372785681E+03   -0.28360E-03   -0.28356E-03  8112   0.118E-02 0.438E-05
CGA:  15    -0.319372939650E+03   -0.15397E-03   -0.15397E-03  8112   0.628E-03 0.107E-05
CGA:  16    -0.319373011219E+03   -0.71569E-04   -0.71611E-04  8112   0.341E-03 0.161E-05
CGA:  17    -0.319373050648E+03   -0.39429E-04   -0.39456E-04  8112   0.140E-03 0.148E-05
CGA:  18    -0.319373071379E+03   -0.20731E-04   -0.20718E-04  8112   0.667E-04 0.769E-06
CGA:  19    -0.319373080025E+03   -0.86461E-05   -0.86469E-05  8112   0.441E-04 0.291E-06
   7 F= -.31937308E+03 E0= -.31936773E+03  d E =-.164427E+00  mag=    44.0000
       N       E                     dE             d eps       ncg     rms          ort
SDA:   1    -0.310004216606E+03    0.93689E+01    0.00000E+00  8112   0.249E+02 0.000E+00
CGA:   2    -0.316417786416E+03   -0.64136E+01   -0.64432E+01  8112   0.171E+02-0.250E+00
CGA:   3    -0.318240030237E+03   -0.18222E+01   -0.18141E+01  8112   0.656E+01 0.379E+00
CGA:   4    -0.319099689604E+03   -0.85966E+00   -0.85956E+00  8112   0.206E+01-0.406E-02
CGA:   5    -0.319326016197E+03   -0.22633E+00   -0.22530E+00  8112   0.899E+00-0.119E-01
CGA:   6    -0.319405347088E+03   -0.79331E-01   -0.80176E-01  8112   0.340E+00-0.722E-03
CGA:   7    -0.319444949014E+03   -0.39602E-01   -0.39582E-01  8112   0.122E+00-0.440E-03
CGA:   8    -0.319460984559E+03   -0.16036E-01   -0.16035E-01  8112   0.507E-01 0.263E-03
CGA:   9    -0.319467328224E+03   -0.63437E-02   -0.63452E-02  8112   0.270E-01 0.120E-03
CGA:  10    -0.319470319472E+03   -0.29912E-02   -0.29957E-02  8112   0.144E-01 0.817E-04
CGA:  11    -0.319472154874E+03   -0.18354E-02   -0.18354E-02  8112   0.756E-02 0.142E-04
CGA:  12    -0.319473182386E+03   -0.10275E-02   -0.10270E-02  8112   0.407E-02 0.526E-04
CGA:  13    -0.319473822880E+03   -0.64049E-03   -0.63971E-03  8112   0.240E-02 0.228E-04
CGA:  14    -0.319474094303E+03   -0.27142E-03   -0.27163E-03  8112   0.152E-02 0.552E-05
CGA:  15    -0.319474288074E+03   -0.19377E-03   -0.19378E-03  8112   0.596E-03 0.211E-05
CGA:  16    -0.319474376363E+03   -0.88289E-04   -0.88231E-04  8112   0.318E-03 0.296E-05
CGA:  17    -0.319474413912E+03   -0.37550E-04   -0.37571E-04  8112   0.158E-03 0.150E-05
CGA:  18    -0.319474432418E+03   -0.18506E-04   -0.18517E-04  8112   0.760E-04 0.726E-06
CGA:  19    -0.319474441870E+03   -0.94521E-05   -0.94536E-05  8112   0.393E-04 0.242E-06
   8 F= -.31947444E+03 E0= -.31946915E+03  d E =-.101362E+00  mag=    44.0000
       N       E                     dE             d eps       ncg     rms          ort
SDA:   1    -0.302905889724E+03    0.16569E+02    0.00000E+00  8112   0.433E+02 0.000E+00
CGA:   2    -0.314153541444E+03   -0.11248E+02   -0.11231E+02  8112   0.335E+02 0.438E-01
CGA:   3    -0.317338455153E+03   -0.31849E+01   -0.31422E+01  8112   0.110E+02 0.226E+00
CGA:   4    -0.318872267605E+03   -0.15338E+01   -0.15345E+01  8112   0.408E+01-0.889E-01
CGA:   5    -0.319241341463E+03   -0.36907E+00   -0.36463E+00  8112   0.154E+01 0.287E-02
CGA:   6    -0.319400987176E+03   -0.15965E+00   -0.15998E+00  8112   0.577E+00 0.287E-03
CGA:   7    -0.319467824992E+03   -0.66838E-01   -0.66867E-01  8112   0.229E+00 0.567E-03
CGA:   8    -0.319494432024E+03   -0.26607E-01   -0.26636E-01  8112   0.112E+00 0.770E-03
CGA:   9    -0.319505986997E+03   -0.11555E-01   -0.11577E-01  8112   0.503E-01 0.222E-03
CGA:  10    -0.319512378277E+03   -0.63913E-02   -0.63920E-02  8112   0.239E-01 0.258E-03
CGA:  11    -0.319515759195E+03   -0.33809E-02   -0.33794E-02  8112   0.152E-01 0.816E-04
CGA:  12    -0.319517486858E+03   -0.17277E-02   -0.17309E-02  8112   0.792E-02 0.895E-04
CGA:  13    -0.319518721041E+03   -0.12342E-02   -0.12325E-02  8112   0.518E-02 0.486E-04
CGA:  14    -0.319519314590E+03   -0.59355E-03   -0.59407E-03  8112   0.237E-02 0.176E-04
CGA:  15    -0.319519671748E+03   -0.35716E-03   -0.35693E-03  8112   0.139E-02 0.940E-05
CGA:  16    -0.319519825602E+03   -0.15385E-03   -0.15405E-03  8112   0.626E-03 0.638E-05
CGA:  17    -0.319519905511E+03   -0.79909E-04   -0.79917E-04  8112   0.277E-03 0.478E-05
CGA:  18    -0.319519942457E+03   -0.36947E-04   -0.36935E-04  8112   0.144E-03 0.277E-05
CGA:  19    -0.319519959300E+03   -0.16843E-04   -0.16856E-04  8112   0.671E-04 0.933E-06
CGA:  20    -0.319519969237E+03   -0.99369E-05   -0.99319E-05  8112   0.436E-04 0.231E-06
   9 F= -.31951997E+03 E0= -.31951484E+03  d E =-.455274E-01  mag=    44.0000
       N       E                     dE             d eps       ncg     rms          ort
SDA:   1    -0.316056600170E+03    0.34634E+01    0.00000E+00  8112   0.919E+01 0.000E+00
CGA:   2    -0.318377057863E+03   -0.23205E+01   -0.23221E+01  8112   0.692E+01-0.290E-03
CGA:   3    -0.319019084930E+03   -0.64203E+00   -0.65866E+00  8112   0.356E+01-0.479E-01
CGA:   4    -0.319406456187E+03   -0.38737E+00   -0.38423E+00  8112   0.900E+00-0.333E-01
CGA:   5    -0.319515035801E+03   -0.10858E+00   -0.10857E+00  8112   0.308E+00-0.418E-03
CGA:   6    -0.319549388719E+03   -0.34353E-01   -0.34319E-01  8112   0.120E+00-0.552E-03
CGA:   7    -0.319562745315E+03   -0.13357E-01   -0.13386E-01  8112   0.552E-01 0.520E-03
CGA:   8    -0.319568415707E+03   -0.56704E-02   -0.56653E-02  8112   0.223E-01-0.396E-04
CGA:   9    -0.319571252619E+03   -0.28369E-02   -0.28370E-02  8112   0.868E-02 0.654E-04
CGA:  10    -0.319572515402E+03   -0.12628E-02   -0.12625E-02  8112   0.484E-02 0.128E-04
CGA:  11    -0.319573050767E+03   -0.53537E-03   -0.53585E-03  8112   0.277E-02 0.102E-04
CGA:  12    -0.319573417401E+03   -0.36663E-03   -0.36663E-03  8112   0.145E-02 0.174E-05
CGA:  13    -0.319573623519E+03   -0.20612E-03   -0.20605E-03  8112   0.769E-03 0.412E-05
CGA:  14    -0.319573738831E+03   -0.11531E-03   -0.11524E-03  8112   0.500E-03 0.353E-05
CGA:  15    -0.319573792937E+03   -0.54106E-04   -0.54163E-04  8112   0.243E-03 0.188E-05
CGA:  16    -0.319573825744E+03   -0.32807E-04   -0.32801E-04  8112   0.114E-03 0.987E-06
CGA:  17    -0.319573841124E+03   -0.15381E-04   -0.15376E-04  8112   0.525E-04 0.894E-06
CGA:  18    -0.319573847525E+03   -0.64005E-05   -0.64050E-05  8112   0.274E-04 0.512E-06
  10 F= -.31957385E+03 E0= -.31956871E+03  d E =-.538783E-01  mag=    44.0000
       N       E                     dE             d eps       ncg     rms          ort
SDA:   1    -0.300901731503E+03    0.18672E+02    0.00000E+00  8112   0.490E+02 0.000E+00
CGA:   2    -0.314026620965E+03   -0.13125E+02   -0.13122E+02  8112   0.288E+02 0.324E-01
CGA:   3    -0.317426380204E+03   -0.33998E+01   -0.33954E+01  8112   0.127E+02 0.804E-01
CGA:   4    -0.318987509680E+03   -0.15611E+01   -0.15600E+01  8112   0.316E+01-0.212E-01
CGA:   5    -0.319388324749E+03   -0.40082E+00   -0.40027E+00  8112   0.148E+01-0.350E-01
CGA:   6    -0.319518430674E+03   -0.13011E+00   -0.13106E+00  8112   0.597E+00-0.100E-02
CGA:   7    -0.319578356539E+03   -0.59926E-01   -0.59963E-01  8112   0.243E+00-0.945E-04
CGA:   8    -0.319608837938E+03   -0.30481E-01   -0.30489E-01  8112   0.797E-01 0.818E-03
CGA:   9    -0.319620909371E+03   -0.12071E-01   -0.12055E-01  8112   0.464E-01 0.490E-03
CGA:  10    -0.319626036197E+03   -0.51268E-02   -0.51357E-02  8112   0.246E-01 0.155E-03
CGA:  11    -0.319628784866E+03   -0.27487E-02   -0.27513E-02  8112   0.146E-01 0.674E-04
CGA:  12    -0.319630849483E+03   -0.20646E-02   -0.20631E-02  8112   0.640E-02 0.820E-04
CGA:  13    -0.319631826530E+03   -0.97705E-03   -0.97603E-03  8112   0.452E-02 0.339E-04
CGA:  14    -0.319632386598E+03   -0.56007E-03   -0.56018E-03  8112   0.270E-02 0.116E-04
CGA:  15    -0.319632657493E+03   -0.27090E-03   -0.27122E-03  8112   0.105E-02 0.780E-05
CGA:  16    -0.319632830059E+03   -0.17257E-03   -0.17219E-03  8112   0.516E-03 0.104E-04
CGA:  17    -0.319632888656E+03   -0.58596E-04   -0.58671E-04  8112   0.242E-03 0.387E-05
CGA:  18    -0.319632916517E+03   -0.27861E-04   -0.27889E-04  8112   0.139E-03 0.178E-05
CGA:  19    -0.319632933603E+03   -0.17087E-04   -0.17094E-04  8112   0.569E-04 0.112E-05
CGA:  20    -0.319632941682E+03   -0.80786E-05   -0.80754E-05  8112   0.326E-04 0.235E-06
  11 F= -.31963294E+03 E0= -.31962765E+03  d E =-.590942E-01  mag=    44.0000
       N       E                     dE             d eps       ncg     rms          ort
SDA:   1    -0.316272079985E+03    0.33609E+01    0.00000E+00  8112   0.900E+01 0.000E+00
CGA:   2    -0.318503651860E+03   -0.22316E+01   -0.22347E+01  8112   0.666E+01-0.802E-02
CGA:   3    -0.319160961310E+03   -0.65731E+00   -0.66572E+00  8112   0.337E+01-0.356E-01
CGA:   4    -0.319495209215E+03   -0.33425E+00   -0.33029E+00  8112   0.112E+01-0.194E-01
CGA:   5    -0.319611872327E+03   -0.11666E+00   -0.11658E+00  8112   0.331E+00-0.353E-03
CGA:   6    -0.319651847019E+03   -0.39975E-01   -0.39970E-01  8112   0.120E+00-0.193E-03
CGA:   7    -0.319666235714E+03   -0.14389E-01   -0.14397E-01  8112   0.575E-01 0.314E-03
CGA:   8    -0.319671583229E+03   -0.53475E-02   -0.53475E-02  8112   0.264E-01-0.156E-05
CGA:   9    -0.319674754238E+03   -0.31710E-02   -0.31718E-02  8112   0.923E-02 0.495E-04
CGA:  10    -0.319676084631E+03   -0.13304E-02   -0.13302E-02  8112   0.507E-02 0.826E-05
CGA:  11    -0.319676741026E+03   -0.65639E-03   -0.65638E-03  8112   0.321E-02 0.121E-04
CGA:  12    -0.319677058373E+03   -0.31735E-03   -0.31745E-03  8112   0.162E-02 0.270E-05
CGA:  13    -0.319677327940E+03   -0.26957E-03   -0.26940E-03  8112   0.742E-03 0.385E-05
CGA:  14    -0.319677437803E+03   -0.10986E-03   -0.10980E-03  8112   0.556E-03 0.295E-05
CGA:  15    -0.319677496541E+03   -0.58739E-04   -0.58785E-04  8112   0.276E-03 0.134E-05
CGA:  16    -0.319677530784E+03   -0.34242E-04   -0.34245E-04  8112   0.122E-03 0.416E-06
CGA:  17    -0.319677546838E+03   -0.16055E-04   -0.16053E-04  8112   0.601E-04 0.468E-06
CGA:  18    -0.319677554587E+03   -0.77489E-05   -0.77489E-05  8112   0.295E-04 0.374E-06
  12 F= -.31967755E+03 E0= -.31967229E+03  d E =-.446129E-01  mag=    44.0000
       N       E                     dE             d eps       ncg     rms          ort
SDA:   1    -0.318528563975E+03    0.11490E+01    0.00000E+00  8112   0.301E+01 0.000E+00
CGA:   2    -0.319291385751E+03   -0.76282E+00   -0.76421E+00  8112   0.239E+01-0.907E-02
CGA:   3    -0.319539048392E+03   -0.24766E+00   -0.24668E+00  8112   0.811E+00-0.524E-02
CGA:   4    -0.319638913782E+03   -0.99865E-01   -0.99941E-01  8112   0.353E+00 0.372E-02
CGA:   5    -0.319666837973E+03   -0.27924E-01   -0.27675E-01  8112   0.115E+00 0.360E-03
CGA:   6    -0.319680253172E+03   -0.13415E-01   -0.13417E-01  8112   0.345E-01 0.714E-04
CGA:   7    -0.319685366698E+03   -0.51135E-02   -0.51133E-02  8112   0.112E-01 0.108E-04
CGA:   8    -0.319686910034E+03   -0.15433E-02   -0.15432E-02  8112   0.670E-02 0.999E-05
CGA:   9    -0.319687527212E+03   -0.61718E-03   -0.61680E-03  8112   0.269E-02-0.180E-05
CGA:  10    -0.319687839257E+03   -0.31205E-03   -0.31210E-03  8112   0.149E-02 0.238E-05
CGA:  11    -0.319688051585E+03   -0.21233E-03   -0.21228E-03  8112   0.535E-03 0.269E-05
CGA:  12    -0.319688150798E+03   -0.99213E-04   -0.99173E-04  8112   0.441E-03 0.612E-06
CGA:  13    -0.319688195957E+03   -0.45159E-04   -0.45171E-04  8112   0.255E-03 0.491E-06
CGA:  14    -0.319688227148E+03   -0.31191E-04   -0.31198E-04  8112   0.120E-03 0.910E-06
CGA:  15    -0.319688245421E+03   -0.18273E-04   -0.18254E-04  8112   0.615E-04 0.842E-06
CGA:  16    -0.319688253324E+03   -0.79025E-05   -0.79044E-05  8112   0.256E-04 0.748E-06
  13 F= -.31968825E+03 E0= -.31968299E+03  d E =-.106987E-01  mag=    44.0000
       N       E                     dE             d eps       ncg     rms          ort
SDA:   1    -0.313485235328E+03    0.62030E+01    0.00000E+00  8112   0.157E+02 0.000E+00
CGA:   2    -0.317778951751E+03   -0.42937E+01   -0.43118E+01  8112   0.116E+02-0.110E+00
CGA:   3    -0.318982368658E+03   -0.12034E+01   -0.12044E+01  8112   0.414E+01 0.485E-01
CGA:   4    -0.319453091077E+03   -0.47072E+00   -0.46759E+00  8112   0.184E+01-0.376E-01
CGA:   5    -0.319601613949E+03   -0.14852E+00   -0.15078E+00  8112   0.589E+00-0.871E-02
CGA:   6    -0.319666669078E+03   -0.65055E-01   -0.64770E-01  8112   0.194E+00-0.435E-02
CGA:   7    -0.319694380917E+03   -0.27712E-01   -0.27685E-01  8112   0.577E-01 0.122E-02
CGA:   8    -0.319702154661E+03   -0.77737E-02   -0.77748E-02  8112   0.389E-01-0.203E-03
CGA:   9    -0.319705650088E+03   -0.34954E-02   -0.35071E-02  8112   0.139E-01 0.117E-04
CGA:  10    -0.319707290977E+03   -0.16409E-02   -0.16417E-02  8112   0.776E-02 0.324E-04
CGA:  11    -0.319708436316E+03   -0.11453E-02   -0.11440E-02  8112   0.292E-02 0.508E-04
CGA:  12    -0.319708905132E+03   -0.46882E-03   -0.46849E-03  8112   0.260E-02 0.943E-05
CGA:  13    -0.319709169436E+03   -0.26430E-03   -0.26472E-03  8112   0.134E-02 0.590E-05
CGA:  14    -0.319709344269E+03   -0.17483E-03   -0.17483E-03  8112   0.584E-03 0.521E-05
CGA:  15    -0.319709439004E+03   -0.94734E-04   -0.94580E-04  8112   0.351E-03 0.448E-05
CGA:  16    -0.319709477861E+03   -0.38857E-04   -0.38916E-04  8112   0.158E-03 0.286E-05
CGA:  17    -0.319709494410E+03   -0.16549E-04   -0.16604E-04  8112   0.872E-04 0.202E-05
CGA:  18    -0.319709505696E+03   -0.11286E-04   -0.11287E-04  8112   0.256E-04 0.160E-05
CGA:  19    -0.319709509644E+03   -0.39489E-05   -0.39389E-05  8112   0.167E-04 0.440E-06
  14 F= -.31970951E+03 E0= -.31970427E+03  d E =-.212563E-01  mag=    44.0000
       N       E                     dE             d eps       ncg     rms          ort
SDA:   1    -0.301248560017E+03    0.18461E+02    0.00000E+00  8112   0.464E+02 0.000E+00
CGA:   2    -0.314096841610E+03   -0.12848E+02   -0.12969E+02  8112   0.349E+02-0.763E+00
CGA:   3    -0.317629998509E+03   -0.35332E+01   -0.35567E+01  8112   0.120E+02 0.561E+00
CGA:   4    -0.318977436315E+03   -0.13474E+01   -0.13717E+01  8112   0.442E+01 0.358E+00
CGA:   5    -0.319411166034E+03   -0.43373E+00   -0.40767E+00  8112   0.178E+01-0.371E-01
CGA:   6    -0.319595382752E+03   -0.18422E+00   -0.18462E+00  8112   0.567E+00 0.439E-02
CGA:   7    -0.319677922004E+03   -0.82539E-01   -0.82414E-01  8112   0.179E+00 0.523E-02
CGA:   8    -0.319702453418E+03   -0.24531E-01   -0.24537E-01  8112   0.108E+00-0.551E-03
CGA:   9    -0.319712948593E+03   -0.10495E-01   -0.10543E-01  8112   0.484E-01 0.239E-03
CGA:  10    -0.319717952191E+03   -0.50036E-02   -0.50091E-02  8112   0.241E-01 0.642E-04
CGA:  11    -0.319721696862E+03   -0.37447E-02   -0.37355E-02  8112   0.957E-02 0.242E-03
CGA:  12    -0.319723390898E+03   -0.16940E-02   -0.16926E-02  8112   0.579E-02 0.288E-04
CGA:  13    -0.319724335616E+03   -0.94472E-03   -0.94267E-03  8112   0.340E-02 0.509E-04
CGA:  14    -0.319724694742E+03   -0.35913E-03   -0.35939E-03  8112   0.206E-02 0.827E-05
CGA:  15    -0.319724949512E+03   -0.25477E-03   -0.25491E-03  8112   0.101E-02 0.121E-04
CGA:  16    -0.319725072812E+03   -0.12330E-03   -0.12338E-03  8112   0.313E-03 0.814E-05
CGA:  17    -0.319725127039E+03   -0.54227E-04   -0.53976E-04  8112   0.143E-03 0.612E-05
CGA:  18    -0.319725146386E+03   -0.19346E-04   -0.19347E-04  8112   0.711E-04 0.229E-05
CGA:  19    -0.319725153276E+03   -0.68899E-05   -0.69170E-05  8112   0.386E-04 0.640E-06
  15 F= -.31972515E+03 E0= -.31972016E+03  d E =-.156436E-01  mag=    44.0000
       N       E                     dE             d eps       ncg     rms          ort
SDA:   1    -0.314175162333E+03    0.55500E+01    0.00000E+00  8112   0.142E+02 0.000E+00
CGA:   2    -0.317863499240E+03   -0.36883E+01   -0.36920E+01  8112   0.105E+02-0.197E-01
CGA:   3    -0.319028783909E+03   -0.11653E+01   -0.11512E+01  8112   0.477E+01-0.146E+00
CGA:   4    -0.319469116881E+03   -0.44033E+00   -0.44952E+00  8112   0.165E+01 0.372E-02
CGA:   5    -0.319634984030E+03   -0.16587E+00   -0.16430E+00  8112   0.484E+00-0.622E-02
CGA:   6    -0.319698837533E+03   -0.63854E-01   -0.63855E-01  8112   0.162E+00 0.109E-02
CGA:   7    -0.319721108584E+03   -0.22271E-01   -0.22269E-01  8112   0.588E-01 0.260E-03
CGA:   8    -0.319728744276E+03   -0.76357E-02   -0.76373E-02  8112   0.300E-01 0.221E-03
CGA:   9    -0.319731918397E+03   -0.31741E-02   -0.31702E-02  8112   0.147E-01-0.318E-04
CGA:  10    -0.319733533438E+03   -0.16150E-02   -0.16171E-02  8112   0.635E-02 0.328E-04
CGA:  11    -0.319734577480E+03   -0.10440E-02   -0.10429E-02  8112   0.275E-02 0.265E-04
CGA:  12    -0.319735045465E+03   -0.46799E-03   -0.46754E-03  8112   0.176E-02 0.108E-04
CGA:  13    -0.319735262291E+03   -0.21683E-03   -0.21688E-03  8112   0.118E-02 0.493E-05
CGA:  14    -0.319735396333E+03   -0.13404E-03   -0.13417E-03  8112   0.511E-03 0.440E-05
CGA:  15    -0.319735475539E+03   -0.79206E-04   -0.79155E-04  8112   0.215E-03 0.200E-05
CGA:  16    -0.319735509162E+03   -0.33623E-04   -0.33601E-04  8112   0.102E-03 0.963E-06
CGA:  17    -0.319735521201E+03   -0.12038E-04   -0.12047E-04  8112   0.568E-04 0.493E-06
CGA:  18    -0.319735527247E+03   -0.60459E-05   -0.60595E-05  8112   0.224E-04 0.453E-06
  16 F= -.31973553E+03 E0= -.31973078E+03  d E =-.103740E-01  mag=    44.0000
       N       E                     dE             d eps       ncg     rms          ort
SDA:   1    -0.316713821337E+03    0.30217E+01    0.00000E+00  8112   0.772E+01 0.000E+00
CGA:   2    -0.318775591871E+03   -0.20618E+01   -0.20554E+01  8112   0.534E+01 0.329E-01
CGA:   3    -0.319421205161E+03   -0.64561E+00   -0.64679E+00  8112   0.186E+01 0.332E-01
CGA:   4    -0.319640398987E+03   -0.21919E+00   -0.21667E+00  8112   0.751E+00-0.340E-01
CGA:   5    -0.319703586329E+03   -0.63187E-01   -0.64205E-01  8112   0.270E+00-0.245E-02
CGA:   6    -0.319734204697E+03   -0.30618E-01   -0.30615E-01  8112   0.839E-01-0.363E-04
CGA:   7    -0.319746202662E+03   -0.11998E-01   -0.11997E-01  8112   0.270E-01 0.813E-04
CGA:   8    -0.319750125585E+03   -0.39229E-02   -0.39233E-02  8112   0.128E-01-0.208E-04
CGA:   9    -0.319751618095E+03   -0.14925E-02   -0.14938E-02  8112   0.633E-02 0.252E-04
CGA:  10    -0.319752269042E+03   -0.65095E-03   -0.65029E-03  8112   0.335E-02-0.125E-05
CGA:  11    -0.319752756685E+03   -0.48764E-03   -0.48757E-03  8112   0.134E-02 0.574E-05
CGA:  12    -0.319752978622E+03   -0.22194E-03   -0.22175E-03  8112   0.811E-03 0.520E-05
CGA:  13    -0.319753099903E+03   -0.12128E-03   -0.12123E-03  8112   0.522E-03 0.274E-05
CGA:  14    -0.319753152431E+03   -0.52528E-04   -0.52544E-04  8112   0.269E-03 0.886E-06
CGA:  15    -0.319753190728E+03   -0.38296E-04   -0.38282E-04  8112   0.111E-03 0.161E-05
CGA:  16    -0.319753206901E+03   -0.16173E-04   -0.16161E-04  8112   0.453E-04 0.110E-05
CGA:  17    -0.319753213405E+03   -0.65041E-05   -0.64997E-05  8112   0.261E-04 0.587E-06
  17 F= -.31975321E+03 E0= -.31974831E+03  d E =-.176862E-01  mag=    44.0000
       N       E                     dE             d eps       ncg     rms          ort
SDA:   1    -0.319123647177E+03    0.62956E+00    0.00000E+00  8112   0.160E+01 0.000E+00
CGA:   2    -0.319547503427E+03   -0.42386E+00   -0.42630E+00  8112   0.133E+01-0.186E-01
CGA:   3    -0.319685327505E+03   -0.13782E+00   -0.13964E+00  8112   0.440E+00 0.109E-01
CGA:   4    -0.319729378357E+03   -0.44051E-01   -0.43899E-01  8112   0.201E+00-0.667E-03
CGA:   5    -0.319748926025E+03   -0.19548E-01   -0.19601E-01  8112   0.486E-01 0.971E-04
CGA:   6    -0.319755162594E+03   -0.62366E-02   -0.62355E-02  8112   0.175E-01-0.717E-04
CGA:   7    -0.319757646141E+03   -0.24835E-02   -0.24831E-02  8112   0.608E-02 0.344E-04
CGA:   8    -0.319758334891E+03   -0.68875E-03   -0.68836E-03  8112   0.369E-02-0.722E-05
CGA:   9    -0.319758722656E+03   -0.38776E-03   -0.38783E-03  8112   0.119E-02-0.747E-06
CGA:  10    -0.319758881455E+03   -0.15880E-03   -0.15880E-03  8112   0.605E-03 0.652E-06
CGA:  11    -0.319758976687E+03   -0.95232E-04   -0.95178E-04  8112   0.282E-03 0.203E-05
CGA:  12    -0.319759014506E+03   -0.37819E-04   -0.37819E-04  8112   0.211E-03 0.134E-06
CGA:  13    -0.319759038659E+03   -0.24153E-04   -0.24154E-04  8112   0.108E-03-0.853E-08
CGA:  14    -0.319759054865E+03   -0.16206E-04   -0.16200E-04  8112   0.400E-04 0.335E-06
CGA:  15    -0.319759061867E+03   -0.70016E-05   -0.69730E-05  8112   0.277E-04 0.704E-06
  18 F= -.31975906E+03 E0= -.31975426E+03  d E =-.584846E-02  mag=    44.0000
       N       E                     dE             d eps       ncg     rms          ort
SDA:   1    -0.294550582880E+03    0.25208E+02    0.00000E+00  8112   0.629E+02 0.000E+00
CGA:   2    -0.312002191095E+03   -0.17452E+02   -0.17640E+02  8112   0.522E+02-0.141E+01
CGA:   3    -0.316954548525E+03   -0.49524E+01   -0.50203E+01  8112   0.141E+02 0.171E+01
CGA:   4    -0.318935692463E+03   -0.19811E+01   -0.19790E+01  8112   0.457E+01-0.429E+00
CGA:   5    -0.319482104309E+03   -0.54641E+00   -0.54700E+00  8112   0.138E+01 0.175E-01
CGA:   6    -0.319628520631E+03   -0.14642E+00   -0.14602E+00  8112   0.868E+00-0.479E-02
CGA:   7    -0.319716554066E+03   -0.88033E-01   -0.88515E-01  8112   0.203E+00 0.225E-02
CGA:   8    -0.319749689451E+03   -0.33135E-01   -0.33101E-01  8112   0.100E+00 0.813E-03
CGA:   9    -0.319762016602E+03   -0.12327E-01   -0.12336E-01  8112   0.421E-01 0.275E-03
CGA:  10    -0.319767410201E+03   -0.53936E-02   -0.53969E-02  8112   0.303E-01 0.221E-03
CGA:  11    -0.319771054934E+03   -0.36447E-02   -0.36494E-02  8112   0.113E-01 0.148E-03
CGA:  12    -0.319772884177E+03   -0.18292E-02   -0.18268E-02  8112   0.776E-02 0.700E-04
CGA:  13    -0.319774052737E+03   -0.11686E-02   -0.11666E-02  8112   0.369E-02 0.906E-04
CGA:  14    -0.319774464403E+03   -0.41167E-03   -0.41211E-03  8112   0.224E-02 0.116E-04
CGA:  15    -0.319774794565E+03   -0.33016E-03   -0.32997E-03  8112   0.808E-03 0.151E-04
CGA:  16    -0.319774902048E+03   -0.10748E-03   -0.10752E-03  8112   0.358E-03 0.965E-05
CGA:  17    -0.319774949070E+03   -0.47022E-04   -0.47056E-04  8112   0.210E-03 0.571E-05
CGA:  18    -0.319774972104E+03   -0.23033E-04   -0.23104E-04  8112   0.629E-04 0.256E-05
CGA:  19    -0.319774981809E+03   -0.97050E-05   -0.96900E-05  8112   0.375E-04 0.791E-06
  19 F= -.31977498E+03 E0= -.31977068E+03  d E =-.159199E-01  mag=    44.0000
       N       E                     dE             d eps       ncg     rms          ort
SDA:   1    -0.222773592737E+03    0.97001E+02    0.00000E+00  8112   0.706E+03 0.000E+00
CGA:   2    -0.282937658146E+03   -0.60164E+02   -0.28511E+02  8112   0.111E+03 0.133E+03
CGA:   3    -0.299416535146E+03   -0.16479E+02   -0.16619E+02  8112   0.816E+02 0.192E+02
CGA:   4    -0.306317811184E+03   -0.69013E+01   -0.42097E+01  8112   0.505E+02 0.576E+02
CGA:   5    -0.311100521723E+03   -0.47827E+01   -0.40210E+01  8112   0.163E+02 0.943E+01
CGA:   6    -0.314602824010E+03   -0.35023E+01   -0.34719E+01  8112   0.302E+02 0.356E+00
CGA:   7    -0.316671923629E+03   -0.20691E+01   -0.20513E+01  8112   0.977E+01 0.228E+01
CGA:   8    -0.317409360271E+03   -0.73744E+00   -0.59493E+00  8112   0.625E+01 0.154E+01
CGA:   9    -0.317805447438E+03   -0.39609E+00   -0.32767E+00  8112   0.254E+01 0.128E+01
CGA:  10    -0.317939636879E+03   -0.13419E+00   -0.15793E+00  8112   0.168E+01-0.257E+00
CGA:  11    -0.318061563012E+03   -0.12193E+00   -0.12328E+00  8112   0.926E+00 0.574E-02
CGA:  12    -0.318114322201E+03   -0.52759E-01   -0.50666E-01  8112   0.452E+00 0.348E-01
CGA:  13    -0.318159115104E+03   -0.44793E-01   -0.44768E-01  8112   0.522E+00-0.897E-03
CGA:  14    -0.318198212428E+03   -0.39097E-01   -0.40328E-01  8112   0.214E+00 0.646E-02
CGA:  15    -0.318211421448E+03   -0.13209E-01   -0.13372E-01  8112   0.995E-01-0.391E-03
CGA:  16    -0.318224494078E+03   -0.13073E-01   -0.13105E-01  8112   0.104E+00-0.868E-03
CGA:  17    -0.318231866635E+03   -0.73726E-02   -0.75037E-02  8112   0.446E-01 0.355E-03
CGA:  18    -0.318235898222E+03   -0.40316E-02   -0.40412E-02  8112   0.216E-01 0.283E-03
CGA:  19    -0.318238229459E+03   -0.23312E-02   -0.23303E-02  8112   0.215E-01 0.156E-03
CGA:  20    -0.318240735774E+03   -0.25063E-02   -0.25051E-02  8112   0.101E-01 0.756E-04
CGA:  21    -0.318241532616E+03   -0.79684E-03   -0.79764E-03  8112   0.498E-02 0.991E-05
CGA:  22    -0.318242111494E+03   -0.57888E-03   -0.57925E-03  8112   0.403E-02-0.206E-04
CGA:  23    -0.318242631629E+03   -0.52014E-03   -0.52063E-03  8112   0.310E-02-0.178E-04
CGA:  24    -0.318242866645E+03   -0.23502E-03   -0.23633E-03  8112   0.101E-02 0.184E-05
CGA:  25    -0.318243016474E+03   -0.14983E-03   -0.14904E-03  8112   0.119E-02 0.135E-04
CGA:  26    -0.318243136189E+03   -0.11972E-03   -0.11969E-03  8112   0.575E-03-0.136E-05
CGA:  27    -0.318243212076E+03   -0.75888E-04   -0.75953E-04  8112   0.408E-03-0.197E-05
CGA:  28    -0.318243251213E+03   -0.39136E-04   -0.39140E-04  8112   0.261E-03-0.421E-06
CGA:  29    -0.318243290321E+03   -0.39108E-04   -0.39053E-04  8112   0.167E-03 0.773E-06
CGA:  30    -0.318243306911E+03   -0.16590E-04   -0.16596E-04  8112   0.111E-03 0.674E-06
CGA:  31    -0.318243321778E+03   -0.14867E-04   -0.14824E-04  8112   0.680E-04 0.167E-05
CGA:  32    -0.318243329776E+03   -0.79978E-05   -0.79897E-05  8112   0.460E-04 0.111E-05
  20 F= -.31824333E+03 E0= -.31823950E+03  d E =0.153165E+01  mag=    44.0000
       N       E                     dE             d eps       ncg     rms          ort
SDA:   1    -0.291582518290E+03    0.26661E+02    0.00000E+00  8112   0.506E+03 0.000E+00
CGA:   2    -0.305996644773E+03   -0.14414E+02   -0.30789E+02  8112   0.451E+02 0.814E+01
CGA:   3    -0.312344489979E+03   -0.63478E+01   -0.72286E+01  8112   0.736E+02-0.214E+02
CGA:   4    -0.316526697791E+03   -0.41822E+01   -0.40319E+01  8112   0.339E+02-0.130E+02
CGA:   5    -0.316822434638E+03   -0.29574E+00   -0.11533E+01  8112   0.378E+02-0.113E+02
CGA:   6    -0.317768406277E+03   -0.94597E+00   -0.10739E+01  8112   0.155E+02-0.242E+01
CGA:   7    -0.318255223641E+03   -0.48682E+00   -0.41013E+00  8112   0.792E+01 0.151E+01
CGA:   8    -0.318614507729E+03   -0.35928E+00   -0.36920E+00  8112   0.784E+01-0.306E+00
CGA:   9    -0.318897019332E+03   -0.28251E+00   -0.27095E+00  8112   0.782E+01 0.276E+00
CGA:  10    -0.319129537593E+03   -0.23252E+00   -0.25739E+00  8112   0.416E+01-0.686E+00
CGA:  11    -0.319262124167E+03   -0.13259E+00   -0.16308E+00  8112   0.352E+01-0.321E+00
CGA:  12    -0.319391572376E+03   -0.12945E+00   -0.13916E+00  8112   0.978E+00-0.124E+00
CGA:  13    -0.319441472413E+03   -0.49900E-01   -0.53150E-01  8112   0.104E+01 0.353E-03
CGA:  14    -0.319546204537E+03   -0.10473E+00   -0.10405E+00  8112   0.592E+00 0.273E-01
CGA:  15    -0.319582526333E+03   -0.36322E-01   -0.38308E-01  8112   0.230E+00 0.175E-01
CGA:  16    -0.319606574703E+03   -0.24048E-01   -0.23848E-01  8112   0.127E+00 0.785E-02
CGA:  17    -0.319622847784E+03   -0.16273E-01   -0.15951E-01  8112   0.693E-01 0.689E-02
CGA:  18    -0.319631556509E+03   -0.87087E-02   -0.86718E-02  8112   0.249E-01 0.866E-03
CGA:  19    -0.319635883737E+03   -0.43272E-02   -0.43074E-02  8112   0.165E-01 0.233E-03
CGA:  20    -0.319637546801E+03   -0.16631E-02   -0.16619E-02  8112   0.796E-02 0.852E-04
CGA:  21    -0.319638685765E+03   -0.11390E-02   -0.11351E-02  8112   0.513E-02 0.679E-04
CGA:  22    -0.319639384691E+03   -0.69893E-03   -0.69731E-03  8112   0.170E-02 0.328E-04
CGA:  23    -0.319639670661E+03   -0.28597E-03   -0.28593E-03  8112   0.121E-02-0.311E-06
CGA:  24    -0.319639845171E+03   -0.17451E-03   -0.17459E-03  8112   0.576E-03-0.274E-05
CGA:  25    -0.319639913997E+03   -0.68826E-04   -0.68815E-04  8112   0.340E-03 0.444E-06
CGA:  26    -0.319639957441E+03   -0.43445E-04   -0.43352E-04  8112   0.173E-03 0.369E-05
CGA:  27    -0.319639987251E+03   -0.29810E-04   -0.29495E-04  8112   0.705E-04 0.491E-05
CGA:  28    -0.319640000062E+03   -0.12810E-04   -0.12700E-04  8112   0.439E-04 0.164E-05
CGA:  29    -0.319640006735E+03   -0.66734E-05   -0.66610E-05  8112   0.271E-04 0.325E-06
  21 F= -.31964001E+03 E0= -.31963587E+03  d E =-.139668E+01  mag=    44.0000
       N       E                     dE             d eps       ncg     rms          ort
SDA:   1    -0.317932901991E+03    0.17071E+01    0.00000E+00  8112   0.576E+01 0.000E+00
CGA:   2    -0.318946079912E+03   -0.10132E+01   -0.10145E+01  8112   0.360E+01-0.153E-01
CGA:   3    -0.319372407420E+03   -0.42633E+00   -0.42606E+00  8112   0.218E+01 0.104E+00
CGA:   4    -0.319626206070E+03   -0.25380E+00   -0.25331E+00  8112   0.641E+00-0.543E-01
CGA:   5    -0.319705844033E+03   -0.79638E-01   -0.79582E-01  8112   0.208E+00 0.334E-02
CGA:   6    -0.319731910035E+03   -0.26066E-01   -0.26085E-01  8112   0.850E-01-0.141E-02
CGA:   7    -0.319741355936E+03   -0.94459E-02   -0.94509E-02  8112   0.358E-01 0.370E-03
CGA:   8    -0.319745302817E+03   -0.39469E-02   -0.39463E-02  8112   0.136E-01-0.275E-04
CGA:   9    -0.319747398847E+03   -0.20960E-02   -0.20938E-02  8112   0.509E-02 0.493E-04
CGA:  10    -0.319748051595E+03   -0.65275E-03   -0.65277E-03  8112   0.327E-02 0.252E-06
CGA:  11    -0.319748469366E+03   -0.41777E-03   -0.41767E-03  8112   0.142E-02 0.810E-05
CGA:  12    -0.319748654175E+03   -0.18481E-03   -0.18479E-03  8112   0.684E-03 0.155E-05
CGA:  13    -0.319748766904E+03   -0.11273E-03   -0.11261E-03  8112   0.380E-03 0.257E-05
CGA:  14    -0.319748810671E+03   -0.43767E-04   -0.43774E-04  8112   0.200E-03 0.978E-06
CGA:  15    -0.319748840677E+03   -0.30007E-04   -0.29980E-04  8112   0.108E-03 0.916E-06
CGA:  16    -0.319748855225E+03   -0.14548E-04   -0.14548E-04  8112   0.449E-04-0.582E-07
CGA:  17    -0.319748862004E+03   -0.67790E-05   -0.67831E-05  8112   0.309E-04-0.158E-06
  22 F= -.31974886E+03 E0= -.31974457E+03  d E =-.108855E+00  mag=    44.0000
       N       E                     dE             d eps       ncg     rms          ort
SDA:   1    -0.318905609156E+03    0.84325E+00    0.00000E+00  8112   0.260E+01 0.000E+00
CGA:   2    -0.319398539257E+03   -0.49293E+00   -0.49381E+00  8112   0.182E+01-0.103E-01
CGA:   3    -0.319594023922E+03   -0.19548E+00   -0.19710E+00  8112   0.106E+01 0.253E-01
CGA:   4    -0.319718834178E+03   -0.12481E+00   -0.12452E+00  8112   0.273E+00-0.112E-01
CGA:   5    -0.319753578841E+03   -0.34745E-01   -0.34745E-01  8112   0.954E-01 0.267E-04
CGA:   6    -0.319765327021E+03   -0.11748E-01   -0.11747E-01  8112   0.371E-01-0.199E-03
CGA:   7    -0.319769323039E+03   -0.39960E-02   -0.40007E-02  8112   0.167E-01 0.837E-04
CGA:   8    -0.319771202732E+03   -0.18797E-02   -0.18794E-02  8112   0.564E-02-0.597E-05
CGA:   9    -0.319772130985E+03   -0.92825E-03   -0.92768E-03  8112   0.238E-02 0.126E-04
CGA:  10    -0.319772403673E+03   -0.27269E-03   -0.27268E-03  8112   0.141E-02 0.846E-06
CGA:  11    -0.319772599183E+03   -0.19551E-03   -0.19547E-03  8112   0.654E-03 0.232E-05
CGA:  12    -0.319772682929E+03   -0.83746E-04   -0.83746E-04  8112   0.312E-03 0.475E-06
CGA:  13    -0.319772734244E+03   -0.51315E-04   -0.51281E-04  8112   0.181E-03 0.849E-06
CGA:  14    -0.319772754176E+03   -0.19932E-04   -0.19943E-04  8112   0.928E-04 0.636E-06
CGA:  15    -0.319772768686E+03   -0.14511E-04   -0.14482E-04  8112   0.468E-04 0.104E-05
CGA:  16    -0.319772774794E+03   -0.61074E-05   -0.61075E-05  8112   0.206E-04 0.457E-06
  23 F= -.31977277E+03 E0= -.31976841E+03  d E =-.239128E-01  mag=    44.0000
       N       E                     dE             d eps       ncg     rms          ort
SDA:   1    -0.319584276755E+03    0.18849E+00    0.00000E+00  8112   0.502E+00 0.000E+00
CGA:   2    -0.319723628892E+03   -0.13935E+00   -0.13902E+00  8112   0.437E+00 0.233E-02
CGA:   3    -0.319760256232E+03   -0.36627E-01   -0.36074E-01  8112   0.138E+00 0.504E-03
CGA:   4    -0.319778311834E+03   -0.18056E-01   -0.18059E-01  8112   0.555E-01 0.428E-03
CGA:   5    -0.319783956669E+03   -0.56448E-02   -0.56371E-02  8112   0.121E-01-0.614E-04
CGA:   6    -0.319785909493E+03   -0.19528E-02   -0.19527E-02  8112   0.488E-02 0.301E-05
CGA:   7    -0.319786446175E+03   -0.53668E-03   -0.53651E-03  8112   0.210E-02-0.238E-05
CGA:   8    -0.319786671741E+03   -0.22557E-03   -0.22565E-03  8112   0.911E-03 0.766E-06
CGA:   9    -0.319786794522E+03   -0.12278E-03   -0.12278E-03  8112   0.318E-03 0.401E-06
CGA:  10    -0.319786849424E+03   -0.54902E-04   -0.54865E-04  8112   0.177E-03 0.892E-06
CGA:  11    -0.319786872121E+03   -0.22697E-04   -0.22695E-04  8112   0.117E-03-0.239E-06
CGA:  12    -0.319786886543E+03   -0.14423E-04   -0.14415E-04  8112   0.553E-04-0.748E-06
CGA:  13    -0.319786895244E+03   -0.87004E-05   -0.87156E-05  8112   0.276E-04-0.593E-06
  24 F= -.31978690E+03 E0= -.31978253E+03  d E =-.141204E-01  mag=    44.0000
       N       E                     dE             d eps       ncg     rms          ort
SDA:   1    -0.318295427933E+03    0.14915E+01    0.00000E+00  8112   0.374E+01 0.000E+00
CGA:   2    -0.319369595113E+03   -0.10742E+01   -0.10695E+01  8112   0.231E+01 0.331E-01
CGA:   3    -0.319613141707E+03   -0.24355E+00   -0.24086E+00  8112   0.122E+01-0.234E-01
CGA:   4    -0.319743941017E+03   -0.13080E+00   -0.13102E+00  8112   0.319E+00 0.691E-03
CGA:   5    -0.319779305528E+03   -0.35365E-01   -0.35273E-01  8112   0.110E+00-0.783E-03
CGA:   6    -0.319794918680E+03   -0.15613E-01   -0.15611E-01  8112   0.335E-01 0.242E-03
CGA:   7    -0.319799279285E+03   -0.43606E-02   -0.43602E-02  8112   0.173E-01-0.232E-04
CGA:   8    -0.319801088333E+03   -0.18090E-02   -0.18120E-02  8112   0.733E-02 0.138E-04
CGA:   9    -0.319801986841E+03   -0.89851E-03   -0.89848E-03  8112   0.293E-02 0.542E-06
CGA:  10    -0.319802485482E+03   -0.49864E-03   -0.49827E-03  8112   0.123E-02 0.960E-05
CGA:  11    -0.319802663403E+03   -0.17792E-03   -0.17791E-03  8112   0.964E-03 0.850E-06
CGA:  12    -0.319802778260E+03   -0.11486E-03   -0.11486E-03  8112   0.432E-03-0.105E-05
CGA:  13    -0.319802837990E+03   -0.59730E-04   -0.59734E-04  8112   0.213E-03-0.145E-05
CGA:  14    -0.319802872659E+03   -0.34669E-04   -0.34633E-04  8112   0.962E-04 0.130E-05
CGA:  15    -0.319802884927E+03   -0.12267E-04   -0.12290E-04  8112   0.566E-04 0.213E-05
CGA:  16    -0.319802891387E+03   -0.64606E-05   -0.65109E-05  8112   0.214E-04 0.203E-05
  25 F= -.31980289E+03 E0= -.31979855E+03  d E =-.159961E-01  mag=    44.0000
       N       E                     dE             d eps       ncg     rms          ort
SDA:   1    -0.319770258333E+03    0.32627E-01    0.00000E+00  8112   0.774E-01 0.000E+00
CGA:   2    -0.319791999437E+03   -0.21741E-01   -0.21756E-01  8112   0.692E-01-0.103E-03
CGA:   3    -0.319797471162E+03   -0.54717E-02   -0.55213E-02  8112   0.236E-01-0.259E-03
CGA:   4    -0.319800527088E+03   -0.30559E-02   -0.30556E-02  8112   0.617E-02-0.241E-04
CGA:   5    -0.319801301028E+03   -0.77394E-03   -0.77380E-03  8112   0.200E-02-0.648E-05
CGA:   6    -0.319801558392E+03   -0.25736E-03   -0.25735E-03  8112   0.851E-03-0.898E-06
CGA:   7    -0.319801644802E+03   -0.86410E-04   -0.86417E-04  8112   0.363E-03-0.646E-06
CGA:   8    -0.319801688642E+03   -0.43840E-04   -0.43823E-04  8112   0.118E-03-0.993E-06
CGA:   9    -0.319801706605E+03   -0.17963E-04   -0.17963E-04  8112   0.532E-04 0.711E-08
CGA:  10    -0.319801713744E+03   -0.71392E-05   -0.71399E-05  8112   0.321E-04 0.348E-06
  26 F= -.31980171E+03 E0= -.31979737E+03  d E =0.117764E-02  mag=    44.0000
       N       E                     dE             d eps       ncg     rms          ort
SDA:   1    -0.319708988053E+03    0.92719E-01    0.00000E+00  8112   0.223E+00 0.000E+00
CGA:   2    -0.319771463637E+03   -0.62476E-01   -0.62369E-01  8112   0.210E+00 0.785E-03
CGA:   3    -0.319787814079E+03   -0.16350E-01   -0.16106E-01  8112   0.621E-01 0.935E-03
CGA:   4    -0.319796373803E+03   -0.85597E-02   -0.85598E-02  8112   0.168E-01 0.234E-04
CGA:   5    -0.319798438685E+03   -0.20649E-02   -0.20649E-02  8112   0.555E-02 0.981E-06
CGA:   6    -0.319799172607E+03   -0.73392E-03   -0.73396E-03  8112   0.217E-02 0.481E-05
CGA:   7    -0.319799393066E+03   -0.22046E-03   -0.22026E-03  8112   0.103E-02-0.177E-05
CGA:   8    -0.319799515733E+03   -0.12267E-03   -0.12264E-03  8112   0.283E-03-0.186E-05
CGA:   9    -0.319799562360E+03   -0.46626E-04   -0.46628E-04  8112   0.142E-03-0.686E-07
CGA:  10    -0.319799580034E+03   -0.17674E-04   -0.17678E-04  8112   0.784E-04 0.311E-06
CGA:  11    -0.319799589320E+03   -0.92867E-05   -0.92888E-05  8112   0.429E-04 0.137E-06
  27 F= -.31979959E+03 E0= -.31979523E+03  d E =0.212442E-02  mag=    44.0000
       N       E                     dE             d eps       ncg     rms          ort
SDA:   1    -0.319572945219E+03    0.22663E+00    0.00000E+00  8112   0.546E+00 0.000E+00
CGA:   2    -0.319735334662E+03   -0.16239E+00   -0.16231E+00  8112   0.380E+00 0.527E-03
CGA:   3    -0.319770130454E+03   -0.34796E-01   -0.34420E-01  8112   0.162E+00 0.392E-03
CGA:   4    -0.319788214618E+03   -0.18084E-01   -0.18101E-01  8112   0.458E-01 0.103E-03
CGA:   5    -0.319793458181E+03   -0.52436E-02   -0.52436E-02  8112   0.136E-01 0.845E-05
CGA:   6    -0.319795372246E+03   -0.19141E-02   -0.19140E-02  8112   0.487E-02 0.121E-04
CGA:   7    -0.319795937973E+03   -0.56573E-03   -0.56552E-03  8112   0.249E-02-0.295E-05
CGA:   8    -0.319796192796E+03   -0.25482E-03   -0.25488E-03  8112   0.812E-03-0.160E-05
CGA:   9    -0.319796309058E+03   -0.11626E-03   -0.11627E-03  8112   0.358E-03-0.122E-05
CGA:  10    -0.319796360521E+03   -0.51462E-04   -0.51458E-04  8112   0.172E-03 0.581E-06
CGA:  11    -0.319796382752E+03   -0.22232E-04   -0.22237E-04  8112   0.119E-03 0.742E-06
CGA:  12    -0.319796398397E+03   -0.15644E-04   -0.15647E-04  8112   0.558E-04 0.522E-06
CGA:  13    -0.319796407201E+03   -0.88045E-05   -0.88057E-05  8112   0.318E-04-0.465E-07
  28 F= -.31979641E+03 E0= -.31979202E+03  d E =0.318212E-02  mag=    44.0000
       N       E                     dE             d eps       ncg     rms          ort
SDA:   1    -0.313917264033E+03    0.58791E+01    0.00000E+00  8112   0.140E+02 0.000E+00
CGA:   2    -0.318419056600E+03   -0.45018E+01   -0.44985E+01  8112   0.709E+01 0.219E-01
CGA:   3    -0.319243380128E+03   -0.82432E+00   -0.82168E+00  8112   0.387E+01-0.509E-01
CGA:   4    -0.319592523200E+03   -0.34914E+00   -0.35184E+00  8112   0.994E+00-0.314E-01
CGA:   5    -0.319706062990E+03   -0.11354E+00   -0.11302E+00  8112   0.331E+00-0.473E-02
CGA:   6    -0.319749142183E+03   -0.43079E-01   -0.43095E-01  8112   0.116E+00 0.726E-03
CGA:   7    -0.319763758572E+03   -0.14616E-01   -0.14615E-01  8112   0.530E-01-0.443E-04
CGA:   8    -0.319768913499E+03   -0.51549E-02   -0.51694E-02  8112   0.218E-01-0.323E-05
CGA:   9    -0.319771793772E+03   -0.28803E-02   -0.28801E-02  8112   0.859E-02-0.187E-04
CGA:  10    -0.319773084027E+03   -0.12903E-02   -0.12898E-02  8112   0.417E-02 0.252E-04
CGA:  11    -0.319773659609E+03   -0.57558E-03   -0.57559E-03  8112   0.317E-02 0.108E-04
CGA:  12    -0.319774033961E+03   -0.37435E-03   -0.37462E-03  8112   0.143E-02 0.908E-05
CGA:  13    -0.319774277302E+03   -0.24334E-03   -0.24326E-03  8112   0.785E-03 0.227E-05
CGA:  14    -0.319774387392E+03   -0.11009E-03   -0.11009E-03  8112   0.436E-03 0.239E-05
CGA:  15    -0.319774438146E+03   -0.50754E-04   -0.50794E-04  8112   0.228E-03 0.181E-05
CGA:  16    -0.319774465643E+03   -0.27497E-04   -0.27530E-04  8112   0.781E-04 0.182E-05
CGA:  17    -0.319774477155E+03   -0.11512E-04   -0.11501E-04  8112   0.354E-04 0.116E-05
CGA:  18    -0.319774481646E+03   -0.44907E-05   -0.44949E-05  8112   0.189E-04 0.331E-06
  29 F= -.31977448E+03 E0= -.31976999E+03  d E =0.219256E-01  mag=    44.0000
       N       E                     dE             d eps       ncg     rms          ort
SDA:   1    -0.318110451036E+03    0.16640E+01    0.00000E+00  8112   0.417E+01 0.000E+00
CGA:   2    -0.319242011034E+03   -0.11316E+01   -0.11332E+01  8112   0.291E+01-0.119E-01
CGA:   3    -0.319589817432E+03   -0.34781E+00   -0.34819E+00  8112   0.106E+01 0.845E-02
CGA:   4    -0.319713652987E+03   -0.12384E+00   -0.12356E+00  8112   0.341E+00-0.338E-02
CGA:   5    -0.319744506754E+03   -0.30854E-01   -0.31051E-01  8112   0.145E+00-0.562E-03
CGA:   6    -0.319761428580E+03   -0.16922E-01   -0.16910E-01  8112   0.384E-01-0.165E-03
CGA:   7    -0.319767263381E+03   -0.58348E-02   -0.58349E-02  8112   0.153E-01-0.298E-05
CGA:   8    -0.319769209597E+03   -0.19462E-02   -0.19460E-02  8112   0.692E-02-0.121E-04
CGA:   9    -0.319769963374E+03   -0.75378E-03   -0.75429E-03  8112   0.368E-02 0.495E-05
CGA:  10    -0.319770395915E+03   -0.43254E-03   -0.43263E-03  8112   0.133E-02 0.365E-05
CGA:  11    -0.319770631728E+03   -0.23581E-03   -0.23560E-03  8112   0.764E-03 0.454E-05
CGA:  12    -0.319770738006E+03   -0.10628E-03   -0.10628E-03  8112   0.465E-03 0.492E-06
CGA:  13    -0.319770794580E+03   -0.56574E-04   -0.56582E-04  8112   0.298E-03 0.213E-06
CGA:  14    -0.319770833640E+03   -0.39060E-04   -0.39062E-04  8112   0.114E-03 0.402E-06
CGA:  15    -0.319770852099E+03   -0.18459E-04   -0.18437E-04  8112   0.580E-04 0.832E-06
CGA:  16    -0.319770859757E+03   -0.76585E-05   -0.76624E-05  8112   0.312E-04 0.680E-06
  30 F= -.31977086E+03 E0= -.31976627E+03  d E =0.362189E-02  mag=    44.0000
       N       E                     dE             d eps       ncg     rms          ort
SDA:   1    -0.318916239143E+03    0.85461E+00    0.00000E+00  8112   0.215E+01 0.000E+00
CGA:   2    -0.319541766241E+03   -0.62553E+00   -0.62486E+00  8112   0.130E+01 0.429E-02
CGA:   3    -0.319697278192E+03   -0.15551E+00   -0.15503E+00  8112   0.538E+00-0.587E-02
CGA:   4    -0.319754725208E+03   -0.57447E-01   -0.57606E-01  8112   0.179E+00 0.698E-03
CGA:   5    -0.319771309700E+03   -0.16584E-01   -0.16483E-01  8112   0.640E-01-0.314E-04
CGA:   6    -0.319779358506E+03   -0.80488E-02   -0.80493E-02  8112   0.186E-01 0.192E-04
CGA:   7    -0.319782215314E+03   -0.28568E-02   -0.28567E-02  8112   0.639E-02 0.448E-05
CGA:   8    -0.319783068674E+03   -0.85336E-03   -0.85341E-03  8112   0.352E-02 0.680E-05
CGA:   9    -0.319783416937E+03   -0.34826E-03   -0.34799E-03  8112   0.149E-02-0.334E-06
CGA:  10    -0.319783628626E+03   -0.21169E-03   -0.21169E-03  8112   0.643E-03-0.175E-06
CGA:  11    -0.319783733696E+03   -0.10507E-03   -0.10505E-03  8112   0.371E-03 0.656E-06
CGA:  12    -0.319783787903E+03   -0.54207E-04   -0.54192E-04  8112   0.240E-03 0.164E-05
CGA:  13    -0.319783816442E+03   -0.28538E-04   -0.28552E-04  8112   0.141E-03 0.841E-06
CGA:  14    -0.319783835272E+03   -0.18830E-04   -0.18832E-04  8112   0.555E-04 0.394E-06
CGA:  15    -0.319783844712E+03   -0.94397E-05   -0.94332E-05  8112   0.272E-04 0.199E-06
  31 F= -.31978384E+03 E0= -.31977933E+03  d E =-.129850E-01  mag=    44.0000
       N       E                     dE             d eps       ncg     rms          ort
SDA:   1    -0.319570468688E+03    0.21337E+00    0.00000E+00  8112   0.538E+00 0.000E+00
CGA:   2    -0.319719262337E+03   -0.14879E+00   -0.14869E+00  8112   0.420E+00 0.755E-03
CGA:   3    -0.319757589228E+03   -0.38327E-01   -0.37976E-01  8112   0.178E+00 0.145E-03
CGA:   4    -0.319777474500E+03   -0.19885E-01   -0.19899E-01  8112   0.500E-01 0.866E-04
CGA:   5    -0.319782887238E+03   -0.54127E-02   -0.54118E-02  8112   0.162E-01-0.162E-05
CGA:   6    -0.319785111335E+03   -0.22241E-02   -0.22241E-02  8112   0.502E-02 0.158E-04
CGA:   7    -0.319785752297E+03   -0.64096E-03   -0.64088E-03  8112   0.305E-02-0.254E-05
CGA:   8    -0.319786036658E+03   -0.28436E-03   -0.28454E-03  8112   0.858E-03-0.616E-06
CGA:   9    -0.319786171132E+03   -0.13447E-03   -0.13448E-03  8112   0.410E-03-0.334E-06
CGA:  10    -0.319786226048E+03   -0.54916E-04   -0.54917E-04  8112   0.187E-03 0.336E-06
CGA:  11    -0.319786250996E+03   -0.24948E-04   -0.24950E-04  8112   0.142E-03 0.446E-06
CGA:  12    -0.319786268155E+03   -0.17159E-04   -0.17164E-04  8112   0.532E-04 0.298E-06
CGA:  13    -0.319786277972E+03   -0.98176E-05   -0.98285E-05  8112   0.384E-04-0.225E-06
  32 F= -.31978628E+03 E0= -.31978174E+03  d E =-.243326E-02  mag=    44.0000
       N       E                     dE             d eps       ncg     rms          ort
SDA:   1    -0.317807600816E+03    0.19787E+01    0.00000E+00  8112   0.476E+01 0.000E+00
CGA:   2    -0.319253495859E+03   -0.14459E+01   -0.14424E+01  8112   0.339E+01 0.238E-01
CGA:   3    -0.319556392884E+03   -0.30290E+00   -0.29585E+00  8112   0.144E+01-0.254E-01
CGA:   4    -0.319720375200E+03   -0.16398E+00   -0.16406E+00  8112   0.369E+00-0.993E-04
CGA:   5    -0.319761134209E+03   -0.40759E-01   -0.40687E-01  8112   0.130E+00-0.487E-03
CGA:   6    -0.319778466821E+03   -0.17333E-01   -0.17335E-01  8112   0.408E-01 0.185E-03
CGA:   7    -0.319783535505E+03   -0.50687E-02   -0.50676E-02  8112   0.252E-01-0.270E-04
CGA:   8    -0.319785824971E+03   -0.22895E-02   -0.22945E-02  8112   0.633E-02-0.879E-05
CGA:   9    -0.319786927418E+03   -0.11024E-02   -0.11026E-02  8112   0.299E-02-0.399E-05
CGA:  10    -0.319787301021E+03   -0.37360E-03   -0.37373E-03  8112   0.162E-02 0.513E-05
CGA:  11    -0.319787503229E+03   -0.20221E-03   -0.20227E-03  8112   0.104E-02 0.374E-05
CGA:  12    -0.319787642509E+03   -0.13928E-03   -0.13929E-03  8112   0.465E-03 0.267E-05
CGA:  13    -0.319787719333E+03   -0.76824E-04   -0.76816E-04  8112   0.303E-03 0.246E-06
CGA:  14    -0.319787760298E+03   -0.40965E-04   -0.40968E-04  8112   0.156E-03 0.713E-06
CGA:  15    -0.319787776633E+03   -0.16335E-04   -0.16355E-04  8112   0.781E-04 0.564E-06
CGA:  16    -0.319787788464E+03   -0.11830E-04   -0.11821E-04  8112   0.238E-04 0.664E-06
CGA:  17    -0.319787791740E+03   -0.32766E-05   -0.32769E-05  8112   0.138E-04 0.255E-06
  33 F= -.31978779E+03 E0= -.31978321E+03  d E =-.151377E-02  mag=    44.0000
       N       E                     dE             d eps       ncg     rms          ort
SDA:   1    -0.300221426188E+03    0.19566E+02    0.00000E+00  8112   0.611E+02 0.000E+00
CGA:   2    -0.311239930342E+03   -0.11019E+02   -0.10866E+02  8112   0.343E+02 0.168E+01
CGA:   3    -0.316158021438E+03   -0.49181E+01   -0.49332E+01  8112   0.214E+02-0.383E+01
CGA:   4    -0.318356067642E+03   -0.21980E+01   -0.20100E+01  8112   0.576E+01-0.648E+00
CGA:   5    -0.319021373480E+03   -0.66531E+00   -0.66869E+00  8112   0.209E+01 0.772E-01
CGA:   6    -0.319231462357E+03   -0.21009E+00   -0.21177E+00  8112   0.109E+01 0.360E-03
CGA:   7    -0.319341998099E+03   -0.11054E+00   -0.11130E+00  8112   0.331E+00 0.430E-02
CGA:   8    -0.319385548946E+03   -0.43551E-01   -0.43557E-01  8112   0.171E+00 0.213E-02
CGA:   9    -0.319405058389E+03   -0.19509E-01   -0.19743E-01  8112   0.852E-01 0.487E-02
CGA:  10    -0.319414844009E+03   -0.97856E-02   -0.98688E-02  8112   0.326E-01 0.154E-02
CGA:  11    -0.319420652989E+03   -0.58090E-02   -0.57734E-02  8112   0.182E-01 0.596E-03
CGA:  12    -0.319422854113E+03   -0.22011E-02   -0.22043E-02  8112   0.121E-01 0.968E-04
CGA:  13    -0.319424253235E+03   -0.13991E-02   -0.14004E-02  8112   0.574E-02 0.316E-04
CGA:  14    -0.319425149360E+03   -0.89613E-03   -0.89581E-03  8112   0.243E-02 0.105E-04
CGA:  15    -0.319425550849E+03   -0.40149E-03   -0.40093E-03  8112   0.168E-02 0.137E-04
CGA:  16    -0.319425724118E+03   -0.17327E-03   -0.17351E-03  8112   0.751E-03 0.490E-05
CGA:  17    -0.319425818894E+03   -0.94776E-04   -0.94806E-04  8112   0.338E-03 0.409E-05
CGA:  18    -0.319425868183E+03   -0.49289E-04   -0.49241E-04  8112   0.146E-03 0.328E-05
CGA:  19    -0.319425888527E+03   -0.20344E-04   -0.20334E-04  8112   0.915E-04 0.149E-05
CGA:  20    -0.319425899235E+03   -0.10708E-04   -0.10716E-04  8112   0.504E-04 0.439E-06
CGA:  21    -0.319425906299E+03   -0.70641E-05   -0.70645E-05  8112   0.249E-04-0.614E-07
  34 F= -.31942591E+03 E0= -.31942140E+03  d E =0.361885E+00  mag=    44.0000
       N       E                     dE             d eps       ncg     rms          ort
SDA:   1    -0.310260839569E+03    0.91651E+01    0.00000E+00  8112   0.341E+02 0.000E+00
CGA:   2    -0.315447917162E+03   -0.51871E+01   -0.51365E+01  8112   0.161E+02 0.182E+01
CGA:   3    -0.318036951112E+03   -0.25890E+01   -0.26678E+01  8112   0.130E+02-0.247E+01
CGA:   4    -0.319206296682E+03   -0.11693E+01   -0.11300E+01  8112   0.306E+01-0.168E+00
CGA:   5    -0.319550744335E+03   -0.34445E+00   -0.34599E+00  8112   0.181E+01 0.234E-01
CGA:   6    -0.319704369404E+03   -0.15363E+00   -0.15127E+00  8112   0.535E+00 0.161E-02
CGA:   7    -0.319780055856E+03   -0.75686E-01   -0.75613E-01  8112   0.198E+00 0.415E-02
CGA:   8    -0.319800505935E+03   -0.20450E-01   -0.20528E-01  8112   0.126E+00 0.581E-03
CGA:   9    -0.319813523822E+03   -0.13018E-01   -0.13068E-01  8112   0.468E-01 0.458E-03
CGA:  10    -0.319820240203E+03   -0.67164E-02   -0.67042E-02  8112   0.158E-01 0.530E-03
CGA:  11    -0.319823353067E+03   -0.31129E-02   -0.31020E-02  8112   0.898E-02 0.141E-03
CGA:  12    -0.319824539618E+03   -0.11866E-02   -0.11871E-02  8112   0.397E-02 0.143E-03
CGA:  13    -0.319825213697E+03   -0.67408E-03   -0.67370E-03  8112   0.203E-02 0.990E-05
CGA:  14    -0.319825464843E+03   -0.25115E-03   -0.25126E-03  8112   0.159E-02 0.539E-05
CGA:  15    -0.319825644214E+03   -0.17937E-03   -0.17956E-03  8112   0.578E-03 0.326E-05
CGA:  16    -0.319825742946E+03   -0.98733E-04   -0.98755E-04  8112   0.277E-03-0.745E-06
CGA:  17    -0.319825788130E+03   -0.45183E-04   -0.45187E-04  8112   0.106E-03-0.519E-06
CGA:  18    -0.319825807193E+03   -0.19064E-04   -0.19054E-04  8112   0.609E-04 0.189E-06
CGA:  19    -0.319825813789E+03   -0.65955E-05   -0.66071E-05  8112   0.379E-04 0.372E-06
  35 F= -.31982581E+03 E0= -.31982136E+03  d E =-.399907E+00  mag=    44.0000
       N       E                     dE             d eps       ncg     rms          ort
SDA:   1    -0.319600915383E+03    0.22489E+00    0.00000E+00  8112   0.633E+00 0.000E+00
CGA:   2    -0.319738315048E+03   -0.13740E+00   -0.13729E+00  8112   0.453E+00 0.123E-02
CGA:   3    -0.319783805055E+03   -0.45490E-01   -0.45145E-01  8112   0.266E+00-0.154E-02
CGA:   4    -0.319814054072E+03   -0.30249E-01   -0.30255E-01  8112   0.560E-01 0.659E-04
CGA:   5    -0.319822784649E+03   -0.87306E-02   -0.87310E-02  8112   0.184E-01-0.798E-05
CGA:   6    -0.319824862094E+03   -0.20774E-02   -0.20786E-02  8112   0.102E-01 0.177E-04
CGA:   7    -0.319825891195E+03   -0.10291E-02   -0.10287E-02  8112   0.296E-02 0.134E-05
CGA:   8    -0.319826281479E+03   -0.39028E-03   -0.39029E-03  8112   0.151E-02 0.207E-05
CGA:   9    -0.319826479496E+03   -0.19802E-03   -0.19802E-03  8112   0.520E-03-0.462E-07
CGA:  10    -0.319826548875E+03   -0.69380E-04   -0.69380E-04  8112   0.419E-03-0.594E-07
CGA:  11    -0.319826596077E+03   -0.47202E-04   -0.47202E-04  8112   0.122E-03-0.691E-08
CGA:  12    -0.319826618724E+03   -0.22646E-04   -0.22602E-04  8112   0.864E-04 0.852E-06
CGA:  13    -0.319826628505E+03   -0.97810E-05   -0.97869E-05  8112   0.416E-04 0.253E-06
  36 F= -.31982663E+03 E0= -.31982218E+03  d E =-.814716E-03  mag=    44.0000
       N       E                     dE             d eps       ncg     rms          ort
SDA:   1    -0.319638913866E+03    0.18770E+00    0.00000E+00  8112   0.552E+00 0.000E+00
CGA:   2    -0.319758791841E+03   -0.11988E+00   -0.11985E+00  8112   0.344E+00 0.357E-03
CGA:   3    -0.319802707514E+03   -0.43916E-01   -0.43871E-01  8112   0.213E+00-0.167E-02
CGA:   4    -0.319822610658E+03   -0.19903E-01   -0.19935E-01  8112   0.642E-01-0.540E-04
CGA:   5    -0.319829834694E+03   -0.72240E-02   -0.72225E-02  8112   0.216E-01-0.128E-04
CGA:   6    -0.319832634867E+03   -0.28002E-02   -0.28003E-02  8112   0.648E-02 0.157E-04
CGA:   7    -0.319833561290E+03   -0.92642E-03   -0.92644E-03  8112   0.326E-02 0.305E-06
CGA:   8    -0.319833856748E+03   -0.29546E-03   -0.29580E-03  8112   0.137E-02 0.508E-06
CGA:   9    -0.319834051310E+03   -0.19456E-03   -0.19456E-03  8112   0.519E-03 0.366E-07
CGA:  10    -0.319834124926E+03   -0.73616E-04   -0.73613E-04  8112   0.250E-03 0.244E-06
CGA:  11    -0.319834161071E+03   -0.36145E-04   -0.36140E-04  8112   0.168E-03 0.443E-06
CGA:  12    -0.319834177653E+03   -0.16582E-04   -0.16594E-04  8112   0.647E-04 0.276E-06
CGA:  13    -0.319834189177E+03   -0.11523E-04   -0.11522E-04  8112   0.358E-04 0.377E-07
CGA:  14    -0.319834193888E+03   -0.47119E-05   -0.47119E-05  8112   0.186E-04-0.245E-07
  37 F= -.31983419E+03 E0= -.31982972E+03  d E =-.756538E-02  mag=    44.0000
       N       E                     dE             d eps       ncg     rms          ort
SDA:   1    -0.319783725422E+03    0.50464E-01    0.00000E+00  8112   0.156E+00 0.000E+00
CGA:   2    -0.319810027292E+03   -0.26302E-01   -0.26316E-01  8112   0.147E+00-0.276E-03
CGA:   3    -0.319823029646E+03   -0.13002E-01   -0.13046E-01  8112   0.566E-01-0.103E-03
CGA:   4    -0.319831836774E+03   -0.88071E-02   -0.88092E-02  8112   0.133E-01-0.606E-04
CGA:   5    -0.319833831013E+03   -0.19942E-02   -0.19941E-02  8112   0.579E-02 0.675E-05
CGA:   6    -0.319834352420E+03   -0.52141E-03   -0.52094E-03  8112   0.243E-02 0.872E-06
CGA:   7    -0.319834652087E+03   -0.29967E-03   -0.29968E-03  8112   0.737E-03 0.960E-06
CGA:   8    -0.319834753257E+03   -0.10117E-03   -0.10117E-03  8112   0.370E-03-0.444E-06
CGA:   9    -0.319834799512E+03   -0.46255E-04   -0.46257E-04  8112   0.173E-03 0.199E-06
CGA:  10    -0.319834817464E+03   -0.17952E-04   -0.17957E-04  8112   0.791E-04 0.218E-06
CGA:  11    -0.319834829850E+03   -0.12386E-04   -0.12382E-04  8112   0.389E-04 0.152E-06
CGA:  12    -0.319834834898E+03   -0.50480E-05   -0.50480E-05  8112   0.201E-04-0.101E-07
  38 F= -.31983483E+03 E0= -.31983034E+03  d E =-.641009E-03  mag=    44.0000
       N       E                     dE             d eps       ncg     rms          ort
SDA:   1    -0.319717205796E+03    0.11762E+00    0.00000E+00  8112   0.307E+00 0.000E+00
CGA:   2    -0.319784450444E+03   -0.67245E-01   -0.67092E-01  8112   0.318E+00 0.167E-02
CGA:   3    -0.319810933273E+03   -0.26483E-01   -0.26136E-01  8112   0.104E+00 0.477E-03
CGA:   4    -0.319825764568E+03   -0.14831E-01   -0.14830E-01  8112   0.266E-01 0.538E-04
CGA:   5    -0.319829361025E+03   -0.35965E-02   -0.35965E-02  8112   0.971E-02-0.417E-04
CGA:   6    -0.319830413084E+03   -0.10521E-02   -0.10524E-02  8112   0.439E-02 0.429E-05
CGA:   7    -0.319830860862E+03   -0.44778E-03   -0.44768E-03  8112   0.164E-02-0.476E-06
CGA:   8    -0.319831069532E+03   -0.20867E-03   -0.20867E-03  8112   0.614E-03-0.101E-05
CGA:   9    -0.319831156439E+03   -0.86907E-04   -0.86912E-04  8112   0.284E-03-0.464E-06
CGA:  10    -0.319831191998E+03   -0.35559E-04   -0.35561E-04  8112   0.168E-03 0.248E-06
CGA:  11    -0.319831210497E+03   -0.18499E-04   -0.18503E-04  8112   0.783E-04 0.148E-06
CGA:  12    -0.319831223406E+03   -0.12909E-04   -0.12908E-04  8112   0.349E-04 0.239E-07
CGA:  13    -0.319831228817E+03   -0.54112E-05   -0.54129E-05  8112   0.273E-04-0.828E-07
  39 F= -.31983123E+03 E0= -.31982672E+03  d E =0.360608E-02  mag=    44.0000
       N       E                     dE             d eps       ncg     rms          ort
SDA:   1    -0.319816516974E+03    0.14706E-01    0.00000E+00  8112   0.401E-01 0.000E+00
CGA:   2    -0.319823328253E+03   -0.68113E-02   -0.68074E-02  8112   0.515E-01 0.763E-04
CGA:   3    -0.319828190949E+03   -0.48627E-02   -0.48547E-02  8112   0.122E-01-0.225E-04
CGA:   4    -0.319829910863E+03   -0.17199E-02   -0.17198E-02  8112   0.431E-02 0.464E-05
CGA:   5    -0.319830415288E+03   -0.50443E-03   -0.50439E-03  8112   0.118E-02-0.133E-05
CGA:   6    -0.319830573632E+03   -0.15834E-03   -0.15834E-03  8112   0.554E-03-0.467E-06
CGA:   7    -0.319830623888E+03   -0.50255E-04   -0.50221E-04  8112   0.212E-03-0.723E-06
CGA:   8    -0.319830651365E+03   -0.27477E-04   -0.27477E-04  8112   0.849E-04-0.788E-06
CGA:   9    -0.319830662461E+03   -0.11096E-04   -0.11097E-04  8112   0.305E-04-0.235E-06
CGA:  10    -0.319830667510E+03   -0.50491E-05   -0.50511E-05  8112   0.198E-04-0.593E-07
  40 F= -.31983067E+03 E0= -.31982617E+03  d E =0.561307E-03  mag=    44.0000
       N       E                     dE             d eps       ncg     rms          ort
SDA:   1    -0.319674949518E+03    0.15571E+00    0.00000E+00  8112   0.373E+00 0.000E+00
CGA:   2    -0.319786493431E+03   -0.11154E+00   -0.11158E+00  8112   0.205E+00-0.219E-03
CGA:   3    -0.319812996137E+03   -0.26503E-01   -0.26516E-01  8112   0.951E-01 0.623E-03
CGA:   4    -0.319821762246E+03   -0.87661E-02   -0.87478E-02  8112   0.311E-01-0.197E-04
CGA:   5    -0.319824949344E+03   -0.31871E-02   -0.31874E-02  8112   0.107E-01 0.128E-05
CGA:   6    -0.319826299335E+03   -0.13500E-02   -0.13500E-02  8112   0.315E-02 0.224E-06
CGA:   7    -0.319826779951E+03   -0.48062E-03   -0.48064E-03  8112   0.126E-02-0.167E-05
CGA:   8    -0.319826919158E+03   -0.13921E-03   -0.13914E-03  8112   0.695E-03-0.165E-05
CGA:   9    -0.319826995722E+03   -0.76565E-04   -0.76558E-04  8112   0.271E-03-0.412E-06
CGA:  10    -0.319827034153E+03   -0.38431E-04   -0.38429E-04  8112   0.116E-03 0.185E-06
CGA:  11    -0.319827054361E+03   -0.20208E-04   -0.20194E-04  8112   0.727E-04 0.353E-06
CGA:  12    -0.319827062821E+03   -0.84597E-05   -0.84593E-05  8112   0.452E-04-0.127E-07
  41 F= -.31982706E+03 E0= -.31982257E+03  d E =0.360469E-02  mag=    44.0000
       N       E                     dE             d eps       ncg     rms          ort
SDA:   1    -0.319678964584E+03    0.14809E+00    0.00000E+00  8112   0.383E+00 0.000E+00
CGA:   2    -0.319759778982E+03   -0.80814E-01   -0.80696E-01  8112   0.455E+00 0.148E-02
CGA:   3    -0.319799414394E+03   -0.39635E-01   -0.39256E-01  8112   0.123E+00-0.798E-04
CGA:   4    -0.319814823941E+03   -0.15410E-01   -0.15416E-01  8112   0.476E-01 0.263E-03
CGA:   5    -0.319820102652E+03   -0.52787E-02   -0.52761E-02  8112   0.109E-01-0.289E-04
CGA:   6    -0.319821678027E+03   -0.15754E-02   -0.15752E-02  8112   0.478E-02 0.924E-05
CGA:   7    -0.319822157311E+03   -0.47928E-03   -0.47930E-03  8112   0.227E-02 0.117E-05
CGA:   8    -0.319822406120E+03   -0.24881E-03   -0.24887E-03  8112   0.736E-03 0.403E-06
CGA:   9    -0.319822518746E+03   -0.11263E-03   -0.11266E-03  8112   0.266E-03-0.132E-05
CGA:  10    -0.319822558464E+03   -0.39718E-04   -0.39714E-04  8112   0.199E-03 0.142E-06
CGA:  11    -0.319822578703E+03   -0.20239E-04   -0.20249E-04  8112   0.805E-04 0.279E-06
CGA:  12    -0.319822591382E+03   -0.12679E-04   -0.12672E-04  8112   0.505E-04 0.265E-06
CGA:  13    -0.319822598971E+03   -0.75882E-05   -0.75886E-05  8112   0.245E-04-0.229E-07
  42 F= -.31982260E+03 E0= -.31981810E+03  d E =0.446385E-02  mag=    44.0000
       N       E                     dE             d eps       ncg     rms          ort
SDA:   1    -0.319568282273E+03    0.25431E+00    0.00000E+00  8112   0.687E+00 0.000E+00
CGA:   2    -0.319691169022E+03   -0.12289E+00   -0.12217E+00  8112   0.884E+00 0.129E-01
CGA:   3    -0.319776559833E+03   -0.85391E-01   -0.84069E-01  8112   0.195E+00-0.329E-02
CGA:   4    -0.319805592846E+03   -0.29033E-01   -0.29024E-01  8112   0.700E-01 0.370E-03
CGA:   5    -0.319812887935E+03   -0.72951E-02   -0.72879E-02  8112   0.219E-01-0.435E-04
CGA:   6    -0.319815400069E+03   -0.25121E-02   -0.25135E-02  8112   0.103E-01 0.301E-04
CGA:   7    -0.319816408370E+03   -0.10083E-02   -0.10082E-02  8112   0.349E-02 0.311E-05
CGA:   8    -0.319816911906E+03   -0.50354E-03   -0.50350E-03  8112   0.119E-02 0.147E-05
CGA:   9    -0.319817071292E+03   -0.15939E-03   -0.15939E-03  8112   0.694E-03-0.116E-05
CGA:  10    -0.319817141894E+03   -0.70602E-04   -0.70630E-04  8112   0.308E-03 0.108E-06
CGA:  11    -0.319817187961E+03   -0.46067E-04   -0.46054E-04  8112   0.134E-03 0.621E-06
CGA:  12    -0.319817209330E+03   -0.21369E-04   -0.21354E-04  8112   0.990E-04 0.509E-06
CGA:  13    -0.319817221183E+03   -0.11853E-04   -0.11855E-04  8112   0.536E-04 0.121E-06
CGA:  14    -0.319817228273E+03   -0.70896E-05   -0.70896E-05  8112   0.284E-04-0.183E-07
  43 F= -.31981723E+03 E0= -.31981272E+03  d E =0.537070E-02  mag=    44.0000
       N       E                     dE             d eps       ncg     rms          ort
SDA:   1    -0.319649410168E+03    0.16781E+00    0.00000E+00  8112   0.397E+00 0.000E+00
CGA:   2    -0.319771792255E+03   -0.12238E+00   -0.12234E+00  8112   0.248E+00 0.285E-03
CGA:   3    -0.319797244089E+03   -0.25452E-01   -0.25372E-01  8112   0.134E+00-0.410E-03
CGA:   4    -0.319809634054E+03   -0.12390E-01   -0.12396E-01  8112   0.281E-01-0.210E-04
CGA:   5    -0.319813461685E+03   -0.38276E-02   -0.38277E-02  8112   0.892E-02 0.280E-04
CGA:   6    -0.319814599565E+03   -0.11379E-02   -0.11379E-02  8112   0.402E-02 0.107E-05
CGA:   7    -0.319815038882E+03   -0.43932E-03   -0.43920E-03  8112   0.172E-02-0.131E-05
CGA:   8    -0.319815213473E+03   -0.17459E-03   -0.17459E-03  8112   0.659E-03-0.402E-06
CGA:   9    -0.319815307518E+03   -0.94045E-04   -0.94049E-04  8112   0.237E-03-0.410E-06
CGA:  10    -0.319815343146E+03   -0.35628E-04   -0.35624E-04  8112   0.148E-03 0.224E-06
CGA:  11    -0.319815359503E+03   -0.16357E-04   -0.16363E-04  8112   0.840E-04 0.267E-06
CGA:  12    -0.319815371128E+03   -0.11625E-04   -0.11623E-04  8112   0.393E-04 0.312E-06
CGA:  13    -0.319815377891E+03   -0.67633E-05   -0.67611E-05  8112   0.240E-04 0.573E-07
  44 F= -.31981538E+03 E0= -.31981085E+03  d E =0.185038E-02  mag=    44.0000
       N       E                     dE             d eps       ncg     rms          ort
SDA:   1    -0.319747891469E+03    0.67480E-01    0.00000E+00  8112   0.174E+00 0.000E+00
CGA:   2    -0.319785797356E+03   -0.37906E-01   -0.37807E-01  8112   0.254E+00 0.113E-02
CGA:   3    -0.319806438424E+03   -0.20641E-01   -0.20485E-01  8112   0.461E-01 0.338E-03
CGA:   4    -0.319813755297E+03   -0.73169E-02   -0.73179E-02  8112   0.130E-01-0.300E-04
CGA:   5    -0.319815283970E+03   -0.15287E-02   -0.15289E-02  8112   0.490E-02 0.352E-05
CGA:   6    -0.319815828329E+03   -0.54436E-03   -0.54445E-03  8112   0.212E-02 0.509E-06
CGA:   7    -0.319816042519E+03   -0.21419E-03   -0.21413E-03  8112   0.857E-03-0.692E-06
CGA:   8    -0.319816150206E+03   -0.10769E-03   -0.10769E-03  8112   0.256E-03 0.226E-06
CGA:   9    -0.319816189841E+03   -0.39636E-04   -0.39635E-04  8112   0.127E-03 0.545E-07
CGA:  10    -0.319816204353E+03   -0.14511E-04   -0.14513E-04  8112   0.754E-04 0.937E-07
CGA:  11    -0.319816213185E+03   -0.88320E-05   -0.88328E-05  8112   0.328E-04 0.539E-07
  45 F= -.31981621E+03 E0= -.31981169E+03  d E =-.835293E-03  mag=    44.0000
       N       E                     dE             d eps       ncg     rms          ort
SDA:   1    -0.319010298434E+03    0.80591E+00    0.00000E+00  8112   0.199E+01 0.000E+00
CGA:   2    -0.319528033809E+03   -0.51774E+00   -0.51265E+00  8112   0.225E+01 0.439E-01
CGA:   3    -0.319708428144E+03   -0.18039E+00   -0.17227E+00  8112   0.549E+00 0.823E-02
CGA:   4    -0.319790443917E+03   -0.82016E-01   -0.82042E-01  8112   0.146E+00-0.130E-02
CGA:   5    -0.319808446999E+03   -0.18003E-01   -0.18008E-01  8112   0.522E-01 0.155E-03
CGA:   6    -0.319814163319E+03   -0.57163E-02   -0.57178E-02  8112   0.262E-01 0.178E-04
CGA:   7    -0.319816767009E+03   -0.26037E-02   -0.26015E-02  8112   0.815E-02-0.636E-05
CGA:   8    -0.319817912047E+03   -0.11450E-02   -0.11450E-02  8112   0.299E-02 0.116E-05
CGA:   9    -0.319818296197E+03   -0.38415E-03   -0.38415E-03  8112   0.158E-02-0.164E-06
CGA:  10    -0.319818478238E+03   -0.18204E-03   -0.18208E-03  8112   0.834E-03 0.127E-05
CGA:  11    -0.319818578944E+03   -0.10071E-03   -0.10072E-03  8112   0.370E-03 0.118E-05
CGA:  12    -0.319818643115E+03   -0.64171E-04   -0.64118E-04  8112   0.230E-03 0.124E-05
CGA:  13    -0.319818673356E+03   -0.30240E-04   -0.30241E-04  8112   0.145E-03 0.200E-06
CGA:  14    -0.319818690271E+03   -0.16915E-04   -0.16919E-04  8112   0.767E-04 0.165E-06
CGA:  15    -0.319818701164E+03   -0.10893E-04   -0.10889E-04  8112   0.275E-04 0.425E-06
CGA:  16    -0.319818705172E+03   -0.40074E-05   -0.40026E-05  8112   0.162E-04 0.439E-06
  46 F= -.31981871E+03 E0= -.31981417E+03  d E =-.249199E-02  mag=    44.0000
       N       E                     dE             d eps       ncg     rms          ort
SDA:   1    -0.308316776792E+03    0.11502E+02    0.00000E+00  8112   0.294E+02 0.000E+00
CGA:   2    -0.315721251986E+03   -0.74045E+01   -0.71327E+01  8112   0.216E+02 0.217E+01
CGA:   3    -0.318162845471E+03   -0.24416E+01   -0.21341E+01  8112   0.935E+01-0.124E+01
CGA:   4    -0.319415734694E+03   -0.12529E+01   -0.12562E+01  8112   0.215E+01-0.278E+00
CGA:   5    -0.319680909140E+03   -0.26517E+00   -0.26539E+00  8112   0.762E+00 0.118E-01
CGA:   6    -0.319761869307E+03   -0.80960E-01   -0.81559E-01  8112   0.396E+00 0.480E-02
CGA:   7    -0.319796510791E+03   -0.34641E-01   -0.35090E-01  8112   0.173E+00 0.714E-04
CGA:   8    -0.319815523962E+03   -0.19013E-01   -0.19069E-01  8112   0.521E-01 0.797E-03
CGA:   9    -0.319823443425E+03   -0.79195E-02   -0.79059E-02  8112   0.239E-01 0.426E-03
CGA:  10    -0.319826441142E+03   -0.29977E-02   -0.30006E-02  8112   0.168E-01 0.173E-03
CGA:  11    -0.319828073232E+03   -0.16321E-02   -0.16395E-02  8112   0.682E-02 0.408E-04
CGA:  12    -0.319829308622E+03   -0.12354E-02   -0.12317E-02  8112   0.339E-02 0.595E-04
CGA:  13    -0.319829826488E+03   -0.51787E-03   -0.51740E-03  8112   0.238E-02 0.183E-04
CGA:  14    -0.319830116647E+03   -0.29016E-03   -0.29044E-03  8112   0.137E-02 0.128E-04
CGA:  15    -0.319830266522E+03   -0.14988E-03   -0.15014E-03  8112   0.558E-03 0.582E-05
CGA:  16    -0.319830357121E+03   -0.90598E-04   -0.90440E-04  8112   0.213E-03 0.500E-05
CGA:  17    -0.319830387693E+03   -0.30572E-04   -0.30554E-04  8112   0.115E-03 0.191E-05
CGA:  18    -0.319830399280E+03   -0.11587E-04   -0.11620E-04  8112   0.555E-04 0.828E-06
CGA:  19    -0.319830407025E+03   -0.77449E-05   -0.77408E-05  8112   0.203E-04 0.554E-06
  47 F= -.31983041E+03 E0= -.31982595E+03  d E =-.117019E-01  mag=    44.0000
       N       E                     dE             d eps       ncg     rms          ort
SDA:   1    -0.310335553309E+03    0.94948E+01    0.00000E+00  8112   0.244E+02 0.000E+00
CGA:   2    -0.316443896033E+03   -0.61083E+01   -0.59518E+01  8112   0.187E+02 0.134E+01
CGA:   3    -0.318418943897E+03   -0.19750E+01   -0.17552E+01  8112   0.800E+01-0.682E+00
CGA:   4    -0.319472988287E+03   -0.10540E+01   -0.10542E+01  8112   0.187E+01-0.160E+00
CGA:   5    -0.319712156416E+03   -0.23917E+00   -0.23918E+00  8112   0.613E+00 0.567E-03
CGA:   6    -0.319784031369E+03   -0.71875E-01   -0.72079E-01  8112   0.310E+00 0.378E-02
[...]
CGA:  10    -0.319847133835E+03   -0.82108E-04   -0.82116E-04  8112   0.250E-03-0.272E-06
CGA:  11    -0.319847167613E+03   -0.33777E-04   -0.33777E-04  8112   0.145E-03-0.697E-07
CGA:  12    -0.319847185202E+03   -0.17589E-04   -0.17597E-04  8112   0.908E-04 0.520E-06
CGA:  13    -0.319847197122E+03   -0.11920E-04   -0.11922E-04  8112   0.366E-04 0.676E-06
CGA:  14    -0.319847203866E+03   -0.67442E-05   -0.67382E-05  8112   0.205E-04 0.126E-06
  67 F= -.31984720E+03 E0= -.31984289E+03  d E =-.126854E-02  mag=    44.0000
       N       E                     dE             d eps       ncg     rms          ort
SDA:   1    -0.319536853579E+03    0.31034E+00    0.00000E+00  8112   0.780E+00 0.000E+00
CGA:   2    -0.319764041084E+03   -0.22719E+00   -0.22687E+00  8112   0.485E+00 0.200E-02
CGA:   3    -0.319821028131E+03   -0.56987E-01   -0.56843E-01  8112   0.202E+00-0.128E-02
CGA:   4    -0.319842239559E+03   -0.21211E-01   -0.21214E-01  8112   0.723E-01-0.412E-04
CGA:   5    -0.319848731439E+03   -0.64919E-02   -0.64875E-02  8112   0.218E-01-0.847E-05
CGA:   6    -0.319851719119E+03   -0.29877E-02   -0.29877E-02  8112   0.684E-02 0.857E-05
CGA:   7    -0.319852746780E+03   -0.10277E-02   -0.10278E-02  8112   0.230E-02-0.537E-05
CGA:   8    -0.319853061059E+03   -0.31428E-03   -0.31429E-03  8112   0.132E-02 0.302E-05
CGA:   9    -0.319853183955E+03   -0.12290E-03   -0.12294E-03  8112   0.522E-03 0.113E-05
CGA:  10    -0.319853265017E+03   -0.81063E-04   -0.81048E-04  8112   0.222E-03 0.788E-06
CGA:  11    -0.319853300396E+03   -0.35378E-04   -0.35371E-04  8112   0.131E-03 0.289E-06
CGA:  12    -0.319853320188E+03   -0.19792E-04   -0.19788E-04  8112   0.849E-04 0.288E-06
CGA:  13    -0.319853329613E+03   -0.94250E-05   -0.94283E-05  8112   0.478E-04 0.133E-06
  68 F= -.31985333E+03 E0= -.31984900E+03  d E =-.612575E-02  mag=    44.0000
       N       E                     dE             d eps       ncg     rms          ort
SDA:   1    -0.319624314498E+03    0.22901E+00    0.00000E+00  8112   0.619E+00 0.000E+00
CGA:   2    -0.319777094632E+03   -0.15278E+00   -0.15248E+00  8112   0.557E+00 0.272E-02
CGA:   3    -0.319823113739E+03   -0.46019E-01   -0.45483E-01  8112   0.202E+00 0.772E-03
CGA:   4    -0.319850600424E+03   -0.27487E-01   -0.27486E-01  8112   0.534E-01-0.919E-04
CGA:   5    -0.319857092498E+03   -0.64921E-02   -0.64925E-02  8112   0.183E-01 0.539E-05
CGA:   6    -0.319859356083E+03   -0.22636E-02   -0.22636E-02  8112   0.707E-02-0.708E-06
CGA:   7    -0.319860118632E+03   -0.76255E-03   -0.76218E-03  8112   0.346E-02-0.391E-05
CGA:   8    -0.319860492979E+03   -0.37435E-03   -0.37442E-03  8112   0.113E-02 0.704E-06
CGA:   9    -0.319860668904E+03   -0.17593E-03   -0.17586E-03  8112   0.462E-03 0.276E-05
CGA:  10    -0.319860737177E+03   -0.68273E-04   -0.68263E-04  8112   0.307E-03 0.901E-06
CGA:  11    -0.319860769658E+03   -0.32481E-04   -0.32491E-04  8112   0.152E-03 0.396E-06
CGA:  12    -0.319860793832E+03   -0.24174E-04   -0.24165E-04  8112   0.734E-04 0.358E-06
CGA:  13    -0.319860805647E+03   -0.11816E-04   -0.11817E-04  8112   0.478E-04-0.544E-07
CGA:  14    -0.319860811709E+03   -0.60618E-05   -0.60639E-05  8112   0.265E-04 0.199E-06
  69 F= -.31986081E+03 E0= -.31985645E+03  d E =-.748210E-02  mag=    44.0000
       N       E                     dE             d eps       ncg     rms          ort
SDA:   1    -0.319725818292E+03    0.13499E+00    0.00000E+00  8112   0.373E+00 0.000E+00
CGA:   2    -0.319811776488E+03   -0.85958E-01   -0.85890E-01  8112   0.305E+00 0.604E-03
CGA:   3    -0.319847611649E+03   -0.35835E-01   -0.35825E-01  8112   0.893E-01-0.101E-03
CGA:   4    -0.319860951809E+03   -0.13340E-01   -0.13341E-01  8112   0.254E-01-0.394E-04
CGA:   5    -0.319863483064E+03   -0.25313E-02   -0.25333E-02  8112   0.127E-01-0.410E-06
CGA:   6    -0.319864774082E+03   -0.12910E-02   -0.12908E-02  8112   0.362E-02-0.662E-05
CGA:   7    -0.319865295776E+03   -0.52169E-03   -0.52170E-03  8112   0.123E-02-0.522E-06
CGA:   8    -0.319865484707E+03   -0.18893E-03   -0.18889E-03  8112   0.507E-03 0.265E-05
CGA:   9    -0.319865542704E+03   -0.57997E-04   -0.58013E-04  8112   0.308E-03 0.569E-06
CGA:  10    -0.319865578733E+03   -0.36029E-04   -0.36025E-04  8112   0.123E-03-0.167E-06
CGA:  11    -0.319865596739E+03   -0.18006E-04   -0.18006E-04  8112   0.648E-04 0.122E-07
CGA:  12    -0.319865607520E+03   -0.10782E-04   -0.10763E-04  8112   0.340E-04 0.614E-06
CGA:  13    -0.319865612031E+03   -0.45108E-05   -0.45126E-05  8112   0.254E-04 0.288E-06
  70 F= -.31986561E+03 E0= -.31986128E+03  d E =-.480032E-02  mag=    44.0000
       N       E                     dE             d eps       ncg     rms          ort
SDA:   1    -0.318875457915E+03    0.99015E+00    0.00000E+00  8112   0.249E+01 0.000E+00
CGA:   2    -0.319567608126E+03   -0.69215E+00   -0.69248E+00  8112   0.187E+01-0.744E-02
CGA:   3    -0.319768574080E+03   -0.20097E+00   -0.20220E+00  8112   0.558E+00 0.127E-01
CGA:   4    -0.319845275826E+03   -0.76702E-01   -0.76700E-01  8112   0.191E+00-0.160E-03
CGA:   5    -0.319861361003E+03   -0.16085E-01   -0.16070E-01  8112   0.718E-01-0.120E-03
CGA:   6    -0.319870278112E+03   -0.89171E-02   -0.89200E-02  8112   0.223E-01 0.808E-04
CGA:   7    -0.319873503512E+03   -0.32254E-02   -0.32257E-02  8112   0.712E-02-0.225E-04
CGA:   8    -0.319874562299E+03   -0.10588E-02   -0.10587E-02  8112   0.358E-02 0.667E-05
CGA:   9    -0.319874909059E+03   -0.34676E-03   -0.34682E-03  8112   0.169E-02 0.131E-05
CGA:  10    -0.319875148151E+03   -0.23909E-03   -0.23908E-03  8112   0.723E-03 0.174E-05
CGA:  11    -0.319875258048E+03   -0.10990E-03   -0.10987E-03  8112   0.382E-03 0.170E-05
CGA:  12    -0.319875322092E+03   -0.64044E-04   -0.63989E-04  8112   0.273E-03 0.175E-05
CGA:  13    -0.319875351620E+03   -0.29528E-04   -0.29548E-04  8112   0.139E-03 0.617E-06
CGA:  14    -0.319875371766E+03   -0.20146E-04   -0.20142E-04  8112   0.683E-04 0.472E-06
CGA:  15    -0.319875381708E+03   -0.99417E-05   -0.99367E-05  8112   0.262E-04 0.692E-06
  71 F= -.31987538E+03 E0= -.31987109E+03  d E =-.976968E-02  mag=    44.0000
       N       E                     dE             d eps       ncg     rms          ort
SDA:   1    -0.311079410669E+03    0.87960E+01    0.00000E+00  8112   0.229E+02 0.000E+00
CGA:   2    -0.316484659870E+03   -0.54052E+01   -0.54628E+01  8112   0.235E+02-0.291E+00
CGA:   3    -0.318685705311E+03   -0.22010E+01   -0.20583E+01  8112   0.546E+01 0.828E+00
CGA:   4    -0.319555752367E+03   -0.87005E+00   -0.87146E+00  8112   0.223E+01-0.609E-01
CGA:   5    -0.319747804381E+03   -0.19205E+00   -0.19136E+00  8112   0.729E+00 0.185E-01
CGA:   6    -0.319840190324E+03   -0.92386E-01   -0.92555E-01  8112   0.252E+00 0.555E-02
CGA:   7    -0.319874150241E+03   -0.33960E-01   -0.33954E-01  8112   0.849E-01-0.628E-03
CGA:   8    -0.319886771041E+03   -0.12621E-01   -0.12603E-01  8112   0.425E-01 0.933E-03
CGA:   9    -0.319890540381E+03   -0.37693E-02   -0.37841E-02  8112   0.190E-01-0.184E-04
CGA:  10    -0.319893649189E+03   -0.31088E-02   -0.31060E-02  8112   0.680E-02 0.704E-04
CGA:  11    -0.319894711809E+03   -0.10626E-02   -0.10609E-02  8112   0.529E-02 0.636E-04
CGA:  12    -0.319895382893E+03   -0.67108E-03   -0.67159E-03  8112   0.268E-02 0.230E-04
CGA:  13    -0.319895748573E+03   -0.36568E-03   -0.36571E-03  8112   0.158E-02 0.111E-04
CGA:  14    -0.319895962321E+03   -0.21375E-03   -0.21378E-03  8112   0.813E-03 0.929E-05
CGA:  15    -0.319896074884E+03   -0.11256E-03   -0.11256E-03  8112   0.321E-03 0.387E-05
CGA:  16    -0.319896118379E+03   -0.43494E-04   -0.43501E-04  8112   0.215E-03 0.246E-05
CGA:  17    -0.319896141515E+03   -0.23136E-04   -0.23189E-04  8112   0.597E-04 0.165E-05
CGA:  18    -0.319896151003E+03   -0.94878E-05   -0.94688E-05  8112   0.328E-04 0.852E-06
  72 F= -.31989615E+03 E0= -.31989192E+03  d E =-.207693E-01  mag=    44.0000
       N       E                     dE             d eps       ncg     rms          ort
SDA:   1    -0.310290705727E+03    0.96054E+01    0.00000E+00  8112   0.254E+02 0.000E+00
CGA:   2    -0.316217017984E+03   -0.59263E+01   -0.58059E+01  8112   0.205E+02 0.124E+01
CGA:   3    -0.318476325592E+03   -0.22593E+01   -0.20259E+01  8112   0.760E+01-0.494E+00
CGA:   4    -0.319449390266E+03   -0.97306E+00   -0.96940E+00  8112   0.332E+01-0.204E+00
CGA:   5    -0.319734410346E+03   -0.28502E+00   -0.28641E+00  8112   0.758E+00 0.730E-01
CGA:   6    -0.319835080361E+03   -0.10067E+00   -0.10074E+00  8112   0.438E+00 0.526E-02
CGA:   7    -0.319870294389E+03   -0.35214E-01   -0.35733E-01  8112   0.172E+00-0.233E-02
CGA:   8    -0.319889703571E+03   -0.19409E-01   -0.19408E-01  8112   0.663E-01 0.536E-06
CGA:   9    -0.319898659060E+03   -0.89555E-02   -0.89537E-02  8112   0.221E-01 0.289E-03
CGA:  10    -0.319901960954E+03   -0.33019E-02   -0.32948E-02  8112   0.184E-01 0.275E-03
CGA:  11    -0.319903678653E+03   -0.17177E-02   -0.17259E-02  8112   0.707E-02 0.248E-04
CGA:  12    -0.319904718213E+03   -0.10396E-02   -0.10387E-02  8112   0.422E-02 0.386E-04
CGA:  13    -0.319905417335E+03   -0.69912E-03   -0.69702E-03  8112   0.171E-02 0.483E-04
CGA:  14    -0.319905732324E+03   -0.31499E-03   -0.31427E-03  8112   0.109E-02 0.127E-04
CGA:  15    -0.319905868078E+03   -0.13575E-03   -0.13588E-03  8112   0.651E-03 0.653E-05
CGA:  16    -0.319905935667E+03   -0.67590E-04   -0.67722E-04  8112   0.259E-03 0.308E-05
CGA:  17    -0.319905974683E+03   -0.39016E-04   -0.38979E-04  8112   0.992E-04 0.218E-05
CGA:  18    -0.319905989880E+03   -0.15197E-04   -0.15178E-04  8112   0.400E-04 0.107E-05
CGA:  19    -0.319905996702E+03   -0.68215E-05   -0.68130E-05  8112   0.185E-04 0.237E-06
  73 F= -.31990600E+03 E0= -.31990172E+03  d E =-.984570E-02  mag=    44.0000
       N       E                     dE             d eps       ncg     rms          ort
SDA:   1    -0.309485709572E+03    0.10420E+02    0.00000E+00  8112   0.268E+02 0.000E+00
CGA:   2    -0.316194057935E+03   -0.67083E+01   -0.67568E+01  8112   0.235E+02-0.639E+00
CGA:   3    -0.318523939170E+03   -0.23299E+01   -0.23260E+01  8112   0.737E+01 0.722E+00
CGA:   4    -0.319445658724E+03   -0.92172E+00   -0.91952E+00  8112   0.308E+01-0.449E-01
CGA:   5    -0.319714388396E+03   -0.26873E+00   -0.26864E+00  8112   0.914E+00-0.130E-01
CGA:   6    -0.319835911970E+03   -0.12152E+00   -0.12151E+00  8112   0.290E+00-0.163E-02
CGA:   7    -0.319878210147E+03   -0.42298E-01   -0.42274E-01  8112   0.106E+00 0.153E-02
CGA:   8    -0.319891529198E+03   -0.13319E-01   -0.13319E-01  8112   0.618E-01-0.157E-04
CGA:   9    -0.319897519721E+03   -0.59905E-02   -0.60087E-02  8112   0.228E-01 0.343E-04
CGA:  10    -0.319900833292E+03   -0.33136E-02   -0.33121E-02  8112   0.105E-01 0.903E-04
CGA:  11    -0.319902448329E+03   -0.16150E-02   -0.16138E-02  8112   0.522E-02 0.513E-04
CGA:  12    -0.319903208042E+03   -0.75971E-03   -0.75931E-03  8112   0.375E-02 0.301E-04
CGA:  13    -0.319903650334E+03   -0.44229E-03   -0.44274E-03  8112   0.185E-02 0.103E-04
CGA:  14    -0.319903905977E+03   -0.25564E-03   -0.25562E-03  8112   0.969E-03 0.577E-05
CGA:  15    -0.319904053991E+03   -0.14801E-03   -0.14789E-03  8112   0.368E-03 0.633E-05
CGA:  16    -0.319904107726E+03   -0.53735E-04   -0.53705E-04  8112   0.259E-03 0.347E-05
CGA:  17    -0.319904133424E+03   -0.25698E-04   -0.25784E-04  8112   0.800E-04 0.193E-05
CGA:  18    -0.319904146121E+03   -0.12697E-04   -0.12680E-04  8112   0.360E-04 0.730E-06
CGA:  19    -0.319904151457E+03   -0.53367E-05   -0.53332E-05  8112   0.200E-04 0.297E-06
  74 F= -.31990415E+03 E0= -.31989983E+03  d E =0.184524E-02  mag=    44.0000
       N       E                     dE             d eps       ncg     rms          ort
SDA:   1    -0.307879708572E+03    0.12024E+02    0.00000E+00  8112   0.305E+02 0.000E+00
CGA:   2    -0.315741106532E+03   -0.78614E+01   -0.79982E+01  8112   0.293E+02-0.120E+01
CGA:   3    -0.318251007116E+03   -0.25099E+01   -0.25962E+01  8112   0.854E+01 0.397E+00
CGA:   4    -0.319355678859E+03   -0.11047E+01   -0.11025E+01  8112   0.332E+01-0.797E-01
CGA:   5    -0.319656784868E+03   -0.30111E+00   -0.30060E+00  8112   0.991E+00-0.600E-02
CGA:   6    -0.319783072688E+03   -0.12629E+00   -0.12623E+00  8112   0.383E+00-0.271E-02
CGA:   7    -0.319826197913E+03   -0.43125E-01   -0.43243E-01  8112   0.174E+00 0.162E-02
CGA:   8    -0.319844980455E+03   -0.18783E-01   -0.18811E-01  8112   0.687E-01 0.231E-03
CGA:   9    -0.319853717541E+03   -0.87371E-02   -0.87392E-02  8112   0.275E-01 0.135E-03
CGA:  10    -0.319857404109E+03   -0.36866E-02   -0.36865E-02  8112   0.172E-01 0.459E-04
CGA:  11    -0.319859302874E+03   -0.18988E-02   -0.19019E-02  8112   0.711E-02 0.502E-04
CGA:  12    -0.319860513542E+03   -0.12107E-02   -0.12089E-02  8112   0.434E-02 0.382E-04
CGA:  13    -0.319861057584E+03   -0.54404E-03   -0.54428E-03  8112   0.280E-02 0.153E-04
CGA:  14    -0.319861428641E+03   -0.37106E-03   -0.37107E-03  8112   0.123E-02 0.785E-05
CGA:  15    -0.319861621792E+03   -0.19315E-03   -0.19295E-03  8112   0.689E-03 0.721E-05
CGA:  16    -0.319861696533E+03   -0.74741E-04   -0.74842E-04  8112   0.333E-03 0.320E-05
CGA:  17    -0.319861744234E+03   -0.47701E-04   -0.47671E-04  8112   0.120E-03 0.313E-05
CGA:  18    -0.319861759685E+03   -0.15451E-04   -0.15458E-04  8112   0.705E-04 0.106E-05
CGA:  19    -0.319861768606E+03   -0.89216E-05   -0.89262E-05  8112   0.310E-04 0.514E-06
  75 F= -.31986177E+03 E0= -.31985752E+03  d E =0.423829E-01  mag=    44.0000
       N       E                     dE             d eps       ncg     rms          ort
SDA:   1    -0.309402571969E+03    0.10459E+02    0.00000E+00  8112   0.270E+02 0.000E+00
CGA:   2    -0.316078214112E+03   -0.66756E+01   -0.66799E+01  8112   0.245E+02 0.120E+00
CGA:   3    -0.318481259398E+03   -0.24030E+01   -0.22734E+01  8112   0.711E+01 0.166E+00
CGA:   4    -0.319492691345E+03   -0.10114E+01   -0.10117E+01  8112   0.265E+01-0.317E-01
CGA:   5    -0.319723044664E+03   -0.23035E+00   -0.22080E+00  8112   0.865E+00 0.386E-01
CGA:   6    -0.319840038049E+03   -0.11699E+00   -0.11701E+00  8112   0.267E+00 0.724E-02
CGA:   7    -0.319879125577E+03   -0.39088E-01   -0.39105E-01  8112   0.106E+00-0.905E-03
CGA:   8    -0.319892618410E+03   -0.13493E-01   -0.13505E-01  8112   0.537E-01 0.861E-03
CGA:   9    -0.319897550628E+03   -0.49322E-02   -0.49522E-02  8112   0.234E-01 0.198E-04
CGA:  10    -0.319901284716E+03   -0.37341E-02   -0.37302E-02  8112   0.753E-02 0.101E-03
CGA:  11    -0.319902740756E+03   -0.14560E-02   -0.14526E-02  8112   0.632E-02 0.506E-04
CGA:  12    -0.319903389614E+03   -0.64886E-03   -0.65087E-03  8112   0.315E-02 0.178E-04
CGA:  13    -0.319903861847E+03   -0.47223E-03   -0.47197E-03  8112   0.161E-02 0.138E-04
CGA:  14    -0.319904123247E+03   -0.26140E-03   -0.26118E-03  8112   0.711E-03 0.765E-05
CGA:  15    -0.319904216701E+03   -0.93454E-04   -0.93484E-04  8112   0.483E-03 0.426E-05
CGA:  16    -0.319904270400E+03   -0.53699E-04   -0.53793E-04  8112   0.162E-03 0.302E-05
CGA:  17    -0.319904293465E+03   -0.23066E-04   -0.23055E-04  8112   0.660E-04 0.161E-05
CGA:  18    -0.319904302908E+03   -0.94427E-05   -0.94383E-05  8112   0.365E-04 0.684E-06
  76 F= -.31990430E+03 E0= -.31990003E+03  d E =-.425343E-01  mag=    44.0000
       N       E                     dE             d eps       ncg     rms          ort
SDA:   1    -0.318663484184E+03    0.12408E+01    0.00000E+00  8112   0.331E+01 0.000E+00
CGA:   2    -0.319452973136E+03   -0.78949E+00   -0.78911E+00  8112   0.190E+01 0.361E-02
CGA:   3    -0.319730139106E+03   -0.27717E+00   -0.27730E+00  8112   0.119E+01-0.129E-01
CGA:   4    -0.319827802851E+03   -0.97664E-01   -0.97930E-01  8112   0.322E+00-0.369E-02
CGA:   5    -0.319871304494E+03   -0.43502E-01   -0.43502E-01  8112   0.830E-01 0.141E-03
CGA:   6    -0.319883358488E+03   -0.12054E-01   -0.12055E-01  8112   0.396E-01-0.551E-04
CGA:   7    -0.319887286395E+03   -0.39279E-02   -0.39294E-02  8112   0.158E-01 0.108E-05
CGA:   8    -0.319889230782E+03   -0.19444E-02   -0.19450E-02  8112   0.704E-02 0.189E-04
CGA:   9    -0.319890119083E+03   -0.88830E-03   -0.88832E-03  8112   0.258E-02 0.376E-05
CGA:  10    -0.319890516310E+03   -0.39723E-03   -0.39711E-03  8112   0.156E-02 0.530E-05
CGA:  11    -0.319890690253E+03   -0.17394E-03   -0.17400E-03  8112   0.741E-03 0.180E-05
CGA:  12    -0.319890790776E+03   -0.10052E-03   -0.10052E-03  8112   0.393E-03 0.977E-06
CGA:  13    -0.319890848662E+03   -0.57886E-04   -0.57880E-04  8112   0.173E-03 0.449E-06
CGA:  14    -0.319890874689E+03   -0.26028E-04   -0.26021E-04  8112   0.133E-03 0.447E-06
CGA:  15    -0.319890889342E+03   -0.14652E-04   -0.14657E-04  8112   0.497E-04 0.164E-06
CGA:  16    -0.319890896823E+03   -0.74811E-05   -0.74812E-05  8112   0.235E-04-0.207E-07
  77 F= -.31989090E+03 E0= -.31988654E+03  d E =0.134061E-01  mag=    44.0000
       N       E                     dE             d eps       ncg     rms          ort
SDA:   1    -0.318141580346E+03    0.17493E+01    0.00000E+00  8112   0.460E+01 0.000E+00
CGA:   2    -0.319250780147E+03   -0.11092E+01   -0.11157E+01  8112   0.384E+01-0.568E-01
CGA:   3    -0.319633577762E+03   -0.38280E+00   -0.38617E+00  8112   0.160E+01 0.141E-02
CGA:   4    -0.319807855126E+03   -0.17428E+00   -0.17394E+00  8112   0.522E+00-0.361E-02
CGA:   5    -0.319864906623E+03   -0.57051E-01   -0.56952E-01  8112   0.148E+00-0.644E-03
CGA:   6    -0.319884405231E+03   -0.19499E-01   -0.19495E-01  8112   0.608E-01-0.361E-03
CGA:   7    -0.319891130480E+03   -0.67252E-02   -0.67327E-02  8112   0.251E-01 0.888E-04
CGA:   8    -0.319893980484E+03   -0.28500E-02   -0.28506E-02  8112   0.111E-01 0.858E-05
CGA:   9    -0.319895378001E+03   -0.13975E-02   -0.13975E-02  8112   0.365E-02 0.843E-06
CGA:  10    -0.319895968953E+03   -0.59095E-03   -0.59088E-03  8112   0.240E-02 0.206E-05
CGA:  11    -0.319896208460E+03   -0.23951E-03   -0.23966E-03  8112   0.101E-02 0.134E-05
CGA:  12    -0.319896383510E+03   -0.17505E-03   -0.17502E-03  8112   0.548E-03 0.761E-06
CGA:  13    -0.319896457792E+03   -0.74282E-04   -0.74282E-04  8112   0.320E-03 0.902E-06
CGA:  14    -0.319896500314E+03   -0.42522E-04   -0.42524E-04  8112   0.191E-03 0.883E-06
CGA:  15    -0.319896524664E+03   -0.24350E-04   -0.24356E-04  8112   0.760E-04 0.763E-06
CGA:  16    -0.319896535669E+03   -0.11005E-04   -0.11001E-04  8112   0.410E-04 0.383E-06
CGA:  17    -0.319896540826E+03   -0.51571E-05   -0.51602E-05  8112   0.186E-04 0.311E-06
  78 F= -.31989654E+03 E0= -.31989223E+03  d E =-.564400E-02  mag=    44.0000
       N       E                     dE             d eps       ncg     rms          ort
SDA:   1    -0.319643588773E+03    0.25295E+00    0.00000E+00  8112   0.636E+00 0.000E+00
CGA:   2    -0.319815558470E+03   -0.17197E+00   -0.17173E+00  8112   0.518E+00 0.134E-02
CGA:   3    -0.319872351028E+03   -0.56793E-01   -0.56820E-01  8112   0.136E+00 0.549E-03
CGA:   4    -0.319892386334E+03   -0.20035E-01   -0.20037E-01  8112   0.352E-01-0.992E-04
CGA:   5    -0.319896524346E+03   -0.41380E-02   -0.41411E-02  8112   0.160E-01 0.443E-04
CGA:   6    -0.319898083012E+03   -0.15587E-02   -0.15581E-02  8112   0.661E-02-0.456E-05
CGA:   7    -0.319898873702E+03   -0.79069E-03   -0.79057E-03  8112   0.174E-02-0.322E-05
CGA:   8    -0.319899168559E+03   -0.29486E-03   -0.29473E-03  8112   0.619E-03 0.332E-05
CGA:   9    -0.319899256541E+03   -0.87982E-04   -0.87979E-04  8112   0.365E-03 0.517E-06
CGA:  10    -0.319899298088E+03   -0.41548E-04   -0.41550E-04  8112   0.189E-03 0.120E-06
CGA:  11    -0.319899321156E+03   -0.23068E-04   -0.23073E-04  8112   0.873E-04 0.379E-06
CGA:  12    -0.319899337260E+03   -0.16104E-04   -0.16067E-04  8112   0.465E-04 0.751E-06
CGA:  13    -0.319899344271E+03   -0.70113E-05   -0.70097E-05  8112   0.272E-04 0.143E-06
  79 F= -.31989934E+03 E0= -.31989504E+03  d E =-.280345E-02  mag=    44.0000
