       N       E                     dE             d eps       ncg     rms          ort
DAV:   1     0.714578255093E+04    0.71458E+04   -0.27554E+05  8528   0.167E+03
DAV:   2     0.746385976416E+03   -0.63994E+04   -0.60647E+04  8528   0.503E+02
DAV:   3    -0.360458913667E+03   -0.11068E+04   -0.10824E+04  8528   0.206E+02
DAV:   4    -0.425130541727E+03   -0.64672E+02   -0.62461E+02  8528   0.510E+01
DAV:   5    -0.430371618554E+03   -0.52411E+01   -0.50998E+01  8528   0.115E+01
SDA:   6    -0.150000586935E+03    0.28037E+03   -0.50998E+01  8528   0.221E+04 0.000E+00
CGA:   7    -0.233494536234E+03   -0.83494E+02   -0.11648E+03  8528   0.371E+04-0.128E+04
CGA:   8    -0.184730048988E+03    0.48764E+02   -0.17564E+03  8528   0.538E+04-0.322E+04
CGA:   9     0.281321388680E+02    0.21286E+03   -0.31579E+03  8528   0.143E+05-0.848E+04
CGA:  10     0.127006718445E+03    0.98875E+02   -0.76112E+03  8528   0.212E+05-0.132E+05
CGA:  11     0.146358989542E+03    0.19352E+02   -0.10149E+04  8528   0.280E+05-0.177E+05
CGA:  12     0.186385924174E+03    0.40027E+02   -0.16368E+04  8528   0.634E+04-0.401E+03
CGA:  13    -0.227016230779E+03   -0.41340E+03   -0.17464E+03  8528   0.221E+04-0.365E+03
CGA:  14    -0.344652163307E+03   -0.11764E+03   -0.66751E+02  8528   0.103E+04 0.624E+03
CGA:  15    -0.257837696912E+03    0.86814E+02   -0.58296E+02  8528   0.413E+04-0.158E+04
CGA:  16    -0.279913851774E+03   -0.22076E+02   -0.22342E+03  8528   0.201E+04-0.140E+04
CGA:  17    -0.311154470253E+03   -0.31241E+02   -0.20920E+02  8528   0.401E+04 0.163E+04
CGA:  18    -0.296534101013E+03    0.14620E+02   -0.16306E+03  8528   0.457E+04-0.142E+04
CGA:  19    -0.280240232111E+03    0.16294E+02   -0.11246E+03  8528   0.336E+04-0.877E+03
CGA:  20    -0.205551641068E+03    0.74689E+02   -0.78714E+02  8528   0.968E+04-0.523E+04
CGA:  21    -0.698018895361E+01    0.19857E+03   -0.45892E+03  8528   0.332E+04-0.176E+04
CGA:  22    -0.305237861746E+03   -0.29826E+03   -0.54379E+02  8528   0.495E+04 0.138E+05
CGA:  23    -0.170837847243E+03    0.13440E+03   -0.13495E+03  8528   0.797E+04-0.490E+04
CGA:  24     0.179175061717E+02    0.18876E+03   -0.32326E+03  8528   0.401E+04-0.213E+04
CGA:  25    -0.223754776109E+03   -0.24167E+03   -0.62357E+02  8528   0.885E+04 0.920E+04
CGA:  26    -0.956851773722E+01    0.21419E+03   -0.25581E+03  8528   0.128E+05-0.679E+04
CGA:  27     0.109688885086E+03    0.11926E+03   -0.47577E+03  8528   0.769E+04-0.607E+04
CGA:  28    -0.300807128091E+03   -0.41050E+03   -0.91550E+02  8528   0.266E+04 0.895E+04
CGA:  29    -0.303848713072E+03   -0.30416E+01   -0.50830E+02  8528   0.702E+04-0.441E+04
CGA:  30    -0.974871488037E+02    0.20636E+03   -0.17159E+03  8528   0.147E+05-0.823E+04
CGA:  31     0.891956912724E+01    0.10641E+03   -0.42033E+03  8528   0.676E+04-0.455E+04
CGA:  32    -0.284142511726E+03   -0.29306E+03   -0.93422E+02  8528   0.525E+04-0.120E+05
CGA:  33    -0.210317890284E+03    0.73825E+02   -0.89841E+02  8528   0.199E+05-0.154E+05
CGA:  34     0.557584828553E+02    0.26608E+03   -0.60337E+03  8528   0.175E+05-0.889E+04
CGA:  35    -0.213608048084E+03   -0.26937E+03   -0.21286E+03  8528   0.448E+04-0.672E+04
CGA:  36    -0.349392049417E+03   -0.13578E+03   -0.27208E+02  8528   0.114E+04-0.148E+04
CGA:  37    -0.350079266170E+03   -0.68722E+00   -0.70852E+01  8528   0.322E+04-0.855E+03
CGA:  38    -0.244436476577E+03    0.10564E+03   -0.54798E+02  8528   0.224E+05-0.593E+04
CGA:  39     0.136429691356E+02    0.25808E+03   -0.56191E+03  8528   0.190E+05-0.860E+04
CGA:  40    -0.180953809214E+03   -0.19460E+03   -0.21249E+03  8528   0.607E+04-0.805E+04
CGA:  41    -0.320530962303E+03   -0.13958E+03   -0.35180E+02  8528   0.339E+04-0.795E+04
CGA:  42    -0.244986467231E+03    0.75544E+02   -0.46692E+02  8528   0.118E+05-0.266E+04
CGA:  43     0.722138719030E+01    0.25221E+03   -0.19872E+03  8528   0.349E+05-0.103E+05
CGA:  44     0.123357290725E+02    0.51143E+01   -0.80707E+03  8528   0.111E+05-0.102E+05
CGA:  45    -0.229197023029E+03   -0.24153E+03   -0.14388E+03  8528   0.140E+05-0.231E+05
CGA:  46    -0.183390107860E+03    0.45807E+02   -0.22900E+03  8528   0.427E+04-0.390E+04
CGA:  47    -0.301177422307E+03   -0.11779E+03   -0.28335E+02  8528   0.164E+05-0.136E+05
CGA:  48    -0.642007990706E+02    0.23698E+03   -0.29180E+03  8528   0.172E+05-0.655E+04
CGA:  49    -0.106926124228E+03   -0.42725E+02   -0.15438E+03  8528   0.235E+05-0.215E+05
CGA:  50     0.306792243033E+02    0.13761E+03   -0.44270E+03  8528   0.284E+04-0.216E+04
CGA:  51    -0.315956152388E+03   -0.34664E+03   -0.19895E+02  8528   0.374E+04 0.435E+04
CGA:  52    -0.290030677672E+03    0.25925E+02   -0.39519E+02  8528   0.217E+05-0.552E+04
CGA:  53    -0.196421843443E+02    0.27039E+03   -0.32710E+03  8528   0.255E+05-0.112E+05
CGA:  54     0.535149684002E+02    0.73157E+02   -0.35907E+03  8528   0.829E+04-0.465E+04
CGA:  55    -0.144237313070E+03   -0.19775E+03   -0.86396E+02  8528   0.408E+04-0.506E+04
CGA:  56    -0.353568577670E+03   -0.20933E+03   -0.21200E+02  8528   0.150E+04 0.913E+04
CGA:  57    -0.358697972037E+03   -0.51294E+01   -0.64401E+01  8528   0.844E+03-0.297E+03
CGA:  58    -0.365505587826E+03   -0.68076E+01   -0.21002E+01  8528   0.108E+04 0.152E+04
CGA:  59    -0.373135571070E+03   -0.76300E+01   -0.53361E+01  8528   0.560E+03 0.331E+03
CGA:  60    -0.375617610802E+03   -0.24820E+01   -0.36545E+01  8528   0.141E+03-0.308E+03
CGA:  61    -0.376193195320E+03   -0.57558E+00   -0.75261E+00  8528   0.729E+02-0.295E+02
CGA:  62    -0.376410951749E+03   -0.21776E+00   -0.23078E+00  8528   0.283E+02-0.317E+01
CGA:  63    -0.376750989957E+03   -0.34004E+00   -0.37218E+00  8528   0.622E+02-0.957E+00
CGA:  64    -0.377318493030E+03   -0.56750E+00   -0.56524E+00  8528   0.975E+02 0.150E+01
CGA:  65    -0.377875376488E+03   -0.55688E+00   -0.66737E+00  8528   0.598E+02-0.221E+02
CGA:  66    -0.378211829692E+03   -0.33645E+00   -0.43665E+00  8528   0.884E+02-0.584E+01
CGA:  67    -0.378839600596E+03   -0.62777E+00   -0.84588E+00  8528   0.901E+02-0.113E+02
CGA:  68    -0.379982941483E+03   -0.11433E+01   -0.13099E+01  8528   0.261E+02 0.834E+01
CGA:  69    -0.380304038971E+03   -0.32110E+00   -0.30248E+00  8528   0.211E+02 0.840E+00
CGA:  70    -0.380513188451E+03   -0.20915E+00   -0.23608E+00  8528   0.554E+01-0.105E+01
CGA:  71    -0.380610903495E+03   -0.97715E-01   -0.99130E-01  8528   0.115E+02 0.357E+00
CGA:  72    -0.380832378604E+03   -0.22148E+00   -0.22022E+00  8528   0.659E+01-0.202E+00
CGA:  73    -0.381047017715E+03   -0.21464E+00   -0.19322E+00  8528   0.285E+01 0.171E+01
CGA:  74    -0.381128397782E+03   -0.81380E-01   -0.81006E-01  8528   0.236E+01 0.120E+00
CGA:  75    -0.381182807625E+03   -0.54410E-01   -0.54081E-01  8528   0.256E+01 0.156E+00
CGA:  76    -0.381275253536E+03   -0.92446E-01   -0.90038E-01  8528   0.224E+01 0.165E+00
CGA:  77    -0.381349453141E+03   -0.74200E-01   -0.71952E-01  8528   0.174E+01 0.200E+00
CGA:  78    -0.381416790414E+03   -0.67337E-01   -0.65890E-01  8528   0.256E+01 0.947E-01
CGA:  79    -0.381485374802E+03   -0.68584E-01   -0.67812E-01  8528   0.766E+00 0.181E+00
CGA:  80    -0.381511137195E+03   -0.25762E-01   -0.25404E-01  8528   0.638E+00 0.325E-01
CGA:  81    -0.381532227900E+03   -0.21091E-01   -0.20852E-01  8528   0.757E+00 0.216E-01
CGA:  82    -0.381569417041E+03   -0.37189E-01   -0.36172E-01  8528   0.592E+00 0.436E-01
CGA:  83    -0.381587250579E+03   -0.17834E-01   -0.17723E-01  8528   0.378E+00 0.186E-01
CGA:  84    -0.381598784978E+03   -0.11534E-01   -0.11474E-01  8528   0.300E+00 0.832E-02
CGA:  85    -0.381613232417E+03   -0.14447E-01   -0.14295E-01  8528   0.252E+00 0.658E-02
CGA:  86    -0.381620117296E+03   -0.68849E-02   -0.68822E-02  8528   0.177E+00 0.214E-02
CGA:  87    -0.381628488231E+03   -0.83709E-02   -0.83584E-02  8528   0.186E+00 0.449E-03
CGA:  88    -0.381634773555E+03   -0.62853E-02   -0.62645E-02  8528   0.133E+00 0.208E-02
CGA:  89    -0.381638688726E+03   -0.39152E-02   -0.39160E-02  8528   0.709E-01-0.522E-03
CGA:  90    -0.381641956347E+03   -0.32676E-02   -0.32535E-02  8528   0.105E+00 0.648E-03
SDA:  91    -0.381646083702E+03   -0.41274E-02   -0.41439E-02  8528   0.823E-01-0.139E-02
CGA:  92    -0.381647166605E+03   -0.10829E-02   -0.10827E-02  8528   0.181E-01 0.286E-04
CGA:  93    -0.381647945273E+03   -0.77867E-03   -0.77695E-03  8528   0.160E-01 0.892E-04
CGA:  94    -0.381650178294E+03   -0.22330E-02   -0.22319E-02  8528   0.372E-01 0.240E-04
CGA:  95    -0.381652715019E+03   -0.25367E-02   -0.25241E-02  8528   0.260E-01 0.370E-03
CGA:  96    -0.381654402621E+03   -0.16876E-02   -0.16867E-02  8528   0.191E-01 0.180E-04
CGA:  97    -0.381655598349E+03   -0.11957E-02   -0.11907E-02  8528   0.383E-01 0.178E-03
CGA:  98    -0.381656405690E+03   -0.80734E-03   -0.79778E-03  8528   0.149E-01 0.113E-03
CGA:  99    -0.381657453993E+03   -0.10483E-02   -0.10509E-02  8528   0.823E-02-0.816E-04
CGA: 100    -0.381657794409E+03   -0.34042E-03   -0.34054E-03  8528   0.678E-02-0.512E-04
CGA: 101    -0.381658026397E+03   -0.23199E-03   -0.23205E-03  8528   0.108E-01-0.775E-05
CGA: 102    -0.381658529334E+03   -0.50294E-03   -0.50398E-03  8528   0.492E-02-0.114E-03
CGA: 103    -0.381658825113E+03   -0.29578E-03   -0.29506E-03  8528   0.539E-02 0.278E-04
CGA: 104    -0.381658991527E+03   -0.16641E-03   -0.16609E-03  8528   0.693E-02-0.757E-05
CGA: 105    -0.381659278921E+03   -0.28739E-03   -0.28727E-03  8528   0.299E-02 0.598E-04
CGA: 106    -0.381659494022E+03   -0.21510E-03   -0.21342E-03  8528   0.376E-02 0.532E-04
CGA: 107    -0.381659660060E+03   -0.16604E-03   -0.16592E-03  8528   0.766E-02 0.560E-04
CGA: 108    -0.381659934757E+03   -0.27470E-03   -0.27444E-03  8528   0.325E-02 0.250E-04
CGA: 109    -0.381660084653E+03   -0.14990E-03   -0.14964E-03  8528   0.214E-02 0.499E-04
CGA: 110    -0.381660207204E+03   -0.12255E-03   -0.12208E-03  8528   0.568E-02 0.324E-04
CGA: 111    -0.381660389191E+03   -0.18199E-03   -0.18321E-03  8528   0.232E-02 0.679E-04
CGA: 112    -0.381660552866E+03   -0.16367E-03   -0.16225E-03  8528   0.198E-02 0.511E-04
CGA: 113    -0.381660614142E+03   -0.61276E-04   -0.61622E-04  8528   0.260E-02 0.194E-04
CGA: 114    -0.381660758085E+03   -0.14394E-03   -0.14340E-03  8528   0.347E-02 0.413E-04
CGA: 115    -0.381661122296E+03   -0.36421E-03   -0.35582E-03  8528   0.592E-02 0.150E-03
CGA: 116    -0.381661317758E+03   -0.19546E-03   -0.19404E-03  8528   0.704E-02 0.246E-04
CGA: 117    -0.381661591042E+03   -0.27328E-03   -0.27499E-03  8528   0.579E-02 0.121E-03
CGA: 118    -0.381662499770E+03   -0.90873E-03   -0.10952E-02  8528   0.265E-01-0.228E-02
CGA: 119    -0.381662767524E+03   -0.26775E-03   -0.22576E-03  8528   0.219E-01 0.291E-02
CGA: 120    -0.381663164686E+03   -0.39716E-03   -0.43517E-03  8528   0.115E-01-0.110E-02
CGA: 121    -0.381663467970E+03   -0.30328E-03   -0.29379E-03  8528   0.117E-01 0.197E-03
SDA: 122    -0.381663804360E+03   -0.33639E-03   -0.32404E-03  8528   0.160E-01 0.198E-03
CGA: 123    -0.381664313937E+03   -0.50958E-03   -0.50985E-03  8528   0.194E-01 0.253E-04
CGA: 124    -0.381665275813E+03   -0.96188E-03   -0.96201E-03  8528   0.209E-01 0.407E-07
CGA: 125    -0.381666984810E+03   -0.17090E-02   -0.16930E-02  8528   0.233E-01 0.416E-03
CGA: 126    -0.381668332693E+03   -0.13479E-02   -0.13497E-02  8528   0.920E-02-0.993E-04
CGA: 127    -0.381668928809E+03   -0.59612E-03   -0.59450E-03  8528   0.209E-01 0.837E-04
CGA: 128    -0.381669589050E+03   -0.66024E-03   -0.65866E-03  8528   0.131E-01 0.686E-04
CGA: 129    -0.381670793084E+03   -0.12040E-02   -0.11997E-02  8528   0.101E-01 0.998E-04
CGA: 130    -0.381671471386E+03   -0.67830E-03   -0.67999E-03  8528   0.105E-01-0.635E-04
CGA: 131    -0.381672002164E+03   -0.53078E-03   -0.53077E-03  8528   0.148E-01 0.246E-05
CGA: 132    -0.381672476215E+03   -0.47405E-03   -0.47290E-03  8528   0.121E-01 0.384E-04
CGA: 133    -0.381673286161E+03   -0.80995E-03   -0.81550E-03  8528   0.634E-02-0.230E-03
CGA: 134    -0.381673846970E+03   -0.56081E-03   -0.55953E-03  8528   0.401E-02 0.262E-04
CGA: 135    -0.381674151283E+03   -0.30431E-03   -0.30211E-03  8528   0.853E-02 0.822E-04
CGA: 136    -0.381674425491E+03   -0.27421E-03   -0.26558E-03  8528   0.688E-02 0.138E-03
CGA: 137    -0.381674795823E+03   -0.37033E-03   -0.37032E-03  8528   0.441E-02 0.107E-03
CGA: 138    -0.381674993867E+03   -0.19804E-03   -0.19909E-03  8528   0.333E-02 0.518E-04
CGA: 139    -0.381675088562E+03   -0.94695E-04   -0.94802E-04  8528   0.298E-02 0.505E-05
CGA: 140    -0.381675284374E+03   -0.19581E-03   -0.19506E-03  8528   0.294E-02 0.389E-04
CGA: 141    -0.381675534824E+03   -0.25045E-03   -0.25291E-03  8528   0.477E-02-0.822E-04
CGA: 142    -0.381675622753E+03   -0.87929E-04   -0.90417E-04  8528   0.142E-02-0.939E-04
CGA: 143    -0.381675717786E+03   -0.95032E-04   -0.95220E-04  8528   0.118E-02-0.343E-05
CGA: 144    -0.381675758424E+03   -0.40638E-04   -0.40548E-04  8528   0.136E-02 0.153E-04
CGA: 145    -0.381675810579E+03   -0.52155E-04   -0.52612E-04  8528   0.104E-02 0.225E-04
CGA: 146    -0.381675861654E+03   -0.51075E-04   -0.51121E-04  8528   0.633E-03 0.182E-04
CGA: 147    -0.381675880539E+03   -0.18886E-04   -0.19016E-04  8528   0.597E-03 0.612E-05
CGA: 148    -0.381675902509E+03   -0.21970E-04   -0.22000E-04  8528   0.258E-03 0.286E-05
CGA: 149    -0.381675929481E+03   -0.26972E-04   -0.27156E-04  8528   0.987E-03-0.353E-05
CGA: 150    -0.381675954218E+03   -0.24736E-04   -0.25039E-04  8528   0.364E-03-0.793E-05
CGA: 151    -0.381675974815E+03   -0.20597E-04   -0.20632E-04  8528   0.241E-03-0.538E-05
CGA: 152    -0.381675981876E+03   -0.70615E-05   -0.69920E-05  8528   0.322E-03-0.242E-05
SDA: 153    -0.381676016753E+03   -0.34877E-04   -0.35446E-04  8528   0.387E-03-0.962E-05
CGA: 154    -0.381676029721E+03   -0.12968E-04   -0.13022E-04  8528   0.378E-03 0.243E-05
CGA: 155    -0.381676041346E+03   -0.11625E-04   -0.11654E-04  8528   0.133E-03 0.110E-05
CGA: 156    -0.381676065480E+03   -0.24134E-04   -0.23676E-04  8528   0.276E-03 0.350E-05
CGA: 157    -0.381676086008E+03   -0.20527E-04   -0.20507E-04  8528   0.180E-03 0.115E-05
CGA: 158    -0.381676091972E+03   -0.59648E-05   -0.59372E-05  8528   0.160E-03-0.111E-05
   1 F= -.38167609E+03 E0= -.38165582E+03  d E =-.381676E+03  mag=    15.7774
       N       E                     dE             d eps       ncg     rms          ort
SDA:   1    -0.381699175444E+03   -0.23089E-01    0.00000E+00  8528   0.421E+00 0.000E+00
CGA:   2    -0.381705396273E+03   -0.62208E-02   -0.61597E-02  8528   0.388E-01 0.364E-02
CGA:   3    -0.381706276268E+03   -0.88000E-03   -0.88292E-03  8528   0.816E-02-0.531E-04
CGA:   4    -0.381706977651E+03   -0.70138E-03   -0.69483E-03  8528   0.693E-02 0.177E-03
CGA:   5    -0.381707825597E+03   -0.84795E-03   -0.84942E-03  8528   0.326E-02-0.239E-04
CGA:   6    -0.381707961292E+03   -0.13569E-03   -0.13556E-03  8528   0.342E-02-0.530E-05
CGA:   7    -0.381708046249E+03   -0.84957E-04   -0.85024E-04  8528   0.928E-03-0.196E-05
CGA:   8    -0.381708128148E+03   -0.81899E-04   -0.82267E-04  8528   0.948E-03-0.107E-04
CGA:   9    -0.381708176063E+03   -0.47916E-04   -0.47859E-04  8528   0.391E-03-0.967E-05
CGA:  10    -0.381708188117E+03   -0.12053E-04   -0.11954E-04  8528   0.180E-03-0.383E-05
CGA:  11    -0.381708192898E+03   -0.47815E-05   -0.47481E-05  8528   0.114E-03-0.123E-05
CGA:  12    -0.381708205227E+03   -0.12329E-04   -0.12696E-04  8528   0.100E-03-0.633E-05
CGA:  13    -0.381708210551E+03   -0.53240E-05   -0.53231E-05  8528   0.582E-04-0.141E-05
   2 F= -.38170821E+03 E0= -.38168792E+03  d E =-.321186E-01  mag=    15.7718
       N       E                     dE             d eps       ncg     rms          ort
SDA:   1    -0.381498432359E+03    0.20977E+00    0.00000E+00  8528   0.180E+02 0.000E+00
CGA:   2    -0.381726472559E+03   -0.22804E+00   -0.20231E+00  8528   0.380E+00 0.201E+01
CGA:   3    -0.381732620764E+03   -0.61482E-02   -0.58421E-02  8528   0.667E-01 0.182E-01
CGA:   4    -0.381734006207E+03   -0.13854E-02   -0.13670E-02  8528   0.102E-01 0.662E-03
CGA:   5    -0.381734315915E+03   -0.30971E-03   -0.31001E-03  8528   0.112E-01 0.512E-06
CGA:   6    -0.381734671398E+03   -0.35548E-03   -0.35559E-03  8528   0.821E-02 0.127E-04
CGA:   7    -0.381735156068E+03   -0.48467E-03   -0.48478E-03  8528   0.135E-01 0.121E-05
CGA:   8    -0.381735391707E+03   -0.23564E-03   -0.23557E-03  8528   0.222E-02 0.119E-04
CGA:   9    -0.381735481489E+03   -0.89783E-04   -0.89854E-04  8528   0.253E-02 0.524E-05
CGA:  10    -0.381735537560E+03   -0.56071E-04   -0.56602E-04  8528   0.114E-02-0.102E-04
CGA:  11    -0.381735600937E+03   -0.63377E-04   -0.63492E-04  8528   0.137E-02-0.102E-04
CGA:  12    -0.381735635780E+03   -0.34843E-04   -0.34621E-04  8528   0.923E-03-0.885E-05
CGA:  13    -0.381735662224E+03   -0.26444E-04   -0.26350E-04  8528   0.234E-03-0.672E-05
CGA:  14    -0.381735669407E+03   -0.71828E-05   -0.71601E-05  8528   0.229E-03-0.168E-05
   3 F= -.38173567E+03 E0= -.38171536E+03  d E =-.274589E-01  mag=    15.7707
       N       E                     dE             d eps       ncg     rms          ort
SDA:   1    -0.309821255554E+03    0.71914E+02    0.00000E+00  8528   0.893E+03 0.000E+00
CGA:   2    -0.321264429281E+03   -0.11443E+02   -0.18554E+02  8528   0.740E+03-0.327E+03
CGA:   3    -0.340665367745E+03   -0.19401E+02   -0.18376E+02  8528   0.748E+03-0.235E+03
CGA:   4    -0.366257614478E+03   -0.25592E+02   -0.24703E+02  8528   0.122E+03 0.824E+02
CGA:   5    -0.370196005867E+03   -0.39384E+01   -0.24469E+01  8528   0.444E+02 0.671E+02
CGA:   6    -0.373089196210E+03   -0.28932E+01   -0.27859E+01  8528   0.731E+02 0.247E+01
CGA:   7    -0.377232609831E+03   -0.41434E+01   -0.42840E+01  8528   0.165E+03-0.897E+01
CGA:   8    -0.379485410451E+03   -0.22528E+01   -0.21261E+01  8528   0.969E+02 0.765E+01
CGA:   9    -0.381398664710E+03   -0.19133E+01   -0.20910E+01  8528   0.894E+02-0.365E+01
CGA:  10    -0.382683350707E+03   -0.12847E+01   -0.10116E+01  8528   0.187E+02 0.178E+02
CGA:  11    -0.382942921044E+03   -0.25957E+00   -0.24348E+00  8528   0.126E+02 0.939E+00
CGA:  12    -0.383221218226E+03   -0.27830E+00   -0.26994E+00  8528   0.159E+02 0.452E+00
CGA:  13    -0.383427769877E+03   -0.20655E+00   -0.16373E+00  8528   0.132E+02 0.381E+01
CGA:  14    -0.383687321993E+03   -0.25955E+00   -0.27586E+00  8528   0.169E+02-0.403E+00
CGA:  15    -0.383875714949E+03   -0.18839E+00   -0.19593E+00  8528   0.126E+02-0.505E+00
CGA:  16    -0.384048470369E+03   -0.17276E+00   -0.19790E+00  8528   0.112E+02-0.722E+00
CGA:  17    -0.384156724930E+03   -0.10825E+00   -0.11835E+00  8528   0.308E+01-0.538E+00
CGA:  18    -0.384221146110E+03   -0.64421E-01   -0.62601E-01  8528   0.431E+01-0.355E-02
CGA:  19    -0.384289708797E+03   -0.68563E-01   -0.68438E-01  8528   0.241E+01 0.190E-01
CGA:  20    -0.384326722098E+03   -0.37013E-01   -0.38473E-01  8528   0.284E+01-0.382E-01
CGA:  21    -0.384431333020E+03   -0.10461E+00   -0.10605E+00  8528   0.488E+01-0.131E+00
CGA:  22    -0.384483897232E+03   -0.52564E-01   -0.53973E-01  8528   0.190E+01-0.104E+00
CGA:  23    -0.384516040918E+03   -0.32144E-01   -0.32828E-01  8528   0.196E+01-0.118E-01
CGA:  24    -0.384550126133E+03   -0.34085E-01   -0.36460E-01  8528   0.803E+00 0.735E-02
CGA:  25    -0.384570150316E+03   -0.20024E-01   -0.20053E-01  8528   0.114E+01 0.433E-02
CGA:  26    -0.384602319864E+03   -0.32170E-01   -0.32107E-01  8528   0.728E+00 0.554E-01
CGA:  27    -0.384643071207E+03   -0.40751E-01   -0.38689E-01  8528   0.126E+01 0.814E-01
CGA:  28    -0.384663788346E+03   -0.20717E-01   -0.19684E-01  8528   0.217E+00 0.403E-01
CGA:  29    -0.384675186729E+03   -0.11398E-01   -0.11475E-01  8528   0.277E+00-0.346E-02
CGA:  30    -0.384682103405E+03   -0.69167E-02   -0.69639E-02  8528   0.274E+00 0.489E-02
CGA:  31    -0.384691626079E+03   -0.95227E-02   -0.96560E-02  8528   0.250E+00-0.156E-01
CGA:  32    -0.384707722595E+03   -0.16097E-01   -0.17329E-01  8528   0.651E+00-0.337E-01
CGA:  33    -0.384717707947E+03   -0.99854E-02   -0.11065E-01  8528   0.186E+00-0.310E-02
CGA:  34    -0.384722306262E+03   -0.45983E-02   -0.46811E-02  8528   0.150E+00 0.430E-02
CGA:  35    -0.384726183802E+03   -0.38775E-02   -0.38758E-02  8528   0.857E-01-0.815E-04
SDA:  36    -0.384730984962E+03   -0.48012E-02   -0.48260E-02  8528   0.110E+00-0.933E-03
CGA:  37    -0.384734423668E+03   -0.34387E-02   -0.34389E-02  8528   0.731E-01 0.239E-03
CGA:  38    -0.384736144006E+03   -0.17203E-02   -0.17219E-02  8528   0.384E-01 0.360E-04
CGA:  39    -0.384739773814E+03   -0.36298E-02   -0.36905E-02  8528   0.704E-01-0.111E-02
CGA:  40    -0.384744116625E+03   -0.43428E-02   -0.43218E-02  8528   0.146E-01 0.671E-03
CGA:  41    -0.384745330536E+03   -0.12139E-02   -0.12197E-02  8528   0.173E-01-0.137E-03
CGA:  42    -0.384746821552E+03   -0.14910E-02   -0.14866E-02  8528   0.641E-01 0.104E-03
CGA:  43    -0.384748660248E+03   -0.18387E-02   -0.18188E-02  8528   0.256E-01-0.506E-04
CGA:  44    -0.384749921241E+03   -0.12610E-02   -0.12581E-02  8528   0.120E-01 0.226E-03
CGA:  45    -0.384750749567E+03   -0.82833E-03   -0.83447E-03  8528   0.191E-01-0.198E-03
CGA:  46    -0.384751424604E+03   -0.67504E-03   -0.67736E-03  8528   0.263E-01 0.159E-03
CGA:  47    -0.384752555420E+03   -0.11308E-02   -0.11319E-02  8528   0.134E-01-0.571E-03
CGA:  48    -0.384753570279E+03   -0.10149E-02   -0.99240E-03  8528   0.136E-01 0.622E-03
CGA:  49    -0.384753829965E+03   -0.25969E-03   -0.25484E-03  8528   0.501E-02 0.163E-03
CGA:  50    -0.384754301391E+03   -0.47143E-03   -0.46444E-03  8528   0.112E-01 0.146E-03
CGA:  51    -0.384754929856E+03   -0.62846E-03   -0.63315E-03  8528   0.157E-01-0.311E-03
CGA:  52    -0.384755253803E+03   -0.32395E-03   -0.33087E-03  8528   0.406E-02-0.157E-03
CGA:  53    -0.384755514159E+03   -0.26036E-03   -0.25975E-03  8528   0.404E-02 0.266E-04
CGA:  54    -0.384755997643E+03   -0.48348E-03   -0.47311E-03  8528   0.587E-02 0.151E-03
CGA:  55    -0.384756147529E+03   -0.14989E-03   -0.14985E-03  8528   0.430E-02 0.224E-04
CGA:  56    -0.384756294518E+03   -0.14699E-03   -0.14743E-03  8528   0.101E-02 0.195E-04
CGA:  57    -0.384756549926E+03   -0.25541E-03   -0.28217E-05  8528   0.234E-02-0.163E-03
CGA:  58    -0.384756615040E+03   -0.65114E-04   -0.64940E-04  8528   0.973E-03 0.230E-05
CGA:  59    -0.384756640948E+03   -0.25908E-04   -0.26026E-04  8528   0.783E-03-0.167E-05
CGA:  60    -0.384756681765E+03   -0.40817E-04   -0.40901E-04  8528   0.769E-03 0.345E-06
CGA:  61    -0.384756751714E+03   -0.69949E-04   -0.69873E-04  8528   0.890E-03 0.537E-05
CGA:  62    -0.384756777310E+03   -0.25596E-04   -0.25505E-04  8528   0.547E-03 0.341E-05
CGA:  63    -0.384756793940E+03   -0.16630E-04   -0.16719E-04  8528   0.343E-03 0.638E-06
CGA:  64    -0.384756817755E+03   -0.23816E-04   -0.23829E-04  8528   0.430E-03 0.209E-05
CGA:  65    -0.384756855851E+03   -0.38096E-04   -0.38013E-04  8528   0.600E-03 0.537E-05
CGA:  66    -0.384756870751E+03   -0.14899E-04   -0.14914E-04  8528   0.305E-03 0.198E-05
SDA:  67    -0.384756881242E+03   -0.10492E-04   -0.10533E-04  8528   0.169E-03 0.126E-05
CGA:  68    -0.384756887951E+03   -0.67088E-05   -0.66887E-05  8528   0.208E-03-0.108E-05
   4 F= -.38475689E+03 E0= -.38473597E+03  d E =-.302122E+01  mag=    15.7174
       N       E                     dE             d eps       ncg     rms          ort
SDA:   1    -0.379946356072E+03    0.48105E+01    0.00000E+00  8528   0.554E+02 0.000E+00
CGA:   2    -0.380850050399E+03   -0.90369E+00   -0.88335E+00  8528   0.184E+02 0.162E+01
CGA:   3    -0.382051246971E+03   -0.12012E+01   -0.11622E+01  8528   0.470E+02-0.492E+01
CGA:   4    -0.383114283325E+03   -0.10630E+01   -0.10731E+01  8528   0.733E+02 0.798E-01
CGA:   5    -0.384215880899E+03   -0.11016E+01   -0.10189E+01  8528   0.134E+02 0.414E+01
CGA:   6    -0.384388625586E+03   -0.17274E+00   -0.15767E+00  8528   0.566E+01 0.129E+01
CGA:   7    -0.384586518287E+03   -0.19789E+00   -0.18827E+00  8528   0.115E+02 0.158E+00
CGA:   8    -0.384772370058E+03   -0.18585E+00   -0.16001E+00  8528   0.582E+01 0.174E+01
CGA:   9    -0.384859995941E+03   -0.87626E-01   -0.87853E-01  8528   0.574E+01-0.193E-01
CGA:  10    -0.385026212492E+03   -0.16622E+00   -0.17225E+00  8528   0.103E+02-0.616E-01
CGA:  11    -0.385129014362E+03   -0.10280E+00   -0.11670E+00  8528   0.218E+01-0.102E+01
CGA:  12    -0.385153905167E+03   -0.24891E-01   -0.24222E-01  8528   0.147E+01 0.456E-01
CGA:  13    -0.385184803924E+03   -0.30899E-01   -0.30278E-01  8528   0.118E+01 0.207E-01
CGA:  14    -0.385198048351E+03   -0.13244E-01   -0.12885E-01  8528   0.430E+00 0.282E-01
CGA:  15    -0.385208447162E+03   -0.10399E-01   -0.10454E-01  8528   0.954E+00-0.847E-03
CGA:  16    -0.385234570494E+03   -0.26123E-01   -0.25457E-01  8528   0.118E+01 0.592E-02
CGA:  17    -0.385248141865E+03   -0.13571E-01   -0.14395E-01  8528   0.575E+00-0.525E-01
CGA:  18    -0.385258112225E+03   -0.99704E-02   -0.10480E-01  8528   0.554E+00-0.144E-01
CGA:  19    -0.385265136379E+03   -0.70242E-02   -0.78819E-02  8528   0.981E-01-0.398E-01
CGA:  20    -0.385266450895E+03   -0.13145E-02   -0.13282E-02  8528   0.742E-01-0.585E-03
CGA:  21    -0.385270629416E+03   -0.41785E-02   -0.41276E-02  8528   0.208E+00 0.225E-02
CGA:  22    -0.385275194757E+03   -0.45653E-02   -0.45766E-02  8528   0.139E+00-0.142E-03
CGA:  23    -0.385278916757E+03   -0.37220E-02   -0.37953E-02  8528   0.794E-01 0.109E-02
CGA:  24    -0.385280150623E+03   -0.12339E-02   -0.12413E-02  8528   0.328E-01-0.261E-03
CGA:  25    -0.385281541034E+03   -0.13904E-02   -0.13866E-02  8528   0.356E-01 0.383E-03
CGA:  26    -0.385282222910E+03   -0.68188E-03   -0.68343E-03  8528   0.241E-01-0.589E-04
CGA:  27    -0.385283942816E+03   -0.17199E-02   -0.17181E-02  8528   0.454E-01 0.406E-04
CGA:  28    -0.385284660059E+03   -0.71724E-03   -0.71829E-03  8528   0.138E-01-0.416E-04
CGA:  29    -0.385285226589E+03   -0.56653E-03   -0.56657E-03  8528   0.142E-01-0.573E-05
CGA:  30    -0.385285507418E+03   -0.28083E-03   -0.28038E-03  8528   0.912E-02 0.156E-04
CGA:  31    -0.385285957920E+03   -0.45050E-03   -0.44816E-03  8528   0.111E-01 0.142E-03
SDA:  32    -0.385286232767E+03   -0.27485E-03   -0.27546E-03  8528   0.121E-01 0.416E-04
CGA:  33    -0.385286507093E+03   -0.27433E-03   -0.27411E-03  8528   0.741E-02-0.134E-05
CGA:  34    -0.385286745397E+03   -0.23830E-03   -0.23830E-03  8528   0.321E-02 0.840E-05
CGA:  35    -0.385287006988E+03   -0.26159E-03   -0.25942E-03  8528   0.327E-02 0.485E-04
CGA:  36    -0.385287382694E+03   -0.37571E-03   -0.37457E-03  8528   0.415E-02 0.142E-04
CGA:  37    -0.385287504466E+03   -0.12177E-03   -0.12188E-03  8528   0.419E-02 0.831E-05
CGA:  38    -0.385287665177E+03   -0.16071E-03   -0.16071E-03  8528   0.147E-02 0.147E-06
CGA:  39    -0.385287887800E+03   -0.22262E-03   -0.22341E-03  8528   0.265E-02-0.706E-05
CGA:  40    -0.385288033335E+03   -0.14553E-03   -0.14553E-03  8528   0.287E-02 0.183E-06
CGA:  41    -0.385288087392E+03   -0.54057E-04   -0.54073E-04  8528   0.818E-03-0.362E-05
CGA:  42    -0.385288194579E+03   -0.10719E-03   -0.10602E-03  8528   0.793E-03 0.137E-04
CGA:  43    -0.385288288254E+03   -0.93674E-04   -0.92810E-04  8528   0.613E-03 0.132E-04
CGA:  44    -0.385288310282E+03   -0.22028E-04   -0.22059E-04  8528   0.603E-03 0.794E-06
CGA:  45    -0.385288326339E+03   -0.16057E-04   -0.16097E-04  8528   0.279E-03 0.767E-06
CGA:  46    -0.385288356623E+03   -0.30284E-04   -0.30715E-04  8528   0.364E-03-0.729E-05
CGA:  47    -0.385288382924E+03   -0.26301E-04   -0.26387E-04  8528   0.133E-03-0.404E-05
CGA:  48    -0.385288394900E+03   -0.11976E-04   -0.11948E-04  8528   0.256E-03 0.779E-06
CGA:  49    -0.385288402668E+03   -0.77681E-05   -0.77622E-05  8528   0.284E-03-0.215E-06
CGA:  50    -0.385288421493E+03   -0.18825E-04   -0.18799E-04  8528   0.634E-04 0.214E-05
CGA:  51    -0.385288429307E+03   -0.78136E-05   -0.77641E-05  8528   0.816E-04 0.735E-06
   5 F= -.38528843E+03 E0= -.38526807E+03  d E =-.531541E+00  mag=    15.7038
       N       E                     dE             d eps       ncg     rms          ort
SDA:   1    -0.341612950026E+03    0.43675E+02    0.00000E+00  8528   0.351E+03 0.000E+00
CGA:   2    -0.349029609693E+03   -0.74167E+01   -0.90827E+01  8528   0.252E+03-0.324E+02
CGA:   3    -0.360355775266E+03   -0.11326E+02   -0.99582E+01  8528   0.339E+03-0.141E+02
CGA:   4    -0.371874094466E+03   -0.11518E+02   -0.10152E+02  8528   0.189E+03 0.443E+02
CGA:   5    -0.374020831207E+03   -0.21467E+01   -0.39498E+01  8528   0.383E+03-0.121E+03
CGA:   6    -0.375672235272E+03   -0.16514E+01   -0.50209E+01  8528   0.289E+03-0.289E+03
CGA:   7    -0.376435162154E+03   -0.76293E+00   -0.40041E+01  8528   0.240E+03-0.212E+03
CGA:   8    -0.378056814830E+03   -0.16217E+01   -0.26101E+01  8528   0.823E+02-0.109E+03
CGA:   9    -0.379736187866E+03   -0.16794E+01   -0.16920E+01  8528   0.559E+02 0.135E+00
CGA:  10    -0.380695519987E+03   -0.95933E+00   -0.98475E+00  8528   0.374E+02-0.166E+01
CGA:  11    -0.382609752176E+03   -0.19142E+01   -0.18944E+01  8528   0.761E+02 0.207E+01
CGA:  12    -0.384412478921E+03   -0.18027E+01   -0.19269E+01  8528   0.362E+02-0.251E+01
CGA:  13    -0.385021966244E+03   -0.60949E+00   -0.63657E+00  8528   0.111E+02-0.142E+01
CGA:  14    -0.385257055569E+03   -0.23509E+00   -0.23965E+00  8528   0.684E+01-0.105E+00
CGA:  15    -0.385477687396E+03   -0.22063E+00   -0.22311E+00  8528   0.760E+01 0.351E-01
CGA:  16    -0.385710215075E+03   -0.23253E+00   -0.23660E+00  8528   0.562E+01 0.449E-01
CGA:  17    -0.385842901789E+03   -0.13269E+00   -0.14023E+00  8528   0.282E+01-0.986E-01
CGA:  18    -0.385908377626E+03   -0.65476E-01   -0.66770E-01  8528   0.133E+01-0.158E-01
CGA:  19    -0.385946997049E+03   -0.38619E-01   -0.39529E-01  8528   0.109E+01 0.127E-01
CGA:  20    -0.385988032633E+03   -0.41036E-01   -0.41084E-01  8528   0.117E+01 0.835E-02
CGA:  21    -0.386032504637E+03   -0.44472E-01   -0.44712E-01  8528   0.865E+00 0.638E-01
CGA:  22    -0.386056840929E+03   -0.24336E-01   -0.24416E-01  8528   0.465E+00 0.270E-03
CGA:  23    -0.386074927469E+03   -0.18087E-01   -0.18090E-01  8528   0.391E+00 0.194E-01
CGA:  24    -0.386088978766E+03   -0.14051E-01   -0.14052E-01  8528   0.319E+00 0.965E-04
CGA:  25    -0.386103679006E+03   -0.14700E-01   -0.14528E-01  8528   0.284E+00 0.162E-01
CGA:  26    -0.386112949260E+03   -0.92703E-02   -0.92659E-02  8528   0.161E+00-0.857E-04
CGA:  27    -0.386119436963E+03   -0.64877E-02   -0.64785E-02  8528   0.137E+00 0.318E-02
CGA:  28    -0.386125057004E+03   -0.56200E-02   -0.56199E-02  8528   0.122E+00 0.110E-03
CGA:  29    -0.386130336575E+03   -0.52796E-02   -0.52655E-02  8528   0.982E-01 0.205E-02
CGA:  30    -0.386133696855E+03   -0.33603E-02   -0.33616E-02  8528   0.545E-01 0.162E-03
CGA:  31    -0.386135704711E+03   -0.20079E-02   -0.20088E-02  8528   0.393E-01 0.244E-03
CGA:  32    -0.386137371805E+03   -0.16671E-02   -0.16667E-02  8528   0.358E-01 0.103E-03
CGA:  33    -0.386138921282E+03   -0.15495E-02   -0.15481E-02  8528   0.303E-01 0.208E-03
CGA:  34    -0.386140065241E+03   -0.11440E-02   -0.11441E-02  8528   0.197E-01 0.817E-04
CGA:  35    -0.386140816707E+03   -0.75147E-03   -0.75160E-03  8528   0.148E-01 0.723E-04
CGA:  36    -0.386141475875E+03   -0.65917E-03   -0.65873E-03  8528   0.141E-01 0.680E-04
CGA:  37    -0.386142080038E+03   -0.60416E-03   -0.60387E-03  8528   0.112E-01 0.610E-04
SDA:  38    -0.386142507412E+03   -0.42737E-03   -0.42744E-03  8528   0.770E-02 0.372E-04
CGA:  39    -0.386142617325E+03   -0.10991E-03   -0.10991E-03  8528   0.172E-02-0.127E-04
CGA:  40    -0.386143121887E+03   -0.50456E-03   -0.72641E-04  8528   0.268E-02 0.318E-03
CGA:  41    -0.386143471129E+03   -0.34924E-03   -0.34811E-03  8528   0.584E-02 0.270E-04
CGA:  42    -0.386143618599E+03   -0.14747E-03   -0.14852E-03  8528   0.376E-02-0.192E-04
CGA:  43    -0.386143820976E+03   -0.20238E-03   -0.20226E-03  8528   0.166E-02-0.134E-05
CGA:  44    -0.386143958681E+03   -0.13770E-03   -0.13758E-03  8528   0.186E-02 0.554E-05
CGA:  45    -0.386144002770E+03   -0.44090E-04   -0.44185E-04  8528   0.128E-02-0.308E-06
CGA:  46    -0.386144085695E+03   -0.82925E-04   -0.82913E-04  8528   0.684E-03-0.360E-05
CGA:  47    -0.386144147778E+03   -0.62083E-04   -0.62076E-04  8528   0.673E-03-0.124E-06
CGA:  48    -0.386144166267E+03   -0.18488E-04   -0.18604E-04  8528   0.645E-03 0.201E-05
CGA:  49    -0.386144203287E+03   -0.37020E-04   -0.37068E-04  8528   0.446E-03 0.504E-05
CGA:  50    -0.386144248381E+03   -0.45094E-04   -0.44783E-04  8528   0.368E-03 0.901E-05
CGA:  51    -0.386144264070E+03   -0.15689E-04   -0.15793E-04  8528   0.650E-03 0.375E-05
CGA:  52    -0.386144291136E+03   -0.27066E-04   -0.27170E-04  8528   0.234E-03 0.419E-05
CGA:  53    -0.386144324979E+03   -0.33843E-04   -0.33411E-04  8528   0.231E-03 0.541E-05
CGA:  54    -0.386144331503E+03   -0.65247E-05   -0.65969E-05  8528   0.253E-03 0.151E-05
CGA:  55    -0.386144349727E+03   -0.18224E-04   -0.18209E-04  8528   0.180E-03 0.275E-05
CGA:  56    -0.386144362902E+03   -0.13175E-04   -0.13157E-04  8528   0.141E-03 0.321E-05
CGA:  57    -0.386144369022E+03   -0.61192E-05   -0.61847E-05  8528   0.240E-03 0.253E-05
   6 F= -.38614437E+03 E0= -.38612557E+03  d E =-.855940E+00  mag=    15.7770
       N       E                     dE             d eps       ncg     rms          ort
SDA:   1    -0.381275450436E+03    0.48689E+01    0.00000E+00  8528   0.183E+02 0.000E+00
CGA:   2    -0.382224819929E+03   -0.94937E+00   -0.94009E+00  8528   0.496E+02-0.280E+00
CGA:   3    -0.384686822539E+03   -0.24620E+01   -0.23437E+01  8528   0.217E+02-0.753E+00
CGA:   4    -0.385210465988E+03   -0.52364E+00   -0.61019E+00  8528   0.113E+02-0.313E-02
CGA:   5    -0.385456424151E+03   -0.24596E+00   -0.26262E+00  8528   0.665E+01-0.497E+00
CGA:   6    -0.385823434974E+03   -0.36701E+00   -0.36519E+00  8528   0.897E+01-0.418E+00
CGA:   7    -0.386073005864E+03   -0.24957E+00   -0.25016E+00  8528   0.465E+01-0.181E-02
CGA:   8    -0.386198599995E+03   -0.12559E+00   -0.12536E+00  8528   0.149E+01-0.578E-03
CGA:   9    -0.386235057399E+03   -0.36457E-01   -0.38847E-01  8528   0.898E+00-0.486E-01
CGA:  10    -0.386268623876E+03   -0.33566E-01   -0.33715E-01  8528   0.768E+00 0.793E-03
CGA:  11    -0.386298473277E+03   -0.29849E-01   -0.30532E-01  8528   0.659E+00 0.775E-02
CGA:  12    -0.386318803461E+03   -0.20330E-01   -0.20225E-01  8528   0.299E+00 0.106E-02
CGA:  13    -0.386328104042E+03   -0.93006E-02   -0.96171E-02  8528   0.142E+00-0.136E-02
CGA:  14    -0.386332734405E+03   -0.46304E-02   -0.46277E-02  8528   0.108E+00 0.388E-04
CGA:  15    -0.386338731549E+03   -0.59971E-02   -0.59532E-02  8528   0.106E+00 0.538E-02
CGA:  16    -0.386342738795E+03   -0.40072E-02   -0.39764E-02  8528   0.886E-01-0.196E-03
CGA:  17    -0.386346347736E+03   -0.36089E-02   -0.36579E-02  8528   0.394E-01 0.189E-02
CGA:  18    -0.386348100246E+03   -0.17525E-02   -0.17538E-02  8528   0.429E-01 0.930E-04
CGA:  19    -0.386349701339E+03   -0.16011E-02   -0.16205E-02  8528   0.255E-01 0.377E-03
CGA:  20    -0.386351840589E+03   -0.21393E-02   -0.21496E-02  8528   0.524E-01-0.317E-03
CGA:  21    -0.386353374636E+03   -0.15340E-02   -0.15468E-02  8528   0.179E-01-0.619E-04
CGA:  22    -0.386354506129E+03   -0.11315E-02   -0.11310E-02  8528   0.198E-01 0.267E-04
CGA:  23    -0.386355117040E+03   -0.61091E-03   -0.61266E-03  8528   0.133E-01-0.327E-05
CGA:  24    -0.386356346881E+03   -0.12298E-02   -0.12299E-02  8528   0.151E-01-0.724E-06
CGA:  25    -0.386356710920E+03   -0.36404E-03   -0.36481E-03  8528   0.601E-02-0.807E-05
CGA:  26    -0.386357200469E+03   -0.48955E-03   -0.48934E-03  8528   0.676E-02 0.620E-05
CGA:  27    -0.386357382143E+03   -0.18167E-03   -0.18198E-03  8528   0.321E-02 0.138E-05
CGA:  28    -0.386357603492E+03   -0.22135E-03   -0.22147E-03  8528   0.346E-02-0.576E-05
CGA:  29    -0.386357732948E+03   -0.12946E-03   -0.12953E-03  8528   0.286E-02 0.477E-05
CGA:  30    -0.386357856769E+03   -0.12382E-03   -0.12389E-03  8528   0.124E-02 0.478E-05
CGA:  31    -0.386357913510E+03   -0.56741E-04   -0.56754E-04  8528   0.155E-02 0.314E-05
SDA:  32    -0.386357989623E+03   -0.76113E-04   -0.76112E-04  8528   0.126E-02-0.927E-06
CGA:  33    -0.386358018266E+03   -0.28643E-04   -0.28686E-04  8528   0.661E-03 0.771E-06
CGA:  34    -0.386358046527E+03   -0.28262E-04   -0.28264E-04  8528   0.485E-03-0.867E-06
CGA:  35    -0.386358121284E+03   -0.74757E-04   -0.74883E-04  8528   0.734E-03-0.174E-05
CGA:  36    -0.386358177629E+03   -0.56345E-04   -0.56291E-04  8528   0.296E-03 0.195E-05
CGA:  37    -0.386358222594E+03   -0.44965E-04   -0.45386E-04  8528   0.294E-03-0.489E-05
CGA:  38    -0.386358253961E+03   -0.31366E-04   -0.31345E-04  8528   0.442E-03 0.286E-06
CGA:  39    -0.386358269780E+03   -0.15819E-04   -0.15888E-04  8528   0.494E-03 0.152E-05
CGA:  40    -0.386358290688E+03   -0.20908E-04   -0.20922E-04  8528   0.132E-03 0.947E-06
CGA:  41    -0.386358302450E+03   -0.11762E-04   -0.11754E-04  8528   0.113E-03 0.243E-06
CGA:  42    -0.386358314286E+03   -0.11837E-04   -0.11814E-04  8528   0.240E-03 0.419E-06
CGA:  43    -0.386358319406E+03   -0.51203E-05   -0.51556E-05  8528   0.562E-04 0.509E-06
   7 F= -.38635832E+03 E0= -.38634021E+03  d E =-.213950E+00  mag=    15.8667
       N       E                     dE             d eps       ncg     rms          ort
SDA:   1    -0.351823626635E+03    0.34535E+02    0.00000E+00  8528   0.125E+03 0.000E+00
CGA:   2    -0.358500668614E+03   -0.66770E+01   -0.67597E+01  8528   0.253E+03 0.700E+01
CGA:   3    -0.374596489663E+03   -0.16096E+02   -0.13620E+02  8528   0.275E+03-0.684E+02
CGA:   4    -0.379829503965E+03   -0.52330E+01   -0.52391E+01  8528   0.293E+02 0.661E+01
CGA:   5    -0.381354616506E+03   -0.15251E+01   -0.15094E+01  8528   0.112E+03-0.651E+00
CGA:   6    -0.385234636678E+03   -0.38800E+01   -0.37172E+01  8528   0.109E+02 0.314E+01
CGA:   7    -0.385787202545E+03   -0.55257E+00   -0.55000E+00  8528   0.101E+02 0.152E-01
CGA:   8    -0.385958331746E+03   -0.17113E+00   -0.17345E+00  8528   0.728E+01-0.134E+00
CGA:   9    -0.386274558317E+03   -0.31623E+00   -0.32505E+00  8528   0.356E+01 0.292E+00
CGA:  10    -0.386486414865E+03   -0.21186E+00   -0.21174E+00  8528   0.394E+01 0.237E-01
CGA:  11    -0.386539689106E+03   -0.53274E-01   -0.54245E-01  8528   0.138E+01-0.500E-01
CGA:  12    -0.386609281057E+03   -0.69592E-01   -0.69762E-01  8528   0.707E+00 0.514E-01
CGA:  13    -0.386632807797E+03   -0.23527E-01   -0.25374E-01  8528   0.130E+01 0.269E-03
CGA:  14    -0.386672146015E+03   -0.39338E-01   -0.38464E-01  8528   0.625E+00 0.123E-01
CGA:  15    -0.386714896821E+03   -0.42751E-01   -0.42102E-01  8528   0.178E+00 0.287E-01
CGA:  16    -0.386723665001E+03   -0.87682E-02   -0.88455E-02  8528   0.310E+00 0.883E-02
CGA:  17    -0.386734382722E+03   -0.10718E-01   -0.10538E-01  8528   0.149E+00 0.899E-03
CGA:  18    -0.386750825257E+03   -0.16443E-01   -0.15685E-01  8528   0.110E+00 0.129E-01
CGA:  19    -0.386757722829E+03   -0.68976E-02   -0.69309E-02  8528   0.586E-01-0.389E-02
CGA:  20    -0.386761596025E+03   -0.38732E-02   -0.38267E-02  8528   0.122E+00 0.229E-02
CGA:  21    -0.386766897666E+03   -0.53016E-02   -0.53000E-02  8528   0.655E-01-0.343E-04
CGA:  22    -0.386770628270E+03   -0.37306E-02   -0.37280E-02  8528   0.311E-01 0.415E-03
CGA:  23    -0.386771998893E+03   -0.13706E-02   -0.13711E-02  8528   0.392E-01 0.301E-04
CGA:  24    -0.386774301906E+03   -0.23030E-02   -0.23003E-02  8528   0.185E-01 0.292E-03
CGA:  25    -0.386775652713E+03   -0.13508E-02   -0.13533E-02  8528   0.229E-01-0.944E-04
CGA:  26    -0.386776457708E+03   -0.80500E-03   -0.80867E-03  8528   0.138E-01 0.112E-05
CGA:  27    -0.386777223934E+03   -0.76623E-03   -0.76567E-03  8528   0.710E-02 0.151E-03
CGA:  28    -0.386777815678E+03   -0.59174E-03   -0.59021E-03  8528   0.125E-01 0.481E-04
CGA:  29    -0.386778289020E+03   -0.47334E-03   -0.47341E-03  8528   0.697E-02 0.615E-05
CGA:  30    -0.386778666604E+03   -0.37758E-03   -0.37757E-03  8528   0.320E-02 0.425E-04
CGA:  31    -0.386778939276E+03   -0.27267E-03   -0.27250E-03  8528   0.605E-02 0.472E-05
SDA:  32    -0.386779166875E+03   -0.22760E-03   -0.22811E-03  8528   0.340E-02-0.382E-05
CGA:  33    -0.386779259813E+03   -0.92937E-04   -0.92924E-04  8528   0.162E-02 0.303E-05
CGA:  34    -0.386779331496E+03   -0.71683E-04   -0.71658E-04  8528   0.134E-02-0.172E-05
CGA:  35    -0.386779507115E+03   -0.17562E-03   -0.17639E-03  8528   0.208E-02-0.106E-04
CGA:  36    -0.386779675127E+03   -0.16801E-03   -0.16782E-03  8528   0.820E-03 0.517E-05
CGA:  37    -0.386779733142E+03   -0.58015E-04   -0.58043E-04  8528   0.113E-02-0.141E-05
CGA:  38    -0.386779781971E+03   -0.48829E-04   -0.48815E-04  8528   0.129E-02-0.228E-05
CGA:  39    -0.386779880587E+03   -0.98616E-04   -0.98624E-04  8528   0.704E-03-0.655E-06
CGA:  40    -0.386779957747E+03   -0.77160E-04   -0.77386E-04  8528   0.353E-03-0.450E-05
CGA:  41    -0.386779999296E+03   -0.41549E-04   -0.41767E-04  8528   0.110E-02-0.381E-05
CGA:  42    -0.386780034725E+03   -0.35429E-04   -0.35293E-04  8528   0.416E-03-0.445E-05
CGA:  43    -0.386780060854E+03   -0.26129E-04   -0.26129E-04  8528   0.158E-03-0.140E-06
CGA:  44    -0.386780081204E+03   -0.20350E-04   -0.20196E-04  8528   0.321E-03 0.227E-05
CGA:  45    -0.386780107621E+03   -0.26418E-04   -0.26331E-04  8528   0.693E-04 0.556E-05
CGA:  46    -0.386780118532E+03   -0.10910E-04   -0.10770E-04  8528   0.107E-03 0.159E-05
CGA:  47    -0.386780127176E+03   -0.86445E-05   -0.86347E-05  8528   0.124E-03 0.114E-05
   8 F= -.38678013E+03 E0= -.38676368E+03  d E =-.421808E+00  mag=    15.9732
       N       E                     dE             d eps       ncg     rms          ort
SDA:   1    -0.354067074418E+03    0.32713E+02    0.00000E+00  8528   0.111E+03 0.000E+00
CGA:   2    -0.361676653333E+03   -0.76096E+01   -0.76053E+01  8528   0.281E+03-0.202E+01
CGA:   3    -0.377674156843E+03   -0.15998E+02   -0.12563E+02  8528   0.748E+02 0.405E+01
CGA:   4    -0.380015632094E+03   -0.23415E+01   -0.23609E+01  8528   0.693E+02 0.168E+01
CGA:   5    -0.382518491225E+03   -0.25029E+01   -0.23181E+01  8528   0.556E+02 0.294E+01
CGA:   6    -0.384549475863E+03   -0.20310E+01   -0.20396E+01  8528   0.412E+02 0.109E+01
CGA:   7    -0.385476125920E+03   -0.92665E+00   -0.91440E+00  8528   0.232E+02 0.303E+00
CGA:   8    -0.386172633157E+03   -0.69651E+00   -0.76201E+00  8528   0.116E+02-0.911E+00
CGA:   9    -0.386424586277E+03   -0.25195E+00   -0.25075E+00  8528   0.730E+01 0.630E-01
CGA:  10    -0.386655448111E+03   -0.23086E+00   -0.23449E+00  8528   0.410E+01-0.100E-01
CGA:  11    -0.386798750322E+03   -0.14330E+00   -0.14718E+00  8528   0.478E+01-0.311E-02
CGA:  12    -0.386921885339E+03   -0.12314E+00   -0.13529E+00  8528   0.203E+01-0.206E+00
CGA:  13    -0.386979175261E+03   -0.57290E-01   -0.58984E-01  8528   0.130E+01-0.125E-01
CGA:  14    -0.387014093206E+03   -0.34918E-01   -0.36490E-01  8528   0.818E+00-0.249E-01
CGA:  15    -0.387049195856E+03   -0.35103E-01   -0.35057E-01  8528   0.849E+00-0.109E-02
CGA:  16    -0.387078133094E+03   -0.28937E-01   -0.30890E-01  8528   0.585E+00 0.119E-01
CGA:  17    -0.387096946515E+03   -0.18813E-01   -0.18926E-01  8528   0.314E+00 0.180E-02
CGA:  18    -0.387109637743E+03   -0.12691E-01   -0.13102E-01  8528   0.242E+00 0.160E-01
CGA:  19    -0.387118722277E+03   -0.90845E-02   -0.89082E-02  8528   0.152E+00-0.926E-03
CGA:  20    -0.387127891687E+03   -0.91694E-02   -0.88436E-02  8528   0.135E+00 0.218E-01
CGA:  21    -0.387133987156E+03   -0.60955E-02   -0.60213E-02  8528   0.996E-01-0.169E-02
CGA:  22    -0.387138923810E+03   -0.49367E-02   -0.49155E-02  8528   0.616E-01 0.789E-02
CGA:  23    -0.387142388775E+03   -0.34650E-02   -0.34802E-02  8528   0.595E-01-0.233E-02
CGA:  24    -0.387145381173E+03   -0.29924E-02   -0.29745E-02  8528   0.418E-01 0.316E-02
CGA:  25    -0.387147477791E+03   -0.20966E-02   -0.20972E-02  8528   0.247E-01 0.228E-03
CGA:  26    -0.387149204018E+03   -0.17262E-02   -0.16996E-02  8528   0.312E-01 0.107E-02
CGA:  27    -0.387150535851E+03   -0.13318E-02   -0.13286E-02  8528   0.151E-01-0.824E-04
CGA:  28    -0.387151734058E+03   -0.11982E-02   -0.11940E-02  8528   0.171E-01 0.128E-03
CGA:  29    -0.387152440277E+03   -0.70622E-03   -0.70711E-03  8528   0.106E-01 0.372E-04
CGA:  30    -0.387153285064E+03   -0.84479E-03   -0.83554E-03  8528   0.970E-02 0.289E-03
CGA:  31    -0.387153768826E+03   -0.48376E-03   -0.48396E-03  8528   0.883E-02 0.328E-04
SDA:  32    -0.387154338755E+03   -0.56993E-03   -0.57035E-03  8528   0.680E-02-0.227E-04
CGA:  33    -0.387154509727E+03   -0.17097E-03   -0.17049E-03  8528   0.273E-02 0.839E-05
CGA:  34    -0.387154714114E+03   -0.20439E-03   -0.20454E-03  8528   0.380E-02-0.624E-05
CGA:  35    -0.387155177132E+03   -0.46302E-03   -0.46502E-03  8528   0.359E-02-0.279E-04
CGA:  36    -0.387155442714E+03   -0.26558E-03   -0.26614E-03  8528   0.160E-02-0.275E-04
CGA:  37    -0.387155636075E+03   -0.19336E-03   -0.19361E-03  8528   0.229E-02-0.302E-05
CGA:  38    -0.387155792111E+03   -0.15604E-03   -0.15610E-03  8528   0.328E-02-0.996E-05
CGA:  39    -0.387155917141E+03   -0.12503E-03   -0.12457E-03  8528   0.150E-02-0.456E-05
CGA:  40    -0.387156083284E+03   -0.16614E-03   -0.16709E-03  8528   0.117E-02-0.176E-04
CGA:  41    -0.387156215207E+03   -0.13192E-03   -0.13245E-03  8528   0.122E-02-0.106E-04
CGA:  42    -0.387156312400E+03   -0.97193E-04   -0.97346E-04  8528   0.191E-02-0.898E-05
CGA:  43    -0.387156374281E+03   -0.61881E-04   -0.61966E-04  8528   0.729E-03-0.546E-05
CGA:  44    -0.387156501095E+03   -0.12681E-03   -0.12909E-03  8528   0.952E-03-0.213E-04
CGA:  45    -0.387156565553E+03   -0.64459E-04   -0.64460E-04  8528   0.527E-03-0.410E-05
CGA:  46    -0.387156602572E+03   -0.37019E-04   -0.37024E-04  8528   0.792E-03-0.361E-05
CGA:  47    -0.387156635622E+03   -0.33050E-04   -0.33018E-04  8528   0.508E-03-0.219E-05
CGA:  48    -0.387156671551E+03   -0.35929E-04   -0.35929E-04  8528   0.296E-03-0.817E-06
CGA:  49    -0.387156694396E+03   -0.22845E-04   -0.22839E-04  8528   0.140E-03 0.335E-06
CGA:  50    -0.387156708931E+03   -0.14535E-04   -0.14501E-04  8528   0.348E-03 0.943E-06
CGA:  51    -0.387156722684E+03   -0.13753E-04   -0.13812E-04  8528   0.194E-03 0.187E-05
CGA:  52    -0.387156739890E+03   -0.17207E-04   -0.17165E-04  8528   0.684E-04 0.195E-05
CGA:  53    -0.387156747826E+03   -0.79358E-05   -0.79247E-05  8528   0.119E-03 0.202E-06
   9 F= -.38715675E+03 E0= -.38714107E+03  d E =-.376621E+00  mag=    15.9992
       N       E                     dE             d eps       ncg     rms          ort
SDA:   1    -0.343700350645E+03    0.43456E+02    0.00000E+00  8528   0.348E+03 0.000E+00
CGA:   2    -0.350115922350E+03   -0.64156E+01   -0.95994E+01  8528   0.270E+03-0.626E+02
CGA:   3    -0.365299823074E+03   -0.15184E+02   -0.15125E+02  8528   0.507E+03-0.767E+02
CGA:   4    -0.376302204671E+03   -0.11002E+02   -0.11883E+02  8528   0.212E+03-0.429E+02
CGA:   5    -0.379099104846E+03   -0.27969E+01   -0.45537E+01  8528   0.138E+03-0.461E+02
CGA:   6    -0.380878675690E+03   -0.17796E+01   -0.28758E+01  8528   0.957E+02-0.250E+02
CGA:   7    -0.383324989731E+03   -0.24463E+01   -0.23604E+01  8528   0.443E+02 0.315E+01
CGA:   8    -0.384493314472E+03   -0.11683E+01   -0.10199E+01  8528   0.226E+02 0.514E+01
CGA:   9    -0.385541481926E+03   -0.10482E+01   -0.86984E+00  8528   0.160E+02 0.263E+01
CGA:  10    -0.386076648230E+03   -0.53517E+00   -0.57740E+00  8528   0.272E+02-0.509E+00
CGA:  11    -0.386691162789E+03   -0.61451E+00   -0.57160E+00  8528   0.818E+01 0.126E+01
CGA:  12    -0.386896004804E+03   -0.20484E+00   -0.17701E+00  8528   0.290E+01 0.922E+00
CGA:  13    -0.386976796413E+03   -0.80792E-01   -0.79120E-01  8528   0.356E+01 0.386E-01
CGA:  14    -0.387092187400E+03   -0.11539E+00   -0.11485E+00  8528   0.596E+01 0.278E-01
CGA:  15    -0.387287236373E+03   -0.19505E+00   -0.18281E+00  8528   0.372E+01 0.114E+00
CGA:  16    -0.387393903205E+03   -0.10667E+00   -0.11932E+00  8528   0.203E+01-0.319E-03
CGA:  17    -0.387437263601E+03   -0.43360E-01   -0.50015E-01  8528   0.154E+01-0.115E+00
CGA:  18    -0.387466001511E+03   -0.28738E-01   -0.28995E-01  8528   0.854E+00-0.346E-02
CGA:  19    -0.387489940125E+03   -0.23939E-01   -0.23323E-01  8528   0.672E+00 0.827E-02
CGA:  20    -0.387534008655E+03   -0.44069E-01   -0.43432E-01  8528   0.792E+00 0.260E-01
CGA:  21    -0.387571364916E+03   -0.37356E-01   -0.37431E-01  8528   0.513E+00 0.470E-01
CGA:  22    -0.387590365460E+03   -0.19001E-01   -0.18860E-01  8528   0.160E+00-0.977E-03
CGA:  23    -0.387600451371E+03   -0.10086E-01   -0.99050E-02  8528   0.391E+00 0.867E-02
CGA:  24    -0.387612270426E+03   -0.11819E-01   -0.11519E-01  8528   0.175E+00 0.360E-02
CGA:  25    -0.387621688416E+03   -0.94180E-02   -0.92917E-02  8528   0.102E+00 0.113E-01
CGA:  26    -0.387630046538E+03   -0.83581E-02   -0.80284E-02  8528   0.575E-01 0.100E-01
CGA:  27    -0.387633223049E+03   -0.31765E-02   -0.31761E-02  8528   0.703E-01 0.619E-04
CGA:  28    -0.387635593744E+03   -0.23707E-02   -0.23771E-02  8528   0.574E-01 0.528E-04
CGA:  29    -0.387639314271E+03   -0.37205E-02   -0.37071E-02  8528   0.311E-01 0.560E-03
CGA:  30    -0.387640876433E+03   -0.15622E-02   -0.15610E-02  8528   0.310E-01 0.312E-03
CGA:  31    -0.387642004431E+03   -0.11280E-02   -0.11370E-02  8528   0.263E-01 0.170E-03
SDA:  32    -0.387643269905E+03   -0.12655E-02   -0.12652E-02  8528   0.157E-01 0.233E-03
CGA:  33    -0.387643790044E+03   -0.52014E-03   -0.52310E-03  8528   0.892E-02 0.227E-04
CGA:  34    -0.387644612243E+03   -0.82220E-03   -0.82523E-03  8528   0.217E-01-0.672E-04
CGA:  35    -0.387645352819E+03   -0.74058E-03   -0.74007E-03  8528   0.132E-01 0.184E-04
CGA:  36    -0.387646241735E+03   -0.88892E-03   -0.88624E-03  8528   0.772E-02 0.108E-03
CGA:  37    -0.387647099397E+03   -0.85766E-03   -0.83141E-03  8528   0.708E-02 0.445E-03
CGA:  38    -0.387647390270E+03   -0.29087E-03   -0.29108E-03  8528   0.938E-02 0.150E-05
CGA:  39    -0.387647973041E+03   -0.58277E-03   -0.58428E-03  8528   0.496E-02-0.100E-03
CGA:  40    -0.387648466950E+03   -0.49391E-03   -0.49448E-03  8528   0.591E-02-0.165E-04
CGA:  41    -0.387648765100E+03   -0.29815E-03   -0.29848E-03  8528   0.502E-02 0.404E-04
CGA:  42    -0.387648953096E+03   -0.18800E-03   -0.18799E-03  8528   0.297E-02 0.304E-05
CGA:  43    -0.387649055583E+03   -0.10249E-03   -0.10262E-03  8528   0.171E-02 0.647E-05
CGA:  44    -0.387649286948E+03   -0.23137E-03   -0.22823E-03  8528   0.123E-02 0.387E-04
CGA:  45    -0.387649366924E+03   -0.79975E-04   -0.79960E-04  8528   0.664E-03 0.315E-05
CGA:  46    -0.387649420073E+03   -0.53149E-04   -0.53070E-04  8528   0.142E-02 0.248E-05
CGA:  47    -0.387649495121E+03   -0.75048E-04   -0.75016E-04  8528   0.169E-02-0.560E-05
CGA:  48    -0.387649564189E+03   -0.69069E-04   -0.68900E-04  8528   0.575E-03-0.546E-05
CGA:  49    -0.387649594157E+03   -0.29968E-04   -0.29969E-04  8528   0.346E-03-0.180E-06
CGA:  50    -0.387649624415E+03   -0.30257E-04   -0.30132E-04  8528   0.430E-03 0.388E-05
CGA:  51    -0.387649661179E+03   -0.36765E-04   -0.36537E-04  8528   0.380E-03 0.834E-05
CGA:  52    -0.387649674822E+03   -0.13642E-04   -0.13706E-04  8528   0.356E-03 0.210E-05
CGA:  53    -0.387649694147E+03   -0.19325E-04   -0.19340E-04  8528   0.153E-03 0.374E-05
CGA:  54    -0.387649709006E+03   -0.14859E-04   -0.14788E-04  8528   0.201E-03 0.180E-05
CGA:  55    -0.387649723007E+03   -0.14000E-04   -0.13998E-04  8528   0.226E-03 0.182E-06
CGA:  56    -0.387649740420E+03   -0.17413E-04   -0.17405E-04  8528   0.134E-03 0.373E-06
CGA:  57    -0.387649744984E+03   -0.45640E-05   -0.45721E-05  8528   0.136E-03 0.193E-06
CGA:  58    -0.387649756357E+03   -0.11374E-04   -0.11385E-04  8528   0.134E-03-0.524E-06
CGA:  59    -0.387649767597E+03   -0.11240E-04   -0.11232E-04  8528   0.688E-04 0.273E-06
CGA:  60    -0.387649771726E+03   -0.41287E-05   -0.41293E-05  8528   0.658E-04 0.198E-06
  10 F= -.38764977E+03 E0= -.38763278E+03  d E =-.493024E+00  mag=    15.9983
       N       E                     dE             d eps       ncg     rms          ort
SDA:   1    -0.351666330608E+03    0.35983E+02    0.00000E+00  8528   0.185E+03 0.000E+00
CGA:   2    -0.357326353391E+03   -0.56600E+01   -0.59718E+01  8528   0.215E+03-0.937E+00
CGA:   3    -0.370997324799E+03   -0.13671E+02   -0.13740E+02  8528   0.274E+03-0.941E+01
CGA:   4    -0.379673811593E+03   -0.86765E+01   -0.87484E+01  8528   0.856E+02-0.231E+02
CGA:   5    -0.381028530373E+03   -0.13547E+01   -0.17033E+01  8528   0.124E+03-0.167E+02
CGA:   6    -0.383070374304E+03   -0.20418E+01   -0.21187E+01  8528   0.419E+02 0.351E+00
CGA:   7    -0.384682203518E+03   -0.16118E+01   -0.15210E+01  8528   0.793E+02 0.885E+00
CGA:   8    -0.385705260469E+03   -0.10231E+01   -0.13980E+01  8528   0.511E+02-0.215E+02
CGA:   9    -0.386519421963E+03   -0.81416E+00   -0.71753E+00  8528   0.412E+02 0.432E+01
CGA:  10    -0.386997197036E+03   -0.47778E+00   -0.58639E+00  8528   0.114E+02-0.837E+01
CGA:  11    -0.387324274420E+03   -0.32708E+00   -0.27718E+00  8528   0.579E+01 0.428E+00
CGA:  12    -0.387393757958E+03   -0.69484E-01   -0.65335E-01  8528   0.287E+01 0.297E+00
CGA:  13    -0.387577491595E+03   -0.18373E+00   -0.18601E+00  8528   0.952E+01-0.108E+00
CGA:  14    -0.387715579747E+03   -0.13809E+00   -0.15174E+00  8528   0.770E+01-0.610E+00
CGA:  15    -0.387837143999E+03   -0.12156E+00   -0.14079E+00  8528   0.334E+01-0.722E+00
CGA:  16    -0.387889509457E+03   -0.52365E-01   -0.50591E-01  8528   0.152E+01 0.622E-01
CGA:  17    -0.387909624458E+03   -0.20115E-01   -0.19535E-01  8528   0.675E+00 0.358E-01
CGA:  18    -0.387940041344E+03   -0.30417E-01   -0.30253E-01  8528   0.149E+01 0.400E-01
CGA:  19    -0.387982673994E+03   -0.42633E-01   -0.45604E-01  8528   0.178E+01 0.221E-01
CGA:  20    -0.388028202720E+03   -0.45529E-01   -0.43838E-01  8528   0.615E+00 0.250E-01
CGA:  21    -0.388044455033E+03   -0.16252E-01   -0.16737E-01  8528   0.304E+00 0.141E-02
CGA:  22    -0.388056728868E+03   -0.12274E-01   -0.12256E-01  8528   0.224E+00 0.139E-01
CGA:  23    -0.388064662765E+03   -0.79339E-02   -0.79819E-02  8528   0.228E+00 0.307E-02
CGA:  24    -0.388072212589E+03   -0.75498E-02   -0.74614E-02  8528   0.151E+00-0.334E-02
CGA:  25    -0.388083150184E+03   -0.10938E-01   -0.10868E-01  8528   0.164E+00 0.190E-02
CGA:  26    -0.388088942240E+03   -0.57921E-02   -0.58310E-02  8528   0.730E-01 0.246E-02
CGA:  27    -0.388091630900E+03   -0.26887E-02   -0.26954E-02  8528   0.655E-01 0.664E-03
CGA:  28    -0.388094230295E+03   -0.25994E-02   -0.25997E-02  8528   0.437E-01 0.130E-03
CGA:  29    -0.388096715765E+03   -0.24855E-02   -0.24683E-02  8528   0.493E-01 0.825E-03
CGA:  30    -0.388100119258E+03   -0.34035E-02   -0.33823E-02  8528   0.245E-01 0.700E-03
CGA:  31    -0.388101326331E+03   -0.12071E-02   -0.12071E-02  8528   0.317E-01 0.629E-05
SDA:  32    -0.388102672488E+03   -0.13462E-02   -0.13462E-02  8528   0.242E-01 0.122E-03
CGA:  33    -0.388103385099E+03   -0.71261E-03   -0.71252E-03  8528   0.139E-01 0.739E-05
CGA:  34    -0.388103970413E+03   -0.58531E-03   -0.58532E-03  8528   0.118E-01-0.349E-04
CGA:  35    -0.388104828450E+03   -0.85804E-03   -0.85623E-03  8528   0.164E-01 0.549E-04
CGA:  36    -0.388106019493E+03   -0.11910E-02   -0.11862E-02  8528   0.874E-02 0.156E-03
CGA:  37    -0.388106553295E+03   -0.53380E-03   -0.53628E-03  8528   0.859E-02-0.121E-03
CGA:  38    -0.388107076653E+03   -0.52336E-03   -0.52315E-03  8528   0.102E-01 0.733E-05
CGA:  39    -0.388107546993E+03   -0.47034E-03   -0.47045E-03  8528   0.116E-01 0.900E-04
CGA:  40    -0.388108086369E+03   -0.53938E-03   -0.53940E-03  8528   0.460E-02 0.176E-04
CGA:  41    -0.388108485543E+03   -0.39917E-03   -0.39856E-03  8528   0.285E-02 0.149E-04
CGA:  42    -0.388108696899E+03   -0.21136E-03   -0.21130E-03  8528   0.495E-02 0.270E-05
CGA:  43    -0.388108880930E+03   -0.18403E-03   -0.18448E-03  8528   0.307E-02 0.160E-04
CGA:  44    -0.388109051316E+03   -0.17039E-03   -0.17031E-03  8528   0.244E-02 0.101E-04
CGA:  45    -0.388109167164E+03   -0.11585E-03   -0.11586E-03  8528   0.101E-02 0.365E-05
CGA:  46    -0.388109264648E+03   -0.97484E-04   -0.97509E-04  8528   0.169E-02-0.975E-06
CGA:  47    -0.388109342528E+03   -0.77880E-04   -0.77883E-04  8528   0.133E-02-0.123E-05
CGA:  48    -0.388109386901E+03   -0.44373E-04   -0.44347E-04  8528   0.583E-03-0.296E-05
CGA:  49    -0.388109422065E+03   -0.35164E-04   -0.35114E-04  8528   0.563E-03 0.348E-05
CGA:  50    -0.388109493655E+03   -0.71590E-04   -0.71567E-04  8528   0.474E-03 0.197E-07
CGA:  51    -0.388109514269E+03   -0.20614E-04   -0.20661E-04  8528   0.497E-03 0.328E-05
CGA:  52    -0.388109533908E+03   -0.19639E-04   -0.19678E-04  8528   0.215E-03 0.295E-05
CGA:  53    -0.388109549636E+03   -0.15728E-04   -0.15644E-04  8528   0.354E-03 0.441E-05
CGA:  54    -0.388109577169E+03   -0.27533E-04   -0.27345E-04  8528   0.190E-03 0.851E-05
CGA:  55    -0.388109586502E+03   -0.93331E-05   -0.93507E-05  8528   0.220E-03 0.218E-05
  11 F= -.38810959E+03 E0= -.38809178E+03  d E =-.459815E+00  mag=    15.9311
       N       E                     dE             d eps       ncg     rms          ort
SDA:   1    -0.377668359175E+03    0.10441E+02    0.00000E+00  8528   0.386E+02 0.000E+00
CGA:   2    -0.379384434512E+03   -0.17161E+01   -0.14699E+01  8528   0.638E+02 0.211E+00
CGA:   3    -0.385205853574E+03   -0.58214E+01   -0.58519E+01  8528   0.728E+02-0.105E+01
CGA:   4    -0.385787609792E+03   -0.58176E+00   -0.11040E+01  8528   0.279E+02-0.185E+02
CGA:   5    -0.386417679642E+03   -0.63007E+00   -0.69117E+00  8528   0.151E+02 0.824E-01
CGA:   6    -0.387217394347E+03   -0.79971E+00   -0.80104E+00  8528   0.179E+02-0.161E+01
CGA:   7    -0.387812664752E+03   -0.59527E+00   -0.59688E+00  8528   0.102E+02 0.369E-01
CGA:   8    -0.388006194282E+03   -0.19353E+00   -0.24396E+00  8528   0.280E+01-0.881E+00
CGA:   9    -0.388113923119E+03   -0.10773E+00   -0.10598E+00  8528   0.175E+01-0.451E-01
CGA:  10    -0.388174268593E+03   -0.60345E-01   -0.60064E-01  8528   0.165E+01 0.907E-03
CGA:  11    -0.388254963442E+03   -0.80695E-01   -0.80721E-01  8528   0.831E+00 0.556E-01
CGA:  12    -0.388283841678E+03   -0.28878E-01   -0.28680E-01  8528   0.391E+00-0.186E-03
CGA:  13    -0.388298425472E+03   -0.14584E-01   -0.14839E-01  8528   0.333E+00 0.590E-02
CGA:  14    -0.388311765667E+03   -0.13340E-01   -0.13476E-01  8528   0.213E+00 0.536E-02
CGA:  15    -0.388323884975E+03   -0.12119E-01   -0.12219E-01  8528   0.169E+00-0.745E-02
CGA:  16    -0.388329027682E+03   -0.51427E-02   -0.51834E-02  8528   0.811E-01 0.571E-04
CGA:  17    -0.388332166143E+03   -0.31385E-02   -0.31585E-02  8528   0.632E-01 0.775E-03
CGA:  18    -0.388335511275E+03   -0.33451E-02   -0.33499E-02  8528   0.471E-01-0.473E-03
CGA:  19    -0.388337685166E+03   -0.21739E-02   -0.21743E-02  8528   0.362E-01 0.463E-03
CGA:  20    -0.388338873286E+03   -0.11881E-02   -0.11889E-02  8528   0.217E-01 0.301E-04
CGA:  21    -0.388340121060E+03   -0.12478E-02   -0.12516E-02  8528   0.234E-01-0.239E-03
CGA:  22    -0.388341214641E+03   -0.10936E-02   -0.10934E-02  8528   0.149E-01 0.184E-03
CGA:  23    -0.388341773392E+03   -0.55875E-03   -0.55801E-03  8528   0.123E-01-0.219E-04
CGA:  24    -0.388342382389E+03   -0.60900E-03   -0.60924E-03  8528   0.110E-01-0.359E-04
CGA:  25    -0.388343042471E+03   -0.66008E-03   -0.65956E-03  8528   0.123E-01 0.249E-04
CGA:  26    -0.388343573120E+03   -0.53065E-03   -0.53069E-03  8528   0.877E-02 0.588E-05
CGA:  27    -0.388343860584E+03   -0.28746E-03   -0.28606E-03  8528   0.532E-02-0.111E-04
CGA:  28    -0.388344281719E+03   -0.42114E-03   -0.42012E-03  8528   0.802E-02 0.291E-04
CGA:  29    -0.388344600126E+03   -0.31841E-03   -0.31693E-03  8528   0.484E-02-0.481E-04
CGA:  30    -0.388344782266E+03   -0.18214E-03   -0.18231E-03  8528   0.405E-02 0.121E-04
CGA:  31    -0.388344984221E+03   -0.20195E-03   -0.20193E-03  8528   0.285E-02 0.891E-05
SDA:  32    -0.388345129348E+03   -0.14513E-03   -0.14512E-03  8528   0.286E-02 0.594E-05
CGA:  33    -0.388345178582E+03   -0.49234E-04   -0.48990E-04  8528   0.978E-03 0.321E-05
CGA:  34    -0.388345295230E+03   -0.11665E-03   -0.11728E-03  8528   0.202E-02-0.912E-05
CGA:  35    -0.388345372370E+03   -0.77140E-04   -0.76941E-04  8528   0.132E-02-0.944E-05
CGA:  36    -0.388345477118E+03   -0.10475E-03   -0.10490E-03  8528   0.445E-03-0.540E-05
CGA:  37    -0.388345517516E+03   -0.40398E-04   -0.40510E-04  8528   0.500E-03-0.278E-05
CGA:  38    -0.388345551195E+03   -0.33678E-04   -0.33732E-04  8528   0.486E-03-0.348E-05
CGA:  39    -0.388345579241E+03   -0.28046E-04   -0.28050E-04  8528   0.514E-03-0.113E-05
CGA:  40    -0.388345607334E+03   -0.28093E-04   -0.28098E-04  8528   0.341E-03-0.408E-05
CGA:  41    -0.388345624565E+03   -0.17231E-04   -0.17223E-04  8528   0.303E-03-0.267E-05
CGA:  42    -0.388345635185E+03   -0.10620E-04   -0.10552E-04  8528   0.361E-03-0.292E-05
CGA:  43    -0.388345658390E+03   -0.23205E-04   -0.23256E-04  8528   0.127E-03-0.408E-05
CGA:  44    -0.388345672299E+03   -0.13909E-04   -0.14176E-04  8528   0.164E-03-0.457E-05
CGA:  45    -0.388345680643E+03   -0.83445E-05   -0.83395E-05  8528   0.206E-03-0.155E-05
CGA:  46    -0.388345691027E+03   -0.10384E-04   -0.10367E-04  8528   0.116E-03-0.330E-05
CGA:  47    -0.388345694647E+03   -0.36194E-05   -0.36074E-05  8528   0.128E-03-0.502E-06
  12 F= -.38834569E+03 E0= -.38832609E+03  d E =-.236108E+00  mag=    15.7700
       N       E                     dE             d eps       ncg     rms          ort
SDA:   1    -0.349248168973E+03    0.39098E+02    0.00000E+00  8528   0.410E+03 0.000E+00
CGA:   2    -0.354473429929E+03   -0.52253E+01   -0.87178E+01  8528   0.369E+03-0.207E+03
CGA:   3    -0.359060133393E+03   -0.45867E+01   -0.77062E+01  8528   0.147E+03-0.318E+02
CGA:   4    -0.364503041166E+03   -0.54429E+01   -0.11301E+02  8528   0.930E+03-0.113E+03
CGA:   5    -0.367001781877E+03   -0.24987E+01   -0.20813E+02  8528   0.729E+03-0.596E+03
CGA:   6    -0.375084703021E+03   -0.80829E+01   -0.12747E+02  8528   0.116E+03-0.184E+03
CGA:   7    -0.377766018022E+03   -0.26813E+01   -0.23058E+01  8528   0.461E+02 0.932E+01
CGA:   8    -0.379098543774E+03   -0.13325E+01   -0.13163E+01  8528   0.801E+02 0.542E+00
CGA:   9    -0.385484101222E+03   -0.63856E+01   -0.63716E+01  8528   0.886E+02-0.283E+01
CGA:  10    -0.386912533562E+03   -0.14284E+01   -0.22235E+01  8528   0.451E+02-0.108E+02
CGA:  11    -0.387441205943E+03   -0.52867E+00   -0.33202E+00  8528   0.168E+02 0.241E+02
CGA:  12    -0.387650272135E+03   -0.20907E+00   -0.10849E+00  8528   0.116E+02 0.152E+02
CGA:  13    -0.387863422429E+03   -0.21315E+00   -0.10627E+00  8528   0.766E+01 0.109E+02
CGA:  14    -0.388046442130E+03   -0.18302E+00   -0.11598E+00  8528   0.205E+01 0.328E+01
CGA:  15    -0.388106460224E+03   -0.60018E-01   -0.53503E-01  8528   0.237E+01 0.203E+00
CGA:  16    -0.388185138443E+03   -0.78678E-01   -0.79663E-01  8528   0.699E+01 0.204E-01
CGA:  17    -0.388326721726E+03   -0.14158E+00   -0.14951E+00  8528   0.746E+01-0.114E+00
CGA:  18    -0.388424278787E+03   -0.97557E-01   -0.10390E+00  8528   0.409E+01-0.274E+00
CGA:  19    -0.388476058861E+03   -0.51780E-01   -0.45482E-01  8528   0.197E+01 0.457E+00
CGA:  20    -0.388500021952E+03   -0.23963E-01   -0.21076E-01  8528   0.795E+00 0.257E+00
CGA:  21    -0.388511468304E+03   -0.11446E-01   -0.11186E-01  8528   0.751E+00 0.162E-01
CGA:  22    -0.388528963328E+03   -0.17495E-01   -0.17557E-01  8528   0.166E+01 0.408E-03
CGA:  23    -0.388556794628E+03   -0.27831E-01   -0.28320E-01  8528   0.192E+01-0.124E-01
CGA:  24    -0.388585492524E+03   -0.28698E-01   -0.29900E-01  8528   0.190E+01-0.365E-01
CGA:  25    -0.388610849017E+03   -0.25356E-01   -0.26235E-01  8528   0.102E+01-0.342E-01
CGA:  26    -0.388622295170E+03   -0.11446E-01   -0.11759E-01  8528   0.458E+00-0.174E-01
CGA:  27    -0.388628705106E+03   -0.64099E-02   -0.64487E-02  8528   0.314E+00-0.129E-02
CGA:  28    -0.388634582771E+03   -0.58777E-02   -0.58575E-02  8528   0.388E+00 0.575E-04
CGA:  29    -0.388642549862E+03   -0.79671E-02   -0.79787E-02  8528   0.400E+00 0.110E-03
CGA:  30    -0.388649050214E+03   -0.65004E-02   -0.65777E-02  8528   0.382E+00-0.140E-02
CGA:  31    -0.388657592235E+03   -0.85420E-02   -0.85411E-02  8528   0.422E+00-0.198E-03
CGA:  32    -0.388663521031E+03   -0.59288E-02   -0.58898E-02  8528   0.223E+00 0.104E-02
CGA:  33    -0.388667061378E+03   -0.35403E-02   -0.35276E-02  8528   0.169E+00 0.590E-04
CGA:  34    -0.388669798164E+03   -0.27368E-02   -0.27315E-02  8528   0.136E+00-0.264E-04
CGA:  35    -0.388672339714E+03   -0.25415E-02   -0.25467E-02  8528   0.122E+00 0.681E-04
CGA:  36    -0.388674265830E+03   -0.19261E-02   -0.19254E-02  8528   0.940E-01 0.334E-05
CGA:  37    -0.388676549117E+03   -0.22833E-02   -0.22835E-02  8528   0.139E+00 0.236E-03
CGA:  38    -0.388679074274E+03   -0.25252E-02   -0.25248E-02  8528   0.104E+00 0.463E-04
CGA:  39    -0.388681072159E+03   -0.19979E-02   -0.19981E-02  8528   0.101E+00 0.506E-04
CGA:  40    -0.388682701337E+03   -0.16292E-02   -0.16264E-02  8528   0.551E-01 0.263E-04
CGA:  41    -0.388683618873E+03   -0.91754E-03   -0.91800E-03  8528   0.484E-01 0.201E-04
CGA:  42    -0.388684669230E+03   -0.10504E-02   -0.10507E-02  8528   0.581E-01 0.107E-03
CGA:  43    -0.388685979531E+03   -0.13103E-02   -0.13105E-02  8528   0.618E-01 0.172E-03
SDA:  44    -0.388686879559E+03   -0.90003E-03   -0.90068E-03  8528   0.279E-01 0.104E-04
CGA:  45    -0.388688457028E+03   -0.15775E-02   -0.15862E-02  8528   0.348E-01-0.279E-03
CGA:  46    -0.388689115639E+03   -0.65861E-03   -0.65938E-03  8528   0.210E-01 0.273E-04
CGA:  47    -0.388690246680E+03   -0.11310E-02   -0.11290E-02  8528   0.112E-01 0.751E-04
CGA:  48    -0.388691086122E+03   -0.83944E-03   -0.84318E-03  8528   0.194E-01-0.831E-04
CGA:  49    -0.388691572764E+03   -0.48664E-03   -0.48686E-03  8528   0.885E-02 0.254E-04
CGA:  50    -0.388691743321E+03   -0.17056E-03   -0.17047E-03  8528   0.474E-02-0.787E-05
CGA:  51    -0.388692097985E+03   -0.35466E-03   -0.35331E-03  8528   0.429E-02 0.303E-04
CGA:  52    -0.388692518281E+03   -0.42030E-03   -0.41640E-03  8528   0.767E-02 0.610E-04
CGA:  53    -0.388692717385E+03   -0.19910E-03   -0.19902E-03  8528   0.820E-02 0.351E-05
CGA:  54    -0.388692976470E+03   -0.25908E-03   -0.25908E-03  8528   0.154E-02 0.844E-05
CGA:  55    -0.388693067149E+03   -0.90679E-04   -0.90785E-04  8528   0.283E-02-0.486E-05
CGA:  56    -0.388693257458E+03   -0.19031E-03   -0.19135E-03  8528   0.512E-02-0.308E-04
CGA:  57    -0.388693364880E+03   -0.10742E-03   -0.10703E-03  8528   0.269E-02-0.161E-04
CGA:  58    -0.388693430782E+03   -0.65902E-04   -0.65608E-04  8528   0.784E-03-0.191E-04
CGA:  59    -0.388693552222E+03   -0.12144E-03   -0.12580E-03  8528   0.201E-02-0.350E-04
CGA:  60    -0.388693580036E+03   -0.27814E-04   -0.27772E-04  8528   0.747E-03-0.355E-05
CGA:  61    -0.388693617857E+03   -0.37821E-04   -0.37790E-04  8528   0.630E-03 0.165E-05
CGA:  62    -0.388693645967E+03   -0.28110E-04   -0.28092E-04  8528   0.132E-02 0.358E-05
CGA:  63    -0.388693681618E+03   -0.35651E-04   -0.35788E-04  8528   0.891E-03 0.111E-04
CGA:  64    -0.388693711579E+03   -0.29961E-04   -0.30019E-04  8528   0.600E-03 0.915E-05
CGA:  65    -0.388693740408E+03   -0.28829E-04   -0.28790E-04  8528   0.685E-03 0.490E-05
CGA:  66    -0.388693751308E+03   -0.10900E-04   -0.10977E-04  8528   0.286E-03 0.277E-05
CGA:  67    -0.388693786913E+03   -0.35605E-04   -0.35626E-04  8528   0.676E-03-0.799E-06
CGA:  68    -0.388693804878E+03   -0.17964E-04   -0.17908E-04  8528   0.752E-03-0.402E-05
CGA:  69    -0.388693823163E+03   -0.18285E-04   -0.18230E-04  8528   0.220E-03-0.218E-05
CGA:  70    -0.388693836595E+03   -0.13432E-04   -0.13448E-04  8528   0.392E-03-0.117E-05
CGA:  71    -0.388693845198E+03   -0.86030E-05   -0.85689E-05  8528   0.353E-03-0.198E-05
CGA:  72    -0.388693863294E+03   -0.18097E-04   -0.18102E-04  8528   0.350E-03-0.981E-06
CGA:  73    -0.388693872164E+03   -0.88696E-05   -0.88669E-05  8528   0.129E-03-0.259E-06
  13 F= -.38869387E+03 E0= -.38867095E+03  d E =-.348178E+00  mag=    15.4309
       N       E                     dE             d eps       ncg     rms          ort
SDA:   1    -0.386308279500E+03    0.23856E+01    0.00000E+00  8528   0.815E+01 0.000E+00
CGA:   2    -0.386762394381E+03   -0.45411E+00   -0.45475E+00  8528   0.325E+02-0.264E-01
CGA:   3    -0.387958702825E+03   -0.11963E+01   -0.12018E+01  8528   0.898E+01 0.601E+00
CGA:   4    -0.388209223463E+03   -0.25052E+00   -0.23131E+00  8528   0.361E+01 0.122E+00
CGA:   5    -0.388432108469E+03   -0.22289E+00   -0.22416E+00  8528   0.423E+01-0.533E-01
CGA:   6    -0.388573452268E+03   -0.14134E+00   -0.14387E+00  8528   0.352E+01 0.129E+00
CGA:   7    -0.388679920415E+03   -0.10647E+00   -0.10077E+00  8528   0.192E+01-0.121E-01
CGA:   8    -0.388718198418E+03   -0.38278E-01   -0.37830E-01  8528   0.822E+00 0.138E-01
CGA:   9    -0.388749648010E+03   -0.31450E-01   -0.31402E-01  8528   0.310E+00-0.248E-01
CGA:  10    -0.388759507260E+03   -0.98592E-02   -0.98863E-02  8528   0.405E+00 0.151E-02
CGA:  11    -0.388770977392E+03   -0.11470E-01   -0.11546E-01  8528   0.334E+00 0.106E-02
CGA:  12    -0.388780720433E+03   -0.97430E-02   -0.97108E-02  8528   0.143E+00-0.714E-03
CGA:  13    -0.388785452561E+03   -0.47321E-02   -0.47377E-02  8528   0.510E-01 0.466E-03
CGA:  14    -0.388788573796E+03   -0.31212E-02   -0.31167E-02  8528   0.426E-01 0.168E-03
CGA:  15    -0.388789769557E+03   -0.11958E-02   -0.11905E-02  8528   0.267E-01-0.589E-04
CGA:  16    -0.388790931970E+03   -0.11624E-02   -0.11618E-02  8528   0.522E-01 0.781E-04
CGA:  17    -0.388792236939E+03   -0.13050E-02   -0.13067E-02  8528   0.177E-01 0.129E-04
CGA:  18    -0.388793163155E+03   -0.92622E-03   -0.92410E-03  8528   0.103E-01 0.116E-03
CGA:  19    -0.388793462767E+03   -0.29961E-03   -0.29946E-03  8528   0.584E-02 0.153E-05
CGA:  20    -0.388793930150E+03   -0.46738E-03   -0.46581E-03  8528   0.116E-01 0.363E-04
CGA:  21    -0.388794245723E+03   -0.31557E-03   -0.31574E-03  8528   0.136E-01 0.647E-05
CGA:  22    -0.388794746805E+03   -0.50108E-03   -0.50129E-03  8528   0.575E-02 0.504E-04
CGA:  23    -0.388794916390E+03   -0.16959E-03   -0.16934E-03  8528   0.347E-02-0.382E-05
CGA:  24    -0.388795169601E+03   -0.25321E-03   -0.25265E-03  8528   0.468E-02 0.152E-04
CGA:  25    -0.388795394445E+03   -0.22484E-03   -0.22473E-03  8528   0.682E-02 0.895E-05
CGA:  26    -0.388795540956E+03   -0.14651E-03   -0.14667E-03  8528   0.385E-02-0.900E-06
CGA:  27    -0.388795690867E+03   -0.14991E-03   -0.14989E-03  8528   0.276E-02-0.172E-04
CGA:  28    -0.388795774228E+03   -0.83361E-04   -0.83422E-04  8528   0.115E-02 0.191E-06
CGA:  29    -0.388795882532E+03   -0.10830E-03   -0.10821E-03  8528   0.233E-02 0.205E-05
CGA:  30    -0.388795931492E+03   -0.48960E-04   -0.48983E-04  8528   0.135E-02 0.124E-05
CGA:  31    -0.388795971185E+03   -0.39693E-04   -0.39638E-04  8528   0.921E-03-0.258E-05
SDA:  32    -0.388796002615E+03   -0.31430E-04   -0.31446E-04  8528   0.570E-03 0.138E-05
CGA:  33    -0.388796021861E+03   -0.19247E-04   -0.19237E-04  8528   0.357E-03-0.821E-06
CGA:  34    -0.388796031822E+03   -0.99606E-05   -0.99787E-05  8528   0.474E-03 0.119E-05
CGA:  35    -0.388796055085E+03   -0.23263E-04   -0.23273E-04  8528   0.676E-03-0.110E-05
CGA:  36    -0.388796082855E+03   -0.27769E-04   -0.27773E-04  8528   0.253E-03-0.187E-05
CGA:  37    -0.388796097937E+03   -0.15082E-04   -0.15101E-04  8528   0.193E-03-0.103E-05
CGA:  38    -0.388796112894E+03   -0.14958E-04   -0.15094E-04  8528   0.207E-03-0.370E-05
CGA:  39    -0.388796120032E+03   -0.71378E-05   -0.71304E-05  8528   0.388E-03-0.109E-05
CGA:  40    -0.388796132007E+03   -0.11975E-04   -0.11927E-04  8528   0.862E-04-0.406E-05
CGA:  41    -0.388796137299E+03   -0.52918E-05   -0.53149E-05  8528   0.876E-04-0.119E-05
  14 F= -.38879614E+03 E0= -.38877297E+03  d E =-.102265E+00  mag=    15.3689
       N       E                     dE             d eps       ncg     rms          ort
SDA:   1    -0.387091186386E+03    0.17049E+01    0.00000E+00  8528   0.558E+01 0.000E+00
CGA:   2    -0.387437936745E+03   -0.34675E+00   -0.34686E+00  8528   0.247E+02-0.108E-02
CGA:   3    -0.388293546351E+03   -0.85561E+00   -0.86472E+00  8528   0.639E+01 0.251E+00
CGA:   4    -0.388485167782E+03   -0.19162E+00   -0.17383E+00  8528   0.259E+01 0.124E+00
CGA:   5    -0.388613646739E+03   -0.12848E+00   -0.12691E+00  8528   0.239E+01 0.167E+00
CGA:   6    -0.388711043564E+03   -0.97397E-01   -0.98250E-01  8528   0.303E+01 0.893E-01
CGA:   7    -0.388791834394E+03   -0.80791E-01   -0.81188E-01  8528   0.144E+01-0.138E-02
CGA:   8    -0.388821412279E+03   -0.29578E-01   -0.27872E-01  8528   0.598E+00 0.492E-01
CGA:   9    -0.388842122496E+03   -0.20710E-01   -0.20392E-01  8528   0.253E+00-0.114E-01
CGA:  10    -0.388850002902E+03   -0.78804E-02   -0.79106E-02  8528   0.173E+00 0.927E-03
CGA:  11    -0.388858325836E+03   -0.83229E-02   -0.83344E-02  8528   0.166E+00-0.933E-03
CGA:  12    -0.388864716711E+03   -0.63909E-02   -0.63900E-02  8528   0.186E+00-0.304E-03
CGA:  13    -0.388867878663E+03   -0.31620E-02   -0.31565E-02  8528   0.367E-01 0.150E-03
CGA:  14    -0.388868893582E+03   -0.10149E-02   -0.10196E-02  8528   0.258E-01 0.464E-04
CGA:  15    -0.388870301928E+03   -0.14083E-02   -0.14109E-02  8528   0.187E-01-0.123E-03
CGA:  16    -0.388871319998E+03   -0.10181E-02   -0.10195E-02  8528   0.240E-01-0.686E-04
CGA:  17    -0.388871957284E+03   -0.63729E-03   -0.63885E-03  8528   0.142E-01 0.197E-04
CGA:  18    -0.388872313592E+03   -0.35631E-03   -0.35644E-03  8528   0.133E-01 0.527E-05
CGA:  19    -0.388872753908E+03   -0.44032E-03   -0.44020E-03  8528   0.366E-02 0.199E-05
CGA:  20    -0.388872949597E+03   -0.19569E-03   -0.19572E-03  8528   0.670E-02-0.109E-05
CGA:  21    -0.388873309020E+03   -0.35942E-03   -0.35898E-03  8528   0.536E-02 0.257E-04
CGA:  22    -0.388873576155E+03   -0.26714E-03   -0.26685E-03  8528   0.958E-02 0.228E-04
CGA:  23    -0.388873771056E+03   -0.19490E-03   -0.19443E-03  8528   0.338E-02 0.830E-05
CGA:  24    -0.388873871219E+03   -0.10016E-03   -0.10013E-03  8528   0.303E-02-0.190E-06
CGA:  25    -0.388874066593E+03   -0.19537E-03   -0.19489E-03  8528   0.256E-02 0.164E-04
CGA:  26    -0.388874216593E+03   -0.15000E-03   -0.14998E-03  8528   0.371E-02 0.153E-06
CGA:  27    -0.388874338546E+03   -0.12195E-03   -0.12180E-03  8528   0.139E-02-0.724E-05
CGA:  28    -0.388874396058E+03   -0.57512E-04   -0.57516E-04  8528   0.212E-02-0.440E-05
CGA:  29    -0.388874441695E+03   -0.45637E-04   -0.45709E-04  8528   0.103E-02 0.940E-06
CGA:  30    -0.388874489342E+03   -0.47648E-04   -0.47633E-04  8528   0.139E-02 0.189E-05
CGA:  31    -0.388874543000E+03   -0.53658E-04   -0.53658E-04  8528   0.454E-03-0.151E-07
SDA:  32    -0.388874563024E+03   -0.20024E-04   -0.20031E-04  8528   0.406E-03-0.103E-05
CGA:  33    -0.388874574597E+03   -0.11573E-04   -0.11585E-04  8528   0.228E-03 0.403E-06
CGA:  34    -0.388874587910E+03   -0.13313E-04   -0.13298E-04  8528   0.540E-03 0.689E-06
CGA:  35    -0.388874601337E+03   -0.13427E-04   -0.13395E-04  8528   0.394E-03-0.172E-05
CGA:  36    -0.388874616710E+03   -0.15372E-04   -0.15372E-04  8528   0.193E-03-0.615E-06
CGA:  37    -0.388874631658E+03   -0.14949E-04   -0.15032E-04  8528   0.133E-03-0.224E-05
CGA:  38    -0.388874644947E+03   -0.13289E-04   -0.13461E-04  8528   0.124E-03-0.289E-05
CGA:  39    -0.388874651665E+03   -0.67186E-05   -0.67396E-05  8528   0.128E-03-0.195E-05
  15 F= -.38887465E+03 E0= -.38885127E+03  d E =-.785144E-01  mag=    15.3039
       N       E                     dE             d eps       ncg     rms          ort
SDA:   1    -0.333959736680E+03    0.54915E+02    0.00000E+00  8528   0.634E+03 0.000E+00
CGA:   2    -0.340617638273E+03   -0.66579E+01   -0.13893E+02  8528   0.351E+03-0.896E+02
CGA:   3    -0.352521150415E+03   -0.11904E+02   -0.11092E+02  8528   0.369E+03-0.596E+02
CGA:   4    -0.371666366657E+03   -0.19145E+02   -0.24082E+02  8528   0.445E+03-0.127E+03
CGA:   5    -0.379750316703E+03   -0.80840E+01   -0.55311E+01  8528   0.901E+02 0.132E+03
CGA:   6    -0.379888174391E+03   -0.13786E+00   -0.21078E+01  8528   0.230E+03-0.582E+02
CGA:   7    -0.381780281185E+03   -0.18921E+01   -0.25309E+01  8528   0.975E+02-0.104E+03
CGA:   8    -0.383295116324E+03   -0.15148E+01   -0.14795E+01  8528   0.685E+02-0.220E+00
CGA:   9    -0.384656132609E+03   -0.13610E+01   -0.16000E+01  8528   0.758E+02-0.327E+01
CGA:  10    -0.385601515390E+03   -0.94538E+00   -0.10121E+01  8528   0.458E+02-0.408E+01
CGA:  11    -0.386878514122E+03   -0.12770E+01   -0.12806E+01  8528   0.272E+02 0.134E+00
CGA:  12    -0.387291885105E+03   -0.41337E+00   -0.45804E+00  8528   0.261E+02-0.193E+01
CGA:  13    -0.387698006102E+03   -0.40612E+00   -0.37545E+00  8528   0.829E+01 0.144E+01
CGA:  14    -0.387943151498E+03   -0.24515E+00   -0.24204E+00  8528   0.120E+02-0.134E+00
CGA:  15    -0.388150627153E+03   -0.20748E+00   -0.21337E+00  8528   0.140E+02-0.127E+00
CGA:  16    -0.388661780405E+03   -0.51115E+00   -0.51432E+00  8528   0.781E+01-0.525E+00
CGA:  17    -0.388856961318E+03   -0.19518E+00   -0.19398E+00  8528   0.191E+01-0.455E-01
CGA:  18    -0.388905857534E+03   -0.48896E-01   -0.49506E-01  8528   0.241E+01 0.173E-01
CGA:  19    -0.388959409456E+03   -0.53552E-01   -0.53920E-01  8528   0.225E+01 0.748E-03
CGA:  20    -0.389059053465E+03   -0.99644E-01   -0.99258E-01  8528   0.130E+01 0.279E-01
CGA:  21    -0.389099984226E+03   -0.40931E-01   -0.41035E-01  8528   0.513E+00 0.224E-01
CGA:  22    -0.389113258186E+03   -0.13274E-01   -0.13270E-01  8528   0.675E+00-0.120E-03
CGA:  23    -0.389129563910E+03   -0.16306E-01   -0.16305E-01  8528   0.560E+00-0.170E-02
CGA:  24    -0.389166393103E+03   -0.36829E-01   -0.35414E-01  8528   0.510E+00 0.404E-01
CGA:  25    -0.389188907180E+03   -0.22514E-01   -0.22204E-01  8528   0.297E+00 0.299E-01
CGA:  26    -0.389197582896E+03   -0.86757E-02   -0.85860E-02  8528   0.403E+00-0.305E-02
CGA:  27    -0.389208465615E+03   -0.10883E-01   -0.11350E-01  8528   0.276E+00 0.275E-01
CGA:  28    -0.389222998173E+03   -0.14533E-01   -0.14475E-01  8528   0.213E+00 0.145E-02
CGA:  29    -0.389232370735E+03   -0.93726E-02   -0.93948E-02  8528   0.250E+00-0.174E-02
CGA:  30    -0.389237052926E+03   -0.46822E-02   -0.49936E-02  8528   0.102E+00-0.404E-02
CGA:  31    -0.389242265156E+03   -0.52122E-02   -0.52413E-02  8528   0.105E+00-0.130E-02
CGA:  32    -0.389247872097E+03   -0.56069E-02   -0.55027E-02  8528   0.138E+00 0.477E-02
CGA:  33    -0.389251235665E+03   -0.33636E-02   -0.33832E-02  8528   0.695E-01-0.608E-04
CGA:  34    -0.389256886193E+03   -0.56505E-02   -0.52418E-02  8528   0.784E-01 0.103E-01
CGA:  35    -0.389259477553E+03   -0.25914E-02   -0.25897E-02  8528   0.828E-01-0.318E-04
CGA:  36    -0.389264671826E+03   -0.51943E-02   -0.52143E-02  8528   0.109E+00-0.716E-03
SDA:  37    -0.389270146141E+03   -0.54743E-02   -0.56555E-02  8528   0.121E+00-0.101E-01
CGA:  38    -0.389272027063E+03   -0.18809E-02   -0.19183E-02  8528   0.389E-01-0.153E-02
CGA:  39    -0.389274343993E+03   -0.23169E-02   -0.22694E-02  8528   0.321E-01 0.187E-02
CGA:  40    -0.389278348760E+03   -0.40048E-02   -0.39680E-02  8528   0.995E-01 0.509E-03
CGA:  41    -0.389281067060E+03   -0.27183E-02   -0.26404E-02  8528   0.522E-01 0.539E-03
[...]
CGA:   4    -0.390320424682E+03   -0.29199E-01   -0.28557E-01  8528   0.137E+00 0.899E-02
CGA:   5    -0.390333008812E+03   -0.12584E-01   -0.12619E-01  8528   0.245E+00-0.939E-03
CGA:   6    -0.390340216975E+03   -0.72082E-02   -0.73478E-02  8528   0.826E-01-0.239E-02
CGA:   7    -0.390344389268E+03   -0.41723E-02   -0.41774E-02  8528   0.250E-01 0.187E-03
CGA:   8    -0.390345825862E+03   -0.14366E-02   -0.14367E-02  8528   0.143E-01 0.275E-04
CGA:   9    -0.390346432276E+03   -0.60641E-03   -0.60754E-03  8528   0.151E-01 0.748E-05
CGA:  10    -0.390347201170E+03   -0.76889E-03   -0.76900E-03  8528   0.423E-02 0.781E-05
CGA:  11    -0.390347509048E+03   -0.30788E-03   -0.30797E-03  8528   0.193E-02-0.461E-05
CGA:  12    -0.390347609698E+03   -0.10065E-03   -0.10065E-03  8528   0.256E-02-0.231E-05
CGA:  13    -0.390347712292E+03   -0.10259E-03   -0.10251E-03  8528   0.722E-03-0.429E-05
CGA:  14    -0.390347803883E+03   -0.91591E-04   -0.92069E-04  8528   0.570E-03-0.686E-05
CGA:  15    -0.390347827833E+03   -0.23950E-04   -0.23952E-04  8528   0.438E-03-0.554E-06
CGA:  16    -0.390347846868E+03   -0.19035E-04   -0.19049E-04  8528   0.306E-03 0.803E-06
CGA:  17    -0.390347865746E+03   -0.18879E-04   -0.18876E-04  8528   0.263E-03 0.109E-05
CGA:  18    -0.390347888672E+03   -0.22925E-04   -0.22866E-04  8528   0.181E-03 0.219E-05
CGA:  19    -0.390347898931E+03   -0.10259E-04   -0.10266E-04  8528   0.199E-03 0.128E-05
CGA:  20    -0.390347908439E+03   -0.95082E-05   -0.95250E-05  8528   0.188E-03 0.118E-05
CGA:  21    -0.390347918664E+03   -0.10225E-04   -0.10234E-04  8528   0.640E-04 0.162E-05
CGA:  22    -0.390347929778E+03   -0.11115E-04   -0.11149E-04  8528   0.975E-04-0.293E-06
CGA:  23    -0.390347932432E+03   -0.26534E-05   -0.26464E-05  8528   0.492E-04-0.287E-06
 141 F= -.39034793E+03 E0= -.39033374E+03  d E =-.669222E-03  mag=    11.9995
       N       E                     dE             d eps       ncg     rms          ort
SDA:   1    -0.389998690257E+03    0.34924E+00    0.00000E+00  8528   0.975E+00 0.000E+00
CGA:   2    -0.390156543183E+03   -0.15785E+00   -0.16312E+00  8528   0.384E+01-0.643E-01
CGA:   3    -0.390253780128E+03   -0.97237E-01   -0.10677E+00  8528   0.813E+00-0.193E+00
CGA:   4    -0.390286946856E+03   -0.33167E-01   -0.32976E-01  8528   0.465E+00 0.200E-02
CGA:   5    -0.390321836477E+03   -0.34890E-01   -0.34912E-01  8528   0.287E+00-0.163E-02
CGA:   6    -0.390337715474E+03   -0.15879E-01   -0.15895E-01  8528   0.135E+00 0.437E-03
CGA:   7    -0.390341613127E+03   -0.38977E-02   -0.39903E-02  8528   0.584E-01-0.189E-02
CGA:   8    -0.390345107057E+03   -0.34939E-02   -0.34960E-02  8528   0.331E-01 0.251E-03
CGA:   9    -0.390347204299E+03   -0.20972E-02   -0.20973E-02  8528   0.205E-01 0.232E-04
CGA:  10    -0.390348219719E+03   -0.10154E-02   -0.10134E-02  8528   0.128E-01-0.274E-04
CGA:  11    -0.390348677449E+03   -0.45773E-03   -0.45860E-03  8528   0.600E-02-0.855E-05
CGA:  12    -0.390349033365E+03   -0.35592E-03   -0.35590E-03  8528   0.454E-02-0.198E-05
CGA:  13    -0.390349301682E+03   -0.26832E-03   -0.26832E-03  8528   0.186E-02-0.101E-05
CGA:  14    -0.390349422954E+03   -0.12127E-03   -0.12128E-03  8528   0.254E-02-0.272E-05
CGA:  15    -0.390349519458E+03   -0.96504E-04   -0.96620E-04  8528   0.104E-02-0.245E-05
CGA:  16    -0.390349615376E+03   -0.95918E-04   -0.95780E-04  8528   0.626E-03 0.390E-05
CGA:  17    -0.390349647794E+03   -0.32418E-04   -0.32428E-04  8528   0.696E-03 0.696E-07
CGA:  18    -0.390349709175E+03   -0.61382E-04   -0.61377E-04  8528   0.117E-02 0.202E-06
CGA:  19    -0.390349752999E+03   -0.43824E-04   -0.43872E-04  8528   0.381E-03-0.201E-06
CGA:  20    -0.390349797509E+03   -0.44509E-04   -0.44480E-04  8528   0.352E-03 0.491E-06
CGA:  21    -0.390349816472E+03   -0.18963E-04   -0.18966E-04  8528   0.459E-03 0.165E-06
CGA:  22    -0.390349841602E+03   -0.25129E-04   -0.25136E-04  8528   0.308E-03 0.524E-06
CGA:  23    -0.390349860356E+03   -0.18754E-04   -0.18755E-04  8528   0.150E-03 0.296E-06
CGA:  24    -0.390349868961E+03   -0.86049E-05   -0.86062E-05  8528   0.115E-03 0.113E-06
 142 F= -.39034987E+03 E0= -.39033575E+03  d E =-.193653E-02  mag=    11.9994
       N       E                     dE             d eps       ncg     rms          ort
SDA:   1    -0.390099351602E+03    0.25051E+00    0.00000E+00  8528   0.138E+01 0.000E+00
CGA:   2    -0.390137584924E+03   -0.38233E-01   -0.42841E-01  8528   0.116E+01-0.790E-01
CGA:   3    -0.390278163952E+03   -0.14058E+00   -0.14054E+00  8528   0.640E+00 0.907E-03
CGA:   4    -0.390307881619E+03   -0.29718E-01   -0.29621E-01  8528   0.314E+00-0.873E-03
CGA:   5    -0.390322742616E+03   -0.14861E-01   -0.14729E-01  8528   0.330E+00-0.117E-02
CGA:   6    -0.390340679916E+03   -0.17937E-01   -0.17957E-01  8528   0.101E+00 0.854E-03
CGA:   7    -0.390345743201E+03   -0.50633E-02   -0.50593E-02  8528   0.381E-01-0.739E-04
CGA:   8    -0.390347203995E+03   -0.14608E-02   -0.14696E-02  8528   0.293E-01-0.446E-04
CGA:   9    -0.390348994622E+03   -0.17906E-02   -0.17906E-02  8528   0.166E-01 0.226E-04
CGA:  10    -0.390349874917E+03   -0.88030E-03   -0.88122E-03  8528   0.913E-02 0.389E-04
CGA:  11    -0.390350275743E+03   -0.40083E-03   -0.40051E-03  8528   0.408E-02-0.947E-06
CGA:  12    -0.390350419978E+03   -0.14423E-03   -0.14455E-03  8528   0.242E-02-0.154E-05
CGA:  13    -0.390350699764E+03   -0.27979E-03   -0.27962E-03  8528   0.142E-02 0.285E-05
CGA:  14    -0.390350756327E+03   -0.56563E-04   -0.56628E-04  8528   0.130E-02 0.838E-06
CGA:  15    -0.390350835470E+03   -0.79143E-04   -0.79140E-04  8528   0.608E-03 0.319E-05
CGA:  16    -0.390350879738E+03   -0.44268E-04   -0.44257E-04  8528   0.611E-03 0.905E-06
CGA:  17    -0.390350913464E+03   -0.33726E-04   -0.33728E-04  8528   0.722E-03 0.876E-06
CGA:  18    -0.390350950929E+03   -0.37465E-04   -0.37464E-04  8528   0.384E-03 0.446E-07
CGA:  19    -0.390350983973E+03   -0.33044E-04   -0.33065E-04  8528   0.376E-03-0.812E-06
CGA:  20    -0.390351001808E+03   -0.17835E-04   -0.17831E-04  8528   0.347E-03-0.698E-06
CGA:  21    -0.390351019686E+03   -0.17878E-04   -0.17872E-04  8528   0.209E-03-0.461E-06
CGA:  22    -0.390351035348E+03   -0.15662E-04   -0.15674E-04  8528   0.220E-03-0.798E-06
CGA:  23    -0.390351046994E+03   -0.11646E-04   -0.11646E-04  8528   0.119E-03 0.827E-07
CGA:  24    -0.390351051494E+03   -0.45001E-05   -0.45021E-05  8528   0.835E-04-0.403E-07
 143 F= -.39035105E+03 E0= -.39033698E+03  d E =-.118253E-02  mag=    11.9991
       N       E                     dE             d eps       ncg     rms          ort
SDA:   1    -0.389975433721E+03    0.37561E+00    0.00000E+00  8528   0.112E+01 0.000E+00
CGA:   2    -0.390117589520E+03   -0.14216E+00   -0.14628E+00  8528   0.413E+01-0.620E-01
CGA:   3    -0.390233283937E+03   -0.11569E+00   -0.12190E+00  8528   0.920E+00-0.112E+00
CGA:   4    -0.390282390372E+03   -0.49106E-01   -0.49175E-01  8528   0.495E+00 0.396E-02
CGA:   5    -0.390310901582E+03   -0.28511E-01   -0.28449E-01  8528   0.525E+00-0.550E-02
CGA:   6    -0.390329175970E+03   -0.18274E-01   -0.18414E-01  8528   0.266E+00-0.151E-02
CGA:   7    -0.390341495664E+03   -0.12320E-01   -0.12311E-01  8528   0.522E-01-0.673E-04
CGA:   8    -0.390344346149E+03   -0.28505E-02   -0.28507E-02  8528   0.549E-01 0.240E-04
CGA:   9    -0.390346736002E+03   -0.23899E-02   -0.23949E-02  8528   0.414E-01 0.316E-04
CGA:  10    -0.390348443500E+03   -0.17075E-02   -0.17053E-02  8528   0.109E-01-0.214E-04
CGA:  11    -0.390349329640E+03   -0.88614E-03   -0.88440E-03  8528   0.753E-02 0.567E-04
CGA:  12    -0.390349541704E+03   -0.21206E-03   -0.21299E-03  8528   0.410E-02-0.186E-04
CGA:  13    -0.390349865364E+03   -0.32366E-03   -0.32342E-03  8528   0.297E-02 0.976E-05
CGA:  14    -0.390350102594E+03   -0.23723E-03   -0.23704E-03  8528   0.181E-02 0.847E-05
CGA:  15    -0.390350157680E+03   -0.55086E-04   -0.55213E-04  8528   0.104E-02 0.494E-06
CGA:  16    -0.390350223867E+03   -0.66187E-04   -0.66178E-04  8528   0.938E-03 0.225E-05
CGA:  17    -0.390350289717E+03   -0.65850E-04   -0.65818E-04  8528   0.645E-03 0.298E-05
CGA:  18    -0.390350343296E+03   -0.53579E-04   -0.53570E-04  8528   0.989E-03 0.419E-06
CGA:  19    -0.390350373971E+03   -0.30675E-04   -0.30639E-04  8528   0.369E-03 0.552E-06
CGA:  20    -0.390350403565E+03   -0.29594E-04   -0.29611E-04  8528   0.450E-03-0.903E-06
CGA:  21    -0.390350442882E+03   -0.39317E-04   -0.39392E-04  8528   0.291E-03-0.247E-05
CGA:  22    -0.390350453232E+03   -0.10350E-04   -0.10340E-04  8528   0.290E-03-0.648E-07
CGA:  23    -0.390350479692E+03   -0.26460E-04   -0.26461E-04  8528   0.857E-04-0.800E-07
CGA:  24    -0.390350486386E+03   -0.66937E-05   -0.66942E-05  8528   0.135E-03-0.758E-10
 144 F= -.39035049E+03 E0= -.39033650E+03  d E =0.565108E-03  mag=    11.9992
       N       E                     dE             d eps       ncg     rms          ort
SDA:   1    -0.390169189496E+03    0.18129E+00    0.00000E+00  8528   0.108E+01 0.000E+00
CGA:   2    -0.390201414682E+03   -0.32225E-01   -0.30012E-01  8528   0.706E+00 0.424E-01
CGA:   3    -0.390273574726E+03   -0.72160E-01   -0.72222E-01  8528   0.857E+00-0.219E-02
CGA:   4    -0.390312904384E+03   -0.39330E-01   -0.39294E-01  8528   0.216E+00 0.295E-02
CGA:   5    -0.390325596949E+03   -0.12693E-01   -0.12688E-01  8528   0.241E+00-0.877E-03
CGA:   6    -0.390334906403E+03   -0.93095E-02   -0.94042E-02  8528   0.172E+00-0.225E-03
CGA:   7    -0.390344677878E+03   -0.97715E-02   -0.97769E-02  8528   0.272E-01 0.866E-03
CGA:   8    -0.390346401109E+03   -0.17232E-02   -0.17234E-02  8528   0.270E-01-0.312E-04
CGA:   9    -0.390347331265E+03   -0.93016E-03   -0.93363E-03  8528   0.163E-01-0.354E-04
CGA:  10    -0.390348338364E+03   -0.10071E-02   -0.10070E-02  8528   0.857E-02 0.115E-04
CGA:  11    -0.390348790992E+03   -0.45263E-03   -0.45265E-03  8528   0.188E-02 0.253E-05
CGA:  12    -0.390348893540E+03   -0.10255E-03   -0.10255E-03  8528   0.328E-02-0.111E-06
CGA:  13    -0.390349109806E+03   -0.21627E-03   -0.21630E-03  8528   0.197E-02-0.356E-05
CGA:  14    -0.390349188251E+03   -0.78445E-04   -0.78461E-04  8528   0.527E-03 0.504E-06
CGA:  15    -0.390349252310E+03   -0.64058E-04   -0.63985E-04  8528   0.576E-03 0.116E-05
CGA:  16    -0.390349272685E+03   -0.20376E-04   -0.20369E-04  8528   0.525E-03 0.917E-06
CGA:  17    -0.390349319925E+03   -0.47239E-04   -0.47213E-04  8528   0.321E-03 0.936E-06
CGA:  18    -0.390349345465E+03   -0.25540E-04   -0.25516E-04  8528   0.242E-03 0.129E-05
CGA:  19    -0.390349359623E+03   -0.14159E-04   -0.14160E-04  8528   0.342E-03 0.452E-06
CGA:  20    -0.390349376711E+03   -0.17087E-04   -0.17093E-04  8528   0.257E-03 0.327E-06
CGA:  21    -0.390349391852E+03   -0.15142E-04   -0.15143E-04  8528   0.142E-03 0.660E-06
CGA:  22    -0.390349403567E+03   -0.11715E-04   -0.11720E-04  8528   0.811E-04-0.240E-06
CGA:  23    -0.390349407899E+03   -0.43316E-05   -0.43298E-05  8528   0.116E-03-0.228E-06
 145 F= -.39034941E+03 E0= -.39033546E+03  d E =0.107849E-02  mag=    11.9994
       N       E                     dE             d eps       ncg     rms          ort
SDA:   1    -0.390183023701E+03    0.16638E+00    0.00000E+00  8528   0.540E+00 0.000E+00
CGA:   2    -0.390239753565E+03   -0.56730E-01   -0.56575E-01  8528   0.111E+01 0.348E-02
CGA:   3    -0.390294893961E+03   -0.55140E-01   -0.55471E-01  8528   0.754E+00 0.495E-02
CGA:   4    -0.390318351635E+03   -0.23458E-01   -0.22967E-01  8528   0.146E+00 0.826E-02
CGA:   5    -0.390341407505E+03   -0.23056E-01   -0.23055E-01  8528   0.709E-01 0.136E-04
CGA:   6    -0.390346187438E+03   -0.47799E-02   -0.47796E-02  8528   0.254E-01 0.106E-03
CGA:   7    -0.390347730674E+03   -0.15432E-02   -0.15427E-02  8528   0.217E-01-0.445E-04
CGA:   8    -0.390349077573E+03   -0.13469E-02   -0.13472E-02  8528   0.167E-01 0.421E-04
CGA:   9    -0.390349505868E+03   -0.42830E-03   -0.42448E-03  8528   0.330E-02 0.112E-03
CGA:  10    -0.390349857478E+03   -0.35161E-03   -0.35136E-03  8528   0.204E-02 0.534E-05
CGA:  11    -0.390350033093E+03   -0.17562E-03   -0.17569E-03  8528   0.144E-02-0.334E-05
CGA:  12    -0.390350118883E+03   -0.85789E-04   -0.85768E-04  8528   0.883E-03-0.273E-05
CGA:  13    -0.390350154023E+03   -0.35140E-04   -0.35109E-04  8528   0.817E-03-0.201E-05
CGA:  14    -0.390350203726E+03   -0.49703E-04   -0.49694E-04  8528   0.289E-03-0.234E-05
CGA:  15    -0.390350228132E+03   -0.24406E-04   -0.24426E-04  8528   0.284E-03-0.104E-05
CGA:  16    -0.390350254991E+03   -0.26859E-04   -0.26851E-04  8528   0.278E-03 0.357E-06
CGA:  17    -0.390350272580E+03   -0.17589E-04   -0.17591E-04  8528   0.146E-03 0.432E-06
CGA:  18    -0.390350280334E+03   -0.77538E-05   -0.77603E-05  8528   0.223E-03 0.428E-06
CGA:  19    -0.390350293122E+03   -0.12788E-04   -0.12799E-04  8528   0.959E-04 0.131E-05
CGA:  20    -0.390350304946E+03   -0.11824E-04   -0.11811E-04  8528   0.445E-04 0.229E-06
CGA:  21    -0.390350308670E+03   -0.37235E-05   -0.37205E-05  8528   0.496E-04 0.193E-06
 146 F= -.39035031E+03 E0= -.39033630E+03  d E =-.900771E-03  mag=    11.9993
       N       E                     dE             d eps       ncg     rms          ort
SDA:   1    -0.390221689644E+03    0.12862E+00    0.00000E+00  8528   0.530E+00 0.000E+00
CGA:   2    -0.390245816892E+03   -0.24127E-01   -0.23457E-01  8528   0.805E+00 0.104E-02
CGA:   3    -0.390308621207E+03   -0.62804E-01   -0.62779E-01  8528   0.195E+00 0.155E-02
CGA:   4    -0.390328843947E+03   -0.20223E-01   -0.20250E-01  8528   0.210E+00-0.678E-03
CGA:   5    -0.390341102212E+03   -0.12258E-01   -0.12253E-01  8528   0.118E+00-0.163E-03
CGA:   6    -0.390345426011E+03   -0.43238E-02   -0.43626E-02  8528   0.551E-01-0.460E-03
CGA:   7    -0.390347209756E+03   -0.17837E-02   -0.17781E-02  8528   0.168E-01 0.992E-04
CGA:   8    -0.390348665567E+03   -0.14558E-02   -0.14556E-02  8528   0.147E-01 0.327E-05
CGA:   9    -0.390349584132E+03   -0.91856E-03   -0.91854E-03  8528   0.486E-02-0.496E-05
CGA:  10    -0.390349948143E+03   -0.36401E-03   -0.36404E-03  8528   0.199E-02-0.356E-05
CGA:  11    -0.390350106414E+03   -0.15827E-03   -0.15826E-03  8528   0.270E-02 0.115E-05
CGA:  12    -0.390350199825E+03   -0.93411E-04   -0.93520E-04  8528   0.147E-02-0.152E-05
CGA:  13    -0.390350308060E+03   -0.10823E-03   -0.10823E-03  8528   0.452E-03 0.302E-06
CGA:  14    -0.390350339905E+03   -0.31846E-04   -0.31842E-04  8528   0.441E-03 0.753E-06
CGA:  15    -0.390350372477E+03   -0.32572E-04   -0.32567E-04  8528   0.286E-03 0.603E-06
CGA:  16    -0.390350396882E+03   -0.24404E-04   -0.24393E-04  8528   0.475E-03 0.596E-06
CGA:  17    -0.390350411023E+03   -0.14142E-04   -0.14151E-04  8528   0.101E-03 0.909E-06
CGA:  18    -0.390350425423E+03   -0.14399E-04   -0.14405E-04  8528   0.177E-03-0.754E-07
CGA:  19    -0.390350438338E+03   -0.12915E-04   -0.12916E-04  8528   0.891E-04-0.161E-06
CGA:  20    -0.390350445030E+03   -0.66917E-05   -0.66939E-05  8528   0.103E-03-0.356E-06
 147 F= -.39035045E+03 E0= -.39033645E+03  d E =-.136360E-03  mag=    11.9994
       N       E                     dE             d eps       ncg     rms          ort
SDA:   1    -0.390313032421E+03    0.37406E-01    0.00000E+00  8528   0.185E+00 0.000E+00
CGA:   2    -0.390320078528E+03   -0.70461E-02   -0.68826E-02  8528   0.201E+00 0.171E-02
CGA:   3    -0.390335676641E+03   -0.15598E-01   -0.15594E-01  8528   0.103E+00 0.215E-03
CGA:   4    -0.390342807589E+03   -0.71309E-02   -0.71305E-02  8528   0.531E-01 0.118E-03
CGA:   5    -0.390346227514E+03   -0.34199E-02   -0.34203E-02  8528   0.363E-01 0.584E-04
CGA:   6    -0.390349092755E+03   -0.28652E-02   -0.28676E-02  8528   0.225E-01-0.125E-03
CGA:   7    -0.390349697123E+03   -0.60437E-03   -0.61204E-03  8528   0.696E-02-0.184E-03
CGA:   8    -0.390350013683E+03   -0.31656E-03   -0.31662E-03  8528   0.390E-02 0.205E-05
CGA:   9    -0.390350351329E+03   -0.33765E-03   -0.33747E-03  8528   0.224E-02 0.670E-05
CGA:  10    -0.390350508682E+03   -0.15735E-03   -0.15736E-03  8528   0.113E-02-0.420E-06
CGA:  11    -0.390350542397E+03   -0.33714E-04   -0.33765E-04  8528   0.597E-03-0.197E-05
CGA:  12    -0.390350585595E+03   -0.43198E-04   -0.43198E-04  8528   0.435E-03 0.152E-07
CGA:  13    -0.390350625337E+03   -0.39742E-04   -0.39749E-04  8528   0.269E-03-0.348E-06
CGA:  14    -0.390350635912E+03   -0.10575E-04   -0.10581E-04  8528   0.123E-03 0.303E-06
CGA:  15    -0.390350642339E+03   -0.64270E-05   -0.64277E-05  8528   0.158E-03-0.239E-07
 148 F= -.39035064E+03 E0= -.39033667E+03  d E =-.197310E-03  mag=    11.9993
       N       E                     dE             d eps       ncg     rms          ort
SDA:   1    -0.390197211229E+03    0.15342E+00    0.00000E+00  8528   0.461E+00 0.000E+00
CGA:   2    -0.390256962155E+03   -0.59751E-01   -0.59957E-01  8528   0.982E+00-0.311E-02
CGA:   3    -0.390295219313E+03   -0.38257E-01   -0.39707E-01  8528   0.678E+00-0.949E-02
CGA:   4    -0.390323123363E+03   -0.27904E-01   -0.27885E-01  8528   0.211E+00 0.199E-03
CGA:   5    -0.390333860930E+03   -0.10738E-01   -0.10795E-01  8528   0.987E-01 0.125E-02
CGA:   6    -0.390344601707E+03   -0.10741E-01   -0.10748E-01  8528   0.407E-01-0.141E-03
CGA:   7    -0.390346797452E+03   -0.21957E-02   -0.21968E-02  8528   0.143E-01 0.258E-04
CGA:   8    -0.390347890404E+03   -0.10930E-02   -0.10924E-02  8528   0.105E-01 0.345E-04
CGA:   9    -0.390348309810E+03   -0.41941E-03   -0.41794E-03  8528   0.829E-02 0.592E-05
CGA:  10    -0.390348684172E+03   -0.37436E-03   -0.37452E-03  8528   0.301E-02-0.369E-05
CGA:  11    -0.390348909379E+03   -0.22521E-03   -0.22532E-03  8528   0.107E-02-0.678E-05
CGA:  12    -0.390348987319E+03   -0.77940E-04   -0.77924E-04  8528   0.107E-02 0.172E-05
CGA:  13    -0.390349063845E+03   -0.76526E-04   -0.76499E-04  8528   0.723E-03 0.422E-05
CGA:  14    -0.390349086417E+03   -0.22573E-04   -0.22653E-04  8528   0.405E-03 0.433E-06
CGA:  15    -0.390349115080E+03   -0.28663E-04   -0.28648E-04  8528   0.148E-03 0.199E-05
CGA:  16    -0.390349139153E+03   -0.24073E-04   -0.24000E-04  8528   0.171E-03 0.754E-06
CGA:  17    -0.390349147868E+03   -0.87144E-05   -0.87079E-05  8528   0.159E-03-0.305E-06
 149 F= -.39034915E+03 E0= -.39033519E+03  d E =0.149447E-02  mag=    11.9990
       N       E                     dE             d eps       ncg     rms          ort
SDA:   1    -0.390307388579E+03    0.41751E-01    0.00000E+00  8528   0.981E+00 0.000E+00
CGA:   2    -0.390324671548E+03   -0.17283E-01   -0.19106E-01  8528   0.124E+00-0.733E-01
CGA:   3    -0.390330366910E+03   -0.56954E-02   -0.56542E-02  8528   0.112E+00-0.498E-03
CGA:   4    -0.390342014756E+03   -0.11648E-01   -0.11603E-01  8528   0.855E-01 0.101E-02
CGA:   5    -0.390344500879E+03   -0.24861E-02   -0.24488E-02  8528   0.300E-01 0.805E-03
CGA:   6    -0.390346477248E+03   -0.19764E-02   -0.19762E-02  8528   0.259E-01 0.936E-04
CGA:   7    -0.390347992461E+03   -0.15152E-02   -0.15140E-02  8528   0.125E-01-0.805E-04
CGA:   8    -0.390348424952E+03   -0.43249E-03   -0.43445E-03  8528   0.616E-02-0.290E-04
CGA:   9    -0.390348706601E+03   -0.28165E-03   -0.28140E-03  8528   0.185E-02-0.356E-05
CGA:  10    -0.390348839998E+03   -0.13340E-03   -0.13337E-03  8528   0.231E-02 0.153E-05
CGA:  11    -0.390348929514E+03   -0.89516E-04   -0.89403E-04  8528   0.994E-03 0.150E-05
CGA:  12    -0.390348983029E+03   -0.53515E-04   -0.53523E-04  8528   0.503E-03 0.311E-06
CGA:  13    -0.390349009118E+03   -0.26089E-04   -0.26090E-04  8528   0.321E-03 0.316E-06
CGA:  14    -0.390349022193E+03   -0.13074E-04   -0.13065E-04  8528   0.217E-03-0.732E-06
CGA:  15    -0.390349038183E+03   -0.15990E-04   -0.16015E-04  8528   0.165E-03-0.165E-05
CGA:  16    -0.390349047439E+03   -0.92560E-05   -0.92524E-05  8528   0.130E-03-0.962E-06
 150 F= -.39034905E+03 E0= -.39033508E+03  d E =0.100429E-03  mag=    11.9991
