       N       E                     dE             d eps       ncg     rms          rms(c)
DAV:   1     0.280475534402E+04    0.28048E+04   -0.98585E+04129368   0.195E+03
DAV:   2     0.223628147306E+03   -0.25811E+04   -0.24024E+04126248   0.569E+02
DAV:   3    -0.221929967603E+03   -0.44556E+03   -0.43050E+03135528   0.244E+02
DAV:   4    -0.251956777370E+03   -0.30027E+02   -0.29105E+02156728   0.580E+01
DAV:   5    -0.253592301686E+03   -0.16355E+01   -0.15601E+01216328   0.945E+00    0.374E+01
DAV:   6    -0.200009087128E+03    0.53583E+02   -0.15649E+02178456   0.671E+01    0.480E+01
DAV:   7    -0.203028082686E+03   -0.30190E+01   -0.32302E+01149912   0.385E+01    0.290E+01
DAV:   8    -0.205731129889E+03   -0.27030E+01   -0.84435E+00143096   0.218E+01    0.177E+01
DAV:   9    -0.206993152514E+03   -0.12620E+01   -0.25005E+00156432   0.123E+01    0.872E+00
DAV:  10    -0.207567247973E+03   -0.57410E+00   -0.66176E-01142888   0.545E+00    0.290E+00
DAV:  11    -0.207584991182E+03   -0.17743E-01   -0.31594E-01149536   0.504E+00    0.157E+00
DAV:  12    -0.207613979406E+03   -0.28988E-01   -0.10256E-01150488   0.181E+00    0.104E+00
DAV:  13    -0.207641575687E+03   -0.27596E-01   -0.27397E-02167088   0.111E+00    0.589E-01
DAV:  14    -0.207651589216E+03   -0.10014E-01   -0.10393E-02150488   0.559E-01    0.380E-01
DAV:  15    -0.207659084869E+03   -0.74957E-02   -0.32990E-03152296   0.402E-01    0.306E-01
DAV:  16    -0.207666539575E+03   -0.74547E-02   -0.22787E-03175344   0.599E-01    0.215E-01
DAV:  17    -0.207671350935E+03   -0.48114E-02   -0.26366E-03162184   0.324E-01    0.185E-01
DAV:  18    -0.207678317043E+03   -0.69661E-02   -0.13684E-03174784   0.517E-01    0.151E-01
DAV:  19    -0.207681727626E+03   -0.34106E-02   -0.23262E-03162688   0.291E-01    0.144E-01
DAV:  20    -0.207683508837E+03   -0.17812E-02   -0.81648E-04175160   0.164E-01    0.137E-01
DAV:  21    -0.207689308903E+03   -0.58001E-02   -0.88036E-04175112   0.466E-01    0.132E-01
DAV:  22    -0.207692048115E+03   -0.27392E-02   -0.14372E-03162248   0.232E-01    0.130E-01
DAV:  23    -0.207695151344E+03   -0.31032E-02   -0.62228E-04166264   0.260E-01    0.128E-01
DAV:  24    -0.207701551639E+03   -0.64003E-02   -0.18638E-03167216   0.531E-01    0.124E-01
DAV:  25    -0.207705788979E+03   -0.42373E-02   -0.34002E-03166624   0.412E-01    0.113E-01
DAV:  26    -0.207713252209E+03   -0.74632E-02   -0.37320E-03169160   0.726E-01    0.983E-02
DAV:  27    -0.207717318609E+03   -0.40664E-02   -0.63754E-03166672   0.518E-01    0.885E-02
DAV:  28    -0.207718447673E+03   -0.11291E-02   -0.27303E-03160592   0.219E-01    0.716E-02
DAV:  29    -0.207719046564E+03   -0.59889E-03   -0.25161E-04168480   0.159E-01    0.570E-02
DAV:  30    -0.207720103717E+03   -0.10572E-02   -0.42736E-04169792   0.215E-01    0.455E-02
DAV:  31    -0.207720586469E+03   -0.48275E-03   -0.59101E-04160272   0.117E-01    0.397E-02
DAV:  32    -0.207721291496E+03   -0.70503E-03   -0.10913E-04154032   0.141E-01    0.348E-02
DAV:  33    -0.207720534124E+03    0.75737E-03   -0.19104E-04133840   0.114E-01    0.345E-02
DAV:  34    -0.207721989365E+03   -0.14552E-02   -0.19395E-04149424   0.178E-01    0.291E-02
DAV:  35    -0.207721022890E+03    0.96647E-03   -0.15746E-04140432   0.125E-01    0.294E-02
DAV:  36    -0.207722030961E+03   -0.10081E-02   -0.14297E-04148488   0.153E-01    0.232E-02
DAV:  37    -0.207722543198E+03   -0.51224E-03   -0.26841E-04161264   0.131E-01    0.226E-02
DAV:  38    -0.207722783737E+03   -0.24054E-03   -0.25336E-04151136   0.126E-01    0.201E-02
DAV:  39    -0.207723344190E+03   -0.56045E-03   -0.25357E-04155840   0.148E-01    0.225E-02
DAV:  40    -0.207723140273E+03    0.20392E-03   -0.25847E-04138304   0.899E-02    0.171E-02
DAV:  41    -0.207723153578E+03   -0.13305E-04   -0.56839E-05117712   0.877E-02    0.137E-02
DAV:  42    -0.207723154018E+03   -0.44005E-06   -0.14962E-04138120   0.101E-01    0.123E-02
DAV:  43    -0.207723061863E+03    0.92155E-04   -0.17449E-04135944   0.942E-02    0.118E-02
DAV:  44    -0.207723084481E+03   -0.22618E-04   -0.18212E-04152552   0.150E-01    0.139E-02
DAV:  45    -0.207723035146E+03    0.49335E-04   -0.29001E-04129352   0.645E-02    0.108E-02
DAV:  46    -0.207723165781E+03   -0.13063E-03   -0.40344E-05 99536   0.806E-02    0.974E-03
DAV:  47    -0.207723245463E+03   -0.79683E-04   -0.96101E-05113392   0.573E-02    0.849E-03
DAV:  48    -0.207723304776E+03   -0.59312E-04   -0.52630E-05 94832   0.666E-02    0.868E-03
DAV:  49    -0.207723380670E+03   -0.75894E-04   -0.77032E-05107920   0.460E-02    0.832E-03
DAV:  50    -0.207723343365E+03    0.37305E-04   -0.35110E-05 91248   0.396E-02    0.851E-03
DAV:  51    -0.207723341842E+03    0.15228E-05   -0.82632E-06 74008   0.241E-02
   1 F= -.20772334E+03 E0= -.20772334E+03  d E =-.207723E+03  mag=    12.0000
       N       E                     dE             d eps       ncg     rms          rms(c)
DAV:   1    -0.207705051926E+03    0.18291E-01   -0.35434E-01168536   0.100E+01    0.607E-01
DAV:   2    -0.207723927781E+03   -0.18876E-01   -0.19519E-01134080   0.140E+00    0.342E-01
DAV:   3    -0.207724295004E+03   -0.36722E-03   -0.62780E-03148864   0.399E-01    0.188E-01
DAV:   4    -0.207724345989E+03   -0.50985E-04   -0.61063E-04169096   0.117E-01    0.112E-01
DAV:   5    -0.207724255373E+03    0.90616E-04   -0.16934E-04158152   0.779E-02    0.393E-02
DAV:   6    -0.207724266880E+03   -0.11508E-04   -0.37428E-05119464   0.363E-02    0.171E-02
DAV:   7    -0.207724275517E+03   -0.86364E-05   -0.12860E-05 77400   0.198E-02
   2 F= -.20772428E+03 E0= -.20772428E+03  d E =-.933674E-03  mag=    12.0000
       N       E                     dE             d eps       ncg     rms          rms(c)
DAV:   1    -0.207724280939E+03   -0.14059E-04   -0.98890E-05155104   0.166E-01    0.120E-02
DAV:   2    -0.207724286818E+03   -0.58792E-05   -0.57011E-05109488   0.249E-02    0.872E-03
DAV:   3    -0.207724293542E+03   -0.67237E-05   -0.18814E-06 67320   0.881E-03    0.671E-03
DAV:   4    -0.207724305440E+03   -0.11898E-04   -0.58280E-07 66264   0.724E-03    0.575E-03
DAV:   5    -0.207724317146E+03   -0.11706E-04   -0.65087E-07 65600   0.813E-03    0.509E-03
DAV:   6    -0.207724328411E+03   -0.11265E-04   -0.99833E-07 65288   0.929E-03    0.468E-03
DAV:   7    -0.207724357011E+03   -0.28600E-04   -0.38029E-06 68368   0.190E-02    0.423E-03
DAV:   8    -0.207724370859E+03   -0.13847E-04   -0.47803E-06 74384   0.119E-02    0.414E-03
DAV:   9    -0.207724378823E+03   -0.79644E-05   -0.12230E-06 65736   0.735E-03
   3 F= -.20772438E+03 E0= -.20772438E+03  d E =-.103698E-02  mag=    12.0000
       N       E                     dE             d eps       ncg     rms          rms(c)
DAV:   1    -0.207721272283E+03    0.30986E-02   -0.16218E-01155752   0.428E+00    0.295E-01
DAV:   2    -0.207724929809E+03   -0.36575E-02   -0.40191E-02131104   0.726E-01    0.180E-01
DAV:   3    -0.207724864277E+03    0.65532E-04   -0.12754E-03150968   0.168E-01    0.106E-01
DAV:   4    -0.207724708379E+03    0.15590E-03   -0.17630E-04160344   0.783E-02    0.515E-02
DAV:   5    -0.207724717028E+03   -0.86497E-05   -0.60189E-05140048   0.412E-02    0.162E-02
DAV:   6    -0.207724729260E+03   -0.12232E-04   -0.83648E-06 76976   0.187E-02    0.968E-03
DAV:   7    -0.207724735477E+03   -0.62166E-05   -0.31591E-06 70160   0.128E-02
   4 F= -.20772474E+03 E0= -.20772474E+03  d E =-.356654E-03  mag=    12.0000
