       N       E                     dE             d eps       ncg     rms          rms(c)
DAV:   1     0.239199150699E+04    0.23920E+04   -0.99615E+04128576   0.178E+03
DAV:   2     0.882676025661E+02   -0.23037E+04   -0.21440E+04127344   0.516E+02
DAV:   3    -0.240458653403E+03   -0.32873E+03   -0.32105E+03136456   0.204E+02
DAV:   4    -0.257934452968E+03   -0.17476E+02   -0.17365E+02164784   0.441E+01
DAV:   5    -0.258870859547E+03   -0.93641E+00   -0.93317E+00217352   0.747E+00    0.732E+00
DAV:   6    -0.211222415778E+03    0.47648E+02   -0.22212E+01134192   0.168E+01    0.881E+00
DAV:   7    -0.211022771620E+03    0.19964E+00   -0.91691E-01179616   0.335E+00    0.386E+00
DAV:   8    -0.210922701581E+03    0.10007E+00   -0.13272E-01145528   0.132E+00    0.251E+00
DAV:   9    -0.210879546080E+03    0.43156E-01   -0.44393E-02145024   0.729E-01    0.170E+00
DAV:  10    -0.210867636327E+03    0.11910E-01   -0.55050E-03155504   0.285E-01    0.137E+00
DAV:  11    -0.210860720901E+03    0.69154E-02   -0.23871E-03145232   0.194E-01    0.116E+00
DAV:  12    -0.210852057815E+03    0.86631E-02   -0.58444E-03144816   0.290E-01    0.824E-01
DAV:  13    -0.210848428732E+03    0.36291E-02   -0.18261E-03148144   0.153E-01    0.656E-01
DAV:  14    -0.210845349225E+03    0.30795E-02   -0.18080E-03145048   0.160E-01    0.472E-01
DAV:  15    -0.210842972646E+03    0.23766E-02   -0.20223E-03146208   0.169E-01    0.287E-01
DAV:  16    -0.210842446422E+03    0.52622E-03   -0.32934E-04165816   0.600E-02    0.237E-01
DAV:  17    -0.210842322659E+03    0.12376E-03   -0.52418E-05 96456   0.208E-02    0.223E-01
DAV:  18    -0.210842305882E+03    0.16777E-04   -0.45209E-05 77120   0.186E-02    0.218E-01
DAV:  19    -0.210842379849E+03   -0.73966E-04   -0.21599E-04 94688   0.384E-02    0.213E-01
DAV:  20    -0.210842411962E+03   -0.32113E-04   -0.27056E-05 82160   0.135E-02    0.214E-01
DAV:  21    -0.210842384691E+03    0.27271E-04   -0.11361E-03146512   0.982E-02    0.186E-01
DAV:  22    -0.210842762498E+03   -0.37781E-03   -0.57532E-03159312   0.206E-01    0.167E-01
DAV:  23    -0.210842109565E+03    0.65293E-03   -0.43141E-03153952   0.204E-01    0.140E-01
DAV:  24    -0.210841824698E+03    0.28487E-03   -0.70497E-04146232   0.725E-02    0.119E-01
DAV:  25    -0.210841243016E+03    0.58168E-03   -0.56011E-03150952   0.203E-01    0.109E-01
DAV:  26    -0.210841283137E+03   -0.40121E-04   -0.21335E-04118976   0.466E-02    0.106E-01
DAV:  27    -0.210841230312E+03    0.52824E-04   -0.11990E-05 75232   0.129E-02    0.103E-01
DAV:  28    -0.210841353566E+03   -0.12325E-03   -0.24845E-04 91624   0.478E-02    0.103E-01
DAV:  29    -0.210841653866E+03   -0.30030E-03   -0.20128E-03152712   0.134E-01    0.114E-01
DAV:  30    -0.210842229961E+03   -0.57610E-03   -0.63657E-03163296   0.225E-01    0.141E-01
DAV:  31    -0.210842178994E+03    0.50968E-04   -0.20980E-03159648   0.116E-01    0.123E-01
DAV:  32    -0.210841846695E+03    0.33230E-03   -0.30700E-04133048   0.558E-02    0.916E-02
DAV:  33    -0.210841905761E+03   -0.59065E-04   -0.26157E-04 95560   0.424E-02    0.908E-02
DAV:  34    -0.210841894181E+03    0.11579E-04   -0.35377E-05 81344   0.147E-02    0.896E-02
DAV:  35    -0.210841865305E+03    0.28876E-04   -0.50429E-05 70472   0.179E-02    0.853E-02
DAV:  36    -0.210841834297E+03    0.31009E-04   -0.12529E-05 73376   0.117E-02    0.830E-02
DAV:  37    -0.210841799763E+03    0.34534E-04   -0.70496E-06 65352   0.940E-03    0.806E-02
DAV:  38    -0.210841792867E+03    0.68962E-05   -0.12005E-05 69272   0.102E-02
   1 F= -.21084179E+03 E0= -.21084179E+03  d E =-.210842E+03  mag=    16.0000
       N       E                     dE             d eps       ncg     rms          rms(c)
DAV:   1    -0.210851645186E+03   -0.98454E-02   -0.36404E-01136944   0.353E+00    0.872E-01
DAV:   2    -0.210840386911E+03    0.11258E-01   -0.48421E-02130376   0.966E-01    0.452E-01
DAV:   3    -0.210841836396E+03   -0.14495E-02   -0.34978E-03143440   0.355E-01    0.227E-01
DAV:   4    -0.210841670333E+03    0.16606E-03   -0.50920E-04157240   0.103E-01    0.126E-01
DAV:   5    -0.210841554383E+03    0.11595E-03   -0.32308E-04172176   0.710E-02    0.504E-02
DAV:   6    -0.210841875548E+03   -0.32116E-03   -0.12789E-04128120   0.367E-02    0.291E-02
DAV:   7    -0.210841861237E+03    0.14311E-04   -0.86970E-05 82008   0.266E-02    0.266E-02
DAV:   8    -0.210841930169E+03   -0.68932E-04   -0.86366E-05 82736   0.241E-02    0.257E-02
DAV:   9    -0.210841999997E+03   -0.69828E-04   -0.99487E-05 81920   0.253E-02    0.254E-02
DAV:  10    -0.210842120489E+03   -0.12049E-03   -0.24485E-04 91216   0.408E-02    0.255E-02
DAV:  11    -0.210842093441E+03    0.27048E-04   -0.27903E-05 79488   0.225E-02    0.252E-02
DAV:  12    -0.210842087507E+03    0.59337E-05   -0.14734E-06 63912   0.475E-03
   2 F= -.21084209E+03 E0= -.21084209E+03  d E =-.294640E-03  mag=    16.0000
