       N       E                     dE             d eps       ncg     rms          rms(c)
DAV:   1     0.149688807991E+04    0.14969E+04   -0.47741E+04 94552   0.166E+03
DAV:   2     0.996657518310E+02   -0.13972E+04   -0.13064E+04 95768   0.545E+02
DAV:   3    -0.136405046664E+03   -0.23607E+03   -0.22943E+03107000   0.216E+02
DAV:   4    -0.148626263814E+03   -0.12221E+02   -0.11777E+02119504   0.506E+01
DAV:   5    -0.149140707715E+03   -0.51444E+00   -0.50664E+00117720   0.990E+00    0.285E+01
DAV:   6    -0.118749242257E+03    0.30391E+02   -0.81284E+01129360   0.577E+01    0.195E+01
DAV:   7    -0.124620459736E+03   -0.58712E+01   -0.10071E+01119920   0.147E+01    0.868E+00
DAV:   8    -0.125382193701E+03   -0.76173E+00   -0.11699E+00130168   0.695E+00    0.563E+00
DAV:   9    -0.126223149884E+03   -0.84096E+00   -0.10641E+00131800   0.716E+00    0.197E+00
DAV:  10    -0.126234764450E+03   -0.11615E-01   -0.12254E-01111016   0.204E+00    0.775E-01
DAV:  11    -0.126226072354E+03    0.86921E-02   -0.46904E-02128744   0.143E+00    0.343E-01
DAV:  12    -0.126222145298E+03    0.39271E-02   -0.44779E-03116952   0.404E-01    0.248E-01
DAV:  13    -0.126223289967E+03   -0.11447E-02   -0.46521E-03129936   0.412E-01    0.106E-01
DAV:  14    -0.126223252355E+03    0.37611E-04   -0.32040E-04123856   0.120E-01    0.536E-02
DAV:  15    -0.126222945333E+03    0.30702E-03   -0.56344E-05108816   0.363E-02    0.275E-02
DAV:  16    -0.126223030269E+03   -0.84936E-04   -0.57124E-05 91312   0.342E-02    0.130E-02
DAV:  17    -0.126223000609E+03    0.29660E-04   -0.28185E-06 63008   0.122E-02    0.106E-02
DAV:  18    -0.126222997694E+03    0.29155E-05   -0.53076E-07 57832   0.518E-03
   1 F= -.12622300E+03 E0= -.12622300E+03  d E =-.126223E+03  mag=     8.0000
       N       E                     dE             d eps       ncg     rms          rms(c)
DAV:   1    -0.126818416825E+03   -0.59542E+00   -0.15485E+01 99136   0.233E+01    0.594E+00
DAV:   2    -0.126307380859E+03    0.51104E+00   -0.18069E+00109368   0.719E+00    0.209E+00
DAV:   3    -0.126250042810E+03    0.57338E-01   -0.29502E-01108880   0.285E+00    0.624E-01
DAV:   4    -0.126249911985E+03    0.13083E-03   -0.10479E-02116112   0.710E-01    0.334E-01
DAV:   5    -0.126245030624E+03    0.48814E-02   -0.26805E-03122560   0.316E-01    0.136E-01
DAV:   6    -0.126246473773E+03   -0.14431E-02   -0.36757E-04106680   0.117E-01    0.578E-02
DAV:   7    -0.126246019364E+03    0.45441E-03   -0.19373E-04100440   0.841E-02    0.186E-02
DAV:   8    -0.126246141025E+03   -0.12166E-03   -0.28763E-05 87024   0.329E-02    0.593E-03
DAV:   9    -0.126246184818E+03   -0.43793E-04   -0.53858E-06 68648   0.139E-02    0.297E-03
DAV:  10    -0.126246154082E+03    0.30736E-04   -0.29949E-06 63408   0.986E-03    0.198E-03
DAV:  11    -0.126246167456E+03   -0.13374E-04   -0.84297E-07 60032   0.550E-03    0.118E-03
DAV:  12    -0.126246174785E+03   -0.73291E-05   -0.10496E-07 53896   0.201E-03
   2 F= -.12624617E+03 E0= -.12624617E+03  d E =-.231771E-01  mag=     8.0000
       N       E                     dE             d eps       ncg     rms          rms(c)
DAV:   1    -0.126276748030E+03   -0.30581E-01   -0.71921E-01 98536   0.499E+00    0.130E+00
DAV:   2    -0.126251029746E+03    0.25718E-01   -0.84543E-02105544   0.154E+00    0.450E-01
DAV:   3    -0.126248817283E+03    0.22125E-02   -0.14262E-02107680   0.644E-01    0.126E-01
DAV:   4    -0.126247901158E+03    0.91612E-03   -0.52775E-04116568   0.164E-01    0.672E-02
DAV:   5    -0.126248417510E+03   -0.51635E-03   -0.13942E-04110280   0.733E-02    0.284E-02
DAV:   6    -0.126248014611E+03    0.40290E-03   -0.19508E-05 83352   0.294E-02    0.115E-02
DAV:   7    -0.126248131770E+03   -0.11716E-03   -0.95943E-06 66760   0.203E-02    0.340E-03
DAV:   8    -0.126248088939E+03    0.42832E-04   -0.18180E-06 59184   0.957E-03    0.169E-03
DAV:   9    -0.126248087662E+03    0.12768E-05   -0.38000E-07 56608   0.408E-03
   3 F= -.12624809E+03 E0= -.12624809E+03  d E =-.250900E-01  mag=     8.0000
