       N       E                     dE             d eps       ncg     rms          rms(c)
DAV:   1     0.565882999119E+04    0.56588E+04   -0.25061E+05 31672   0.161E+03
DAV:   2     0.251781103391E+03   -0.54070E+04   -0.49954E+04 32048   0.471E+02
DAV:   3    -0.385413255895E+03   -0.63719E+03   -0.62717E+03 31760   0.178E+02
DAV:   4    -0.402317547929E+03   -0.16904E+02   -0.16798E+02 34952   0.303E+01
DAV:   5    -0.402851493566E+03   -0.53395E+00   -0.53296E+00 44688   0.455E+00    0.823E+01
DAV:   6    -0.338979120131E+03    0.63872E+02   -0.30903E+02 38240   0.610E+01    0.518E+01
DAV:   7    -0.372129585861E+03   -0.33150E+02   -0.81730E+01 34152   0.508E+01    0.111E+02
DAV:   8    -0.342996513969E+03    0.29133E+02   -0.48222E+01 34080   0.294E+01    0.722E+01
DAV:   9    -0.338407178550E+03    0.45893E+01   -0.69548E+01 34440   0.172E+01    0.510E+01
DAV:  10    -0.342478781148E+03   -0.40716E+01   -0.56033E+01 34528   0.174E+01    0.703E+01
DAV:  11    -0.339783495410E+03    0.26953E+01   -0.11693E+02 33568   0.182E+01    0.621E+01
DAV:  12    -0.337709326885E+03    0.20742E+01   -0.12735E+02 33720   0.180E+01    0.363E+01
DAV:  13    -0.333695548972E+03    0.40138E+01   -0.40338E+00 34856   0.984E+00    0.265E+01
DAV:  14    -0.333411777929E+03    0.28377E+00   -0.95766E-01 34496   0.604E+00    0.257E+01
DAV:  15    -0.333609662617E+03   -0.19788E+00   -0.33099E+00 35136   0.490E+00    0.213E+01
DAV:  16    -0.335311351668E+03   -0.17017E+01   -0.55844E+00 37824   0.555E+00    0.346E+01
DAV:  17    -0.334011251413E+03    0.13001E+01   -0.62931E+00 34248   0.476E+00    0.187E+01
DAV:  18    -0.333751448912E+03    0.25980E+00   -0.60232E-01 34432   0.222E+00    0.144E+01
DAV:  19    -0.334075257553E+03   -0.32381E+00   -0.91908E-01 34312   0.156E+00    0.183E+01
DAV:  20    -0.334029041081E+03    0.46216E-01   -0.10916E-01 34760   0.102E+00    0.175E+01
DAV:  21    -0.334046323405E+03   -0.17282E-01   -0.81564E-02 37696   0.869E-01    0.158E+01
DAV:  22    -0.334301263553E+03   -0.25494E+00   -0.46141E-01 33776   0.832E-01    0.157E+01
DAV:  23    -0.334349042047E+03   -0.47778E-01   -0.26424E-02 31568   0.350E-01    0.157E+01
DAV:  24    -0.334423983493E+03   -0.74941E-01   -0.19043E-02 34480   0.297E-01    0.157E+01
DAV:  25    -0.334463246117E+03   -0.39263E-01   -0.26030E-01 37712   0.757E-01    0.157E+01
DAV:  26    -0.334356656627E+03    0.10659E+00   -0.26063E-01 37896   0.109E+00    0.164E+01
DAV:  27    -0.333837718007E+03    0.51894E+00   -0.11403E-01 36608   0.135E+00    0.181E+01
DAV:  28    -0.333388220897E+03    0.44950E+00   -0.72301E-02 35472   0.964E-01    0.182E+01
DAV:  29    -0.333673857357E+03   -0.28564E+00   -0.89304E-02 34048   0.137E+00    0.178E+01
DAV:  30    -0.333667921871E+03    0.59355E-02   -0.23020E-02 31936   0.302E-01    0.161E+01
DAV:  31    -0.333756583185E+03   -0.88661E-01   -0.42896E-02 31184   0.216E-01    0.164E+01
DAV:  32    -0.333814858061E+03   -0.58275E-01   -0.68464E-02 35888   0.688E-01    0.161E+01
DAV:  33    -0.334104565870E+03   -0.28971E+00   -0.49986E-01 38664   0.135E+00    0.138E+01
DAV:  34    -0.334177355371E+03   -0.72790E-01   -0.61755E-02 31000   0.739E-01    0.181E+01
DAV:  35    -0.334243452018E+03   -0.66097E-01   -0.22221E-02 30888   0.368E-01    0.199E+01
DAV:  36    -0.334231862873E+03    0.11589E-01   -0.21077E-03 32152   0.168E-01    0.199E+01
DAV:  37    -0.334202761494E+03    0.29101E-01   -0.14474E-03 37560   0.160E-01    0.197E+01
DAV:  38    -0.334228886205E+03   -0.26125E-01   -0.54044E-04 31768   0.996E-02    0.198E+01
DAV:  39    -0.334357791659E+03   -0.12891E+00   -0.52216E-03 41176   0.353E-01    0.199E+01
DAV:  40    -0.334161677952E+03    0.19611E+00   -0.14532E-02 37680   0.609E-01    0.177E+01
DAV:  41    -0.334173188819E+03   -0.11511E-01   -0.30907E-03 31448   0.132E-01    0.172E+01
DAV:  42    -0.334136636250E+03    0.36553E-01   -0.28144E-03 42880   0.204E-01    0.141E+01
DAV:  43    -0.334157257918E+03   -0.20622E-01   -0.18192E-03 30336   0.151E-01    0.133E+01
DAV:  44    -0.334160579846E+03   -0.33219E-02   -0.40052E-04 31136   0.668E-02    0.129E+01
DAV:  45    -0.334166123840E+03   -0.55440E-02   -0.14153E-04 30352   0.406E-02    0.127E+01
DAV:  46    -0.334157702419E+03    0.84214E-02   -0.22981E-04 31896   0.461E-02    0.126E+01
DAV:  47    -0.334135451248E+03    0.22251E-01   -0.10150E-03 39280   0.114E-01    0.124E+01
DAV:  48    -0.334149098846E+03   -0.13648E-01   -0.35041E-04 30376   0.799E-02    0.124E+01
DAV:  49    -0.334133807284E+03    0.15292E-01   -0.42536E-04 35504   0.841E-02    0.123E+01
DAV:  50    -0.334081911434E+03    0.51896E-01   -0.53961E-03 37328   0.245E-01    0.123E+01
DAV:  51    -0.334393529336E+03   -0.31162E+00   -0.40247E-01 43672   0.205E+00    0.162E+01
DAV:  52    -0.334345325328E+03    0.48204E-01   -0.43759E-02 30936   0.661E-01    0.158E+01
DAV:  53    -0.334163467306E+03    0.18186E+00   -0.30555E-02 41288   0.831E-01    0.148E+01
DAV:  54    -0.333890611317E+03    0.27286E+00   -0.18826E-01 41304   0.158E+00    0.129E+01
DAV:  55    -0.334037002523E+03   -0.14639E+00   -0.36623E-01 34184   0.984E-01    0.145E+01
DAV:  56    -0.333952303052E+03    0.84699E-01   -0.24137E+00 38128   0.226E+00    0.196E+01
DAV:  57    -0.333976447172E+03   -0.24144E-01   -0.78272E-01 33104   0.126E+00    0.147E+01
DAV:  58    -0.334027780256E+03   -0.51333E-01   -0.14976E-02 31056   0.422E-01    0.149E+01
DAV:  59    -0.334074229535E+03   -0.46449E-01   -0.10938E-02 40376   0.514E-01    0.148E+01
DAV:  60    -0.334085075844E+03   -0.10846E-01   -0.51201E-03 33856   0.195E-01    0.148E+01
DAV:  61    -0.331587281195E+03    0.24978E+01   -0.25033E+01 39120   0.128E+01    0.375E+01
DAV:  62    -0.334375658107E+03   -0.27884E+01   -0.58609E+00 34544   0.730E+00    0.215E+01
DAV:  63    -0.334108500727E+03    0.26716E+00   -0.10481E+00 36160   0.309E+00    0.137E+01
DAV:  64    -0.334157866026E+03   -0.49365E-01   -0.19906E-01 32192   0.117E+00    0.129E+01
DAV:  65    -0.334169964768E+03   -0.12099E-01   -0.78663E-02 36488   0.615E-01    0.139E+01
DAV:  66    -0.334168526791E+03    0.14380E-02   -0.12906E-01 34376   0.651E-01    0.127E+01
DAV:  67    -0.334148932060E+03    0.19595E-01   -0.16136E-01 34768   0.637E-01    0.115E+01
DAV:  68    -0.334171594515E+03   -0.22662E-01   -0.34971E-02 33400   0.349E-01    0.120E+01
DAV:  69    -0.334169074539E+03    0.25200E-02   -0.84132E-03 32384   0.195E-01    0.121E+01
DAV:  70    -0.334167976587E+03    0.10980E-02   -0.57833E-03 32928   0.108E-01    0.122E+01
DAV:  71    -0.334149606847E+03    0.18370E-01   -0.10033E-02 38624   0.385E-01    0.116E+01
DAV:  72    -0.334146247971E+03    0.33589E-02   -0.17669E-02 41680   0.369E-01    0.112E+01
DAV:  73    -0.334150937838E+03   -0.46899E-02   -0.48025E-03 31152   0.135E-01    0.113E+01
DAV:  74    -0.334150147732E+03    0.79011E-03   -0.13507E-03 33392   0.154E-01    0.111E+01
DAV:  75    -0.334151827540E+03   -0.16798E-02   -0.28314E-04 31760   0.414E-02    0.111E+01
DAV:  76    -0.334151795535E+03    0.32004E-04   -0.10980E-01 40256   0.535E-01    0.101E+01
DAV:  77    -0.334139623799E+03    0.12172E-01   -0.44026E-02 38632   0.612E-01    0.973E+00
DAV:  78    -0.334122450000E+03    0.17174E-01   -0.17209E-02 37752   0.390E-01    0.914E+00
DAV:  79    -0.334172202609E+03   -0.49753E-01   -0.15809E-02 36776   0.325E-01    0.124E+01
DAV:  80    -0.334178709861E+03   -0.65073E-02   -0.57204E-03 30880   0.272E-01    0.135E+01
DAV:  81    -0.334184141595E+03   -0.54317E-02   -0.73824E-03 36096   0.327E-01    0.136E+01
DAV:  82    -0.334182596817E+03    0.15448E-02   -0.14782E-03 31448   0.855E-02    0.135E+01
DAV:  83    -0.334182496610E+03    0.10021E-03   -0.11684E-03 36336   0.756E-02    0.134E+01
DAV:  84    -0.334181987935E+03    0.50868E-03   -0.65327E-04 35152   0.614E-02    0.135E+01
DAV:  85    -0.334182965879E+03   -0.97794E-03   -0.14237E-03 35128   0.707E-02    0.136E+01
DAV:  86    -0.334249489084E+03   -0.66523E-01   -0.48188E-02 39824   0.707E-01    0.130E+01
DAV:  87    -0.334218621069E+03    0.30868E-01   -0.85023E-03 32088   0.298E-01    0.129E+01
DAV:  88    -0.334206518351E+03    0.12103E-01   -0.58401E-03 38568   0.225E-01    0.133E+01
DAV:  89    -0.334201965345E+03    0.45530E-02   -0.32221E-03 37672   0.187E-01    0.134E+01
DAV:  90    -0.334201372250E+03    0.59310E-03   -0.16436E-03 37744   0.116E-01    0.134E+01
DAV:  91    -0.334174955963E+03    0.26416E-01   -0.29372E-03 39984   0.206E-01    0.136E+01
DAV:  92    -0.334171360198E+03    0.35958E-02   -0.22217E-03 32648   0.109E-01    0.135E+01
DAV:  93    -0.334187574306E+03   -0.16214E-01   -0.36469E-03 36168   0.135E-01    0.136E+01
DAV:  94    -0.334235311884E+03   -0.47738E-01   -0.59856E-03 37200   0.247E-01    0.136E+01
DAV:  95    -0.334238367676E+03   -0.30558E-02   -0.92860E-04 31056   0.571E-02    0.136E+01
DAV:  96    -0.334122523234E+03    0.11584E+00   -0.42421E-02 38176   0.900E-01    0.144E+01
DAV:  97    -0.334052959706E+03    0.69564E-01   -0.21005E-02 34968   0.382E-01    0.142E+01
DAV:  98    -0.333995007565E+03    0.57952E-01   -0.21054E-02 41840   0.500E-01    0.115E+01
DAV:  99    -0.334005323802E+03   -0.10316E-01   -0.82939E-03 30632   0.356E-01    0.113E+01
DAV: 100    -0.333975199274E+03    0.30125E-01   -0.54724E-03 35248   0.228E-01    0.107E+01
DAV: 101    -0.333998290659E+03   -0.23091E-01   -0.20241E-02 39016   0.449E-01    0.109E+01
DAV: 102    -0.334025479959E+03   -0.27189E-01   -0.12836E-02 34392   0.263E-01    0.123E+01
DAV: 103    -0.334022431824E+03    0.30481E-02   -0.89426E-03 33512   0.265E-01    0.131E+01
DAV: 104    -0.333989417483E+03    0.33014E-01   -0.17994E-02 37832   0.237E-01    0.121E+01
DAV: 105    -0.333978367166E+03    0.11050E-01   -0.15935E-02 36096   0.205E-01    0.111E+01
DAV: 106    -0.334049278304E+03   -0.70911E-01   -0.10830E+00 38688   0.963E-01    0.172E+01
DAV: 107    -0.333913101604E+03    0.13618E+00   -0.90311E-02 32872   0.922E-01    0.966E+00
DAV: 108    -0.333934086888E+03   -0.20985E-01   -0.40240E-02 31232   0.340E-01    0.937E+00
DAV: 109    -0.333936460168E+03   -0.23733E-02   -0.18316E-02 34424   0.250E-01    0.867E+00
DAV: 110    -0.333943692314E+03   -0.72321E-02   -0.37508E-03 32080   0.141E-01    0.848E+00
DAV: 111    -0.333963610823E+03   -0.19919E-01   -0.26142E-02 38384   0.287E-01    0.930E+00
DAV: 112    -0.333956025246E+03    0.75856E-02   -0.25232E-03 30808   0.163E-01    0.932E+00
DAV: 113    -0.333946913258E+03    0.91120E-02   -0.14444E-03 37136   0.984E-02    0.902E+00
DAV: 114    -0.333937943597E+03    0.89697E-02   -0.51569E-03 38216   0.131E-01    0.837E+00
DAV: 115    -0.333941232232E+03   -0.32886E-02   -0.69785E-03 35216   0.145E-01    0.844E+00
DAV: 116    -0.333970284529E+03   -0.29052E-01   -0.20423E-01 41448   0.771E-01    0.981E+00
DAV: 117    -0.333981079602E+03   -0.10795E-01   -0.39619E-02 33104   0.773E-01    0.649E+00
DAV: 118    -0.333991153858E+03   -0.10074E-01   -0.19317E-02 31200   0.456E-01    0.625E+00
DAV: 119    -0.333972242960E+03    0.18911E-01   -0.16576E-02 36624   0.303E-01    0.603E+00
DAV: 120    -0.333966531272E+03    0.57117E-02   -0.11002E-02 34464   0.241E-01    0.612E+00
DAV: 121    -0.334109316698E+03   -0.14279E+00   -0.76549E-02 39968   0.116E+00    0.115E+01
DAV: 122    -0.334143661962E+03   -0.34345E-01   -0.49449E-02 30816   0.533E-01    0.114E+01
DAV: 123    -0.334149165173E+03   -0.55032E-02   -0.12202E-02 32376   0.311E-01    0.117E+01
DAV: 124    -0.334152108777E+03   -0.29436E-02   -0.72023E-03 34688   0.193E-01    0.116E+01
DAV: 125    -0.334160476076E+03   -0.83673E-02   -0.12916E-02 39672   0.252E-01    0.112E+01
DAV: 126    -0.334216094921E+03   -0.55619E-01   -0.19721E-01 37344   0.699E-01    0.106E+01
DAV: 127    -0.334211814116E+03    0.42808E-02   -0.31885E-02 31832   0.416E-01    0.102E+01
DAV: 128    -0.334196769024E+03    0.15045E-01   -0.15716E-02 38616   0.239E-01    0.956E+00
DAV: 129    -0.334188275424E+03    0.84936E-02   -0.50111E-03 34296   0.138E-01    0.912E+00
DAV: 130    -0.334190908532E+03   -0.26331E-02   -0.31743E-04 30968   0.489E-02    0.911E+00
DAV: 131    -0.334183496174E+03    0.74124E-02   -0.59632E-03 39408   0.186E-01    0.898E+00
DAV: 132    -0.334156962191E+03    0.26534E-01   -0.20696E-02 40720   0.306E-01    0.773E+00
DAV: 133    -0.334138998878E+03    0.17963E-01   -0.14491E-02 37128   0.382E-01    0.752E+00
DAV: 134    -0.334137180080E+03    0.18188E-02   -0.56092E-03 32104   0.182E-01    0.739E+00
DAV: 135    -0.334130227731E+03    0.69523E-02   -0.21585E-03 35344   0.918E-02    0.732E+00
DAV: 136    -0.334147989348E+03   -0.17762E-01   -0.30734E-02 36824   0.291E-01    0.777E+00
DAV: 137    -0.334143835261E+03    0.41541E-02   -0.31466E-03 31776   0.154E-01    0.771E+00
DAV: 138    -0.334145942810E+03   -0.21075E-02   -0.16759E-03 33136   0.794E-02    0.753E+00
DAV: 139    -0.334143817631E+03    0.21252E-02   -0.51832E-03 38072   0.115E-01    0.738E+00
DAV: 140    -0.334139267006E+03    0.45506E-02   -0.15083E-03 31088   0.894E-02    0.730E+00
DAV: 141    -0.334126883937E+03    0.12383E-01   -0.40540E-02 36552   0.283E-01    0.755E+00
DAV: 142    -0.334103631372E+03    0.23253E-01   -0.12558E-02 37032   0.317E-01    0.753E+00
DAV: 143    -0.334092801084E+03    0.10830E-01   -0.30445E-03 33408   0.132E-01    0.754E+00
DAV: 144    -0.334089199929E+03    0.36012E-02   -0.64922E-04 30752   0.447E-02    0.745E+00
DAV: 145    -0.334092532500E+03   -0.33326E-02   -0.37106E-04 28888   0.431E-02    0.756E+00
DAV: 146    -0.334048271811E+03    0.44261E-01   -0.13802E-02 40008   0.362E-01    0.705E+00
DAV: 147    -0.334051853505E+03   -0.35817E-02   -0.22320E-03 31480   0.954E-02    0.708E+00
DAV: 148    -0.334046985271E+03    0.48682E-02   -0.88620E-04 31776   0.544E-02    0.695E+00
DAV: 149    -0.334045544079E+03    0.14412E-02   -0.67305E-05 28368   0.197E-02    0.697E+00
DAV: 150    -0.334041273950E+03    0.42701E-02   -0.11097E-02 39016   0.147E-01    0.657E+00
DAV: 151    -0.334046561735E+03   -0.52878E-02   -0.10939E-02 36392   0.194E-01    0.615E+00
DAV: 152    -0.334040397922E+03    0.61638E-02   -0.21735E-02 34248   0.240E-01    0.615E+00
DAV: 153    -0.334036873666E+03    0.35243E-02   -0.73042E-03 30944   0.940E-02    0.653E+00
DAV: 154    -0.334039637476E+03   -0.27638E-02   -0.11925E-02 33648   0.724E-02    0.726E+00
DAV: 155    -0.334035174286E+03    0.44632E-02   -0.53583E-03 32104   0.954E-02    0.808E+00
DAV: 156    -0.334064251770E+03   -0.29077E-01   -0.56084E-02 39616   0.278E-01    0.107E+01
DAV: 157    -0.334075854018E+03   -0.11602E-01   -0.96021E-03 30472   0.173E-01    0.113E+01
DAV: 158    -0.334092325289E+03   -0.16471E-01   -0.50221E-03 34000   0.127E-01    0.112E+01
DAV: 159    -0.334093677023E+03   -0.13517E-02   -0.11376E-03 31440   0.520E-02    0.111E+01
DAV: 160    -0.334100081387E+03   -0.64044E-02   -0.48564E-04 33544   0.557E-02    0.110E+01
DAV: 161    -0.334202727884E+03   -0.10265E+00   -0.77974E-02 39080   0.528E-01    0.102E+01
DAV: 162    -0.334181325780E+03    0.21402E-01   -0.10412E-02 32824   0.338E-01    0.989E+00
DAV: 163    -0.334182551993E+03   -0.12262E-02   -0.14704E-03 30488   0.113E-01    0.988E+00
DAV: 164    -0.334184114302E+03   -0.15623E-02   -0.23272E-04 29752   0.392E-02    0.986E+00
DAV: 165    -0.334190974708E+03   -0.68604E-02   -0.22939E-03 38176   0.116E-01    0.974E+00
DAV: 166    -0.334272201905E+03   -0.81227E-01   -0.10100E-01 37392   0.578E-01    0.882E+00
DAV: 167    -0.334261517128E+03    0.10685E-01   -0.72096E-03 31224   0.212E-01    0.909E+00
DAV: 168    -0.334227532226E+03    0.33985E-01   -0.27557E-02 41056   0.335E-01    0.857E+00
DAV: 169    -0.334226086726E+03    0.14455E-02   -0.69954E-03 32416   0.162E-01    0.854E+00
DAV: 170    -0.334205818970E+03    0.20268E-01   -0.14897E-02 40920   0.296E-01    0.894E+00
DAV: 171    -0.334223513509E+03   -0.17695E-01   -0.29261E-02 38424   0.490E-01    0.935E+00
DAV: 172    -0.334226581968E+03   -0.30685E-02   -0.47347E-03 32216   0.150E-01    0.946E+00
DAV: 173    -0.334232842904E+03   -0.62609E-02   -0.11742E-03 33368   0.851E-02    0.946E+00
DAV: 174    -0.334258298258E+03   -0.25455E-01   -0.35481E-03 42536   0.264E-01    0.945E+00
DAV: 175    -0.334307216453E+03   -0.48918E-01   -0.75318E-03 42160   0.412E-01    0.993E+00
DAV: 176    -0.334276858909E+03    0.30358E-01   -0.20374E-02 31976   0.313E-01    0.111E+01
DAV: 177    -0.334238752085E+03    0.38107E-01   -0.41182E-03 31680   0.207E-01    0.109E+01
DAV: 178    -0.334169476260E+03    0.69276E-01   -0.81450E-03 38168   0.310E-01    0.101E+01
DAV: 179    -0.334157987373E+03    0.11489E-01   -0.64835E-03 30944   0.208E-01    0.102E+01
DAV: 180    -0.334173005225E+03   -0.15018E-01   -0.17239E-03 30864   0.118E-01    0.102E+01
DAV: 181    -0.334155405319E+03    0.17600E-01   -0.46314E-03 33944   0.126E-01    0.105E+01
DAV: 182    -0.334166477163E+03   -0.11072E-01   -0.60080E-04 31488   0.968E-02    0.103E+01
DAV: 183    -0.334158877894E+03    0.75993E-02   -0.10029E-03 33936   0.100E-01    0.104E+01
DAV: 184    -0.334149587650E+03    0.92902E-02   -0.39806E-03 34416   0.127E-01    0.105E+01
DAV: 185    -0.334152660914E+03   -0.30733E-02   -0.81851E-04 30360   0.975E-02    0.105E+01
DAV: 186    -0.334083167017E+03    0.69494E-01   -0.21120E-02 35768   0.308E-01    0.111E+01
DAV: 187    -0.334083765546E+03   -0.59853E-03   -0.20513E-03 31688   0.124E-01    0.111E+01
DAV: 188    -0.334081506748E+03    0.22588E-02   -0.73455E-04 32720   0.623E-02    0.111E+01
DAV: 189    -0.334080417608E+03    0.10891E-02   -0.72255E-04 32080   0.574E-02    0.111E+01
DAV: 190    -0.334077225318E+03    0.31923E-02   -0.20486E-03 33608   0.780E-02    0.110E+01
DAV: 191    -0.334103191323E+03   -0.25966E-01   -0.59904E-03 36336   0.157E-01    0.108E+01
DAV: 192    -0.334105785898E+03   -0.25946E-02   -0.64433E-04 30616   0.694E-02    0.107E+01
DAV: 193    -0.334116249647E+03   -0.10464E-01   -0.33736E-04 31696   0.512E-02    0.106E+01
DAV: 194    -0.334125850240E+03   -0.96006E-02   -0.61510E-04 33312   0.616E-02    0.105E+01
DAV: 195    -0.334134247827E+03   -0.83976E-02   -0.24596E-04 31480   0.506E-02    0.104E+01
DAV: 196    -0.334238378580E+03   -0.10413E+00   -0.81814E-02 36896   0.847E-01    0.862E+00
DAV: 197    -0.334238644731E+03   -0.26615E-03   -0.12511E-02 32576   0.297E-01    0.836E+00
DAV: 198    -0.334240567411E+03   -0.19227E-02   -0.64509E-03 41592   0.271E-01    0.786E+00
DAV: 199    -0.334221180528E+03    0.19387E-01   -0.25280E-02 40712   0.656E-01    0.721E+00
DAV: 200    -0.334260497996E+03   -0.39317E-01   -0.91160E-03 31296   0.236E-01
   1 F= -.33426050E+03 E0= -.33422288E+03  d E =-.334260E+03  mag=    27.3617
       N       E                     dE             d eps       ncg     rms          rms(c)
DAV:   1    -0.335209230568E+03   -0.98805E+00   -0.22476E+01 33320   0.158E+01    0.138E+01
DAV:   2    -0.342930659342E+03   -0.77214E+01   -0.29526E+01 34720   0.165E+01    0.495E+01
DAV:   3    -0.335472004315E+03    0.74587E+01   -0.40023E+01 34680   0.130E+01    0.203E+01
DAV:   4    -0.335249230789E+03    0.22277E+00   -0.85905E+00 33344   0.414E+00    0.231E+01
DAV:   5    -0.335042409296E+03    0.20682E+00   -0.95590E+00 32248   0.408E+00    0.177E+01
DAV:   6    -0.334748567039E+03    0.29384E+00   -0.13935E+00 35424   0.248E+00    0.137E+01
DAV:   7    -0.334799612835E+03   -0.51046E-01   -0.27042E+00 35136   0.176E+00    0.125E+01
DAV:   8    -0.334743995802E+03    0.55617E-01   -0.76858E-01 35856   0.139E+00    0.109E+01
DAV:   9    -0.334789823168E+03   -0.45827E-01   -0.11080E+00 37040   0.145E+00    0.955E+00
DAV:  10    -0.334753671551E+03    0.36152E-01   -0.10033E-01 36064   0.101E+00    0.895E+00
DAV:  11    -0.334723428015E+03    0.30244E-01   -0.10702E-01 35800   0.959E-01    0.761E+00
DAV:  12    -0.334700128725E+03    0.23299E-01   -0.38082E-02 38048   0.729E-01    0.658E+00
DAV:  13    -0.334765664914E+03   -0.65536E-01   -0.45044E-01 39312   0.134E+00    0.968E+00
DAV:  14    -0.334743708537E+03    0.21956E-01   -0.13290E-01 34952   0.103E+00    0.996E+00
DAV:  15    -0.334692272083E+03    0.51436E-01   -0.11452E-01 38600   0.789E-01    0.744E+00
DAV:  16    -0.334689329824E+03    0.29423E-02   -0.11253E-01 35920   0.510E-01    0.504E+00
DAV:  17    -0.334724820337E+03   -0.35491E-01   -0.33089E-02 35984   0.569E-01    0.741E+00
DAV:  18    -0.334723259119E+03    0.15612E-02   -0.93988E-03 32384   0.175E-01    0.807E+00
DAV:  19    -0.334710053553E+03    0.13206E-01   -0.29719E-03 33968   0.137E-01    0.746E+00
DAV:  20    -0.334677204860E+03    0.32849E-01   -0.59825E-02 41056   0.480E-01    0.456E+00
DAV:  21    -0.334683767433E+03   -0.65626E-02   -0.80701E-02 34016   0.502E-01    0.381E+00
DAV:  22    -0.334693001212E+03   -0.92338E-02   -0.32653E-02 32128   0.390E-01    0.383E+00
DAV:  23    -0.334693469260E+03   -0.46805E-03   -0.37740E-03 30480   0.157E-01    0.419E+00
DAV:  24    -0.334703646353E+03   -0.10177E-01   -0.69692E-02 39872   0.433E-01    0.717E+00
DAV:  25    -0.334685202970E+03    0.18443E-01   -0.24590E-02 32648   0.361E-01    0.573E+00
DAV:  26    -0.334689226182E+03   -0.40232E-02   -0.66182E-03 33272   0.237E-01    0.619E+00
DAV:  27    -0.334690377486E+03   -0.11513E-02   -0.89231E-03 32760   0.156E-01    0.619E+00
DAV:  28    -0.334702680046E+03   -0.12303E-01   -0.82147E-03 36192   0.253E-01    0.852E+00
DAV:  29    -0.334693908516E+03    0.87715E-02   -0.11886E-02 33376   0.226E-01    0.816E+00
DAV:  30    -0.334718082877E+03   -0.24174E-01   -0.23221E-02 37464   0.309E-01    0.108E+01
DAV:  31    -0.334716735774E+03    0.13471E-02   -0.29884E-03 31848   0.164E-01    0.115E+01
DAV:  32    -0.334715398646E+03    0.13371E-02   -0.10488E-03 31752   0.739E-02    0.117E+01
DAV:  33    -0.334712145561E+03    0.32531E-02   -0.18340E-04 30304   0.402E-02    0.116E+01
DAV:  34    -0.334690331814E+03    0.21814E-01   -0.75722E-03 41144   0.232E-01    0.952E+00
DAV:  35    -0.334686157137E+03    0.41747E-02   -0.10065E-02 34088   0.208E-01    0.825E+00
DAV:  36    -0.334675466681E+03    0.10690E-01   -0.15063E-02 37536   0.360E-01    0.492E+00
DAV:  37    -0.334679961079E+03   -0.44944E-02   -0.29215E-02 34872   0.392E-01    0.242E+00
DAV:  38    -0.334686315586E+03   -0.63545E-02   -0.10911E-02 31928   0.192E-01    0.266E+00
DAV:  39    -0.334686882165E+03   -0.56658E-03   -0.10128E-03 30392   0.882E-02    0.283E+00
DAV:  40    -0.334687887057E+03   -0.10049E-02   -0.81448E-04 34680   0.769E-02    0.341E+00
DAV:  41    -0.334688708167E+03   -0.82111E-03   -0.18245E-03 37048   0.110E-01    0.395E+00
DAV:  42    -0.334691286284E+03   -0.25781E-02   -0.10021E-03 35368   0.850E-02    0.488E+00
DAV:  43    -0.334682033067E+03    0.92532E-02   -0.85898E-03 37280   0.176E-01    0.269E+00
DAV:  44    -0.334683386627E+03   -0.13536E-02   -0.37687E-03 37280   0.175E-01    0.131E+00
DAV:  45    -0.334685088985E+03   -0.17024E-02   -0.47149E-03 31864   0.122E-01    0.129E+00
DAV:  46    -0.334685289906E+03   -0.20092E-03   -0.17157E-03 34120   0.138E-01    0.105E+00
DAV:  47    -0.334685603932E+03   -0.31403E-03   -0.19983E-03 33576   0.960E-02    0.137E+00
DAV:  48    -0.334685395473E+03    0.20846E-03   -0.13108E-03 31432   0.607E-02    0.127E+00
DAV:  49    -0.334684860802E+03    0.53467E-03   -0.64170E-04 32408   0.678E-02    0.588E-01
DAV:  50    -0.334685055469E+03   -0.19467E-03   -0.30438E-04 30400   0.401E-02    0.418E-01
DAV:  51    -0.334685088642E+03   -0.33173E-04   -0.14737E-04 28160   0.293E-02    0.244E-01
DAV:  52    -0.334685118283E+03   -0.29641E-04   -0.79624E-05 28568   0.243E-02    0.931E-02
DAV:  53    -0.334685141538E+03   -0.23255E-04   -0.33338E-05 22056   0.168E-02    0.176E-01
DAV:  54    -0.334685130101E+03    0.11437E-04   -0.15017E-05 18680   0.102E-02    0.120E-01
DAV:  55    -0.334685127705E+03    0.23955E-05   -0.67240E-06 18120   0.726E-03
   2 F= -.33468513E+03 E0= -.33464607E+03  d E =-.424630E+00  mag=    26.9372
       N       E                     dE             d eps       ncg     rms          rms(c)
DAV:   1    -0.334693964439E+03   -0.88343E-02   -0.58544E+00 33240   0.817E+00    0.246E+00
DAV:   2    -0.335745563144E+03   -0.10516E+01   -0.35694E+00 33552   0.320E+00    0.260E+01
DAV:   3    -0.334666777697E+03    0.10788E+01   -0.17954E+00 30792   0.287E+00    0.983E+00
DAV:   4    -0.334711389160E+03   -0.44611E-01   -0.24479E-01 31216   0.905E-01    0.606E+00
DAV:   5    -0.334712319009E+03   -0.92985E-03   -0.11660E-01 30592   0.602E-01    0.313E+00
DAV:   6    -0.334717407882E+03   -0.50889E-02   -0.92105E-03 31312   0.223E-01    0.281E+00
DAV:   7    -0.334724114826E+03   -0.67069E-02   -0.59046E-02 35296   0.256E-01    0.489E+00
DAV:   8    -0.334721179869E+03    0.29350E-02   -0.43658E-02 32912   0.354E-01    0.466E+00
DAV:   9    -0.334715257466E+03    0.59224E-02   -0.95130E-02 37168   0.484E-01    0.270E+00
DAV:  10    -0.334722828480E+03   -0.75710E-02   -0.10421E-02 35616   0.255E-01    0.384E+00
DAV:  11    -0.334722838470E+03   -0.99908E-05   -0.16136E-03 30904   0.118E-01    0.422E+00
DAV:  12    -0.334721673472E+03    0.11650E-02   -0.43394E-04 34616   0.675E-02    0.425E+00
DAV:  13    -0.334731218732E+03   -0.95453E-02   -0.63623E-03 39168   0.201E-01    0.569E+00
DAV:  14    -0.334724161940E+03    0.70568E-02   -0.18786E-03 32176   0.138E-01    0.553E+00
DAV:  15    -0.334711959524E+03    0.12202E-01   -0.30888E-02 41744   0.360E-01    0.435E+00
DAV:  16    -0.334713265393E+03   -0.13059E-02   -0.12795E-02 33224   0.295E-01    0.246E+00
DAV:  17    -0.334717611255E+03   -0.43459E-02   -0.23949E-03 31856   0.157E-01    0.312E+00
DAV:  18    -0.334717976899E+03   -0.36564E-03   -0.21443E-03 32528   0.108E-01    0.365E+00
DAV:  19    -0.334717701968E+03    0.27493E-03   -0.41023E-04 31944   0.526E-02    0.395E+00
DAV:  20    -0.334720013143E+03   -0.23112E-02   -0.59050E-04 33904   0.638E-02    0.492E+00
DAV:  21    -0.334720982456E+03   -0.96931E-03   -0.26427E-04 31448   0.539E-02    0.561E+00
DAV:  22    -0.334722097853E+03   -0.11154E-02   -0.12803E-03 31520   0.678E-02    0.619E+00
DAV:  23    -0.334719820324E+03    0.22775E-02   -0.99637E-03 37216   0.216E-01    0.589E+00
DAV:  24    -0.334713732164E+03    0.60882E-02   -0.42477E-03 34440   0.196E-01    0.449E+00
DAV:  25    -0.334711276128E+03    0.24560E-02   -0.95700E-03 39288   0.192E-01    0.254E+00
DAV:  26    -0.334715265357E+03   -0.39892E-02   -0.34161E-03 32816   0.154E-01    0.209E+00
DAV:  27    -0.334715617130E+03   -0.35177E-03   -0.29292E-03 34256   0.109E-01    0.164E+00
DAV:  28    -0.334715370119E+03    0.24701E-03   -0.70621E-04 32704   0.665E-02    0.132E+00
DAV:  29    -0.334715540606E+03   -0.17049E-03   -0.84283E-05 28488   0.275E-02    0.132E+00
DAV:  30    -0.334715130525E+03    0.41008E-03   -0.18365E-03 40152   0.858E-02    0.122E+00
DAV:  31    -0.334715406246E+03   -0.27572E-03   -0.34041E-03 33744   0.103E-01    0.161E+00
DAV:  32    -0.334715809548E+03   -0.40330E-03   -0.67692E-04 30896   0.725E-02    0.189E+00
DAV:  33    -0.334715493214E+03    0.31633E-03   -0.15745E-04 27968   0.299E-02    0.186E+00
DAV:  34    -0.334715427156E+03    0.66058E-04   -0.13524E-05 20392   0.105E-02    0.186E+00
DAV:  35    -0.334715470833E+03   -0.43677E-04   -0.22490E-04 19200   0.217E-02    0.186E+00
DAV:  36    -0.334715500433E+03   -0.29600E-04   -0.11834E-04 25160   0.279E-02    0.191E+00
DAV:  37    -0.334714918462E+03    0.58197E-03   -0.45065E-03 39144   0.113E-01    0.150E+00
DAV:  38    -0.334715079130E+03   -0.16067E-03   -0.10417E-03 33640   0.104E-01    0.116E+00
DAV:  39    -0.334714786004E+03    0.29313E-03   -0.20080E-03 32376   0.814E-02    0.508E-01
DAV:  40    -0.334715118857E+03   -0.33285E-03   -0.67116E-04 31320   0.629E-02    0.315E-01
DAV:  41    -0.334715166999E+03   -0.48143E-04   -0.20408E-04 29808   0.367E-02    0.225E-01
DAV:  42    -0.334715171879E+03   -0.48792E-05   -0.52081E-05 24664   0.245E-02
   3 F= -.33471517E+03 E0= -.33467650E+03  d E =-.454674E+00  mag=    26.8738
       N       E                     dE             d eps       ncg     rms          rms(c)
DAV:   1    -0.334717496422E+03   -0.23294E-02   -0.47112E-01 33368   0.231E+00    0.786E-01
DAV:   2    -0.334916326517E+03   -0.19883E+00   -0.45715E-01 34464   0.101E+00    0.191E+01
DAV:   3    -0.334664557181E+03    0.25177E+00   -0.13690E-01 30504   0.102E+00    0.423E+00
DAV:   4    -0.334708167268E+03   -0.43610E-01   -0.58656E-02 30224   0.425E-01    0.118E+00
DAV:   5    -0.334718817043E+03   -0.10650E-01   -0.56941E-03 30912   0.212E-01    0.122E+00
DAV:   6    -0.334719095274E+03   -0.27823E-03   -0.19672E-03 31448   0.828E-02    0.103E+00
DAV:   7    -0.334719193382E+03   -0.98108E-04   -0.59527E-04 28440   0.441E-02    0.101E+00
DAV:   8    -0.334719435772E+03   -0.24239E-03   -0.12006E-03 33896   0.687E-02    0.120E+00
DAV:   9    -0.334719476112E+03   -0.40340E-04   -0.22103E-04 27584   0.318E-02    0.131E+00
DAV:  10    -0.334719090279E+03    0.38583E-03   -0.12713E-03 34464   0.758E-02    0.121E+00
DAV:  11    -0.334719319887E+03   -0.22961E-03   -0.44260E-03 38192   0.148E-01    0.138E+00
DAV:  12    -0.334720434072E+03   -0.11142E-02   -0.16597E-03 31328   0.138E-01    0.214E+00
DAV:  13    -0.334719585349E+03    0.84872E-03   -0.20727E-03 32584   0.123E-01    0.200E+00
DAV:  14    -0.334719574924E+03    0.10425E-04   -0.29930E-04 30160   0.456E-02    0.210E+00
DAV:  15    -0.334719325149E+03    0.24978E-03   -0.17499E-03 38400   0.973E-02    0.208E+00
DAV:  16    -0.334719175408E+03    0.14974E-03   -0.17495E-03 32336   0.719E-02    0.177E+00
DAV:  17    -0.334719091538E+03    0.83870E-04   -0.21639E-04 29824   0.482E-02    0.158E+00
DAV:  18    -0.334719006395E+03    0.85143E-04   -0.14670E-04 27656   0.275E-02    0.141E+00
DAV:  19    -0.334719316152E+03   -0.30976E-03   -0.98522E-05 26896   0.290E-02    0.155E+00
DAV:  20    -0.334719252646E+03    0.63506E-04   -0.37081E-04 29696   0.367E-02    0.163E+00
DAV:  21    -0.334718868643E+03    0.38400E-03   -0.35026E-04 26464   0.317E-02    0.125E+00
DAV:  22    -0.334719180971E+03   -0.31233E-03   -0.18948E-04 27184   0.255E-02    0.132E+00
DAV:  23    -0.334719224899E+03   -0.43928E-04   -0.17387E-05 20200   0.108E-02    0.132E+00
DAV:  24    -0.334719196017E+03    0.28882E-04   -0.76725E-05 18464   0.169E-02    0.134E+00
DAV:  25    -0.334719138389E+03    0.57628E-04   -0.54712E-05 22264   0.194E-02    0.127E+00
DAV:  26    -0.334719218078E+03   -0.79689E-04   -0.53754E-05 20488   0.156E-02    0.130E+00
DAV:  27    -0.334719208318E+03    0.97605E-05   -0.13479E-05 19696   0.956E-03
   4 F= -.33471921E+03 E0= -.33468071E+03  d E =-.458710E+00  mag=    26.8536
       N       E                     dE             d eps       ncg     rms          rms(c)
DAV:   1    -0.334719108298E+03    0.10978E-03   -0.57078E-01 33312   0.254E+00    0.116E+00
DAV:   2    -0.334900321090E+03   -0.18121E+00   -0.78823E-01 33648   0.139E+00    0.143E+01
DAV:   3    -0.334698380983E+03    0.20194E+00   -0.79697E-01 31192   0.129E+00    0.513E+00
DAV:   4    -0.334717824115E+03   -0.19443E-01   -0.39341E-02 31128   0.485E-01    0.211E+00
DAV:   5    -0.334721252836E+03   -0.34287E-02   -0.69088E-03 30648   0.201E-01    0.138E+00
DAV:   6    -0.334722566794E+03   -0.13140E-02   -0.11306E-02 31832   0.143E-01    0.203E+00
DAV:   7    -0.334723282637E+03   -0.71584E-03   -0.72625E-03 31472   0.166E-01    0.241E+00
DAV:   8    -0.334724087863E+03   -0.80523E-03   -0.34369E-02 32400   0.173E-01    0.301E+00
DAV:   9    -0.334721091185E+03    0.29967E-02   -0.19480E-02 31480   0.189E-01    0.179E+00
DAV:  10    -0.334722209559E+03   -0.11184E-02   -0.72626E-04 30832   0.713E-02    0.173E+00
DAV:  11    -0.334722335013E+03   -0.12545E-03   -0.94298E-03 36808   0.187E-01    0.222E+00
DAV:  12    -0.334722348948E+03   -0.13935E-04   -0.68613E-03 33416   0.168E-01    0.215E+00
DAV:  13    -0.334721280980E+03    0.10680E-02   -0.10720E-02 33280   0.146E-01    0.150E+00
DAV:  14    -0.334721355368E+03   -0.74388E-04   -0.21563E-03 32320   0.115E-01    0.125E+00
DAV:  15    -0.334721471476E+03   -0.11611E-03   -0.38125E-03 34880   0.106E-01    0.122E+00
DAV:  16    -0.334721255262E+03    0.21621E-03   -0.12564E-03 34256   0.101E-01    0.899E-01
DAV:  17    -0.334721322240E+03   -0.66978E-04   -0.10549E-03 33136   0.674E-02    0.906E-01
DAV:  18    -0.334721180187E+03    0.14205E-03   -0.32438E-04 30152   0.501E-02    0.514E-01
DAV:  19    -0.334721315108E+03   -0.13492E-03   -0.57199E-05 26128   0.222E-02    0.514E-01
DAV:  20    -0.334721313903E+03    0.12042E-05   -0.73401E-05 24336   0.252E-02
   5 F= -.33472131E+03 E0= -.33468303E+03  d E =-.460816E+00  mag=    26.8429
       N       E                     dE             d eps       ncg     rms          rms(c)
DAV:   1    -0.334721592055E+03   -0.27695E-03   -0.71828E-02 33232   0.903E-01    0.104E+00
DAV:   2    -0.335051960888E+03   -0.33037E+00   -0.50622E-01 36648   0.121E+00    0.198E+01
DAV:   3    -0.334668781522E+03    0.38318E+00   -0.20595E-01 31888   0.118E+00    0.508E+00
DAV:   4    -0.334713161477E+03   -0.44380E-01   -0.45316E-02 30384   0.384E-01    0.187E+00
DAV:   5    -0.334721535112E+03   -0.83736E-02   -0.30989E-03 30896   0.168E-01    0.162E+00
DAV:   6    -0.334724480020E+03   -0.29449E-02   -0.15694E-02 34456   0.203E-01    0.291E+00
DAV:   7    -0.334720343544E+03    0.41365E-02   -0.93912E-03 30448   0.162E-01    0.201E+00
DAV:   8    -0.334721614213E+03   -0.12707E-02   -0.92042E-04 31056   0.561E-02    0.195E+00
DAV:   9    -0.334722055453E+03   -0.44124E-03   -0.12600E-04 26776   0.255E-02    0.195E+00
DAV:  10    -0.334722032073E+03    0.23379E-04   -0.14976E-04 24264   0.288E-02    0.187E+00
DAV:  11    -0.334722654873E+03   -0.62280E-03   -0.13662E-03 31376   0.548E-02    0.216E+00
DAV:  12    -0.334723669877E+03   -0.10150E-02   -0.16040E-03 34096   0.577E-02    0.282E+00
DAV:  13    -0.334721327874E+03    0.23420E-02   -0.69280E-04 33024   0.921E-02    0.218E+00
DAV:  14    -0.334721136840E+03    0.19103E-03   -0.83238E-03 39392   0.165E-01    0.144E+00
DAV:  15    -0.334723541726E+03   -0.24049E-02   -0.10206E-02 31288   0.149E-01    0.247E+00
DAV:  16    -0.334722281049E+03    0.12607E-02   -0.50089E-03 32872   0.140E-01    0.232E+00
DAV:  17    -0.334722077077E+03    0.20397E-03   -0.28088E-03 33448   0.128E-01    0.243E+00
DAV:  18    -0.334720461188E+03    0.16159E-02   -0.55916E-03 32256   0.136E-01    0.135E+00
DAV:  19    -0.334721683058E+03   -0.12219E-02   -0.70611E-04 32072   0.757E-02    0.144E+00
DAV:  20    -0.334721442193E+03    0.24087E-03   -0.15015E-04 28256   0.314E-02    0.128E+00
DAV:  21    -0.334721403336E+03    0.38857E-04   -0.32317E-04 29352   0.383E-02    0.117E+00
DAV:  22    -0.334721333254E+03    0.70082E-04   -0.13543E-04 27688   0.302E-02    0.972E-01
DAV:  23    -0.334721308073E+03    0.25181E-04   -0.97916E-04 32736   0.577E-02    0.693E-01
DAV:  24    -0.334721432181E+03   -0.12411E-03   -0.89266E-04 32360   0.585E-02    0.478E-01
DAV:  25    -0.334721519414E+03   -0.87233E-04   -0.23682E-04 31472   0.344E-02    0.453E-01
DAV:  26    -0.334721531443E+03   -0.12030E-04   -0.65639E-05 24424   0.260E-02    0.498E-01
DAV:  27    -0.334721535422E+03   -0.39787E-05   -0.55321E-05 23272   0.190E-02
   6 F= -.33472154E+03 E0= -.33468320E+03  d E =-.461037E+00  mag=    26.8296
       N       E                     dE             d eps       ncg     rms          rms(c)
DAV:   1    -0.334719274713E+03    0.22567E-02   -0.14859E+00 34360   0.436E+00    0.141E+00
DAV:   2    -0.335111986529E+03   -0.39271E+00   -0.17131E+00 33408   0.191E+00    0.201E+01
DAV:   3    -0.334718235852E+03    0.39375E+00   -0.16613E+00 30848   0.171E+00    0.901E+00
DAV:   4    -0.334728507663E+03   -0.10272E-01   -0.35203E-01 31800   0.721E-01    0.647E+00
DAV:   5    -0.334717088165E+03    0.11419E-01   -0.62998E-02 31160   0.426E-01    0.147E+00
DAV:   6    -0.334724449794E+03   -0.73616E-02   -0.90411E-03 30608   0.235E-01    0.165E+00
DAV:   7    -0.334724019886E+03    0.42991E-03   -0.18055E-03 30736   0.109E-01    0.142E+00
DAV:   8    -0.334726663117E+03   -0.26432E-02   -0.94572E-03 35688   0.161E-01    0.268E+00
DAV:   9    -0.334723697656E+03    0.29655E-02   -0.10947E-02 33232   0.207E-01    0.206E+00
DAV:  10    -0.334723690505E+03    0.71507E-05   -0.18598E-03 34480   0.132E-01    0.167E+00
DAV:  11    -0.334724018790E+03   -0.32829E-03   -0.35822E-04 30808   0.685E-02    0.161E+00
DAV:  12    -0.334724050830E+03   -0.32040E-04   -0.51056E-05 28728   0.217E-02    0.161E+00
DAV:  13    -0.334724079503E+03   -0.28673E-04   -0.47068E-05 21120   0.160E-02    0.163E+00
DAV:  14    -0.334723913677E+03    0.16583E-03   -0.31838E-05 21288   0.148E-02    0.157E+00
DAV:  15    -0.334723808597E+03    0.10508E-03   -0.12277E-02 38224   0.160E-01    0.190E+00
DAV:  16    -0.334724058967E+03   -0.25037E-03   -0.10263E-02 32864   0.207E-01    0.180E+00
DAV:  17    -0.334723810885E+03    0.24808E-03   -0.22116E-03 31616   0.157E-01    0.118E+00
DAV:  18    -0.334724269050E+03   -0.45816E-03   -0.69832E-04 32216   0.935E-02    0.142E+00
DAV:  19    -0.334724071467E+03    0.19758E-03   -0.12723E-04 30072   0.348E-02    0.154E+00
DAV:  20    -0.334723969102E+03    0.10237E-03   -0.21284E-03 38056   0.923E-02    0.151E+00
DAV:  21    -0.334724005952E+03   -0.36851E-04   -0.97963E-04 31920   0.810E-02    0.160E+00
DAV:  22    -0.334723613369E+03    0.39258E-03   -0.11705E-03 33560   0.640E-02    0.134E+00
DAV:  23    -0.334723627423E+03   -0.14054E-04   -0.53392E-04 30104   0.493E-02    0.109E+00
DAV:  24    -0.334723821297E+03   -0.19387E-03   -0.45859E-05 24784   0.196E-02    0.112E+00
DAV:  25    -0.334723825915E+03   -0.46184E-05   -0.25056E-04 24992   0.305E-02    0.106E+00
DAV:  26    -0.334723520685E+03    0.30523E-03   -0.37470E-04 28792   0.419E-02    0.642E-01
DAV:  27    -0.334723849629E+03   -0.32894E-03   -0.84306E-04 31784   0.450E-02    0.918E-01
DAV:  28    -0.334723517998E+03    0.33163E-03   -0.21649E-03 30272   0.665E-02    0.402E-01
DAV:  29    -0.334723680479E+03   -0.16248E-03   -0.27603E-04 28416   0.490E-02    0.287E-01
DAV:  30    -0.334723685981E+03   -0.55019E-05   -0.15921E-04 24000   0.261E-02    0.177E-01
DAV:  31    -0.334723706815E+03   -0.20834E-04   -0.26012E-05 18984   0.140E-02    0.241E-01
DAV:  32    -0.334723704301E+03    0.25146E-05   -0.38841E-06 17376   0.524E-03
   7 F= -.33472370E+03 E0= -.33468562E+03  d E =-.216888E-02  mag=    26.8260
       N       E                     dE             d eps       ncg     rms          rms(c)
DAV:   1    -0.334723650416E+03    0.56399E-04   -0.18720E-02 34504   0.490E-01    0.189E-01
DAV:   2    -0.334729123172E+03   -0.54728E-02   -0.24495E-02 32016   0.200E-01    0.345E+00
DAV:   3    -0.334722247302E+03    0.68759E-02   -0.19376E-02 30256   0.196E-01    0.101E+00
DAV:   4    -0.334723574274E+03   -0.13270E-02   -0.16938E-03 29960   0.858E-02    0.525E-01
DAV:   5    -0.334724114001E+03   -0.53973E-03   -0.85899E-04 29072   0.557E-02    0.949E-01
DAV:   6    -0.334723934272E+03    0.17973E-03   -0.15543E-03 29080   0.577E-02    0.810E-01
DAV:   7    -0.334723654503E+03    0.27977E-03   -0.18910E-03 28744   0.794E-02    0.471E-01
DAV:   8    -0.334723830322E+03   -0.17582E-03   -0.18129E-04 27328   0.343E-02    0.611E-01
DAV:   9    -0.334723837764E+03   -0.74418E-05   -0.17204E-04 24904   0.287E-02    0.637E-01
DAV:  10    -0.334723711110E+03    0.12665E-03   -0.41697E-04 28880   0.494E-02    0.452E-01
DAV:  11    -0.334723831990E+03   -0.12088E-03   -0.26307E-04 30424   0.456E-02    0.669E-01
DAV:  12    -0.334723781829E+03    0.50160E-04   -0.14821E-04 28464   0.245E-02    0.630E-01
DAV:  13    -0.334723756787E+03    0.25042E-04   -0.41763E-05 21592   0.154E-02    0.578E-01
DAV:  14    -0.334723766868E+03   -0.10081E-04   -0.17763E-04 23960   0.268E-02    0.610E-01
DAV:  15    -0.334723680845E+03    0.86023E-04   -0.13308E-04 28384   0.307E-02    0.377E-01
DAV:  16    -0.334723684568E+03   -0.37230E-05   -0.18234E-04 21808   0.237E-02    0.122E-01
DAV:  17    -0.334723722776E+03   -0.38207E-04   -0.22277E-05 20160   0.167E-02    0.151E-01
DAV:  18    -0.334723726192E+03   -0.34158E-05   -0.12887E-05 16616   0.747E-03
   8 F= -.33472373E+03 E0= -.33468564E+03  d E =-.219077E-02  mag=    26.8256
       N       E                     dE             d eps       ncg     rms          rms(c)
DAV:   1    -0.334721737873E+03    0.19849E-02   -0.76929E-01 33688   0.307E+00    0.497E-01
DAV:   2    -0.334781601643E+03   -0.59864E-01   -0.16417E-01 30600   0.720E-01    0.115E+01
DAV:   3    -0.334709076677E+03    0.72525E-01   -0.61428E-02 30072   0.581E-01    0.210E+00
DAV:   4    -0.334723681291E+03   -0.14605E-01   -0.25814E-02 30088   0.304E-01    0.117E+00
DAV:   5    -0.334725509598E+03   -0.18283E-02   -0.14237E-02 31064   0.182E-01    0.134E+00
DAV:   6    -0.334725350024E+03    0.15957E-03   -0.67885E-03 30592   0.107E-01    0.107E+00
DAV:   7    -0.334724932195E+03    0.41783E-03   -0.17920E-03 29784   0.808E-02    0.671E-01
DAV:   8    -0.334725591364E+03   -0.65917E-03   -0.23529E-03 30936   0.939E-02    0.105E+00
DAV:   9    -0.334724903760E+03    0.68760E-03   -0.12877E-03 31080   0.102E-01    0.831E-01
DAV:  10    -0.334725073287E+03   -0.16953E-03   -0.10367E-04 29080   0.319E-02    0.821E-01
DAV:  11    -0.334725052350E+03    0.20937E-04   -0.14400E-04 29680   0.429E-02    0.801E-01
DAV:  12    -0.334725159122E+03   -0.10677E-03   -0.52567E-04 35784   0.661E-02    0.919E-01
DAV:  13    -0.334725221369E+03   -0.62247E-04   -0.10243E-04 28712   0.286E-02    0.104E+00
DAV:  14    -0.334725182354E+03    0.39015E-04   -0.30843E-05 21992   0.140E-02    0.112E+00
DAV:  15    -0.334724515081E+03    0.66727E-03   -0.85305E-04 36024   0.705E-02    0.422E-01
DAV:  16    -0.334724899455E+03   -0.38437E-03   -0.10817E-03 32000   0.869E-02    0.361E-01
DAV:  17    -0.334724976655E+03   -0.77201E-04   -0.24064E-04 31064   0.554E-02    0.438E-01
DAV:  18    -0.334724946557E+03    0.30099E-04   -0.89380E-05 25296   0.244E-02    0.453E-01
DAV:  19    -0.334724937696E+03    0.88608E-05   -0.13089E-05 18104   0.921E-03
   9 F= -.33472494E+03 E0= -.33468731E+03  d E =-.121150E-02  mag=    26.8230
       N       E                     dE             d eps       ncg     rms          rms(c)
DAV:   1    -0.334724896048E+03    0.50508E-04   -0.76507E-03 34072   0.306E-01    0.420E-01
DAV:   2    -0.334736350678E+03   -0.11455E-01   -0.90934E-02 35104   0.292E-01    0.510E+00
DAV:   3    -0.334722735907E+03    0.13615E-01   -0.79052E-02 30664   0.260E-01    0.168E+00
DAV:   4    -0.334728280750E+03   -0.55448E-02   -0.48716E-03 29600   0.121E-01    0.269E+00
DAV:   5    -0.334726769024E+03    0.15117E-02   -0.21012E-02 33296   0.199E-01    0.233E+00
DAV:   6    -0.334724328256E+03    0.24408E-02   -0.98395E-03 30696   0.168E-01    0.137E+00
DAV:   7    -0.334725428330E+03   -0.11001E-02   -0.72681E-04 29944   0.547E-02    0.139E+00
DAV:   8    -0.334727763779E+03   -0.23354E-02   -0.77843E-03 34784   0.144E-01    0.301E+00
DAV:   9    -0.334723709328E+03    0.40545E-02   -0.25337E-03 31288   0.144E-01    0.124E+00
DAV:  10    -0.334725233930E+03   -0.15246E-02   -0.76136E-04 31664   0.799E-02    0.134E+00
DAV:  11    -0.334724916241E+03    0.31769E-03   -0.11361E-03 32456   0.600E-02    0.115E+00
DAV:  12    -0.334725043934E+03   -0.12769E-03   -0.27759E-04 30936   0.517E-02    0.111E+00
DAV:  13    -0.334725054644E+03   -0.10710E-04   -0.11831E-04 29552   0.353E-02    0.105E+00
DAV:  14    -0.334724934502E+03    0.12014E-03   -0.10578E-04 23312   0.240E-02    0.911E-01
DAV:  15    -0.334725042483E+03   -0.10798E-03   -0.18948E-05 18912   0.137E-02    0.953E-01
DAV:  16    -0.334724960386E+03    0.82097E-04   -0.24904E-05 18448   0.142E-02    0.877E-01
DAV:  17    -0.334724657562E+03    0.30282E-03   -0.14404E-03 34408   0.542E-02    0.339E-01
DAV:  18    -0.334724915163E+03   -0.25760E-03   -0.51072E-04 28544   0.442E-02    0.354E-01
DAV:  19    -0.334724948005E+03   -0.32842E-04   -0.74339E-05 25896   0.255E-02    0.368E-01
DAV:  20    -0.334724939960E+03    0.80443E-05   -0.90322E-06 18768   0.863E-03
  10 F= -.33472494E+03 E0= -.33468708E+03  d E =-.121377E-02  mag=    26.8216
       N       E                     dE             d eps       ncg     rms          rms(c)
DAV:   1    -0.334724017862E+03    0.93014E-03   -0.59121E-01 32624   0.239E+00    0.706E-01
DAV:   2    -0.334820441614E+03   -0.96424E-01   -0.39722E-01 32032   0.858E-01    0.119E+01
DAV:   3    -0.334738891210E+03    0.81550E-01   -0.72749E-01 30848   0.741E-01    0.641E+00
DAV:   4    -0.334721954755E+03    0.16936E-01   -0.42612E-02 31680   0.499E-01    0.226E+00
DAV:   5    -0.334724492830E+03   -0.25381E-02   -0.13496E-02 30448   0.192E-01    0.105E+00
DAV:   6    -0.334725817254E+03   -0.13244E-02   -0.65485E-04 30392   0.737E-02    0.100E+00
DAV:   7    -0.334725542231E+03    0.27502E-03   -0.23785E-03 34016   0.105E-01    0.996E-01
DAV:   8    -0.334726321319E+03   -0.77909E-03   -0.60978E-03 31920   0.146E-01    0.133E+00
DAV:   9    -0.334727178121E+03   -0.85680E-03   -0.59019E-03 33544   0.163E-01    0.189E+00
DAV:  10    -0.334726144445E+03    0.10337E-02   -0.12472E-03 31328   0.111E-01    0.194E+00
DAV:  11    -0.334726036013E+03    0.10843E-03   -0.33366E-04 30856   0.797E-02    0.182E+00
DAV:  12    -0.334725901744E+03    0.13427E-03   -0.53368E-04 32176   0.500E-02    0.187E+00
DAV:  13    -0.334726362040E+03   -0.46030E-03   -0.87142E-04 30912   0.577E-02    0.203E+00
DAV:  14    -0.334728624538E+03   -0.22625E-02   -0.27282E-03 36072   0.803E-02    0.266E+00
DAV:  15    -0.334727514973E+03    0.11096E-02   -0.43588E-04 30856   0.570E-02    0.266E+00
DAV:  16    -0.334727072989E+03    0.44198E-03   -0.11968E-03 33840   0.518E-02    0.279E+00
DAV:  17    -0.334727277519E+03   -0.20453E-03   -0.19658E-04 29664   0.403E-02    0.290E+00
DAV:  18    -0.334727693392E+03   -0.41587E-03   -0.11950E-04 24040   0.228E-02    0.309E+00
DAV:  19    -0.334727335061E+03    0.35833E-03   -0.14906E-05 19224   0.118E-02    0.311E+00
DAV:  20    -0.334725078460E+03    0.22566E-02   -0.18945E-03 38456   0.826E-02    0.261E+00
DAV:  21    -0.334724146720E+03    0.93174E-03   -0.24625E-03 36752   0.808E-02    0.192E+00
DAV:  22    -0.334725053356E+03   -0.90664E-03   -0.33972E-04 31088   0.505E-02    0.157E+00
DAV:  23    -0.334725155464E+03   -0.10211E-03   -0.12583E-03 32952   0.577E-02    0.121E+00
DAV:  24    -0.334725148223E+03    0.72404E-05   -0.21631E-03 34040   0.733E-02    0.319E-01
DAV:  25    -0.334726001529E+03   -0.85331E-03   -0.10511E-03 30792   0.752E-02    0.847E-01
DAV:  26    -0.334725826703E+03    0.17483E-03   -0.74106E-05 29936   0.309E-02    0.771E-01
DAV:  27    -0.334725775739E+03    0.50964E-04   -0.22174E-05 20432   0.125E-02    0.710E-01
DAV:  28    -0.334725617210E+03    0.15853E-03   -0.33692E-04 26480   0.340E-02    0.250E-01
DAV:  29    -0.334725841507E+03   -0.22430E-03   -0.51937E-04 29736   0.422E-02    0.446E-01
DAV:  30    -0.334725789220E+03    0.52287E-04   -0.11640E-04 26152   0.275E-02    0.384E-01
DAV:  31    -0.334725747287E+03    0.41933E-04   -0.26712E-04 28040   0.326E-02    0.235E-01
DAV:  32    -0.334725774147E+03   -0.26860E-04   -0.80906E-05 26248   0.280E-02    0.165E-01
DAV:  33    -0.334725777150E+03   -0.30036E-05   -0.49022E-05 19528   0.171E-02
  11 F= -.33472578E+03 E0= -.33468790E+03  d E =-.837190E-03  mag=    26.8195
       N       E                     dE             d eps       ncg     rms          rms(c)
DAV:   1    -0.334725363255E+03    0.41089E-03   -0.17710E-01 32656   0.131E+00    0.259E-01
DAV:   2    -0.334734867668E+03   -0.95044E-02   -0.76415E-02 30784   0.310E-01    0.483E+00
DAV:   3    -0.334722565488E+03    0.12302E-01   -0.50983E-02 30232   0.243E-01    0.109E+00
DAV:   4    -0.334725666640E+03   -0.31012E-02   -0.98736E-04 29792   0.877E-02    0.873E-01
DAV:   5    -0.334725866225E+03   -0.19959E-03   -0.21922E-03 30696   0.670E-02    0.844E-01
DAV:   6    -0.334725871185E+03   -0.49597E-05   -0.93075E-04 29256   0.556E-02    0.623E-01
DAV:   7    -0.334726055148E+03   -0.18396E-03   -0.11363E-04 26080   0.277E-02    0.590E-01
DAV:   8    -0.334726214013E+03   -0.15886E-03   -0.23121E-04 23232   0.286E-02    0.793E-01
DAV:   9    -0.334726192856E+03    0.21157E-04   -0.12918E-04 23536   0.290E-02    0.812E-01
DAV:  10    -0.334726067438E+03    0.12542E-03   -0.42592E-04 26224   0.374E-02    0.716E-01
DAV:  11    -0.334726099878E+03   -0.32440E-04   -0.19724E-04 25320   0.240E-02    0.736E-01
DAV:  12    -0.334726541161E+03   -0.44128E-03   -0.63555E-03 35624   0.837E-02    0.144E+00
DAV:  13    -0.334726261447E+03    0.27971E-03   -0.19466E-03 31208   0.887E-02    0.129E+00
DAV:  14    -0.334726380214E+03   -0.11877E-03   -0.43572E-04 29768   0.606E-02    0.157E+00
DAV:  15    -0.334726033549E+03    0.34666E-03   -0.76009E-05 29152   0.295E-02    0.157E+00
DAV:  16    -0.334725947583E+03    0.85966E-04   -0.69329E-05 19688   0.117E-02    0.155E+00
DAV:  17    -0.334726043916E+03   -0.96333E-04   -0.10034E-04 19040   0.129E-02    0.160E+00
DAV:  18    -0.334726019495E+03    0.24421E-04   -0.10373E-05 17576   0.844E-03    0.160E+00
DAV:  19    -0.334725847879E+03    0.17162E-03   -0.98002E-05 20216   0.158E-02    0.146E+00
DAV:  20    -0.334725792237E+03    0.55642E-04   -0.45700E-04 24024   0.223E-02    0.132E+00
DAV:  21    -0.334725817403E+03   -0.25166E-04   -0.66994E-05 24400   0.230E-02    0.122E+00
DAV:  22    -0.334725781202E+03    0.36201E-04   -0.23487E-04 28184   0.352E-02    0.105E+00
DAV:  23    -0.334725630622E+03    0.15058E-03   -0.47496E-04 33200   0.521E-02    0.464E-01
DAV:  24    -0.334725861006E+03   -0.23038E-03   -0.20333E-04 30784   0.327E-02    0.223E-01
DAV:  25    -0.334725928092E+03   -0.67085E-04   -0.27999E-05 22272   0.175E-02    0.192E-01
DAV:  26    -0.334725960810E+03   -0.32719E-04   -0.13392E-04 23056   0.255E-02    0.334E-01
DAV:  27    -0.334725934088E+03    0.26723E-04   -0.63170E-05 22048   0.177E-02    0.284E-01
DAV:  28    -0.334725915580E+03    0.18507E-04   -0.75904E-05 20872   0.183E-02    0.123E-01
DAV:  29    -0.334725941615E+03   -0.26035E-04   -0.10993E-04 19824   0.145E-02    0.184E-01
DAV:  30    -0.334725942949E+03   -0.13341E-05   -0.27672E-05 18416   0.126E-02
  12 F= -.33472594E+03 E0= -.33468794E+03  d E =-.100299E-02  mag=    26.8172
       N       E                     dE             d eps       ncg     rms          rms(c)
DAV:   1    -0.334725185962E+03    0.75565E-03   -0.33711E-01 32880   0.190E+00    0.473E-01
DAV:   2    -0.334778991086E+03   -0.53805E-01   -0.11774E-01 32312   0.614E-01    0.106E+01
DAV:   3    -0.334719501651E+03    0.59489E-01   -0.16348E-02 30280   0.543E-01    0.441E+00
DAV:   4    -0.334721707556E+03   -0.22059E-02   -0.41669E-02 30192   0.378E-01    0.138E+00
DAV:   5    -0.334725909081E+03   -0.42015E-02   -0.84580E-03 30720   0.158E-01    0.121E+00
DAV:   6    -0.334726570236E+03   -0.66115E-03   -0.45538E-03 31000   0.922E-02    0.105E+00
DAV:   7    -0.334726405139E+03    0.16510E-03   -0.77210E-04 30552   0.659E-02    0.836E-01
DAV:   8    -0.334726449643E+03   -0.44504E-04   -0.27998E-05 22952   0.153E-02    0.853E-01
DAV:   9    -0.334726511025E+03   -0.61382E-04   -0.79743E-04 30320   0.647E-02    0.869E-01
DAV:  10    -0.334726457655E+03    0.53370E-04   -0.18785E-03 33720   0.986E-02    0.720E-01
DAV:  11    -0.334726605521E+03   -0.14787E-03   -0.64893E-04 31552   0.833E-02    0.813E-01
DAV:  12    -0.334726640100E+03   -0.34580E-04   -0.10001E-03 32184   0.518E-02    0.941E-01
DAV:  13    -0.334726639497E+03    0.60305E-06   -0.10385E-04 27248   0.284E-02    0.105E+00
DAV:  14    -0.334726695013E+03   -0.55516E-04   -0.95065E-04 32448   0.477E-02    0.113E+00
DAV:  15    -0.334726527774E+03    0.16724E-03   -0.18276E-04 30056   0.394E-02    0.104E+00
DAV:  16    -0.334726359596E+03    0.16818E-03   -0.16478E-04 24512   0.244E-02    0.801E-01
DAV:  17    -0.334726433370E+03   -0.73775E-04   -0.29358E-05 19440   0.148E-02    0.729E-01
DAV:  18    -0.334726496614E+03   -0.63244E-04   -0.80805E-06 17904   0.918E-03    0.744E-01
DAV:  19    -0.334726483253E+03    0.13361E-04   -0.84802E-06 16680   0.564E-03    0.715E-01
DAV:  20    -0.334726462110E+03    0.21144E-04   -0.12847E-05 16424   0.548E-03    0.659E-01
DAV:  21    -0.334726504806E+03   -0.42696E-04   -0.41479E-06 16640   0.520E-03    0.681E-01
DAV:  22    -0.334726492824E+03    0.11982E-04   -0.22018E-06 16336   0.321E-03    0.664E-01
DAV:  23    -0.334726354056E+03    0.13877E-03   -0.29612E-04 19656   0.254E-02    0.369E-01
DAV:  24    -0.334726464304E+03   -0.11025E-03   -0.99672E-05 24432   0.215E-02    0.393E-01
DAV:  25    -0.334726455275E+03    0.90291E-05   -0.22670E-05 18160   0.121E-02
  13 F= -.33472646E+03 E0= -.33468810E+03  d E =-.512326E-03  mag=    26.8135
       N       E                     dE             d eps       ncg     rms          rms(c)
DAV:   1    -0.334726453462E+03    0.10842E-04   -0.38015E-03 33504   0.202E-01    0.357E-01
DAV:   2    -0.334774155107E+03   -0.47702E-01   -0.18077E-01 35128   0.460E-01    0.943E+00
DAV:   3    -0.334715339772E+03    0.58815E-01   -0.82759E-02 30768   0.484E-01    0.224E+00
DAV:   4    -0.334724546815E+03   -0.92070E-02   -0.45725E-03 30360   0.164E-01    0.935E-01
DAV:   5    -0.334726502085E+03   -0.19553E-02   -0.66248E-04 30400   0.759E-02    0.816E-01
DAV:   6    -0.334726498620E+03    0.34648E-05   -0.63787E-04 30376   0.458E-02    0.737E-01
DAV:   7    -0.334726487356E+03    0.11265E-04   -0.27842E-04 25520   0.303E-02    0.645E-01
DAV:   8    -0.334726578320E+03   -0.90965E-04   -0.87993E-05 22616   0.199E-02    0.655E-01
DAV:   9    -0.334726609810E+03   -0.31490E-04   -0.14608E-04 23560   0.276E-02    0.669E-01
DAV:  10    -0.334726358267E+03    0.25154E-03   -0.44074E-04 28304   0.523E-02    0.465E-01
DAV:  11    -0.334726761021E+03   -0.40275E-03   -0.91415E-04 34160   0.505E-02    0.108E+00
DAV:  12    -0.334727445100E+03   -0.68408E-03   -0.11595E-03 30680   0.509E-02    0.203E+00
DAV:  13    -0.334726731472E+03    0.71363E-03   -0.17675E-04 28680   0.409E-02    0.213E+00
DAV:  14    -0.334728666462E+03   -0.19350E-02   -0.17636E-03 30256   0.561E-02    0.330E+00
DAV:  15    -0.334727204634E+03    0.14618E-02   -0.18501E-04 29480   0.497E-02    0.336E+00
DAV:  16    -0.334725591495E+03    0.16131E-02   -0.38875E-04 28864   0.330E-02    0.282E+00
DAV:  17    -0.334726173033E+03   -0.58154E-03   -0.36557E-05 24472   0.179E-02    0.275E+00
DAV:  18    -0.334724606504E+03    0.15665E-02   -0.21781E-03 39120   0.718E-02    0.153E+00
DAV:  19    -0.334725628019E+03   -0.10215E-02   -0.79930E-04 30240   0.553E-02    0.833E-01
DAV:  20    -0.334726398078E+03   -0.77006E-03   -0.12305E-04 27904   0.360E-02    0.882E-01
DAV:  21    -0.334726455302E+03   -0.57224E-04   -0.10181E-05 20360   0.938E-03    0.868E-01
DAV:  22    -0.334726702156E+03   -0.24685E-03   -0.20694E-04 20936   0.224E-02    0.120E+00
DAV:  23    -0.334726595645E+03    0.10651E-03   -0.38467E-05 22712   0.148E-02    0.131E+00
DAV:  24    -0.334726567258E+03    0.28387E-04   -0.14448E-05 17528   0.906E-03    0.139E+00
DAV:  25    -0.334726594332E+03   -0.27075E-04   -0.12863E-04 27976   0.268E-02    0.148E+00
DAV:  26    -0.334726240795E+03    0.35354E-03   -0.47011E-04 29816   0.389E-02    0.107E+00
DAV:  27    -0.334726377615E+03   -0.13682E-03   -0.12381E-04 27528   0.237E-02    0.893E-01
DAV:  28    -0.334726525406E+03   -0.14779E-03   -0.17878E-05 20936   0.134E-02    0.913E-01
DAV:  29    -0.334726366111E+03    0.15929E-03   -0.32365E-04 29544   0.328E-02    0.606E-01
DAV:  30    -0.334726401363E+03   -0.35252E-04   -0.14562E-04 27528   0.265E-02    0.449E-01
DAV:  31    -0.334726477481E+03   -0.76118E-04   -0.39348E-05 20296   0.181E-02    0.504E-01
DAV:  32    -0.334726458922E+03    0.18559E-04   -0.11281E-05 17592   0.102E-02    0.463E-01
DAV:  33    -0.334726432902E+03    0.26019E-04   -0.22323E-05 17232   0.845E-03    0.334E-01
DAV:  34    -0.334726436058E+03   -0.31556E-05   -0.33414E-05 17440   0.809E-03
  14 F= -.33472644E+03 E0= -.33468837E+03  d E =-.493109E-03  mag=    26.8124
       N       E                     dE             d eps       ncg     rms          rms(c)
DAV:   1    -0.334726121850E+03    0.31105E-03   -0.23987E-01 32256   0.154E+00    0.271E-01
DAV:   2    -0.334741054943E+03   -0.14933E-01   -0.24339E-02 31000   0.372E-01    0.480E+00
DAV:   3    -0.334723633149E+03    0.17422E-01   -0.22638E-02 30288   0.315E-01    0.138E+00
DAV:   4    -0.334726416727E+03   -0.27836E-02   -0.37686E-03 30448   0.129E-01    0.766E-01
DAV:   5    -0.334726902127E+03   -0.48540E-03   -0.33273E-03 30504   0.786E-02    0.661E-01
DAV:   6    -0.334726846804E+03    0.55323E-04   -0.15028E-03 28848   0.548E-02    0.439E-01
DAV:   7    -0.334726857647E+03   -0.10844E-04   -0.67436E-05 25360   0.272E-02    0.400E-01
DAV:   8    -0.334727016655E+03   -0.15901E-03   -0.10291E-03 30136   0.667E-02    0.615E-01
DAV:   9    -0.334726768004E+03    0.24865E-03   -0.10691E-03 29816   0.745E-02    0.351E-01
DAV:  10    -0.334726823816E+03   -0.55812E-04   -0.18987E-04 29400   0.377E-02    0.463E-01
DAV:  11    -0.334726805677E+03    0.18139E-04   -0.36737E-05 23384   0.185E-02    0.461E-01
DAV:  12    -0.334726817049E+03   -0.11372E-04   -0.40465E-06 17552   0.641E-03    0.475E-01
DAV:  13    -0.334726831535E+03   -0.14485E-04   -0.12349E-05 17208   0.746E-03    0.518E-01
DAV:  14    -0.334726823008E+03    0.85267E-05   -0.71933E-06 16944   0.681E-03
  15 F= -.33472682E+03 E0= -.33468873E+03  d E =-.386950E-03  mag=    26.8129
