       N       E                     dE             d eps       ncg     rms          ort
DAV:   1     0.735126561171E+04    0.73513E+04   -0.35091E+05  9568   0.175E+03
DAV:   2     0.489599589583E+03   -0.68617E+04   -0.64386E+04  9568   0.512E+02
DAV:   3    -0.314287301711E+03   -0.80389E+03   -0.77918E+03  9568   0.196E+02
DAV:   4    -0.347893877457E+03   -0.33607E+02   -0.33159E+02  9568   0.385E+01
DAV:   5    -0.350133859458E+03   -0.22400E+01   -0.22141E+01  9568   0.764E+00
SDA:   6    -0.168868311580E+03    0.18127E+03   -0.22141E+01  9568   0.144E+04 0.000E+00
CGA:   7    -0.268315251704E+03   -0.99447E+02   -0.14319E+03  9568   0.773E+03-0.311E+02
CGA:   8    -0.276664229381E+03   -0.83490E+01   -0.15347E+02  9568   0.111E+04 0.153E+02
CGA:   9    -0.273025715369E+03    0.36385E+01   -0.45538E+02  9568   0.489E+03-0.234E+03
CGA:  10    -0.286010523313E+03   -0.12985E+02   -0.10107E+02  9568   0.236E+03 0.161E+03
CGA:  11    -0.284025820407E+03    0.19847E+01   -0.79359E+01  9568   0.735E+03-0.111E+03
CGA:  12    -0.283925449576E+03    0.10037E+00   -0.62165E+01  9568   0.282E+03-0.107E+03
CGA:  13    -0.290019771628E+03   -0.60943E+01   -0.24253E+01  9568   0.373E+03 0.427E+03
CGA:  14    -0.289717043102E+03    0.30273E+00   -0.79756E+01  9568   0.161E+04-0.437E+03
CGA:  15    -0.286822396429E+03    0.28946E+01   -0.75572E+02  9568   0.361E+03-0.179E+03
CGA:  16    -0.296343599098E+03   -0.95212E+01   -0.47733E+01  9568   0.213E+03 0.320E+03
CGA:  17    -0.300084848381E+03   -0.37412E+01   -0.31781E+01  9568   0.142E+03-0.153E+03
CGA:  18    -0.301231828117E+03   -0.11470E+01   -0.23711E+01  9568   0.796E+02-0.234E+02
CGA:  19    -0.302221612537E+03   -0.98978E+00   -0.49128E+00  9568   0.530E+02 0.676E+02
CGA:  20    -0.303109814400E+03   -0.88820E+00   -0.65956E+00  9568   0.183E+02 0.105E+02
CGA:  21    -0.303362401596E+03   -0.25259E+00   -0.14620E+00  9568   0.121E+02 0.150E+02
CGA:  22    -0.303558842326E+03   -0.19644E+00   -0.39741E+00  9568   0.259E+02-0.476E+01
CGA:  23    -0.303924066614E+03   -0.36522E+00   -0.24403E+00  9568   0.306E+02 0.865E+01
CGA:  24    -0.300424524991E+03    0.34995E+01   -0.92518E+00  9568   0.409E+03-0.173E+03
CGA:  25    -0.295226664002E+03    0.51979E+01   -0.14733E+02  9568   0.388E+03-0.139E+03
CGA:  26    -0.299754856380E+03   -0.45282E+01   -0.26735E+01  9568   0.242E+03 0.123E+03
CGA:  27    -0.284483744648E+03    0.15271E+02   -0.81060E+01  9568   0.127E+04 0.302E+02
CGA:  28    -0.275761584408E+03    0.87222E+01   -0.39697E+02  9568   0.725E+03-0.432E+03
CGA:  29    -0.288483057398E+03   -0.12721E+02   -0.51147E+01  9568   0.689E+03 0.676E+03
CGA:  30    -0.300314934669E+03   -0.11832E+02   -0.95537E+01  9568   0.173E+03 0.339E+02
CGA:  31    -0.303060048271E+03   -0.27451E+01   -0.28850E+01  9568   0.169E+03-0.158E+03
CGA:  32    -0.300317997694E+03    0.27421E+01   -0.38533E+01  9568   0.435E+03-0.176E+03
CGA:  33    -0.289794168035E+03    0.10524E+02   -0.10470E+02  9568   0.818E+03-0.356E+03
CGA:  34    -0.290215259617E+03   -0.42109E+00   -0.20380E+02  9568   0.471E+03-0.378E+03
CGA:  35    -0.297297361671E+03   -0.70821E+01   -0.30660E+01  9568   0.423E+03 0.399E+03
CGA:  36    -0.297746204912E+03   -0.44884E+00   -0.73388E+01  9568   0.672E+03-0.691E+03
CGA:  37    -0.291987347219E+03    0.57589E+01   -0.16047E+02  9568   0.510E+03-0.347E+03
CGA:  38    -0.302611367174E+03   -0.10624E+02   -0.80671E+01  9568   0.247E+03-0.533E+03
CGA:  39    -0.302432905669E+03    0.17846E+00   -0.40392E+01  9568   0.405E+03-0.375E+03
CGA:  40    -0.298741366765E+03    0.36915E+01   -0.73743E+01  9568   0.699E+03-0.453E+03
CGA:  41    -0.295354641647E+03    0.33867E+01   -0.14565E+02  9568   0.511E+03-0.369E+03
CGA:  42    -0.299348144960E+03   -0.39935E+01   -0.96504E+01  9568   0.424E+03-0.509E+03
CGA:  43    -0.301623800174E+03   -0.22757E+01   -0.73379E+01  9568   0.373E+03-0.472E+03
CGA:  44    -0.303110918097E+03   -0.14871E+01   -0.57264E+01  9568   0.314E+03-0.391E+03
CGA:  45    -0.303953530296E+03   -0.84261E+00   -0.45199E+01  9568   0.273E+03-0.319E+03
CGA:  46    -0.304895929710E+03   -0.94240E+00   -0.35720E+01  9568   0.185E+03-0.236E+03
CGA:  47    -0.305734114912E+03   -0.83819E+00   -0.21796E+01  9568   0.863E+02-0.128E+03
CGA:  48    -0.306321798218E+03   -0.58768E+00   -0.77934E+00  9568   0.926E+01-0.254E+02
CGA:  49    -0.306409047376E+03   -0.87249E-01   -0.84692E-01  9568   0.140E+01 0.123E+00
CGA:  50    -0.306507309144E+03   -0.98262E-01   -0.96972E-01  9568   0.866E+01 0.422E-01
CGA:  51    -0.306556144501E+03   -0.48835E-01   -0.24819E-01  9568   0.713E+01 0.866E+01
CGA:  52    -0.306610678075E+03   -0.54534E-01   -0.63715E-01  9568   0.131E+01-0.888E+00
CGA:  53    -0.306666238515E+03   -0.55560E-01   -0.57533E-01  9568   0.353E+01-0.116E+00
CGA:  54    -0.306722035997E+03   -0.55797E-01   -0.31531E-01  9568   0.269E+01 0.243E+01
CGA:  55    -0.306761265051E+03   -0.39229E-01   -0.39718E-01  9568   0.111E+01-0.257E-01
CGA:  56    -0.306787832558E+03   -0.26568E-01   -0.26084E-01  9568   0.190E+01-0.258E-02
CGA:  57    -0.301722995020E+03    0.50648E+01    0.12997E-02  9568   0.147E+03 0.526E+00
CGA:  58    -0.302157722411E+03   -0.43473E+00   -0.49610E+00  9568   0.289E+03 0.509E+03
CGA:  59    -0.305262573042E+03   -0.31049E+01   -0.63100E+01  9568   0.100E+03-0.114E+03
CGA:  60    -0.305916626156E+03   -0.65405E+00   -0.13094E+01  9568   0.593E+02-0.280E+02
CGA:  61    -0.306355299185E+03   -0.43867E+00   -0.22508E+00  9568   0.360E+02 0.397E+02
CGA:  62    -0.306790975389E+03   -0.43568E+00   -0.36936E+00  9568   0.380E+01 0.400E+01
CGA:  63    -0.306834809321E+03   -0.43834E-01   -0.32818E-01  9568   0.129E+01 0.129E+01
CGA:  64    -0.306873900820E+03   -0.39091E-01   -0.39873E-01  9568   0.411E+01-0.150E-01
CGA:  65    -0.306971085324E+03   -0.97185E-01   -0.93195E-01  9568   0.100E+02 0.243E+00
CGA:  66    -0.307047840209E+03   -0.76755E-01   -0.67895E-01  9568   0.536E+01-0.795E-01
CGA:  67    -0.307075131515E+03   -0.27291E-01   -0.33909E-01  9568   0.644E+01-0.129E+01
CGA:  68    -0.307094741139E+03   -0.19610E-01   -0.35183E-01  9568   0.103E+02-0.214E+01
CGA:  69    -0.307115575349E+03   -0.20834E-01   -0.20488E-01  9568   0.799E+01-0.260E+00
CGA:  70    -0.307134872697E+03   -0.19297E-01   -0.24057E-01  9568   0.480E+01-0.194E+01
CGA:  71    -0.307143623174E+03   -0.87505E-02   -0.70812E-02  9568   0.448E+01 0.778E+00
CGA:  72    -0.307156806147E+03   -0.13183E-01   -0.86341E-02  9568   0.412E+01 0.263E+01
CGA:  73    -0.307211875994E+03   -0.55070E-01   -0.62296E-01  9568   0.203E+01-0.266E+00
CGA:  74    -0.307244628806E+03   -0.32753E-01   -0.32984E-01  9568   0.186E+01-0.861E-02
CGA:  75    -0.307313656837E+03   -0.69028E-01   -0.68173E-01  9568   0.126E+01 0.104E+00
CGA:  76    -0.307340869653E+03   -0.27213E-01   -0.27695E-01  9568   0.802E+00-0.175E-02
CGA:  77    -0.307354887545E+03   -0.14018E-01   -0.14055E-01  9568   0.692E+00-0.250E-02
CGA:  78    -0.307370207984E+03   -0.15320E-01   -0.15806E-01  9568   0.427E+00 0.100E-01
CGA:  79    -0.307388670898E+03   -0.18463E-01   -0.18084E-01  9568   0.458E+00 0.230E-01
CGA:  80    -0.307395961926E+03   -0.72910E-02   -0.71589E-02  9568   0.346E+00 0.299E-02
CGA:  81    -0.307406672187E+03   -0.10710E-01   -0.10685E-01  9568   0.244E+00 0.222E-01
CGA:  82    -0.307413688613E+03   -0.70164E-02   -0.70192E-02  9568   0.211E+00-0.657E-03
CGA:  83    -0.307418109965E+03   -0.44214E-02   -0.43490E-02  9568   0.245E+00-0.191E-02
CGA:  84    -0.307424035540E+03   -0.59256E-02   -0.60884E-02  9568   0.131E+00 0.111E-01
CGA:  85    -0.307427683294E+03   -0.36478E-02   -0.36669E-02  9568   0.147E+00 0.198E-02
CGA:  86    -0.307430407726E+03   -0.27244E-02   -0.26527E-02  9568   0.122E+00-0.346E-03
CGA:  87    -0.307434541145E+03   -0.41334E-02   -0.40817E-02  9568   0.944E-01 0.552E-02
CGA:  88    -0.307436160316E+03   -0.16192E-02   -0.16580E-02  9568   0.763E-01-0.194E-02
CGA:  89    -0.307438320898E+03   -0.21606E-02   -0.21634E-02  9568   0.441E-01-0.312E-02
CGA:  90    -0.307439609376E+03   -0.12885E-02   -0.12844E-02  9568   0.373E-01 0.477E-04
CGA:  91    -0.307440591800E+03   -0.98242E-03   -0.98551E-03  9568   0.451E-01-0.452E-04
CGA:  92    -0.307441681389E+03   -0.10896E-02   -0.10844E-02  9568   0.182E-01-0.110E-02
CGA:  93    -0.307442623965E+03   -0.94258E-03   -0.92109E-03  9568   0.111E-01 0.501E-03
CGA:  94    -0.307442991289E+03   -0.36732E-03   -0.36698E-03  9568   0.106E-01-0.123E-03
CGA:  95    -0.307443289860E+03   -0.29857E-03   -0.29875E-03  9568   0.130E-01-0.732E-04
CGA:  96    -0.307443735967E+03   -0.44611E-03   -0.44385E-03  9568   0.983E-02 0.192E-03
CGA:  97    -0.307444183706E+03   -0.44774E-03   -0.44707E-03  9568   0.520E-02-0.251E-04
CGA:  98    -0.307444411105E+03   -0.22740E-03   -0.22603E-03  9568   0.426E-02 0.490E-04
CGA:  99    -0.307444669460E+03   -0.25835E-03   -0.25591E-03  9568   0.573E-02 0.636E-04
CGA: 100    -0.307444834533E+03   -0.16507E-03   -0.16514E-03  9568   0.527E-02 0.287E-05
CGA: 101    -0.307444968345E+03   -0.13381E-03   -0.13485E-03  9568   0.323E-02 0.280E-04
CGA: 102    -0.307445123752E+03   -0.15541E-03   -0.15575E-03  9568   0.287E-02-0.252E-04
SDA: 103    -0.307445298164E+03   -0.17441E-03   -0.17203E-03  9568   0.252E-02 0.759E-04
CGA: 104    -0.307445348079E+03   -0.49915E-04   -0.49858E-04  9568   0.907E-03-0.534E-05
CGA: 105    -0.307445424270E+03   -0.76191E-04   -0.75300E-04  9568   0.183E-02 0.179E-04
CGA: 106    -0.307445462483E+03   -0.38213E-04   -0.38265E-04  9568   0.127E-02-0.191E-05
CGA: 107    -0.307445551126E+03   -0.88643E-04   -0.88302E-04  9568   0.102E-02 0.830E-05
CGA: 108    -0.307445625679E+03   -0.74554E-04   -0.73985E-04  9568   0.179E-02 0.149E-04
CGA: 109    -0.307445671729E+03   -0.46050E-04   -0.46401E-04  9568   0.147E-02-0.393E-05
CGA: 110    -0.307445723780E+03   -0.52050E-04   -0.52001E-04  9568   0.106E-02-0.813E-05
CGA: 111    -0.307445802773E+03   -0.78994E-04   -0.77308E-04  9568   0.107E-02 0.456E-04
CGA: 112    -0.307445824048E+03   -0.21275E-04   -0.21173E-04  9568   0.472E-03 0.477E-05
CGA: 113    -0.307445844477E+03   -0.20428E-04   -0.20420E-04  9568   0.658E-03-0.885E-07
CGA: 114    -0.307445870915E+03   -0.26439E-04   -0.26447E-04  9568   0.487E-03-0.431E-05
CGA: 115    -0.307445893133E+03   -0.22217E-04   -0.22213E-04  9568   0.397E-03-0.238E-05
CGA: 116    -0.307445900682E+03   -0.75490E-05   -0.75059E-05  9568   0.190E-03-0.618E-06
CGA: 117    -0.307445913735E+03   -0.13053E-04   -0.13069E-04  9568   0.165E-03-0.101E-05
CGA: 118    -0.307445920064E+03   -0.63292E-05   -0.63277E-05  9568   0.246E-03-0.120E-05
   1 F= -.30744592E+03 E0= -.30742498E+03  d E =-.307446E+03  mag=    25.7984
       N       E                     dE             d eps       ncg     rms          ort
SDA:   1    -0.307501963289E+03   -0.56050E-01    0.00000E+00  9568   0.157E+01 0.000E+00
CGA:   2    -0.307519342654E+03   -0.17379E-01   -0.15395E-01  9568   0.807E-01 0.168E+00
CGA:   3    -0.307520912095E+03   -0.15694E-02   -0.15271E-02  9568   0.358E-01 0.147E-02
CGA:   4    -0.307521936606E+03   -0.10245E-02   -0.10248E-02  9568   0.521E-01 0.184E-04
CGA:   5    -0.307523945179E+03   -0.20086E-02   -0.20075E-02  9568   0.561E-01 0.336E-03
CGA:   6    -0.307525400882E+03   -0.14557E-02   -0.14551E-02  9568   0.452E-01-0.180E-04
CGA:   7    -0.307526159689E+03   -0.75881E-03   -0.76225E-03  9568   0.142E-01-0.106E-03
CGA:   8    -0.307526619687E+03   -0.46000E-03   -0.46022E-03  9568   0.127E-01 0.346E-04
CGA:   9    -0.307526819272E+03   -0.19958E-03   -0.19865E-03  9568   0.547E-02 0.221E-04
CGA:  10    -0.307527177065E+03   -0.35779E-03   -0.35911E-03  9568   0.102E-01-0.419E-04
CGA:  11    -0.307527314656E+03   -0.13759E-03   -0.13804E-03  9568   0.274E-02-0.248E-04
CGA:  12    -0.307527455506E+03   -0.14085E-03   -0.14087E-03  9568   0.366E-02-0.218E-05
CGA:  13    -0.307527502957E+03   -0.47452E-04   -0.47104E-04  9568   0.758E-03 0.569E-05
CGA:  14    -0.307527537388E+03   -0.34430E-04   -0.34504E-04  9568   0.108E-02-0.640E-05
CGA:  15    -0.307527555947E+03   -0.18559E-04   -0.18576E-04  9568   0.582E-03-0.736E-06
CGA:  16    -0.307527581168E+03   -0.25221E-04   -0.25222E-04  9568   0.551E-03-0.181E-06
CGA:  17    -0.307527591159E+03   -0.99903E-05   -0.99614E-05  9568   0.367E-03-0.105E-05
CGA:  18    -0.307527603009E+03   -0.11850E-04   -0.11851E-04  9568   0.233E-03 0.740E-06
CGA:  19    -0.307527608990E+03   -0.59809E-05   -0.59956E-05  9568   0.267E-03 0.167E-05
   2 F= -.30752761E+03 E0= -.30750677E+03  d E =-.816889E-01  mag=    25.7984
       N       E                     dE             d eps       ncg     rms          ort
SDA:   1    -0.303007741523E+03    0.45199E+01    0.00000E+00  9568   0.208E+02 0.000E+00
CGA:   2    -0.304701418928E+03   -0.16937E+01   -0.14402E+01  9568   0.321E+02 0.709E+01
CGA:   3    -0.306405613853E+03   -0.17042E+01   -0.18313E+01  9568   0.668E+02-0.115E+02
CGA:   4    -0.307115105659E+03   -0.70949E+00   -0.69474E+00  9568   0.886E+02 0.454E+00
CGA:   5    -0.307881042674E+03   -0.76594E+00   -0.82639E+00  9568   0.195E+02-0.676E+01
CGA:   6    -0.308181448548E+03   -0.30041E+00   -0.22845E+00  9568   0.104E+02 0.383E+01
CGA:   7    -0.308290717357E+03   -0.10927E+00   -0.89583E-01  9568   0.516E+01 0.223E+01
CGA:   8    -0.308380914079E+03   -0.90197E-01   -0.93390E-01  9568   0.108E+02-0.146E+00
CGA:   9    -0.308546533184E+03   -0.16562E+00   -0.17383E+00  9568   0.227E+02-0.196E+00
CGA:  10    -0.308773926823E+03   -0.22739E+00   -0.25425E+00  9568   0.140E+02-0.151E+01
CGA:  11    -0.308889986678E+03   -0.11606E+00   -0.11763E+00  9568   0.956E+01-0.166E+00
CGA:  12    -0.308989936885E+03   -0.99950E-01   -0.81458E-01  9568   0.597E+01 0.159E+01
CGA:  13    -0.309034576309E+03   -0.44639E-01   -0.38559E-01  9568   0.185E+01 0.909E+00
CGA:  14    -0.309047597890E+03   -0.13022E-01   -0.12388E-01  9568   0.897E+00 0.903E-01
CGA:  15    -0.309057951005E+03   -0.10353E-01   -0.10137E-01  9568   0.161E+01 0.117E-01
CGA:  16    -0.309081038656E+03   -0.23088E-01   -0.23324E-01  9568   0.351E+01-0.433E-02
CGA:  17    -0.309111172286E+03   -0.30134E-01   -0.31383E-01  9568   0.260E+01-0.916E-01
CGA:  18    -0.309129031212E+03   -0.17859E-01   -0.19947E-01  9568   0.190E+01-0.189E+00
CGA:  19    -0.309149017985E+03   -0.19987E-01   -0.20675E-01  9568   0.196E+01-0.236E-01
CGA:  20    -0.309166475621E+03   -0.17458E-01   -0.17014E-01  9568   0.122E+01 0.328E-01
CGA:  21    -0.309177687363E+03   -0.11212E-01   -0.11420E-01  9568   0.794E+00-0.128E-01
CGA:  22    -0.309184525529E+03   -0.68382E-02   -0.70075E-02  9568   0.407E+00-0.115E-01
CGA:  23    -0.309188213988E+03   -0.36885E-02   -0.37678E-02  9568   0.304E+00-0.449E-02
CGA:  24    -0.309194002789E+03   -0.57888E-02   -0.57864E-02  9568   0.661E+00 0.511E-02
CGA:  25    -0.309205431540E+03   -0.11429E-01   -0.11383E-01  9568   0.578E+00-0.794E-02
CGA:  26    -0.309211292394E+03   -0.58609E-02   -0.57986E-02  9568   0.429E+00 0.239E-02
CGA:  27    -0.309217787917E+03   -0.64955E-02   -0.64896E-02  9568   0.541E+00-0.493E-03
CGA:  28    -0.309223925494E+03   -0.61376E-02   -0.62847E-02  9568   0.340E+00-0.104E-02
CGA:  29    -0.309227632568E+03   -0.37071E-02   -0.37950E-02  9568   0.236E+00-0.999E-03
CGA:  30    -0.309231059445E+03   -0.34269E-02   -0.34164E-02  9568   0.174E+00-0.870E-03
CGA:  31    -0.309233045922E+03   -0.19865E-02   -0.19526E-02  9568   0.127E+00 0.316E-03
SDA:  32    -0.309235082766E+03   -0.20368E-02   -0.20362E-02  9568   0.167E+00-0.251E-03
CGA:  33    -0.309237425161E+03   -0.23424E-02   -0.23480E-02  9568   0.648E-01 0.556E-03
CGA:  34    -0.309241034693E+03   -0.36095E-02   -0.36181E-02  9568   0.788E-01-0.245E-03
CGA:  35    -0.309244660249E+03   -0.36256E-02   -0.36605E-02  9568   0.664E-01-0.138E-02
CGA:  36    -0.309246892726E+03   -0.22325E-02   -0.22348E-02  9568   0.435E-01-0.150E-03
CGA:  37    -0.309248647688E+03   -0.17550E-02   -0.17368E-02  9568   0.230E-01 0.923E-03
CGA:  38    -0.309249161280E+03   -0.51359E-03   -0.51358E-03  9568   0.201E-01-0.769E-04
CGA:  39    -0.309250263267E+03   -0.11020E-02   -0.10988E-02  9568   0.140E-01 0.103E-03
CGA:  40    -0.309251352432E+03   -0.10892E-02   -0.10867E-02  9568   0.129E-01 0.425E-04
CGA:  41    -0.309251641159E+03   -0.28873E-03   -0.28896E-03  9568   0.850E-02 0.273E-04
CGA:  42    -0.309252048931E+03   -0.40777E-03   -0.40925E-03  9568   0.134E-01-0.638E-04
CGA:  43    -0.309252381661E+03   -0.33273E-03   -0.33299E-03  9568   0.548E-02 0.558E-04
CGA:  44    -0.309253114010E+03   -0.73235E-03   -0.14090E-05  9568   0.100E-01-0.136E-02
CGA:  45    -0.309253328757E+03   -0.21475E-03   -0.21533E-03  9568   0.449E-02 0.851E-06
CGA:  46    -0.309253492563E+03   -0.16381E-03   -0.16387E-03  9568   0.622E-02 0.467E-05
CGA:  47    -0.309253709906E+03   -0.21734E-03   -0.21775E-03  9568   0.517E-02 0.169E-04
CGA:  48    -0.309253867151E+03   -0.15725E-03   -0.15711E-03  9568   0.324E-02 0.728E-05
CGA:  49    -0.309253986581E+03   -0.11943E-03   -0.11945E-03  9568   0.144E-02 0.557E-05
CGA:  50    -0.309254038638E+03   -0.52057E-04   -0.52056E-04  9568   0.127E-02-0.122E-05
CGA:  51    -0.309254101916E+03   -0.63278E-04   -0.63282E-04  9568   0.212E-02-0.136E-05
CGA:  52    -0.309254153886E+03   -0.51971E-04   -0.51839E-04  9568   0.101E-02-0.397E-05
CGA:  53    -0.309254192921E+03   -0.39035E-04   -0.39040E-04  9568   0.793E-03-0.508E-06
CGA:  54    -0.309254220292E+03   -0.27371E-04   -0.27350E-04  9568   0.454E-03-0.142E-05
CGA:  55    -0.309254240704E+03   -0.20413E-04   -0.20408E-04  9568   0.628E-03 0.314E-05
CGA:  56    -0.309254261912E+03   -0.21208E-04   -0.21237E-04  9568   0.549E-03 0.280E-05
CGA:  57    -0.309254275838E+03   -0.13926E-04   -0.13993E-04  9568   0.284E-03 0.392E-05
CGA:  58    -0.309254289678E+03   -0.13840E-04   -0.13821E-04  9568   0.220E-03 0.298E-05
CGA:  59    -0.309254299272E+03   -0.95941E-05   -0.95936E-05  9568   0.258E-03 0.756E-06
CGA:  60    -0.309254309517E+03   -0.10245E-04   -0.10237E-04  9568   0.306E-03-0.251E-05
CGA:  61    -0.309254316781E+03   -0.72648E-05   -0.72435E-05  9568   0.134E-03-0.129E-05
   3 F= -.30925432E+03 E0= -.30923286E+03  d E =-.172671E+01  mag=    25.8093
       N       E                     dE             d eps       ncg     rms          ort
SDA:   1    -0.277693313517E+03    0.31561E+02    0.00000E+00  9568   0.116E+04 0.000E+00
CGA:   2    -0.289317263602E+03   -0.11624E+02   -0.25927E+02  9568   0.284E+03-0.111E+03
CGA:   3    -0.294375275401E+03   -0.50580E+01   -0.68762E+01  9568   0.272E+03-0.264E+02
CGA:   4    -0.294580526164E+03   -0.20525E+00   -0.38271E+01  9568   0.270E+03-0.168E+03
CGA:   5    -0.300705477216E+03   -0.61250E+01   -0.35615E+01  9568   0.722E+02-0.164E+03
CGA:   6    -0.301559975483E+03   -0.85450E+00   -0.83016E+00  9568   0.408E+02-0.580E+01
CGA:   7    -0.303410079995E+03   -0.18501E+01   -0.18028E+01  9568   0.918E+02 0.304E+01
CGA:   8    -0.306044961265E+03   -0.26349E+01   -0.28166E+01  9568   0.242E+03 0.428E+01
CGA:   9    -0.308729304715E+03   -0.26843E+01   -0.30208E+01  9568   0.681E+02-0.687E+02
CGA:  10    -0.309348715896E+03   -0.61941E+00   -0.77020E+00  9568   0.137E+02-0.569E+01
CGA:  11    -0.309537016545E+03   -0.18830E+00   -0.18382E+00  9568   0.873E+01 0.102E+00
CGA:  12    -0.309747733859E+03   -0.21072E+00   -0.20081E+00  9568   0.505E+01-0.653E-01
CGA:  13    -0.310032255708E+03   -0.28452E+00   -0.28033E+00  9568   0.706E+01 0.164E+00
CGA:  14    -0.310188054363E+03   -0.15580E+00   -0.16125E+00  9568   0.615E+01-0.129E-01
CGA:  15    -0.310311228535E+03   -0.12317E+00   -0.11597E+00  9568   0.262E+01 0.129E+00
CGA:  16    -0.310355742915E+03   -0.44514E-01   -0.44495E-01  9568   0.588E+00 0.420E-03
CGA:  17    -0.310378088757E+03   -0.22346E-01   -0.22213E-01  9568   0.160E+01 0.149E-01
CGA:  18    -0.310420965666E+03   -0.42877E-01   -0.42562E-01  9568   0.966E+00-0.131E-01
CGA:  19    -0.310448521409E+03   -0.27556E-01   -0.27732E-01  9568   0.555E+00 0.256E-01
CGA:  20    -0.310467436746E+03   -0.18915E-01   -0.18869E-01  9568   0.371E+00 0.175E-01
CGA:  21    -0.310475104647E+03   -0.76679E-02   -0.77091E-02  9568   0.332E+00 0.101E-03
CGA:  22    -0.310485822698E+03   -0.10718E-01   -0.10690E-01  9568   0.233E+00 0.139E-01
CGA:  23    -0.310497799423E+03   -0.11977E-01   -0.12028E-01  9568   0.225E+00-0.248E-02
CGA:  24    -0.310503846113E+03   -0.60467E-02   -0.60530E-02  9568   0.165E+00 0.491E-03
CGA:  25    -0.310508534859E+03   -0.46887E-02   -0.47077E-02  9568   0.183E+00 0.219E-02
CGA:  26    -0.310513286622E+03   -0.47518E-02   -0.47094E-02  9568   0.669E-01-0.164E-02
CGA:  27    -0.310517066040E+03   -0.37794E-02   -0.37536E-02  9568   0.621E-01 0.975E-03
CGA:  28    -0.310520670832E+03   -0.36048E-02   -0.36197E-02  9568   0.938E-01-0.533E-03
CGA:  29    -0.310523003824E+03   -0.23330E-02   -0.23525E-02  9568   0.538E-01 0.419E-03
CGA:  30    -0.310524200241E+03   -0.11964E-02   -0.11971E-02  9568   0.316E-01 0.370E-04
CGA:  31    -0.310525494556E+03   -0.12943E-02   -0.12940E-02  9568   0.278E-01 0.512E-04
CGA:  32    -0.310527370969E+03   -0.18764E-02   -0.18585E-02  9568   0.240E-01 0.531E-03
CGA:  33    -0.310527928218E+03   -0.55725E-03   -0.55965E-03  9568   0.189E-01 0.233E-04
CGA:  34    -0.310528527287E+03   -0.59907E-03   -0.59876E-03  9568   0.138E-01-0.432E-04
CGA:  35    -0.310529053150E+03   -0.52586E-03   -0.52493E-03  9568   0.127E-01 0.157E-03
SDA:  36    -0.310529688303E+03   -0.63515E-03   -0.63543E-03  9568   0.101E-01-0.125E-04
CGA:  37    -0.310529872710E+03   -0.18441E-03   -0.18485E-03  9568   0.521E-02-0.464E-05
CGA:  38    -0.310530027206E+03   -0.15450E-03   -0.15436E-03  9568   0.488E-02-0.142E-04
CGA:  39    -0.310530238267E+03   -0.21106E-03   -0.21118E-03  9568   0.452E-02-0.111E-04
CGA:  40    -0.310530405988E+03   -0.16772E-03   -0.16770E-03  9568   0.369E-02 0.256E-05
CGA:  41    -0.310530661925E+03   -0.25594E-03   -0.25647E-03  9568   0.262E-02-0.161E-04
CGA:  42    -0.310530788366E+03   -0.12644E-03   -0.12636E-03  9568   0.547E-02 0.320E-05
CGA:  43    -0.310530900100E+03   -0.11173E-03   -0.11116E-03  9568   0.148E-02-0.358E-05
CGA:  44    -0.310531023604E+03   -0.12350E-03   -0.12331E-03  9568   0.120E-02 0.430E-05
CGA:  45    -0.310531178659E+03   -0.15506E-03   -0.15528E-03  9568   0.120E-02-0.104E-05
CGA:  46    -0.310531219124E+03   -0.40465E-04   -0.40445E-04  9568   0.128E-02-0.193E-05
CGA:  47    -0.310531258833E+03   -0.39708E-04   -0.39581E-04  9568   0.166E-02-0.526E-05
CGA:  48    -0.310531333507E+03   -0.74674E-04   -0.74620E-04  9568   0.121E-02 0.913E-05
CGA:  49    -0.310531370685E+03   -0.37179E-04   -0.37130E-04  9568   0.822E-03-0.479E-06
CGA:  50    -0.310531406535E+03   -0.35850E-04   -0.35843E-04  9568   0.319E-03 0.169E-05
CGA:  51    -0.310531436931E+03   -0.30395E-04   -0.30179E-04  9568   0.142E-02 0.345E-05
CGA:  52    -0.310531464795E+03   -0.27864E-04   -0.27619E-04  9568   0.284E-03 0.630E-05
CGA:  53    -0.310531484605E+03   -0.19810E-04   -0.19791E-04  9568   0.163E-03 0.254E-06
CGA:  54    -0.310531490861E+03   -0.62560E-05   -0.62528E-05  9568   0.199E-03-0.998E-06
CGA:  55    -0.310531503473E+03   -0.12612E-04   -0.12591E-04  9568   0.338E-03 0.564E-06
CGA:  56    -0.310531512007E+03   -0.85347E-05   -0.85366E-05  9568   0.165E-03-0.578E-06
   4 F= -.31053151E+03 E0= -.31050943E+03  d E =-.127720E+01  mag=    25.8289
       N       E                     dE             d eps       ncg     rms          ort
SDA:   1    -0.268705781808E+03    0.41826E+02    0.00000E+00  9568   0.116E+04 0.000E+00
CGA:   2    -0.284717486119E+03   -0.16012E+02   -0.28026E+02  9568   0.253E+03-0.897E+02
CGA:   3    -0.292439768889E+03   -0.77223E+01   -0.80511E+01  9568   0.153E+03 0.342E+02
CGA:   4    -0.293240266174E+03   -0.80050E+00   -0.41587E+01  9568   0.617E+03 0.124E+02
CGA:   5    -0.294407873068E+03   -0.11676E+01   -0.11591E+02  9568   0.388E+03-0.244E+03
CGA:   6    -0.300758898592E+03   -0.63510E+01   -0.62617E+01  9568   0.173E+03-0.401E+02
CGA:   7    -0.307183847268E+03   -0.64249E+01   -0.68153E+01  9568   0.392E+02-0.765E+02
CGA:   8    -0.305934416146E+03    0.12494E+01   -0.19832E+01  9568   0.309E+03-0.871E+02
CGA:   9    -0.309415568168E+03   -0.34812E+01   -0.73840E+01  9568   0.964E+01-0.203E-01
CGA:  10    -0.309831207612E+03   -0.41564E+00   -0.42179E+00  9568   0.183E+02-0.121E+01
CGA:  11    -0.309975716347E+03   -0.14451E+00   -0.83641E-01  9568   0.152E+02 0.113E+02
CGA:  12    -0.310203016101E+03   -0.22730E+00   -0.27093E+00  9568   0.449E+01-0.177E+01
CGA:  13    -0.310622012667E+03   -0.41900E+00   -0.44539E+00  9568   0.103E+02-0.328E+00
CGA:  14    -0.310864485778E+03   -0.24247E+00   -0.24819E+00  9568   0.269E+01-0.597E-01
CGA:  15    -0.310967953523E+03   -0.10347E+00   -0.10402E+00  9568   0.709E+00 0.122E+00
CGA:  16    -0.310991867831E+03   -0.23914E-01   -0.23977E-01  9568   0.480E+00 0.209E-02
CGA:  17    -0.311023948345E+03   -0.32081E-01   -0.31838E-01  9568   0.933E+00 0.815E-02
CGA:  18    -0.311075693283E+03   -0.51745E-01   -0.51320E-01  9568   0.290E+00 0.157E-01
CGA:  19    -0.311094509878E+03   -0.18817E-01   -0.18610E-01  9568   0.347E+00 0.766E-02
CGA:  20    -0.311110406936E+03   -0.15897E-01   -0.15904E-01  9568   0.341E+00-0.300E-02
CGA:  21    -0.311124931692E+03   -0.14525E-01   -0.14482E-01  9568   0.321E+00-0.345E-01
CGA:  22    -0.311134006507E+03   -0.90748E-02   -0.94484E-02  9568   0.166E+00 0.653E-02
CGA:  23    -0.311139259553E+03   -0.52530E-02   -0.54076E-02  9568   0.120E+00 0.267E-02
CGA:  24    -0.311147945138E+03   -0.86856E-02   -0.87545E-02  9568   0.996E-01-0.212E-02
CGA:  25    -0.311153306341E+03   -0.53612E-02   -0.53093E-02  9568   0.130E+00 0.339E-02
CGA:  26    -0.311158150470E+03   -0.48441E-02   -0.48332E-02  9568   0.348E-01-0.245E-03
CGA:  27    -0.311161533218E+03   -0.33827E-02   -0.33029E-02  9568   0.722E-01 0.162E-02
CGA:  28    -0.311158278352E+03    0.32549E-02   -0.14359E-01  9568   0.706E+00-0.136E+00
CGA:  29    -0.311176553851E+03   -0.18275E-01   -0.19877E-01  9568   0.197E+00-0.243E-01
CGA:  30    -0.311183242515E+03   -0.66887E-02   -0.64438E-02  9568   0.568E-01 0.799E-03
CGA:  31    -0.311190000094E+03   -0.67576E-02   -0.70511E-02  9568   0.171E+00-0.436E-02
CGA:  32    -0.311195829803E+03   -0.58297E-02   -0.57468E-02  9568   0.944E-01 0.217E-03
CGA:  33    -0.311202115899E+03   -0.62861E-02   -0.65349E-02  9568   0.227E+00-0.118E-01
CGA:  34    -0.311207991911E+03   -0.58760E-02   -0.44125E-02  9568   0.116E+00 0.575E-01
CGA:  35    -0.311210731456E+03   -0.27395E-02   -0.20526E-02  9568   0.936E-01 0.413E-01
CGA:  36    -0.311214101254E+03   -0.33698E-02   -0.28715E-02  9568   0.189E+00 0.135E-01
CGA:  37    -0.311217246872E+03   -0.31456E-02   -0.32664E-02  9568   0.264E+00-0.859E-02
CGA:  38    -0.311219147909E+03   -0.19010E-02   -0.13409E-02  9568   0.199E+00 0.103E+00
CGA:  39    -0.311220914397E+03   -0.17665E-02   -0.11954E-02  9568   0.131E+00 0.127E+00
CGA:  40    -0.311225099336E+03   -0.41849E-02   -0.42041E-02  9568   0.392E-01 0.205E-03
CGA:  41    -0.311226362879E+03   -0.12635E-02   -0.12476E-02  9568   0.304E-01-0.182E-03
CGA:  42    -0.311227590288E+03   -0.12274E-02   -0.12285E-02  9568   0.406E-01 0.231E-03
CGA:  43    -0.311230184378E+03   -0.25941E-02   -0.28076E-02  9568   0.123E+00-0.775E-02
CGA:  44    -0.311232530449E+03   -0.23461E-02   -0.20527E-02  9568   0.868E-01 0.108E-01
CGA:  45    -0.311233710752E+03   -0.11803E-02   -0.11127E-02  9568   0.409E-01 0.539E-02
CGA:  46    -0.311235700926E+03   -0.19902E-02   -0.19917E-02  9568   0.114E+00-0.267E-03
CGA:  47    -0.311236972365E+03   -0.12714E-02   -0.12547E-02  9568   0.318E-01-0.116E-02
CGA:  48    -0.311237393714E+03   -0.42135E-03   -0.43583E-03  9568   0.316E-01-0.825E-03
CGA:  49    -0.311238093693E+03   -0.69998E-03   -0.71749E-03  9568   0.407E-01-0.141E-03
CGA:  50    -0.311238795879E+03   -0.70219E-03   -0.65801E-03  9568   0.353E-01 0.176E-02
CGA:  51    -0.311239276790E+03   -0.48091E-03   -0.47074E-03  9568   0.179E-01 0.517E-03
CGA:  52    -0.311239603203E+03   -0.32641E-03   -0.33156E-03  9568   0.282E-01-0.164E-03
CGA:  53    -0.311240169688E+03   -0.56648E-03   -0.56719E-03  9568   0.151E-01-0.131E-04
CGA:  54    -0.311240304959E+03   -0.13527E-03   -0.13285E-03  9568   0.616E-02 0.223E-03
CGA:  55    -0.311240510155E+03   -0.20520E-03   -0.20520E-03  9568   0.204E-01-0.375E-04
CGA:  56    -0.311240875549E+03   -0.36539E-03   -0.37344E-03  9568   0.167E-01-0.167E-03
CGA:  57    -0.311241122116E+03   -0.24657E-03   -0.25314E-03  9568   0.163E-01-0.250E-03
CGA:  58    -0.311241368857E+03   -0.24674E-03   -0.24313E-03  9568   0.750E-02 0.122E-03
CGA:  59    -0.311241470235E+03   -0.10138E-03   -0.10028E-03  9568   0.770E-02 0.583E-04
CGA:  60    -0.311241716322E+03   -0.24609E-03   -0.24631E-03  9568   0.147E-01-0.508E-04
CGA:  61    -0.311241885195E+03   -0.16887E-03   -0.17664E-03  9568   0.765E-02-0.402E-03
CGA:  62    -0.311242090359E+03   -0.20516E-03   -0.20550E-03  9568   0.161E-01 0.143E-03
CGA:  63    -0.311242363441E+03   -0.27308E-03   -0.26435E-03  9568   0.821E-02 0.232E-03
CGA:  64    -0.311242506234E+03   -0.14279E-03   -0.14112E-03  9568   0.808E-02 0.365E-04
CGA:  65    -0.311242649388E+03   -0.14315E-03   -0.14450E-03  9568   0.827E-02 0.335E-05
CGA:  66    -0.311242856322E+03   -0.20693E-03   -0.20769E-03  9568   0.106E-01 0.177E-03
CGA:  67    -0.311242992959E+03   -0.13664E-03   -0.13351E-03  9568   0.413E-02 0.176E-03
CGA:  68    -0.311243121993E+03   -0.12903E-03   -0.12959E-03  9568   0.127E-01-0.715E-04
CGA:  69    -0.311243454896E+03   -0.33290E-03   -0.33281E-03  9568   0.183E-01 0.237E-03
SDA:  70    -0.311243709295E+03   -0.25440E-03   -0.27505E-03  9568   0.835E-02-0.397E-03
CGA:  71    -0.311243900295E+03   -0.19100E-03   -0.19105E-03  9568   0.480E-02 0.393E-05
CGA:  72    -0.311244013572E+03   -0.11328E-03   -0.11325E-03  9568   0.424E-02-0.160E-04
CGA:  73    -0.311244203499E+03   -0.18993E-03   -0.19040E-03  9568   0.437E-02-0.246E-04
CGA:  74    -0.311244382258E+03   -0.17876E-03   -0.17870E-03  9568   0.398E-02-0.663E-07
CGA:  75    -0.311244518266E+03   -0.13601E-03   -0.13618E-03  9568   0.125E-02-0.230E-04
CGA:  76    -0.311244614679E+03   -0.96413E-04   -0.96042E-04  9568   0.130E-02 0.751E-05
CGA:  77    -0.311244634053E+03   -0.19375E-04   -0.19407E-04  9568   0.612E-03-0.295E-05
CGA:  78    -0.311244681253E+03   -0.47199E-04   -0.46872E-04  9568   0.355E-03 0.613E-05
CGA:  79    -0.311244702502E+03   -0.21249E-04   -0.21148E-04  9568   0.578E-03 0.317E-05
CGA:  80    -0.311244716085E+03   -0.13583E-04   -0.13624E-04  9568   0.220E-03 0.380E-05
CGA:  81    -0.311244722015E+03   -0.59295E-05   -0.59411E-05  9568   0.263E-03 0.977E-06
CGA:  82    -0.311244732985E+03   -0.10971E-04   -0.10936E-04  9568   0.102E-03 0.328E-05
CGA:  83    -0.311244743562E+03   -0.10577E-04   -0.10410E-04  9568   0.254E-03 0.206E-05
CGA:  84    -0.311244749432E+03   -0.58694E-05   -0.58781E-05  9568   0.173E-03 0.141E-05
   5 F= -.31124475E+03 E0= -.31122218E+03  d E =-.713237E+00  mag=    25.8326
       N       E                     dE             d eps       ncg     rms          ort
SDA:   1    -0.247761869834E+03    0.63483E+02    0.00000E+00  9568   0.430E+03 0.000E+00
CGA:   2    -0.782706126318E+02    0.16949E+03   -0.71902E+02  9568   0.333E+04-0.746E+03
CGA:   3    -0.230666385276E+03   -0.15240E+03   -0.20204E+03  9568   0.206E+04-0.102E+04
CGA:   4    -0.258046579753E+03   -0.27380E+02   -0.34972E+02  9568   0.202E+04-0.275E+03
CGA:   5    -0.289342281056E+03   -0.31296E+02   -0.47447E+02  9568   0.540E+03 0.592E+03
CGA:   6    -0.297986379153E+03   -0.86441E+01   -0.14607E+02  9568   0.214E+03-0.142E+03
CGA:   7    -0.302124998323E+03   -0.41386E+01   -0.46679E+01  9568   0.186E+03 0.380E+01
CGA:   8    -0.306171101728E+03   -0.40461E+01   -0.28564E+01  9568   0.378E+02 0.850E+00
CGA:   9    -0.307108719166E+03   -0.93762E+00   -0.94249E+00  9568   0.315E+02 0.106E+01
CGA:  10    -0.307652904978E+03   -0.54419E+00   -0.51894E+00  9568   0.331E+02 0.467E+00
CGA:  11    -0.308392411516E+03   -0.73951E+00   -0.76094E+00  9568   0.471E+02-0.415E+00
CGA:  12    -0.308972507945E+03   -0.58010E+00   -0.55772E+00  9568   0.406E+02-0.486E+00
CGA:  13    -0.309572623386E+03   -0.60012E+00   -0.45388E+00  9568   0.405E+02 0.134E+02
CGA:  14    -0.310044519082E+03   -0.47190E+00   -0.33202E+00  9568   0.234E+02 0.175E+02
CGA:  15    -0.310267993870E+03   -0.22347E+00   -0.20128E+00  9568   0.192E+02 0.227E+01
CGA:  16    -0.310386694999E+03   -0.11870E+00   -0.17431E+00  9568   0.283E+02-0.602E+01
CGA:  17    -0.310467048701E+03   -0.80354E-01   -0.11775E+00  9568   0.314E+02-0.505E+01
CGA:  18    -0.310573927859E+03   -0.10688E+00   -0.85335E-01  9568   0.243E+02 0.592E+01
CGA:  19    -0.310702693695E+03   -0.12877E+00   -0.13082E+00  9568   0.203E+02-0.129E+01
CGA:  20    -0.310784020259E+03   -0.81327E-01   -0.10789E+00  9568   0.257E+02-0.446E+01
CGA:  21    -0.310857080420E+03   -0.73060E-01   -0.63120E-01  9568   0.243E+02 0.291E+01
CGA:  22    -0.310953077431E+03   -0.95997E-01   -0.80684E-01  9568   0.176E+02 0.436E+01
CGA:  23    -0.311022743287E+03   -0.69666E-01   -0.66269E-01  9568   0.148E+02 0.606E+00
CGA:  24    -0.311070318307E+03   -0.47575E-01   -0.41593E-01  9568   0.155E+02 0.191E+01
CGA:  25    -0.311118672481E+03   -0.48354E-01   -0.35358E-01  9568   0.157E+02 0.605E+01
CGA:  26    -0.311175405896E+03   -0.56733E-01   -0.40616E-01  9568   0.143E+02 0.813E+01
CGA:  27    -0.311325197267E+03   -0.14979E+00   -0.14604E+00  9568   0.116E+01 0.111E+00
CGA:  28    -0.311360692813E+03   -0.35496E-01   -0.37428E-01  9568   0.130E+01-0.138E+00
CGA:  29    -0.311405741213E+03   -0.45048E-01   -0.45309E-01  9568   0.165E+01-0.135E-01
CGA:  30    -0.311466762507E+03   -0.61021E-01   -0.58862E-01  9568   0.208E+01 0.129E+00
CGA:  31    -0.311520190496E+03   -0.53428E-01   -0.53876E-01  9568   0.174E+01-0.936E-01
CGA:  32    -0.311550107907E+03   -0.29917E-01   -0.29819E-01  9568   0.482E+00-0.944E-02
CGA:  33    -0.311569277564E+03   -0.19170E-01   -0.18591E-01  9568   0.936E+00 0.315E-01
CGA:  34    -0.311589998560E+03   -0.20721E-01   -0.20636E-01  9568   0.643E+00-0.287E-01
CGA:  35    -0.311605511155E+03   -0.15513E-01   -0.15468E-01  9568   0.438E+00 0.100E-01
CGA:  36    -0.311618402965E+03   -0.12892E-01   -0.12798E-01  9568   0.405E+00 0.106E-01
CGA:  37    -0.311625294786E+03   -0.68918E-02   -0.68334E-02  9568   0.293E+00-0.145E-02
CGA:  38    -0.311637424640E+03   -0.12130E-01   -0.12092E-01  9568   0.368E+00 0.173E-02
CGA:  39    -0.311647565436E+03   -0.10141E-01   -0.10075E-01  9568   0.352E+00 0.102E-01
CGA:  40    -0.311652216985E+03   -0.46515E-02   -0.45169E-02  9568   0.510E-01 0.415E-02
CGA:  41    -0.311655828902E+03   -0.36119E-02   -0.35976E-02  9568   0.119E+00 0.316E-03
CGA:  42    -0.311657798612E+03   -0.19697E-02   -0.19880E-02  9568   0.657E-01-0.891E-04
CGA:  43    -0.311659865274E+03   -0.20667E-02   -0.20703E-02  9568   0.449E-01-0.409E-03
CGA:  44    -0.311661868294E+03   -0.20030E-02   -0.20019E-02  9568   0.325E-01 0.269E-04
CGA:  45    -0.311662840714E+03   -0.97242E-03   -0.96982E-03  9568   0.371E-01 0.415E-03
CGA:  46    -0.311663895765E+03   -0.10551E-02   -0.10549E-02  9568   0.400E-01 0.137E-04
CGA:  47    -0.311664777696E+03   -0.88193E-03   -0.88182E-03  9568   0.102E-01-0.874E-05
CGA:  48    -0.311665479480E+03   -0.70178E-03   -0.69837E-03  9568   0.147E-01 0.820E-04
CGA:  49    -0.311666064710E+03   -0.58523E-03   -0.58651E-03  9568   0.268E-01-0.102E-03
CGA:  50    -0.311666672530E+03   -0.60782E-03   -0.60981E-03  9568   0.173E-01 0.639E-04
CGA:  51    -0.311667212370E+03   -0.53984E-03   -0.53949E-03  9568   0.680E-02 0.679E-04
CGA:  52    -0.311667522063E+03   -0.30969E-03   -0.31028E-03  9568   0.114E-01-0.341E-04
CGA:  53    -0.311668049854E+03   -0.52779E-03   -0.52382E-03  9568   0.139E-01 0.199E-03
CGA:  54    -0.311668272214E+03   -0.22236E-03   -0.21916E-03  9568   0.626E-02 0.881E-04
CGA:  55    -0.311668775417E+03   -0.50320E-03   -0.49010E-03  9568   0.767E-02 0.302E-03
CGA:  56    -0.311669048485E+03   -0.27307E-03   -0.27300E-03  9568   0.779E-02 0.178E-04
SDA:  57    -0.311669213970E+03   -0.16549E-03   -0.16359E-03  9568   0.672E-02-0.216E-05
CGA:  58    -0.311669314985E+03   -0.10101E-03   -0.10131E-03  9568   0.286E-02-0.932E-05
CGA:  59    -0.311669397353E+03   -0.82369E-04   -0.82364E-04  9568   0.301E-02-0.537E-05
CGA:  60    -0.311669596368E+03   -0.19901E-03   -0.19858E-03  9568   0.282E-02 0.126E-04
CGA:  61    -0.311669748236E+03   -0.15187E-03   -0.15223E-03  9568   0.483E-02-0.174E-04
CGA:  62    -0.311669931611E+03   -0.18337E-03   -0.18343E-03  9568   0.150E-02-0.153E-04
CGA:  63    -0.311670094413E+03   -0.16280E-03   -0.16759E-03  9568   0.509E-02-0.698E-04
CGA:  64    -0.311670168291E+03   -0.73878E-04   -0.75743E-04  9568   0.182E-02-0.865E-04
CGA:  65    -0.311670288159E+03   -0.11987E-03   -0.12085E-03  9568   0.148E-02-0.318E-04
CGA:  66    -0.311670350742E+03   -0.62583E-04   -0.62561E-04  9568   0.161E-02-0.104E-05
CGA:  67    -0.311670408182E+03   -0.57439E-04   -0.57462E-04  9568   0.142E-02 0.609E-06
CGA:  68    -0.311670435714E+03   -0.27532E-04   -0.27197E-04  9568   0.859E-03 0.162E-05
CGA:  69    -0.311670478279E+03   -0.42565E-04   -0.42476E-04  9568   0.138E-02 0.409E-05
CGA:  70    -0.311670534215E+03   -0.55937E-04   -0.55943E-04  9568   0.331E-03-0.278E-05
CGA:  71    -0.311670552611E+03   -0.18395E-04   -0.18452E-04  9568   0.577E-03-0.315E-05
CGA:  72    -0.311670562598E+03   -0.99874E-05   -0.10079E-04  9568   0.267E-03-0.155E-05
CGA:  73    -0.311670579197E+03   -0.16599E-04   -0.16625E-04  9568   0.535E-03-0.121E-05
CGA:  74    -0.311670596668E+03   -0.17471E-04   -0.17507E-04  9568   0.146E-03 0.173E-05
CGA:  75    -0.311670606998E+03   -0.10330E-04   -0.10265E-04  9568   0.375E-03 0.165E-05
CGA:  76    -0.311670614978E+03   -0.79792E-05   -0.79108E-05  9568   0.184E-03-0.198E-06
   6 F= -.31167061E+03 E0= -.31164805E+03  d E =-.425866E+00  mag=    25.8428
       N       E                     dE             d eps       ncg     rms          ort
SDA:   1    -0.293763913945E+03    0.17907E+02    0.00000E+00  9568   0.106E+03 0.000E+00
CGA:   2    -0.296785677332E+03   -0.30218E+01   -0.29529E+01  9568   0.897E+02-0.635E+01
CGA:   3    -0.300133923580E+03   -0.33482E+01   -0.33553E+01  9568   0.209E+03-0.182E+01
CGA:   4    -0.306539412298E+03   -0.64055E+01   -0.65034E+01  9568   0.380E+02 0.500E+01
CGA:   5    -0.307887154575E+03   -0.13477E+01   -0.20393E+01  9568   0.101E+03-0.380E+02
CGA:   6    -0.309084252008E+03   -0.11971E+01   -0.17320E+01  9568   0.371E+02-0.221E+02
CGA:   7    -0.309545805882E+03   -0.46155E+00   -0.49642E+00  9568   0.191E+02-0.168E+01
CGA:   8    -0.310148746526E+03   -0.60294E+00   -0.59203E+00  9568   0.179E+02-0.105E+01
CGA:   9    -0.310811245691E+03   -0.66250E+00   -0.66056E+00  9568   0.114E+02 0.363E+00
CGA:  10    -0.311056723324E+03   -0.24548E+00   -0.26819E+00  9568   0.103E+02-0.831E-01
CGA:  11    -0.311248593961E+03   -0.19187E+00   -0.20232E+00  9568   0.368E+01-0.228E+00
CGA:  12    -0.311379239370E+03   -0.13065E+00   -0.13033E+00  9568   0.599E+01 0.127E+00
CGA:  13    -0.311545802841E+03   -0.16656E+00   -0.16287E+00  9568   0.395E+01-0.710E-01
CGA:  14    -0.311653808876E+03   -0.10801E+00   -0.10911E+00  9568   0.210E+01 0.470E-01
CGA:  15    -0.311705076980E+03   -0.51268E-01   -0.52012E-01  9568   0.137E+01 0.834E-02
CGA:  16    -0.311731346964E+03   -0.26270E-01   -0.26858E-01  9568   0.558E+00-0.937E-02
CGA:  17    -0.311757023360E+03   -0.25676E-01   -0.25645E-01  9568   0.822E+00 0.189E-02
CGA:  18    -0.311774613600E+03   -0.17590E-01   -0.17734E-01  9568   0.415E+00-0.105E-02
CGA:  19    -0.311786449537E+03   -0.11836E-01   -0.11867E-01  9568   0.215E+00 0.249E-02
CGA:  20    -0.311792049215E+03   -0.55997E-02   -0.56273E-02  9568   0.186E+00 0.103E-02
CGA:  21    -0.311797651484E+03   -0.56023E-02   -0.56047E-02  9568   0.152E+00 0.434E-03
CGA:  22    -0.311803978308E+03   -0.63268E-02   -0.63144E-02  9568   0.208E+00 0.101E-02
CGA:  23    -0.311808990879E+03   -0.50126E-02   -0.50237E-02  9568   0.957E-01 0.219E-03
CGA:  24    -0.311811860109E+03   -0.28692E-02   -0.28690E-02  9568   0.904E-01-0.428E-04
CGA:  25    -0.311814931526E+03   -0.30714E-02   -0.30712E-02  9568   0.892E-01 0.888E-04
CGA:  26    -0.311817839040E+03   -0.29075E-02   -0.29073E-02  9568   0.827E-01 0.415E-03
CGA:  27    -0.311820156621E+03   -0.23176E-02   -0.23207E-02  9568   0.534E-01 0.273E-03
CGA:  28    -0.311821685230E+03   -0.15286E-02   -0.15292E-02  9568   0.335E-01 0.633E-04
CGA:  29    -0.311822521702E+03   -0.83647E-03   -0.83664E-03  9568   0.260E-01 0.236E-04
CGA:  30    -0.311823766501E+03   -0.12448E-02   -0.12426E-02  9568   0.306E-01 0.120E-03
CGA:  31    -0.311824447899E+03   -0.68140E-03   -0.68159E-03  9568   0.160E-01 0.227E-04
CGA:  32    -0.311824933755E+03   -0.48586E-03   -0.48587E-03  9568   0.994E-02 0.433E-05
CGA:  33    -0.311825230214E+03   -0.29646E-03   -0.29654E-03  9568   0.947E-02 0.254E-04
CGA:  34    -0.311825503470E+03   -0.27326E-03   -0.27337E-03  9568   0.634E-02 0.153E-04
CGA:  35    -0.311825769904E+03   -0.26643E-03   -0.26627E-03  9568   0.792E-02 0.140E-04
SDA:  36    -0.311825942646E+03   -0.17274E-03   -0.17275E-03  9568   0.319E-02 0.116E-05
CGA:  37    -0.311825984843E+03   -0.42197E-04   -0.42337E-04  9568   0.122E-02-0.128E-05
CGA:  38    -0.311826035118E+03   -0.50274E-04   -0.50219E-04  9568   0.179E-02 0.258E-05
CGA:  39    -0.311826205950E+03   -0.17083E-03   -0.16992E-03  9568   0.311E-02 0.130E-04
CGA:  40    -0.311826394800E+03   -0.18885E-03   -0.18901E-03  9568   0.135E-02-0.550E-05
CGA:  41    -0.311826428853E+03   -0.34053E-04   -0.34023E-04  9568   0.104E-02-0.228E-05
CGA:  42    -0.311826480503E+03   -0.51651E-04   -0.51773E-04  9568   0.205E-02-0.860E-05
CGA:  43    -0.311826519597E+03   -0.39093E-04   -0.39166E-04  9568   0.605E-03-0.554E-05
CGA:  44    -0.311826592492E+03   -0.72896E-04   -0.73365E-04  9568   0.635E-03-0.495E-05
CGA:  45    -0.311826646877E+03   -0.54385E-04   -0.54545E-04  9568   0.639E-03-0.384E-05
CGA:  46    -0.311826656557E+03   -0.96793E-05   -0.96360E-05  9568   0.289E-03-0.207E-05
CGA:  47    -0.311826672310E+03   -0.15753E-04   -0.15734E-04  9568   0.616E-03 0.104E-05
CGA:  48    -0.311826694939E+03   -0.22630E-04   -0.22650E-04  9568   0.207E-03 0.335E-05
CGA:  49    -0.311826709269E+03   -0.14330E-04   -0.14336E-04  9568   0.262E-03-0.482E-06
CGA:  50    -0.311826719329E+03   -0.10060E-04   -0.10058E-04  9568   0.227E-03-0.119E-05
CGA:  51    -0.311826725457E+03   -0.61279E-05   -0.61266E-05  9568   0.282E-03-0.632E-06
   7 F= -.31182673E+03 E0= -.31180398E+03  d E =-.156110E+00  mag=    25.8587
       N       E                     dE             d eps       ncg     rms          ort
SDA:   1    -0.277278666356E+03    0.34548E+02    0.00000E+00  9568   0.317E+03 0.000E+00
CGA:   2    -0.280494040661E+03   -0.32154E+01   -0.60324E+01  9568   0.296E+03-0.106E+03
CGA:   3    -0.288647391523E+03   -0.81534E+01   -0.95287E+01  9568   0.465E+03-0.623E+02
CGA:   4    -0.301051678500E+03   -0.12404E+02   -0.13013E+02  9568   0.156E+03 0.513E+02
CGA:   5    -0.303335978931E+03   -0.22843E+01   -0.33087E+01  9568   0.148E+03-0.445E+02
CGA:   6    -0.304550782773E+03   -0.12148E+01   -0.18896E+01  9568   0.131E+03-0.247E+02
CGA:   7    -0.307318833628E+03   -0.27681E+01   -0.24355E+01  9568   0.108E+03 0.201E+00
CGA:   8    -0.308849479417E+03   -0.15306E+01   -0.16399E+01  9568   0.530E+02-0.203E+02
CGA:   9    -0.309606117913E+03   -0.75664E+00   -0.86422E+00  9568   0.850E+02-0.239E+01
CGA:  10    -0.310400864691E+03   -0.79475E+00   -0.10567E+01  9568   0.219E+02-0.191E+02
CGA:  11    -0.311029081198E+03   -0.62822E+00   -0.66942E+00  9568   0.171E+02-0.492E+01
CGA:  12    -0.311176036401E+03   -0.14696E+00   -0.14988E+00  9568   0.772E+01-0.361E+00
CGA:  13    -0.311368964609E+03   -0.19293E+00   -0.19436E+00  9568   0.449E+01 0.223E-01
CGA:  14    -0.311451729137E+03   -0.82765E-01   -0.78725E-01  9568   0.510E+01 0.927E-01
CGA:  15    -0.311565155190E+03   -0.11343E+00   -0.11188E+00  9568   0.401E+01-0.194E-01
CGA:  16    -0.311668066472E+03   -0.10291E+00   -0.10497E+00  9568   0.421E+01 0.110E+00
CGA:  17    -0.311714332239E+03   -0.46266E-01   -0.48401E-01  9568   0.206E+01-0.149E+00
CGA:  18    -0.311766852299E+03   -0.52520E-01   -0.52224E-01  9568   0.120E+01-0.247E-01
CGA:  19    -0.311781118106E+03   -0.14266E-01   -0.14389E-01  9568   0.944E+00-0.836E-02
CGA:  20    -0.311811305231E+03   -0.30187E-01   -0.30491E-01  9568   0.824E+00-0.543E-01
CGA:  21    -0.311847151854E+03   -0.35847E-01   -0.37916E-01  9568   0.199E+01-0.110E+00
CGA:  22    -0.311873306958E+03   -0.26155E-01   -0.27116E-01  9568   0.106E+01 0.652E-01
CGA:  23    -0.311891876043E+03   -0.18569E-01   -0.17888E-01  9568   0.309E+00 0.275E-01
CGA:  24    -0.311898013191E+03   -0.61371E-02   -0.61534E-02  9568   0.348E+00 0.369E-03
CGA:  25    -0.311910386874E+03   -0.12374E-01   -0.11738E-01  9568   0.262E+00 0.765E-01
CGA:  26    -0.311920225671E+03   -0.98388E-02   -0.99193E-02  9568   0.277E+00-0.199E-01
CGA:  27    -0.311927891458E+03   -0.76658E-02   -0.76835E-02  9568   0.286E+00-0.812E-02
CGA:  28    -0.311933384127E+03   -0.54927E-02   -0.57319E-02  9568   0.183E+00 0.410E-02
CGA:  29    -0.311938674293E+03   -0.52902E-02   -0.52898E-02  9568   0.140E+00 0.420E-02
CGA:  30    -0.311942225715E+03   -0.35514E-02   -0.35449E-02  9568   0.598E-01-0.628E-03
CGA:  31    -0.311943808202E+03   -0.15825E-02   -0.15823E-02  9568   0.660E-01-0.397E-04
SDA:  32    -0.311946765492E+03   -0.29573E-02   -0.29544E-02  9568   0.909E-01 0.138E-03
CGA:  33    -0.311947871674E+03   -0.11062E-02   -0.11291E-02  9568   0.226E-01-0.114E-02
CGA:  34    -0.311948342550E+03   -0.47088E-03   -0.47072E-03  9568   0.210E-01-0.233E-04
CGA:  35    -0.311949435732E+03   -0.10932E-02   -0.10799E-02  9568   0.244E-01 0.525E-03
CGA:  36    -0.311951855304E+03   -0.24196E-02   -0.24171E-02  9568   0.164E-01 0.435E-04
CGA:  37    -0.311952186666E+03   -0.33136E-03   -0.33218E-03  9568   0.126E-01-0.136E-04
CGA:  38    -0.311952521664E+03   -0.33500E-03   -0.33466E-03  9568   0.139E-01-0.227E-04
CGA:  39    -0.311953082666E+03   -0.56100E-03   -0.55817E-03  9568   0.739E-02 0.234E-03
CGA:  40    -0.311953546390E+03   -0.46372E-03   -0.46345E-03  9568   0.136E-01 0.947E-05
CGA:  41    -0.311954033295E+03   -0.48691E-03   -0.48671E-03  9568   0.951E-02 0.552E-04
CGA:  42    -0.311954277735E+03   -0.24444E-03   -0.24455E-03  9568   0.143E-01-0.150E-05
CGA:  43    -0.311954786705E+03   -0.50897E-03   -0.50841E-03  9568   0.267E-02 0.126E-03
CGA:  44    -0.311955029715E+03   -0.24301E-03   -0.24210E-03  9568   0.621E-02 0.173E-04
CGA:  45    -0.311955211775E+03   -0.18206E-03   -0.18177E-03  9568   0.288E-02-0.192E-04
CGA:  46    -0.311955327804E+03   -0.11603E-03   -0.11603E-03  9568   0.642E-02-0.359E-06
CGA:  47    -0.311955478441E+03   -0.15064E-03   -0.15171E-03  9568   0.245E-02-0.417E-05
CGA:  48    -0.311955607710E+03   -0.12927E-03   -0.12881E-03  9568   0.267E-02 0.222E-04
CGA:  49    -0.311955711557E+03   -0.10385E-03   -0.10389E-03  9568   0.134E-02-0.702E-05
CGA:  50    -0.311955802914E+03   -0.91357E-04   -0.90518E-04  9568   0.356E-02 0.255E-04
CGA:  51    -0.311955878493E+03   -0.75579E-04   -0.75117E-04  9568   0.178E-02 0.175E-04
CGA:  52    -0.311955919390E+03   -0.40897E-04   -0.41109E-04  9568   0.950E-03-0.140E-05
CGA:  53    -0.311955967349E+03   -0.47959E-04   -0.48041E-04  9568   0.454E-03-0.562E-05
CGA:  54    -0.311956007012E+03   -0.39663E-04   -0.39651E-04  9568   0.984E-03-0.251E-06
CGA:  55    -0.311956032822E+03   -0.25810E-04   -0.25854E-04  9568   0.246E-03-0.186E-05
CGA:  56    -0.311956039596E+03   -0.67737E-05   -0.67932E-05  9568   0.409E-03 0.161E-05
CGA:  57    -0.311956059052E+03   -0.19456E-04   -0.19382E-04  9568   0.297E-03 0.696E-05
CGA:  58    -0.311956072374E+03   -0.13322E-04   -0.13301E-04  9568   0.295E-03 0.387E-05
CGA:  59    -0.311956083603E+03   -0.11229E-04   -0.11237E-04  9568   0.113E-03 0.409E-05
CGA:  60    -0.311956087141E+03   -0.35382E-05   -0.35413E-05  9568   0.198E-03 0.155E-06
   8 F= -.31195609E+03 E0= -.31193283E+03  d E =-.129362E+00  mag=    25.8696
       N       E                     dE             d eps       ncg     rms          ort
SDA:   1    -0.128908713184E+03    0.18305E+03    0.00000E+00  9568   0.146E+04 0.000E+00
CGA:   2     0.142615609104E+04    0.15551E+04   -0.43852E+03  9568   0.976E+05-0.120E+05
CGA:   3     0.129557076317E+03   -0.12966E+04   -0.35202E+04  9568   0.392E+04 0.204E+04
CGA:   4    -0.963071378652E+02   -0.22586E+03   -0.15031E+03  9568   0.183E+04 0.180E+04
CGA:   5    -0.180235322769E+03   -0.83928E+02   -0.11673E+03  9568   0.663E+03 0.217E+03
CGA:   6    -0.198519850859E+03   -0.18285E+02   -0.19361E+02  9568   0.270E+04-0.324E+03
CGA:   7    -0.195250893473E+03    0.32690E+01   -0.14730E+02  9568   0.852E+03 0.923E+03
CGA:   8    -0.257793680500E+03   -0.62543E+02   -0.61804E+02  9568   0.310E+03-0.156E+02
CGA:   9    -0.265882634777E+03   -0.80890E+01   -0.11501E+02  9568   0.248E+03 0.129E+02
CGA:  10    -0.275084540853E+03   -0.92019E+01   -0.92148E+01  9568   0.299E+03-0.585E+02
CGA:  11    -0.277028116831E+03   -0.19436E+01   -0.57499E+01  9568   0.576E+03-0.876E+02
CGA:  12    -0.287757398414E+03   -0.10729E+02   -0.95384E+01  9568   0.344E+03 0.446E+02
CGA:  13    -0.293950297946E+03   -0.61929E+01   -0.84070E+01  9568   0.246E+03-0.156E+03
CGA:  14    -0.295303145120E+03   -0.13528E+01   -0.17837E+01  9568   0.128E+03-0.176E+02
CGA:  15    -0.297758790415E+03   -0.24556E+01   -0.27020E+01  9568   0.147E+03-0.172E+02
CGA:  16    -0.296999279236E+03    0.75951E+00   -0.24738E+01  9568   0.331E+03-0.102E+03
CGA:  17    -0.300672634375E+03   -0.36734E+01   -0.65432E+01  9568   0.212E+03-0.204E+03
CGA:  18    -0.302823346456E+03   -0.21507E+01   -0.38644E+01  9568   0.111E+03-0.110E+03
CGA:  19    -0.304472973396E+03   -0.16496E+01   -0.14206E+01  9568   0.234E+02-0.873E+01
CGA:  20    -0.307251030476E+03   -0.27781E+01   -0.27768E+01  9568   0.727E+02 0.251E+00
CGA:  21    -0.308814776212E+03   -0.15637E+01   -0.11604E+01  9568   0.143E+02 0.165E+02
CGA:  22    -0.309100776534E+03   -0.28600E+00   -0.39663E+00  9568   0.191E+02-0.292E+01
CGA:  23    -0.309573145044E+03   -0.47237E+00   -0.42804E+00  9568   0.303E+02 0.167E+00
CGA:  24    -0.310041367968E+03   -0.46822E+00   -0.31698E+00  9568   0.154E+02 0.122E+02
CGA:  25    -0.310273947656E+03   -0.23258E+00   -0.26982E+00  9568   0.183E+02-0.290E+01
CGA:  26    -0.310477969652E+03   -0.20402E+00   -0.23175E+00  9568   0.147E+02-0.866E+00
CGA:  27    -0.310612661003E+03   -0.13469E+00   -0.15394E+00  9568   0.103E+02-0.157E+01
CGA:  28    -0.310771185090E+03   -0.15852E+00   -0.13979E+00  9568   0.145E+02 0.869E+00
CGA:  29    -0.310880062323E+03   -0.10888E+00   -0.67823E-01  9568   0.892E+01 0.893E+01
CGA:  30    -0.310966707451E+03   -0.86645E-01   -0.98515E-01  9568   0.266E+01-0.910E+00
CGA:  31    -0.311039408128E+03   -0.72701E-01   -0.72880E-01  9568   0.369E+01 0.139E-01
CGA:  32    -0.311180217208E+03   -0.14081E+00   -0.13941E+00  9568   0.212E+01 0.263E+00
CGA:  33    -0.311288383075E+03   -0.10817E+00   -0.11130E+00  9568   0.325E+01-0.179E+00
CGA:  34    -0.311375126346E+03   -0.86743E-01   -0.88048E-01  9568   0.131E+01 0.690E-01
CGA:  35    -0.311420598556E+03   -0.45472E-01   -0.45493E-01  9568   0.328E+01 0.792E-02
CGA:  36    -0.311513367562E+03   -0.92769E-01   -0.92901E-01  9568   0.218E+01 0.189E-01
CGA:  37    -0.311577462503E+03   -0.64095E-01   -0.65313E-01  9568   0.182E+01 0.803E-01
CGA:  38    -0.311602648669E+03   -0.25186E-01   -0.23986E-01  9568   0.829E+00 0.654E-01
CGA:  39    -0.311635490987E+03   -0.32842E-01   -0.33530E-01  9568   0.112E+01-0.803E-01
CGA:  40    -0.311655531657E+03   -0.20041E-01   -0.21374E-01  9568   0.126E+01-0.866E-02
CGA:  41    -0.311692149111E+03   -0.36617E-01   -0.36707E-01  9568   0.914E+00 0.958E-02
CGA:  42    -0.311722566679E+03   -0.30418E-01   -0.30433E-01  9568   0.334E+00-0.407E-01
CGA:  43    -0.311731122384E+03   -0.85557E-02   -0.86189E-02  9568   0.247E+00 0.262E-02
CGA:  44    -0.311737106313E+03   -0.59839E-02   -0.59273E-02  9568   0.247E+00-0.100E-02
CGA:  45    -0.311748368025E+03   -0.11262E-01   -0.11038E-01  9568   0.175E+00 0.131E-01
CGA:  46    -0.311759030126E+03   -0.10662E-01   -0.10700E-01  9568   0.161E+00-0.218E-02
CGA:  47    -0.311767035452E+03   -0.80053E-02   -0.81531E-02  9568   0.333E+00-0.797E-02
CGA:  48    -0.311773869453E+03   -0.68340E-02   -0.71435E-02  9568   0.143E+00 0.161E-02
CGA:  49    -0.311781576735E+03   -0.77073E-02   -0.76066E-02  9568   0.945E-01 0.298E-02
CGA:  50    -0.311785903274E+03   -0.43265E-02   -0.43715E-02  9568   0.248E+00-0.330E-02
CGA:  51    -0.311792634745E+03   -0.67315E-02   -0.68748E-02  9568   0.164E+00 0.639E-02
CGA:  52    -0.311799039996E+03   -0.64053E-02   -0.63680E-02  9568   0.178E+00 0.855E-02
CGA:  53    -0.311802028219E+03   -0.29882E-02   -0.28824E-02  9568   0.639E-01 0.433E-02
CGA:  54    -0.311804553804E+03   -0.25256E-02   -0.25198E-02  9568   0.608E-01 0.896E-03
CGA:  55    -0.311807361426E+03   -0.28076E-02   -0.27547E-02  9568   0.120E+00 0.381E-02
CGA:  56    -0.311810531960E+03   -0.31705E-02   -0.30500E-02  9568   0.675E-01-0.551E-04
CGA:  57    -0.311812516383E+03   -0.19844E-02   -0.19773E-02  9568   0.383E-01-0.386E-03
CGA:  58    -0.311814932428E+03   -0.24160E-02   -0.23589E-02  9568   0.589E-01 0.185E-02
CGA:  59    -0.311816373699E+03   -0.14413E-02   -0.14199E-02  9568   0.633E-01 0.967E-04
SDA:  60    -0.311819094539E+03   -0.27208E-02   -0.27443E-02  9568   0.297E-01-0.217E-02
CGA:  61    -0.311819924727E+03   -0.83019E-03   -0.82896E-03  9568   0.397E-01-0.386E-04
CGA:  62    -0.311821300506E+03   -0.13758E-02   -0.13752E-02  9568   0.342E-01-0.571E-03
CGA:  63    -0.311822648004E+03   -0.13475E-02   -0.13469E-02  9568   0.332E-01 0.670E-04
CGA:  64    -0.311824560253E+03   -0.19122E-02   -0.19141E-02  9568   0.438E-01-0.813E-04
CGA:  65    -0.311825960558E+03   -0.14003E-02   -0.13984E-02  9568   0.528E-01-0.182E-03
CGA:  66    -0.311827196141E+03   -0.12356E-02   -0.12472E-02  9568   0.281E-01-0.486E-04
CGA:  67    -0.311828790996E+03   -0.15949E-02   -0.16400E-02  9568   0.114E-01-0.182E-02
CGA:  68    -0.311829739280E+03   -0.94828E-03   -0.96259E-03  9568   0.405E-01-0.298E-03
CGA:  69    -0.311830455333E+03   -0.71605E-03   -0.74628E-03  9568   0.112E-01-0.861E-03
CGA:  70    -0.311830940269E+03   -0.48494E-03   -0.49053E-03  9568   0.132E-01-0.571E-03
CGA:  71    -0.311831452617E+03   -0.51235E-03   -0.51092E-03  9568   0.914E-02 0.372E-03
CGA:  72    -0.311831688453E+03   -0.23584E-03   -0.23488E-03  9568   0.664E-02 0.152E-04
CGA:  73    -0.311831917362E+03   -0.22891E-03   -0.22965E-03  9568   0.807E-02 0.938E-04
CGA:  74    -0.311832203042E+03   -0.28568E-03   -0.28386E-03  9568   0.434E-02-0.211E-03
CGA:  75    -0.311832438782E+03   -0.23574E-03   -0.23000E-03  9568   0.981E-02 0.274E-03
CGA:  76    -0.311832709454E+03   -0.27067E-03   -0.24918E-03  9568   0.530E-02 0.254E-03
CGA:  77    -0.311832990031E+03   -0.28058E-03   -0.26909E-03  9568   0.789E-02 0.709E-03
CGA:  78    -0.311833292484E+03   -0.30245E-03   -0.27988E-03  9568   0.688E-02-0.812E-03
CGA:  79    -0.311833411650E+03   -0.11917E-03   -0.11476E-03  9568   0.451E-02 0.153E-03
CGA:  80    -0.311833529759E+03   -0.11811E-03   -0.11866E-03  9568   0.500E-02 0.128E-04
CGA:  81    -0.311833614563E+03   -0.84804E-04   -0.85298E-04  9568   0.284E-02-0.258E-04
CGA:  82    -0.311833684181E+03   -0.69617E-04   -0.69545E-04  9568   0.265E-02-0.298E-05
CGA:  83    -0.311833737677E+03   -0.53497E-04   -0.53225E-04  9568   0.254E-02 0.656E-05
CGA:  84    -0.311833795083E+03   -0.57405E-04   -0.56832E-04  9568   0.196E-02 0.172E-05
CGA:  85    -0.311833840561E+03   -0.45479E-04   -0.45328E-04  9568   0.298E-02-0.321E-05
CGA:  86    -0.311833909690E+03   -0.69129E-04   -0.69420E-04  9568   0.176E-02-0.280E-06
CGA:  87    -0.311833936868E+03   -0.27178E-04   -0.27395E-04  9568   0.161E-02-0.804E-05
CGA:  88    -0.311833986224E+03   -0.49357E-04   -0.49301E-04  9568   0.156E-02-0.284E-04
CGA:  89    -0.311834008298E+03   -0.22074E-04   -0.21494E-04  9568   0.126E-02 0.165E-04
CGA:  90    -0.311834053641E+03   -0.45343E-04   -0.45456E-04  9568   0.250E-02-0.197E-04
SDA:  91    -0.311834089749E+03   -0.36108E-04   -0.37429E-04  9568   0.140E-02-0.541E-04
CGA:  92    -0.311834159965E+03   -0.70216E-04   -0.70272E-04  9568   0.210E-02-0.343E-05
CGA:  93    -0.311834261907E+03   -0.10194E-03   -0.10201E-03  9568   0.418E-02-0.379E-05
CGA:  94    -0.311834361689E+03   -0.99782E-04   -0.99937E-04  9568   0.281E-02 0.132E-06
CGA:  95    -0.311834597097E+03   -0.23541E-03   -0.23800E-03  9568   0.157E-02-0.581E-04
CGA:  96    -0.311834739303E+03   -0.14221E-03   -0.14052E-03  9568   0.180E-02 0.327E-04
CGA:  97    -0.311834780668E+03   -0.41365E-04   -0.41272E-04  9568   0.743E-03-0.109E-05
CGA:  98    -0.311834824938E+03   -0.44271E-04   -0.44316E-04  9568   0.639E-03-0.242E-05
CGA:  99    -0.311834839190E+03   -0.14252E-04   -0.14215E-04  9568   0.662E-03-0.166E-05
CGA: 100    -0.311834867095E+03   -0.27905E-04   -0.27849E-04  9568   0.288E-03 0.658E-05
CGA: 101    -0.311834876016E+03   -0.89204E-05   -0.89117E-05  9568   0.126E-03-0.731E-06
   9 F= -.31183488E+03 E0= -.31181117E+03  d E =0.121211E+00  mag=    25.8992
       N       E                     dE             d eps       ncg     rms          ort
SDA:   1    -0.247389382303E+03    0.64445E+02    0.00000E+00  9568   0.400E+03 0.000E+00
CGA:   2    -0.168681631899E+02    0.23052E+03   -0.74382E+02  9568   0.145E+05-0.255E+04
CGA:   3    -0.129396327229E+03   -0.11253E+03   -0.40251E+03  9568   0.388E+04 0.758E+03
CGA:   4    -0.266660821685E+03   -0.13726E+03   -0.14891E+03  9568   0.691E+03 0.326E+03
CGA:   5    -0.295711143211E+03   -0.29050E+02   -0.28963E+02  9568   0.317E+03-0.753E+01
CGA:   6    -0.303224405240E+03   -0.75133E+01   -0.87080E+01  9568   0.505E+02-0.185E+02
CGA:   7    -0.305198285668E+03   -0.19739E+01   -0.35460E+01  9568   0.269E+03-0.364E+02
CGA:   8    -0.306079742041E+03   -0.88146E+00   -0.57276E+01  9568   0.135E+03-0.119E+03
CGA:   9    -0.308421631547E+03   -0.23419E+01   -0.11436E+01  9568   0.485E+02 0.629E+02
CGA:  10    -0.308952542548E+03   -0.53091E+00   -0.40010E+00  9568   0.101E+02 0.163E+02
CGA:  11    -0.309091993329E+03   -0.13945E+00   -0.10502E+00  9568   0.115E+02 0.383E+01
CGA:  12    -0.309283035124E+03   -0.19104E+00   -0.15144E+00  9568   0.190E+02 0.330E+01
CGA:  13    -0.309431827608E+03   -0.14879E+00   -0.11645E+00  9568   0.219E+02 0.592E+01
CGA:  14    -0.309601350578E+03   -0.16952E+00   -0.21570E+00  9568   0.586E+02-0.640E+01
CGA:  15    -0.309636579642E+03   -0.35229E-01   -0.25308E+00  9568   0.163E+03-0.258E+02
CGA:  16    -0.309510961730E+03    0.12562E+00   -0.20603E+00  9568   0.171E+03 0.343E+02
CGA:  17    -0.309374473386E+03    0.13649E+00   -0.84403E+00  9568   0.147E+03-0.122E+03
CGA:  18    -0.310768704948E+03   -0.13942E+01   -0.15056E+01  9568   0.225E+02-0.216E+02
CGA:  19    -0.311166920428E+03   -0.39822E+00   -0.39013E+00  9568   0.937E+01-0.172E+00
CGA:  20    -0.311380121791E+03   -0.21320E+00   -0.21412E+00  9568   0.394E+01 0.198E-01
CGA:  21    -0.311499945406E+03   -0.11982E+00   -0.12026E+00  9568   0.580E+01-0.121E+00
CGA:  22    -0.311666075050E+03   -0.16613E+00   -0.16666E+00  9568   0.541E+01-0.249E+00
CGA:  23    -0.311779668012E+03   -0.11359E+00   -0.11479E+00  9568   0.188E+01 0.417E-01
CGA:  24    -0.311846017546E+03   -0.66350E-01   -0.65865E-01  9568   0.184E+01 0.515E-01
CGA:  25    -0.311870899429E+03   -0.24882E-01   -0.24500E-01  9568   0.596E+00 0.155E-01
CGA:  26    -0.311923141028E+03   -0.52242E-01   -0.52690E-01  9568   0.169E+01-0.769E-02
CGA:  27    -0.311959079213E+03   -0.35938E-01   -0.35343E-01  9568   0.595E+00-0.391E-03
CGA:  28    -0.311968239056E+03   -0.91598E-02   -0.91675E-02  9568   0.299E+00-0.556E-03
CGA:  29    -0.311982207700E+03   -0.13969E-01   -0.14190E-01  9568   0.517E+00-0.109E-01
CGA:  30    -0.312002821994E+03   -0.20614E-01   -0.20308E-01  9568   0.363E+00 0.224E-01
CGA:  31    -0.312009687903E+03   -0.68659E-02   -0.69351E-02  9568   0.331E+00-0.973E-03
CGA:  32    -0.312021769174E+03   -0.12081E-01   -0.12259E-01  9568   0.168E+00-0.183E-01
CGA:  33    -0.312025584728E+03   -0.38156E-02   -0.37840E-02  9568   0.129E+00-0.101E-02
CGA:  34    -0.312033803281E+03   -0.82186E-02   -0.80864E-02  9568   0.106E+00 0.396E-02
CGA:  35    -0.312035654259E+03   -0.18510E-02   -0.18571E-02  9568   0.689E-01-0.173E-03
CGA:  36    -0.312039220979E+03   -0.35667E-02   -0.35308E-02  9568   0.162E+00 0.157E-02
CGA:  37    -0.312043108340E+03   -0.38874E-02   -0.38656E-02  9568   0.397E-01-0.257E-03
CGA:  38    -0.312045231032E+03   -0.21227E-02   -0.21101E-02  9568   0.494E-01 0.524E-03
CGA:  39    -0.312046066041E+03   -0.83501E-03   -0.84184E-03  9568   0.208E-01-0.180E-03
CGA:  40    -0.312046862123E+03   -0.79608E-03   -0.79387E-03  9568   0.371E-01 0.238E-03
CGA:  41    -0.312048059833E+03   -0.11977E-02   -0.11976E-02  9568   0.139E-01-0.118E-03
CGA:  42    -0.312048755084E+03   -0.69525E-03   -0.69295E-03  9568   0.285E-01 0.107E-03
CGA:  43    -0.312049253934E+03   -0.49885E-03   -0.49979E-03  9568   0.665E-02-0.263E-04
CGA:  44    -0.312049534542E+03   -0.28061E-03   -0.28023E-03  9568   0.856E-02 0.269E-04
CGA:  45    -0.312049782469E+03   -0.24793E-03   -0.24790E-03  9568   0.604E-02-0.998E-05
CGA:  46    -0.312049964763E+03   -0.18229E-03   -0.18232E-03  9568   0.771E-02 0.282E-05
CGA:  47    -0.312050196168E+03   -0.23140E-03   -0.23133E-03  9568   0.424E-02-0.150E-04
SDA:  48    -0.312050347405E+03   -0.15124E-03   -0.15106E-03  9568   0.377E-02 0.335E-04
CGA:  49    -0.312050417582E+03   -0.70178E-04   -0.70036E-04  9568   0.263E-02 0.683E-06
CGA:  50    -0.312050486830E+03   -0.69248E-04   -0.69293E-04  9568   0.220E-02 0.705E-05
CGA:  51    -0.312050597236E+03   -0.11041E-03   -0.11009E-03  9568   0.179E-02 0.151E-04
CGA:  52    -0.312050717730E+03   -0.12049E-03   -0.11998E-03  9568   0.138E-02 0.135E-04
CGA:  53    -0.312050799915E+03   -0.82185E-04   -0.82032E-04  9568   0.503E-02 0.444E-05
CGA:  54    -0.312050918758E+03   -0.11884E-03   -0.11909E-03  9568   0.141E-02-0.141E-05
CGA:  55    -0.312050994345E+03   -0.75586E-04   -0.75470E-04  9568   0.234E-02 0.369E-05
CGA:  56    -0.312051067844E+03   -0.73499E-04   -0.73449E-04  9568   0.872E-03-0.578E-05
CGA:  57    -0.312051129012E+03   -0.61168E-04   -0.61320E-04  9568   0.140E-02-0.486E-05
CGA:  58    -0.312051151754E+03   -0.22742E-04   -0.22794E-04  9568   0.859E-03 0.429E-06
CGA:  59    -0.312051220257E+03   -0.68504E-04   -0.67860E-04  9568   0.121E-02 0.143E-04
CGA:  60    -0.312051255055E+03   -0.34798E-04   -0.34698E-04  9568   0.383E-03 0.452E-07
CGA:  61    -0.312051270272E+03   -0.15217E-04   -0.15214E-04  9568   0.922E-03 0.102E-05
CGA:  62    -0.312051298127E+03   -0.27855E-04   -0.27887E-04  9568   0.388E-03 0.430E-06
CGA:  63    -0.312051308161E+03   -0.10033E-04   -0.10032E-04  9568   0.304E-03-0.115E-05
CGA:  64    -0.312051331961E+03   -0.23800E-04   -0.23884E-04  9568   0.327E-03-0.305E-05
CGA:  65    -0.312051338302E+03   -0.63416E-05   -0.63482E-05  9568   0.290E-03-0.185E-05
  10 F= -.31205134E+03 E0= -.31202735E+03  d E =-.216462E+00  mag=    25.8737
       N       E                     dE             d eps       ncg     rms          ort
SDA:   1    -0.311669963831E+03    0.38137E+00    0.00000E+00  9568   0.614E+01 0.000E+00
CGA:   2    -0.311739792965E+03   -0.69829E-01   -0.67880E-01  9568   0.143E+01 0.914E-01
CGA:   3    -0.311834845803E+03   -0.95053E-01   -0.96733E-01  9568   0.340E+01-0.519E-01
CGA:   4    -0.311933567470E+03   -0.98722E-01   -0.99624E-01  9568   0.130E+01 0.288E-01
CGA:   5    -0.311970097839E+03   -0.36530E-01   -0.37609E-01  9568   0.799E+00 0.230E-01
CGA:   6    -0.311994034427E+03   -0.23937E-01   -0.23774E-01  9568   0.916E+00-0.461E-02
CGA:   7    -0.312015593870E+03   -0.21559E-01   -0.21656E-01  9568   0.641E+00-0.499E-03
CGA:   8    -0.312045723462E+03   -0.30130E-01   -0.30182E-01  9568   0.292E+00-0.362E-02
CGA:   9    -0.312051176449E+03   -0.54530E-02   -0.52908E-02  9568   0.169E+00 0.448E-02
CGA:  10    -0.312056202558E+03   -0.50261E-02   -0.50497E-02  9568   0.153E+00 0.107E-02
CGA:  11    -0.312059920403E+03   -0.37178E-02   -0.37363E-02  9568   0.777E-01 0.670E-04
CGA:  12    -0.312064391741E+03   -0.44713E-02   -0.44695E-02  9568   0.612E-01 0.733E-04
CGA:  13    -0.312065291091E+03   -0.89935E-03   -0.89707E-03  9568   0.244E-01 0.116E-03
CGA:  14    -0.312066014997E+03   -0.72391E-03   -0.72373E-03  9568   0.164E-01-0.105E-04
CGA:  15    -0.312066784513E+03   -0.76952E-03   -0.76900E-03  9568   0.125E-01 0.350E-04
CGA:  16    -0.312067228308E+03   -0.44379E-03   -0.44379E-03  9568   0.226E-01 0.993E-05
CGA:  17    -0.312067789473E+03   -0.56117E-03   -0.56041E-03  9568   0.607E-02 0.900E-06
CGA:  18    -0.312067909987E+03   -0.12051E-03   -0.12118E-03  9568   0.301E-02-0.180E-05
CGA:  19    -0.312068188255E+03   -0.27827E-03   -0.27731E-03  9568   0.551E-02 0.180E-04
CGA:  20    -0.312068296667E+03   -0.10841E-03   -0.10833E-03  9568   0.433E-02 0.378E-06
CGA:  21    -0.312068447435E+03   -0.15077E-03   -0.15078E-03  9568   0.299E-02 0.927E-05
CGA:  22    -0.312068555944E+03   -0.10851E-03   -0.10851E-03  9568   0.143E-02 0.106E-05
CGA:  23    -0.312068621018E+03   -0.65074E-04   -0.65138E-04  9568   0.336E-02-0.585E-05
CGA:  24    -0.312068693149E+03   -0.72131E-04   -0.72252E-04  9568   0.114E-02-0.535E-06
CGA:  25    -0.312068762057E+03   -0.68908E-04   -0.68915E-04  9568   0.197E-02-0.245E-06
CGA:  26    -0.312068818189E+03   -0.56132E-04   -0.56055E-04  9568   0.121E-02-0.414E-05
CGA:  27    -0.312068849464E+03   -0.31275E-04   -0.31313E-04  9568   0.118E-02 0.301E-05
CGA:  28    -0.312068876814E+03   -0.27350E-04   -0.27380E-04  9568   0.450E-03 0.228E-05
CGA:  29    -0.312068898587E+03   -0.21773E-04   -0.21734E-04  9568   0.562E-03 0.309E-05
CGA:  30    -0.312068925729E+03   -0.27141E-04   -0.27075E-04  9568   0.767E-03 0.556E-05
CGA:  31    -0.312068938057E+03   -0.12328E-04   -0.12330E-04  9568   0.300E-03 0.905E-06
SDA:  32    -0.312068954096E+03   -0.16039E-04   -0.16023E-04  9568   0.115E-03 0.867E-06
CGA:  33    -0.312068958022E+03   -0.39262E-05   -0.39252E-05  9568   0.120E-03-0.386E-06
  11 F= -.31206896E+03 E0= -.31204506E+03  d E =-.176197E-01  mag=    25.8772
       N       E                     dE             d eps       ncg     rms          ort
SDA:   1    -0.311155012990E+03    0.91394E+00    0.00000E+00  9568   0.390E+01 0.000E+00
CGA:   2    -0.311313775521E+03   -0.15876E+00   -0.15942E+00  9568   0.550E+01-0.785E-01
CGA:   3    -0.311672498333E+03   -0.35872E+00   -0.35868E+00  9568   0.936E+01 0.117E-02
CGA:   4    -0.311808906542E+03   -0.13641E+00   -0.14783E+00  9568   0.278E+01-0.464E+00
CGA:   5    -0.311882067786E+03   -0.73161E-01   -0.71515E-01  9568   0.230E+01-0.259E-01
CGA:   6    -0.311956178054E+03   -0.74110E-01   -0.74275E-01  9568   0.111E+01 0.186E-01
CGA:   7    -0.312019265204E+03   -0.63087E-01   -0.64283E-01  9568   0.185E+01-0.496E-01
CGA:   8    -0.312045429028E+03   -0.26164E-01   -0.25989E-01  9568   0.333E+00 0.601E-02
CGA:   9    -0.312058360188E+03   -0.12931E-01   -0.12909E-01  9568   0.265E+00 0.487E-02
CGA:  10    -0.312065733654E+03   -0.73735E-02   -0.74151E-02  9568   0.166E+00 0.918E-03
CGA:  11    -0.312074230775E+03   -0.84971E-02   -0.85046E-02  9568   0.188E+00-0.384E-03
CGA:  12    -0.312077119755E+03   -0.28890E-02   -0.28506E-02  9568   0.570E-01 0.160E-02
CGA:  13    -0.312078576751E+03   -0.14570E-02   -0.14602E-02  9568   0.293E-01 0.521E-04
CGA:  14    -0.312080186642E+03   -0.16099E-02   -0.16006E-02  9568   0.225E-01 0.410E-03
CGA:  15    -0.312081059197E+03   -0.87255E-03   -0.87269E-03  9568   0.499E-01-0.314E-04
CGA:  16    -0.312082252927E+03   -0.11937E-02   -0.11959E-02  9568   0.492E-02 0.269E-04
CGA:  17    -0.312082524511E+03   -0.27158E-03   -0.27066E-03  9568   0.107E-01 0.417E-04
CGA:  18    -0.312082781370E+03   -0.25686E-03   -0.25656E-03  9568   0.911E-02 0.148E-05
CGA:  19    -0.312083064739E+03   -0.28337E-03   -0.28336E-03  9568   0.634E-02 0.427E-05
CGA:  20    -0.312083343229E+03   -0.27849E-03   -0.27829E-03  9568   0.382E-02 0.199E-04
CGA:  21    -0.312083417208E+03   -0.73979E-04   -0.73731E-04  9568   0.240E-02 0.198E-05
CGA:  22    -0.312083508998E+03   -0.91790E-04   -0.91759E-04  9568   0.441E-02 0.684E-05
CGA:  23    -0.312083671226E+03   -0.16223E-03   -0.16221E-03  9568   0.226E-02 0.605E-05
CGA:  24    -0.312083797977E+03   -0.12675E-03   -0.12696E-03  9568   0.272E-02-0.880E-05
CGA:  25    -0.312083840726E+03   -0.42749E-04   -0.42835E-04  9568   0.142E-02 0.401E-05
CGA:  26    -0.312083917142E+03   -0.76417E-04   -0.76307E-04  9568   0.123E-02 0.624E-05
CGA:  27    -0.312083961691E+03   -0.44549E-04   -0.44550E-04  9568   0.110E-02 0.558E-05
CGA:  28    -0.312083993789E+03   -0.32098E-04   -0.32156E-04  9568   0.158E-02 0.733E-05
CGA:  29    -0.312084039657E+03   -0.45867E-04   -0.45882E-04  9568   0.516E-03 0.545E-05
CGA:  30    -0.312084065231E+03   -0.25574E-04   -0.25581E-04  9568   0.788E-03-0.210E-06
CGA:  31    -0.312084085302E+03   -0.20071E-04   -0.20110E-04  9568   0.344E-03 0.235E-05
SDA:  32    -0.312084092531E+03   -0.72287E-05   -0.72216E-05  9568   0.333E-03-0.590E-06
  12 F= -.31208409E+03 E0= -.31206013E+03  d E =-.151345E-01  mag=    25.8778
       N       E                     dE             d eps       ncg     rms          ort
SDA:   1    -0.294707791399E+03    0.17376E+02    0.00000E+00  9568   0.602E+03 0.000E+00
CGA:   2    -0.304346780996E+03   -0.96390E+01   -0.12095E+02  9568   0.716E+02-0.104E+03
CGA:   3    -0.306687737084E+03   -0.23410E+01   -0.77769E+00  9568   0.733E+02 0.107E+03
CGA:   4    -0.307654209076E+03   -0.96647E+00   -0.75528E+00  9568   0.146E+02 0.711E+01
CGA:   5    -0.308280077666E+03   -0.62587E+00   -0.62553E+00  9568   0.406E+02 0.164E+00
CGA:   6    -0.309226728675E+03   -0.94665E+00   -0.93180E+00  9568   0.602E+02-0.251E+00
CGA:   7    -0.310808186469E+03   -0.15815E+01   -0.15387E+01  9568   0.258E+02-0.265E+01
CGA:   8    -0.311020489792E+03   -0.21230E+00   -0.23697E+00  9568   0.743E+01-0.223E+01
CGA:   9    -0.311302775433E+03   -0.28229E+00   -0.29195E+00  9568   0.167E+02-0.627E+00
CGA:  10    -0.311504773152E+03   -0.20200E+00   -0.19221E+00  9568   0.988E+01 0.451E+00
CGA:  11    -0.311636305408E+03   -0.13153E+00   -0.13593E+00  9568   0.794E+01-0.201E+00
CGA:  12    -0.311780805851E+03   -0.14450E+00   -0.15230E+00  9568   0.575E+01 0.300E-01
CGA:  13    -0.311883514211E+03   -0.10271E+00   -0.10152E+00  9568   0.357E+01 0.150E-01
CGA:  14    -0.311916897369E+03   -0.33383E-01   -0.27865E-01  9568   0.985E+00 0.570E+00
CGA:  15    -0.311930432313E+03   -0.13535E-01   -0.13356E-01  9568   0.120E+01 0.841E-02
CGA:  16    -0.311960824335E+03   -0.30392E-01   -0.30397E-01  9568   0.350E+01 0.206E-02
CGA:  17    -0.312003777044E+03   -0.42953E-01   -0.45461E-01  9568   0.153E+01-0.771E-01
CGA:  18    -0.312016305190E+03   -0.12528E-01   -0.12717E-01  9568   0.750E+00-0.172E-01
CGA:  19    -0.312029209594E+03   -0.12904E-01   -0.12864E-01  9568   0.916E+00-0.330E-03
CGA:  20    -0.312039143348E+03   -0.99338E-02   -0.95187E-02  9568   0.541E+00 0.264E-01
CGA:  21    -0.312045571924E+03   -0.64286E-02   -0.64896E-02  9568   0.422E+00-0.246E-02
CGA:  22    -0.312050045588E+03   -0.44737E-02   -0.46581E-02  9568   0.217E+00-0.837E-02
CGA:  23    -0.312052629030E+03   -0.25834E-02   -0.26014E-02  9568   0.229E+00-0.562E-03
CGA:  24    -0.312058242469E+03   -0.56134E-02   -0.56252E-02  9568   0.429E+00-0.250E-02
CGA:  25    -0.312062774497E+03   -0.45320E-02   -0.44838E-02  9568   0.217E+00 0.238E-02
CGA:  26    -0.312065238338E+03   -0.24638E-02   -0.24807E-02  9568   0.178E+00-0.667E-03
CGA:  27    -0.312067814694E+03   -0.25764E-02   -0.26101E-02  9568   0.176E+00 0.550E-03
CGA:  28    -0.312070364100E+03   -0.25494E-02   -0.25609E-02  9568   0.173E+00 0.172E-03
CGA:  29    -0.312072628554E+03   -0.22645E-02   -0.22317E-02  9568   0.824E-01 0.337E-03
CGA:  30    -0.312073359224E+03   -0.73067E-03   -0.72305E-03  9568   0.400E-01 0.513E-03
CGA:  31    -0.312074247109E+03   -0.88788E-03   -0.88819E-03  9568   0.991E-01-0.742E-04
CGA:  32    -0.312075959891E+03   -0.17128E-02   -0.17157E-02  9568   0.756E-01 0.544E-03
CGA:  33    -0.312076591659E+03   -0.63177E-03   -0.63550E-03  9568   0.279E-01-0.232E-03
SDA:  34    -0.312077083341E+03   -0.49168E-03   -0.49169E-03  9568   0.461E-01 0.565E-05
CGA:  35    -0.312077634553E+03   -0.55121E-03   -0.55088E-03  9568   0.162E-01-0.169E-04
CGA:  36    -0.312078567856E+03   -0.93330E-03   -0.92081E-03  9568   0.894E-02 0.376E-03
CGA:  37    -0.312079075858E+03   -0.50800E-03   -0.51022E-03  9568   0.173E-01-0.693E-04
CGA:  38    -0.312079740815E+03   -0.66496E-03   -0.66483E-03  9568   0.948E-02 0.756E-05
CGA:  39    -0.312080104312E+03   -0.36350E-03   -0.36314E-03  9568   0.143E-01 0.196E-04
CGA:  40    -0.312080461548E+03   -0.35724E-03   -0.35736E-03  9568   0.908E-02-0.567E-04
CGA:  41    -0.312080647674E+03   -0.18613E-03   -0.18629E-03  9568   0.239E-02 0.263E-04
CGA:  42    -0.312080869049E+03   -0.22138E-03   -0.21893E-03  9568   0.366E-02 0.380E-04
CGA:  43    -0.312080982388E+03   -0.11334E-03   -0.11336E-03  9568   0.482E-02-0.178E-05
CGA:  44    -0.312081156416E+03   -0.17403E-03   -0.17379E-03  9568   0.541E-02 0.260E-04
CGA:  45    -0.312081279395E+03   -0.12298E-03   -0.12310E-03  9568   0.307E-02 0.187E-04
CGA:  46    -0.312081441495E+03   -0.16210E-03   -0.16120E-03  9568   0.139E-02 0.353E-04
CGA:  47    -0.312081528705E+03   -0.87210E-04   -0.87166E-04  9568   0.402E-02 0.989E-06
CGA:  48    -0.312081608905E+03   -0.80200E-04   -0.80140E-04  9568   0.136E-02-0.320E-05
CGA:  49    -0.312081657292E+03   -0.48387E-04   -0.48334E-04  9568   0.165E-02 0.650E-05
CGA:  50    -0.312081714556E+03   -0.57264E-04   -0.57297E-04  9568   0.576E-03-0.500E-05
CGA:  51    -0.312081751964E+03   -0.37408E-04   -0.37479E-04  9568   0.171E-02-0.218E-05
CGA:  52    -0.312081781501E+03   -0.29538E-04   -0.29611E-04  9568   0.318E-03 0.148E-05
CGA:  53    -0.312081792373E+03   -0.10871E-04   -0.10870E-04  9568   0.292E-03 0.118E-06
CGA:  54    -0.312081809198E+03   -0.16825E-04   -0.16839E-04  9568   0.292E-03-0.709E-06
CGA:  55    -0.312081814763E+03   -0.55647E-05   -0.55821E-05  9568   0.201E-03 0.916E-06
  13 F= -.31208181E+03 E0= -.31205758E+03  d E =0.227777E-02  mag=    25.8823
       N       E                     dE             d eps       ncg     rms          ort
SDA:   1    -0.311048417859E+03    0.10334E+01    0.00000E+00  9568   0.753E+01 0.000E+00
CGA:   2    -0.311163998965E+03   -0.11558E+00   -0.12531E+00  9568   0.511E+01-0.306E+00
CGA:   3    -0.311436993237E+03   -0.27299E+00   -0.28595E+00  9568   0.127E+02-0.475E+00
CGA:   4    -0.311745256699E+03   -0.30826E+00   -0.30829E+00  9568   0.302E+01-0.133E-02
CGA:   5    -0.311847135926E+03   -0.10188E+00   -0.10181E+00  9568   0.322E+01 0.312E-01
CGA:   6    -0.311920963870E+03   -0.73828E-01   -0.74608E-01  9568   0.188E+01 0.695E-02
CGA:   7    -0.311991341684E+03   -0.70378E-01   -0.70707E-01  9568   0.172E+01-0.400E-01
CGA:   8    -0.312045717086E+03   -0.54375E-01   -0.54376E-01  9568   0.697E+00 0.683E-02
CGA:   9    -0.312059344610E+03   -0.13628E-01   -0.13594E-01  9568   0.397E+00 0.245E-03
CGA:  10    -0.312071400372E+03   -0.12056E-01   -0.12101E-01  9568   0.180E+00 0.156E-01
CGA:  11    -0.312078320245E+03   -0.69199E-02   -0.69317E-02  9568   0.247E+00-0.142E-02
CGA:  12    -0.312086076151E+03   -0.77559E-02   -0.77559E-02  9568   0.161E+00 0.363E-04
CGA:  13    -0.312088883171E+03   -0.28070E-02   -0.28162E-02  9568   0.307E-01-0.245E-03
CGA:  14    -0.312090526573E+03   -0.16434E-02   -0.16319E-02  9568   0.438E-01 0.477E-03
CGA:  15    -0.312091447163E+03   -0.92059E-03   -0.92021E-03  9568   0.262E-01 0.104E-05
CGA:  16    -0.312092640865E+03   -0.11937E-02   -0.11931E-02  9568   0.326E-01 0.377E-04
CGA:  17    -0.312093501388E+03   -0.86052E-03   -0.86057E-03  9568   0.797E-02-0.362E-05
CGA:  18    -0.312093668890E+03   -0.16750E-03   -0.16778E-03  9568   0.699E-02 0.544E-05
CGA:  19    -0.312094032352E+03   -0.36346E-03   -0.36450E-03  9568   0.607E-02-0.459E-04
CGA:  20    -0.312094212067E+03   -0.17972E-03   -0.17972E-03  9568   0.652E-02 0.486E-05
CGA:  21    -0.312094476518E+03   -0.26445E-03   -0.26466E-03  9568   0.690E-02-0.167E-04
CGA:  22    -0.312094612629E+03   -0.13611E-03   -0.13650E-03  9568   0.197E-02 0.471E-05
CGA:  23    -0.312094713872E+03   -0.10124E-03   -0.10148E-03  9568   0.369E-02-0.116E-04
CGA:  24    -0.312094806571E+03   -0.92699E-04   -0.92844E-04  9568   0.182E-02 0.699E-05
CGA:  25    -0.312094863361E+03   -0.56790E-04   -0.56785E-04  9568   0.218E-02-0.132E-05
CGA:  26    -0.312094975698E+03   -0.11234E-03   -0.11216E-03  9568   0.164E-02 0.865E-05
CGA:  27    -0.312095010660E+03   -0.34962E-04   -0.34951E-04  9568   0.117E-02-0.492E-06
CGA:  28    -0.312095053533E+03   -0.42873E-04   -0.42833E-04  9568   0.811E-03 0.835E-05
CGA:  29    -0.312095076735E+03   -0.23202E-04   -0.23199E-04  9568   0.577E-03-0.466E-06
CGA:  30    -0.312095100798E+03   -0.24063E-04   -0.24044E-04  9568   0.917E-03 0.197E-05
CGA:  31    -0.312095124040E+03   -0.23242E-04   -0.23233E-04  9568   0.434E-03-0.868E-06
SDA:  32    -0.312095144098E+03   -0.20058E-04   -0.20019E-04  9568   0.368E-03 0.256E-05
CGA:  33    -0.312095148794E+03   -0.46966E-05   -0.46738E-05  9568   0.122E-03-0.989E-06
  14 F= -.31209515E+03 E0= -.31207097E+03  d E =-.133340E-01  mag=    25.8819
       N       E                     dE             d eps       ncg     rms          ort
SDA:   1    -0.307740315880E+03    0.43548E+01    0.00000E+00  9568   0.255E+02 0.000E+00
CGA:   2    -0.308126058651E+03   -0.38574E+00   -0.39174E+00  9568   0.190E+02-0.862E+00
CGA:   3    -0.310552621578E+03   -0.24266E+01   -0.23842E+01  9568   0.243E+02 0.685E+00
CGA:   4    -0.311033374788E+03   -0.48075E+00   -0.53222E+00  9568   0.134E+02-0.113E+01
CGA:   5    -0.311221005429E+03   -0.18763E+00   -0.18941E+00  9568   0.104E+02-0.153E+00
CGA:   6    -0.311530913872E+03   -0.30991E+00   -0.30829E+00  9568   0.110E+02-0.953E-01
CGA:   7    -0.311710213549E+03   -0.17930E+00   -0.18450E+00  9568   0.769E+01-0.183E+00
CGA:   8    -0.311882741629E+03   -0.17253E+00   -0.16850E+00  9568   0.337E+01 0.266E-01
CGA:   9    -0.311965958696E+03   -0.83217E-01   -0.80926E-01  9568   0.119E+01-0.288E-01
CGA:  10    -0.311990543123E+03   -0.24584E-01   -0.24802E-01  9568   0.168E+01-0.113E-02
CGA:  11    -0.312048058175E+03   -0.57515E-01   -0.57352E-01  9568   0.103E+01 0.502E-01
CGA:  12    -0.312076713351E+03   -0.28655E-01   -0.28611E-01  9568   0.399E+00-0.255E-02
CGA:  13    -0.312083220453E+03   -0.65071E-02   -0.64674E-02  9568   0.286E+00 0.115E-02
CGA:  14    -0.312092288078E+03   -0.90676E-02   -0.90677E-02  9568   0.204E+00-0.143E-03
CGA:  15    -0.312098227191E+03   -0.59391E-02   -0.59497E-02  9568   0.177E+00 0.220E-02
CGA:  16    -0.312103277252E+03   -0.50501E-02   -0.50397E-02  9568   0.196E+00-0.136E-02
CGA:  17    -0.312106849160E+03   -0.35719E-02   -0.36194E-02  9568   0.744E-01-0.506E-03
CGA:  18    -0.312109071112E+03   -0.22220E-02   -0.22226E-02  9568   0.427E-01 0.646E-03
[...]
CGA:  29    -0.312357419184E+03   -0.67097E-03   -0.67379E-03  9568   0.350E-01-0.885E-05
CGA:  30    -0.312357859272E+03   -0.44009E-03   -0.44034E-03  9568   0.248E-01 0.393E-05
CGA:  31    -0.312358179116E+03   -0.31984E-03   -0.31936E-03  9568   0.200E-01-0.214E-04
SDA:  32    -0.312358471329E+03   -0.29221E-03   -0.29182E-03  9568   0.179E-01-0.408E-04
CGA:  33    -0.312358716472E+03   -0.24514E-03   -0.24558E-03  9568   0.491E-02 0.395E-04
CGA:  34    -0.312358998993E+03   -0.28252E-03   -0.28240E-03  9568   0.969E-02 0.397E-05
CGA:  35    -0.312359316738E+03   -0.31774E-03   -0.31777E-03  9568   0.539E-02-0.195E-05
CGA:  36    -0.312359585295E+03   -0.26856E-03   -0.26984E-03  9568   0.267E-02-0.462E-04
CGA:  37    -0.312359751216E+03   -0.16592E-03   -0.16575E-03  9568   0.286E-02 0.481E-05
CGA:  38    -0.312359836064E+03   -0.84848E-04   -0.84894E-04  9568   0.170E-02-0.644E-05
CGA:  39    -0.312359872606E+03   -0.36542E-04   -0.36553E-04  9568   0.106E-02 0.461E-05
CGA:  40    -0.312359935286E+03   -0.62681E-04   -0.62618E-04  9568   0.368E-03 0.190E-05
CGA:  41    -0.312359967757E+03   -0.32470E-04   -0.32244E-04  9568   0.433E-03 0.374E-05
CGA:  42    -0.312359987242E+03   -0.19485E-04   -0.19498E-04  9568   0.657E-03-0.839E-06
CGA:  43    -0.312360017892E+03   -0.30650E-04   -0.30590E-04  9568   0.218E-03 0.329E-05
CGA:  44    -0.312360035104E+03   -0.17212E-04   -0.17292E-04  9568   0.667E-03-0.179E-05
CGA:  45    -0.312360047364E+03   -0.12260E-04   -0.12296E-04  9568   0.108E-03 0.109E-05
CGA:  46    -0.312360057609E+03   -0.10246E-04   -0.10252E-04  9568   0.276E-03-0.155E-06
CGA:  47    -0.312360070379E+03   -0.12769E-04   -0.12778E-04  9568   0.219E-03-0.753E-06
CGA:  48    -0.312360075628E+03   -0.52491E-05   -0.52597E-05  9568   0.165E-03 0.770E-06
 159 F= -.31236008E+03 E0= -.31233811E+03  d E =-.304751E-02  mag=    25.9297
       N       E                     dE             d eps       ncg     rms          ort
SDA:   1    -0.311602046320E+03    0.75802E+00    0.00000E+00  9568   0.229E+02 0.000E+00
CGA:   2    -0.311863216963E+03   -0.26117E+00   -0.22228E+00  9568   0.177E+01 0.246E+01
CGA:   3    -0.311948103691E+03   -0.84887E-01   -0.85298E-01  9568   0.597E+01-0.279E-01
CGA:   4    -0.312092192659E+03   -0.14409E+00   -0.14334E+00  9568   0.406E+01-0.724E-02
CGA:   5    -0.312151310796E+03   -0.59118E-01   -0.63096E-01  9568   0.215E+01-0.151E+00
CGA:   6    -0.312188570848E+03   -0.37260E-01   -0.38074E-01  9568   0.137E+01-0.150E-01
CGA:   7    -0.312224533847E+03   -0.35963E-01   -0.35325E-01  9568   0.159E+01-0.276E-01
CGA:   8    -0.312261808736E+03   -0.37275E-01   -0.37954E-01  9568   0.167E+01 0.180E-01
CGA:   9    -0.312305021496E+03   -0.43213E-01   -0.43663E-01  9568   0.115E+01 0.234E-01
CGA:  10    -0.312322214199E+03   -0.17193E-01   -0.16859E-01  9568   0.393E+00 0.124E-01
CGA:  11    -0.312330149802E+03   -0.79356E-02   -0.79268E-02  9568   0.224E+00-0.131E-03
CGA:  12    -0.312336606554E+03   -0.64568E-02   -0.64615E-02  9568   0.348E+00 0.256E-02
CGA:  13    -0.312345838269E+03   -0.92317E-02   -0.92282E-02  9568   0.139E+00-0.358E-03
CGA:  14    -0.312349438825E+03   -0.36006E-02   -0.35926E-02  9568   0.175E+00-0.812E-03
CGA:  15    -0.312353071028E+03   -0.36322E-02   -0.36802E-02  9568   0.329E-01 0.766E-03
CGA:  16    -0.312353708893E+03   -0.63786E-03   -0.64098E-03  9568   0.349E-01 0.226E-04
CGA:  17    -0.312355474454E+03   -0.17656E-02   -0.17789E-02  9568   0.478E-01-0.564E-03
CGA:  18    -0.312356370608E+03   -0.89615E-03   -0.89075E-03  9568   0.202E-01 0.239E-04
CGA:  19    -0.312356845178E+03   -0.47457E-03   -0.47546E-03  9568   0.222E-01 0.509E-04
CGA:  20    -0.312357603623E+03   -0.75844E-03   -0.75868E-03  9568   0.971E-02-0.272E-04
CGA:  21    -0.312357750713E+03   -0.14709E-03   -0.14645E-03  9568   0.562E-02 0.106E-04
CGA:  22    -0.312358006435E+03   -0.25572E-03   -0.25617E-03  9568   0.720E-02-0.229E-04
CGA:  23    -0.312358176868E+03   -0.17043E-03   -0.17069E-03  9568   0.714E-02 0.182E-04
CGA:  24    -0.312358370032E+03   -0.19316E-03   -0.19319E-03  9568   0.511E-02 0.626E-05
CGA:  25    -0.312358525318E+03   -0.15529E-03   -0.15531E-03  9568   0.392E-02-0.649E-05
CGA:  26    -0.312358583750E+03   -0.58432E-04   -0.58607E-04  9568   0.134E-02 0.332E-05
CGA:  27    -0.312358644630E+03   -0.60879E-04   -0.60786E-04  9568   0.230E-02 0.480E-05
CGA:  28    -0.312358695193E+03   -0.50563E-04   -0.50529E-04  9568   0.148E-02-0.351E-05
CGA:  29    -0.312358735558E+03   -0.40365E-04   -0.40370E-04  9568   0.145E-02 0.231E-05
CGA:  30    -0.312358784993E+03   -0.49435E-04   -0.49389E-04  9568   0.120E-02 0.717E-05
CGA:  31    -0.312358804943E+03   -0.19950E-04   -0.19914E-04  9568   0.595E-03-0.150E-05
SDA:  32    -0.312358831947E+03   -0.27004E-04   -0.27057E-04  9568   0.575E-03-0.315E-05
CGA:  33    -0.312358840837E+03   -0.88894E-05   -0.89223E-05  9568   0.274E-03 0.174E-05
CGA:  34    -0.312358855091E+03   -0.14254E-04   -0.14288E-04  9568   0.228E-03-0.158E-05
CGA:  35    -0.312358873296E+03   -0.18205E-04   -0.18296E-04  9568   0.412E-03-0.184E-05
CGA:  36    -0.312358884886E+03   -0.11590E-04   -0.11590E-04  9568   0.182E-03-0.278E-06
CGA:  37    -0.312358893653E+03   -0.87669E-05   -0.87432E-05  9568   0.158E-03 0.132E-05
 160 F= -.31235889E+03 E0= -.31233687E+03  d E =0.118197E-02  mag=    25.9307
       N       E                     dE             d eps       ncg     rms          ort
SDA:   1    -0.311861963119E+03    0.49692E+00    0.00000E+00  9568   0.627E+01 0.000E+00
CGA:   2    -0.311946404407E+03   -0.84441E-01   -0.90067E-01  9568   0.229E+01-0.282E+00
CGA:   3    -0.312102504219E+03   -0.15610E+00   -0.15711E+00  9568   0.307E+01-0.273E-01
CGA:   4    -0.312189812256E+03   -0.87308E-01   -0.88058E-01  9568   0.105E+01 0.558E-01
CGA:   5    -0.312221175993E+03   -0.31364E-01   -0.31321E-01  9568   0.120E+01-0.422E-02
CGA:   6    -0.312272387236E+03   -0.51211E-01   -0.51263E-01  9568   0.103E+01-0.397E-02
CGA:   7    -0.312320589365E+03   -0.48202E-01   -0.47712E-01  9568   0.540E+00 0.289E-01
CGA:   8    -0.312331260801E+03   -0.10671E-01   -0.10957E-01  9568   0.198E+00-0.474E-02
CGA:   9    -0.312340608723E+03   -0.93479E-02   -0.93892E-02  9568   0.371E+00-0.230E-02
CGA:  10    -0.312350845693E+03   -0.10237E-01   -0.10293E-01  9568   0.827E-01 0.260E-02
CGA:  11    -0.312353880799E+03   -0.30351E-02   -0.30439E-02  9568   0.586E-01-0.196E-02
CGA:  12    -0.312355556134E+03   -0.16753E-02   -0.16804E-02  9568   0.322E-01 0.378E-03
CGA:  13    -0.312356595302E+03   -0.10392E-02   -0.10390E-02  9568   0.371E-01-0.570E-04
CGA:  14    -0.312357976336E+03   -0.13810E-02   -0.13806E-02  9568   0.153E-01 0.798E-04
CGA:  15    -0.312358496025E+03   -0.51969E-03   -0.51969E-03  9568   0.111E-01-0.323E-04
CGA:  16    -0.312358877646E+03   -0.38162E-03   -0.38154E-03  9568   0.708E-02 0.742E-04
CGA:  17    -0.312359048672E+03   -0.17103E-03   -0.17082E-03  9568   0.514E-02-0.650E-05
CGA:  18    -0.312359332805E+03   -0.28413E-03   -0.28381E-03  9568   0.481E-02 0.143E-04
CGA:  19    -0.312359512185E+03   -0.17938E-03   -0.17944E-03  9568   0.407E-02-0.143E-04
CGA:  20    -0.312359629246E+03   -0.11706E-03   -0.11713E-03  9568   0.185E-02 0.933E-05
CGA:  21    -0.312359673893E+03   -0.44648E-04   -0.44616E-04  9568   0.140E-02-0.190E-05
CGA:  22    -0.312359780513E+03   -0.10662E-03   -0.10663E-03  9568   0.181E-02-0.225E-06
CGA:  23    -0.312359831813E+03   -0.51300E-04   -0.51257E-04  9568   0.103E-02-0.197E-05
CGA:  24    -0.312359868044E+03   -0.36231E-04   -0.36233E-04  9568   0.100E-02 0.437E-05
CGA:  25    -0.312359894121E+03   -0.26077E-04   -0.26049E-04  9568   0.446E-03-0.126E-05
CGA:  26    -0.312359919170E+03   -0.25048E-04   -0.25002E-04  9568   0.527E-03 0.221E-05
CGA:  27    -0.312359934637E+03   -0.15467E-04   -0.15455E-04  9568   0.364E-03-0.139E-05
CGA:  28    -0.312359949189E+03   -0.14552E-04   -0.14540E-04  9568   0.444E-03 0.281E-05
CGA:  29    -0.312359961043E+03   -0.11855E-04   -0.11856E-04  9568   0.117E-03 0.229E-06
CGA:  30    -0.312359966344E+03   -0.53010E-05   -0.53028E-05  9568   0.142E-03-0.179E-06
 161 F= -.31235997E+03 E0= -.31233805E+03  d E =-.107269E-02  mag=    25.9295
       N       E                     dE             d eps       ncg     rms          ort
SDA:   1    -0.312223531390E+03    0.13643E+00    0.00000E+00  9568   0.791E+01 0.000E+00
CGA:   2    -0.312307547756E+03   -0.84016E-01   -0.75041E-01  9568   0.287E+00 0.673E+00
CGA:   3    -0.312316301900E+03   -0.87541E-02   -0.87457E-02  9568   0.392E+00-0.419E-03
CGA:   4    -0.312326073601E+03   -0.97717E-02   -0.97455E-02  9568   0.342E+00-0.312E-03
CGA:   5    -0.312337789269E+03   -0.11716E-01   -0.11716E-01  9568   0.364E+00 0.112E-03
CGA:   6    -0.312343612366E+03   -0.58231E-02   -0.57757E-02  9568   0.150E+00 0.164E-02
CGA:   7    -0.312347328781E+03   -0.37164E-02   -0.37056E-02  9568   0.107E+00-0.209E-03
CGA:   8    -0.312349696196E+03   -0.23674E-02   -0.23790E-02  9568   0.123E+00 0.736E-04
CGA:   9    -0.312355161904E+03   -0.54657E-02   -0.54648E-02  9568   0.130E+00 0.527E-04
CGA:  10    -0.312357197204E+03   -0.20353E-02   -0.20096E-02  9568   0.354E-01 0.872E-03
CGA:  11    -0.312357826954E+03   -0.62975E-03   -0.63051E-03  9568   0.215E-01-0.154E-04
CGA:  12    -0.312358695262E+03   -0.86831E-03   -0.86577E-03  9568   0.271E-01 0.201E-03
CGA:  13    -0.312359171529E+03   -0.47627E-03   -0.47442E-03  9568   0.152E-01 0.292E-04
CGA:  14    -0.312359839102E+03   -0.66757E-03   -0.66901E-03  9568   0.128E-01-0.902E-04
CGA:  15    -0.312360001481E+03   -0.16238E-03   -0.16327E-03  9568   0.337E-02-0.339E-04
CGA:  16    -0.312360114792E+03   -0.11331E-03   -0.11328E-03  9568   0.349E-02 0.800E-05
CGA:  17    -0.312360209235E+03   -0.94443E-04   -0.94418E-04  9568   0.444E-02-0.321E-05
CGA:  18    -0.312360331071E+03   -0.12184E-03   -0.12184E-03  9568   0.207E-02 0.361E-05
CGA:  19    -0.312360387813E+03   -0.56742E-04   -0.56755E-04  9568   0.236E-02 0.375E-05
CGA:  20    -0.312360433942E+03   -0.46129E-04   -0.46089E-04  9568   0.721E-03-0.315E-05
CGA:  21    -0.312360461936E+03   -0.27995E-04   -0.28037E-04  9568   0.130E-02-0.384E-05
CGA:  22    -0.312360487494E+03   -0.25558E-04   -0.25598E-04  9568   0.461E-03 0.320E-05
CGA:  23    -0.312360501704E+03   -0.14210E-04   -0.14206E-04  9568   0.632E-03 0.223E-05
CGA:  24    -0.312360522571E+03   -0.20867E-04   -0.20875E-04  9568   0.724E-03-0.235E-05
CGA:  25    -0.312360537138E+03   -0.14567E-04   -0.14566E-04  9568   0.289E-03 0.205E-06
CGA:  26    -0.312360545419E+03   -0.82802E-05   -0.82817E-05  9568   0.291E-03 0.226E-05
 162 F= -.31236055E+03 E0= -.31233858E+03  d E =-.579074E-03  mag=    25.9301
       N       E                     dE             d eps       ncg     rms          ort
SDA:   1    -0.312306862644E+03    0.53674E-01    0.00000E+00  9568   0.139E+01 0.000E+00
CGA:   2    -0.312325277274E+03   -0.18415E-01   -0.19406E-01  9568   0.292E+00-0.382E-01
CGA:   3    -0.312333245811E+03   -0.79685E-02   -0.79682E-02  9568   0.205E+00-0.500E-02
CGA:   4    -0.312340861733E+03   -0.76159E-02   -0.76318E-02  9568   0.166E+00-0.123E-02
CGA:   5    -0.312347341606E+03   -0.64799E-02   -0.64536E-02  9568   0.127E+00 0.192E-02
CGA:   6    -0.312352263725E+03   -0.49221E-02   -0.49452E-02  9568   0.381E-01-0.183E-02
CGA:   7    -0.312355533832E+03   -0.32701E-02   -0.32805E-02  9568   0.104E+00-0.207E-03
CGA:   8    -0.312357670073E+03   -0.21362E-02   -0.21433E-02  9568   0.389E-01-0.127E-04
CGA:   9    -0.312358746774E+03   -0.10767E-02   -0.10760E-02  9568   0.127E-01-0.656E-04
CGA:  10    -0.312359264225E+03   -0.51745E-03   -0.51637E-03  9568   0.108E-01 0.861E-04
CGA:  11    -0.312359730531E+03   -0.46631E-03   -0.46791E-03  9568   0.883E-02-0.111E-03
CGA:  12    -0.312359994224E+03   -0.26369E-03   -0.26376E-03  9568   0.278E-02 0.155E-04
CGA:  13    -0.312360068314E+03   -0.74091E-04   -0.74028E-04  9568   0.300E-02-0.630E-05
CGA:  14    -0.312360179542E+03   -0.11123E-03   -0.11121E-03  9568   0.109E-02 0.267E-05
CGA:  15    -0.312360241335E+03   -0.61794E-04   -0.61797E-04  9568   0.113E-02-0.950E-07
CGA:  16    -0.312360284628E+03   -0.43292E-04   -0.43284E-04  9568   0.715E-03 0.111E-05
CGA:  17    -0.312360307129E+03   -0.22501E-04   -0.22498E-04  9568   0.647E-03-0.150E-05
CGA:  18    -0.312360326310E+03   -0.19181E-04   -0.19194E-04  9568   0.367E-03 0.225E-05
CGA:  19    -0.312360335607E+03   -0.92962E-05   -0.92787E-05  9568   0.226E-03-0.140E-05
CGA:  20    -0.312360357734E+03   -0.22128E-04   -0.21980E-04  9568   0.229E-03 0.233E-05
CGA:  21    -0.312360366123E+03   -0.83891E-05   -0.83887E-05  9568   0.148E-03-0.137E-05
 163 F= -.31236037E+03 E0= -.31233843E+03  d E =0.179295E-03  mag=    25.9298
       N       E                     dE             d eps       ncg     rms          ort
SDA:   1    -0.312340678269E+03    0.19679E-01    0.00000E+00  9568   0.125E+00 0.000E+00
CGA:   2    -0.312345416045E+03   -0.47378E-02   -0.47390E-02  9568   0.124E+00-0.333E-03
CGA:   3    -0.312349645175E+03   -0.42291E-02   -0.42284E-02  9568   0.111E+00-0.188E-03
CGA:   4    -0.312353206766E+03   -0.35616E-02   -0.35640E-02  9568   0.830E-01 0.288E-03
CGA:   5    -0.312355146257E+03   -0.19395E-02   -0.19254E-02  9568   0.300E-01 0.396E-04
CGA:   6    -0.312356937191E+03   -0.17909E-02   -0.17930E-02  9568   0.467E-01-0.731E-04
CGA:   7    -0.312359023208E+03   -0.20860E-02   -0.20863E-02  9568   0.186E-01-0.296E-04
CGA:   8    -0.312359399704E+03   -0.37650E-03   -0.37858E-03  9568   0.128E-01-0.285E-04
CGA:   9    -0.312359911643E+03   -0.51194E-03   -0.51241E-03  9568   0.474E-02-0.673E-04
CGA:  10    -0.312360263798E+03   -0.35215E-03   -0.35121E-03  9568   0.650E-02 0.253E-04
CGA:  11    -0.312360366047E+03   -0.10225E-03   -0.10177E-03  9568   0.133E-02 0.105E-04
CGA:  12    -0.312360430581E+03   -0.64534E-04   -0.64516E-04  9568   0.151E-02 0.208E-05
CGA:  13    -0.312360483053E+03   -0.52471E-04   -0.52473E-04  9568   0.101E-02 0.401E-06
CGA:  14    -0.312360515099E+03   -0.32047E-04   -0.32056E-04  9568   0.695E-03 0.136E-05
CGA:  15    -0.312360534388E+03   -0.19289E-04   -0.19267E-04  9568   0.441E-03-0.194E-05
CGA:  16    -0.312360548363E+03   -0.13975E-04   -0.13988E-04  9568   0.307E-03 0.233E-05
CGA:  17    -0.312360560846E+03   -0.12483E-04   -0.12484E-04  9568   0.137E-03-0.185E-06
CGA:  18    -0.312360566262E+03   -0.54159E-05   -0.54125E-05  9568   0.263E-03 0.109E-05
CGA:  19    -0.312360576317E+03   -0.10054E-04   -0.10056E-04  9568   0.961E-04-0.107E-05
CGA:  20    -0.312360581092E+03   -0.47748E-05   -0.47624E-05  9568   0.873E-04 0.942E-06
 164 F= -.31236058E+03 E0= -.31233862E+03  d E =-.214968E-03  mag=    25.9300
       N       E                     dE             d eps       ncg     rms          ort
SDA:   1    -0.312341587785E+03    0.18989E-01    0.00000E+00  9568   0.103E+01 0.000E+00
CGA:   2    -0.312352082094E+03   -0.10494E-01   -0.99814E-02  9568   0.339E-01 0.417E-01
CGA:   3    -0.312353577994E+03   -0.14959E-02   -0.14946E-02  9568   0.561E-01 0.124E-03
CGA:   4    -0.312355892008E+03   -0.23140E-02   -0.23124E-02  9568   0.926E-01 0.198E-03
CGA:   5    -0.312357994467E+03   -0.21025E-02   -0.20922E-02  9568   0.149E-01 0.574E-04
CGA:   6    -0.312358728094E+03   -0.73363E-03   -0.73551E-03  9568   0.291E-01-0.106E-03
CGA:   7    -0.312359364540E+03   -0.63645E-03   -0.63884E-03  9568   0.145E-01-0.131E-04
CGA:   8    -0.312359940108E+03   -0.57557E-03   -0.57519E-03  9568   0.115E-01 0.525E-04
CGA:   9    -0.312360184499E+03   -0.24439E-03   -0.24283E-03  9568   0.336E-02 0.142E-04
CGA:  10    -0.312360277833E+03   -0.93334E-04   -0.93387E-04  9568   0.387E-02 0.282E-05
CGA:  11    -0.312360397927E+03   -0.12009E-03   -0.12008E-03  9568   0.165E-02-0.429E-05
CGA:  12    -0.312360492098E+03   -0.94171E-04   -0.94317E-04  9568   0.171E-02-0.575E-05
CGA:  13    -0.312360516091E+03   -0.23993E-04   -0.24071E-04  9568   0.426E-03 0.153E-05
CGA:  14    -0.312360540192E+03   -0.24101E-04   -0.24091E-04  9568   0.527E-03 0.424E-06
CGA:  15    -0.312360556295E+03   -0.16103E-04   -0.16093E-04  9568   0.324E-03-0.161E-05
CGA:  16    -0.312360563410E+03   -0.71147E-05   -0.71354E-05  9568   0.257E-03 0.127E-05
CGA:  17    -0.312360576954E+03   -0.13544E-04   -0.13527E-04  9568   0.192E-03 0.889E-06
CGA:  18    -0.312360581275E+03   -0.43207E-05   -0.43097E-05  9568   0.841E-04-0.536E-06
 165 F= -.31236058E+03 E0= -.31233861E+03  d E =-.182961E-06  mag=    25.9303
       N       E                     dE             d eps       ncg     rms          ort
SDA:   1    -0.312322389479E+03    0.38187E-01    0.00000E+00  9568   0.261E+01 0.000E+00
CGA:   2    -0.312347332067E+03   -0.24943E-01   -0.27472E-01  9568   0.819E-01-0.196E+00
CGA:   3    -0.312349476584E+03   -0.21445E-02   -0.21382E-02  9568   0.810E-01-0.370E-03
CGA:   4    -0.312353990795E+03   -0.45142E-02   -0.44993E-02  9568   0.929E-01 0.613E-03
CGA:   5    -0.312356052234E+03   -0.20614E-02   -0.20584E-02  9568   0.285E-01-0.581E-05
CGA:   6    -0.312357105463E+03   -0.10532E-02   -0.10519E-02  9568   0.365E-01 0.269E-03
CGA:   7    -0.312358748258E+03   -0.16428E-02   -0.16480E-02  9568   0.265E-01-0.359E-03
CGA:   8    -0.312359387167E+03   -0.63891E-03   -0.64006E-03  9568   0.158E-01 0.233E-04
CGA:   9    -0.312359958084E+03   -0.57092E-03   -0.57118E-03  9568   0.663E-02-0.736E-04
CGA:  10    -0.312360119420E+03   -0.16134E-03   -0.16157E-03  9568   0.489E-02 0.944E-05
CGA:  11    -0.312360372221E+03   -0.25280E-03   -0.25336E-03  9568   0.464E-02-0.268E-04
CGA:  12    -0.312360470607E+03   -0.98385E-04   -0.98654E-04  9568   0.131E-02 0.162E-05
CGA:  13    -0.312360513918E+03   -0.43311E-04   -0.43306E-04  9568   0.123E-02-0.364E-05
CGA:  14    -0.312360558813E+03   -0.44895E-04   -0.44881E-04  9568   0.814E-03 0.459E-05
CGA:  15    -0.312360580493E+03   -0.21680E-04   -0.21653E-04  9568   0.480E-03-0.277E-05
CGA:  16    -0.312360601768E+03   -0.21275E-04   -0.21256E-04  9568   0.499E-03 0.177E-05
CGA:  17    -0.312360614385E+03   -0.12617E-04   -0.12597E-04  9568   0.247E-03-0.194E-05
CGA:  18    -0.312360624914E+03   -0.10529E-04   -0.10520E-04  9568   0.201E-03 0.103E-05
CGA:  19    -0.312360629570E+03   -0.46557E-05   -0.46425E-05  9568   0.100E-03-0.106E-05
 166 F= -.31236063E+03 E0= -.31233867E+03  d E =-.482953E-04  mag=    25.9303
       N       E                     dE             d eps       ncg     rms          ort
SDA:   1    -0.312328625879E+03    0.31999E-01    0.00000E+00  9568   0.287E+01 0.000E+00
CGA:   2    -0.312355640407E+03   -0.27015E-01   -0.30073E-01  9568   0.565E-01-0.235E+00
CGA:   3    -0.312356493365E+03   -0.85296E-03   -0.84843E-03  9568   0.175E-01 0.130E-03
CGA:   4    -0.312357698104E+03   -0.12047E-02   -0.12005E-02  9568   0.350E-01 0.123E-03
CGA:   5    -0.312358870818E+03   -0.11727E-02   -0.11724E-02  9568   0.283E-01-0.112E-03
CGA:   6    -0.312359667376E+03   -0.79656E-03   -0.79784E-03  9568   0.130E-01 0.634E-04
CGA:   7    -0.312360024104E+03   -0.35673E-03   -0.35626E-03  9568   0.457E-02-0.243E-04
CGA:   8    -0.312360190247E+03   -0.16614E-03   -0.16610E-03  9568   0.705E-02 0.120E-04
CGA:   9    -0.312360469408E+03   -0.27916E-03   -0.27931E-03  9568   0.205E-02-0.197E-04
CGA:  10    -0.312360526521E+03   -0.57113E-04   -0.57134E-04  9568   0.166E-02 0.245E-05
CGA:  11    -0.312360571897E+03   -0.45376E-04   -0.45344E-04  9568   0.646E-03-0.360E-05
CGA:  12    -0.312360602896E+03   -0.30999E-04   -0.30926E-04  9568   0.713E-03 0.488E-05
CGA:  13    -0.312360617572E+03   -0.14676E-04   -0.14653E-04  9568   0.222E-03-0.802E-06
CGA:  14    -0.312360630160E+03   -0.12588E-04   -0.12550E-04  9568   0.340E-03 0.166E-05
CGA:  15    -0.312360637755E+03   -0.75948E-05   -0.75802E-05  9568   0.858E-04-0.876E-06
 167 F= -.31236064E+03 E0= -.31233866E+03  d E =-.818523E-05  mag=    25.9304
