       N       E                     dE             d eps       ncg     rms          rms(c)
DAV:   1     0.539986301450E+04    0.53999E+04   -0.23814E+05 30840   0.153E+03
DAV:   2     0.287946412959E+03   -0.51119E+04   -0.48608E+04 30520   0.452E+02
DAV:   3    -0.368862329505E+03   -0.65681E+03   -0.64107E+03 32520   0.173E+02
DAV:   4    -0.395849323756E+03   -0.26987E+02   -0.26329E+02 38808   0.396E+01
DAV:   5    -0.396789762538E+03   -0.94044E+00   -0.92570E+00 40600   0.658E+00    0.933E+01
DAV:   6    -0.295942806998E+03    0.10085E+03   -0.40005E+02 38832   0.670E+01    0.871E+01
DAV:   7    -0.316953619869E+03   -0.21011E+02   -0.29971E+02 37240   0.937E+01    0.811E+01
DAV:   8    -0.328773069324E+03   -0.11819E+02   -0.22008E+02 38816   0.574E+01    0.962E+01
DAV:   9    -0.295497496370E+03    0.33276E+02   -0.13741E+02 38568   0.333E+01    0.642E+01
DAV:  10    -0.274802475978E+03    0.20695E+02   -0.62203E+01 40816   0.228E+01    0.501E+01
DAV:  11    -0.284819788510E+03   -0.10017E+02   -0.15247E+02 41096   0.205E+01    0.627E+01
DAV:  12    -0.279363493343E+03    0.54563E+01   -0.48354E+01 38080   0.171E+01    0.456E+01
DAV:  13    -0.282258103480E+03   -0.28946E+01   -0.21102E+01 40048   0.135E+01    0.450E+01
DAV:  14    -0.289241807460E+03   -0.69837E+01   -0.29744E+01 40352   0.111E+01    0.428E+01
DAV:  15    -0.296281538223E+03   -0.70397E+01   -0.63044E+01 39592   0.906E+00    0.376E+01
DAV:  16    -0.303324943078E+03   -0.70434E+01   -0.20394E+01 38152   0.963E+00    0.441E+01
DAV:  17    -0.305262165899E+03   -0.19372E+01   -0.23453E+01 38736   0.911E+00    0.249E+01
DAV:  18    -0.307034586598E+03   -0.17724E+01   -0.50888E+00 35448   0.423E+00    0.243E+01
DAV:  19    -0.308665643895E+03   -0.16311E+01   -0.12763E+00 35592   0.259E+00    0.198E+01
DAV:  20    -0.308445199626E+03    0.22044E+00   -0.10434E-01 30568   0.908E-01    0.202E+01
DAV:  21    -0.308465268928E+03   -0.20069E-01   -0.68728E-03 32056   0.249E-01    0.203E+01
DAV:  22    -0.309397748836E+03   -0.93248E+00   -0.26795E-01 37392   0.107E+00    0.201E+01
DAV:  23    -0.310625178262E+03   -0.12274E+01   -0.32988E-01 37848   0.128E+00    0.204E+01
DAV:  24    -0.311828018902E+03   -0.12028E+01   -0.80575E-01 39856   0.237E+00    0.183E+01
DAV:  25    -0.311922220597E+03   -0.94202E-01   -0.17330E-01 34896   0.106E+00    0.179E+01
DAV:  26    -0.311810213369E+03    0.11201E+00   -0.47781E-02 35288   0.590E-01    0.182E+01
DAV:  27    -0.311794827564E+03    0.15386E-01   -0.74627E-02 37744   0.530E-01    0.182E+01
DAV:  28    -0.312182230469E+03   -0.38740E+00   -0.67756E-02 36328   0.473E-01    0.189E+01
DAV:  29    -0.312729683858E+03   -0.54745E+00   -0.10211E-01 36936   0.625E-01    0.187E+01
DAV:  30    -0.314615396469E+03   -0.18857E+01   -0.14059E+00 37144   0.190E+00    0.191E+01
DAV:  31    -0.314639467941E+03   -0.24071E-01   -0.16019E-01 30504   0.929E-01    0.193E+01
DAV:  32    -0.314696848025E+03   -0.57380E-01   -0.23787E-02 33192   0.384E-01    0.193E+01
DAV:  33    -0.315569035742E+03   -0.87219E+00   -0.16949E+00 36496   0.146E+00    0.191E+01
DAV:  34    -0.316471302344E+03   -0.90227E+00   -0.70806E-01 38448   0.168E+00    0.180E+01
DAV:  35    -0.318544225249E+03   -0.20729E+01   -0.22046E+00 37352   0.356E+00    0.160E+01
DAV:  36    -0.322647647633E+03   -0.41034E+01   -0.29267E+00 37080   0.359E+00    0.209E+01
DAV:  37    -0.323746123628E+03   -0.10985E+01   -0.36680E-01 34144   0.152E+00    0.217E+01
DAV:  38    -0.323847940360E+03   -0.10182E+00   -0.60502E-02 34608   0.569E-01    0.209E+01
DAV:  39    -0.324069431147E+03   -0.22149E+00   -0.94557E-01 35560   0.200E+00    0.227E+01
DAV:  40    -0.321127205453E+03    0.29422E+01   -0.18876E+00 36208   0.249E+00    0.228E+01
DAV:  41    -0.319137929745E+03    0.19893E+01   -0.72037E-01 36160   0.175E+00    0.244E+01
DAV:  42    -0.319123715454E+03    0.14214E-01   -0.51089E-02 32800   0.603E-01    0.247E+01
DAV:  43    -0.318157998810E+03    0.96572E+00   -0.12305E-01 36000   0.790E-01    0.253E+01
DAV:  44    -0.316889162848E+03    0.12688E+01   -0.96413E-02 36776   0.669E-01    0.254E+01
DAV:  45    -0.318145773744E+03   -0.12566E+01   -0.74298E-02 37456   0.792E-01    0.255E+01
DAV:  46    -0.315791305122E+03    0.23545E+01   -0.53436E-01 37704   0.162E+00    0.272E+01
DAV:  47    -0.313342197421E+03    0.24491E+01   -0.35398E-01 33040   0.102E+00    0.266E+01
DAV:  48    -0.304584633942E+03    0.87576E+01   -0.11462E+00 34680   0.214E+00    0.292E+01
DAV:  49    -0.304596190808E+03   -0.11557E-01   -0.10646E-01 32400   0.734E-01    0.296E+01
DAV:  50    -0.303398999090E+03    0.11972E+01   -0.30366E-02 34016   0.364E-01    0.297E+01
DAV:  51    -0.302064352851E+03    0.13346E+01   -0.11387E+00 35112   0.290E+00    0.314E+01
DAV:  52    -0.303327880040E+03   -0.12635E+01   -0.18779E-01 33696   0.130E+00    0.296E+01
DAV:  53    -0.306430505629E+03   -0.31026E+01   -0.15031E-01 36704   0.946E-01    0.275E+01
DAV:  54    -0.307252428671E+03   -0.82192E+00   -0.57880E-02 35200   0.513E-01    0.265E+01
DAV:  55    -0.307913692395E+03   -0.66126E+00   -0.41243E-02 33952   0.493E-01    0.261E+01
DAV:  56    -0.302929414187E+03    0.49843E+01   -0.19031E+00 37584   0.356E+00    0.255E+01
DAV:  57    -0.306778221214E+03   -0.38488E+01   -0.66140E-01 37576   0.204E+00    0.255E+01
DAV:  58    -0.308354730183E+03   -0.15765E+01   -0.16916E-01 33344   0.793E-01    0.275E+01
DAV:  59    -0.308213704904E+03    0.14103E+00   -0.19098E-02 31136   0.364E-01    0.277E+01
DAV:  60    -0.308309262097E+03   -0.95557E-01   -0.70839E-03 33864   0.163E-01    0.282E+01
DAV:  61    -0.290848749724E+03    0.17461E+02   -0.10982E+01 36608   0.771E+00    0.337E+01
DAV:  62    -0.297421236312E+03   -0.65725E+01   -0.11260E+00 33288   0.279E+00    0.308E+01
DAV:  63    -0.298065724714E+03   -0.64449E+00   -0.25437E-01 36976   0.134E+00    0.291E+01
DAV:  64    -0.300693973113E+03   -0.26282E+01   -0.18205E-01 32712   0.887E-01    0.281E+01
DAV:  65    -0.307602296616E+03   -0.69083E+01   -0.75379E-01 33632   0.162E+00    0.229E+01
DAV:  66    -0.327217978843E+03   -0.19616E+02   -0.13735E+01 38640   0.634E+00    0.240E+01
DAV:  67    -0.324796936371E+03    0.24210E+01   -0.39370E+00 36080   0.424E+00    0.207E+01
DAV:  68    -0.326677003424E+03   -0.18801E+01   -0.32332E-01 36336   0.172E+00    0.164E+01
DAV:  69    -0.329037653871E+03   -0.23607E+01   -0.12981E+00 37376   0.263E+00    0.163E+01
DAV:  70    -0.329428639001E+03   -0.39099E+00   -0.18477E-01 32288   0.110E+00    0.168E+01
DAV:  71    -0.330830819501E+03   -0.14022E+01   -0.19781E+00 38184   0.399E+00    0.182E+01
DAV:  72    -0.330907299162E+03   -0.76480E-01   -0.42844E-01 35576   0.174E+00    0.171E+01
DAV:  73    -0.331049543593E+03   -0.14224E+00   -0.19375E-01 37816   0.111E+00    0.168E+01
DAV:  74    -0.331156468750E+03   -0.10693E+00   -0.20538E-01 37920   0.119E+00    0.166E+01
DAV:  75    -0.331212257984E+03   -0.55789E-01   -0.97179E-02 36784   0.738E-01    0.165E+01
DAV:  76    -0.330629151793E+03    0.58311E+00   -0.80034E-01 39064   0.235E+00    0.157E+01
DAV:  77    -0.330944198494E+03   -0.31505E+00   -0.31989E-01 38576   0.173E+00    0.160E+01
DAV:  78    -0.331419078773E+03   -0.47488E+00   -0.20274E-01 37568   0.122E+00    0.166E+01
DAV:  79    -0.331552721233E+03   -0.13364E+00   -0.83164E-02 31384   0.677E-01    0.166E+01
DAV:  80    -0.331501405887E+03    0.51315E-01   -0.86915E-02 39088   0.529E-01    0.167E+01
DAV:  81    -0.331501028497E+03    0.37739E-03   -0.34155E-01 41024   0.109E+00    0.153E+01
DAV:  82    -0.331621795604E+03   -0.12077E+00   -0.39492E-02 33616   0.552E-01    0.154E+01
DAV:  83    -0.331631282864E+03   -0.94873E-02   -0.65938E-03 32168   0.179E-01    0.157E+01
DAV:  84    -0.331582180910E+03    0.49102E-01   -0.74612E-03 37568   0.234E-01    0.157E+01
DAV:  85    -0.331587876354E+03   -0.56954E-02   -0.21140E-03 32384   0.847E-02    0.158E+01
DAV:  86    -0.331911362512E+03   -0.32349E+00   -0.24288E-01 39920   0.137E+00    0.181E+01
DAV:  87    -0.332015024061E+03   -0.10366E+00   -0.59977E-02 33944   0.732E-01    0.175E+01
DAV:  88    -0.332057906434E+03   -0.42882E-01   -0.35917E-02 39136   0.401E-01    0.169E+01
DAV:  89    -0.332197300622E+03   -0.13939E+00   -0.17189E-01 39304   0.683E-01    0.157E+01
DAV:  90    -0.332170598286E+03    0.26702E-01   -0.14944E-01 38616   0.623E-01    0.156E+01
DAV:  91    -0.332619503560E+03   -0.44891E+00   -0.13452E+00 40176   0.266E+00    0.134E+01
DAV:  92    -0.332679836722E+03   -0.60333E-01   -0.60710E-01 39736   0.173E+00    0.130E+01
DAV:  93    -0.332814713986E+03   -0.13488E+00   -0.73437E-02 33384   0.653E-01    0.126E+01
DAV:  94    -0.332948559144E+03   -0.13385E+00   -0.27702E-02 39296   0.431E-01    0.125E+01
DAV:  95    -0.333255199525E+03   -0.30664E+00   -0.11847E-01 40496   0.877E-01    0.130E+01
DAV:  96    -0.333145852599E+03    0.10935E+00   -0.32671E-01 40824   0.146E+00    0.125E+01
DAV:  97    -0.333255962969E+03   -0.11011E+00   -0.15592E-01 38664   0.958E-01    0.125E+01
DAV:  98    -0.333084043276E+03    0.17192E+00   -0.18141E-01 39872   0.956E-01    0.132E+01
DAV:  99    -0.333124331361E+03   -0.40288E-01   -0.13165E-02 30824   0.362E-01    0.135E+01
DAV: 100    -0.333109722208E+03    0.14609E-01   -0.19451E-03 35336   0.138E-01    0.137E+01
DAV: 101    -0.332476357014E+03    0.63337E+00   -0.20635E-01 39752   0.150E+00    0.118E+01
DAV: 102    -0.332368074641E+03    0.10828E+00   -0.10109E-01 36200   0.657E-01    0.122E+01
DAV: 103    -0.332398438995E+03   -0.30364E-01   -0.44977E-03 30992   0.223E-01    0.121E+01
DAV: 104    -0.332506891306E+03   -0.10845E+00   -0.14918E-02 37984   0.282E-01    0.118E+01
DAV: 105    -0.332667193473E+03   -0.16030E+00   -0.64033E-02 39520   0.472E-01    0.115E+01
DAV: 106    -0.332793647372E+03   -0.12645E+00   -0.40283E-01 40040   0.147E+00    0.129E+01
DAV: 107    -0.332669958496E+03    0.12369E+00   -0.12676E-01 36672   0.848E-01    0.121E+01
DAV: 108    -0.332746247669E+03   -0.76289E-01   -0.11646E-01 38288   0.682E-01    0.110E+01
DAV: 109    -0.332721979748E+03    0.24268E-01   -0.40355E-02 37512   0.389E-01    0.977E+00
DAV: 110    -0.332734474186E+03   -0.12494E-01   -0.84941E-03 31112   0.217E-01    0.939E+00
DAV: 111    -0.332682328131E+03    0.52146E-01   -0.50870E-01 40120   0.130E+00    0.102E+01
DAV: 112    -0.332840140224E+03   -0.15781E+00   -0.13364E-01 37616   0.790E-01    0.124E+01
DAV: 113    -0.332844858482E+03   -0.47183E-02   -0.76143E-02 36472   0.447E-01    0.126E+01
DAV: 114    -0.332726344387E+03    0.11851E+00   -0.66468E-01 40056   0.109E+00    0.129E+01
DAV: 115    -0.332588447008E+03    0.13790E+00   -0.13200E-01 40168   0.856E-01    0.888E+00
DAV: 116    -0.332535215008E+03    0.53232E-01   -0.38452E-01 39160   0.145E+00    0.102E+01
DAV: 117    -0.332537910609E+03   -0.26956E-02   -0.61927E-02 34456   0.550E-01    0.925E+00
DAV: 118    -0.332589697502E+03   -0.51787E-01   -0.75105E-02 39336   0.499E-01    0.883E+00
DAV: 119    -0.332550049062E+03    0.39648E-01   -0.21753E-01 38208   0.906E-01    0.811E+00
DAV: 120    -0.332723242634E+03   -0.17319E+00   -0.15383E-01 39648   0.712E-01    0.734E+00
DAV: 121    -0.332904340007E+03   -0.18110E+00   -0.93602E-01 39456   0.225E+00    0.111E+01
DAV: 122    -0.332952122452E+03   -0.47782E-01   -0.27462E-01 37976   0.148E+00    0.772E+00
DAV: 123    -0.333014387874E+03   -0.62265E-01   -0.53808E-02 31136   0.710E-01    0.807E+00
DAV: 124    -0.333000954780E+03    0.13433E-01   -0.59729E-03 30688   0.231E-01    0.821E+00
DAV: 125    -0.332968738812E+03    0.32216E-01   -0.40889E-02 40640   0.418E-01    0.737E+00
DAV: 126    -0.333009449392E+03   -0.40711E-01   -0.26866E-01 37240   0.687E-01    0.808E+00
DAV: 127    -0.333036384241E+03   -0.26935E-01   -0.67789E-02 36976   0.369E-01    0.894E+00
DAV: 128    -0.333048721734E+03   -0.12337E-01   -0.37250E-03 30560   0.155E-01    0.917E+00
DAV: 129    -0.333038928696E+03    0.97930E-02   -0.31517E-02 37528   0.374E-01    0.975E+00
DAV: 130    -0.333025653143E+03    0.13276E-01   -0.17265E-01 39144   0.618E-01    0.102E+01
DAV: 131    -0.333055784408E+03   -0.30131E-01   -0.12736E-01 38336   0.627E-01    0.105E+01
DAV: 132    -0.333060037219E+03   -0.42528E-02   -0.69133E-03 30504   0.235E-01    0.105E+01
DAV: 133    -0.333043706867E+03    0.16330E-01   -0.96798E-03 37000   0.202E-01    0.105E+01
DAV: 134    -0.333070733611E+03   -0.27027E-01   -0.16319E-02 37640   0.255E-01    0.105E+01
DAV: 135    -0.333099026219E+03   -0.28293E-01   -0.12395E-01 39576   0.534E-01    0.106E+01
DAV: 136    -0.333134653611E+03   -0.35627E-01   -0.10297E-01 38144   0.649E-01    0.102E+01
DAV: 137    -0.333140940693E+03   -0.62871E-02   -0.81244E-03 33168   0.308E-01    0.104E+01
DAV: 138    -0.333088695905E+03    0.52245E-01   -0.34477E-02 37312   0.460E-01    0.105E+01
DAV: 139    -0.333144341246E+03   -0.55645E-01   -0.26285E-02 36456   0.468E-01    0.102E+01
DAV: 140    -0.333109955514E+03    0.34386E-01   -0.58886E-02 40096   0.650E-01    0.920E+00
DAV: 141    -0.333129742847E+03   -0.19787E-01   -0.52113E-02 37976   0.567E-01    0.828E+00
DAV: 142    -0.333136575978E+03   -0.68331E-02   -0.60385E-02 37360   0.493E-01    0.584E+00
DAV: 143    -0.333163400781E+03   -0.26825E-01   -0.43905E-02 36096   0.531E-01    0.583E+00
DAV: 144    -0.333168354378E+03   -0.49536E-02   -0.81447E-02 39016   0.471E-01    0.704E+00
DAV: 145    -0.333168857479E+03   -0.50310E-03   -0.48986E-03 31736   0.221E-01    0.722E+00
DAV: 146    -0.333111258946E+03    0.57599E-01   -0.11959E-01 38920   0.600E-01    0.638E+00
DAV: 147    -0.333123479701E+03   -0.12221E-01   -0.43602E-02 39088   0.504E-01    0.651E+00
DAV: 148    -0.333137711169E+03   -0.14231E-01   -0.40496E-03 30528   0.181E-01    0.684E+00
DAV: 149    -0.333134498311E+03    0.32129E-02   -0.45426E-04 31400   0.673E-02    0.692E+00
DAV: 150    -0.333151775156E+03   -0.17277E-01   -0.12065E-02 37440   0.239E-01    0.792E+00
DAV: 151    -0.333154507946E+03   -0.27328E-02   -0.13538E-01 38472   0.104E+00    0.683E+00
DAV: 152    -0.333154518501E+03   -0.10554E-04   -0.16755E-02 32080   0.337E-01    0.645E+00
DAV: 153    -0.333153017237E+03    0.15013E-02   -0.20065E-03 32584   0.127E-01    0.635E+00
DAV: 154    -0.333156276679E+03   -0.32594E-02   -0.18349E-03 38328   0.129E-01    0.617E+00
DAV: 155    -0.333170750772E+03   -0.14474E-01   -0.82003E-02 39808   0.541E-01    0.492E+00
DAV: 156    -0.333198376087E+03   -0.27625E-01   -0.72109E-02 39784   0.742E-01    0.560E+00
DAV: 157    -0.333211861607E+03   -0.13486E-01   -0.53284E-02 40120   0.488E-01    0.657E+00
DAV: 158    -0.333200396836E+03    0.11465E-01   -0.47328E-03 31400   0.219E-01    0.692E+00
DAV: 159    -0.333230781333E+03   -0.30384E-01   -0.52476E-02 39424   0.566E-01    0.722E+00
DAV: 160    -0.333250684306E+03   -0.19903E-01   -0.52803E-02 38952   0.577E-01    0.722E+00
DAV: 161    -0.333191499021E+03    0.59185E-01   -0.16022E-01 39240   0.103E+00    0.749E+00
DAV: 162    -0.333215452416E+03   -0.23953E-01   -0.34429E-02 36320   0.537E-01    0.688E+00
DAV: 163    -0.333229709137E+03   -0.14257E-01   -0.12967E-02 34552   0.201E-01    0.730E+00
DAV: 164    -0.333229921868E+03   -0.21273E-03   -0.43079E-03 36000   0.115E-01    0.764E+00
DAV: 165    -0.333219890731E+03    0.10031E-01   -0.15828E-02 40088   0.339E-01    0.713E+00
DAV: 166    -0.333229946289E+03   -0.10056E-01   -0.11189E-01 37536   0.107E+00    0.856E+00
DAV: 167    -0.333260202881E+03   -0.30257E-01   -0.86363E-02 37400   0.748E-01    0.899E+00
DAV: 168    -0.333229979338E+03    0.30224E-01   -0.22663E-02 35896   0.403E-01    0.882E+00
DAV: 169    -0.333221603319E+03    0.83760E-02   -0.14296E-02 40288   0.272E-01    0.812E+00
DAV: 170    -0.333195540212E+03    0.26063E-01   -0.79386E-02 39800   0.530E-01    0.513E+00
DAV: 171    -0.333228208012E+03   -0.32668E-01   -0.65625E-02 38776   0.599E-01    0.405E+00
DAV: 172    -0.333231890760E+03   -0.36827E-02   -0.30884E-02 38552   0.593E-01    0.335E+00
DAV: 173    -0.333236182310E+03   -0.42916E-02   -0.47100E-02 38168   0.421E-01    0.250E+00
DAV: 174    -0.333239966362E+03   -0.37841E-02   -0.11621E-02 36048   0.304E-01    0.264E+00
DAV: 175    -0.333242755832E+03   -0.27895E-02   -0.12015E-02 37360   0.300E-01    0.223E+00
DAV: 176    -0.333246478622E+03   -0.37228E-02   -0.31981E-02 39672   0.459E-01    0.240E+00
DAV: 177    -0.333248739726E+03   -0.22611E-02   -0.15405E-02 36848   0.284E-01    0.219E+00
DAV: 178    -0.333250647974E+03   -0.19082E-02   -0.14280E-03 31520   0.109E-01    0.234E+00
DAV: 179    -0.333249123997E+03    0.15240E-02   -0.28658E-04 31024   0.549E-02    0.231E+00
DAV: 180    -0.333249985645E+03   -0.86165E-03   -0.21262E-04 34544   0.421E-02    0.236E+00
DAV: 181    -0.333248348470E+03    0.16372E-02   -0.13357E-02 40328   0.160E-01    0.214E+00
DAV: 182    -0.333248566944E+03   -0.21847E-03   -0.57927E-03 35736   0.186E-01    0.213E+00
DAV: 183    -0.333250070847E+03   -0.15039E-02   -0.13699E-02 39664   0.198E-01    0.255E+00
DAV: 184    -0.333246931681E+03    0.31392E-02   -0.25706E-03 33616   0.137E-01    0.256E+00
DAV: 185    -0.333245321894E+03    0.16098E-02   -0.11562E-03 39968   0.804E-02    0.243E+00
DAV: 186    -0.333235780390E+03    0.95415E-02   -0.22481E-02 37784   0.340E-01    0.234E+00
DAV: 187    -0.333237388431E+03   -0.16080E-02   -0.66356E-03 36048   0.199E-01    0.230E+00
DAV: 188    -0.333239648025E+03   -0.22596E-02   -0.54935E-03 40200   0.188E-01    0.205E+00
DAV: 189    -0.333241443110E+03   -0.17951E-02   -0.12137E-02 38912   0.182E-01    0.186E+00
DAV: 190    -0.333243748268E+03   -0.23052E-02   -0.22883E-03 34104   0.855E-02    0.185E+00
DAV: 191    -0.333243913074E+03   -0.16481E-03   -0.38064E-03 39752   0.149E-01    0.199E+00
DAV: 192    -0.333243540493E+03    0.37258E-03   -0.17180E-03 37064   0.766E-02    0.202E+00
DAV: 193    -0.333242842494E+03    0.69800E-03   -0.50614E-04 32840   0.620E-02    0.197E+00
DAV: 194    -0.333243064379E+03   -0.22188E-03   -0.33335E-05 22736   0.171E-02    0.196E+00
DAV: 195    -0.333241226374E+03    0.18380E-02   -0.26397E-03 38200   0.973E-02    0.190E+00
DAV: 196    -0.333237528470E+03    0.36979E-02   -0.70711E-02 38488   0.429E-01    0.204E+00
DAV: 197    -0.333241996358E+03   -0.44679E-02   -0.41833E-03 31128   0.143E-01    0.208E+00
DAV: 198    -0.333238712792E+03    0.32836E-02   -0.94700E-03 34720   0.156E-01    0.204E+00
DAV: 199    -0.333238729440E+03   -0.16648E-04   -0.13089E-03 36472   0.467E-02    0.207E+00
DAV: 200    -0.333235273301E+03    0.34561E-02   -0.24675E-02 37104   0.247E-01
   1 F= -.33323527E+03 E0= -.33321547E+03  d E =-.333235E+03  mag=    15.7368
       N       E                     dE             d eps       ncg     rms          rms(c)
DAV:   1    -0.333403294875E+03   -0.16457E+00   -0.77670E-02 32720   0.519E-01    0.197E+00
DAV:   2    -0.333583068729E+03   -0.17977E+00   -0.60729E-01 39656   0.124E+00    0.993E+00
DAV:   3    -0.333441986867E+03    0.14108E+00   -0.59933E-02 33584   0.761E-01    0.681E+00
DAV:   4    -0.333483307885E+03   -0.41321E-01   -0.25686E-01 39080   0.757E-01    0.801E+00
DAV:   5    -0.333390138666E+03    0.93169E-01   -0.11037E-01 38360   0.745E-01    0.552E+00
DAV:   6    -0.333402376889E+03   -0.12238E-01   -0.21526E-02 35896   0.348E-01    0.429E+00
DAV:   7    -0.333414335234E+03   -0.11958E-01   -0.35157E-03 33216   0.149E-01    0.426E+00
DAV:   8    -0.333416730780E+03   -0.23955E-02   -0.11414E-03 34168   0.768E-02    0.421E+00
DAV:   9    -0.333417076560E+03   -0.34578E-03   -0.34301E-04 32576   0.511E-02    0.419E+00
DAV:  10    -0.333418689208E+03   -0.16126E-02   -0.40335E-03 40888   0.146E-01    0.420E+00
DAV:  11    -0.333423833393E+03   -0.51442E-02   -0.20852E-02 40624   0.352E-01    0.449E+00
DAV:  12    -0.333418559008E+03    0.52744E-02   -0.63447E-02 39888   0.579E-01    0.466E+00
DAV:  13    -0.333408177148E+03    0.10382E-01   -0.27927E-02 39464   0.440E-01    0.390E+00
DAV:  14    -0.333404041123E+03    0.41360E-02   -0.15723E-02 39152   0.295E-01    0.377E+00
DAV:  15    -0.333405825965E+03   -0.17848E-02   -0.11824E-03 30432   0.988E-02    0.379E+00
DAV:  16    -0.333400697058E+03    0.51289E-02   -0.65666E-02 39880   0.560E-01    0.589E+00
DAV:  17    -0.333384015903E+03    0.16681E-01   -0.89860E-02 39824   0.685E-01    0.616E+00
DAV:  18    -0.333364488412E+03    0.19527E-01   -0.28682E-02 34392   0.458E-01    0.457E+00
DAV:  19    -0.333377641423E+03   -0.13153E-01   -0.75726E-03 40384   0.237E-01    0.559E+00
DAV:  20    -0.333366332815E+03    0.11309E-01   -0.11443E-02 38768   0.182E-01    0.529E+00
DAV:  21    -0.333362096898E+03    0.42359E-02   -0.70654E-03 40048   0.151E-01    0.491E+00
DAV:  22    -0.333352880905E+03    0.92160E-02   -0.61319E-03 36416   0.152E-01    0.436E+00
DAV:  23    -0.333358667731E+03   -0.57868E-02   -0.16073E-03 33392   0.900E-02    0.443E+00
DAV:  24    -0.333360645717E+03   -0.19780E-02   -0.13597E-04 29968   0.318E-02    0.438E+00
DAV:  25    -0.333385710255E+03   -0.25065E-01   -0.71120E-02 39784   0.448E-01    0.568E+00
DAV:  26    -0.333376884332E+03    0.88259E-02   -0.14505E-02 35880   0.239E-01    0.576E+00
DAV:  27    -0.333369180228E+03    0.77041E-02   -0.66132E-03 40120   0.122E-01    0.554E+00
DAV:  28    -0.333352314972E+03    0.16865E-01   -0.30687E-02 40160   0.234E-01    0.364E+00
DAV:  29    -0.333370694088E+03   -0.18379E-01   -0.10820E-02 37728   0.312E-01    0.288E+00
DAV:  30    -0.333374018171E+03   -0.33241E-02   -0.38857E-02 38704   0.326E-01    0.326E+00
DAV:  31    -0.333383846530E+03   -0.98284E-02   -0.16525E-02 35464   0.162E-01    0.420E+00
DAV:  32    -0.333379576496E+03    0.42700E-02   -0.25962E-03 29968   0.115E-01    0.476E+00
DAV:  33    -0.333380317117E+03   -0.74062E-03   -0.16169E-02 38704   0.135E-01    0.540E+00
DAV:  34    -0.333364049899E+03    0.16267E-01   -0.33961E-02 38592   0.189E-01    0.507E+00
DAV:  35    -0.333358371566E+03    0.56783E-02   -0.46811E-03 31512   0.115E-01    0.396E+00
DAV:  36    -0.333365199900E+03   -0.68283E-02   -0.43640E-03 36752   0.136E-01    0.287E+00
DAV:  37    -0.333376467295E+03   -0.11267E-01   -0.60163E-03 33408   0.143E-01    0.246E+00
DAV:  38    -0.333385080201E+03   -0.86129E-02   -0.63447E-03 34576   0.967E-02    0.321E+00
DAV:  39    -0.333378752282E+03    0.63279E-02   -0.15558E-03 33016   0.825E-02    0.291E+00
DAV:  40    -0.333377182193E+03    0.15701E-02   -0.39426E-03 39088   0.824E-02    0.260E+00
DAV:  41    -0.333377072280E+03    0.10991E-03   -0.39765E-03 36024   0.909E-02    0.194E+00
DAV:  42    -0.333381627103E+03   -0.45548E-02   -0.40300E-03 35472   0.879E-02    0.210E+00
DAV:  43    -0.333381725569E+03   -0.98466E-04   -0.45881E-04 32184   0.364E-02    0.207E+00
DAV:  44    -0.333380947053E+03    0.77852E-03   -0.27739E-03 35224   0.875E-02    0.208E+00
DAV:  45    -0.333382424555E+03   -0.14775E-02   -0.20395E-03 38048   0.510E-02    0.251E+00
DAV:  46    -0.333380719049E+03    0.17055E-02   -0.30403E-04 29760   0.409E-02    0.257E+00
DAV:  47    -0.333378698976E+03    0.20201E-02   -0.14189E-03 37520   0.914E-02    0.252E+00
DAV:  48    -0.333377862974E+03    0.83600E-03   -0.61946E-04 36352   0.416E-02    0.227E+00
DAV:  49    -0.333375122623E+03    0.27404E-02   -0.88520E-03 37448   0.115E-01    0.112E+00
DAV:  50    -0.333378524940E+03   -0.34023E-02   -0.10822E-02 32888   0.159E-01    0.130E+00
DAV:  51    -0.333377659278E+03    0.86566E-03   -0.48295E-03 38376   0.705E-02    0.115E+00
DAV:  52    -0.333379172987E+03   -0.15137E-02   -0.21350E-03 31720   0.935E-02    0.106E+00
DAV:  53    -0.333379507024E+03   -0.33404E-03   -0.10244E-02 35352   0.116E-01    0.911E-01
DAV:  54    -0.333381042003E+03   -0.15350E-02   -0.16610E-02 38432   0.119E-01    0.106E+00
DAV:  55    -0.333382483474E+03   -0.14415E-02   -0.21735E-02 37448   0.142E-01    0.120E+00
DAV:  56    -0.333382717703E+03   -0.23423E-03   -0.20441E-02 38784   0.140E-01    0.809E-01
DAV:  57    -0.333381092635E+03    0.16251E-02   -0.57382E-02 38424   0.265E-01    0.918E-01
DAV:  58    -0.333387055435E+03   -0.59628E-02   -0.46704E-03 29952   0.181E-01    0.114E+00
DAV:  59    -0.333385833065E+03    0.12224E-02   -0.14005E-03 34256   0.943E-02    0.105E+00
DAV:  60    -0.333386005665E+03   -0.17260E-03   -0.11618E-04 29504   0.325E-02    0.105E+00
DAV:  61    -0.333385927459E+03    0.78206E-04   -0.32888E-03 36008   0.716E-02    0.113E+00
DAV:  62    -0.333383875298E+03    0.20522E-02   -0.70388E-03 35848   0.116E-01    0.102E+00
DAV:  63    -0.333384789251E+03   -0.91395E-03   -0.55797E-03 32280   0.135E-01    0.132E+00
DAV:  64    -0.333385115745E+03   -0.32649E-03   -0.45995E-04 29712   0.615E-02    0.142E+00
DAV:  65    -0.333379853557E+03    0.52622E-02   -0.27334E-02 35280   0.227E-01    0.157E+00
DAV:  66    -0.333382703440E+03   -0.28499E-02   -0.14176E-03 29984   0.103E-01    0.154E+00
DAV:  67    -0.333382179565E+03    0.52387E-03   -0.83837E-03 36144   0.140E-01    0.190E+00
DAV:  68    -0.333383389304E+03   -0.12097E-02   -0.25780E-03 31488   0.113E-01    0.179E+00
DAV:  69    -0.333384701318E+03   -0.13120E-02   -0.22915E-03 35944   0.642E-02    0.166E+00
DAV:  70    -0.333386577337E+03   -0.18760E-02   -0.36795E-03 35744   0.664E-02    0.147E+00
DAV:  71    -0.333388055353E+03   -0.14780E-02   -0.18672E-03 33400   0.542E-02    0.152E+00
DAV:  72    -0.333387771345E+03    0.28401E-03   -0.10339E-02 34032   0.151E-01    0.138E+00
DAV:  73    -0.333389588951E+03   -0.18176E-02   -0.57267E-03 34408   0.164E-01    0.173E+00
DAV:  74    -0.333388785082E+03    0.80387E-03   -0.25916E-04 29648   0.481E-02    0.176E+00
DAV:  75    -0.333386094915E+03    0.26902E-02   -0.23228E-03 35936   0.810E-02    0.149E+00
DAV:  76    -0.333387619330E+03   -0.15244E-02   -0.37393E-03 39528   0.104E-01    0.185E+00
DAV:  77    -0.333386114679E+03    0.15047E-02   -0.22686E-03 35888   0.100E-01    0.191E+00
DAV:  78    -0.333386138151E+03   -0.23473E-04   -0.51065E-04 31792   0.406E-02    0.191E+00
DAV:  79    -0.333386552427E+03   -0.41428E-03   -0.65882E-04 31496   0.494E-02    0.192E+00
DAV:  80    -0.333385526385E+03    0.10260E-02   -0.41560E-03 35048   0.768E-02    0.186E+00
DAV:  81    -0.333385807469E+03   -0.28108E-03   -0.46857E-03 37712   0.660E-02    0.183E+00
DAV:  82    -0.333385819527E+03   -0.12058E-04   -0.64298E-03 33344   0.132E-01    0.190E+00
DAV:  83    -0.333384761502E+03    0.10580E-02   -0.33335E-03 36672   0.622E-02    0.192E+00
DAV:  84    -0.333385079111E+03   -0.31761E-03   -0.14809E-03 32440   0.423E-02    0.191E+00
DAV:  85    -0.333385469254E+03   -0.39014E-03   -0.71738E-04 30712   0.601E-02    0.181E+00
DAV:  86    -0.333385932681E+03   -0.46343E-03   -0.90031E-05 25000   0.144E-02    0.179E+00
DAV:  87    -0.333386550980E+03   -0.61830E-03   -0.26979E-02 35992   0.222E-01    0.168E+00
DAV:  88    -0.333389123089E+03   -0.25721E-02   -0.18702E-03 30032   0.108E-01    0.170E+00
DAV:  89    -0.333388851070E+03    0.27202E-03   -0.56464E-05 27888   0.209E-02    0.170E+00
DAV:  90    -0.333388545208E+03    0.30586E-03   -0.16847E-03 34320   0.565E-02    0.173E+00
DAV:  91    -0.333388757910E+03   -0.21270E-03   -0.50053E-04 31616   0.458E-02    0.181E+00
DAV:  92    -0.333388720625E+03    0.37285E-04   -0.15999E-02 35144   0.167E-01    0.190E+00
DAV:  93    -0.333389921251E+03   -0.12006E-02   -0.29891E-03 33288   0.109E-01    0.172E+00
DAV:  94    -0.333390525312E+03   -0.60406E-03   -0.29425E-04 29760   0.425E-02    0.171E+00
DAV:  95    -0.333390569536E+03   -0.44224E-04   -0.20526E-04 29376   0.238E-02    0.166E+00
DAV:  96    -0.333391651262E+03   -0.10817E-02   -0.86413E-03 37032   0.108E-01    0.186E+00
DAV:  97    -0.333390705849E+03    0.94541E-03   -0.23569E-02 35376   0.193E-01    0.209E+00
DAV:  98    -0.333389177817E+03    0.15280E-02   -0.61531E-03 31272   0.164E-01    0.192E+00
DAV:  99    -0.333388163955E+03    0.10139E-02   -0.26020E-03 36160   0.683E-02    0.165E+00
DAV: 100    -0.333388107703E+03    0.56252E-04   -0.29024E-03 33936   0.976E-02    0.114E+00
DAV: 101    -0.333391049894E+03   -0.29422E-02   -0.84205E-04 30544   0.771E-02    0.113E+00
DAV: 102    -0.333391116393E+03   -0.66499E-04   -0.18129E-03 34424   0.889E-02    0.118E+00
DAV: 103    -0.333390934526E+03    0.18187E-03   -0.11934E-03 36784   0.560E-02    0.110E+00
DAV: 104    -0.333391852451E+03   -0.91793E-03   -0.41077E-03 38712   0.959E-02    0.111E+00
DAV: 105    -0.333388656147E+03    0.31963E-02   -0.70052E-02 36784   0.300E-01    0.184E+00
DAV: 106    -0.333392618373E+03   -0.39622E-02   -0.12054E-02 33088   0.161E-01    0.242E+00
DAV: 107    -0.333385978476E+03    0.66399E-02   -0.11335E-02 33184   0.170E-01    0.189E+00
DAV: 108    -0.333387295021E+03   -0.13165E-02   -0.40898E-03 34216   0.906E-02    0.184E+00
DAV: 109    -0.333387682332E+03   -0.38731E-03   -0.18034E-03 33712   0.532E-02    0.184E+00
DAV: 110    -0.333387203890E+03    0.47844E-03   -0.51316E-03 37632   0.708E-02    0.201E+00
DAV: 111    -0.333385038670E+03    0.21652E-02   -0.69304E-03 36184   0.952E-02    0.183E+00
DAV: 112    -0.333383090105E+03    0.19486E-02   -0.13361E-02 37288   0.131E-01    0.103E+00
DAV: 113    -0.333387438576E+03   -0.43485E-02   -0.17294E-03 30096   0.101E-01    0.872E-01
DAV: 114    -0.333388184836E+03   -0.74626E-03   -0.29597E-04 29320   0.487E-02    0.842E-01
DAV: 115    -0.333388419396E+03   -0.23456E-03   -0.18367E-03 36832   0.521E-02    0.752E-01
DAV: 116    -0.333388937142E+03   -0.51775E-03   -0.78065E-04 31456   0.468E-02    0.821E-01
DAV: 117    -0.333385695655E+03    0.32415E-02   -0.12669E-02 34880   0.179E-01    0.102E+00
DAV: 118    -0.333385190701E+03    0.50495E-03   -0.29949E-03 34600   0.832E-02    0.995E-01
DAV: 119    -0.333385684350E+03   -0.49365E-03   -0.29531E-04 30112   0.421E-02    0.998E-01
DAV: 120    -0.333385584990E+03    0.99360E-04   -0.12490E-03 34152   0.671E-02    0.107E+00
DAV: 121    -0.333385940793E+03   -0.35580E-03   -0.26934E-03 33920   0.764E-02    0.107E+00
DAV: 122    -0.333384155620E+03    0.17852E-02   -0.22465E-02 36864   0.174E-01    0.114E+00
DAV: 123    -0.333386512214E+03   -0.23566E-02   -0.12780E-03 29744   0.101E-01    0.115E+00
DAV: 124    -0.333386511541E+03    0.67348E-06   -0.37893E-05 23688   0.169E-02
   2 F= -.33338651E+03 E0= -.33336175E+03  d E =-.151238E+00  mag=    15.4277
       N       E                     dE             d eps       ncg     rms          rms(c)
DAV:   1    -0.336365774093E+03   -0.29793E+01   -0.41801E+01 31600   0.105E+01    0.352E+00
DAV:   2    -0.337781858056E+03   -0.14161E+01   -0.91700E+00 37928   0.457E+00    0.208E+01
DAV:   3    -0.336435723752E+03    0.13461E+01   -0.27933E+00 41544   0.322E+00    0.881E+00
DAV:   4    -0.336527728224E+03   -0.92004E-01   -0.16254E-01 36056   0.100E+00    0.545E+00
DAV:   5    -0.336559585867E+03   -0.31858E-01   -0.15708E-02 31280   0.385E-01    0.673E+00
DAV:   6    -0.336535715286E+03    0.23871E-01   -0.53822E-02 40880   0.631E-01    0.719E+00
DAV:   7    -0.336529384473E+03    0.63308E-02   -0.13907E-01 40736   0.906E-01    0.600E+00
DAV:   8    -0.336522707446E+03    0.66770E-02   -0.10629E-01 39928   0.874E-01    0.336E+00
DAV:   9    -0.336564768984E+03   -0.42062E-01   -0.12846E-01 39344   0.862E-01    0.597E+00
DAV:  10    -0.336528981701E+03    0.35787E-01   -0.20472E-01 39744   0.826E-01    0.323E+00
DAV:  11    -0.336545713790E+03   -0.16732E-01   -0.41514E-02 35848   0.588E-01    0.307E+00
DAV:  12    -0.336546542776E+03   -0.82899E-03   -0.21876E-02 39272   0.404E-01    0.299E+00
DAV:  13    -0.336545066349E+03    0.14764E-02   -0.16073E-02 39320   0.302E-01    0.290E+00
DAV:  14    -0.336545218610E+03   -0.15226E-03   -0.95924E-03 40360   0.286E-01    0.252E+00
DAV:  15    -0.336551671206E+03   -0.64526E-02   -0.29209E-02 40760   0.433E-01    0.348E+00
DAV:  16    -0.336546097451E+03    0.55738E-02   -0.43976E-02 40008   0.534E-01    0.265E+00
DAV:  17    -0.336542611819E+03    0.34856E-02   -0.18273E-02 40192   0.434E-01    0.271E+00
DAV:  18    -0.336541845127E+03    0.76669E-03   -0.22541E-02 39864   0.487E-01    0.264E+00
DAV:  19    -0.336538370458E+03    0.34747E-02   -0.82019E-03 38560   0.319E-01    0.279E+00
DAV:  20    -0.336534313334E+03    0.40571E-02   -0.41864E-03 39480   0.209E-01    0.285E+00
DAV:  21    -0.336527895830E+03    0.64175E-02   -0.64820E-03 39696   0.177E-01    0.239E+00
DAV:  22    -0.336525213914E+03    0.26819E-02   -0.84221E-03 39096   0.164E-01    0.183E+00
DAV:  23    -0.336530934202E+03   -0.57203E-02   -0.23799E-02 37432   0.219E-01    0.101E+00
DAV:  24    -0.336535561470E+03   -0.46273E-02   -0.11339E-02 36808   0.217E-01    0.917E-01
DAV:  25    -0.336537045909E+03   -0.14844E-02   -0.46379E-03 39008   0.119E-01    0.799E-01
DAV:  26    -0.336538091274E+03   -0.10454E-02   -0.52496E-03 38416   0.113E-01    0.970E-01
DAV:  27    -0.336537832646E+03    0.25863E-03   -0.22086E-03 35888   0.729E-02    0.743E-01
DAV:  28    -0.336538313673E+03   -0.48103E-03   -0.16105E-03 36304   0.628E-02    0.594E-01
DAV:  29    -0.336538940522E+03   -0.62685E-03   -0.74645E-04 34792   0.604E-02    0.628E-01
DAV:  30    -0.336539161788E+03   -0.22127E-03   -0.38784E-04 34656   0.338E-02    0.716E-01
DAV:  31    -0.336538843086E+03    0.31870E-03   -0.14662E-04 29040   0.352E-02    0.757E-01
DAV:  32    -0.336538695769E+03    0.14732E-03   -0.84868E-03 35864   0.170E-01    0.586E-01
DAV:  33    -0.336539191825E+03   -0.49606E-03   -0.38000E-03 37448   0.794E-02    0.587E-01
DAV:  34    -0.336539796292E+03   -0.60447E-03   -0.80155E-04 32624   0.469E-02    0.563E-01
DAV:  35    -0.336540008676E+03   -0.21238E-03   -0.17149E-04 30040   0.270E-02    0.565E-01
DAV:  36    -0.336539382299E+03    0.62638E-03   -0.85052E-04 32808   0.597E-02    0.491E-01
DAV:  37    -0.336539022891E+03    0.35941E-03   -0.11512E-03 35112   0.457E-02    0.393E-01
DAV:  38    -0.336539403869E+03   -0.38098E-03   -0.19657E-04 29224   0.271E-02    0.342E-01
DAV:  39    -0.336539480988E+03   -0.77119E-04   -0.36945E-04 31368   0.348E-02    0.354E-01
DAV:  40    -0.336539816806E+03   -0.33582E-03   -0.17277E-04 34128   0.433E-02    0.459E-01
DAV:  41    -0.336539422012E+03    0.39479E-03   -0.60949E-04 33032   0.470E-02    0.514E-01
DAV:  42    -0.336538990390E+03    0.43162E-03   -0.88182E-04 33560   0.403E-02    0.439E-01
DAV:  43    -0.336538578367E+03    0.41202E-03   -0.18229E-03 36704   0.556E-02    0.431E-01
DAV:  44    -0.336538380114E+03    0.19825E-03   -0.18863E-03 35608   0.461E-02    0.466E-01
DAV:  45    -0.336539029459E+03   -0.64935E-03   -0.37676E-04 29640   0.571E-02    0.420E-01
DAV:  46    -0.336539077549E+03   -0.48090E-04   -0.31299E-04 31008   0.279E-02    0.365E-01
DAV:  47    -0.336538742086E+03    0.33546E-03   -0.47040E-03 35264   0.964E-02    0.173E-01
DAV:  48    -0.336539469764E+03   -0.72768E-03   -0.14842E-03 34232   0.482E-02    0.974E-02
DAV:  49    -0.336539862142E+03   -0.39238E-03   -0.19875E-04 28392   0.456E-02    0.111E-01
DAV:  50    -0.336539910236E+03   -0.48094E-04   -0.34919E-05 22280   0.126E-02    0.109E-01
DAV:  51    -0.336540052410E+03   -0.14217E-03   -0.53094E-04 32440   0.368E-02    0.974E-02
DAV:  52    -0.336540157095E+03   -0.10468E-03   -0.32332E-04 28008   0.249E-02    0.103E-01
DAV:  53    -0.336540260970E+03   -0.10387E-03   -0.16221E-04 27248   0.185E-02    0.107E-01
DAV:  54    -0.336540193570E+03    0.67400E-04   -0.26144E-05 24960   0.172E-02    0.120E-01
DAV:  55    -0.336540380958E+03   -0.18739E-03   -0.34739E-04 30800   0.296E-02    0.109E-01
DAV:  56    -0.336540508804E+03   -0.12785E-03   -0.79684E-04 33448   0.365E-02    0.100E-01
DAV:  57    -0.336540691491E+03   -0.18269E-03   -0.62132E-04 29616   0.265E-02    0.109E-01
DAV:  58    -0.336540748068E+03   -0.56577E-04   -0.86842E-05 27824   0.259E-02    0.130E-01
DAV:  59    -0.336540419763E+03    0.32830E-03   -0.20589E-04 30512   0.309E-02    0.148E-01
DAV:  60    -0.336540569354E+03   -0.14959E-03   -0.14296E-05 21232   0.120E-02    0.138E-01
DAV:  61    -0.336540720678E+03   -0.15132E-03   -0.97540E-05 24656   0.165E-02    0.133E-01
DAV:  62    -0.336540875830E+03   -0.15515E-03   -0.33791E-04 29960   0.246E-02    0.128E-01
DAV:  63    -0.336540981418E+03   -0.10559E-03   -0.23519E-04 26112   0.156E-02    0.133E-01
DAV:  64    -0.336540766349E+03    0.21507E-03   -0.11030E-04 28888   0.292E-02    0.155E-01
DAV:  65    -0.336540795307E+03   -0.28958E-04   -0.19084E-06 17752   0.400E-03    0.151E-01
DAV:  66    -0.336540827425E+03   -0.32118E-04   -0.22220E-06 16288   0.323E-03    0.149E-01
DAV:  67    -0.336540906962E+03   -0.79537E-04   -0.35655E-05 19112   0.910E-03    0.147E-01
DAV:  68    -0.336540789350E+03    0.11761E-03   -0.21167E-05 20648   0.111E-02    0.148E-01
DAV:  69    -0.336540939052E+03   -0.14970E-03   -0.66993E-05 23056   0.159E-02    0.126E-01
DAV:  70    -0.336541112291E+03   -0.17324E-03   -0.24454E-04 29760   0.247E-02    0.116E-01
DAV:  71    -0.336541281230E+03   -0.16894E-03   -0.12875E-03 34344   0.491E-02    0.988E-02
DAV:  72    -0.336541260615E+03    0.20615E-04   -0.17028E-04 28344   0.425E-02    0.135E-01
DAV:  73    -0.336541303010E+03   -0.42396E-04   -0.15655E-05 19104   0.711E-03    0.130E-01
DAV:  74    -0.336541264629E+03    0.38381E-04   -0.19488E-06 16456   0.491E-03    0.134E-01
DAV:  75    -0.336541182360E+03    0.82269E-04   -0.15641E-05 17608   0.761E-03    0.139E-01
DAV:  76    -0.336541027008E+03    0.15535E-03   -0.84910E-05 23216   0.138E-02    0.147E-01
DAV:  77    -0.336540963270E+03    0.63738E-04   -0.69869E-05 21592   0.887E-03    0.148E-01
DAV:  78    -0.336541098768E+03   -0.13550E-03   -0.12676E-05 20864   0.114E-02    0.138E-01
DAV:  79    -0.336540838665E+03    0.26010E-03   -0.16134E-04 27352   0.212E-02    0.151E-01
DAV:  80    -0.336541127460E+03   -0.28880E-03   -0.89917E-05 27824   0.232E-02    0.132E-01
DAV:  81    -0.336541347018E+03   -0.21956E-03   -0.22992E-03 34248   0.762E-02    0.965E-02
DAV:  82    -0.336541596262E+03   -0.24924E-03   -0.18305E-04 28792   0.356E-02    0.129E-01
DAV:  83    -0.336541493909E+03    0.10235E-03   -0.22508E-05 23704   0.161E-02    0.140E-01
DAV:  84    -0.336541505607E+03   -0.11698E-04   -0.32421E-06 16792   0.331E-03    0.139E-01
DAV:  85    -0.336541534149E+03   -0.28542E-04   -0.69754E-06 16840   0.326E-03    0.139E-01
DAV:  86    -0.336541584228E+03   -0.50079E-04   -0.18407E-05 18432   0.516E-03    0.138E-01
DAV:  87    -0.336541613472E+03   -0.29244E-04   -0.16714E-05 17528   0.401E-03    0.142E-01
DAV:  88    -0.336541683050E+03   -0.69578E-04   -0.40167E-05 18856   0.783E-03    0.139E-01
DAV:  89    -0.336541562676E+03    0.12037E-03   -0.21027E-05 21176   0.124E-02    0.148E-01
DAV:  90    -0.336541571862E+03   -0.91866E-05   -0.12564E-06 15568   0.270E-03
   3 F= -.33654157E+03 E0= -.33651648E+03  d E =-.315506E+01  mag=    15.4016
       N       E                     dE             d eps       ncg     rms          rms(c)
DAV:   1    -0.338355513941E+03   -0.18140E+01   -0.95296E+01 32040   0.198E+01    0.407E+00
DAV:   2    -0.339812783788E+03   -0.14573E+01   -0.95620E+00 36688   0.565E+00    0.206E+01
DAV:   3    -0.338804344210E+03    0.10084E+01   -0.29870E+00 41048   0.366E+00    0.902E+00
DAV:   4    -0.338839693452E+03   -0.35349E-01   -0.17810E-01 35912   0.114E+00    0.772E+00
DAV:   5    -0.338842654545E+03   -0.29611E-02   -0.15624E-02 31584   0.385E-01    0.784E+00
DAV:   6    -0.338814412476E+03    0.28242E-01   -0.45221E-02 41440   0.314E-01    0.778E+00
DAV:   7    -0.338797278811E+03    0.17134E-01   -0.12871E-02 36072   0.299E-01    0.714E+00
DAV:   8    -0.338797292122E+03   -0.13311E-04   -0.24546E-02 40160   0.364E-01    0.697E+00
DAV:   9    -0.338836625414E+03   -0.39333E-01   -0.17610E-01 40056   0.974E-01    0.913E+00
DAV:  10    -0.338745883626E+03    0.90742E-01   -0.20448E-01 40216   0.114E+00    0.402E+00
DAV:  11    -0.338827211269E+03   -0.81328E-01   -0.11906E-01 40008   0.104E+00    0.692E+00
DAV:  12    -0.338780881264E+03    0.46330E-01   -0.18044E-01 40352   0.908E-01    0.372E+00
DAV:  13    -0.338803889668E+03   -0.23008E-01   -0.71699E-02 36976   0.780E-01    0.321E+00
DAV:  14    -0.338802972543E+03    0.91713E-03   -0.16606E-02 37888   0.487E-01    0.271E+00
DAV:  15    -0.338812688550E+03   -0.97160E-02   -0.19574E-02 40704   0.416E-01    0.347E+00
DAV:  16    -0.338808080673E+03    0.46079E-02   -0.23098E-02 39512   0.405E-01    0.259E+00
DAV:  17    -0.338813709338E+03   -0.56287E-02   -0.11049E-02 39896   0.332E-01    0.284E+00
DAV:  18    -0.338814615126E+03   -0.90579E-03   -0.11917E-02 39832   0.411E-01    0.258E+00
DAV:  19    -0.338815343530E+03   -0.72840E-03   -0.17389E-02 39088   0.323E-01    0.208E+00
DAV:  20    -0.338818013100E+03   -0.26696E-02   -0.12329E-02 40744   0.318E-01    0.228E+00
DAV:  21    -0.338811040550E+03    0.69725E-02   -0.12196E-02 40048   0.299E-01    0.206E+00
DAV:  22    -0.338801581134E+03    0.94594E-02   -0.71164E-03 40864   0.226E-01    0.202E+00
DAV:  23    -0.338793141738E+03    0.84394E-02   -0.49479E-03 38376   0.157E-01    0.228E+00
DAV:  24    -0.338786734320E+03    0.64074E-02   -0.48284E-03 36432   0.105E-01    0.199E+00
DAV:  25    -0.338788106147E+03   -0.13718E-02   -0.19759E-02 39456   0.157E-01    0.147E+00
DAV:  26    -0.338795026398E+03   -0.69203E-02   -0.92488E-03 33680   0.176E-01    0.155E+00
DAV:  27    -0.338794987383E+03    0.39015E-04   -0.61246E-04 30104   0.672E-02    0.163E+00
DAV:  28    -0.338795073940E+03   -0.86557E-04   -0.23607E-04 33536   0.361E-02    0.164E+00
DAV:  29    -0.338791983367E+03    0.30906E-02   -0.53146E-03 38856   0.122E-01    0.937E-01
DAV:  30    -0.338795050073E+03   -0.30667E-02   -0.70656E-03 36728   0.164E-01    0.727E-01
DAV:  31    -0.338795857557E+03   -0.80748E-03   -0.18067E-03 32776   0.124E-01    0.608E-01
DAV:  32    -0.338796020015E+03   -0.16246E-03   -0.16504E-03 37768   0.596E-02    0.701E-01
DAV:  33    -0.338796194189E+03   -0.17417E-03   -0.64550E-04 31888   0.574E-02    0.863E-01
DAV:  34    -0.338796629663E+03   -0.43547E-03   -0.47408E-04 33248   0.516E-02    0.103E+00
DAV:  35    -0.338796137584E+03    0.49208E-03   -0.32930E-04 33104   0.433E-02    0.954E-01
DAV:  36    -0.338795966865E+03    0.17072E-03   -0.11398E-04 29048   0.243E-02    0.891E-01
DAV:  37    -0.338796119646E+03   -0.15278E-03   -0.38004E-05 23736   0.164E-02    0.898E-01
DAV:  38    -0.338796110474E+03    0.91719E-05   -0.77787E-06 17520   0.737E-03
   4 F= -.33879611E+03 E0= -.33877305E+03  d E =-.225454E+01  mag=    15.4052
       N       E                     dE             d eps       ncg     rms          rms(c)
DAV:   1    -0.339455593575E+03   -0.65947E+00   -0.11127E+02 33056   0.259E+01    0.403E+00
DAV:   2    -0.340893327536E+03   -0.14377E+01   -0.83709E+00 36944   0.620E+00    0.222E+01
DAV:   3    -0.339899325525E+03    0.99400E+00   -0.11381E+00 40096   0.369E+00    0.475E+00
DAV:   4    -0.340071054374E+03   -0.17173E+00   -0.38401E-01 38296   0.144E+00    0.665E+00
DAV:   5    -0.340023013232E+03    0.48041E-01   -0.11595E-01 38584   0.956E-01    0.331E+00
DAV:   6    -0.340034996863E+03   -0.11984E-01   -0.30561E-02 37784   0.551E-01    0.266E+00
DAV:   7    -0.340040539066E+03   -0.55422E-02   -0.13014E-02 39536   0.310E-01    0.238E+00
DAV:   8    -0.340054409557E+03   -0.13870E-01   -0.23248E-02 40640   0.418E-01    0.278E+00
DAV:   9    -0.340089635605E+03   -0.35226E-01   -0.14116E-01 41496   0.721E-01    0.486E+00
DAV:  10    -0.340069046896E+03    0.20589E-01   -0.83505E-02 39448   0.600E-01    0.354E+00
DAV:  11    -0.340064242131E+03    0.48048E-02   -0.69967E-03 32008   0.221E-01    0.315E+00
DAV:  12    -0.340065967617E+03   -0.17255E-02   -0.93857E-04 34048   0.869E-02    0.329E+00
DAV:  13    -0.340065363934E+03    0.60368E-03   -0.41347E-03 40536   0.184E-01    0.364E+00
DAV:  14    -0.340064210909E+03    0.11530E-02   -0.58587E-04 30320   0.717E-02    0.367E+00
DAV:  15    -0.340063995300E+03    0.21561E-03   -0.12606E-04 31392   0.321E-02    0.370E+00
DAV:  16    -0.340075894986E+03   -0.11900E-01   -0.93531E-03 41176   0.221E-01    0.453E+00
DAV:  17    -0.340068132883E+03    0.77621E-02   -0.43490E-03 36936   0.211E-01    0.413E+00
DAV:  18    -0.340078349178E+03   -0.10216E-01   -0.27721E-02 41008   0.547E-01    0.417E+00
DAV:  19    -0.340063626136E+03    0.14723E-01   -0.91158E-02 40304   0.722E-01    0.270E+00
DAV:  20    -0.340075448474E+03   -0.11822E-01   -0.99616E-02 40296   0.719E-01    0.372E+00
DAV:  21    -0.340069367617E+03    0.60809E-02   -0.12124E-02 30240   0.276E-01    0.432E+00
DAV:  22    -0.340079096455E+03   -0.97288E-02   -0.46526E-02 40968   0.451E-01    0.625E+00
DAV:  23    -0.340062231358E+03    0.16865E-01   -0.88108E-03 33792   0.268E-01    0.653E+00
DAV:  24    -0.340056611574E+03    0.56198E-02   -0.11275E-02 41192   0.233E-01    0.682E+00
DAV:  25    -0.340048489466E+03    0.81221E-02   -0.34556E-03 35560   0.174E-01    0.663E+00
DAV:  26    -0.340058533720E+03   -0.10044E-01   -0.51910E-03 39536   0.111E-01    0.692E+00
DAV:  27    -0.340052691328E+03    0.58424E-02   -0.75026E-04 31584   0.815E-02    0.691E+00
DAV:  28    -0.340081519905E+03   -0.28829E-01   -0.31597E-02 38608   0.291E-01    0.753E+00
DAV:  29    -0.340110468203E+03   -0.28948E-01   -0.28786E-02 41152   0.291E-01    0.749E+00
DAV:  30    -0.340115540311E+03   -0.50721E-02   -0.17449E-03 30288   0.124E-01    0.744E+00
DAV:  31    -0.340131695152E+03   -0.16155E-01   -0.24600E-03 40120   0.136E-01    0.725E+00
DAV:  32    -0.340135720131E+03   -0.40250E-02   -0.25957E-03 40680   0.169E-01    0.698E+00
DAV:  33    -0.340144686349E+03   -0.89662E-02   -0.13798E-03 30608   0.120E-01    0.689E+00
DAV:  34    -0.340147496487E+03   -0.28101E-02   -0.15737E-03 37216   0.154E-01    0.711E+00
DAV:  35    -0.340148153757E+03   -0.65727E-03   -0.33536E-04 30464   0.565E-02    0.711E+00
DAV:  36    -0.340148322709E+03   -0.16895E-03   -0.17584E-04 38848   0.551E-02    0.704E+00
DAV:  37    -0.340158175403E+03   -0.98527E-02   -0.41242E-03 41144   0.212E-01    0.677E+00
DAV:  38    -0.340185007193E+03   -0.26832E-01   -0.11281E-02 38664   0.263E-01    0.647E+00
DAV:  39    -0.340216490379E+03   -0.31483E-01   -0.12803E-02 41008   0.334E-01    0.686E+00
DAV:  40    -0.340214728410E+03    0.17620E-02   -0.53777E-03 32160   0.202E-01    0.724E+00
DAV:  41    -0.340208299603E+03    0.64288E-02   -0.76207E-04 32352   0.760E-02    0.753E+00
DAV:  42    -0.340202225205E+03    0.60744E-02   -0.38130E-04 34640   0.676E-02    0.774E+00
DAV:  43    -0.340203222371E+03   -0.99717E-03   -0.92524E-04 37584   0.989E-02    0.761E+00
DAV:  44    -0.340211523662E+03   -0.83013E-02   -0.13757E-03 40528   0.115E-01    0.743E+00
DAV:  45    -0.340215469799E+03   -0.39461E-02   -0.23036E-04 30088   0.456E-02    0.731E+00
DAV:  46    -0.340217147177E+03   -0.16774E-02   -0.74996E-05 31352   0.324E-02    0.728E+00
DAV:  47    -0.340234213269E+03   -0.17066E-01   -0.40190E-03 41216   0.207E-01    0.745E+00
DAV:  48    -0.340230227306E+03    0.39860E-02   -0.87511E-04 34808   0.909E-02    0.750E+00
DAV:  49    -0.340233908114E+03   -0.36808E-02   -0.61877E-04 40048   0.794E-02    0.755E+00
DAV:  50    -0.340227196490E+03    0.67116E-02   -0.46972E-04 37624   0.677E-02    0.754E+00
DAV:  51    -0.340233891226E+03   -0.66947E-02   -0.70797E-04 38448   0.903E-02    0.749E+00
DAV:  52    -0.340227785967E+03    0.61053E-02   -0.91291E-04 39072   0.103E-01    0.693E+00
DAV:  53    -0.340242636957E+03   -0.14851E-01   -0.88268E-04 35912   0.805E-02    0.717E+00
DAV:  54    -0.340247251956E+03   -0.46150E-02   -0.89005E-04 39056   0.965E-02    0.713E+00
DAV:  55    -0.340268912941E+03   -0.21661E-01   -0.38673E-03 40264   0.143E-01    0.730E+00
DAV:  56    -0.340271182436E+03   -0.22695E-02   -0.11897E-03 36368   0.898E-02    0.703E+00
DAV:  57    -0.340302668067E+03   -0.31486E-01   -0.19611E-02 40968   0.495E-01    0.847E+00
DAV:  58    -0.340306586526E+03   -0.39185E-02   -0.83370E-03 33096   0.233E-01    0.953E+00
DAV:  59    -0.340288689135E+03    0.17897E-01   -0.13111E-03 30512   0.111E-01    0.991E+00
DAV:  60    -0.340298689536E+03   -0.10000E-01   -0.14087E-02 39976   0.183E-01    0.990E+00
DAV:  61    -0.340299311657E+03   -0.62212E-03   -0.10440E-03 31216   0.993E-02    0.976E+00
DAV:  62    -0.340550279151E+03   -0.25097E+00   -0.91714E-01 40328   0.111E+00    0.139E+01
DAV:  63    -0.340509173798E+03    0.41105E-01   -0.46341E-02 30440   0.447E-01    0.135E+01
DAV:  64    -0.340500011084E+03    0.91627E-02   -0.72801E-03 32240   0.141E-01    0.134E+01
DAV:  65    -0.340501518059E+03   -0.15070E-02   -0.32991E-03 31960   0.731E-02    0.132E+01
DAV:  66    -0.340488301980E+03    0.13216E-01   -0.12433E-03 33408   0.100E-01    0.128E+01
DAV:  67    -0.340721088295E+03   -0.23279E+00   -0.22935E-01 41272   0.724E-01    0.159E+01
DAV:  68    -0.340685657814E+03    0.35430E-01   -0.54751E-02 30352   0.305E-01    0.158E+01
DAV:  69    -0.340700721101E+03   -0.15063E-01   -0.16589E-02 32536   0.166E-01    0.161E+01
DAV:  70    -0.340697233287E+03    0.34878E-02   -0.18294E-03 31136   0.957E-02    0.163E+01
DAV:  71    -0.340683278473E+03    0.13955E-01   -0.26641E-04 34696   0.520E-02    0.164E+01
DAV:  72    -0.340702307819E+03   -0.19029E-01   -0.18778E-03 39968   0.156E-01    0.166E+01
DAV:  73    -0.340699115574E+03    0.31922E-02   -0.17029E-03 38928   0.991E-02    0.166E+01
DAV:  74    -0.340702055149E+03   -0.29396E-02   -0.25158E-04 34392   0.389E-02    0.168E+01
DAV:  75    -0.340690589227E+03    0.11466E-01   -0.42862E-04 40112   0.653E-02    0.166E+01
DAV:  76    -0.340671556515E+03    0.19033E-01   -0.97111E-04 40664   0.808E-02    0.163E+01
DAV:  77    -0.340551826034E+03    0.11973E+00   -0.58692E-02 42088   0.681E-01    0.133E+01
DAV:  78    -0.340592334090E+03   -0.40508E-01   -0.28800E-02 32960   0.285E-01    0.129E+01
DAV:  79    -0.340571507385E+03    0.20827E-01   -0.29216E-02 41288   0.268E-01    0.122E+01
DAV:  80    -0.340566833740E+03    0.46736E-02   -0.22464E-02 39456   0.246E-01    0.122E+01
DAV:  81    -0.340531598100E+03    0.35236E-01   -0.31289E-02 41216   0.321E-01    0.115E+01
DAV:  82    -0.340524577921E+03    0.70202E-02   -0.25067E-02 39992   0.411E-01    0.110E+01
DAV:  83    -0.340526387509E+03   -0.18096E-02   -0.10252E-02 36152   0.233E-01    0.109E+01
DAV:  84    -0.340527395582E+03   -0.10081E-02   -0.21481E-03 31880   0.996E-02    0.110E+01
DAV:  85    -0.340524234642E+03    0.31609E-02   -0.21820E-04 30792   0.453E-02    0.112E+01
DAV:  86    -0.340520742980E+03    0.34917E-02   -0.25752E-05 25032   0.155E-02    0.112E+01
DAV:  87    -0.340491636804E+03    0.29106E-01   -0.13605E-01 40144   0.106E+00    0.783E+00
DAV:  88    -0.340545908468E+03   -0.54272E-01   -0.11840E-01 35880   0.107E+00    0.554E+00
DAV:  89    -0.340546892367E+03   -0.98390E-03   -0.74895E-02 37616   0.850E-01    0.529E+00
DAV:  90    -0.340546216855E+03    0.67551E-03   -0.90440E-03 30656   0.251E-01    0.530E+00
DAV:  91    -0.340534990926E+03    0.11226E-01   -0.27492E-03 40864   0.129E-01    0.532E+00
DAV:  92    -0.340526798910E+03    0.81920E-02   -0.18723E-02 40472   0.486E-01    0.544E+00
DAV:  93    -0.340523285319E+03    0.35136E-02   -0.12485E-02 41280   0.478E-01    0.562E+00
DAV:  94    -0.340509258568E+03    0.14027E-01   -0.83200E-03 40584   0.435E-01    0.590E+00
DAV:  95    -0.340511362239E+03   -0.21037E-02   -0.21708E-03 30832   0.126E-01    0.588E+00
DAV:  96    -0.340496071738E+03    0.15291E-01   -0.70670E-03 42184   0.210E-01    0.606E+00
DAV:  97    -0.340467363785E+03    0.28708E-01   -0.41751E-02 39936   0.328E-01    0.641E+00
DAV:  98    -0.340461441216E+03    0.59226E-02   -0.32027E-03 30352   0.160E-01    0.635E+00
DAV:  99    -0.340457589665E+03    0.38516E-02   -0.25426E-04 31160   0.477E-02    0.632E+00
DAV: 100    -0.340461180554E+03   -0.35909E-02   -0.14854E-03 40376   0.804E-02    0.643E+00
DAV: 101    -0.340458898867E+03    0.22817E-02   -0.90018E-04 39864   0.111E-01    0.690E+00
DAV: 102    -0.340504080300E+03   -0.45181E-01   -0.99935E-02 42248   0.163E+00    0.489E+00
DAV: 103    -0.340531486527E+03   -0.27406E-01   -0.34117E-02 31336   0.423E-01    0.456E+00
DAV: 104    -0.340535924136E+03   -0.44376E-02   -0.10122E-03 32480   0.896E-02    0.454E+00
DAV: 105    -0.340542627820E+03   -0.67037E-02   -0.12585E-03 39744   0.104E-01    0.454E+00
DAV: 106    -0.340542417429E+03    0.21039E-03   -0.18796E-03 39008   0.134E-01    0.442E+00
DAV: 107    -0.340560446869E+03   -0.18029E-01   -0.23875E-01 42168   0.166E+00    0.813E+00
DAV: 108    -0.340490243484E+03    0.70203E-01   -0.13287E-01 38424   0.945E-01    0.316E+00
DAV: 109    -0.340517932414E+03   -0.27689E-01   -0.31434E-02 38976   0.487E-01    0.254E+00
DAV: 110    -0.340531661376E+03   -0.13729E-01   -0.20048E-02 37936   0.442E-01    0.275E+00
DAV: 111    -0.340537432006E+03   -0.57706E-02   -0.11540E-02 38456   0.296E-01    0.260E+00
DAV: 112    -0.340552558128E+03   -0.15126E-01   -0.46475E-02 39264   0.575E-01    0.238E+00
DAV: 113    -0.340552264549E+03    0.29358E-03   -0.18840E-02 36496   0.360E-01    0.216E+00
DAV: 114    -0.340551979526E+03    0.28502E-03   -0.13245E-02 36624   0.224E-01    0.238E+00
DAV: 115    -0.340551531536E+03    0.44799E-03   -0.10005E-02 39312   0.187E-01    0.235E+00
DAV: 116    -0.340550939781E+03    0.59175E-03   -0.14423E-03 35680   0.126E-01    0.232E+00
DAV: 117    -0.340555903561E+03   -0.49638E-02   -0.30634E-03 40640   0.181E-01    0.238E+00
DAV: 118    -0.340555492268E+03    0.41129E-03   -0.46924E-03 39368   0.180E-01    0.225E+00
DAV: 119    -0.340558386151E+03   -0.28939E-02   -0.68577E-04 36456   0.891E-02    0.223E+00
DAV: 120    -0.340564110680E+03   -0.57245E-02   -0.84362E-04 38984   0.943E-02    0.220E+00
DAV: 121    -0.340569679257E+03   -0.55686E-02   -0.12450E-03 39192   0.111E-01    0.216E+00
DAV: 122    -0.340577247762E+03   -0.75685E-02   -0.11270E-02 38952   0.237E-01    0.204E+00
DAV: 123    -0.340577679646E+03   -0.43188E-03   -0.85751E-04 31416   0.855E-02    0.199E+00
DAV: 124    -0.340578111771E+03   -0.43213E-03   -0.58339E-05 29104   0.238E-02    0.199E+00
DAV: 125    -0.340580067579E+03   -0.19558E-02   -0.84044E-05 32360   0.400E-02    0.198E+00
DAV: 126    -0.340581324966E+03   -0.12574E-02   -0.17978E-04 38368   0.541E-02    0.195E+00
DAV: 127    -0.340612293678E+03   -0.30969E-01   -0.31421E-02 39016   0.524E-01    0.229E+00
DAV: 128    -0.340605109330E+03    0.71843E-02   -0.19850E-02 39096   0.421E-01    0.174E+00
DAV: 129    -0.340603376823E+03    0.17325E-02   -0.47213E-03 38384   0.224E-01    0.185E+00
DAV: 130    -0.340598729157E+03    0.46477E-02   -0.19780E-03 40304   0.173E-01    0.188E+00
DAV: 131    -0.340599536337E+03   -0.80718E-03   -0.15036E-03 38312   0.117E-01    0.176E+00
DAV: 132    -0.340589390221E+03    0.10146E-01   -0.10677E-02 39664   0.398E-01    0.158E+00
DAV: 133    -0.340592175249E+03   -0.27850E-02   -0.34302E-03 36120   0.176E-01    0.147E+00
DAV: 134    -0.340592927350E+03   -0.75210E-03   -0.98347E-04 42016   0.137E-01    0.135E+00
DAV: 135    -0.340594301343E+03   -0.13740E-02   -0.15885E-03 37032   0.114E-01    0.125E+00
DAV: 136    -0.340595710118E+03   -0.14088E-02   -0.13720E-03 39648   0.950E-02    0.129E+00
DAV: 137    -0.340598712394E+03   -0.30023E-02   -0.37167E-03 38376   0.205E-01    0.142E+00
DAV: 138    -0.340596744048E+03    0.19683E-02   -0.83451E-04 30328   0.940E-02    0.147E+00
DAV: 139    -0.340595278301E+03    0.14657E-02   -0.27825E-04 36672   0.539E-02    0.133E+00
DAV: 140    -0.340593409462E+03    0.18688E-02   -0.10104E-03 38688   0.101E-01    0.131E+00
DAV: 141    -0.340594605010E+03   -0.11955E-02   -0.39555E-04 38584   0.700E-02    0.141E+00
DAV: 142    -0.340597134382E+03   -0.25294E-02   -0.74541E-04 38344   0.764E-02    0.189E+00
DAV: 143    -0.340595698388E+03    0.14360E-02   -0.38867E-04 30048   0.654E-02    0.229E+00
DAV: 144    -0.340591716576E+03    0.39818E-02   -0.46325E-04 33928   0.757E-02    0.220E+00
DAV: 145    -0.340591878444E+03   -0.16187E-03   -0.39091E-04 38736   0.656E-02    0.190E+00
DAV: 146    -0.340593255725E+03   -0.13773E-02   -0.82902E-04 38752   0.934E-02    0.141E+00
DAV: 147    -0.340596127123E+03   -0.28714E-02   -0.70359E-03 39032   0.246E-01    0.823E-01
DAV: 148    -0.340598901225E+03   -0.27741E-02   -0.23391E-03 35192   0.119E-01    0.555E-01
DAV: 149    -0.340599934978E+03   -0.10338E-02   -0.84757E-04 36584   0.637E-02    0.463E-01
DAV: 150    -0.340600235836E+03   -0.30086E-03   -0.40086E-04 37304   0.531E-02    0.395E-01
DAV: 151    -0.340600312462E+03   -0.76626E-04   -0.36777E-04 36808   0.557E-02    0.277E-01
DAV: 152    -0.340600363881E+03   -0.51419E-04   -0.35475E-04 38864   0.665E-02    0.129E-01
DAV: 153    -0.340600583906E+03   -0.22003E-03   -0.20386E-04 30984   0.497E-02    0.109E-01
DAV: 154    -0.340600561654E+03    0.22252E-04   -0.69050E-05 28536   0.351E-02    0.107E-01
DAV: 155    -0.340600575859E+03   -0.14205E-04   -0.61007E-05 24888   0.235E-02    0.110E-01
DAV: 156    -0.340600591994E+03   -0.16135E-04   -0.49068E-05 21480   0.169E-02    0.106E-01
DAV: 157    -0.340600586936E+03    0.50579E-05   -0.16931E-05 18856   0.116E-02
   5 F= -.34060059E+03 E0= -.34058252E+03  d E =-.180448E+01  mag=    17.9574
       N       E                     dE             d eps       ncg     rms          rms(c)
DAV:   1    -0.340211244403E+03    0.38935E+00   -0.21186E+02 33112   0.397E+01    0.547E+00
DAV:   2    -0.343299918158E+03   -0.30887E+01   -0.18984E+01 37016   0.951E+00    0.287E+01
DAV:   3    -0.341440810431E+03    0.18591E+01   -0.28883E+00 40424   0.501E+00    0.967E+00
DAV:   4    -0.341607340992E+03   -0.16653E+00   -0.19269E+00 39784   0.235E+00    0.808E+00
DAV:   5    -0.341591021830E+03    0.16319E-01   -0.48157E-01 40520   0.168E+00    0.752E+00
DAV:   6    -0.341528715769E+03    0.62306E-01   -0.25763E-01 39752   0.128E+00    0.304E+00
DAV:   7    -0.341570383374E+03   -0.41668E-01   -0.12247E-01 40256   0.844E-01    0.516E+00
DAV:   8    -0.341542933536E+03    0.27450E-01   -0.16671E-01 40288   0.847E-01    0.298E+00
DAV:   9    -0.341536408521E+03    0.65250E-02   -0.54910E-02 39448   0.637E-01    0.181E+00
DAV:  10    -0.341548495950E+03   -0.12087E-01   -0.81444E-02 41032   0.629E-01    0.294E+00
DAV:  11    -0.341533863761E+03    0.14632E-01   -0.60846E-02 39856   0.573E-01    0.151E+00
DAV:  12    -0.341539135472E+03   -0.52717E-02   -0.44804E-02 40184   0.414E-01    0.204E+00
DAV:  13    -0.341537035766E+03    0.20997E-02   -0.23376E-02 40096   0.418E-01    0.172E+00
DAV:  14    -0.341534282255E+03    0.27535E-02   -0.78487E-03 38032   0.354E-01    0.806E-01
DAV:  15    -0.341536107119E+03   -0.18249E-02   -0.48825E-03 39040   0.261E-01    0.768E-01
DAV:  16    -0.341535782571E+03    0.32455E-03   -0.65241E-03 40784   0.210E-01    0.674E-01
DAV:  17    -0.341536168279E+03   -0.38571E-03   -0.34084E-03 40728   0.178E-01    0.729E-01
DAV:  18    -0.341536075838E+03    0.92441E-04   -0.32036E-03 40184   0.160E-01    0.653E-01
DAV:  19    -0.341535849177E+03    0.22666E-03   -0.21845E-03 39736   0.150E-01    0.357E-01
DAV:  20    -0.341535935115E+03   -0.85938E-04   -0.75778E-04 39448   0.836E-02    0.271E-01
DAV:  21    -0.341535940379E+03   -0.52641E-05   -0.46986E-04 40696   0.753E-02    0.245E-01
DAV:  22    -0.341536058345E+03   -0.11797E-03   -0.59409E-04 39608   0.746E-02    0.196E-01
DAV:  23    -0.341536205494E+03   -0.14715E-03   -0.31828E-04 34616   0.455E-02    0.183E-01
DAV:  24    -0.341536190486E+03    0.15008E-04   -0.13518E-04 32392   0.368E-02    0.155E-01
DAV:  25    -0.341536208255E+03   -0.17769E-04   -0.66563E-05 28072   0.228E-02    0.153E-01
DAV:  26    -0.341536210754E+03   -0.24984E-05   -0.53881E-05 23640   0.199E-02
   6 F= -.34153621E+03 E0= -.34151850E+03  d E =-.935624E+00  mag=    17.9438
       N       E                     dE             d eps       ncg     rms          rms(c)
DAV:   1    -0.340351406809E+03    0.11848E+01   -0.30039E+02 32344   0.473E+01    0.545E+00
DAV:   2    -0.343167096305E+03   -0.28157E+01   -0.22713E+01 34144   0.103E+01    0.204E+01
DAV:   3    -0.342164383572E+03    0.10027E+01   -0.39774E+00 40520   0.484E+00    0.115E+01
DAV:   4    -0.342127471892E+03    0.36912E-01   -0.13428E+00 39704   0.226E+00    0.725E+00
DAV:   5    -0.342098994299E+03    0.28478E-01   -0.12931E-01 39696   0.138E+00    0.404E+00
DAV:   6    -0.342116380250E+03   -0.17386E-01   -0.14080E-01 39632   0.931E-01    0.506E+00
DAV:   7    -0.342132294794E+03   -0.15915E-01   -0.29309E-01 39880   0.984E-01    0.569E+00
DAV:   8    -0.342101587355E+03    0.30707E-01   -0.21015E-01 40944   0.996E-01    0.413E+00
DAV:   9    -0.342113437834E+03   -0.11850E-01   -0.22723E-01 40424   0.106E+00    0.483E+00
DAV:  10    -0.342100552571E+03    0.12885E-01   -0.72404E-02 40080   0.106E+00    0.334E+00
DAV:  11    -0.342095879710E+03    0.46729E-02   -0.11943E-01 39992   0.889E-01    0.278E+00
DAV:  12    -0.342105978630E+03   -0.10099E-01   -0.65774E-02 39944   0.757E-01    0.409E+00
DAV:  13    -0.342084363621E+03    0.21615E-01   -0.57505E-02 38072   0.677E-01    0.163E+00
DAV:  14    -0.342093655049E+03   -0.92914E-02   -0.35079E-02 37240   0.393E-01    0.175E+00
DAV:  15    -0.342091942690E+03    0.17124E-02   -0.20242E-02 39536   0.309E-01    0.111E+00
DAV:  16    -0.342092268634E+03   -0.32594E-03   -0.62793E-03 40616   0.242E-01    0.115E+00
DAV:  17    -0.342091893292E+03    0.37534E-03   -0.39414E-03 40704   0.216E-01    0.765E-01
DAV:  18    -0.342091987176E+03   -0.93884E-04   -0.31667E-03 39824   0.223E-01    0.598E-01
DAV:  19    -0.342093884276E+03   -0.18971E-02   -0.41032E-03 41720   0.214E-01    0.115E+00
DAV:  20    -0.342092077942E+03    0.18063E-02   -0.41387E-03 39520   0.221E-01    0.382E-01
DAV:  21    -0.342092886144E+03   -0.80820E-03   -0.22869E-03 36408   0.113E-01    0.292E-01
DAV:  22    -0.342093155040E+03   -0.26890E-03   -0.81181E-04 38824   0.586E-02    0.301E-01
DAV:  23    -0.342093171395E+03   -0.16355E-04   -0.30179E-04 33888   0.366E-02    0.246E-01
DAV:  24    -0.342093194260E+03   -0.22865E-04   -0.10005E-04 27672   0.301E-02    0.219E-01
DAV:  25    -0.342093234595E+03   -0.40335E-04   -0.82855E-05 31680   0.281E-02    0.193E-01
DAV:  26    -0.342093214128E+03    0.20467E-04   -0.16392E-04 36008   0.477E-02    0.134E-01
DAV:  27    -0.342093250642E+03   -0.36514E-04   -0.65803E-05 31216   0.268E-02    0.125E-01
DAV:  28    -0.342093271629E+03   -0.20987E-04   -0.25859E-05 22552   0.203E-02    0.105E-01
DAV:  29    -0.342093289087E+03   -0.17458E-04   -0.30719E-05 23392   0.185E-02    0.882E-02
DAV:  30    -0.342093289467E+03   -0.37946E-06   -0.12786E-05 19616   0.118E-02
   7 F= -.34209329E+03 E0= -.34207530E+03  d E =-.557079E+00  mag=    17.9220
       N       E                     dE             d eps       ncg     rms          rms(c)
DAV:   1    -0.340782824041E+03    0.13105E+01   -0.22301E+02 32464   0.455E+01    0.595E+00
DAV:   2    -0.344566946640E+03   -0.37841E+01   -0.16943E+01 33120   0.107E+01    0.341E+01
DAV:   3    -0.342076522927E+03    0.24904E+01   -0.18089E+01 39784   0.582E+00    0.727E+00
DAV:   4    -0.342692757043E+03   -0.61623E+00   -0.35971E+00 40448   0.312E+00    0.177E+01
DAV:   5    -0.342141007181E+03    0.55175E+00   -0.12945E+00 39360   0.255E+00    0.702E+00
DAV:   6    -0.342181934044E+03   -0.40927E-01   -0.15220E-01 37240   0.118E+00    0.293E+00
DAV:   7    -0.342232080607E+03   -0.50147E-01   -0.58144E-02 37528   0.740E-01    0.356E+00
DAV:   8    -0.342228724368E+03    0.33562E-02   -0.73547E-02 39864   0.600E-01    0.318E+00
DAV:   9    -0.342242388111E+03   -0.13664E-01   -0.26359E-02 38672   0.360E-01    0.353E+00
DAV:  10    -0.342237827308E+03    0.45608E-02   -0.31849E-03 34936   0.203E-01    0.332E+00
DAV:  11    -0.342241939586E+03   -0.41123E-02   -0.48421E-03 42000   0.206E-01    0.338E+00
DAV:  12    -0.342243153893E+03   -0.12143E-02   -0.18237E-02 42008   0.356E-01    0.269E+00
DAV:  13    -0.342249883776E+03   -0.67299E-02   -0.48933E-02 41176   0.619E-01    0.277E+00
DAV:  14    -0.342244991286E+03    0.48925E-02   -0.49644E-02 41336   0.681E-01    0.253E+00
DAV:  15    -0.342240655089E+03    0.43362E-02   -0.82334E-02 40880   0.612E-01    0.223E+00
DAV:  16    -0.342237756759E+03    0.28983E-02   -0.26894E-02 39408   0.531E-01    0.176E+00
DAV:  17    -0.342238751295E+03   -0.99454E-03   -0.14046E-02 39384   0.402E-01    0.157E+00
DAV:  18    -0.342236221838E+03    0.25295E-02   -0.11336E-02 39304   0.335E-01    0.107E+00
DAV:  19    -0.342237764114E+03   -0.15423E-02   -0.24387E-03 36920   0.193E-01    0.707E-01
DAV:  20    -0.342240103574E+03   -0.23395E-02   -0.26578E-03 40728   0.208E-01    0.474E-01
DAV:  21    -0.342240676649E+03   -0.57308E-03   -0.14939E-03 39648   0.143E-01    0.477E-01
DAV:  22    -0.342240751521E+03   -0.74872E-04   -0.81726E-04 40160   0.104E-01    0.437E-01
DAV:  23    -0.342240800666E+03   -0.49145E-04   -0.30298E-04 36784   0.501E-02    0.360E-01
DAV:  24    -0.342240799237E+03    0.14291E-05   -0.99172E-05 33272   0.361E-02
   8 F= -.34224080E+03 E0= -.34222346E+03  d E =-.147510E+00  mag=    17.9380
       N       E                     dE             d eps       ncg     rms          rms(c)
DAV:   1    -0.341127092201E+03    0.11137E+01   -0.29214E+02 31488   0.510E+01    0.658E+00
DAV:   2    -0.344484956707E+03   -0.33579E+01   -0.19441E+01 34768   0.112E+01    0.265E+01
DAV:   3    -0.342573176305E+03    0.19118E+01   -0.34132E+00 39752   0.613E+00    0.138E+01
DAV:   4    -0.342404625736E+03    0.16855E+00   -0.19127E+00 39336   0.256E+00    0.591E+00
DAV:   5    -0.342494351141E+03   -0.89725E-01   -0.51725E-01 38112   0.157E+00    0.662E+00
DAV:   6    -0.342442750397E+03    0.51601E-01   -0.16760E-01 38400   0.108E+00    0.390E+00
DAV:   7    -0.342480869273E+03   -0.38119E-01   -0.97160E-02 40560   0.994E-01    0.547E+00
DAV:   8    -0.342443630577E+03    0.37239E-01   -0.13252E-01 39744   0.921E-01    0.310E+00
DAV:   9    -0.342478604975E+03   -0.34974E-01   -0.23232E-01 40048   0.104E+00    0.542E+00
DAV:  10    -0.342449716398E+03    0.28889E-01   -0.15522E-01 39408   0.988E-01    0.380E+00
DAV:  11    -0.342446007828E+03    0.37086E-02   -0.92122E-02 40136   0.832E-01    0.273E+00
DAV:  12    -0.342455899475E+03   -0.98916E-02   -0.90292E-02 40176   0.739E-01    0.315E+00
DAV:  13    -0.342449988369E+03    0.59111E-02   -0.73519E-02 39632   0.688E-01    0.271E+00
DAV:  14    -0.342443099591E+03    0.68888E-02   -0.23134E-02 39288   0.444E-01    0.133E+00
DAV:  15    -0.342445846414E+03   -0.27468E-02   -0.63065E-03 38056   0.299E-01    0.106E+00
DAV:  16    -0.342445719615E+03    0.12680E-03   -0.32768E-03 40288   0.176E-01    0.883E-01
DAV:  17    -0.342445656961E+03    0.62654E-04   -0.45054E-03 40200   0.135E-01    0.840E-01
DAV:  18    -0.342445572706E+03    0.84255E-04   -0.26928E-03 40192   0.139E-01    0.584E-01
DAV:  19    -0.342445995767E+03   -0.42306E-03   -0.96918E-04 39728   0.105E-01    0.554E-01
DAV:  20    -0.342446042094E+03   -0.46327E-04   -0.84685E-04 40240   0.937E-02    0.255E-01
DAV:  21    -0.342446327133E+03   -0.28504E-03   -0.37605E-04 39512   0.690E-02    0.242E-01
DAV:  22    -0.342446368048E+03   -0.40915E-04   -0.25316E-04 37784   0.593E-02    0.325E-01
DAV:  23    -0.342446290479E+03    0.77569E-04   -0.90607E-05 26568   0.306E-02    0.237E-01
DAV:  24    -0.342446294740E+03   -0.42611E-05   -0.10099E-04 28800   0.282E-02    0.206E-01
DAV:  25    -0.342446333702E+03   -0.38961E-04   -0.11261E-04 29144   0.297E-02    0.116E-01
DAV:  26    -0.342446367672E+03   -0.33970E-04   -0.58523E-05 23456   0.222E-02    0.793E-02
DAV:  27    -0.342446378795E+03   -0.11123E-04   -0.20476E-05 19448   0.123E-02    0.588E-02
DAV:  28    -0.342446382848E+03   -0.40531E-05   -0.58048E-06 18088   0.738E-03
   9 F= -.34244638E+03 E0= -.34242907E+03  d E =-.205584E+00  mag=    17.9904
       N       E                     dE             d eps       ncg     rms          rms(c)
DAV:   1    -0.342088480778E+03    0.35790E+00   -0.95892E+01 31768   0.328E+01    0.264E+00
DAV:   2    -0.342689232784E+03   -0.60075E+00   -0.53746E+00 31136   0.589E+00    0.893E+00
DAV:   3    -0.342586528267E+03    0.10270E+00   -0.87846E-01 40816   0.198E+00    0.501E+00
DAV:   4    -0.342652883614E+03   -0.66355E-01   -0.61616E-01 41072   0.131E+00    0.800E+00
DAV:   5    -0.342558613267E+03    0.94270E-01   -0.29828E-01 39456   0.994E-01    0.173E+00
DAV:   6    -0.342583624636E+03   -0.25011E-01   -0.42079E-02 37944   0.531E-01    0.242E+00
DAV:   7    -0.342581778573E+03    0.18461E-02   -0.61658E-02 39416   0.513E-01    0.199E+00
DAV:   8    -0.342578261587E+03    0.35170E-02   -0.39724E-02 40016   0.444E-01    0.143E+00
DAV:   9    -0.342582904157E+03   -0.46426E-02   -0.42963E-02 40464   0.402E-01    0.225E+00
DAV:  10    -0.342576739073E+03    0.61651E-02   -0.24009E-02 39144   0.390E-01    0.116E+00
DAV:  11    -0.342578522785E+03   -0.17837E-02   -0.15098E-02 39952   0.319E-01    0.105E+00
DAV:  12    -0.342580728805E+03   -0.22060E-02   -0.16537E-02 39704   0.292E-01    0.154E+00
DAV:  13    -0.342577603695E+03    0.31251E-02   -0.99892E-03 39944   0.260E-01    0.474E-01
DAV:  14    -0.342579126213E+03   -0.15225E-02   -0.33031E-03 39760   0.155E-01    0.634E-01
DAV:  15    -0.342578598225E+03    0.52799E-03   -0.28166E-03 39456   0.132E-01    0.385E-01
DAV:  16    -0.342578818132E+03   -0.21991E-03   -0.69646E-04 39336   0.918E-02    0.373E-01
DAV:  17    -0.342578996935E+03   -0.17880E-03   -0.12339E-03 40448   0.949E-02    0.526E-01
DAV:  18    -0.342578708736E+03    0.28820E-03   -0.96238E-04 40280   0.997E-02    0.263E-01
DAV:  19    -0.342578755585E+03   -0.46849E-04   -0.63680E-04 39640   0.101E-01    0.188E-01
DAV:  20    -0.342578858424E+03   -0.10284E-03   -0.40377E-04 39864   0.822E-02    0.166E-01
DAV:  21    -0.342578846933E+03    0.11491E-04   -0.29846E-04 38672   0.701E-02    0.109E-01
DAV:  22    -0.342578872711E+03   -0.25778E-04   -0.19234E-04 35808   0.386E-02    0.718E-02
DAV:  23    -0.342578888221E+03   -0.15511E-04   -0.74285E-05 24600   0.202E-02    0.517E-02
DAV:  24    -0.342578895895E+03   -0.76735E-05   -0.26496E-05 20640   0.142E-02
  10 F= -.34257890E+03 E0= -.34256170E+03  d E =-.132513E+00  mag=    17.9944
       N       E                     dE             d eps       ncg     rms          rms(c)
DAV:   1    -0.341468280127E+03    0.11106E+01   -0.27044E+02 32056   0.509E+01    0.428E+00
DAV:   2    -0.343181076149E+03   -0.17128E+01   -0.14680E+01 32440   0.924E+00    0.176E+01
DAV:   3    -0.342658864367E+03    0.52221E+00   -0.14751E+00 36312   0.384E+00    0.668E+00
DAV:   4    -0.342765407169E+03   -0.10654E+00   -0.63175E-01 39648   0.191E+00    0.790E+00
DAV:   5    -0.342663719432E+03    0.10169E+00   -0.24962E-01 39400   0.130E+00    0.290E+00
DAV:   6    -0.342702113070E+03   -0.38394E-01   -0.19465E-01 39232   0.892E-01    0.432E+00
DAV:   7    -0.342685196351E+03    0.16917E-01   -0.75079E-02 40624   0.766E-01    0.355E+00
DAV:   8    -0.342675430088E+03    0.97663E-02   -0.85686E-02 39576   0.653E-01    0.270E+00
DAV:   9    -0.342688670898E+03   -0.13241E-01   -0.98366E-02 39912   0.650E-01    0.357E+00
DAV:  10    -0.342669049174E+03    0.19622E-01   -0.58976E-02 39136   0.624E-01    0.146E+00
DAV:  11    -0.342677728926E+03   -0.86798E-02   -0.33144E-02 39672   0.480E-01    0.207E+00
DAV:  12    -0.342674729769E+03    0.29992E-02   -0.63175E-02 39776   0.476E-01    0.169E+00
DAV:  13    -0.342675166033E+03   -0.43626E-03   -0.15101E-02 39472   0.421E-01    0.118E+00
DAV:  14    -0.342676383470E+03   -0.12174E-02   -0.11635E-02 39840   0.352E-01    0.122E+00
DAV:  15    -0.342674749269E+03    0.16342E-02   -0.84537E-03 40136   0.266E-01    0.713E-01
DAV:  16    -0.342675272114E+03   -0.52285E-03   -0.16048E-03 39344   0.160E-01    0.652E-01
DAV:  17    -0.342675193580E+03    0.78534E-04   -0.33152E-03 40432   0.118E-01    0.694E-01
DAV:  18    -0.342674999121E+03    0.19446E-03   -0.16738E-03 39840   0.122E-01    0.391E-01
DAV:  19    -0.342675492984E+03   -0.49386E-03   -0.26835E-03 40696   0.139E-01    0.461E-01
DAV:  20    -0.342675328630E+03    0.16435E-03   -0.11809E-03 40040   0.124E-01    0.249E-01
DAV:  21    -0.342675361858E+03   -0.33228E-04   -0.47345E-04 39480   0.619E-02    0.138E-01
DAV:  22    -0.342675409115E+03   -0.47257E-04   -0.29060E-04 32816   0.398E-02    0.155E-01
DAV:  23    -0.342675413414E+03   -0.42986E-05   -0.19111E-04 27616   0.303E-02    0.727E-02
DAV:  24    -0.342675448604E+03   -0.35190E-04   -0.82618E-05 24384   0.231E-02    0.642E-02
DAV:  25    -0.342675457265E+03   -0.86605E-05   -0.25394E-05 20264   0.168E-02
  11 F= -.34267546E+03 E0= -.34265843E+03  d E =-.965614E-01  mag=    17.9983
       N       E                     dE             d eps       ncg     rms          rms(c)
DAV:   1    -0.342486740131E+03    0.18871E+00   -0.51112E+01 32200   0.239E+01    0.205E+00
DAV:   2    -0.342849558603E+03   -0.36282E+00   -0.31345E+00 31152   0.441E+00    0.960E+00
DAV:   3    -0.342740809422E+03    0.10875E+00   -0.67271E-01 39328   0.175E+00    0.345E+00
DAV:   4    -0.342779631729E+03   -0.38822E-01   -0.98631E-02 39472   0.952E-01    0.411E+00
DAV:   5    -0.342753976400E+03    0.25655E-01   -0.80118E-02 39440   0.743E-01    0.170E+00
DAV:   6    -0.342764835194E+03   -0.10859E-01   -0.44441E-02 38216   0.454E-01    0.247E+00
DAV:   7    -0.342757722152E+03    0.71130E-02   -0.27130E-02 39904   0.419E-01    0.159E+00
DAV:   8    -0.342757674348E+03    0.47803E-04   -0.26665E-02 39232   0.384E-01    0.139E+00
DAV:   9    -0.342758921214E+03   -0.12469E-02   -0.18827E-02 40560   0.370E-01    0.150E+00
DAV:  10    -0.342756880012E+03    0.20412E-02   -0.96037E-03 39152   0.300E-01    0.927E-01
DAV:  11    -0.342757337460E+03   -0.45745E-03   -0.68690E-03 39744   0.245E-01    0.824E-01
DAV:  12    -0.342757624039E+03   -0.28658E-03   -0.57559E-03 39792   0.192E-01    0.737E-01
DAV:  13    -0.342757357698E+03    0.26634E-03   -0.34686E-03 40064   0.151E-01    0.437E-01
DAV:  14    -0.342757366026E+03   -0.83285E-05   -0.95352E-04 39904   0.942E-02    0.411E-01
DAV:  15    -0.342757421596E+03   -0.55569E-04   -0.12922E-03 35464   0.752E-02    0.443E-01
DAV:  16    -0.342757343191E+03    0.78404E-04   -0.93835E-04 39304   0.815E-02    0.354E-01
DAV:  17    -0.342757841269E+03   -0.49808E-03   -0.21926E-03 40112   0.926E-02    0.605E-01
DAV:  18    -0.342757299986E+03    0.54128E-03   -0.29883E-03 40320   0.112E-01    0.234E-01
DAV:  19    -0.342757442496E+03   -0.14251E-03   -0.59974E-04 39416   0.760E-02    0.129E-01
DAV:  20    -0.342757474849E+03   -0.32353E-04   -0.13946E-04 29784   0.408E-02    0.919E-02
DAV:  21    -0.342757476840E+03   -0.19909E-05   -0.57962E-05 24296   0.223E-02
  12 F= -.34275748E+03 E0= -.34274025E+03  d E =-.820196E-01  mag=    17.9997
       N       E                     dE             d eps       ncg     rms          rms(c)
DAV:   1    -0.342740538027E+03    0.16937E-01   -0.74007E+00 32656   0.901E+00    0.973E-01
DAV:   2    -0.342818508889E+03   -0.77971E-01   -0.58076E-01 33640   0.184E+00    0.520E+00
DAV:   3    -0.342772748874E+03    0.45760E-01   -0.93295E-02 38840   0.931E-01    0.133E+00
DAV:   4    -0.342783042033E+03   -0.10293E-01   -0.38071E-02 36864   0.413E-01    0.151E+00
DAV:   5    -0.342780257815E+03    0.27842E-02   -0.25035E-02 38920   0.299E-01    0.915E-01
DAV:   6    -0.342780764069E+03   -0.50625E-03   -0.53016E-03 39632   0.183E-01    0.875E-01
DAV:   7    -0.342782245062E+03   -0.14810E-02   -0.94054E-03 40368   0.236E-01    0.143E+00
DAV:   8    -0.342779531155E+03    0.27139E-02   -0.79869E-03 40072   0.275E-01    0.770E-01
DAV:   9    -0.342780226182E+03   -0.69503E-03   -0.88467E-03 39536   0.222E-01    0.717E-01
DAV:  10    -0.342780283743E+03   -0.57562E-04   -0.10044E-02 38648   0.175E-01    0.712E-01
DAV:  11    -0.342779614413E+03    0.66933E-03   -0.30628E-03 39544   0.134E-01    0.252E-01
DAV:  12    -0.342779845186E+03   -0.23077E-03   -0.58182E-04 35872   0.571E-02    0.262E-01
DAV:  13    -0.342779815212E+03    0.29974E-04   -0.30623E-04 27784   0.409E-02    0.201E-01
DAV:  14    -0.342779800500E+03    0.14712E-04   -0.58377E-05 23872   0.227E-02    0.201E-01
DAV:  15    -0.342779798506E+03    0.19939E-05   -0.27793E-05 20256   0.173E-02
  13 F= -.34277980E+03 E0= -.34276253E+03  d E =-.223217E-01  mag=    17.9998
       N       E                     dE             d eps       ncg     rms          rms(c)
DAV:   1    -0.342740534606E+03    0.39266E-01   -0.16560E+01 32048   0.120E+01    0.771E-01
DAV:   2    -0.342797791418E+03   -0.57257E-01   -0.57754E-01 29976   0.198E+00    0.153E+00
DAV:   3    -0.342801319906E+03   -0.35285E-02   -0.66209E-02 40528   0.541E-01    0.220E+00
DAV:   4    -0.342795235237E+03    0.60847E-02   -0.26049E-02 38040   0.384E-01    0.106E+00
DAV:   5    -0.342795538322E+03   -0.30308E-03   -0.63089E-03 38128   0.184E-01    0.511E-01
DAV:   6    -0.342796619256E+03   -0.10809E-02   -0.40472E-03 39240   0.163E-01    0.840E-01
DAV:   7    -0.342795558929E+03    0.10603E-02   -0.37422E-03 39432   0.167E-01    0.511E-01
DAV:   8    -0.342795890361E+03   -0.33143E-03   -0.38443E-03 40024   0.154E-01    0.603E-01
DAV:   9    -0.342795821886E+03    0.68475E-04   -0.51007E-03 39584   0.151E-01    0.481E-01
DAV:  10    -0.342795609646E+03    0.21224E-03   -0.16214E-03 40040   0.115E-01    0.304E-01
DAV:  11    -0.342795592731E+03    0.16915E-04   -0.77609E-04 37256   0.620E-02    0.196E-01
DAV:  12    -0.342795636535E+03   -0.43804E-04   -0.33668E-04 31248   0.495E-02    0.135E-01
DAV:  13    -0.342795632128E+03    0.44066E-05   -0.10459E-04 25192   0.359E-02    0.107E-01
DAV:  14    -0.342795711156E+03   -0.79028E-04   -0.28902E-04 25872   0.406E-02    0.266E-01
DAV:  15    -0.342795604063E+03    0.10709E-03   -0.29328E-04 28224   0.414E-02    0.105E-01
DAV:  16    -0.342795647567E+03   -0.43504E-04   -0.17386E-04 24456   0.327E-02    0.102E-01
DAV:  17    -0.342795638135E+03    0.94324E-05   -0.77266E-05 21800   0.277E-02
  14 F= -.34279564E+03 E0= -.34277824E+03  d E =-.158396E-01  mag=    17.9998
       N       E                     dE             d eps       ncg     rms          rms(c)
DAV:   1    -0.342651302304E+03    0.14435E+00   -0.45839E+01 32112   0.204E+01    0.131E+00
DAV:   2    -0.342825510710E+03   -0.17421E+00   -0.17199E+00 29952   0.339E+00    0.305E+00
DAV:   3    -0.342824298511E+03    0.12122E-02   -0.21203E-01 40144   0.992E-01    0.318E+00
DAV:   4    -0.342819851306E+03    0.44472E-02   -0.74873E-02 38840   0.649E-01    0.235E+00
DAV:   5    -0.342814319326E+03    0.55320E-02   -0.26396E-02 38912   0.411E-01    0.885E-01
DAV:   6    -0.342817086873E+03   -0.27675E-02   -0.95570E-03 38432   0.240E-01    0.110E+00
DAV:   7    -0.342816572777E+03    0.51410E-03   -0.10909E-02 39800   0.249E-01    0.109E+00
DAV:   8    -0.342815950143E+03    0.62263E-03   -0.17748E-02 39728   0.267E-01    0.923E-01
DAV:   9    -0.342816743786E+03   -0.79364E-03   -0.84351E-03 40464   0.241E-01    0.101E+00
DAV:  10    -0.342815686944E+03    0.10568E-02   -0.36406E-03 39112   0.200E-01    0.510E-01
DAV:  11    -0.342815862288E+03   -0.17534E-03   -0.28709E-03 38192   0.125E-01    0.397E-01
DAV:  12    -0.342815950808E+03   -0.88520E-04   -0.71381E-04 38320   0.865E-02    0.293E-01
DAV:  13    -0.342815874139E+03    0.76669E-04   -0.43037E-04 34944   0.607E-02    0.220E-01
DAV:  14    -0.342815907294E+03   -0.33155E-04   -0.16743E-04 31504   0.480E-02    0.205E-01
DAV:  15    -0.342815958896E+03   -0.51602E-04   -0.61918E-04 30600   0.533E-02    0.288E-01
DAV:  16    -0.342815918636E+03    0.40260E-04   -0.83667E-04 32048   0.610E-02    0.206E-01
DAV:  17    -0.342815909771E+03    0.88652E-05   -0.37548E-04 35376   0.537E-02    0.152E-01
[...]
DAV:  11    -0.342967540384E+03   -0.10297E-04   -0.33257E-04 25336   0.391E-02    0.125E-01
DAV:  12    -0.342967524613E+03    0.15771E-04   -0.11920E-04 22048   0.261E-02    0.907E-02
DAV:  13    -0.342967518084E+03    0.65289E-05   -0.26092E-05 18208   0.145E-02
  44 F= -.34296752E+03 E0= -.34295023E+03  d E =-.286158E-02  mag=    17.9997
       N       E                     dE             d eps       ncg     rms          rms(c)
DAV:   1    -0.342864526383E+03    0.10300E+00   -0.24673E+01 31792   0.164E+01    0.105E+00
DAV:   2    -0.342968595045E+03   -0.10407E+00   -0.10606E+00 29952   0.273E+00    0.127E+00
DAV:   3    -0.342989469033E+03   -0.20874E-01   -0.11759E-01 41016   0.757E-01    0.404E+00
DAV:   4    -0.342964779276E+03    0.24690E-01   -0.94464E-02 38376   0.567E-01    0.114E+00
DAV:   5    -0.342968730483E+03   -0.39512E-02   -0.87878E-03 37472   0.267E-01    0.505E-01
DAV:   6    -0.342970537374E+03   -0.18069E-02   -0.59918E-03 39624   0.209E-01    0.103E+00
DAV:   7    -0.342968790157E+03    0.17472E-02   -0.85413E-03 40152   0.205E-01    0.555E-01
DAV:   8    -0.342969627474E+03   -0.83732E-03   -0.69723E-03 40576   0.200E-01    0.732E-01
DAV:   9    -0.342969938497E+03   -0.31102E-03   -0.56490E-03 40032   0.181E-01    0.964E-01
DAV:  10    -0.342968613715E+03    0.13248E-02   -0.28182E-03 38368   0.157E-01    0.198E-01
DAV:  11    -0.342969338554E+03   -0.72484E-03   -0.11002E-03 35704   0.793E-02    0.301E-01
DAV:  12    -0.342969240055E+03    0.98499E-04   -0.40446E-04 33944   0.515E-02    0.209E-01
DAV:  13    -0.342969328239E+03   -0.88184E-04   -0.26102E-04 28304   0.419E-02    0.244E-01
DAV:  14    -0.342969316693E+03    0.11546E-04   -0.24567E-04 30376   0.469E-02    0.165E-01
DAV:  15    -0.342969519036E+03   -0.20234E-03   -0.67881E-04 37384   0.597E-02    0.378E-01
DAV:  16    -0.342969299828E+03    0.21921E-03   -0.52323E-04 34696   0.548E-02    0.121E-01
DAV:  17    -0.342969395940E+03   -0.96112E-04   -0.10250E-04 31520   0.351E-02    0.116E-01
DAV:  18    -0.342969408550E+03   -0.12611E-04   -0.13394E-04 24856   0.279E-02    0.120E-01
DAV:  19    -0.342969403481E+03    0.50697E-05   -0.13269E-04 23336   0.290E-02    0.775E-02
DAV:  20    -0.342969405150E+03   -0.16694E-05   -0.35457E-05 22544   0.250E-02
  45 F= -.34296941E+03 E0= -.34295205E+03  d E =-.188707E-02  mag=    17.9998
       N       E                     dE             d eps       ncg     rms          rms(c)
DAV:   1    -0.342893372820E+03    0.76031E-01   -0.18043E+01 32104   0.136E+01    0.891E-01
DAV:   2    -0.342968926354E+03   -0.75554E-01   -0.76908E-01 29952   0.226E+00    0.108E+00
DAV:   3    -0.342983325635E+03   -0.14399E-01   -0.64667E-02 40960   0.653E-01    0.323E+00
DAV:   4    -0.342965523220E+03    0.17802E-01   -0.39819E-02 38344   0.508E-01    0.639E-01
DAV:   5    -0.342969360849E+03   -0.38376E-02   -0.45433E-03 35360   0.181E-01    0.530E-01
DAV:   6    -0.342970017597E+03   -0.65675E-03   -0.32120E-03 38592   0.146E-01    0.718E-01
DAV:   7    -0.342969173181E+03    0.84442E-03   -0.35947E-03 39064   0.162E-01    0.341E-01
DAV:   8    -0.342970304053E+03   -0.11309E-02   -0.39493E-03 40480   0.156E-01    0.877E-01
DAV:   9    -0.342969097828E+03    0.12062E-02   -0.49990E-03 39120   0.149E-01    0.290E-01
DAV:  10    -0.342969582949E+03   -0.48512E-03   -0.13337E-03 39256   0.102E-01    0.353E-01
DAV:  11    -0.342969519631E+03    0.63318E-04   -0.84538E-04 38768   0.726E-02    0.262E-01
DAV:  12    -0.342969481662E+03    0.37969E-04   -0.37594E-04 31368   0.488E-02    0.160E-01
DAV:  13    -0.342969506726E+03   -0.25064E-04   -0.89084E-05 25048   0.279E-02    0.168E-01
DAV:  14    -0.342969502484E+03    0.42421E-05   -0.12967E-04 21568   0.255E-02    0.151E-01
DAV:  15    -0.342969530745E+03   -0.28261E-04   -0.12509E-04 24408   0.299E-02    0.149E-01
DAV:  16    -0.342969570192E+03   -0.39447E-04   -0.18959E-04 27960   0.389E-02    0.154E-01
DAV:  17    -0.342969573091E+03   -0.28991E-05   -0.15944E-04 29792   0.392E-02    0.133E-01
DAV:  18    -0.342969570609E+03    0.24816E-05   -0.12584E-04 22920   0.258E-02    0.108E-01
DAV:  19    -0.342969574958E+03   -0.43488E-05   -0.55421E-05 21480   0.254E-02
  46 F= -.34296957E+03 E0= -.34295231E+03  d E =-.169808E-03  mag=    17.9997
       N       E                     dE             d eps       ncg     rms          rms(c)
DAV:   1    -0.342937167101E+03    0.32404E-01   -0.65727E+00 32056   0.804E+00    0.540E-01
DAV:   2    -0.342964556317E+03   -0.27389E-01   -0.28023E-01 30352   0.139E+00    0.111E+00
DAV:   3    -0.342966292263E+03   -0.17359E-02   -0.29260E-02 40032   0.402E-01    0.149E+00
DAV:   4    -0.342963665558E+03    0.26267E-02   -0.11690E-02 38424   0.277E-01    0.812E-01
DAV:   5    -0.342963511397E+03    0.15416E-03   -0.27500E-03 38440   0.152E-01    0.421E-01
DAV:   6    -0.342963864792E+03   -0.35340E-03   -0.23663E-03 39960   0.111E-01    0.474E-01
DAV:   7    -0.342963809932E+03    0.54860E-04   -0.33762E-03 39656   0.138E-01    0.561E-01
DAV:   8    -0.342963454643E+03    0.35529E-03   -0.31089E-03 39952   0.123E-01    0.365E-01
DAV:   9    -0.342963597902E+03   -0.14326E-03   -0.11255E-03 39104   0.107E-01    0.356E-01
DAV:  10    -0.342963545453E+03    0.52449E-04   -0.10862E-03 39056   0.872E-02    0.321E-01
DAV:  11    -0.342963428915E+03    0.11654E-03   -0.39822E-04 34176   0.628E-02    0.128E-01
DAV:  12    -0.342963483321E+03   -0.54405E-04   -0.20798E-04 26808   0.438E-02    0.117E-01
DAV:  13    -0.342963488845E+03   -0.55245E-05   -0.15657E-04 24216   0.325E-02    0.118E-01
DAV:  14    -0.342963481505E+03    0.73402E-05   -0.10604E-04 21000   0.236E-02    0.879E-02
DAV:  15    -0.342963487094E+03   -0.55891E-05   -0.54690E-05 20376   0.183E-02
  47 F= -.34296349E+03 E0= -.34294625E+03  d E =0.608786E-02  mag=    17.9997
       N       E                     dE             d eps       ncg     rms          rms(c)
DAV:   1    -0.342954266235E+03    0.92153E-02   -0.25930E+00 32584   0.545E+00    0.387E-01
DAV:   2    -0.342967419419E+03   -0.13153E-01   -0.13186E-01 30328   0.957E-01    0.918E-01
DAV:   3    -0.342967564374E+03   -0.14495E-03   -0.12786E-02 39848   0.301E-01    0.100E+00
DAV:   4    -0.342966800547E+03    0.76383E-03   -0.66161E-03 38320   0.189E-01    0.599E-01
DAV:   5    -0.342966521803E+03    0.27874E-03   -0.15471E-03 38512   0.114E-01    0.271E-01
DAV:   6    -0.342966673255E+03   -0.15145E-03   -0.83685E-04 36032   0.647E-02    0.302E-01
DAV:   7    -0.342966575342E+03    0.97913E-04   -0.97590E-04 38328   0.872E-02    0.272E-01
DAV:   8    -0.342966615206E+03   -0.39864E-04   -0.18195E-03 41352   0.919E-02    0.359E-01
DAV:   9    -0.342966614089E+03    0.11164E-05   -0.12041E-03 39720   0.884E-02    0.347E-01
DAV:  10    -0.342966487861E+03    0.12623E-03   -0.51110E-04 36888   0.745E-02    0.158E-01
DAV:  11    -0.342966555554E+03   -0.67693E-04   -0.29339E-04 27192   0.397E-02    0.183E-01
DAV:  12    -0.342966532802E+03    0.22752E-04   -0.12820E-04 23256   0.301E-02    0.991E-02
DAV:  13    -0.342966534850E+03   -0.20480E-05   -0.32490E-05 20320   0.180E-02
  48 F= -.34296653E+03 E0= -.34294926E+03  d E =-.304776E-02  mag=    17.9997
       N       E                     dE             d eps       ncg     rms          rms(c)
DAV:   1    -0.342964832924E+03    0.16999E-02   -0.67994E-01 32688   0.264E+00    0.190E-01
DAV:   2    -0.342967796663E+03   -0.29637E-02   -0.28587E-02 29952   0.443E-01    0.465E-01
DAV:   3    -0.342967779782E+03    0.16882E-04   -0.30961E-03 39640   0.133E-01    0.483E-01
DAV:   4    -0.342967638442E+03    0.14134E-03   -0.14941E-03 37552   0.829E-02    0.280E-01
DAV:   5    -0.342967558278E+03    0.80164E-04   -0.63131E-04 30408   0.522E-02    0.141E-01
DAV:   6    -0.342967594134E+03   -0.35856E-04   -0.14873E-04 23896   0.336E-02    0.155E-01
DAV:   7    -0.342967596736E+03   -0.26019E-05   -0.25824E-04 32008   0.488E-02    0.158E-01
DAV:   8    -0.342967619549E+03   -0.22813E-04   -0.40302E-04 32936   0.530E-02    0.231E-01
DAV:   9    -0.342967585762E+03    0.33787E-04   -0.33895E-04 29136   0.484E-02    0.163E-01
DAV:  10    -0.342967609665E+03   -0.23903E-04   -0.22255E-04 25216   0.405E-02    0.161E-01
DAV:  11    -0.342967580876E+03    0.28789E-04   -0.16179E-04 23928   0.298E-02    0.658E-02
DAV:  12    -0.342967598389E+03   -0.17513E-04   -0.55958E-05 20136   0.201E-02    0.661E-02
DAV:  13    -0.342967597480E+03    0.90953E-06   -0.31930E-05 18904   0.179E-02
  49 F= -.34296760E+03 E0= -.34295032E+03  d E =-.106263E-02  mag=    17.9997
       N       E                     dE             d eps       ncg     rms          rms(c)
DAV:   1    -0.342965480965E+03    0.21174E-02   -0.56682E-01 32776   0.251E+00    0.174E-01
DAV:   2    -0.342968593409E+03   -0.31124E-02   -0.27505E-02 30592   0.432E-01    0.766E-01
DAV:   3    -0.342967777004E+03    0.81640E-03   -0.40189E-03 37384   0.153E-01    0.280E-01
DAV:   4    -0.342968117559E+03   -0.34055E-03   -0.78066E-04 37168   0.846E-02    0.338E-01
DAV:   5    -0.342967918162E+03    0.19940E-03   -0.61047E-04 32400   0.591E-02    0.116E-01
DAV:   6    -0.342967962886E+03   -0.44724E-04   -0.91327E-05 24368   0.340E-02    0.962E-02
DAV:   7    -0.342968003794E+03   -0.40907E-04   -0.19896E-04 25472   0.374E-02    0.210E-01
DAV:   8    -0.342967927611E+03    0.76183E-04   -0.20372E-04 28568   0.383E-02    0.755E-02
DAV:   9    -0.342967967115E+03   -0.39504E-04   -0.11481E-04 22888   0.282E-02    0.112E-01
DAV:  10    -0.342967954954E+03    0.12161E-04   -0.83450E-05 20416   0.233E-02    0.681E-02
DAV:  11    -0.342967954249E+03    0.70492E-06   -0.20366E-05 17888   0.157E-02
  50 F= -.34296795E+03 E0= -.34295070E+03  d E =-.356769E-03  mag=    17.9997
       N       E                     dE             d eps       ncg     rms          rms(c)
DAV:   1    -0.342966119388E+03    0.18356E-02   -0.45034E-01 32184   0.228E+00    0.167E-01
DAV:   2    -0.342968614632E+03   -0.24952E-02   -0.22977E-02 30600   0.400E-01    0.644E-01
DAV:   3    -0.342968037545E+03    0.57709E-03   -0.31699E-03 38512   0.142E-01    0.298E-01
DAV:   4    -0.342968311976E+03   -0.27443E-03   -0.95095E-04 37256   0.805E-02    0.341E-01
DAV:   5    -0.342968124198E+03    0.18778E-03   -0.46101E-04 30560   0.525E-02    0.105E-01
DAV:   6    -0.342968183428E+03   -0.59230E-04   -0.10713E-04 23864   0.317E-02    0.129E-01
DAV:   7    -0.342968191659E+03   -0.82315E-05   -0.20608E-04 27448   0.429E-02    0.159E-01
DAV:   8    -0.342968174700E+03    0.16959E-04   -0.17923E-04 27720   0.417E-02    0.147E-01
DAV:   9    -0.342968168953E+03    0.57470E-05   -0.19578E-04 24968   0.398E-02    0.106E-01
DAV:  10    -0.342968185754E+03   -0.16800E-04   -0.23642E-04 22520   0.323E-02    0.128E-01
DAV:  11    -0.342968160799E+03    0.24954E-04   -0.83228E-05 20488   0.232E-02    0.498E-02
DAV:  12    -0.342968168598E+03   -0.77983E-05   -0.96009E-06 17232   0.108E-02
  51 F= -.34296817E+03 E0= -.34295089E+03  d E =-.214349E-03  mag=    17.9997
       N       E                     dE             d eps       ncg     rms          rms(c)
DAV:   1    -0.342966214072E+03    0.19467E-02   -0.41695E-01 31480   0.174E+00    0.119E-01
DAV:   2    -0.342967577517E+03   -0.13634E-02   -0.13077E-02 30232   0.293E-01    0.356E-01
DAV:   3    -0.342967434748E+03    0.14277E-03   -0.17025E-03 39456   0.957E-02    0.243E-01
DAV:   4    -0.342967421417E+03    0.13331E-04   -0.51102E-04 31120   0.503E-02    0.164E-01
DAV:   5    -0.342967386993E+03    0.34424E-04   -0.11952E-04 22736   0.279E-02    0.846E-02
DAV:   6    -0.342967406711E+03   -0.19717E-04   -0.10717E-04 21328   0.228E-02    0.103E-01
DAV:   7    -0.342967386148E+03    0.20563E-04   -0.13249E-04 25840   0.308E-02    0.769E-02
DAV:   8    -0.342967417210E+03   -0.31063E-04   -0.18538E-04 24344   0.300E-02    0.179E-01
DAV:   9    -0.342967379099E+03    0.38111E-04   -0.14593E-04 22568   0.305E-02    0.904E-02
DAV:  10    -0.342967389868E+03   -0.10768E-04   -0.80150E-05 20376   0.239E-02    0.699E-02
DAV:  11    -0.342967394081E+03   -0.42140E-05   -0.79615E-05 19912   0.202E-02
  52 F= -.34296739E+03 E0= -.34295012E+03  d E =0.774516E-03  mag=    17.9997
       N       E                     dE             d eps       ncg     rms          rms(c)
DAV:   1    -0.342958940783E+03    0.84491E-02   -0.18535E+00 31280   0.398E+00    0.281E-01
DAV:   2    -0.342966050743E+03   -0.71100E-02   -0.72197E-02 29952   0.660E-01    0.384E-01
DAV:   3    -0.342967462950E+03   -0.14122E-02   -0.91686E-03 40872   0.213E-01    0.104E+00
DAV:   4    -0.342965541990E+03    0.19210E-02   -0.50922E-03 37920   0.154E-01    0.261E-01
DAV:   5    -0.342965958696E+03   -0.41671E-03   -0.57109E-04 36384   0.639E-02    0.178E-01
DAV:   6    -0.342966031421E+03   -0.72725E-04   -0.41222E-04 31512   0.540E-02    0.224E-01
DAV:   7    -0.342965992052E+03    0.39369E-04   -0.37799E-04 35824   0.567E-02    0.178E-01
DAV:   8    -0.342965975921E+03    0.16131E-04   -0.41222E-04 34032   0.544E-02    0.138E-01
DAV:   9    -0.342966033121E+03   -0.57200E-04   -0.73873E-04 28008   0.492E-02    0.236E-01
DAV:  10    -0.342965960606E+03    0.72515E-04   -0.32934E-04 26584   0.419E-02    0.120E-01
DAV:  11    -0.342965976143E+03   -0.15537E-04   -0.11534E-04 22224   0.308E-02    0.866E-02
DAV:  12    -0.342965975632E+03    0.51008E-06   -0.30214E-05 19936   0.179E-02
  53 F= -.34296598E+03 E0= -.34294872E+03  d E =0.141845E-02  mag=    17.9997
       N       E                     dE             d eps       ncg     rms          rms(c)
DAV:   1    -0.342951426806E+03    0.14549E-01   -0.35700E+00 31944   0.596E+00    0.377E-01
DAV:   2    -0.342965258579E+03   -0.13832E-01   -0.13866E-01 29952   0.983E-01    0.711E-01
DAV:   3    -0.342966324944E+03   -0.10664E-02   -0.15170E-02 40104   0.287E-01    0.108E+00
DAV:   4    -0.342965014808E+03    0.13101E-02   -0.70567E-03 38400   0.194E-01    0.570E-01
DAV:   5    -0.342964831742E+03    0.18307E-03   -0.30924E-03 37888   0.110E-01    0.193E-01
DAV:   6    -0.342965043926E+03   -0.21218E-03   -0.60262E-04 36992   0.608E-02    0.287E-01
DAV:   7    -0.342964901122E+03    0.14280E-03   -0.54705E-04 39440   0.689E-02    0.140E-01
DAV:   8    -0.342964992580E+03   -0.91458E-04   -0.45657E-04 40752   0.667E-02    0.245E-01
DAV:   9    -0.342964991040E+03    0.15395E-05   -0.47922E-04 34880   0.613E-02    0.260E-01
DAV:  10    -0.342964907488E+03    0.83552E-04   -0.33565E-04 28584   0.494E-02    0.102E-01
DAV:  11    -0.342964944537E+03   -0.37049E-04   -0.88142E-05 23200   0.304E-02    0.104E-01
DAV:  12    -0.342964940142E+03    0.43950E-05   -0.57963E-05 20640   0.226E-02
  54 F= -.34296494E+03 E0= -.34294769E+03  d E =0.103549E-02  mag=    17.9997
       N       E                     dE             d eps       ncg     rms          rms(c)
DAV:   1    -0.342952807315E+03    0.12137E-01   -0.24257E+00 32376   0.536E+00    0.370E-01
DAV:   2    -0.342964929146E+03   -0.12122E-01   -0.11970E-01 29976   0.911E-01    0.841E-01
DAV:   3    -0.342965601249E+03   -0.67210E-03   -0.13436E-02 40320   0.288E-01    0.115E+00
DAV:   4    -0.342964455818E+03    0.11454E-02   -0.65540E-03 38800   0.192E-01    0.613E-01
DAV:   5    -0.342964286960E+03    0.16886E-03   -0.26209E-03 37872   0.124E-01    0.226E-01
DAV:   6    -0.342964550859E+03   -0.26390E-03   -0.10719E-03 35320   0.760E-02    0.349E-01
DAV:   7    -0.342964458590E+03    0.92269E-04   -0.63860E-04 39512   0.758E-02    0.273E-01
DAV:   8    -0.342964427727E+03    0.30863E-04   -0.66551E-04 38488   0.713E-02    0.231E-01
DAV:   9    -0.342964460088E+03   -0.32360E-04   -0.44497E-04 34184   0.588E-02    0.221E-01
DAV:  10    -0.342964409107E+03    0.50981E-04   -0.44646E-04 29456   0.500E-02    0.139E-01
DAV:  11    -0.342964404006E+03    0.51004E-05   -0.16990E-04 23088   0.287E-02    0.953E-02
DAV:  12    -0.342964414581E+03   -0.10575E-04   -0.67603E-05 22392   0.274E-02    0.102E-01
DAV:  13    -0.342964407665E+03    0.69162E-05   -0.87556E-05 22160   0.253E-02
  55 F= -.34296441E+03 E0= -.34294708E+03  d E =0.532477E-03  mag=    17.9997
       N       E                     dE             d eps       ncg     rms          rms(c)
DAV:   1    -0.342962155873E+03    0.22587E-02   -0.84591E-01 32208   0.304E+00    0.249E-01
DAV:   2    -0.342967229965E+03   -0.50741E-02   -0.47088E-02 30560   0.539E-01    0.922E-01
DAV:   3    -0.342966164997E+03    0.10650E-02   -0.87469E-03 39424   0.217E-01    0.510E-01
DAV:   4    -0.342966497691E+03   -0.33269E-03   -0.16953E-03 38392   0.130E-01    0.491E-01
DAV:   5    -0.342966084534E+03    0.41316E-03   -0.96738E-04 37992   0.892E-02    0.170E-01
DAV:   6    -0.342966189204E+03   -0.10467E-03   -0.32970E-04 27312   0.424E-02    0.169E-01
DAV:   7    -0.342966200757E+03   -0.11552E-04   -0.28612E-04 32248   0.449E-02    0.223E-01
DAV:   8    -0.342966145037E+03    0.55719E-04   -0.31989E-04 29448   0.477E-02    0.166E-01
DAV:   9    -0.342966202457E+03   -0.57419E-04   -0.42457E-04 32544   0.533E-02    0.216E-01
DAV:  10    -0.342966162639E+03    0.39817E-04   -0.56986E-04 27392   0.506E-02    0.187E-01
DAV:  11    -0.342966137070E+03    0.25570E-04   -0.17930E-04 26008   0.350E-02    0.797E-02
DAV:  12    -0.342966162862E+03   -0.25792E-04   -0.87335E-05 22000   0.234E-02    0.779E-02
DAV:  13    -0.342966157412E+03    0.54495E-05   -0.50335E-05 18368   0.179E-02
  56 F= -.34296616E+03 E0= -.34294888E+03  d E =-.174975E-02  mag=    17.9997
       N       E                     dE             d eps       ncg     rms          rms(c)
DAV:   1    -0.342964124599E+03    0.20383E-02   -0.22808E-01 32864   0.183E+00    0.184E-01
DAV:   2    -0.342966715387E+03   -0.25908E-02   -0.21752E-02 30128   0.364E-01    0.807E-01
DAV:   3    -0.342965716291E+03    0.99910E-03   -0.42085E-03 38256   0.153E-01    0.262E-01
DAV:   4    -0.342966117868E+03   -0.40158E-03   -0.14421E-03 36616   0.826E-02    0.328E-01
DAV:   5    -0.342965919857E+03    0.19801E-03   -0.81064E-04 32016   0.579E-02    0.118E-01
DAV:   6    -0.342965983148E+03   -0.63291E-04   -0.11529E-04 24832   0.346E-02    0.167E-01
DAV:   7    -0.342965964372E+03    0.18776E-04   -0.21542E-04 31136   0.427E-02    0.158E-01
DAV:   8    -0.342965969349E+03   -0.49766E-05   -0.30353E-04 27056   0.432E-02    0.177E-01
DAV:   9    -0.342965965598E+03    0.37503E-05   -0.19025E-04 28816   0.448E-02    0.159E-01
DAV:  10    -0.342965970826E+03   -0.52275E-05   -0.23650E-04 24280   0.394E-02    0.166E-01
DAV:  11    -0.342965946361E+03    0.24464E-04   -0.12552E-04 25168   0.331E-02    0.732E-02
DAV:  12    -0.342965963675E+03   -0.17314E-04   -0.56399E-05 20208   0.214E-02    0.800E-02
DAV:  13    -0.342965958536E+03    0.51389E-05   -0.33323E-05 17696   0.153E-02
  57 F= -.34296596E+03 E0= -.34294870E+03  d E =0.198876E-03  mag=    17.9997
       N       E                     dE             d eps       ncg     rms          rms(c)
DAV:   1    -0.342964039208E+03    0.19245E-02   -0.42067E-01 32584   0.211E+00    0.137E-01
DAV:   2    -0.342965902044E+03   -0.18628E-02   -0.18634E-02 29952   0.353E-01    0.223E-01
DAV:   3    -0.342966136190E+03   -0.23415E-03   -0.14046E-03 40200   0.104E-01    0.464E-01
DAV:   4    -0.342965818123E+03    0.31807E-03   -0.10395E-03 36256   0.770E-02    0.198E-01
DAV:   5    -0.342965873011E+03   -0.54888E-04   -0.27977E-04 27424   0.412E-02    0.710E-02
DAV:   6    -0.342965912633E+03   -0.39622E-04   -0.88524E-05 21568   0.256E-02    0.130E-01
DAV:   7    -0.342965887606E+03    0.25026E-04   -0.68942E-05 20584   0.287E-02    0.616E-02
DAV:   8    -0.342965905137E+03   -0.17531E-04   -0.10375E-04 22368   0.231E-02    0.103E-01
DAV:   9    -0.342965894454E+03    0.10683E-04   -0.12624E-04 20832   0.230E-02    0.632E-02
DAV:  10    -0.342965898105E+03   -0.36512E-05   -0.59469E-05 18816   0.187E-02
  58 F= -.34296590E+03 E0= -.34294861E+03  d E =0.604308E-04  mag=    17.9997
