       N       E                     dE             d eps       ncg     rms          rms(c)
DAV:   1     0.651250366959E+04    0.65125E+04   -0.28015E+05 37584   0.153E+03
DAV:   2     0.343345703856E+03   -0.61692E+04   -0.58006E+04 38120   0.466E+02
DAV:   3    -0.381018714874E+03   -0.72436E+03   -0.71119E+03 39488   0.171E+02
DAV:   4    -0.412022803321E+03   -0.31004E+02   -0.30519E+02 50632   0.313E+01
DAV:   5    -0.414287956514E+03   -0.22652E+01   -0.22524E+01 63072   0.634E+00    0.636E+01
DAV:   6    -0.354813610112E+03    0.59474E+02   -0.27464E+02 41176   0.404E+01    0.540E+01
DAV:   7    -0.379773461191E+03   -0.24960E+02   -0.91921E+01 41616   0.294E+01    0.765E+01
DAV:   8    -0.361155113612E+03    0.18618E+02   -0.22469E+01 41704   0.177E+01    0.355E+01
DAV:   9    -0.367228615295E+03   -0.60735E+01   -0.30533E+01 44336   0.113E+01    0.485E+01
DAV:  10    -0.368483233748E+03   -0.12546E+01   -0.21218E+01 40704   0.117E+01    0.425E+01
DAV:  11    -0.367198464328E+03    0.12848E+01   -0.14752E+01 41984   0.697E+00    0.201E+01
DAV:  12    -0.371574088013E+03   -0.43756E+01   -0.54466E+00 44816   0.538E+00    0.168E+01
DAV:  13    -0.374721801770E+03   -0.31477E+01   -0.69347E+00 43152   0.449E+00    0.144E+01
DAV:  14    -0.376435801048E+03   -0.17140E+01   -0.13749E+00 43536   0.302E+00    0.159E+01
DAV:  15    -0.377921182642E+03   -0.14854E+01   -0.16608E+00 45096   0.215E+00    0.174E+01
DAV:  16    -0.378095000459E+03   -0.17382E+00   -0.10429E+00 45504   0.170E+00    0.153E+01
DAV:  17    -0.378675923700E+03   -0.58092E+00   -0.11791E+00 44544   0.166E+00    0.141E+01
DAV:  18    -0.379250015706E+03   -0.57409E+00   -0.31907E+00 43640   0.271E+00    0.824E+00
DAV:  19    -0.379596292287E+03   -0.34628E+00   -0.21654E-01 41440   0.130E+00    0.650E+00
DAV:  20    -0.379897049133E+03   -0.30076E+00   -0.10098E-01 44912   0.877E-01    0.571E+00
DAV:  21    -0.380087685269E+03   -0.19064E+00   -0.45169E-02 44392   0.573E-01    0.485E+00
DAV:  22    -0.380739196322E+03   -0.65151E+00   -0.23246E-01 44704   0.108E+00    0.442E+00
DAV:  23    -0.381218354119E+03   -0.47916E+00   -0.22483E-01 44392   0.104E+00    0.310E+00
DAV:  24    -0.381576971728E+03   -0.35862E+00   -0.16347E-01 42360   0.942E-01    0.224E+00
DAV:  25    -0.381940583359E+03   -0.36361E+00   -0.17390E-01 41280   0.704E-01    0.177E+00
DAV:  26    -0.382173425311E+03   -0.23284E+00   -0.13923E-01 40712   0.669E-01    0.116E+00
DAV:  27    -0.382239591836E+03   -0.66167E-01   -0.39804E-02 43056   0.452E-01    0.104E+00
DAV:  28    -0.382255437124E+03   -0.15845E-01   -0.10941E-02 40256   0.261E-01    0.898E-01
DAV:  29    -0.382258218029E+03   -0.27809E-02   -0.39123E-03 43240   0.212E-01    0.656E-01
DAV:  30    -0.382258662443E+03   -0.44441E-03   -0.26309E-03 41936   0.183E-01    0.306E-01
DAV:  31    -0.382258622678E+03    0.39764E-04   -0.15179E-03 47544   0.103E-01    0.341E-01
DAV:  32    -0.382258414728E+03    0.20795E-03   -0.50666E-04 44960   0.788E-02    0.171E-01
DAV:  33    -0.382258360862E+03    0.53866E-04   -0.38811E-04 42008   0.445E-02    0.137E-01
DAV:  34    -0.382258364839E+03   -0.39773E-05   -0.17656E-04 43616   0.547E-02    0.129E-01
DAV:  35    -0.382258330447E+03    0.34392E-04   -0.10007E-04 38576   0.335E-02    0.594E-02
DAV:  36    -0.382258330529E+03   -0.81433E-07   -0.29749E-05 33480   0.127E-02
   1 F= -.38225833E+03 E0= -.38225513E+03  d E =-.382258E+03  mag=    46.0168
       N       E                     dE             d eps       ncg     rms          rms(c)
DAV:   1    -0.382276807764E+03   -0.18477E-01   -0.10744E-02 40808   0.192E-01    0.380E-02
DAV:   2    -0.382276853921E+03   -0.46158E-04   -0.43656E-04 40912   0.402E-02    0.979E-02
DAV:   3    -0.382276840480E+03    0.13441E-04   -0.23630E-05 33720   0.141E-02    0.540E-02
DAV:   4    -0.382276835832E+03    0.46480E-05   -0.16228E-05 27080   0.106E-02
   2 F= -.38227684E+03 E0= -.38227359E+03  d E =-.185053E-01  mag=    46.0102
       N       E                     dE             d eps       ncg     rms          rms(c)
DAV:   1    -0.382736856083E+03   -0.46002E+00   -0.99223E+00 39744   0.582E+00    0.732E-01
DAV:   2    -0.382767685329E+03   -0.30829E-01   -0.37186E-01 40544   0.999E-01    0.596E-01
DAV:   3    -0.382768349876E+03   -0.66455E-03   -0.18010E-02 50176   0.280E-01    0.900E-01
DAV:   4    -0.382766449980E+03    0.18999E-02   -0.31855E-03 46072   0.188E-01    0.275E-01
DAV:   5    -0.382766385191E+03    0.64789E-04   -0.17861E-03 44680   0.143E-01    0.548E-01
DAV:   6    -0.382765703739E+03    0.68145E-03   -0.19755E-03 46088   0.120E-01    0.266E-01
DAV:   7    -0.382765756816E+03   -0.53078E-04   -0.81628E-04 49744   0.782E-02    0.244E-01
DAV:   8    -0.382765681037E+03    0.75780E-04   -0.14638E-04 41360   0.509E-02    0.134E-01
DAV:   9    -0.382765653109E+03    0.27928E-04   -0.88257E-05 36952   0.281E-02    0.410E-02
DAV:  10    -0.382765661026E+03   -0.79170E-05   -0.27460E-05 31448   0.183E-02
   3 F= -.38276566E+03 E0= -.38276226E+03  d E =-.488825E+00  mag=    46.0022
       N       E                     dE             d eps       ncg     rms          rms(c)
DAV:   1    -0.383306443598E+03   -0.54079E+00   -0.52903E+01 40376   0.143E+01    0.161E+00
DAV:   2    -0.383499809386E+03   -0.19337E+00   -0.21645E+00 40184   0.241E+00    0.116E+00
DAV:   3    -0.383501564095E+03   -0.17547E-02   -0.84626E-02 51720   0.569E-01    0.152E+00
DAV:   4    -0.383495999796E+03    0.55643E-02   -0.13954E-02 45600   0.386E-01    0.680E-01
DAV:   5    -0.383493662471E+03    0.23373E-02   -0.64289E-03 44928   0.283E-01    0.875E-01
DAV:   6    -0.383491514104E+03    0.21484E-02   -0.74497E-03 45712   0.241E-01    0.370E-01
DAV:   7    -0.383491798340E+03   -0.28424E-03   -0.30273E-03 50184   0.142E-01    0.448E-01
DAV:   8    -0.383491369477E+03    0.42886E-03   -0.71078E-04 47984   0.100E-01    0.135E-01
DAV:   9    -0.383491460448E+03   -0.90971E-04   -0.39811E-04 49576   0.551E-02    0.217E-01
DAV:  10    -0.383491380262E+03    0.80186E-04   -0.11073E-04 42392   0.409E-02    0.100E-01
DAV:  11    -0.383491366676E+03    0.13586E-04   -0.58006E-05 34176   0.222E-02    0.264E-02
DAV:  12    -0.383491363495E+03    0.31812E-05   -0.24943E-05 32784   0.203E-02
   4 F= -.38349136E+03 E0= -.38348773E+03  d E =-.725702E+00  mag=    46.0003
       N       E                     dE             d eps       ncg     rms          rms(c)
DAV:   1    -0.383636918591E+03   -0.14555E+00   -0.67169E+01 41376   0.187E+01    0.189E+00
DAV:   2    -0.383915526518E+03   -0.27861E+00   -0.29004E+00 39384   0.308E+00    0.156E+00
DAV:   3    -0.383923204666E+03   -0.76781E-02   -0.10243E-01 50592   0.753E-01    0.214E+00
DAV:   4    -0.383913163262E+03    0.10041E-01   -0.18861E-02 46736   0.441E-01    0.656E-01
DAV:   5    -0.383913625697E+03   -0.46243E-03   -0.68917E-03 46392   0.329E-01    0.146E+00
DAV:   6    -0.383908889707E+03    0.47360E-02   -0.74624E-03 44088   0.284E-01    0.667E-01
DAV:   7    -0.383909878780E+03   -0.98907E-03   -0.73706E-03 51328   0.238E-01    0.882E-01
DAV:   8    -0.383908745093E+03    0.11337E-02   -0.19107E-03 45344   0.163E-01    0.522E-01
DAV:   9    -0.383908335420E+03    0.40967E-03   -0.93428E-04 51200   0.827E-02    0.725E-02
DAV:  10    -0.383908493792E+03   -0.15837E-03   -0.19209E-04 41528   0.363E-02    0.773E-02
DAV:  11    -0.383908504421E+03   -0.10630E-04   -0.28564E-05 33792   0.208E-02    0.120E-01
DAV:  12    -0.383908472283E+03    0.32139E-04   -0.38890E-05 34240   0.231E-02    0.298E-02
DAV:  13    -0.383908478534E+03   -0.62519E-05   -0.20873E-05 29104   0.122E-02
   5 F= -.38390848E+03 E0= -.38390457E+03  d E =-.417115E+00  mag=    46.0000
       N       E                     dE             d eps       ncg     rms          rms(c)
DAV:   1    -0.383751164006E+03    0.15731E+00   -0.75979E+01 41400   0.232E+01    0.242E+00
DAV:   2    -0.384151838147E+03   -0.40067E+00   -0.39852E+00 38624   0.374E+00    0.193E+00
DAV:   3    -0.384165412233E+03   -0.13574E-01   -0.12296E-01 51648   0.839E-01    0.230E+00
DAV:   4    -0.384154810159E+03    0.10602E-01   -0.23521E-02 46096   0.487E-01    0.715E-01
DAV:   5    -0.384155237156E+03   -0.42700E-03   -0.58660E-03 46104   0.274E-01    0.128E+00
DAV:   6    -0.384151687377E+03    0.35498E-02   -0.61941E-03 44024   0.278E-01    0.509E-01
DAV:   7    -0.384153513854E+03   -0.18265E-02   -0.87785E-03 45216   0.230E-01    0.106E+00
DAV:   8    -0.384151162510E+03    0.23513E-02   -0.28645E-03 47160   0.191E-01    0.387E-01
DAV:   9    -0.384151338001E+03   -0.17549E-03   -0.12695E-03 49912   0.807E-02    0.216E-01
DAV:  10    -0.384151379875E+03   -0.41874E-04   -0.19737E-04 41872   0.504E-02    0.100E-01
DAV:  11    -0.384151373290E+03    0.65849E-05   -0.45159E-05 33384   0.197E-02
   6 F= -.38415137E+03 E0= -.38414737E+03  d E =-.242895E+00  mag=    46.0000
       N       E                     dE             d eps       ncg     rms          rms(c)
DAV:   1    -0.383871735757E+03    0.27964E+00   -0.66875E+01 40864   0.228E+01    0.249E+00
DAV:   2    -0.384270074161E+03   -0.39834E+00   -0.39330E+00 37168   0.372E+00    0.204E+00
DAV:   3    -0.384283427505E+03   -0.13353E-01   -0.11581E-01 51768   0.798E-01    0.210E+00
DAV:   4    -0.384275597807E+03    0.78297E-02   -0.24649E-02 47240   0.484E-01    0.834E-01
DAV:   5    -0.384275090718E+03    0.50709E-03   -0.38539E-03 45112   0.209E-01    0.768E-01
DAV:   6    -0.384274228050E+03    0.86267E-03   -0.37865E-03 48488   0.244E-01    0.677E-01
DAV:   7    -0.384273866804E+03    0.36125E-03   -0.51021E-03 43872   0.187E-01    0.599E-01
DAV:   8    -0.384273335782E+03    0.53102E-03   -0.22934E-03 50768   0.134E-01    0.178E-01
DAV:   9    -0.384273489923E+03   -0.15414E-03   -0.42266E-04 42800   0.592E-02    0.156E-01
DAV:  10    -0.384273463300E+03    0.26622E-04   -0.12841E-04 38912   0.309E-02    0.633E-02
DAV:  11    -0.384273466925E+03   -0.36246E-05   -0.29407E-05 30872   0.216E-02
   7 F= -.38427347E+03 E0= -.38426957E+03  d E =-.122094E+00  mag=    46.0000
       N       E                     dE             d eps       ncg     rms          rms(c)
DAV:   1    -0.383641265717E+03    0.63220E+00   -0.14778E+02 39992   0.320E+01    0.349E+00
DAV:   2    -0.384395800814E+03   -0.75454E+00   -0.74965E+00 36944   0.529E+00    0.319E+00
DAV:   3    -0.384415371404E+03   -0.19571E-01   -0.23609E-01 49968   0.126E+00    0.292E+00
DAV:   4    -0.384400430353E+03    0.14941E-01   -0.54164E-02 49488   0.706E-01    0.121E+00
DAV:   5    -0.384399361073E+03    0.10693E-02   -0.11339E-02 47112   0.314E-01    0.978E-01
DAV:   6    -0.384397060677E+03    0.23004E-02   -0.58955E-03 46808   0.254E-01    0.627E-01
DAV:   7    -0.384396466182E+03    0.59449E-03   -0.67895E-03 43080   0.237E-01    0.496E-01
DAV:   8    -0.384396258664E+03    0.20752E-03   -0.31001E-03 48248   0.159E-01    0.245E-01
DAV:   9    -0.384396310089E+03   -0.51425E-04   -0.50634E-04 48416   0.877E-02    0.195E-01
DAV:  10    -0.384396278034E+03    0.32055E-04   -0.19404E-04 44904   0.510E-02    0.745E-02
DAV:  11    -0.384396280348E+03   -0.23140E-05   -0.42609E-05 35736   0.252E-02
   8 F= -.38439628E+03 E0= -.38439238E+03  d E =-.122813E+00  mag=    46.0000
       N       E                     dE             d eps       ncg     rms          rms(c)
DAV:   1    -0.383493823038E+03    0.90245E+00   -0.25111E+02 39856   0.390E+01    0.381E+00
DAV:   2    -0.384514301190E+03   -0.10205E+01   -0.10392E+01 37824   0.658E+00    0.485E+00
DAV:   3    -0.384523918676E+03   -0.96175E-02   -0.65678E-01 48096   0.185E+00    0.484E+00
DAV:   4    -0.384479733137E+03    0.44186E-01   -0.16370E-01 46864   0.100E+00    0.144E+00
DAV:   5    -0.384486298794E+03   -0.65657E-02   -0.37497E-02 47848   0.547E-01    0.244E+00
DAV:   6    -0.384477822564E+03    0.84762E-02   -0.13168E-02 43672   0.415E-01    0.121E+00
DAV:   7    -0.384474939424E+03    0.28831E-02   -0.80792E-03 49336   0.307E-01    0.760E-01
DAV:   8    -0.384473040974E+03    0.18985E-02   -0.74879E-03 45224   0.257E-01    0.550E-01
DAV:   9    -0.384472287414E+03    0.75356E-03   -0.48574E-03 49320   0.223E-01    0.367E-01
DAV:  10    -0.384472264305E+03    0.23109E-04   -0.19914E-03 46208   0.120E-01    0.254E-01
DAV:  11    -0.384472213906E+03    0.50399E-04   -0.46781E-04 49824   0.724E-02    0.153E-01
DAV:  12    -0.384472190935E+03    0.22971E-04   -0.19628E-04 45520   0.370E-02    0.807E-02
DAV:  13    -0.384472153358E+03    0.37577E-04   -0.44578E-05 39736   0.310E-02    0.578E-02
DAV:  14    -0.384472140363E+03    0.12995E-04   -0.98959E-05 35528   0.308E-02    0.656E-02
DAV:  15    -0.384472136725E+03    0.36374E-05   -0.48725E-05 34784   0.202E-02
   9 F= -.38447214E+03 E0= -.38446824E+03  d E =-.758564E-01  mag=    46.0000
       N       E                     dE             d eps       ncg     rms          rms(c)
DAV:   1    -0.384369116999E+03    0.10302E+00   -0.40296E+01 39152   0.155E+01    0.166E+00
DAV:   2    -0.384543792410E+03   -0.17468E+00   -0.18696E+00 37688   0.268E+00    0.138E+00
DAV:   3    -0.384551006551E+03   -0.72141E-02   -0.77799E-02 51032   0.671E-01    0.206E+00
DAV:   4    -0.384542023381E+03    0.89832E-02   -0.15729E-02 47648   0.427E-01    0.520E-01
DAV:   5    -0.384542859424E+03   -0.83604E-03   -0.41192E-03 47928   0.263E-01    0.118E+00
DAV:   6    -0.384539947827E+03    0.29116E-02   -0.39607E-03 44920   0.226E-01    0.484E-01
DAV:   7    -0.384540644689E+03   -0.69686E-03   -0.47919E-03 49456   0.179E-01    0.732E-01
DAV:   8    -0.384539737643E+03    0.90705E-03   -0.11680E-03 44928   0.143E-01    0.382E-01
DAV:   9    -0.384539617697E+03    0.11995E-03   -0.70011E-04 50368   0.694E-02    0.969E-02
DAV:  10    -0.384539698418E+03   -0.80721E-04   -0.16794E-04 43192   0.373E-02    0.793E-02
DAV:  11    -0.384539688981E+03    0.94370E-05   -0.30913E-05 32040   0.194E-02
  10 F= -.38453969E+03 E0= -.38453552E+03  d E =-.675523E-01  mag=    46.0000
       N       E                     dE             d eps       ncg     rms          rms(c)
DAV:   1    -0.384541844097E+03   -0.21457E-02   -0.11231E+00 40312   0.322E+00    0.363E-01
DAV:   2    -0.384548946481E+03   -0.71024E-02   -0.70501E-02 37416   0.540E-01    0.358E-01
DAV:   3    -0.384549387067E+03   -0.44059E-03   -0.33437E-03 49040   0.159E-01    0.541E-01
DAV:   4    -0.384548962567E+03    0.42450E-03   -0.73516E-04 45704   0.100E-01    0.137E-01
DAV:   5    -0.384549032771E+03   -0.70204E-04   -0.29782E-04 45576   0.439E-02    0.150E-01
DAV:   6    -0.384548978335E+03    0.54436E-04   -0.11922E-04 41280   0.338E-02    0.777E-02
DAV:   7    -0.384548979351E+03   -0.10159E-05   -0.86607E-05 42704   0.299E-02
  11 F= -.38454898E+03 E0= -.38454478E+03  d E =-.929037E-02  mag=    46.0000
       N       E                     dE             d eps       ncg     rms          rms(c)
DAV:   1    -0.384534835583E+03    0.14143E-01   -0.76075E+00 39912   0.751E+00    0.721E-01
DAV:   2    -0.384569512510E+03   -0.34677E-01   -0.34277E-01 37208   0.122E+00    0.768E-01
DAV:   3    -0.384570448283E+03   -0.93577E-03   -0.12816E-02 49024   0.309E-01    0.906E-01
DAV:   4    -0.384569395101E+03    0.10532E-02   -0.26319E-03 46624   0.189E-01    0.364E-01
DAV:   5    -0.384569416255E+03   -0.21154E-04   -0.12058E-03 49272   0.920E-02    0.247E-01
DAV:   6    -0.384569224781E+03    0.19147E-03   -0.44365E-04 43096   0.659E-02    0.123E-01
DAV:   7    -0.384569181308E+03    0.43474E-04   -0.29125E-04 45632   0.533E-02    0.938E-02
DAV:   8    -0.384569170471E+03    0.10837E-04   -0.12045E-04 45816   0.333E-02    0.456E-02
DAV:   9    -0.384569167897E+03    0.25746E-05   -0.42804E-05 31816   0.163E-02
  12 F= -.38456917E+03 E0= -.38456507E+03  d E =-.201885E-01  mag=    46.0000
       N       E                     dE             d eps       ncg     rms          rms(c)
DAV:   1    -0.384529983632E+03    0.39187E-01   -0.19511E+01 39200   0.110E+01    0.961E-01
DAV:   2    -0.384600001421E+03   -0.70018E-01   -0.70314E-01 36784   0.178E+00    0.108E+00
DAV:   3    -0.384600618970E+03   -0.61755E-03   -0.24068E-02 48696   0.410E-01    0.101E+00
DAV:   4    -0.384599243859E+03    0.13751E-02   -0.50508E-03 48656   0.228E-01    0.502E-01
DAV:   5    -0.384599076866E+03    0.16699E-03   -0.17824E-03 47912   0.125E-01    0.342E-01
DAV:   6    -0.384598723380E+03    0.35349E-03   -0.79007E-04 42736   0.949E-02    0.185E-01
DAV:   7    -0.384598624008E+03    0.99372E-04   -0.64860E-04 45040   0.736E-02    0.125E-01
DAV:   8    -0.384598616432E+03    0.75758E-05   -0.26184E-04 44744   0.452E-02    0.803E-02
DAV:   9    -0.384598613219E+03    0.32132E-05   -0.66562E-05 35440   0.236E-02
  13 F= -.38459861E+03 E0= -.38459443E+03  d E =-.294453E-01  mag=    46.0000
       N       E                     dE             d eps       ncg     rms          rms(c)
DAV:   1    -0.383776152916E+03    0.82246E+00   -0.16801E+02 40160   0.365E+01    0.382E+00
DAV:   2    -0.384676578243E+03   -0.90043E+00   -0.89255E+00 36944   0.620E+00    0.674E+00
DAV:   3    -0.384687387215E+03   -0.10809E-01   -0.11542E+00 45640   0.192E+00    0.542E+00
DAV:   4    -0.384646323875E+03    0.41063E-01   -0.93457E-02 48296   0.104E+00    0.215E+00
DAV:   5    -0.384648267489E+03   -0.19436E-02   -0.10158E-01 50096   0.687E-01    0.237E+00
DAV:   6    -0.384646388423E+03    0.18791E-02   -0.20080E-02 44960   0.435E-01    0.151E+00
DAV:   7    -0.384643804479E+03    0.25839E-02   -0.69116E-03 51040   0.267E-01    0.848E-01
DAV:   8    -0.384641588630E+03    0.22158E-02   -0.85291E-03 45856   0.246E-01    0.610E-01
DAV:   9    -0.384640687528E+03    0.90110E-03   -0.46618E-03 47064   0.248E-01    0.488E-01
DAV:  10    -0.384640362282E+03    0.32525E-03   -0.28521E-03 44064   0.166E-01    0.304E-01
DAV:  11    -0.384640394648E+03   -0.32367E-04   -0.12214E-03 51168   0.997E-02    0.307E-01
DAV:  12    -0.384640279910E+03    0.11474E-03   -0.46552E-04 49672   0.663E-02    0.143E-01
DAV:  13    -0.384640249228E+03    0.30682E-04   -0.17161E-04 43768   0.448E-02    0.985E-02
DAV:  14    -0.384640244937E+03    0.42910E-05   -0.13903E-04 39152   0.329E-02    0.126E-01
DAV:  15    -0.384640218968E+03    0.25969E-04   -0.76529E-05 33736   0.264E-02    0.403E-02
DAV:  16    -0.384640223540E+03   -0.45716E-05   -0.15145E-05 28000   0.121E-02
  14 F= -.38464022E+03 E0= -.38463548E+03  d E =-.416103E-01  mag=    46.0000
       N       E                     dE             d eps       ncg     rms          rms(c)
DAV:   1    -0.384450047407E+03    0.19017E+00   -0.16341E+01 45272   0.158E+01    0.222E+00
DAV:   2    -0.384673498326E+03   -0.22345E+00   -0.21002E+00 37872   0.258E+00    0.184E+00
DAV:   3    -0.384686685953E+03   -0.13188E-01   -0.10078E-01 46224   0.762E-01    0.181E+00
DAV:   4    -0.384683027430E+03    0.36585E-02   -0.29636E-02 45288   0.454E-01    0.854E-01
DAV:   5    -0.384682951082E+03    0.76348E-04   -0.42303E-03 46256   0.209E-01    0.600E-01
DAV:   6    -0.384682593610E+03    0.35747E-03   -0.20733E-03 48688   0.169E-01    0.623E-01
DAV:   7    -0.384682075310E+03    0.51830E-03   -0.21479E-03 45144   0.156E-01    0.429E-01
DAV:   8    -0.384681819475E+03    0.25584E-03   -0.13114E-03 44032   0.117E-01    0.265E-01
DAV:   9    -0.384681672684E+03    0.14679E-03   -0.64310E-04 49472   0.828E-02    0.143E-01
DAV:  10    -0.384681683979E+03   -0.11296E-04   -0.50883E-04 44320   0.532E-02    0.154E-01
DAV:  11    -0.384681666331E+03    0.17649E-04   -0.22914E-04 45456   0.407E-02    0.925E-02
DAV:  12    -0.384681654012E+03    0.12319E-04   -0.42933E-05 39576   0.200E-02    0.659E-02
DAV:  13    -0.384681634862E+03    0.19150E-04   -0.33737E-05 33680   0.158E-02    0.408E-02
DAV:  14    -0.384681629008E+03    0.58537E-05   -0.32197E-05 29664   0.150E-02
  15 F= -.38468163E+03 E0= -.38467708E+03  d E =-.414055E-01  mag=    46.0000
       N       E                     dE             d eps       ncg     rms          rms(c)
DAV:   1    -0.384682778179E+03   -0.11433E-02   -0.53316E-01 41056   0.231E+00    0.275E-01
DAV:   2    -0.384687073546E+03   -0.42954E-02   -0.41045E-02 37232   0.379E-01    0.322E-01
DAV:   3    -0.384687255059E+03   -0.18151E-03   -0.23268E-03 46456   0.113E-01    0.337E-01
DAV:   4    -0.384687113903E+03    0.14116E-03   -0.49631E-04 44448   0.658E-02    0.113E-01
DAV:   5    -0.384687140156E+03   -0.26253E-04   -0.16294E-04 36912   0.347E-02    0.133E-01
DAV:   6    -0.384687112142E+03    0.28014E-04   -0.52778E-05 34080   0.281E-02    0.594E-02
DAV:   7    -0.384687111733E+03    0.40902E-06   -0.55813E-05 37872   0.199E-02
  16 F= -.38468711E+03 E0= -.38468243E+03  d E =-.548273E-02  mag=    46.0000
       N       E                     dE             d eps       ncg     rms          rms(c)
DAV:   1    -0.384650110132E+03    0.37002E-01   -0.11883E+01 39912   0.950E+00    0.106E+00
DAV:   2    -0.384715164780E+03   -0.65055E-01   -0.61020E-01 37104   0.160E+00    0.263E+00
DAV:   3    -0.384707760563E+03    0.74042E-02   -0.77218E-02 42936   0.587E-01    0.106E+00
DAV:   4    -0.384709065630E+03   -0.13051E-02   -0.10496E-02 46160   0.265E-01    0.916E-01
DAV:   5    -0.384707881779E+03    0.11839E-02   -0.28143E-03 47960   0.175E-01    0.303E-01
DAV:   6    -0.384708185903E+03   -0.30412E-03   -0.17514E-03 44088   0.849E-02    0.415E-01
DAV:   7    -0.384707944384E+03    0.24152E-03   -0.79829E-04 49232   0.739E-02    0.265E-01
DAV:   8    -0.384707865599E+03    0.78785E-04   -0.66362E-04 45424   0.653E-02    0.201E-01
DAV:   9    -0.384707834957E+03    0.30642E-04   -0.24286E-04 44584   0.560E-02    0.132E-01
DAV:  10    -0.384707817993E+03    0.16964E-04   -0.17015E-04 43032   0.384E-02    0.858E-02
DAV:  11    -0.384707828896E+03   -0.10903E-04   -0.10391E-04 37872   0.242E-02    0.107E-01
DAV:  12    -0.384707813962E+03    0.14934E-04   -0.62752E-05 29864   0.210E-02    0.346E-02
DAV:  13    -0.384707819753E+03   -0.57904E-05   -0.10320E-05 24888   0.818E-03
  17 F= -.38470782E+03 E0= -.38470279E+03  d E =-.207080E-01  mag=    46.0000
       N       E                     dE             d eps       ncg     rms          rms(c)
DAV:   1    -0.384666709627E+03    0.41104E-01   -0.20260E+01 38896   0.111E+01    0.108E+00
DAV:   2    -0.384745542423E+03   -0.78833E-01   -0.76665E-01 36880   0.186E+00    0.311E+00
DAV:   3    -0.384733242530E+03    0.12300E-01   -0.11570E-01 43320   0.638E-01    0.111E+00
DAV:   4    -0.384736068216E+03   -0.28257E-02   -0.17967E-02 46152   0.312E-01    0.125E+00
DAV:   5    -0.384733660184E+03    0.24080E-02   -0.34978E-03 46584   0.218E-01    0.357E-01
DAV:   6    -0.384734147997E+03   -0.48781E-03   -0.40517E-03 47872   0.111E-01    0.500E-01
DAV:   7    -0.384734048854E+03    0.99143E-04   -0.89217E-04 47576   0.898E-02    0.436E-01
DAV:   8    -0.384733701115E+03    0.34774E-03   -0.67666E-04 50848   0.648E-02    0.197E-01
DAV:   9    -0.384733712175E+03   -0.11060E-04   -0.54302E-04 42584   0.591E-02    0.191E-01
DAV:  10    -0.384733661054E+03    0.51120E-04   -0.28377E-04 44288   0.531E-02    0.989E-02
DAV:  11    -0.384733709513E+03   -0.48459E-04   -0.30231E-04 45440   0.357E-02    0.178E-01
DAV:  12    -0.384733662900E+03    0.46613E-04   -0.67485E-05 32568   0.261E-02    0.764E-02
DAV:  13    -0.384733665223E+03   -0.23231E-05   -0.26524E-05 26712   0.105E-02
  18 F= -.38473367E+03 E0= -.38472825E+03  d E =-.258455E-01  mag=    46.0000
       N       E                     dE             d eps       ncg     rms          rms(c)
DAV:   1    -0.383300364244E+03    0.14333E+01   -0.14422E+02 41152   0.398E+01    0.566E+00
DAV:   2    -0.384888317244E+03   -0.15880E+01   -0.14841E+01 36928   0.701E+00    0.163E+01
DAV:   3    -0.384643463100E+03    0.24485E+00   -0.32540E+00 42216   0.283E+00    0.529E+00
DAV:   4    -0.384693124820E+03   -0.49662E-01   -0.17669E-01 47128   0.128E+00    0.278E+00
DAV:   5    -0.384688163228E+03    0.49616E-02   -0.17941E-01 50424   0.805E-01    0.255E+00
DAV:   6    -0.384686167018E+03    0.19962E-02   -0.41152E-02 48992   0.601E-01    0.200E+00
DAV:   7    -0.384681977009E+03    0.41900E-02   -0.20607E-02 47992   0.375E-01    0.118E+00
DAV:   8    -0.384681239698E+03    0.73731E-03   -0.74360E-03 45648   0.256E-01    0.829E-01
DAV:   9    -0.384680649635E+03    0.59006E-03   -0.97767E-03 47208   0.272E-01    0.916E-01
DAV:  10    -0.384679347912E+03    0.13017E-02   -0.49417E-03 46512   0.235E-01    0.481E-01
DAV:  11    -0.384679644605E+03   -0.29669E-03   -0.27918E-03 45736   0.134E-01    0.393E-01
DAV:  12    -0.384679421950E+03    0.22265E-03   -0.10799E-03 49960   0.893E-02    0.273E-01
DAV:  13    -0.384679264043E+03    0.15791E-03   -0.50512E-04 45608   0.753E-02    0.166E-01
DAV:  14    -0.384679252550E+03    0.11492E-04   -0.31066E-04 47480   0.465E-02    0.104E-01
DAV:  15    -0.384679248796E+03    0.37543E-05   -0.14325E-04 39960   0.306E-02    0.716E-02
DAV:  16    -0.384679237699E+03    0.11097E-04   -0.53045E-05 33144   0.220E-02    0.353E-02
DAV:  17    -0.384679237459E+03    0.24027E-06   -0.17097E-05 27408   0.102E-02
  19 F= -.38467924E+03 E0= -.38467349E+03  d E =0.544278E-01  mag=    46.0000
       N       E                     dE             d eps       ncg     rms          rms(c)
DAV:   1    -0.384302096021E+03    0.37714E+00   -0.30327E+01 46128   0.206E+01    0.332E+00
DAV:   2    -0.384788668452E+03   -0.48657E+00   -0.45372E+00 38008   0.346E+00    0.452E+00
DAV:   3    -0.384806225539E+03   -0.17557E-01   -0.68810E-01 44280   0.148E+00    0.370E+00
DAV:   4    -0.384791736104E+03    0.14489E-01   -0.14956E-01 44976   0.863E-01    0.229E+00
DAV:   5    -0.384788600781E+03    0.31353E-02   -0.58955E-02 47408   0.502E-01    0.114E+00
DAV:   6    -0.384789164698E+03   -0.56392E-03   -0.11962E-02 44016   0.302E-01    0.918E-01
DAV:   7    -0.384788374184E+03    0.79051E-03   -0.64180E-03 47288   0.263E-01    0.744E-01
DAV:   8    -0.384787849842E+03    0.52434E-03   -0.23353E-03 49352   0.198E-01    0.590E-01
DAV:   9    -0.384787263995E+03    0.58585E-03   -0.29179E-03 43320   0.169E-01    0.400E-01
DAV:  10    -0.384787238336E+03    0.25659E-04   -0.18614E-03 45536   0.117E-01    0.261E-01
DAV:  11    -0.384787268861E+03   -0.30524E-04   -0.49958E-04 49552   0.614E-02    0.190E-01
DAV:  12    -0.384787252331E+03    0.16529E-04   -0.41386E-04 48192   0.585E-02    0.256E-01
DAV:  13    -0.384787118981E+03    0.13335E-03   -0.23612E-04 41968   0.499E-02    0.562E-02
DAV:  14    -0.384787142029E+03   -0.23048E-04   -0.87485E-05 39392   0.224E-02    0.869E-02
DAV:  15    -0.384787128548E+03    0.13481E-04   -0.22471E-05 29392   0.170E-02    0.308E-02
DAV:  16    -0.384787125847E+03    0.27011E-05   -0.15105E-05 28152   0.102E-02
  20 F= -.38478713E+03 E0= -.38478074E+03  d E =-.107888E+00  mag=    46.0000
       N       E                     dE             d eps       ncg     rms          rms(c)
DAV:   1    -0.384782091199E+03    0.50373E-02   -0.86261E-01 41992   0.315E+00    0.458E-01
DAV:   2    -0.384793224601E+03   -0.11133E-01   -0.10112E-01 37440   0.526E-01    0.811E-01
DAV:   3    -0.384793731977E+03   -0.50738E-03   -0.16760E-02 43712   0.237E-01    0.887E-01
DAV:   4    -0.384792805358E+03    0.92662E-03   -0.22622E-03 42968   0.135E-01    0.263E-01
DAV:   5    -0.384793016482E+03   -0.21112E-03   -0.11283E-03 47744   0.729E-02    0.321E-01
DAV:   6    -0.384793053995E+03   -0.37513E-04   -0.32764E-04 40056   0.570E-02    0.340E-01
DAV:   7    -0.384792866336E+03    0.18766E-03   -0.32445E-04 39176   0.457E-02    0.880E-02
DAV:   8    -0.384792910852E+03   -0.44516E-04   -0.63566E-05 37912   0.254E-02    0.847E-02
DAV:   9    -0.384792902043E+03    0.88090E-05   -0.40566E-05 30952   0.218E-02
  21 F= -.38479290E+03 E0= -.38478642E+03  d E =-.577620E-02  mag=    46.0000
       N       E                     dE             d eps       ncg     rms          rms(c)
DAV:   1    -0.384737985926E+03    0.54925E-01   -0.86253E+00 40704   0.872E+00    0.114E+00
DAV:   2    -0.384808823244E+03   -0.70837E-01   -0.67271E-01 37184   0.148E+00    0.291E+00
DAV:   3    -0.384801589008E+03    0.72342E-02   -0.14910E-01 43400   0.589E-01    0.156E+00
DAV:   4    -0.384802066478E+03   -0.47747E-03   -0.16096E-02 46096   0.332E-01    0.112E+00
DAV:   5    -0.384800566392E+03    0.15001E-02   -0.54988E-03 47816   0.223E-01    0.404E-01
DAV:   6    -0.384801327173E+03   -0.76078E-03   -0.50152E-03 44424   0.118E-01    0.610E-01
DAV:   7    -0.384801105310E+03    0.22186E-03   -0.15296E-03 47912   0.968E-02    0.426E-01
DAV:   8    -0.384800939971E+03    0.16534E-03   -0.58901E-04 49120   0.550E-02    0.206E-01
DAV:   9    -0.384800939121E+03    0.85083E-06   -0.41009E-04 45064   0.600E-02    0.219E-01
DAV:  10    -0.384800962049E+03   -0.22929E-04   -0.45101E-04 44248   0.607E-02    0.294E-01
DAV:  11    -0.384800854254E+03    0.10780E-03   -0.34972E-04 41904   0.519E-02    0.159E-01
DAV:  12    -0.384800899601E+03   -0.45347E-04   -0.45933E-04 40456   0.384E-02    0.206E-01
DAV:  13    -0.384800845408E+03    0.54193E-04   -0.83957E-05 36080   0.285E-02    0.116E-01
DAV:  14    -0.384800835911E+03    0.94971E-05   -0.11639E-04 29120   0.161E-02    0.307E-02
DAV:  15    -0.384800844374E+03   -0.84631E-05   -0.14414E-05 23504   0.916E-03
  22 F= -.38480084E+03 E0= -.38479386E+03  d E =-.794233E-02  mag=    46.0000
       N       E                     dE             d eps       ncg     rms          rms(c)
DAV:   1    -0.384802683414E+03   -0.18475E-02   -0.77295E-01 40336   0.251E+00    0.259E-01
DAV:   2    -0.384806835656E+03   -0.41522E-02   -0.40294E-02 36880   0.416E-01    0.431E-01
DAV:   3    -0.384806869855E+03   -0.34198E-04   -0.33170E-03 47456   0.135E-01    0.393E-01
DAV:   4    -0.384806753547E+03    0.11631E-03   -0.12255E-03 43304   0.770E-02    0.252E-01
DAV:   5    -0.384806697626E+03    0.55921E-04   -0.39271E-04 38640   0.479E-02    0.102E-01
DAV:   6    -0.384806707812E+03   -0.10186E-04   -0.11444E-04 33984   0.319E-02    0.101E-01
DAV:   7    -0.384806695140E+03    0.12673E-04   -0.72712E-05 36232   0.257E-02    0.590E-02
DAV:   8    -0.384806695269E+03   -0.12909E-06   -0.35589E-05 26824   0.132E-02
  23 F= -.38480670E+03 E0= -.38479969E+03  d E =-.585089E-02  mag=    46.0000
       N       E                     dE             d eps       ncg     rms          rms(c)
DAV:   1    -0.384286078317E+03    0.52062E+00   -0.14245E+02 39448   0.315E+01    0.309E+00
DAV:   2    -0.384929347768E+03   -0.64327E+00   -0.63361E+00 36648   0.529E+00    0.724E+00
DAV:   3    -0.384882650911E+03    0.46697E-01   -0.53133E-01 45920   0.146E+00    0.334E+00
DAV:   4    -0.384878243548E+03    0.44074E-02   -0.10498E-01 45880   0.887E-01    0.217E+00
DAV:   5    -0.384872839952E+03    0.54036E-02   -0.53393E-02 49672   0.532E-01    0.122E+00
DAV:   6    -0.384873866211E+03   -0.10263E-02   -0.31846E-02 44960   0.454E-01    0.165E+00
DAV:   7    -0.384870155868E+03    0.37103E-02   -0.10658E-02 45680   0.299E-01    0.725E-01
DAV:   8    -0.384870751357E+03   -0.59549E-03   -0.51547E-03 49360   0.151E-01    0.671E-01
DAV:   9    -0.384870284775E+03    0.46658E-03   -0.54552E-03 48024   0.175E-01    0.566E-01
DAV:  10    -0.384870043757E+03    0.24102E-03   -0.46063E-03 46928   0.172E-01    0.466E-01
DAV:  11    -0.384870040060E+03    0.36975E-05   -0.19742E-03 43968   0.127E-01    0.377E-01
DAV:  12    -0.384870015220E+03    0.24839E-04   -0.88197E-04 49192   0.740E-02    0.319E-01
DAV:  13    -0.384869855461E+03    0.15976E-03   -0.69461E-04 51048   0.599E-02    0.818E-02
DAV:  14    -0.384869903567E+03   -0.48106E-04   -0.13133E-04 38512   0.320E-02    0.565E-02
DAV:  15    -0.384869900265E+03    0.33017E-05   -0.51671E-05 31792   0.187E-02
  24 F= -.38486990E+03 E0= -.38486189E+03  d E =-.632050E-01  mag=    46.0000
       N       E                     dE             d eps       ncg     rms          rms(c)
DAV:   1    -0.383186983247E+03    0.16829E+01   -0.14257E+02 42656   0.393E+01    0.576E+00
DAV:   2    -0.384946935536E+03   -0.17600E+01   -0.16171E+01 37680   0.695E+00    0.157E+01
DAV:   3    -0.384682743047E+03    0.26419E+00   -0.33972E+00 43176   0.292E+00    0.493E+00
DAV:   4    -0.384736928568E+03   -0.54186E-01   -0.29217E-01 48408   0.144E+00    0.331E+00
DAV:   5    -0.384721439063E+03    0.15490E-01   -0.18942E-01 45368   0.918E-01    0.191E+00
DAV:   6    -0.384726209893E+03   -0.47708E-02   -0.88904E-02 49016   0.659E-01    0.312E+00
DAV:   7    -0.384715847190E+03    0.10363E-01   -0.33991E-02 44600   0.456E-01    0.196E+00
DAV:   8    -0.384713644385E+03    0.22028E-02   -0.23481E-02 46416   0.308E-01    0.992E-01
DAV:   9    -0.384715454522E+03   -0.18101E-02   -0.22462E-02 43448   0.383E-01    0.123E+00
DAV:  10    -0.384714180842E+03    0.12737E-02   -0.14368E-02 42984   0.285E-01    0.661E-01
DAV:  11    -0.384715577291E+03   -0.13964E-02   -0.20844E-03 44304   0.116E-01    0.100E+00
DAV:  12    -0.384714037226E+03    0.15401E-02   -0.10431E-03 49000   0.104E-01    0.567E-01
DAV:  13    -0.384714222130E+03   -0.18490E-03   -0.74179E-03 50240   0.121E-01    0.572E-01
DAV:  14    -0.384714275989E+03   -0.53859E-04   -0.53367E-04 38920   0.873E-02    0.475E-01
DAV:  15    -0.384713964066E+03    0.31192E-03   -0.70200E-04 48944   0.612E-02    0.647E-02
DAV:  16    -0.384714127657E+03   -0.16359E-03   -0.21829E-04 36768   0.267E-02    0.152E-01
DAV:  17    -0.384714133277E+03   -0.56205E-05   -0.45452E-05 31224   0.197E-02
  25 F= -.38471413E+03 E0= -.38470609E+03  d E =0.155767E+00  mag=    46.0000
       N       E                     dE             d eps       ncg     rms          rms(c)
DAV:   1    -0.383845221443E+03    0.86891E+00   -0.64180E+01 43816   0.279E+01    0.542E+00
DAV:   2    -0.385165572335E+03   -0.13204E+01   -0.12202E+01 38312   0.534E+00    0.162E+01
DAV:   3    -0.384864379537E+03    0.30119E+00   -0.32343E+00 42896   0.282E+00    0.555E+00
DAV:   4    -0.384942981472E+03   -0.78602E-01   -0.16469E-01 47312   0.115E+00    0.385E+00
DAV:   5    -0.384918912015E+03    0.24069E-01   -0.76528E-02 44040   0.831E-01    0.222E+00
DAV:   6    -0.384909969218E+03    0.89428E-02   -0.46615E-02 45256   0.607E-01    0.161E+00
DAV:   7    -0.384908480305E+03    0.14889E-02   -0.26751E-02 46064   0.350E-01    0.956E-01
DAV:   8    -0.384909547536E+03   -0.10672E-02   -0.12008E-02 46824   0.284E-01    0.129E+00
DAV:   9    -0.384907220153E+03    0.23274E-02   -0.10836E-02 46872   0.301E-01    0.705E-01
DAV:  10    -0.384908690111E+03   -0.14700E-02   -0.99012E-03 45080   0.161E-01    0.919E-01
DAV:  11    -0.384907296455E+03    0.13937E-02   -0.57849E-03 48384   0.169E-01    0.421E-01
DAV:  12    -0.384907555145E+03   -0.25869E-03   -0.10093E-03 46648   0.857E-02    0.415E-01
DAV:  13    -0.384907502608E+03    0.52537E-04   -0.17684E-03 48184   0.122E-01    0.383E-01
DAV:  14    -0.384907380063E+03    0.12254E-03   -0.12535E-03 45104   0.101E-01    0.177E-01
DAV:  15    -0.384907438848E+03   -0.58785E-04   -0.37340E-04 49176   0.500E-02    0.209E-01
DAV:  16    -0.384907370087E+03    0.68761E-04   -0.11812E-04 42632   0.311E-02    0.106E-01
DAV:  17    -0.384907367473E+03    0.26136E-05   -0.55208E-05 29968   0.133E-02
  26 F= -.38490737E+03 E0= -.38489909E+03  d E =-.193234E+00  mag=    46.0000
       N       E                     dE             d eps       ncg     rms          rms(c)
DAV:   1    -0.384885252682E+03    0.22117E-01   -0.19772E+00 42784   0.497E+00    0.695E-01
DAV:   2    -0.384908692569E+03   -0.23440E-01   -0.21367E-01 37856   0.813E-01    0.975E-01
DAV:   3    -0.384911312830E+03   -0.26203E-02   -0.37438E-02 45776   0.314E-01    0.152E+00
DAV:   4    -0.384908409450E+03    0.29034E-02   -0.79381E-03 40864   0.246E-01    0.547E-01
DAV:   5    -0.384908732385E+03   -0.32294E-03   -0.27552E-03 43464   0.106E-01    0.182E-01
DAV:   6    -0.384908856141E+03   -0.12376E-03   -0.57671E-04 41120   0.656E-02    0.244E-01
DAV:   7    -0.384908762460E+03    0.93681E-04   -0.26066E-04 42440   0.538E-02    0.104E-01
DAV:   8    -0.384908781623E+03   -0.19163E-04   -0.28140E-04 42936   0.437E-02    0.116E-01
DAV:   9    -0.384908779010E+03    0.26136E-05   -0.12794E-04 40824   0.292E-02    0.113E-01
DAV:  10    -0.384908766862E+03    0.12148E-04   -0.45988E-05 28456   0.168E-02    0.723E-02
DAV:  11    -0.384908764427E+03    0.24345E-05   -0.72361E-05 26288   0.140E-02
  27 F= -.38490876E+03 E0= -.38490054E+03  d E =-.139695E-02  mag=    46.0000
       N       E                     dE             d eps       ncg     rms          rms(c)
DAV:   1    -0.384895185172E+03    0.13582E-01   -0.27680E+00 40424   0.477E+00    0.513E-01
DAV:   2    -0.384909562373E+03   -0.14377E-01   -0.13878E-01 37056   0.785E-01    0.818E-01
DAV:   3    -0.384909553061E+03    0.93118E-05   -0.15431E-02 45712   0.246E-01    0.716E-01
DAV:   4    -0.384909466114E+03    0.86947E-04   -0.61229E-03 45096   0.165E-01    0.656E-01
DAV:   5    -0.384909006904E+03    0.45921E-03   -0.11297E-03 43064   0.981E-02    0.258E-01
DAV:   6    -0.384909040033E+03   -0.33129E-04   -0.92098E-04 46912   0.605E-02    0.196E-01
DAV:   7    -0.384909100202E+03   -0.60169E-04   -0.44173E-04 41640   0.521E-02    0.256E-01
DAV:   8    -0.384909029671E+03    0.70531E-04   -0.21425E-04 40736   0.399E-02    0.123E-01
DAV:   9    -0.384909029488E+03    0.18295E-06   -0.44233E-05 38104   0.209E-02
  28 F= -.38490903E+03 E0= -.38490082E+03  d E =-.265061E-03  mag=    46.0000
       N       E                     dE             d eps       ncg     rms          rms(c)
DAV:   1    -0.384899927522E+03    0.91021E-02   -0.25216E+00 40272   0.432E+00    0.455E-01
DAV:   2    -0.384914072842E+03   -0.14145E-01   -0.12394E-01 37256   0.713E-01    0.172E+00
DAV:   3    -0.384910431219E+03    0.36416E-02   -0.11972E-02 39608   0.247E-01    0.384E-01
DAV:   4    -0.384911336329E+03   -0.90511E-03   -0.25782E-03 47512   0.843E-02    0.310E-01
DAV:   5    -0.384911341828E+03   -0.54990E-05   -0.13490E-03 45624   0.866E-02    0.261E-01
DAV:   6    -0.384911411056E+03   -0.69228E-04   -0.54058E-04 45096   0.689E-02    0.327E-01
DAV:   7    -0.384911357347E+03    0.53709E-04   -0.30603E-04 40824   0.511E-02    0.261E-01
DAV:   8    -0.384911289620E+03    0.67727E-04   -0.50398E-04 39592   0.408E-02    0.119E-01
DAV:   9    -0.384911329343E+03   -0.39723E-04   -0.56634E-05 35528   0.224E-02    0.152E-01
DAV:  10    -0.384911284816E+03    0.44528E-04   -0.10864E-04 32160   0.258E-02    0.607E-02
DAV:  11    -0.384911355170E+03   -0.70355E-04   -0.21369E-04 38064   0.253E-02    0.223E-01
DAV:  12    -0.384911294072E+03    0.61099E-04   -0.53319E-05 30584   0.234E-02    0.142E-01
DAV:  13    -0.384911279550E+03    0.14521E-04   -0.79869E-05 31720   0.170E-02    0.222E-02
DAV:  14    -0.384911295145E+03   -0.15594E-04   -0.18416E-05 24504   0.102E-02    0.337E-02
DAV:  15    -0.384911293949E+03    0.11959E-05   -0.24703E-06 19688   0.509E-03
  29 F= -.38491129E+03 E0= -.38490309E+03  d E =-.226446E-02  mag=    46.0000
       N       E                     dE             d eps       ncg     rms          rms(c)
DAV:   1    -0.384875195970E+03    0.36099E-01   -0.11223E+01 39304   0.851E+00    0.788E-01
DAV:   2    -0.384917422406E+03   -0.42226E-01   -0.41163E-01 36688   0.138E+00    0.110E+00
DAV:   3    -0.384918960608E+03   -0.15382E-02   -0.34767E-02 44760   0.403E-01    0.160E+00
DAV:   4    -0.384916246832E+03    0.27138E-02   -0.10608E-02 44368   0.240E-01    0.779E-01
DAV:   5    -0.384916132319E+03    0.11451E-03   -0.53288E-03 47576   0.158E-01    0.338E-01
DAV:   6    -0.384916215453E+03   -0.83133E-04   -0.15759E-03 45280   0.937E-02    0.368E-01
DAV:   7    -0.384916044494E+03    0.17096E-03   -0.87787E-04 45328   0.821E-02    0.216E-01
DAV:   8    -0.384916044110E+03    0.38340E-06   -0.51430E-04 45720   0.419E-02    0.164E-01
DAV:   9    -0.384916015413E+03    0.28697E-04   -0.17806E-04 40280   0.335E-02    0.101E-01
DAV:  10    -0.384916043913E+03   -0.28500E-04   -0.29150E-04 41768   0.383E-02    0.167E-01
DAV:  11    -0.384916001868E+03    0.42045E-04   -0.16576E-04 38592   0.331E-02    0.718E-02
DAV:  12    -0.384916011718E+03   -0.98505E-05   -0.69365E-05 31944   0.214E-02
  30 F= -.38491601E+03 E0= -.38490771E+03  d E =-.471777E-02  mag=    46.0000
       N       E                     dE             d eps       ncg     rms          rms(c)
DAV:   1    -0.384386492208E+03    0.52951E+00   -0.13668E+02 39928   0.305E+01    0.278E+00
DAV:   2    -0.384936689175E+03   -0.55020E+00   -0.53776E+00 36632   0.503E+00    0.398E+00
DAV:   3    -0.384936824264E+03   -0.13509E-03   -0.46071E-01 43240   0.148E+00    0.488E+00
DAV:   4    -0.384913286091E+03    0.23538E-01   -0.11854E-01 46232   0.779E-01    0.193E+00
DAV:   5    -0.384914627978E+03   -0.13419E-02   -0.37396E-02 46272   0.459E-01    0.961E-01
DAV:   6    -0.384913271797E+03    0.13562E-02   -0.96577E-03 44016   0.346E-01    0.103E+00
DAV:   7    -0.384911990116E+03    0.12817E-02   -0.64468E-03 44800   0.235E-01    0.815E-01
DAV:   8    -0.384910906775E+03    0.10833E-02   -0.65550E-03 43888   0.192E-01    0.370E-01
DAV:   9    -0.384911092935E+03   -0.18616E-03   -0.16020E-03 42512   0.112E-01    0.160E-01
DAV:  10    -0.384911177277E+03   -0.84342E-04   -0.10847E-03 48888   0.653E-02    0.249E-01
DAV:  11    -0.384911120599E+03    0.56678E-04   -0.30874E-04 39936   0.489E-02    0.934E-02
DAV:  12    -0.384911135385E+03   -0.14787E-04   -0.12138E-04 33504   0.243E-02    0.682E-02
DAV:  13    -0.384911131835E+03    0.35500E-05   -0.33501E-05 27352   0.176E-02
  31 F= -.38491113E+03 E0= -.38490286E+03  d E =0.487988E-02  mag=    46.0000
       N       E                     dE             d eps       ncg     rms          rms(c)
DAV:   1    -0.376201537050E+03    0.87096E+01   -0.39076E+02 44408   0.599E+01    0.130E+01
DAV:   2    -0.387627539834E+03   -0.11426E+02   -0.82017E+01 37448   0.145E+01    0.486E+01
DAV:   3    -0.383547462493E+03    0.40801E+01   -0.19936E+01 40352   0.100E+01    0.127E+01
DAV:   4    -0.384215877003E+03   -0.66841E+00   -0.32363E+00 47248   0.380E+00    0.915E+00
DAV:   5    -0.384189979950E+03    0.25897E-01   -0.66257E-01 43576   0.198E+00    0.406E+00
DAV:   6    -0.384256872255E+03   -0.66892E-01   -0.30277E-01 47480   0.103E+00    0.450E+00
DAV:   7    -0.384271192146E+03   -0.14320E-01   -0.41686E-02 40912   0.547E-01    0.430E+00
DAV:   8    -0.384266381798E+03    0.48103E-02   -0.83885E-03 52208   0.291E-01    0.326E+00
DAV:   9    -0.384283936324E+03   -0.17555E-01   -0.16126E-01 46208   0.821E-01    0.372E+00
DAV:  10    -0.384266323868E+03    0.17612E-01   -0.99139E-02 45000   0.747E-01    0.268E+00
DAV:  11    -0.384273907466E+03   -0.75836E-02   -0.86239E-02 46960   0.525E-01    0.209E+00
DAV:  12    -0.384265018460E+03    0.88890E-02   -0.22689E-02 45344   0.426E-01    0.117E+00
DAV:  13    -0.384264757686E+03    0.26077E-03   -0.26427E-02 48504   0.320E-01    0.142E+00
DAV:  14    -0.384266127356E+03   -0.13697E-02   -0.56112E-03 43960   0.242E-01    0.741E-01
DAV:  15    -0.384268369027E+03   -0.22417E-02   -0.65749E-03 50704   0.146E-01    0.890E-01
DAV:  16    -0.384266791416E+03    0.15776E-02   -0.27527E-03 39952   0.143E-01    0.294E-01
DAV:  17    -0.384267455235E+03   -0.66382E-03   -0.21380E-03 42776   0.760E-02    0.454E-01
DAV:  18    -0.384267454720E+03    0.51529E-06   -0.21273E-04 39208   0.517E-02    0.394E-01
DAV:  19    -0.384267323481E+03    0.13124E-03   -0.39302E-04 47488   0.389E-02    0.112E-01
DAV:  20    -0.384267408446E+03   -0.84965E-04   -0.12223E-04 36016   0.225E-02    0.591E-02
DAV:  21    -0.384267410209E+03   -0.17630E-05   -0.32584E-05 30576   0.163E-02
  32 F= -.38426741E+03 E0= -.38425931E+03  d E =0.643722E+00  mag=    46.0004
       N       E                     dE             d eps       ncg     rms          rms(c)
DAV:   1    -0.383215102731E+03    0.10523E+01   -0.11355E+02 44008   0.325E+01    0.708E+00
DAV:   2    -0.385353681343E+03   -0.21386E+01   -0.19983E+01 38336   0.677E+00    0.180E+01
DAV:   3    -0.384851308251E+03    0.50237E+00   -0.20539E+00 41280   0.367E+00    0.760E+00
DAV:   4    -0.384887501802E+03   -0.36194E-01   -0.58430E-01 46616   0.166E+00    0.395E+00
DAV:   5    -0.384871093292E+03    0.16409E-01   -0.73570E-02 44800   0.953E-01    0.217E+00
DAV:   6    -0.384866309881E+03    0.47834E-02   -0.52707E-02 48896   0.547E-01    0.138E+00
DAV:   7    -0.384868150766E+03   -0.18409E-02   -0.40454E-02 46608   0.528E-01    0.212E+00
DAV:   8    -0.384864912660E+03    0.32381E-02   -0.39259E-02 47360   0.495E-01    0.141E+00
DAV:   9    -0.384864653869E+03    0.25879E-03   -0.22073E-02 43952   0.368E-01    0.867E-01
DAV:  10    -0.384865543628E+03   -0.88976E-03   -0.36731E-03 44240   0.145E-01    0.859E-01
DAV:  11    -0.384864950500E+03    0.59313E-03   -0.69805E-04 45488   0.674E-02    0.749E-01
DAV:  12    -0.384864449996E+03    0.50050E-03   -0.74193E-04 47568   0.767E-02    0.616E-01
DAV:  13    -0.384864081035E+03    0.36896E-03   -0.51743E-03 47040   0.110E-01    0.454E-01
DAV:  14    -0.384864422107E+03   -0.34107E-03   -0.49116E-03 48688   0.117E-01    0.612E-01
DAV:  15    -0.384864138605E+03    0.28350E-03   -0.61906E-04 41664   0.819E-02    0.447E-01
DAV:  16    -0.384863890308E+03    0.24830E-03   -0.91534E-04 49920   0.637E-02    0.993E-02
DAV:  17    -0.384863997666E+03   -0.10736E-03   -0.14860E-04 36672   0.346E-02    0.554E-02
DAV:  18    -0.384863997403E+03    0.26279E-06   -0.32180E-05 34768   0.161E-02
  33 F= -.38486400E+03 E0= -.38485554E+03  d E =-.596587E+00  mag=    46.0001
       N       E                     dE             d eps       ncg     rms          rms(c)
DAV:   1    -0.384577635918E+03    0.28636E+00   -0.21742E+01 44248   0.154E+01    0.303E+00
DAV:   2    -0.385014004282E+03   -0.43637E+00   -0.39179E+00 37600   0.276E+00    0.793E+00
DAV:   3    -0.384945856963E+03    0.68147E-01   -0.81185E-01 42832   0.154E+00    0.363E+00
DAV:   4    -0.384951578166E+03   -0.57212E-02   -0.41904E-02 44272   0.677E-01    0.172E+00
DAV:   5    -0.384951166402E+03    0.41176E-03   -0.95149E-02 49152   0.406E-01    0.143E+00
DAV:   6    -0.384951739704E+03   -0.57330E-03   -0.78326E-03 42816   0.301E-01    0.161E+00
DAV:   7    -0.384948440420E+03    0.32993E-02   -0.33729E-02 46240   0.262E-01    0.705E-01
DAV:   8    -0.384950464874E+03   -0.20245E-02   -0.56681E-03 41560   0.148E-01    0.108E+00
DAV:   9    -0.384948427860E+03    0.20370E-02   -0.37957E-03 42480   0.150E-01    0.396E-01
DAV:  10    -0.384948809147E+03   -0.38129E-03   -0.86375E-04 41608   0.896E-02    0.231E-01
DAV:  11    -0.384948898619E+03   -0.89471E-04   -0.73564E-04 42352   0.462E-02    0.197E-01
DAV:  12    -0.384948947183E+03   -0.48564E-04   -0.93220E-05 32568   0.235E-02    0.236E-01
DAV:  13    -0.384948889553E+03    0.57630E-04   -0.23907E-05 29408   0.139E-02    0.182E-01
DAV:  14    -0.384948892483E+03   -0.29302E-05   -0.61065E-04 40984   0.440E-02    0.199E-01
DAV:  15    -0.384948955200E+03   -0.62717E-04   -0.19001E-04 34680   0.259E-02    0.272E-01
DAV:  16    -0.384948837429E+03    0.11777E-03   -0.12131E-04 33032   0.278E-02    0.124E-01
DAV:  17    -0.384948850493E+03   -0.13064E-04   -0.10877E-04 37408   0.180E-02    0.332E-02
DAV:  18    -0.384948869175E+03   -0.18682E-04   -0.25680E-05 24888   0.992E-03    0.677E-02
DAV:  19    -0.384948863625E+03    0.55500E-05   -0.54833E-06 20864   0.740E-03
  34 F= -.38494886E+03 E0= -.38494040E+03  d E =-.848662E-01  mag=    46.0000
       N       E                     dE             d eps       ncg     rms          rms(c)
DAV:   1    -0.384921313387E+03    0.27556E-01   -0.33588E+00 41320   0.545E+00    0.944E-01
DAV:   2    -0.384967569538E+03   -0.46256E-01   -0.40001E-01 37640   0.943E-01    0.313E+00
DAV:   3    -0.384957033012E+03    0.10537E-01   -0.76199E-02 40840   0.502E-01    0.945E-01
DAV:   4    -0.384959976243E+03   -0.29432E-02   -0.84640E-03 43648   0.261E-01    0.741E-01
DAV:   5    -0.384959369997E+03    0.60625E-03   -0.48699E-03 45976   0.177E-01    0.367E-01
DAV:   6    -0.384959660616E+03   -0.29062E-03   -0.23767E-03 47080   0.110E-01    0.500E-01
DAV:   7    -0.384959617769E+03    0.42846E-04   -0.83810E-04 43728   0.778E-02    0.425E-01
DAV:   8    -0.384959417041E+03    0.20073E-03   -0.10901E-03 43904   0.469E-02    0.157E-01
DAV:   9    -0.384959453714E+03   -0.36673E-04   -0.18918E-04 41440   0.415E-02    0.140E-01
DAV:  10    -0.384959571709E+03   -0.11800E-03   -0.44634E-04 42800   0.393E-02    0.342E-01
DAV:  11    -0.384959462194E+03    0.10951E-03   -0.21427E-04 35224   0.355E-02    0.244E-01
DAV:  12    -0.384959421862E+03    0.40332E-04   -0.45162E-04 38560   0.348E-02    0.108E-01
DAV:  13    -0.384959458996E+03   -0.37135E-04   -0.87166E-05 35744   0.241E-02    0.128E-01
DAV:  14    -0.384959433990E+03    0.25006E-04   -0.38444E-05 27712   0.171E-02    0.526E-02
DAV:  15    -0.384959437269E+03   -0.32790E-05   -0.44744E-05 23608   0.104E-02
  35 F= -.38495944E+03 E0= -.38495103E+03  d E =-.105736E-01  mag=    46.0000
       N       E                     dE             d eps       ncg     rms          rms(c)
DAV:   1    -0.384924004038E+03    0.35430E-01   -0.71515E+00 40128   0.672E+00    0.104E+00
DAV:   2    -0.384976591484E+03   -0.52587E-01   -0.45857E-01 37392   0.121E+00    0.399E+00
DAV:   3    -0.384958536843E+03    0.18055E-01   -0.57421E-02 40984   0.579E-01    0.116E+00
DAV:   4    -0.384961602883E+03   -0.30660E-02   -0.15831E-02 46672   0.315E-01    0.876E-01
DAV:   5    -0.384961173744E+03    0.42914E-03   -0.38348E-03 42672   0.193E-01    0.590E-01
DAV:   6    -0.384961069726E+03    0.10402E-03   -0.36411E-03 48584   0.146E-01    0.452E-01
DAV:   7    -0.384961409930E+03   -0.34020E-03   -0.17831E-03 43576   0.986E-02    0.478E-01
DAV:   8    -0.384961189025E+03    0.22090E-03   -0.92105E-04 49832   0.559E-02    0.214E-01
DAV:   9    -0.384961202661E+03   -0.13636E-04   -0.27012E-04 43352   0.456E-02    0.186E-01
DAV:  10    -0.384961305729E+03   -0.10307E-03   -0.75268E-04 43736   0.551E-02    0.362E-01
DAV:  11    -0.384961219805E+03    0.85924E-04   -0.28457E-04 40584   0.430E-02    0.284E-01
DAV:  12    -0.384961134015E+03    0.85790E-04   -0.53666E-04 40936   0.360E-02    0.859E-02
DAV:  13    -0.384961176197E+03   -0.42182E-04   -0.67970E-05 34928   0.245E-02    0.770E-02
DAV:  14    -0.384961170387E+03    0.58101E-05   -0.62349E-05 29560   0.184E-02
  36 F= -.38496117E+03 E0= -.38495284E+03  d E =-.173312E-02  mag=    46.0000
       N       E                     dE             d eps       ncg     rms          rms(c)
DAV:   1    -0.384948871584E+03    0.12305E-01   -0.31753E+00 40112   0.446E+00    0.590E-01
DAV:   2    -0.384965646173E+03   -0.16775E-01   -0.16234E-01 37512   0.770E-01    0.148E+00
DAV:   3    -0.384963606371E+03    0.20398E-02   -0.20128E-02 41736   0.295E-01    0.702E-01
DAV:   4    -0.384963780068E+03   -0.17370E-03   -0.66843E-03 43800   0.203E-01    0.677E-01
DAV:   5    -0.384963411015E+03    0.36905E-03   -0.85087E-04 42056   0.105E-01    0.400E-01
DAV:   6    -0.384963274126E+03    0.13689E-03   -0.12335E-03 48616   0.768E-02    0.245E-01
DAV:   7    -0.384963404816E+03   -0.13069E-03   -0.60081E-04 41064   0.559E-02    0.271E-01
DAV:   8    -0.384963337434E+03    0.67381E-04   -0.25971E-04 41656   0.483E-02    0.154E-01
DAV:   9    -0.384963326399E+03    0.11035E-04   -0.76856E-05 39808   0.222E-02    0.105E-01
DAV:  10    -0.384963329839E+03   -0.34399E-05   -0.95663E-05 31088   0.240E-02
  37 F= -.38496333E+03 E0= -.38495510E+03  d E =-.215945E-02  mag=    46.0000
       N       E                     dE             d eps       ncg     rms          rms(c)
DAV:   1    -0.384942161831E+03    0.21165E-01   -0.43373E+00 40168   0.556E+00    0.636E-01
DAV:   2    -0.384964905123E+03   -0.22743E-01   -0.21422E-01 36784   0.928E-01    0.162E+00
DAV:   3    -0.384962749458E+03    0.21557E-02   -0.20361E-02 42688   0.335E-01    0.778E-01
DAV:   4    -0.384962980714E+03   -0.23126E-03   -0.75913E-03 42960   0.226E-01    0.538E-01
DAV:   5    -0.384962685966E+03    0.29475E-03   -0.13741E-03 43664   0.108E-01    0.305E-01
DAV:   6    -0.384962712127E+03   -0.26161E-04   -0.82533E-04 45528   0.781E-02    0.355E-01
DAV:   7    -0.384962662975E+03    0.49152E-04   -0.89680E-04 44784   0.698E-02    0.228E-01
DAV:   8    -0.384962616909E+03    0.46066E-04   -0.30763E-04 41520   0.484E-02    0.138E-01
DAV:   9    -0.384962609445E+03    0.74647E-05   -0.13092E-04 40984   0.291E-02    0.100E-01
DAV:  10    -0.384962607032E+03    0.24126E-05   -0.93784E-05 31352   0.238E-02
  38 F= -.38496261E+03 E0= -.38495445E+03  d E =0.722807E-03  mag=    46.0000
       N       E                     dE             d eps       ncg     rms          rms(c)
DAV:   1    -0.384896934318E+03    0.65675E-01   -0.13258E+01 40200   0.103E+01    0.114E+00
DAV:   2    -0.384972588884E+03   -0.75655E-01   -0.69887E-01 37152   0.177E+00    0.333E+00
DAV:   3    -0.384956730173E+03    0.15859E-01   -0.12123E-01 39048   0.743E-01    0.117E+00
DAV:   4    -0.384961352841E+03   -0.46227E-02   -0.12099E-02 45816   0.287E-01    0.130E+00
DAV:   5    -0.384959163606E+03    0.21892E-02   -0.37539E-03 44016   0.201E-01    0.683E-01
DAV:   6    -0.384959032340E+03    0.13127E-03   -0.43177E-03 50960   0.124E-01    0.427E-01
DAV:   7    -0.384959659157E+03   -0.62682E-03   -0.21684E-03 39048   0.896E-02    0.731E-01
DAV:   8    -0.384958922730E+03    0.73643E-03   -0.80807E-04 46136   0.844E-02    0.358E-01
DAV:   9    -0.384959023827E+03   -0.10110E-03   -0.65489E-04 45880   0.522E-02    0.255E-01
DAV:  10    -0.384958987820E+03    0.36007E-04   -0.27844E-04 40856   0.504E-02    0.992E-02
DAV:  11    -0.384959039812E+03   -0.51992E-04   -0.19597E-04 41584   0.273E-02    0.123E-01
DAV:  12    -0.384959026765E+03    0.13047E-04   -0.30820E-05 29608   0.230E-02    0.651E-02
DAV:  13    -0.384959024520E+03    0.22457E-05   -0.17336E-05 25176   0.104E-02
  39 F= -.38495902E+03 E0= -.38495080E+03  d E =0.358251E-02  mag=    46.0000
       N       E                     dE             d eps       ncg     rms          rms(c)
DAV:   1    -0.380923330124E+03    0.40357E+01   -0.37786E+02 41464   0.621E+01    0.864E+00
DAV:   2    -0.384906324372E+03   -0.39830E+01   -0.38883E+01 37704   0.118E+01    0.190E+01
DAV:   3    -0.384602070039E+03    0.30425E+00   -0.23236E+00 43208   0.444E+00    0.993E+00
DAV:   4    -0.384556646949E+03    0.45423E-01   -0.82620E-01 48744   0.215E+00    0.436E+00
DAV:   5    -0.384531196723E+03    0.25450E-01   -0.24588E-01 47976   0.131E+00    0.278E+00
DAV:   6    -0.384524087078E+03    0.71096E-02   -0.74347E-02 46880   0.701E-01    0.222E+00
DAV:   7    -0.384513675200E+03    0.10412E-01   -0.49545E-02 47512   0.586E-01    0.183E+00
DAV:   8    -0.384508496884E+03    0.51783E-02   -0.39665E-02 44168   0.522E-01    0.132E+00
DAV:   9    -0.384511495286E+03   -0.29984E-02   -0.20238E-02 49744   0.363E-01    0.114E+00
DAV:  10    -0.384510670339E+03    0.82495E-03   -0.45422E-03 50320   0.180E-01    0.976E-01
DAV:  11    -0.384508441657E+03    0.22287E-02   -0.47815E-03 50112   0.176E-01    0.621E-01
DAV:  12    -0.384509732142E+03   -0.12905E-02   -0.23438E-02 45480   0.240E-01    0.997E-01
DAV:  13    -0.384507994953E+03    0.17372E-02   -0.44436E-03 44440   0.238E-01    0.272E-01
DAV:  14    -0.384508384539E+03   -0.38959E-03   -0.22365E-03 49040   0.984E-02    0.321E-01
DAV:  15    -0.384508201843E+03    0.18270E-03   -0.15796E-03 43752   0.763E-02    0.153E-01
DAV:  16    -0.384508196612E+03    0.52310E-05   -0.29172E-04 43088   0.417E-02    0.102E-01
DAV:  17    -0.384508164426E+03    0.32186E-04   -0.16568E-04 42200   0.309E-02    0.511E-02
DAV:  18    -0.384508153365E+03    0.11061E-04   -0.69886E-05 35800   0.223E-02    0.464E-02
DAV:  19    -0.384508151101E+03    0.22634E-05   -0.32492E-05 29584   0.130E-02
  40 F= -.38450815E+03 E0= -.38450072E+03  d E =0.450873E+00  mag=    46.0000
       N       E                     dE             d eps       ncg     rms          rms(c)
DAV:   1    -0.382941567106E+03    0.15666E+01   -0.13718E+02 44480   0.460E+01    0.700E+00
DAV:   2    -0.384861391861E+03   -0.19198E+01   -0.18265E+01 38352   0.790E+00    0.608E+00
DAV:   3    -0.384944702921E+03   -0.83311E-01   -0.85629E-01 47856   0.205E+00    0.448E+00
DAV:   4    -0.384935051457E+03    0.96515E-02   -0.48097E-01 47736   0.130E+00    0.276E+00
DAV:   5    -0.384932459650E+03    0.25918E-02   -0.12127E-01 45984   0.786E-01    0.308E+00
DAV:   6    -0.384921973772E+03    0.10486E-01   -0.13405E-01 47992   0.584E-01    0.204E+00
DAV:   7    -0.384923941601E+03   -0.19678E-02   -0.14833E-01 44744   0.615E-01    0.221E+00
DAV:   8    -0.384919113238E+03    0.48284E-02   -0.14267E-02 46768   0.395E-01    0.162E+00
DAV:   9    -0.384914565585E+03    0.45477E-02   -0.56080E-02 51296   0.389E-01    0.899E-01
DAV:  10    -0.384913840524E+03    0.72506E-03   -0.12223E-02 43312   0.324E-01    0.467E-01
DAV:  11    -0.384914608606E+03   -0.76808E-03   -0.39438E-03 46360   0.137E-01    0.527E-01
DAV:  12    -0.384914235944E+03    0.37266E-03   -0.15208E-03 51752   0.104E-01    0.384E-01
DAV:  13    -0.384913894605E+03    0.34134E-03   -0.11888E-03 51920   0.840E-02    0.176E-01
DAV:  14    -0.384913851275E+03    0.43330E-04   -0.70793E-04 42272   0.667E-02    0.136E-01
DAV:  15    -0.384913818111E+03    0.33164E-04   -0.27932E-04 48912   0.470E-02    0.135E-01
DAV:  16    -0.384913793594E+03    0.24517E-04   -0.69950E-05 40448   0.233E-02    0.857E-02
DAV:  17    -0.384913773970E+03    0.19624E-04   -0.23040E-05 31056   0.123E-02    0.571E-02
DAV:  18    -0.384913749860E+03    0.24110E-04   -0.83925E-05 36664   0.204E-02    0.507E-02
DAV:  19    -0.384913743054E+03    0.68060E-05   -0.39765E-05 31544   0.156E-02
  41 F= -.38491374E+03 E0= -.38490549E+03  d E =-.405592E+00  mag=    46.0000
       N       E                     dE             d eps       ncg     rms          rms(c)
DAV:   1    -0.384901419251E+03    0.12331E-01   -0.40483E+00 42056   0.634E+00    0.969E-01
DAV:   2    -0.384950579987E+03   -0.49161E-01   -0.42709E-01 37800   0.106E+00    0.303E+00
DAV:   3    -0.384940321192E+03    0.10259E-01   -0.90274E-02 40680   0.498E-01    0.103E+00
DAV:   4    -0.384942927381E+03   -0.26062E-02   -0.66668E-03 43888   0.238E-01    0.675E-01
DAV:   5    -0.384942531138E+03    0.39624E-03   -0.67892E-03 48096   0.171E-01    0.500E-01
DAV:   6    -0.384942906695E+03   -0.37556E-03   -0.39058E-03 45048   0.137E-01    0.624E-01
DAV:   7    -0.384942769827E+03    0.13687E-03   -0.11074E-03 45336   0.928E-02    0.429E-01
DAV:   8    -0.384942670870E+03    0.98957E-04   -0.16494E-03 45776   0.520E-02    0.249E-01
DAV:   9    -0.384942659528E+03    0.11342E-04   -0.33098E-04 42248   0.519E-02    0.168E-01
DAV:  10    -0.384942752661E+03   -0.93133E-04   -0.55869E-04 45056   0.442E-02    0.339E-01
DAV:  11    -0.384942622939E+03    0.12972E-03   -0.35970E-04 37640   0.392E-02    0.227E-01
DAV:  12    -0.384942602006E+03    0.20933E-04   -0.39198E-04 42184   0.379E-02    0.121E-01
DAV:  13    -0.384942636879E+03   -0.34873E-04   -0.99310E-05 39304   0.243E-02    0.139E-01
DAV:  14    -0.384942607183E+03    0.29696E-04   -0.37984E-05 30576   0.172E-02    0.573E-02
DAV:  15    -0.384942610183E+03   -0.30000E-05   -0.38366E-05 23528   0.990E-03
  42 F= -.38494261E+03 E0= -.38493422E+03  d E =-.288671E-01  mag=    46.0000
       N       E                     dE             d eps       ncg     rms          rms(c)
DAV:   1    -0.384691314744E+03    0.25129E+00   -0.43908E+01 40912   0.180E+01    0.282E+00
DAV:   2    -0.385074257189E+03   -0.38294E+00   -0.32912E+00 37656   0.316E+00    0.914E+00
DAV:   3    -0.384958326034E+03    0.11593E+00   -0.37177E-01 41712   0.139E+00    0.242E+00
DAV:   4    -0.384975519736E+03   -0.17194E-01   -0.10061E-01 47640   0.721E-01    0.213E+00
DAV:   5    -0.384971158405E+03    0.43613E-02   -0.47478E-02 42944   0.543E-01    0.123E+00
DAV:   6    -0.384971964452E+03   -0.80605E-03   -0.14509E-02 48736   0.305E-01    0.134E+00
DAV:   7    -0.384971360292E+03    0.60416E-03   -0.80718E-03 47264   0.219E-01    0.110E+00
DAV:   8    -0.384971030903E+03    0.32939E-03   -0.15967E-02 48144   0.173E-01    0.784E-01
DAV:   9    -0.384970572479E+03    0.45842E-03   -0.33956E-03 43040   0.161E-01    0.409E-01
DAV:  10    -0.384971837064E+03   -0.12646E-02   -0.72809E-03 50768   0.145E-01    0.111E+00
DAV:  11    -0.384970580007E+03    0.12571E-02   -0.18491E-03 39584   0.130E-01    0.714E-01
DAV:  12    -0.384970385590E+03    0.19442E-03   -0.12661E-03 47008   0.723E-02    0.366E-01
DAV:  13    -0.384970555255E+03   -0.16966E-03   -0.23189E-03 48128   0.727E-02    0.286E-01
DAV:  14    -0.384970762527E+03   -0.20727E-03   -0.32793E-04 35720   0.416E-02    0.430E-01
DAV:  15    -0.384970497292E+03    0.26524E-03   -0.21532E-04 36656   0.363E-02    0.258E-01
DAV:  16    -0.384970476041E+03    0.21251E-04   -0.53089E-04 45088   0.342E-02    0.742E-02
DAV:  17    -0.384970560108E+03   -0.84068E-04   -0.87510E-05 31856   0.186E-02    0.156E-01
DAV:  18    -0.384970525023E+03    0.35085E-04   -0.23151E-05 28912   0.156E-02    0.856E-02
DAV:  19    -0.384970524200E+03    0.82319E-06   -0.57792E-05 25272   0.108E-02
  43 F= -.38497052E+03 E0= -.38496227E+03  d E =-.279140E-01  mag=    46.0000
       N       E                     dE             d eps       ncg     rms          rms(c)
DAV:   1    -0.384960142377E+03    0.10383E-01   -0.12049E+00 44144   0.358E+00    0.566E-01
DAV:   2    -0.384976282039E+03   -0.16140E-01   -0.14564E-01 37520   0.585E-01    0.736E-01
DAV:   3    -0.384978779342E+03   -0.24973E-02   -0.31895E-02 45656   0.271E-01    0.145E+00
DAV:   4    -0.384975899649E+03    0.28797E-02   -0.53953E-03 39208   0.191E-01    0.429E-01
DAV:   5    -0.384976431125E+03   -0.53148E-03   -0.38090E-03 47096   0.732E-02    0.343E-01
DAV:   6    -0.384976638015E+03   -0.20689E-03   -0.43737E-04 37248   0.608E-02    0.440E-01
DAV:   7    -0.384976389521E+03    0.24849E-03   -0.29350E-04 35976   0.469E-02    0.202E-01
DAV:   8    -0.384976428686E+03   -0.39165E-04   -0.16576E-04 38840   0.243E-02    0.110E-01
DAV:   9    -0.384976463438E+03   -0.34752E-04   -0.84535E-05 30976   0.222E-02    0.159E-01
DAV:  10    -0.384976424442E+03    0.38996E-04   -0.13009E-04 34112   0.214E-02    0.378E-02
DAV:  11    -0.384976464772E+03   -0.40330E-04   -0.68730E-05 28048   0.151E-02    0.134E-01
DAV:  12    -0.384976468288E+03   -0.35159E-05   -0.23589E-05 25080   0.108E-02
  44 F= -.38497647E+03 E0= -.38496826E+03  d E =-.594409E-02  mag=    46.0000
       N       E                     dE             d eps       ncg     rms          rms(c)
DAV:   1    -0.384972766767E+03    0.36980E-02   -0.14053E+00 40384   0.270E+00    0.451E-01
DAV:   2    -0.384984610614E+03   -0.11844E-01   -0.83543E-02 38456   0.516E-01    0.260E+00
DAV:   3    -0.384976460567E+03    0.81500E-02   -0.11948E-02 37912   0.303E-01    0.934E-01
DAV:   4    -0.384977372148E+03   -0.91158E-03   -0.45149E-03 46800   0.110E-01    0.296E-01
DAV:   5    -0.384977875218E+03   -0.50307E-03   -0.74910E-04 38472   0.803E-02    0.278E-01
DAV:   6    -0.384977859638E+03    0.15580E-04   -0.46387E-04 40488   0.702E-02    0.194E-01
DAV:   7    -0.384977946792E+03   -0.87154E-04   -0.20292E-04 41976   0.373E-02    0.270E-01
DAV:   8    -0.384977846956E+03    0.99837E-04   -0.21429E-04 39976   0.344E-02    0.779E-02
DAV:   9    -0.384977872246E+03   -0.25290E-04   -0.66876E-05 36816   0.218E-02    0.644E-02
DAV:  10    -0.384977884104E+03   -0.11859E-04   -0.96392E-05 30136   0.215E-02    0.117E-01
DAV:  11    -0.384977874459E+03    0.96454E-05   -0.31666E-05 25744   0.170E-02
  45 F= -.38497787E+03 E0= -.38496963E+03  d E =-.140617E-02  mag=    46.0000
       N       E                     dE             d eps       ncg     rms          rms(c)
DAV:   1    -0.384968422327E+03    0.94618E-02   -0.23538E+00 40648   0.394E+00    0.510E-01
DAV:   2    -0.384979661613E+03   -0.11239E-01   -0.10723E-01 38128   0.669E-01    0.103E+00
DAV:   3    -0.384978864764E+03    0.79685E-03   -0.10864E-02 40520   0.288E-01    0.754E-01
DAV:   4    -0.384978521668E+03    0.34310E-03   -0.28520E-03 47720   0.123E-01    0.323E-01
DAV:   5    -0.384978588475E+03   -0.66807E-04   -0.12292E-03 45152   0.888E-02    0.301E-01
DAV:   6    -0.384978514764E+03    0.73711E-04   -0.62419E-04 43264   0.697E-02    0.232E-01
DAV:   7    -0.384978497827E+03    0.16937E-04   -0.25078E-04 41600   0.446E-02    0.153E-01
DAV:   8    -0.384978494687E+03    0.31399E-05   -0.21970E-04 39432   0.333E-02    0.116E-01
DAV:   9    -0.384978480904E+03    0.13783E-04   -0.64671E-05 31328   0.209E-02    0.647E-02
DAV:  10    -0.384978489964E+03   -0.90605E-05   -0.93107E-05 33392   0.240E-02
  46 F= -.38497849E+03 E0= -.38497028E+03  d E =-.615505E-03  mag=    46.0000
       N       E                     dE             d eps       ncg     rms          rms(c)
DAV:   1    -0.384978322600E+03    0.15830E-03   -0.41871E-01 40192   0.194E+00    0.193E-01
DAV:   2    -0.384980609496E+03   -0.22869E-02   -0.21656E-02 36720   0.323E-01    0.419E-01
DAV:   3    -0.384980547434E+03    0.62061E-04   -0.22650E-03 46112   0.110E-01    0.367E-01
DAV:   4    -0.384980481554E+03    0.65880E-04   -0.24507E-04 38144   0.550E-02    0.196E-01
DAV:   5    -0.384980454335E+03    0.27219E-04   -0.19012E-04 34832   0.246E-02    0.622E-02
DAV:   6    -0.384980482521E+03   -0.28186E-04   -0.91650E-05 30992   0.195E-02    0.120E-01
DAV:   7    -0.384980462503E+03    0.20018E-04   -0.43041E-05 27480   0.205E-02    0.423E-02
DAV:   8    -0.384980465684E+03   -0.31810E-05   -0.18929E-05 24256   0.100E-02
  47 F= -.38498047E+03 E0= -.38497230E+03  d E =-.197572E-02  mag=    46.0000
       N       E                     dE             d eps       ncg     rms          rms(c)
DAV:   1    -0.384941531067E+03    0.38931E-01   -0.11765E+01 39448   0.977E+00    0.898E-01
DAV:   2    -0.384993979088E+03   -0.52448E-01   -0.52436E-01 36664   0.163E+00    0.140E+00
DAV:   3    -0.384997343489E+03   -0.33644E-02   -0.71366E-02 48920   0.485E-01    0.225E+00
DAV:   4    -0.384991481806E+03    0.58617E-02   -0.88270E-03 42424   0.292E-01    0.800E-01
DAV:   5    -0.384992227009E+03   -0.74520E-03   -0.54442E-03 50688   0.129E-01    0.530E-01
DAV:   6    -0.384993120969E+03   -0.89396E-03   -0.33163E-03 39408   0.110E-01    0.861E-01
DAV:   7    -0.384992112252E+03    0.10087E-02   -0.15498E-03 40888   0.979E-02    0.460E-01
DAV:   8    -0.384992129139E+03   -0.16887E-04   -0.83315E-04 49352   0.630E-02    0.193E-01
DAV:   9    -0.384992217357E+03   -0.88218E-04   -0.21863E-04 40520   0.475E-02    0.110E-01
DAV:  10    -0.384992233446E+03   -0.16089E-04   -0.13160E-04 39232   0.256E-02    0.740E-02
DAV:  11    -0.384992244079E+03   -0.10633E-04   -0.58282E-05 28776   0.207E-02    0.626E-02
DAV:  12    -0.384992255280E+03   -0.11201E-04   -0.43208E-05 25848   0.134E-02    0.106E-01
DAV:  13    -0.384992243784E+03    0.11495E-04   -0.46076E-06 23504   0.804E-03    0.817E-02
DAV:  14    -0.384992237514E+03    0.62703E-05   -0.19921E-05 20168   0.724E-03
  48 F= -.38499224E+03 E0= -.38498403E+03  d E =-.117718E-01  mag=    46.0000
       N       E                     dE             d eps       ncg     rms          rms(c)
DAV:   1    -0.384853731373E+03    0.13851E+00   -0.31879E+01 39352   0.166E+01    0.155E+00
DAV:   2    -0.385007238878E+03   -0.15351E+00   -0.15197E+00 36616   0.277E+00    0.176E+00
DAV:   3    -0.385011062966E+03   -0.38241E-02   -0.89802E-02 47664   0.725E-01    0.186E+00
DAV:   4    -0.385006217948E+03    0.48450E-02   -0.17351E-02 46080   0.404E-01    0.511E-01
DAV:   5    -0.385006827501E+03   -0.60955E-03   -0.78113E-03 47664   0.187E-01    0.650E-01
DAV:   6    -0.385006557096E+03    0.27041E-03   -0.36833E-03 46552   0.155E-01    0.720E-01
DAV:   7    -0.385005873092E+03    0.68400E-03   -0.26431E-03 45976   0.128E-01    0.306E-01
DAV:   8    -0.385006212459E+03   -0.33937E-03   -0.17931E-03 43880   0.115E-01    0.451E-01
DAV:   9    -0.385005906754E+03    0.30571E-03   -0.60565E-04 41920   0.752E-02    0.186E-01
DAV:  10    -0.385005919189E+03   -0.12436E-04   -0.21218E-04 39024   0.339E-02    0.676E-02
DAV:  11    -0.385005937928E+03   -0.18739E-04   -0.92798E-05 34584   0.216E-02    0.521E-02
DAV:  12    -0.385005936754E+03    0.11745E-05   -0.17323E-05 24016   0.126E-02
  49 F= -.38500594E+03 E0= -.38499781E+03  d E =-.136992E-01  mag=    46.0000
       N       E                     dE             d eps       ncg     rms          rms(c)
DAV:   1    -0.384950055500E+03    0.55882E-01   -0.13586E+01 39632   0.107E+01    0.104E+00
DAV:   2    -0.385015375736E+03   -0.65320E-01   -0.63298E-01 36664   0.181E+00    0.198E+00
DAV:   3    -0.385013688672E+03    0.16871E-02   -0.87933E-02 43472   0.597E-01    0.164E+00
DAV:   4    -0.385011880661E+03    0.18080E-02   -0.16648E-02 46008   0.326E-01    0.882E-01
DAV:   5    -0.385011558785E+03    0.32188E-03   -0.50686E-03 44120   0.199E-01    0.382E-01
DAV:   6    -0.385011609122E+03   -0.50338E-04   -0.24111E-03 46656   0.114E-01    0.373E-01
DAV:   7    -0.385011425350E+03    0.18377E-03   -0.81025E-04 44216   0.869E-02    0.232E-01
DAV:   8    -0.385011409761E+03    0.15589E-04   -0.83257E-04 43800   0.686E-02    0.237E-01
DAV:   9    -0.385011367507E+03    0.42254E-04   -0.31120E-04 43688   0.492E-02    0.153E-01
DAV:  10    -0.385011364963E+03    0.25435E-05   -0.28392E-04 36712   0.337E-02    0.104E-01
DAV:  11    -0.385011389118E+03   -0.24155E-04   -0.81693E-05 30064   0.239E-02    0.111E-01
DAV:  12    -0.385011371418E+03    0.17700E-04   -0.45588E-05 30000   0.213E-02    0.362E-02
DAV:  13    -0.385011376670E+03   -0.52525E-05   -0.17341E-05 25208   0.930E-03
  50 F= -.38501138E+03 E0= -.38500322E+03  d E =-.543992E-02  mag=    46.0000
       N       E                     dE             d eps       ncg     rms          rms(c)
DAV:   1    -0.384953441459E+03    0.57930E-01   -0.77883E+00 41768   0.935E+00    0.117E+00
DAV:   2    -0.385029822144E+03   -0.76381E-01   -0.70427E-01 37080   0.162E+00    0.368E+00
DAV:   3    -0.385011981083E+03    0.17841E-01   -0.14247E-01 38744   0.725E-01    0.900E-01
DAV:   4    -0.385017556009E+03   -0.55749E-02   -0.80120E-03 40512   0.218E-01    0.920E-01
DAV:   5    -0.385016174555E+03    0.13815E-02   -0.36243E-03 47968   0.171E-01    0.393E-01
DAV:   6    -0.385017005611E+03   -0.83106E-03   -0.65479E-03 48344   0.121E-01    0.801E-01
DAV:   7    -0.385016733807E+03    0.27180E-03   -0.98632E-04 39024   0.938E-02    0.714E-01
DAV:   8    -0.385016200024E+03    0.53378E-03   -0.78352E-04 46680   0.710E-02    0.333E-01
DAV:   9    -0.385016319376E+03   -0.11935E-03   -0.35376E-04 42192   0.415E-02    0.178E-01
DAV:  10    -0.385016359051E+03   -0.39675E-04   -0.31023E-04 40456   0.338E-02    0.889E-02
DAV:  11    -0.385016441167E+03   -0.82115E-04   -0.18382E-04 33728   0.274E-02    0.221E-01
DAV:  12    -0.385016403356E+03    0.37811E-04   -0.49451E-05 28936   0.233E-02    0.198E-01
DAV:  13    -0.385016359027E+03    0.44329E-04   -0.42862E-05 30008   0.154E-02    0.856E-02
DAV:  14    -0.385016371405E+03   -0.12378E-04   -0.53871E-05 26624   0.120E-02    0.186E-02
DAV:  15    -0.385016384492E+03   -0.13088E-04   -0.15534E-05 23616   0.702E-03    0.613E-02
DAV:  16    -0.385016379196E+03    0.52965E-05   -0.43961E-06 20336   0.664E-03
  51 F= -.38501638E+03 E0= -.38500819E+03  d E =-.500253E-02  mag=    46.0000
       N       E                     dE             d eps       ncg     rms          rms(c)
DAV:   1    -0.384997529915E+03    0.18855E-01   -0.41630E+00 39888   0.633E+00    0.621E-01
DAV:   2    -0.385021588934E+03   -0.24059E-01   -0.23313E-01 36624   0.104E+00    0.735E-01
DAV:   3    -0.385024230625E+03   -0.26417E-02   -0.30108E-02 48680   0.296E-01    0.154E+00
DAV:   4    -0.385021025936E+03    0.32047E-02   -0.63649E-03 39928   0.208E-01    0.448E-01
DAV:   5    -0.385021618183E+03   -0.59225E-03   -0.37619E-03 47968   0.822E-02    0.344E-01
DAV:   6    -0.385021863009E+03   -0.24483E-03   -0.40344E-04 37808   0.656E-02    0.486E-01
DAV:   7    -0.385021521520E+03    0.34149E-03   -0.34695E-04 38168   0.547E-02    0.211E-01
DAV:   8    -0.385021569977E+03   -0.48457E-04   -0.38359E-04 40992   0.399E-02    0.122E-01
DAV:   9    -0.385021584916E+03   -0.14939E-04   -0.90123E-05 37976   0.326E-02    0.792E-02
DAV:  10    -0.385021592776E+03   -0.78600E-05   -0.69049E-05 31560   0.193E-02
  52 F= -.38502159E+03 E0= -.38501343E+03  d E =-.521358E-02  mag=    46.0000
       N       E                     dE             d eps       ncg     rms          rms(c)
DAV:   1    -0.384947748943E+03    0.73836E-01   -0.16835E+01 40296   0.120E+01    0.128E+00
DAV:   2    -0.385051812658E+03   -0.10406E+00   -0.88755E-01 36816   0.211E+00    0.521E+00
DAV:   3    -0.385015725487E+03    0.36087E-01   -0.10872E-01 38712   0.839E-01    0.875E-01
DAV:   4    -0.385025547298E+03   -0.98218E-02   -0.29695E-02 46456   0.304E-01    0.116E+00
DAV:   5    -0.385024503180E+03    0.10441E-02   -0.45674E-03 44960   0.210E-01    0.809E-01
DAV:   6    -0.385023619805E+03    0.88337E-03   -0.72135E-03 50184   0.141E-01    0.429E-01
DAV:   7    -0.385024531661E+03   -0.91186E-03   -0.28484E-03 41288   0.105E-01    0.859E-01
DAV:   8    -0.385023879321E+03    0.65234E-03   -0.98461E-04 42248   0.881E-02    0.671E-01
DAV:   9    -0.385023622127E+03    0.25719E-03   -0.36582E-04 49584   0.567E-02    0.428E-01
DAV:  10    -0.385023604089E+03    0.18038E-04   -0.35339E-04 42384   0.445E-02    0.239E-01
DAV:  11    -0.385023643310E+03   -0.39220E-04   -0.18222E-04 35792   0.313E-02    0.615E-02
DAV:  12    -0.385023714671E+03   -0.71361E-04   -0.16380E-04 31832   0.178E-02    0.130E-01
DAV:  13    -0.385023709727E+03    0.49439E-05   -0.22232E-05 28648   0.171E-02
  53 F= -.38502371E+03 E0= -.38501558E+03  d E =-.211695E-02  mag=    46.0000
       N       E                     dE             d eps       ncg     rms          rms(c)
DAV:   1    -0.384918409949E+03    0.10530E+00   -0.18846E+01 39984   0.134E+01    0.133E+00
DAV:   2    -0.385023042832E+03   -0.10463E+00   -0.10032E+00 36616   0.223E+00    0.200E+00
DAV:   3    -0.385029853589E+03   -0.68108E-02   -0.16110E-01 47088   0.713E-01    0.275E+00
DAV:   4    -0.385020512912E+03    0.93407E-02   -0.40149E-02 42328   0.443E-01    0.989E-01
DAV:   5    -0.385021144872E+03   -0.63196E-03   -0.86927E-03 45632   0.199E-01    0.352E-01
DAV:   6    -0.385021520181E+03   -0.37531E-03   -0.17159E-03 39464   0.102E-01    0.484E-01
DAV:   7    -0.385021168665E+03    0.35152E-03   -0.13499E-03 49192   0.100E-01    0.294E-01
DAV:   8    -0.385021267922E+03   -0.99257E-04   -0.10500E-03 47952   0.948E-02    0.361E-01
DAV:   9    -0.385021247735E+03    0.20187E-04   -0.63691E-04 40816   0.624E-02    0.370E-01
DAV:  10    -0.385021081168E+03    0.16657E-03   -0.31658E-04 37832   0.423E-02    0.156E-01
DAV:  11    -0.385021117856E+03   -0.36689E-04   -0.23824E-04 39176   0.264E-02    0.680E-02
DAV:  12    -0.385021134099E+03   -0.16243E-04   -0.44797E-05 29928   0.199E-02    0.308E-02
DAV:  13    -0.385021136757E+03   -0.26576E-05   -0.67568E-06 21920   0.739E-03
  54 F= -.38502114E+03 E0= -.38501300E+03  d E =0.257297E-02  mag=    46.0000
       N       E                     dE             d eps       ncg     rms          rms(c)
DAV:   1    -0.384970160722E+03    0.50973E-01   -0.49316E+00 41616   0.760E+00    0.126E+00
DAV:   2    -0.385047454357E+03   -0.77294E-01   -0.71433E-01 38848   0.147E+00    0.490E+00
DAV:   3    -0.385010512339E+03    0.36942E-01   -0.12757E-01 38544   0.877E-01    0.952E-01
DAV:   4    -0.385019407953E+03   -0.88956E-02   -0.23997E-02 43536   0.280E-01    0.111E+00
DAV:   5    -0.385018787182E+03    0.62077E-03   -0.39036E-03 40256   0.223E-01    0.803E-01
DAV:   6    -0.385017889490E+03    0.89769E-03   -0.49908E-03 49736   0.137E-01    0.378E-01
DAV:   7    -0.385018924876E+03   -0.10354E-02   -0.27814E-03 43048   0.929E-02    0.804E-01
DAV:   8    -0.385018360347E+03    0.56453E-03   -0.81472E-04 39560   0.887E-02    0.602E-01
DAV:   9    -0.385018189270E+03    0.17108E-03   -0.10071E-03 48368   0.725E-02    0.405E-01
DAV:  10    -0.385018112711E+03    0.76559E-04   -0.65724E-04 45592   0.513E-02    0.122E-01
DAV:  11    -0.385018216462E+03   -0.10375E-03   -0.28833E-04 36144   0.378E-02    0.958E-02
DAV:  12    -0.385018266364E+03   -0.49902E-04   -0.75834E-05 34256   0.238E-02    0.202E-01
DAV:  13    -0.385018210850E+03    0.55514E-04   -0.21730E-05 30456   0.203E-02    0.128E-01
DAV:  14    -0.385018200807E+03    0.10043E-04   -0.66633E-05 28752   0.134E-02    0.208E-02
DAV:  15    -0.385018216838E+03   -0.16031E-04   -0.23640E-05 24824   0.880E-03    0.497E-02
DAV:  16    -0.385018215271E+03    0.15669E-05   -0.33894E-06 20928   0.632E-03
  55 F= -.38501822E+03 E0= -.38501008E+03  d E =0.292149E-02  mag=    46.0000
       N       E                     dE             d eps       ncg     rms          rms(c)
DAV:   1    -0.385006094755E+03    0.12122E-01   -0.17665E+00 41344   0.465E+00    0.657E-01
DAV:   2    -0.385028907367E+03   -0.22813E-01   -0.18439E-01 37256   0.822E-01    0.244E+00
DAV:   3    -0.385021680475E+03    0.72269E-02   -0.26656E-02 39160   0.407E-01    0.417E-01
DAV:   4    -0.385024379181E+03   -0.26987E-02   -0.58671E-03 41672   0.148E-01    0.633E-01
DAV:   5    -0.385023885264E+03    0.49392E-03   -0.16672E-03 42976   0.114E-01    0.391E-01
DAV:   6    -0.385023781149E+03    0.10411E-03   -0.13900E-03 47648   0.689E-02    0.234E-01
DAV:   7    -0.385024094841E+03   -0.31369E-03   -0.45762E-04 39656   0.490E-02    0.478E-01
DAV:   8    -0.385023821951E+03    0.27289E-03   -0.28186E-04 37288   0.504E-02    0.284E-01
DAV:   9    -0.385023810472E+03    0.11479E-04   -0.12771E-04 42192   0.284E-02    0.144E-01
DAV:  10    -0.385023827374E+03   -0.16902E-04   -0.84228E-05 31696   0.229E-02    0.739E-02
DAV:  11    -0.385023842009E+03   -0.14635E-04   -0.85552E-05 27640   0.180E-02    0.477E-02
DAV:  12    -0.385023854801E+03   -0.12792E-04   -0.19960E-05 25160   0.124E-02    0.933E-02
DAV:  13    -0.385023843764E+03    0.11037E-04   -0.91316E-06 23272   0.913E-03    0.655E-02
DAV:  14    -0.385023839833E+03    0.39316E-05   -0.12250E-05 20408   0.699E-03
  56 F= -.38502384E+03 E0= -.38501570E+03  d E =-.562456E-02  mag=    46.0000
