       N       E                     dE             d eps       ncg     rms          ort
DAV:   1     0.897958599242E+04    0.89796E+04   -0.41415E+05  8208   0.179E+03
DAV:   2     0.638063407692E+03   -0.83415E+04   -0.78188E+04  8208   0.528E+02
DAV:   3    -0.343711975965E+03   -0.98178E+03   -0.94629E+03  8208   0.203E+02
DAV:   4    -0.387728317130E+03   -0.44016E+02   -0.43468E+02  8208   0.402E+01
DAV:   5    -0.389743588099E+03   -0.20153E+01   -0.19953E+01  8208   0.737E+00
SDA:   6    -0.171385391721E+03    0.21836E+03   -0.19953E+01  8208   0.167E+04 0.000E+00
CGA:   7    -0.285495250577E+03   -0.11411E+03   -0.12811E+03  8208   0.878E+03 0.130E+03
CGA:   8    -0.311306105868E+03   -0.25811E+02   -0.33089E+02  8208   0.155E+03 0.157E+03
CGA:   9    -0.315869674210E+03   -0.45636E+01   -0.89723E+01  8208   0.248E+03 0.241E+02
CGA:  10    -0.320201056336E+03   -0.43314E+01   -0.74386E+01  8208   0.387E+03 0.119E+02
CGA:  11    -0.322952019533E+03   -0.27510E+01   -0.12229E+02  8208   0.213E+03-0.118E+03
CGA:  12    -0.317564248645E+03    0.53878E+01   -0.43124E+01  8208   0.436E+03-0.218E+03
CGA:  13    -0.323445558376E+03   -0.58813E+01   -0.14101E+02  8208   0.218E+03-0.671E+02
CGA:  14    -0.329202065990E+03   -0.57565E+01   -0.77410E+01  8208   0.152E+03 0.380E+02
CGA:  15    -0.322578354094E+03    0.66237E+01   -0.10906E+02  8208   0.212E+03-0.242E+01
CGA:  16    -0.327645817176E+03   -0.50675E+01   -0.30964E+01  8208   0.663E+03-0.634E+03
CGA:  17    -0.329474627772E+03   -0.18288E+01   -0.31504E+02  8208   0.130E+03-0.313E+02
CGA:  18    -0.328765081279E+03    0.70955E+00   -0.31859E+01  8208   0.442E+03-0.189E+03
CGA:  19    -0.328553242896E+03    0.21184E+00   -0.23515E+02  8208   0.398E+03-0.262E+01
CGA:  20    -0.320671565697E+03    0.78817E+01   -0.15503E+02  8208   0.820E+03-0.824E+02
CGA:  21    -0.329963980591E+03   -0.92924E+01   -0.19330E+02  8208   0.543E+03 0.260E+03
CGA:  22    -0.325674464122E+03    0.42895E+01   -0.32504E+02  8208   0.473E+03-0.124E+03
CGA:  23    -0.326445279534E+03   -0.77082E+00   -0.86751E+01  8208   0.927E+03-0.537E+03
CGA:  24    -0.324535974155E+03    0.19093E+01   -0.38155E+02  8208   0.324E+03-0.149E+03
CGA:  25    -0.329795243545E+03   -0.52593E+01   -0.61208E+01  8208   0.519E+03-0.493E+03
CGA:  26    -0.327430297755E+03    0.23649E+01   -0.21610E+02  8208   0.557E+03-0.106E+03
CGA:  27    -0.319619814612E+03    0.78105E+01   -0.95882E+01  8208   0.686E+03-0.406E+03
CGA:  28    -0.325459363953E+03   -0.58395E+01   -0.21112E+02  8208   0.363E+03-0.131E+03
CGA:  29    -0.330988444993E+03   -0.55291E+01   -0.52810E+01  8208   0.394E+03-0.330E+03
CGA:  30    -0.333656104208E+03   -0.26677E+01   -0.13679E+02  8208   0.175E+03 0.362E+01
CGA:  31    -0.327087179643E+03    0.65689E+01   -0.58221E+01  8208   0.584E+03-0.601E+02
CGA:  32    -0.326635366273E+03    0.45181E+00   -0.13343E+02  8208   0.352E+03-0.380E+02
CGA:  33    -0.330994965429E+03   -0.43596E+01   -0.11124E+02  8208   0.217E+03-0.117E+03
CGA:  34    -0.334285336478E+03   -0.32904E+01   -0.48905E+01  8208   0.981E+02-0.433E+02
CGA:  35    -0.336039661623E+03   -0.17543E+01   -0.18956E+01  8208   0.269E+02-0.171E+02
CGA:  36    -0.336656715759E+03   -0.61705E+00   -0.50268E+00  8208   0.593E+01 0.263E+01
CGA:  37    -0.336867924899E+03   -0.21121E+00   -0.20783E+00  8208   0.578E+01 0.690E-01
CGA:  38    -0.337071616059E+03   -0.20369E+00   -0.18846E+00  8208   0.531E+01 0.282E+00
CGA:  39    -0.337186206117E+03   -0.11459E+00   -0.79904E-01  8208   0.255E+01 0.223E+01
CGA:  40    -0.337262597520E+03   -0.76391E-01   -0.61075E-01  8208   0.213E+01 0.867E+00
CGA:  41    -0.337302429738E+03   -0.39832E-01   -0.23558E-01  8208   0.171E+01 0.193E+01
CGA:  42    -0.337341183062E+03   -0.38753E-01   -0.37557E-01  8208   0.797E+00 0.370E-01
CGA:  43    -0.337425144357E+03   -0.83961E-01   -0.15790E+00  8208   0.934E+01-0.889E+00
CGA:  44    -0.337597849791E+03   -0.17271E+00   -0.22157E+00  8208   0.173E+01-0.135E+01
CGA:  45    -0.337631316744E+03   -0.33467E-01   -0.31895E-01  8208   0.585E+00 0.485E-01
CGA:  46    -0.337674148045E+03   -0.42831E-01   -0.43444E-01  8208   0.141E+01-0.310E-01
CGA:  47    -0.337759868729E+03   -0.85721E-01   -0.69770E-01  8208   0.147E+01-0.522E+00
CGA:  48    -0.337764565257E+03   -0.46965E-02   -0.36159E-02  8208   0.128E+01 0.253E+00
CGA:  49    -0.337775221559E+03   -0.10656E-01   -0.10490E-01  8208   0.959E+00-0.596E-02
CGA:  50    -0.337782455508E+03   -0.72339E-02   -0.71345E-02  8208   0.108E+01 0.630E-02
CGA:  51    -0.337791797575E+03   -0.93421E-02   -0.85972E-02  8208   0.140E+01 0.856E-01
CGA:  52    -0.337804335389E+03   -0.12538E-01   -0.97179E-02  8208   0.156E+01 0.422E+00
CGA:  53    -0.337819740078E+03   -0.15405E-01   -0.11019E-01  8208   0.145E+01 0.762E+00
CGA:  54    -0.337835211444E+03   -0.15471E-01   -0.12312E-01  8208   0.135E+01 0.470E+00
CGA:  55    -0.337845708409E+03   -0.10497E-01   -0.10257E-01  8208   0.155E+01-0.107E-01
CGA:  56    -0.337851932731E+03   -0.62243E-02   -0.57736E-02  8208   0.173E+01 0.105E+00
CGA:  57    -0.337859132211E+03   -0.71995E-02   -0.57894E-02  8208   0.163E+01 0.435E+00
CGA:  58    -0.337866701045E+03   -0.75688E-02   -0.56993E-02  8208   0.126E+01 0.636E+00
CGA:  59    -0.337872718616E+03   -0.60176E-02   -0.46439E-02  8208   0.863E+00 0.484E+00
CGA:  60    -0.337876922568E+03   -0.42040E-02   -0.37097E-02  8208   0.626E+00 0.144E+00
CGA:  61    -0.337879512366E+03   -0.25898E-02   -0.26895E-02  8208   0.618E+00-0.313E-01
CGA:  62    -0.337881543522E+03   -0.20312E-02   -0.22373E-02  8208   0.781E+00-0.560E-01
CGA:  63    -0.337884151276E+03   -0.26078E-02   -0.26665E-02  8208   0.104E+01-0.193E-01
CGA:  64    -0.337887998355E+03   -0.38471E-02   -0.33071E-02  8208   0.128E+01 0.158E+00
CGA:  65    -0.337893922517E+03   -0.59242E-02   -0.47686E-02  8208   0.144E+01 0.347E+00
CGA:  66    -0.337901521399E+03   -0.75989E-02   -0.59864E-02  8208   0.148E+01 0.483E+00
CGA:  67    -0.337909860412E+03   -0.83390E-02   -0.63791E-02  8208   0.140E+01 0.595E+00
CGA:  68    -0.337918429811E+03   -0.85694E-02   -0.69071E-02  8208   0.117E+01 0.438E+00
CGA:  69    -0.337924559754E+03   -0.61299E-02   -0.54951E-02  8208   0.904E+00 0.153E+00
CGA:  70    -0.337928156929E+03   -0.35972E-02   -0.37247E-02  8208   0.714E+00-0.441E-01
CGA:  71    -0.337930346269E+03   -0.21893E-02   -0.25618E-02  8208   0.611E+00-0.995E-01
CGA:  72    -0.337932108475E+03   -0.17622E-02   -0.22558E-02  8208   0.578E+00-0.108E+00
CGA:  73    -0.337934019648E+03   -0.19112E-02   -0.25255E-02  8208   0.595E+00-0.984E-01
SDA:  74    -0.337936695446E+03   -0.26758E-02   -0.32902E-02  8208   0.601E+00-0.685E-01
CGA:  75    -0.337960527498E+03   -0.23832E-01   -0.22502E-01  8208   0.338E+00 0.652E-01
CGA:  76    -0.337987202487E+03   -0.26675E-01   -0.22919E-01  8208   0.200E+00 0.978E-01
CGA:  77    -0.338003596484E+03   -0.16394E-01   -0.14729E-01  8208   0.111E+00 0.482E-01
CGA:  78    -0.338014534027E+03   -0.10938E-01   -0.96348E-02  8208   0.899E-01 0.302E-01
CGA:  79    -0.338023611139E+03   -0.90771E-02   -0.87166E-02  8208   0.108E+00 0.796E-02
CGA:  80    -0.338034180837E+03   -0.10570E-01   -0.93726E-02  8208   0.420E-01 0.247E-01
CGA:  81    -0.338038142881E+03   -0.39620E-02   -0.38712E-02  8208   0.468E-01 0.223E-02
CGA:  82    -0.338043108620E+03   -0.49657E-02   -0.47786E-02  8208   0.496E-01 0.312E-02
CGA:  83    -0.338049582434E+03   -0.64738E-02   -0.62052E-02  8208   0.421E-01 0.400E-02
CGA:  84    -0.338052302142E+03   -0.27197E-02   -0.26859E-02  8208   0.177E-01 0.144E-02
CGA:  85    -0.338054358069E+03   -0.20559E-02   -0.19954E-02  8208   0.206E-01 0.996E-03
CGA:  86    -0.338056979478E+03   -0.26214E-02   -0.26330E-02  8208   0.276E-01-0.156E-03
CGA:  87    -0.338059301534E+03   -0.23221E-02   -0.23023E-02  8208   0.143E-01 0.499E-03
CGA:  88    -0.338061032633E+03   -0.17311E-02   -0.17357E-02  8208   0.121E-01-0.703E-04
CGA:  89    -0.338062188377E+03   -0.11557E-02   -0.11481E-02  8208   0.126E-01 0.172E-03
CGA:  90    -0.338063677201E+03   -0.14888E-02   -0.14914E-02  8208   0.864E-02-0.108E-04
CGA:  91    -0.338064729880E+03   -0.10527E-02   -0.11047E-02  8208   0.170E-01-0.997E-03
CGA:  92    -0.338065966664E+03   -0.12368E-02   -0.13617E-02  8208   0.101E-01-0.332E-02
CGA:  93    -0.338066361074E+03   -0.39441E-03   -0.39159E-03  8208   0.990E-02-0.685E-05
CGA:  94    -0.338067653213E+03   -0.12921E-02   -0.12169E-02  8208   0.216E-01 0.688E-03
CGA:  95    -0.338068792792E+03   -0.11396E-02   -0.92154E-03  8208   0.218E-01 0.106E-02
CGA:  96    -0.338069365769E+03   -0.57298E-03   -0.52210E-03  8208   0.243E-01 0.125E-02
CGA:  97    -0.338069869741E+03   -0.50397E-03   -0.49190E-03  8208   0.220E-01 0.463E-03
CGA:  98    -0.338070232044E+03   -0.36230E-03   -0.35341E-03  8208   0.158E-01 0.569E-03
CGA:  99    -0.338070495841E+03   -0.26380E-03   -0.26477E-03  8208   0.124E-01-0.200E-04
CGA: 100    -0.338070724673E+03   -0.22883E-03   -0.23539E-03  8208   0.123E-01-0.255E-03
CGA: 101    -0.338070964787E+03   -0.24011E-03   -0.25139E-03  8208   0.128E-01-0.371E-03
CGA: 102    -0.338071228419E+03   -0.26363E-03   -0.28187E-03  8208   0.137E-01-0.493E-03
CGA: 103    -0.338071569028E+03   -0.34061E-03   -0.36280E-03  8208   0.160E-01-0.300E-03
CGA: 104    -0.338072036743E+03   -0.46772E-03   -0.48261E-03  8208   0.152E-01-0.452E-04
SDA: 105    -0.338072488029E+03   -0.45129E-03   -0.45695E-03  8208   0.133E-01-0.145E-04
CGA: 106    -0.338073890099E+03   -0.14021E-02   -0.13798E-02  8208   0.795E-02 0.407E-03
CGA: 107    -0.338074610616E+03   -0.72052E-03   -0.71882E-03  8208   0.452E-02 0.425E-04
CGA: 108    -0.338075168197E+03   -0.55758E-03   -0.54815E-03  8208   0.594E-02 0.142E-03
CGA: 109    -0.338075852321E+03   -0.68412E-03   -0.66629E-03  8208   0.385E-02 0.313E-03
CGA: 110    -0.338076456022E+03   -0.60370E-03   -0.59968E-03  8208   0.242E-02 0.679E-05
CGA: 111    -0.338076779399E+03   -0.32338E-03   -0.32575E-03  8208   0.302E-02-0.496E-04
CGA: 112    -0.338076964698E+03   -0.18530E-03   -0.18474E-03  8208   0.480E-03-0.564E-04
CGA: 113    -0.338077010850E+03   -0.46152E-04   -0.46346E-04  8208   0.284E-03-0.503E-05
CGA: 114    -0.338077051123E+03   -0.40273E-04   -0.40003E-04  8208   0.258E-03 0.332E-05
CGA: 115    -0.338077086377E+03   -0.35255E-04   -0.36172E-04  8208   0.199E-03-0.142E-04
CGA: 116    -0.338077111134E+03   -0.24757E-04   -0.25348E-04  8208   0.261E-03-0.100E-04
CGA: 117    -0.338077127386E+03   -0.16251E-04   -0.16178E-04  8208   0.114E-03-0.290E-05
CGA: 118    -0.338077144677E+03   -0.17291E-04   -0.17412E-04  8208   0.107E-03-0.183E-05
CGA: 119    -0.338077152263E+03   -0.75859E-05   -0.75904E-05  8208   0.643E-04 0.931E-06
   1 F= -.33807715E+03 E0= -.33806082E+03  d E =-.338077E+03  mag=    30.5059
       N       E                     dE             d eps       ncg     rms          ort
SDA:   1    -0.338192790550E+03   -0.11565E+00    0.00000E+00  8208   0.505E-01 0.000E+00
CGA:   2    -0.338195535233E+03   -0.27447E-02   -0.28139E-02  8208   0.313E-01 0.159E-03
CGA:   3    -0.338200095368E+03   -0.45601E-02   -0.45613E-02  8208   0.296E-01-0.171E-04
CGA:   4    -0.338201785308E+03   -0.16899E-02   -0.16976E-02  8208   0.556E-02 0.232E-04
CGA:   5    -0.338202629166E+03   -0.84386E-03   -0.84426E-03  8208   0.260E-02-0.605E-05
CGA:   6    -0.338202835018E+03   -0.20585E-03   -0.20571E-03  8208   0.121E-02-0.159E-04
CGA:   7    -0.338202907834E+03   -0.72816E-04   -0.72719E-04  8208   0.552E-03-0.438E-05
CGA:   8    -0.338202979023E+03   -0.71189E-04   -0.71116E-04  8208   0.220E-03 0.177E-05
CGA:   9    -0.338203001231E+03   -0.22209E-04   -0.22138E-04  8208   0.152E-03 0.500E-05
CGA:  10    -0.338203014749E+03   -0.13517E-04   -0.13516E-04  8208   0.907E-04 0.431E-05
CGA:  11    -0.338203023589E+03   -0.88404E-05   -0.88249E-05  8208   0.821E-04 0.205E-05
   2 F= -.33820302E+03 E0= -.33818666E+03  d E =-.125871E+00  mag=    30.5118
       N       E                     dE             d eps       ncg     rms          ort
SDA:   1    -0.285694469382E+03    0.52509E+02    0.00000E+00  8208   0.160E+03 0.000E+00
CGA:   2    -0.314916184858E+03   -0.29222E+02    0.14696E+03  8208   0.928E+02 0.165E+03
CGA:   3    -0.330694634583E+03   -0.15778E+02   -0.14366E+02  8208   0.779E+02 0.241E+02
CGA:   4    -0.337775173681E+03   -0.70805E+01   -0.75354E+01  8208   0.341E+02 0.119E+02
CGA:   5    -0.341266987300E+03   -0.34918E+01   -0.31436E+01  8208   0.289E+02-0.143E+02
CGA:   6    -0.342682459006E+03   -0.14155E+01   -0.14179E+01  8208   0.165E+02 0.249E+00
CGA:   7    -0.343005601444E+03   -0.32314E+00   -0.35385E+00  8208   0.770E+01-0.396E+01
CGA:   8    -0.343135603945E+03   -0.13000E+00   -0.15104E+00  8208   0.977E+01-0.772E+00
CGA:   9    -0.343400798475E+03   -0.26519E+00   -0.30615E+00  8208   0.423E+01-0.585E+00
CGA:  10    -0.343628088191E+03   -0.22729E+00   -0.19619E+00  8208   0.188E+01 0.304E+00
CGA:  11    -0.343676552750E+03   -0.48465E-01   -0.46823E-01  8208   0.159E+01 0.439E-01
CGA:  12    -0.343750086897E+03   -0.73534E-01   -0.69602E-01  8208   0.173E+01 0.387E-01
CGA:  13    -0.343793042321E+03   -0.42955E-01   -0.48308E-01  8208   0.130E+01-0.138E+00
CGA:  14    -0.343850824619E+03   -0.57782E-01   -0.60112E-01  8208   0.178E+01 0.831E-02
CGA:  15    -0.343894868480E+03   -0.44044E-01   -0.49308E-01  8208   0.386E+00-0.139E+00
CGA:  16    -0.343915467654E+03   -0.20599E-01   -0.20643E-01  8208   0.458E+00 0.136E-02
CGA:  17    -0.343932422625E+03   -0.16955E-01   -0.17394E-01  8208   0.173E+00-0.313E-02
CGA:  18    -0.343949142164E+03   -0.16720E-01   -0.16215E-01  8208   0.333E+00 0.141E-01
CGA:  19    -0.343965326841E+03   -0.16185E-01   -0.16299E-01  8208   0.792E-01 0.196E-03
CGA:  20    -0.343971227822E+03   -0.59010E-02   -0.58650E-02  8208   0.645E-01 0.305E-02
CGA:  21    -0.343977484210E+03   -0.62564E-02   -0.62187E-02  8208   0.569E-01 0.113E-02
CGA:  22    -0.343980801236E+03   -0.33170E-02   -0.33289E-02  8208   0.356E-01 0.314E-03
CGA:  23    -0.343983272806E+03   -0.24716E-02   -0.24703E-02  8208   0.133E-01 0.628E-03
CGA:  24    -0.343984787625E+03   -0.15148E-02   -0.15110E-02  8208   0.206E-01 0.744E-04
CGA:  25    -0.343985929420E+03   -0.11418E-02   -0.11459E-02  8208   0.958E-02 0.669E-04
CGA:  26    -0.343986828434E+03   -0.89901E-03   -0.89318E-03  8208   0.631E-02 0.190E-03
CGA:  27    -0.343987330490E+03   -0.50206E-03   -0.50152E-03  8208   0.607E-02 0.529E-04
CGA:  28    -0.343987805462E+03   -0.47497E-03   -0.47410E-03  8208   0.546E-02 0.885E-04
CGA:  29    -0.343988284836E+03   -0.47937E-03   -0.47762E-03  8208   0.246E-02 0.809E-04
CGA:  30    -0.343988546275E+03   -0.26144E-03   -0.26124E-03  8208   0.278E-02 0.465E-05
CGA:  31    -0.343988771969E+03   -0.22569E-03   -0.22527E-03  8208   0.305E-02 0.342E-04
CGA:  32    -0.343989048388E+03   -0.27642E-03   -0.27635E-03  8208   0.132E-02 0.269E-05
SDA:  33    -0.343989154032E+03   -0.10564E-03   -0.10553E-03  8208   0.976E-03 0.156E-04
CGA:  34    -0.343989224225E+03   -0.70193E-04   -0.70224E-04  8208   0.730E-03 0.578E-05
CGA:  35    -0.343989341731E+03   -0.11751E-03   -0.11713E-03  8208   0.705E-03 0.435E-05
CGA:  36    -0.343989386033E+03   -0.44302E-04   -0.44409E-04  8208   0.458E-03 0.326E-05
CGA:  37    -0.343989425565E+03   -0.39532E-04   -0.39535E-04  8208   0.271E-03-0.110E-06
CGA:  38    -0.343989474502E+03   -0.48937E-04   -0.48888E-04  8208   0.241E-03 0.531E-06
CGA:  39    -0.343989520015E+03   -0.45513E-04   -0.45712E-04  8208   0.274E-03-0.195E-05
CGA:  40    -0.343989554590E+03   -0.34575E-04   -0.34201E-04  8208   0.383E-03 0.873E-05
CGA:  41    -0.343989587624E+03   -0.33034E-04   -0.33017E-04  8208   0.268E-03 0.727E-06
CGA:  42    -0.343989609231E+03   -0.21607E-04   -0.21655E-04  8208   0.204E-03 0.340E-05
CGA:  43    -0.343989638521E+03   -0.29291E-04   -0.29028E-04  8208   0.126E-03 0.512E-05
CGA:  44    -0.343989659230E+03   -0.20708E-04   -0.20475E-04  8208   0.490E-04 0.353E-05
CGA:  45    -0.343989667241E+03   -0.80115E-05   -0.79073E-05  8208   0.848E-04 0.167E-05
   3 F= -.34398967E+03 E0= -.34397297E+03  d E =-.578664E+01  mag=    30.5594
       N       E                     dE             d eps       ncg     rms          ort
SDA:   1    -0.221669799675E+03    0.12232E+03    0.00000E+00  8208   0.104E+04 0.000E+00
CGA:   2    -0.290918474304E+03   -0.69249E+02   -0.81929E+02  8208   0.132E+03 0.177E+03
CGA:   3    -0.309728414175E+03   -0.18810E+02   -0.43310E+02  8208   0.944E+03-0.148E+03
CGA:   4    -0.334908897224E+03   -0.25180E+02   -0.54853E+02  8208   0.830E+02 0.837E+02
CGA:   5    -0.340891155498E+03   -0.59823E+01   -0.66828E+01  8208   0.319E+02 0.369E+01
CGA:   6    -0.343764200378E+03   -0.28730E+01   -0.25890E+01  8208   0.271E+02-0.332E+00
CGA:   7    -0.344233349284E+03   -0.46915E+00   -0.69196E+00  8208   0.289E+02-0.804E+01
CGA:   8    -0.344953527620E+03   -0.72018E+00   -0.70510E+00  8208   0.216E+02 0.221E+01
CGA:   9    -0.345120615962E+03   -0.16709E+00   -0.75928E+00  8208   0.291E+02-0.156E+02
CGA:  10    -0.345967078334E+03   -0.84646E+00   -0.10580E+01  8208   0.127E+02-0.753E+01
CGA:  11    -0.346249706495E+03   -0.28263E+00   -0.23377E+00  8208   0.507E+01 0.101E+01
CGA:  12    -0.346454073136E+03   -0.20437E+00   -0.19692E+00  8208   0.340E+01-0.100E-01
CGA:  13    -0.346628388346E+03   -0.17432E+00   -0.19669E+00  8208   0.324E+01 0.123E+00
CGA:  14    -0.346769184654E+03   -0.14080E+00   -0.15733E+00  8208   0.275E+01-0.108E+00
CGA:  15    -0.346864188524E+03   -0.95004E-01   -0.72584E-01  8208   0.902E+00 0.602E+00
CGA:  16    -0.346920665028E+03   -0.56477E-01   -0.58128E-01  8208   0.146E+01 0.222E-02
CGA:  17    -0.346990285557E+03   -0.69621E-01   -0.70753E-01  8208   0.196E+01 0.143E-02
CGA:  18    -0.347047785710E+03   -0.57500E-01   -0.58525E-01  8208   0.653E+00-0.350E-01
CGA:  19    -0.347070559910E+03   -0.22774E-01   -0.23528E-01  8208   0.392E+00-0.113E-01
CGA:  20    -0.347082758353E+03   -0.12198E-01   -0.12358E-01  8208   0.212E+00-0.359E-02
CGA:  21    -0.347093609146E+03   -0.10851E-01   -0.10838E-01  8208   0.281E+00-0.141E-03
CGA:  22    -0.347107533391E+03   -0.13924E-01   -0.14063E-01  8208   0.166E+00 0.169E-02
CGA:  23    -0.347112984632E+03   -0.54512E-02   -0.55735E-02  8208   0.957E-01-0.178E-02
CGA:  24    -0.347117670849E+03   -0.46862E-02   -0.46337E-02  8208   0.720E-01-0.437E-03
CGA:  25    -0.347121123766E+03   -0.34529E-02   -0.34731E-02  8208   0.749E-01 0.259E-03
CGA:  26    -0.347125531973E+03   -0.44082E-02   -0.44242E-02  8208   0.657E-01 0.147E-02
CGA:  27    -0.347128125343E+03   -0.25934E-02   -0.26116E-02  8208   0.368E-01-0.828E-04
CGA:  28    -0.347130508200E+03   -0.23829E-02   -0.23812E-02  8208   0.307E-01 0.327E-03
CGA:  29    -0.347131686280E+03   -0.11781E-02   -0.11888E-02  8208   0.147E-01-0.406E-04
CGA:  30    -0.347132741494E+03   -0.10552E-02   -0.10550E-02  8208   0.179E-01 0.867E-05
CGA:  31    -0.347133535131E+03   -0.79364E-03   -0.79553E-03  8208   0.920E-02 0.729E-05
CGA:  32    -0.347134151303E+03   -0.61617E-03   -0.61552E-03  8208   0.985E-02 0.598E-04
CGA:  33    -0.347134677643E+03   -0.52634E-03   -0.52732E-03  8208   0.746E-02 0.414E-04
CGA:  34    -0.347135252328E+03   -0.57468E-03   -0.57250E-03  8208   0.811E-02 0.949E-04
CGA:  35    -0.347135691511E+03   -0.43918E-03   -0.43988E-03  8208   0.596E-02 0.269E-04
CGA:  36    -0.347136196600E+03   -0.50509E-03   -0.50347E-03  8208   0.478E-02 0.539E-04
CGA:  37    -0.347136400797E+03   -0.20420E-03   -0.20536E-03  8208   0.236E-02 0.682E-05
CGA:  38    -0.347136694954E+03   -0.29416E-03   -0.29328E-03  8208   0.456E-02 0.138E-04
CGA:  39    -0.347136941785E+03   -0.24683E-03   -0.24740E-03  8208   0.209E-02 0.164E-04
SDA:  40    -0.347137064443E+03   -0.12266E-03   -0.12281E-03  8208   0.109E-02 0.145E-04
CGA:  41    -0.347137130119E+03   -0.65676E-04   -0.65699E-04  8208   0.726E-03 0.481E-05
CGA:  42    -0.347137228023E+03   -0.97904E-04   -0.97337E-04  8208   0.593E-03 0.863E-05
CGA:  43    -0.347137280468E+03   -0.52445E-04   -0.52276E-04  8208   0.413E-03 0.738E-05
CGA:  44    -0.347137360100E+03   -0.79633E-04   -0.79201E-04  8208   0.327E-03 0.339E-05
CGA:  45    -0.347137416756E+03   -0.56656E-04   -0.56067E-04  8208   0.258E-03 0.612E-05
CGA:  46    -0.347137437780E+03   -0.21025E-04   -0.21018E-04  8208   0.156E-03 0.343E-05
CGA:  47    -0.347137457383E+03   -0.19602E-04   -0.19496E-04  8208   0.205E-03 0.233E-05
CGA:  48    -0.347137481895E+03   -0.24512E-04   -0.24485E-04  8208   0.157E-03 0.836E-06
CGA:  49    -0.347137499430E+03   -0.17535E-04   -0.17463E-04  8208   0.899E-04 0.210E-05
CGA:  50    -0.347137520134E+03   -0.20704E-04   -0.20503E-04  8208   0.654E-04 0.140E-05
CGA:  51    -0.347137529009E+03   -0.88750E-05   -0.88116E-05  8208   0.786E-04 0.149E-05
   4 F= -.34713753E+03 E0= -.34712195E+03  d E =-.314786E+01  mag=    30.3965
       N       E                     dE             d eps       ncg     rms          ort
SDA:   1    -0.304489955024E+03    0.42648E+02    0.00000E+00  8208   0.181E+03 0.000E+00
CGA:   2    -0.322591430540E+03   -0.18101E+02   -0.17938E+02  8208   0.125E+03 0.192E+02
CGA:   3    -0.335639821891E+03   -0.13048E+02   -0.14500E+02  8208   0.143E+03-0.759E+02
CGA:   4    -0.339460665372E+03   -0.38208E+01   -0.68879E+01  8208   0.889E+02-0.393E+02
CGA:   5    -0.340877547045E+03   -0.14169E+01   -0.34745E+01  8208   0.137E+03-0.970E+01
CGA:   6    -0.339055353251E+03    0.18222E+01   -0.37604E+01  8208   0.203E+03-0.134E+03
CGA:   7    -0.341595931519E+03   -0.25406E+01   -0.83195E+01  8208   0.853E+02-0.323E+02
CGA:   8    -0.345169742194E+03   -0.35738E+01   -0.25228E+01  8208   0.689E+02 0.312E+02
CGA:   9    -0.342863906740E+03    0.23058E+01   -0.22931E+01  8208   0.149E+03-0.113E+03
CGA:  10    -0.343743645545E+03   -0.87974E+00   -0.53002E+01  8208   0.742E+02-0.571E+02
CGA:  11    -0.346006362012E+03   -0.22627E+01   -0.12554E+01  8208   0.602E+02 0.352E+02
CGA:  12    -0.344932197177E+03    0.10742E+01   -0.17199E+01  8208   0.135E+03-0.141E+03
CGA:  13    -0.344764975592E+03    0.16722E+00   -0.42600E+01  8208   0.674E+02-0.500E+02
CGA:  14    -0.347008345598E+03   -0.22434E+01   -0.11119E+01  8208   0.158E+02 0.215E+02
CGA:  15    -0.347194447308E+03   -0.18610E+00   -0.27662E+00  8208   0.585E+01-0.721E+01
CGA:  16    -0.347360743269E+03   -0.16630E+00   -0.16611E+00  8208   0.414E+01-0.173E-01
CGA:  17    -0.347553162064E+03   -0.19242E+00   -0.18960E+00  8208   0.527E+01 0.768E-02
CGA:  18    -0.347704320305E+03   -0.15116E+00   -0.17953E+00  8208   0.398E+01-0.363E+00
CGA:  19    -0.347856635207E+03   -0.15231E+00   -0.16620E+00  8208   0.429E+01 0.127E+00
CGA:  20    -0.347960011663E+03   -0.10338E+00   -0.10534E+00  8208   0.715E+00-0.111E+00
CGA:  21    -0.347997689616E+03   -0.37678E-01   -0.37107E-01  8208   0.264E+00-0.392E-01
CGA:  22    -0.348014712972E+03   -0.17023E-01   -0.16892E-01  8208   0.385E+00 0.906E-02
CGA:  23    -0.348033572338E+03   -0.18859E-01   -0.19002E-01  8208   0.305E+00 0.320E-02
CGA:  24    -0.348055852072E+03   -0.22280E-01   -0.22148E-01  8208   0.104E+00 0.687E-02
CGA:  25    -0.348062319505E+03   -0.64674E-02   -0.64674E-02  8208   0.808E-01 0.355E-04
CGA:  26    -0.348066258702E+03   -0.39392E-02   -0.39482E-02  8208   0.581E-01 0.276E-03
CGA:  27    -0.348070859421E+03   -0.46007E-02   -0.45654E-02  8208   0.365E-01 0.137E-02
CGA:  28    -0.348073643632E+03   -0.27842E-02   -0.27579E-02  8208   0.244E-01 0.130E-02
CGA:  29    -0.348074782615E+03   -0.11390E-02   -0.11492E-02  8208   0.165E-01 0.135E-03
CGA:  30    -0.348076282615E+03   -0.15000E-02   -0.14942E-02  8208   0.120E-01 0.168E-03
CGA:  31    -0.348077177351E+03   -0.89474E-03   -0.89088E-03  8208   0.967E-02 0.220E-03
CGA:  32    -0.348077728037E+03   -0.55069E-03   -0.55111E-03  8208   0.748E-02 0.424E-04
CGA:  33    -0.348078408479E+03   -0.68044E-03   -0.66887E-03  8208   0.516E-02 0.347E-03
CGA:  34    -0.348078859850E+03   -0.45137E-03   -0.45100E-03  8208   0.591E-02 0.196E-04
CGA:  35    -0.348079210759E+03   -0.35091E-03   -0.35217E-03  8208   0.409E-02 0.131E-03
CGA:  36    -0.348079668371E+03   -0.45761E-03   -0.46124E-03  8208   0.469E-02-0.686E-04
CGA:  37    -0.348080066208E+03   -0.39784E-03   -0.38795E-03  8208   0.419E-02 0.464E-03
CGA:  38    -0.348080340585E+03   -0.27438E-03   -0.27289E-03  8208   0.337E-02-0.595E-04
CGA:  39    -0.348080960490E+03   -0.61990E-03   -0.54614E-03  8208   0.348E-02 0.783E-03
CGA:  40    -0.348081329445E+03   -0.36896E-03   -0.37600E-03  8208   0.741E-02-0.288E-03
CGA:  41    -0.348081847306E+03   -0.51786E-03   -0.51740E-03  8208   0.113E-01 0.664E-04
CGA:  42    -0.348082526760E+03   -0.67945E-03   -0.70553E-03  8208   0.632E-02 0.110E-02
SDA:  43    -0.348082938451E+03   -0.41169E-03   -0.41210E-03  8208   0.223E-02 0.525E-04
CGA:  44    -0.348083258258E+03   -0.31981E-03   -0.31600E-03  8208   0.472E-02 0.531E-04
CGA:  45    -0.348083705027E+03   -0.44677E-03   -0.44708E-03  8208   0.319E-02-0.126E-04
CGA:  46    -0.348084093963E+03   -0.38894E-03   -0.38828E-03  8208   0.209E-02 0.118E-04
CGA:  47    -0.348084450035E+03   -0.35607E-03   -0.35724E-03  8208   0.221E-02-0.139E-04
CGA:  48    -0.348084623265E+03   -0.17323E-03   -0.17329E-03  8208   0.994E-03 0.529E-05
CGA:  49    -0.348084745699E+03   -0.12243E-03   -0.12269E-03  8208   0.132E-02-0.531E-05
CGA:  50    -0.348084881815E+03   -0.13612E-03   -0.13532E-03  8208   0.861E-03 0.289E-04
CGA:  51    -0.348085021022E+03   -0.13921E-03   -0.13967E-03  8208   0.478E-03-0.590E-05
CGA:  52    -0.348085111185E+03   -0.90163E-04   -0.88173E-04  8208   0.456E-03 0.205E-04
CGA:  53    -0.348085146489E+03   -0.35304E-04   -0.35290E-04  8208   0.330E-03 0.125E-05
CGA:  54    -0.348085191284E+03   -0.44795E-04   -0.44601E-04  8208   0.163E-03 0.336E-05
CGA:  55    -0.348085221857E+03   -0.30573E-04   -0.30336E-04  8208   0.158E-03 0.263E-05
CGA:  56    -0.348085237668E+03   -0.15811E-04   -0.15814E-04  8208   0.874E-04 0.193E-05
CGA:  57    -0.348085250558E+03   -0.12890E-04   -0.12787E-04  8208   0.621E-04 0.222E-05
CGA:  58    -0.348085257385E+03   -0.68262E-05   -0.68253E-05  8208   0.593E-04-0.950E-08
   5 F= -.34808526E+03 E0= -.34806998E+03  d E =-.947728E+00  mag=    30.3376
       N       E                     dE             d eps       ncg     rms          ort
SDA:   1    -0.315735894590E+03    0.32349E+02    0.00000E+00  8208   0.110E+03 0.000E+00
CGA:   2    -0.330965198984E+03   -0.15229E+02   -0.15537E+02  8208   0.123E+03-0.236E+01
CGA:   3    -0.340265500861E+03   -0.93003E+01   -0.87781E+01  8208   0.430E+02 0.796E+01
CGA:   4    -0.344743976269E+03   -0.44785E+01   -0.45194E+01  8208   0.373E+02 0.654E+01
CGA:   5    -0.345546299302E+03   -0.80232E+00   -0.16326E+01  8208   0.535E+02-0.162E+02
CGA:   6    -0.346492305091E+03   -0.94601E+00   -0.58767E+00  8208   0.342E+02 0.110E+02
CGA:   7    -0.346505412757E+03   -0.13108E-01   -0.12723E+01  8208   0.373E+02-0.230E+02
CGA:   8    -0.347632125650E+03   -0.11267E+01   -0.13096E+01  8208   0.863E+01-0.127E+02
CGA:   9    -0.347963614018E+03   -0.33149E+00   -0.35239E+00  8208   0.593E+01 0.485E-02
CGA:  10    -0.348151708301E+03   -0.18809E+00   -0.21832E+00  8208   0.179E+01-0.526E+00
CGA:  11    -0.348267027267E+03   -0.11532E+00   -0.11541E+00  8208   0.971E+00-0.175E-02
CGA:  12    -0.348336210646E+03   -0.69183E-01   -0.69733E-01  8208   0.670E+00 0.157E-01
CGA:  13    -0.348380479110E+03   -0.44268E-01   -0.44637E-01  8208   0.547E+00 0.496E-02
CGA:  14    -0.348409364757E+03   -0.28886E-01   -0.28776E-01  8208   0.290E+00-0.141E-02
CGA:  15    -0.348430807304E+03   -0.21443E-01   -0.21552E-01  8208   0.188E+00 0.742E-02
CGA:  16    -0.348446463427E+03   -0.15656E-01   -0.15646E-01  8208   0.119E+00 0.683E-02
CGA:  17    -0.348456094212E+03   -0.96308E-02   -0.96521E-02  8208   0.895E-01 0.399E-02
CGA:  18    -0.348462503727E+03   -0.64095E-02   -0.64654E-02  8208   0.584E-01 0.188E-02
CGA:  19    -0.348466864211E+03   -0.43605E-02   -0.43762E-02  8208   0.310E-01 0.103E-02
CGA:  20    -0.348469816857E+03   -0.29526E-02   -0.29223E-02  8208   0.190E-01 0.151E-02
CGA:  21    -0.348471556860E+03   -0.17400E-02   -0.17354E-02  8208   0.125E-01 0.412E-03
CGA:  22    -0.348472615791E+03   -0.10589E-02   -0.10574E-02  8208   0.841E-02 0.366E-03
CGA:  23    -0.348473284857E+03   -0.66907E-03   -0.66945E-03  8208   0.483E-02 0.649E-04
CGA:  24    -0.348473811865E+03   -0.52701E-03   -0.51958E-03  8208   0.335E-02 0.214E-03
CGA:  25    -0.348474159031E+03   -0.34717E-03   -0.34709E-03  8208   0.262E-02 0.982E-05
CGA:  26    -0.348474424654E+03   -0.26562E-03   -0.26294E-03  8208   0.198E-02 0.108E-03
CGA:  27    -0.348474604890E+03   -0.18024E-03   -0.18016E-03  8208   0.132E-02 0.163E-04
CGA:  28    -0.348474778853E+03   -0.17396E-03   -0.17130E-03  8208   0.107E-02 0.503E-04
CGA:  29    -0.348474886123E+03   -0.10727E-03   -0.10717E-03  8208   0.813E-03 0.787E-05
CGA:  30    -0.348474973588E+03   -0.87466E-04   -0.86831E-04  8208   0.628E-03 0.226E-04
CGA:  31    -0.348475039844E+03   -0.66255E-04   -0.66242E-04  8208   0.435E-03 0.213E-05
CGA:  32    -0.348475094078E+03   -0.54234E-04   -0.53842E-04  8208   0.355E-03 0.904E-05
CGA:  33    -0.348475127970E+03   -0.33892E-04   -0.33874E-04  8208   0.258E-03 0.434E-05
CGA:  34    -0.348475158460E+03   -0.30490E-04   -0.30437E-04  8208   0.206E-03 0.165E-05
CGA:  35    -0.348475182048E+03   -0.23588E-04   -0.23477E-04  8208   0.146E-03 0.426E-05
CGA:  36    -0.348475198174E+03   -0.16126E-04   -0.16118E-04  8208   0.132E-03 0.644E-06
CGA:  37    -0.348475213468E+03   -0.15294E-04   -0.15193E-04  8208   0.102E-03 0.407E-05
SDA:  38    -0.348475225804E+03   -0.12336E-04   -0.12323E-04  8208   0.804E-04 0.686E-06
CGA:  39    -0.348475229528E+03   -0.37241E-05   -0.37437E-05  8208   0.300E-04 0.285E-06
CGA:  40    -0.348475239378E+03   -0.98500E-05   -0.10025E-04  8208   0.874E-04-0.780E-06
   6 F= -.34847524E+03 E0= -.34845953E+03  d E =-.389982E+00  mag=    30.3768
       N       E                     dE             d eps       ncg     rms          ort
SDA:   1    -0.329899377095E+03    0.18576E+02    0.00000E+00  8208   0.577E+02 0.000E+00
CGA:   2    -0.338325397640E+03   -0.84260E+01   -0.84658E+01  8208   0.736E+02 0.271E+01
CGA:   3    -0.343813433109E+03   -0.54880E+01   -0.53194E+01  8208   0.289E+02 0.474E+01
CGA:   4    -0.345948241244E+03   -0.21348E+01   -0.23955E+01  8208   0.421E+02 0.259E+01
CGA:   5    -0.346898219947E+03   -0.94998E+00   -0.13453E+01  8208   0.300E+02-0.226E+02
CGA:   6    -0.347460536776E+03   -0.56232E+00   -0.13310E+01  8208   0.181E+02-0.611E+01
CGA:   7    -0.347773670837E+03   -0.31313E+00   -0.39048E+00  8208   0.134E+02-0.352E+01
CGA:   8    -0.348102052914E+03   -0.32838E+00   -0.25510E+00  8208   0.570E+01 0.136E+01
CGA:   9    -0.348245372747E+03   -0.14332E+00   -0.26257E+00  8208   0.453E+01-0.998E+00
CGA:  10    -0.348341115249E+03   -0.95743E-01   -0.10485E+00  8208   0.339E+01-0.304E+00
CGA:  11    -0.348489036845E+03   -0.14792E+00   -0.11532E+00  8208   0.113E+01 0.586E+00
CGA:  12    -0.348521026455E+03   -0.31990E-01   -0.38121E-01  8208   0.678E+00-0.165E+00
CGA:  13    -0.348559556138E+03   -0.38530E-01   -0.38715E-01  8208   0.116E+01 0.473E-02
CGA:  14    -0.348603568610E+03   -0.44012E-01   -0.42920E-01  8208   0.431E+00 0.144E-01
CGA:  15    -0.348627773582E+03   -0.24205E-01   -0.23924E-01  8208   0.209E+00-0.143E-02
CGA:  16    -0.348636224265E+03   -0.84507E-02   -0.87894E-02  8208   0.135E+00-0.296E-02
CGA:  17    -0.348644940518E+03   -0.87163E-02   -0.88116E-02  8208   0.846E-01 0.494E-02
CGA:  18    -0.348649357956E+03   -0.44174E-02   -0.44633E-02  8208   0.744E-01 0.159E-03
CGA:  19    -0.348653522242E+03   -0.41643E-02   -0.41897E-02  8208   0.376E-01 0.393E-03
CGA:  20    -0.348656073396E+03   -0.25512E-02   -0.25546E-02  8208   0.391E-01 0.434E-03
CGA:  21    -0.348658422877E+03   -0.23495E-02   -0.23558E-02  8208   0.256E-01 0.202E-03
CGA:  22    -0.348660660480E+03   -0.22376E-02   -0.22312E-02  8208   0.174E-01 0.296E-03
CGA:  23    -0.348661664302E+03   -0.10038E-02   -0.10175E-02  8208   0.122E-01 0.291E-03
CGA:  24    -0.348662671193E+03   -0.10069E-02   -0.10064E-02  8208   0.709E-02 0.411E-04
CGA:  25    -0.348663369849E+03   -0.69866E-03   -0.69723E-03  8208   0.649E-02 0.485E-04
CGA:  26    -0.348663802836E+03   -0.43299E-03   -0.43651E-03  8208   0.354E-02 0.265E-03
CGA:  27    -0.348664108335E+03   -0.30550E-03   -0.30580E-03  8208   0.203E-02-0.120E-04
CGA:  28    -0.348664426954E+03   -0.31862E-03   -0.31410E-03  8208   0.222E-02 0.530E-04
CGA:  29    -0.348664599545E+03   -0.17259E-03   -0.17276E-03  8208   0.131E-02 0.731E-04
CGA:  30    -0.348664730809E+03   -0.13126E-03   -0.13200E-03  8208   0.108E-02-0.226E-04
CGA:  31    -0.348664901906E+03   -0.17110E-03   -0.16105E-03  8208   0.525E-03 0.130E-03
CGA:  32    -0.348664973943E+03   -0.72037E-04   -0.72319E-04  8208   0.507E-03-0.576E-05
CGA:  33    -0.348665051829E+03   -0.77886E-04   -0.77935E-04  8208   0.599E-03-0.850E-06
CGA:  34    -0.348665096277E+03   -0.44448E-04   -0.44664E-04  8208   0.225E-03 0.391E-05
CGA:  35    -0.348665118550E+03   -0.22272E-04   -0.22282E-04  8208   0.161E-03-0.600E-06
SDA:  36    -0.348665154456E+03   -0.35906E-04   -0.35907E-04  8208   0.109E-03 0.186E-06
CGA:  37    -0.348665161340E+03   -0.68837E-05   -0.69055E-05  8208   0.505E-04 0.699E-06
   7 F= -.34866516E+03 E0= -.34864976E+03  d E =-.189922E+00  mag=    30.3697
       N       E                     dE             d eps       ncg     rms          ort
SDA:   1    -0.287669512608E+03    0.60996E+02    0.00000E+00  8208   0.205E+03 0.000E+00
CGA:   2    -0.312627748721E+03   -0.24958E+02   -0.24533E+02  8208   0.175E+03 0.155E+02
CGA:   3    -0.332479320841E+03   -0.19852E+02   -0.21124E+02  8208   0.101E+03-0.264E+02
CGA:   4    -0.341716114640E+03   -0.92368E+01   -0.52143E+01  8208   0.645E+02-0.413E+02
CGA:   5    -0.345461250633E+03   -0.37451E+01   -0.37370E+01  8208   0.318E+02 0.397E+01
CGA:   6    -0.345749095204E+03   -0.28784E+00   -0.12526E+01  8208   0.398E+02-0.119E+02
CGA:   7    -0.346921562784E+03   -0.11725E+01   -0.90323E+00  8208   0.139E+02 0.214E+01
CGA:   8    -0.347307414819E+03   -0.38585E+00   -0.30075E+00  8208   0.860E+01 0.353E+01
CGA:   9    -0.347557522844E+03   -0.25011E+00   -0.17087E+00  8208   0.630E+01 0.441E+01
CGA:  10    -0.347733509502E+03   -0.17599E+00   -0.15893E+00  8208   0.342E+01 0.556E+00
CGA:  11    -0.348318713309E+03   -0.58520E+00   -0.63880E+00  8208   0.493E+01-0.491E+00
CGA:  12    -0.348526292222E+03   -0.20758E+00   -0.19209E+00  8208   0.375E+01 0.202E+00
CGA:  13    -0.348603723001E+03   -0.77431E-01   -0.78985E-01  8208   0.774E+00-0.801E-01
CGA:  14    -0.348658072707E+03   -0.54350E-01   -0.54427E-01  8208   0.202E+01 0.344E-02
CGA:  15    -0.348721067943E+03   -0.62995E-01   -0.64780E-01  8208   0.807E+00-0.498E-01
CGA:  16    -0.348759129330E+03   -0.38061E-01   -0.38920E-01  8208   0.850E+00-0.358E-02
CGA:  17    -0.348786125645E+03   -0.26996E-01   -0.26732E-01  8208   0.358E+00 0.100E-01
CGA:  18    -0.348807975833E+03   -0.21850E-01   -0.22148E-01  8208   0.443E+00 0.676E-02
CGA:  19    -0.348844121357E+03   -0.36146E-01   -0.36347E-01  8208   0.247E+00-0.171E-01
CGA:  20    -0.348858853231E+03   -0.14732E-01   -0.14818E-01  8208   0.146E+00 0.284E-02
CGA:  21    -0.348867869732E+03   -0.90165E-02   -0.90898E-02  8208   0.998E-01 0.213E-02
CGA:  22    -0.348879710933E+03   -0.11841E-01   -0.11751E-01  8208   0.730E-01 0.176E-02
CGA:  23    -0.348885496728E+03   -0.57858E-02   -0.57802E-02  8208   0.375E-01 0.963E-03
CGA:  24    -0.348887637102E+03   -0.21404E-02   -0.21576E-02  8208   0.251E-01 0.206E-03
CGA:  25    -0.348890277634E+03   -0.26405E-02   -0.26141E-02  8208   0.314E-01 0.712E-03
CGA:  26    -0.348893013131E+03   -0.27355E-02   -0.27309E-02  8208   0.159E-01 0.328E-03
CGA:  27    -0.348894908864E+03   -0.18957E-02   -0.18413E-02  8208   0.151E-01 0.116E-02
CGA:  28    -0.348896633981E+03   -0.17251E-02   -0.17376E-02  8208   0.171E-01-0.328E-03
CGA:  29    -0.348898113713E+03   -0.14797E-02   -0.14675E-02  8208   0.125E-01 0.834E-03
CGA:  30    -0.348899825927E+03   -0.17122E-02   -0.17212E-02  8208   0.108E-01-0.194E-03
CGA:  31    -0.348900847688E+03   -0.10218E-02   -0.10045E-02  8208   0.598E-02 0.884E-03
CGA:  32    -0.348901906830E+03   -0.10591E-02   -0.10336E-02  8208   0.504E-02 0.294E-03
CGA:  33    -0.348902401028E+03   -0.49420E-03   -0.49428E-03  8208   0.421E-02-0.772E-05
CGA:  34    -0.348902839033E+03   -0.43800E-03   -0.43621E-03  8208   0.224E-02 0.647E-04
CGA:  35    -0.348903157686E+03   -0.31865E-03   -0.31608E-03  8208   0.200E-02 0.430E-04
CGA:  36    -0.348903384121E+03   -0.22644E-03   -0.22611E-03  8208   0.117E-02 0.136E-04
CGA:  37    -0.348903517520E+03   -0.13340E-03   -0.13336E-03  8208   0.109E-02 0.221E-05
CGA:  38    -0.348903636904E+03   -0.11938E-03   -0.11904E-03  8208   0.787E-03 0.152E-04
CGA:  39    -0.348903767278E+03   -0.13037E-03   -0.13036E-03  8208   0.369E-03 0.169E-06
SDA:  40    -0.348903809736E+03   -0.42458E-04   -0.42461E-04  8208   0.441E-03-0.245E-07
CGA:  41    -0.348903837672E+03   -0.27936E-04   -0.28074E-04  8208   0.218E-03 0.218E-05
CGA:  42    -0.348903880412E+03   -0.42740E-04   -0.42374E-04  8208   0.217E-03 0.371E-05
CGA:  43    -0.348903905321E+03   -0.24908E-04   -0.24895E-04  8208   0.114E-03 0.121E-05
CGA:  44    -0.348903921660E+03   -0.16340E-04   -0.16379E-04  8208   0.681E-04-0.972E-06
CGA:  45    -0.348903935783E+03   -0.14123E-04   -0.14127E-04  8208   0.526E-04-0.786E-07
CGA:  46    -0.348903943894E+03   -0.81110E-05   -0.80218E-05  8208   0.555E-04 0.203E-05
   8 F= -.34890394E+03 E0= -.34888996E+03  d E =-.238783E+00  mag=    30.2376
       N       E                     dE             d eps       ncg     rms          ort
SDA:   1    -0.328578914162E+03    0.20325E+02    0.00000E+00  8208   0.574E+02 0.000E+00
CGA:   2    -0.339877762968E+03   -0.11299E+02   -0.11493E+02  8208   0.748E+02 0.689E+00
CGA:   3    -0.344968581001E+03   -0.50908E+01   -0.55732E+01  8208   0.257E+02 0.269E+01
CGA:   4    -0.347355192810E+03   -0.23866E+01   -0.23670E+01  8208   0.139E+02 0.126E-01
CGA:   5    -0.348026510132E+03   -0.67132E+00   -0.60765E+00  8208   0.936E+01 0.527E+00
CGA:   6    -0.348539996939E+03   -0.51349E+00   -0.39235E+00  8208   0.234E+01 0.241E+01
CGA:   7    -0.348676607654E+03   -0.13661E+00   -0.16554E+00  8208   0.297E+01-0.205E+00
CGA:   8    -0.348839079351E+03   -0.16247E+00   -0.16551E+00  8208   0.188E+01-0.851E-02
CGA:   9    -0.348897873368E+03   -0.58794E-01   -0.50591E-01  8208   0.512E+00 0.230E+00
CGA:  10    -0.348924013407E+03   -0.26140E-01   -0.25384E-01  8208   0.616E+00 0.984E-02
CGA:  11    -0.348955737557E+03   -0.31724E-01   -0.31681E-01  8208   0.538E+00 0.689E-03
CGA:  12    -0.348973117925E+03   -0.17380E-01   -0.19227E-01  8208   0.309E+00-0.341E-01
CGA:  13    -0.348985178202E+03   -0.12060E-01   -0.12721E-01  8208   0.191E+00-0.715E-02
CGA:  14    -0.348992201604E+03   -0.70234E-02   -0.70792E-02  8208   0.865E-01-0.654E-03
CGA:  15    -0.348997244983E+03   -0.50434E-02   -0.50716E-02  8208   0.972E-01 0.922E-04
CGA:  16    -0.349002591625E+03   -0.53466E-02   -0.53763E-02  8208   0.643E-01 0.414E-04
CGA:  17    -0.349005605378E+03   -0.30138E-02   -0.30462E-02  8208   0.334E-01-0.173E-03
CGA:  18    -0.349007239064E+03   -0.16337E-02   -0.16626E-02  8208   0.193E-01-0.578E-04
CGA:  19    -0.349008648115E+03   -0.14091E-02   -0.14096E-02  8208   0.239E-01 0.532E-04
CGA:  20    -0.349010286228E+03   -0.16381E-02   -0.16409E-02  8208   0.141E-01 0.124E-03
CGA:  21    -0.349010962895E+03   -0.67667E-03   -0.68553E-03  8208   0.670E-02-0.135E-04
CGA:  22    -0.349011380565E+03   -0.41767E-03   -0.41811E-03  8208   0.424E-02 0.103E-04
CGA:  23    -0.349011680046E+03   -0.29948E-03   -0.29956E-03  8208   0.440E-02 0.739E-05
CGA:  24    -0.349012007819E+03   -0.32777E-03   -0.32779E-03  8208   0.261E-02 0.131E-04
CGA:  25    -0.349012145740E+03   -0.13792E-03   -0.13914E-03  8208   0.153E-02 0.166E-04
CGA:  26    -0.349012271783E+03   -0.12604E-03   -0.12587E-03  8208   0.109E-02 0.192E-04
CGA:  27    -0.349012339018E+03   -0.67236E-04   -0.67308E-04  8208   0.780E-03 0.477E-05
CGA:  28    -0.349012419412E+03   -0.80393E-04   -0.80313E-04  8208   0.694E-03 0.252E-05
CGA:  29    -0.349012459115E+03   -0.39704E-04   -0.39869E-04  8208   0.423E-03 0.184E-05
CGA:  30    -0.349012513720E+03   -0.54604E-04   -0.54590E-04  8208   0.560E-03-0.277E-06
CGA:  31    -0.349012545038E+03   -0.31318E-04   -0.31248E-04  8208   0.255E-03-0.207E-05
SDA:  32    -0.349012577021E+03   -0.31983E-04   -0.31781E-04  8208   0.425E-03 0.411E-05
CGA:  33    -0.349012597867E+03   -0.20846E-04   -0.20955E-04  8208   0.107E-03 0.150E-05
CGA:  34    -0.349012632118E+03   -0.34251E-04   -0.33698E-04  8208   0.633E-04 0.228E-05
CGA:  35    -0.349012644945E+03   -0.12827E-04   -0.13001E-04  8208   0.682E-04-0.158E-05
CGA:  36    -0.349012654608E+03   -0.96633E-05   -0.97214E-05  8208   0.476E-04-0.116E-05
   9 F= -.34901265E+03 E0= -.34899906E+03  d E =-.108711E+00  mag=    30.1803
       N       E                     dE             d eps       ncg     rms          ort
SDA:   1    -0.333097400400E+03    0.15915E+02    0.00000E+00  8208   0.447E+02 0.000E+00
CGA:   2    -0.341708057231E+03   -0.86107E+01   -0.81144E+01  8208   0.483E+02 0.581E+01
CGA:   3    -0.346309422406E+03   -0.46014E+01   -0.48080E+01  8208   0.161E+02 0.489E+01
CGA:   4    -0.347438163703E+03   -0.11287E+01   -0.10607E+01  8208   0.182E+02-0.687E+00
CGA:   5    -0.348083617479E+03   -0.64545E+00   -0.44900E+00  8208   0.794E+01 0.504E+01
CGA:   6    -0.348398132145E+03   -0.31451E+00   -0.51904E+00  8208   0.112E+02-0.116E+01
CGA:   7    -0.348629769759E+03   -0.23164E+00   -0.22790E+00  8208   0.489E+01-0.190E+00
CGA:   8    -0.348807687504E+03   -0.17792E+00   -0.15272E+00  8208   0.317E+01 0.746E+00
CGA:   9    -0.348878470668E+03   -0.70783E-01   -0.50245E-01  8208   0.165E+01 0.134E+01
CGA:  10    -0.348928552956E+03   -0.50082E-01   -0.54784E-01  8208   0.140E+01-0.181E+00
CGA:  11    -0.348952761195E+03   -0.24208E-01   -0.22165E-01  8208   0.123E+01 0.937E-01
CGA:  12    -0.348976269651E+03   -0.23508E-01   -0.29746E-01  8208   0.136E+01-0.214E+00
CGA:  13    -0.349005765506E+03   -0.29496E-01   -0.35237E-01  8208   0.120E+01-0.853E-01
CGA:  14    -0.349026845156E+03   -0.21080E-01   -0.24620E-01  8208   0.442E+00-0.131E+00
CGA:  15    -0.349036649460E+03   -0.98043E-02   -0.10306E-01  8208   0.255E+00-0.143E-01
CGA:  16    -0.349044521868E+03   -0.78724E-02   -0.80418E-02  8208   0.210E+00-0.269E-02
CGA:  17    -0.349052651081E+03   -0.81292E-02   -0.82412E-02  8208   0.197E+00-0.593E-03
CGA:  18    -0.349060420236E+03   -0.77692E-02   -0.79539E-02  8208   0.171E+00-0.768E-03
CGA:  19    -0.349066408870E+03   -0.59886E-02   -0.60822E-02  8208   0.772E-01-0.840E-03
CGA:  20    -0.349068968534E+03   -0.25597E-02   -0.26372E-02  8208   0.435E-01-0.937E-03
CGA:  21    -0.349071381670E+03   -0.24131E-02   -0.24156E-02  8208   0.474E-01 0.159E-03
CGA:  22    -0.349073791311E+03   -0.24096E-02   -0.24154E-02  8208   0.332E-01 0.124E-03
CGA:  23    -0.349075201834E+03   -0.14105E-02   -0.14124E-02  8208   0.195E-01-0.202E-06
CGA:  24    -0.349076129709E+03   -0.92788E-03   -0.93122E-03  8208   0.133E-01 0.783E-04
CGA:  25    -0.349076823052E+03   -0.69334E-03   -0.69523E-03  8208   0.125E-01 0.105E-03
CGA:  26    -0.349077639723E+03   -0.81667E-03   -0.81538E-03  8208   0.112E-01 0.150E-03
CGA:  27    -0.349078109640E+03   -0.46992E-03   -0.47041E-03  8208   0.430E-02 0.815E-05
CGA:  28    -0.349078314797E+03   -0.20516E-03   -0.20514E-03  8208   0.324E-02-0.482E-05
CGA:  29    -0.349078533199E+03   -0.21840E-03   -0.21827E-03  8208   0.316E-02 0.649E-05
CGA:  30    -0.349078701966E+03   -0.16877E-03   -0.16903E-03  8208   0.218E-02 0.198E-04
CGA:  31    -0.349078835382E+03   -0.13342E-03   -0.13336E-03  8208   0.165E-02 0.153E-04
SDA:  32    -0.349078920224E+03   -0.84842E-04   -0.84909E-04  8208   0.887E-03 0.739E-05
CGA:  33    -0.349078986543E+03   -0.66319E-04   -0.66175E-04  8208   0.378E-03 0.716E-05
CGA:  34    -0.349079072062E+03   -0.85519E-04   -0.83181E-04  8208   0.286E-03 0.150E-04
CGA:  35    -0.349079111083E+03   -0.39021E-04   -0.39310E-04  8208   0.269E-03-0.465E-05
CGA:  36    -0.349079146626E+03   -0.35543E-04   -0.35644E-04  8208   0.165E-03-0.183E-05
CGA:  37    -0.349079170147E+03   -0.23521E-04   -0.23498E-04  8208   0.155E-03 0.183E-06
CGA:  38    -0.349079204332E+03   -0.34185E-04   -0.33136E-04  8208   0.872E-04 0.747E-05
CGA:  39    -0.349079226351E+03   -0.22018E-04   -0.21795E-04  8208   0.975E-04 0.159E-05
CGA:  40    -0.349079235187E+03   -0.88362E-05   -0.88317E-05  8208   0.462E-04-0.152E-05
  10 F= -.34907924E+03 E0= -.34906652E+03  d E =-.665806E-01  mag=    30.0969
       N       E                     dE             d eps       ncg     rms          ort
SDA:   1    -0.274548827206E+03    0.74530E+02    0.00000E+00  8208   0.262E+03 0.000E+00
CGA:   2    -0.310817533375E+03   -0.36269E+02   -0.36479E+02  8208   0.188E+03 0.126E+02
CGA:   3    -0.332378018812E+03   -0.21560E+02   -0.20917E+02  8208   0.130E+03 0.261E+02
CGA:   4    -0.334147190696E+03   -0.17692E+01   -0.77356E+01  8208   0.147E+03-0.332E+01
CGA:   5    -0.341679344739E+03   -0.75322E+01   -0.66624E+01  8208   0.115E+03-0.866E+02
CGA:   6    -0.344006596863E+03   -0.23273E+01   -0.47608E+01  8208   0.930E+02-0.757E+02
CGA:   7    -0.345409945487E+03   -0.14033E+01   -0.36094E+01  8208   0.423E+02-0.422E+02
CGA:   8    -0.347213714288E+03   -0.18038E+01   -0.96218E+00  8208   0.767E+01 0.117E+02
CGA:   9    -0.347429659963E+03   -0.21595E+00   -0.24703E+00  8208   0.869E+01-0.138E+01
CGA:  10    -0.347646887115E+03   -0.21723E+00   -0.19377E+00  8208   0.134E+02 0.572E+00
CGA:  11    -0.348171670953E+03   -0.52478E+00   -0.67817E+00  8208   0.212E+02-0.280E+00
CGA:  12    -0.348477991978E+03   -0.30632E+00   -0.51340E+00  8208   0.406E+01-0.568E+01
CGA:  13    -0.348551897275E+03   -0.73905E-01   -0.77340E-01  8208   0.166E+01-0.127E+00
CGA:  14    -0.348680624702E+03   -0.12873E+00   -0.12826E+00  8208   0.378E+01 0.413E-01
CGA:  15    -0.348870606554E+03   -0.18998E+00   -0.19548E+00  8208   0.144E+01 0.162E-01
CGA:  16    -0.348913372919E+03   -0.42766E-01   -0.46433E-01  8208   0.409E+00-0.675E-01
CGA:  17    -0.348950694619E+03   -0.37322E-01   -0.36759E-01  8208   0.572E+00 0.177E-01
CGA:  18    -0.348988092872E+03   -0.37398E-01   -0.37839E-01  8208   0.216E+00 0.205E-01
CGA:  19    -0.349002011270E+03   -0.13918E-01   -0.14066E-01  8208   0.132E+00 0.653E-02
CGA:  20    -0.349015837320E+03   -0.13826E-01   -0.13710E-01  8208   0.127E+00 0.309E-02
CGA:  21    -0.349026970904E+03   -0.11134E-01   -0.10982E-01  8208   0.735E-01 0.789E-02
CGA:  22    -0.349033275538E+03   -0.63046E-02   -0.62487E-02  8208   0.271E-01 0.453E-02
CGA:  23    -0.349036666415E+03   -0.33909E-02   -0.33464E-02  8208   0.241E-01 0.873E-03
CGA:  24    -0.349039604465E+03   -0.29381E-02   -0.28869E-02  8208   0.111E-01 0.103E-02
CGA:  25    -0.349041151352E+03   -0.15469E-02   -0.15185E-02  8208   0.837E-02 0.476E-03
CGA:  26    -0.349042156726E+03   -0.10054E-02   -0.10003E-02  8208   0.607E-02 0.113E-03
CGA:  27    -0.349042955584E+03   -0.79886E-03   -0.79127E-03  8208   0.329E-02 0.137E-03
CGA:  28    -0.349043456160E+03   -0.50058E-03   -0.49438E-03  8208   0.277E-02 0.886E-04
CGA:  29    -0.349043866591E+03   -0.41043E-03   -0.40881E-03  8208   0.172E-02 0.261E-04
CGA:  30    -0.349044148235E+03   -0.28164E-03   -0.27670E-03  8208   0.108E-02 0.667E-04
CGA:  31    -0.349044303394E+03   -0.15516E-03   -0.15496E-03  8208   0.911E-03 0.416E-05
CGA:  32    -0.349044461182E+03   -0.15779E-03   -0.15609E-03  8208   0.427E-03 0.193E-04
CGA:  33    -0.349044527048E+03   -0.65866E-04   -0.66468E-04  8208   0.359E-03-0.114E-04
CGA:  34    -0.349044575269E+03   -0.48221E-04   -0.48398E-04  8208   0.213E-03-0.502E-05
CGA:  35    -0.349044607902E+03   -0.32632E-04   -0.32423E-04  8208   0.110E-03 0.382E-05
CGA:  36    -0.349044624131E+03   -0.16230E-04   -0.16115E-04  8208   0.864E-04 0.306E-05
SDA:  37    -0.349044640800E+03   -0.16668E-04   -0.16476E-04  8208   0.495E-04 0.240E-05
CGA:  38    -0.349044647050E+03   -0.62507E-05   -0.62690E-05  8208   0.342E-04-0.131E-05
  11 F= -.34904465E+03 E0= -.34903292E+03  d E =0.345881E-01  mag=    30.0428
       N       E                     dE             d eps       ncg     rms          ort
SDA:   1    -0.325443746638E+03    0.23601E+02    0.00000E+00  8208   0.816E+02 0.000E+00
CGA:   2    -0.337720189417E+03   -0.12276E+02   -0.12099E+02  8208   0.548E+02 0.379E+01
CGA:   3    -0.344111556657E+03   -0.63914E+01   -0.60458E+01  8208   0.340E+02-0.753E+01
CGA:   4    -0.347345776099E+03   -0.32342E+01   -0.32187E+01  8208   0.192E+02-0.641E+00
CGA:   5    -0.348057203269E+03   -0.71143E+00   -0.11251E+01  8208   0.132E+02-0.198E+01
CGA:   6    -0.348404716677E+03   -0.34751E+00   -0.48024E+00  8208   0.110E+02-0.270E+01
CGA:   7    -0.348712747876E+03   -0.30803E+00   -0.25422E+00  8208   0.402E+01 0.164E+01
CGA:   8    -0.348854841458E+03   -0.14209E+00   -0.17649E+00  8208   0.268E+01-0.707E+00
CGA:   9    -0.348971128159E+03   -0.11629E+00   -0.12008E+00  8208   0.212E+01-0.270E-01
CGA:  10    -0.349044129280E+03   -0.73001E-01   -0.71394E-01  8208   0.142E+01 0.148E-01
CGA:  11    -0.349099408407E+03   -0.55279E-01   -0.45669E-01  8208   0.550E+00 0.252E+00
CGA:  12    -0.349121280673E+03   -0.21872E-01   -0.27581E-01  8208   0.539E+00-0.731E-01
CGA:  13    -0.349155794306E+03   -0.34514E-01   -0.34986E-01  8208   0.506E+00 0.849E-02
CGA:  14    -0.349173028607E+03   -0.17234E-01   -0.17029E-01  8208   0.116E+00 0.291E-02
CGA:  15    -0.349182130494E+03   -0.91019E-02   -0.91387E-02  8208   0.133E+00 0.156E-02
CGA:  16    -0.349189271538E+03   -0.71410E-02   -0.74662E-02  8208   0.868E-01-0.515E-03
CGA:  17    -0.349197459974E+03   -0.81884E-02   -0.81583E-02  8208   0.504E-01 0.206E-02
CGA:  18    -0.349199816752E+03   -0.23568E-02   -0.24592E-02  8208   0.199E-01-0.787E-03
CGA:  19    -0.349203564660E+03   -0.37479E-02   -0.37029E-02  8208   0.233E-01 0.438E-03
CGA:  20    -0.349205065966E+03   -0.15013E-02   -0.15264E-02  8208   0.988E-02 0.152E-03
CGA:  21    -0.349206154782E+03   -0.10888E-02   -0.10820E-02  8208   0.634E-02 0.243E-03
CGA:  22    -0.349207039641E+03   -0.88486E-03   -0.87196E-03  8208   0.484E-02 0.243E-03
CGA:  23    -0.349207581461E+03   -0.54182E-03   -0.54165E-03  8208   0.396E-02 0.870E-05
CGA:  24    -0.349207990589E+03   -0.40913E-03   -0.40774E-03  8208   0.151E-02 0.784E-04
CGA:  25    -0.349208266792E+03   -0.27620E-03   -0.26571E-03  8208   0.214E-02 0.124E-03
CGA:  26    -0.349208507660E+03   -0.24087E-03   -0.24135E-03  8208   0.912E-03-0.333E-04
CGA:  27    -0.349208642604E+03   -0.13494E-03   -0.13315E-03  8208   0.673E-03 0.289E-04
CGA:  28    -0.349208748024E+03   -0.10542E-03   -0.10459E-03  8208   0.549E-03 0.127E-04
CGA:  29    -0.349208814734E+03   -0.66710E-04   -0.66868E-04  8208   0.298E-03-0.684E-05
CGA:  30    -0.349208863341E+03   -0.48607E-04   -0.48158E-04  8208   0.207E-03 0.644E-05
CGA:  31    -0.349208889957E+03   -0.26616E-04   -0.26609E-04  8208   0.119E-03 0.338E-06
SDA:  32    -0.349208907219E+03   -0.17261E-04   -0.17319E-04  8208   0.972E-04-0.155E-05
CGA:  33    -0.349208914880E+03   -0.76619E-05   -0.76489E-05  8208   0.380E-04-0.403E-06
CGA:  34    -0.349208924822E+03   -0.99417E-05   -0.10133E-04  8208   0.434E-04-0.124E-05
  12 F= -.34920892E+03 E0= -.34919722E+03  d E =-.164278E+00  mag=    30.0399
       N       E                     dE             d eps       ncg     rms          ort
SDA:   1    -0.348886957151E+03    0.32196E+00    0.00000E+00  8208   0.900E+00 0.000E+00
CGA:   2    -0.349088512439E+03   -0.20156E+00   -0.20168E+00  8208   0.647E+00-0.107E-02
CGA:   3    -0.349175095353E+03   -0.86583E-01   -0.86458E-01  8208   0.296E+00 0.620E-02
CGA:   4    -0.349203664013E+03   -0.28569E-01   -0.28388E-01  8208   0.774E-01-0.143E-02
CGA:   5    -0.349212908627E+03   -0.92446E-02   -0.92449E-02  8208   0.203E-01 0.203E-03
CGA:   6    -0.349215642057E+03   -0.27334E-02   -0.27331E-02  8208   0.933E-02 0.190E-04
CGA:   7    -0.349216692500E+03   -0.10504E-02   -0.10504E-02  8208   0.293E-02-0.151E-05
CGA:   8    -0.349217121993E+03   -0.42949E-03   -0.42959E-03  8208   0.129E-02-0.250E-05
CGA:   9    -0.349217258659E+03   -0.13667E-03   -0.13668E-03  8208   0.529E-03 0.327E-06
CGA:  10    -0.349217343933E+03   -0.85274E-04   -0.85288E-04  8208   0.224E-03-0.251E-06
CGA:  11    -0.349217377868E+03   -0.33935E-04   -0.33925E-04  8208   0.163E-03 0.382E-06
CGA:  12    -0.349217401532E+03   -0.23664E-04   -0.23658E-04  8208   0.789E-04 0.324E-06
CGA:  13    -0.349217412809E+03   -0.11277E-04   -0.11272E-04  8208   0.522E-04 0.278E-06
CGA:  14    -0.349217420438E+03   -0.76291E-05   -0.76233E-05  8208   0.203E-04 0.319E-06
  13 F= -.34921742E+03 E0= -.34920572E+03  d E =-.849562E-02  mag=    30.0405
       N       E                     dE             d eps       ncg     rms          ort
SDA:   1    -0.342892530553E+03    0.63249E+01    0.00000E+00  8208   0.165E+02 0.000E+00
CGA:   2    -0.347006612057E+03   -0.41141E+01   -0.41173E+01  8208   0.119E+02-0.304E-01
CGA:   3    -0.348558050300E+03   -0.15514E+01   -0.15526E+01  8208   0.457E+01 0.147E+00
CGA:   4    -0.349021511328E+03   -0.46346E+00   -0.45311E+00  8208   0.119E+01 0.258E-01
CGA:   5    -0.349170583052E+03   -0.14907E+00   -0.14921E+00  8208   0.326E+00 0.757E-02
CGA:   6    -0.349215887515E+03   -0.45304E-01   -0.45326E-01  8208   0.159E+00-0.200E-02
CGA:   7    -0.349232825602E+03   -0.16938E-01   -0.16986E-01  8208   0.476E-01 0.577E-03
CGA:   8    -0.349240393661E+03   -0.75681E-02   -0.75696E-02  8208   0.175E-01-0.251E-04
CGA:   9    -0.349242488381E+03   -0.20947E-02   -0.20980E-02  8208   0.949E-02 0.111E-03
CGA:  10    -0.349243893085E+03   -0.14047E-02   -0.14042E-02  8208   0.381E-02 0.286E-04
CGA:  11    -0.349244557128E+03   -0.66404E-03   -0.66325E-03  8208   0.298E-02 0.175E-04
CGA:  12    -0.349244989057E+03   -0.43193E-03   -0.43175E-03  8208   0.141E-02 0.145E-04
CGA:  13    -0.349245212084E+03   -0.22303E-03   -0.22292E-03  8208   0.104E-02 0.511E-05
CGA:  14    -0.349245349698E+03   -0.13761E-03   -0.13764E-03  8208   0.377E-03 0.450E-05
CGA:  15    -0.349245409976E+03   -0.60278E-04   -0.60227E-04  8208   0.274E-03 0.206E-05
CGA:  16    -0.349245443419E+03   -0.33443E-04   -0.33475E-04  8208   0.101E-03 0.171E-05
CGA:  17    -0.349245462871E+03   -0.19452E-04   -0.19412E-04  8208   0.907E-04 0.581E-06
CGA:  18    -0.349245476061E+03   -0.13190E-04   -0.13186E-04  8208   0.513E-04 0.580E-06
CGA:  19    -0.349245487461E+03   -0.11400E-04   -0.11375E-04  8208   0.542E-04 0.234E-06
CGA:  20    -0.349245496444E+03   -0.89829E-05   -0.89861E-05  8208   0.335E-04-0.215E-06
  14 F= -.34924550E+03 E0= -.34923396E+03  d E =-.280760E-01  mag=    30.0368
       N       E                     dE             d eps       ncg     rms          ort
SDA:   1    -0.305949273736E+03    0.43296E+02    0.00000E+00  8208   0.150E+03 0.000E+00
CGA:   2    -0.327568185117E+03   -0.21619E+02   -0.21680E+02  8208   0.103E+03 0.150E+02
CGA:   3    -0.339602989304E+03   -0.12035E+02   -0.10549E+02  8208   0.405E+02 0.560E+01
CGA:   4    -0.345697236409E+03   -0.60942E+01   -0.59739E+01  8208   0.421E+02-0.145E+02
CGA:   5    -0.347520598384E+03   -0.18234E+01   -0.14621E+01  8208   0.103E+02 0.595E+01
CGA:   6    -0.348001635103E+03   -0.48104E+00   -0.54771E+00  8208   0.125E+02-0.212E+01
CGA:   7    -0.348436986381E+03   -0.43535E+00   -0.44681E+00  8208   0.117E+02-0.193E+00
CGA:   8    -0.348671505826E+03   -0.23452E+00   -0.33794E+00  8208   0.379E+01-0.303E+01
CGA:   9    -0.348773245674E+03   -0.10174E+00   -0.10057E+00  8208   0.287E+01 0.303E-02
CGA:  10    -0.348936727581E+03   -0.16348E+00   -0.14967E+00  8208   0.166E+01 0.180E+00
CGA:  11    -0.349006653323E+03   -0.69926E-01   -0.81233E-01  8208   0.143E+01-0.169E+00
CGA:  12    -0.349072236093E+03   -0.65583E-01   -0.68755E-01  8208   0.535E+00-0.294E-01
CGA:  13    -0.349099680254E+03   -0.27444E-01   -0.29813E-01  8208   0.440E+00-0.177E-01
CGA:  14    -0.349126530835E+03   -0.26851E-01   -0.28543E-01  8208   0.397E+00-0.337E-02
CGA:  15    -0.349155134538E+03   -0.28604E-01   -0.28970E-01  8208   0.159E+00 0.923E-03
CGA:  16    -0.349165503868E+03   -0.10369E-01   -0.10562E-01  8208   0.859E-01-0.227E-03
CGA:  17    -0.349175659722E+03   -0.10156E-01   -0.10103E-01  8208   0.786E-01 0.216E-02
CGA:  18    -0.349183522727E+03   -0.78630E-02   -0.78878E-02  8208   0.466E-01 0.223E-02
CGA:  19    -0.349186570640E+03   -0.30479E-02   -0.31323E-02  8208   0.205E-01-0.578E-04
CGA:  20    -0.349190640748E+03   -0.40701E-02   -0.40434E-02  8208   0.167E-01 0.265E-03
CGA:  21    -0.349192461981E+03   -0.18212E-02   -0.18195E-02  8208   0.872E-02 0.458E-03
CGA:  22    -0.349193843103E+03   -0.13811E-02   -0.13763E-02  8208   0.729E-02 0.733E-04
CGA:  23    -0.349195006716E+03   -0.11636E-02   -0.11484E-02  8208   0.410E-02 0.242E-03
CGA:  24    -0.349195563298E+03   -0.55658E-03   -0.55552E-03  8208   0.300E-02 0.380E-04
CGA:  25    -0.349196091665E+03   -0.52837E-03   -0.52103E-03  8208   0.176E-02 0.993E-04
CGA:  26    -0.349196361383E+03   -0.26972E-03   -0.27008E-03  8208   0.113E-02-0.108E-04
CGA:  27    -0.349196528373E+03   -0.16699E-03   -0.16657E-03  8208   0.710E-03 0.693E-05
CGA:  28    -0.349196661290E+03   -0.13292E-03   -0.13287E-03  8208   0.397E-03 0.336E-06
CGA:  29    -0.349196717166E+03   -0.55875E-04   -0.55910E-04  8208   0.304E-03-0.181E-05
CGA:  30    -0.349196769340E+03   -0.52174E-04   -0.52365E-04  8208   0.191E-03-0.401E-05
CGA:  31    -0.349196797042E+03   -0.27702E-04   -0.27760E-04  8208   0.106E-03-0.261E-05
SDA:  32    -0.349196818523E+03   -0.21480E-04   -0.21407E-04  8208   0.895E-04 0.906E-06
CGA:  33    -0.349196827978E+03   -0.94552E-05   -0.94692E-05  8208   0.417E-04 0.543E-06
  15 F= -.34919683E+03 E0= -.34918580E+03  d E =0.486685E-01  mag=    30.0338
       N       E                     dE             d eps       ncg     rms          ort
SDA:   1    -0.332758351505E+03    0.16438E+02    0.00000E+00  8208   0.599E+02 0.000E+00
CGA:   2    -0.341678913223E+03   -0.89206E+01   -0.89031E+01  8208   0.283E+02 0.693E+00
CGA:   3    -0.345786211850E+03   -0.41073E+01   -0.43164E+01  8208   0.370E+02-0.890E+01
CGA:   4    -0.347759261256E+03   -0.19730E+01   -0.19293E+01  8208   0.971E+01 0.779E+00
CGA:   5    -0.348468545964E+03   -0.70928E+00   -0.65673E+00  8208   0.680E+01 0.370E+00
CGA:   6    -0.348980584215E+03   -0.51204E+00   -0.50165E+00  8208   0.142E+01 0.887E-01
CGA:   7    -0.349121498259E+03   -0.14091E+00   -0.14190E+00  8208   0.157E+01 0.897E-02
CGA:   8    -0.349211460865E+03   -0.89963E-01   -0.96905E-01  8208   0.302E+00-0.456E-01
CGA:   9    -0.349244422894E+03   -0.32962E-01   -0.32985E-01  8208   0.345E+00 0.136E-02
CGA:  10    -0.349269751260E+03   -0.25328E-01   -0.26094E-01  8208   0.894E-01-0.133E-02
CGA:  11    -0.349279539536E+03   -0.97883E-02   -0.97934E-02  8208   0.606E-01 0.279E-03
CGA:  12    -0.349285228458E+03   -0.56889E-02   -0.57066E-02  8208   0.278E-01 0.212E-03
CGA:  13    -0.349288373038E+03   -0.31446E-02   -0.31474E-02  8208   0.139E-01 0.323E-03
CGA:  14    -0.349289988334E+03   -0.16153E-02   -0.16156E-02  8208   0.885E-02 0.930E-04
CGA:  15    -0.349291152983E+03   -0.11646E-02   -0.11641E-02  8208   0.341E-02 0.272E-04
CGA:  16    -0.349291561437E+03   -0.40845E-03   -0.40821E-03  8208   0.262E-02 0.645E-04
CGA:  17    -0.349291922208E+03   -0.36077E-03   -0.36056E-03  8208   0.107E-02 0.111E-04
CGA:  18    -0.349292068989E+03   -0.14678E-03   -0.14667E-03  8208   0.701E-03 0.569E-05
CGA:  19    -0.349292172213E+03   -0.10322E-03   -0.10281E-03  8208   0.331E-03 0.115E-04
CGA:  20    -0.349292217190E+03   -0.44977E-04   -0.44946E-04  8208   0.214E-03 0.235E-05
CGA:  21    -0.349292249442E+03   -0.32252E-04   -0.32136E-04  8208   0.134E-03 0.348E-05
CGA:  22    -0.349292267306E+03   -0.17864E-04   -0.17863E-04  8208   0.712E-04 0.797E-07
CGA:  23    -0.349292280586E+03   -0.13280E-04   -0.13307E-04  8208   0.454E-04-0.471E-06
CGA:  24    -0.349292287760E+03   -0.71737E-05   -0.71363E-05  8208   0.310E-04 0.106E-05
  16 F= -.34929229E+03 E0= -.34928085E+03  d E =-.954598E-01  mag=    30.0473
       N       E                     dE             d eps       ncg     rms          ort
SDA:   1    -0.348661089957E+03    0.63119E+00    0.00000E+00  8208   0.241E+01 0.000E+00
CGA:   2    -0.349008471176E+03   -0.34738E+00   -0.34732E+00  8208   0.958E+00 0.220E-02
CGA:   3    -0.349185068132E+03   -0.17660E+00   -0.17681E+00  8208   0.616E+00-0.331E-02
CGA:   4    -0.349263189545E+03   -0.78121E-01   -0.78138E-01  8208   0.199E+00 0.174E-02
CGA:   5    -0.349285771964E+03   -0.22582E-01   -0.22584E-01  8208   0.474E-01 0.590E-04
CGA:   6    -0.349292723650E+03   -0.69517E-02   -0.69529E-02  8208   0.146E-01-0.429E-04
CGA:   7    -0.349294712304E+03   -0.19887E-02   -0.19883E-02  8208   0.715E-02 0.438E-04
CGA:   8    -0.349295562550E+03   -0.85025E-03   -0.85012E-03  8208   0.232E-02-0.224E-05
CGA:   9    -0.349295904053E+03   -0.34150E-03   -0.34144E-03  8208   0.113E-02 0.365E-05
CGA:  10    -0.349296035475E+03   -0.13142E-03   -0.13140E-03  8208   0.458E-03-0.439E-07
CGA:  11    -0.349296116762E+03   -0.81287E-04   -0.81203E-04  8208   0.210E-03 0.168E-05
CGA:  12    -0.349296147535E+03   -0.30773E-04   -0.30774E-04  8208   0.121E-03 0.519E-07
CGA:  13    -0.349296166423E+03   -0.18888E-04   -0.18882E-04  8208   0.467E-04 0.182E-06
CGA:  14    -0.349296174297E+03   -0.78744E-05   -0.78827E-05  8208   0.324E-04-0.253E-06
  17 F= -.34929617E+03 E0= -.34928488E+03  d E =-.388654E-02  mag=    30.0422
       N       E                     dE             d eps       ncg     rms          ort
SDA:   1    -0.349203370366E+03    0.92796E-01    0.00000E+00  8208   0.248E+00 0.000E+00
CGA:   2    -0.349266735067E+03   -0.63365E-01   -0.63262E-01  8208   0.190E+00 0.834E-03
CGA:   3    -0.349287210425E+03   -0.20475E-01   -0.20342E-01  8208   0.732E-01-0.555E-03
CGA:   4    -0.349295528863E+03   -0.83184E-02   -0.83271E-02  8208   0.169E-01 0.978E-04
CGA:   5    -0.349297889112E+03   -0.23602E-02   -0.23602E-02  8208   0.549E-02 0.238E-05
CGA:   6    -0.349298531449E+03   -0.64234E-03   -0.64269E-03  8208   0.226E-02 0.621E-05
CGA:   7    -0.349298818035E+03   -0.28659E-03   -0.28655E-03  8208   0.642E-03-0.207E-05
CGA:   8    -0.349298924277E+03   -0.10624E-03   -0.10624E-03  8208   0.280E-03-0.684E-07
CGA:   9    -0.349298956603E+03   -0.32326E-04   -0.32319E-04  8208   0.131E-03-0.215E-06
CGA:  10    -0.349298977332E+03   -0.20729E-04   -0.20727E-04  8208   0.584E-04 0.109E-06
CGA:  11    -0.349298986558E+03   -0.92261E-05   -0.92268E-05  8208   0.414E-04-0.236E-07
  18 F= -.34929899E+03 E0= -.34928773E+03  d E =-.281226E-02  mag=    30.0406
       N       E                     dE             d eps       ncg     rms          ort
SDA:   1    -0.348821223908E+03    0.47775E+00    0.00000E+00  8208   0.119E+01 0.000E+00
CGA:   2    -0.349171003887E+03   -0.34978E+00   -0.34930E+00  8208   0.745E+00 0.312E-02
CGA:   3    -0.349257849345E+03   -0.86845E-01   -0.85924E-01  8208   0.288E+00-0.499E-02
CGA:   4    -0.349288682804E+03   -0.30833E-01   -0.31047E-01  8208   0.763E-01 0.102E-02
CGA:   5    -0.349298689969E+03   -0.10007E-01   -0.10004E-01  8208   0.229E-01-0.648E-04
CGA:   6    -0.349301584118E+03   -0.28941E-02   -0.28956E-02  8208   0.101E-01 0.337E-04
CGA:   7    -0.349302757932E+03   -0.11738E-02   -0.11731E-02  8208   0.297E-02-0.868E-05
CGA:   8    -0.349303244769E+03   -0.48684E-03   -0.48683E-03  8208   0.109E-02 0.141E-06
CGA:   9    -0.349303391157E+03   -0.14639E-03   -0.14638E-03  8208   0.603E-03-0.253E-06
CGA:  10    -0.349303476571E+03   -0.85414E-04   -0.85414E-04  8208   0.264E-03 0.981E-06
CGA:  11    -0.349303521602E+03   -0.45032E-04   -0.45021E-04  8208   0.188E-03 0.452E-06
CGA:  12    -0.349303548747E+03   -0.27145E-04   -0.27144E-04  8208   0.967E-04 0.744E-06
CGA:  13    -0.349303563856E+03   -0.15109E-04   -0.15106E-04  8208   0.534E-04 0.319E-06
CGA:  14    -0.349303572011E+03   -0.81552E-05   -0.81511E-05  8208   0.218E-04 0.517E-06
  19 F= -.34930357E+03 E0= -.34929235E+03  d E =-.458545E-02  mag=    30.0388
       N       E                     dE             d eps       ncg     rms          ort
SDA:   1    -0.348492104347E+03    0.81146E+00    0.00000E+00  8208   0.207E+01 0.000E+00
CGA:   2    -0.349042941496E+03   -0.55084E+00   -0.55116E+00  8208   0.141E+01-0.254E-02
CGA:   3    -0.349229446013E+03   -0.18650E+00   -0.18680E+00  8208   0.521E+00 0.590E-02
CGA:   4    -0.349281409630E+03   -0.51964E-01   -0.51507E-01  8208   0.150E+00 0.303E-03
CGA:   5    -0.349299725371E+03   -0.18316E-01   -0.18325E-01  8208   0.373E-01 0.131E-03
CGA:   6    -0.349305605966E+03   -0.58806E-02   -0.58812E-02  8208   0.147E-01-0.254E-04
CGA:   7    -0.349307238021E+03   -0.16321E-02   -0.16337E-02  8208   0.617E-02 0.982E-05
CGA:   8    -0.349308084356E+03   -0.84634E-03   -0.84627E-03  8208   0.170E-02-0.409E-05
CGA:   9    -0.349308365540E+03   -0.28118E-03   -0.28114E-03  8208   0.106E-02 0.200E-05
CGA:  10    -0.349308492192E+03   -0.12665E-03   -0.12665E-03  8208   0.466E-03 0.472E-06
CGA:  11    -0.349308586436E+03   -0.94244E-04   -0.94154E-04  8208   0.300E-03 0.158E-05
CGA:  12    -0.349308629769E+03   -0.43333E-04   -0.43333E-04  8208   0.186E-03 0.240E-06
CGA:  13    -0.349308660636E+03   -0.30868E-04   -0.30857E-04  8208   0.963E-04 0.588E-06
CGA:  14    -0.349308673907E+03   -0.13271E-04   -0.13273E-04  8208   0.478E-04 0.255E-06
CGA:  15    -0.349308681643E+03   -0.77359E-05   -0.77283E-05  8208   0.232E-04 0.542E-06
  20 F= -.34930868E+03 E0= -.34929747E+03  d E =-.510963E-02  mag=    30.0385
       N       E                     dE             d eps       ncg     rms          ort
SDA:   1    -0.333867298894E+03    0.15441E+02    0.00000E+00  8208   0.404E+02 0.000E+00
CGA:   2    -0.343975842628E+03   -0.10109E+02   -0.10110E+02  8208   0.271E+02-0.425E-01
CGA:   3    -0.347803277604E+03   -0.38274E+01   -0.38316E+01  8208   0.934E+01 0.210E+00
CGA:   4    -0.348803619693E+03   -0.10003E+01   -0.91266E+00  8208   0.263E+01 0.512E+00
CGA:   5    -0.349145321265E+03   -0.34170E+00   -0.34388E+00  8208   0.738E+00 0.284E-01
CGA:   6    -0.349258201248E+03   -0.11288E+00   -0.11296E+00  8208   0.324E+00-0.109E-01
CGA:   7    -0.349291584901E+03   -0.33384E-01   -0.33878E-01  8208   0.131E+00 0.166E-02
CGA:   8    -0.349309600011E+03   -0.18015E-01   -0.18012E-01  8208   0.429E-01-0.911E-04
CGA:   9    -0.349315623636E+03   -0.60236E-02   -0.60252E-02  8208   0.231E-01 0.168E-03
CGA:  10    -0.349318894720E+03   -0.32711E-02   -0.32709E-02  8208   0.112E-01-0.919E-05
CGA:  11    -0.349320650857E+03   -0.17561E-02   -0.17547E-02  8208   0.796E-02 0.752E-04
CGA:  12    -0.349321884812E+03   -0.12340E-02   -0.12342E-02  8208   0.366E-02-0.619E-05
CGA:  13    -0.349322522372E+03   -0.63756E-03   -0.63670E-03  8208   0.260E-02 0.243E-04
CGA:  14    -0.349322840015E+03   -0.31764E-03   -0.31764E-03  8208   0.105E-02 0.411E-05
CGA:  15    -0.349323017573E+03   -0.17756E-03   -0.17739E-03  8208   0.536E-03 0.673E-05
CGA:  16    -0.349323090236E+03   -0.72663E-04   -0.72684E-04  8208   0.289E-03 0.184E-05
CGA:  17    -0.349323138522E+03   -0.48286E-04   -0.48246E-04  8208   0.190E-03 0.182E-05
CGA:  18    -0.349323168841E+03   -0.30320E-04   -0.30319E-04  8208   0.128E-03 0.194E-06
CGA:  19    -0.349323195838E+03   -0.26997E-04   -0.26999E-04  8208   0.111E-03-0.937E-07
CGA:  20    -0.349323212500E+03   -0.16661E-04   -0.16659E-04  8208   0.816E-04-0.142E-05
CGA:  21    -0.349323227857E+03   -0.15357E-04   -0.15416E-04  8208   0.517E-04-0.148E-05
CGA:  22    -0.349323235631E+03   -0.77740E-05   -0.77740E-05  8208   0.334E-04-0.796E-06
  21 F= -.34932324E+03 E0= -.34931162E+03  d E =-.145540E-01  mag=    30.0491
       N       E                     dE             d eps       ncg     rms          ort
SDA:   1    -0.332461476999E+03    0.16862E+02    0.00000E+00  8208   0.493E+02 0.000E+00
CGA:   2    -0.343028427511E+03   -0.10567E+02   -0.10536E+02  8208   0.273E+02 0.405E+00
CGA:   3    -0.347186957835E+03   -0.41585E+01   -0.41499E+01  8208   0.145E+02-0.699E+00
CGA:   4    -0.348461888526E+03   -0.12749E+01   -0.13296E+01  8208   0.385E+01 0.967E+00
CGA:   5    -0.348980284244E+03   -0.51840E+00   -0.50813E+00  8208   0.136E+01-0.514E-01
CGA:   6    -0.349130440734E+03   -0.15016E+00   -0.15241E+00  8208   0.611E+00 0.130E-01
CGA:   7    -0.349195994853E+03   -0.65554E-01   -0.64226E-01  8208   0.193E+00 0.365E-03
CGA:   8    -0.349223388862E+03   -0.27394E-01   -0.27428E-01  8208   0.105E+00 0.285E-02
CGA:   9    -0.349235303740E+03   -0.11915E-01   -0.11821E-01  8208   0.418E-01-0.342E-03
CGA:  10    -0.349241868495E+03   -0.65648E-02   -0.65610E-02  8208   0.212E-01 0.189E-03
CGA:  11    -0.349244502345E+03   -0.26338E-02   -0.26218E-02  8208   0.144E-01-0.149E-03
CGA:  12    -0.349246455776E+03   -0.19534E-02   -0.19551E-02  8208   0.692E-02 0.108E-03
CGA:  13    -0.349247349628E+03   -0.89385E-03   -0.89171E-03  8208   0.454E-02-0.424E-04
CGA:  14    -0.349247950619E+03   -0.60099E-03   -0.60133E-03  8208   0.197E-02 0.195E-04
CGA:  15    -0.349248207877E+03   -0.25726E-03   -0.25707E-03  8208   0.133E-02-0.507E-05
CGA:  16    -0.349248381778E+03   -0.17390E-03   -0.17396E-03  8208   0.565E-03 0.337E-05
CGA:  17    -0.349248446745E+03   -0.64967E-04   -0.64772E-04  8208   0.381E-03-0.187E-05
CGA:  18    -0.349248503053E+03   -0.56308E-04   -0.56296E-04  8208   0.188E-03 0.124E-05
CGA:  19    -0.349248528343E+03   -0.25291E-04   -0.25278E-04  8208   0.145E-03-0.985E-06
CGA:  20    -0.349248551589E+03   -0.23245E-04   -0.23239E-04  8208   0.105E-03 0.173E-06
CGA:  21    -0.349248563510E+03   -0.11921E-04   -0.11868E-04  8208   0.696E-04-0.113E-05
CGA:  22    -0.349248575796E+03   -0.12287E-04   -0.12318E-04  8208   0.505E-04-0.884E-06
CGA:  23    -0.349248582239E+03   -0.64427E-05   -0.64218E-05  8208   0.344E-04-0.137E-05
  22 F= -.34924858E+03 E0= -.34923564E+03  d E =0.746534E-01  mag=    30.1196
       N       E                     dE             d eps       ncg     rms          ort
SDA:   1    -0.347141606621E+03    0.21070E+01    0.00000E+00  8208   0.784E+01 0.000E+00
CGA:   2    -0.348329946132E+03   -0.11883E+01   -0.11793E+01  8208   0.381E+01 0.548E+00
CGA:   3    -0.348873590083E+03   -0.54364E+00   -0.50737E+00  8208   0.302E+01-0.510E+00
CGA:   4    -0.349155270216E+03   -0.28168E+00   -0.28733E+00  8208   0.102E+01 0.485E-01
CGA:   5    -0.349235719154E+03   -0.80449E-01   -0.86694E-01  8208   0.488E+00-0.271E-02
CGA:   6    -0.349280886178E+03   -0.45167E-01   -0.42570E-01  8208   0.179E+00 0.685E-02
CGA:   7    -0.349295826255E+03   -0.14940E-01   -0.15849E-01  8208   0.997E-01 0.101E-03
CGA:   8    -0.349303953081E+03   -0.81268E-02   -0.83505E-02  8208   0.430E-01-0.210E-03
CGA:   9    -0.349307198051E+03   -0.32450E-02   -0.31665E-02  8208   0.210E-01 0.393E-03
CGA:  10    -0.349309370644E+03   -0.21726E-02   -0.21758E-02  8208   0.137E-01 0.439E-04
CGA:  11    -0.349310547000E+03   -0.11764E-02   -0.11986E-02  8208   0.665E-02 0.590E-04
CGA:  12    -0.349311110634E+03   -0.56363E-03   -0.56134E-03  8208   0.356E-02-0.295E-06
CGA:  13    -0.349311553933E+03   -0.44330E-03   -0.44333E-03  8208   0.283E-02 0.144E-08
CGA:  14    -0.349311796221E+03   -0.24229E-03   -0.24648E-03  8208   0.129E-02 0.167E-04
CGA:  15    -0.349311938963E+03   -0.14274E-03   -0.14275E-03  8208   0.104E-02 0.707E-06
CGA:  16    -0.349312061265E+03   -0.12230E-03   -0.12230E-03  8208   0.510E-03 0.121E-06
CGA:  17    -0.349312110438E+03   -0.49173E-04   -0.49446E-04  8208   0.318E-03 0.521E-05
CGA:  18    -0.349312148253E+03   -0.37815E-04   -0.37817E-04  8208   0.217E-03 0.248E-05
CGA:  19    -0.349312174283E+03   -0.26030E-04   -0.26029E-04  8208   0.992E-04 0.137E-05
CGA:  20    -0.349312184627E+03   -0.10344E-04   -0.10372E-04  8208   0.722E-04 0.136E-05
CGA:  21    -0.349312194790E+03   -0.10163E-04   -0.10147E-04  8208   0.471E-04 0.638E-06
CGA:  22    -0.349312199753E+03   -0.49623E-05   -0.49669E-05  8208   0.247E-04 0.290E-06
  23 F= -.34931220E+03 E0= -.34929942E+03  d E =-.636175E-01  mag=    30.1055
       N       E                     dE             d eps       ncg     rms          ort
SDA:   1    -0.348671472932E+03    0.64072E+00    0.00000E+00  8208   0.218E+01 0.000E+00
CGA:   2    -0.349031691457E+03   -0.36022E+00   -0.35486E+00  8208   0.127E+01 0.892E-01
CGA:   3    -0.349196559574E+03   -0.16487E+00   -0.16562E+00  8208   0.918E+00-0.105E+00
CGA:   4    -0.349283962596E+03   -0.87403E-01   -0.88205E-01  8208   0.212E+00 0.163E-01
CGA:   5    -0.349310483018E+03   -0.26520E-01   -0.26524E-01  8208   0.912E-01-0.978E-03
CGA:   6    -0.349319314333E+03   -0.88313E-02   -0.87346E-02  8208   0.302E-01-0.825E-03
CGA:   7    -0.349323188532E+03   -0.38742E-02   -0.38732E-02  8208   0.101E-01 0.649E-04
CGA:   8    -0.349324377153E+03   -0.11886E-02   -0.11882E-02  8208   0.555E-02-0.727E-04
CGA:   9    -0.349325006315E+03   -0.62916E-03   -0.62942E-03  8208   0.216E-02 0.210E-04
CGA:  10    -0.349325280264E+03   -0.27395E-03   -0.27395E-03  8208   0.942E-03 0.392E-06
CGA:  11    -0.349325441250E+03   -0.16099E-03   -0.16104E-03  8208   0.458E-03-0.879E-06
CGA:  12    -0.349325503457E+03   -0.62207E-04   -0.62189E-04  8208   0.328E-03 0.914E-06
CGA:  13    -0.349325549168E+03   -0.45711E-04   -0.45714E-04  8208   0.141E-03-0.206E-08
CGA:  14    -0.349325569388E+03   -0.20221E-04   -0.20188E-04  8208   0.924E-04 0.157E-05
CGA:  15    -0.349325581458E+03   -0.12069E-04   -0.12067E-04  8208   0.503E-04 0.659E-06
CGA:  16    -0.349325587582E+03   -0.61242E-05   -0.61283E-05  8208   0.205E-04 0.847E-06
  24 F= -.34932559E+03 E0= -.34931299E+03  d E =-.133878E-01  mag=    30.0932
       N       E                     dE             d eps       ncg     rms          ort
SDA:   1    -0.349143840456E+03    0.18174E+00    0.00000E+00  8208   0.519E+00 0.000E+00
CGA:   2    -0.349262805901E+03   -0.11897E+00   -0.11840E+00  8208   0.340E+00 0.510E-02
CGA:   3    -0.349305112560E+03   -0.42307E-01   -0.42030E-01  8208   0.173E+00-0.965E-02
CGA:   4    -0.349321273163E+03   -0.16161E-01   -0.16374E-01  8208   0.448E-01 0.977E-03
CGA:   5    -0.349327255166E+03   -0.59820E-02   -0.59824E-02  8208   0.137E-01-0.121E-03
CGA:   6    -0.349328861380E+03   -0.16062E-02   -0.16089E-02  8208   0.590E-02 0.835E-04
CGA:   7    -0.349329492927E+03   -0.63155E-03   -0.63060E-03  8208   0.183E-02-0.106E-04
CGA:   8    -0.349329764483E+03   -0.27156E-03   -0.27152E-03  8208   0.817E-03 0.172E-05
CGA:   9    -0.349329867719E+03   -0.10324E-03   -0.10323E-03  8208   0.345E-03-0.809E-06
CGA:  10    -0.349329915747E+03   -0.48028E-04   -0.48019E-04  8208   0.197E-03 0.657E-06
CGA:  11    -0.349329940706E+03   -0.24959E-04   -0.24955E-04  8208   0.980E-04-0.628E-06
CGA:  12    -0.349329956685E+03   -0.15980E-04   -0.15964E-04  8208   0.614E-04 0.449E-06
CGA:  13    -0.349329964395E+03   -0.77095E-05   -0.77104E-05  8208   0.309E-04 0.135E-06
  25 F= -.34932996E+03 E0= -.34931742E+03  d E =-.437681E-02  mag=    30.0895
       N       E                     dE             d eps       ncg     rms          ort
SDA:   1    -0.349050207141E+03    0.27975E+00    0.00000E+00  8208   0.729E+00 0.000E+00
CGA:   2    -0.349250294207E+03   -0.20009E+00   -0.19932E+00  8208   0.484E+00 0.530E-02
CGA:   3    -0.349299207762E+03   -0.48914E-01   -0.47256E-01  8208   0.205E+00-0.472E-03
CGA:   4    -0.349321972726E+03   -0.22765E-01   -0.22891E-01  8208   0.560E-01 0.138E-02
CGA:   5    -0.349329713974E+03   -0.77412E-02   -0.77416E-02  8208   0.161E-01-0.156E-03
CGA:   6    -0.349331669450E+03   -0.19555E-02   -0.19574E-02  8208   0.702E-02 0.579E-04
CGA:   7    -0.349332431711E+03   -0.76226E-03   -0.76115E-03  8208   0.238E-02-0.113E-04
CGA:   8    -0.349332763009E+03   -0.33130E-03   -0.33128E-03  8208   0.106E-02 0.221E-05
CGA:   9    -0.349332892187E+03   -0.12918E-03   -0.12914E-03  8208   0.464E-03-0.161E-05
CGA:  10    -0.349332955823E+03   -0.63636E-04   -0.63629E-04  8208   0.251E-03 0.133E-05
CGA:  11    -0.349332990557E+03   -0.34733E-04   -0.34735E-04  8208   0.136E-03-0.210E-06
CGA:  12    -0.349333011216E+03   -0.20659E-04   -0.20646E-04  8208   0.856E-04 0.705E-06
CGA:  13    -0.349333023049E+03   -0.11834E-04   -0.11833E-04  8208   0.417E-04 0.168E-06
CGA:  14    -0.349333029275E+03   -0.62256E-05   -0.62177E-05  8208   0.230E-04 0.584E-06
  26 F= -.34933303E+03 E0= -.34932050E+03  d E =-.306488E-02  mag=    30.0882
       N       E                     dE             d eps       ncg     rms          ort
SDA:   1    -0.349201058433E+03    0.13196E+00    0.00000E+00  8208   0.341E+00 0.000E+00
CGA:   2    -0.349291473196E+03   -0.90415E-01   -0.90649E-01  8208   0.270E+00-0.179E-02
CGA:   3    -0.349316817836E+03   -0.25345E-01   -0.25827E-01  8208   0.106E+00 0.510E-03
CGA:   4    -0.349328487960E+03   -0.11670E-01   -0.11628E-01  8208   0.281E-01-0.296E-03
CGA:   5    -0.349332078890E+03   -0.35909E-02   -0.35924E-02  8208   0.924E-02 0.730E-04
CGA:   6    -0.349333089211E+03   -0.10103E-02   -0.10081E-02  8208   0.367E-02-0.170E-04
CGA:   7    -0.349333538224E+03   -0.44901E-03   -0.44923E-03  8208   0.118E-02 0.628E-05
CGA:   8    -0.349333701390E+03   -0.16317E-03   -0.16318E-03  8208   0.567E-03-0.325E-05
CGA:   9    -0.349333765920E+03   -0.64530E-04   -0.64563E-04  8208   0.236E-03 0.732E-06
CGA:  10    -0.349333796796E+03   -0.30876E-04   -0.30874E-04  8208   0.122E-03-0.304E-06
CGA:  11    -0.349333815342E+03   -0.18547E-04   -0.18538E-04  8208   0.648E-04 0.476E-06
CGA:  12    -0.349333825206E+03   -0.98635E-05   -0.98649E-05  8208   0.468E-04-0.725E-07
  27 F= -.34933383E+03 E0= -.34932127E+03  d E =-.795931E-03  mag=    30.0893
       N       E                     dE             d eps       ncg     rms          ort
SDA:   1    -0.349280829069E+03    0.52986E-01    0.00000E+00  8208   0.142E+00 0.000E+00
CGA:   2    -0.349314183392E+03   -0.33354E-01   -0.33282E-01  8208   0.111E+00 0.669E-03
CGA:   3    -0.349326519151E+03   -0.12336E-01   -0.12191E-01  8208   0.545E-01-0.842E-03
CGA:   4    -0.349331925532E+03   -0.54064E-02   -0.54368E-02  8208   0.119E-01 0.106E-03
CGA:   5    -0.349333503515E+03   -0.15780E-02   -0.15778E-02  8208   0.350E-02-0.160E-04
CGA:   6    -0.349333904591E+03   -0.40108E-03   -0.40137E-03  8208   0.169E-02 0.541E-05
CGA:   7    -0.349334097687E+03   -0.19310E-03   -0.19298E-03  8208   0.499E-03-0.170E-05
CGA:   8    -0.349334166866E+03   -0.69179E-04   -0.69175E-04  8208   0.258E-03 0.626E-06
CGA:   9    -0.349334195209E+03   -0.28343E-04   -0.28325E-04  8208   0.908E-04-0.435E-06
CGA:  10    -0.349334209223E+03   -0.14014E-04   -0.14004E-04  8208   0.605E-04 0.443E-06
CGA:  11    -0.349334216841E+03   -0.76187E-05   -0.76174E-05  8208   0.310E-04-0.989E-07
  28 F= -.34933422E+03 E0= -.34932158E+03  d E =-.391635E-03  mag=    30.0932
       N       E                     dE             d eps       ncg     rms          ort
SDA:   1    -0.349173794750E+03    0.16041E+00    0.00000E+00  8208   0.430E+00 0.000E+00
CGA:   2    -0.349277389404E+03   -0.10359E+00   -0.10358E+00  8208   0.281E+00 0.150E-03
CGA:   3    -0.349317427492E+03   -0.40038E-01   -0.40040E-01  8208   0.121E+00-0.158E-02
[...]
CGA:  29    -0.349318694522E+03   -0.45592E-03   -0.45191E-03  8208   0.378E-02 0.891E-04
CGA:  30    -0.349319164034E+03   -0.46951E-03   -0.46578E-03  8208   0.203E-02 0.827E-04
CGA:  31    -0.349319555211E+03   -0.39118E-03   -0.38923E-03  8208   0.197E-02 0.104E-04
CGA:  32    -0.349319813570E+03   -0.25836E-03   -0.25368E-03  8208   0.984E-03 0.100E-03
CGA:  33    -0.349319924728E+03   -0.11116E-03   -0.11142E-03  8208   0.127E-02-0.134E-04
CGA:  34    -0.349320074270E+03   -0.14954E-03   -0.14867E-03  8208   0.775E-03 0.228E-04
CGA:  35    -0.349320148726E+03   -0.74456E-04   -0.74490E-04  8208   0.419E-03 0.110E-04
CGA:  36    -0.349320207870E+03   -0.59144E-04   -0.59036E-04  8208   0.487E-03 0.261E-05
CGA:  37    -0.349320265854E+03   -0.57983E-04   -0.57967E-04  8208   0.374E-03 0.106E-05
CGA:  38    -0.349320307082E+03   -0.41228E-04   -0.41205E-04  8208   0.216E-03 0.131E-05
CGA:  39    -0.349320330778E+03   -0.23696E-04   -0.23703E-04  8208   0.234E-03-0.127E-05
CGA:  40    -0.349320355522E+03   -0.24744E-04   -0.24743E-04  8208   0.138E-03 0.274E-06
CGA:  41    -0.349320376719E+03   -0.21197E-04   -0.20942E-04  8208   0.651E-04 0.473E-05
SDA:  42    -0.349320386138E+03   -0.94183E-05   -0.93621E-05  8208   0.742E-04 0.146E-05
  32 F= -.34932039E+03 E0= -.34930588E+03  d E =0.173406E-01  mag=    30.4197
       N       E                     dE             d eps       ncg     rms          ort
SDA:   1    -0.335392572369E+03    0.13928E+02    0.00000E+00  8208   0.412E+02 0.000E+00
CGA:   2    -0.343506430995E+03   -0.81139E+01   -0.80057E+01  8208   0.235E+02 0.103E+01
CGA:   3    -0.346863853713E+03   -0.33574E+01   -0.39968E+01  8208   0.516E+02-0.101E+02
CGA:   4    -0.347729798536E+03   -0.86594E+00   -0.10766E+01  8208   0.179E+02-0.380E+01
CGA:   5    -0.348289206975E+03   -0.55941E+00   -0.91121E+00  8208   0.656E+01-0.111E+01
CGA:   6    -0.348857979549E+03   -0.56877E+00   -0.55267E+00  8208   0.198E+01-0.331E+00
CGA:   7    -0.348997727430E+03   -0.13975E+00   -0.12182E+00  8208   0.250E+01 0.660E-01
CGA:   8    -0.349153732601E+03   -0.15601E+00   -0.15487E+00  8208   0.121E+01 0.101E-01
CGA:   9    -0.349230057735E+03   -0.76325E-01   -0.79735E-01  8208   0.538E+00 0.209E-02
CGA:  10    -0.349265311388E+03   -0.35254E-01   -0.34042E-01  8208   0.351E+00 0.243E-02
CGA:  11    -0.349303630782E+03   -0.38319E-01   -0.38363E-01  8208   0.159E+00-0.216E-02
CGA:  12    -0.349313898425E+03   -0.10268E-01   -0.10674E-01  8208   0.111E+00 0.157E-02
CGA:  13    -0.349323600127E+03   -0.97017E-02   -0.97014E-02  8208   0.524E-01 0.177E-04
CGA:  14    -0.349329405971E+03   -0.58058E-02   -0.58093E-02  8208   0.276E-01-0.149E-03
CGA:  15    -0.349331098803E+03   -0.16928E-02   -0.17259E-02  8208   0.176E-01 0.150E-04
CGA:  16    -0.349333492451E+03   -0.23936E-02   -0.23917E-02  8208   0.654E-02 0.365E-04
CGA:  17    -0.349334176979E+03   -0.68453E-03   -0.68466E-03  8208   0.687E-02-0.844E-05
CGA:  18    -0.349334719268E+03   -0.54229E-03   -0.54415E-03  8208   0.325E-02 0.383E-04
CGA:  19    -0.349335088390E+03   -0.36912E-03   -0.36876E-03  8208   0.160E-02 0.150E-04
CGA:  20    -0.349335268446E+03   -0.18006E-03   -0.17997E-03  8208   0.185E-02 0.329E-05
CGA:  21    -0.349335417255E+03   -0.14881E-03   -0.14878E-03  8208   0.710E-03-0.138E-05
CGA:  22    -0.349335507078E+03   -0.89823E-04   -0.89774E-04  8208   0.479E-03 0.820E-06
CGA:  23    -0.349335558043E+03   -0.50965E-04   -0.50946E-04  8208   0.472E-03 0.130E-05
CGA:  24    -0.349335596244E+03   -0.38201E-04   -0.38162E-04  8208   0.192E-03-0.137E-05
CGA:  25    -0.349335621987E+03   -0.25743E-04   -0.25714E-04  8208   0.157E-03 0.496E-06
CGA:  26    -0.349335640570E+03   -0.18582E-04   -0.18575E-04  8208   0.114E-03 0.295E-06
CGA:  27    -0.349335649919E+03   -0.93497E-05   -0.93431E-05  8208   0.854E-04-0.337E-06
  33 F= -.34933565E+03 E0= -.34932047E+03  d E =-.152638E-01  mag=    30.4134
       N       E                     dE             d eps       ncg     rms          ort
SDA:   1    -0.308615680126E+03    0.40720E+02    0.00000E+00  8208   0.165E+03 0.000E+00
CGA:   2    -0.328267665398E+03   -0.19652E+02   -0.19050E+02  8208   0.772E+02 0.233E+02
CGA:   3    -0.337515375291E+03   -0.92477E+01   -0.98018E+01  8208   0.107E+03-0.333E+02
CGA:   4    -0.342497595276E+03   -0.49822E+01   -0.47709E+01  8208   0.994E+02-0.303E+01
CGA:   5    -0.343272907568E+03   -0.77531E+00   -0.32323E+01  8208   0.113E+03-0.837E+02
CGA:   6    -0.344850630539E+03   -0.15777E+01   -0.44408E+01  8208   0.706E+02-0.388E+02
CGA:   7    -0.347592699770E+03   -0.27421E+01   -0.30082E+01  8208   0.204E+02-0.244E-01
CGA:   8    -0.348221069930E+03   -0.62837E+00   -0.42562E+00  8208   0.765E+01 0.699E+01
CGA:   9    -0.348440205580E+03   -0.21914E+00   -0.18175E+00  8208   0.225E+01 0.132E+01
CGA:  10    -0.348554291168E+03   -0.11409E+00   -0.12535E+00  8208   0.589E+01-0.858E-01
CGA:  11    -0.348702828499E+03   -0.14854E+00   -0.13034E+00  8208   0.484E+01 0.639E+00
CGA:  12    -0.348816667269E+03   -0.11384E+00   -0.11991E+00  8208   0.328E+01-0.307E+00
CGA:  13    -0.348876108453E+03   -0.59441E-01   -0.67474E-01  8208   0.256E+01-0.314E+00
CGA:  14    -0.348914450176E+03   -0.38342E-01   -0.49623E-01  8208   0.123E+01-0.419E+00
CGA:  15    -0.348939305171E+03   -0.24855E-01   -0.28558E-01  8208   0.918E+00-0.876E-01
CGA:  16    -0.348965405062E+03   -0.26100E-01   -0.26016E-01  8208   0.948E+00-0.576E-03
CGA:  17    -0.349003127623E+03   -0.37723E-01   -0.36406E-01  8208   0.926E+00 0.105E-01
CGA:  18    -0.349031959172E+03   -0.28832E-01   -0.31126E-01  8208   0.697E+00-0.334E-01
CGA:  19    -0.349052294244E+03   -0.20335E-01   -0.22315E-01  8208   0.463E+00-0.247E-01
CGA:  20    -0.349067287102E+03   -0.14993E-01   -0.15005E-01  8208   0.230E+00-0.324E-03
CGA:  21    -0.349078774251E+03   -0.11487E-01   -0.11862E-01  8208   0.227E+00 0.121E-01
CGA:  22    -0.349091828966E+03   -0.13055E-01   -0.13141E-01  8208   0.140E+00 0.549E-02
CGA:  23    -0.349098253025E+03   -0.64241E-02   -0.65220E-02  8208   0.644E-01 0.118E-02
CGA:  24    -0.349102768820E+03   -0.45158E-02   -0.45139E-02  8208   0.513E-01 0.144E-03
CGA:  25    -0.349106079509E+03   -0.33107E-02   -0.32998E-02  8208   0.399E-01 0.165E-02
CGA:  26    -0.349108930019E+03   -0.28505E-02   -0.28366E-02  8208   0.256E-01 0.106E-02
CGA:  27    -0.349110982434E+03   -0.20524E-02   -0.20476E-02  8208   0.128E-01 0.214E-03
CGA:  28    -0.349111856428E+03   -0.87399E-03   -0.87259E-03  8208   0.106E-01 0.141E-03
CGA:  29    -0.349112755927E+03   -0.89950E-03   -0.89519E-03  8208   0.630E-02 0.149E-03
CGA:  30    -0.349113306081E+03   -0.55015E-03   -0.54778E-03  8208   0.437E-02 0.816E-04
CGA:  31    -0.349113678281E+03   -0.37220E-03   -0.36856E-03  8208   0.446E-02 0.142E-03
CGA:  32    -0.349114093474E+03   -0.41519E-03   -0.41496E-03  8208   0.276E-02 0.974E-05
CGA:  33    -0.349114381082E+03   -0.28761E-03   -0.28828E-03  8208   0.274E-02-0.165E-04
CGA:  34    -0.349114632989E+03   -0.25191E-03   -0.24879E-03  8208   0.153E-02 0.993E-04
CGA:  35    -0.349114782265E+03   -0.14928E-03   -0.14922E-03  8208   0.172E-02 0.241E-05
SDA:  36    -0.349114965632E+03   -0.18337E-03   -0.18194E-03  8208   0.127E-02 0.337E-04
CGA:  37    -0.349115058100E+03   -0.92468E-04   -0.92465E-04  8208   0.610E-03 0.751E-05
CGA:  38    -0.349115140912E+03   -0.82812E-04   -0.82374E-04  8208   0.827E-03 0.696E-05
CGA:  39    -0.349115241136E+03   -0.10022E-03   -0.99813E-04  8208   0.272E-03 0.882E-05
CGA:  40    -0.349115288989E+03   -0.47853E-04   -0.47543E-04  8208   0.280E-03 0.327E-05
CGA:  41    -0.349115342923E+03   -0.53934E-04   -0.54348E-04  8208   0.311E-03-0.425E-05
CGA:  42    -0.349115381035E+03   -0.38112E-04   -0.37538E-04  8208   0.161E-03 0.143E-04
CGA:  43    -0.349115408629E+03   -0.27594E-04   -0.27169E-04  8208   0.201E-03 0.586E-05
CGA:  44    -0.349115429803E+03   -0.21174E-04   -0.21121E-04  8208   0.197E-03 0.470E-05
CGA:  45    -0.349115458068E+03   -0.28265E-04   -0.28337E-04  8208   0.888E-04-0.126E-05
CGA:  46    -0.349115468437E+03   -0.10369E-04   -0.10367E-04  8208   0.503E-04-0.210E-06
CGA:  47    -0.349115474556E+03   -0.61192E-05   -0.61034E-05  8208   0.398E-04 0.580E-06
  34 F= -.34911547E+03 E0= -.34909981E+03  d E =0.220175E+00  mag=    30.4776
       N       E                     dE             d eps       ncg     rms          ort
SDA:   1    -0.338894021539E+03    0.10221E+02    0.00000E+00  8208   0.404E+02 0.000E+00
CGA:   2    -0.344414878995E+03   -0.55209E+01   -0.53832E+01  8208   0.170E+02 0.258E+01
CGA:   3    -0.346416621332E+03   -0.20017E+01   -0.23292E+01  8208   0.416E+02-0.960E+01
CGA:   4    -0.347599603750E+03   -0.11830E+01   -0.22520E+01  8208   0.533E+01-0.211E+00
CGA:   5    -0.347367234170E+03    0.23237E+00   -0.71690E+00  8208   0.833E+02-0.251E+02
CGA:   6    -0.348355617765E+03   -0.98838E+00   -0.42359E+01  8208   0.451E+01-0.492E+01
CGA:   7    -0.348664254654E+03   -0.30864E+00   -0.18459E+00  8208   0.195E+01 0.297E+01
CGA:   8    -0.348786443625E+03   -0.12219E+00   -0.67365E-01  8208   0.981E+00 0.139E+01
CGA:   9    -0.348886647455E+03   -0.10020E+00   -0.12870E+00  8208   0.519E+01-0.610E+00
CGA:  10    -0.348989380517E+03   -0.10273E+00   -0.24845E+00  8208   0.124E+01-0.753E+00
CGA:  11    -0.349087321444E+03   -0.97941E-01   -0.98411E-01  8208   0.134E+01-0.397E+00
CGA:  12    -0.349279369850E+03   -0.19205E+00   -0.18704E+00  8208   0.835E-01 0.421E-01
CGA:  13    -0.349284291228E+03   -0.49214E-02   -0.49972E-02  8208   0.385E-01-0.257E-03
CGA:  14    -0.349290488104E+03   -0.61969E-02   -0.57664E-02  8208   0.510E-01 0.638E-02
CGA:  15    -0.349296330507E+03   -0.58424E-02   -0.58421E-02  8208   0.174E-01-0.125E-02
CGA:  16    -0.349297615842E+03   -0.12853E-02   -0.13031E-02  8208   0.612E-02 0.199E-03
CGA:  17    -0.349298106040E+03   -0.49020E-03   -0.49069E-03  8208   0.323E-02 0.671E-05
CGA:  18    -0.349298549469E+03   -0.44343E-03   -0.44245E-03  8208   0.187E-02 0.188E-04
CGA:  19    -0.349298765045E+03   -0.21558E-03   -0.21538E-03  8208   0.103E-02 0.828E-05
CGA:  20    -0.349298850303E+03   -0.85259E-04   -0.85513E-04  8208   0.570E-03 0.768E-05
CGA:  21    -0.349298913048E+03   -0.62745E-04   -0.62743E-04  8208   0.297E-03 0.317E-06
CGA:  22    -0.349298951539E+03   -0.38491E-04   -0.38276E-04  8208   0.173E-03 0.612E-05
CGA:  23    -0.349298971772E+03   -0.20233E-04   -0.20223E-04  8208   0.141E-03 0.406E-06
CGA:  24    -0.349298985226E+03   -0.13454E-04   -0.13469E-04  8208   0.778E-04 0.185E-05
CGA:  25    -0.349298994193E+03   -0.89675E-05   -0.89576E-05  8208   0.408E-04 0.415E-06
  35 F= -.34929899E+03 E0= -.34928377E+03  d E =-.183520E+00  mag=    30.4135
       N       E                     dE             d eps       ncg     rms          ort
SDA:   1    -0.346276625180E+03    0.30224E+01    0.00000E+00  8208   0.113E+02 0.000E+00
CGA:   2    -0.347913725083E+03   -0.16371E+01   -0.16180E+01  8208   0.539E+01 0.351E+00
CGA:   3    -0.348523156540E+03   -0.60943E+00   -0.62338E+00  8208   0.794E+01-0.124E+01
CGA:   4    -0.348993690678E+03   -0.47053E+00   -0.47538E+00  8208   0.253E+01 0.267E-01
CGA:   5    -0.349146618543E+03   -0.15293E+00   -0.15490E+00  8208   0.133E+01 0.150E-01
CGA:   6    -0.349267539286E+03   -0.12092E+00   -0.11995E+00  8208   0.392E+00-0.253E-01
CGA:   7    -0.349297197009E+03   -0.29658E-01   -0.30184E-01  8208   0.252E+00 0.521E-02
CGA:   8    -0.349315230469E+03   -0.18033E-01   -0.18380E-01  8208   0.122E+00 0.139E-02
CGA:   9    -0.349324308007E+03   -0.90775E-02   -0.90354E-02  8208   0.417E-01-0.206E-03
CGA:  10    -0.349328595969E+03   -0.42880E-02   -0.42869E-02  8208   0.426E-01 0.131E-03
CGA:  11    -0.349331362070E+03   -0.27661E-02   -0.28113E-02  8208   0.128E-01 0.519E-04
CGA:  12    -0.349332566041E+03   -0.12040E-02   -0.12039E-02  8208   0.692E-02-0.228E-05
CGA:  13    -0.349333258466E+03   -0.69242E-03   -0.69253E-03  8208   0.652E-02-0.137E-04
CGA:  14    -0.349333705927E+03   -0.44746E-03   -0.44929E-03  8208   0.159E-02 0.113E-04
CGA:  15    -0.349333931963E+03   -0.22604E-03   -0.22587E-03  8208   0.162E-02 0.323E-05
CGA:  16    -0.349334050906E+03   -0.11894E-03   -0.11882E-03  8208   0.840E-03-0.122E-05
CGA:  17    -0.349334125353E+03   -0.74447E-04   -0.74476E-04  8208   0.294E-03 0.287E-05
CGA:  18    -0.349334172022E+03   -0.46669E-04   -0.46547E-04  8208   0.358E-03 0.182E-05
CGA:  19    -0.349334195382E+03   -0.23360E-04   -0.23346E-04  8208   0.113E-03-0.518E-06
CGA:  20    -0.349334207604E+03   -0.12222E-04   -0.12217E-04  8208   0.839E-04 0.289E-06
CGA:  21    -0.349334219160E+03   -0.11556E-04   -0.11568E-04  8208   0.491E-04-0.392E-06
CGA:  22    -0.349334222601E+03   -0.34407E-05   -0.34366E-05  8208   0.280E-04-0.232E-06
  36 F= -.34933422E+03 E0= -.34931919E+03  d E =-.352284E-01  mag=    30.3824
       N       E                     dE             d eps       ncg     rms          ort
SDA:   1    -0.349034404283E+03    0.29981E+00    0.00000E+00  8208   0.984E+00 0.000E+00
CGA:   2    -0.349206353072E+03   -0.17195E+00   -0.17133E+00  8208   0.586E+00 0.759E-02
CGA:   3    -0.349272574678E+03   -0.66222E-01   -0.66973E-01  8208   0.627E+00-0.429E-01
CGA:   4    -0.349314224986E+03   -0.41650E-01   -0.42452E-01  8208   0.137E+00 0.244E-02
CGA:   5    -0.349330698840E+03   -0.16474E-01   -0.16463E-01  8208   0.559E-01 0.391E-03
CGA:   6    -0.349335121696E+03   -0.44229E-02   -0.43781E-02  8208   0.262E-01-0.328E-03
CGA:   7    -0.349337239835E+03   -0.21181E-02   -0.21217E-02  8208   0.120E-01 0.526E-04
CGA:   8    -0.349338349438E+03   -0.11096E-02   -0.11102E-02  8208   0.363E-02 0.336E-04
CGA:   9    -0.349338803756E+03   -0.45432E-03   -0.45448E-03  8208   0.232E-02-0.382E-05
CGA:  10    -0.349339004212E+03   -0.20046E-03   -0.20077E-03  8208   0.121E-02 0.980E-05
CGA:  11    -0.349339101882E+03   -0.97670E-04   -0.97600E-04  8208   0.511E-03-0.283E-06
CGA:  12    -0.349339180603E+03   -0.78721E-04   -0.78655E-04  8208   0.257E-03 0.127E-05
CGA:  13    -0.349339205363E+03   -0.24760E-04   -0.24760E-04  8208   0.203E-03 0.178E-06
CGA:  14    -0.349339225722E+03   -0.20359E-04   -0.20362E-04  8208   0.120E-03 0.109E-05
CGA:  15    -0.349339239329E+03   -0.13607E-04   -0.13606E-04  8208   0.412E-04 0.128E-06
CGA:  16    -0.349339246231E+03   -0.69024E-05   -0.69016E-05  8208   0.360E-04 0.226E-07
  37 F= -.34933925E+03 E0= -.34932429E+03  d E =-.502363E-02  mag=    30.3765
       N       E                     dE             d eps       ncg     rms          ort
SDA:   1    -0.349111738358E+03    0.22750E+00    0.00000E+00  8208   0.685E+00 0.000E+00
CGA:   2    -0.349235105795E+03   -0.12337E+00   -0.12054E+00  8208   0.679E+00 0.354E-01
CGA:   3    -0.349291671342E+03   -0.56566E-01   -0.52818E-01  8208   0.286E+00-0.232E-02
CGA:   4    -0.349326370413E+03   -0.34699E-01   -0.34666E-01  8208   0.965E-01 0.143E-02
CGA:   5    -0.349336602400E+03   -0.10232E-01   -0.10228E-01  8208   0.415E-01-0.857E-03
CGA:   6    -0.349339760073E+03   -0.31577E-02   -0.32016E-02  8208   0.185E-01 0.200E-03
CGA:   7    -0.349341391750E+03   -0.16317E-02   -0.16272E-02  8208   0.524E-02-0.662E-04
CGA:   8    -0.349342111095E+03   -0.71935E-03   -0.71893E-03  8208   0.242E-02 0.112E-04
CGA:   9    -0.349342315024E+03   -0.20393E-03   -0.20378E-03  8208   0.146E-02-0.279E-06
CGA:  10    -0.349342467519E+03   -0.15250E-03   -0.15250E-03  8208   0.619E-03 0.384E-05
CGA:  11    -0.349342541699E+03   -0.74180E-04   -0.74183E-04  8208   0.284E-03 0.172E-06
CGA:  12    -0.349342578003E+03   -0.36304E-04   -0.36265E-04  8208   0.298E-03 0.163E-05
CGA:  13    -0.349342604250E+03   -0.26247E-04   -0.26244E-04  8208   0.989E-04 0.276E-06
CGA:  14    -0.349342620960E+03   -0.16710E-04   -0.16667E-04  8208   0.832E-04 0.711E-06
CGA:  15    -0.349342628683E+03   -0.77228E-05   -0.77173E-05  8208   0.494E-04-0.168E-06
  38 F= -.34934263E+03 E0= -.34932766E+03  d E =-.338245E-02  mag=    30.3827
       N       E                     dE             d eps       ncg     rms          ort
SDA:   1    -0.349297898242E+03    0.44723E-01    0.00000E+00  8208   0.145E+00 0.000E+00
CGA:   2    -0.349316625088E+03   -0.18727E-01   -0.18517E-01  8208   0.183E+00 0.697E-02
CGA:   3    -0.349333360034E+03   -0.16735E-01   -0.16534E-01  8208   0.535E-01-0.210E-02
CGA:   4    -0.349340127234E+03   -0.67672E-02   -0.67676E-02  8208   0.242E-01-0.168E-05
CGA:   5    -0.349342136329E+03   -0.20091E-02   -0.19993E-02  8208   0.109E-01-0.710E-04
CGA:   6    -0.349342993677E+03   -0.85735E-03   -0.86012E-03  8208   0.327E-02 0.168E-04
CGA:   7    -0.349343354172E+03   -0.36050E-03   -0.36059E-03  8208   0.134E-02-0.121E-04
CGA:   8    -0.349343465847E+03   -0.11167E-03   -0.11193E-03  8208   0.708E-03 0.475E-05
CGA:   9    -0.349343538585E+03   -0.72738E-04   -0.72734E-04  8208   0.297E-03-0.864E-06
CGA:  10    -0.349343566658E+03   -0.28073E-04   -0.28079E-04  8208   0.157E-03 0.712E-06
CGA:  11    -0.349343584822E+03   -0.18164E-04   -0.18173E-04  8208   0.936E-04-0.668E-06
CGA:  12    -0.349343592751E+03   -0.79286E-05   -0.79424E-05  8208   0.488E-04 0.595E-06
  39 F= -.34934359E+03 E0= -.34932857E+03  d E =-.964068E-03  mag=    30.3907
       N       E                     dE             d eps       ncg     rms          ort
SDA:   1    -0.349232586106E+03    0.11100E+00    0.00000E+00  8208   0.320E+00 0.000E+00
CGA:   2    -0.349293363807E+03   -0.60778E-01   -0.60787E-01  8208   0.375E+00 0.511E-04
CGA:   3    -0.349320639038E+03   -0.27275E-01   -0.28261E-01  8208   0.159E+00 0.175E-02
CGA:   4    -0.349333753135E+03   -0.13114E-01   -0.12980E-01  8208   0.602E-01-0.816E-03
CGA:   5    -0.349340895048E+03   -0.71419E-02   -0.71440E-02  8208   0.156E-01-0.971E-04
CGA:   6    -0.349342600454E+03   -0.17054E-02   -0.17050E-02  8208   0.724E-02 0.102E-03
CGA:   7    -0.349343271451E+03   -0.67100E-03   -0.67093E-03  8208   0.280E-02 0.120E-05
CGA:   8    -0.349343483268E+03   -0.21182E-03   -0.21061E-03  8208   0.152E-02-0.345E-05
CGA:   9    -0.349343655476E+03   -0.17221E-03   -0.17216E-03  8208   0.456E-03 0.460E-05
CGA:  10    -0.349343715597E+03   -0.60121E-04   -0.60143E-04  8208   0.267E-03-0.777E-06
CGA:  11    -0.349343745239E+03   -0.29642E-04   -0.29638E-04  8208   0.186E-03 0.885E-06
CGA:  12    -0.349343758791E+03   -0.13552E-04   -0.13516E-04  8208   0.816E-04-0.693E-06
CGA:  13    -0.349343773260E+03   -0.14469E-04   -0.14465E-04  8208   0.494E-04 0.646E-07
CGA:  14    -0.349343778860E+03   -0.56001E-05   -0.55998E-05  8208   0.330E-04 0.753E-07
  40 F= -.34934378E+03 E0= -.34932872E+03  d E =-.186109E-03  mag=    30.4007
       N       E                     dE             d eps       ncg     rms          ort
SDA:   1    -0.349312657235E+03    0.31116E-01    0.00000E+00  8208   0.132E+00 0.000E+00
CGA:   2    -0.349323617491E+03   -0.10960E-01   -0.11176E-01  8208   0.114E+00 0.185E-02
CGA:   3    -0.349335131943E+03   -0.11514E-01   -0.11490E-01  8208   0.398E-01-0.117E-02
CGA:   4    -0.349340877828E+03   -0.57459E-02   -0.57387E-02  8208   0.201E-01 0.151E-03
CGA:   5    -0.349342447381E+03   -0.15696E-02   -0.15606E-02  8208   0.907E-02-0.206E-04
CGA:   6    -0.349343205786E+03   -0.75840E-03   -0.76040E-03  8208   0.301E-02 0.205E-04
CGA:   7    -0.349343494398E+03   -0.28861E-03   -0.28839E-03  8208   0.113E-02-0.821E-05
CGA:   8    -0.349343609290E+03   -0.11489E-03   -0.11493E-03  8208   0.552E-03 0.500E-05
CGA:   9    -0.349343657044E+03   -0.47754E-04   -0.47698E-04  8208   0.273E-03-0.956E-06
CGA:  10    -0.349343682130E+03   -0.25086E-04   -0.25096E-04  8208   0.119E-03 0.795E-06
CGA:  11    -0.349343697763E+03   -0.15633E-04   -0.15639E-04  8208   0.606E-04-0.227E-06
CGA:  12    -0.349343702719E+03   -0.49559E-05   -0.49668E-05  8208   0.403E-04 0.410E-06
  41 F= -.34934370E+03 E0= -.34932863E+03  d E =0.761410E-04  mag=    30.4031
