       N       E                     dE             d eps       ncg     rms          rms(c)
DAV:   1     0.525308967119E+04    0.52531E+04   -0.24507E+05 29880   0.163E+03
DAV:   2     0.290061536291E+03   -0.49630E+04   -0.46560E+04 30896   0.473E+02
DAV:   3    -0.317600828466E+03   -0.60766E+03   -0.57001E+03 32104   0.176E+02
DAV:   4    -0.342662243848E+03   -0.25061E+02   -0.24496E+02 34144   0.382E+01
DAV:   5    -0.343546977300E+03   -0.88473E+00   -0.88221E+00 42920   0.672E+00    0.476E-01
DAV:   6    -0.343703195664E+03   -0.15622E+00   -0.26476E-01 44728   0.118E+00    0.267E+00
DAV:   7    -0.343698749042E+03    0.44466E-02   -0.56766E-02 42760   0.409E-01    0.258E+00
DAV:   8    -0.343698863727E+03   -0.11469E-03   -0.24749E-02 37616   0.318E-01    0.134E+00
DAV:   9    -0.343699174141E+03   -0.31041E-03   -0.32844E-03 36912   0.224E-01    0.455E-01
DAV:  10    -0.343699787719E+03   -0.61358E-03   -0.90215E-04 35000   0.985E-02    0.513E-01
DAV:  11    -0.343699821304E+03   -0.33586E-04   -0.52895E-04 36088   0.719E-02    0.462E-01
DAV:  12    -0.343699722831E+03    0.98473E-04   -0.63448E-04 33552   0.685E-02    0.291E-01
DAV:  13    -0.343699716829E+03    0.60019E-05   -0.22123E-04 27896   0.381E-02    0.179E-01
DAV:  14    -0.343699742098E+03   -0.25269E-04   -0.56839E-05 18584   0.188E-02    0.167E-01
DAV:  15    -0.343699747602E+03   -0.55043E-05   -0.28410E-05 16432   0.152E-02
   1 F= -.34369975E+03 E0= -.34366762E+03  d E =-.343700E+03  mag=    11.9984
