       N       E                     dE             d eps       ncg     rms          ort
DAV:   1     0.846086208081E+04    0.84609E+04   -0.38396E+05  7296   0.188E+03
DAV:   2     0.559133829982E+03   -0.79017E+04   -0.73788E+04  7296   0.552E+02
DAV:   3    -0.337912381146E+03   -0.89705E+03   -0.86269E+03  7296   0.208E+02
DAV:   4    -0.368402025986E+03   -0.30490E+02   -0.30182E+02  7296   0.407E+01
DAV:   5    -0.369180143705E+03   -0.77812E+00   -0.77358E+00  7296   0.631E+00
SDA:   6    -0.151133638060E+02    0.35407E+03   -0.77358E+00  7296   0.233E+04 0.000E+00
CGA:   7    -0.156226176092E+03   -0.14111E+03   -0.12393E+03  7296   0.138E+04 0.396E+03
CGA:   8    -0.226222552095E+03   -0.69996E+02   -0.64341E+02  7296   0.290E+03 0.256E+03
CGA:   9    -0.240265494310E+03   -0.14043E+02   -0.12977E+02  7296   0.454E+03-0.145E+03
CGA:  10    -0.237608769745E+03    0.26567E+01   -0.20456E+02  7296   0.695E+03-0.202E+03
CGA:  11    -0.252530177277E+03   -0.14921E+02   -0.95589E+01  7296   0.438E+03-0.233E+03
CGA:  12    -0.253038855809E+03   -0.50868E+00   -0.10476E+02  7296   0.122E+04-0.497E+03
CGA:  13    -0.215049352049E+03    0.37990E+02   -0.37971E+02  7296   0.690E+04-0.905E+03
CGA:  14    -0.630231673737E+02    0.15203E+03   -0.41432E+03  7296   0.867E+04-0.254E+04
CGA:  15    -0.111928775946E+03   -0.48906E+02   -0.23342E+03  7296   0.105E+05-0.111E+05
CGA:  16     0.854927698986E+02    0.19742E+03   -0.53737E+03  7296   0.638E+04-0.367E+04
CGA:  17    -0.841675494789E+02   -0.16966E+03   -0.13193E+03  7296   0.717E+04-0.864E+04
CGA:  18     0.845721121587E+02    0.16874E+03   -0.30958E+03  7296   0.834E+04-0.415E+04
CGA:  19     0.641377730330E+02   -0.20434E+02   -0.34344E+03  7296   0.129E+05-0.849E+04
CGA:  20     0.350651417822E+02   -0.29073E+02   -0.59979E+03  7296   0.102E+05-0.530E+04
CGA:  21    -0.178139793320E+03   -0.21320E+03   -0.19852E+03  7296   0.475E+04 0.355E+04
CGA:  22    -0.410582745154E+02    0.13708E+03   -0.19207E+03  7296   0.102E+05-0.554E+04
CGA:  23     0.148499631667E+03    0.18956E+03   -0.38313E+03  7296   0.149E+05-0.880E+04
CGA:  24     0.229826290482E+03    0.81327E+02   -0.56980E+03  7296   0.523E+04-0.450E+04
CGA:  25    -0.247667257429E+03   -0.47749E+03   -0.73062E+02  7296   0.752E+03 0.209E+03
CGA:  26    -0.256931256356E+03   -0.92640E+01   -0.13071E+02  7296   0.694E+03 0.370E+02
CGA:  27    -0.266633974078E+03   -0.97027E+01   -0.10260E+02  7296   0.584E+03-0.256E+03
CGA:  28    -0.263919946954E+03    0.27140E+01   -0.34794E+01  7296   0.127E+04-0.137E+04
CGA:  29    -0.268738884528E+03   -0.48189E+01   -0.33804E+02  7296   0.373E+03-0.338E+03
CGA:  30    -0.276273138622E+03   -0.75343E+01   -0.41062E+01  7296   0.705E+02 0.110E+03
CGA:  31    -0.277026976367E+03   -0.75384E+00   -0.86607E+00  7296   0.978E+02-0.182E+02
CGA:  32    -0.277376105663E+03   -0.34913E+00   -0.46033E+00  7296   0.126E+03-0.208E+02
CGA:  33    -0.276578605487E+03    0.79750E+00   -0.89545E+00  7296   0.190E+03-0.181E+03
CGA:  34    -0.279206323436E+03   -0.26277E+01   -0.38858E+01  7296   0.348E+02-0.357E+02
CGA:  35    -0.279723324075E+03   -0.51700E+00   -0.66793E+00  7296   0.341E+02-0.582E+01
CGA:  36    -0.280880516848E+03   -0.11572E+01   -0.11225E+01  7296   0.302E+02 0.363E+01
CGA:  37    -0.282227907622E+03   -0.13474E+01   -0.93266E+00  7296   0.196E+02 0.103E+02
CGA:  38    -0.283311215549E+03   -0.10833E+01   -0.11629E+01  7296   0.311E+02 0.153E+01
CGA:  39    -0.284029127329E+03   -0.71791E+00   -0.10667E+01  7296   0.211E+02-0.171E+01
CGA:  40    -0.284450308167E+03   -0.42118E+00   -0.39599E+00  7296   0.860E+01 0.155E+01
CGA:  41    -0.284687548221E+03   -0.23724E+00   -0.21610E+00  7296   0.582E+01 0.649E+00
CGA:  42    -0.284957215122E+03   -0.26967E+00   -0.28319E+00  7296   0.874E+01 0.351E+00
CGA:  43    -0.285315054872E+03   -0.35784E+00   -0.38934E+00  7296   0.382E+01 0.677E+00
CGA:  44    -0.285454065565E+03   -0.13901E+00   -0.14371E+00  7296   0.157E+01 0.171E-01
CGA:  45    -0.285568435751E+03   -0.11437E+00   -0.10944E+00  7296   0.155E+01 0.220E+00
CGA:  46    -0.285694330377E+03   -0.12589E+00   -0.11983E+00  7296   0.636E+00 0.301E+00
CGA:  47    -0.285755998008E+03   -0.61668E-01   -0.58848E-01  7296   0.416E+00 0.943E-01
CGA:  48    -0.285848546620E+03   -0.92549E-01   -0.87024E-01  7296   0.414E+00 0.455E-01
CGA:  49    -0.285896101097E+03   -0.47554E-01   -0.46451E-01  7296   0.195E+00 0.245E-01
CGA:  50    -0.285997839107E+03   -0.10174E+00   -0.47112E-01  7296   0.739E+00 0.210E+00
CGA:  51    -0.286047069455E+03   -0.49230E-01   -0.49285E-01  7296   0.367E+00 0.365E-02
CGA:  52    -0.286135069143E+03   -0.88000E-01   -0.42528E-02  7296   0.967E+00-0.180E+00
CGA:  53    -0.286173423882E+03   -0.38355E-01   -0.38156E-01  7296   0.329E+00 0.196E-02
CGA:  54    -0.286193729830E+03   -0.20306E-01   -0.20541E-01  7296   0.872E-01-0.200E-02
CGA:  55    -0.286202846190E+03   -0.91164E-02   -0.91163E-02  7296   0.640E-01 0.363E-05
CGA:  56    -0.286209141346E+03   -0.62952E-02   -0.62968E-02  7296   0.320E-01 0.373E-04
CGA:  57    -0.286212176491E+03   -0.30351E-02   -0.30459E-02  7296   0.215E-01 0.112E-03
CGA:  58    -0.286214736047E+03   -0.25596E-02   -0.25606E-02  7296   0.128E-01 0.166E-03
CGA:  59    -0.286216354978E+03   -0.16189E-02   -0.16219E-02  7296   0.165E-01-0.415E-03
CGA:  60    -0.286218171194E+03   -0.18162E-02   -0.18055E-02  7296   0.110E-01-0.479E-03
CGA:  61    -0.286218983315E+03   -0.81212E-03   -0.81482E-03  7296   0.781E-02-0.464E-05
CGA:  62    -0.286219987071E+03   -0.10038E-02   -0.10036E-02  7296   0.828E-02 0.319E-05
CGA:  63    -0.286220623369E+03   -0.63630E-03   -0.63068E-03  7296   0.338E-02 0.833E-07
CGA:  64    -0.286220893491E+03   -0.27012E-03   -0.26853E-03  7296   0.232E-02-0.126E-04
CGA:  65    -0.286221161092E+03   -0.26760E-03   -0.26760E-03  7296   0.247E-02-0.169E-04
CGA:  66    -0.286221358893E+03   -0.19780E-03   -0.19718E-03  7296   0.114E-02-0.174E-04
CGA:  67    -0.286221447983E+03   -0.89090E-04   -0.88757E-04  7296   0.838E-03-0.871E-05
CGA:  68    -0.286221566270E+03   -0.11829E-03   -0.11862E-03  7296   0.134E-02-0.112E-04
CGA:  69    -0.286221682685E+03   -0.11641E-03   -0.11480E-03  7296   0.641E-03-0.169E-04
CGA:  70    -0.286221730454E+03   -0.47769E-04   -0.47466E-04  7296   0.493E-03-0.276E-05
CGA:  71    -0.286221792499E+03   -0.62045E-04   -0.62101E-04  7296   0.524E-03-0.341E-05
CGA:  72    -0.286221826691E+03   -0.34192E-04   -0.34102E-04  7296   0.196E-03-0.121E-05
CGA:  73    -0.286221844908E+03   -0.18217E-04   -0.18208E-04  7296   0.208E-03-0.387E-06
CGA:  74    -0.286221867412E+03   -0.22503E-04   -0.22503E-04  7296   0.187E-03 0.641E-06
CGA:  75    -0.286221880399E+03   -0.12988E-04   -0.13053E-04  7296   0.875E-04 0.173E-05
CGA:  76    -0.286221887167E+03   -0.67677E-05   -0.68465E-05  7296   0.738E-04 0.265E-05
   1 F= -.28622189E+03 E0= -.28621472E+03  d E =-.286222E+03  mag=    18.0000
       N       E                     dE             d eps       ncg     rms          ort
SDA:   1    -0.286222339318E+03   -0.45892E-03    0.00000E+00  7296   0.148E-01 0.000E+00
CGA:   2    -0.286223049443E+03   -0.71013E-03   -0.70890E-03  7296   0.557E-03 0.171E-04
CGA:   3    -0.286223105221E+03   -0.55777E-04   -0.55779E-04  7296   0.298E-03 0.856E-06
CGA:   4    -0.286223147162E+03   -0.41942E-04   -0.41864E-04  7296   0.978E-04 0.205E-05
CGA:   5    -0.286223159512E+03   -0.12349E-04   -0.12330E-04  7296   0.547E-04 0.910E-06
CGA:   6    -0.286223165483E+03   -0.59715E-05   -0.59698E-05  7296   0.136E-04 0.556E-06
   2 F= -.28622317E+03 E0= -.28621601E+03  d E =-.127832E-02  mag=    18.0000
       N       E                     dE             d eps       ncg     rms          ort
SDA:   1    -0.285957078960E+03    0.26608E+00    0.00000E+00  7296   0.957E+00 0.000E+00
CGA:   2    -0.286172525612E+03   -0.21545E+00   -0.21534E+00  7296   0.673E+00 0.979E-03
CGA:   3    -0.286248452891E+03   -0.75927E-01   -0.75926E-01  7296   0.379E+00-0.259E-02
CGA:   4    -0.286284857699E+03   -0.36405E-01   -0.36442E-01  7296   0.952E-01 0.732E-03
CGA:   5    -0.286295603583E+03   -0.10746E-01   -0.10746E-01  7296   0.419E-01-0.144E-03
CGA:   6    -0.286299508846E+03   -0.39053E-02   -0.39059E-02  7296   0.115E-01 0.121E-04
CGA:   7    -0.286301230395E+03   -0.17215E-02   -0.17216E-02  7296   0.452E-02-0.605E-06
CGA:   8    -0.286301690797E+03   -0.46040E-03   -0.46046E-03  7296   0.216E-02 0.318E-05
CGA:   9    -0.286301991949E+03   -0.30115E-03   -0.30111E-03  7296   0.958E-03 0.177E-05
CGA:  10    -0.286302087868E+03   -0.95919E-04   -0.95949E-04  7296   0.465E-03 0.176E-05
CGA:  11    -0.286302162284E+03   -0.74416E-04   -0.74383E-04  7296   0.273E-03 0.728E-06
CGA:  12    -0.286302190474E+03   -0.28190E-04   -0.28196E-04  7296   0.143E-03 0.469E-06
CGA:  13    -0.286302216535E+03   -0.26061E-04   -0.26050E-04  7296   0.727E-04 0.162E-06
CGA:  14    -0.286302224049E+03   -0.75141E-05   -0.75210E-05  7296   0.395E-04 0.454E-06
   3 F= -.28630222E+03 E0= -.28629508E+03  d E =-.790586E-01  mag=    18.0000
       N       E                     dE             d eps       ncg     rms          ort
SDA:   1    -0.284227420604E+03    0.20748E+01    0.00000E+00  7296   0.625E+01 0.000E+00
CGA:   2    -0.285656671471E+03   -0.14293E+01   -0.14275E+01  7296   0.430E+01 0.163E-01
CGA:   3    -0.286161876942E+03   -0.50521E+00   -0.50485E+00  7296   0.210E+01-0.201E-01
CGA:   4    -0.286384247133E+03   -0.22237E+00   -0.22253E+00  7296   0.502E+00 0.297E-02
CGA:   5    -0.286450673476E+03   -0.66426E-01   -0.66436E-01  7296   0.185E+00-0.645E-03
CGA:   6    -0.286468923167E+03   -0.18250E-01   -0.18264E-01  7296   0.727E-01 0.140E-03
CGA:   7    -0.286477713027E+03   -0.87899E-02   -0.87896E-02  7296   0.286E-01-0.670E-04
CGA:   8    -0.286480598892E+03   -0.28859E-02   -0.28876E-02  7296   0.131E-01 0.302E-04
CGA:   9    -0.286482373343E+03   -0.17745E-02   -0.17746E-02  7296   0.635E-02-0.129E-05
CGA:  10    -0.286482996294E+03   -0.62295E-03   -0.62325E-03  7296   0.268E-02 0.630E-05
CGA:  11    -0.286483488159E+03   -0.49186E-03   -0.49164E-03  7296   0.140E-02 0.364E-05
CGA:  12    -0.286483657976E+03   -0.16982E-03   -0.16983E-03  7296   0.957E-03 0.271E-05
CGA:  13    -0.286483803951E+03   -0.14597E-03   -0.14592E-03  7296   0.431E-03 0.198E-05
CGA:  14    -0.286483851175E+03   -0.47224E-04   -0.47259E-04  7296   0.252E-03 0.206E-05
CGA:  15    -0.286483885560E+03   -0.34385E-04   -0.34359E-04  7296   0.127E-03 0.236E-05
CGA:  16    -0.286483898256E+03   -0.12696E-04   -0.12740E-04  7296   0.457E-04 0.167E-05
CGA:  17    -0.286483906472E+03   -0.82155E-05   -0.81370E-05  7296   0.231E-04 0.151E-05
   4 F= -.28648391E+03 E0= -.28647679E+03  d E =-.181682E+00  mag=    18.0000
       N       E                     dE             d eps       ncg     rms          ort
SDA:   1    -0.285480737402E+03    0.10032E+01    0.00000E+00  7296   0.310E+01 0.000E+00
CGA:   2    -0.286210671973E+03   -0.72993E+00   -0.72953E+00  7296   0.199E+01 0.360E-02
CGA:   3    -0.286449638488E+03   -0.23897E+00   -0.23884E+00  7296   0.106E+01-0.478E-02
CGA:   4    -0.286551402435E+03   -0.10176E+00   -0.10197E+00  7296   0.288E+00 0.763E-03
CGA:   5    -0.286585102803E+03   -0.33700E-01   -0.33685E-01  7296   0.123E+00-0.530E-03
CGA:   6    -0.286596041302E+03   -0.10938E-01   -0.10954E-01  7296   0.379E-01 0.244E-04
CGA:   7    -0.286601118984E+03   -0.50777E-02   -0.50780E-02  7296   0.149E-01-0.189E-04
CGA:   8    -0.286602686626E+03   -0.15676E-02   -0.15680E-02  7296   0.647E-02 0.648E-05
CGA:   9    -0.286603625624E+03   -0.93900E-03   -0.93905E-03  7296   0.302E-02-0.855E-06
CGA:  10    -0.286603934295E+03   -0.30867E-03   -0.30879E-03  7296   0.137E-02 0.308E-05
CGA:  11    -0.286604170400E+03   -0.23611E-03   -0.23600E-03  7296   0.814E-03 0.240E-05
CGA:  12    -0.286604252430E+03   -0.82030E-04   -0.82087E-04  7296   0.486E-03 0.164E-05
CGA:  13    -0.286604332842E+03   -0.80412E-04   -0.80363E-04  7296   0.235E-03 0.129E-05
CGA:  14    -0.286604359084E+03   -0.26242E-04   -0.26258E-04  7296   0.125E-03 0.951E-06
CGA:  15    -0.286604378632E+03   -0.19549E-04   -0.19511E-04  7296   0.567E-04 0.136E-05
CGA:  16    -0.286604384677E+03   -0.60449E-05   -0.60651E-05  7296   0.259E-04 0.876E-06
   5 F= -.28660438E+03 E0= -.28659726E+03  d E =-.120478E+00  mag=    18.0000
       N       E                     dE             d eps       ncg     rms          ort
SDA:   1    -0.274235642317E+03    0.12369E+02    0.00000E+00  7296   0.362E+02 0.000E+00
CGA:   2    -0.282173374297E+03   -0.79377E+01   -0.79078E+01  7296   0.252E+02 0.314E+00
CGA:   3    -0.284932354835E+03   -0.27590E+01   -0.27405E+01  7296   0.115E+02-0.169E+00
CGA:   4    -0.286278739210E+03   -0.13464E+01   -0.13479E+01  7296   0.296E+01 0.398E-01
CGA:   5    -0.286637880970E+03   -0.35914E+00   -0.35893E+00  7296   0.139E+01-0.873E-02
CGA:   6    -0.286760115292E+03   -0.12223E+00   -0.12263E+00  7296   0.421E+00 0.375E-03
CGA:   7    -0.286813650429E+03   -0.53535E-01   -0.53533E-01  7296   0.195E+00-0.666E-03
CGA:   8    -0.286834179331E+03   -0.20529E-01   -0.20552E-01  7296   0.675E-01 0.397E-03
CGA:   9    -0.286844692450E+03   -0.10513E-01   -0.10514E-01  7296   0.418E-01 0.215E-05
CGA:  10    -0.286848613534E+03   -0.39211E-02   -0.39259E-02  7296   0.147E-01 0.339E-04
CGA:  11    -0.286851489617E+03   -0.28761E-02   -0.28750E-02  7296   0.105E-01 0.146E-04
CGA:  12    -0.286852533859E+03   -0.10442E-02   -0.10454E-02  7296   0.528E-02 0.159E-04
CGA:  13    -0.286853439037E+03   -0.90518E-03   -0.90464E-03  7296   0.346E-02 0.135E-04
CGA:  14    -0.286853774419E+03   -0.33538E-03   -0.33576E-03  7296   0.132E-02 0.864E-05
CGA:  15    -0.286853991212E+03   -0.21679E-03   -0.21651E-03  7296   0.867E-03 0.818E-05
CGA:  16    -0.286854080348E+03   -0.89136E-04   -0.89265E-04  7296   0.249E-03 0.425E-05
CGA:  17    -0.286854124536E+03   -0.44188E-04   -0.44048E-04  7296   0.187E-03 0.300E-05
CGA:  18    -0.286854142205E+03   -0.17669E-04   -0.17730E-04  7296   0.596E-04 0.151E-05
CGA:  19    -0.286854152306E+03   -0.10101E-04   -0.10061E-04  7296   0.512E-04 0.105E-05
CGA:  20    -0.286854158644E+03   -0.63385E-05   -0.63428E-05  7296   0.234E-04 0.405E-06
   6 F= -.28685416E+03 E0= -.28684691E+03  d E =-.249774E+00  mag=    18.0000
       N       E                     dE             d eps       ncg     rms          ort
SDA:   1    -0.280753054747E+03    0.61011E+01    0.00000E+00  7296   0.165E+02 0.000E+00
CGA:   2    -0.284880382593E+03   -0.41273E+01   -0.41221E+01  7296   0.105E+02 0.448E-01
CGA:   3    -0.286151914784E+03   -0.12715E+01   -0.12697E+01  7296   0.522E+01-0.344E-01
CGA:   4    -0.286668879285E+03   -0.51696E+00   -0.51849E+00  7296   0.138E+01 0.532E-02
CGA:   5    -0.286834619912E+03   -0.16574E+00   -0.16569E+00  7296   0.541E+00-0.124E-02
CGA:   6    -0.286883902836E+03   -0.49283E-01   -0.49406E-01  7296   0.188E+00 0.127E-03
CGA:   7    -0.286908000452E+03   -0.24098E-01   -0.24096E-01  7296   0.749E-01-0.186E-03
CGA:   8    -0.286915761176E+03   -0.77607E-02   -0.77672E-02  7296   0.311E-01 0.684E-04
CGA:   9    -0.286920325693E+03   -0.45645E-02   -0.45647E-02  7296   0.136E-01-0.414E-05
CGA:  10    -0.286921742024E+03   -0.14163E-02   -0.14169E-02  7296   0.667E-02 0.105E-04
CGA:  11    -0.286922909868E+03   -0.11678E-02   -0.11675E-02  7296   0.363E-02 0.872E-05
CGA:  12    -0.286923323293E+03   -0.41343E-03   -0.41365E-03  7296   0.258E-02 0.830E-05
CGA:  13    -0.286923716036E+03   -0.39274E-03   -0.39261E-03  7296   0.122E-02 0.717E-05
CGA:  14    -0.286923853895E+03   -0.13786E-03   -0.13796E-03  7296   0.681E-03 0.455E-05
CGA:  15    -0.286923956075E+03   -0.10218E-03   -0.10211E-03  7296   0.320E-03 0.421E-05
CGA:  16    -0.286923989218E+03   -0.33142E-04   -0.33199E-04  7296   0.136E-03 0.190E-05
CGA:  17    -0.286924012415E+03   -0.23197E-04   -0.23126E-04  7296   0.747E-04 0.186E-05
CGA:  18    -0.286924019886E+03   -0.74714E-05   -0.74928E-05  7296   0.366E-04 0.614E-06
   7 F= -.28692402E+03 E0= -.28691666E+03  d E =-.698612E-01  mag=    18.0000
       N       E                     dE             d eps       ncg     rms          ort
SDA:   1    -0.273658414874E+03    0.13266E+02    0.00000E+00  7296   0.346E+02 0.000E+00
CGA:   2    -0.282274881344E+03   -0.86165E+01   -0.86091E+01  7296   0.285E+02 0.608E-01
CGA:   3    -0.285105261638E+03   -0.28304E+01   -0.28154E+01  7296   0.112E+02 0.257E-01
CGA:   4    -0.286447350184E+03   -0.13421E+01   -0.13431E+01  7296   0.262E+01 0.214E-01
CGA:   5    -0.286766852906E+03   -0.31950E+00   -0.31923E+00  7296   0.117E+01-0.663E-02
CGA:   6    -0.286872474104E+03   -0.10562E+00   -0.10601E+00  7296   0.361E+00 0.335E-03
CGA:   7    -0.286921145527E+03   -0.48671E-01   -0.48672E-01  7296   0.171E+00-0.258E-03
CGA:   8    -0.286937191477E+03   -0.16046E-01   -0.16063E-01  7296   0.606E-01 0.930E-04
CGA:   9    -0.286946722550E+03   -0.95311E-02   -0.95291E-02  7296   0.276E-01 0.640E-04
CGA:  10    -0.286949585991E+03   -0.28634E-02   -0.28649E-02  7296   0.132E-01 0.264E-04
CGA:  11    -0.286952038688E+03   -0.24527E-02   -0.24512E-02  7296   0.756E-02 0.261E-04
CGA:  12    -0.286952882966E+03   -0.84428E-03   -0.84473E-03  7296   0.510E-02 0.162E-04
CGA:  13    -0.286953714310E+03   -0.83134E-03   -0.83080E-03  7296   0.255E-02 0.185E-04
CGA:  14    -0.286953976642E+03   -0.26233E-03   -0.26264E-03  7296   0.140E-02 0.845E-05
CGA:  15    -0.286954200786E+03   -0.22414E-03   -0.22391E-03  7296   0.579E-03 0.845E-05
CGA:  16    -0.286954262698E+03   -0.61913E-04   -0.61984E-04  7296   0.293E-03 0.275E-05
CGA:  17    -0.286954311055E+03   -0.48357E-04   -0.48269E-04  7296   0.167E-03 0.278E-05
CGA:  18    -0.286954327296E+03   -0.16240E-04   -0.16272E-04  7296   0.857E-04 0.887E-06
CGA:  19    -0.286954345472E+03   -0.18176E-04   -0.18102E-04  7296   0.781E-04 0.949E-06
CGA:  20    -0.286954355310E+03   -0.98379E-05   -0.98402E-05  7296   0.509E-04 0.201E-06
CGA:  21    -0.286954367824E+03   -0.12514E-04   -0.12531E-04  7296   0.575E-04-0.166E-06
CGA:  22    -0.286954374266E+03   -0.64426E-05   -0.64289E-05  7296   0.312E-04-0.465E-06
   8 F= -.28695437E+03 E0= -.28694690E+03  d E =-.303544E-01  mag=    18.0000
       N       E                     dE             d eps       ncg     rms          ort
SDA:   1    -0.267694381821E+03    0.19260E+02    0.00000E+00  7296   0.523E+02 0.000E+00
CGA:   2    -0.279300868901E+03   -0.11606E+02   -0.11551E+02  7296   0.410E+02 0.613E+00
CGA:   3    -0.283852400893E+03   -0.45515E+01   -0.44544E+01  7296   0.209E+02-0.381E+00
CGA:   4    -0.286089646405E+03   -0.22372E+01   -0.22425E+01  7296   0.504E+01 0.155E-01
CGA:   5    -0.286607663926E+03   -0.51802E+00   -0.51667E+00  7296   0.221E+01-0.833E-02
CGA:   6    -0.286819161650E+03   -0.21150E+00   -0.21198E+00  7296   0.594E+00-0.927E-04
CGA:   7    -0.286901569596E+03   -0.82408E-01   -0.82408E-01  7296   0.308E+00-0.645E-04
CGA:   8    -0.286930712489E+03   -0.29143E-01   -0.29241E-01  7296   0.100E+00 0.191E-03
CGA:   9    -0.286945096927E+03   -0.14384E-01   -0.14384E-01  7296   0.635E-01 0.221E-04
CGA:  10    -0.286950908124E+03   -0.58112E-02   -0.58226E-02  7296   0.196E-01 0.331E-04
CGA:  11    -0.286954418569E+03   -0.35104E-02   -0.35081E-02  7296   0.167E-01 0.470E-04
CGA:  12    -0.286956091976E+03   -0.16734E-02   -0.16747E-02  7296   0.640E-02 0.233E-04
CGA:  13    -0.286957338893E+03   -0.12469E-02   -0.12449E-02  7296   0.511E-02 0.323E-04
CGA:  14    -0.286957832727E+03   -0.49383E-03   -0.49444E-03  7296   0.182E-02 0.118E-04
CGA:  15    -0.286958129935E+03   -0.29721E-03   -0.29692E-03  7296   0.138E-02 0.104E-04
CGA:  16    -0.286958258860E+03   -0.12893E-03   -0.12913E-03  7296   0.376E-03 0.411E-05
CGA:  17    -0.286958321394E+03   -0.62535E-04   -0.62457E-04  7296   0.299E-03 0.251E-05
CGA:  18    -0.286958352158E+03   -0.30764E-04   -0.30824E-04  7296   0.940E-04 0.165E-05
CGA:  19    -0.286958368373E+03   -0.16215E-04   -0.16161E-04  7296   0.977E-04 0.148E-05
CGA:  20    -0.286958381233E+03   -0.12861E-04   -0.12867E-04  7296   0.482E-04 0.919E-06
CGA:  21    -0.286958389433E+03   -0.81995E-05   -0.81998E-05  7296   0.580E-04-0.250E-07
   9 F= -.28695839E+03 E0= -.28695085E+03  d E =-.401517E-02  mag=    18.0000
       N       E                     dE             d eps       ncg     rms          ort
SDA:   1    -0.268280223553E+03    0.18678E+02    0.00000E+00  7296   0.494E+02 0.000E+00
CGA:   2    -0.279772631391E+03   -0.11492E+02   -0.11421E+02  7296   0.431E+02 0.704E+00
CGA:   3    -0.284145605231E+03   -0.43730E+01   -0.42226E+01  7296   0.170E+02 0.281E+00
CGA:   4    -0.286191726219E+03   -0.20461E+01   -0.20476E+01  7296   0.440E+01 0.247E-01
CGA:   5    -0.286651014505E+03   -0.45929E+00   -0.45810E+00  7296   0.190E+01-0.433E-02
CGA:   6    -0.286840934291E+03   -0.18992E+00   -0.19017E+00  7296   0.564E+00 0.109E-02
CGA:   7    -0.286913379199E+03   -0.72445E-01   -0.72443E-01  7296   0.282E+00 0.563E-05
CGA:   8    -0.286942761401E+03   -0.29382E-01   -0.29420E-01  7296   0.831E-01 0.308E-03
CGA:   9    -0.286955840994E+03   -0.13080E-01   -0.13078E-01  7296   0.516E-01 0.701E-04
CGA:  10    -0.286960851697E+03   -0.50107E-02   -0.50152E-02  7296   0.176E-01 0.421E-04
CGA:  11    -0.286964166890E+03   -0.33152E-02   -0.33126E-02  7296   0.147E-01 0.449E-04
CGA:  12    -0.286965612219E+03   -0.14453E-02   -0.14469E-02  7296   0.616E-02 0.245E-04
CGA:  13    -0.286966774646E+03   -0.11624E-02   -0.11609E-02  7296   0.428E-02 0.276E-04
CGA:  14    -0.286967206413E+03   -0.43177E-03   -0.43233E-03  7296   0.166E-02 0.119E-04
CGA:  15    -0.286967470964E+03   -0.26455E-03   -0.26436E-03  7296   0.115E-02 0.803E-05
CGA:  16    -0.286967578344E+03   -0.10738E-03   -0.10756E-03  7296   0.316E-03 0.357E-05
CGA:  17    -0.286967630629E+03   -0.52286E-04   -0.52213E-04  7296   0.253E-03 0.236E-05
CGA:  18    -0.286967655355E+03   -0.24726E-04   -0.24786E-04  7296   0.812E-04 0.148E-05
CGA:  19    -0.286967669132E+03   -0.13777E-04   -0.13726E-04  7296   0.842E-04 0.147E-05
CGA:  20    -0.286967680937E+03   -0.11805E-04   -0.11803E-04  7296   0.438E-04 0.937E-06
CGA:  21    -0.286967688523E+03   -0.75855E-05   -0.75811E-05  7296   0.515E-04 0.112E-06
  10 F= -.28696769E+03 E0= -.28696019E+03  d E =-.929909E-02  mag=    18.0000
       N       E                     dE             d eps       ncg     rms          ort
SDA:   1    -0.282440412406E+03    0.45273E+01    0.00000E+00  7296   0.142E+02 0.000E+00
CGA:   2    -0.284830396896E+03   -0.23900E+01   -0.23872E+01  7296   0.118E+02 0.657E-01
CGA:   3    -0.286089795908E+03   -0.12594E+01   -0.12523E+01  7296   0.493E+01-0.215E-01
CGA:   4    -0.286759732829E+03   -0.66994E+00   -0.66992E+00  7296   0.150E+01-0.381E-02
CGA:   5    -0.286905438650E+03   -0.14571E+00   -0.14630E+00  7296   0.659E+00 0.124E-02
CGA:   6    -0.286969036116E+03   -0.63597E-01   -0.63480E-01  7296   0.174E+00-0.180E-03
CGA:   7    -0.286990819563E+03   -0.21783E-01   -0.21786E-01  7296   0.870E-01 0.151E-03
CGA:   8    -0.287000040046E+03   -0.92205E-02   -0.92213E-02  7296   0.260E-01 0.205E-04
CGA:   9    -0.287003771731E+03   -0.37317E-02   -0.37314E-02  7296   0.163E-01 0.221E-04
CGA:  10    -0.287005486211E+03   -0.17145E-02   -0.17151E-02  7296   0.490E-02 0.133E-04
CGA:  11    -0.287006290949E+03   -0.80474E-03   -0.80420E-03  7296   0.426E-02 0.147E-04
CGA:  12    -0.287006717467E+03   -0.42652E-03   -0.42680E-03  7296   0.152E-02 0.765E-05
CGA:  13    -0.287006993821E+03   -0.27635E-03   -0.27599E-03  7296   0.128E-02 0.694E-05
CGA:  14    -0.287007120478E+03   -0.12666E-03   -0.12677E-03  7296   0.448E-03 0.303E-05
CGA:  15    -0.287007191285E+03   -0.70806E-04   -0.70760E-04  7296   0.328E-03 0.176E-05
CGA:  16    -0.287007227532E+03   -0.36247E-04   -0.36271E-04  7296   0.968E-04 0.975E-06
CGA:  17    -0.287007242956E+03   -0.15424E-04   -0.15409E-04  7296   0.784E-04 0.537E-06
CGA:  18    -0.287007251311E+03   -0.83550E-05   -0.83724E-05  7296   0.256E-04 0.619E-06
  11 F= -.28700725E+03 E0= -.28699979E+03  d E =-.395628E-01  mag=    18.0000
       N       E                     dE             d eps       ncg     rms          ort
SDA:   1    -0.286024555545E+03    0.98269E+00    0.00000E+00  7296   0.272E+01 0.000E+00
CGA:   2    -0.286580891086E+03   -0.55634E+00   -0.55547E+00  7296   0.305E+01 0.103E-01
CGA:   3    -0.286872167148E+03   -0.29128E+00   -0.29027E+00  7296   0.781E+00-0.241E-03
CGA:   4    -0.286986596131E+03   -0.11443E+00   -0.11443E+00  7296   0.232E+00-0.760E-04
CGA:   5    -0.287010330773E+03   -0.23735E-01   -0.23761E-01  7296   0.102E+00 0.148E-03
CGA:   6    -0.287020601257E+03   -0.10270E-01   -0.10263E-01  7296   0.300E-01-0.308E-04
CGA:   7    -0.287024012702E+03   -0.34114E-02   -0.34121E-02  7296   0.149E-01 0.135E-04
CGA:   8    -0.287025687388E+03   -0.16747E-02   -0.16746E-02  7296   0.457E-02-0.864E-06
CGA:   9    -0.287026295001E+03   -0.60761E-03   -0.60761E-03  7296   0.290E-02 0.250E-05
CGA:  10    -0.287026620438E+03   -0.32544E-03   -0.32549E-03  7296   0.843E-03 0.285E-05
CGA:  11    -0.287026774266E+03   -0.15383E-03   -0.15366E-03  7296   0.844E-03 0.314E-05
CGA:  12    -0.287026861324E+03   -0.87058E-04   -0.87124E-04  7296   0.308E-03 0.220E-05
CGA:  13    -0.287026916224E+03   -0.54900E-04   -0.54825E-04  7296   0.277E-03 0.158E-05
CGA:  14    -0.287026945695E+03   -0.29471E-04   -0.29501E-04  7296   0.987E-04 0.107E-05
CGA:  15    -0.287026960137E+03   -0.14442E-04   -0.14435E-04  7296   0.768E-04 0.529E-06
CGA:  16    -0.287026968991E+03   -0.88541E-05   -0.88627E-05  7296   0.213E-04 0.482E-06
  12 F= -.28702697E+03 E0= -.28701954E+03  d E =-.197177E-01  mag=    18.0000
       N       E                     dE             d eps       ncg     rms          ort
SDA:   1    -0.286154507164E+03    0.87245E+00    0.00000E+00  7296   0.226E+01 0.000E+00
CGA:   2    -0.286711447026E+03   -0.55694E+00   -0.55611E+00  7296   0.247E+01 0.703E-02
CGA:   3    -0.286923371322E+03   -0.21192E+00   -0.21090E+00  7296   0.603E+00 0.342E-02
CGA:   4    -0.287009451496E+03   -0.86080E-01   -0.86081E-01  7296   0.185E+00-0.105E-03
CGA:   5    -0.287027368823E+03   -0.17917E-01   -0.17931E-01  7296   0.831E-01 0.491E-04
CGA:   6    -0.287035854171E+03   -0.84853E-02   -0.84835E-02  7296   0.232E-01 0.152E-05
CGA:   7    -0.287038631891E+03   -0.27777E-02   -0.27776E-02  7296   0.115E-01-0.277E-05
CGA:   8    -0.287039918842E+03   -0.12870E-02   -0.12870E-02  7296   0.314E-02-0.111E-05
CGA:   9    -0.287040381733E+03   -0.46289E-03   -0.46287E-03  7296   0.205E-02 0.159E-05
CGA:  10    -0.287040591959E+03   -0.21023E-03   -0.21030E-03  7296   0.630E-03 0.247E-05
CGA:  11    -0.287040710620E+03   -0.11866E-03   -0.11849E-03  7296   0.629E-03 0.301E-05
CGA:  12    -0.287040771630E+03   -0.61010E-04   -0.61072E-04  7296   0.232E-03 0.183E-05
CGA:  13    -0.287040814772E+03   -0.43142E-04   -0.43073E-04  7296   0.197E-03 0.130E-05
CGA:  14    -0.287040836064E+03   -0.21292E-04   -0.21307E-04  7296   0.668E-04 0.554E-06
CGA:  15    -0.287040847670E+03   -0.11606E-04   -0.11593E-04  7296   0.496E-04 0.317E-06
CGA:  16    -0.287040852413E+03   -0.47427E-05   -0.47472E-05  7296   0.147E-04 0.109E-06
  13 F= -.28704085E+03 E0= -.28703343E+03  d E =-.138834E-01  mag=    18.0000
       N       E                     dE             d eps       ncg     rms          ort
SDA:   1    -0.283173439774E+03    0.38674E+01    0.00000E+00  7296   0.989E+01 0.000E+00
CGA:   2    -0.285692579919E+03   -0.25191E+01   -0.25145E+01  7296   0.941E+01 0.373E-01
CGA:   3    -0.286531482854E+03   -0.83890E+00   -0.83222E+00  7296   0.304E+01 0.238E-01
CGA:   4    -0.286910894500E+03   -0.37941E+00   -0.37945E+00  7296   0.887E+00 0.103E-02
CGA:   5    -0.286995790087E+03   -0.84896E-01   -0.84751E-01  7296   0.391E+00-0.825E-04
CGA:   6    -0.287036708575E+03   -0.40918E-01   -0.40924E-01  7296   0.987E-01 0.901E-04
CGA:   7    -0.287050577460E+03   -0.13869E-01   -0.13869E-01  7296   0.491E-01-0.333E-04
CGA:   8    -0.287055457765E+03   -0.48803E-02   -0.48830E-02  7296   0.147E-01 0.122E-04
CGA:   9    -0.287057781704E+03   -0.23239E-02   -0.23239E-02  7296   0.811E-02 0.375E-05
CGA:  10    -0.287058566056E+03   -0.78435E-03   -0.78480E-03  7296   0.307E-02 0.779E-05
CGA:  11    -0.287059129503E+03   -0.56345E-03   -0.56293E-03  7296   0.250E-02 0.991E-05
CGA:  12    -0.287059371365E+03   -0.24186E-03   -0.24208E-03  7296   0.107E-02 0.577E-05
CGA:  13    -0.287059585554E+03   -0.21419E-03   -0.21380E-03  7296   0.715E-03 0.578E-05
CGA:  14    -0.287059659157E+03   -0.73603E-04   -0.73681E-04  7296   0.314E-03 0.218E-05
CGA:  15    -0.287059714624E+03   -0.55467E-04   -0.55389E-04  7296   0.160E-03 0.185E-05
CGA:  16    -0.287059729993E+03   -0.15369E-04   -0.15397E-04  7296   0.648E-04 0.697E-06
CGA:  17    -0.287059740653E+03   -0.10661E-04   -0.10640E-04  7296   0.417E-04 0.729E-06
CGA:  18    -0.287059744662E+03   -0.40085E-05   -0.40261E-05  7296   0.161E-04 0.432E-06
  14 F= -.28705974E+03 E0= -.28705235E+03  d E =-.188922E-01  mag=    18.0000
       N       E                     dE             d eps       ncg     rms          ort
SDA:   1    -0.273946657024E+03    0.13113E+02    0.00000E+00  7296   0.340E+02 0.000E+00
CGA:   2    -0.282346034321E+03   -0.83994E+01   -0.83721E+01  7296   0.299E+02 0.228E+00
CGA:   3    -0.285225474522E+03   -0.28794E+01   -0.28247E+01  7296   0.112E+02 0.149E+00
CGA:   4    -0.286566944035E+03   -0.13415E+01   -0.13420E+01  7296   0.284E+01 0.998E-02
CGA:   5    -0.286867088642E+03   -0.30014E+00   -0.29941E+00  7296   0.134E+01-0.299E-02
CGA:   6    -0.286993990957E+03   -0.12690E+00   -0.12712E+00  7296   0.360E+00 0.473E-03
CGA:   7    -0.287044643280E+03   -0.50652E-01   -0.50652E-01  7296   0.171E+00 0.487E-04
CGA:   8    -0.287061135190E+03   -0.16492E-01   -0.16514E-01  7296   0.548E-01 0.774E-04
CGA:   9    -0.287069868131E+03   -0.87329E-02   -0.87327E-02  7296   0.278E-01 0.154E-04
CGA:  10    -0.287072606660E+03   -0.27385E-02   -0.27408E-02  7296   0.115E-01 0.250E-04
CGA:  11    -0.287074742876E+03   -0.21362E-02   -0.21348E-02  7296   0.804E-02 0.272E-04
CGA:  12    -0.287075544910E+03   -0.80203E-03   -0.80298E-03  7296   0.418E-02 0.167E-04
CGA:  13    -0.287076324439E+03   -0.77953E-03   -0.77862E-03  7296   0.249E-02 0.178E-04
CGA:  14    -0.287076576702E+03   -0.25226E-03   -0.25261E-03  7296   0.118E-02 0.780E-05
CGA:  15    -0.287076778660E+03   -0.20196E-03   -0.20170E-03  7296   0.554E-03 0.726E-05
CGA:  16    -0.287076834080E+03   -0.55420E-04   -0.55521E-04  7296   0.232E-03 0.258E-05
CGA:  17    -0.287076873600E+03   -0.39520E-04   -0.39436E-04  7296   0.129E-03 0.248E-05
CGA:  18    -0.287076886441E+03   -0.12841E-04   -0.12885E-04  7296   0.596E-04 0.112E-05
CGA:  19    -0.287076899318E+03   -0.12877E-04   -0.12792E-04  7296   0.564E-04 0.109E-05
CGA:  20    -0.287076906056E+03   -0.67379E-05   -0.67507E-05  7296   0.358E-04 0.586E-06
  15 F= -.28707691E+03 E0= -.28706955E+03  d E =-.171614E-01  mag=    18.0000
       N       E                     dE             d eps       ncg     rms          ort
SDA:   1    -0.286046121407E+03    0.10308E+01    0.00000E+00  7296   0.273E+01 0.000E+00
CGA:   2    -0.286692953455E+03   -0.64683E+00   -0.64737E+00  7296   0.261E+01-0.510E-02
CGA:   3    -0.286921301313E+03   -0.22835E+00   -0.22954E+00  7296   0.948E+00-0.295E-02
CGA:   4    -0.287035353087E+03   -0.11405E+00   -0.11399E+00  7296   0.261E+00-0.828E-03
CGA:   5    -0.287062323770E+03   -0.26971E-01   -0.26985E-01  7296   0.114E+00 0.436E-04
CGA:   6    -0.287073921854E+03   -0.11598E-01   -0.11600E-01  7296   0.287E-01 0.634E-05
CGA:   7    -0.287077976830E+03   -0.40550E-02   -0.40550E-02  7296   0.138E-01 0.104E-04
CGA:   8    -0.287079281196E+03   -0.13044E-02   -0.13042E-02  7296   0.455E-02 0.269E-05
CGA:   9    -0.287079970501E+03   -0.68931E-03   -0.68924E-03  7296   0.233E-02 0.402E-05
CGA:  10    -0.287080194022E+03   -0.22352E-03   -0.22351E-03  7296   0.889E-03 0.302E-06
CGA:  11    -0.287080353125E+03   -0.15910E-03   -0.15904E-03  7296   0.626E-03 0.140E-05
CGA:  12    -0.287080416795E+03   -0.63670E-04   -0.63684E-04  7296   0.299E-03 0.498E-06
CGA:  13    -0.287080473542E+03   -0.56747E-04   -0.56631E-04  7296   0.184E-03 0.217E-05
CGA:  14    -0.287080492480E+03   -0.18938E-04   -0.18973E-04  7296   0.886E-04 0.976E-06
CGA:  15    -0.287080507409E+03   -0.14929E-04   -0.14884E-04  7296   0.402E-04 0.149E-05
CGA:  16    -0.287080511491E+03   -0.40822E-05   -0.40967E-05  7296   0.181E-04 0.377E-06
  16 F= -.28708051E+03 E0= -.28707316E+03  d E =-.360544E-02  mag=    18.0000
       N       E                     dE             d eps       ncg     rms          ort
SDA:   1    -0.286687552147E+03    0.39296E+00    0.00000E+00  7296   0.982E+00 0.000E+00
CGA:   2    -0.286954225748E+03   -0.26667E+00   -0.26690E+00  7296   0.790E+00-0.168E-02
CGA:   3    -0.287030822435E+03   -0.76597E-01   -0.77107E-01  7296   0.313E+00 0.489E-03
CGA:   4    -0.287065498563E+03   -0.34676E-01   -0.34642E-01  7296   0.729E-01-0.233E-03
CGA:   5    -0.287074398715E+03   -0.89002E-02   -0.88992E-02  7296   0.319E-01-0.196E-04
CGA:   6    -0.287077284980E+03   -0.28863E-02   -0.28881E-02  7296   0.104E-01 0.867E-06
CGA:   7    -0.287078630005E+03   -0.13450E-02   -0.13450E-02  7296   0.438E-02-0.789E-06
CGA:   8    -0.287079058150E+03   -0.42815E-03   -0.42828E-03  7296   0.154E-02 0.183E-05
CGA:   9    -0.287079290931E+03   -0.23278E-03   -0.23277E-03  7296   0.693E-03 0.604E-06
CGA:  10    -0.287079361082E+03   -0.70151E-04   -0.70176E-04  7296   0.316E-03 0.562E-06
CGA:  11    -0.287079419597E+03   -0.58515E-04   -0.58500E-04  7296   0.176E-03 0.292E-06
CGA:  12    -0.287079440069E+03   -0.20473E-04   -0.20481E-04  7296   0.122E-03 0.388E-06
CGA:  13    -0.287079459687E+03   -0.19618E-04   -0.19606E-04  7296   0.611E-04 0.503E-06
CGA:  14    -0.287079466335E+03   -0.66482E-05   -0.66619E-05  7296   0.346E-04 0.484E-06
  17 F= -.28707947E+03 E0= -.28707212E+03  d E =0.104516E-02  mag=    18.0000
       N       E                     dE             d eps       ncg     rms          ort
SDA:   1    -0.286947017019E+03    0.13244E+00    0.00000E+00  7296   0.343E+00 0.000E+00
CGA:   2    -0.287031548400E+03   -0.84531E-01   -0.84542E-01  7296   0.342E+00-0.919E-04
CGA:   3    -0.287061568134E+03   -0.30020E-01   -0.30058E-01  7296   0.122E+00-0.680E-04
CGA:   4    -0.287076291959E+03   -0.14724E-01   -0.14723E-01  7296   0.291E-01-0.126E-04
CGA:   5    -0.287079383966E+03   -0.30920E-02   -0.30924E-02  7296   0.136E-01 0.403E-05
CGA:   6    -0.287080659327E+03   -0.12754E-02   -0.12751E-02  7296   0.341E-02-0.177E-05
CGA:   7    -0.287081186833E+03   -0.52751E-03   -0.52750E-03  7296   0.152E-02 0.111E-06
CGA:   8    -0.287081325498E+03   -0.13867E-03   -0.13863E-03  7296   0.574E-03-0.326E-06
CGA:   9    -0.287081414604E+03   -0.89106E-04   -0.89092E-04  7296   0.208E-03 0.611E-06
CGA:  10    -0.287081436635E+03   -0.22031E-04   -0.22035E-04  7296   0.124E-03 0.164E-06
CGA:  11    -0.287081456284E+03   -0.19648E-04   -0.19635E-04  7296   0.592E-04 0.537E-06
CGA:  12    -0.287081463505E+03   -0.72211E-05   -0.72227E-05  7296   0.442E-04 0.135E-06
  18 F= -.28708146E+03 E0= -.28707413E+03  d E =-.199717E-02  mag=    18.0000
       N       E                     dE             d eps       ncg     rms          ort
SDA:   1    -0.285673982184E+03    0.14075E+01    0.00000E+00  7296   0.358E+01 0.000E+00
CGA:   2    -0.286557850575E+03   -0.88387E+00   -0.88304E+00  7296   0.387E+01 0.706E-02
CGA:   3    -0.286881918541E+03   -0.32407E+00   -0.32270E+00  7296   0.115E+01 0.552E-02
CGA:   4    -0.287029862576E+03   -0.14794E+00   -0.14795E+00  7296   0.328E+00 0.149E-03
CGA:   5    -0.287061779995E+03   -0.31917E-01   -0.31883E-01  7296   0.137E+00-0.802E-04
CGA:   6    -0.287076456054E+03   -0.14676E-01   -0.14681E-01  7296   0.342E-01 0.506E-04
CGA:   7    -0.287081335210E+03   -0.48792E-02   -0.48793E-02  7296   0.183E-01-0.915E-05
CGA:   8    -0.287083029703E+03   -0.16945E-02   -0.16950E-02  7296   0.545E-02 0.284E-05
CGA:   9    -0.287083872356E+03   -0.84265E-03   -0.84264E-03  7296   0.293E-02 0.135E-05
CGA:  10    -0.287084157278E+03   -0.28492E-03   -0.28504E-03  7296   0.110E-02 0.260E-05
CGA:  11    -0.287084354925E+03   -0.19765E-03   -0.19755E-03  7296   0.896E-03 0.193E-05
CGA:  12    -0.287084447170E+03   -0.92244E-04   -0.92319E-04  7296   0.377E-03 0.232E-05
CGA:  13    -0.287084521219E+03   -0.74050E-04   -0.73893E-04  7296   0.305E-03 0.248E-05
CGA:  14    -0.287084550220E+03   -0.29000E-04   -0.29069E-04  7296   0.112E-03 0.165E-05
CGA:  15    -0.287084571751E+03   -0.21531E-04   -0.21442E-04  7296   0.616E-04 0.154E-05
CGA:  16    -0.287084577809E+03   -0.60582E-05   -0.60783E-05  7296   0.259E-04 0.516E-06
  19 F= -.28708458E+03 E0= -.28707726E+03  d E =-.311430E-02  mag=    18.0000
       N       E                     dE             d eps       ncg     rms          ort
SDA:   1    -0.286214418255E+03    0.87015E+00    0.00000E+00  7296   0.239E+01 0.000E+00
CGA:   2    -0.286720219718E+03   -0.50580E+00   -0.50598E+00  7296   0.203E+01-0.196E-02
CGA:   3    -0.286925096177E+03   -0.20488E+00   -0.20545E+00  7296   0.106E+01 0.160E-02
CGA:   4    -0.287040525898E+03   -0.11543E+00   -0.11539E+00  7296   0.234E+00-0.322E-03
CGA:   5    -0.287067557209E+03   -0.27031E-01   -0.27039E-01  7296   0.889E-01 0.120E-03
CGA:   6    -0.287076132580E+03   -0.85754E-02   -0.85667E-02  7296   0.269E-01-0.219E-04
CGA:   7    -0.287080069001E+03   -0.39364E-02   -0.39361E-02  7296   0.111E-01 0.172E-04
CGA:   8    -0.287081090530E+03   -0.10215E-02   -0.10212E-02  7296   0.488E-02 0.968E-06
CGA:   9    -0.287081783915E+03   -0.69339E-03   -0.69334E-03  7296   0.173E-02 0.427E-05
CGA:  10    -0.287081972148E+03   -0.18823E-03   -0.18824E-03  7296   0.938E-03 0.652E-06
CGA:  11    -0.287082118959E+03   -0.14681E-03   -0.14677E-03  7296   0.437E-03 0.168E-05
CGA:  12    -0.287082171439E+03   -0.52480E-04   -0.52485E-04  7296   0.325E-03 0.470E-06
CGA:  13    -0.287082221784E+03   -0.50345E-04   -0.50311E-04  7296   0.131E-03 0.151E-05
CGA:  14    -0.287082238365E+03   -0.16581E-04   -0.16586E-04  7296   0.961E-04 0.653E-06
CGA:  15    -0.287082251700E+03   -0.13334E-04   -0.13329E-04  7296   0.308E-04 0.101E-05
CGA:  16    -0.287082255572E+03   -0.38723E-05   -0.38745E-05  7296   0.221E-04 0.250E-06
  20 F= -.28708226E+03 E0= -.28707494E+03  d E =0.232224E-02  mag=    18.0000
       N       E                     dE             d eps       ncg     rms          ort
SDA:   1    -0.286899416372E+03    0.18284E+00    0.00000E+00  7296   0.465E+00 0.000E+00
CGA:   2    -0.287021324820E+03   -0.12191E+00   -0.12185E+00  7296   0.391E+00 0.455E-03
CGA:   3    -0.287058857738E+03   -0.37533E-01   -0.37424E-01  7296   0.150E+00-0.949E-04
CGA:   4    -0.287076130831E+03   -0.17273E-01   -0.17275E-01  7296   0.342E-01 0.379E-04
CGA:   5    -0.287080455678E+03   -0.43248E-02   -0.43249E-02  7296   0.142E-01 0.776E-05
CGA:   6    -0.287081816821E+03   -0.13611E-02   -0.13613E-02  7296   0.460E-02 0.248E-05
CGA:   7    -0.287082464756E+03   -0.64793E-03   -0.64794E-03  7296   0.160E-02-0.772E-06
CGA:   8    -0.287082633671E+03   -0.16892E-03   -0.16892E-03  7296   0.788E-03-0.194E-06
CGA:   9    -0.287082736230E+03   -0.10256E-03   -0.10256E-03  7296   0.308E-03-0.264E-06
CGA:  10    -0.287082767685E+03   -0.31455E-04   -0.31468E-04  7296   0.163E-03 0.392E-06
CGA:  11    -0.287082795601E+03   -0.27916E-04   -0.27898E-04  7296   0.803E-04 0.443E-06
CGA:  12    -0.287082805665E+03   -0.10065E-04   -0.10067E-04  7296   0.598E-04 0.319E-06
CGA:  13    -0.287082815161E+03   -0.94956E-05   -0.94932E-05  7296   0.235E-04 0.953E-07
  21 F= -.28708282E+03 E0= -.28707551E+03  d E =-.559589E-03  mag=    18.0000
