       N       E                     dE             d eps       ncg     rms          ort
DAV:   1     0.653181412979E+04    0.65318E+04   -0.29274E+05  8736   0.162E+03
DAV:   2     0.417051988190E+03   -0.61148E+04   -0.58596E+04  8736   0.478E+02
DAV:   3    -0.367372647292E+03   -0.78442E+03   -0.76680E+03  8736   0.179E+02
DAV:   4    -0.409392501256E+03   -0.42020E+02   -0.40969E+02  8736   0.431E+01
DAV:   5    -0.412856131906E+03   -0.34636E+01   -0.34061E+01  8736   0.889E+00
SDA:   6    -0.257303635268E+03    0.15555E+03   -0.34061E+01  8736   0.164E+04 0.000E+00
CGA:   7    -0.323718887727E+03   -0.66415E+02   -0.11398E+03  8736   0.670E+03 0.160E+03
CGA:   8    -0.340605789697E+03   -0.16887E+02   -0.69408E+01  8736   0.370E+03 0.532E+03
CGA:   9    -0.347417214974E+03   -0.68114E+01   -0.29734E+01  8736   0.455E+03 0.543E+03
CGA:  10    -0.357093905315E+03   -0.96767E+01   -0.54262E+01  8736   0.193E+03 0.258E+03
CGA:  11    -0.362523354893E+03   -0.54294E+01   -0.26300E+01  8736   0.136E+03 0.196E+03
CGA:  12    -0.366368159761E+03   -0.38448E+01   -0.37264E+01  8736   0.166E+03-0.733E+01
CGA:  13    -0.368312358514E+03   -0.19442E+01   -0.76413E+01  8736   0.622E+03-0.152E+03
CGA:  14    -0.366234812887E+03    0.20775E+01   -0.34233E+02  8736   0.272E+03-0.111E+03
CGA:  15    -0.368969681978E+03   -0.27349E+01   -0.14545E+01  8736   0.189E+03 0.200E+03
CGA:  16    -0.371472905952E+03   -0.25032E+01   -0.11282E+01  8736   0.186E+03 0.239E+03
CGA:  17    -0.374577073719E+03   -0.31042E+01   -0.14564E+01  8736   0.779E+02 0.155E+03
CGA:  18    -0.375751971250E+03   -0.11749E+01   -0.87840E+00  8736   0.372E+02 0.183E+02
CGA:  19    -0.376729733247E+03   -0.97776E+00   -0.63230E+00  8736   0.679E+02 0.191E+02
CGA:  20    -0.378113966757E+03   -0.13842E+01   -0.21017E+01  8736   0.278E+02-0.317E+01
CGA:  21    -0.378381570984E+03   -0.26760E+00   -0.35435E+00  8736   0.409E+02-0.758E+01
CGA:  22    -0.378747701051E+03   -0.36613E+00   -0.32013E+00  8736   0.637E+02-0.198E+01
CGA:  23    -0.375942821504E+03    0.28049E+01   -0.24725E+01  8736   0.395E+03 0.399E+02
CGA:  24    -0.367473267780E+03    0.84696E+01   -0.16034E+02  8736   0.356E+03-0.127E+03
CGA:  25    -0.377579784352E+03   -0.10107E+02   -0.19356E+01  8736   0.439E+03 0.731E+03
CGA:  26    -0.368712838292E+03    0.88669E+01   -0.15107E+02  8736   0.947E+03-0.173E+03
CGA:  27    -0.378077160060E+03   -0.93643E+01   -0.25949E+02  8736   0.922E+02-0.730E+02
CGA:  28    -0.379105084603E+03   -0.10279E+01   -0.20212E+01  8736   0.983E+02-0.522E+02
CGA:  29    -0.378790972291E+03    0.31411E+00   -0.37925E+01  8736   0.318E+03-0.527E+01
CGA:  30    -0.368539813627E+03    0.10251E+02   -0.62321E+01  8736   0.672E+03-0.474E+03
CGA:  31    -0.373892633983E+03   -0.53528E+01   -0.26573E+02  8736   0.336E+03-0.109E+02
CGA:  32    -0.365599278144E+03    0.82934E+01   -0.95385E+01  8736   0.118E+04-0.525E+03
CGA:  33    -0.378679614662E+03   -0.13080E+02   -0.45139E+02  8736   0.343E+02-0.423E+02
CGA:  34    -0.379843225960E+03   -0.11636E+01   -0.55903E+00  8736   0.236E+02 0.333E+02
CGA:  35    -0.380355376753E+03   -0.51215E+00   -0.26436E+00  8736   0.171E+02 0.216E+02
CGA:  36    -0.380577493571E+03   -0.22212E+00   -0.10698E+00  8736   0.170E+02 0.187E+02
CGA:  37    -0.380784495201E+03   -0.20700E+00   -0.95015E-01  8736   0.185E+02 0.203E+02
CGA:  38    -0.381005055358E+03   -0.22056E+00   -0.10092E+00  8736   0.193E+02 0.218E+02
CGA:  39    -0.381210731049E+03   -0.20568E+00   -0.98441E-01  8736   0.179E+02 0.207E+02
CGA:  40    -0.381369142860E+03   -0.15841E+00   -0.78152E-01  8736   0.161E+02 0.183E+02
CGA:  41    -0.381492929149E+03   -0.12379E+00   -0.60684E-01  8736   0.152E+02 0.167E+02
CGA:  42    -0.381604466181E+03   -0.11154E+00   -0.53316E-01  8736   0.155E+02 0.167E+02
CGA:  43    -0.381722810947E+03   -0.11834E+00   -0.54601E-01  8736   0.170E+02 0.182E+02
CGA:  44    -0.381869730652E+03   -0.14692E+00   -0.65216E-01  8736   0.198E+02 0.215E+02
CGA:  45    -0.382074323653E+03   -0.20459E+00   -0.88803E-01  8736   0.227E+02 0.258E+02
CGA:  46    -0.382354946966E+03   -0.28062E+00   -0.12628E+00  8736   0.212E+02 0.269E+02
CGA:  47    -0.382649653665E+03   -0.29471E+00   -0.15288E+00  8736   0.113E+02 0.180E+02
CGA:  48    -0.382824730848E+03   -0.17508E+00   -0.11791E+00  8736   0.248E+01 0.450E+01
CGA:  49    -0.382874787953E+03   -0.50057E-01   -0.43219E-01  8736   0.178E+01 0.424E+00
CGA:  50    -0.382920834700E+03   -0.46047E-01   -0.46746E-01  8736   0.324E+01 0.132E-01
CGA:  51    -0.382992319010E+03   -0.71484E-01   -0.77631E-01  8736   0.528E+01 0.916E-01
CGA:  52    -0.383164228964E+03   -0.17191E+00   -0.21346E+00  8736   0.126E+02-0.613E+01
CGA:  53    -0.383309545272E+03   -0.14532E+00   -0.16309E+00  8736   0.467E+01-0.960E+00
CGA:  54    -0.383382497062E+03   -0.72952E-01   -0.68488E-01  8736   0.741E+00 0.146E+00
CGA:  55    -0.383424555212E+03   -0.42058E-01   -0.42319E-01  8736   0.129E+01-0.108E-01
CGA:  56    -0.383462563771E+03   -0.38009E-01   -0.38761E-01  8736   0.179E+01 0.112E+00
CGA:  57    -0.383530040048E+03   -0.67476E-01   -0.67149E-01  8736   0.130E+01 0.122E+00
CGA:  58    -0.383576863386E+03   -0.46823E-01   -0.46738E-01  8736   0.935E+00 0.113E+00
CGA:  59    -0.383604088395E+03   -0.27225E-01   -0.27039E-01  8736   0.632E+00-0.649E-02
CGA:  60    -0.383629427355E+03   -0.25339E-01   -0.25125E-01  8736   0.574E+00 0.203E-01
CGA:  61    -0.383648097787E+03   -0.18670E-01   -0.18702E-01  8736   0.357E+00 0.870E-02
CGA:  62    -0.383658778844E+03   -0.10681E-01   -0.10732E-01  8736   0.245E+00 0.533E-02
CGA:  63    -0.383669413062E+03   -0.10634E-01   -0.10643E-01  8736   0.237E+00-0.767E-03
CGA:  64    -0.383676316630E+03   -0.69036E-02   -0.69307E-02  8736   0.135E+00 0.219E-02
CGA:  65    -0.383682278978E+03   -0.59623E-02   -0.59340E-02  8736   0.122E+00 0.188E-02
CGA:  66    -0.383685722424E+03   -0.34434E-02   -0.34690E-02  8736   0.623E-01 0.121E-02
CGA:  67    -0.383689090382E+03   -0.33680E-02   -0.33577E-02  8736   0.974E-01 0.415E-03
CGA:  68    -0.383692707058E+03   -0.36167E-02   -0.36133E-02  8736   0.603E-01 0.660E-03
CGA:  69    -0.383695071105E+03   -0.23640E-02   -0.23619E-02  8736   0.538E-01 0.218E-03
CGA:  70    -0.383697166990E+03   -0.20959E-02   -0.20927E-02  8736   0.448E-01 0.379E-03
CGA:  71    -0.383699233122E+03   -0.20661E-02   -0.20567E-02  8736   0.432E-01 0.578E-03
CGA:  72    -0.383700769856E+03   -0.15367E-02   -0.15369E-02  8736   0.291E-01 0.660E-04
CGA:  73    -0.383701958048E+03   -0.11882E-02   -0.11855E-02  8736   0.223E-01 0.257E-03
CGA:  74    -0.383702807636E+03   -0.84959E-03   -0.85197E-03  8736   0.227E-01-0.731E-03
CGA:  75    -0.383704061626E+03   -0.12540E-02   -0.13019E-02  8736   0.264E-01-0.216E-02
CGA:  76    -0.383704842719E+03   -0.78109E-03   -0.76760E-03  8736   0.248E-01-0.102E-02
CGA:  77    -0.383706425744E+03   -0.15830E-02   -0.14684E-02  8736   0.730E-02 0.368E-02
CGA:  78    -0.383707275331E+03   -0.84959E-03   -0.81856E-03  8736   0.560E-02 0.556E-03
CGA:  79    -0.383707607479E+03   -0.33215E-03   -0.33949E-03  8736   0.953E-02-0.383E-03
CGA:  80    -0.383707828301E+03   -0.22082E-03   -0.21120E-03  8736   0.749E-02 0.117E-03
CGA:  81    -0.383708150979E+03   -0.32268E-03   -0.32215E-03  8736   0.908E-02 0.176E-03
CGA:  82    -0.383708322559E+03   -0.17158E-03   -0.17651E-03  8736   0.450E-02-0.121E-03
SDA:  83    -0.383708597839E+03   -0.27528E-03   -0.28189E-03  8736   0.447E-02-0.246E-03
CGA:  84    -0.383708696272E+03   -0.98433E-04   -0.98798E-04  8736   0.366E-02 0.215E-05
CGA:  85    -0.383708937309E+03   -0.24104E-03   -0.24005E-03  8736   0.326E-02 0.386E-04
CGA:  86    -0.383709367581E+03   -0.43027E-03   -0.42061E-03  8736   0.587E-02 0.110E-03
CGA:  87    -0.383709733400E+03   -0.36582E-03   -0.36409E-03  8736   0.597E-02 0.120E-03
CGA:  88    -0.383709925635E+03   -0.19224E-03   -0.19243E-03  8736   0.668E-02 0.542E-04
CGA:  89    -0.383710192716E+03   -0.26708E-03   -0.26755E-03  8736   0.176E-02 0.800E-04
CGA:  90    -0.383710467201E+03   -0.27449E-03   -0.25551E-03  8736   0.166E-02 0.215E-03
CGA:  91    -0.383710515161E+03   -0.47960E-04   -0.47709E-04  8736   0.167E-02 0.181E-04
CGA:  92    -0.383710607191E+03   -0.92029E-04   -0.92503E-04  8736   0.161E-02-0.465E-04
CGA:  93    -0.383710736283E+03   -0.12909E-03   -0.11716E-03  8736   0.215E-02 0.395E-03
CGA:  94    -0.383710845915E+03   -0.10963E-03   -0.10071E-03  8736   0.504E-02-0.343E-04
CGA:  95    -0.383710876991E+03   -0.31076E-04   -0.16430E-04  8736   0.534E-02 0.438E-02
CGA:  96    -0.383710948635E+03   -0.71644E-04   -0.71622E-04  8736   0.104E-02-0.400E-05
CGA:  97    -0.383711067110E+03   -0.11848E-03   -0.11800E-03  8736   0.174E-02 0.899E-05
CGA:  98    -0.383711193807E+03   -0.12670E-03   -0.13495E-03  8736   0.328E-02-0.276E-03
CGA:  99    -0.383711334233E+03   -0.14043E-03   -0.14120E-03  8736   0.942E-02-0.915E-03
CGA: 100    -0.383711347976E+03   -0.13743E-04   -0.71609E-05  8736   0.957E-02 0.616E-02
CGA: 101    -0.383711523527E+03   -0.17555E-03   -0.17519E-03  8736   0.270E-02 0.131E-04
CGA: 102    -0.383711599427E+03   -0.75900E-04   -0.75946E-04  8736   0.199E-02-0.258E-08
CGA: 103    -0.383711752199E+03   -0.15277E-03   -0.15395E-03  8736   0.114E-02-0.357E-04
CGA: 104    -0.383711884313E+03   -0.13211E-03   -0.12957E-03  8736   0.190E-02 0.354E-04
CGA: 105    -0.383711508542E+03    0.37577E-03   -0.30557E-03  8736   0.504E-01-0.984E-02
CGA: 106    -0.383712293911E+03   -0.78537E-03   -0.79408E-03  8736   0.578E-02-0.454E-03
CGA: 107    -0.383712396127E+03   -0.10222E-03   -0.10238E-03  8736   0.160E-02-0.893E-05
CGA: 108    -0.383712478027E+03   -0.81900E-04   -0.81895E-04  8736   0.729E-03-0.421E-05
CGA: 109    -0.383712538249E+03   -0.60222E-04   -0.60321E-04  8736   0.549E-03-0.352E-05
CGA: 110    -0.383712570927E+03   -0.32679E-04   -0.32721E-04  8736   0.506E-03-0.602E-05
CGA: 111    -0.383712584489E+03   -0.13562E-04   -0.13480E-04  8736   0.457E-03-0.112E-05
CGA: 112    -0.383712606434E+03   -0.21945E-04   -0.21958E-04  8736   0.329E-03-0.410E-06
CGA: 113    -0.383712620641E+03   -0.14207E-04   -0.14112E-04  8736   0.289E-03-0.394E-05
CGA: 114    -0.383712654998E+03   -0.34357E-04   -0.34310E-04  8736   0.200E-03 0.637E-06
CGA: 115    -0.383712693381E+03   -0.38383E-04   -0.37250E-04  8736   0.352E-03 0.974E-05
CGA: 116    -0.383712705122E+03   -0.11741E-04   -0.11359E-04  8736   0.310E-03 0.732E-05
CGA: 117    -0.383712718569E+03   -0.13447E-04   -0.13472E-04  8736   0.345E-03 0.118E-05
CGA: 118    -0.383712726793E+03   -0.82242E-05   -0.83034E-05  8736   0.844E-04-0.594E-06
CGA: 119    -0.383712742343E+03   -0.15550E-04   -0.15550E-04  8736   0.349E-03 0.381E-07
CGA: 120    -0.383712753111E+03   -0.10768E-04   -0.10716E-04  8736   0.355E-03-0.660E-06
CGA: 121    -0.383712770577E+03   -0.17467E-04   -0.17409E-04  8736   0.483E-03-0.347E-05
CGA: 122    -0.383712786408E+03   -0.15830E-04   -0.15750E-04  8736   0.209E-03-0.394E-05
CGA: 123    -0.383712822644E+03   -0.36236E-04   -0.37580E-04  8736   0.110E-02-0.109E-04
CGA: 124    -0.383712859395E+03   -0.36752E-04   -0.36269E-04  8736   0.129E-02-0.109E-04
CGA: 125    -0.383712906682E+03   -0.47287E-04   -0.46842E-04  8736   0.915E-03-0.155E-04
CGA: 126    -0.383712959212E+03   -0.52530E-04   -0.52521E-04  8736   0.159E-02-0.998E-05
CGA: 127    -0.383713052541E+03   -0.93329E-04   -0.93187E-04  8736   0.847E-03-0.312E-04
CGA: 128    -0.383713069751E+03   -0.17210E-04   -0.17061E-04  8736   0.576E-03-0.422E-05
CGA: 129    -0.383713104255E+03   -0.34504E-04   -0.34503E-04  8736   0.391E-03-0.393E-05
CGA: 130    -0.383713122497E+03   -0.18242E-04   -0.18257E-04  8736   0.520E-03-0.328E-06
CGA: 131    -0.383713143959E+03   -0.21462E-04   -0.21444E-04  8736   0.473E-03-0.309E-07
CGA: 132    -0.383713154952E+03   -0.10993E-04   -0.10993E-04  8736   0.267E-03 0.262E-06
CGA: 133    -0.383713174523E+03   -0.19571E-04   -0.19557E-04  8736   0.132E-03 0.745E-06
CGA: 134    -0.383713179782E+03   -0.52583E-05   -0.52544E-05  8736   0.228E-03-0.305E-06
CGA: 135    -0.383713191321E+03   -0.11539E-04   -0.11527E-04  8736   0.382E-03-0.149E-05
SDA: 136    -0.383713209876E+03   -0.18555E-04   -0.18531E-04  8736   0.376E-03-0.249E-05
CGA: 137    -0.383713220653E+03   -0.10777E-04   -0.10810E-04  8736   0.139E-03 0.521E-06
CGA: 138    -0.383713227638E+03   -0.69855E-05   -0.69890E-05  8736   0.865E-04 0.754E-06
   1 F= -.38371323E+03 E0= -.38369120E+03  d E =-.383713E+03  mag=    32.0000
       N       E                     dE             d eps       ncg     rms          ort
SDA:   1    -0.383692678579E+03    0.20542E-01    0.00000E+00  8736   0.121E+01 0.000E+00
CGA:   2    -0.383706014462E+03   -0.13336E-01   -0.13240E-01  8736   0.492E-01 0.688E-02
CGA:   3    -0.383708172475E+03   -0.21580E-02   -0.21540E-02  8736   0.254E-01-0.990E-04
CGA:   4    -0.383710370817E+03   -0.21983E-02   -0.21893E-02  8736   0.542E-01 0.244E-03
CGA:   5    -0.383711474329E+03   -0.11035E-02   -0.11056E-02  8736   0.231E-01-0.627E-04
CGA:   6    -0.383712931033E+03   -0.14567E-02   -0.14552E-02  8736   0.958E-02 0.104E-03
CGA:   7    -0.383713230086E+03   -0.29905E-03   -0.29825E-03  8736   0.523E-02 0.752E-05
CGA:   8    -0.383713702083E+03   -0.47200E-03   -0.47099E-03  8736   0.237E-02 0.247E-04
CGA:   9    -0.383713809140E+03   -0.10706E-03   -0.10697E-03  8736   0.295E-02-0.280E-05
CGA:  10    -0.383713864867E+03   -0.55727E-04   -0.55913E-04  8736   0.427E-03-0.675E-05
CGA:  11    -0.383713900447E+03   -0.35580E-04   -0.35516E-04  8736   0.704E-03 0.203E-05
CGA:  12    -0.383713930271E+03   -0.29824E-04   -0.29840E-04  8736   0.304E-03 0.173E-05
CGA:  13    -0.383713945795E+03   -0.15524E-04   -0.15528E-04  8736   0.151E-03 0.155E-05
CGA:  14    -0.383713955049E+03   -0.92538E-05   -0.92525E-05  8736   0.126E-03 0.109E-06
   2 F= -.38371396E+03 E0= -.38369190E+03  d E =-.727410E-03  mag=    32.0000
       N       E                     dE             d eps       ncg     rms          ort
SDA:   1    -0.324966264279E+03    0.58748E+02    0.00000E+00  8736   0.185E+03 0.000E+00
CGA:   2    -0.343955612301E+03   -0.18989E+02   -0.16213E+02  8736   0.271E+03 0.695E+02
CGA:   3    -0.357477740489E+03   -0.13522E+02   -0.10456E+02  8736   0.159E+03 0.462E+02
CGA:   4    -0.366064370245E+03   -0.85866E+01   -0.82153E+01  8736   0.201E+03-0.189E+02
CGA:   5    -0.374026826150E+03   -0.79625E+01   -0.77129E+01  8736   0.300E+03-0.185E+02
CGA:   6    -0.376628585132E+03   -0.26018E+01   -0.55022E+01  8736   0.706E+02-0.865E+02
CGA:   7    -0.378062694447E+03   -0.14341E+01   -0.12644E+01  8736   0.495E+02 0.210E+01
CGA:   8    -0.379172058583E+03   -0.11094E+01   -0.10126E+01  8736   0.358E+02 0.177E+01
CGA:   9    -0.380296141228E+03   -0.11241E+01   -0.11620E+01  8736   0.587E+02-0.124E+00
CGA:  10    -0.381658875266E+03   -0.13627E+01   -0.14116E+01  8736   0.155E+02-0.179E+01
CGA:  11    -0.382013482112E+03   -0.35461E+00   -0.27564E+00  8736   0.121E+02 0.351E+01
CGA:  12    -0.382313835750E+03   -0.30035E+00   -0.24866E+00  8736   0.895E+01 0.217E+01
CGA:  13    -0.382472020976E+03   -0.15819E+00   -0.16602E+00  8736   0.769E+01-0.457E+00
CGA:  14    -0.382670868258E+03   -0.19885E+00   -0.19168E+00  8736   0.142E+02 0.171E-01
CGA:  15    -0.382904364507E+03   -0.23350E+00   -0.24028E+00  8736   0.152E+02-0.378E+00
CGA:  16    -0.383101224838E+03   -0.19686E+00   -0.20506E+00  8736   0.822E+01-0.724E+00
CGA:  17    -0.383192227100E+03   -0.91002E-01   -0.11402E+00  8736   0.654E+01-0.119E+01
CGA:  18    -0.383277336416E+03   -0.85109E-01   -0.66293E-01  8736   0.300E+01 0.130E+01
CGA:  19    -0.383312029890E+03   -0.34693E-01   -0.29306E-01  8736   0.147E+01 0.558E+00
CGA:  20    -0.383342402715E+03   -0.30373E-01   -0.29947E-01  8736   0.283E+01 0.111E-01
CGA:  21    -0.383386955176E+03   -0.44552E-01   -0.43848E-01  8736   0.495E+01 0.250E-01
CGA:  22    -0.383446257626E+03   -0.59302E-01   -0.58959E-01  8736   0.585E+01 0.137E-01
CGA:  23    -0.383497557874E+03   -0.51300E-01   -0.57381E-01  8736   0.337E+01-0.501E+00
CGA:  24    -0.383523022441E+03   -0.25465E-01   -0.30872E-01  8736   0.248E+01-0.398E+00
CGA:  25    -0.383555262021E+03   -0.32240E-01   -0.35140E-01  8736   0.227E+01-0.646E-01
CGA:  26    -0.383583764880E+03   -0.28503E-01   -0.29426E-01  8736   0.133E+01-0.368E-01
CGA:  27    -0.383606081707E+03   -0.22317E-01   -0.22243E-01  8736   0.102E+01 0.597E-03
CGA:  28    -0.383620172540E+03   -0.14091E-01   -0.14153E-01  8736   0.527E+00-0.248E-02
CGA:  29    -0.383628441639E+03   -0.82691E-02   -0.83401E-02  8736   0.426E+00-0.126E-02
CGA:  30    -0.383638725789E+03   -0.10284E-01   -0.10324E-01  8736   0.711E+00 0.855E-02
CGA:  31    -0.383666535187E+03   -0.27809E-01   -0.27424E-01  8736   0.120E+01 0.262E-01
SDA:  32    -0.383689056953E+03   -0.22522E-01   -0.22663E-01  8736   0.532E+00 0.127E-02
CGA:  33    -0.383714306444E+03   -0.25249E-01   -0.24961E-01  8736   0.141E+00 0.120E-01
CGA:  34    -0.383721647774E+03   -0.73413E-02   -0.72918E-02  8736   0.143E+00 0.205E-02
CGA:  35    -0.383728739698E+03   -0.70919E-02   -0.71194E-02  8736   0.180E+00-0.123E-02
CGA:  36    -0.383733756568E+03   -0.50169E-02   -0.50154E-02  8736   0.150E+00-0.430E-03
CGA:  37    -0.383740963154E+03   -0.72066E-02   -0.71778E-02  8736   0.925E-01 0.139E-02
CGA:  38    -0.383745597061E+03   -0.46339E-02   -0.46012E-02  8736   0.210E-01 0.153E-02
CGA:  39    -0.383747276737E+03   -0.16797E-02   -0.16576E-02  8736   0.498E-01 0.521E-03
CGA:  40    -0.383748391177E+03   -0.11144E-02   -0.11142E-02  8736   0.217E-01-0.752E-06
CGA:  41    -0.383749910141E+03   -0.15190E-02   -0.15262E-02  8736   0.219E-01-0.200E-03
CGA:  42    -0.383750755182E+03   -0.84504E-03   -0.84439E-03  8736   0.152E-01 0.942E-04
CGA:  43    -0.383752168524E+03   -0.14133E-02   -0.14018E-02  8736   0.311E-01 0.227E-03
CGA:  44    -0.383752737182E+03   -0.56866E-03   -0.56950E-03  8736   0.852E-02-0.447E-04
CGA:  45    -0.383753754497E+03   -0.10173E-02   -0.10156E-02  8736   0.969E-02 0.298E-04
CGA:  46    -0.383754194244E+03   -0.43975E-03   -0.43966E-03  8736   0.186E-01 0.863E-05
CGA:  47    -0.383754816538E+03   -0.62229E-03   -0.62291E-03  8736   0.569E-02 0.847E-05
CGA:  48    -0.383755123687E+03   -0.30715E-03   -0.30682E-03  8736   0.404E-02 0.158E-04
CGA:  49    -0.383755329497E+03   -0.20581E-03   -0.20582E-03  8736   0.881E-02-0.240E-05
CGA:  50    -0.383755653928E+03   -0.32443E-03   -0.32463E-03  8736   0.482E-02 0.992E-05
CGA:  51    -0.383755907684E+03   -0.25376E-03   -0.25368E-03  8736   0.286E-02 0.336E-05
CGA:  52    -0.383755996733E+03   -0.89049E-04   -0.88905E-04  8736   0.160E-02-0.379E-05
CGA:  53    -0.383756077883E+03   -0.81149E-04   -0.81148E-04  8736   0.360E-02-0.847E-07
CGA:  54    -0.383756213514E+03   -0.13563E-03   -0.13567E-03  8736   0.503E-03 0.435E-05
CGA:  55    -0.383756269449E+03   -0.55934E-04   -0.55046E-04  8736   0.129E-02 0.132E-04
CGA:  56    -0.383756298086E+03   -0.28638E-04   -0.28794E-04  8736   0.628E-03 0.763E-05
CGA:  57    -0.383756341580E+03   -0.43493E-04   -0.43140E-04  8736   0.377E-03 0.146E-04
CGA:  58    -0.383756358848E+03   -0.17268E-04   -0.17271E-04  8736   0.650E-03 0.490E-05
CGA:  59    -0.383756388679E+03   -0.29831E-04   -0.29831E-04  8736   0.621E-03 0.903E-05
CGA:  60    -0.383756408854E+03   -0.20176E-04   -0.20245E-04  8736   0.354E-03 0.521E-05
CGA:  61    -0.383756442266E+03   -0.33412E-04   -0.33118E-04  8736   0.550E-03 0.607E-05
CGA:  62    -0.383756453255E+03   -0.10989E-04   -0.11037E-04  8736   0.219E-03 0.215E-05
SDA:  63    -0.383756469760E+03   -0.16505E-04   -0.16392E-04  8736   0.227E-03 0.384E-05
CGA:  64    -0.383756475384E+03   -0.56247E-05   -0.56217E-05  8736   0.190E-03-0.168E-06
   3 F= -.38375648E+03 E0= -.38373448E+03  d E =-.425203E-01  mag=    32.0000
       N       E                     dE             d eps       ncg     rms          ort
SDA:   1    -0.328077951051E+03    0.55679E+02    0.00000E+00  8736   0.161E+03 0.000E+00
CGA:   2    -0.359657641749E+03   -0.31580E+02   -0.29793E+02  8736   0.233E+03 0.186E+02
CGA:   3    -0.364230219982E+03   -0.45726E+01   -0.82753E+01  8736   0.233E+03-0.349E+02
CGA:   4    -0.372478219463E+03   -0.82480E+01   -0.72193E+01  8736   0.139E+03-0.843E+01
CGA:   5    -0.376110296222E+03   -0.36321E+01   -0.45046E+01  8736   0.156E+03-0.102E+02
CGA:   6    -0.379025844091E+03   -0.29155E+01   -0.37518E+01  8736   0.515E+02 0.651E+00
CGA:   7    -0.380941826291E+03   -0.19160E+01   -0.92624E+00  8736   0.272E+02 0.412E+02
CGA:   8    -0.381482833607E+03   -0.54101E+00   -0.46478E+00  8736   0.101E+02 0.305E+01
CGA:   9    -0.382202144929E+03   -0.71931E+00   -0.73308E+00  8736   0.249E+02-0.519E+00
CGA:  10    -0.382862915236E+03   -0.66077E+00   -0.68349E+00  8736   0.139E+02-0.203E+00
CGA:  11    -0.383181665296E+03   -0.31875E+00   -0.34171E+00  8736   0.733E+01-0.187E+00
CGA:  12    -0.383336361381E+03   -0.15470E+00   -0.14630E+00  8736   0.247E+01 0.207E+00
CGA:  13    -0.383446236000E+03   -0.10987E+00   -0.10986E+00  8736   0.276E+01-0.191E-01
CGA:  14    -0.383504175623E+03   -0.57940E-01   -0.59581E-01  8736   0.119E+01-0.374E-01
CGA:  15    -0.383540297290E+03   -0.36122E-01   -0.35169E-01  8736   0.194E+01-0.501E-02
CGA:  16    -0.383624393234E+03   -0.84096E-01   -0.84654E-01  8736   0.247E+01-0.160E+00
CGA:  17    -0.383679597734E+03   -0.55205E-01   -0.55473E-01  8736   0.184E+01-0.148E-02
CGA:  18    -0.383704606467E+03   -0.25009E-01   -0.29644E-01  8736   0.652E+00-0.201E+00
CGA:  19    -0.383715979151E+03   -0.11373E-01   -0.11937E-01  8736   0.267E+00-0.120E-01
CGA:  20    -0.383732112022E+03   -0.16133E-01   -0.16651E-01  8736   0.592E+00-0.191E-01
CGA:  21    -0.383744010862E+03   -0.11899E-01   -0.12450E-01  8736   0.390E+00-0.797E-02
CGA:  22    -0.383756592916E+03   -0.12582E-01   -0.12680E-01  8736   0.296E+00 0.518E-02
CGA:  23    -0.383768483524E+03   -0.11891E-01   -0.11885E-01  8736   0.240E+00 0.404E-02
CGA:  24    -0.383774661125E+03   -0.61776E-02   -0.63720E-02  8736   0.167E+00 0.373E-03
CGA:  25    -0.383778996497E+03   -0.43354E-02   -0.43074E-02  8736   0.807E-01 0.120E-04
CGA:  26    -0.383783665738E+03   -0.46692E-02   -0.45851E-02  8736   0.684E-01 0.363E-02
CGA:  27    -0.383787776184E+03   -0.41104E-02   -0.40662E-02  8736   0.985E-01 0.197E-02
CGA:  28    -0.383792502933E+03   -0.47267E-02   -0.47494E-02  8736   0.755E-01-0.203E-02
CGA:  29    -0.383794605854E+03   -0.21029E-02   -0.21172E-02  8736   0.789E-01 0.158E-03
CGA:  30    -0.383798104590E+03   -0.34987E-02   -0.35009E-02  8736   0.263E-01-0.271E-03
CGA:  31    -0.383799942715E+03   -0.18381E-02   -0.18239E-02  8736   0.329E-01 0.438E-03
CGA:  32    -0.383801311608E+03   -0.13689E-02   -0.13689E-02  8736   0.219E-01-0.298E-04
CGA:  33    -0.383803265010E+03   -0.19534E-02   -0.19425E-02  8736   0.156E-01 0.237E-03
CGA:  34    -0.383804203374E+03   -0.93836E-03   -0.93788E-03  8736   0.181E-01 0.257E-04
CGA:  35    -0.383804658063E+03   -0.45469E-03   -0.45642E-03  8736   0.900E-02-0.111E-04
CGA:  36    -0.383804997581E+03   -0.33952E-03   -0.33911E-03  8736   0.985E-02-0.175E-04
CGA:  37    -0.383805570316E+03   -0.57273E-03   -0.57202E-03  8736   0.640E-02 0.421E-04
SDA:  38    -0.383805944466E+03   -0.37415E-03   -0.37382E-03  8736   0.341E-02 0.205E-04
CGA:  39    -0.383806059025E+03   -0.11456E-03   -0.11447E-03  8736   0.419E-02-0.576E-05
CGA:  40    -0.383806217807E+03   -0.15878E-03   -0.15870E-03  8736   0.362E-02-0.108E-04
CGA:  41    -0.383806412897E+03   -0.19509E-03   -0.19499E-03  8736   0.274E-02 0.283E-05
CGA:  42    -0.383806556751E+03   -0.14385E-03   -0.14396E-03  8736   0.262E-02-0.116E-04
CGA:  43    -0.383806719602E+03   -0.16285E-03   -0.16321E-03  8736   0.170E-02-0.171E-04
CGA:  44    -0.383806767127E+03   -0.47525E-04   -0.47426E-04  8736   0.191E-02-0.942E-07
CGA:  45    -0.383806871216E+03   -0.10409E-03   -0.10397E-03  8736   0.119E-02 0.788E-05
CGA:  46    -0.383807032748E+03   -0.16153E-03   -0.16279E-03  8736   0.732E-03-0.159E-04
CGA:  47    -0.383807074992E+03   -0.42244E-04   -0.42221E-04  8736   0.184E-02 0.154E-05
CGA:  48    -0.383807138868E+03   -0.63877E-04   -0.63678E-04  8736   0.113E-02-0.134E-05
CGA:  49    -0.383807183477E+03   -0.44609E-04   -0.44584E-04  8736   0.598E-03-0.131E-05
CGA:  50    -0.383807215988E+03   -0.32511E-04   -0.32523E-04  8736   0.633E-03-0.129E-05
CGA:  51    -0.383807248033E+03   -0.32045E-04   -0.32039E-04  8736   0.741E-03 0.289E-05
CGA:  52    -0.383807267258E+03   -0.19225E-04   -0.19264E-04  8736   0.574E-03 0.190E-05
CGA:  53    -0.383807313679E+03   -0.46421E-04   -0.46212E-04  8736   0.171E-03 0.639E-05
CGA:  54    -0.383807329411E+03   -0.15732E-04   -0.15597E-04  8736   0.706E-03 0.328E-05
CGA:  55    -0.383807350396E+03   -0.20985E-04   -0.21087E-04  8736   0.268E-03 0.400E-05
CGA:  56    -0.383807370251E+03   -0.19855E-04   -0.19777E-04  8736   0.153E-03 0.340E-05
CGA:  57    -0.383807375073E+03   -0.48218E-05   -0.48349E-05  8736   0.173E-03 0.259E-06
   4 F= -.38380738E+03 E0= -.38378538E+03  d E =-.508997E-01  mag=    32.0000
       N       E                     dE             d eps       ncg     rms          ort
SDA:   1    -0.365198183273E+03    0.18609E+02    0.00000E+00  8736   0.109E+03 0.000E+00
CGA:   2    -0.369651543732E+03   -0.44534E+01   -0.27492E+01  8736   0.814E+02 0.272E+02
CGA:   3    -0.371561192315E+03   -0.19096E+01   -0.30831E+01  8736   0.119E+03-0.284E+01
CGA:   4    -0.373697656392E+03   -0.21365E+01   -0.25089E+01  8736   0.239E+03-0.199E+02
CGA:   5    -0.374861638885E+03   -0.11640E+01   -0.24673E+01  8736   0.253E+03-0.944E+02
CGA:   6    -0.375982895598E+03   -0.11213E+01   -0.16091E+01  8736   0.167E+03-0.430E+02
CGA:   7    -0.375930444907E+03    0.52451E-01   -0.15996E+01  8736   0.105E+03-0.111E+03
CGA:   8    -0.378823588351E+03   -0.28931E+01   -0.20839E+01  8736   0.610E+02 0.466E+01
CGA:   9    -0.380563135326E+03   -0.17395E+01   -0.19827E+01  8736   0.602E+02 0.451E+01
CGA:  10    -0.381810060662E+03   -0.12469E+01   -0.12952E+01  8736   0.458E+02-0.228E+01
CGA:  11    -0.382729734130E+03   -0.91967E+00   -0.69145E+00  8736   0.117E+02 0.314E+01
CGA:  12    -0.382955438626E+03   -0.22570E+00   -0.22571E+00  8736   0.163E+02-0.594E-01
CGA:  13    -0.383373738819E+03   -0.41830E+00   -0.42272E+00  8736   0.181E+02 0.371E-01
CGA:  14    -0.383543319829E+03   -0.16958E+00   -0.18692E+00  8736   0.237E+01-0.139E+01
CGA:  15    -0.383587982817E+03   -0.44663E-01   -0.47433E-01  8736   0.331E+01-0.173E-01
CGA:  16    -0.383704461949E+03   -0.11648E+00   -0.11635E+00  8736   0.179E+01 0.779E-01
CGA:  17    -0.383776546858E+03   -0.72085E-01   -0.72162E-01  8736   0.229E+01-0.901E-02
CGA:  18    -0.383837445374E+03   -0.60899E-01   -0.61273E-01  8736   0.200E+01 0.886E-02
CGA:  19    -0.383897705986E+03   -0.60261E-01   -0.59199E-01  8736   0.609E+00-0.719E-01
CGA:  20    -0.383936551539E+03   -0.38846E-01   -0.38482E-01  8736   0.954E+00 0.111E-01
CGA:  21    -0.383953056200E+03   -0.16505E-01   -0.17250E-01  8736   0.217E+00-0.196E-01
CGA:  22    -0.383968223527E+03   -0.15167E-01   -0.15215E-01  8736   0.198E+00-0.149E-02
CGA:  23    -0.383981517072E+03   -0.13294E-01   -0.13145E-01  8736   0.113E+00 0.463E-02
CGA:  24    -0.383989149616E+03   -0.76325E-02   -0.78209E-02  8736   0.195E+00-0.630E-02
CGA:  25    -0.383992540583E+03   -0.33910E-02   -0.35191E-02  8736   0.577E-01-0.367E-02
CGA:  26    -0.383997430333E+03   -0.48898E-02   -0.46492E-02  8736   0.906E-01 0.568E-02
CGA:  27    -0.384000206801E+03   -0.27765E-02   -0.26205E-02  8736   0.848E-01 0.724E-03
CGA:  28    -0.384003379742E+03   -0.31729E-02   -0.31491E-02  8736   0.115E+00-0.298E-02
CGA:  29    -0.384007339646E+03   -0.39599E-02   -0.40119E-02  8736   0.131E+00 0.595E-02
CGA:  30    -0.384010526253E+03   -0.31866E-02   -0.31714E-02  8736   0.774E-01 0.165E-03
CGA:  31    -0.384013656961E+03   -0.31307E-02   -0.31285E-02  8736   0.453E-01 0.802E-03
CGA:  32    -0.384015357565E+03   -0.17006E-02   -0.16995E-02  8736   0.422E-01-0.288E-03
CGA:  33    -0.384016450426E+03   -0.10929E-02   -0.10878E-02  8736   0.297E-01-0.507E-04
CGA:  34    -0.384017756770E+03   -0.13063E-02   -0.13096E-02  8736   0.407E-01-0.386E-03
CGA:  35    -0.384019120434E+03   -0.13637E-02   -0.13637E-02  8736   0.213E-01 0.615E-05
CGA:  36    -0.384019511899E+03   -0.39147E-03   -0.41334E-03  8736   0.928E-02-0.544E-03
CGA:  37    -0.384020216055E+03   -0.70416E-03   -0.68729E-03  8736   0.138E-01 0.425E-03
SDA:  38    -0.384020668014E+03   -0.45196E-03   -0.44981E-03  8736   0.620E-02-0.572E-04
CGA:  39    -0.384020989905E+03   -0.32189E-03   -0.32243E-03  8736   0.567E-02-0.308E-04
CGA:  40    -0.384021257754E+03   -0.26785E-03   -0.26804E-03  8736   0.550E-02-0.163E-04
CGA:  41    -0.384021583555E+03   -0.32580E-03   -0.32966E-03  8736   0.172E-01-0.161E-03
CGA:  42    -0.384022344456E+03   -0.76090E-03   -0.75682E-03  8736   0.537E-02 0.549E-03
CGA:  43    -0.384022552649E+03   -0.20819E-03   -0.20847E-03  8736   0.727E-02 0.343E-04
CGA:  44    -0.384022740623E+03   -0.18797E-03   -0.18551E-03  8736   0.281E-02 0.232E-04
CGA:  45    -0.384022849134E+03   -0.10851E-03   -0.10841E-03  8736   0.235E-02-0.278E-04
CGA:  46    -0.384022960169E+03   -0.11103E-03   -0.11096E-03  8736   0.410E-02 0.410E-05
CGA:  47    -0.384023086399E+03   -0.12623E-03   -0.12607E-03  8736   0.280E-02-0.900E-05
CGA:  48    -0.384023166474E+03   -0.80075E-04   -0.79835E-04  8736   0.573E-03-0.584E-05
CGA:  49    -0.384023195364E+03   -0.28890E-04   -0.28905E-04  8736   0.147E-02-0.153E-05
CGA:  50    -0.384023240903E+03   -0.45539E-04   -0.45478E-04  8736   0.414E-03-0.414E-05
CGA:  51    -0.384023277862E+03   -0.36959E-04   -0.37068E-04  8736   0.104E-02-0.219E-05
CGA:  52    -0.384023297177E+03   -0.19315E-04   -0.19304E-04  8736   0.330E-03-0.114E-05
CGA:  53    -0.384023317881E+03   -0.20704E-04   -0.20703E-04  8736   0.573E-03-0.142E-06
CGA:  54    -0.384023337318E+03   -0.19437E-04   -0.19414E-04  8736   0.278E-03-0.110E-05
CGA:  55    -0.384023343448E+03   -0.61301E-05   -0.61336E-05  8736   0.224E-03 0.223E-06
CGA:  56    -0.384023362404E+03   -0.18956E-04   -0.18865E-04  8736   0.206E-03 0.203E-05
CGA:  57    -0.384023369501E+03   -0.70969E-05   -0.71050E-05  8736   0.359E-03 0.847E-06
CGA:  58    -0.384023385614E+03   -0.16113E-04   -0.16106E-04  8736   0.170E-03 0.284E-05
CGA:  59    -0.384023392767E+03   -0.71524E-05   -0.71529E-05  8736   0.185E-03 0.903E-06
   5 F= -.38402339E+03 E0= -.38400151E+03  d E =-.216018E+00  mag=    32.0000
       N       E                     dE             d eps       ncg     rms          ort
SDA:   1    -0.367706842886E+03    0.16317E+02    0.00000E+00  8736   0.461E+02 0.000E+00
CGA:   2    -0.377477040937E+03   -0.97702E+01   -0.42019E-01  8736   0.560E+02-0.987E+01
CGA:   3    -0.379370392881E+03   -0.18934E+01   -0.18987E+01  8736   0.424E+02-0.215E+01
CGA:   4    -0.381853737379E+03   -0.24833E+01   -0.25144E+01  8736   0.411E+02 0.703E+00
CGA:   5    -0.382793869712E+03   -0.94013E+00   -0.72940E+00  8736   0.936E+01 0.117E+02
CGA:   6    -0.383029503479E+03   -0.23563E+00   -0.12716E+00  8736   0.677E+01 0.100E+02
CGA:   7    -0.383324752871E+03   -0.29525E+00   -0.26150E+00  8736   0.429E+01 0.427E+00
CGA:   8    -0.383471895360E+03   -0.14714E+00   -0.14332E+00  8736   0.896E+01 0.598E-01
CGA:   9    -0.383803226462E+03   -0.33133E+00   -0.34316E+00  8736   0.430E+01-0.747E-01
CGA:  10    -0.383867710370E+03   -0.64484E-01   -0.64840E-01  8736   0.151E+01-0.244E-01
CGA:  11    -0.383906077957E+03   -0.38368E-01   -0.40069E-01  8736   0.825E+00-0.297E-01
CGA:  12    -0.383924623531E+03   -0.18546E-01   -0.19243E-01  8736   0.615E+00-0.184E-01
CGA:  13    -0.383943245714E+03   -0.18622E-01   -0.18859E-01  8736   0.599E+00-0.342E-02
CGA:  14    -0.383981453081E+03   -0.38207E-01   -0.38358E-01  8736   0.856E+00-0.116E-01
CGA:  15    -0.383993447769E+03   -0.11995E-01   -0.12065E-01  8736   0.158E+00-0.469E-02
CGA:  16    -0.384001526006E+03   -0.80782E-02   -0.80775E-02  8736   0.279E+00 0.582E-05
CGA:  17    -0.384007492272E+03   -0.59663E-02   -0.59457E-02  8736   0.138E+00 0.635E-03
CGA:  18    -0.384011602695E+03   -0.41104E-02   -0.40938E-02  8736   0.800E-01 0.232E-03
CGA:  19    -0.384014158153E+03   -0.25555E-02   -0.25466E-02  8736   0.113E+00 0.777E-04
CGA:  20    -0.384017701616E+03   -0.35435E-02   -0.35542E-02  8736   0.691E-01-0.233E-04
CGA:  21    -0.384020119123E+03   -0.24175E-02   -0.24183E-02  8736   0.706E-01 0.191E-04
CGA:  22    -0.384021507400E+03   -0.13883E-02   -0.13775E-02  8736   0.352E-01 0.387E-03
CGA:  23    -0.384023287125E+03   -0.17797E-02   -0.17784E-02  8736   0.400E-01 0.264E-03
CGA:  24    -0.384024017978E+03   -0.73085E-03   -0.74002E-03  8736   0.209E-01-0.331E-03
CGA:  25    -0.384025171105E+03   -0.11531E-02   -0.11556E-02  8736   0.349E-01-0.166E-03
CGA:  26    -0.384026288556E+03   -0.11175E-02   -0.11177E-02  8736   0.387E-01 0.114E-04
CGA:  27    -0.384027281244E+03   -0.99269E-03   -0.99452E-03  8736   0.223E-01-0.129E-04
CGA:  28    -0.384028337771E+03   -0.10565E-02   -0.10565E-02  8736   0.239E-01 0.852E-05
CGA:  29    -0.384028704799E+03   -0.36703E-03   -0.36847E-03  8736   0.624E-02-0.542E-04
CGA:  30    -0.384029144446E+03   -0.43965E-03   -0.44012E-03  8736   0.171E-01-0.150E-04
CGA:  31    -0.384029578717E+03   -0.43427E-03   -0.43489E-03  8736   0.118E-01-0.510E-05
CGA:  32    -0.384029926773E+03   -0.34806E-03   -0.34771E-03  8736   0.676E-02 0.234E-05
CGA:  33    -0.384030163799E+03   -0.23703E-03   -0.23693E-03  8736   0.909E-02-0.115E-05
CGA:  34    -0.384030372209E+03   -0.20841E-03   -0.20921E-03  8736   0.327E-02-0.117E-04
CGA:  35    -0.384030502756E+03   -0.13055E-03   -0.13055E-03  8736   0.420E-02-0.332E-06
CGA:  36    -0.384030600921E+03   -0.98165E-04   -0.98072E-04  8736   0.316E-02 0.194E-05
SDA:  37    -0.384030752643E+03   -0.15172E-03   -0.15169E-03  8736   0.237E-02 0.377E-05
CGA:  38    -0.384030790290E+03   -0.37647E-04   -0.37600E-04  8736   0.821E-03 0.769E-06
CGA:  39    -0.384030843002E+03   -0.52712E-04   -0.52796E-04  8736   0.160E-02-0.337E-05
CGA:  40    -0.384030921032E+03   -0.78030E-04   -0.78062E-04  8736   0.980E-03-0.394E-05
CGA:  41    -0.384031005598E+03   -0.84566E-04   -0.84464E-04  8736   0.655E-03 0.240E-05
CGA:  42    -0.384031079133E+03   -0.73535E-04   -0.73621E-04  8736   0.121E-02-0.957E-06
CGA:  43    -0.384031119831E+03   -0.40698E-04   -0.40645E-04  8736   0.108E-02-0.325E-05
CGA:  44    -0.384031146018E+03   -0.26187E-04   -0.26123E-04  8736   0.359E-03-0.296E-05
CGA:  45    -0.384031184367E+03   -0.38348E-04   -0.38667E-04  8736   0.101E-02-0.513E-05
CGA:  46    -0.384031224147E+03   -0.39781E-04   -0.39759E-04  8736   0.256E-03-0.347E-05
CGA:  47    -0.384031253588E+03   -0.29441E-04   -0.29517E-04  8736   0.118E-03-0.112E-05
CGA:  48    -0.384031259297E+03   -0.57085E-05   -0.57074E-05  8736   0.223E-03-0.240E-06
CGA:  49    -0.384031270479E+03   -0.11182E-04   -0.11182E-04  8736   0.275E-03-0.417E-07
CGA:  50    -0.384031277438E+03   -0.69591E-05   -0.69613E-05  8736   0.105E-03 0.556E-08
   6 F= -.38403128E+03 E0= -.38400955E+03  d E =-.788467E-02  mag=    32.0000
       N       E                     dE             d eps       ncg     rms          ort
SDA:   1    -0.325484530640E+03    0.58547E+02    0.00000E+00  8736   0.174E+03 0.000E+00
CGA:   2    -0.346947696119E+03   -0.21463E+02   -0.20099E+02  8736   0.551E+03 0.302E+02
CGA:   3    -0.361782118405E+03   -0.14834E+02   -0.20929E+02  8736   0.268E+03-0.825E+02
CGA:   4    -0.369120365748E+03   -0.73382E+01   -0.46129E+01  8736   0.694E+02 0.823E+02
CGA:   5    -0.371368825297E+03   -0.22485E+01   -0.21280E+01  8736   0.178E+03-0.545E+01
CGA:   6    -0.374264176942E+03   -0.28954E+01   -0.40815E+01  8736   0.513E+03-0.235E+02
CGA:   7    -0.377436117699E+03   -0.31719E+01   -0.36880E+01  8736   0.193E+03-0.920E+02
CGA:   8    -0.377764187024E+03   -0.32807E+00   -0.17269E+01  8736   0.171E+03-0.131E+03
CGA:   9    -0.379248642051E+03   -0.14845E+01   -0.30861E+01  8736   0.175E+03-0.817E+02
CGA:  10    -0.381893981928E+03   -0.26453E+01   -0.24366E+01  8736   0.354E+02-0.523E+00
CGA:  11    -0.382440057298E+03   -0.54608E+00   -0.57234E+00  8736   0.307E+02-0.338E+01
CGA:  12    -0.383042976766E+03   -0.60292E+00   -0.51323E+00  8736   0.116E+02 0.290E+01
CGA:  13    -0.383180286914E+03   -0.13731E+00   -0.15249E+00  8736   0.896E+01-0.122E+01
CGA:  14    -0.383426014574E+03   -0.24573E+00   -0.24951E+00  8736   0.843E+01 0.111E+00
CGA:  15    -0.383536358177E+03   -0.11034E+00   -0.11063E+00  8736   0.653E+01-0.763E-01
CGA:  16    -0.383682270014E+03   -0.14591E+00   -0.13806E+00  8736   0.645E+01 0.107E+00
CGA:  17    -0.383752381010E+03   -0.70111E-01   -0.87216E-01  8736   0.280E+01-0.862E+00
CGA:  18    -0.383812787001E+03   -0.60406E-01   -0.61321E-01  8736   0.181E+01 0.735E-02
CGA:  19    -0.383849344581E+03   -0.36558E-01   -0.36245E-01  8736   0.204E+01 0.460E-02
CGA:  20    -0.383897409014E+03   -0.48064E-01   -0.45940E-01  8736   0.112E+01 0.992E-02
CGA:  21    -0.383910879046E+03   -0.13470E-01   -0.13928E-01  8736   0.659E+00-0.265E-01
CGA:  22    -0.383945902062E+03   -0.35023E-01   -0.34170E-01  8736   0.133E+01 0.350E-01
CGA:  23    -0.383967960826E+03   -0.22059E-01   -0.22231E-01  8736   0.964E+00-0.708E-02
CGA:  24    -0.383991208956E+03   -0.23248E-01   -0.23170E-01  8736   0.542E+00-0.130E-02
CGA:  25    -0.384000519753E+03   -0.93108E-02   -0.98473E-02  8736   0.438E+00-0.907E-02
CGA:  26    -0.384010203518E+03   -0.96838E-02   -0.98312E-02  8736   0.178E+00 0.209E-02
CGA:  27    -0.384015780144E+03   -0.55766E-02   -0.55764E-02  8736   0.272E+00 0.204E-02
CGA:  28    -0.384022578263E+03   -0.67981E-02   -0.68022E-02  8736   0.182E+00 0.208E-03
CGA:  29    -0.384030530962E+03   -0.79527E-02   -0.78633E-02  8736   0.244E+00 0.569E-02
CGA:  30    -0.384035542085E+03   -0.50111E-02   -0.51158E-02  8736   0.157E+00-0.280E-03
CGA:  31    -0.384042816133E+03   -0.72740E-02   -0.72535E-02  8736   0.938E-01 0.111E-02
CGA:  32    -0.384045228357E+03   -0.24122E-02   -0.24157E-02  8736   0.806E-01 0.194E-03
CGA:  33    -0.384047593174E+03   -0.23648E-02   -0.23681E-02  8736   0.543E-01 0.746E-03
CGA:  34    -0.384050205184E+03   -0.26120E-02   -0.26237E-02  8736   0.497E-01-0.598E-03
CGA:  35    -0.384051621923E+03   -0.14167E-02   -0.14181E-02  8736   0.583E-01 0.177E-03
CGA:  36    -0.384053680240E+03   -0.20583E-02   -0.20544E-02  8736   0.232E-01 0.729E-03
CGA:  37    -0.384054565645E+03   -0.88540E-03   -0.88495E-03  8736   0.214E-01 0.560E-04
CGA:  38    -0.384055179158E+03   -0.61351E-03   -0.61377E-03  8736   0.212E-01 0.246E-04
SDA:  39    -0.384056012504E+03   -0.83335E-03   -0.83269E-03  8736   0.112E-01 0.623E-04
CGA:  40    -0.384056338384E+03   -0.32588E-03   -0.32579E-03  8736   0.619E-02-0.130E-04
CGA:  41    -0.384056626274E+03   -0.28789E-03   -0.28704E-03  8736   0.781E-02 0.481E-04
CGA:  42    -0.384056877347E+03   -0.25107E-03   -0.25108E-03  8736   0.832E-02 0.154E-05
CGA:  43    -0.384057605530E+03   -0.72818E-03   -0.73086E-03  8736   0.410E-02-0.537E-04
CGA:  44    -0.384057876726E+03   -0.27120E-03   -0.27307E-03  8736   0.296E-02-0.594E-04
CGA:  45    -0.384058041599E+03   -0.16487E-03   -0.16487E-03  8736   0.288E-02-0.184E-05
CGA:  46    -0.384058205201E+03   -0.16360E-03   -0.16379E-03  8736   0.369E-02-0.109E-04
CGA:  47    -0.384058452780E+03   -0.24758E-03   -0.24882E-03  8736   0.430E-02-0.414E-04
CGA:  48    -0.384058522782E+03   -0.70003E-04   -0.69996E-04  8736   0.948E-03-0.508E-05
CGA:  49    -0.384058663096E+03   -0.14031E-03   -0.13882E-03  8736   0.638E-03 0.134E-04
CGA:  50    -0.384058713108E+03   -0.50012E-04   -0.49831E-04  8736   0.932E-03 0.562E-05
CGA:  51    -0.384058745686E+03   -0.32577E-04   -0.32635E-04  8736   0.983E-03 0.424E-05
CGA:  52    -0.384058781062E+03   -0.35376E-04   -0.35426E-04  8736   0.802E-03 0.499E-05
CGA:  53    -0.384058810763E+03   -0.29702E-04   -0.29726E-04  8736   0.376E-03 0.356E-05
CGA:  54    -0.384058837669E+03   -0.26905E-04   -0.26837E-04  8736   0.379E-03 0.279E-05
CGA:  55    -0.384058878299E+03   -0.40630E-04   -0.40144E-04  8736   0.181E-03 0.827E-05
CGA:  56    -0.384058888686E+03   -0.10386E-04   -0.10374E-04  8736   0.446E-03 0.173E-05
CGA:  57    -0.384058901361E+03   -0.12675E-04   -0.12703E-04  8736   0.127E-03 0.254E-05
CGA:  58    -0.384058918323E+03   -0.16962E-04   -0.16504E-04  8736   0.241E-03 0.569E-05
CGA:  59    -0.384058926522E+03   -0.81988E-05   -0.82545E-05  8736   0.119E-03 0.272E-05
   7 F= -.38405893E+03 E0= -.38403723E+03  d E =-.276491E-01  mag=    32.0000
       N       E                     dE             d eps       ncg     rms          ort
SDA:   1    -0.333179267775E+03    0.50880E+02    0.00000E+00  8736   0.182E+03 0.000E+00
CGA:   2    -0.342813817939E+03   -0.96346E+01   -0.95369E+01  8736   0.376E+03 0.268E+02
CGA:   3    -0.361563847900E+03   -0.18750E+02   -0.18691E+02  8736   0.333E+03-0.252E+02
CGA:   4    -0.369930271499E+03   -0.83664E+01   -0.97465E+01  8736   0.112E+03-0.273E+02
CGA:   5    -0.374593098730E+03   -0.46628E+01   -0.45249E+01  8736   0.134E+03-0.113E+02
CGA:   6    -0.378481534380E+03   -0.38884E+01   -0.38754E+01  8736   0.106E+03-0.472E+01
CGA:   7    -0.380865976211E+03   -0.23844E+01   -0.26995E+01  8736   0.439E+02-0.658E+01
CGA:   8    -0.381939919413E+03   -0.10739E+01   -0.11179E+01  8736   0.363E+02-0.717E+00
CGA:   9    -0.382749765868E+03   -0.80985E+00   -0.79508E+00  8736   0.122E+02-0.361E+00
CGA:  10    -0.383061066318E+03   -0.31130E+00   -0.32548E+00  8736   0.843E+01-0.170E+00
CGA:  11    -0.383325538378E+03   -0.26447E+00   -0.26544E+00  8736   0.101E+02-0.960E-02
CGA:  12    -0.383661831229E+03   -0.33629E+00   -0.33755E+00  8736   0.470E+01 0.328E-01
CGA:  13    -0.383792720332E+03   -0.13089E+00   -0.12933E+00  8736   0.298E+01 0.115E-01
CGA:  14    -0.383866920453E+03   -0.74200E-01   -0.74714E-01  8736   0.181E+01-0.635E-02
CGA:  15    -0.383919790030E+03   -0.52870E-01   -0.52359E-01  8736   0.124E+01-0.317E-02
CGA:  16    -0.383978603213E+03   -0.58813E-01   -0.58313E-01  8736   0.171E+01 0.495E-01
CGA:  17    -0.384016368524E+03   -0.37765E-01   -0.39251E-01  8736   0.741E+00-0.299E-01
CGA:  18    -0.384043616836E+03   -0.27248E-01   -0.27201E-01  8736   0.589E+00-0.734E-02
CGA:  19    -0.384058612026E+03   -0.14995E-01   -0.15152E-01  8736   0.391E+00-0.406E-03
CGA:  20    -0.384072677793E+03   -0.14066E-01   -0.14102E-01  8736   0.284E+00 0.494E-02
CGA:  21    -0.384082567158E+03   -0.98894E-02   -0.99488E-02  8736   0.253E+00 0.517E-02
CGA:  22    -0.384091076557E+03   -0.85094E-02   -0.85030E-02  8736   0.220E+00-0.355E-03
CGA:  23    -0.384099896000E+03   -0.88194E-02   -0.88056E-02  8736   0.165E+00 0.489E-02
CGA:  24    -0.384105753329E+03   -0.58573E-02   -0.58682E-02  8736   0.129E+00 0.109E-02
CGA:  25    -0.384109390307E+03   -0.36370E-02   -0.36672E-02  8736   0.725E-01 0.531E-03
CGA:  26    -0.384113489147E+03   -0.40988E-02   -0.40752E-02  8736   0.108E+00 0.108E-02
CGA:  27    -0.384117181130E+03   -0.36920E-02   -0.36969E-02  8736   0.764E-01 0.384E-03
CGA:  28    -0.384120052410E+03   -0.28713E-02   -0.28733E-02  8736   0.595E-01 0.929E-03
CGA:  29    -0.384122434254E+03   -0.23818E-02   -0.23806E-02  8736   0.402E-01 0.644E-03
CGA:  30    -0.384123634554E+03   -0.12003E-02   -0.12018E-02  8736   0.294E-01 0.524E-04
CGA:  31    -0.384125251415E+03   -0.16169E-02   -0.16176E-02  8736   0.338E-01-0.304E-04
SDA:  32    -0.384126529060E+03   -0.12776E-02   -0.12779E-02  8736   0.296E-01 0.125E-03
CGA:  33    -0.384126950569E+03   -0.42151E-03   -0.42301E-03  8736   0.875E-02-0.717E-04
CGA:  34    -0.384127702971E+03   -0.75240E-03   -0.74658E-03  8736   0.100E-01 0.127E-03
CGA:  35    -0.384128550588E+03   -0.84762E-03   -0.85148E-03  8736   0.120E-01-0.905E-04
CGA:  36    -0.384129203898E+03   -0.65331E-03   -0.65400E-03  8736   0.112E-01-0.402E-04
CGA:  37    -0.384129547351E+03   -0.34345E-03   -0.34329E-03  8736   0.649E-02-0.143E-05
CGA:  38    -0.384129720729E+03   -0.17338E-03   -0.17320E-03  8736   0.458E-02 0.869E-06
CGA:  39    -0.384129948824E+03   -0.22809E-03   -0.22791E-03  8736   0.234E-02 0.146E-04
CGA:  40    -0.384130377958E+03   -0.42913E-03   -0.42760E-03  8736   0.201E-02 0.151E-04
CGA:  41    -0.384130655557E+03   -0.27760E-03   -0.27712E-03  8736   0.480E-02 0.641E-05
CGA:  42    -0.384130738844E+03   -0.83287E-04   -0.83252E-04  8736   0.159E-02 0.423E-06
CGA:  43    -0.384130922665E+03   -0.18382E-03   -0.18414E-03  8736   0.142E-02-0.490E-05
CGA:  44    -0.384130981093E+03   -0.58427E-04   -0.58370E-04  8736   0.124E-02-0.303E-05
CGA:  45    -0.384131063178E+03   -0.82086E-04   -0.82106E-04  8736   0.767E-03-0.256E-05
CGA:  46    -0.384131116259E+03   -0.53080E-04   -0.53104E-04  8736   0.109E-02-0.196E-05
CGA:  47    -0.384131144675E+03   -0.28417E-04   -0.28352E-04  8736   0.895E-03-0.694E-06
CGA:  48    -0.384131188686E+03   -0.44011E-04   -0.43991E-04  8736   0.471E-03-0.238E-05
CGA:  49    -0.384131226446E+03   -0.37760E-04   -0.37684E-04  8736   0.199E-03 0.277E-05
CGA:  50    -0.384131250257E+03   -0.23811E-04   -0.23568E-04  8736   0.789E-03 0.391E-05
CGA:  51    -0.384131266609E+03   -0.16352E-04   -0.16464E-04  8736   0.147E-03 0.242E-05
CGA:  52    -0.384131280710E+03   -0.14101E-04   -0.13945E-04  8736   0.250E-03 0.410E-05
CGA:  53    -0.384131288571E+03   -0.78615E-05   -0.79260E-05  8736   0.132E-03 0.219E-05
   8 F= -.38413129E+03 E0= -.38410959E+03  d E =-.723620E-01  mag=    32.0000
       N       E                     dE             d eps       ncg     rms          ort
SDA:   1    -0.352847588810E+03    0.31284E+02    0.00000E+00  8736   0.174E+03 0.000E+00
CGA:   2    -0.357227397563E+03   -0.43798E+01   -0.50962E+01  8736   0.229E+03-0.307E+02
CGA:   3    -0.368936469829E+03   -0.11709E+02   -0.12540E+02  8736   0.276E+03-0.489E+02
CGA:   4    -0.373319681311E+03   -0.43832E+01   -0.52556E+01  8736   0.154E+03-0.921E+02
CGA:   5    -0.376457236994E+03   -0.31376E+01   -0.36581E+01  8736   0.880E+02 0.369E+01
CGA:   6    -0.378349437592E+03   -0.18922E+01   -0.15642E+01  8736   0.379E+02 0.295E+01
CGA:   7    -0.380927286217E+03   -0.25778E+01   -0.32813E+01  8736   0.165E+03-0.199E+02
CGA:   8    -0.381247781659E+03   -0.32050E+00   -0.34982E+01  8736   0.137E+03-0.875E+02
CGA:   9    -0.381635670999E+03   -0.38789E+00   -0.26426E+01  8736   0.130E+03-0.130E+03
CGA:  10    -0.382952219330E+03   -0.13165E+01   -0.15518E+01  8736   0.115E+02-0.315E+02
CGA:  11    -0.383145817862E+03   -0.19360E+00   -0.19073E+00  8736   0.450E+01 0.705E-02
CGA:  12    -0.383400610241E+03   -0.25479E+00   -0.25704E+00  8736   0.123E+02-0.140E+00
CGA:  13    -0.383843239618E+03   -0.44263E+00   -0.43216E+00  8736   0.538E+01-0.164E+00
CGA:  14    -0.383961405831E+03   -0.11817E+00   -0.12777E+00  8736   0.325E+01-0.222E+00
CGA:  15    -0.384051317403E+03   -0.89912E-01   -0.86773E-01  8736   0.135E+01 0.295E-01
CGA:  16    -0.384089580287E+03   -0.38263E-01   -0.39501E-01  8736   0.127E+01-0.396E-02
CGA:  17    -0.384146090109E+03   -0.56510E-01   -0.56751E-01  8736   0.187E+01-0.107E+00
CGA:  18    -0.384214951891E+03   -0.68862E-01   -0.70030E-01  8736   0.638E+00 0.184E+00
CGA:  19    -0.384245972169E+03   -0.31020E-01   -0.30989E-01  8736   0.555E+00 0.271E-01
CGA:  20    -0.384262565074E+03   -0.16593E-01   -0.16973E-01  8736   0.341E+00 0.145E-02
CGA:  21    -0.384272768428E+03   -0.10203E-01   -0.10189E-01  8736   0.221E+00-0.266E-03
CGA:  22    -0.384281428411E+03   -0.86600E-02   -0.86624E-02  8736   0.155E+00 0.418E-03
CGA:  23    -0.384291355937E+03   -0.99275E-02   -0.98834E-02  8736   0.196E+00 0.174E-02
CGA:  24    -0.384295810679E+03   -0.44547E-02   -0.45002E-02  8736   0.108E+00-0.775E-03
CGA:  25    -0.384306236354E+03   -0.10426E-01   -0.10502E-01  8736   0.108E+00-0.147E-02
CGA:  26    -0.384308284862E+03   -0.20485E-02   -0.20681E-02  8736   0.420E-01-0.575E-03
CGA:  27    -0.384311918828E+03   -0.36340E-02   -0.36014E-02  8736   0.112E+00 0.763E-03
CGA:  28    -0.384316407940E+03   -0.44891E-02   -0.44877E-02  8736   0.653E-01-0.569E-04
CGA:  29    -0.384318482112E+03   -0.20742E-02   -0.20714E-02  8736   0.487E-01-0.967E-06
CGA:  30    -0.384320072437E+03   -0.15903E-02   -0.15932E-02  8736   0.189E-01 0.537E-04
CGA:  31    -0.384321072368E+03   -0.99993E-03   -0.99856E-03  8736   0.294E-01 0.117E-03
CGA:  32    -0.384321997755E+03   -0.92539E-03   -0.92847E-03  8736   0.176E-01 0.356E-04
CGA:  33    -0.384322947162E+03   -0.94941E-03   -0.94900E-03  8736   0.133E-01 0.334E-04
CGA:  34    -0.384323297725E+03   -0.35056E-03   -0.35077E-03  8736   0.894E-02 0.862E-05
CGA:  35    -0.384323760067E+03   -0.46234E-03   -0.46260E-03  8736   0.639E-02-0.136E-04
CGA:  36    -0.384323979186E+03   -0.21912E-03   -0.21922E-03  8736   0.610E-02 0.790E-05
CGA:  37    -0.384324285209E+03   -0.30602E-03   -0.30600E-03  8736   0.647E-02 0.470E-05
CGA:  38    -0.384324479519E+03   -0.19431E-03   -0.19442E-03  8736   0.303E-02 0.279E-05
CGA:  39    -0.384324673183E+03   -0.19366E-03   -0.19376E-03  8736   0.544E-02-0.395E-05
SDA:  40    -0.384324813280E+03   -0.14010E-03   -0.14020E-03  8736   0.159E-02-0.379E-05
CGA:  41    -0.384324856758E+03   -0.43478E-04   -0.43443E-04  8736   0.166E-02-0.334E-06
CGA:  42    -0.384324929731E+03   -0.72973E-04   -0.72971E-04  8736   0.117E-02 0.282E-06
CGA:  43    -0.384325007270E+03   -0.77539E-04   -0.77540E-04  8736   0.154E-02-0.141E-06
CGA:  44    -0.384325089393E+03   -0.82123E-04   -0.82177E-04  8736   0.114E-02-0.530E-05
CGA:  45    -0.384325162439E+03   -0.73046E-04   -0.73155E-04  8736   0.763E-03-0.572E-05
CGA:  46    -0.384325202904E+03   -0.40465E-04   -0.40465E-04  8736   0.133E-02-0.862E-06
CGA:  47    -0.384325235499E+03   -0.32595E-04   -0.32549E-04  8736   0.469E-03-0.152E-05
CGA:  48    -0.384325303824E+03   -0.68325E-04   -0.68696E-04  8736   0.291E-03-0.400E-05
CGA:  49    -0.384325320968E+03   -0.17144E-04   -0.17133E-04  8736   0.571E-03 0.100E-05
CGA:  50    -0.384325334922E+03   -0.13955E-04   -0.14003E-04  8736   0.189E-03 0.111E-05
CGA:  51    -0.384325348120E+03   -0.13197E-04   -0.13144E-04  8736   0.238E-03 0.250E-05
CGA:  52    -0.384325357167E+03   -0.90474E-05   -0.90662E-05  8736   0.122E-03 0.168E-05
   9 F= -.38432536E+03 E0= -.38430385E+03  d E =-.194069E+00  mag=    32.0000
       N       E                     dE             d eps       ncg     rms          ort
SDA:   1    -0.336963064357E+03    0.47362E+02    0.00000E+00  8736   0.189E+03 0.000E+00
CGA:   2    -0.346095887311E+03   -0.91328E+01   -0.92265E+01  8736   0.249E+03 0.442E+02
CGA:   3    -0.360937808610E+03   -0.14842E+02   -0.14926E+02  8736   0.258E+03 0.269E+02
CGA:   4    -0.369722648759E+03   -0.87848E+01   -0.10646E+02  8736   0.183E+03 0.246E+02
CGA:   5    -0.371604686026E+03   -0.18820E+01   -0.24715E+01  8736   0.217E+03-0.722E+02
CGA:   6    -0.373689886390E+03   -0.20852E+01   -0.21621E+01  8736   0.420E+03-0.108E+03
CGA:   7    -0.372126319478E+03    0.15636E+01   -0.25935E+01  8736   0.225E+03-0.140E+03
CGA:   8    -0.376952230352E+03   -0.48259E+01   -0.38224E+01  8736   0.141E+03 0.211E+01
CGA:   9    -0.378330273267E+03   -0.13780E+01   -0.22125E+01  8736   0.409E+02-0.377E+02
CGA:  10    -0.379007595058E+03   -0.67732E+00   -0.52913E+00  8736   0.385E+02 0.739E+01
CGA:  11    -0.379916420395E+03   -0.90883E+00   -0.83309E+00  8736   0.353E+02-0.141E+01
CGA:  12    -0.380334448252E+03   -0.41803E+00   -0.44371E+00  8736   0.286E+02-0.142E+01
CGA:  13    -0.380774880304E+03   -0.44043E+00   -0.40539E+00  8736   0.396E+02 0.169E+01
CGA:  14    -0.381469410441E+03   -0.69453E+00   -0.65207E+00  8736   0.639E+02-0.224E+00
CGA:  15    -0.382059638255E+03   -0.59023E+00   -0.48572E+00  8736   0.416E+02 0.880E+01
CGA:  16    -0.382292838223E+03   -0.23320E+00   -0.20282E+00  8736   0.274E+02 0.481E+01
CGA:  17    -0.382471013762E+03   -0.17818E+00   -0.18827E+00  8736   0.369E+02-0.190E+01
CGA:  18    -0.382636921007E+03   -0.16591E+00   -0.17366E+00  8736   0.380E+02-0.216E+01
CGA:  19    -0.382748610297E+03   -0.11169E+00   -0.13877E+00  8736   0.225E+02-0.770E+01
CGA:  20    -0.382796075211E+03   -0.47465E-01   -0.63127E-01  8736   0.172E+02-0.452E+01
CGA:  21    -0.382845423550E+03   -0.49348E-01   -0.52345E-01  8736   0.199E+02-0.853E+00
CGA:  22    -0.382934515287E+03   -0.89092E-01   -0.92356E-01  8736   0.268E+02-0.102E+01
CGA:  23    -0.383003522789E+03   -0.69008E-01   -0.15452E+00  8736   0.297E+02-0.137E+02
CGA:  24    -0.383264120814E+03   -0.26060E+00   -0.26094E+00  8736   0.535E+01-0.255E+00
CGA:  25    -0.383383904864E+03   -0.11978E+00   -0.11970E+00  8736   0.487E+01-0.363E-01
CGA:  26    -0.383698261731E+03   -0.31436E+00   -0.31685E+00  8736   0.415E+01-0.384E-01
CGA:  27    -0.383893574250E+03   -0.19531E+00   -0.19358E+00  8736   0.130E+02 0.857E-01
CGA:  28    -0.384125393005E+03   -0.23182E+00   -0.22712E+00  8736   0.177E+01 0.387E-01
CGA:  29    -0.384164276701E+03   -0.38884E-01   -0.38511E-01  8736   0.629E+00-0.228E-01
CGA:  30    -0.384191125152E+03   -0.26848E-01   -0.26537E-01  8736   0.843E+00 0.169E-01
CGA:  31    -0.384260892931E+03   -0.69768E-01   -0.66439E-01  8736   0.168E+01 0.715E-01
CGA:  32    -0.384286188620E+03   -0.25296E-01   -0.27790E-01  8736   0.501E+00-0.708E-01
CGA:  33    -0.384308145636E+03   -0.21957E-01   -0.22011E-01  8736   0.532E+00-0.292E-02
CGA:  34    -0.384317878072E+03   -0.97324E-02   -0.10057E-01  8736   0.165E+00-0.105E-02
CGA:  35    -0.384325557626E+03   -0.76796E-02   -0.76276E-02  8736   0.287E+00 0.269E-02
CGA:  36    -0.384336054143E+03   -0.10497E-01   -0.10378E-01  8736   0.167E+00 0.135E-01
CGA:  37    -0.384341211369E+03   -0.51572E-02   -0.51574E-02  8736   0.159E+00 0.229E-03
CGA:  38    -0.384348429282E+03   -0.72179E-02   -0.70785E-02  8736   0.120E+00 0.785E-02
CGA:  39    -0.384352807235E+03   -0.43780E-02   -0.43662E-02  8736   0.101E+00 0.194E-02
CGA:  40    -0.384355585170E+03   -0.27779E-02   -0.27916E-02  8736   0.448E-01 0.126E-02
CGA:  41    -0.384358782797E+03   -0.31976E-02   -0.31633E-02  8736   0.107E+00 0.936E-03
CGA:  42    -0.384362236907E+03   -0.34541E-02   -0.34578E-02  8736   0.537E-01 0.133E-02
CGA:  43    -0.384364965445E+03   -0.27285E-02   -0.27102E-02  8736   0.520E-01 0.909E-03
CGA:  44    -0.384366227990E+03   -0.12625E-02   -0.12687E-02  8736   0.187E-01 0.899E-04
CGA:  45    -0.384367307390E+03   -0.10794E-02   -0.10778E-02  8736   0.283E-01 0.619E-04
CGA:  46    -0.384368361144E+03   -0.10538E-02   -0.10532E-02  8736   0.254E-01 0.143E-03
CGA:  47    -0.384369625712E+03   -0.12646E-02   -0.12614E-02  8736   0.157E-01 0.181E-03
CGA:  48    -0.384370007809E+03   -0.38210E-03   -0.38218E-03  8736   0.787E-02 0.104E-04
CGA:  49    -0.384370555965E+03   -0.54816E-03   -0.54799E-03  8736   0.114E-01 0.379E-05
CGA:  50    -0.384370885248E+03   -0.32928E-03   -0.32909E-03  8736   0.648E-02-0.976E-05
CGA:  51    -0.384371229630E+03   -0.34438E-03   -0.34453E-03  8736   0.699E-02-0.705E-05
CGA:  52    -0.384371472820E+03   -0.24319E-03   -0.24317E-03  8736   0.613E-02 0.103E-05
CGA:  53    -0.384371789397E+03   -0.31658E-03   -0.31683E-03  8736   0.525E-02-0.108E-04
SDA:  54    -0.384371949946E+03   -0.16055E-03   -0.16042E-03  8736   0.373E-02-0.539E-07
CGA:  55    -0.384372012152E+03   -0.62206E-04   -0.62180E-04  8736   0.165E-02-0.106E-05
CGA:  56    -0.384372137507E+03   -0.12535E-03   -0.12493E-03  8736   0.225E-02 0.104E-04
CGA:  57    -0.384372311475E+03   -0.17397E-03   -0.17451E-03  8736   0.159E-02-0.143E-04
CGA:  58    -0.384372384588E+03   -0.73112E-04   -0.73129E-04  8736   0.167E-02-0.290E-05
CGA:  59    -0.384372463364E+03   -0.78776E-04   -0.78796E-04  8736   0.138E-02-0.327E-05
CGA:  60    -0.384372497413E+03   -0.34049E-04   -0.33992E-04  8736   0.110E-02-0.380E-05
CGA:  61    -0.384372612292E+03   -0.11488E-03   -0.11609E-03  8736   0.449E-03-0.188E-04
CGA:  62    -0.384372684153E+03   -0.71861E-04   -0.72935E-04  8736   0.688E-03-0.925E-05
CGA:  63    -0.384372704509E+03   -0.20356E-04   -0.20356E-04  8736   0.419E-03-0.290E-07
CGA:  64    -0.384372718976E+03   -0.14468E-04   -0.14498E-04  8736   0.396E-03 0.214E-05
CGA:  65    -0.384372731967E+03   -0.12990E-04   -0.13058E-04  8736   0.246E-03 0.448E-05
CGA:  66    -0.384372748298E+03   -0.16331E-04   -0.16133E-04  8736   0.164E-03 0.105E-04
CGA:  67    -0.384372760863E+03   -0.12564E-04   -0.12356E-04  8736   0.721E-04 0.820E-05
CGA:  68    -0.384372772770E+03   -0.11908E-04   -0.11227E-04  8736   0.606E-04 0.655E-05
CGA:  69    -0.384372779120E+03   -0.63497E-05   -0.63203E-05  8736   0.184E-03 0.420E-06
  10 F= -.38437278E+03 E0= -.38435113E+03  d E =-.474220E-01  mag=    32.0000
       N       E                     dE             d eps       ncg     rms          ort
SDA:   1    -0.332729159239E+03    0.51644E+02    0.00000E+00  8736   0.240E+03 0.000E+00
CGA:   2    -0.343072235778E+03   -0.10343E+02   -0.10936E+02  8736   0.349E+03 0.613E+01
CGA:   3    -0.360140305914E+03   -0.17068E+02   -0.16535E+02  8736   0.216E+03-0.432E+02
CGA:   4    -0.369757603172E+03   -0.96173E+01   -0.97293E+01  8736   0.159E+03 0.261E+02
CGA:   5    -0.375245851380E+03   -0.54882E+01   -0.65675E+01  8736   0.737E+02 0.815E+01
CGA:   6    -0.377717254567E+03   -0.24714E+01   -0.24962E+01  8736   0.775E+02-0.307E+01
CGA:   7    -0.382436179593E+03   -0.47189E+01   -0.48328E+01  8736   0.344E+02-0.660E+01
CGA:   8    -0.382833674750E+03   -0.39750E+00   -0.54631E+00  8736   0.164E+02-0.683E+01
CGA:   9    -0.383127734107E+03   -0.29406E+00   -0.21075E+00  8736   0.501E+01 0.416E+01
CGA:  10    -0.383376445949E+03   -0.24871E+00   -0.24660E+00  8736   0.180E+02-0.589E-01
CGA:  11    -0.383755418505E+03   -0.37897E+00   -0.40412E+00  8736   0.179E+02-0.521E+00
CGA:  12    -0.383903154428E+03   -0.14774E+00   -0.14397E+00  8736   0.522E+01 0.118E+00
CGA:  13    -0.383995655447E+03   -0.92501E-01   -0.91856E-01  8736   0.766E+01 0.543E-02
CGA:  14    -0.384078224941E+03   -0.82569E-01   -0.64615E-01  8736   0.408E+01 0.180E+01
CGA:  15    -0.384121555085E+03   -0.43330E-01   -0.46508E-01  8736   0.269E+01-0.324E+00
CGA:  16    -0.384148636288E+03   -0.27081E-01   -0.27962E-01  8736   0.255E+01-0.669E-01
CGA:  17    -0.384175175271E+03   -0.26539E-01   -0.34811E-01  8736   0.283E+01-0.408E+00
CGA:  18    -0.384212153207E+03   -0.36978E-01   -0.39421E-01  8736   0.288E+01-0.992E-01
CGA:  19    -0.384258031280E+03   -0.45878E-01   -0.51376E-01  8736   0.281E+01-0.129E+00
CGA:  20    -0.384300265693E+03   -0.42234E-01   -0.34893E-01  8736   0.168E+01 0.434E+00
CGA:  21    -0.384324639608E+03   -0.24374E-01   -0.25280E-01  8736   0.111E+01-0.483E-01
CGA:  22    -0.384347404924E+03   -0.22765E-01   -0.23059E-01  8736   0.144E+01-0.187E-02
CGA:  23    -0.384366572691E+03   -0.19168E-01   -0.19143E-01  8736   0.665E+00 0.664E-03
CGA:  24    -0.384377000492E+03   -0.10428E-01   -0.10647E-01  8736   0.700E+00-0.672E-02
CGA:  25    -0.384392152615E+03   -0.15152E-01   -0.15413E-01  8736   0.698E+00 0.388E-02
CGA:  26    -0.384402509190E+03   -0.10357E-01   -0.10672E-01  8736   0.305E+00-0.974E-02
CGA:  27    -0.384407409029E+03   -0.48998E-02   -0.49282E-02  8736   0.231E+00-0.663E-03
CGA:  28    -0.384415909559E+03   -0.85005E-02   -0.85036E-02  8736   0.572E+00-0.348E-03
CGA:  29    -0.384428823109E+03   -0.12914E-01   -0.12954E-01  8736   0.403E+00 0.872E-03
CGA:  30    -0.384435798709E+03   -0.69756E-02   -0.72475E-02  8736   0.240E+00-0.240E-02
CGA:  31    -0.384440406457E+03   -0.46077E-02   -0.46609E-02  8736   0.146E+00 0.234E-03
SDA:  32    -0.384444361330E+03   -0.39549E-02   -0.39632E-02  8736   0.119E+00 0.335E-02
CGA:  33    -0.384447858077E+03   -0.34967E-02   -0.34951E-02  8736   0.713E-01 0.701E-03
CGA:  34    -0.384449815195E+03   -0.19571E-02   -0.19571E-02  8736   0.646E-01 0.110E-05
CGA:  35    -0.384452886323E+03   -0.30711E-02   -0.30665E-02  8736   0.440E-01 0.207E-03
CGA:  36    -0.384454837036E+03   -0.19507E-02   -0.19442E-02  8736   0.414E-01 0.369E-03
CGA:  37    -0.384457849328E+03   -0.30123E-02   -0.29829E-02  8736   0.256E-01 0.760E-03
CGA:  38    -0.384458604380E+03   -0.75505E-03   -0.75505E-03  8736   0.305E-01 0.321E-05
CGA:  39    -0.384459725372E+03   -0.11210E-02   -0.11203E-02  8736   0.731E-02 0.827E-04
CGA:  40    -0.384460556565E+03   -0.83119E-03   -0.82425E-03  8736   0.199E-01 0.105E-03
CGA:  41    -0.384461147362E+03   -0.59080E-03   -0.59105E-03  8736   0.150E-01 0.564E-05
CGA:  42    -0.384461649048E+03   -0.50169E-03   -0.50164E-03  8736   0.141E-01-0.103E-04
CGA:  43    -0.384462361870E+03   -0.71282E-03   -0.71305E-03  8736   0.875E-02-0.135E-04
CGA:  44    -0.384462805678E+03   -0.44381E-03   -0.44157E-03  8736   0.600E-02 0.125E-03
CGA:  45    -0.384463024514E+03   -0.21884E-03   -0.21884E-03  8736   0.925E-02 0.412E-05
CGA:  46    -0.384463365011E+03   -0.34050E-03   -0.34051E-03  8736   0.353E-02 0.295E-04
CGA:  47    -0.384463672717E+03   -0.30771E-03   -0.30611E-03  8736   0.370E-02 0.334E-04
CGA:  48    -0.384463755098E+03   -0.82381E-04   -0.82515E-04  8736   0.202E-02 0.400E-05
CGA:  49    -0.384463839244E+03   -0.84146E-04   -0.84129E-04  8736   0.253E-02 0.491E-05
CGA:  50    -0.384463966054E+03   -0.12681E-03   -0.12689E-03  8736   0.169E-02-0.501E-05
CGA:  51    -0.384464104467E+03   -0.13841E-03   -0.13826E-03  8736   0.117E-02 0.396E-05
CGA:  52    -0.384464129608E+03   -0.25141E-04   -0.25193E-04  8736   0.746E-03-0.252E-06
CGA:  53    -0.384464165109E+03   -0.35501E-04   -0.35475E-04  8736   0.711E-03 0.298E-05
CGA:  54    -0.384464212231E+03   -0.47122E-04   -0.46952E-04  8736   0.741E-03 0.653E-05
CGA:  55    -0.384464246747E+03   -0.34516E-04   -0.34499E-04  8736   0.529E-03 0.381E-05
CGA:  56    -0.384464286951E+03   -0.40204E-04   -0.39966E-04  8736   0.508E-03 0.703E-05
CGA:  57    -0.384464296672E+03   -0.97203E-05   -0.97565E-05  8736   0.254E-03 0.941E-06
CGA:  58    -0.384464327623E+03   -0.30951E-04   -0.30970E-04  8736   0.505E-03-0.385E-06
CGA:  59    -0.384464346264E+03   -0.18641E-04   -0.18651E-04  8736   0.276E-03 0.107E-05
CGA:  60    -0.384464368235E+03   -0.21972E-04   -0.21894E-04  8736   0.232E-03 0.230E-05
CGA:  61    -0.384464374706E+03   -0.64709E-05   -0.65020E-05  8736   0.241E-03 0.154E-05
CGA:  62    -0.384464387431E+03   -0.12725E-04   -0.12705E-04  8736   0.194E-03 0.344E-05
SDA:  63    -0.384464398377E+03   -0.10946E-04   -0.10926E-04  8736   0.166E-03 0.246E-05
CGA:  64    -0.384464402596E+03   -0.42191E-05   -0.42283E-05  8736   0.810E-04 0.205E-06
  11 F= -.38446440E+03 E0= -.38444258E+03  d E =-.916235E-01  mag=    32.0000
       N       E                     dE             d eps       ncg     rms          ort
SDA:   1    -0.343603103282E+03    0.40861E+02    0.00000E+00  8736   0.914E+03 0.000E+00
CGA:   2    -0.355916005245E+03   -0.12313E+02   -0.19237E+02  8736   0.304E+03-0.180E+03
CGA:   3    -0.363978446811E+03   -0.80624E+01   -0.79419E+01  8736   0.216E+03-0.632E+02
CGA:   4    -0.368786044200E+03   -0.48076E+01   -0.58195E+01  8736   0.283E+03 0.136E+02
CGA:   5    -0.372714682117E+03   -0.39286E+01   -0.36394E+01  8736   0.929E+02-0.174E+02
CGA:   6    -0.376421565547E+03   -0.37069E+01   -0.21603E+01  8736   0.530E+02 0.117E+02
CGA:   7    -0.377185910856E+03   -0.76435E+00   -0.10830E+01  8736   0.108E+03-0.126E+02
CGA:   8    -0.379297094856E+03   -0.21112E+01   -0.22077E+01  8736   0.212E+03-0.541E+00
CGA:   9    -0.381705113246E+03   -0.24080E+01   -0.23954E+01  8736   0.670E+02-0.218E+02
CGA:  10    -0.382374202810E+03   -0.66909E+00   -0.55569E+00  8736   0.515E+02 0.762E+01
CGA:  11    -0.382924323990E+03   -0.55012E+00   -0.62699E+00  8736   0.362E+02-0.820E+01
CGA:  12    -0.383184858499E+03   -0.26053E+00   -0.31905E+00  8736   0.329E+02-0.509E+01
CGA:  13    -0.383454471687E+03   -0.26961E+00   -0.26738E+00  8736   0.271E+02-0.256E+00
CGA:  14    -0.383660190215E+03   -0.20572E+00   -0.23003E+00  8736   0.116E+02-0.305E+01
CGA:  15    -0.383755964799E+03   -0.95775E-01   -0.89618E-01  8736   0.114E+02 0.479E+00
CGA:  16    -0.383904220116E+03   -0.14826E+00   -0.15042E+00  8736   0.130E+02-0.159E+00
CGA:  17    -0.384017158767E+03   -0.11294E+00   -0.12401E+00  8736   0.983E+01-0.914E+00
CGA:  18    -0.384134954163E+03   -0.11780E+00   -0.11381E+00  8736   0.141E+02 0.182E+00
CGA:  19    -0.384303855969E+03   -0.16890E+00   -0.15214E+00  8736   0.822E+01 0.117E+01
CGA:  20    -0.384356653289E+03   -0.52797E-01   -0.43833E-01  8736   0.315E+01 0.160E+01
CGA:  21    -0.384388225766E+03   -0.31572E-01   -0.32225E-01  8736   0.405E+01-0.698E-01
CGA:  22    -0.384428274566E+03   -0.40049E-01   -0.39848E-01  8736   0.559E+01 0.893E-02
CGA:  23    -0.384463458265E+03   -0.35184E-01   -0.33522E-01  8736   0.420E+01 0.239E+00
CGA:  24    -0.384493381190E+03   -0.29923E-01   -0.31378E-01  8736   0.403E+01-0.143E+00
CGA:  25    -0.384520035266E+03   -0.26654E-01   -0.29046E-01  8736   0.305E+01-0.238E+00
CGA:  26    -0.384536393099E+03   -0.16358E-01   -0.17732E-01  8736   0.172E+01-0.183E+00
CGA:  27    -0.384549904349E+03   -0.13511E-01   -0.14129E-01  8736   0.224E+01-0.461E-01
CGA:  28    -0.384579338071E+03   -0.29434E-01   -0.30210E-01  8736   0.334E+01 0.309E-02
CGA:  29    -0.384604896050E+03   -0.25558E-01   -0.27322E-01  8736   0.135E+01-0.142E+00
CGA:  30    -0.384615517755E+03   -0.10622E-01   -0.10952E-01  8736   0.960E+00-0.229E-01
CGA:  31    -0.384629264799E+03   -0.13747E-01   -0.13756E-01  8736   0.131E+01 0.650E-03
SDA:  32    -0.384643771702E+03   -0.14507E-01   -0.14781E-01  8736   0.947E+00-0.630E-02
CGA:  33    -0.384658038458E+03   -0.14267E-01   -0.14306E-01  8736   0.166E+00 0.320E-02
CGA:  34    -0.384664373250E+03   -0.63348E-02   -0.63358E-02  8736   0.381E+00 0.101E-05
CGA:  35    -0.384678534123E+03   -0.14161E-01   -0.14058E-01  8736   0.230E+00 0.556E-02
CGA:  36    -0.384701133115E+03   -0.22599E-01   -0.21671E-01  8736   0.442E+00 0.161E-01
CGA:  37    -0.384707475051E+03   -0.63419E-02   -0.64351E-02  8736   0.516E-01-0.206E-02
CGA:  38    -0.384711629411E+03   -0.41544E-02   -0.40912E-02  8736   0.136E+00 0.134E-02
CGA:  39    -0.384716814074E+03   -0.51847E-02   -0.51870E-02  8736   0.141E+00-0.116E-03
CGA:  40    -0.384722515151E+03   -0.57011E-02   -0.56177E-02  8736   0.154E+00 0.521E-02
CGA:  41    -0.384728224098E+03   -0.57089E-02   -0.56670E-02  8736   0.446E-01 0.371E-02
CGA:  42    -0.384729814163E+03   -0.15901E-02   -0.15845E-02  8736   0.458E-01 0.578E-03
CGA:  43    -0.384731581324E+03   -0.17672E-02   -0.17661E-02  8736   0.457E-01 0.737E-04
CGA:  44    -0.384734971468E+03   -0.33901E-02   -0.33114E-02  8736   0.368E-01 0.195E-02
CGA:  45    -0.384736110471E+03   -0.11390E-02   -0.11392E-02  8736   0.301E-01 0.114E-03
CGA:  46    -0.384737420776E+03   -0.13103E-02   -0.13060E-02  8736   0.231E-01 0.282E-03
CGA:  47    -0.384738234241E+03   -0.81346E-03   -0.81309E-03  8736   0.133E-01 0.776E-04
CGA:  48    -0.384739182817E+03   -0.94858E-03   -0.94171E-03  8736   0.232E-01 0.180E-03
CGA:  49    -0.384739760932E+03   -0.57811E-03   -0.57825E-03  8736   0.823E-02 0.350E-04
CGA:  50    -0.384740327421E+03   -0.56649E-03   -0.56192E-03  8736   0.984E-02 0.131E-03
CGA:  51    -0.384740655500E+03   -0.32808E-03   -0.32800E-03  8736   0.677E-02-0.701E-05
CGA:  52    -0.384740897004E+03   -0.24150E-03   -0.24150E-03  8736   0.528E-02 0.270E-05
CGA:  53    -0.384741171437E+03   -0.27443E-03   -0.27453E-03  8736   0.468E-02-0.622E-05
CGA:  54    -0.384741363772E+03   -0.19234E-03   -0.19236E-03  8736   0.318E-02-0.653E-05
CGA:  55    -0.384741444531E+03   -0.80758E-04   -0.80582E-04  8736   0.170E-02-0.600E-05
CGA:  56    -0.384741579360E+03   -0.13483E-03   -0.13543E-03  8736   0.247E-02-0.136E-04
CGA:  57    -0.384741680278E+03   -0.10092E-03   -0.10102E-03  8736   0.257E-02-0.184E-04
CGA:  58    -0.384741763779E+03   -0.83501E-04   -0.83526E-04  8736   0.115E-02-0.855E-06
CGA:  59    -0.384741797757E+03   -0.33979E-04   -0.33959E-04  8736   0.523E-03-0.155E-05
CGA:  60    -0.384741859108E+03   -0.61351E-04   -0.61306E-04  8736   0.248E-02 0.571E-06
CGA:  61    -0.384741935223E+03   -0.76115E-04   -0.75823E-04  8736   0.615E-03-0.511E-05
CGA:  62    -0.384741955830E+03   -0.20606E-04   -0.20596E-04  8736   0.375E-03-0.944E-06
SDA:  63    -0.384741976566E+03   -0.20737E-04   -0.20747E-04  8736   0.613E-03-0.614E-06
CGA:  64    -0.384741985793E+03   -0.92270E-05   -0.92339E-05  8736   0.186E-03-0.221E-06
CGA:  65    -0.384741998666E+03   -0.12873E-04   -0.12813E-04  8736   0.227E-03 0.184E-05
CGA:  66    -0.384742032956E+03   -0.34290E-04   -0.34003E-04  8736   0.215E-03 0.270E-05
CGA:  67    -0.384742050692E+03   -0.17735E-04   -0.17609E-04  8736   0.158E-03 0.359E-05
CGA:  68    -0.384742056360E+03   -0.56681E-05   -0.56901E-05  8736   0.274E-03 0.157E-05
CGA:  69    -0.384742074990E+03   -0.18630E-04   -0.18506E-04  8736   0.115E-03 0.634E-05
CGA:  70    -0.384742088275E+03   -0.13285E-04   -0.13086E-04  8736   0.106E-03 0.314E-05
CGA:  71    -0.384742096611E+03   -0.83362E-05   -0.83123E-05  8736   0.303E-03 0.949E-06
CGA:  72    -0.384742110974E+03   -0.14362E-04   -0.14371E-04  8736   0.249E-03 0.127E-05
CGA:  73    -0.384742116291E+03   -0.53178E-05   -0.53292E-05  8736   0.838E-04 0.394E-06
  12 F= -.38474212E+03 E0= -.38472052E+03  d E =-.277714E+00  mag=    32.0000
       N       E                     dE             d eps       ncg     rms          ort
SDA:   1    -0.297784580856E+03    0.86958E+02    0.00000E+00  8736   0.583E+03 0.000E+00
CGA:   2    -0.332916999039E+03   -0.35132E+02   -0.18420E+02  8736   0.487E+03-0.413E+03
CGA:   3    -0.342214757272E+03   -0.92978E+01   -0.16171E+02  8736   0.181E+03 0.205E+02
CGA:   4    -0.352891530566E+03   -0.10677E+02   -0.35733E+01  8736   0.207E+03 0.319E+03
CGA:   5    -0.355379942602E+03   -0.24884E+01   -0.41854E+01  8736   0.236E+03-0.894E+02
CGA:   6    -0.360181221830E+03   -0.48013E+01   -0.25277E+02  8736   0.544E+03-0.495E+02
CGA:   7    -0.372898144728E+03   -0.12717E+02   -0.10463E+02  8736   0.143E+03-0.128E+03
CGA:   8    -0.374577450878E+03   -0.16793E+01   -0.27211E+01  8736   0.785E+02-0.269E+02
CGA:   9    -0.377211303048E+03   -0.26339E+01   -0.26763E+01  8736   0.128E+03 0.774E+00
CGA:  10    -0.379584475905E+03   -0.23732E+01   -0.27591E+01  8736   0.956E+02-0.323E+02
CGA:  11    -0.381559109018E+03   -0.19746E+01   -0.16136E+01  8736   0.294E+02 0.101E+02
CGA:  12    -0.381947163185E+03   -0.38805E+00   -0.44527E+00  8736   0.258E+02-0.441E+01
CGA:  13    -0.382511635076E+03   -0.56447E+00   -0.50393E+00  8736   0.222E+02 0.120E+01
CGA:  14    -0.382748966372E+03   -0.23733E+00   -0.23587E+00  8736   0.125E+02-0.208E+00
CGA:  15    -0.383170679433E+03   -0.42171E+00   -0.42841E+00  8736   0.303E+02 0.154E+00
CGA:  16    -0.383610104593E+03   -0.43943E+00   -0.45704E+00  8736   0.120E+02 0.188E+00
CGA:  17    -0.383870194911E+03   -0.26009E+00   -0.26662E+00  8736   0.140E+02-0.215E+00
CGA:  18    -0.384107805858E+03   -0.23761E+00   -0.22101E+00  8736   0.569E+01 0.778E+00
CGA:  19    -0.384233228625E+03   -0.12542E+00   -0.11306E+00  8736   0.343E+01 0.400E+00
CGA:  20    -0.384298320092E+03   -0.65091E-01   -0.67643E-01  8736   0.276E+01-0.732E-01
CGA:  21    -0.384363550534E+03   -0.65230E-01   -0.70587E-01  8736   0.403E+01 0.276E-01
CGA:  22    -0.384504703338E+03   -0.14115E+00   -0.13445E+00  8736   0.258E+01-0.536E+00
CGA:  23    -0.384587890491E+03   -0.83187E-01   -0.83236E-01  8736   0.216E+01-0.135E+00
CGA:  24    -0.384616447281E+03   -0.28557E-01   -0.32217E-01  8736   0.749E+00-0.133E+00
CGA:  25    -0.384647093028E+03   -0.30646E-01   -0.30150E-01  8736   0.514E+00 0.459E-01
CGA:  26    -0.384666655256E+03   -0.19562E-01   -0.19561E-01  8736   0.592E+00-0.913E-03
CGA:  27    -0.384704969792E+03   -0.38315E-01   -0.36408E-01  8736   0.536E+00 0.621E-01
CGA:  28    -0.384724475892E+03   -0.19506E-01   -0.19741E-01  8736   0.388E+00 0.215E-01
CGA:  29    -0.384734256632E+03   -0.97807E-02   -0.96770E-02  8736   0.187E+00 0.515E-03
CGA:  30    -0.384738447726E+03   -0.41911E-02   -0.41577E-02  8736   0.150E+00 0.258E-03
CGA:  31    -0.384749743819E+03   -0.11296E-01   -0.10781E-01  8736   0.123E+00 0.138E-01
CGA:  32    -0.384760336505E+03   -0.10593E-01   -0.10636E-01  8736   0.907E-01-0.146E-02
CGA:  33    -0.384763299101E+03   -0.29626E-02   -0.29730E-02  8736   0.113E+00 0.482E-03
CGA:  34    -0.384766782362E+03   -0.34833E-02   -0.34988E-02  8736   0.814E-01 0.450E-03
SDA:  35    -0.384768969005E+03   -0.21866E-02   -0.21706E-02  8736   0.497E-01-0.683E-04
CGA:  36    -0.384770376074E+03   -0.14071E-02   -0.14182E-02  8736   0.474E-01 0.170E-03
CGA:  37    -0.384772419622E+03   -0.20435E-02   -0.20415E-02  8736   0.558E-01 0.247E-03
CGA:  38    -0.384773854897E+03   -0.14353E-02   -0.14326E-02  8736   0.479E-01-0.212E-04
CGA:  39    -0.384778492851E+03   -0.46380E-02   -0.46492E-02  8736   0.220E-01-0.220E-03
CGA:  40    -0.384780019112E+03   -0.15263E-02   -0.15039E-02  8736   0.303E-01 0.719E-03
CGA:  41    -0.384780607885E+03   -0.58877E-03   -0.58709E-03  8736   0.171E-01 0.625E-04
CGA:  42    -0.384782636086E+03   -0.20282E-02   -0.20037E-02  8736   0.456E-01 0.357E-03
CGA:  43    -0.384784148223E+03   -0.15121E-02   -0.15097E-02  8736   0.393E-01 0.257E-04
CGA:  44    -0.384786521428E+03   -0.23732E-02   -0.23402E-02  8736   0.744E-01 0.162E-02
CGA:  45    -0.384788438929E+03   -0.19175E-02   -0.18977E-02  8736   0.372E-01 0.378E-03
CGA:  46    -0.384795688550E+03   -0.72496E-02   -0.62891E-02  8736   0.724E-01 0.710E-02
CGA:  47    -0.384798027011E+03   -0.23385E-02   -0.21878E-02  8736   0.982E-01 0.277E-02
CGA:  48    -0.384803159847E+03   -0.51328E-02   -0.51546E-02  8736   0.204E+00-0.659E-02
CGA:  49    -0.384805349423E+03   -0.21896E-02   -0.19589E-02  8736   0.885E-01 0.215E-01
CGA:  50    -0.384806455313E+03   -0.11059E-02   -0.11852E-02  8736   0.635E-01-0.447E-02
CGA:  51    -0.384807999806E+03   -0.15445E-02   -0.15839E-02  8736   0.107E+00 0.323E-03
CGA:  52    -0.384809433025E+03   -0.14332E-02   -0.12917E-02  8736   0.517E-01 0.848E-02
CGA:  53    -0.384810116552E+03   -0.68353E-03   -0.64616E-03  8736   0.442E-01 0.240E-02
CGA:  54    -0.384810858290E+03   -0.74174E-03   -0.71134E-03  8736   0.689E-01 0.118E-02
CGA:  55    -0.384811678262E+03   -0.81997E-03   -0.88998E-03  8736   0.740E-01-0.402E-02
CGA:  56    -0.384812356789E+03   -0.67853E-03   -0.78694E-03  8736   0.655E-01-0.624E-02
CGA:  57    -0.384813148105E+03   -0.79132E-03   -0.83389E-03  8736   0.740E-01-0.136E-02
CGA:  58    -0.384814204184E+03   -0.10561E-02   -0.10479E-02  8736   0.648E-01 0.618E-03
CGA:  59    -0.384815044994E+03   -0.84081E-03   -0.85022E-03  8736   0.546E-01-0.441E-03
CGA:  60    -0.384816019900E+03   -0.97491E-03   -0.97974E-03  8736   0.806E-01-0.895E-04
CGA:  61    -0.384817333495E+03   -0.13136E-02   -0.13147E-02  8736   0.686E-01-0.206E-04
CGA:  62    -0.384818101239E+03   -0.76774E-03   -0.75640E-03  8736   0.406E-01 0.794E-03
CGA:  63    -0.384818805481E+03   -0.70424E-03   -0.69725E-03  8736   0.633E-01 0.163E-03
CGA:  64    -0.384820071691E+03   -0.12662E-02   -0.12456E-02  8736   0.904E-01 0.102E-03
CGA:  65    -0.384821060455E+03   -0.98876E-03   -0.10000E-02  8736   0.485E-01-0.732E-03
SDA:  66    -0.384821604093E+03   -0.54364E-03   -0.55612E-03  8736   0.419E-01-0.762E-03
CGA:  67    -0.384824204915E+03   -0.26008E-02   -0.26192E-02  8736   0.933E-01-0.556E-03
CGA:  68    -0.384828313256E+03   -0.41083E-02   -0.40938E-02  8736   0.712E-01 0.812E-03
CGA:  69    -0.384831361119E+03   -0.30479E-02   -0.30723E-02  8736   0.514E-01-0.155E-02
CGA:  70    -0.384834236553E+03   -0.28754E-02   -0.28834E-02  8736   0.331E-01-0.294E-03
CGA:  71    -0.384838008597E+03   -0.37720E-02   -0.38523E-02  8736   0.233E-01-0.123E-02
CGA:  72    -0.384839087645E+03   -0.10790E-02   -0.10802E-02  8736   0.248E-01-0.680E-04
CGA:  73    -0.384840070555E+03   -0.98291E-03   -0.98431E-03  8736   0.161E-01-0.307E-03
CGA:  74    -0.384840632904E+03   -0.56235E-03   -0.56232E-03  8736   0.157E-01-0.122E-04
CGA:  75    -0.384842254863E+03   -0.16220E-02   -0.15926E-02  8736   0.959E-02 0.557E-03
CGA:  76    -0.384842940957E+03   -0.68609E-03   -0.66344E-03  8736   0.144E-01 0.780E-03
CGA:  77    -0.384843511455E+03   -0.57050E-03   -0.53671E-03  8736   0.115E-01-0.122E-02
CGA:  78    -0.384843817873E+03   -0.30642E-03   -0.30240E-03  8736   0.105E-01-0.435E-05
CGA:  79    -0.384844176094E+03   -0.35822E-03   -0.36487E-03  8736   0.777E-02 0.360E-03
CGA:  80    -0.384844333624E+03   -0.15753E-03   -0.15263E-03  8736   0.366E-02 0.145E-03
CGA:  81    -0.384844599999E+03   -0.26638E-03   -0.27575E-03  8736   0.795E-02-0.268E-03
CGA:  82    -0.384844723858E+03   -0.12386E-03   -0.12974E-03  8736   0.237E-02-0.223E-03
CGA:  83    -0.384844819092E+03   -0.95235E-04   -0.95202E-04  8736   0.401E-02 0.106E-04
CGA:  84    -0.384844899763E+03   -0.80670E-04   -0.76230E-04  8736   0.120E-02 0.130E-03
CGA:  85    -0.384844946008E+03   -0.46245E-04   -0.46170E-04  8736   0.283E-02-0.199E-04
CGA:  86    -0.384845030468E+03   -0.84460E-04   -0.84157E-04  8736   0.216E-02-0.731E-05
CGA:  87    -0.384845062239E+03   -0.31771E-04   -0.33003E-04  8736   0.113E-02-0.554E-04
CGA:  88    -0.384845108468E+03   -0.46229E-04   -0.46099E-04  8736   0.219E-02 0.159E-04
CGA:  89    -0.384845161623E+03   -0.53155E-04   -0.50418E-04  8736   0.143E-02 0.301E-04
CGA:  90    -0.384845187928E+03   -0.26305E-04   -0.25444E-04  8736   0.753E-03 0.280E-04
CGA:  91    -0.384845205211E+03   -0.17283E-04   -0.17292E-04  8736   0.103E-02 0.481E-06
CGA:  92    -0.384845244185E+03   -0.38975E-04   -0.39025E-04  8736   0.144E-02-0.134E-04
CGA:  93    -0.384845263712E+03   -0.19527E-04   -0.18617E-04  8736   0.660E-03 0.440E-04
CGA:  94    -0.384845281149E+03   -0.17437E-04   -0.17332E-04  8736   0.124E-02-0.391E-05
CGA:  95    -0.384845306867E+03   -0.25718E-04   -0.25756E-04  8736   0.869E-03-0.108E-05
CGA:  96    -0.384845316992E+03   -0.10125E-04   -0.10261E-04  8736   0.432E-03-0.680E-05
SDA:  97    -0.384845330265E+03   -0.13273E-04   -0.13276E-04  8736   0.108E-02 0.183E-05
CGA:  98    -0.384845346981E+03   -0.16716E-04   -0.16704E-04  8736   0.355E-03-0.135E-05
CGA:  99    -0.384845394903E+03   -0.47922E-04   -0.47792E-04  8736   0.546E-03 0.100E-05
CGA: 100    -0.384845482915E+03   -0.88012E-04   -0.85182E-04  8736   0.590E-03 0.285E-04
CGA: 101    -0.384845511182E+03   -0.28267E-04   -0.28245E-04  8736   0.583E-03 0.309E-05
CGA: 102    -0.384845536912E+03   -0.25730E-04   -0.25735E-04  8736   0.150E-03-0.234E-05
CGA: 103    -0.384845544428E+03   -0.75164E-05   -0.75090E-05  8736   0.205E-03 0.698E-06
  13 F= -.38484554E+03 E0= -.38482549E+03  d E =-.103428E+00  mag=    34.0000
       N       E                     dE             d eps       ncg     rms          ort
SDA:   1    -0.288906156262E+03    0.95939E+02    0.00000E+00  8736   0.468E+03 0.000E+00
CGA:   2    -0.335613111903E+03   -0.46707E+02    0.52901E+02  8736   0.316E+03-0.314E+03
CGA:   3    -0.345891537059E+03   -0.10278E+02   -0.10450E+02  8736   0.150E+03 0.184E+02
CGA:   4    -0.363967303479E+03   -0.18076E+02   -0.16909E+02  8736   0.187E+03 0.609E+02
CGA:   5    -0.367153698572E+03   -0.31864E+01   -0.64371E+01  8736   0.362E+03-0.782E+02
CGA:   6    -0.374251715986E+03   -0.70980E+01   -0.62693E+01  8736   0.582E+02-0.340E+02
CGA:   7    -0.378971982850E+03   -0.47203E+01    0.30242E+02  8736   0.481E+02 0.448E+02
CGA:   8    -0.380826506369E+03   -0.18545E+01   -0.12320E+01  8736   0.226E+02-0.182E+01
CGA:   9    -0.382145752088E+03   -0.13192E+01   -0.13322E+01  8736   0.526E+02-0.321E+00
[...]
CGA:   3    -0.387457673937E+03   -0.83527E+00   -0.83544E+00  8736   0.139E+01-0.849E+01
CGA:   4    -0.387478516594E+03   -0.20843E-01   -0.19953E-01  8736   0.413E+00 0.343E-01
CGA:   5    -0.387502307418E+03   -0.23791E-01   -0.24053E-01  8736   0.697E+00-0.113E-01
CGA:   6    -0.387530347662E+03   -0.28040E-01   -0.28073E-01  8736   0.919E+00-0.641E-02
CGA:   7    -0.387551348411E+03   -0.21001E-01   -0.21191E-01  8736   0.233E+00-0.209E-02
CGA:   8    -0.387560531576E+03   -0.91832E-02   -0.91758E-02  8736   0.184E+00 0.252E-02
CGA:   9    -0.387564888589E+03   -0.43570E-02   -0.43952E-02  8736   0.132E+00-0.300E-03
CGA:  10    -0.387572217575E+03   -0.73290E-02   -0.73375E-02  8736   0.967E-01-0.385E-03
CGA:  11    -0.387574218679E+03   -0.20011E-02   -0.19982E-02  8736   0.490E-01 0.484E-04
CGA:  12    -0.387575884969E+03   -0.16663E-02   -0.16645E-02  8736   0.213E-01-0.221E-03
CGA:  13    -0.387576445159E+03   -0.56019E-03   -0.56073E-03  8736   0.132E-01 0.319E-05
CGA:  14    -0.387576824958E+03   -0.37980E-03   -0.37997E-03  8736   0.102E-01 0.517E-05
CGA:  15    -0.387577356613E+03   -0.53166E-03   -0.53034E-03  8736   0.907E-02 0.678E-04
CGA:  16    -0.387577521042E+03   -0.16443E-03   -0.16443E-03  8736   0.286E-02-0.357E-06
CGA:  17    -0.387577682981E+03   -0.16194E-03   -0.16177E-03  8736   0.409E-02 0.683E-05
CGA:  18    -0.387577780335E+03   -0.97353E-04   -0.97162E-04  8736   0.198E-02-0.695E-06
CGA:  19    -0.387577848922E+03   -0.68588E-04   -0.68597E-04  8736   0.124E-02 0.145E-05
CGA:  20    -0.387577884838E+03   -0.35915E-04   -0.35893E-04  8736   0.889E-03-0.176E-05
CGA:  21    -0.387577909451E+03   -0.24613E-04   -0.24611E-04  8736   0.512E-03-0.110E-05
CGA:  22    -0.387577942575E+03   -0.33124E-04   -0.33232E-04  8736   0.122E-02-0.376E-05
CGA:  23    -0.387577971280E+03   -0.28705E-04   -0.28685E-04  8736   0.272E-03-0.294E-05
CGA:  24    -0.387577981173E+03   -0.98924E-05   -0.98924E-05  8736   0.305E-03-0.621E-06
 293 F= -.38757798E+03 E0= -.38755749E+03  d E =-.939936E-03  mag=    34.0000
       N       E                     dE             d eps       ncg     rms          ort
SDA:   1    -0.387345800980E+03    0.23217E+00    0.00000E+00  8736   0.780E+00 0.000E+00
CGA:   2    -0.387404097579E+03   -0.58297E-01   -0.55590E-01  8736   0.204E+01 0.758E-01
CGA:   3    -0.387467548522E+03   -0.63451E-01   -0.63439E-01  8736   0.185E+01-0.103E-02
CGA:   4    -0.387525935505E+03   -0.58387E-01   -0.58275E-01  8736   0.328E+00-0.609E-02
CGA:   5    -0.387538321543E+03   -0.12386E-01   -0.12391E-01  8736   0.641E+00-0.297E-02
CGA:   6    -0.387564529957E+03   -0.26208E-01   -0.26187E-01  8736   0.169E+00 0.303E-02
CGA:   7    -0.387570852202E+03   -0.63222E-02   -0.63224E-02  8736   0.186E+00 0.125E-02
CGA:   8    -0.387574462717E+03   -0.36105E-02   -0.36555E-02  8736   0.406E-01-0.104E-02
CGA:   9    -0.387576958157E+03   -0.24954E-02   -0.25014E-02  8736   0.581E-01-0.210E-03
CGA:  10    -0.387578031816E+03   -0.10737E-02   -0.10719E-02  8736   0.211E-01 0.504E-04
CGA:  11    -0.387579324043E+03   -0.12922E-02   -0.12913E-02  8736   0.128E-01 0.345E-04
CGA:  12    -0.387579532020E+03   -0.20798E-03   -0.20783E-03  8736   0.503E-02 0.553E-05
CGA:  13    -0.387579944594E+03   -0.41257E-03   -0.41263E-03  8736   0.747E-02 0.165E-06
CGA:  14    -0.387580112422E+03   -0.16783E-03   -0.16800E-03  8736   0.362E-02-0.533E-05
CGA:  15    -0.387580198860E+03   -0.86438E-04   -0.86296E-04  8736   0.119E-02-0.939E-06
CGA:  16    -0.387580285876E+03   -0.87016E-04   -0.87072E-04  8736   0.332E-02-0.173E-05
CGA:  17    -0.387580357047E+03   -0.71171E-04   -0.71064E-04  8736   0.676E-03-0.253E-05
CGA:  18    -0.387580391848E+03   -0.34802E-04   -0.34812E-04  8736   0.824E-03-0.125E-05
CGA:  19    -0.387580407553E+03   -0.15704E-04   -0.15676E-04  8736   0.325E-03-0.338E-06
CGA:  20    -0.387580440079E+03   -0.32527E-04   -0.32492E-04  8736   0.658E-03 0.629E-06
CGA:  21    -0.387580452471E+03   -0.12391E-04   -0.12392E-04  8736   0.286E-03 0.197E-06
CGA:  22    -0.387580467620E+03   -0.15149E-04   -0.15143E-04  8736   0.182E-03 0.647E-06
CGA:  23    -0.387580472395E+03   -0.47759E-05   -0.47812E-05  8736   0.199E-03 0.386E-06
CGA:  24    -0.387580483888E+03   -0.11493E-04   -0.11453E-04  8736   0.199E-03 0.225E-05
CGA:  25    -0.387580491878E+03   -0.79895E-05   -0.79913E-05  8736   0.217E-03 0.163E-05
 294 F= -.38758049E+03 E0= -.38756004E+03  d E =-.251071E-02  mag=    34.0000
       N       E                     dE             d eps       ncg     rms          ort
SDA:   1    -0.386871364985E+03    0.70912E+00    0.00000E+00  8736   0.433E+02 0.000E+00
CGA:   2    -0.387290139504E+03   -0.41877E+00   -0.48457E+00  8736   0.224E+01-0.727E+01
CGA:   3    -0.387330489520E+03   -0.40350E-01   -0.39868E-01  8736   0.122E+01 0.577E-02
CGA:   4    -0.387416663883E+03   -0.86174E-01   -0.87659E-01  8736   0.325E+01-0.424E-01
CGA:   5    -0.387501194467E+03   -0.84531E-01   -0.84721E-01  8736   0.114E+01-0.130E-02
CGA:   6    -0.387533167622E+03   -0.31973E-01   -0.32372E-01  8736   0.618E+00 0.526E-02
CGA:   7    -0.387547038913E+03   -0.13871E-01   -0.14113E-01  8736   0.266E+00-0.266E-02
CGA:   8    -0.387559728719E+03   -0.12690E-01   -0.12761E-01  8736   0.437E+00-0.469E-02
CGA:   9    -0.387572263755E+03   -0.12535E-01   -0.12504E-01  8736   0.155E+00-0.702E-03
CGA:  10    -0.387576059679E+03   -0.37959E-02   -0.37882E-02  8736   0.772E-01 0.177E-04
CGA:  11    -0.387578188079E+03   -0.21284E-02   -0.21372E-02  8736   0.421E-01 0.164E-03
CGA:  12    -0.387579608738E+03   -0.14207E-02   -0.14208E-02  8736   0.333E-01 0.322E-04
CGA:  13    -0.387580556323E+03   -0.94759E-03   -0.94847E-03  8736   0.215E-01 0.246E-04
CGA:  14    -0.387581366858E+03   -0.81053E-03   -0.81069E-03  8736   0.167E-01-0.477E-04
CGA:  15    -0.387581729636E+03   -0.36278E-03   -0.36277E-03  8736   0.565E-02-0.715E-06
CGA:  16    -0.387581980316E+03   -0.25068E-03   -0.25097E-03  8736   0.881E-02-0.229E-04
CGA:  17    -0.387582243474E+03   -0.26316E-03   -0.26330E-03  8736   0.328E-02 0.558E-05
CGA:  18    -0.387582338697E+03   -0.95223E-04   -0.95225E-04  8736   0.284E-02-0.366E-06
CGA:  19    -0.387582430024E+03   -0.91327E-04   -0.91378E-04  8736   0.119E-02 0.712E-05
CGA:  20    -0.387582464806E+03   -0.34782E-04   -0.34780E-04  8736   0.134E-02-0.461E-06
CGA:  21    -0.387582554572E+03   -0.89766E-04   -0.89837E-04  8736   0.177E-02-0.181E-05
CGA:  22    -0.387582589560E+03   -0.34988E-04   -0.34944E-04  8736   0.506E-03-0.173E-06
CGA:  23    -0.387582607585E+03   -0.18025E-04   -0.18024E-04  8736   0.485E-03 0.974E-08
CGA:  24    -0.387582624716E+03   -0.17131E-04   -0.17131E-04  8736   0.549E-03 0.270E-07
CGA:  25    -0.387582652882E+03   -0.28167E-04   -0.28158E-04  8736   0.660E-03 0.655E-06
CGA:  26    -0.387582669102E+03   -0.16220E-04   -0.16220E-04  8736   0.298E-03 0.330E-06
CGA:  27    -0.387582678872E+03   -0.97693E-05   -0.97704E-05  8736   0.227E-03 0.411E-06
 295 F= -.38758268E+03 E0= -.38756228E+03  d E =-.218699E-02  mag=    34.0000
       N       E                     dE             d eps       ncg     rms          ort
SDA:   1    -0.380936504087E+03    0.66462E+01    0.00000E+00  8736   0.191E+02 0.000E+00
CGA:   2    -0.382278660514E+03   -0.13422E+01   -0.13294E+01  8736   0.841E+02 0.646E+00
CGA:   3    -0.385830789117E+03   -0.35521E+01   -0.35707E+01  8736   0.154E+02-0.283E+01
CGA:   4    -0.386284314671E+03   -0.45353E+00   -0.45390E+00  8736   0.145E+02-0.584E-01
CGA:   5    -0.386739315820E+03   -0.45500E+00   -0.46431E+00  8736   0.883E+01 0.673E+00
CGA:   6    -0.387099120235E+03   -0.35980E+00   -0.36000E+00  8736   0.116E+02-0.502E-01
CGA:   7    -0.387359473821E+03   -0.26035E+00   -0.24438E+00  8736   0.144E+01 0.207E+00
CGA:   8    -0.387453273183E+03   -0.93799E-01   -0.97447E-01  8736   0.199E+01-0.119E+00
CGA:   9    -0.387484907524E+03   -0.31634E-01   -0.31984E-01  8736   0.842E+00-0.129E-01
CGA:  10    -0.387538813041E+03   -0.53906E-01   -0.56092E-01  8736   0.521E+00-0.679E-01
CGA:  11    -0.387551485040E+03   -0.12672E-01   -0.12705E-01  8736   0.324E+00 0.237E-04
CGA:  12    -0.387558779864E+03   -0.72948E-02   -0.72615E-02  8736   0.154E+00 0.347E-03
CGA:  13    -0.387568147083E+03   -0.93672E-02   -0.93072E-02  8736   0.174E+00 0.226E-02
CGA:  14    -0.387571975392E+03   -0.38283E-02   -0.38548E-02  8736   0.108E+00-0.287E-03
CGA:  15    -0.387576515573E+03   -0.45402E-02   -0.45350E-02  8736   0.521E-01 0.651E-03
CGA:  16    -0.387577829297E+03   -0.13137E-02   -0.13146E-02  8736   0.384E-01 0.134E-05
CGA:  17    -0.387579136673E+03   -0.13074E-02   -0.13090E-02  8736   0.277E-01 0.250E-03
CGA:  18    -0.387580423206E+03   -0.12865E-02   -0.12824E-02  8736   0.308E-01 0.307E-03
CGA:  19    -0.387581127633E+03   -0.70443E-03   -0.70345E-03  8736   0.139E-01 0.858E-06
CGA:  20    -0.387581693424E+03   -0.56579E-03   -0.56546E-03  8736   0.948E-02 0.442E-04
CGA:  21    -0.387581948910E+03   -0.25549E-03   -0.25508E-03  8736   0.950E-02-0.772E-05
CGA:  22    -0.387582562901E+03   -0.61399E-03   -0.61187E-03  8736   0.901E-02 0.715E-04
CGA:  23    -0.387582759040E+03   -0.19614E-03   -0.19608E-03  8736   0.467E-02 0.452E-05
CGA:  24    -0.387582931195E+03   -0.17215E-03   -0.17215E-03  8736   0.389E-02 0.565E-05
CGA:  25    -0.387583123223E+03   -0.19203E-03   -0.19214E-03  8736   0.611E-02-0.567E-05
CGA:  26    -0.387583282870E+03   -0.15965E-03   -0.15985E-03  8736   0.309E-02 0.757E-05
CGA:  27    -0.387583461318E+03   -0.17845E-03   -0.17806E-03  8736   0.411E-02 0.178E-04
CGA:  28    -0.387583538179E+03   -0.76861E-04   -0.77071E-04  8736   0.106E-02-0.322E-06
CGA:  29    -0.387583601234E+03   -0.63055E-04   -0.63020E-04  8736   0.210E-02 0.152E-05
CGA:  30    -0.387583664589E+03   -0.63355E-04   -0.63343E-04  8736   0.156E-02 0.140E-05
CGA:  31    -0.387583721351E+03   -0.56762E-04   -0.56766E-04  8736   0.906E-03 0.286E-05
SDA:  32    -0.387583749672E+03   -0.28321E-04   -0.28320E-04  8736   0.911E-03 0.429E-06
CGA:  33    -0.387583761533E+03   -0.11862E-04   -0.11870E-04  8736   0.285E-03-0.965E-06
CGA:  34    -0.387583778013E+03   -0.16480E-04   -0.16513E-04  8736   0.396E-03-0.163E-05
CGA:  35    -0.387583828716E+03   -0.50703E-04   -0.51059E-04  8736   0.290E-03-0.396E-05
CGA:  36    -0.387583848802E+03   -0.20086E-04   -0.20100E-04  8736   0.242E-03-0.572E-06
CGA:  37    -0.387583854130E+03   -0.53276E-05   -0.53381E-05  8736   0.261E-03 0.446E-06
CGA:  38    -0.387583877796E+03   -0.23666E-04   -0.23484E-04  8736   0.881E-04 0.374E-05
CGA:  39    -0.387583884181E+03   -0.63848E-05   -0.64032E-05  8736   0.167E-03-0.719E-06
 296 F= -.38758388E+03 E0= -.38756370E+03  d E =-.120531E-02  mag=    34.0000
       N       E                     dE             d eps       ncg     rms          ort
SDA:   1    -0.385333661530E+03    0.22502E+01    0.00000E+00  8736   0.322E+02 0.000E+00
CGA:   2    -0.385665708877E+03   -0.33205E+00   -0.48027E+00  8736   0.148E+02-0.931E+01
CGA:   3    -0.386230649993E+03   -0.56494E+00   -0.56869E+00  8736   0.135E+02-0.232E+00
CGA:   4    -0.386884018190E+03   -0.65337E+00   -0.64639E+00  8736   0.750E+01 0.968E+00
CGA:   5    -0.387033439954E+03   -0.14942E+00   -0.14782E+00  8736   0.410E+01 0.367E-02
CGA:   6    -0.387274050628E+03   -0.24061E+00   -0.25103E+00  8736   0.538E+01-0.461E+00
CGA:   7    -0.387427481504E+03   -0.15343E+00   -0.15151E+00  8736   0.397E+01-0.238E-01
CGA:   8    -0.387514281215E+03   -0.86800E-01   -0.85921E-01  8736   0.491E+00 0.125E-01
CGA:   9    -0.387526479122E+03   -0.12198E-01   -0.12227E-01  8736   0.480E+00-0.430E-03
CGA:  10    -0.387556809838E+03   -0.30331E-01   -0.30046E-01  8736   0.509E+00 0.113E-01
CGA:  11    -0.387568713027E+03   -0.11903E-01   -0.11757E-01  8736   0.240E+00 0.267E-02
CGA:  12    -0.387575058656E+03   -0.63456E-02   -0.63260E-02  8736   0.646E-01 0.125E-03
CGA:  13    -0.387576867841E+03   -0.18092E-02   -0.18110E-02  8736   0.675E-01 0.271E-05
CGA:  14    -0.387579995635E+03   -0.31278E-02   -0.31237E-02  8736   0.524E-01 0.425E-03
CGA:  15    -0.387581630036E+03   -0.16344E-02   -0.16322E-02  8736   0.511E-01-0.440E-04
CGA:  16    -0.387583171871E+03   -0.15418E-02   -0.15415E-02  8736   0.163E-01 0.143E-06
CGA:  17    -0.387583615322E+03   -0.44345E-03   -0.44312E-03  8736   0.130E-01 0.444E-06
CGA:  18    -0.387584020991E+03   -0.40567E-03   -0.40571E-03  8736   0.707E-02 0.178E-05
CGA:  19    -0.387584385771E+03   -0.36478E-03   -0.36513E-03  8736   0.156E-01-0.223E-04
CGA:  20    -0.387584887373E+03   -0.50160E-03   -0.50225E-03  8736   0.510E-02 0.356E-04
CGA:  21    -0.387585032434E+03   -0.14506E-03   -0.14513E-03  8736   0.413E-02 0.276E-05
CGA:  22    -0.387585154945E+03   -0.12251E-03   -0.12257E-03  8736   0.254E-02 0.168E-05
CGA:  23    -0.387585311829E+03   -0.15688E-03   -0.15708E-03  8736   0.576E-02-0.724E-05
CGA:  24    -0.387585462522E+03   -0.15069E-03   -0.15064E-03  8736   0.216E-02-0.164E-06
CGA:  25    -0.387585558010E+03   -0.95488E-04   -0.95469E-04  8736   0.273E-02 0.223E-05
CGA:  26    -0.387585621588E+03   -0.63577E-04   -0.63654E-04  8736   0.105E-02-0.533E-06
CGA:  27    -0.387585675355E+03   -0.53768E-04   -0.53745E-04  8736   0.163E-02 0.149E-05
CGA:  28    -0.387585719245E+03   -0.43890E-04   -0.43899E-04  8736   0.102E-02 0.840E-06
CGA:  29    -0.387585767344E+03   -0.48099E-04   -0.48091E-04  8736   0.859E-03 0.157E-05
CGA:  30    -0.387585784709E+03   -0.17366E-04   -0.17377E-04  8736   0.391E-03 0.320E-06
CGA:  31    -0.387585809002E+03   -0.24292E-04   -0.24255E-04  8736   0.582E-03 0.136E-05
SDA:  32    -0.387585823081E+03   -0.14080E-04   -0.14087E-04  8736   0.345E-03 0.380E-06
CGA:  33    -0.387585828094E+03   -0.50126E-05   -0.50152E-05  8736   0.140E-03-0.399E-06
 297 F= -.38758583E+03 E0= -.38756556E+03  d E =-.194391E-02  mag=    34.0000
       N       E                     dE             d eps       ncg     rms          ort
SDA:   1    -0.386989549269E+03    0.59627E+00    0.00000E+00  8736   0.166E+01 0.000E+00
CGA:   2    -0.387255755963E+03   -0.26621E+00   -0.38151E-03  8736   0.118E+02-0.609E+00
CGA:   3    -0.387336990816E+03   -0.81235E-01   -0.82708E-01  8736   0.384E+01-0.168E+00
CGA:   4    -0.387383892430E+03   -0.46902E-01   -0.51755E-01  8736   0.337E+01-0.341E+00
CGA:   5    -0.387448657303E+03   -0.64765E-01   -0.54982E-01  8736   0.178E+01 0.502E+00
CGA:   6    -0.387469743992E+03   -0.21087E-01   -0.17926E-01  8736   0.840E+00 0.324E+00
CGA:   7    -0.387497245874E+03   -0.27502E-01   -0.26106E-01  8736   0.218E+01 0.311E-01
CGA:   8    -0.387521430426E+03   -0.24185E-01   -0.17897E-01  8736   0.171E+01 0.743E+00
CGA:   9    -0.387540584175E+03   -0.19154E-01   -0.20232E-01  8736   0.846E+00-0.117E+00
CGA:  10    -0.387551590444E+03   -0.11006E-01   -0.11248E-01  8736   0.123E+01-0.148E-01
CGA:  11    -0.387565800681E+03   -0.14210E-01   -0.14296E-01  8736   0.604E+00-0.544E-02
CGA:  12    -0.387569752772E+03   -0.39521E-02   -0.37806E-02  8736   0.150E+00 0.248E-01
CGA:  13    -0.387571291897E+03   -0.15391E-02   -0.15394E-02  8736   0.156E+00-0.543E-04
CGA:  14    -0.387574827158E+03   -0.35353E-02   -0.35266E-02  8736   0.415E+00 0.137E-03
CGA:  15    -0.387579462766E+03   -0.46356E-02   -0.45684E-02  8736   0.220E+00 0.565E-02
CGA:  16    -0.387581018764E+03   -0.15560E-02   -0.15517E-02  8736   0.810E-01 0.525E-03
CGA:  17    -0.387582026437E+03   -0.10077E-02   -0.99941E-03  8736   0.110E+00 0.523E-03
CGA:  18    -0.387583659010E+03   -0.16326E-02   -0.16042E-02  8736   0.111E+00 0.135E-02
CGA:  19    -0.387584525992E+03   -0.86698E-03   -0.84616E-03  8736   0.430E-01 0.243E-02
CGA:  20    -0.387584980624E+03   -0.45463E-03   -0.45508E-03  8736   0.502E-01-0.311E-04
CGA:  21    -0.387585981826E+03   -0.10012E-02   -0.10026E-02  8736   0.115E+00-0.189E-04
CGA:  22    -0.387587149114E+03   -0.11673E-02   -0.11733E-02  8736   0.562E-01-0.449E-03
CGA:  23    -0.387587531746E+03   -0.38263E-03   -0.38381E-03  8736   0.213E-01-0.148E-03
CGA:  24    -0.387587766594E+03   -0.23485E-03   -0.23491E-03  8736   0.233E-01-0.101E-04
CGA:  25    -0.387588046088E+03   -0.27949E-03   -0.27954E-03  8736   0.173E-01-0.608E-05
CGA:  26    -0.387588177755E+03   -0.13167E-03   -0.12992E-03  8736   0.761E-02 0.189E-03
CGA:  27    -0.387588270124E+03   -0.92369E-04   -0.92225E-04  8736   0.111E-01 0.120E-05
CGA:  28    -0.387588476291E+03   -0.20617E-03   -0.20464E-03  8736   0.210E-01-0.119E-04
CGA:  29    -0.387588669293E+03   -0.19300E-03   -0.18909E-03  8736   0.120E-01 0.315E-03
CGA:  30    -0.387588774409E+03   -0.10512E-03   -0.10536E-03  8736   0.989E-02-0.283E-04
CGA:  31    -0.387588914194E+03   -0.13978E-03   -0.14061E-03  8736   0.152E-01-0.291E-04
SDA:  32    -0.387589057254E+03   -0.14306E-03   -0.14495E-03  8736   0.691E-02-0.140E-03
CGA:  33    -0.387589138756E+03   -0.81502E-04   -0.81472E-04  8736   0.164E-02 0.819E-06
CGA:  34    -0.387589272026E+03   -0.13327E-03   -0.13310E-03  8736   0.110E-02 0.292E-05
CGA:  35    -0.387589349862E+03   -0.77836E-04   -0.77266E-04  8736   0.715E-03 0.141E-04
CGA:  36    -0.387589377647E+03   -0.27784E-04   -0.27778E-04  8736   0.112E-02 0.368E-06
CGA:  37    -0.387589405230E+03   -0.27583E-04   -0.27580E-04  8736   0.592E-03-0.509E-06
CGA:  38    -0.387589444279E+03   -0.39049E-04   -0.39127E-04  8736   0.170E-03-0.220E-05
CGA:  39    -0.387589455642E+03   -0.11363E-04   -0.11455E-04  8736   0.292E-03-0.252E-05
CGA:  40    -0.387589460460E+03   -0.48177E-05   -0.47980E-05  8736   0.124E-03-0.119E-05
CGA:  41    -0.387589474583E+03   -0.14122E-04   -0.14536E-04  8736   0.173E-03-0.493E-05
CGA:  42    -0.387589483286E+03   -0.87036E-05   -0.87458E-05  8736   0.362E-03-0.257E-05
 298 F= -.38758948E+03 E0= -.38756909E+03  d E =-.365519E-02  mag=    34.0000
       N       E                     dE             d eps       ncg     rms          ort
SDA:   1    -0.387356714111E+03    0.23276E+00    0.00000E+00  8736   0.116E+02 0.000E+00
CGA:   2    -0.387468101613E+03   -0.11139E+00   -0.11422E+00  8736   0.435E+00-0.346E+00
CGA:   3    -0.387500017744E+03   -0.31916E-01   -0.32938E-01  8736   0.958E+00-0.246E-01
CGA:   4    -0.387525032735E+03   -0.25015E-01   -0.25017E-01  8736   0.103E+01 0.122E-03
CGA:   5    -0.387566801277E+03   -0.41769E-01   -0.41695E-01  8736   0.230E+00 0.108E-01
CGA:   6    -0.387575004376E+03   -0.82031E-02   -0.82040E-02  8736   0.165E+00 0.436E-03
CGA:   7    -0.387578591513E+03   -0.35871E-02   -0.35779E-02  8736   0.110E+00 0.111E-03
CGA:   8    -0.387585788713E+03   -0.71972E-02   -0.72987E-02  8736   0.708E-01-0.319E-02
CGA:   9    -0.387587240864E+03   -0.14522E-02   -0.14590E-02  8736   0.499E-01-0.113E-03
CGA:  10    -0.387588957020E+03   -0.17162E-02   -0.17167E-02  8736   0.752E-02 0.144E-03
CGA:  11    -0.387589190511E+03   -0.23349E-03   -0.23354E-03  8736   0.124E-01 0.459E-05
CGA:  12    -0.387589926151E+03   -0.73564E-03   -0.73809E-03  8736   0.549E-02-0.923E-04
CGA:  13    -0.387590070260E+03   -0.14411E-03   -0.14421E-03  8736   0.488E-02 0.284E-05
CGA:  14    -0.387590201852E+03   -0.13159E-03   -0.13131E-03  8736   0.111E-02-0.235E-05
CGA:  15    -0.387590254255E+03   -0.52403E-04   -0.52395E-04  8736   0.219E-02 0.777E-06
CGA:  16    -0.387590319258E+03   -0.65003E-04   -0.64988E-04  8736   0.103E-02-0.111E-05
CGA:  17    -0.387590356373E+03   -0.37114E-04   -0.37114E-04  8736   0.534E-03 0.891E-07
CGA:  18    -0.387590369066E+03   -0.12693E-04   -0.12690E-04  8736   0.495E-03 0.136E-07
CGA:  19    -0.387590409321E+03   -0.40255E-04   -0.40263E-04  8736   0.314E-03-0.133E-06
CGA:  20    -0.387590413991E+03   -0.46696E-05   -0.46712E-05  8736   0.103E-03-0.141E-07
CGA:  21    -0.387590428611E+03   -0.14620E-04   -0.14555E-04  8736   0.353E-03 0.589E-06
CGA:  22    -0.387590435712E+03   -0.71009E-05   -0.71055E-05  8736   0.166E-03 0.123E-06
 299 F= -.38759044E+03 E0= -.38757002E+03  d E =-.952425E-03  mag=    34.0000
