       N       E                     dE             d eps       ncg     rms          rms(c)
DAV:   1     0.127511592720E+04    0.12751E+04   -0.63314E+04 83464   0.164E+03
DAV:   2    -0.299847495321E+02   -0.13051E+04   -0.12275E+04 88488   0.484E+02
DAV:   3    -0.168136177209E+03   -0.13815E+03   -0.13646E+03102568   0.164E+02
DAV:   4    -0.172560546104E+03   -0.44244E+01   -0.43970E+01122200   0.266E+01
DAV:   5    -0.172873759081E+03   -0.31321E+00   -0.31293E+00130656   0.433E+00    0.551E+00
DAV:   6    -0.140409551639E+03    0.32464E+02   -0.14161E+01 89672   0.165E+01    0.634E+00
DAV:   7    -0.140309942615E+03    0.99609E-01   -0.58841E-01128512   0.349E+00    0.284E+00
DAV:   8    -0.140254775126E+03    0.55167E-01   -0.72207E-02 96392   0.113E+00    0.194E+00
DAV:   9    -0.140237714340E+03    0.17061E-01   -0.13437E-02 97312   0.489E-01    0.146E+00
DAV:  10    -0.140227149081E+03    0.10565E-01   -0.75941E-03 95008   0.361E-01    0.108E+00
DAV:  11    -0.140220965806E+03    0.61833E-02   -0.41234E-03 97960   0.268E-01    0.821E-01
DAV:  12    -0.140217444955E+03    0.35209E-02   -0.21779E-03 97440   0.194E-01    0.624E-01
DAV:  13    -0.140214503592E+03    0.29414E-02   -0.26410E-03 97736   0.215E-01    0.407E-01
DAV:  14    -0.140212720776E+03    0.17828E-02   -0.21233E-03 96712   0.192E-01    0.215E-01
DAV:  15    -0.140212040460E+03    0.68032E-03   -0.78591E-04 99288   0.116E-01    0.981E-02
DAV:  16    -0.140211768368E+03    0.27209E-03   -0.31861E-04 97456   0.741E-02    0.233E-02
DAV:  17    -0.140211732668E+03    0.35700E-04   -0.21764E-05 65424   0.198E-02    0.761E-03
DAV:  18    -0.140211732651E+03    0.17209E-07   -0.30661E-06 53936   0.787E-03
   1 F= -.14021173E+03 E0= -.14021173E+03  d E =-.140212E+03  mag=     6.0000
