       N       E                     dE             d eps       ncg     rms          ort
DAV:   1     0.696889501642E+04    0.69689E+04   -0.27064E+05  8320   0.167E+03
DAV:   2     0.725471501562E+03   -0.62434E+04   -0.59200E+04  8320   0.500E+02
DAV:   3    -0.361160056517E+03   -0.10866E+04   -0.10645E+04  8320   0.205E+02
DAV:   4    -0.424991393896E+03   -0.63831E+02   -0.61564E+02  8320   0.509E+01
DAV:   5    -0.430579154446E+03   -0.55878E+01   -0.54156E+01  8320   0.119E+01
SDA:   6    -0.169040080140E+03    0.26154E+03   -0.54156E+01  8320   0.177E+04 0.000E+00
CGA:   7    -0.285361187371E+03   -0.11632E+03   -0.10474E+03  8320   0.202E+04-0.363E+03
CGA:   8    -0.344646904269E+03   -0.59286E+02   -0.74127E+02  8320   0.294E+03-0.191E+03
CGA:   9    -0.354695603289E+03   -0.10049E+02   -0.14592E+02  8320   0.356E+03-0.191E+03
CGA:  10    -0.359721827984E+03   -0.50262E+01   -0.14729E+02  8320   0.252E+03-0.108E+03
CGA:  11    -0.365521045780E+03   -0.57992E+01   -0.39317E+01  8320   0.918E+02 0.748E+02
CGA:  12    -0.366886249624E+03   -0.13652E+01   -0.31026E+01  8320   0.214E+03-0.112E+03
CGA:  13    -0.364149336264E+03    0.27369E+01   -0.73663E+01  8320   0.409E+03-0.228E+03
CGA:  14    -0.367703753787E+03   -0.35544E+01   -0.97907E+01  8320   0.250E+03-0.293E+03
CGA:  15    -0.366688228113E+03    0.10155E+01   -0.76640E+01  8320   0.342E+03-0.260E+03
CGA:  16    -0.371675584482E+03   -0.49874E+01   -0.63749E+01  8320   0.664E+02-0.131E+03
CGA:  17    -0.373216447875E+03   -0.15409E+01   -0.15808E+01  8320   0.232E+02-0.278E+01
CGA:  18    -0.374062616063E+03   -0.84617E+00   -0.70168E+00  8320   0.147E+02 0.404E+01
CGA:  19    -0.376314112632E+03   -0.22515E+01   -0.22431E+01  8320   0.462E+02 0.643E+00
CGA:  20    -0.375839644098E+03    0.47447E+00   -0.19589E+01  8320   0.119E+03-0.599E+02
CGA:  21    -0.372961590659E+03    0.28781E+01   -0.39415E+01  8320   0.389E+03-0.201E+03
CGA:  22    -0.375677309028E+03   -0.27157E+01   -0.78602E+01  8320   0.156E+03-0.193E+03
CGA:  23    -0.377184547112E+03   -0.15072E+01   -0.24735E+01  8320   0.967E+02-0.340E+02
CGA:  24    -0.375291185058E+03    0.18934E+01   -0.28208E+01  8320   0.157E+03-0.487E+02
CGA:  25    -0.377344229704E+03   -0.20530E+01   -0.29687E+01  8320   0.108E+03-0.145E+03
CGA:  26    -0.374947061563E+03    0.23972E+01   -0.30635E+01  8320   0.326E+03-0.149E+03
CGA:  27    -0.373482902755E+03    0.14642E+01   -0.89582E+01  8320   0.174E+03-0.122E+03
CGA:  28    -0.378030212665E+03   -0.45473E+01   -0.25122E+01  8320   0.606E+02-0.310E+02
CGA:  29    -0.376712393262E+03    0.13178E+01   -0.10922E+01  8320   0.194E+03-0.751E+02
CGA:  30    -0.373563511489E+03    0.31489E+01   -0.54213E+01  8320   0.257E+03-0.147E+03
CGA:  31    -0.375848208616E+03   -0.22847E+01   -0.48224E+01  8320   0.275E+03-0.332E+03
CGA:  32    -0.373501673034E+03    0.23465E+01   -0.76328E+01  8320   0.172E+03-0.117E+03
CGA:  33    -0.378531614389E+03   -0.50299E+01   -0.22561E+01  8320   0.280E+02-0.120E+02
CGA:  34    -0.378502590880E+03    0.29024E-01   -0.49956E+00  8320   0.381E+02-0.227E+02
CGA:  35    -0.378789874389E+03   -0.28728E+00   -0.53943E+00  8320   0.121E+02-0.190E+02
CGA:  36    -0.378901102096E+03   -0.11123E+00   -0.11424E+00  8320   0.346E+01-0.189E+00
CGA:  37    -0.378947559221E+03   -0.46457E-01   -0.48860E-01  8320   0.122E+01-0.158E+00
CGA:  38    -0.379110283787E+03   -0.16272E+00   -0.14661E+00  8320   0.510E+01 0.249E+00
CGA:  39    -0.379281275677E+03   -0.17099E+00   -0.17908E+00  8320   0.356E+01-0.357E-01
CGA:  40    -0.379377282179E+03   -0.96007E-01   -0.10268E+00  8320   0.341E+01-0.668E-01
CGA:  41    -0.379475101191E+03   -0.97819E-01   -0.11167E+00  8320   0.196E+01-0.146E+00
CGA:  42    -0.379529890992E+03   -0.54790E-01   -0.49641E-01  8320   0.478E+00 0.134E+00
CGA:  43    -0.379556257981E+03   -0.26367E-01   -0.26681E-01  8320   0.815E+00 0.149E-01
CGA:  44    -0.379620001476E+03   -0.63743E-01   -0.64931E-01  8320   0.171E+01-0.536E-01
CGA:  45    -0.379681486348E+03   -0.61485E-01   -0.62386E-01  8320   0.143E+01 0.127E-01
CGA:  46    -0.379718538320E+03   -0.37052E-01   -0.42399E-01  8320   0.761E+00-0.827E-01
CGA:  47    -0.379744137938E+03   -0.25600E-01   -0.24437E-01  8320   0.411E+00 0.120E-01
CGA:  48    -0.379773100179E+03   -0.28962E-01   -0.28276E-01  8320   0.854E+00 0.403E-01
CGA:  49    -0.379834837288E+03   -0.61737E-01   -0.63466E-01  8320   0.111E+01-0.111E+00
CGA:  50    -0.379869641126E+03   -0.34804E-01   -0.34787E-01  8320   0.685E+00 0.107E-01
CGA:  51    -0.379890875478E+03   -0.21234E-01   -0.24393E-01  8320   0.567E+00-0.888E-02
CGA:  52    -0.379919698847E+03   -0.28823E-01   -0.28695E-01  8320   0.448E+00-0.125E-01
CGA:  53    -0.379955840701E+03   -0.36142E-01   -0.35109E-01  8320   0.330E+00 0.319E-01
CGA:  54    -0.379972896333E+03   -0.17056E-01   -0.17191E-01  8320   0.298E+00 0.573E-02
CGA:  55    -0.379998285920E+03   -0.25390E-01   -0.25953E-01  8320   0.680E+00-0.184E-01
CGA:  56    -0.380022150831E+03   -0.23865E-01   -0.24718E-01  8320   0.411E+00 0.350E-02
CGA:  57    -0.380049855916E+03   -0.27705E-01   -0.27185E-01  8320   0.214E+00 0.353E-01
CGA:  58    -0.380071078006E+03   -0.21222E-01   -0.23468E-01  8320   0.814E+00-0.498E-01
CGA:  59    -0.380079789119E+03   -0.87111E-02   -0.75414E-02  8320   0.605E+00 0.783E-01
CGA:  60    -0.380087113102E+03   -0.73240E-02   -0.69407E-02  8320   0.396E+00 0.414E-01
CGA:  61    -0.380095079251E+03   -0.79661E-02   -0.85536E-02  8320   0.710E+00-0.552E-02
CGA:  62    -0.380110150345E+03   -0.15071E-01   -0.14316E-01  8320   0.667E+00 0.499E-01
CGA:  63    -0.380119560949E+03   -0.94106E-02   -0.98212E-02  8320   0.291E+00-0.112E-01
CGA:  64    -0.380127600286E+03   -0.80393E-02   -0.81247E-02  8320   0.436E+00 0.696E-03
SDA:  65    -0.380135469160E+03   -0.78689E-02   -0.63722E-02  8320   0.286E+00 0.865E-01
CGA:  66    -0.380148804875E+03   -0.13336E-01   -0.13336E-01  8320   0.406E+00-0.539E-02
CGA:  67    -0.380160923166E+03   -0.12118E-01   -0.12330E-01  8320   0.249E+00 0.162E-03
CGA:  68    -0.380170399041E+03   -0.94759E-02   -0.70524E-02  8320   0.264E+01-0.387E+00
CGA:  69    -0.380217041574E+03   -0.46643E-01   -0.62704E-01  8320   0.126E+01-0.544E+00
CGA:  70    -0.380236373256E+03   -0.19332E-01   -0.17243E-01  8320   0.168E+00 0.105E+00
CGA:  71    -0.380243124250E+03   -0.67510E-02   -0.66285E-02  8320   0.371E+00 0.178E-02
CGA:  72    -0.380256329892E+03   -0.13206E-01   -0.12866E-01  8320   0.246E+00 0.581E-02
CGA:  73    -0.380261230568E+03   -0.49007E-02   -0.49919E-02  8320   0.209E+00-0.356E-02
CGA:  74    -0.380267194942E+03   -0.59644E-02   -0.61321E-02  8320   0.841E-01-0.319E-02
CGA:  75    -0.380268611506E+03   -0.14166E-02   -0.13737E-02  8320   0.652E-01 0.214E-02
CGA:  76    -0.380273648764E+03   -0.50373E-02   -0.51025E-02  8320   0.249E+00-0.405E-02
CGA:  77    -0.380277668199E+03   -0.40194E-02   -0.32969E-02  8320   0.190E+00 0.462E-01
CGA:  78    -0.380282589776E+03   -0.49216E-02   -0.45628E-02  8320   0.309E+00 0.141E-01
CGA:  79    -0.380289368324E+03   -0.67785E-02   -0.65821E-02  8320   0.344E+00 0.810E-02
CGA:  80    -0.380293311486E+03   -0.39432E-02   -0.43243E-02  8320   0.198E+00-0.287E-01
CGA:  81    -0.380296728815E+03   -0.34173E-02   -0.35488E-02  8320   0.289E+00-0.537E-02
CGA:  82    -0.380301186234E+03   -0.44574E-02   -0.42548E-02  8320   0.146E+00 0.108E-01
CGA:  83    -0.380302808705E+03   -0.16225E-02   -0.15692E-02  8320   0.715E-01 0.461E-02
CGA:  84    -0.380304427678E+03   -0.16190E-02   -0.15654E-02  8320   0.121E+00 0.169E-02
CGA:  85    -0.380306427349E+03   -0.19997E-02   -0.19336E-02  8320   0.958E-01 0.340E-02
CGA:  86    -0.380307669003E+03   -0.12417E-02   -0.13420E-02  8320   0.821E-01-0.592E-02
CGA:  87    -0.380309411724E+03   -0.17427E-02   -0.17862E-02  8320   0.127E+00-0.905E-03
CGA:  88    -0.380311015667E+03   -0.16039E-02   -0.15419E-02  8320   0.409E-01 0.428E-02
CGA:  89    -0.380311458514E+03   -0.44285E-03   -0.43607E-03  8320   0.211E-01 0.599E-03
CGA:  90    -0.380311924377E+03   -0.46586E-03   -0.46461E-03  8320   0.321E-01 0.461E-04
CGA:  91    -0.380312378484E+03   -0.45411E-03   -0.46003E-03  8320   0.173E-01-0.284E-03
CGA:  92    -0.380312609728E+03   -0.23124E-03   -0.23545E-03  8320   0.165E-01-0.224E-03
CGA:  93    -0.380313099203E+03   -0.48947E-03   -0.49139E-03  8320   0.392E-01 0.527E-04
CGA:  94    -0.380313771454E+03   -0.67225E-03   -0.63403E-03  8320   0.286E-01 0.168E-02
CGA:  95    -0.380314233607E+03   -0.46215E-03   -0.42680E-03  8320   0.309E-01 0.185E-02
CGA:  96    -0.380314817168E+03   -0.58356E-03   -0.54534E-03  8320   0.348E-01 0.153E-02
CGA:  97    -0.380315209537E+03   -0.39237E-03   -0.43163E-03  8320   0.171E-01-0.241E-02
CGA:  98    -0.380315408519E+03   -0.19898E-03   -0.21859E-03  8320   0.159E-01-0.940E-03
SDA:  99    -0.380315802918E+03   -0.39440E-03   -0.39715E-03  8320   0.224E-01 0.151E-03
CGA: 100    -0.380316148737E+03   -0.34582E-03   -0.34478E-03  8320   0.546E-02 0.413E-04
CGA: 101    -0.380316409825E+03   -0.26109E-03   -0.26133E-03  8320   0.620E-02-0.158E-04
CGA: 102    -0.380317058218E+03   -0.64839E-03   -0.66073E-03  8320   0.911E-02-0.208E-03
CGA: 103    -0.380317655025E+03   -0.59681E-03   -0.58017E-03  8320   0.578E-02 0.543E-03
CGA: 104    -0.380317854748E+03   -0.19972E-03   -0.19774E-03  8320   0.647E-02-0.128E-03
CGA: 105    -0.380318085213E+03   -0.23046E-03   -0.23065E-03  8320   0.592E-02 0.117E-03
CGA: 106    -0.380302120200E+03    0.15965E-01   -0.40356E-02  8320   0.132E+01-0.162E+00
CGA: 107    -0.380315701966E+03   -0.13582E-01   -0.15688E-01  8320   0.120E+00-0.163E+00
CGA: 108    -0.380317807907E+03   -0.21059E-02   -0.21109E-02  8320   0.181E-01-0.192E-03
CGA: 109    -0.380318264022E+03   -0.45611E-03   -0.45694E-03  8320   0.827E-02-0.271E-04
CGA: 110    -0.380318515626E+03   -0.25160E-03   -0.25113E-03  8320   0.929E-02 0.111E-04
CGA: 111    -0.380319307952E+03   -0.79233E-03   -0.78347E-03  8320   0.156E-01 0.285E-03
CGA: 112    -0.380319861896E+03   -0.55394E-03   -0.52920E-03  8320   0.173E-01 0.350E-03
CGA: 113    -0.380320422053E+03   -0.56016E-03   -0.58119E-03  8320   0.519E-02-0.215E-03
CGA: 114    -0.380320600847E+03   -0.17879E-03   -0.17830E-03  8320   0.305E-02 0.330E-05
CGA: 115    -0.380320748072E+03   -0.14722E-03   -0.14828E-03  8320   0.626E-02 0.388E-04
CGA: 116    -0.380321009613E+03   -0.26154E-03   -0.24370E-03  8320   0.787E-02 0.177E-05
CGA: 117    -0.380321372431E+03   -0.36282E-03   -0.35726E-03  8320   0.361E-02-0.788E-04
CGA: 118    -0.380321435162E+03   -0.62731E-04   -0.67730E-04  8320   0.219E-02-0.199E-03
CGA: 119    -0.380321525612E+03   -0.90449E-04   -0.89374E-04  8320   0.170E-02-0.277E-04
CGA: 120    -0.380321632284E+03   -0.10667E-03   -0.10734E-03  8320   0.178E-02-0.414E-04
CGA: 121    -0.380321698979E+03   -0.66695E-04   -0.67515E-04  8320   0.106E-02 0.933E-05
CGA: 122    -0.380321739075E+03   -0.40096E-04   -0.39506E-04  8320   0.689E-03-0.112E-05
CGA: 123    -0.380321755729E+03   -0.16653E-04   -0.16730E-04  8320   0.693E-03-0.261E-05
CGA: 124    -0.380321816949E+03   -0.61220E-04   -0.61633E-04  8320   0.126E-02-0.119E-04
CGA: 125    -0.380321913605E+03   -0.96656E-04   -0.13950E-03  8320   0.246E-02-0.952E-03
CGA: 126    -0.380321946905E+03   -0.33301E-04   -0.33434E-04  8320   0.818E-03-0.114E-04
CGA: 127    -0.380322001221E+03   -0.54316E-04   -0.54327E-04  8320   0.126E-02-0.966E-06
CGA: 128    -0.380322082712E+03   -0.81491E-04   -0.81499E-04  8320   0.195E-02-0.178E-05
CGA: 129    -0.380322151554E+03   -0.68841E-04   -0.68869E-04  8320   0.500E-03-0.135E-05
CGA: 130    -0.380322172775E+03   -0.21221E-04   -0.21256E-04  8320   0.836E-03 0.225E-06
CGA: 131    -0.380322197911E+03   -0.25137E-04   -0.24907E-04  8320   0.800E-03 0.375E-05
CGA: 132    -0.380322298684E+03   -0.10077E-03   -0.98180E-04  8320   0.546E-03 0.366E-04
CGA: 133    -0.380322320486E+03   -0.21802E-04   -0.21917E-04  8320   0.492E-03 0.435E-06
CGA: 134    -0.380322331679E+03   -0.11193E-04   -0.11115E-04  8320   0.366E-03 0.257E-05
CGA: 135    -0.380322359712E+03   -0.28033E-04   -0.28108E-04  8320   0.871E-03-0.329E-05
CGA: 136    -0.380322407898E+03   -0.48186E-04   -0.48155E-04  8320   0.908E-03 0.753E-05
CGA: 137    -0.380322442795E+03   -0.34898E-04   -0.34521E-04  8320   0.470E-03-0.371E-05
CGA: 138    -0.380322452295E+03   -0.94999E-05   -0.95209E-05  8320   0.336E-03-0.269E-05
CGA: 139    -0.380322472285E+03   -0.19990E-04   -0.19997E-04  8320   0.474E-03-0.595E-06
CGA: 140    -0.380322539347E+03   -0.67062E-04   -0.69176E-04  8320   0.892E-03-0.286E-04
CGA: 141    -0.380322555046E+03   -0.15699E-04   -0.16046E-04  8320   0.525E-03-0.127E-04
CGA: 142    -0.380322573657E+03   -0.18610E-04   -0.18612E-04  8320   0.230E-03 0.108E-05
CGA: 143    -0.380322591606E+03   -0.17950E-04   -0.18075E-04  8320   0.807E-03-0.454E-05
CGA: 144    -0.380322658936E+03   -0.67330E-04   -0.66775E-04  8320   0.132E-02 0.137E-04
CGA: 145    -0.380322683946E+03   -0.25009E-04   -0.23889E-04  8320   0.544E-03 0.472E-04
CGA: 146    -0.380322699072E+03   -0.15126E-04   -0.15188E-04  8320   0.121E-03-0.322E-05
CGA: 147    -0.380322707262E+03   -0.81906E-05   -0.82076E-05  8320   0.422E-03-0.130E-05
CGA: 148    -0.380322725376E+03   -0.18113E-04   -0.18024E-04  8320   0.543E-03-0.320E-05
CGA: 149    -0.380322738269E+03   -0.12894E-04   -0.13166E-04  8320   0.243E-03-0.870E-05
CGA: 150    -0.380322745605E+03   -0.73358E-05   -0.73161E-05  8320   0.508E-04-0.776E-06
   1 F= -.38032275E+03 E0= -.38029541E+03  d E =-.380323E+03  mag=    12.6417
       N       E                     dE             d eps       ncg     rms          ort
SDA:   1    -0.380367224054E+03   -0.44486E-01    0.00000E+00  8320   0.851E+00 0.000E+00
CGA:   2    -0.380375709364E+03   -0.84853E-02   -0.78797E-02  8320   0.216E-01 0.573E-01
CGA:   3    -0.380376386955E+03   -0.67759E-03   -0.67627E-03  8320   0.340E-01 0.205E-04
CGA:   4    -0.380377559959E+03   -0.11730E-02   -0.11716E-02  8320   0.409E-01 0.914E-06
CGA:   5    -0.380378718975E+03   -0.11590E-02   -0.11597E-02  8320   0.287E-01 0.216E-04
CGA:   6    -0.380379341262E+03   -0.62229E-03   -0.62246E-03  8320   0.183E-01 0.117E-04
CGA:   7    -0.380379653463E+03   -0.31220E-03   -0.31226E-03  8320   0.385E-02-0.729E-05
CGA:   8    -0.380379789744E+03   -0.13628E-03   -0.13623E-03  8320   0.777E-02-0.826E-05
CGA:   9    -0.380380007387E+03   -0.21764E-03   -0.21747E-03  8320   0.530E-02-0.158E-04
CGA:  10    -0.380380226197E+03   -0.21881E-03   -0.21880E-03  8320   0.572E-02-0.235E-04
CGA:  11    -0.380380297412E+03   -0.71215E-04   -0.71045E-04  8320   0.679E-03-0.144E-04
CGA:  12    -0.380380322455E+03   -0.25043E-04   -0.25037E-04  8320   0.921E-03-0.181E-05
CGA:  13    -0.380380340746E+03   -0.18291E-04   -0.18290E-04  8320   0.630E-03 0.622E-06
CGA:  14    -0.380380380304E+03   -0.39557E-04   -0.39527E-04  8320   0.829E-03 0.130E-05
CGA:  15    -0.380380392498E+03   -0.12194E-04   -0.12194E-04  8320   0.296E-03-0.496E-06
CGA:  16    -0.380380400643E+03   -0.81445E-05   -0.81487E-05  8320   0.100E-03 0.336E-06
   2 F= -.38038040E+03 E0= -.38035311E+03  d E =-.576550E-01  mag=    12.6420
       N       E                     dE             d eps       ncg     rms          ort
SDA:   1    -0.379789591178E+03    0.59080E+00    0.00000E+00  8320   0.925E+01 0.000E+00
CGA:   2    -0.379974406644E+03   -0.18482E+00   -0.17410E+00  8320   0.749E+01 0.264E+00
CGA:   3    -0.380441557968E+03   -0.46715E+00   -0.47826E+00  8320   0.107E+02-0.399E+00
CGA:   4    -0.380830261816E+03   -0.38870E+00   -0.38875E+00  8320   0.729E+01-0.625E-01
CGA:   5    -0.380969865151E+03   -0.13960E+00   -0.14111E+00  8320   0.238E+01-0.489E-01
CGA:   6    -0.381014975002E+03   -0.45110E-01   -0.46155E-01  8320   0.123E+01-0.245E-01
CGA:   7    -0.381099447088E+03   -0.84472E-01   -0.84399E-01  8320   0.171E+01 0.201E-02
CGA:   8    -0.381180400278E+03   -0.80953E-01   -0.80900E-01  8320   0.107E+01 0.345E-02
CGA:   9    -0.381194400473E+03   -0.14000E-01   -0.14525E-01  8320   0.203E+00-0.294E-01
CGA:  10    -0.381203223148E+03   -0.88227E-02   -0.88382E-02  8320   0.180E+00-0.139E-02
CGA:  11    -0.381214975476E+03   -0.11752E-01   -0.11746E-01  8320   0.233E+00 0.218E-03
CGA:  12    -0.381222149137E+03   -0.71737E-02   -0.71552E-02  8320   0.456E-01-0.486E-03
CGA:  13    -0.381224104841E+03   -0.19557E-02   -0.19540E-02  8320   0.328E-01 0.240E-03
CGA:  14    -0.381224935912E+03   -0.83107E-03   -0.82932E-03  8320   0.367E-01 0.160E-04
CGA:  15    -0.381227365029E+03   -0.24291E-02   -0.24322E-02  8320   0.431E-01-0.102E-03
CGA:  16    -0.381228817830E+03   -0.14528E-02   -0.14538E-02  8320   0.186E-01 0.674E-04
CGA:  17    -0.381229409040E+03   -0.59121E-03   -0.59099E-03  8320   0.672E-02-0.107E-04
CGA:  18    -0.381229820031E+03   -0.41099E-03   -0.41098E-03  8320   0.234E-01 0.660E-07
CGA:  19    -0.381230651175E+03   -0.83114E-03   -0.83129E-03  8320   0.129E-01 0.157E-05
CGA:  20    -0.381231299206E+03   -0.64803E-03   -0.64813E-03  8320   0.887E-02-0.832E-05
CGA:  21    -0.381231526837E+03   -0.22763E-03   -0.22784E-03  8320   0.287E-02 0.207E-05
CGA:  22    -0.381231755850E+03   -0.22901E-03   -0.22848E-03  8320   0.130E-01 0.133E-04
CGA:  23    -0.381232183892E+03   -0.42804E-03   -0.42841E-03  8320   0.573E-02 0.297E-04
CGA:  24    -0.381232401924E+03   -0.21803E-03   -0.21809E-03  8320   0.179E-02 0.187E-04
CGA:  25    -0.381232462448E+03   -0.60524E-04   -0.60540E-04  8320   0.179E-02 0.292E-05
CGA:  26    -0.381232584321E+03   -0.12187E-03   -0.12166E-03  8320   0.493E-02 0.790E-05
CGA:  27    -0.381232703317E+03   -0.11900E-03   -0.11921E-03  8320   0.150E-02 0.486E-05
CGA:  28    -0.381232755490E+03   -0.52174E-04   -0.52183E-04  8320   0.403E-03 0.294E-05
CGA:  29    -0.381232778710E+03   -0.23219E-04   -0.23186E-04  8320   0.982E-03 0.176E-05
CGA:  30    -0.381232821620E+03   -0.42910E-04   -0.42902E-04  8320   0.133E-02 0.405E-05
CGA:  31    -0.381232856427E+03   -0.34807E-04   -0.34836E-04  8320   0.405E-03 0.197E-05
SDA:  32    -0.381232868442E+03   -0.12015E-04   -0.12034E-04  8320   0.140E-03 0.148E-05
CGA:  33    -0.381232872941E+03   -0.44993E-05   -0.44951E-05  8320   0.186E-03-0.582E-06
   3 F= -.38123287E+03 E0= -.38120555E+03  d E =-.852472E+00  mag=    12.6390
       N       E                     dE             d eps       ncg     rms          ort
SDA:   1    -0.363506123394E+03    0.17727E+02    0.00000E+00  8320   0.200E+03 0.000E+00
CGA:   2    -0.367471811733E+03   -0.39657E+01   -0.24279E+01  8320   0.668E+02 0.818E+02
CGA:   3    -0.369177349627E+03   -0.17055E+01   -0.18393E+01  8320   0.147E+03-0.939E+01
CGA:   4    -0.370996650190E+03   -0.18193E+01   -0.22219E+01  8320   0.158E+03-0.506E+01
CGA:   5    -0.372505603834E+03   -0.15090E+01   -0.24242E+01  8320   0.255E+03-0.416E+02
CGA:   6    -0.375054248935E+03   -0.25486E+01   -0.17179E+01  8320   0.280E+03 0.225E+02
CGA:   7    -0.377376747454E+03   -0.23225E+01   -0.26180E+01  8320   0.227E+03 0.325E+02
CGA:   8    -0.378459717947E+03   -0.10830E+01   -0.14561E+01  8320   0.991E+02-0.974E+02
CGA:   9    -0.378646119631E+03   -0.18640E+00   -0.29329E+00  8320   0.761E+02-0.178E+02
CGA:  10    -0.378942893887E+03   -0.29677E+00   -0.34000E+00  8320   0.405E+02-0.710E+01
CGA:  11    -0.379187890223E+03   -0.24500E+00   -0.29157E+00  8320   0.420E+02-0.501E+01
CGA:  12    -0.379564792790E+03   -0.37690E+00   -0.35838E+00  8320   0.504E+02 0.142E+01
CGA:  13    -0.379907729615E+03   -0.34294E+00   -0.27166E+00  8320   0.343E+02 0.120E+02
CGA:  14    -0.380157034642E+03   -0.24931E+00   -0.20433E+00  8320   0.278E+02 0.853E+01
CGA:  15    -0.380405473008E+03   -0.24844E+00   -0.22094E+00  8320   0.428E+02 0.345E+01
CGA:  16    -0.380700172397E+03   -0.29470E+00   -0.34372E+00  8320   0.808E+02-0.680E+01
CGA:  17    -0.380913208817E+03   -0.21304E+00   -0.31880E+00  8320   0.852E+02-0.180E+02
CGA:  18    -0.381067992487E+03   -0.15478E+00   -0.25250E+00  8320   0.605E+02-0.216E+02
CGA:  19    -0.381196394471E+03   -0.12840E+00   -0.19818E+00  8320   0.487E+02-0.137E+02
CGA:  20    -0.381352414416E+03   -0.15602E+00   -0.15961E+00  8320   0.447E+02-0.111E+01
CGA:  21    -0.381571820484E+03   -0.21941E+00   -0.22240E+00  8320   0.398E+02-0.927E+00
CGA:  22    -0.381726239066E+03   -0.15442E+00   -0.12002E+00  8320   0.251E+02 0.974E+01
CGA:  23    -0.381822812275E+03   -0.96573E-01   -0.74625E-01  8320   0.123E+02 0.821E+01
CGA:  24    -0.381872899594E+03   -0.50087E-01   -0.41701E-01  8320   0.765E+01 0.298E+01
CGA:  25    -0.381905914956E+03   -0.33015E-01   -0.27913E-01  8320   0.793E+01 0.156E+01
CGA:  26    -0.381937576834E+03   -0.31662E-01   -0.25391E-01  8320   0.946E+01 0.213E+01
CGA:  27    -0.381970753833E+03   -0.33177E-01   -0.27266E-01  8320   0.990E+01 0.232E+01
CGA:  28    -0.381998620990E+03   -0.27867E-01   -0.27312E-01  8320   0.913E+01 0.157E+00
CGA:  29    -0.382014804961E+03   -0.16184E-01   -0.21244E-01  8320   0.861E+01-0.200E+01
CGA:  30    -0.382024838581E+03   -0.10034E-01   -0.16229E-01  8320   0.930E+01-0.225E+01
CGA:  31    -0.382038358238E+03   -0.13520E-01   -0.19579E-01  8320   0.118E+02-0.178E+01
SDA:  32    -0.382067241307E+03   -0.28883E-01   -0.34656E-01  8320   0.173E+02-0.120E+01
CGA:  33    -0.382298343602E+03   -0.23110E+00   -0.24497E+00  8320   0.675E+01-0.419E+01
CGA:  34    -0.382382880322E+03   -0.84537E-01   -0.83511E-01  8320   0.188E+01 0.185E+00
CGA:  35    -0.382436304669E+03   -0.53424E-01   -0.51619E-01  8320   0.395E+01 0.131E+00
CGA:  36    -0.382585737055E+03   -0.14943E+00   -0.14963E+00  8320   0.477E+01-0.127E-02
CGA:  37    -0.382767456560E+03   -0.18172E+00   -0.17982E+00  8320   0.354E+01 0.946E-01
CGA:  38    -0.382812969582E+03   -0.45513E-01   -0.46043E-01  8320   0.609E+00 0.615E-01
CGA:  39    -0.382824348513E+03   -0.11379E-01   -0.11325E-01  8320   0.350E+00 0.118E-01
CGA:  40    -0.382840383411E+03   -0.16035E-01   -0.16308E-01  8320   0.533E+00-0.104E-01
CGA:  41    -0.382881105193E+03   -0.40722E-01   -0.41979E-01  8320   0.903E+00-0.321E-01
CGA:  42    -0.382892898031E+03   -0.11793E-01   -0.12215E-01  8320   0.135E+00 0.912E-02
CGA:  43    -0.382897405663E+03   -0.45076E-02   -0.44592E-02  8320   0.120E+00 0.332E-02
CGA:  44    -0.382901317500E+03   -0.39118E-02   -0.39065E-02  8320   0.883E-01 0.385E-03
CGA:  45    -0.382909523412E+03   -0.82059E-02   -0.83177E-02  8320   0.226E+00-0.204E-02
CGA:  46    -0.382913033738E+03   -0.35103E-02   -0.35779E-02  8320   0.419E-01-0.307E-04
CGA:  47    -0.382914830708E+03   -0.17970E-02   -0.17875E-02  8320   0.346E-01 0.481E-03
CGA:  48    -0.382916322487E+03   -0.14918E-02   -0.14891E-02  8320   0.678E-01 0.144E-03
CGA:  49    -0.382919272765E+03   -0.29503E-02   -0.29555E-02  8320   0.795E-01-0.276E-03
CGA:  50    -0.382921709665E+03   -0.24369E-02   -0.24177E-02  8320   0.474E-01 0.332E-02
CGA:  51    -0.382923475625E+03   -0.17660E-02   -0.17666E-02  8320   0.158E-01-0.397E-04
CGA:  52    -0.382923901123E+03   -0.42550E-03   -0.42553E-03  8320   0.202E-01 0.251E-04
CGA:  53    -0.382925070207E+03   -0.11691E-02   -0.11676E-02  8320   0.330E-01 0.503E-04
CGA:  54    -0.382926978915E+03   -0.19087E-02   -0.19091E-02  8320   0.223E-01-0.143E-04
CGA:  55    -0.382927448478E+03   -0.46956E-03   -0.47035E-03  8320   0.838E-02-0.398E-05
CGA:  56    -0.382927685025E+03   -0.23655E-03   -0.23658E-03  8320   0.836E-02 0.116E-04
CGA:  57    -0.382928104981E+03   -0.41996E-03   -0.41704E-03  8320   0.967E-02 0.132E-03
CGA:  58    -0.382928741230E+03   -0.63625E-03   -0.63150E-03  8320   0.800E-02 0.145E-03
CGA:  59    -0.382928873950E+03   -0.13272E-03   -0.13298E-03  8320   0.294E-02-0.423E-06
CGA:  60    -0.382929034452E+03   -0.16050E-03   -0.16034E-03  8320   0.393E-02 0.717E-05
CGA:  61    -0.382929222983E+03   -0.18853E-03   -0.18835E-03  8320   0.552E-02 0.117E-04
CGA:  62    -0.382929432054E+03   -0.20907E-03   -0.20894E-03  8320   0.495E-02 0.240E-04
SDA:  63    -0.382929532186E+03   -0.10013E-03   -0.10012E-03  8320   0.128E-02 0.212E-05
CGA:  64    -0.382929561589E+03   -0.29403E-04   -0.29399E-04  8320   0.104E-02-0.253E-06
CGA:  65    -0.382929598905E+03   -0.37316E-04   -0.37333E-04  8320   0.118E-02-0.579E-05
CGA:  66    -0.382929660982E+03   -0.62078E-04   -0.62323E-04  8320   0.177E-02-0.122E-04
CGA:  67    -0.382929741976E+03   -0.80993E-04   -0.81146E-04  8320   0.735E-03-0.129E-04
CGA:  68    -0.382929775978E+03   -0.34002E-04   -0.34051E-04  8320   0.366E-03-0.401E-05
CGA:  69    -0.382929795189E+03   -0.19211E-04   -0.19191E-04  8320   0.857E-03 0.105E-05
CGA:  70    -0.382929821647E+03   -0.26458E-04   -0.26488E-04  8320   0.857E-03 0.548E-05
CGA:  71    -0.382929883333E+03   -0.61687E-04   -0.61330E-04  8320   0.289E-03 0.990E-05
CGA:  72    -0.382929902135E+03   -0.18802E-04   -0.18700E-04  8320   0.305E-03 0.362E-05
CGA:  73    -0.382929911901E+03   -0.97661E-05   -0.97632E-05  8320   0.553E-03-0.467E-06
CGA:  74    -0.382929947834E+03   -0.35933E-04   -0.35955E-04  8320   0.177E-03-0.910E-06
CGA:  75    -0.382929957318E+03   -0.94839E-05   -0.95075E-05  8320   0.150E-03-0.178E-05
   4 F= -.38292996E+03 E0= -.38290248E+03  d E =-.169708E+01  mag=    12.6182
       N       E                     dE             d eps       ncg     rms          ort
SDA:   1    -0.367884882847E+03    0.15045E+02    0.00000E+00  8320   0.199E+03 0.000E+00
CGA:   2    -0.371211237607E+03   -0.33264E+01   -0.23329E+01  8320   0.478E+02 0.503E+02
CGA:   3    -0.372869175017E+03   -0.16579E+01   -0.16790E+01  8320   0.103E+03-0.215E+00
CGA:   4    -0.375046148759E+03   -0.21770E+01   -0.22572E+01  8320   0.123E+03-0.246E+01
CGA:   5    -0.376857874768E+03   -0.18117E+01   -0.20404E+01  8320   0.165E+03-0.110E+02
CGA:   6    -0.378915879184E+03   -0.20580E+01   -0.18349E+01  8320   0.193E+03-0.825E+01
CGA:   7    -0.380125650211E+03   -0.12098E+01   -0.12195E+01  8320   0.144E+03 0.120E+00
CGA:   8    -0.380721885218E+03   -0.59624E+00   -0.84508E+00  8320   0.708E+02-0.469E+02
CGA:   9    -0.380903397394E+03   -0.18151E+00   -0.24388E+00  8320   0.486E+02-0.119E+02
CGA:  10    -0.381078079105E+03   -0.17468E+00   -0.22388E+00  8320   0.333E+02-0.836E+01
CGA:  11    -0.381238317625E+03   -0.16024E+00   -0.26336E+00  8320   0.455E+02-0.856E+01
CGA:  12    -0.381535543606E+03   -0.29723E+00   -0.30161E+00  8320   0.428E+02-0.461E+00
CGA:  13    -0.381827326275E+03   -0.29178E+00   -0.25377E+00  8320   0.274E+02 0.530E+01
CGA:  14    -0.382033093692E+03   -0.20577E+00   -0.15740E+00  8320   0.221E+02 0.837E+01
CGA:  15    -0.382231373404E+03   -0.19828E+00   -0.16305E+00  8320   0.260E+02 0.502E+01
CGA:  16    -0.382430166720E+03   -0.19879E+00   -0.21428E+00  8320   0.409E+02-0.220E+01
CGA:  17    -0.382577953670E+03   -0.14779E+00   -0.22434E+00  8320   0.395E+02-0.956E+01
CGA:  18    -0.382674724980E+03   -0.96771E-01   -0.12469E+00  8320   0.210E+02-0.581E+01
CGA:  19    -0.382746225328E+03   -0.71500E-01   -0.89456E-01  8320   0.174E+02-0.319E+01
CGA:  20    -0.382856603625E+03   -0.11038E+00   -0.12540E+00  8320   0.272E+02-0.126E+01
CGA:  21    -0.383039822163E+03   -0.18322E+00   -0.16373E+00  8320   0.205E+02 0.216E+01
CGA:  22    -0.383139024165E+03   -0.99202E-01   -0.86589E-01  8320   0.794E+01 0.270E+01
CGA:  23    -0.383174769156E+03   -0.35745E-01   -0.32107E-01  8320   0.347E+01 0.891E+00
CGA:  24    -0.383193822386E+03   -0.19053E-01   -0.17931E-01  8320   0.323E+01 0.200E+00
CGA:  25    -0.383215817983E+03   -0.21996E-01   -0.21461E-01  8320   0.521E+01 0.605E-01
CGA:  26    -0.383246236147E+03   -0.30418E-01   -0.30643E-01  8320   0.671E+01-0.333E-01
CGA:  27    -0.383275357655E+03   -0.29122E-01   -0.31034E-01  8320   0.559E+01-0.332E+00
CGA:  28    -0.383298681098E+03   -0.23323E-01   -0.25248E-01  8320   0.527E+01-0.314E+00
CGA:  29    -0.383328411676E+03   -0.29731E-01   -0.31156E-01  8320   0.748E+01-0.148E+00
CGA:  30    -0.383380165041E+03   -0.51753E-01   -0.54035E-01  8320   0.109E+02-0.156E+00
CGA:  31    -0.383454079885E+03   -0.73915E-01   -0.82518E-01  8320   0.981E+01-0.389E+00
SDA:  32    -0.383511871322E+03   -0.57791E-01   -0.59626E-01  8320   0.376E+01-0.123E+00
CGA:  33    -0.383571113278E+03   -0.59242E-01   -0.59295E-01  8320   0.749E+00-0.183E-01
CGA:  34    -0.383587831656E+03   -0.16718E-01   -0.16566E-01  8320   0.504E+00 0.162E-01
CGA:  35    -0.383607257274E+03   -0.19426E-01   -0.18996E-01  8320   0.763E+00 0.208E-01
CGA:  36    -0.383652627743E+03   -0.45370E-01   -0.45345E-01  8320   0.358E+00 0.105E-02
CGA:  37    -0.383663911888E+03   -0.11284E-01   -0.11253E-01  8320   0.186E+00 0.210E-02
CGA:  38    -0.383667189216E+03   -0.32773E-02   -0.32794E-02  8320   0.920E-01 0.111E-02
CGA:  39    -0.383672973127E+03   -0.57839E-02   -0.57970E-02  8320   0.161E+00-0.355E-03
CGA:  40    -0.383679951157E+03   -0.69780E-02   -0.68995E-02  8320   0.977E-01 0.347E-02
CGA:  41    -0.383682409783E+03   -0.24586E-02   -0.24591E-02  8320   0.282E-01-0.108E-03
CGA:  42    -0.383683034345E+03   -0.62456E-03   -0.62451E-03  8320   0.265E-01 0.697E-04
CGA:  43    -0.383684995056E+03   -0.19607E-02   -0.19339E-02  8320   0.326E-01 0.590E-03
CGA:  44    -0.383687026151E+03   -0.20311E-02   -0.20280E-02  8320   0.535E-01 0.730E-04
CGA:  45    -0.383688279301E+03   -0.12531E-02   -0.12553E-02  8320   0.200E-01 0.355E-03
CGA:  46    -0.383688688463E+03   -0.40916E-03   -0.40991E-03  8320   0.767E-02 0.478E-04
CGA:  47    -0.383688978004E+03   -0.28954E-03   -0.28957E-03  8320   0.530E-02-0.183E-05
CGA:  48    -0.383689611309E+03   -0.63331E-03   -0.63333E-03  8320   0.280E-01 0.544E-05
CGA:  49    -0.383690241398E+03   -0.63009E-03   -0.63089E-03  8320   0.820E-02 0.241E-05
CGA:  50    -0.383690539372E+03   -0.29797E-03   -0.29779E-03  8320   0.457E-02 0.195E-04
CGA:  51    -0.383690720881E+03   -0.18151E-03   -0.18136E-03  8320   0.601E-02 0.153E-04
CGA:  52    -0.383691060429E+03   -0.33955E-03   -0.33799E-03  8320   0.143E-01 0.595E-04
CGA:  53    -0.383691490948E+03   -0.43052E-03   -0.43051E-03  8320   0.591E-02 0.178E-04
CGA:  54    -0.383691680039E+03   -0.18909E-03   -0.18911E-03  8320   0.180E-02 0.211E-04
CGA:  55    -0.383691753498E+03   -0.73459E-04   -0.73415E-04  8320   0.383E-02 0.565E-05
CGA:  56    -0.383691923344E+03   -0.16985E-03   -0.16955E-03  8320   0.311E-02 0.219E-04
CGA:  57    -0.383692081118E+03   -0.15777E-03   -0.15731E-03  8320   0.280E-02 0.252E-04
CGA:  58    -0.383692150107E+03   -0.68989E-04   -0.69020E-04  8320   0.124E-02 0.120E-05
CGA:  59    -0.383692182660E+03   -0.32553E-04   -0.32546E-04  8320   0.955E-03-0.357E-06
CGA:  60    -0.383692222137E+03   -0.39477E-04   -0.39504E-04  8320   0.899E-03-0.367E-05
CGA:  61    -0.383692309892E+03   -0.87755E-04   -0.88288E-04  8320   0.196E-02-0.843E-05
CGA:  62    -0.383692341848E+03   -0.31956E-04   -0.31885E-04  8320   0.508E-03-0.493E-05
SDA:  63    -0.383692364492E+03   -0.22644E-04   -0.22654E-04  8320   0.359E-03-0.130E-05
CGA:  64    -0.383692372230E+03   -0.77374E-05   -0.77266E-05  8320   0.252E-03-0.712E-06
CGA:  65    -0.383692385936E+03   -0.13706E-04   -0.13692E-04  8320   0.649E-03 0.595E-06
CGA:  66    -0.383692412705E+03   -0.26769E-04   -0.26765E-04  8320   0.433E-03 0.644E-06
CGA:  67    -0.383692431195E+03   -0.18490E-04   -0.18495E-04  8320   0.174E-03-0.726E-06
CGA:  68    -0.383692440367E+03   -0.91722E-05   -0.91894E-05  8320   0.140E-03-0.121E-05
   5 F= -.38369244E+03 E0= -.38366515E+03  d E =-.762483E+00  mag=    12.5909
       N       E                     dE             d eps       ncg     rms          ort
SDA:   1    -0.344352233794E+03    0.39340E+02    0.00000E+00  8320   0.470E+03 0.000E+00
CGA:   2    -0.354226341936E+03   -0.98741E+01   -0.59964E+01  8320   0.121E+03 0.201E+03
CGA:   3    -0.357029458626E+03   -0.28031E+01   -0.24960E+01  8320   0.197E+03 0.105E+01
CGA:   4    -0.359432900248E+03   -0.24034E+01   -0.41110E+01  8320   0.512E+03-0.104E+02
CGA:   5    -0.362655079061E+03   -0.32222E+01   -0.56503E+01  8320   0.355E+03-0.192E+03
CGA:   6    -0.366520528628E+03   -0.38654E+01   -0.35650E+01  8320   0.425E+03 0.269E+02
CGA:   7    -0.373537492305E+03   -0.70170E+01   -0.56609E+01  8320   0.391E+03 0.820E+01
CGA:   8    -0.375789253982E+03   -0.22518E+01   -0.23226E+01  8320   0.140E+03-0.108E+03
CGA:   9    -0.375959850654E+03   -0.17060E+00   -0.67224E+00  8320   0.976E+02-0.661E+02
CGA:  10    -0.376173834965E+03   -0.21398E+00   -0.31738E+00  8320   0.872E+02-0.145E+02
CGA:  11    -0.376973988575E+03   -0.80015E+00   -0.99889E+00  8320   0.120E+03-0.794E+01
CGA:  12    -0.378039873922E+03   -0.10659E+01   -0.95849E+00  8320   0.786E+02 0.756E+01
CGA:  13    -0.378846742412E+03   -0.80687E+00   -0.66171E+00  8320   0.830E+02 0.150E+02
CGA:  14    -0.379825799079E+03   -0.97906E+00   -0.76945E+00  8320   0.112E+03 0.215E+02
CGA:  15    -0.380810442867E+03   -0.98464E+00   -0.98279E+00  8320   0.981E+02-0.287E+01
CGA:  16    -0.381169541417E+03   -0.35910E+00   -0.46035E+00  8320   0.507E+02-0.191E+02
CGA:  17    -0.381341105712E+03   -0.17156E+00   -0.23399E+00  8320   0.502E+02-0.904E+01
CGA:  18    -0.381676710538E+03   -0.33560E+00   -0.38562E+00  8320   0.636E+02-0.328E+01
CGA:  19    -0.382043789126E+03   -0.36708E+00   -0.33965E+00  8320   0.360E+02 0.358E+01
CGA:  20    -0.382249212349E+03   -0.20542E+00   -0.20019E+00  8320   0.190E+02 0.693E+00
CGA:  21    -0.382364006692E+03   -0.11479E+00   -0.11180E+00  8320   0.147E+02 0.396E+00
CGA:  22    -0.382468952924E+03   -0.10495E+00   -0.11121E+00  8320   0.169E+02-0.567E+00
CGA:  23    -0.382610318351E+03   -0.14137E+00   -0.15530E+00  8320   0.232E+02-0.648E+00
CGA:  24    -0.382811354190E+03   -0.20104E+00   -0.20500E+00  8320   0.215E+02-0.218E+00
CGA:  25    -0.382974750390E+03   -0.16340E+00   -0.16274E+00  8320   0.173E+02 0.568E-01
CGA:  26    -0.383138568420E+03   -0.16382E+00   -0.16032E+00  8320   0.220E+02 0.155E+00
CGA:  27    -0.383339221662E+03   -0.20065E+00   -0.20173E+00  8320   0.244E+02-0.111E+00
CGA:  28    -0.383507252367E+03   -0.16803E+00   -0.20000E+00  8320   0.128E+02-0.159E+01
CGA:  29    -0.383601543415E+03   -0.94291E-01   -0.10146E+00  8320   0.685E+01-0.325E+00
CGA:  30    -0.383695074985E+03   -0.93532E-01   -0.94023E-01  8320   0.616E+01 0.125E+00
CGA:  31    -0.383762073714E+03   -0.66999E-01   -0.65401E-01  8320   0.250E+01-0.531E-02
SDA:  32    -0.383798707432E+03   -0.36634E-01   -0.36580E-01  8320   0.419E+01-0.356E-01
CGA:  33    -0.383856626372E+03   -0.57919E-01   -0.58280E-01  8320   0.200E+01 0.106E+00
CGA:  34    -0.383946190242E+03   -0.89564E-01   -0.92261E-01  8320   0.273E+01-0.104E+00
CGA:  35    -0.384114951743E+03   -0.16876E+00   -0.16916E+00  8320   0.455E+01-0.110E-01
CGA:  36    -0.384207776147E+03   -0.92824E-01   -0.92761E-01  8320   0.132E+01 0.278E-01
CGA:  37    -0.384243407681E+03   -0.35632E-01   -0.35263E-01  8320   0.720E+00 0.387E-01
CGA:  38    -0.384257829256E+03   -0.14422E-01   -0.14422E-01  8320   0.245E+00 0.196E-02
CGA:  39    -0.384271102128E+03   -0.13273E-01   -0.13224E-01  8320   0.445E+00 0.152E-02
CGA:  40    -0.384288855003E+03   -0.17753E-01   -0.17836E-01  8320   0.740E+00-0.417E-02
CGA:  41    -0.384310918404E+03   -0.22063E-01   -0.22106E-01  8320   0.189E+00-0.534E-02
CGA:  42    -0.384316784382E+03   -0.58660E-02   -0.58426E-02  8320   0.164E+00 0.214E-02
CGA:  43    -0.384321603961E+03   -0.48196E-02   -0.48002E-02  8320   0.147E+00 0.229E-02
CGA:  44    -0.384331329805E+03   -0.97258E-02   -0.94576E-02  8320   0.286E+00 0.771E-02
CGA:  45    -0.384340008138E+03   -0.86783E-02   -0.86824E-02  8320   0.132E+00-0.693E-03
CGA:  46    -0.384342540380E+03   -0.25322E-02   -0.25366E-02  8320   0.319E-01 0.187E-03
CGA:  47    -0.384343594811E+03   -0.10544E-02   -0.10529E-02  8320   0.328E-01 0.150E-03
CGA:  48    -0.384345711906E+03   -0.21171E-02   -0.20959E-02  8320   0.711E-01 0.604E-03
CGA:  49    -0.384348046890E+03   -0.23350E-02   -0.23329E-02  8320   0.597E-01 0.308E-03
CGA:  50    -0.384350107058E+03   -0.20602E-02   -0.20572E-02  8320   0.202E-01 0.336E-03
CGA:  51    -0.384350545523E+03   -0.43847E-03   -0.43916E-03  8320   0.111E-01 0.207E-04
CGA:  52    -0.384351043669E+03   -0.49815E-03   -0.49788E-03  8320   0.148E-01 0.120E-04
CGA:  53    -0.384351785781E+03   -0.74211E-03   -0.74059E-03  8320   0.229E-01 0.611E-04
CGA:  54    -0.384352731285E+03   -0.94550E-03   -0.94606E-03  8320   0.229E-01-0.468E-04
CGA:  55    -0.384353286142E+03   -0.55486E-03   -0.55559E-03  8320   0.737E-02 0.800E-05
CGA:  56    -0.384353548867E+03   -0.26272E-03   -0.26273E-03  8320   0.713E-02-0.310E-05
CGA:  57    -0.384353865404E+03   -0.31654E-03   -0.31618E-03  8320   0.125E-01 0.179E-04
CGA:  58    -0.384354496606E+03   -0.63120E-03   -0.63150E-03  8320   0.108E-01-0.127E-04
CGA:  59    -0.384354789500E+03   -0.29289E-03   -0.29324E-03  8320   0.529E-02 0.249E-04
CGA:  60    -0.384354923072E+03   -0.13357E-03   -0.13360E-03  8320   0.286E-02 0.768E-05
CGA:  61    -0.384355072636E+03   -0.14956E-03   -0.14907E-03  8320   0.541E-02 0.228E-04
CGA:  62    -0.384355396190E+03   -0.32355E-03   -0.32299E-03  8320   0.872E-02 0.220E-04
SDA:  63    -0.384355613056E+03   -0.21687E-03   -0.21733E-03  8320   0.298E-02 0.282E-04
CGA:  64    -0.384355664023E+03   -0.50967E-04   -0.50947E-04  8320   0.157E-02-0.544E-06
CGA:  65    -0.384355735964E+03   -0.71941E-04   -0.72057E-04  8320   0.186E-02-0.924E-05
CGA:  66    -0.384355848303E+03   -0.11234E-03   -0.11298E-03  8320   0.298E-02-0.231E-04
CGA:  67    -0.384355981545E+03   -0.13324E-03   -0.13344E-03  8320   0.131E-02-0.204E-04
CGA:  68    -0.384356038988E+03   -0.57443E-04   -0.57501E-04  8320   0.115E-02-0.642E-05
CGA:  69    -0.384356064407E+03   -0.25418E-04   -0.25416E-04  8320   0.966E-03-0.202E-05
CGA:  70    -0.384356170351E+03   -0.10594E-03   -0.10530E-03  8320   0.191E-02 0.794E-05
CGA:  71    -0.384356294478E+03   -0.12413E-03   -0.12392E-03  8320   0.734E-03 0.852E-05
CGA:  72    -0.384356318238E+03   -0.23760E-04   -0.23790E-04  8320   0.767E-03 0.395E-05
CGA:  73    -0.384356338832E+03   -0.20594E-04   -0.20642E-04  8320   0.559E-03 0.235E-05
CGA:  74    -0.384356397415E+03   -0.58583E-04   -0.58378E-04  8320   0.211E-02 0.252E-05
CGA:  75    -0.384356488804E+03   -0.91389E-04   -0.91388E-04  8320   0.619E-03 0.137E-05
CGA:  76    -0.384356517012E+03   -0.28208E-04   -0.28208E-04  8320   0.633E-03-0.100E-05
CGA:  77    -0.384356531550E+03   -0.14539E-04   -0.14497E-04  8320   0.559E-03-0.432E-05
CGA:  78    -0.384356633437E+03   -0.10189E-03   -0.11048E-03  8320   0.170E-02-0.591E-04
CGA:  79    -0.384356695314E+03   -0.61877E-04   -0.61913E-04  8320   0.104E-02-0.119E-04
CGA:  80    -0.384356713381E+03   -0.18067E-04   -0.17972E-04  8320   0.381E-03 0.172E-07
CGA:  81    -0.384356741915E+03   -0.28534E-04   -0.28289E-04  8320   0.101E-02 0.859E-05
CGA:  82    -0.384356797241E+03   -0.55326E-04   -0.55263E-04  8320   0.981E-03 0.145E-04
CGA:  83    -0.384356829451E+03   -0.32210E-04   -0.32455E-04  8320   0.671E-03 0.960E-05
CGA:  84    -0.384356842908E+03   -0.13457E-04   -0.13526E-04  8320   0.219E-03 0.510E-05
CGA:  85    -0.384356857969E+03   -0.15061E-04   -0.15058E-04  8320   0.329E-03-0.180E-06
CGA:  86    -0.384356879207E+03   -0.21239E-04   -0.21342E-04  8320   0.879E-03-0.568E-05
CGA:  87    -0.384356900652E+03   -0.21445E-04   -0.21394E-04  8320   0.223E-03-0.817E-05
CGA:  88    -0.384356911737E+03   -0.11084E-04   -0.11093E-04  8320   0.134E-03-0.317E-05
CGA:  89    -0.384356916911E+03   -0.51746E-05   -0.51733E-05  8320   0.200E-03-0.406E-06
CGA:  90    -0.384356928119E+03   -0.11207E-04   -0.11196E-04  8320   0.461E-03 0.120E-05
CGA:  91    -0.384356946856E+03   -0.18737E-04   -0.18779E-04  8320   0.294E-03 0.318E-05
CGA:  92    -0.384356956352E+03   -0.94962E-05   -0.94972E-05  8320   0.721E-04 0.974E-06
   6 F= -.38435696E+03 E0= -.38433131E+03  d E =-.664516E+00  mag=    12.5239
       N       E                     dE             d eps       ncg     rms          ort
SDA:   1    -0.358048022678E+03    0.26309E+02    0.00000E+00  8320   0.241E+03 0.000E+00
CGA:   2    -0.362268697935E+03   -0.42207E+01   -0.34488E+01  8320   0.769E+02 0.183E+02
CGA:   3    -0.370573748155E+03   -0.83051E+01   -0.81940E+01  8320   0.174E+03-0.393E+00
CGA:   4    -0.376719634335E+03   -0.61459E+01   -0.55171E+01  8320   0.161E+03 0.125E+02
CGA:   5    -0.379990164780E+03   -0.32705E+01   -0.30290E+01  8320   0.888E+02 0.600E+01
CGA:   6    -0.380715049302E+03   -0.72488E+00   -0.81433E+00  8320   0.425E+02-0.134E+02
CGA:   7    -0.381632065919E+03   -0.91702E+00   -0.98848E+00  8320   0.483E+02 0.943E-01
CGA:   8    -0.382262754537E+03   -0.63069E+00   -0.88936E+00  8320   0.407E+02-0.787E+01
CGA:   9    -0.383445748285E+03   -0.11830E+01   -0.11708E+01  8320   0.387E+02-0.489E+00
CGA:  10    -0.383825124024E+03   -0.37938E+00   -0.30503E+00  8320   0.821E+01 0.738E+01
CGA:  11    -0.383966755116E+03   -0.14163E+00   -0.15170E+00  8320   0.105E+02-0.447E+00
CGA:  12    -0.384093719433E+03   -0.12696E+00   -0.12892E+00  8320   0.523E+01-0.119E+00
CGA:  13    -0.384148117202E+03   -0.54398E-01   -0.59759E-01  8320   0.468E+01-0.367E+00
CGA:  14    -0.384256616516E+03   -0.10850E+00   -0.10842E+00  8320   0.931E+01 0.752E-04
CGA:  15    -0.384400657775E+03   -0.14404E+00   -0.15676E+00  8320   0.588E+01-0.404E+00
CGA:  16    -0.384479940815E+03   -0.79283E-01   -0.85138E-01  8320   0.256E+01-0.215E+00
CGA:  17    -0.384510853419E+03   -0.30913E-01   -0.30276E-01  8320   0.133E+01 0.352E-01
CGA:  18    -0.384538699098E+03   -0.27846E-01   -0.27889E-01  8320   0.100E+01 0.193E-03
CGA:  19    -0.384551340483E+03   -0.12641E-01   -0.13360E-01  8320   0.565E+00-0.336E-01
CGA:  20    -0.384577327144E+03   -0.25987E-01   -0.24903E-01  8320   0.130E+01 0.590E-01
CGA:  21    -0.384604467089E+03   -0.27140E-01   -0.27169E-01  8320   0.664E+00-0.148E-02
CGA:  22    -0.384624985513E+03   -0.20518E-01   -0.20518E-01  8320   0.237E+00 0.392E-02
CGA:  23    -0.384629260124E+03   -0.42746E-02   -0.43200E-02  8320   0.171E+00-0.652E-03
CGA:  24    -0.384635017865E+03   -0.57577E-02   -0.57481E-02  8320   0.106E+00 0.173E-02
CGA:  25    -0.384640888425E+03   -0.58706E-02   -0.58556E-02  8320   0.265E+00 0.569E-03
CGA:  26    -0.384646744942E+03   -0.58565E-02   -0.58712E-02  8320   0.927E-01 0.907E-04
CGA:  27    -0.384650594477E+03   -0.38495E-02   -0.38503E-02  8320   0.501E-01-0.565E-04
CGA:  28    -0.384651514551E+03   -0.92007E-03   -0.92680E-03  8320   0.328E-01-0.127E-03
CGA:  29    -0.384653330810E+03   -0.18163E-02   -0.18029E-02  8320   0.333E-01 0.510E-03
CGA:  30    -0.384654813546E+03   -0.14827E-02   -0.14803E-02  8320   0.519E-01 0.162E-03
CGA:  31    -0.384656329684E+03   -0.15161E-02   -0.15172E-02  8320   0.354E-01 0.953E-04
SDA:  32    -0.384657129419E+03   -0.79974E-03   -0.80308E-03  8320   0.917E-02 0.313E-04
CGA:  33    -0.384657516690E+03   -0.38727E-03   -0.38685E-03  8320   0.840E-02 0.336E-04
CGA:  34    -0.384658010326E+03   -0.49364E-03   -0.49201E-03  8320   0.164E-01 0.596E-04
CGA:  35    -0.384658777510E+03   -0.76718E-03   -0.76625E-03  8320   0.256E-01 0.698E-04
CGA:  36    -0.384659454261E+03   -0.67675E-03   -0.67793E-03  8320   0.412E-02 0.659E-04
CGA:  37    -0.384659783835E+03   -0.32957E-03   -0.32816E-03  8320   0.470E-02 0.314E-04
CGA:  38    -0.384660324416E+03   -0.54058E-03   -0.53770E-03  8320   0.889E-02 0.422E-04
CGA:  39    -0.384660759050E+03   -0.43463E-03   -0.43411E-03  8320   0.116E-01 0.450E-04
CGA:  40    -0.384660987003E+03   -0.22795E-03   -0.22973E-03  8320   0.272E-02-0.485E-04
CGA:  41    -0.384661404963E+03   -0.41796E-03   -0.41622E-03  8320   0.495E-02 0.169E-04
CGA:  42    -0.384661781349E+03   -0.37639E-03   -0.37499E-03  8320   0.493E-02 0.411E-04
CGA:  43    -0.384661881721E+03   -0.10037E-03   -0.10061E-03  8320   0.226E-02 0.205E-05
CGA:  44    -0.384661984672E+03   -0.10295E-03   -0.10295E-03  8320   0.224E-02 0.880E-05
CGA:  45    -0.384662144841E+03   -0.16017E-03   -0.15964E-03  8320   0.357E-02 0.197E-04
CGA:  46    -0.384662307181E+03   -0.16234E-03   -0.16239E-03  8320   0.642E-03 0.196E-04
CGA:  47    -0.384662332383E+03   -0.25202E-04   -0.25215E-04  8320   0.125E-02 0.217E-05
CGA:  48    -0.384662408965E+03   -0.76582E-04   -0.76384E-04  8320   0.128E-02 0.108E-04
CGA:  49    -0.384662484590E+03   -0.75624E-04   -0.75688E-04  8320   0.527E-03-0.283E-05
CGA:  50    -0.384662507181E+03   -0.22592E-04   -0.22596E-04  8320   0.671E-03-0.504E-06
CGA:  51    -0.384662532438E+03   -0.25256E-04   -0.25226E-04  8320   0.790E-03-0.180E-05
CGA:  52    -0.384662579977E+03   -0.47540E-04   -0.47568E-04  8320   0.108E-02-0.335E-05
CGA:  53    -0.384662626106E+03   -0.46128E-04   -0.46093E-04  8320   0.385E-03-0.671E-05
CGA:  54    -0.384662651019E+03   -0.24913E-04   -0.24952E-04  8320   0.563E-03-0.255E-05
CGA:  55    -0.384662668588E+03   -0.17569E-04   -0.17517E-04  8320   0.692E-03-0.504E-06
CGA:  56    -0.384662733669E+03   -0.65081E-04   -0.64476E-04  8320   0.566E-03 0.128E-04
CGA:  57    -0.384662764618E+03   -0.30949E-04   -0.30963E-04  8320   0.311E-03-0.185E-05
CGA:  58    -0.384662775022E+03   -0.10404E-04   -0.10416E-04  8320   0.361E-03-0.149E-06
CGA:  59    -0.384662798319E+03   -0.23297E-04   -0.23285E-04  8320   0.814E-03 0.114E-05
CGA:  60    -0.384662831399E+03   -0.33080E-04   -0.33155E-04  8320   0.275E-03 0.442E-05
CGA:  61    -0.384662845806E+03   -0.14406E-04   -0.14403E-04  8320   0.145E-03 0.853E-06
CGA:  62    -0.384662859543E+03   -0.13738E-04   -0.13732E-04  8320   0.453E-03-0.683E-07
SDA:  63    -0.384662873866E+03   -0.14323E-04   -0.14268E-04  8320   0.403E-03 0.745E-06
CGA:  64    -0.384662881632E+03   -0.77660E-05   -0.77491E-05  8320   0.153E-03-0.622E-06
   7 F= -.38466288E+03 E0= -.38464079E+03  d E =-.305925E+00  mag=    12.4483
       N       E                     dE             d eps       ncg     rms          ort
SDA:   1    -0.355299137995E+03    0.29364E+02    0.00000E+00  8320   0.109E+03 0.000E+00
CGA:   2    -0.359832872781E+03   -0.45337E+01   -0.42285E+01  8320   0.204E+03-0.816E+01
CGA:   3    -0.369559721965E+03   -0.97268E+01   -0.97232E+01  8320   0.352E+03 0.337E+01
CGA:   4    -0.373873679292E+03   -0.43140E+01   -0.56508E+01  8320   0.351E+03-0.128E+03
CGA:   5    -0.375638010871E+03   -0.17643E+01   -0.19729E+01  8320   0.299E+03-0.739E+02
CGA:   6    -0.376692235167E+03   -0.10542E+01   -0.15950E+01  8320   0.296E+03-0.128E+03
CGA:   7    -0.376615042424E+03    0.77193E-01   -0.84184E+00  8320   0.441E+03-0.205E+03
CGA:   8    -0.378531891769E+03   -0.19168E+01   -0.59050E+01  8320   0.219E+03-0.234E+03
CGA:   9    -0.380508463709E+03   -0.19766E+01   -0.16106E+01  8320   0.157E+02 0.257E+02
CGA:  10    -0.380996412190E+03   -0.48795E+00   -0.48113E+00  8320   0.529E+02-0.104E+00
CGA:  11    -0.382596747007E+03   -0.16003E+01   -0.16214E+01  8320   0.994E+02 0.974E+00
CGA:  12    -0.383604624916E+03   -0.10079E+01   -0.10737E+01  8320   0.169E+02-0.382E+01
CGA:  13    -0.383761248068E+03   -0.15662E+00   -0.17157E+00  8320   0.644E+01-0.115E+01
CGA:  14    -0.383925604701E+03   -0.16436E+00   -0.16446E+00  8320   0.649E+01 0.527E-02
CGA:  15    -0.384023721046E+03   -0.98116E-01   -0.10171E+00  8320   0.532E+01-0.128E+00
CGA:  16    -0.384326250189E+03   -0.30253E+00   -0.30342E+00  8320   0.111E+02-0.286E-01
CGA:  17    -0.384547512595E+03   -0.22126E+00   -0.23852E+00  8320   0.564E+01-0.728E-01
CGA:  18    -0.384647988002E+03   -0.10048E+00   -0.10673E+00  8320   0.348E+01-0.115E+00
CGA:  19    -0.384706255544E+03   -0.58268E-01   -0.61950E-01  8320   0.568E+00-0.598E-01
CGA:  20    -0.384734843910E+03   -0.28588E-01   -0.28681E-01  8320   0.101E+01-0.445E-02
CGA:  21    -0.384759689183E+03   -0.24845E-01   -0.24812E-01  8320   0.966E+00-0.876E-03
CGA:  22    -0.384804174639E+03   -0.44485E-01   -0.43392E-01  8320   0.496E+00 0.662E-01
CGA:  23    -0.384815032953E+03   -0.10858E-01   -0.10999E-01  8320   0.195E+00-0.111E-02
CGA:  24    -0.384819487129E+03   -0.44542E-02   -0.44653E-02  8320   0.120E+00 0.495E-04
CGA:  25    -0.384825900243E+03   -0.64131E-02   -0.63085E-02  8320   0.144E+00 0.441E-02
CGA:  26    -0.384835099280E+03   -0.91990E-02   -0.90271E-02  8320   0.111E+00 0.579E-02
CGA:  27    -0.384838790324E+03   -0.36910E-02   -0.36946E-02  8320   0.122E+00 0.520E-03
CGA:  28    -0.384842081510E+03   -0.32912E-02   -0.33045E-02  8320   0.313E-01 0.417E-03
CGA:  29    -0.384844914170E+03   -0.28327E-02   -0.28037E-02  8320   0.696E-01 0.573E-03
CGA:  30    -0.384848536302E+03   -0.36221E-02   -0.36171E-02  8320   0.104E+00 0.283E-03
CGA:  31    -0.384851371848E+03   -0.28355E-02   -0.28460E-02  8320   0.413E-01 0.164E-03
CGA:  32    -0.384852502628E+03   -0.11308E-02   -0.11327E-02  8320   0.118E-01 0.452E-04
CGA:  33    -0.384853767230E+03   -0.12646E-02   -0.12629E-02  8320   0.308E-01 0.188E-04
CGA:  34    -0.384854631538E+03   -0.86431E-03   -0.86728E-03  8320   0.238E-01 0.532E-04
CGA:  35    -0.384855796216E+03   -0.11647E-02   -0.11608E-02  8320   0.113E-01 0.308E-03
CGA:  36    -0.384856229277E+03   -0.43306E-03   -0.43311E-03  8320   0.613E-02 0.170E-04
CGA:  37    -0.384856684051E+03   -0.45477E-03   -0.45222E-03  8320   0.120E-01 0.718E-04
CGA:  38    -0.384857144045E+03   -0.45999E-03   -0.46029E-03  8320   0.130E-01 0.292E-04
SDA:  39    -0.384857631468E+03   -0.48742E-03   -0.48736E-03  8320   0.418E-02-0.787E-05
CGA:  40    -0.384857786798E+03   -0.15533E-03   -0.15541E-03  8320   0.281E-02 0.867E-05
CGA:  41    -0.384857933544E+03   -0.14675E-03   -0.14671E-03  8320   0.370E-02 0.380E-05
CGA:  42    -0.384858082095E+03   -0.14855E-03   -0.14856E-03  8320   0.410E-02 0.379E-05
CGA:  43    -0.384858282305E+03   -0.20021E-03   -0.20011E-03  8320   0.240E-02 0.124E-04
CGA:  44    -0.384858395675E+03   -0.11337E-03   -0.11338E-03  8320   0.915E-03 0.333E-06
CGA:  45    -0.384858568461E+03   -0.17279E-03   -0.17381E-03  8320   0.151E-02-0.670E-05
CGA:  46    -0.384858719370E+03   -0.15091E-03   -0.15130E-03  8320   0.102E-02-0.773E-05
CGA:  47    -0.384858757158E+03   -0.37789E-04   -0.37799E-04  8320   0.101E-02-0.586E-06
CGA:  48    -0.384858812567E+03   -0.55409E-04   -0.55400E-04  8320   0.166E-02 0.230E-05
CGA:  49    -0.384858883989E+03   -0.71422E-04   -0.71464E-04  8320   0.125E-02 0.389E-05
CGA:  50    -0.384858943749E+03   -0.59760E-04   -0.59780E-04  8320   0.271E-03 0.551E-05
CGA:  51    -0.384858966778E+03   -0.23029E-04   -0.22982E-04  8320   0.378E-03 0.130E-05
CGA:  52    -0.384858990807E+03   -0.24029E-04   -0.24016E-04  8320   0.822E-03 0.112E-05
CGA:  53    -0.384859018075E+03   -0.27269E-04   -0.27314E-04  8320   0.349E-03-0.959E-07
CGA:  54    -0.384859036164E+03   -0.18088E-04   -0.18089E-04  8320   0.188E-03 0.517E-06
CGA:  55    -0.384859045713E+03   -0.95492E-05   -0.95499E-05  8320   0.197E-03 0.558E-06
CGA:  56    -0.384859065026E+03   -0.19314E-04   -0.19252E-04  8320   0.273E-03 0.129E-05
CGA:  57    -0.384859079196E+03   -0.14170E-04   -0.14172E-04  8320   0.145E-03 0.598E-06
CGA:  58    -0.384859082187E+03   -0.29903E-05   -0.30025E-05  8320   0.639E-04 0.384E-06
   8 F= -.38485908E+03 E0= -.38483893E+03  d E =-.196201E+00  mag=    12.3624
       N       E                     dE             d eps       ncg     rms          ort
SDA:   1    -0.345554649196E+03    0.39304E+02    0.00000E+00  8320   0.137E+03 0.000E+00
CGA:   2    -0.354075057806E+03   -0.85204E+01   -0.88999E+01  8320   0.523E+03-0.207E+02
CGA:   3    -0.372501824540E+03   -0.18427E+02   -0.17482E+02  8320   0.201E+03 0.269E+02
CGA:   4    -0.374347313362E+03   -0.18455E+01   -0.32329E+01  8320   0.225E+03-0.111E+03
CGA:   5    -0.376426757369E+03   -0.20794E+01   -0.26214E+01  8320   0.762E+02-0.527E+02
CGA:   6    -0.379180855111E+03   -0.27541E+01   -0.27395E+01  8320   0.632E+02-0.166E+01
CGA:   7    -0.380384640828E+03   -0.12038E+01   -0.12086E+01  8320   0.468E+02-0.120E+01
CGA:   8    -0.382264813267E+03   -0.18802E+01   -0.18892E+01  8320   0.321E+02 0.423E+00
CGA:   9    -0.382829325006E+03   -0.56451E+00   -0.72184E+00  8320   0.227E+02-0.378E+01
CGA:  10    -0.383384453986E+03   -0.55513E+00   -0.58653E+00  8320   0.114E+02-0.226E+00
CGA:  11    -0.383787107234E+03   -0.40265E+00   -0.39711E+00  8320   0.101E+02-0.101E+00
CGA:  12    -0.384097851137E+03   -0.31074E+00   -0.30650E+00  8320   0.935E+01-0.274E-01
CGA:  13    -0.384504806286E+03   -0.40696E+00   -0.40842E+00  8320   0.420E+01 0.680E+00
CGA:  14    -0.384601163326E+03   -0.96357E-01   -0.10056E+00  8320   0.189E+01-0.114E+00
CGA:  15    -0.384674435169E+03   -0.73272E-01   -0.72952E-01  8320   0.147E+01-0.325E-01
CGA:  16    -0.384723905798E+03   -0.49471E-01   -0.49745E-01  8320   0.929E+00 0.728E-02
CGA:  17    -0.384758735572E+03   -0.34830E-01   -0.35129E-01  8320   0.649E+00 0.202E-01
CGA:  18    -0.384779111462E+03   -0.20376E-01   -0.20560E-01  8320   0.380E+00 0.172E-02
CGA:  19    -0.384796355956E+03   -0.17244E-01   -0.17273E-01  8320   0.338E+00-0.520E-02
CGA:  20    -0.384810210375E+03   -0.13854E-01   -0.13859E-01  8320   0.383E+00 0.294E-02
CGA:  21    -0.384828649601E+03   -0.18439E-01   -0.18316E-01  8320   0.242E+00 0.146E-01
CGA:  22    -0.384838413559E+03   -0.97640E-02   -0.97728E-02  8320   0.224E+00 0.978E-03
CGA:  23    -0.384848111662E+03   -0.96981E-02   -0.96986E-02  8320   0.182E+00-0.308E-03
CGA:  24    -0.384857719773E+03   -0.96081E-02   -0.95752E-02  8320   0.193E+00 0.225E-02
CGA:  25    -0.384865229830E+03   -0.75101E-02   -0.75279E-02  8320   0.121E+00 0.162E-02
CGA:  26    -0.384870205809E+03   -0.49760E-02   -0.49769E-02  8320   0.913E-01 0.246E-03
CGA:  27    -0.384874013754E+03   -0.38079E-02   -0.38072E-02  8320   0.642E-01-0.332E-03
CGA:  28    -0.384877480110E+03   -0.34664E-02   -0.34521E-02  8320   0.775E-01 0.884E-03
CGA:  29    -0.384880280413E+03   -0.28003E-02   -0.28025E-02  8320   0.311E-01 0.914E-04
CGA:  30    -0.384881625819E+03   -0.13454E-02   -0.13453E-02  8320   0.255E-01 0.670E-04
CGA:  31    -0.384882770675E+03   -0.11449E-02   -0.11452E-02  8320   0.259E-01-0.810E-04
CGA:  32    -0.384884087227E+03   -0.13166E-02   -0.13143E-02  8320   0.162E-01 0.183E-03
CGA:  33    -0.384884669680E+03   -0.58245E-03   -0.58246E-03  8320   0.112E-01 0.773E-05
CGA:  34    -0.384885230897E+03   -0.56122E-03   -0.56106E-03  8320   0.104E-01 0.150E-04
SDA:  35    -0.384885724316E+03   -0.49342E-03   -0.49346E-03  8320   0.998E-02-0.222E-05
CGA:  36    -0.384885898399E+03   -0.17408E-03   -0.17512E-03  8320   0.305E-02-0.459E-04
CGA:  37    -0.384886137015E+03   -0.23862E-03   -0.23864E-03  8320   0.551E-02-0.126E-05
CGA:  38    -0.384886537705E+03   -0.40069E-03   -0.40147E-03  8320   0.722E-02-0.249E-04
CGA:  39    -0.384886958001E+03   -0.42030E-03   -0.42053E-03  8320   0.351E-02-0.160E-04
CGA:  40    -0.384887143055E+03   -0.18505E-03   -0.18514E-03  8320   0.199E-02-0.929E-05
CGA:  41    -0.384887286953E+03   -0.14390E-03   -0.14396E-03  8320   0.416E-02-0.282E-05
CGA:  42    -0.384887428286E+03   -0.14133E-03   -0.14118E-03  8320   0.284E-02-0.251E-06
CGA:  43    -0.384887605755E+03   -0.17747E-03   -0.17756E-03  8320   0.612E-03-0.486E-05
CGA:  44    -0.384887681127E+03   -0.75372E-04   -0.74764E-04  8320   0.932E-03 0.807E-05
CGA:  45    -0.384887780999E+03   -0.99872E-04   -0.99315E-04  8320   0.116E-02 0.102E-04
CGA:  46    -0.384887803897E+03   -0.22897E-04   -0.22950E-04  8320   0.302E-03 0.396E-05
CGA:  47    -0.384887829305E+03   -0.25408E-04   -0.25356E-04  8320   0.572E-03 0.161E-05
CGA:  48    -0.384887874321E+03   -0.45016E-04   -0.44907E-04  8320   0.625E-03 0.436E-05
CGA:  49    -0.384887900022E+03   -0.25700E-04   -0.25738E-04  8320   0.196E-03 0.207E-05
CGA:  50    -0.384887911627E+03   -0.11606E-04   -0.11598E-04  8320   0.267E-03 0.163E-05
CGA:  51    -0.384887921559E+03   -0.99314E-05   -0.99580E-05  8320   0.269E-03 0.144E-05
CGA:  52    -0.384887939663E+03   -0.18104E-04   -0.18042E-04  8320   0.156E-03 0.467E-05
CGA:  53    -0.384887948391E+03   -0.87279E-05   -0.87263E-05  8320   0.511E-04 0.287E-05
   9 F= -.38488795E+03 E0= -.38486823E+03  d E =-.288662E-01  mag=    12.3394
       N       E                     dE             d eps       ncg     rms          ort
SDA:   1    -0.374023760246E+03    0.10864E+02    0.00000E+00  8320   0.600E+02 0.000E+00
CGA:   2    -0.375881887769E+03   -0.18581E+01   -0.16154E+01  8320   0.580E+02 0.262E+01
CGA:   3    -0.380390604023E+03   -0.45087E+01   -0.46510E+01  8320   0.618E+02-0.605E+01
CGA:   4    -0.382654401090E+03   -0.22638E+01   -0.20910E+01  8320   0.204E+02 0.231E+01
CGA:   5    -0.383171222894E+03   -0.51682E+00   -0.52282E+00  8320   0.123E+02 0.100E-01
CGA:   6    -0.383911748559E+03   -0.74053E+00   -0.73563E+00  8320   0.132E+02 0.465E+00
CGA:   7    -0.384336293379E+03   -0.42454E+00   -0.41521E+00  8320   0.592E+01 0.863E-01
CGA:   8    -0.384569196340E+03   -0.23290E+00   -0.23521E+00  8320   0.583E+01 0.226E-01
CGA:   9    -0.384778964121E+03   -0.20977E+00   -0.20891E+00  8320   0.210E+01 0.908E-02
CGA:  10    -0.384843815096E+03   -0.64851E-01   -0.64248E-01  8320   0.694E+00 0.629E-02
CGA:  11    -0.384883329510E+03   -0.39514E-01   -0.39247E-01  8320   0.124E+01 0.262E-01
CGA:  12    -0.384933296262E+03   -0.49967E-01   -0.50255E-01  8320   0.788E+00 0.439E-02
CGA:  13    -0.384957215157E+03   -0.23919E-01   -0.24790E-01  8320   0.195E+00-0.219E-02
CGA:  14    -0.384965552291E+03   -0.83371E-02   -0.83389E-02  8320   0.198E+00 0.142E-03
CGA:  15    -0.384973864014E+03   -0.83117E-02   -0.83106E-02  8320   0.195E+00-0.673E-04
CGA:  16    -0.384987390562E+03   -0.13527E-01   -0.13485E-01  8320   0.159E+00 0.157E-02
CGA:  17    -0.384992063663E+03   -0.46731E-02   -0.47371E-02  8320   0.694E-01-0.472E-03
CGA:  18    -0.384994947309E+03   -0.28836E-02   -0.28848E-02  8320   0.653E-01 0.567E-04
CGA:  19    -0.384999623777E+03   -0.46765E-02   -0.46711E-02  8320   0.858E-01 0.188E-03
CGA:  20    -0.385003031116E+03   -0.34073E-02   -0.34137E-02  8320   0.592E-01 0.181E-03
CGA:  21    -0.385005789133E+03   -0.27580E-02   -0.27583E-02  8320   0.469E-01 0.666E-04
CGA:  22    -0.385007523338E+03   -0.17342E-02   -0.17336E-02  8320   0.243E-01-0.549E-05
CGA:  23    -0.385008934305E+03   -0.14110E-02   -0.14095E-02  8320   0.295E-01 0.105E-03
CGA:  24    -0.385010300514E+03   -0.13662E-02   -0.13665E-02  8320   0.295E-01 0.676E-04
CGA:  25    -0.385011692875E+03   -0.13924E-02   -0.13924E-02  8320   0.137E-01 0.389E-04
CGA:  26    -0.385012209579E+03   -0.51670E-03   -0.51747E-03  8320   0.839E-02 0.243E-04
CGA:  27    -0.385012527415E+03   -0.31784E-03   -0.31812E-03  8320   0.611E-02 0.158E-04
CGA:  28    -0.385012987323E+03   -0.45991E-03   -0.45913E-03  8320   0.839E-02 0.254E-04
CGA:  29    -0.385013336341E+03   -0.34902E-03   -0.34914E-03  8320   0.555E-02 0.165E-04
CGA:  30    -0.385013525809E+03   -0.18947E-03   -0.18961E-03  8320   0.202E-02 0.788E-05
CGA:  31    -0.385013618951E+03   -0.93141E-04   -0.93155E-04  8320   0.193E-02 0.673E-05
SDA:  32    -0.385013729791E+03   -0.11084E-03   -0.11076E-03  8320   0.230E-02 0.614E-05
CGA:  33    -0.385013778326E+03   -0.48535E-04   -0.48393E-04  8320   0.985E-03 0.472E-05
CGA:  34    -0.385013827881E+03   -0.49554E-04   -0.49567E-04  8320   0.658E-03-0.305E-05
CGA:  35    -0.385013917175E+03   -0.89295E-04   -0.89480E-04  8320   0.117E-02-0.222E-05
CGA:  36    -0.385014013991E+03   -0.96816E-04   -0.96795E-04  8320   0.679E-03 0.339E-06
CGA:  37    -0.385014041728E+03   -0.27737E-04   -0.27721E-04  8320   0.377E-03-0.348E-06
CGA:  38    -0.385014072745E+03   -0.31017E-04   -0.30990E-04  8320   0.699E-03 0.766E-06
CGA:  39    -0.385014125314E+03   -0.52569E-04   -0.52530E-04  8320   0.879E-03 0.178E-05
CGA:  40    -0.385014150578E+03   -0.25264E-04   -0.25283E-04  8320   0.479E-03 0.223E-06
CGA:  41    -0.385014172773E+03   -0.22195E-04   -0.22203E-04  8320   0.167E-03 0.928E-06
CGA:  42    -0.385014190823E+03   -0.18051E-04   -0.18029E-04  8320   0.189E-03 0.286E-06
CGA:  43    -0.385014219086E+03   -0.28263E-04   -0.27962E-04  8320   0.124E-03 0.320E-05
CGA:  44    -0.385014223002E+03   -0.39151E-05   -0.39260E-05  8320   0.110E-03 0.182E-06
  10 F= -.38501422E+03 E0= -.38499516E+03  d E =-.126275E+00  mag=    12.3330
       N       E                     dE             d eps       ncg     rms          ort
SDA:   1    -0.384847410907E+03    0.16681E+00    0.00000E+00  8320   0.841E+00 0.000E+00
CGA:   2    -0.384881487283E+03   -0.34076E-01   -0.33683E-01  8320   0.123E+01-0.794E-03
CGA:   3    -0.384947730986E+03   -0.66244E-01   -0.66301E-01  8320   0.731E+00 0.563E-02
CGA:   4    -0.384978491477E+03   -0.30760E-01   -0.30956E-01  8320   0.456E+00 0.160E-02
CGA:   5    -0.385000074618E+03   -0.21583E-01   -0.21532E-01  8320   0.181E+00-0.134E-02
CGA:   6    -0.385016241660E+03   -0.16167E-01   -0.16151E-01  8320   0.112E+00 0.410E-03
CGA:   7    -0.385022334919E+03   -0.60933E-02   -0.60931E-02  8320   0.113E+00 0.902E-05
CGA:   8    -0.385024970247E+03   -0.26353E-02   -0.26585E-02  8320   0.244E-01-0.630E-03
CGA:   9    -0.385026186239E+03   -0.12160E-02   -0.12161E-02  8320   0.168E-01 0.105E-04
CGA:  10    -0.385027234522E+03   -0.10483E-02   -0.10486E-02  8320   0.167E-01-0.313E-04
CGA:  11    -0.385028012997E+03   -0.77848E-03   -0.77882E-03  8320   0.476E-02 0.103E-04
CGA:  12    -0.385028173593E+03   -0.16060E-03   -0.16058E-03  8320   0.346E-02 0.162E-06
CGA:  13    -0.385028318307E+03   -0.14471E-03   -0.14468E-03  8320   0.330E-02 0.289E-05
CGA:  14    -0.385028570203E+03   -0.25190E-03   -0.25157E-03  8320   0.160E-02 0.135E-04
CGA:  15    -0.385028656918E+03   -0.86715E-04   -0.86715E-04  8320   0.853E-03 0.174E-05
CGA:  16    -0.385028697112E+03   -0.40193E-04   -0.40211E-04  8320   0.104E-02 0.167E-05
CGA:  17    -0.385028747129E+03   -0.50017E-04   -0.50044E-04  8320   0.976E-03 0.357E-05
CGA:  18    -0.385028791684E+03   -0.44556E-04   -0.44580E-04  8320   0.805E-03 0.271E-05
CGA:  19    -0.385028835368E+03   -0.43684E-04   -0.43684E-04  8320   0.223E-03 0.379E-05
CGA:  20    -0.385028862008E+03   -0.26639E-04   -0.26511E-04  8320   0.532E-03 0.196E-05
CGA:  21    -0.385028878881E+03   -0.16874E-04   -0.16912E-04  8320   0.369E-03 0.146E-05
CGA:  22    -0.385028901105E+03   -0.22224E-04   -0.22219E-04  8320   0.206E-03 0.765E-06
CGA:  23    -0.385028908952E+03   -0.78472E-05   -0.78431E-05  8320   0.987E-04-0.196E-06
  11 F= -.38502891E+03 E0= -.38501000E+03  d E =-.146860E-01  mag=    12.3274
       N       E                     dE             d eps       ncg     rms          ort
SDA:   1    -0.381497637960E+03    0.35313E+01    0.00000E+00  8320   0.112E+02 0.000E+00
CGA:   2    -0.382532756446E+03   -0.10351E+01   -0.10313E+01  8320   0.404E+02 0.661E-01
CGA:   3    -0.383901816570E+03   -0.13691E+01   -0.14284E+01  8320   0.101E+02-0.602E+00
CGA:   4    -0.384307932254E+03   -0.40612E+00   -0.39805E+00  8320   0.532E+01 0.514E-01
CGA:   5    -0.384612517391E+03   -0.30459E+00   -0.30573E+00  8320   0.520E+01-0.366E+00
CGA:   6    -0.384903401043E+03   -0.29088E+00   -0.29061E+00  8320   0.154E+01 0.357E-01
CGA:   7    -0.384962109621E+03   -0.58709E-01   -0.59358E-01  8320   0.112E+01 0.216E-02
CGA:   8    -0.384994706668E+03   -0.32597E-01   -0.32702E-01  8320   0.436E+00-0.677E-03
CGA:   9    -0.385020713669E+03   -0.26007E-01   -0.26045E-01  8320   0.467E+00-0.370E-02
CGA:  10    -0.385039883876E+03   -0.19170E-01   -0.19245E-01  8320   0.258E+00 0.116E-02
CGA:  11    -0.385050381996E+03   -0.10498E-01   -0.10548E-01  8320   0.808E-01 0.802E-03
CGA:  12    -0.385052624668E+03   -0.22427E-02   -0.22427E-02  8320   0.513E-01 0.211E-06
CGA:  13    -0.385057142755E+03   -0.45181E-02   -0.45374E-02  8320   0.719E-01-0.481E-03
CGA:  14    -0.385060228320E+03   -0.30856E-02   -0.30972E-02  8320   0.342E-01 0.335E-03
CGA:  15    -0.385061296968E+03   -0.10686E-02   -0.10692E-02  8320   0.174E-01 0.134E-04
CGA:  16    -0.385062119439E+03   -0.82247E-03   -0.82253E-03  8320   0.127E-01 0.115E-04
CGA:  17    -0.385062811686E+03   -0.69225E-03   -0.69226E-03  8320   0.181E-01 0.354E-05
CGA:  18    -0.385064194910E+03   -0.13832E-02   -0.13819E-02  8320   0.119E-01 0.462E-04
CGA:  19    -0.385064503313E+03   -0.30840E-03   -0.30827E-03  8320   0.529E-02 0.143E-04
CGA:  20    -0.385064893054E+03   -0.38974E-03   -0.38940E-03  8320   0.747E-02 0.133E-04
CGA:  21    -0.385065561125E+03   -0.66807E-03   -0.66697E-03  8320   0.118E-01 0.292E-04
CGA:  22    -0.385065867056E+03   -0.30593E-03   -0.30766E-03  8320   0.210E-02-0.335E-04
CGA:  23    -0.385065979392E+03   -0.11234E-03   -0.11233E-03  8320   0.327E-02 0.130E-05
CGA:  24    -0.385066214119E+03   -0.23473E-03   -0.23473E-03  8320   0.282E-02-0.193E-05
CGA:  25    -0.385066330926E+03   -0.11681E-03   -0.11680E-03  8320   0.176E-02-0.687E-06
CGA:  26    -0.385066385788E+03   -0.54861E-04   -0.54864E-04  8320   0.781E-03-0.664E-06
CGA:  27    -0.385066442768E+03   -0.56981E-04   -0.56905E-04  8320   0.691E-03 0.337E-05
CGA:  28    -0.385066477441E+03   -0.34672E-04   -0.34679E-04  8320   0.104E-02 0.151E-05
CGA:  29    -0.385066533362E+03   -0.55922E-04   -0.55921E-04  8320   0.352E-03 0.321E-05
CGA:  30    -0.385066545723E+03   -0.12361E-04   -0.12362E-04  8320   0.250E-03-0.168E-07
CGA:  31    -0.385066564621E+03   -0.18898E-04   -0.18889E-04  8320   0.354E-03 0.299E-06
SDA:  32    -0.385066581784E+03   -0.17163E-04   -0.17159E-04  8320   0.390E-03-0.104E-05
CGA:  33    -0.385066589625E+03   -0.78417E-05   -0.78331E-05  8320   0.118E-03 0.319E-06
  12 F= -.38506659E+03 E0= -.38504808E+03  d E =-.376807E-01  mag=    12.3117
       N       E                     dE             d eps       ncg     rms          ort
SDA:   1    -0.376258681480E+03    0.88079E+01    0.00000E+00  8320   0.313E+02 0.000E+00
CGA:   2    -0.377886223321E+03   -0.16275E+01   -0.16314E+01  8320   0.726E+02-0.252E+01
CGA:   3    -0.381328432639E+03   -0.34422E+01   -0.34427E+01  8320   0.572E+02-0.127E+01
CGA:   4    -0.382640601190E+03   -0.13122E+01   -0.12845E+01  8320   0.191E+02 0.130E+01
CGA:   5    -0.383359033100E+03   -0.71843E+00   -0.70864E+00  8320   0.204E+02-0.108E+00
CGA:   6    -0.384087920295E+03   -0.72889E+00   -0.72983E+00  8320   0.101E+02 0.708E-01
CGA:   7    -0.384574005250E+03   -0.48608E+00   -0.48584E+00  8320   0.426E+01-0.195E+00
CGA:   8    -0.384740397948E+03   -0.16639E+00   -0.16573E+00  8320   0.405E+01-0.149E-01
CGA:   9    -0.384865466939E+03   -0.12507E+00   -0.12446E+00  8320   0.163E+01 0.155E-01
CGA:  10    -0.384916926738E+03   -0.51460E-01   -0.53797E-01  8320   0.101E+01 0.160E-01
CGA:  11    -0.384957912460E+03   -0.40986E-01   -0.41210E-01  8320   0.444E+00 0.131E-01
CGA:  12    -0.384994397520E+03   -0.36485E-01   -0.36544E-01  8320   0.390E+00-0.187E-02
CGA:  13    -0.385008497652E+03   -0.14100E-01   -0.14151E-01  8320   0.220E+00 0.916E-03
CGA:  14    -0.385018037755E+03   -0.95401E-02   -0.95687E-02  8320   0.669E-01 0.302E-02
CGA:  15    -0.385022017515E+03   -0.39798E-02   -0.39743E-02  8320   0.133E+00 0.330E-03
CGA:  16    -0.385028294566E+03   -0.62771E-02   -0.62776E-02  8320   0.615E-01 0.316E-03
CGA:  17    -0.385030476857E+03   -0.21823E-02   -0.21851E-02  8320   0.246E-01 0.419E-04
CGA:  18    -0.385031629737E+03   -0.11529E-02   -0.11530E-02  8320   0.187E-01 0.123E-03
CGA:  19    -0.385033209398E+03   -0.15797E-02   -0.15791E-02  8320   0.180E-01 0.132E-04
CGA:  20    -0.385034214365E+03   -0.10050E-02   -0.10054E-02  8320   0.105E-01-0.407E-04
CGA:  21    -0.385034747503E+03   -0.53314E-03   -0.53304E-03  8320   0.112E-01 0.290E-04
CGA:  22    -0.385035297118E+03   -0.54961E-03   -0.54961E-03  8320   0.844E-02-0.734E-05
CGA:  23    -0.385035608661E+03   -0.31154E-03   -0.31191E-03  8320   0.707E-02 0.279E-05
CGA:  24    -0.385036084466E+03   -0.47581E-03   -0.47600E-03  8320   0.620E-02-0.862E-05
CGA:  25    -0.385036493385E+03   -0.40892E-03   -0.40892E-03  8320   0.296E-02-0.265E-06
CGA:  26    -0.385036620037E+03   -0.12665E-03   -0.12666E-03  8320   0.248E-02 0.893E-06
CGA:  27    -0.385036846226E+03   -0.22619E-03   -0.22587E-03  8320   0.189E-02 0.731E-05
CGA:  28    -0.385037010990E+03   -0.16476E-03   -0.16455E-03  8320   0.170E-02 0.584E-05
CGA:  29    -0.385037064468E+03   -0.53477E-04   -0.53498E-04  8320   0.725E-03 0.351E-05
CGA:  30    -0.385037121911E+03   -0.57444E-04   -0.57322E-04  8320   0.160E-02 0.448E-05
CGA:  31    -0.385037182208E+03   -0.60296E-04   -0.60375E-04  8320   0.802E-03 0.522E-05
SDA:  32    -0.385037228951E+03   -0.46744E-04   -0.46745E-04  8320   0.393E-03-0.125E-07
CGA:  33    -0.385037248708E+03   -0.19756E-04   -0.19749E-04  8320   0.309E-03-0.203E-05
CGA:  34    -0.385037268750E+03   -0.20042E-04   -0.20088E-04  8320   0.386E-03-0.381E-05
CGA:  35    -0.385037287029E+03   -0.18280E-04   -0.18261E-04  8320   0.386E-03-0.323E-05
CGA:  36    -0.385037302847E+03   -0.15818E-04   -0.15786E-04  8320   0.318E-03-0.273E-05
CGA:  37    -0.385037325319E+03   -0.22472E-04   -0.22510E-04  8320   0.111E-03-0.206E-05
CGA:  38    -0.385037344216E+03   -0.18897E-04   -0.18825E-04  8320   0.231E-03 0.544E-06
CGA:  39    -0.385037355983E+03   -0.11766E-04   -0.11765E-04  8320   0.189E-03-0.213E-06
CGA:  40    -0.385037361437E+03   -0.54547E-05   -0.54465E-05  8320   0.942E-04-0.637E-07
  13 F= -.38503736E+03 E0= -.38501914E+03  d E =0.292282E-01  mag=    12.3213
       N       E                     dE             d eps       ncg     rms          ort
SDA:   1    -0.377982831978E+03    0.70545E+01    0.00000E+00  8320   0.247E+02 0.000E+00
CGA:   2    -0.380227045455E+03   -0.22442E+01   -0.22468E+01  8320   0.710E+02-0.555E+00
CGA:   3    -0.382209615077E+03   -0.19826E+01   -0.21429E+01  8320   0.216E+02-0.273E+01
CGA:   4    -0.383129365924E+03   -0.91975E+00   -0.92851E+00  8320   0.183E+02 0.344E+00
CGA:   5    -0.383975943188E+03   -0.84658E+00   -0.81276E+00  8320   0.187E+02-0.382E+00
CGA:   6    -0.384373246851E+03   -0.39730E+00   -0.43517E+00  8320   0.797E+01-0.934E+00
CGA:   7    -0.384652168006E+03   -0.27892E+00   -0.28823E+00  8320   0.478E+01 0.150E-01
CGA:   8    -0.384811942614E+03   -0.15977E+00   -0.14978E+00  8320   0.348E+01 0.102E+00
CGA:   9    -0.384911691085E+03   -0.99748E-01   -0.93990E-01  8320   0.687E+00 0.124E+00
CGA:  10    -0.384940324543E+03   -0.28633E-01   -0.28965E-01  8320   0.951E+00 0.650E-02
CGA:  11    -0.384976045367E+03   -0.35721E-01   -0.36141E-01  8320   0.809E+00 0.479E-02
CGA:  12    -0.385010659405E+03   -0.34614E-01   -0.34590E-01  8320   0.363E+00-0.654E-03
CGA:  13    -0.385019457305E+03   -0.87979E-02   -0.89132E-02  8320   0.158E+00-0.225E-02
CGA:  14    -0.385024365975E+03   -0.49087E-02   -0.49417E-02  8320   0.110E+00-0.600E-04
CGA:  15    -0.385033242060E+03   -0.88761E-02   -0.88426E-02  8320   0.150E+00 0.930E-03
CGA:  16    -0.385037927412E+03   -0.46854E-02   -0.47043E-02  8320   0.872E-01-0.834E-04
CGA:  17    -0.385040398828E+03   -0.24714E-02   -0.24471E-02  8320   0.262E-01 0.305E-03
CGA:  18    -0.385042015922E+03   -0.16171E-02   -0.16209E-02  8320   0.256E-01-0.196E-03
CGA:  19    -0.385042943605E+03   -0.92768E-03   -0.93135E-03  8320   0.265E-01 0.630E-04
CGA:  20    -0.385044296706E+03   -0.13531E-02   -0.13522E-02  8320   0.221E-01 0.181E-03
CGA:  21    -0.385045258755E+03   -0.96205E-03   -0.96226E-03  8320   0.765E-02 0.285E-04
CGA:  22    -0.385045521768E+03   -0.26301E-03   -0.26326E-03  8320   0.568E-02 0.544E-05
CGA:  23    -0.385045778205E+03   -0.25644E-03   -0.25650E-03  8320   0.746E-02 0.175E-04
CGA:  24    -0.385046491328E+03   -0.71312E-03   -0.71275E-03  8320   0.383E-02 0.704E-05
CGA:  25    -0.385046604604E+03   -0.11328E-03   -0.11359E-03  8320   0.216E-02-0.506E-05
CGA:  26    -0.385046700498E+03   -0.95894E-04   -0.95897E-04  8320   0.259E-02-0.188E-05
CGA:  27    -0.385046901298E+03   -0.20080E-03   -0.20166E-03  8320   0.268E-02-0.274E-04
CGA:  28    -0.385047017023E+03   -0.11572E-03   -0.11579E-03  8320   0.122E-02-0.129E-05
CGA:  29    -0.385047055186E+03   -0.38164E-04   -0.38190E-04  8320   0.881E-03-0.462E-06
CGA:  30    -0.385047097365E+03   -0.42179E-04   -0.42180E-04  8320   0.643E-03 0.545E-06
CGA:  31    -0.385047158737E+03   -0.61372E-04   -0.61147E-04  8320   0.978E-03 0.467E-05
SDA:  32    -0.385047197242E+03   -0.38505E-04   -0.38500E-04  8320   0.738E-03 0.102E-05
CGA:  33    -0.385047210784E+03   -0.13543E-04   -0.13559E-04  8320   0.190E-03-0.282E-05
CGA:  34    -0.385047226924E+03   -0.16140E-04   -0.16219E-04  8320   0.314E-03-0.228E-05
CGA:  35    -0.385047255401E+03   -0.28477E-04   -0.28643E-04  8320   0.265E-03-0.414E-05
CGA:  36    -0.385047273046E+03   -0.17645E-04   -0.17653E-04  8320   0.204E-03-0.524E-06
CGA:  37    -0.385047281621E+03   -0.85749E-05   -0.85906E-05  8320   0.194E-03 0.119E-05
CGA:  38    -0.385047293034E+03   -0.11412E-04   -0.11391E-04  8320   0.261E-03 0.359E-05
CGA:  39    -0.385047307389E+03   -0.14356E-04   -0.14352E-04  8320   0.206E-03 0.407E-05
CGA:  40    -0.385047319301E+03   -0.11912E-04   -0.11901E-04  8320   0.638E-04 0.275E-05
CGA:  41    -0.385047326718E+03   -0.74166E-05   -0.75055E-05  8320   0.192E-03-0.150E-05
  14 F= -.38504733E+03 E0= -.38502935E+03  d E =-.996528E-02  mag=    12.3017
       N       E                     dE             d eps       ncg     rms          ort
SDA:   1    -0.384273783693E+03    0.77354E+00    0.00000E+00  8320   0.376E+01 0.000E+00
CGA:   2    -0.384488281527E+03   -0.21450E+00   -0.21519E+00  8320   0.501E+01-0.244E+00
CGA:   3    -0.384720556391E+03   -0.23227E+00   -0.23226E+00  8320   0.264E+01 0.640E-03
CGA:   4    -0.384841005735E+03   -0.12045E+00   -0.12216E+00  8320   0.286E+01 0.586E-01
CGA:   5    -0.384972503245E+03   -0.13150E+00   -0.13115E+00  8320   0.961E+00-0.795E-02
CGA:   6    -0.385015186929E+03   -0.42684E-01   -0.42633E-01  8320   0.875E+00-0.150E-02
CGA:   7    -0.385051176826E+03   -0.35990E-01   -0.35784E-01  8320   0.535E+00-0.285E-02
CGA:   8    -0.385074613017E+03   -0.23436E-01   -0.23523E-01  8320   0.158E+00 0.273E-02
CGA:   9    -0.385079596984E+03   -0.49840E-02   -0.49964E-02  8320   0.656E-01-0.363E-04
CGA:  10    -0.385083312460E+03   -0.37155E-02   -0.37106E-02  8320   0.774E-01 0.603E-03
CGA:  11    -0.385087381103E+03   -0.40686E-02   -0.40686E-02  8320   0.557E-01 0.130E-03
CGA:  12    -0.385088938561E+03   -0.15575E-02   -0.15651E-02  8320   0.129E-01-0.118E-03
CGA:  13    -0.385089760320E+03   -0.82176E-03   -0.82377E-03  8320   0.132E-01-0.111E-03
CGA:  14    -0.385090371727E+03   -0.61141E-03   -0.61175E-03  8320   0.114E-01 0.224E-04
CGA:  15    -0.385090878567E+03   -0.50684E-03   -0.50714E-03  8320   0.582E-02 0.953E-05
CGA:  16    -0.385091114294E+03   -0.23573E-03   -0.23578E-03  8320   0.423E-02-0.296E-05
CGA:  17    -0.385091289290E+03   -0.17500E-03   -0.17492E-03  8320   0.128E-02-0.439E-05
CGA:  18    -0.385091380073E+03   -0.90782E-04   -0.90715E-04  8320   0.246E-02 0.152E-05
CGA:  19    -0.385091494251E+03   -0.11418E-03   -0.11416E-03  8320   0.123E-02-0.277E-05
CGA:  20    -0.385091539176E+03   -0.44926E-04   -0.44955E-04  8320   0.553E-03-0.751E-06
CGA:  21    -0.385091562966E+03   -0.23790E-04   -0.23790E-04  8320   0.452E-03 0.225E-06
CGA:  22    -0.385091600309E+03   -0.37343E-04   -0.37315E-04  8320   0.499E-03 0.537E-06
CGA:  23    -0.385091619828E+03   -0.19519E-04   -0.19526E-04  8320   0.392E-03 0.526E-06
CGA:  24    -0.385091638305E+03   -0.18477E-04   -0.18481E-04  8320   0.171E-03 0.582E-06
CGA:  25    -0.385091645069E+03   -0.67634E-05   -0.67753E-05  8320   0.111E-03 0.856E-06
  15 F= -.38509165E+03 E0= -.38507372E+03  d E =-.443184E-01  mag=    12.3069
       N       E                     dE             d eps       ncg     rms          ort
SDA:   1    -0.384653767432E+03    0.43787E+00    0.00000E+00  8320   0.186E+01 0.000E+00
CGA:   2    -0.384771110644E+03   -0.11734E+00   -0.11817E+00  8320   0.279E+01-0.469E-01
CGA:   3    -0.384898559715E+03   -0.12745E+00   -0.12712E+00  8320   0.177E+01-0.273E-01
CGA:   4    -0.384963575039E+03   -0.65015E-01   -0.66413E-01  8320   0.135E+01 0.155E-01
CGA:   5    -0.385038148234E+03   -0.74573E-01   -0.74510E-01  8320   0.549E+00 0.880E-02
CGA:   6    -0.385064538502E+03   -0.26390E-01   -0.26392E-01  8320   0.273E+00 0.218E-03
CGA:   7    -0.385088990974E+03   -0.24452E-01   -0.24504E-01  8320   0.140E+00-0.125E-02
CGA:   8    -0.385093872246E+03   -0.48813E-02   -0.48991E-02  8320   0.443E-01 0.267E-04
CGA:   9    -0.385096048093E+03   -0.21758E-02   -0.21768E-02  8320   0.343E-01 0.172E-03
CGA:  10    -0.385098567411E+03   -0.25193E-02   -0.25206E-02  8320   0.459E-01-0.455E-04
CGA:  11    -0.385099718414E+03   -0.11510E-02   -0.11401E-02  8320   0.881E-02 0.241E-03
CGA:  12    -0.385100174010E+03   -0.45560E-03   -0.45559E-03  8320   0.495E-02 0.299E-05
CGA:  13    -0.385100718368E+03   -0.54436E-03   -0.54500E-03  8320   0.646E-02-0.109E-04
CGA:  14    -0.385100953835E+03   -0.23547E-03   -0.23516E-03  8320   0.187E-02-0.853E-05
CGA:  15    -0.385101067187E+03   -0.11335E-03   -0.11335E-03  8320   0.109E-02-0.152E-05
CGA:  16    -0.385101131281E+03   -0.64094E-04   -0.64112E-04  8320   0.118E-02-0.285E-05
CGA:  17    -0.385101181368E+03   -0.50087E-04   -0.50070E-04  8320   0.127E-02-0.206E-05
CGA:  18    -0.385101245359E+03   -0.63991E-04   -0.63987E-04  8320   0.323E-03-0.129E-05
CGA:  19    -0.385101264651E+03   -0.19292E-04   -0.19290E-04  8320   0.329E-03 0.882E-07
CGA:  20    -0.385101286302E+03   -0.21651E-04   -0.21651E-04  8320   0.331E-03 0.184E-06
CGA:  21    -0.385101313073E+03   -0.26771E-04   -0.26728E-04  8320   0.251E-03 0.155E-05
CGA:  22    -0.385101326282E+03   -0.13209E-04   -0.13212E-04  8320   0.196E-03 0.132E-05
CGA:  23    -0.385101331556E+03   -0.52742E-05   -0.52875E-05  8320   0.799E-04 0.296E-06
  16 F= -.38510133E+03 E0= -.38508348E+03  d E =-.968649E-02  mag=    12.3097
       N       E                     dE             d eps       ncg     rms          ort
SDA:   1    -0.385018183810E+03    0.83142E-01    0.00000E+00  8320   0.644E+00 0.000E+00
CGA:   2    -0.385035673479E+03   -0.17490E-01   -0.16656E-01  8320   0.275E+00 0.184E-01
CGA:   3    -0.385055977782E+03   -0.20304E-01   -0.20035E-01  8320   0.577E+00 0.123E-01
CGA:   4    -0.385087384655E+03   -0.31407E-01   -0.31391E-01  8320   0.187E+00-0.181E-02
CGA:   5    -0.385093815598E+03   -0.64309E-02   -0.63640E-02  8320   0.577E-01 0.430E-03
CGA:   6    -0.385099465500E+03   -0.56499E-02   -0.56375E-02  8320   0.749E-01 0.271E-03
CGA:   7    -0.385101754245E+03   -0.22887E-02   -0.22747E-02  8320   0.410E-01 0.204E-03
CGA:   8    -0.385103203272E+03   -0.14490E-02   -0.14485E-02  8320   0.724E-02 0.157E-05
CGA:   9    -0.385103723608E+03   -0.52034E-03   -0.52028E-03  8320   0.510E-02 0.246E-05
CGA:  10    -0.385104025301E+03   -0.30169E-03   -0.30168E-03  8320   0.568E-02 0.190E-05
CGA:  11    -0.385104254228E+03   -0.22893E-03   -0.22889E-03  8320   0.282E-02-0.299E-05
CGA:  12    -0.385104332866E+03   -0.78638E-04   -0.78508E-04  8320   0.968E-03 0.127E-05
CGA:  13    -0.385104382543E+03   -0.49677E-04   -0.49677E-04  8320   0.629E-03-0.950E-06
CGA:  14    -0.385104449798E+03   -0.67255E-04   -0.67430E-04  8320   0.551E-03-0.327E-05
CGA:  15    -0.385104476955E+03   -0.27157E-04   -0.27153E-04  8320   0.313E-03-0.264E-06
CGA:  16    -0.385104486670E+03   -0.97150E-05   -0.97199E-05  8320   0.217E-03 0.142E-07
CGA:  17    -0.385104499578E+03   -0.12908E-04   -0.12904E-04  8320   0.165E-03 0.844E-06
CGA:  18    -0.385104519950E+03   -0.20372E-04   -0.20300E-04  8320   0.206E-03 0.106E-05
CGA:  19    -0.385104529260E+03   -0.93102E-05   -0.93196E-05  8320   0.996E-04 0.673E-06
  17 F= -.38510453E+03 E0= -.38508674E+03  d E =-.319770E-02  mag=    12.3096
[...]
CGA:   3    -0.385161368045E+03   -0.51148E+00   -0.51155E+00  8320   0.239E+01-0.880E-02
CGA:   4    -0.385299186957E+03   -0.13782E+00   -0.13679E+00  8320   0.110E+01-0.464E-01
CGA:   5    -0.385353717829E+03   -0.54531E-01   -0.54588E-01  8320   0.744E+00 0.160E-02
CGA:   6    -0.385403437590E+03   -0.49720E-01   -0.49738E-01  8320   0.467E+00-0.332E-02
CGA:   7    -0.385421280331E+03   -0.17843E-01   -0.18014E-01  8320   0.125E+00-0.103E-02
CGA:   8    -0.385427924175E+03   -0.66438E-02   -0.66474E-02  8320   0.603E-01 0.145E-03
CGA:   9    -0.385431298878E+03   -0.33747E-02   -0.33745E-02  8320   0.585E-01 0.159E-06
CGA:  10    -0.385435008225E+03   -0.37093E-02   -0.37091E-02  8320   0.201E-01 0.778E-04
CGA:  11    -0.385436153611E+03   -0.11454E-02   -0.11453E-02  8320   0.696E-02-0.694E-05
CGA:  12    -0.385436599719E+03   -0.44611E-03   -0.44604E-03  8320   0.754E-02 0.141E-04
CGA:  13    -0.385437071439E+03   -0.47172E-03   -0.47173E-03  8320   0.520E-02-0.102E-04
CGA:  14    -0.385437314388E+03   -0.24295E-03   -0.24320E-03  8320   0.197E-02 0.292E-06
CGA:  15    -0.385437421686E+03   -0.10730E-03   -0.10736E-03  8320   0.970E-03 0.442E-05
CGA:  16    -0.385437489997E+03   -0.68311E-04   -0.68293E-04  8320   0.120E-02 0.164E-05
CGA:  17    -0.385437581214E+03   -0.91217E-04   -0.91131E-04  8320   0.101E-02 0.494E-05
CGA:  18    -0.385437633360E+03   -0.52146E-04   -0.52178E-04  8320   0.406E-03 0.220E-05
CGA:  19    -0.385437667894E+03   -0.34534E-04   -0.34473E-04  8320   0.405E-03 0.230E-05
CGA:  20    -0.385437692624E+03   -0.24730E-04   -0.24731E-04  8320   0.542E-03 0.349E-06
CGA:  21    -0.385437736605E+03   -0.43981E-04   -0.43963E-04  8320   0.187E-03 0.883E-06
CGA:  22    -0.385437747084E+03   -0.10479E-04   -0.10479E-04  8320   0.151E-03-0.128E-06
CGA:  23    -0.385437759348E+03   -0.12265E-04   -0.12263E-04  8320   0.181E-03 0.206E-07
CGA:  24    -0.385437771240E+03   -0.11892E-04   -0.11891E-04  8320   0.114E-03-0.387E-07
CGA:  25    -0.385437776386E+03   -0.51465E-05   -0.51526E-05  8320   0.471E-04 0.261E-06
 104 F= -.38543778E+03 E0= -.38542229E+03  d E =-.864620E-02  mag=    12.0241
       N       E                     dE             d eps       ncg     rms          ort
SDA:   1    -0.384370792276E+03    0.10670E+01    0.00000E+00  8320   0.385E+01 0.000E+00
CGA:   2    -0.384664618475E+03   -0.29383E+00   -0.29441E+00  8320   0.849E+01-0.344E-01
CGA:   3    -0.385139757850E+03   -0.47514E+00   -0.47566E+00  8320   0.121E+01 0.193E-01
CGA:   4    -0.385247428314E+03   -0.10767E+00   -0.10711E+00  8320   0.160E+01 0.186E-01
CGA:   5    -0.385359083202E+03   -0.11165E+00   -0.11168E+00  8320   0.708E+00-0.775E-02
CGA:   6    -0.385387736898E+03   -0.28654E-01   -0.28310E-01  8320   0.260E+00 0.241E-02
CGA:   7    -0.385397331320E+03   -0.95944E-02   -0.97458E-02  8320   0.112E+00-0.112E-02
CGA:   8    -0.385407802224E+03   -0.10471E-01   -0.10445E-01  8320   0.899E-01 0.725E-03
CGA:   9    -0.385411382332E+03   -0.35801E-02   -0.35293E-02  8320   0.392E-01 0.371E-03
CGA:  10    -0.385413566692E+03   -0.21844E-02   -0.21830E-02  8320   0.131E-01-0.495E-04
CGA:  11    -0.385414828331E+03   -0.12616E-02   -0.12662E-02  8320   0.180E-01-0.118E-03
CGA:  12    -0.385415559936E+03   -0.73161E-03   -0.73256E-03  8320   0.843E-02-0.806E-05
CGA:  13    -0.385416018383E+03   -0.45845E-03   -0.45886E-03  8320   0.441E-02 0.145E-04
CGA:  14    -0.385416279777E+03   -0.26139E-03   -0.26146E-03  8320   0.296E-02 0.617E-05
CGA:  15    -0.385416655823E+03   -0.37605E-03   -0.37539E-03  8320   0.483E-02 0.105E-04
CGA:  16    -0.385416856745E+03   -0.20092E-03   -0.20035E-03  8320   0.230E-02 0.494E-05
CGA:  17    -0.385417029276E+03   -0.17253E-03   -0.17245E-03  8320   0.182E-02 0.684E-05
CGA:  18    -0.385417182281E+03   -0.15300E-03   -0.15287E-03  8320   0.376E-02 0.603E-05
CGA:  19    -0.385417409722E+03   -0.22744E-03   -0.22747E-03  8320   0.108E-02 0.233E-05
CGA:  20    -0.385417487157E+03   -0.77435E-04   -0.77428E-04  8320   0.101E-02 0.108E-05
CGA:  21    -0.385417574601E+03   -0.87445E-04   -0.87435E-04  8320   0.111E-02 0.584E-06
CGA:  22    -0.385417631324E+03   -0.56723E-04   -0.56733E-04  8320   0.643E-03 0.679E-06
CGA:  23    -0.385417659602E+03   -0.28278E-04   -0.28310E-04  8320   0.268E-03 0.121E-05
CGA:  24    -0.385417682417E+03   -0.22815E-04   -0.22810E-04  8320   0.304E-03 0.223E-06
CGA:  25    -0.385417699864E+03   -0.17447E-04   -0.17458E-04  8320   0.272E-03 0.922E-06
CGA:  26    -0.385417716510E+03   -0.16645E-04   -0.16650E-04  8320   0.734E-04 0.900E-06
CGA:  27    -0.385417723425E+03   -0.69153E-05   -0.69087E-05  8320   0.103E-03 0.223E-06
 105 F= -.38541772E+03 E0= -.38540230E+03  d E =0.200530E-01  mag=    12.0276
       N       E                     dE             d eps       ncg     rms          ort
SDA:   1    -0.379173710080E+03    0.62440E+01    0.00000E+00  8320   0.192E+02 0.000E+00
CGA:   2    -0.382435153597E+03   -0.32614E+01   -0.33410E+01  8320   0.531E+02-0.972E+00
CGA:   3    -0.383751626457E+03   -0.13165E+01   -0.13764E+01  8320   0.738E+01-0.288E+00
CGA:   4    -0.384435041627E+03   -0.68342E+00   -0.68786E+00  8320   0.102E+02-0.159E+00
CGA:   5    -0.385014146624E+03   -0.57910E+00   -0.57592E+00  8320   0.503E+01-0.612E-01
CGA:   6    -0.385184280135E+03   -0.17013E+00   -0.16430E+00  8320   0.152E+01 0.137E+00
CGA:   7    -0.385250488043E+03   -0.66208E-01   -0.66532E-01  8320   0.652E+00-0.142E-02
CGA:   8    -0.385312918213E+03   -0.62430E-01   -0.62212E-01  8320   0.575E+00 0.612E-02
CGA:   9    -0.385335921237E+03   -0.23003E-01   -0.22537E-01  8320   0.289E+00 0.457E-02
CGA:  10    -0.385348726490E+03   -0.12805E-01   -0.12820E-01  8320   0.906E-01 0.890E-04
CGA:  11    -0.385355386191E+03   -0.66597E-02   -0.66548E-02  8320   0.118E+00 0.401E-03
CGA:  12    -0.385361341974E+03   -0.59558E-02   -0.59296E-02  8320   0.654E-01-0.278E-03
CGA:  13    -0.385364948484E+03   -0.36065E-02   -0.36132E-02  8320   0.200E-01 0.202E-03
CGA:  14    -0.385366207322E+03   -0.12588E-02   -0.12590E-02  8320   0.238E-01 0.378E-04
CGA:  15    -0.385367877660E+03   -0.16703E-02   -0.16702E-02  8320   0.324E-01 0.200E-04
CGA:  16    -0.385369855684E+03   -0.19780E-02   -0.19786E-02  8320   0.834E-02 0.647E-04
CGA:  17    -0.385370679130E+03   -0.82345E-03   -0.82062E-03  8320   0.149E-01 0.730E-04
CGA:  18    -0.385371777358E+03   -0.10982E-02   -0.10972E-02  8320   0.181E-01 0.994E-04
CGA:  19    -0.385372740699E+03   -0.96334E-03   -0.96401E-03  8320   0.101E-01 0.131E-04
CGA:  20    -0.385373331910E+03   -0.59121E-03   -0.58992E-03  8320   0.534E-02-0.531E-04
CGA:  21    -0.385373796993E+03   -0.46508E-03   -0.46509E-03  8320   0.712E-02 0.103E-05
CGA:  22    -0.385374210144E+03   -0.41315E-03   -0.41283E-03  8320   0.612E-02-0.883E-05
CGA:  23    -0.385374567044E+03   -0.35690E-03   -0.35710E-03  8320   0.138E-02 0.138E-04
CGA:  24    -0.385374666371E+03   -0.99327E-04   -0.99326E-04  8320   0.254E-02 0.505E-07
CGA:  25    -0.385374843905E+03   -0.17753E-03   -0.17754E-03  8320   0.164E-02-0.865E-06
CGA:  26    -0.385374954740E+03   -0.11083E-03   -0.11083E-03  8320   0.480E-03 0.270E-05
CGA:  27    -0.385374989850E+03   -0.35110E-04   -0.35109E-04  8320   0.710E-03 0.430E-06
CGA:  28    -0.385375040836E+03   -0.50986E-04   -0.50978E-04  8320   0.704E-03 0.185E-05
CGA:  29    -0.385375079496E+03   -0.38660E-04   -0.38651E-04  8320   0.324E-03-0.153E-06
CGA:  30    -0.385375098646E+03   -0.19150E-04   -0.19145E-04  8320   0.189E-03-0.552E-06
CGA:  31    -0.385375108757E+03   -0.10111E-04   -0.10104E-04  8320   0.188E-03-0.575E-06
SDA:  32    -0.385375129964E+03   -0.21207E-04   -0.21286E-04  8320   0.181E-03-0.163E-05
CGA:  33    -0.385375135908E+03   -0.59439E-05   -0.59366E-05  8320   0.413E-04-0.199E-06
 106 F= -.38537514E+03 E0= -.38535981E+03  d E =0.425875E-01  mag=    12.0309
       N       E                     dE             d eps       ncg     rms          ort
SDA:   1    -0.380309969607E+03    0.50652E+01    0.00000E+00  8320   0.133E+02 0.000E+00
CGA:   2    -0.383421873742E+03   -0.31119E+01   -0.32276E+01  8320   0.397E+02-0.804E+00
CGA:   3    -0.384229088335E+03   -0.80721E+00   -0.10190E+01  8320   0.633E+01-0.432E+01
CGA:   4    -0.384819712837E+03   -0.59062E+00   -0.59650E+00  8320   0.737E+01-0.144E+00
CGA:   5    -0.385150976776E+03   -0.33126E+00   -0.34001E+00  8320   0.207E+01-0.440E-01
CGA:   6    -0.385230672766E+03   -0.79696E-01   -0.75859E-01  8320   0.644E+00 0.611E-01
CGA:   7    -0.385285984353E+03   -0.55312E-01   -0.55118E-01  8320   0.723E+00 0.109E-01
CGA:   8    -0.385322525830E+03   -0.36541E-01   -0.36489E-01  8320   0.312E+00 0.916E-04
CGA:   9    -0.385334106042E+03   -0.11580E-01   -0.11316E-01  8320   0.881E-01 0.398E-02
CGA:  10    -0.385342787122E+03   -0.86811E-02   -0.86798E-02  8320   0.113E+00 0.296E-04
CGA:  11    -0.385348042449E+03   -0.52553E-02   -0.52109E-02  8320   0.523E-01 0.751E-04
CGA:  12    -0.385350756039E+03   -0.27136E-02   -0.27262E-02  8320   0.160E-01 0.118E-03
CGA:  13    -0.385351768611E+03   -0.10126E-02   -0.10140E-02  8320   0.202E-01 0.989E-04
CGA:  14    -0.385353017792E+03   -0.12492E-02   -0.12499E-02  8320   0.122E-01 0.413E-04
CGA:  15    -0.385353862716E+03   -0.84492E-03   -0.84487E-03  8320   0.882E-02 0.297E-04
CGA:  16    -0.385354234015E+03   -0.37130E-03   -0.36937E-03  8320   0.394E-02 0.138E-04
CGA:  17    -0.385354780042E+03   -0.54603E-03   -0.54443E-03  8320   0.956E-02 0.234E-04
CGA:  18    -0.385355359085E+03   -0.57904E-03   -0.57907E-03  8320   0.364E-02 0.872E-05
CGA:  19    -0.385355563797E+03   -0.20471E-03   -0.20496E-03  8320   0.332E-02 0.783E-05
CGA:  20    -0.385355843626E+03   -0.27983E-03   -0.27978E-03  8320   0.448E-02 0.221E-05
CGA:  21    -0.385356164216E+03   -0.32059E-03   -0.32058E-03  8320   0.283E-02 0.352E-05
CGA:  22    -0.385356276694E+03   -0.11248E-03   -0.11264E-03  8320   0.132E-02-0.130E-05
CGA:  23    -0.385356394125E+03   -0.11743E-03   -0.11739E-03  8320   0.149E-02 0.213E-05
CGA:  24    -0.385356508617E+03   -0.11449E-03   -0.11444E-03  8320   0.134E-02 0.537E-05
CGA:  25    -0.385356574918E+03   -0.66302E-04   -0.66264E-04  8320   0.553E-03 0.806E-06
CGA:  26    -0.385356607884E+03   -0.32966E-04   -0.32974E-04  8320   0.397E-03 0.638E-06
CGA:  27    -0.385356652377E+03   -0.44493E-04   -0.44478E-04  8320   0.726E-03 0.421E-06
CGA:  28    -0.385356684713E+03   -0.32336E-04   -0.32381E-04  8320   0.234E-03 0.129E-05
CGA:  29    -0.385356698023E+03   -0.13310E-04   -0.13309E-04  8320   0.155E-03-0.159E-06
CGA:  30    -0.385356710300E+03   -0.12277E-04   -0.12283E-04  8320   0.265E-03-0.606E-06
CGA:  31    -0.385356731260E+03   -0.20960E-04   -0.20980E-04  8320   0.754E-04-0.193E-05
SDA:  32    -0.385356735532E+03   -0.42724E-05   -0.42645E-05  8320   0.741E-04-0.558E-06
 107 F= -.38535674E+03 E0= -.38534136E+03  d E =0.184004E-01  mag=    12.0340
       N       E                     dE             d eps       ncg     rms          ort
SDA:   1    -0.384358770604E+03    0.99796E+00    0.00000E+00  8320   0.353E+01 0.000E+00
CGA:   2    -0.384817235906E+03   -0.45847E+00   -0.45801E+00  8320   0.822E+01 0.507E-02
CGA:   3    -0.385098262202E+03   -0.28103E+00   -0.28190E+00  8320   0.139E+01 0.450E-02
CGA:   4    -0.385194890918E+03   -0.96629E-01   -0.96629E-01  8320   0.143E+01-0.774E-05
CGA:   5    -0.385324903536E+03   -0.13001E+00   -0.13025E+00  8320   0.498E+00-0.773E-02
CGA:   6    -0.385350947829E+03   -0.26044E-01   -0.25732E-01  8320   0.203E+00-0.268E-02
CGA:   7    -0.385360985840E+03   -0.10038E-01   -0.10135E-01  8320   0.127E+00 0.696E-03
CGA:   8    -0.385368611745E+03   -0.76259E-02   -0.76270E-02  8320   0.915E-01 0.576E-04
CGA:   9    -0.385373759415E+03   -0.51477E-02   -0.51624E-02  8320   0.222E-01 0.406E-03
CGA:  10    -0.385375175448E+03   -0.14160E-02   -0.14157E-02  8320   0.181E-01-0.480E-04
CGA:  11    -0.385376050004E+03   -0.87456E-03   -0.87303E-03  8320   0.151E-01-0.158E-04
CGA:  12    -0.385377287600E+03   -0.12376E-02   -0.12367E-02  8320   0.303E-02 0.358E-04
CGA:  13    -0.385377584782E+03   -0.29718E-03   -0.29725E-03  8320   0.508E-02-0.191E-05
CGA:  14    -0.385377911162E+03   -0.32638E-03   -0.32646E-03  8320   0.459E-02 0.878E-05
CGA:  15    -0.385378193341E+03   -0.28218E-03   -0.28214E-03  8320   0.206E-02-0.346E-05
CGA:  16    -0.385378356987E+03   -0.16365E-03   -0.16367E-03  8320   0.217E-02-0.143E-05
CGA:  17    -0.385378573479E+03   -0.21649E-03   -0.21653E-03  8320   0.258E-02-0.127E-05
CGA:  18    -0.385378742555E+03   -0.16908E-03   -0.16910E-03  8320   0.248E-02 0.384E-05
CGA:  19    -0.385378844146E+03   -0.10159E-03   -0.10178E-03  8320   0.743E-03-0.233E-06
CGA:  20    -0.385378939528E+03   -0.95382E-04   -0.95237E-04  8320   0.133E-02 0.239E-05
CGA:  21    -0.385379018273E+03   -0.78745E-04   -0.78769E-04  8320   0.595E-03 0.191E-05
CGA:  22    -0.385379042263E+03   -0.23990E-04   -0.23991E-04  8320   0.283E-03 0.968E-06
CGA:  23    -0.385379070297E+03   -0.28034E-04   -0.28012E-04  8320   0.262E-03 0.678E-06
CGA:  24    -0.385379098779E+03   -0.28482E-04   -0.28460E-04  8320   0.169E-03 0.599E-06
CGA:  25    -0.385379104786E+03   -0.60071E-05   -0.59989E-05  8320   0.891E-04-0.241E-06
 108 F= -.38537910E+03 E0= -.38536373E+03  d E =-.223693E-01  mag=    12.0325
       N       E                     dE             d eps       ncg     rms          ort
SDA:   1    -0.383579193963E+03    0.17999E+01    0.00000E+00  8320   0.672E+01 0.000E+00
CGA:   2    -0.384097703987E+03   -0.51851E+00   -0.51967E+00  8320   0.148E+02-0.128E+00
CGA:   3    -0.384912402613E+03   -0.81470E+00   -0.81131E+00  8320   0.224E+01-0.135E-01
CGA:   4    -0.385107734881E+03   -0.19533E+00   -0.19549E+00  8320   0.281E+01-0.720E-02
CGA:   5    -0.385267094023E+03   -0.15936E+00   -0.16224E+00  8320   0.203E+01 0.540E-01
CGA:   6    -0.385349088872E+03   -0.81995E-01   -0.80943E-01  8320   0.412E+00 0.111E-01
CGA:   7    -0.385368462830E+03   -0.19374E-01   -0.19181E-01  8320   0.226E+00 0.292E-03
CGA:   8    -0.385381246016E+03   -0.12783E-01   -0.12824E-01  8320   0.222E+00 0.958E-03
CGA:   9    -0.385393924997E+03   -0.12679E-01   -0.12655E-01  8320   0.633E-01-0.646E-03
CGA:  10    -0.385397316707E+03   -0.33917E-02   -0.34017E-02  8320   0.296E-01 0.185E-03
CGA:  11    -0.385399102995E+03   -0.17863E-02   -0.17854E-02  8320   0.285E-01-0.442E-04
CGA:  12    -0.385400800679E+03   -0.16977E-02   -0.16992E-02  8320   0.235E-01 0.926E-04
CGA:  13    -0.385401894360E+03   -0.10937E-02   -0.10937E-02  8320   0.616E-02-0.617E-06
CGA:  14    -0.385402296275E+03   -0.40191E-03   -0.40191E-03  8320   0.653E-02-0.555E-05
CGA:  15    -0.385402763993E+03   -0.46772E-03   -0.46724E-03  8320   0.814E-02 0.436E-04
CGA:  16    -0.385403364085E+03   -0.60009E-03   -0.60003E-03  8320   0.278E-02 0.455E-05
CGA:  17    -0.385403583991E+03   -0.21991E-03   -0.21978E-03  8320   0.461E-02 0.691E-05
CGA:  18    -0.385403866012E+03   -0.28202E-03   -0.28208E-03  8320   0.443E-02 0.363E-05
CGA:  19    -0.385404244587E+03   -0.37858E-03   -0.37847E-03  8320   0.239E-02 0.315E-05
CGA:  20    -0.385404371946E+03   -0.12736E-03   -0.12755E-03  8320   0.180E-02 0.358E-05
CGA:  21    -0.385404491519E+03   -0.11957E-03   -0.11957E-03  8320   0.188E-02-0.348E-06
CGA:  22    -0.385404649182E+03   -0.15766E-03   -0.15752E-03  8320   0.909E-03 0.705E-05
CGA:  23    -0.385404697747E+03   -0.48565E-04   -0.48552E-04  8320   0.614E-03-0.208E-06
CGA:  24    -0.385404728817E+03   -0.31070E-04   -0.31075E-04  8320   0.506E-03 0.330E-06
CGA:  25    -0.385404774198E+03   -0.45380E-04   -0.45386E-04  8320   0.391E-03-0.346E-06
CGA:  26    -0.385404798374E+03   -0.24177E-04   -0.24176E-04  8320   0.262E-03 0.192E-06
CGA:  27    -0.385404810170E+03   -0.11795E-04   -0.11799E-04  8320   0.126E-03-0.151E-06
CGA:  28    -0.385404823098E+03   -0.12928E-04   -0.12969E-04  8320   0.210E-03-0.113E-05
CGA:  29    -0.385404837494E+03   -0.14396E-04   -0.14396E-04  8320   0.950E-04-0.354E-06
CGA:  30    -0.385404841676E+03   -0.41824E-05   -0.41804E-05  8320   0.582E-04-0.115E-06
 109 F= -.38540484E+03 E0= -.38538939E+03  d E =-.257369E-01  mag=    12.0299
       N       E                     dE             d eps       ncg     rms          ort
SDA:   1    -0.385246045321E+03    0.15879E+00    0.00000E+00  8320   0.639E+00 0.000E+00
CGA:   2    -0.385277363709E+03   -0.31318E-01   -0.31305E-01  8320   0.838E+00-0.379E-04
CGA:   3    -0.385357017913E+03   -0.79654E-01   -0.79629E-01  8320   0.500E+00 0.626E-03
CGA:   4    -0.385381732803E+03   -0.24715E-01   -0.24693E-01  8320   0.142E+00-0.149E-03
CGA:   5    -0.385394375653E+03   -0.12643E-01   -0.12654E-01  8320   0.136E+00-0.364E-03
CGA:   6    -0.385403572334E+03   -0.91967E-02   -0.91965E-02  8320   0.250E-01 0.111E-03
CGA:   7    -0.385404807324E+03   -0.12350E-02   -0.12379E-02  8320   0.148E-01 0.242E-04
CGA:   8    -0.385405923034E+03   -0.11157E-02   -0.11161E-02  8320   0.179E-01-0.253E-04
CGA:   9    -0.385406678111E+03   -0.75508E-03   -0.75830E-03  8320   0.332E-02-0.917E-05
CGA:  10    -0.385406880198E+03   -0.20209E-03   -0.20212E-03  8320   0.178E-02 0.369E-05
CGA:  11    -0.385407012869E+03   -0.13267E-03   -0.13269E-03  8320   0.281E-02-0.152E-05
CGA:  12    -0.385407151832E+03   -0.13896E-03   -0.13901E-03  8320   0.549E-03 0.113E-05
CGA:  13    -0.385407191925E+03   -0.40093E-04   -0.40101E-04  8320   0.285E-03-0.905E-06
CGA:  14    -0.385407231749E+03   -0.39824E-04   -0.39849E-04  8320   0.451E-03-0.389E-06
CGA:  15    -0.385407254724E+03   -0.22975E-04   -0.22957E-04  8320   0.164E-03-0.116E-05
CGA:  16    -0.385407263337E+03   -0.86128E-05   -0.86120E-05  8320   0.179E-03-0.981E-07
CGA:  17    -0.385407278949E+03   -0.15613E-04   -0.15625E-04  8320   0.189E-03-0.656E-06
CGA:  18    -0.385407294453E+03   -0.15504E-04   -0.15508E-04  8320   0.915E-04-0.335E-06
CGA:  19    -0.385407301534E+03   -0.70806E-05   -0.70770E-05  8320   0.619E-04 0.420E-06
 110 F= -.38540730E+03 E0= -.38539178E+03  d E =-.245986E-02  mag=    12.0300
       N       E                     dE             d eps       ncg     rms          ort
SDA:   1    -0.385281935586E+03    0.12536E+00    0.00000E+00  8320   0.519E+00 0.000E+00
CGA:   2    -0.385307804108E+03   -0.25869E-01   -0.25243E-01  8320   0.645E+00-0.150E-02
CGA:   3    -0.385368012137E+03   -0.60208E-01   -0.60021E-01  8320   0.210E+00 0.575E-02
CGA:   4    -0.385382224266E+03   -0.14212E-01   -0.14214E-01  8320   0.118E+00 0.296E-03
CGA:   5    -0.385392980489E+03   -0.10756E-01   -0.10831E-01  8320   0.154E+00-0.257E-02
CGA:   6    -0.385398142688E+03   -0.51622E-02   -0.52290E-02  8320   0.317E-01-0.980E-03
CGA:   7    -0.385399980187E+03   -0.18375E-02   -0.18431E-02  8320   0.102E-01 0.168E-03
CGA:   8    -0.385400742873E+03   -0.76269E-03   -0.76268E-03  8320   0.934E-02 0.258E-05
CGA:   9    -0.385401298188E+03   -0.55531E-03   -0.55561E-03  8320   0.653E-02 0.130E-04
CGA:  10    -0.385401546523E+03   -0.24833E-03   -0.24707E-03  8320   0.146E-02 0.156E-04
CGA:  11    -0.385401668732E+03   -0.12221E-03   -0.12222E-03  8320   0.109E-02-0.399E-06
CGA:  12    -0.385401752497E+03   -0.83765E-04   -0.83750E-04  8320   0.113E-02 0.127E-05
CGA:  13    -0.385401808132E+03   -0.55635E-04   -0.55602E-04  8320   0.471E-03-0.608E-07
CGA:  14    -0.385401827497E+03   -0.19365E-04   -0.19387E-04  8320   0.214E-03 0.350E-06
CGA:  15    -0.385401855691E+03   -0.28194E-04   -0.28113E-04  8320   0.319E-03 0.115E-05
CGA:  16    -0.385401879725E+03   -0.24034E-04   -0.24030E-04  8320   0.216E-03 0.742E-06
CGA:  17    -0.385401887475E+03   -0.77506E-05   -0.77556E-05  8320   0.110E-03 0.536E-07
CGA:  18    -0.385401910128E+03   -0.22652E-04   -0.22541E-04  8320   0.153E-03 0.766E-06
CGA:  19    -0.385401919622E+03   -0.94939E-05   -0.94970E-05  8320   0.848E-04 0.291E-06
 111 F= -.38540192E+03 E0= -.38538643E+03  d E =0.538191E-02  mag=    12.0308
