       N       E                     dE             d eps       ncg     rms          ort
DAV:   1     0.603314437193E+04    0.60331E+04   -0.27047E+05  8112   0.166E+03
DAV:   2     0.352861615222E+03   -0.56803E+04   -0.51920E+04  8112   0.463E+02
DAV:   3    -0.361529392050E+03   -0.71439E+03   -0.69973E+03  8112   0.183E+02
DAV:   4    -0.383537886418E+03   -0.22008E+02   -0.21863E+02  8112   0.334E+01
DAV:   5    -0.383870049831E+03   -0.33216E+00   -0.32919E+00  8112   0.399E+00
SDA:   6    -0.114017507870E+03    0.26985E+03   -0.32919E+00  8112   0.129E+04 0.000E+00
CGA:   7    -0.239854433967E+03   -0.12584E+03   -0.14146E+03  8112   0.998E+03-0.539E+02
CGA:   8    -0.270477985438E+03   -0.30624E+02   -0.25616E+02  8112   0.154E+03 0.160E+03
CGA:   9    -0.283860886770E+03   -0.13383E+02   -0.18911E+02  8112   0.172E+03-0.564E+01
CGA:  10    -0.292285086274E+03   -0.84242E+01   -0.84558E+01  8112   0.235E+03-0.106E+03
CGA:  11    -0.290151069573E+03    0.21340E+01   -0.16274E+02  8112   0.232E+03-0.463E+02
CGA:  12    -0.299475121933E+03   -0.93241E+01   -0.53938E+01  8112   0.187E+03 0.443E+02
CGA:  13    -0.296030757351E+03    0.34444E+01   -0.14136E+02  8112   0.177E+03-0.646E+02
CGA:  14    -0.305216229859E+03   -0.91855E+01   -0.40496E+01  8112   0.807E+02 0.125E+03
CGA:  15    -0.305748375651E+03   -0.53215E+00   -0.43025E+01  8112   0.141E+03-0.967E+02
CGA:  16    -0.305254337503E+03    0.49404E+00   -0.67358E+01  8112   0.143E+03-0.115E+03
CGA:  17    -0.306626588956E+03   -0.13723E+01   -0.59738E+01  8112   0.134E+03-0.142E+03
CGA:  18    -0.307010426470E+03   -0.38384E+00   -0.58670E+01  8112   0.127E+03-0.116E+03
CGA:  19    -0.308368613760E+03   -0.13582E+01   -0.50613E+01  8112   0.101E+03-0.113E+03
CGA:  20    -0.309101192135E+03   -0.73258E+00   -0.41877E+01  8112   0.768E+02-0.753E+02
CGA:  21    -0.310176029301E+03   -0.10748E+01   -0.29937E+01  8112   0.571E+02-0.668E+02
CGA:  22    -0.310941767703E+03   -0.76574E+00   -0.21169E+01  8112   0.240E+02-0.276E+02
CGA:  23    -0.311804677919E+03   -0.86291E+00   -0.66953E+00  8112   0.175E+01 0.333E+01
CGA:  24    -0.312120792129E+03   -0.31611E+00   -0.30823E+00  8112   0.817E+01 0.141E+00
CGA:  25    -0.312723807261E+03   -0.60302E+00   -0.54676E+00  8112   0.220E+01-0.400E+00
CGA:  26    -0.312784618393E+03   -0.60811E-01   -0.66789E-01  8112   0.911E+00-0.190E+00
CGA:  27    -0.312857110840E+03   -0.72492E-01   -0.73772E-01  8112   0.103E+01 0.204E-01
CGA:  28    -0.312908371018E+03   -0.51260E-01   -0.50169E-01  8112   0.657E+00 0.171E-01
CGA:  29    -0.312969354716E+03   -0.60984E-01   -0.60987E-01  8112   0.653E+00 0.118E-02
CGA:  30    -0.313000532252E+03   -0.31178E-01   -0.33137E-01  8112   0.279E+00-0.184E-01
CGA:  31    -0.313016648850E+03   -0.16117E-01   -0.17433E-01  8112   0.166E+00-0.703E-03
CGA:  32    -0.313032160583E+03   -0.15512E-01   -0.15625E-01  8112   0.139E+00 0.112E-01
CGA:  33    -0.313044144934E+03   -0.11984E-01   -0.12098E-01  8112   0.625E-01 0.205E-02
CGA:  34    -0.313053383299E+03   -0.92384E-02   -0.90466E-02  8112   0.415E-01 0.325E-02
CGA:  35    -0.313057934972E+03   -0.45517E-02   -0.45448E-02  8112   0.285E-01 0.828E-03
CGA:  36    -0.313061021085E+03   -0.30861E-02   -0.30888E-02  8112   0.155E-01-0.369E-03
CGA:  37    -0.313063006666E+03   -0.19856E-02   -0.19824E-02  8112   0.666E-02 0.111E-04
CGA:  38    -0.313063886823E+03   -0.88016E-03   -0.88334E-03  8112   0.503E-02-0.107E-03
CGA:  39    -0.313064398282E+03   -0.51146E-03   -0.51144E-03  8112   0.280E-02-0.908E-04
CGA:  40    -0.313064717846E+03   -0.31956E-03   -0.31960E-03  8112   0.142E-02-0.788E-05
CGA:  41    -0.313064929543E+03   -0.21170E-03   -0.21142E-03  8112   0.834E-03 0.761E-05
CGA:  42    -0.313065013888E+03   -0.84344E-04   -0.84394E-04  8112   0.606E-03 0.119E-04
CGA:  43    -0.313065093137E+03   -0.79250E-04   -0.78789E-04  8112   0.288E-03 0.210E-04
CGA:  44    -0.313065129584E+03   -0.36447E-04   -0.36281E-04  8112   0.211E-03 0.118E-04
CGA:  45    -0.313065157077E+03   -0.27493E-04   -0.27350E-04  8112   0.117E-03 0.927E-05
CGA:  46    -0.313065168137E+03   -0.11060E-04   -0.11137E-04  8112   0.675E-04 0.450E-05
CGA:  47    -0.313065179217E+03   -0.11080E-04   -0.10875E-04  8112   0.356E-04 0.437E-05
CGA:  48    -0.313065183359E+03   -0.41422E-05   -0.41430E-05  8112   0.254E-04 0.905E-06
   1 F= -.31306518E+03 E0= -.31305979E+03  d E =-.313065E+03  mag=    44.0000
       N       E                     dE             d eps       ncg     rms          ort
SDA:   1    -0.313155011646E+03   -0.89832E-01    0.00000E+00  8112   0.172E-01 0.000E+00
CGA:   2    -0.313156680703E+03   -0.16691E-02   -0.16691E-02  8112   0.134E-01 0.288E-05
CGA:   3    -0.313158389712E+03   -0.17090E-02   -0.17090E-02  8112   0.425E-02-0.717E-06
CGA:   4    -0.313158825829E+03   -0.43612E-03   -0.43614E-03  8112   0.241E-02 0.888E-06
CGA:   5    -0.313159137940E+03   -0.31211E-03   -0.31218E-03  8112   0.645E-03-0.287E-05
CGA:   6    -0.313159214432E+03   -0.76492E-04   -0.76506E-04  8112   0.194E-03-0.190E-05
CGA:   7    -0.313159244266E+03   -0.29834E-04   -0.29928E-04  8112   0.136E-03-0.220E-05
CGA:   8    -0.313159255984E+03   -0.11719E-04   -0.11709E-04  8112   0.413E-04-0.326E-06
CGA:   9    -0.313159261286E+03   -0.53018E-05   -0.52943E-05  8112   0.341E-04 0.477E-06
   2 F= -.31315926E+03 E0= -.31315386E+03  d E =-.940779E-01  mag=    44.0000
       N       E                     dE             d eps       ncg     rms          ort
SDA:   1    -0.312540437904E+03    0.61882E+00    0.00000E+00  8112   0.702E+01 0.000E+00
CGA:   2    -0.314424669238E+03   -0.18842E+01   -0.18922E+01  8112   0.253E+01-0.556E-01
CGA:   3    -0.314775699746E+03   -0.35103E+00   -0.35080E+00  8112   0.242E+01 0.429E-02
CGA:   4    -0.314988470741E+03   -0.21277E+00   -0.21223E+00  8112   0.443E+00-0.144E-03
CGA:   5    -0.315036873812E+03   -0.48403E-01   -0.48441E-01  8112   0.253E+00 0.910E-03
CGA:   6    -0.315068323050E+03   -0.31449E-01   -0.31453E-01  8112   0.693E-01-0.853E-03
CGA:   7    -0.315078181092E+03   -0.98580E-02   -0.98575E-02  8112   0.359E-01 0.212E-05
CGA:   8    -0.315082189781E+03   -0.40087E-02   -0.40082E-02  8112   0.269E-01-0.130E-04
CGA:   9    -0.315085455219E+03   -0.32654E-02   -0.32654E-02  8112   0.104E-01-0.361E-04
CGA:  10    -0.315087060131E+03   -0.16049E-02   -0.16036E-02  8112   0.797E-02 0.330E-04
CGA:  11    -0.315088046879E+03   -0.98675E-03   -0.98675E-03  8112   0.363E-02 0.142E-04
CGA:  12    -0.315088559481E+03   -0.51260E-03   -0.51250E-03  8112   0.265E-02 0.671E-05
CGA:  13    -0.315088849010E+03   -0.28953E-03   -0.28961E-03  8112   0.123E-02 0.517E-05
CGA:  14    -0.315088994051E+03   -0.14504E-03   -0.14507E-03  8112   0.688E-03 0.519E-05
CGA:  15    -0.315089097022E+03   -0.10297E-03   -0.10284E-03  8112   0.306E-03 0.520E-05
CGA:  16    -0.315089139380E+03   -0.42358E-04   -0.42318E-04  8112   0.214E-03 0.314E-05
CGA:  17    -0.315089163671E+03   -0.24290E-04   -0.24316E-04  8112   0.106E-03 0.201E-05
CGA:  18    -0.315089177652E+03   -0.13981E-04   -0.13973E-04  8112   0.762E-04 0.130E-05
CGA:  19    -0.315089186879E+03   -0.92265E-05   -0.92275E-05  8112   0.275E-04 0.160E-06
   3 F= -.31508919E+03 E0= -.31508357E+03  d E =-.192993E+01  mag=    44.0000
       N       E                     dE             d eps       ncg     rms          ort
SDA:   1    -0.308790475239E+03    0.62987E+01    0.00000E+00  8112   0.228E+02 0.000E+00
CGA:   2    -0.314817394851E+03   -0.60269E+01   -0.60408E+01  8112   0.105E+02-0.632E-01
CGA:   3    -0.315736377770E+03   -0.91898E+00   -0.92914E+00  8112   0.729E+01 0.225E-01
CGA:   4    -0.316653553999E+03   -0.91718E+00   -0.91655E+00  8112   0.146E+01-0.463E-01
CGA:   5    -0.316817209781E+03   -0.16366E+00   -0.16279E+00  8112   0.891E+00-0.166E-01
CGA:   6    -0.316918927307E+03   -0.10172E+00   -0.10170E+00  8112   0.242E+00-0.957E-03
CGA:   7    -0.316952281655E+03   -0.33354E-01   -0.33324E-01  8112   0.178E+00 0.229E-02
CGA:   8    -0.316967475050E+03   -0.15193E-01   -0.15194E-01  8112   0.701E-01-0.401E-04
CGA:   9    -0.316979902500E+03   -0.12427E-01   -0.12390E-01  8112   0.396E-01 0.595E-03
CGA:  10    -0.316984613715E+03   -0.47112E-02   -0.47096E-02  8112   0.262E-01-0.279E-04
CGA:  11    -0.316988094011E+03   -0.34803E-02   -0.34797E-02  8112   0.130E-01 0.128E-03
CGA:  12    -0.316989567670E+03   -0.14737E-02   -0.14739E-02  8112   0.963E-02 0.136E-04
CGA:  13    -0.316990755670E+03   -0.11880E-02   -0.11882E-02  8112   0.304E-02 0.222E-04
CGA:  14    -0.316991319996E+03   -0.56433E-03   -0.56387E-03  8112   0.237E-02 0.868E-05
CGA:  15    -0.316991536004E+03   -0.21601E-03   -0.21641E-03  8112   0.114E-02 0.535E-05
CGA:  16    -0.316991706459E+03   -0.17046E-03   -0.17033E-03  8112   0.697E-03 0.669E-05
CGA:  17    -0.316991783693E+03   -0.77234E-04   -0.77320E-04  8112   0.356E-03 0.366E-05
CGA:  18    -0.316991844166E+03   -0.60473E-04   -0.60349E-04  8112   0.218E-03 0.320E-05
CGA:  19    -0.316991869114E+03   -0.24947E-04   -0.24949E-04  8112   0.153E-03 0.748E-07
CGA:  20    -0.316991888391E+03   -0.19277E-04   -0.19275E-04  8112   0.792E-04-0.500E-06
CGA:  21    -0.316991899529E+03   -0.11138E-04   -0.11148E-04  8112   0.450E-04-0.931E-06
CGA:  22    -0.316991905459E+03   -0.59304E-05   -0.59321E-05  8112   0.284E-04-0.761E-06
   4 F= -.31699191E+03 E0= -.31698597E+03  d E =-.190272E+01  mag=    44.0000
       N       E                     dE             d eps       ncg     rms          ort
SDA:   1    -0.311613230769E+03    0.53787E+01    0.00000E+00  8112   0.163E+02 0.000E+00
CGA:   2    -0.316087059181E+03   -0.44738E+01   -0.44722E+01  8112   0.627E+01 0.188E-01
CGA:   3    -0.317109950301E+03   -0.10229E+01   -0.10208E+01  8112   0.459E+01 0.483E-01
CGA:   4    -0.317456956569E+03   -0.34701E+00   -0.34762E+00  8112   0.129E+01-0.439E-01
CGA:   5    -0.317614785506E+03   -0.15783E+00   -0.15753E+00  8112   0.452E+00-0.102E-01
CGA:   6    -0.317662836823E+03   -0.48051E-01   -0.48073E-01  8112   0.225E+00-0.278E-03
CGA:   7    -0.317690236050E+03   -0.27399E-01   -0.27398E-01  8112   0.750E-01-0.770E-04
CGA:   8    -0.317699442308E+03   -0.92063E-02   -0.92067E-02  8112   0.587E-01 0.214E-04
CGA:   9    -0.317705456340E+03   -0.60140E-02   -0.60116E-02  8112   0.235E-01-0.125E-04
CGA:  10    -0.317708913141E+03   -0.34568E-02   -0.34547E-02  8112   0.132E-01 0.875E-04
CGA:  11    -0.317710814133E+03   -0.19010E-02   -0.19007E-02  8112   0.854E-02 0.196E-04
CGA:  12    -0.317711701008E+03   -0.88688E-03   -0.88728E-03  8112   0.492E-02 0.817E-05
CGA:  13    -0.317712372154E+03   -0.67115E-03   -0.67114E-03  8112   0.274E-02 0.341E-05
CGA:  14    -0.317712685541E+03   -0.31339E-03   -0.31352E-03  8112   0.138E-02 0.633E-05
CGA:  15    -0.317712885263E+03   -0.19972E-03   -0.19963E-03  8112   0.754E-03 0.618E-05
CGA:  16    -0.317712973707E+03   -0.88444E-04   -0.88508E-04  8112   0.500E-03 0.451E-05
CGA:  17    -0.317713029205E+03   -0.55499E-04   -0.55561E-04  8112   0.234E-03 0.310E-05
CGA:  18    -0.317713063974E+03   -0.34769E-04   -0.34721E-04  8112   0.140E-03 0.264E-05
CGA:  19    -0.317713084152E+03   -0.20178E-04   -0.20171E-04  8112   0.936E-04 0.540E-06
CGA:  20    -0.317713094649E+03   -0.10497E-04   -0.10500E-04  8112   0.605E-04 0.117E-06
CGA:  21    -0.317713103211E+03   -0.85618E-05   -0.85688E-05  8112   0.330E-04-0.597E-06
   5 F= -.31771310E+03 E0= -.31770707E+03  d E =-.721198E+00  mag=    44.0000
       N       E                     dE             d eps       ncg     rms          ort
SDA:   1    -0.308828038513E+03    0.88851E+01    0.00000E+00  8112   0.253E+02 0.000E+00
CGA:   2    -0.314835205609E+03   -0.60072E+01   -0.59188E+01  8112   0.179E+02 0.883E+00
CGA:   3    -0.316615519436E+03   -0.17803E+01   -0.16314E+01  8112   0.917E+01-0.546E+00
CGA:   4    -0.317676652646E+03   -0.10611E+01   -0.10595E+01  8112   0.287E+01-0.494E-01
CGA:   5    -0.317995628996E+03   -0.31898E+00   -0.31809E+00  8112   0.957E+00-0.126E-01
CGA:   6    -0.318109197227E+03   -0.11357E+00   -0.11346E+00  8112   0.335E+00-0.356E-02
CGA:   7    -0.318151754087E+03   -0.42557E-01   -0.42577E-01  8112   0.188E+00 0.324E-02
CGA:   8    -0.318167661164E+03   -0.15907E-01   -0.15948E-01  8112   0.832E-01-0.109E-03
CGA:   9    -0.318177715024E+03   -0.10054E-01   -0.10056E-01  8112   0.383E-01 0.150E-03
CGA:  10    -0.318182980897E+03   -0.52659E-02   -0.52624E-02  8112   0.157E-01 0.217E-03
CGA:  11    -0.318185994810E+03   -0.30139E-02   -0.30107E-02  8112   0.829E-02 0.448E-04
CGA:  12    -0.318187194533E+03   -0.11997E-02   -0.11994E-02  8112   0.580E-02 0.144E-04
CGA:  13    -0.318187959706E+03   -0.76517E-03   -0.76517E-03  8112   0.303E-02 0.589E-05
CGA:  14    -0.318188303820E+03   -0.34411E-03   -0.34435E-03  8112   0.198E-02 0.830E-05
CGA:  15    -0.318188527659E+03   -0.22384E-03   -0.22400E-03  8112   0.966E-03 0.620E-05
CGA:  16    -0.318188650703E+03   -0.12304E-03   -0.12306E-03  8112   0.455E-03 0.457E-05
CGA:  17    -0.318188718078E+03   -0.67375E-04   -0.67317E-04  8112   0.223E-03 0.321E-05
CGA:  18    -0.318188750665E+03   -0.32587E-04   -0.32556E-04  8112   0.125E-03 0.214E-05
CGA:  19    -0.318188771015E+03   -0.20350E-04   -0.20326E-04  8112   0.621E-04 0.815E-06
CGA:  20    -0.318188780501E+03   -0.94859E-05   -0.94804E-05  8112   0.647E-04 0.284E-06
   6 F= -.31818878E+03 E0= -.31818279E+03  d E =-.475677E+00  mag=    44.0000
       N       E                     dE             d eps       ncg     rms          ort
SDA:   1    -0.295342040741E+03    0.22847E+02    0.00000E+00  8112   0.662E+02 0.000E+00
CGA:   2    -0.309694217788E+03   -0.14352E+02   -0.13854E+02  8112   0.451E+02 0.515E+01
CGA:   3    -0.315028333431E+03   -0.53341E+01   -0.46194E+01  8112   0.211E+02-0.410E+01
CGA:   4    -0.317425847442E+03   -0.23975E+01   -0.23492E+01  8112   0.781E+01-0.144E+01
CGA:   5    -0.318205286514E+03   -0.77944E+00   -0.77111E+00  8112   0.267E+01-0.770E-01
CGA:   6    -0.318435927267E+03   -0.23064E+00   -0.23076E+00  8112   0.150E+01-0.110E-01
CGA:   7    -0.318524632934E+03   -0.88706E-01   -0.91218E-01  8112   0.850E+00-0.308E-01
CGA:   8    -0.318615204554E+03   -0.90572E-01   -0.91070E-01  8112   0.198E+00 0.109E-01
CGA:   9    -0.318642477016E+03   -0.27272E-01   -0.27156E-01  8112   0.143E+00 0.675E-02
CGA:  10    -0.318657392436E+03   -0.14915E-01   -0.15118E-01  8112   0.845E-01 0.229E-02
CGA:  11    -0.318664269399E+03   -0.68770E-02   -0.70553E-02  8112   0.403E-01 0.863E-04
CGA:  12    -0.318670201244E+03   -0.59318E-02   -0.59236E-02  8112   0.224E-01 0.239E-03
CGA:  13    -0.318672995743E+03   -0.27945E-02   -0.27945E-02  8112   0.117E-01 0.152E-03
CGA:  14    -0.318674851250E+03   -0.18555E-02   -0.18506E-02  8112   0.510E-02 0.111E-03
CGA:  15    -0.318675714212E+03   -0.86296E-03   -0.86101E-03  8112   0.344E-02 0.375E-04
CGA:  16    -0.318676015344E+03   -0.30113E-03   -0.30231E-03  8112   0.151E-02 0.717E-05
CGA:  17    -0.318676222883E+03   -0.20754E-03   -0.20735E-03  8112   0.868E-03 0.130E-04
CGA:  18    -0.318676323435E+03   -0.10055E-03   -0.10061E-03  8112   0.296E-03 0.438E-05
CGA:  19    -0.318676370489E+03   -0.47054E-04   -0.46980E-04  8112   0.198E-03 0.220E-05
CGA:  20    -0.318676398765E+03   -0.28276E-04   -0.28263E-04  8112   0.793E-04 0.791E-06
CGA:  21    -0.318676413712E+03   -0.14947E-04   -0.14912E-04  8112   0.517E-04 0.569E-06
CGA:  22    -0.318676420911E+03   -0.71994E-05   -0.71974E-05  8112   0.400E-04 0.231E-06
   7 F= -.31867642E+03 E0= -.31867049E+03  d E =-.487640E+00  mag=    44.0000
       N       E                     dE             d eps       ncg     rms          ort
SDA:   1    -0.292506516583E+03    0.26170E+02    0.00000E+00  8112   0.721E+02 0.000E+00
CGA:   2    -0.310113701628E+03   -0.17607E+02   -0.17618E+02  8112   0.471E+02-0.221E-01
CGA:   3    -0.315091006730E+03   -0.49773E+01   -0.50860E+01  8112   0.233E+02 0.695E+00
CGA:   4    -0.317500098999E+03   -0.24091E+01   -0.21798E+01  8112   0.756E+01 0.652E+00
CGA:   5    -0.318394086263E+03   -0.89399E+00   -0.89940E+00  8112   0.258E+01 0.110E+00
CGA:   6    -0.318706869548E+03   -0.31278E+00   -0.31093E+00  8112   0.917E+00-0.508E-01
CGA:   7    -0.318828467486E+03   -0.12160E+00   -0.12154E+00  8112   0.360E+00 0.846E-02
CGA:   8    -0.318872864288E+03   -0.44397E-01   -0.44353E-01  8112   0.169E+00-0.176E-02
CGA:   9    -0.318896105036E+03   -0.23241E-01   -0.23225E-01  8112   0.667E-01 0.124E-02
CGA:  10    -0.318906157999E+03   -0.10053E-01   -0.10042E-01  8112   0.368E-01 0.378E-03
CGA:  11    -0.318911922556E+03   -0.57646E-02   -0.57558E-02  8112   0.192E-01 0.257E-03
CGA:  12    -0.318914371496E+03   -0.24489E-02   -0.24500E-02  8112   0.150E-01 0.849E-04
CGA:  13    -0.318915911507E+03   -0.15400E-02   -0.15476E-02  8112   0.741E-02 0.667E-04
CGA:  14    -0.318916939852E+03   -0.10283E-02   -0.10281E-02  8112   0.294E-02 0.242E-04
CGA:  15    -0.318917448761E+03   -0.50891E-03   -0.50833E-03  8112   0.146E-02 0.128E-04
CGA:  16    -0.318917657351E+03   -0.20859E-03   -0.20854E-03  8112   0.633E-03 0.543E-05
CGA:  17    -0.318917742496E+03   -0.85145E-04   -0.85147E-04  8112   0.345E-03 0.244E-05
CGA:  18    -0.318917792320E+03   -0.49824E-04   -0.49813E-04  8112   0.127E-03 0.104E-05
CGA:  19    -0.318917814261E+03   -0.21941E-04   -0.21900E-04  8112   0.927E-04 0.103E-05
CGA:  20    -0.318917826867E+03   -0.12605E-04   -0.12606E-04  8112   0.573E-04 0.446E-06
CGA:  21    -0.318917833386E+03   -0.65191E-05   -0.65226E-05  8112   0.391E-04 0.110E-06
   8 F= -.31891783E+03 E0= -.31891192E+03  d E =-.241412E+00  mag=    44.0000
       N       E                     dE             d eps       ncg     rms          ort
SDA:   1    -0.270284786416E+03    0.48633E+02    0.00000E+00  8112   0.138E+03 0.000E+00
CGA:   2    -0.301698285562E+03   -0.31413E+02   -0.30769E+02  8112   0.943E+02 0.695E+01
CGA:   3    -0.312243965502E+03   -0.10546E+02   -0.10405E+02  8112   0.384E+02-0.496E+01
CGA:   4    -0.316337172087E+03   -0.40932E+01   -0.37415E+01  8112   0.185E+02-0.106E+01
CGA:   5    -0.317907223310E+03   -0.15701E+01   -0.15042E+01  8112   0.664E+01-0.338E+00
CGA:   6    -0.318471654474E+03   -0.56443E+00   -0.56978E+00  8112   0.437E+01 0.798E-02
CGA:   7    -0.318708150018E+03   -0.23650E+00   -0.23513E+00  8112   0.160E+01-0.386E-01
CGA:   8    -0.318881307509E+03   -0.17316E+00   -0.17385E+00  8112   0.771E+00 0.137E-01
CGA:   9    -0.318954431481E+03   -0.73124E-01   -0.73798E-01  8112   0.387E+00 0.719E-02
CGA:  10    -0.318986862225E+03   -0.32431E-01   -0.32669E-01  8112   0.268E+00-0.717E-03
CGA:  11    -0.319012454403E+03   -0.25592E-01   -0.26058E-01  8112   0.932E-01 0.466E-02
CGA:  12    -0.319025524313E+03   -0.13070E-01   -0.13043E-01  8112   0.705E-01 0.107E-02
CGA:  13    -0.319032517165E+03   -0.69929E-02   -0.70393E-02  8112   0.472E-01 0.537E-03
CGA:  14    -0.319037260431E+03   -0.47433E-02   -0.47659E-02  8112   0.198E-01 0.354E-03
CGA:  15    -0.319040280703E+03   -0.30203E-02   -0.30112E-02  8112   0.115E-01 0.219E-03
CGA:  16    -0.319041655570E+03   -0.13749E-02   -0.13755E-02  8112   0.815E-02 0.808E-04
CGA:  17    -0.319042369010E+03   -0.71344E-03   -0.71492E-03  8112   0.281E-02 0.139E-04
CGA:  18    -0.319042785959E+03   -0.41695E-03   -0.41635E-03  8112   0.155E-02 0.191E-04
CGA:  19    -0.319042969457E+03   -0.18350E-03   -0.18355E-03  8112   0.713E-03 0.968E-05
CGA:  20    -0.319043044842E+03   -0.75384E-04   -0.75447E-04  8112   0.446E-03 0.317E-05
CGA:  21    -0.319043096734E+03   -0.51892E-04   -0.51903E-04  8112   0.228E-03 0.191E-05
CGA:  22    -0.319043129837E+03   -0.33103E-04   -0.33085E-04  8112   0.119E-03 0.661E-06
CGA:  23    -0.319043147710E+03   -0.17873E-04   -0.17858E-04  8112   0.889E-04 0.503E-06
CGA:  24    -0.319043158750E+03   -0.11041E-04   -0.11040E-04  8112   0.711E-04 0.229E-06
CGA:  25    -0.319043166679E+03   -0.79286E-05   -0.79278E-05  8112   0.291E-04-0.824E-07
   9 F= -.31904317E+03 E0= -.31903751E+03  d E =-.125333E+00  mag=    44.0000
       N       E                     dE             d eps       ncg     rms          ort
SDA:   1    -0.313179787675E+03    0.58634E+01    0.00000E+00  8112   0.164E+02 0.000E+00
CGA:   2    -0.317131409357E+03   -0.39516E+01   -0.39508E+01  8112   0.110E+02 0.159E-01
CGA:   3    -0.318350408609E+03   -0.12190E+01   -0.12131E+01  8112   0.521E+01-0.673E-01
CGA:   4    -0.318893801106E+03   -0.54339E+00   -0.53950E+00  8112   0.219E+01-0.354E-01
CGA:   5    -0.319078903825E+03   -0.18510E+00   -0.18814E+00  8112   0.681E+00-0.961E-02
CGA:   6    -0.319165302937E+03   -0.86399E-01   -0.86404E-01  8112   0.236E+00-0.439E-02
CGA:   7    -0.319191838875E+03   -0.26536E-01   -0.26568E-01  8112   0.913E-01 0.969E-03
CGA:   8    -0.319203538928E+03   -0.11700E-01   -0.11700E-01  8112   0.440E-01 0.538E-04
CGA:   9    -0.319207765224E+03   -0.42263E-02   -0.42383E-02  8112   0.228E-01 0.813E-04
CGA:  10    -0.319210468702E+03   -0.27035E-02   -0.27040E-02  8112   0.922E-02 0.425E-04
CGA:  11    -0.319211890173E+03   -0.14215E-02   -0.14196E-02  8112   0.468E-02 0.504E-04
CGA:  12    -0.319212548636E+03   -0.65846E-03   -0.65821E-03  8112   0.338E-02 0.136E-04
CGA:  13    -0.319212907049E+03   -0.35841E-03   -0.35877E-03  8112   0.174E-02 0.733E-05
CGA:  14    -0.319213137337E+03   -0.23029E-03   -0.23026E-03  8112   0.938E-03 0.351E-05
CGA:  15    -0.319213274524E+03   -0.13719E-03   -0.13708E-03  8112   0.425E-03 0.459E-05
CGA:  16    -0.319213329529E+03   -0.55005E-04   -0.54999E-04  8112   0.260E-03 0.332E-05
CGA:  17    -0.319213357439E+03   -0.27910E-04   -0.27963E-04  8112   0.124E-03 0.243E-05
CGA:  18    -0.319213372228E+03   -0.14789E-04   -0.14798E-04  8112   0.500E-04 0.121E-05
CGA:  19    -0.319213379152E+03   -0.69240E-05   -0.69199E-05  8112   0.284E-04 0.345E-06
  10 F= -.31921338E+03 E0= -.31920775E+03  d E =-.170212E+00  mag=    44.0000
       N       E                     dE             d eps       ncg     rms          ort
SDA:   1    -0.291460865576E+03    0.27753E+02    0.00000E+00  8112   0.754E+02 0.000E+00
CGA:   2    -0.310263271363E+03   -0.18802E+02   -0.18648E+02  8112   0.446E+02 0.131E+01
CGA:   3    -0.315824097624E+03   -0.55608E+01   -0.55454E+01  8112   0.197E+02-0.596E+00
CGA:   4    -0.318217921700E+03   -0.23938E+01   -0.23930E+01  8112   0.576E+01 0.279E-01
CGA:   5    -0.318824705901E+03   -0.60678E+00   -0.60368E+00  8112   0.263E+01-0.185E-01
CGA:   6    -0.319092432359E+03   -0.26773E+00   -0.26607E+00  8112   0.121E+01-0.257E-01
CGA:   7    -0.319187172652E+03   -0.94740E-01   -0.95747E-01  8112   0.432E+00-0.254E-02
CGA:   8    -0.319247291947E+03   -0.60119E-01   -0.60069E-01  8112   0.150E+00 0.245E-02
CGA:   9    -0.319269973764E+03   -0.22682E-01   -0.22609E-01  8112   0.741E-01 0.206E-02
CGA:  10    -0.319280672356E+03   -0.10699E-01   -0.10679E-01  8112   0.361E-01 0.856E-03
CGA:  11    -0.319285511870E+03   -0.48395E-02   -0.48384E-02  8112   0.281E-01 0.201E-03
CGA:  12    -0.319288309954E+03   -0.27981E-02   -0.28056E-02  8112   0.149E-01 0.749E-04
CGA:  13    -0.319290168701E+03   -0.18587E-02   -0.18592E-02  8112   0.759E-02 0.762E-04
CGA:  14    -0.319291311447E+03   -0.11427E-02   -0.11413E-02  8112   0.377E-02 0.457E-04
CGA:  15    -0.319291870750E+03   -0.55930E-03   -0.55884E-03  8112   0.170E-02 0.207E-04
CGA:  16    -0.319292095392E+03   -0.22464E-03   -0.22462E-03  8112   0.106E-02 0.122E-04
CGA:  17    -0.319292197091E+03   -0.10170E-03   -0.10195E-03  8112   0.534E-03 0.628E-05
CGA:  18    -0.319292259032E+03   -0.61940E-04   -0.62000E-04  8112   0.177E-03 0.420E-05
CGA:  19    -0.319292293215E+03   -0.34183E-04   -0.34117E-04  8112   0.995E-04 0.104E-05
CGA:  20    -0.319292306998E+03   -0.13783E-04   -0.13781E-04  8112   0.675E-04 0.164E-06
CGA:  21    -0.319292314444E+03   -0.74460E-05   -0.74472E-05  8112   0.489E-04 0.278E-07
  11 F= -.31929231E+03 E0= -.31928670E+03  d E =-.789353E-01  mag=    44.0000
       N       E                     dE             d eps       ncg     rms          ort
SDA:   1    -0.314683422937E+03    0.46089E+01    0.00000E+00  8112   0.128E+02 0.000E+00
CGA:   2    -0.317580961264E+03   -0.28975E+01   -0.28956E+01  8112   0.964E+01 0.166E-01
CGA:   3    -0.318646145644E+03   -0.10652E+01   -0.10339E+01  8112   0.425E+01-0.177E+00
CGA:   4    -0.319118091644E+03   -0.47195E+00   -0.47215E+00  8112   0.178E+01-0.234E-02
CGA:   5    -0.319257799526E+03   -0.13971E+00   -0.13774E+00  8112   0.572E+00 0.248E-02
CGA:   6    -0.319328768086E+03   -0.70969E-01   -0.70983E-01  8112   0.176E+00 0.118E-02
CGA:   7    -0.319352588178E+03   -0.23820E-01   -0.23807E-01  8112   0.661E-01 0.125E-02
CGA:   8    -0.319361247364E+03   -0.86592E-02   -0.86590E-02  8112   0.311E-01 0.260E-03
CGA:   9    -0.319365034234E+03   -0.37869E-02   -0.37896E-02  8112   0.144E-01 0.150E-03
CGA:  10    -0.319366487711E+03   -0.14535E-02   -0.14557E-02  8112   0.910E-02 0.211E-04
CGA:  11    -0.319367561595E+03   -0.10739E-02   -0.10745E-02  8112   0.354E-02 0.302E-04
CGA:  12    -0.319368119063E+03   -0.55747E-03   -0.55601E-03  8112   0.213E-02 0.349E-04
CGA:  13    -0.319368413551E+03   -0.29449E-03   -0.29441E-03  8112   0.125E-02 0.668E-05
CGA:  14    -0.319368550514E+03   -0.13696E-03   -0.13706E-03  8112   0.845E-03 0.301E-05
CGA:  15    -0.319368651686E+03   -0.10117E-03   -0.10121E-03  8112   0.347E-03 0.276E-05
CGA:  16    -0.319368703053E+03   -0.51367E-04   -0.51331E-04  8112   0.164E-03 0.172E-05
CGA:  17    -0.319368724690E+03   -0.21637E-04   -0.21635E-04  8112   0.102E-03 0.878E-06
CGA:  18    -0.319368735143E+03   -0.10452E-04   -0.10467E-04  8112   0.491E-04 0.505E-06
CGA:  19    -0.319368740554E+03   -0.54116E-05   -0.54166E-05  8112   0.211E-04 0.267E-06
  12 F= -.31936874E+03 E0= -.31936316E+03  d E =-.764261E-01  mag=    44.0000
       N       E                     dE             d eps       ncg     rms          ort
SDA:   1    -0.317270124917E+03    0.20986E+01    0.00000E+00  8112   0.547E+01 0.000E+00
CGA:   2    -0.318706076829E+03   -0.14360E+01   -0.14391E+01  8112   0.399E+01-0.211E-01
CGA:   3    -0.319140110639E+03   -0.43403E+00   -0.43086E+00  8112   0.155E+01-0.799E-02
CGA:   4    -0.319307219310E+03   -0.16711E+00   -0.16780E+00  8112   0.644E+00 0.516E-02
CGA:   5    -0.319361270640E+03   -0.54051E-01   -0.53341E-01  8112   0.217E+00 0.181E-03
CGA:   6    -0.319385243937E+03   -0.23973E-01   -0.23990E-01  8112   0.674E-01 0.289E-03
CGA:   7    -0.319395395652E+03   -0.10152E-01   -0.10150E-01  8112   0.204E-01 0.426E-04
CGA:   8    -0.319398141363E+03   -0.27457E-02   -0.27455E-02  8112   0.146E-01 0.351E-04
CGA:   9    -0.319399411779E+03   -0.12704E-02   -0.12690E-02  8112   0.494E-02-0.912E-06
CGA:  10    -0.319400043814E+03   -0.63203E-03   -0.63204E-03  8112   0.293E-02 0.550E-05
CGA:  11    -0.319400457227E+03   -0.41341E-03   -0.41334E-03  8112   0.110E-02 0.451E-05
CGA:  12    -0.319400635069E+03   -0.17784E-03   -0.17770E-03  8112   0.991E-03 0.380E-05
CGA:  13    -0.319400732686E+03   -0.97617E-04   -0.97693E-04  8112   0.486E-03 0.225E-05
CGA:  14    -0.319400797055E+03   -0.64370E-04   -0.64361E-04  8112   0.229E-03 0.269E-05
CGA:  15    -0.319400832577E+03   -0.35522E-04   -0.35497E-04  8112   0.124E-03 0.952E-06
CGA:  16    -0.319400847530E+03   -0.14952E-04   -0.14958E-04  8112   0.637E-04 0.471E-06
CGA:  17    -0.319400853840E+03   -0.63099E-05   -0.63209E-05  8112   0.344E-04 0.345E-06
  13 F= -.31940085E+03 E0= -.31939533E+03  d E =-.321133E-01  mag=    44.0000
       N       E                     dE             d eps       ncg     rms          ort
SDA:   1    -0.307270418280E+03    0.12130E+02    0.00000E+00  8112   0.313E+02 0.000E+00
CGA:   2    -0.315159235867E+03   -0.78888E+01   -0.79338E+01  8112   0.300E+02-0.536E+00
CGA:   3    -0.317860602336E+03   -0.27014E+01   -0.26123E+01  8112   0.820E+01 0.732E+00
CGA:   4    -0.318824730334E+03   -0.96413E+00   -0.97340E+00  8112   0.422E+01 0.176E+00
CGA:   5    -0.319206334738E+03   -0.38160E+00   -0.36741E+00  8112   0.123E+01 0.152E-01
CGA:   6    -0.319346377655E+03   -0.14004E+00   -0.14017E+00  8112   0.369E+00 0.356E-02
CGA:   7    -0.319406500689E+03   -0.60123E-01   -0.60009E-01  8112   0.114E+00 0.246E-02
CGA:   8    -0.319421623169E+03   -0.15122E-01   -0.15121E-01  8112   0.611E-01 0.458E-03
CGA:   9    -0.319429151482E+03   -0.75283E-02   -0.75376E-02  8112   0.257E-01 0.525E-03
CGA:  10    -0.319431613238E+03   -0.24618E-02   -0.24612E-02  8112   0.170E-01 0.407E-05
CGA:  11    -0.319433925689E+03   -0.23125E-02   -0.23111E-02  8112   0.647E-02 0.110E-03
CGA:  12    -0.319434940358E+03   -0.10147E-02   -0.10127E-02  8112   0.406E-02 0.532E-04
CGA:  13    -0.319435554254E+03   -0.61390E-03   -0.61321E-03  8112   0.267E-02 0.253E-04
CGA:  14    -0.319435867245E+03   -0.31299E-03   -0.31318E-03  8112   0.138E-02 0.868E-05
CGA:  15    -0.319436009304E+03   -0.14206E-03   -0.14238E-03  8112   0.795E-03 0.656E-05
CGA:  16    -0.319436127088E+03   -0.11778E-03   -0.11764E-03  8112   0.223E-03 0.797E-05
CGA:  17    -0.319436161965E+03   -0.34877E-04   -0.34773E-04  8112   0.130E-03 0.407E-05
CGA:  18    -0.319436177123E+03   -0.15158E-04   -0.15187E-04  8112   0.836E-04 0.172E-05
CGA:  19    -0.319436185489E+03   -0.83661E-05   -0.83920E-05  8112   0.265E-04 0.774E-06
  14 F= -.31943619E+03 E0= -.31943084E+03  d E =-.353316E-01  mag=    44.0000
       N       E                     dE             d eps       ncg     rms          ort
SDA:   1    -0.293623846724E+03    0.25812E+02    0.00000E+00  8112   0.652E+02 0.000E+00
CGA:   2    -0.310671296110E+03   -0.17047E+02   -0.17367E+02  8112   0.663E+02-0.248E+01
CGA:   3    -0.316143238786E+03   -0.54719E+01   -0.54540E+01  8112   0.168E+02 0.262E+01
CGA:   4    -0.318260871755E+03   -0.21176E+01   -0.21341E+01  8112   0.706E+01 0.498E+00
CGA:   5    -0.318959320307E+03   -0.69845E+00   -0.65689E+00  8112   0.255E+01 0.636E-02
CGA:   6    -0.319229013849E+03   -0.26969E+00   -0.27101E+00  8112   0.824E+00 0.170E-01
CGA:   7    -0.319352024532E+03   -0.12301E+00   -0.12284E+00  8112   0.289E+00 0.644E-02
CGA:   8    -0.319387712652E+03   -0.35688E-01   -0.35693E-01  8112   0.140E+00 0.240E-03
CGA:   9    -0.319405174858E+03   -0.17462E-01   -0.17472E-01  8112   0.702E-01 0.636E-03
CGA:  10    -0.319411465739E+03   -0.62909E-02   -0.62579E-02  8112   0.326E-01 0.322E-05
CGA:  11    -0.319417098807E+03   -0.56331E-02   -0.56161E-02  8112   0.140E-01 0.308E-03
CGA:  12    -0.319419210945E+03   -0.21121E-02   -0.21100E-02  8112   0.890E-02 0.895E-04
CGA:  13    -0.319420684867E+03   -0.14739E-02   -0.14707E-02  8112   0.434E-02 0.769E-04
CGA:  14    -0.319421345979E+03   -0.66111E-03   -0.66017E-03  8112   0.207E-02 0.391E-04
CGA:  15    -0.319421613826E+03   -0.26785E-03   -0.26798E-03  8112   0.169E-02 0.146E-04
CGA:  16    -0.319421785116E+03   -0.17129E-03   -0.17155E-03  8112   0.402E-03 0.956E-05
CGA:  17    -0.319421852223E+03   -0.67108E-04   -0.66847E-04  8112   0.201E-03 0.770E-05
CGA:  18    -0.319421883255E+03   -0.31031E-04   -0.30974E-04  8112   0.718E-04 0.331E-05
CGA:  19    -0.319421893358E+03   -0.10103E-04   -0.10101E-04  8112   0.515E-04 0.739E-06
CGA:  20    -0.319421899499E+03   -0.61404E-05   -0.61481E-05  8112   0.288E-04 0.451E-06
  15 F= -.31942190E+03 E0= -.31941697E+03  d E =0.142860E-01  mag=    44.0000
       N       E                     dE             d eps       ncg     rms          ort
SDA:   1    -0.315670999013E+03    0.37509E+01    0.00000E+00  8112   0.992E+01 0.000E+00
CGA:   2    -0.318133325120E+03   -0.24623E+01   -0.24745E+01  8112   0.749E+01-0.763E-01
CGA:   3    -0.318904985935E+03   -0.77166E+00   -0.79268E+00  8112   0.340E+01 0.132E+00
CGA:   4    -0.319260424604E+03   -0.35544E+00   -0.34519E+00  8112   0.118E+01-0.318E-01
CGA:   5    -0.319378505104E+03   -0.11808E+00   -0.11874E+00  8112   0.343E+00 0.245E-02
CGA:   6    -0.319428300313E+03   -0.49795E-01   -0.49825E-01  8112   0.992E-01-0.159E-02
CGA:   7    -0.319442388960E+03   -0.14089E-01   -0.14083E-01  8112   0.500E-01 0.415E-03
CGA:   8    -0.319447418224E+03   -0.50293E-02   -0.50069E-02  8112   0.234E-01-0.879E-04
CGA:   9    -0.319450077625E+03   -0.26594E-02   -0.26625E-02  8112   0.986E-02 0.531E-04
CGA:  10    -0.319451426283E+03   -0.13487E-02   -0.13486E-02  8112   0.403E-02 0.950E-05
CGA:  11    -0.319452111609E+03   -0.68533E-03   -0.68470E-03  8112   0.244E-02 0.142E-04
CGA:  12    -0.319452401259E+03   -0.28965E-03   -0.28959E-03  8112   0.152E-02 0.139E-05
CGA:  13    -0.319452582364E+03   -0.18111E-03   -0.18121E-03  8112   0.777E-03 0.430E-05
CGA:  14    -0.319452700629E+03   -0.11827E-03   -0.11824E-03  8112   0.348E-03 0.143E-05
CGA:  15    -0.319452755201E+03   -0.54571E-04   -0.54546E-04  8112   0.188E-03 0.967E-06
CGA:  16    -0.319452777683E+03   -0.22482E-04   -0.22482E-04  8112   0.112E-03 0.121E-06
CGA:  17    -0.319452789495E+03   -0.11813E-04   -0.11819E-04  8112   0.402E-04 0.153E-06
CGA:  18    -0.319452795815E+03   -0.63194E-05   -0.63126E-05  8112   0.179E-04 0.280E-06
  16 F= -.31945280E+03 E0= -.31944784E+03  d E =-.308963E-01  mag=    44.0000
       N       E                     dE             d eps       ncg     rms          ort
SDA:   1    -0.317258873068E+03    0.21939E+01    0.00000E+00  8112   0.569E+01 0.000E+00
CGA:   2    -0.318695914611E+03   -0.14370E+01   -0.14292E+01  8112   0.482E+01 0.545E-01
CGA:   3    -0.319181328824E+03   -0.48541E+00   -0.46949E+00  8112   0.177E+01 0.963E-03
CGA:   4    -0.319365057423E+03   -0.18373E+00   -0.18466E+00  8112   0.682E+00 0.428E-02
CGA:   5    -0.319437182862E+03   -0.72125E-01   -0.71673E-01  8112   0.173E+00-0.303E-02
CGA:   6    -0.319460296987E+03   -0.23114E-01   -0.23116E-01  8112   0.670E-01 0.781E-03
CGA:   7    -0.319468493997E+03   -0.81970E-02   -0.81852E-02  8112   0.306E-01-0.331E-03
CGA:   8    -0.319471318167E+03   -0.28242E-02   -0.28341E-02  8112   0.126E-01 0.144E-04
CGA:   9    -0.319472982855E+03   -0.16647E-02   -0.16647E-02  8112   0.466E-02-0.281E-05
CGA:  10    -0.319473611612E+03   -0.62876E-03   -0.62871E-03  8112   0.231E-02 0.105E-04
CGA:  11    -0.319473945962E+03   -0.33435E-03   -0.33437E-03  8112   0.158E-02 0.436E-06
CGA:  12    -0.319474102229E+03   -0.15627E-03   -0.15651E-03  8112   0.691E-03 0.313E-05
CGA:  13    -0.319474220200E+03   -0.11797E-03   -0.11786E-03  8112   0.392E-03 0.264E-05
CGA:  14    -0.319474277567E+03   -0.57367E-04   -0.57351E-04  8112   0.217E-03 0.120E-05
CGA:  15    -0.319474302475E+03   -0.24908E-04   -0.24922E-04  8112   0.128E-03 0.902E-06
CGA:  16    -0.319474317911E+03   -0.15437E-04   -0.15453E-04  8112   0.519E-04 0.113E-05
CGA:  17    -0.319474324778E+03   -0.68666E-05   -0.68675E-05  8112   0.195E-04 0.609E-06
  17 F= -.31947432E+03 E0= -.31946924E+03  d E =-.215290E-01  mag=    44.0000
       N       E                     dE             d eps       ncg     rms          ort
SDA:   1    -0.319012098673E+03    0.46222E+00    0.00000E+00  8112   0.124E+01 0.000E+00
CGA:   2    -0.319309444752E+03   -0.29735E+00   -0.29881E+00  8112   0.104E+01-0.132E-01
CGA:   3    -0.319424926521E+03   -0.11548E+00   -0.11584E+00  8112   0.298E+00 0.430E-02
CGA:   4    -0.319463409567E+03   -0.38483E-01   -0.38530E-01  8112   0.136E+00 0.235E-02
CGA:   5    -0.319474952481E+03   -0.11543E-01   -0.11347E-01  8112   0.418E-01 0.569E-03
CGA:   6    -0.319479852381E+03   -0.48999E-02   -0.49016E-02  8112   0.135E-01 0.434E-04
CGA:   7    -0.319481786664E+03   -0.19343E-02   -0.19342E-02  8112   0.445E-02 0.337E-05
CGA:   8    -0.319482385868E+03   -0.59920E-03   -0.59920E-03  8112   0.250E-02 0.216E-05
CGA:   9    -0.319482641426E+03   -0.25556E-03   -0.25530E-03  8112   0.103E-02-0.248E-05
CGA:  10    -0.319482757284E+03   -0.11586E-03   -0.11590E-03  8112   0.503E-03 0.101E-05
CGA:  11    -0.319482837524E+03   -0.80241E-04   -0.80197E-04  8112   0.203E-03 0.148E-05
CGA:  12    -0.319482870370E+03   -0.32845E-04   -0.32845E-04  8112   0.153E-03-0.839E-08
CGA:  13    -0.319482888057E+03   -0.17688E-04   -0.17685E-04  8112   0.919E-04-0.795E-07
CGA:  14    -0.319482898998E+03   -0.10940E-04   -0.10945E-04  8112   0.370E-04 0.301E-06
CGA:  15    -0.319482905201E+03   -0.62037E-05   -0.61830E-05  8112   0.186E-04 0.608E-06
  18 F= -.31948291E+03 E0= -.31947787E+03  d E =-.858042E-02  mag=    44.0000
       N       E                     dE             d eps       ncg     rms          ort
SDA:   1    -0.289529829755E+03    0.29953E+02    0.00000E+00  8112   0.776E+02 0.000E+00
CGA:   2    -0.309138315541E+03   -0.19608E+02   -0.20021E+02  8112   0.718E+02-0.275E+01
CGA:   3    -0.315405629384E+03   -0.62673E+01   -0.63257E+01  8112   0.203E+02 0.128E+01
CGA:   4    -0.318306616346E+03   -0.29010E+01   -0.29036E+01  8112   0.613E+01-0.483E+00
CGA:   5    -0.319056203559E+03   -0.74959E+00   -0.74909E+00  8112   0.231E+01-0.127E-01
CGA:   6    -0.319254545925E+03   -0.19834E+00   -0.19631E+00  8112   0.112E+01-0.691E-02
CGA:   7    -0.319384262723E+03   -0.12972E+00   -0.13028E+00  8112   0.318E+00 0.111E-01
CGA:   8    -0.319427410304E+03   -0.43148E-01   -0.43147E-01  8112   0.173E+00 0.783E-03
CGA:   9    -0.319448824112E+03   -0.21414E-01   -0.21437E-01  8112   0.706E-01 0.958E-03
CGA:  10    -0.319456074242E+03   -0.72501E-02   -0.72795E-02  8112   0.423E-01 0.226E-03
CGA:  11    -0.319462634108E+03   -0.65599E-02   -0.65430E-02  8112   0.155E-01 0.506E-03
CGA:  12    -0.319465031218E+03   -0.23971E-02   -0.23945E-02  8112   0.119E-01 0.938E-04
CGA:  13    -0.319466613869E+03   -0.15827E-02   -0.15829E-02  8112   0.665E-02 0.997E-04
CGA:  14    -0.319467344345E+03   -0.73048E-03   -0.73174E-03  8112   0.289E-02 0.236E-04
CGA:  15    -0.319467838668E+03   -0.49432E-03   -0.49338E-03  8112   0.148E-02 0.232E-04
CGA:  16    -0.319468011959E+03   -0.17329E-03   -0.17355E-03  8112   0.645E-03 0.126E-04
CGA:  17    -0.319468090489E+03   -0.78531E-04   -0.78644E-04  8112   0.349E-03 0.802E-05
CGA:  18    -0.319468135252E+03   -0.44762E-04   -0.44792E-04  8112   0.116E-03 0.462E-05
CGA:  19    -0.319468151469E+03   -0.16218E-04   -0.16210E-04  8112   0.658E-04 0.143E-05
CGA:  20    -0.319468160906E+03   -0.94369E-05   -0.94300E-05  8112   0.392E-04 0.760E-06
  19 F= -.31946816E+03 E0= -.31946340E+03  d E =0.147443E-01  mag=    44.0000
       N       E                     dE             d eps       ncg     rms          ort
SDA:   1    -0.303948493897E+03    0.15520E+02    0.00000E+00  8112   0.406E+02 0.000E+00
CGA:   2    -0.314006746560E+03   -0.10058E+02   -0.10132E+02  8112   0.314E+02-0.672E+00
CGA:   3    -0.317714227995E+03   -0.37075E+01   -0.37210E+01  8112   0.895E+01 0.290E+00
CGA:   4    -0.318933799526E+03   -0.12196E+01   -0.12188E+01  8112   0.333E+01-0.179E+00
CGA:   5    -0.319257199183E+03   -0.32340E+00   -0.32113E+00  8112   0.126E+01-0.106E-01
CGA:   6    -0.319388595974E+03   -0.13140E+00   -0.13132E+00  8112   0.423E+00 0.211E-04
CGA:   7    -0.319446350137E+03   -0.57754E-01   -0.57751E-01  8112   0.142E+00 0.581E-03
CGA:   8    -0.319466778879E+03   -0.20429E-01   -0.20423E-01  8112   0.548E-01 0.320E-03
CGA:   9    -0.319475115539E+03   -0.83367E-02   -0.83337E-02  8112   0.298E-01 0.110E-03
CGA:  10    -0.319478207512E+03   -0.30920E-02   -0.30985E-02  8112   0.148E-01 0.551E-04
CGA:  11    -0.319480686999E+03   -0.24795E-02   -0.24740E-02  8112   0.647E-02 0.124E-03
CGA:  12    -0.319481680850E+03   -0.99385E-03   -0.99363E-03  8112   0.412E-02 0.139E-04
CGA:  13    -0.319482352105E+03   -0.67126E-03   -0.67045E-03  8112   0.184E-02 0.244E-04
CGA:  14    -0.319482589932E+03   -0.23783E-03   -0.23792E-03  8112   0.113E-02 0.753E-05
CGA:  15    -0.319482742254E+03   -0.15232E-03   -0.15233E-03  8112   0.488E-03 0.477E-05
CGA:  16    -0.319482803305E+03   -0.61051E-04   -0.61085E-04  8112   0.166E-03 0.243E-05
CGA:  17    -0.319482833214E+03   -0.29909E-04   -0.29828E-04  8112   0.758E-04 0.188E-05
CGA:  18    -0.319482842945E+03   -0.97310E-05   -0.97418E-05  8112   0.374E-04 0.929E-06
  20 F= -.31948284E+03 E0= -.31947839E+03  d E =-.146820E-01  mag=    44.0000
       N       E                     dE             d eps       ncg     rms          ort
SDA:   1    -0.304827458870E+03    0.14655E+02    0.00000E+00  8112   0.403E+02 0.000E+00
CGA:   2    -0.313489457947E+03   -0.86620E+01   -0.86739E+01  8112   0.389E+02-0.736E+00
CGA:   3    -0.317439050177E+03   -0.39496E+01   -0.38239E+01  8112   0.957E+01 0.121E+01
CGA:   4    -0.318839325695E+03   -0.14003E+01   -0.14018E+01  8112   0.412E+01-0.293E+00
CGA:   5    -0.319252412821E+03   -0.41309E+00   -0.41317E+00  8112   0.180E+01 0.116E-01
CGA:   6    -0.319386068568E+03   -0.13366E+00   -0.14504E+00  8112   0.681E+00-0.325E-01
CGA:   7    -0.319463160202E+03   -0.77092E-01   -0.77412E-01  8112   0.252E+00 0.653E-02
CGA:   8    -0.319488142101E+03   -0.24982E-01   -0.25170E-01  8112   0.137E+00 0.851E-03
CGA:   9    -0.319502595098E+03   -0.14453E-01   -0.14542E-01  8112   0.535E-01 0.892E-03
CGA:  10    -0.319509824232E+03   -0.72291E-02   -0.72273E-02  8112   0.246E-01 0.283E-03
CGA:  11    -0.319513025178E+03   -0.32009E-02   -0.32015E-02  8112   0.164E-01 0.222E-03
CGA:  12    -0.319514920080E+03   -0.18949E-02   -0.18993E-02  8112   0.889E-02 0.110E-03
CGA:  13    -0.319515966948E+03   -0.10469E-02   -0.10477E-02  8112   0.415E-02 0.322E-04
CGA:  14    -0.319516710091E+03   -0.74314E-03   -0.73645E-03  8112   0.209E-02 0.111E-03
CGA:  15    -0.319516983727E+03   -0.27364E-03   -0.27373E-03  8112   0.106E-02 0.136E-04
CGA:  16    -0.319517142377E+03   -0.15865E-03   -0.15856E-03  8112   0.510E-03 0.474E-05
CGA:  17    -0.319517203527E+03   -0.61151E-04   -0.61219E-04  8112   0.269E-03 0.377E-05
CGA:  18    -0.319517231155E+03   -0.27628E-04   -0.27690E-04  8112   0.108E-03 0.189E-05
CGA:  19    -0.319517248367E+03   -0.17212E-04   -0.17162E-04  8112   0.445E-04 0.183E-05
CGA:  20    -0.319517254848E+03   -0.64811E-05   -0.64729E-05  8112   0.219E-04 0.699E-06
  21 F= -.31951725E+03 E0= -.31951257E+03  d E =-.344119E-01  mag=    44.0000
       N       E                     dE             d eps       ncg     rms          ort
SDA:   1    -0.316246662492E+03    0.32706E+01    0.00000E+00  8112   0.895E+01 0.000E+00
CGA:   2    -0.318261223165E+03   -0.20146E+01   -0.20146E+01  8112   0.624E+01 0.367E-02
CGA:   3    -0.319057969109E+03   -0.79675E+00   -0.79434E+00  8112   0.249E+01-0.566E-01
CGA:   4    -0.319343649950E+03   -0.28568E+00   -0.28620E+00  8112   0.959E+00 0.877E-02
CGA:   5    -0.319435995371E+03   -0.92345E-01   -0.91168E-01  8112   0.319E+00-0.304E-02
CGA:   6    -0.319476846667E+03   -0.40851E-01   -0.40865E-01  8112   0.950E-01 0.970E-03
CGA:   7    -0.319489682424E+03   -0.12836E-01   -0.12836E-01  8112   0.382E-01-0.365E-03
CGA:   8    -0.319494639078E+03   -0.49567E-02   -0.49585E-02  8112   0.177E-01 0.200E-03
CGA:   9    -0.319496572787E+03   -0.19337E-02   -0.19322E-02  8112   0.904E-02-0.108E-04
CGA:  10    -0.319497725075E+03   -0.11523E-02   -0.11527E-02  8112   0.333E-02 0.371E-04
CGA:  11    -0.319498334524E+03   -0.60945E-03   -0.60957E-03  8112   0.185E-02-0.111E-05
CGA:  12    -0.319498577520E+03   -0.24300E-03   -0.24304E-03  8112   0.115E-02 0.752E-05
CGA:  13    -0.319498722372E+03   -0.14485E-03   -0.14486E-03  8112   0.591E-03 0.151E-05
CGA:  14    -0.319498803544E+03   -0.81172E-04   -0.81165E-04  8112   0.295E-03 0.215E-05
CGA:  15    -0.319498846357E+03   -0.42812E-04   -0.42807E-04  8112   0.123E-03 0.631E-06
CGA:  16    -0.319498865691E+03   -0.19335E-04   -0.19313E-04  8112   0.714E-04 0.932E-06
CGA:  17    -0.319498872948E+03   -0.72572E-05   -0.72740E-05  8112   0.300E-04 0.492E-06
  22 F= -.31949887E+03 E0= -.31949423E+03  d E =0.183819E-01  mag=    44.0000
       N       E                     dE             d eps       ncg     rms          ort
SDA:   1    -0.316002162683E+03    0.34967E+01    0.00000E+00  8112   0.933E+01 0.000E+00
CGA:   2    -0.318261018522E+03   -0.22589E+01   -0.22747E+01  8112   0.740E+01-0.158E+00
CGA:   3    -0.319096467837E+03   -0.83545E+00   -0.83995E+00  8112   0.209E+01 0.702E-01
CGA:   4    -0.319405268428E+03   -0.30880E+00   -0.30888E+00  8112   0.715E+00-0.642E-02
CGA:   5    -0.319474970906E+03   -0.69702E-01   -0.70163E-01  8112   0.314E+00 0.568E-03
CGA:   6    -0.319507452897E+03   -0.32482E-01   -0.32419E-01  8112   0.942E-01-0.429E-03
CGA:   7    -0.319519939718E+03   -0.12487E-01   -0.12488E-01  8112   0.323E-01 0.244E-03
CGA:   8    -0.319524865178E+03   -0.49255E-02   -0.49246E-02  8112   0.129E-01 0.316E-04
CGA:   9    -0.319526584101E+03   -0.17189E-02   -0.17189E-02  8112   0.710E-02-0.599E-05
CGA:  10    -0.319527370934E+03   -0.78683E-03   -0.78674E-03  8112   0.361E-02 0.240E-05
CGA:  11    -0.319527882258E+03   -0.51132E-03   -0.51120E-03  8112   0.165E-02 0.133E-04
CGA:  12    -0.319528142666E+03   -0.26041E-03   -0.26032E-03  8112   0.947E-03 0.370E-05
CGA:  13    -0.319528288183E+03   -0.14552E-03   -0.14546E-03  8112   0.481E-03 0.291E-05
CGA:  14    -0.319528349865E+03   -0.61682E-04   -0.61699E-04  8112   0.329E-03 0.172E-05
CGA:  15    -0.319528388776E+03   -0.38911E-04   -0.38948E-04  8112   0.109E-03 0.174E-05
CGA:  16    -0.319528406726E+03   -0.17950E-04   -0.17913E-04  8112   0.503E-04 0.131E-05
CGA:  17    -0.319528413815E+03   -0.70891E-05   -0.70879E-05  8112   0.236E-04 0.562E-06
  23 F= -.31952841E+03 E0= -.31952376E+03  d E =-.295409E-01  mag=    44.0000
       N       E                     dE             d eps       ncg     rms          ort
SDA:   1    -0.319379342088E+03    0.14906E+00    0.00000E+00  8112   0.390E+00 0.000E+00
CGA:   2    -0.319470799059E+03   -0.91457E-01   -0.91164E-01  8112   0.440E+00 0.295E-02
CGA:   3    -0.319507975896E+03   -0.37177E-01   -0.37118E-01  8112   0.110E+00-0.750E-03
CGA:   4    -0.319521721354E+03   -0.13745E-01   -0.13732E-01  8112   0.440E-01-0.412E-03
CGA:   5    -0.319526729317E+03   -0.50080E-02   -0.50099E-02  8112   0.102E-01 0.243E-04
CGA:   6    -0.319528191013E+03   -0.14617E-02   -0.14616E-02  8112   0.375E-02 0.546E-05
CGA:   7    -0.319528650510E+03   -0.45950E-03   -0.45944E-03  8112   0.189E-02-0.203E-05
CGA:   8    -0.319528825827E+03   -0.17532E-03   -0.17516E-03  8112   0.605E-03-0.113E-05
CGA:   9    -0.319528925954E+03   -0.10013E-03   -0.10014E-03  8112   0.222E-03-0.436E-06
CGA:  10    -0.319528958886E+03   -0.32932E-04   -0.32928E-04  8112   0.138E-03 0.302E-06
CGA:  11    -0.319528976923E+03   -0.18037E-04   -0.18040E-04  8112   0.769E-04 0.460E-06
CGA:  12    -0.319528986422E+03   -0.94992E-05   -0.94996E-05  8112   0.439E-04 0.404E-07
  24 F= -.31952899E+03 E0= -.31952430E+03  d E =-.572607E-03  mag=    44.0000
       N       E                     dE             d eps       ncg     rms          ort
SDA:   1    -0.305564846789E+03    0.13964E+02    0.00000E+00  8112   0.350E+02 0.000E+00
CGA:   2    -0.315303419537E+03   -0.97386E+01   -0.97514E+01  8112   0.265E+02-0.180E-01
CGA:   3    -0.317931306860E+03   -0.26279E+01   -0.26347E+01  8112   0.846E+01-0.111E+00
CGA:   4    -0.318996077066E+03   -0.10648E+01   -0.10560E+01  8112   0.392E+01-0.217E+00
CGA:   5    -0.319283568725E+03   -0.28749E+00   -0.29687E+00  8112   0.109E+01-0.618E-01
CGA:   6    -0.319439105943E+03   -0.15554E+00   -0.15553E+00  8112   0.294E+00 0.826E-03
CGA:   7    -0.319480885841E+03   -0.41780E-01   -0.41779E-01  8112   0.154E+00 0.127E-03
CGA:   8    -0.319496145226E+03   -0.15259E-01   -0.15228E-01  8112   0.623E-01-0.164E-03
CGA:   9    -0.319503110404E+03   -0.69652E-02   -0.69857E-02  8112   0.317E-01 0.247E-03
CGA:  10    -0.319507268421E+03   -0.41580E-02   -0.41586E-02  8112   0.119E-01 0.720E-04
CGA:  11    -0.319509292745E+03   -0.20243E-02   -0.20199E-02  8112   0.787E-02 0.980E-04
CGA:  12    -0.319510206668E+03   -0.91392E-03   -0.91423E-03  8112   0.516E-02 0.142E-04
CGA:  13    -0.319510869173E+03   -0.66250E-03   -0.66272E-03  8112   0.249E-02 0.184E-04
CGA:  14    -0.319511257206E+03   -0.38803E-03   -0.38788E-03  8112   0.119E-02 0.665E-05
CGA:  15    -0.319511425075E+03   -0.16787E-03   -0.16784E-03  8112   0.691E-03 0.518E-05
CGA:  16    -0.319511498886E+03   -0.73811E-04   -0.73930E-04  8112   0.338E-03 0.412E-05
CGA:  17    -0.319511540466E+03   -0.41580E-04   -0.41631E-04  8112   0.117E-03 0.387E-05
CGA:  18    -0.319511558491E+03   -0.18025E-04   -0.18000E-04  8112   0.584E-04 0.134E-05
CGA:  19    -0.319511566197E+03   -0.77057E-05   -0.77082E-05  8112   0.399E-04 0.530E-06
  25 F= -.31951157E+03 E0= -.31950666E+03  d E =0.174202E-01  mag=    44.0000
       N       E                     dE             d eps       ncg     rms          ort
SDA:   1    -0.196486173548E+03    0.12303E+03    0.00000E+00  8112   0.986E+03 0.000E+00
CGA:   2    -0.267926877066E+03   -0.71441E+02   -0.44904E+02  8112   0.407E+03 0.107E+04
CGA:   3    -0.286059021860E+03   -0.18132E+02   -0.32707E+02  8112   0.107E+03 0.432E+02
CGA:   4    -0.295984990942E+03   -0.99260E+01   -0.53009E+01  8112   0.660E+02 0.111E+03
CGA:   5    -0.300189815565E+03   -0.42048E+01   -0.29783E+01  8112   0.535E+02 0.110E+02
CGA:   6    -0.308856638961E+03   -0.86668E+01   -0.87584E+01  8112   0.186E+03-0.248E+01
CGA:   7    -0.310864746455E+03   -0.20081E+01   -0.57817E+01  8112   0.126E+03-0.890E+02
CGA:   8    -0.312802401761E+03   -0.19377E+01   -0.16851E+01  8112   0.439E+02-0.153E+01
CGA:   9    -0.313763730417E+03   -0.96133E+00   -0.15356E+01  8112   0.113E+02-0.868E+01
CGA:  10    -0.314442150258E+03   -0.67842E+00   -0.67625E+00  8112   0.161E+02-0.156E+00
CGA:  11    -0.315566764517E+03   -0.11246E+01   -0.11629E+01  8112   0.107E+02 0.427E-01
CGA:  12    -0.316291852095E+03   -0.72509E+00   -0.57667E+00  8112   0.392E+01 0.137E+01
CGA:  13    -0.316565265967E+03   -0.27341E+00   -0.28212E+00  8112   0.372E+01 0.136E+00
CGA:  14    -0.316837870336E+03   -0.27260E+00   -0.28476E+00  8112   0.250E+01 0.878E-01
CGA:  15    -0.317081682888E+03   -0.24381E+00   -0.24448E+00  8112   0.139E+01 0.118E+00
CGA:  16    -0.317201607505E+03   -0.11992E+00   -0.11186E+00  8112   0.766E+00-0.539E-01
CGA:  17    -0.317258522417E+03   -0.56915E-01   -0.57474E-01  8112   0.673E+00 0.776E-02
CGA:  18    -0.317324873320E+03   -0.66351E-01   -0.66336E-01  8112   0.289E+00 0.540E-02
CGA:  19    -0.317349683867E+03   -0.24811E-01   -0.24936E-01  8112   0.192E+00 0.443E-02
CGA:  20    -0.317370650417E+03   -0.20967E-01   -0.20845E-01  8112   0.164E+00 0.642E-02
CGA:  21    -0.317385947783E+03   -0.15297E-01   -0.15145E-01  8112   0.722E-01-0.936E-02
CGA:  22    -0.317393343417E+03   -0.73956E-02   -0.73870E-02  8112   0.537E-01 0.420E-03
CGA:  23    -0.317400059439E+03   -0.67160E-02   -0.66958E-02  8112   0.280E-01 0.537E-03
CGA:  24    -0.317403197146E+03   -0.31377E-02   -0.31323E-02  8112   0.175E-01 0.262E-03
CGA:  25    -0.317405401783E+03   -0.22046E-02   -0.22106E-02  8112   0.135E-01-0.162E-03
CGA:  26    -0.317406500236E+03   -0.10985E-02   -0.11041E-02  8112   0.704E-02 0.922E-04
CGA:  27    -0.317407380241E+03   -0.88000E-03   -0.88002E-03  8112   0.467E-02 0.921E-06
CGA:  28    -0.317407958063E+03   -0.57782E-03   -0.57732E-03  8112   0.241E-02 0.163E-04
CGA:  29    -0.317408299872E+03   -0.34181E-03   -0.34194E-03  8112   0.167E-02-0.251E-05
CGA:  30    -0.317408538002E+03   -0.23813E-03   -0.23809E-03  8112   0.894E-03 0.259E-06
CGA:  31    -0.317408647786E+03   -0.10978E-03   -0.10980E-03  8112   0.566E-03-0.985E-06
CGA:  32    -0.317408743557E+03   -0.95772E-04   -0.95716E-04  8112   0.494E-03 0.720E-06
CGA:  33    -0.317408789368E+03   -0.45811E-04   -0.45789E-04  8112   0.263E-03-0.251E-06
CGA:  34    -0.317408820457E+03   -0.31089E-04   -0.31082E-04  8112   0.200E-03 0.354E-06
SDA:  35    -0.317408845350E+03   -0.24893E-04   -0.24888E-04  8112   0.111E-03 0.360E-06
CGA:  36    -0.317408861349E+03   -0.15999E-04   -0.15994E-04  8112   0.764E-04 0.104E-06
CGA:  37    -0.317408870194E+03   -0.88445E-05   -0.88447E-05  8112   0.789E-04 0.983E-07
  26 F= -.31740887E+03 E0= -.31740329E+03  d E =0.210270E+01  mag=    44.0000
       N       E                     dE             d eps       ncg     rms          ort
SDA:   1    -0.294222957865E+03    0.23186E+02    0.00000E+00  8112   0.232E+03 0.000E+00
CGA:   2    -0.305424369824E+03   -0.11201E+02   -0.16467E+02  8112   0.424E+02 0.193E+02
CGA:   3    -0.312114374424E+03   -0.66900E+01   -0.82382E+01  8112   0.896E+02-0.240E+02
CGA:   4    -0.315687589872E+03   -0.35732E+01   -0.48198E+01  8112   0.108E+02-0.689E+01
CGA:   5    -0.317033927549E+03   -0.13463E+01   -0.17182E+01  8112   0.262E+02-0.670E+01
CGA:   6    -0.317889830589E+03   -0.85590E+00   -0.15103E+01  8112   0.425E+01-0.256E+01
CGA:   7    -0.318386406083E+03   -0.49658E+00   -0.55462E+00  8112   0.598E+01-0.142E+01
CGA:   8    -0.319036648940E+03   -0.65024E+00   -0.63243E+00  8112   0.134E+01 0.292E+00
CGA:   9    -0.319115431831E+03   -0.78783E-01   -0.79206E-01  8112   0.346E+00 0.142E-01
CGA:  10    -0.319155638792E+03   -0.40207E-01   -0.40195E-01  8112   0.959E-01 0.194E-02
CGA:  11    -0.319169826434E+03   -0.14188E-01   -0.13946E-01  8112   0.650E-01 0.521E-02
CGA:  12    -0.319182101476E+03   -0.12275E-01   -0.11794E-01  8112   0.413E-01 0.639E-02
CGA:  13    -0.319187365434E+03   -0.52640E-02   -0.52642E-02  8112   0.152E-01 0.326E-03
CGA:  14    -0.319189995143E+03   -0.26297E-02   -0.26149E-02  8112   0.556E-02 0.218E-03
CGA:  15    -0.319190970386E+03   -0.97524E-03   -0.97415E-03  8112   0.297E-02 0.186E-04
CGA:  16    -0.319191377820E+03   -0.40743E-03   -0.40721E-03  8112   0.253E-02 0.961E-05
CGA:  17    -0.319191689206E+03   -0.31139E-03   -0.31138E-03  8112   0.988E-03 0.813E-06
CGA:  18    -0.319191805797E+03   -0.11659E-03   -0.11660E-03  8112   0.418E-03 0.109E-05
CGA:  19    -0.319191884134E+03   -0.78336E-04   -0.78109E-04  8112   0.150E-03 0.348E-05
CGA:  20    -0.319191912943E+03   -0.28809E-04   -0.28654E-04  8112   0.790E-04 0.239E-05
CGA:  21    -0.319191924608E+03   -0.11666E-04   -0.11657E-04  8112   0.677E-04 0.518E-06
CGA:  22    -0.319191932866E+03   -0.82580E-05   -0.82590E-05  8112   0.365E-04 0.972E-07
  27 F= -.31919193E+03 E0= -.31918727E+03  d E =-.178306E+01  mag=    44.0000
       N       E                     dE             d eps       ncg     rms          ort
SDA:   1    -0.316032530381E+03    0.31594E+01    0.00000E+00  8112   0.108E+02 0.000E+00
CGA:   2    -0.317968799537E+03   -0.19363E+01   -0.19374E+01  8112   0.615E+01-0.196E-01
CGA:   3    -0.318836821153E+03   -0.86802E+00   -0.86588E+00  8112   0.358E+01 0.133E+00
CGA:   4    -0.319212278451E+03   -0.37546E+00   -0.36585E+00  8112   0.127E+01-0.539E-01
CGA:   5    -0.319351291276E+03   -0.13901E+00   -0.13944E+00  8112   0.424E+00 0.618E-02
CGA:   6    -0.319403042618E+03   -0.51751E-01   -0.51684E-01  8112   0.143E+00-0.330E-02
CGA:   7    -0.319423456647E+03   -0.20414E-01   -0.20406E-01  8112   0.499E-01 0.313E-03
CGA:   8    -0.319429206181E+03   -0.57495E-02   -0.57431E-02  8112   0.315E-01-0.142E-03
CGA:   9    -0.319432700087E+03   -0.34939E-02   -0.34983E-02  8112   0.102E-01 0.917E-04
CGA:  10    -0.319434093614E+03   -0.13935E-02   -0.13936E-02  8112   0.537E-02-0.176E-05
CGA:  11    -0.319434928794E+03   -0.83518E-03   -0.83451E-03  8112   0.236E-02 0.182E-04
CGA:  12    -0.319435223493E+03   -0.29470E-03   -0.29470E-03  8112   0.158E-02 0.186E-05
CGA:  13    -0.319435416733E+03   -0.19324E-03   -0.19330E-03  8112   0.748E-03 0.493E-05
CGA:  14    -0.319435521168E+03   -0.10443E-03   -0.10442E-03  8112   0.318E-03 0.200E-05
CGA:  15    -0.319435577775E+03   -0.56607E-04   -0.56583E-04  8112   0.207E-03 0.452E-06
CGA:  16    -0.319435599994E+03   -0.22220E-04   -0.22207E-04  8112   0.101E-03-0.424E-06
CGA:  17    -0.319435613253E+03   -0.13258E-04   -0.13258E-04  8112   0.524E-04-0.510E-06
CGA:  18    -0.319435620719E+03   -0.74665E-05   -0.74699E-05  8112   0.210E-04-0.293E-06
  28 F= -.31943562E+03 E0= -.31943085E+03  d E =-.243688E+00  mag=    44.0000
       N       E                     dE             d eps       ncg     rms          ort
SDA:   1    -0.318149967229E+03    0.12856E+01    0.00000E+00  8112   0.405E+01 0.000E+00
CGA:   2    -0.318959761302E+03   -0.80979E+00   -0.81002E+00  8112   0.214E+01-0.242E-02
CGA:   3    -0.319315638108E+03   -0.35588E+00   -0.35486E+00  8112   0.115E+01 0.226E-01
CGA:   4    -0.319431782046E+03   -0.11614E+00   -0.11439E+00  8112   0.439E+00-0.527E-02
CGA:   5    -0.319475632102E+03   -0.43850E-01   -0.44069E-01  8112   0.155E+00 0.756E-03
CGA:   6    -0.319493545892E+03   -0.17914E-01   -0.17896E-01  8112   0.507E-01-0.334E-03
CGA:   7    -0.319500869995E+03   -0.73241E-02   -0.73235E-02  8112   0.155E-01 0.348E-04
CGA:   8    -0.319503032239E+03   -0.21622E-02   -0.21625E-02  8112   0.113E-01-0.179E-04
CGA:   9    -0.319504112262E+03   -0.10800E-02   -0.10819E-02  8112   0.348E-02 0.111E-04
CGA:  10    -0.319504598896E+03   -0.48663E-03   -0.48666E-03  8112   0.199E-02-0.140E-05
CGA:  11    -0.319504892561E+03   -0.29366E-03   -0.29360E-03  8112   0.747E-03 0.320E-05
CGA:  12    -0.319505004175E+03   -0.11161E-03   -0.11160E-03  8112   0.603E-03 0.981E-06
CGA:  13    -0.319505067874E+03   -0.63699E-04   -0.63752E-04  8112   0.239E-03 0.136E-05
CGA:  14    -0.319505102907E+03   -0.35033E-04   -0.35020E-04  8112   0.130E-03 0.962E-06
CGA:  15    -0.319505123974E+03   -0.21066E-04   -0.21047E-04  8112   0.577E-04 0.704E-06
CGA:  16    -0.319505131267E+03   -0.72933E-05   -0.72961E-05  8112   0.398E-04 0.319E-06
  29 F= -.31950513E+03 E0= -.31950031E+03  d E =-.695105E-01  mag=    44.0000
       N       E                     dE             d eps       ncg     rms          ort
SDA:   1    -0.319162737025E+03    0.34239E+00    0.00000E+00  8112   0.928E+00 0.000E+00
CGA:   2    -0.319419550599E+03   -0.25681E+00   -0.25656E+00  8112   0.530E+00 0.181E-02
CGA:   3    -0.319486220361E+03   -0.66670E-01   -0.66662E-01  8112   0.299E+00-0.326E-03
CGA:   4    -0.319513509578E+03   -0.27289E-01   -0.27435E-01  8112   0.883E-01-0.242E-03
CGA:   5    -0.319522935075E+03   -0.94255E-02   -0.93993E-02  8112   0.305E-01-0.202E-03
CGA:   6    -0.319526808412E+03   -0.38733E-02   -0.38740E-02  8112   0.873E-02 0.294E-04
CGA:   7    -0.319528104127E+03   -0.12957E-02   -0.12959E-02  8112   0.428E-02-0.793E-05
CGA:   8    -0.319528501012E+03   -0.39688E-03   -0.39750E-03  8112   0.193E-02 0.167E-05
CGA:   9    -0.319528762249E+03   -0.26124E-03   -0.26123E-03  8112   0.724E-03 0.190E-05
CGA:  10    -0.319528867825E+03   -0.10558E-03   -0.10556E-03  8112   0.399E-03 0.136E-05
CGA:  11    -0.319528924286E+03   -0.56461E-04   -0.56460E-04  8112   0.230E-03 0.354E-07
CGA:  12    -0.319528950084E+03   -0.25798E-04   -0.25791E-04  8112   0.131E-03-0.418E-06
CGA:  13    -0.319528968556E+03   -0.18472E-04   -0.18476E-04  8112   0.595E-04-0.482E-06
CGA:  14    -0.319528977581E+03   -0.90254E-05   -0.90154E-05  8112   0.282E-04 0.544E-06
  30 F= -.31952898E+03 E0= -.31952416E+03  d E =-.238463E-01  mag=    44.0000
       N       E                     dE             d eps       ncg     rms          ort
SDA:   1    -0.317547916630E+03    0.19811E+01    0.00000E+00  8112   0.491E+01 0.000E+00
CGA:   2    -0.319055499545E+03   -0.15076E+01   -0.15030E+01  8112   0.227E+01 0.309E-01
CGA:   3    -0.319371937782E+03   -0.31644E+00   -0.31688E+00  8112   0.115E+01 0.487E-01
CGA:   4    -0.319497657285E+03   -0.12572E+00   -0.12480E+00  8112   0.325E+00-0.397E-02
CGA:   5    -0.319527073736E+03   -0.29416E-01   -0.29700E-01  8112   0.150E+00-0.611E-03
CGA:   6    -0.319545519058E+03   -0.18445E-01   -0.18439E-01  8112   0.429E-01-0.941E-04
CGA:   7    -0.319551436930E+03   -0.59179E-02   -0.59178E-02  8112   0.142E-01 0.413E-04
CGA:   8    -0.319553678166E+03   -0.22412E-02   -0.22417E-02  8112   0.812E-02-0.214E-04
CGA:   9    -0.319554482038E+03   -0.80387E-03   -0.80527E-03  8112   0.399E-02 0.619E-05
CGA:  10    -0.319554986094E+03   -0.50406E-03   -0.50412E-03  8112   0.188E-02 0.775E-05
CGA:  11    -0.319555283462E+03   -0.29737E-03   -0.29722E-03  8112   0.918E-03 0.592E-05
CGA:  12    -0.319555430875E+03   -0.14741E-03   -0.14751E-03  8112   0.584E-03-0.432E-05
CGA:  13    -0.319555499520E+03   -0.68644E-04   -0.68631E-04  8112   0.348E-03-0.126E-05
CGA:  14    -0.319555537100E+03   -0.37581E-04   -0.37622E-04  8112   0.133E-03 0.144E-05
CGA:  15    -0.319555560430E+03   -0.23330E-04   -0.23159E-04  8112   0.488E-04 0.454E-05
CGA:  16    -0.319555566982E+03   -0.65515E-05   -0.65684E-05  8112   0.249E-04 0.219E-05
  31 F= -.31955557E+03 E0= -.31955076E+03  d E =-.265894E-01  mag=    44.0000
       N       E                     dE             d eps       ncg     rms          ort
SDA:   1    -0.319218795816E+03    0.33676E+00    0.00000E+00  8112   0.884E+00 0.000E+00
CGA:   2    -0.319421174039E+03   -0.20238E+00   -0.20139E+00  8112   0.925E+00 0.104E-01
CGA:   3    -0.319497051144E+03   -0.75877E-01   -0.73469E-01  8112   0.270E+00 0.552E-02
CGA:   4    -0.319536536198E+03   -0.39485E-01   -0.39468E-01  8112   0.943E-01 0.134E-02
CGA:   5    -0.319546744875E+03   -0.10209E-01   -0.10185E-01  8112   0.272E-01-0.172E-03
CGA:   6    -0.319550512516E+03   -0.37676E-02   -0.37675E-02  8112   0.108E-01 0.386E-04
CGA:   7    -0.319551570265E+03   -0.10577E-02   -0.10565E-02  8112   0.538E-02-0.463E-05
CGA:   8    -0.319552185564E+03   -0.61530E-03   -0.61541E-03  8112   0.170E-02 0.337E-07
CGA:   9    -0.319552445274E+03   -0.25971E-03   -0.25973E-03  8112   0.713E-03-0.908E-06
CGA:  10    -0.319552548768E+03   -0.10349E-03   -0.10347E-03  8112   0.511E-03 0.161E-05
CGA:  11    -0.319552601885E+03   -0.53117E-04   -0.53128E-04  8112   0.228E-03 0.485E-06
CGA:  12    -0.319552635660E+03   -0.33775E-04   -0.33782E-04  8112   0.132E-03-0.527E-06
CGA:  13    -0.319552656188E+03   -0.20528E-04   -0.20546E-04  8112   0.675E-04-0.859E-06
CGA:  14    -0.319552665170E+03   -0.89819E-05   -0.89823E-05  8112   0.453E-04 0.243E-06
  32 F= -.31955267E+03 E0= -.31954786E+03  d E =0.290181E-02  mag=    44.0000
       N       E                     dE             d eps       ncg     rms          ort
SDA:   1    -0.319375929127E+03    0.17673E+00    0.00000E+00  8112   0.446E+00 0.000E+00
CGA:   2    -0.319496225714E+03   -0.12030E+00   -0.12033E+00  8112   0.217E+00-0.281E-03
CGA:   3    -0.319528375045E+03   -0.32149E-01   -0.32136E-01  8112   0.107E+00 0.996E-03
CGA:   4    -0.319539780380E+03   -0.11405E-01   -0.11374E-01  8112   0.340E-01-0.152E-03
CGA:   5    -0.319542771448E+03   -0.29911E-02   -0.29981E-02  8112   0.131E-01-0.116E-04
CGA:   6    -0.319544291026E+03   -0.15196E-02   -0.15197E-02  8112   0.405E-02 0.569E-05
CGA:   7    -0.319544904742E+03   -0.61372E-03   -0.61376E-03  8112   0.131E-02-0.236E-05
CGA:   8    -0.319545093383E+03   -0.18864E-03   -0.18866E-03  8112   0.804E-03-0.171E-05
CGA:   9    -0.319545172900E+03   -0.79517E-04   -0.79528E-04  8112   0.376E-03-0.362E-06
CGA:  10    -0.319545223593E+03   -0.50693E-04   -0.50693E-04  8112   0.196E-03 0.379E-07
CGA:  11    -0.319545252389E+03   -0.28796E-04   -0.28792E-04  8112   0.996E-04 0.279E-06
CGA:  12    -0.319545270647E+03   -0.18258E-04   -0.18275E-04  8112   0.718E-04-0.350E-06
CGA:  13    -0.319545278184E+03   -0.75371E-05   -0.75354E-05  8112   0.428E-04-0.752E-07
  33 F= -.31954528E+03 E0= -.31954045E+03  d E =0.738699E-02  mag=    44.0000
       N       E                     dE             d eps       ncg     rms          ort
SDA:   1    -0.319057883434E+03    0.48739E+00    0.00000E+00  8112   0.123E+01 0.000E+00
CGA:   2    -0.319394375051E+03   -0.33649E+00   -0.33641E+00  8112   0.714E+00 0.673E-03
CGA:   3    -0.319469548438E+03   -0.75173E-01   -0.74925E-01  8112   0.464E+00-0.265E-02
CGA:   4    -0.319514440995E+03   -0.44893E-01   -0.45118E-01  8112   0.970E-01 0.889E-04
CGA:   5    -0.319526941268E+03   -0.12500E-01   -0.12495E-01  8112   0.299E-01-0.214E-03
CGA:   6    -0.319530815017E+03   -0.38737E-02   -0.38749E-02  8112   0.122E-01 0.673E-04
CGA:   7    -0.319532245169E+03   -0.14302E-02   -0.14298E-02  8112   0.604E-02-0.453E-05
CGA:   8    -0.319532808602E+03   -0.56343E-03   -0.56366E-03  8112   0.225E-02-0.143E-05
CGA:   9    -0.319533151842E+03   -0.34324E-03   -0.34325E-03  8112   0.839E-03-0.112E-05
CGA:  10    -0.319533293188E+03   -0.14135E-03   -0.14133E-03  8112   0.573E-03 0.265E-06
CGA:  11    -0.319533353526E+03   -0.60338E-04   -0.60341E-04  8112   0.344E-03 0.379E-06
CGA:  12    -0.319533403843E+03   -0.50317E-04   -0.50309E-04  8112   0.169E-03 0.723E-06
CGA:  13    -0.319533432084E+03   -0.28241E-04   -0.28236E-04  8112   0.106E-03 0.151E-06
CGA:  14    -0.319533445344E+03   -0.13260E-04   -0.13262E-04  8112   0.581E-04 0.121E-06
CGA:  15    -0.319533452036E+03   -0.66921E-05   -0.66927E-05  8112   0.320E-04 0.303E-07
  34 F= -.31953345E+03 E0= -.31952862E+03  d E =0.118261E-01  mag=    44.0000
       N       E                     dE             d eps       ncg     rms          ort
SDA:   1    -0.317970963201E+03    0.15625E+01    0.00000E+00  8112   0.395E+01 0.000E+00
CGA:   2    -0.319025612615E+03   -0.10546E+01   -0.10568E+01  8112   0.266E+01-0.154E-01
CGA:   3    -0.319316716271E+03   -0.29110E+00   -0.29238E+00  8112   0.139E+01-0.527E-03
CGA:   4    -0.319444702097E+03   -0.12799E+00   -0.12895E+00  8112   0.422E+00-0.335E-02
CGA:   5    -0.319488886817E+03   -0.44185E-01   -0.43869E-01  8112   0.125E+00-0.142E-02
CGA:   6    -0.319505315427E+03   -0.16429E-01   -0.16432E-01  8112   0.440E-01 0.368E-03
CGA:   7    -0.319510944922E+03   -0.56295E-02   -0.56290E-02  8112   0.222E-01-0.208E-04
CGA:   8    -0.319513015880E+03   -0.20710E-02   -0.20747E-02  8112   0.965E-02 0.127E-05
CGA:   9    -0.319514260002E+03   -0.12441E-02   -0.12441E-02  8112   0.313E-02-0.599E-05
CGA:  10    -0.319514783295E+03   -0.52329E-03   -0.52313E-03  8112   0.199E-02 0.361E-05
CGA:  11    -0.319514999585E+03   -0.21629E-03   -0.21631E-03  8112   0.112E-02 0.104E-05
CGA:  12    -0.319515146728E+03   -0.14714E-03   -0.14715E-03  8112   0.654E-03 0.211E-05
CGA:  13    -0.319515241542E+03   -0.94815E-04   -0.94804E-04  8112   0.306E-03 0.991E-06
CGA:  14    -0.319515290430E+03   -0.48888E-04   -0.48868E-04  8112   0.223E-03 0.706E-06
CGA:  15    -0.319515313066E+03   -0.22636E-04   -0.22639E-04  8112   0.102E-03 0.107E-06
CGA:  16    -0.319515326944E+03   -0.13878E-04   -0.13878E-04  8112   0.456E-04 0.452E-07
CGA:  17    -0.319515333884E+03   -0.69399E-05   -0.69362E-05  8112   0.215E-04 0.202E-06
  35 F= -.31951533E+03 E0= -.31951046E+03  d E =0.181182E-01  mag=    44.0000
       N       E                     dE             d eps       ncg     rms          ort
SDA:   1    -0.319220253963E+03    0.29507E+00    0.00000E+00  8112   0.801E+00 0.000E+00
CGA:   2    -0.319382572686E+03   -0.16232E+00   -0.16143E+00  8112   0.962E+00 0.117E-01
CGA:   3    -0.319465220270E+03   -0.82648E-01   -0.80750E-01  8112   0.278E+00 0.101E-02
CGA:   4    -0.319505981768E+03   -0.40761E-01   -0.40753E-01  8112   0.614E-01 0.420E-03
CGA:   5    -0.319514201203E+03   -0.82194E-02   -0.82192E-02  8112   0.304E-01-0.985E-04
CGA:   6    -0.319516912252E+03   -0.27110E-02   -0.27182E-02  8112   0.115E-01 0.532E-05
CGA:   7    -0.319518285743E+03   -0.13735E-02   -0.13736E-02  8112   0.402E-02 0.600E-05
CGA:   8    -0.319518813059E+03   -0.52732E-03   -0.52732E-03  8112   0.175E-02 0.930E-06
CGA:   9    -0.319519025718E+03   -0.21266E-03   -0.21264E-03  8112   0.891E-03-0.102E-05
CGA:  10    -0.319519118627E+03   -0.92910E-04   -0.92927E-04  8112   0.402E-03-0.390E-07
CGA:  11    -0.319519174439E+03   -0.55812E-04   -0.55813E-04  8112   0.192E-03-0.987E-07
CGA:  12    -0.319519203982E+03   -0.29543E-04   -0.29531E-04  8112   0.115E-03 0.451E-06
CGA:  13    -0.319519216667E+03   -0.12686E-04   -0.12689E-04  8112   0.682E-04 0.188E-06
CGA:  14    -0.319519226106E+03   -0.94384E-05   -0.94381E-05  8112   0.324E-04 0.428E-07
  36 F= -.31951923E+03 E0= -.31951439E+03  d E =-.389222E-02  mag=    44.0000
       N       E                     dE             d eps       ncg     rms          ort
SDA:   1    -0.318774228674E+03    0.74499E+00    0.00000E+00  8112   0.177E+01 0.000E+00
CGA:   2    -0.319322314238E+03   -0.54809E+00   -0.54755E+00  8112   0.123E+01 0.356E-02
CGA:   3    -0.319435586084E+03   -0.11327E+00   -0.11202E+00  8112   0.589E+00-0.483E-02
CGA:   4    -0.319491887717E+03   -0.56302E-01   -0.56505E-01  8112   0.134E+00 0.252E-04
CGA:   5    -0.319509827000E+03   -0.17939E-01   -0.17938E-01  8112   0.403E-01-0.266E-03
CGA:   6    -0.319515422377E+03   -0.55954E-02   -0.55949E-02  8112   0.190E-01 0.813E-04
CGA:   7    -0.319517168028E+03   -0.17457E-02   -0.17432E-02  8112   0.834E-02 0.114E-05
CGA:   8    -0.319518161364E+03   -0.99334E-03   -0.99347E-03  8112   0.264E-02 0.293E-05
CGA:   9    -0.319518537973E+03   -0.37661E-03   -0.37663E-03  8112   0.122E-02-0.169E-05
CGA:  10    -0.319518692144E+03   -0.15417E-03   -0.15418E-03  8112   0.717E-03 0.303E-06
CGA:  11    -0.319518772017E+03   -0.79873E-04   -0.79885E-04  8112   0.374E-03 0.535E-06
CGA:  12    -0.319518824350E+03   -0.52333E-04   -0.52324E-04  8112   0.200E-03 0.107E-05
CGA:  13    -0.319518855908E+03   -0.31558E-04   -0.31550E-04  8112   0.105E-03 0.366E-06
CGA:  14    -0.319518869668E+03   -0.13760E-04   -0.13761E-04  8112   0.808E-04 0.928E-08
CGA:  15    -0.319518878102E+03   -0.84335E-05   -0.84315E-05  8112   0.247E-04-0.743E-07
  37 F= -.31951888E+03 E0= -.31951408E+03  d E =0.348004E-03  mag=    44.0000
       N       E                     dE             d eps       ncg     rms          ort
SDA:   1    -0.314906478941E+03    0.46124E+01    0.00000E+00  8112   0.112E+02 0.000E+00
CGA:   2    -0.318041278939E+03   -0.31348E+01   -0.30558E+01  8112   0.959E+01 0.571E+00
CGA:   3    -0.318930733266E+03   -0.88945E+00   -0.78103E+00  8112   0.304E+01-0.480E-01
CGA:   4    -0.319358774498E+03   -0.42804E+00   -0.42806E+00  8112   0.737E+00-0.226E-02
CGA:   5    -0.319458444748E+03   -0.99670E-01   -0.99646E-01  8112   0.259E+00-0.370E-02
CGA:   6    -0.319488911830E+03   -0.30467E-01   -0.30524E-01  8112   0.123E+00 0.993E-03
CGA:   7    -0.319500668051E+03   -0.11756E-01   -0.11767E-01  8112   0.545E-01 0.151E-04
CGA:   8    -0.319506342606E+03   -0.56746E-02   -0.56894E-02  8112   0.188E-01 0.996E-04
CGA:   9    -0.319509023811E+03   -0.26812E-02   -0.26810E-02  8112   0.680E-02 0.128E-04
CGA:  10    -0.319510094101E+03   -0.10703E-02   -0.10694E-02  8112   0.494E-02 0.271E-04
CGA:  11    -0.319510541535E+03   -0.44743E-03   -0.44820E-03  8112   0.225E-02 0.397E-05
CGA:  12    -0.319510924500E+03   -0.38296E-03   -0.38249E-03  8112   0.121E-02 0.107E-04
CGA:  13    -0.319511110320E+03   -0.18582E-03   -0.18576E-03  8112   0.685E-03 0.283E-05
CGA:  14    -0.319511197720E+03   -0.87400E-04   -0.87426E-04  8112   0.484E-03 0.211E-05
CGA:  15    -0.319511247782E+03   -0.50062E-04   -0.50118E-04  8112   0.169E-03 0.140E-05
CGA:  16    -0.319511272590E+03   -0.24808E-04   -0.24788E-04  8112   0.709E-04 0.152E-05
CGA:  17    -0.319511282151E+03   -0.95605E-05   -0.95612E-05  8112   0.338E-04 0.100E-05
  38 F= -.31951128E+03 E0= -.31950651E+03  d E =0.759595E-02  mag=    44.0000
       N       E                     dE             d eps       ncg     rms          ort
SDA:   1    -0.271917109485E+03    0.47594E+02    0.00000E+00  8112   0.120E+03 0.000E+00
CGA:   2    -0.303909847385E+03   -0.31993E+02   -0.30915E+02  8112   0.985E+02 0.525E+01
CGA:   3    -0.313218662530E+03   -0.93088E+01   -0.90042E+01  8112   0.336E+02-0.319E+01
CGA:   4    -0.317404117360E+03   -0.41855E+01   -0.37511E+01  8112   0.170E+02-0.636E+01
CGA:   5    -0.318600422760E+03   -0.11963E+01   -0.12459E+01  8112   0.458E+01-0.367E-01
CGA:   6    -0.318953164668E+03   -0.35274E+00   -0.34201E+00  8112   0.335E+01-0.338E-01
CGA:   7    -0.319256597755E+03   -0.30343E+00   -0.31113E+00  8112   0.930E+00 0.179E-01
CGA:   8    -0.319345818367E+03   -0.89221E-01   -0.88955E-01  8112   0.801E+00-0.330E-02
CGA:   9    -0.319410784622E+03   -0.64966E-01   -0.69472E-01  8112   0.233E+00 0.103E-01
CGA:  10    -0.319439050995E+03   -0.28266E-01   -0.28282E-01  8112   0.142E+00 0.140E-02
CGA:  11    -0.319453127362E+03   -0.14076E-01   -0.14403E-01  8112   0.826E-01 0.420E-02
CGA:  12    -0.319462886458E+03   -0.97591E-02   -0.97709E-02  8112   0.420E-01 0.630E-03
CGA:  13    -0.319467923575E+03   -0.50371E-02   -0.50405E-02  8112   0.252E-01 0.465E-03
CGA:  14    -0.319471567487E+03   -0.36439E-02   -0.36336E-02  8112   0.166E-01 0.348E-03
CGA:  15    -0.319473179107E+03   -0.16116E-02   -0.16225E-02  8112   0.626E-02 0.101E-03
CGA:  16    -0.319474224032E+03   -0.10449E-02   -0.10419E-02  8112   0.407E-02 0.569E-04
CGA:  17    -0.319474601706E+03   -0.37767E-03   -0.37967E-03  8112   0.154E-02 0.182E-04
CGA:  18    -0.319474806967E+03   -0.20526E-03   -0.20510E-03  8112   0.659E-03 0.146E-04
CGA:  19    -0.319474890076E+03   -0.83109E-04   -0.83091E-04  8112   0.389E-03 0.862E-05
CGA:  20    -0.319474931109E+03   -0.41033E-04   -0.41120E-04  8112   0.125E-03 0.389E-05
CGA:  21    -0.319474951195E+03   -0.20086E-04   -0.20035E-04  8112   0.101E-03 0.127E-05
CGA:  22    -0.319474962711E+03   -0.11515E-04   -0.11521E-04  8112   0.392E-04 0.368E-06
CGA:  23    -0.319474968442E+03   -0.57312E-05   -0.57307E-05  8112   0.314E-04-0.665E-08
  39 F= -.31947497E+03 E0= -.31947041E+03  d E =0.363137E-01  mag=    44.0000
       N       E                     dE             d eps       ncg     rms          ort
SDA:   1    -0.311530822532E+03    0.79441E+01    0.00000E+00  8112   0.191E+02 0.000E+00
CGA:   2    -0.317538404253E+03   -0.60076E+01   -0.59938E+01  8112   0.101E+02 0.382E-01
CGA:   3    -0.318910759802E+03   -0.13724E+01   -0.13724E+01  8112   0.352E+01-0.828E-03
CGA:   4    -0.319284259025E+03   -0.37350E+00   -0.37420E+00  8112   0.136E+01 0.280E-02
CGA:   5    -0.319406877149E+03   -0.12262E+00   -0.12204E+00  8112   0.514E+00-0.460E-02
CGA:   6    -0.319466823990E+03   -0.59947E-01   -0.59968E-01  8112   0.176E+00 0.599E-03
CGA:   7    -0.319490872490E+03   -0.24048E-01   -0.24049E-01  8112   0.578E-01-0.150E-04
CGA:   8    -0.319499549484E+03   -0.86770E-02   -0.86753E-02  8112   0.248E-01 0.553E-04
CGA:   9    -0.319502246028E+03   -0.26965E-02   -0.26962E-02  8112   0.159E-01 0.354E-07
CGA:  10    -0.319503970984E+03   -0.17250E-02   -0.17255E-02  8112   0.610E-02 0.141E-04
CGA:  11    -0.319504970250E+03   -0.99927E-03   -0.99836E-03  8112   0.324E-02 0.222E-04
CGA:  12    -0.319505501713E+03   -0.53146E-03   -0.53068E-03  8112   0.203E-02 0.200E-04
CGA:  13    -0.319505735346E+03   -0.23363E-03   -0.23374E-03  8112   0.138E-02 0.531E-05
CGA:  14    -0.319505897231E+03   -0.16188E-03   -0.16197E-03  8112   0.553E-03 0.527E-05
CGA:  15    -0.319505978957E+03   -0.81726E-04   -0.81647E-04  8112   0.227E-03 0.483E-05
CGA:  16    -0.319506012956E+03   -0.33999E-04   -0.33955E-04  8112   0.117E-03 0.273E-05
CGA:  17    -0.319506023623E+03   -0.10667E-04   -0.10712E-04  8112   0.533E-04 0.104E-05
CGA:  18    -0.319506030714E+03   -0.70909E-05   -0.70901E-05  8112   0.187E-04 0.856E-06
  40 F= -.31950603E+03 E0= -.31950134E+03  d E =-.310623E-01  mag=    44.0000
       N       E                     dE             d eps       ncg     rms          ort
SDA:   1    -0.318285070132E+03    0.12210E+01    0.00000E+00  8112   0.309E+01 0.000E+00
CGA:   2    -0.319058512206E+03   -0.77344E+00   -0.77096E+00  8112   0.329E+01 0.248E-01
CGA:   3    -0.319312187357E+03   -0.25368E+00   -0.25508E+00  8112   0.111E+01-0.691E-01
CGA:   4    -0.319456377687E+03   -0.14419E+00   -0.14418E+00  8112   0.240E+00-0.333E-02
CGA:   5    -0.319489448725E+03   -0.33071E-01   -0.33074E-01  8112   0.107E+00-0.451E-03
CGA:   6    -0.319498769759E+03   -0.93210E-02   -0.93254E-02  8112   0.446E-01-0.644E-04
CGA:   7    -0.319504170688E+03   -0.54009E-02   -0.54016E-02  8112   0.141E-01 0.235E-04
CGA:   8    -0.319506044462E+03   -0.18738E-02   -0.18738E-02  8112   0.664E-02-0.162E-05
CGA:   9    -0.319506771601E+03   -0.72714E-03   -0.72760E-03  8112   0.348E-02 0.866E-05
CGA:  10    -0.319507146990E+03   -0.37539E-03   -0.37558E-03  8112   0.138E-02 0.390E-05
CGA:  11    -0.319507360882E+03   -0.21389E-03   -0.21389E-03  8112   0.730E-03 0.239E-06
CGA:  12    -0.319507454254E+03   -0.93371E-04   -0.93376E-04  8112   0.523E-03 0.121E-05
CGA:  13    -0.319507512286E+03   -0.58032E-04   -0.58073E-04  8112   0.220E-03 0.153E-05
CGA:  14    -0.319507551296E+03   -0.39010E-04   -0.38930E-04  8112   0.126E-03 0.174E-05
CGA:  15    -0.319507564773E+03   -0.13477E-04   -0.13502E-04  8112   0.721E-04 0.929E-06
CGA:  16    -0.319507574016E+03   -0.92429E-05   -0.92458E-05  8112   0.309E-04 0.803E-06
  41 F= -.31950757E+03 E0= -.31950282E+03  d E =-.154330E-02  mag=    44.0000
       N       E                     dE             d eps       ncg     rms          ort
SDA:   1    -0.318118212515E+03    0.13894E+01    0.00000E+00  8112   0.341E+01 0.000E+00
CGA:   2    -0.319016527222E+03   -0.89831E+00   -0.89061E+00  8112   0.381E+01 0.713E-01
CGA:   3    -0.319310507378E+03   -0.29398E+00   -0.28200E+00  8112   0.103E+01-0.424E-01
CGA:   4    -0.319454713291E+03   -0.14421E+00   -0.14422E+00  8112   0.252E+00-0.100E-02
CGA:   5    -0.319486388220E+03   -0.31675E-01   -0.31669E-01  8112   0.108E+00-0.272E-03
CGA:   6    -0.319496644058E+03   -0.10256E-01   -0.10264E-01  8112   0.462E-01 0.128E-04
CGA:   7    -0.319501654411E+03   -0.50104E-02   -0.50124E-02  8112   0.175E-01 0.325E-04
CGA:   8    -0.319503783008E+03   -0.21286E-02   -0.21287E-02  8112   0.602E-02 0.604E-05
CGA:   9    -0.319504597090E+03   -0.81408E-03   -0.81407E-03  8112   0.336E-02 0.125E-06
CGA:  10    -0.319504918121E+03   -0.32103E-03   -0.32120E-03  8112   0.158E-02 0.574E-06
CGA:  11    -0.319505145902E+03   -0.22778E-03   -0.22773E-03  8112   0.646E-03 0.253E-05
CGA:  12    -0.319505256648E+03   -0.11075E-03   -0.11065E-03  8112   0.539E-03 0.220E-05
CGA:  13    -0.319505309706E+03   -0.53058E-04   -0.53091E-04  8112   0.253E-03 0.591E-06
CGA:  14    -0.319505349892E+03   -0.40186E-04   -0.40182E-04  8112   0.137E-03 0.786E-07
CGA:  15    -0.319505367422E+03   -0.17530E-04   -0.17531E-04  8112   0.675E-04 0.262E-06
CGA:  16    -0.319505375383E+03   -0.79607E-05   -0.79651E-05  8112   0.390E-04 0.313E-06
  42 F= -.31950538E+03 E0= -.31950067E+03  d E =0.219863E-02  mag=    44.0000
       N       E                     dE             d eps       ncg     rms          ort
SDA:   1    -0.319369811582E+03    0.13556E+00    0.00000E+00  8112   0.332E+00 0.000E+00
CGA:   2    -0.319468022924E+03   -0.98211E-01   -0.98231E-01  8112   0.205E+00-0.123E-03
CGA:   3    -0.319492603072E+03   -0.24580E-01   -0.24584E-01  8112   0.102E+00 0.633E-04
CGA:   4    -0.319501122976E+03   -0.85199E-02   -0.85142E-02  8112   0.316E-01-0.251E-04
CGA:   5    -0.319504534306E+03   -0.34113E-02   -0.34121E-02  8112   0.960E-02 0.108E-04
CGA:   6    -0.319505791557E+03   -0.12573E-02   -0.12573E-02  8112   0.320E-02 0.389E-05
CGA:   7    -0.319506225217E+03   -0.43366E-03   -0.43366E-03  8112   0.157E-02 0.340E-06
CGA:   8    -0.319506366208E+03   -0.14099E-03   -0.14099E-03  8112   0.684E-03-0.514E-06
CGA:   9    -0.319506451688E+03   -0.85480E-04   -0.85479E-04  8112   0.243E-03-0.646E-07
CGA:  10    -0.319506489277E+03   -0.37589E-04   -0.37579E-04  8112   0.117E-03 0.405E-06
CGA:  11    -0.319506504230E+03   -0.14954E-04   -0.14955E-04  8112   0.862E-04 0.405E-06
CGA:  12    -0.319506513719E+03   -0.94889E-05   -0.94933E-05  8112   0.393E-04 0.203E-06
  43 F= -.31950651E+03 E0= -.31950181E+03  d E =-.113834E-02  mag=    44.0000
       N       E                     dE             d eps       ncg     rms          ort
[...]
CGA:  10    -0.319547183045E+03   -0.31807E-04   -0.31807E-04  8112   0.119E-03 0.690E-07
CGA:  11    -0.319547200875E+03   -0.17830E-04   -0.17827E-04  8112   0.491E-04 0.171E-06
CGA:  12    -0.319547208265E+03   -0.73903E-05   -0.73822E-05  8112   0.467E-04 0.491E-06
  61 F= -.31954721E+03 E0= -.31954260E+03  d E =-.222299E-02  mag=    44.0000
       N       E                     dE             d eps       ncg     rms          ort
SDA:   1    -0.298323458689E+03    0.21224E+02    0.00000E+00  8112   0.607E+02 0.000E+00
CGA:   2    -0.310880824708E+03   -0.12557E+02   -0.12442E+02  8112   0.427E+02 0.166E+01
CGA:   3    -0.315471730070E+03   -0.45909E+01   -0.44184E+01  8112   0.238E+02-0.274E+01
CGA:   4    -0.317900431645E+03   -0.24287E+01   -0.23296E+01  8112   0.846E+01-0.368E+00
CGA:   5    -0.318721899561E+03   -0.82147E+00   -0.80235E+00  8112   0.351E+01-0.490E-01
CGA:   6    -0.318942200418E+03   -0.22030E+00   -0.24270E+00  8112   0.268E+01-0.200E+00
CGA:   7    -0.319121438414E+03   -0.17924E+00   -0.18059E+00  8112   0.581E+00-0.300E-02
CGA:   8    -0.319188752881E+03   -0.67314E-01   -0.67344E-01  8112   0.486E+00 0.114E-02
CGA:   9    -0.319219057893E+03   -0.30305E-01   -0.32439E-01  8112   0.197E+00-0.112E-01
CGA:  10    -0.319241117274E+03   -0.22059E-01   -0.22095E-01  8112   0.658E-01 0.228E-02
CGA:  11    -0.319251944397E+03   -0.10827E-01   -0.10769E-01  8112   0.416E-01 0.108E-02
CGA:  12    -0.319256413389E+03   -0.44690E-02   -0.45043E-02  8112   0.307E-01 0.747E-03
CGA:  13    -0.319259558813E+03   -0.31454E-02   -0.31541E-02  8112   0.121E-01 0.132E-03
CGA:  14    -0.319261786698E+03   -0.22279E-02   -0.22198E-02  8112   0.607E-02 0.113E-03
CGA:  15    -0.319262909648E+03   -0.11229E-02   -0.11203E-02  8112   0.259E-02 0.386E-04
CGA:  16    -0.319263437890E+03   -0.52824E-03   -0.52708E-03  8112   0.121E-02 0.145E-04
CGA:  17    -0.319263630659E+03   -0.19277E-03   -0.19243E-03  8112   0.567E-03 0.103E-04
CGA:  18    -0.319263712899E+03   -0.82240E-04   -0.82199E-04  8112   0.476E-03 0.335E-05
CGA:  19    -0.319263757408E+03   -0.44509E-04   -0.44594E-04  8112   0.159E-03 0.161E-05
CGA:  20    -0.319263787151E+03   -0.29743E-04   -0.29696E-04  8112   0.905E-04 0.787E-06
CGA:  21    -0.319263804220E+03   -0.17069E-04   -0.17089E-04  8112   0.472E-04-0.395E-06
CGA:  22    -0.319263814012E+03   -0.97920E-05   -0.98228E-05  8112   0.341E-04-0.438E-06
  62 F= -.31926381E+03 E0= -.31925941E+03  d E =0.283394E+00  mag=    44.0000
       N       E                     dE             d eps       ncg     rms          ort
SDA:   1    -0.304260285732E+03    0.15004E+02    0.00000E+00  8112   0.563E+02 0.000E+00
CGA:   2    -0.312361268463E+03   -0.81010E+01   -0.80736E+01  8112   0.259E+02 0.329E+01
CGA:   3    -0.316340976913E+03   -0.39797E+01   -0.40133E+01  8112   0.201E+02-0.249E+01
CGA:   4    -0.318323447772E+03   -0.19825E+01   -0.17950E+01  8112   0.564E+01 0.632E-01
CGA:   5    -0.318914063012E+03   -0.59062E+00   -0.59504E+00  8112   0.353E+01 0.174E-01
CGA:   6    -0.319194542121E+03   -0.28048E+00   -0.27404E+00  8112   0.116E+01 0.662E-01
CGA:   7    -0.319300142700E+03   -0.10560E+00   -0.10612E+00  8112   0.698E+00 0.381E-03
CGA:   8    -0.319360963682E+03   -0.60821E-01   -0.61050E-01  8112   0.254E+00-0.170E-03
CGA:   9    -0.319388525052E+03   -0.27561E-01   -0.27966E-01  8112   0.125E+00 0.756E-02
CGA:  10    -0.319400919895E+03   -0.12395E-01   -0.12584E-01  8112   0.839E-01 0.121E-02
CGA:  11    -0.319409553563E+03   -0.86337E-02   -0.86671E-02  8112   0.270E-01 0.418E-03
CGA:  12    -0.319413547465E+03   -0.39939E-02   -0.39749E-02  8112   0.186E-01 0.579E-03
CGA:  13    -0.319415974562E+03   -0.24271E-02   -0.24250E-02  8112   0.618E-02 0.732E-03
CGA:  14    -0.319417112923E+03   -0.11384E-02   -0.11355E-02  8112   0.389E-02 0.462E-04
CGA:  15    -0.319417579551E+03   -0.46663E-03   -0.46689E-03  8112   0.297E-02 0.136E-04
CGA:  16    -0.319417889650E+03   -0.31010E-03   -0.31054E-03  8112   0.924E-03 0.598E-05
CGA:  17    -0.319418077941E+03   -0.18829E-03   -0.18842E-03  8112   0.475E-03-0.185E-05
CGA:  18    -0.319418155011E+03   -0.77070E-04   -0.77047E-04  8112   0.192E-03-0.149E-07
CGA:  19    -0.319418181643E+03   -0.26633E-04   -0.26629E-04  8112   0.165E-03 0.414E-06
CGA:  20    -0.319418200058E+03   -0.18415E-04   -0.18429E-04  8112   0.703E-04 0.591E-06
CGA:  21    -0.319418208578E+03   -0.85200E-05   -0.85274E-05  8112   0.360E-04 0.636E-06
  63 F= -.31941821E+03 E0= -.31941374E+03  d E =-.154395E+00  mag=    44.0000
       N       E                     dE             d eps       ncg     rms          ort
SDA:   1    -0.317671473634E+03    0.17467E+01    0.00000E+00  8112   0.571E+01 0.000E+00
CGA:   2    -0.318699338371E+03   -0.10279E+01   -0.10280E+01  8112   0.360E+01 0.656E-03
CGA:   3    -0.319108579314E+03   -0.40924E+00   -0.41088E+00  8112   0.245E+01 0.164E-01
CGA:   4    -0.319373436598E+03   -0.26486E+00   -0.26330E+00  8112   0.644E+00-0.134E-01
CGA:   5    -0.319454628428E+03   -0.81192E-01   -0.81180E-01  8112   0.230E+00-0.661E-03
CGA:   6    -0.319482356861E+03   -0.27728E-01   -0.27738E-01  8112   0.840E-01 0.290E-03
CGA:   7    -0.319492110684E+03   -0.97538E-02   -0.97619E-02  8112   0.425E-01 0.167E-03
CGA:   8    -0.319496105824E+03   -0.39951E-02   -0.39940E-02  8112   0.142E-01-0.230E-05
CGA:   9    -0.319498421588E+03   -0.23158E-02   -0.23148E-02  8112   0.569E-02 0.233E-04
CGA:  10    -0.319499138452E+03   -0.71686E-03   -0.71695E-03  8112   0.323E-02 0.937E-05
CGA:  11    -0.319499531621E+03   -0.39317E-03   -0.39329E-03  8112   0.191E-02 0.735E-05
CGA:  12    -0.319499754356E+03   -0.22273E-03   -0.22277E-03  8112   0.673E-03 0.209E-05
CGA:  13    -0.319499876917E+03   -0.12256E-03   -0.12251E-03  8112   0.429E-03 0.759E-06
CGA:  14    -0.319499924221E+03   -0.47304E-04   -0.47315E-04  8112   0.239E-03 0.274E-06
CGA:  15    -0.319499955403E+03   -0.31182E-04   -0.31183E-04  8112   0.125E-03 0.842E-06
CGA:  16    -0.319499973376E+03   -0.17973E-04   -0.17962E-04  8112   0.520E-04 0.920E-06
CGA:  17    -0.319499980926E+03   -0.75502E-05   -0.75433E-05  8112   0.350E-04 0.592E-06
  64 F= -.31949998E+03 E0= -.31949553E+03  d E =-.817723E-01  mag=    44.0000
       N       E                     dE             d eps       ncg     rms          ort
SDA:   1    -0.319468212912E+03    0.31760E-01    0.00000E+00  8112   0.113E+00 0.000E+00
CGA:   2    -0.319486739051E+03   -0.18526E-01   -0.18526E-01  8112   0.114E+00 0.112E-04
CGA:   3    -0.319496769079E+03   -0.10030E-01   -0.10037E-01  8112   0.376E-01-0.234E-04
CGA:   4    -0.319502683025E+03   -0.59139E-02   -0.59154E-02  8112   0.110E-01-0.386E-04
CGA:   5    -0.319504148453E+03   -0.14654E-02   -0.14654E-02  8112   0.411E-02 0.194E-05
CGA:   6    -0.319504607340E+03   -0.45889E-03   -0.45867E-03  8112   0.189E-02-0.558E-05
CGA:   7    -0.319504779817E+03   -0.17248E-03   -0.17241E-03  8112   0.631E-03-0.148E-05
CGA:   8    -0.319504875142E+03   -0.95325E-04   -0.95331E-04  8112   0.209E-03-0.269E-06
CGA:   9    -0.319504907118E+03   -0.31976E-04   -0.31968E-04  8112   0.131E-03 0.331E-06
CGA:  10    -0.319504920083E+03   -0.12965E-04   -0.12976E-04  8112   0.587E-04 0.320E-06
CGA:  11    -0.319504928374E+03   -0.82908E-05   -0.82877E-05  8112   0.313E-04 0.276E-06
  65 F= -.31950493E+03 E0= -.31950048E+03  d E =-.494745E-02  mag=    44.0000
       N       E                     dE             d eps       ncg     rms          ort
SDA:   1    -0.319304779724E+03    0.20014E+00    0.00000E+00  8112   0.607E+00 0.000E+00
CGA:   2    -0.319443718747E+03   -0.13894E+00   -0.13887E+00  8112   0.389E+00 0.612E-03
CGA:   3    -0.319483358450E+03   -0.39640E-01   -0.39531E-01  8112   0.199E+00-0.452E-03
CGA:   4    -0.319504972266E+03   -0.21614E-01   -0.21571E-01  8112   0.800E-01-0.444E-03
CGA:   5    -0.319513562886E+03   -0.85906E-02   -0.86023E-02  8112   0.175E-01 0.118E-03
CGA:   6    -0.319516329504E+03   -0.27666E-02   -0.27676E-02  8112   0.620E-02-0.300E-04
CGA:   7    -0.319517009467E+03   -0.67996E-03   -0.68005E-03  8112   0.344E-02-0.334E-06
CGA:   8    -0.319517367689E+03   -0.35822E-03   -0.35827E-03  8112   0.123E-02 0.663E-06
CGA:   9    -0.319517530951E+03   -0.16326E-03   -0.16326E-03  8112   0.574E-03 0.991E-06
CGA:  10    -0.319517623813E+03   -0.92863E-04   -0.92839E-04  8112   0.296E-03 0.788E-06
CGA:  11    -0.319517660820E+03   -0.37006E-04   -0.37010E-04  8112   0.205E-03 0.368E-06
CGA:  12    -0.319517686184E+03   -0.25364E-04   -0.25364E-04  8112   0.111E-03-0.295E-07
CGA:  13    -0.319517702313E+03   -0.16129E-04   -0.16132E-04  8112   0.503E-04-0.239E-06
CGA:  14    -0.319517710661E+03   -0.83488E-05   -0.83411E-05  8112   0.313E-04 0.228E-06
  66 F= -.31951771E+03 E0= -.31951329E+03  d E =-.127823E-01  mag=    44.0000
       N       E                     dE             d eps       ncg     rms          ort
SDA:   1    -0.319363607166E+03    0.15410E+00    0.00000E+00  8112   0.487E+00 0.000E+00
CGA:   2    -0.319464529018E+03   -0.10092E+00   -0.10051E+00  8112   0.401E+00 0.483E-02
CGA:   3    -0.319499234122E+03   -0.34705E-01   -0.34230E-01  8112   0.142E+00 0.592E-03
CGA:   4    -0.319517297434E+03   -0.18063E-01   -0.18058E-01  8112   0.688E-01-0.303E-03
CGA:   5    -0.319525204456E+03   -0.79070E-02   -0.79104E-02  8112   0.113E-01 0.644E-04
CGA:   6    -0.319527163663E+03   -0.19592E-02   -0.19599E-02  8112   0.513E-02-0.154E-04
CGA:   7    -0.319527638969E+03   -0.47531E-03   -0.47527E-03  8112   0.231E-02-0.154E-05
CGA:   8    -0.319527902069E+03   -0.26310E-03   -0.26315E-03  8112   0.906E-03 0.173E-05
CGA:   9    -0.319528028910E+03   -0.12684E-03   -0.12683E-03  8112   0.420E-03 0.133E-05
CGA:  10    -0.319528096807E+03   -0.67897E-04   -0.67892E-04  8112   0.243E-03 0.197E-06
CGA:  11    -0.319528127918E+03   -0.31111E-04   -0.31111E-04  8112   0.167E-03 0.110E-06
CGA:  12    -0.319528147408E+03   -0.19490E-04   -0.19490E-04  8112   0.908E-04 0.230E-07
CGA:  13    -0.319528162530E+03   -0.15121E-04   -0.15125E-04  8112   0.404E-04-0.104E-06
CGA:  14    -0.319528168692E+03   -0.61623E-05   -0.61578E-05  8112   0.244E-04 0.238E-06
  67 F= -.31952817E+03 E0= -.31952375E+03  d E =-.104580E-01  mag=    44.0000
       N       E                     dE             d eps       ncg     rms          ort
SDA:   1    -0.318784726397E+03    0.74344E+00    0.00000E+00  8112   0.220E+01 0.000E+00
CGA:   2    -0.319276658463E+03   -0.49193E+00   -0.49055E+00  8112   0.137E+01 0.126E-01
CGA:   3    -0.319442221011E+03   -0.16556E+00   -0.16506E+00  8112   0.469E+00-0.817E-02
CGA:   4    -0.319514693832E+03   -0.72473E-01   -0.72426E-01  8112   0.226E+00 0.161E-02
CGA:   5    -0.319530660550E+03   -0.15967E-01   -0.16032E-01  8112   0.596E-01-0.737E-03
CGA:   6    -0.319539606187E+03   -0.89456E-02   -0.89479E-02  8112   0.175E-01-0.944E-04
CGA:   7    -0.319542031204E+03   -0.24250E-02   -0.24250E-02  8112   0.734E-02-0.475E-06
CGA:   8    -0.319542924880E+03   -0.89368E-03   -0.89369E-03  8112   0.396E-02 0.256E-05
CGA:   9    -0.319543345606E+03   -0.42073E-03   -0.42074E-03  8112   0.204E-02 0.176E-05
CGA:  10    -0.319543623670E+03   -0.27806E-03   -0.27806E-03  8112   0.943E-03 0.184E-05
CGA:  11    -0.319543779738E+03   -0.15607E-03   -0.15604E-03  8112   0.500E-03 0.734E-06
CGA:  12    -0.319543856458E+03   -0.76720E-04   -0.76712E-04  8112   0.439E-03 0.393E-06
CGA:  13    -0.319543902336E+03   -0.45878E-04   -0.45896E-04  8112   0.180E-03 0.459E-06
CGA:  14    -0.319543928621E+03   -0.26285E-04   -0.26280E-04  8112   0.880E-04 0.502E-06
CGA:  15    -0.319543942738E+03   -0.14118E-04   -0.14108E-04  8112   0.380E-04 0.415E-06
CGA:  16    -0.319543946923E+03   -0.41843E-05   -0.41914E-05  8112   0.243E-04 0.259E-06
  68 F= -.31954395E+03 E0= -.31953952E+03  d E =-.157782E-01  mag=    44.0000
       N       E                     dE             d eps       ncg     rms          ort
SDA:   1    -0.319318686109E+03    0.22526E+00    0.00000E+00  8112   0.657E+00 0.000E+00
CGA:   2    -0.319450570958E+03   -0.13188E+00   -0.13143E+00  8112   0.473E+00 0.580E-02
CGA:   3    -0.319509899965E+03   -0.59329E-01   -0.59191E-01  8112   0.194E+00-0.409E-02
CGA:   4    -0.319530181068E+03   -0.20281E-01   -0.20255E-01  8112   0.103E+00-0.213E-03
CGA:   5    -0.319539391229E+03   -0.92102E-02   -0.92479E-02  8112   0.202E-01-0.198E-05
CGA:   6    -0.319542797998E+03   -0.34068E-02   -0.34075E-02  8112   0.579E-02-0.149E-04
CGA:   7    -0.319543598612E+03   -0.80061E-03   -0.80060E-03  8112   0.320E-02 0.999E-06
CGA:   8    -0.319543917704E+03   -0.31909E-03   -0.31896E-03  8112   0.147E-02-0.877E-06
CGA:   9    -0.319544081732E+03   -0.16403E-03   -0.16403E-03  8112   0.585E-03 0.316E-06
CGA:  10    -0.319544171495E+03   -0.89763E-04   -0.89732E-04  8112   0.258E-03 0.139E-05
CGA:  11    -0.319544212117E+03   -0.40622E-04   -0.40605E-04  8112   0.160E-03 0.716E-06
CGA:  12    -0.319544230779E+03   -0.18662E-04   -0.18660E-04  8112   0.103E-03-0.615E-07
CGA:  13    -0.319544242874E+03   -0.12095E-04   -0.12092E-04  8112   0.456E-04-0.217E-06
CGA:  14    -0.319544250280E+03   -0.74066E-05   -0.74009E-05  8112   0.226E-04 0.194E-06
  69 F= -.31954425E+03 E0= -.31953980E+03  d E =-.303358E-03  mag=    44.0000
       N       E                     dE             d eps       ncg     rms          ort
SDA:   1    -0.319466905726E+03    0.77337E-01    0.00000E+00  8112   0.233E+00 0.000E+00
CGA:   2    -0.319512373188E+03   -0.45467E-01   -0.45506E-01  8112   0.160E+00-0.505E-03
CGA:   3    -0.319530671864E+03   -0.18299E-01   -0.18328E-01  8112   0.888E-01 0.379E-03
CGA:   4    -0.319539505041E+03   -0.88332E-02   -0.88449E-02  8112   0.338E-01 0.513E-04
CGA:   5    -0.319543092546E+03   -0.35875E-02   -0.35827E-02  8112   0.848E-02-0.286E-04
CGA:   6    -0.319544434321E+03   -0.13418E-02   -0.13414E-02  8112   0.273E-02 0.941E-05
CGA:   7    -0.319544740274E+03   -0.30595E-03   -0.30593E-03  8112   0.166E-02 0.627E-06
CGA:   8    -0.319544907353E+03   -0.16708E-03   -0.16709E-03  8112   0.528E-03 0.685E-06
CGA:   9    -0.319544982444E+03   -0.75091E-04   -0.75091E-04  8112   0.251E-03-0.102E-07
CGA:  10    -0.319545016537E+03   -0.34093E-04   -0.34094E-04  8112   0.112E-03-0.413E-06
CGA:  11    -0.319545030721E+03   -0.14184E-04   -0.14182E-04  8112   0.831E-04-0.247E-06
CGA:  12    -0.319545040146E+03   -0.94252E-05   -0.94264E-05  8112   0.307E-04 0.521E-07
  70 F= -.31954504E+03 E0= -.31954059E+03  d E =-.789866E-03  mag=    44.0000
       N       E                     dE             d eps       ncg     rms          ort
SDA:   1    -0.319540721515E+03    0.43092E-02    0.00000E+00  8112   0.175E-01 0.000E+00
CGA:   2    -0.319542243391E+03   -0.15219E-02   -0.15226E-02  8112   0.110E-01-0.559E-06
CGA:   3    -0.319543873469E+03   -0.16301E-02   -0.16299E-02  8112   0.589E-02 0.664E-05
CGA:   4    -0.319544455348E+03   -0.58188E-03   -0.58160E-03  8112   0.148E-02-0.570E-06
CGA:   5    -0.319544708893E+03   -0.25355E-03   -0.25341E-03  8112   0.360E-03 0.328E-05
CGA:   6    -0.319544755549E+03   -0.46656E-04   -0.46657E-04  8112   0.151E-03 0.523E-06
CGA:   7    -0.319544772617E+03   -0.17068E-04   -0.17069E-04  8112   0.682E-04 0.513E-07
CGA:   8    -0.319544778920E+03   -0.63030E-05   -0.63042E-05  8112   0.284E-04 0.468E-07
  71 F= -.31954478E+03 E0= -.31954032E+03  d E =0.261226E-03  mag=    44.0000
       N       E                     dE             d eps       ncg     rms          ort
SDA:   1    -0.319362023089E+03    0.18275E+00    0.00000E+00  8112   0.478E+00 0.000E+00
CGA:   2    -0.319476549718E+03   -0.11453E+00   -0.11359E+00  8112   0.400E+00 0.794E-02
CGA:   3    -0.319523620626E+03   -0.47071E-01   -0.46891E-01  8112   0.842E-01-0.288E-02
CGA:   4    -0.319538950985E+03   -0.15330E-01   -0.15331E-01  8112   0.225E-01-0.525E-05
CGA:   5    -0.319541363161E+03   -0.24122E-02   -0.24110E-02  8112   0.109E-01-0.316E-05
CGA:   6    -0.319542413538E+03   -0.10504E-02   -0.10507E-02  8112   0.436E-02 0.460E-05
CGA:   7    -0.319542876054E+03   -0.46252E-03   -0.46257E-03  8112   0.132E-02 0.774E-06
CGA:   8    -0.319543073564E+03   -0.19751E-03   -0.19754E-03  8112   0.496E-03-0.162E-05
CGA:   9    -0.319543149939E+03   -0.76375E-04   -0.76391E-04  8112   0.275E-03-0.669E-06
CGA:  10    -0.319543181080E+03   -0.31141E-04   -0.31153E-04  8112   0.174E-03 0.524E-06
CGA:  11    -0.319543201000E+03   -0.19920E-04   -0.19934E-04  8112   0.843E-04 0.791E-06
CGA:  12    -0.319543215292E+03   -0.14292E-04   -0.14277E-04  8112   0.433E-04 0.421E-06
CGA:  13    -0.319543223026E+03   -0.77336E-05   -0.77164E-05  8112   0.240E-04 0.394E-06
  72 F= -.31954322E+03 E0= -.31953873E+03  d E =0.155589E-02  mag=    44.0000
       N       E                     dE             d eps       ncg     rms          ort
SDA:   1    -0.319493233037E+03    0.49982E-01    0.00000E+00  8112   0.140E+00 0.000E+00
CGA:   2    -0.319522519706E+03   -0.29287E-01   -0.29225E-01  8112   0.111E+00 0.701E-03
CGA:   3    -0.319534310658E+03   -0.11791E-01   -0.11752E-01  8112   0.597E-01-0.235E-03
CGA:   4    -0.319540132482E+03   -0.58218E-02   -0.58204E-02  8112   0.189E-01-0.349E-05
CGA:   5    -0.319542307779E+03   -0.21753E-02   -0.21758E-02  8112   0.487E-02 0.104E-04
CGA:   6    -0.319543035566E+03   -0.72779E-03   -0.72785E-03  8112   0.167E-02-0.297E-05
CGA:   7    -0.319543224500E+03   -0.18893E-03   -0.18890E-03  8112   0.103E-02-0.759E-06
CGA:   8    -0.319543321285E+03   -0.96785E-04   -0.96790E-04  8112   0.312E-03-0.244E-06
CGA:   9    -0.319543369849E+03   -0.48564E-04   -0.48563E-04  8112   0.128E-03 0.542E-07
CGA:  10    -0.319543387429E+03   -0.17580E-04   -0.17579E-04  8112   0.709E-04 0.211E-06
CGA:  11    -0.319543395609E+03   -0.81798E-05   -0.81813E-05  8112   0.422E-04 0.784E-07
  73 F= -.31954340E+03 E0= -.31953890E+03  d E =-.172583E-03  mag=    44.0000
       N       E                     dE             d eps       ncg     rms          ort
SDA:   1    -0.319530435938E+03    0.12951E-01    0.00000E+00  8112   0.445E-01 0.000E+00
CGA:   2    -0.319537019530E+03   -0.65836E-02   -0.65827E-02  8112   0.443E-01 0.352E-04
CGA:   3    -0.319541355259E+03   -0.43357E-02   -0.43317E-02  8112   0.166E-01-0.193E-04
CGA:   4    -0.319543444495E+03   -0.20892E-02   -0.20893E-02  8112   0.652E-02 0.557E-05
CGA:   5    -0.319544188856E+03   -0.74436E-03   -0.74422E-03  8112   0.157E-02-0.562E-05
CGA:   6    -0.319544429813E+03   -0.24096E-03   -0.24098E-03  8112   0.706E-03-0.833E-06
CGA:   7    -0.319544490418E+03   -0.60606E-04   -0.60597E-04  8112   0.304E-03-0.245E-06
CGA:   8    -0.319544528154E+03   -0.37736E-04   -0.37735E-04  8112   0.107E-03-0.393E-06
CGA:   9    -0.319544543339E+03   -0.15184E-04   -0.15185E-04  8112   0.445E-04-0.592E-07
CGA:  10    -0.319544549416E+03   -0.60775E-05   -0.60756E-05  8112   0.264E-04 0.239E-06
  74 F= -.31954455E+03 E0= -.31954007E+03  d E =-.115381E-02  mag=    44.0000
       N       E                     dE             d eps       ncg     rms          ort
SDA:   1    -0.319532829293E+03    0.11714E-01    0.00000E+00  8112   0.369E-01 0.000E+00
CGA:   2    -0.319537951220E+03   -0.51219E-02   -0.51209E-02  8112   0.460E-01 0.552E-04
CGA:   3    -0.319543084020E+03   -0.51328E-02   -0.51338E-02  8112   0.119E-01 0.183E-04
CGA:   4    -0.319544386762E+03   -0.13027E-02   -0.13012E-02  8112   0.424E-02-0.311E-04
CGA:   5    -0.319544953124E+03   -0.56636E-03   -0.56637E-03  8112   0.876E-03-0.219E-05
CGA:   6    -0.319545083821E+03   -0.13070E-03   -0.13070E-03  8112   0.428E-03 0.972E-07
CGA:   7    -0.319545123163E+03   -0.39342E-04   -0.39335E-04  8112   0.187E-03-0.280E-06
CGA:   8    -0.319545143395E+03   -0.20232E-04   -0.20226E-04  8112   0.663E-04-0.374E-06
CGA:   9    -0.319545152613E+03   -0.92178E-05   -0.92197E-05  8112   0.249E-04-0.138E-06
  75 F= -.31954515E+03 E0= -.31954068E+03  d E =-.603197E-03  mag=    44.0000
