       N       E                     dE             d eps       ncg     rms          rms(c)
DAV:   1     0.669409909841E+04    0.66941E+04   -0.27354E+05 36232   0.155E+03
DAV:   2     0.423283503201E+03   -0.62708E+04   -0.60146E+04 36592   0.479E+02
DAV:   3    -0.367148121136E+03   -0.79043E+03   -0.77168E+03 39336   0.179E+02
DAV:   4    -0.411848468611E+03   -0.44700E+02   -0.43344E+02 52304   0.432E+01
DAV:   5    -0.415416867122E+03   -0.35684E+01   -0.35070E+01 64472   0.866E+00    0.640E+01
DAV:   6    -0.352993279411E+03    0.62424E+02   -0.32863E+02 48240   0.394E+01    0.368E+01
DAV:   7    -0.373011057560E+03   -0.20018E+02   -0.46228E+01 47472   0.175E+01    0.221E+01
DAV:   8    -0.377045316884E+03   -0.40343E+01   -0.52902E+00 50712   0.584E+00    0.141E+01
DAV:   9    -0.381884686099E+03   -0.48394E+01   -0.32446E+00 40808   0.402E+00    0.540E+00
DAV:  10    -0.383940845991E+03   -0.20562E+01   -0.10232E+00 46448   0.195E+00    0.343E+00
DAV:  11    -0.385836354319E+03   -0.18955E+01   -0.80227E-01 41608   0.146E+00    0.265E+00
DAV:  12    -0.388652749096E+03   -0.28164E+01   -0.23857E+00 41152   0.204E+00    0.145E+00
DAV:  13    -0.389601791348E+03   -0.94904E+00   -0.10179E+00 44048   0.145E+00    0.694E-01
DAV:  14    -0.389718663147E+03   -0.11687E+00   -0.15015E-01 42160   0.685E-01    0.382E-01
DAV:  15    -0.389720932298E+03   -0.22692E-02   -0.16908E-02 49696   0.290E-01    0.195E-01
DAV:  16    -0.389719646519E+03    0.12858E-02   -0.78275E-03 41448   0.223E-01    0.149E-01
DAV:  17    -0.389719198489E+03    0.44803E-03   -0.15287E-03 40232   0.107E-01    0.896E-02
DAV:  18    -0.389718976269E+03    0.22222E-03   -0.89669E-04 40008   0.681E-02    0.347E-02
DAV:  19    -0.389718947563E+03    0.28706E-04   -0.27383E-04 38536   0.395E-02    0.302E-02
DAV:  20    -0.389718925875E+03    0.21688E-04   -0.59469E-05 36176   0.251E-02    0.121E-02
DAV:  21    -0.389718926114E+03   -0.23920E-06   -0.42832E-05 35000   0.155E-02
   1 F= -.38971893E+03 E0= -.38971893E+03  d E =-.389719E+03  mag=    35.9997
       N       E                     dE             d eps       ncg     rms          rms(c)
DAV:   1    -0.389731834852E+03   -0.12909E-01   -0.72570E-03 38288   0.148E-01    0.202E-02
DAV:   2    -0.389731857152E+03   -0.22299E-04   -0.27124E-04 39664   0.278E-02    0.123E-02
DAV:   3    -0.389731856918E+03    0.23381E-06   -0.95864E-06 28128   0.627E-03    0.791E-03
DAV:   4    -0.389731856109E+03    0.80926E-06   -0.24489E-06 22968   0.471E-03
   2 F= -.38973186E+03 E0= -.38973186E+03  d E =-.129300E-01  mag=    35.9999
       N       E                     dE             d eps       ncg     rms          rms(c)
DAV:   1    -0.390056865331E+03   -0.32501E+00   -0.63361E+00 37824   0.437E+00    0.576E-01
DAV:   2    -0.390077421114E+03   -0.20556E-01   -0.23881E-01 40888   0.800E-01    0.350E-01
DAV:   3    -0.390077508754E+03   -0.87640E-04   -0.91620E-03 57680   0.160E-01    0.224E-01
DAV:   4    -0.390076851427E+03    0.65733E-03   -0.11481E-03 49160   0.105E-01    0.104E-01
DAV:   5    -0.390076867938E+03   -0.16511E-04   -0.74657E-04 49224   0.732E-02    0.314E-02
DAV:   6    -0.390076877170E+03   -0.92326E-05   -0.18895E-04 42152   0.299E-02    0.217E-02
DAV:   7    -0.390076872787E+03    0.43829E-05   -0.19667E-05 33616   0.105E-02
   3 F= -.39007687E+03 E0= -.39007687E+03  d E =-.345017E+00  mag=    36.0000
       N       E                     dE             d eps       ncg     rms          rms(c)
DAV:   1    -0.390561796532E+03   -0.48492E+00   -0.41780E+01 37592   0.119E+01    0.149E+00
DAV:   2    -0.390721015852E+03   -0.15922E+00   -0.17687E+00 39472   0.223E+00    0.882E-01
DAV:   3    -0.390723360391E+03   -0.23445E-02   -0.65642E-02 59184   0.435E-01    0.557E-01
DAV:   4    -0.390719439225E+03    0.39212E-02   -0.79596E-03 49920   0.264E-01    0.279E-01
DAV:   5    -0.390719402900E+03    0.36325E-04   -0.44213E-03 49000   0.193E-01    0.935E-02
DAV:   6    -0.390719435123E+03   -0.32223E-04   -0.15208E-03 45160   0.875E-02    0.556E-02
DAV:   7    -0.390719413087E+03    0.22036E-04   -0.18730E-04 46144   0.305E-02    0.298E-02
DAV:   8    -0.390719398456E+03    0.14631E-04   -0.29149E-05 35760   0.265E-02    0.180E-02
DAV:   9    -0.390719389695E+03    0.87609E-05   -0.20679E-05 34592   0.302E-02
   4 F= -.39071939E+03 E0= -.39071939E+03  d E =-.642517E+00  mag=    36.0000
       N       E                     dE             d eps       ncg     rms          rms(c)
DAV:   1    -0.390886612194E+03   -0.16721E+00   -0.67496E+01 37944   0.176E+01    0.203E+00
DAV:   2    -0.391190772312E+03   -0.30416E+00   -0.32112E+00 38136   0.327E+00    0.114E+00
DAV:   3    -0.391199795803E+03   -0.90235E-02   -0.10139E-01 60328   0.597E-01    0.698E-01
DAV:   4    -0.391195378441E+03    0.44174E-02   -0.13551E-02 50664   0.296E-01    0.383E-01
DAV:   5    -0.391195370672E+03    0.77689E-05   -0.49578E-03 48544   0.218E-01    0.121E-01
DAV:   6    -0.391195438106E+03   -0.67434E-04   -0.23651E-03 45624   0.110E-01    0.650E-02
DAV:   7    -0.391195434468E+03    0.36382E-05   -0.31040E-04 45720   0.376E-02    0.336E-02
DAV:   8    -0.391195426273E+03    0.81952E-05   -0.48351E-05 39096   0.249E-02
   5 F= -.39119543E+03 E0= -.39119543E+03  d E =-.476037E+00  mag=    36.0000
       N       E                     dE             d eps       ncg     rms          rms(c)
DAV:   1    -0.390917172668E+03    0.27826E+00   -0.10463E+02 38288   0.248E+01    0.294E+00
DAV:   2    -0.391498995455E+03   -0.58182E+00   -0.59212E+00 38056   0.451E+00    0.155E+00
DAV:   3    -0.391524827157E+03   -0.25832E-01   -0.15671E-01 60520   0.812E-01    0.896E-01
DAV:   4    -0.391521084079E+03    0.37431E-02   -0.22041E-02 49736   0.332E-01    0.520E-01
DAV:   5    -0.391521941181E+03   -0.85710E-03   -0.56012E-03 47440   0.208E-01    0.156E-01
DAV:   6    -0.391522107433E+03   -0.16625E-03   -0.28894E-03 45896   0.125E-01    0.764E-02
DAV:   7    -0.391522140017E+03   -0.32584E-04   -0.40646E-04 45728   0.403E-02    0.401E-02
DAV:   8    -0.391522138006E+03    0.20111E-05   -0.69232E-05 42552   0.214E-02
   6 F= -.39152214E+03 E0= -.39152214E+03  d E =-.326712E+00  mag=    36.0000
       N       E                     dE             d eps       ncg     rms          rms(c)
DAV:   1    -0.391074976340E+03    0.44716E+00   -0.98850E+01 37928   0.255E+01    0.296E+00
DAV:   2    -0.391635173013E+03   -0.56020E+00   -0.56498E+00 36688   0.460E+00    0.150E+00
DAV:   3    -0.391664662338E+03   -0.29489E-01   -0.14017E-01 59640   0.787E-01    0.842E-01
DAV:   4    -0.391662905344E+03    0.17570E-02   -0.16012E-02 49192   0.280E-01    0.497E-01
DAV:   5    -0.391664123099E+03   -0.12178E-02   -0.44339E-03 46560   0.186E-01    0.135E-01
DAV:   6    -0.391664362467E+03   -0.23937E-03   -0.19760E-03 46560   0.990E-02    0.688E-02
DAV:   7    -0.391664382574E+03   -0.20107E-04   -0.24084E-04 48416   0.323E-02    0.387E-02
DAV:   8    -0.391664380850E+03    0.17235E-05   -0.44126E-05 36792   0.177E-02
   7 F= -.39166438E+03 E0= -.39166438E+03  d E =-.142243E+00  mag=    36.0000
       N       E                     dE             d eps       ncg     rms          rms(c)
DAV:   1    -0.390997592529E+03    0.66679E+00   -0.15897E+02 37256   0.321E+01    0.315E+00
DAV:   2    -0.391721574036E+03   -0.72398E+00   -0.73477E+00 36016   0.575E+00    0.165E+00
DAV:   3    -0.391749187637E+03   -0.27614E-01   -0.16423E-01 57504   0.922E-01    0.100E+00
DAV:   4    -0.391745775039E+03    0.34126E-02   -0.22222E-02 49808   0.336E-01    0.611E-01
DAV:   5    -0.391746735232E+03   -0.96019E-03   -0.64407E-03 44032   0.242E-01    0.167E-01
DAV:   6    -0.391747044286E+03   -0.30905E-03   -0.29299E-03 46240   0.126E-01    0.893E-02
DAV:   7    -0.391747085791E+03   -0.41505E-04   -0.44986E-04 48056   0.461E-02    0.494E-02
DAV:   8    -0.391747078739E+03    0.70518E-05   -0.60442E-05 41536   0.218E-02
   8 F= -.39174708E+03 E0= -.39174708E+03  d E =-.826979E-01  mag=    36.0000
       N       E                     dE             d eps       ncg     rms          rms(c)
DAV:   1    -0.390655881157E+03    0.10912E+01   -0.23363E+02 37904   0.413E+01    0.408E+00
DAV:   2    -0.391796473144E+03   -0.11406E+01   -0.11520E+01 36632   0.725E+00    0.221E+00
DAV:   3    -0.391833542624E+03   -0.37069E-01   -0.23615E-01 51808   0.125E+00    0.136E+00
DAV:   4    -0.391826830264E+03    0.67124E-02   -0.43010E-02 51312   0.506E-01    0.851E-01
DAV:   5    -0.391826512688E+03    0.31758E-03   -0.12936E-02 47248   0.422E-01    0.230E-01
DAV:   6    -0.391827084770E+03   -0.57208E-03   -0.65433E-03 46488   0.200E-01    0.120E-01
DAV:   7    -0.391827116268E+03   -0.31498E-04   -0.10266E-03 47704   0.711E-02    0.630E-02
DAV:   8    -0.391827099308E+03    0.16960E-04   -0.16759E-04 51032   0.352E-02    0.427E-02
DAV:   9    -0.391827080973E+03    0.18335E-04   -0.47708E-05 39336   0.357E-02    0.169E-02
DAV:  10    -0.391827076249E+03    0.47243E-05   -0.47413E-05 36960   0.253E-02
   9 F= -.39182708E+03 E0= -.39182708E+03  d E =-.799975E-01  mag=    36.0000
       N       E                     dE             d eps       ncg     rms          rms(c)
DAV:   1    -0.391762736520E+03    0.64344E-01   -0.15615E+01 37960   0.121E+01    0.142E+00
DAV:   2    -0.391862890448E+03   -0.10015E+00   -0.10701E+00 35984   0.226E+00    0.712E-01
DAV:   3    -0.391869570392E+03   -0.66799E-02   -0.25759E-02 51952   0.414E-01    0.411E-01
DAV:   4    -0.391869183102E+03    0.38729E-03   -0.33090E-03 52792   0.182E-01    0.218E-01
DAV:   5    -0.391869385227E+03   -0.20212E-03   -0.11020E-03 44480   0.152E-01    0.596E-02
DAV:   6    -0.391869427975E+03   -0.42748E-04   -0.79016E-04 45624   0.709E-02    0.395E-02
DAV:   7    -0.391869414514E+03    0.13461E-04   -0.94000E-05 44216   0.217E-02    0.232E-02
DAV:   8    -0.391869400708E+03    0.13806E-04   -0.11939E-05 30544   0.241E-02    0.135E-02
DAV:   9    -0.391869391275E+03    0.94332E-05   -0.16311E-05 31680   0.295E-02
  10 F= -.39186939E+03 E0= -.39186939E+03  d E =-.423150E-01  mag=    36.0000
       N       E                     dE             d eps       ncg     rms          rms(c)
DAV:   1    -0.391870722838E+03   -0.13221E-02   -0.43883E-01 38744   0.192E+00    0.190E-01
DAV:   2    -0.391872864602E+03   -0.21418E-02   -0.21481E-02 36624   0.329E-01    0.938E-02
DAV:   3    -0.391873015426E+03   -0.15082E-03   -0.40583E-04 47840   0.535E-02    0.523E-02
DAV:   4    -0.391873013187E+03    0.22393E-05   -0.40840E-05 43336   0.170E-02
  11 F= -.39187301E+03 E0= -.39187301E+03  d E =-.362191E-02  mag=    36.0000
       N       E                     dE             d eps       ncg     rms          rms(c)
DAV:   1    -0.391862437153E+03    0.10578E-01   -0.47311E+00 37928   0.600E+00    0.578E-01
DAV:   2    -0.391883630172E+03   -0.21193E-01   -0.21446E-01 36160   0.104E+00    0.280E-01
DAV:   3    -0.391884644660E+03   -0.10145E-02   -0.41155E-03 50192   0.160E-01    0.159E-01
DAV:   4    -0.391884591046E+03    0.53614E-04   -0.45994E-04 53144   0.518E-02    0.941E-02
DAV:   5    -0.391884630073E+03   -0.39026E-04   -0.21174E-04 42032   0.435E-02    0.252E-02
DAV:   6    -0.391884638211E+03   -0.81389E-05   -0.73245E-05 40784   0.185E-02
  12 F= -.39188464E+03 E0= -.39188464E+03  d E =-.116250E-01  mag=    36.0000
       N       E                     dE             d eps       ncg     rms          rms(c)
DAV:   1    -0.391831665151E+03    0.52965E-01   -0.16549E+01 38024   0.109E+01    0.101E+00
DAV:   2    -0.391900371283E+03   -0.68706E-01   -0.69165E-01 35904   0.187E+00    0.487E-01
DAV:   3    -0.391903314713E+03   -0.29434E-02   -0.12790E-02 50632   0.282E-01    0.280E-01
DAV:   4    -0.391903078951E+03    0.23576E-03   -0.15054E-03 52312   0.908E-02    0.168E-01
DAV:   5    -0.391903181486E+03   -0.10253E-03   -0.72263E-04 42776   0.796E-02    0.448E-02
DAV:   6    -0.391903209922E+03   -0.28436E-04   -0.25745E-04 43560   0.332E-02    0.256E-02
DAV:   7    -0.391903208422E+03    0.15002E-05   -0.32737E-05 37856   0.133E-02
  13 F= -.39190321E+03 E0= -.39190321E+03  d E =-.185702E-01  mag=    36.0000
       N       E                     dE             d eps       ncg     rms          rms(c)
DAV:   1    -0.391235419427E+03    0.66779E+00   -0.16503E+02 37744   0.334E+01    0.303E+00
DAV:   2    -0.391917885253E+03   -0.68247E+00   -0.68762E+00 36056   0.581E+00    0.155E+00
DAV:   3    -0.391938892767E+03   -0.21008E-01   -0.13284E-01 50776   0.941E-01    0.915E-01
DAV:   4    -0.391935383213E+03    0.35096E-02   -0.19965E-02 50848   0.329E-01    0.560E-01
DAV:   5    -0.391935673259E+03   -0.29005E-03   -0.67712E-03 45288   0.258E-01    0.153E-01
DAV:   6    -0.391936029969E+03   -0.35671E-03   -0.28316E-03 45944   0.112E-01    0.830E-02
DAV:   7    -0.391936063231E+03   -0.33262E-04   -0.34455E-04 54712   0.372E-02    0.516E-02
DAV:   8    -0.391936051012E+03    0.12219E-04   -0.41056E-05 37216   0.184E-02    0.283E-02
DAV:   9    -0.391936049846E+03    0.11658E-05   -0.32527E-05 34216   0.160E-02
  14 F= -.39193605E+03 E0= -.39193605E+03  d E =-.328414E-01  mag=    36.0000
       N       E                     dE             d eps       ncg     rms          rms(c)
DAV:   1    -0.391927250399E+03    0.88006E-02   -0.32238E+00 38408   0.597E+00    0.720E-01
DAV:   2    -0.391951698813E+03   -0.24448E-01   -0.26169E-01 36072   0.113E+00    0.362E-01
DAV:   3    -0.391953568150E+03   -0.18693E-02   -0.59438E-03 51752   0.204E-01    0.209E-01
DAV:   4    -0.391953470081E+03    0.98069E-04   -0.78910E-04 52360   0.845E-02    0.110E-01
DAV:   5    -0.391953514718E+03   -0.44638E-04   -0.24843E-04 45512   0.660E-02    0.306E-02
DAV:   6    -0.391953522996E+03   -0.82771E-05   -0.16059E-04 41712   0.319E-02    0.181E-02
DAV:   7    -0.391953519964E+03    0.30313E-05   -0.19219E-05 32120   0.114E-02
  15 F= -.39195352E+03 E0= -.39195352E+03  d E =-.174701E-01  mag=    36.0000
       N       E                     dE             d eps       ncg     rms          rms(c)
DAV:   1    -0.391952806726E+03    0.71627E-03   -0.23105E-01 37736   0.154E+00    0.177E-01
DAV:   2    -0.391954436792E+03   -0.16301E-02   -0.17014E-02 36496   0.289E-01    0.868E-02
DAV:   3    -0.391954541499E+03   -0.10471E-03   -0.35633E-04 50368   0.490E-02    0.496E-02
DAV:   4    -0.391954536056E+03    0.54429E-05   -0.36823E-05 44656   0.181E-02
  16 F= -.39195454E+03 E0= -.39195454E+03  d E =-.101609E-02  mag=    36.0000
       N       E                     dE             d eps       ncg     rms          rms(c)
DAV:   1    -0.391938493212E+03    0.16048E-01   -0.24900E+00 38000   0.499E+00    0.543E-01
DAV:   2    -0.391954543163E+03   -0.16050E-01   -0.16454E-01 35992   0.905E-01    0.264E-01
DAV:   3    -0.391955583871E+03   -0.10407E-02   -0.31582E-03 46832   0.148E-01    0.148E-01
DAV:   4    -0.391955565899E+03    0.17973E-04   -0.35945E-04 55872   0.484E-02    0.833E-02
DAV:   5    -0.391955602082E+03   -0.36183E-04   -0.13273E-04 43240   0.375E-02    0.215E-02
DAV:   6    -0.391955606744E+03   -0.46626E-05   -0.50480E-05 41248   0.175E-02
  17 F= -.39195561E+03 E0= -.39195561E+03  d E =-.107069E-02  mag=    36.0000
       N       E                     dE             d eps       ncg     rms          rms(c)
DAV:   1    -0.391948294874E+03    0.73072E-02   -0.23647E+00 37704   0.419E+00    0.376E-01
DAV:   2    -0.391957775612E+03   -0.94807E-02   -0.96255E-02 36024   0.723E-01    0.180E-01
DAV:   3    -0.391958166133E+03   -0.39052E-03   -0.15967E-03 47792   0.106E-01    0.104E-01
DAV:   4    -0.391958125924E+03    0.40209E-04   -0.19509E-04 56816   0.347E-02    0.616E-02
DAV:   5    -0.391958133984E+03   -0.80607E-05   -0.97166E-05 43752   0.308E-02
  18 F= -.39195813E+03 E0= -.39195813E+03  d E =-.252724E-02  mag=    36.0000
       N       E                     dE             d eps       ncg     rms          rms(c)
DAV:   1    -0.391778156660E+03    0.17997E+00   -0.41091E+01 37632   0.180E+01    0.173E+00
DAV:   2    -0.391969261702E+03   -0.19111E+00   -0.19205E+00 35784   0.315E+00    0.837E-01
DAV:   3    -0.391977996236E+03   -0.87345E-02   -0.33788E-02 47240   0.478E-01    0.471E-01
DAV:   4    -0.391977514217E+03    0.48202E-03   -0.39964E-03 54624   0.148E-01    0.283E-01
DAV:   5    -0.391977815435E+03   -0.30122E-03   -0.16792E-03 42992   0.117E-01    0.724E-02
DAV:   6    -0.391977886833E+03   -0.71398E-04   -0.56014E-04 45632   0.511E-02    0.379E-02
DAV:   7    -0.391977886215E+03    0.61800E-06   -0.76049E-05 44384   0.193E-02
  19 F= -.39197789E+03 E0= -.39197789E+03  d E =-.197522E-01  mag=    36.0000
       N       E                     dE             d eps       ncg     rms          rms(c)
DAV:   1    -0.391584174630E+03    0.39371E+00   -0.82806E+01 37376   0.250E+01    0.250E+00
DAV:   2    -0.391971304524E+03   -0.38713E+00   -0.39708E+00 36048   0.451E+00    0.129E+00
DAV:   3    -0.391989852922E+03   -0.18548E-01   -0.84184E-02 51960   0.756E-01    0.766E-01
DAV:   4    -0.391987031360E+03    0.28216E-02   -0.11147E-02 52024   0.297E-01    0.441E-01
DAV:   5    -0.391987037354E+03   -0.59936E-05   -0.43160E-03 46064   0.310E-01    0.121E-01
DAV:   6    -0.391987236966E+03   -0.19961E-03   -0.35548E-03 46416   0.151E-01    0.813E-02
DAV:   7    -0.391987211112E+03    0.25854E-04   -0.52208E-04 50864   0.530E-02    0.472E-02
DAV:   8    -0.391987176494E+03    0.34618E-04   -0.56441E-05 44792   0.365E-02    0.310E-02
DAV:   9    -0.391987148553E+03    0.27941E-04   -0.29773E-05 36784   0.510E-02    0.124E-02
DAV:  10    -0.391987147820E+03    0.73261E-06   -0.70772E-05 43864   0.273E-02
  20 F= -.39198715E+03 E0= -.39198715E+03  d E =-.926161E-02  mag=    36.0000
       N       E                     dE             d eps       ncg     rms          rms(c)
DAV:   1    -0.391841784384E+03    0.14536E+00   -0.14346E+01 38600   0.134E+01    0.190E+00
DAV:   2    -0.392005552581E+03   -0.16377E+00   -0.16328E+00 36008   0.260E+00    0.960E-01
DAV:   3    -0.392021649859E+03   -0.16097E-01   -0.36082E-02 46584   0.526E-01    0.506E-01
DAV:   4    -0.392021741463E+03   -0.91604E-04   -0.34274E-03 56512   0.219E-01    0.296E-01
DAV:   5    -0.392022107888E+03   -0.36643E-03   -0.12998E-03 47256   0.244E-01    0.746E-02
DAV:   6    -0.392022189933E+03   -0.82045E-04   -0.16468E-03 45960   0.110E-01    0.528E-02
DAV:   7    -0.392022177798E+03    0.12136E-04   -0.24750E-04 47384   0.329E-02    0.365E-02
DAV:   8    -0.392022151459E+03    0.26338E-04   -0.38879E-05 38384   0.253E-02    0.250E-02
DAV:   9    -0.392022128057E+03    0.23402E-04   -0.25110E-05 32696   0.405E-02    0.126E-02
DAV:  10    -0.392022122446E+03    0.56106E-05   -0.36758E-05 39456   0.307E-02
  21 F= -.39202212E+03 E0= -.39202212E+03  d E =-.349746E-01  mag=    36.0000
       N       E                     dE             d eps       ncg     rms          rms(c)
DAV:   1    -0.392001636962E+03    0.20491E-01   -0.19766E+00 38872   0.506E+00    0.694E-01
DAV:   2    -0.392024748875E+03   -0.23112E-01   -0.22804E-01 36432   0.973E-01    0.342E-01
DAV:   3    -0.392026730343E+03   -0.19815E-02   -0.43166E-03 45920   0.176E-01    0.182E-01
DAV:   4    -0.392026772425E+03   -0.42081E-04   -0.43534E-04 55568   0.634E-02    0.105E-01
DAV:   5    -0.392026845444E+03   -0.73020E-04   -0.15350E-04 44864   0.613E-02    0.271E-02
DAV:   6    -0.392026853600E+03   -0.81551E-05   -0.11376E-04 43472   0.283E-02    0.150E-02
DAV:   7    -0.392026852150E+03    0.14499E-05   -0.14435E-05 27384   0.965E-03
  22 F= -.39202685E+03 E0= -.39202685E+03  d E =-.472970E-02  mag=    36.0000
       N       E                     dE             d eps       ncg     rms          rms(c)
DAV:   1    -0.392027395852E+03   -0.54225E-03   -0.29912E-01 38752   0.193E+00    0.251E-01
DAV:   2    -0.392030542983E+03   -0.31471E-02   -0.31333E-02 36520   0.369E-01    0.124E-01
DAV:   3    -0.392030810313E+03   -0.26733E-03   -0.62719E-04 43240   0.685E-02    0.659E-02
DAV:   4    -0.392030816218E+03   -0.59050E-05   -0.51082E-05 43752   0.241E-02
  23 F= -.39203082E+03 E0= -.39203082E+03  d E =-.396407E-02  mag=    36.0000
       N       E                     dE             d eps       ncg     rms          rms(c)
DAV:   1    -0.392022867583E+03    0.79427E-02   -0.21630E+00 37880   0.463E+00    0.471E-01
DAV:   2    -0.392035210022E+03   -0.12342E-01   -0.12632E-01 35960   0.831E-01    0.231E-01
DAV:   3    -0.392036027958E+03   -0.81794E-03   -0.24231E-03 49440   0.137E-01    0.130E-01
DAV:   4    -0.392035998431E+03    0.29528E-04   -0.26123E-04 58664   0.510E-02    0.758E-02
DAV:   5    -0.392036014323E+03   -0.15892E-04   -0.10483E-04 45456   0.527E-02    0.200E-02
DAV:   6    -0.392036021717E+03   -0.73942E-05   -0.94485E-05 42728   0.244E-02
  24 F= -.39203602E+03 E0= -.39203602E+03  d E =-.520550E-02  mag=    36.0000
       N       E                     dE             d eps       ncg     rms          rms(c)
DAV:   1    -0.392030236963E+03    0.57774E-02   -0.50924E-01 37576   0.195E+00    0.176E-01
DAV:   2    -0.392032308976E+03   -0.20720E-02   -0.21309E-02 36088   0.348E-01    0.855E-02
DAV:   3    -0.392032400590E+03   -0.91614E-04   -0.38839E-04 50944   0.517E-02    0.504E-02
DAV:   4    -0.392032392571E+03    0.80192E-05   -0.38996E-05 40552   0.166E-02
  25 F= -.39203239E+03 E0= -.39203239E+03  d E =0.362915E-02  mag=    36.0000
       N       E                     dE             d eps       ncg     rms          rms(c)
DAV:   1    -0.391985762189E+03    0.46638E-01   -0.75976E+00 37720   0.770E+00    0.708E-01
DAV:   2    -0.392018316756E+03   -0.32555E-01   -0.32838E-01 35784   0.135E+00    0.341E-01
DAV:   3    -0.392019594999E+03   -0.12782E-02   -0.56846E-03 49792   0.195E-01    0.195E-01
DAV:   4    -0.392019487615E+03    0.10738E-03   -0.67884E-04 54952   0.638E-02    0.114E-01
DAV:   5    -0.392019531288E+03   -0.43673E-04   -0.28216E-04 45224   0.513E-02    0.299E-02
DAV:   6    -0.392019542984E+03   -0.11696E-04   -0.99556E-05 41328   0.222E-02    0.170E-02
DAV:   7    -0.392019541455E+03    0.15298E-05   -0.93532E-06 23144   0.891E-03
  26 F= -.39201954E+03 E0= -.39201954E+03  d E =0.128511E-01  mag=    36.0000
       N       E                     dE             d eps       ncg     rms          rms(c)
DAV:   1    -0.391695054730E+03    0.32449E+00   -0.77016E+01 37712   0.235E+01    0.203E+00
DAV:   2    -0.391989067055E+03   -0.29401E+00   -0.29747E+00 35776   0.407E+00    0.990E-01
DAV:   3    -0.391998593308E+03   -0.95263E-02   -0.53128E-02 49224   0.600E-01    0.577E-01
DAV:   4    -0.391997288730E+03    0.13046E-02   -0.69831E-03 52840   0.197E-01    0.341E-01
DAV:   5    -0.391997525374E+03   -0.23664E-03   -0.28514E-03 42968   0.157E-01    0.921E-02
DAV:   6    -0.391997649702E+03   -0.12433E-03   -0.10751E-03 46192   0.708E-02    0.538E-02
DAV:   7    -0.391997650978E+03   -0.12770E-05   -0.13646E-04 47920   0.259E-02    0.313E-02
DAV:   8    -0.391997646013E+03    0.49653E-05   -0.16642E-05 26896   0.143E-02
  27 F= -.39199765E+03 E0= -.39199765E+03  d E =0.218954E-01  mag=    36.0000
       N       E                     dE             d eps       ncg     rms          rms(c)
DAV:   1    -0.391067753283E+03    0.92990E+00   -0.61766E+01 38384   0.302E+01    0.415E+00
DAV:   2    -0.391896507900E+03   -0.82875E+00   -0.80575E+00 35880   0.589E+00    0.203E+00
DAV:   3    -0.391962375514E+03   -0.65868E-01   -0.16034E-01 45824   0.111E+00    0.104E+00
DAV:   4    -0.391964088678E+03   -0.17132E-02   -0.13882E-02 54704   0.409E-01    0.618E-01
DAV:   5    -0.391966496048E+03   -0.24074E-02   -0.49146E-03 47672   0.410E-01    0.162E-01
DAV:   6    -0.391966720845E+03   -0.22480E-03   -0.42178E-03 46464   0.192E-01    0.855E-02
DAV:   7    -0.391966684199E+03    0.36646E-04   -0.86342E-04 47272   0.675E-02    0.525E-02
DAV:   8    -0.391966623223E+03    0.60976E-04   -0.12905E-04 44840   0.440E-02    0.360E-02
DAV:   9    -0.391966577618E+03    0.45605E-04   -0.43216E-05 40168   0.595E-02    0.187E-02
DAV:  10    -0.391966563288E+03    0.14330E-04   -0.85128E-05 46160   0.482E-02    0.133E-02
DAV:  11    -0.391966572203E+03   -0.89143E-05   -0.10249E-04 41336   0.235E-02    0.135E-02
DAV:  12    -0.391966570865E+03    0.13375E-05   -0.78416E-06 26048   0.805E-03
  28 F= -.39196657E+03 E0= -.39196657E+03  d E =0.310751E-01  mag=    36.0000
       N       E                     dE             d eps       ncg     rms          rms(c)
DAV:   1    -0.391757634709E+03    0.20894E+00   -0.20265E+01 39344   0.170E+01    0.237E+00
DAV:   2    -0.392016968347E+03   -0.25933E+00   -0.25441E+00 36312   0.326E+00    0.119E+00
DAV:   3    -0.392042651483E+03   -0.25683E-01   -0.53629E-02 43992   0.662E-01    0.616E-01
DAV:   4    -0.392043250224E+03   -0.59874E-03   -0.42177E-03 51944   0.260E-01    0.374E-01
DAV:   5    -0.392044065200E+03   -0.81498E-03   -0.20450E-03 48016   0.306E-01    0.934E-02
DAV:   6    -0.392044188018E+03   -0.12282E-03   -0.22582E-03 45488   0.134E-01    0.594E-02
DAV:   7    -0.392044175300E+03    0.12718E-04   -0.39338E-04 47912   0.416E-02    0.415E-02
DAV:   8    -0.392044143611E+03    0.31689E-04   -0.56969E-05 41168   0.281E-02    0.283E-02
DAV:   9    -0.392044110708E+03    0.32903E-04   -0.28504E-05 34720   0.492E-02    0.143E-02
DAV:  10    -0.392044103832E+03    0.68759E-05   -0.46045E-05 40520   0.368E-02
  29 F= -.39204410E+03 E0= -.39204410E+03  d E =-.775330E-01  mag=    36.0000
       N       E                     dE             d eps       ncg     rms          rms(c)
DAV:   1    -0.391989784770E+03    0.54326E-01   -0.47797E+00 39256   0.835E+00    0.113E+00
DAV:   2    -0.392049644692E+03   -0.59860E-01   -0.59258E-01 36608   0.159E+00    0.553E-01
DAV:   3    -0.392055931597E+03   -0.62869E-02   -0.12134E-02 43584   0.316E-01    0.286E-01
DAV:   4    -0.392056087030E+03   -0.15543E-03   -0.99724E-04 54768   0.119E-01    0.171E-01
DAV:   5    -0.392056293004E+03   -0.20597E-03   -0.42997E-04 46656   0.130E-01    0.442E-02
DAV:   6    -0.392056319805E+03   -0.26801E-04   -0.43616E-04 45440   0.583E-02    0.267E-02
DAV:   7    -0.392056317129E+03    0.26761E-05   -0.75578E-05 43416   0.184E-02
  30 F= -.39205632E+03 E0= -.39205632E+03  d E =-.122133E-01  mag=    36.0000
       N       E                     dE             d eps       ncg     rms          rms(c)
DAV:   1    -0.392057536839E+03   -0.12170E-02   -0.32204E-01 39448   0.205E+00    0.257E-01
DAV:   2    -0.392060721957E+03   -0.31851E-02   -0.32053E-02 36608   0.389E-01    0.128E-01
DAV:   3    -0.392061048749E+03   -0.32679E-03   -0.67065E-04 42880   0.733E-02    0.684E-02
DAV:   4    -0.392061053587E+03   -0.48383E-05   -0.58527E-05 44368   0.253E-02
  31 F= -.39206105E+03 E0= -.39206105E+03  d E =-.473646E-02  mag=    36.0000
       N       E                     dE             d eps       ncg     rms          rms(c)
DAV:   1    -0.392054113413E+03    0.69353E-02   -0.14963E+00 38512   0.424E+00    0.477E-01
DAV:   2    -0.392065409685E+03   -0.11296E-01   -0.11626E-01 36424   0.789E-01    0.237E-01
DAV:   3    -0.392066519419E+03   -0.11097E-02   -0.25210E-03 44504   0.149E-01    0.129E-01
DAV:   4    -0.392066507441E+03    0.11978E-04   -0.26614E-04 57168   0.591E-02    0.756E-02
DAV:   5    -0.392066530402E+03   -0.22960E-04   -0.11346E-04 44248   0.636E-02    0.209E-02
DAV:   6    -0.392066537470E+03   -0.70685E-05   -0.12282E-04 43672   0.289E-02    0.141E-02
DAV:   7    -0.392066536318E+03    0.11526E-05   -0.13200E-05 26320   0.860E-03
  32 F= -.39206654E+03 E0= -.39206654E+03  d E =-.548273E-02  mag=    36.0000
       N       E                     dE             d eps       ncg     rms          rms(c)
DAV:   1    -0.392060082271E+03    0.64552E-02   -0.27138E-01 38032   0.183E+00    0.206E-01
DAV:   2    -0.392062228897E+03   -0.21466E-02   -0.21855E-02 36376   0.337E-01    0.100E-01
DAV:   3    -0.392062389240E+03   -0.16034E-03   -0.41734E-04 48880   0.574E-02    0.552E-02
DAV:   4    -0.392062387561E+03    0.16792E-05   -0.39276E-05 41808   0.203E-02
  33 F= -.39206239E+03 E0= -.39206239E+03  d E =0.414876E-02  mag=    36.0000
       N       E                     dE             d eps       ncg     rms          rms(c)
DAV:   1    -0.392039266202E+03    0.23123E-01   -0.15347E+00 37856   0.399E+00    0.435E-01
DAV:   2    -0.392049268039E+03   -0.10002E-01   -0.10238E-01 35808   0.720E-01    0.210E-01
DAV:   3    -0.392049769379E+03   -0.50134E-03   -0.18624E-03 53000   0.111E-01    0.119E-01
DAV:   4    -0.392049746572E+03    0.22806E-04   -0.19047E-04 50024   0.376E-02    0.635E-02
DAV:   5    -0.392049763064E+03   -0.16492E-04   -0.68079E-05 43840   0.276E-02    0.160E-02
DAV:   6    -0.392049765130E+03   -0.20653E-05   -0.24322E-05 33816   0.129E-02
  34 F= -.39204977E+03 E0= -.39204977E+03  d E =0.126224E-01  mag=    36.0000
       N       E                     dE             d eps       ncg     rms          rms(c)
DAV:   1    -0.392026547014E+03    0.23216E-01   -0.23699E+00 37544   0.444E+00    0.420E-01
DAV:   2    -0.392037475567E+03   -0.10929E-01   -0.11124E-01 35808   0.784E-01    0.201E-01
DAV:   3    -0.392037892405E+03   -0.41684E-03   -0.19284E-03 50456   0.114E-01    0.115E-01
DAV:   4    -0.392037853821E+03    0.38585E-04   -0.22061E-04 52728   0.373E-02    0.644E-02
DAV:   5    -0.392037868344E+03   -0.14523E-04   -0.88914E-05 43184   0.274E-02    0.166E-02
DAV:   6    -0.392037871398E+03   -0.30534E-05   -0.24938E-05 32048   0.116E-02
  35 F= -.39203787E+03 E0= -.39203787E+03  d E =0.118937E-01  mag=    36.0000
       N       E                     dE             d eps       ncg     rms          rms(c)
DAV:   1    -0.391673305857E+03    0.36456E+00   -0.55120E+01 38192   0.229E+01    0.230E+00
DAV:   2    -0.391981199408E+03   -0.30789E+00   -0.30366E+00 35776   0.401E+00    0.110E+00
DAV:   3    -0.391997952355E+03   -0.16753E-01   -0.53303E-02 47832   0.609E-01    0.594E-01
DAV:   4    -0.391997753748E+03    0.19861E-03   -0.54572E-03 54528   0.178E-01    0.354E-01
DAV:   5    -0.391998467474E+03   -0.71373E-03   -0.23035E-03 42200   0.143E-01    0.934E-02
DAV:   6    -0.391998563814E+03   -0.96340E-04   -0.71238E-04 46968   0.606E-02    0.457E-02
DAV:   7    -0.391998557621E+03    0.61927E-05   -0.10615E-04 44472   0.246E-02    0.253E-02
DAV:   8    -0.391998554720E+03    0.29014E-05   -0.13822E-05 25592   0.128E-02
  36 F= -.39199855E+03 E0= -.39199855E+03  d E =0.393167E-01  mag=    36.0000
       N       E                     dE             d eps       ncg     rms          rms(c)
DAV:   1    -0.391682029038E+03    0.31653E+00   -0.58921E+01 38104   0.228E+01    0.218E+00
DAV:   2    -0.391971740287E+03   -0.28971E+00   -0.28779E+00 35776   0.398E+00    0.106E+00
DAV:   3    -0.391985645294E+03   -0.13905E-01   -0.50229E-02 48808   0.600E-01    0.583E-01
DAV:   4    -0.391985028781E+03    0.61651E-03   -0.57622E-03 56584   0.199E-01    0.348E-01
DAV:   5    -0.391985420020E+03   -0.39124E-03   -0.22417E-03 45720   0.179E-01    0.936E-02
DAV:   6    -0.391985547491E+03   -0.12747E-03   -0.11622E-03 47384   0.807E-02    0.517E-02
DAV:   7    -0.391985532117E+03    0.15374E-04   -0.12874E-04 49472   0.263E-02    0.295E-02
DAV:   8    -0.391985521168E+03    0.10949E-04   -0.14789E-05 30256   0.197E-02    0.140E-02
DAV:   9    -0.391985518004E+03    0.31641E-05   -0.14861E-05 28232   0.172E-02
  37 F= -.39198552E+03 E0= -.39198552E+03  d E =0.130367E-01  mag=    36.0000
       N       E                     dE             d eps       ncg     rms          rms(c)
DAV:   1    -0.391738490661E+03    0.24703E+00   -0.35440E+01 38280   0.199E+01    0.219E+00
DAV:   2    -0.391994167256E+03   -0.25568E+00   -0.25826E+00 35792   0.369E+00    0.111E+00
DAV:   3    -0.392011389277E+03   -0.17222E-01   -0.52794E-02 47016   0.650E-01    0.617E-01
DAV:   4    -0.392010894352E+03    0.49492E-03   -0.56263E-03 54048   0.257E-01    0.357E-01
DAV:   5    -0.392011319599E+03   -0.42525E-03   -0.24893E-03 46056   0.252E-01    0.953E-02
DAV:   6    -0.392011447816E+03   -0.12822E-03   -0.18870E-03 46192   0.113E-01    0.577E-02
DAV:   7    -0.392011430200E+03    0.17616E-04   -0.26744E-04 54232   0.329E-02    0.388E-02
DAV:   8    -0.392011405308E+03    0.24892E-04   -0.28733E-05 38544   0.267E-02    0.226E-02
DAV:   9    -0.392011386323E+03    0.18985E-04   -0.29934E-05 34656   0.378E-02    0.108E-02
DAV:  10    -0.392011385244E+03    0.10787E-05   -0.34761E-05 40456   0.219E-02
  38 F= -.39201139E+03 E0= -.39201139E+03  d E =-.258672E-01  mag=    36.0000
       N       E                     dE             d eps       ncg     rms          rms(c)
DAV:   1    -0.391914073642E+03    0.97313E-01   -0.14267E+01 39000   0.128E+01    0.150E+00
DAV:   2    -0.392028851945E+03   -0.11478E+00   -0.11410E+00 35880   0.239E+00    0.769E-01
DAV:   3    -0.392038215259E+03   -0.93633E-02   -0.24665E-02 43856   0.433E-01    0.413E-01
DAV:   4    -0.392038402255E+03   -0.18700E-03   -0.21659E-03 51960   0.149E-01    0.247E-01
DAV:   5    -0.392038871437E+03   -0.46918E-03   -0.10992E-03 44368   0.156E-01    0.630E-02
DAV:   6    -0.392038913009E+03   -0.41572E-04   -0.72708E-04 45936   0.712E-02    0.357E-02
DAV:   7    -0.392038909600E+03    0.34087E-05   -0.12701E-04 49608   0.236E-02    0.235E-02
DAV:   8    -0.392038901642E+03    0.79579E-05   -0.11605E-05 29280   0.151E-02
  39 F= -.39203890E+03 E0= -.39203890E+03  d E =-.275164E-01  mag=    36.0000
       N       E                     dE             d eps       ncg     rms          rms(c)
DAV:   1    -0.392022313355E+03    0.16596E-01   -0.30091E+00 38544   0.577E+00    0.613E-01
DAV:   2    -0.392042607990E+03   -0.20295E-01   -0.19837E-01 36088   0.102E+00    0.293E-01
DAV:   3    -0.392043812817E+03   -0.12048E-02   -0.34004E-03 48992   0.155E-01    0.157E-01
DAV:   4    -0.392043812009E+03    0.80743E-06   -0.32858E-04 56912   0.475E-02    0.930E-02
DAV:   5    -0.392043854942E+03   -0.42933E-04   -0.12831E-04 44872   0.436E-02    0.240E-02
DAV:   6    -0.392043861682E+03   -0.67400E-05   -0.64130E-05 41848   0.196E-02
  40 F= -.39204386E+03 E0= -.39204386E+03  d E =-.496004E-02  mag=    36.0000
       N       E                     dE             d eps       ncg     rms          rms(c)
DAV:   1    -0.391722586618E+03    0.32127E+00   -0.66174E+01 37976   0.251E+01    0.241E+00
DAV:   2    -0.392061162497E+03   -0.33858E+00   -0.34235E+00 35776   0.444E+00    0.118E+00
DAV:   3    -0.392077645996E+03   -0.16483E-01   -0.59381E-02 49744   0.666E-01    0.662E-01
DAV:   4    -0.392076791005E+03    0.85499E-03   -0.68024E-03 54512   0.216E-01    0.376E-01
DAV:   5    -0.392077452892E+03   -0.66189E-03   -0.28448E-03 45048   0.178E-01    0.101E-01
DAV:   6    -0.392077555818E+03   -0.10293E-03   -0.11203E-03 44984   0.800E-02    0.541E-02
DAV:   7    -0.392077543837E+03    0.11981E-04   -0.15408E-04 50096   0.297E-02    0.308E-02
DAV:   8    -0.392077534547E+03    0.92898E-05   -0.18825E-05 30392   0.191E-02
  41 F= -.39207753E+03 E0= -.39207753E+03  d E =-.336729E-01  mag=    36.0000
       N       E                     dE             d eps       ncg     rms          rms(c)
DAV:   1    -0.390736073478E+03    0.13415E+01   -0.22616E+02 36984   0.463E+01    0.474E+00
DAV:   2    -0.392094748482E+03   -0.13587E+01   -0.13736E+01 35904   0.850E+00    0.235E+00
DAV:   3    -0.392151640514E+03   -0.56892E-01   -0.24215E-01 49504   0.136E+00    0.132E+00
DAV:   4    -0.392148117465E+03    0.35230E-02   -0.30947E-02 51808   0.479E-01    0.762E-01
DAV:   5    -0.392150270346E+03   -0.21529E-02   -0.96393E-03 48096   0.343E-01    0.199E-01
DAV:   6    -0.392150645794E+03   -0.37545E-03   -0.36765E-03 46560   0.153E-01    0.105E-01
DAV:   7    -0.392150621751E+03    0.24043E-04   -0.62369E-04 50968   0.591E-02    0.551E-02
DAV:   8    -0.392150603846E+03    0.17905E-04   -0.10752E-04 50704   0.358E-02    0.315E-02
DAV:   9    -0.392150594968E+03    0.88781E-05   -0.37019E-05 37952   0.329E-02
  42 F= -.39215059E+03 E0= -.39215059E+03  d E =-.730604E-01  mag=    36.0000
       N       E                     dE             d eps       ncg     rms          rms(c)
DAV:   1    -0.391506503275E+03    0.64410E+00   -0.94726E+01 37072   0.301E+01    0.323E+00
DAV:   2    -0.392095352982E+03   -0.58885E+00   -0.58978E+00 35832   0.552E+00    0.158E+00
DAV:   3    -0.392126778007E+03   -0.31425E-01   -0.11170E-01 50648   0.883E-01    0.870E-01
DAV:   4    -0.392125699329E+03    0.10787E-02   -0.11176E-02 52856   0.274E-01    0.513E-01
DAV:   5    -0.392126747046E+03   -0.10477E-02   -0.41960E-03 46968   0.223E-01    0.133E-01
DAV:   6    -0.392126913475E+03   -0.16643E-03   -0.18590E-03 46864   0.110E-01    0.669E-02
DAV:   7    -0.392126910158E+03    0.33176E-05   -0.36305E-04 51336   0.450E-02    0.365E-02
DAV:   8    -0.392126902931E+03    0.72265E-05   -0.47533E-05 40840   0.226E-02
  43 F= -.39212690E+03 E0= -.39212690E+03  d E =0.236920E-01  mag=    36.0000
       N       E                     dE             d eps       ncg     rms          rms(c)
DAV:   1    -0.391333981768E+03    0.79293E+00   -0.12115E+02 37768   0.340E+01    0.338E+00
DAV:   2    -0.392008095040E+03   -0.67411E+00   -0.68729E+00 35792   0.618E+00    0.170E+00
DAV:   3    -0.392037212334E+03   -0.29117E-01   -0.13016E-01 52440   0.985E-01    0.985E-01
DAV:   4    -0.392034457322E+03    0.27550E-02   -0.15087E-02 50928   0.373E-01    0.545E-01
DAV:   5    -0.392035308634E+03   -0.85131E-03   -0.53616E-03 46816   0.322E-01    0.145E-01
DAV:   6    -0.392035549328E+03   -0.24069E-03   -0.36029E-03 45976   0.150E-01    0.885E-02
DAV:   7    -0.392035509737E+03    0.39591E-04   -0.50769E-04 55040   0.495E-02    0.501E-02
DAV:   8    -0.392035471031E+03    0.38705E-04   -0.46260E-05 41752   0.393E-02    0.282E-02
DAV:   9    -0.392035450986E+03    0.20045E-04   -0.37978E-05 39808   0.451E-02    0.118E-02
DAV:  10    -0.392035449817E+03    0.11694E-05   -0.65183E-05 41600   0.244E-02
  44 F= -.39203545E+03 E0= -.39203545E+03  d E =0.914531E-01  mag=    36.0000
       N       E                     dE             d eps       ncg     rms          rms(c)
DAV:   1    -0.391808940090E+03    0.22651E+00   -0.43580E+01 37168   0.208E+01    0.215E+00
DAV:   2    -0.392075788854E+03   -0.26685E+00   -0.26902E+00 35792   0.383E+00    0.106E+00
DAV:   3    -0.392088807176E+03   -0.13018E-01   -0.50769E-02 49920   0.616E-01    0.606E-01
DAV:   4    -0.392088076419E+03    0.73076E-03   -0.51498E-03 54472   0.222E-01    0.356E-01
DAV:   5    -0.392088349204E+03   -0.27278E-03   -0.20439E-03 47368   0.212E-01    0.857E-02
DAV:   6    -0.392088460981E+03   -0.11178E-03   -0.14191E-03 45712   0.976E-02    0.550E-02
DAV:   7    -0.392088443233E+03    0.17749E-04   -0.20370E-04 49712   0.319E-02    0.330E-02
DAV:   8    -0.392088428308E+03    0.14925E-04   -0.20268E-05 34216   0.231E-02    0.195E-02
DAV:   9    -0.392088416746E+03    0.11562E-04   -0.18484E-05 32072   0.294E-02    0.797E-03
DAV:  10    -0.392088416268E+03    0.47771E-06   -0.25112E-05 35120   0.175E-02
  45 F= -.39208842E+03 E0= -.39208842E+03  d E =-.529665E-01  mag=    36.0000
       N       E                     dE             d eps       ncg     rms          rms(c)
DAV:   1    -0.391831101460E+03    0.25732E+00   -0.39700E+01 37896   0.210E+01    0.225E+00
DAV:   2    -0.392102810443E+03   -0.27171E+00   -0.27099E+00 35792   0.379E+00    0.110E+00
DAV:   3    -0.392120687729E+03   -0.17877E-01   -0.51108E-02 47728   0.628E-01    0.601E-01
DAV:   4    -0.392120510371E+03    0.17736E-03   -0.49753E-03 56336   0.202E-01    0.353E-01
DAV:   5    -0.392121134616E+03   -0.62424E-03   -0.19973E-03 46856   0.180E-01    0.881E-02
DAV:   6    -0.392121225049E+03   -0.90433E-04   -0.10551E-03 46456   0.834E-02    0.481E-02
DAV:   7    -0.392121214040E+03    0.11009E-04   -0.15056E-04 48688   0.289E-02    0.281E-02
DAV:   8    -0.392121204841E+03    0.91993E-05   -0.16635E-05 32304   0.178E-02
  46 F= -.39212120E+03 E0= -.39212120E+03  d E =-.327886E-01  mag=    36.0000
       N       E                     dE             d eps       ncg     rms          rms(c)
DAV:   1    -0.392011056113E+03    0.11016E+00   -0.11031E+01 38096   0.113E+01    0.130E+00
DAV:   2    -0.392094555206E+03   -0.83499E-01   -0.84411E-01 35776   0.206E+00    0.636E-01
DAV:   3    -0.392102035232E+03   -0.74800E-02   -0.16371E-02 45592   0.364E-01    0.347E-01
DAV:   4    -0.392102083665E+03   -0.48432E-04   -0.15746E-03 53776   0.124E-01    0.201E-01
DAV:   5    -0.392102378803E+03   -0.29514E-03   -0.66556E-04 46384   0.115E-01    0.513E-02
DAV:   6    -0.392102408587E+03   -0.29784E-04   -0.41178E-04 45736   0.524E-02    0.285E-02
DAV:   7    -0.392102403725E+03    0.48626E-05   -0.55616E-05 41320   0.171E-02
  47 F= -.39210240E+03 E0= -.39210240E+03  d E =0.188011E-01  mag=    36.0000
       N       E                     dE             d eps       ncg     rms          rms(c)
DAV:   1    -0.392059037765E+03    0.43371E-01   -0.48195E+00 38344   0.720E+00    0.741E-01
DAV:   2    -0.392089358594E+03   -0.30321E-01   -0.30465E-01 35776   0.130E+00    0.364E-01
DAV:   3    -0.392091260735E+03   -0.19021E-02   -0.52735E-03 48360   0.200E-01    0.203E-01
DAV:   4    -0.392091222657E+03    0.38077E-04   -0.57687E-04 57296   0.649E-02    0.117E-01
DAV:   5    -0.392091290635E+03   -0.67978E-04   -0.23389E-04 45976   0.541E-02    0.304E-02
DAV:   6    -0.392091300443E+03   -0.98076E-05   -0.96837E-05 40016   0.244E-02
  48 F= -.39209130E+03 E0= -.39209130E+03  d E =0.111033E-01  mag=    36.0000
       N       E                     dE             d eps       ncg     rms          rms(c)
DAV:   1    -0.392089100473E+03    0.21902E-02   -0.72120E-01 38504   0.285E+00    0.303E-01
DAV:   2    -0.392094296499E+03   -0.51960E-02   -0.51027E-02 35920   0.516E-01    0.153E-01
DAV:   3    -0.392094628236E+03   -0.33174E-03   -0.88575E-04 45960   0.814E-02    0.846E-02
DAV:   4    -0.392094623091E+03    0.51457E-05   -0.86478E-05 47064   0.265E-02
  49 F= -.39209462E+03 E0= -.39209462E+03  d E =-.332265E-02  mag=    36.0000
