       N       E                     dE             d eps       ncg     rms          rms(c)
DAV:   1     0.581749311103E+04    0.58175E+04   -0.21673E+05 28632   0.158E+03
DAV:   2     0.574821922534E+03   -0.52427E+04   -0.49074E+04 28920   0.474E+02
DAV:   3    -0.371858325346E+03   -0.94668E+03   -0.92872E+03 30296   0.206E+02
DAV:   4    -0.415995244319E+03   -0.44137E+02   -0.42491E+02 36696   0.488E+01
DAV:   5    -0.417960205512E+03   -0.19650E+01   -0.19102E+01 38880   0.953E+00    0.875E+01
DAV:   6    -0.310112545144E+03    0.10785E+03   -0.60502E+02 38664   0.763E+01    0.419E+01
DAV:   7    -0.338051893806E+03   -0.27939E+02   -0.39038E+02 38832   0.476E+01    0.410E+01
DAV:   8    -0.336291952026E+03    0.17599E+01   -0.74785E+01 36792   0.263E+01    0.395E+01
DAV:   9    -0.331850755004E+03    0.44412E+01   -0.22095E+01 37152   0.141E+01    0.395E+01
DAV:  10    -0.331124900116E+03    0.72585E+00   -0.12504E+02 36544   0.918E+00    0.350E+01
DAV:  11    -0.330924184857E+03    0.20072E+00   -0.53008E+01 37440   0.120E+01    0.310E+01
DAV:  12    -0.331418200484E+03   -0.49402E+00   -0.66177E+00 38848   0.101E+01    0.287E+01
DAV:  13    -0.337414065289E+03   -0.59959E+01   -0.17929E+01 38208   0.110E+01    0.287E+01
DAV:  14    -0.341619475424E+03   -0.42054E+01   -0.11458E+01 35784   0.967E+00    0.191E+01
DAV:  15    -0.343252181088E+03   -0.16327E+01   -0.16590E+01 37056   0.544E+00    0.205E+01
DAV:  16    -0.344003076937E+03   -0.75090E+00   -0.38537E+00 36824   0.492E+00    0.121E+01
DAV:  17    -0.346513256127E+03   -0.25102E+01   -0.13616E+00 34376   0.296E+00    0.119E+01
DAV:  18    -0.347114480105E+03   -0.60122E+00   -0.32705E-01 34832   0.173E+00    0.102E+01
DAV:  19    -0.347710468113E+03   -0.59599E+00   -0.36187E-01 34760   0.165E+00    0.104E+01
DAV:  20    -0.347982916824E+03   -0.27245E+00   -0.51644E-01 36608   0.185E+00    0.811E+00
DAV:  21    -0.348559730297E+03   -0.57681E+00   -0.30097E-01 35376   0.127E+00    0.640E+00
DAV:  22    -0.349010344520E+03   -0.45061E+00   -0.11408E-01 34776   0.967E-01    0.563E+00
DAV:  23    -0.350244594563E+03   -0.12343E+01   -0.61745E-01 35392   0.184E+00    0.516E+00
DAV:  24    -0.351089315993E+03   -0.84472E+00   -0.51196E-01 34960   0.186E+00    0.494E+00
DAV:  25    -0.351307906279E+03   -0.21859E+00   -0.30859E-01 35552   0.169E+00    0.341E+00
DAV:  26    -0.351570642271E+03   -0.26274E+00   -0.20299E-01 34960   0.131E+00    0.363E+00
DAV:  27    -0.351697392469E+03   -0.12675E+00   -0.80207E-02 32800   0.820E-01    0.335E+00
DAV:  28    -0.351762841473E+03   -0.65449E-01   -0.30319E-02 35832   0.552E-01    0.282E+00
DAV:  29    -0.351853915910E+03   -0.91074E-01   -0.62507E-02 35968   0.710E-01    0.182E+00
DAV:  30    -0.351874251398E+03   -0.20335E-01   -0.14675E-02 32088   0.330E-01    0.174E+00
DAV:  31    -0.351900268163E+03   -0.26017E-01   -0.25695E-02 35416   0.371E-01    0.131E+00
DAV:  32    -0.351923869141E+03   -0.23601E-01   -0.50887E-02 34280   0.588E-01    0.211E+00
DAV:  33    -0.351925318463E+03   -0.14493E-02   -0.99697E-03 32640   0.311E-01    0.139E+00
DAV:  34    -0.351932361820E+03   -0.70434E-02   -0.53489E-03 37080   0.231E-01    0.114E+00
DAV:  35    -0.351932674175E+03   -0.31235E-03   -0.96623E-03 36960   0.272E-01    0.638E-01
DAV:  36    -0.351934594929E+03   -0.19208E-02   -0.45051E-03 32376   0.205E-01    0.520E-01
DAV:  37    -0.351934607751E+03   -0.12822E-04   -0.25164E-03 34016   0.145E-01    0.524E-01
DAV:  38    -0.351934526699E+03    0.81051E-04   -0.66971E-04 32688   0.823E-02    0.424E-01
DAV:  39    -0.351934682585E+03   -0.15589E-03   -0.66511E-04 39032   0.814E-02    0.391E-01
DAV:  40    -0.351934806396E+03   -0.12381E-03   -0.48309E-04 36208   0.767E-02    0.373E-01
DAV:  41    -0.351934470233E+03    0.33616E-03   -0.67278E-04 37840   0.753E-02    0.198E-01
DAV:  42    -0.351934338607E+03    0.13163E-03   -0.55751E-04 32224   0.690E-02    0.216E-01
DAV:  43    -0.351934269080E+03    0.69528E-04   -0.26412E-04 33064   0.456E-02    0.987E-02
DAV:  44    -0.351934250945E+03    0.18135E-04   -0.54584E-05 25104   0.293E-02    0.891E-02
DAV:  45    -0.351934241078E+03    0.98672E-05   -0.49472E-05 25840   0.208E-02
   1 F= -.35193424E+03 E0= -.35191915E+03  d E =-.351934E+03  mag=     8.0256
       N       E                     dE             d eps       ncg     rms          rms(c)
DAV:   1    -0.351950599078E+03   -0.16348E-01   -0.10534E-02 31024   0.223E-01    0.769E-02
DAV:   2    -0.351951603930E+03   -0.10049E-02   -0.31442E-03 35232   0.125E-01    0.700E-01
DAV:   3    -0.351950527311E+03    0.10766E-02   -0.18420E-03 33448   0.102E-01    0.132E-01
DAV:   4    -0.351950622762E+03   -0.95451E-04   -0.70330E-05 20832   0.247E-02    0.673E-02
DAV:   5    -0.351950631448E+03   -0.86860E-05   -0.28002E-05 19640   0.169E-02
   2 F= -.35195063E+03 E0= -.35193551E+03  d E =-.163904E-01  mag=     8.0173
       N       E                     dE             d eps       ncg     rms          rms(c)
DAV:   1    -0.352632644551E+03   -0.68202E+00   -0.35203E+01 31272   0.128E+01    0.121E+00
DAV:   2    -0.352776352139E+03   -0.14371E+00   -0.15125E+00 29088   0.233E+00    0.207E+00
DAV:   3    -0.352774928584E+03    0.14236E-02   -0.66999E-02 41496   0.730E-01    0.179E+00
DAV:   4    -0.352770808783E+03    0.41198E-02   -0.20941E-02 39728   0.504E-01    0.152E+00
DAV:   5    -0.352767268202E+03    0.35406E-02   -0.20102E-02 39696   0.422E-01    0.117E+00
DAV:   6    -0.352768511098E+03   -0.12429E-02   -0.29721E-02 39304   0.355E-01    0.147E+00
DAV:   7    -0.352763866908E+03    0.46442E-02   -0.18254E-02 38848   0.405E-01    0.934E-01
DAV:   8    -0.352763726087E+03    0.14082E-03   -0.12118E-02 39488   0.331E-01    0.869E-01
DAV:   9    -0.352762533933E+03    0.11922E-02   -0.39401E-03 39744   0.224E-01    0.425E-01
DAV:  10    -0.352762490829E+03    0.43105E-04   -0.17736E-03 38352   0.145E-01    0.376E-01
DAV:  11    -0.352762219592E+03    0.27124E-03   -0.12378E-03 38736   0.101E-01    0.139E-01
DAV:  12    -0.352762238517E+03   -0.18926E-04   -0.25744E-04 36632   0.586E-02    0.123E-01
DAV:  13    -0.352762210744E+03    0.27773E-04   -0.10874E-04 30248   0.402E-02    0.593E-02
DAV:  14    -0.352762256527E+03   -0.45783E-04   -0.12911E-04 26328   0.349E-02    0.162E-01
DAV:  15    -0.352762213214E+03    0.43313E-04   -0.10303E-04 25432   0.311E-02    0.595E-02
DAV:  16    -0.352762212773E+03    0.44097E-06   -0.16109E-05 20016   0.164E-02
   3 F= -.35276221E+03 E0= -.35274726E+03  d E =-.811581E+00  mag=     8.0027
       N       E                     dE             d eps       ncg     rms          rms(c)
DAV:   1    -0.353140742793E+03   -0.37853E+00   -0.15587E+02 31624   0.277E+01    0.282E+00
DAV:   2    -0.353981065779E+03   -0.84032E+00   -0.85637E+00 29016   0.549E+00    0.567E+00
DAV:   3    -0.353977864833E+03    0.32009E-02   -0.61041E-01 41784   0.218E+00    0.541E+00
DAV:   4    -0.353913898354E+03    0.63966E-01   -0.18019E-01 40184   0.126E+00    0.242E+00
DAV:   5    -0.353916410843E+03   -0.25125E-02   -0.13501E-01 39600   0.948E-01    0.309E+00
DAV:   6    -0.353898573393E+03    0.17837E-01   -0.97560E-02 39712   0.716E-01    0.194E+00
DAV:   7    -0.353897174892E+03    0.13985E-02   -0.35901E-02 39392   0.700E-01    0.256E+00
DAV:   8    -0.353891372035E+03    0.58029E-02   -0.41499E-02 40808   0.696E-01    0.222E+00
DAV:   9    -0.353884166176E+03    0.72059E-02   -0.20469E-02 39576   0.598E-01    0.928E-01
DAV:  10    -0.353885099260E+03   -0.93308E-03   -0.18884E-02 39112   0.351E-01    0.931E-01
DAV:  11    -0.353882684089E+03    0.24152E-02   -0.93221E-03 39152   0.304E-01    0.276E-01
DAV:  12    -0.353883129757E+03   -0.44567E-03   -0.20604E-03 38784   0.155E-01    0.401E-01
DAV:  13    -0.353882949476E+03    0.18028E-03   -0.13181E-03 37504   0.107E-01    0.303E-01
DAV:  14    -0.353882858718E+03    0.90759E-04   -0.50409E-04 36120   0.787E-02    0.164E-01
DAV:  15    -0.353882887610E+03   -0.28893E-04   -0.34711E-04 37792   0.631E-02    0.147E-01
DAV:  16    -0.353882872226E+03    0.15385E-04   -0.12803E-04 31312   0.484E-02    0.121E-01
DAV:  17    -0.353882852654E+03    0.19572E-04   -0.82072E-05 30240   0.366E-02    0.684E-02
DAV:  18    -0.353882855659E+03   -0.30055E-05   -0.89612E-05 29392   0.303E-02
   4 F= -.35388286E+03 E0= -.35386800E+03  d E =-.112064E+01  mag=     8.0003
       N       E                     dE             d eps       ncg     rms          rms(c)
DAV:   1    -0.353861467463E+03    0.21385E-01   -0.10155E+02 31976   0.243E+01    0.230E+00
DAV:   2    -0.354424592358E+03   -0.56312E+00   -0.55800E+00 28648   0.478E+00    0.501E+00
DAV:   3    -0.354422743794E+03    0.18486E-02   -0.49810E-01 41064   0.197E+00    0.495E+00
DAV:   4    -0.354371488613E+03    0.51255E-01   -0.13673E-01 40200   0.111E+00    0.177E+00
DAV:   5    -0.354377698403E+03   -0.62098E-02   -0.90341E-02 40320   0.728E-01    0.241E+00
DAV:   6    -0.354363808702E+03    0.13890E-01   -0.52571E-02 39016   0.548E-01    0.100E+00
DAV:   7    -0.354369410127E+03   -0.56014E-02   -0.15974E-02 39584   0.499E-01    0.229E+00
DAV:   8    -0.354359875806E+03    0.95343E-02   -0.16694E-02 39592   0.477E-01    0.107E+00
DAV:   9    -0.354359001483E+03    0.87432E-03   -0.10635E-02 38696   0.319E-01    0.573E-01
DAV:  10    -0.354359308849E+03   -0.30737E-03   -0.49066E-03 40448   0.218E-01    0.546E-01
DAV:  11    -0.354358660037E+03    0.64881E-03   -0.23842E-03 39440   0.163E-01    0.185E-01
DAV:  12    -0.354358821022E+03   -0.16098E-03   -0.70599E-04 37880   0.941E-02    0.256E-01
DAV:  13    -0.354358778814E+03    0.42208E-04   -0.55611E-04 35824   0.753E-02    0.239E-01
DAV:  14    -0.354358714567E+03    0.64247E-04   -0.35888E-04 31632   0.605E-02    0.135E-01
DAV:  15    -0.354358718224E+03   -0.36566E-05   -0.15060E-04 30480   0.419E-02    0.128E-01
DAV:  16    -0.354358704321E+03    0.13903E-04   -0.73519E-05 26448   0.406E-02    0.835E-02
DAV:  17    -0.354358716876E+03   -0.12555E-04   -0.11724E-04 28992   0.365E-02    0.811E-02
DAV:  18    -0.354358711439E+03    0.54369E-05   -0.54656E-05 23032   0.286E-02
   5 F= -.35435871E+03 E0= -.35434383E+03  d E =-.475856E+00  mag=     8.0000
       N       E                     dE             d eps       ncg     rms          rms(c)
DAV:   1    -0.354028813716E+03    0.32990E+00   -0.14906E+02 30432   0.296E+01    0.257E+00
DAV:   2    -0.354723384792E+03   -0.69457E+00   -0.69651E+00 28544   0.592E+00    0.522E+00
DAV:   3    -0.354709522253E+03    0.13863E-01   -0.51456E-01 41320   0.208E+00    0.484E+00
DAV:   4    -0.354667396063E+03    0.42126E-01   -0.16151E-01 40728   0.113E+00    0.226E+00
DAV:   5    -0.354668935787E+03   -0.15397E-02   -0.72459E-02 39776   0.799E-01    0.253E+00
DAV:   6    -0.354661940350E+03    0.69954E-02   -0.52498E-02 38728   0.575E-01    0.196E+00
DAV:   7    -0.354662809982E+03   -0.86963E-03   -0.25211E-02 38424   0.695E-01    0.245E+00
DAV:   8    -0.354655271497E+03    0.75385E-02   -0.26298E-02 40192   0.658E-01    0.173E+00
DAV:   9    -0.354652674305E+03    0.25972E-02   -0.16047E-02 39544   0.541E-01    0.108E+00
DAV:  10    -0.354652698816E+03   -0.24510E-04   -0.13110E-02 39240   0.360E-01    0.855E-01
DAV:  11    -0.354651338320E+03    0.13605E-02   -0.87007E-03 38384   0.273E-01    0.377E-01
DAV:  12    -0.354651516943E+03   -0.17862E-03   -0.19065E-03 38688   0.149E-01    0.289E-01
DAV:  13    -0.354651456396E+03    0.60547E-04   -0.64845E-04 38448   0.112E-01    0.241E-01
DAV:  14    -0.354651450165E+03    0.62315E-05   -0.36896E-04 34272   0.547E-02    0.219E-01
DAV:  15    -0.354651407127E+03    0.43038E-04   -0.10834E-04 26360   0.393E-02    0.166E-01
DAV:  16    -0.354651370268E+03    0.36858E-04   -0.15206E-04 29552   0.471E-02    0.124E-01
DAV:  17    -0.354651364156E+03    0.61129E-05   -0.23123E-04 37736   0.587E-02    0.135E-01
DAV:  18    -0.354651342899E+03    0.21256E-04   -0.15089E-04 30200   0.525E-02    0.557E-02
DAV:  19    -0.354651356164E+03   -0.13265E-04   -0.32240E-05 24328   0.190E-02    0.509E-02
DAV:  20    -0.354651355267E+03    0.89712E-06   -0.81499E-06 16536   0.127E-02
   6 F= -.35465136E+03 E0= -.35463653E+03  d E =-.292644E+00  mag=     8.0000
       N       E                     dE             d eps       ncg     rms          rms(c)
DAV:   1    -0.354154736565E+03    0.49662E+00   -0.16542E+02 30896   0.325E+01    0.260E+00
DAV:   2    -0.354834029881E+03   -0.67929E+00   -0.70769E+00 28320   0.617E+00    0.409E+00
DAV:   3    -0.354839428581E+03   -0.53987E-02   -0.49440E-01 40056   0.189E+00    0.457E+00
DAV:   4    -0.354805685400E+03    0.33743E-01   -0.19786E-01 39848   0.110E+00    0.267E+00
DAV:   5    -0.354799368125E+03    0.63173E-02   -0.52005E-02 39848   0.768E-01    0.200E+00
DAV:   6    -0.354808917035E+03   -0.95489E-02   -0.55686E-02 40496   0.775E-01    0.308E+00
DAV:   7    -0.354800014979E+03    0.89021E-02   -0.64406E-02 38248   0.813E-01    0.246E+00
DAV:   8    -0.354788152610E+03    0.11862E-01   -0.32747E-02 39648   0.625E-01    0.853E-01
DAV:   9    -0.354790228078E+03   -0.20755E-02   -0.20908E-02 38536   0.438E-01    0.953E-01
DAV:  10    -0.354788788437E+03    0.14396E-02   -0.11709E-02 39120   0.328E-01    0.621E-01
DAV:  11    -0.354789200984E+03   -0.41255E-03   -0.39779E-03 38912   0.204E-01    0.640E-01
DAV:  12    -0.354788760763E+03    0.44022E-03   -0.15655E-03 37648   0.147E-01    0.335E-01
DAV:  13    -0.354788781227E+03   -0.20464E-04   -0.49148E-04 38080   0.901E-02    0.258E-01
DAV:  14    -0.354788881328E+03   -0.10010E-03   -0.26190E-04 37072   0.630E-02    0.366E-01
DAV:  15    -0.354788695911E+03    0.18542E-03   -0.19247E-04 35920   0.544E-02    0.214E-01
DAV:  16    -0.354788572925E+03    0.12299E-03   -0.25397E-04 36512   0.652E-02    0.137E-01
DAV:  17    -0.354788586747E+03   -0.13822E-04   -0.37590E-04 38760   0.836E-02    0.167E-01
DAV:  18    -0.354788559528E+03    0.27219E-04   -0.30618E-04 37960   0.738E-02    0.756E-02
DAV:  19    -0.354788581194E+03   -0.21666E-04   -0.64245E-05 27344   0.284E-02    0.770E-02
DAV:  20    -0.354788576255E+03    0.49389E-05   -0.17126E-05 21184   0.184E-02
   7 F= -.35478858E+03 E0= -.35477398E+03  d E =-.137221E+00  mag=     8.0000
       N       E                     dE             d eps       ncg     rms          rms(c)
DAV:   1    -0.354447146508E+03    0.34143E+00   -0.10368E+02 30960   0.265E+01    0.200E+00
DAV:   2    -0.354846563668E+03   -0.39942E+00   -0.41886E+00 28304   0.475E+00    0.298E+00
DAV:   3    -0.354869493716E+03   -0.22930E-01   -0.32532E-01 40136   0.159E+00    0.460E+00
DAV:   4    -0.354828127577E+03    0.41366E-01   -0.95938E-02 39696   0.935E-01    0.164E+00
DAV:   5    -0.354828541384E+03   -0.41381E-03   -0.23288E-02 40632   0.532E-01    0.113E+00
DAV:   6    -0.354834346282E+03   -0.58049E-02   -0.33828E-02 38768   0.486E-01    0.211E+00
DAV:   7    -0.354824225696E+03    0.10121E-01   -0.27325E-02 38240   0.500E-01    0.758E-01
DAV:   8    -0.354824355431E+03   -0.12973E-03   -0.72345E-03 38536   0.302E-01    0.559E-01
DAV:   9    -0.354825464300E+03   -0.11089E-02   -0.66244E-03 37848   0.245E-01    0.918E-01
DAV:  10    -0.354824148412E+03    0.13159E-02   -0.37771E-03 37896   0.188E-01    0.306E-01
DAV:  11    -0.354824451075E+03   -0.30266E-03   -0.16160E-03 38304   0.122E-01    0.278E-01
DAV:  12    -0.354824421467E+03    0.29607E-04   -0.49730E-04 37008   0.766E-02    0.196E-01
DAV:  13    -0.354824404503E+03    0.16964E-04   -0.63696E-05 24752   0.320E-02    0.162E-01
DAV:  14    -0.354824421662E+03   -0.17159E-04   -0.72584E-05 24440   0.338E-02    0.189E-01
DAV:  15    -0.354824390805E+03    0.30857E-04   -0.68291E-05 28744   0.315E-02    0.143E-01
DAV:  16    -0.354824333245E+03    0.57560E-04   -0.14958E-04 32288   0.492E-02    0.782E-02
DAV:  17    -0.354824343244E+03   -0.99991E-05   -0.11112E-04 32968   0.454E-02    0.782E-02
DAV:  18    -0.354824338438E+03    0.48055E-05   -0.46930E-05 22280   0.302E-02
   8 F= -.35482434E+03 E0= -.35480990E+03  d E =-.357622E-01  mag=     8.0000
       N       E                     dE             d eps       ncg     rms          rms(c)
DAV:   1    -0.354322999722E+03    0.50134E+00   -0.13323E+02 30800   0.313E+01    0.226E+00
DAV:   2    -0.354911774146E+03   -0.58877E+00   -0.59478E+00 28328   0.584E+00    0.451E+00
DAV:   3    -0.354894255835E+03    0.17518E-01   -0.39672E-01 37752   0.185E+00    0.397E+00
DAV:   4    -0.354871015182E+03    0.23241E-01   -0.16681E-01 39160   0.107E+00    0.244E+00
DAV:   5    -0.354861554678E+03    0.94605E-02   -0.35313E-02 38800   0.635E-01    0.157E+00
DAV:   6    -0.354866892837E+03   -0.53382E-02   -0.20696E-02 39088   0.512E-01    0.235E+00
DAV:   7    -0.354861446379E+03    0.54465E-02   -0.38440E-02 37952   0.690E-01    0.204E+00
DAV:   8    -0.354853171247E+03    0.82751E-02   -0.25073E-02 39312   0.522E-01    0.742E-01
DAV:   9    -0.354854705082E+03   -0.15338E-02   -0.11622E-02 38728   0.356E-01    0.820E-01
DAV:  10    -0.354854191401E+03    0.51368E-03   -0.65163E-03 39040   0.269E-01    0.697E-01
DAV:  11    -0.354853766441E+03    0.42496E-03   -0.20252E-03 37832   0.177E-01    0.426E-01
DAV:  12    -0.354853689688E+03    0.76752E-04   -0.13729E-03 38544   0.131E-01    0.285E-01
DAV:  13    -0.354853682215E+03    0.74730E-05   -0.64001E-04 38720   0.916E-02    0.234E-01
DAV:  14    -0.354853789476E+03   -0.10726E-03   -0.42244E-04 35752   0.667E-02    0.349E-01
DAV:  15    -0.354853613835E+03    0.17564E-03   -0.31875E-04 32784   0.596E-02    0.201E-01
DAV:  16    -0.354853556008E+03    0.57827E-04   -0.18009E-04 32680   0.548E-02    0.138E-01
DAV:  17    -0.354853515674E+03    0.40335E-04   -0.25703E-04 38288   0.629E-02    0.104E-01
DAV:  18    -0.354853541080E+03   -0.25406E-04   -0.15633E-04 30176   0.457E-02    0.742E-02
DAV:  19    -0.354853545952E+03   -0.48724E-05   -0.25756E-05 22040   0.230E-02
   9 F= -.35485355E+03 E0= -.35483888E+03  d E =-.292075E-01  mag=     8.0000
       N       E                     dE             d eps       ncg     rms          rms(c)
DAV:   1    -0.353003848138E+03    0.18497E+01   -0.22222E+02 32656   0.410E+01    0.592E+00
DAV:   2    -0.354595225516E+03   -0.15914E+01   -0.16873E+01 28352   0.935E+00    0.992E+00
DAV:   3    -0.354493276975E+03    0.10195E+00   -0.94996E-01 35184   0.271E+00    0.699E+00
DAV:   4    -0.354491224188E+03    0.20528E-02   -0.25609E-01 38480   0.156E+00    0.749E+00
DAV:   5    -0.354466105148E+03    0.25119E-01   -0.25420E-01 40536   0.163E+00    0.706E+00
DAV:   6    -0.354522064408E+03   -0.55959E-01   -0.84938E-01 39464   0.213E+00    0.806E+00
DAV:   7    -0.354603124236E+03   -0.81060E-01   -0.68087E-01 36864   0.224E+00    0.115E+01
DAV:   8    -0.354372204595E+03    0.23092E+00   -0.68336E-01 38320   0.192E+00    0.403E+00
DAV:   9    -0.354434600419E+03   -0.62396E-01   -0.25653E-01 37688   0.141E+00    0.612E+00
DAV:  10    -0.354385449159E+03    0.49151E-01   -0.26844E-01 37840   0.121E+00    0.292E+00
DAV:  11    -0.354383152246E+03    0.22969E-02   -0.69914E-02 38480   0.735E-01    0.135E+00
DAV:  12    -0.354386460858E+03   -0.33086E-02   -0.15764E-02 39104   0.454E-01    0.110E+00
DAV:  13    -0.354387154344E+03   -0.69349E-03   -0.63934E-03 38720   0.320E-01    0.880E-01
DAV:  14    -0.354389594116E+03   -0.24398E-02   -0.84337E-03 38272   0.293E-01    0.140E+00
DAV:  15    -0.354386988215E+03    0.26059E-02   -0.53384E-03 38072   0.227E-01    0.790E-01
DAV:  16    -0.354386726146E+03    0.26207E-03   -0.84584E-04 36264   0.116E-01    0.646E-01
DAV:  17    -0.354386074867E+03    0.65128E-03   -0.11859E-03 40152   0.131E-01    0.414E-01
DAV:  18    -0.354385915078E+03    0.15979E-03   -0.10661E-03 40216   0.137E-01    0.310E-01
DAV:  19    -0.354385881168E+03    0.33910E-04   -0.52928E-04 38120   0.953E-02    0.263E-01
DAV:  20    -0.354385787461E+03    0.93707E-04   -0.24526E-04 37920   0.629E-02    0.195E-01
DAV:  21    -0.354385719841E+03    0.67621E-04   -0.20225E-04 37648   0.545E-02    0.131E-01
DAV:  22    -0.354385697894E+03    0.21947E-04   -0.10488E-04 32448   0.365E-02    0.661E-02
DAV:  23    -0.354385701429E+03   -0.35348E-05   -0.25401E-05 22976   0.220E-02
  10 F= -.35438570E+03 E0= -.35437072E+03  d E =0.467845E+00  mag=     8.0000
       N       E                     dE             d eps       ncg     rms          rms(c)
DAV:   1    -0.354567640534E+03   -0.18194E+00   -0.44078E+01 32744   0.189E+01    0.378E+00
DAV:   2    -0.355082260206E+03   -0.51462E+00   -0.44875E+00 30592   0.512E+00    0.864E+00
DAV:   3    -0.354958640678E+03    0.12362E+00   -0.54251E-01 36624   0.182E+00    0.547E+00
DAV:   4    -0.354958879806E+03   -0.23913E-03   -0.12305E-01 37776   0.697E-01    0.511E+00
DAV:   5    -0.354953671736E+03    0.52081E-02   -0.30959E-02 36512   0.520E-01    0.443E+00
DAV:   6    -0.354995426977E+03   -0.41755E-01   -0.22592E-01 39104   0.169E+00    0.670E+00
DAV:   7    -0.354935613583E+03    0.59813E-01   -0.30331E-01 37984   0.159E+00    0.445E+00
DAV:   8    -0.354927467735E+03    0.81458E-02   -0.11270E-01 36640   0.117E+00    0.288E+00
DAV:   9    -0.354920454918E+03    0.70128E-02   -0.40306E-02 38304   0.696E-01    0.190E+00
DAV:  10    -0.354916822090E+03    0.36328E-02   -0.15982E-02 38080   0.460E-01    0.148E+00
DAV:  11    -0.354916686680E+03    0.13541E-03   -0.21436E-02 39008   0.441E-01    0.160E+00
DAV:  12    -0.354915907797E+03    0.77888E-03   -0.11794E-02 38408   0.443E-01    0.158E+00
DAV:  13    -0.354911199440E+03    0.47084E-02   -0.14377E-02 38224   0.379E-01    0.641E-01
DAV:  14    -0.354910796440E+03    0.40300E-03   -0.18197E-03 37392   0.180E-01    0.401E-01
DAV:  15    -0.354910756814E+03    0.39626E-04   -0.72031E-04 38696   0.994E-02    0.407E-01
DAV:  16    -0.354910664573E+03    0.92241E-04   -0.22673E-04 38048   0.568E-02    0.333E-01
DAV:  17    -0.354910634648E+03    0.29925E-04   -0.10526E-04 32576   0.366E-02    0.262E-01
DAV:  18    -0.354910575352E+03    0.59297E-04   -0.33855E-04 38632   0.718E-02    0.176E-01
DAV:  19    -0.354910559726E+03    0.15626E-04   -0.21191E-04 37368   0.575E-02    0.111E-01
DAV:  20    -0.354910562850E+03   -0.31247E-05   -0.26083E-04 33232   0.464E-02    0.103E-01
DAV:  21    -0.354910566474E+03   -0.36239E-05   -0.68551E-05 29520   0.264E-02
  11 F= -.35491057E+03 E0= -.35489570E+03  d E =-.524865E+00  mag=     8.0000
       N       E                     dE             d eps       ncg     rms          rms(c)
DAV:   1    -0.354922224244E+03   -0.11661E-01   -0.36296E+00 32672   0.620E+00    0.667E-01
DAV:   2    -0.354959536876E+03   -0.37313E-01   -0.39686E-01 28584   0.140E+00    0.152E+00
DAV:   3    -0.354955862373E+03    0.36745E-02   -0.19582E-02 36712   0.426E-01    0.781E-01
DAV:   4    -0.354957043910E+03   -0.11815E-02   -0.86159E-03 38488   0.214E-01    0.102E+00
DAV:   5    -0.354955652034E+03    0.13919E-02   -0.54083E-03 36216   0.177E-01    0.693E-01
DAV:   6    -0.354955900436E+03   -0.24840E-03   -0.49723E-03 38032   0.190E-01    0.729E-01
DAV:   7    -0.354957405846E+03   -0.15054E-02   -0.86095E-03 36624   0.285E-01    0.128E+00
DAV:   8    -0.354954727353E+03    0.26785E-02   -0.81750E-03 36152   0.252E-01    0.581E-01
DAV:   9    -0.354954904569E+03   -0.17722E-03   -0.33154E-03 36464   0.182E-01    0.442E-01
DAV:  10    -0.354954509843E+03    0.39473E-03   -0.14017E-03 38728   0.120E-01    0.139E-01
DAV:  11    -0.354954527711E+03   -0.17868E-04   -0.24250E-04 37680   0.594E-02    0.965E-02
DAV:  12    -0.354954533391E+03   -0.56799E-05   -0.37998E-05 24864   0.208E-02
  12 F= -.35495453E+03 E0= -.35493967E+03  d E =-.439669E-01  mag=     8.0000
       N       E                     dE             d eps       ncg     rms          rms(c)
DAV:   1    -0.354953510328E+03    0.10174E-02   -0.17496E+00 32296   0.432E+00    0.408E-01
DAV:   2    -0.354969582293E+03   -0.16072E-01   -0.17299E-01 28288   0.898E-01    0.852E-01
DAV:   3    -0.354968870163E+03    0.71213E-03   -0.11457E-02 36816   0.296E-01    0.570E-01
DAV:   4    -0.354968896366E+03   -0.26203E-04   -0.51265E-03 38800   0.162E-01    0.515E-01
DAV:   5    -0.354968477919E+03    0.41845E-03   -0.18609E-03 36984   0.128E-01    0.335E-01
DAV:   6    -0.354968659594E+03   -0.18167E-03   -0.14097E-03 39456   0.124E-01    0.481E-01
DAV:   7    -0.354968916792E+03   -0.25720E-03   -0.28101E-03 37160   0.160E-01    0.654E-01
DAV:   8    -0.354968076369E+03    0.84042E-03   -0.23148E-03 37152   0.148E-01    0.211E-01
DAV:   9    -0.354968176534E+03   -0.10017E-03   -0.54434E-04 38376   0.803E-02    0.189E-01
DAV:  10    -0.354968133187E+03    0.43347E-04   -0.26702E-04 33320   0.497E-02    0.106E-01
DAV:  11    -0.354968129779E+03    0.34082E-05   -0.36699E-05 22872   0.241E-02
  13 F= -.35496813E+03 E0= -.35495324E+03  d E =-.135964E-01  mag=     8.0000
       N       E                     dE             d eps       ncg     rms          rms(c)
DAV:   1    -0.354971304851E+03   -0.31717E-02   -0.12369E+00 31712   0.318E+00    0.237E-01
DAV:   2    -0.354977371272E+03   -0.60664E-02   -0.61659E-02 28304   0.602E-01    0.531E-01
DAV:   3    -0.354977027054E+03    0.34422E-03   -0.44945E-03 36608   0.169E-01    0.377E-01
DAV:   4    -0.354976874265E+03    0.15279E-03   -0.14064E-03 40968   0.938E-02    0.235E-01
DAV:   5    -0.354976828800E+03    0.45464E-04   -0.40700E-04 37856   0.721E-02    0.205E-01
DAV:   6    -0.354976891516E+03   -0.62716E-04   -0.23327E-04 35792   0.597E-02    0.289E-01
DAV:   7    -0.354976788503E+03    0.10301E-03   -0.39797E-04 37688   0.800E-02    0.206E-01
DAV:   8    -0.354976730960E+03    0.57542E-04   -0.28639E-04 38960   0.710E-02    0.131E-01
DAV:   9    -0.354976731433E+03   -0.47244E-06   -0.14088E-04 27872   0.384E-02    0.116E-01
DAV:  10    -0.354976722357E+03    0.90755E-05   -0.32304E-05 20952   0.221E-02
  14 F= -.35497672E+03 E0= -.35496181E+03  d E =-.859258E-02  mag=     8.0000
       N       E                     dE             d eps       ncg     rms          rms(c)
DAV:   1    -0.354949385172E+03    0.27346E-01   -0.17253E+01 30880   0.107E+01    0.692E-01
DAV:   2    -0.355006615327E+03   -0.57230E-01   -0.58867E-01 28288   0.187E+00    0.109E+00
DAV:   3    -0.355006707403E+03   -0.92076E-04   -0.27728E-02 39832   0.478E-01    0.120E+00
DAV:   4    -0.355005621850E+03    0.10856E-02   -0.20487E-02 39984   0.326E-01    0.907E-01
DAV:   5    -0.355004173559E+03    0.14483E-02   -0.71856E-03 38368   0.240E-01    0.497E-01
DAV:   6    -0.355004666594E+03   -0.49303E-03   -0.27060E-03 39160   0.164E-01    0.697E-01
DAV:   7    -0.355004326661E+03    0.33993E-03   -0.43052E-03 37360   0.211E-01    0.628E-01
DAV:   8    -0.355003540799E+03    0.78586E-03   -0.20714E-03 38872   0.162E-01    0.279E-01
DAV:   9    -0.355003511461E+03    0.29339E-04   -0.57221E-04 39416   0.966E-02    0.174E-01
DAV:  10    -0.355003528115E+03   -0.16655E-04   -0.26156E-04 37896   0.585E-02    0.141E-01
DAV:  11    -0.355003511689E+03    0.16426E-04   -0.85799E-05 25488   0.359E-02    0.826E-02
DAV:  12    -0.355003514790E+03   -0.31009E-05   -0.23934E-05 19944   0.172E-02
  15 F= -.35500351E+03 E0= -.35498857E+03  d E =-.267924E-01  mag=     8.0000
       N       E                     dE             d eps       ncg     rms          rms(c)
DAV:   1    -0.354630299841E+03    0.37321E+00   -0.14056E+02 31272   0.298E+01    0.192E+00
DAV:   2    -0.355074100215E+03   -0.44380E+00   -0.46190E+00 28288   0.518E+00    0.258E+00
DAV:   3    -0.355084315284E+03   -0.10215E-01   -0.16024E-01 40344   0.134E+00    0.412E+00
DAV:   4    -0.355059325399E+03    0.24990E-01   -0.83881E-02 39672   0.848E-01    0.186E+00
DAV:   5    -0.355056263546E+03    0.30619E-02   -0.32093E-02 38912   0.607E-01    0.120E+00
DAV:   6    -0.355064299201E+03   -0.80357E-02   -0.42813E-02 37848   0.498E-01    0.238E+00
DAV:   7    -0.355054673111E+03    0.96261E-02   -0.50171E-02 37192   0.564E-01    0.153E+00
DAV:   8    -0.355050815832E+03    0.38573E-02   -0.10538E-02 38320   0.331E-01    0.624E-01
DAV:   9    -0.355050965942E+03   -0.15011E-03   -0.40115E-03 38704   0.245E-01    0.594E-01
DAV:  10    -0.355050830346E+03    0.13560E-03   -0.33591E-03 37256   0.167E-01    0.408E-01
DAV:  11    -0.355050720163E+03    0.11018E-03   -0.77871E-04 38464   0.112E-01    0.225E-01
DAV:  12    -0.355050722642E+03   -0.24793E-05   -0.61078E-04 36528   0.772E-02    0.183E-01
DAV:  13    -0.355050679394E+03    0.43248E-04   -0.35029E-04 31656   0.519E-02    0.130E-01
DAV:  14    -0.355050659671E+03    0.19723E-04   -0.10462E-04 28624   0.402E-02    0.115E-01
DAV:  15    -0.355050669427E+03   -0.97561E-05   -0.92459E-05 25872   0.384E-02
  16 F= -.35505067E+03 E0= -.35503555E+03  d E =-.471546E-01  mag=     8.0000
       N       E                     dE             d eps       ncg     rms          rms(c)
DAV:   1    -0.352530060766E+03    0.25206E+01   -0.20844E+02 32600   0.428E+01    0.551E+00
DAV:   2    -0.354974119402E+03   -0.24441E+01   -0.21863E+01 28984   0.998E+00    0.163E+01
DAV:   3    -0.354509396354E+03    0.46472E+00   -0.55546E+00 37600   0.483E+00    0.844E+00
DAV:   4    -0.354524600566E+03   -0.15204E-01   -0.11455E+00 37032   0.271E+00    0.854E+00
DAV:   5    -0.354346220259E+03    0.17838E+00   -0.41228E-01 38456   0.175E+00    0.309E+00
DAV:   6    -0.354376187073E+03   -0.29967E-01   -0.80842E-02 37976   0.954E-01    0.350E+00
DAV:   7    -0.354381712902E+03   -0.55258E-02   -0.49663E-02 39080   0.779E-01    0.348E+00
DAV:   8    -0.354376424900E+03    0.52880E-02   -0.41653E-02 39384   0.711E-01    0.294E+00
DAV:   9    -0.354353473394E+03    0.22952E-01   -0.44343E-02 38400   0.710E-01    0.263E+00
DAV:  10    -0.354345901887E+03    0.75715E-02   -0.86929E-02 38840   0.746E-01    0.272E+00
DAV:  11    -0.354336412735E+03    0.94892E-02   -0.30368E-02 38784   0.713E-01    0.187E+00
DAV:  12    -0.354342496571E+03   -0.60838E-02   -0.47803E-02 38600   0.669E-01    0.243E+00
DAV:  13    -0.354336652407E+03    0.58442E-02   -0.34721E-02 38432   0.600E-01    0.151E+00
DAV:  14    -0.354334312695E+03    0.23397E-02   -0.21452E-02 39240   0.468E-01    0.973E-01
DAV:  15    -0.354334874675E+03   -0.56198E-03   -0.10050E-02 38728   0.291E-01    0.544E-01
DAV:  16    -0.354334922622E+03   -0.47947E-04   -0.26042E-03 38376   0.202E-01    0.522E-01
DAV:  17    -0.354334982983E+03   -0.60361E-04   -0.15859E-03 37816   0.128E-01    0.550E-01
DAV:  18    -0.354334877171E+03    0.10581E-03   -0.57981E-04 37296   0.804E-02    0.395E-01
DAV:  19    -0.354334936118E+03   -0.58947E-04   -0.86299E-05 27976   0.317E-02    0.388E-01
DAV:  20    -0.354335013533E+03   -0.77415E-04   -0.54567E-05 24120   0.245E-02    0.378E-01
DAV:  21    -0.354335104273E+03   -0.90740E-04   -0.35358E-04 36696   0.639E-02    0.294E-01
DAV:  22    -0.354335314485E+03   -0.21021E-03   -0.70045E-04 37384   0.958E-02    0.221E-01
DAV:  23    -0.354335406846E+03   -0.92361E-04   -0.31889E-04 36912   0.659E-02    0.183E-01
DAV:  24    -0.354335452860E+03   -0.46014E-04   -0.16720E-04 34464   0.566E-02    0.130E-01
DAV:  25    -0.354335478561E+03   -0.25702E-04   -0.12248E-04 32736   0.360E-02    0.892E-02
DAV:  26    -0.354335479560E+03   -0.99879E-06   -0.46180E-05 24104   0.204E-02
  17 F= -.35433548E+03 E0= -.35432030E+03  d E =0.715190E+00  mag=     8.0030
       N       E                     dE             d eps       ncg     rms          rms(c)
DAV:   1    -0.354533019815E+03   -0.19754E+00   -0.33594E+01 32432   0.184E+01    0.206E+00
DAV:   2    -0.354920984695E+03   -0.38796E+00   -0.42973E+00 28552   0.419E+00    0.371E+00
DAV:   3    -0.354900145781E+03    0.20839E-01   -0.18335E-01 37624   0.133E+00    0.193E+00
DAV:   4    -0.354915193991E+03   -0.15048E-01   -0.81156E-02 39592   0.756E-01    0.327E+00
DAV:   5    -0.354896408119E+03    0.18786E-01   -0.52908E-02 38368   0.671E-01    0.179E+00
DAV:   6    -0.354902956200E+03   -0.65481E-02   -0.54320E-02 38536   0.621E-01    0.267E+00
DAV:   7    -0.354900350055E+03    0.26061E-02   -0.68172E-02 36208   0.787E-01    0.300E+00
DAV:   8    -0.354886715609E+03    0.13634E-01   -0.66165E-02 38232   0.624E-01    0.110E+00
DAV:   9    -0.354887218875E+03   -0.50327E-03   -0.76111E-03 38584   0.390E-01    0.550E-01
DAV:  10    -0.354887529673E+03   -0.31080E-03   -0.35805E-03 36840   0.209E-01    0.688E-01
DAV:  11    -0.354886622027E+03    0.90765E-03   -0.13893E-03 38448   0.152E-01    0.226E-01
DAV:  12    -0.354886704852E+03   -0.82825E-04   -0.61034E-04 37912   0.892E-02    0.199E-01
DAV:  13    -0.354886666499E+03    0.38353E-04   -0.68688E-04 38632   0.762E-02    0.210E-01
DAV:  14    -0.354886607846E+03    0.58653E-04   -0.40369E-04 30168   0.623E-02    0.177E-01
DAV:  15    -0.354886647431E+03   -0.39584E-04   -0.35851E-04 31768   0.638E-02    0.235E-01
DAV:  16    -0.354886556482E+03    0.90949E-04   -0.29873E-04 28872   0.578E-02    0.135E-01
DAV:  17    -0.354886538457E+03    0.18025E-04   -0.14232E-04 24648   0.347E-02    0.438E-02
DAV:  18    -0.354886553560E+03   -0.15103E-04   -0.28963E-05 21584   0.192E-02    0.514E-02
DAV:  19    -0.354886553073E+03    0.48729E-06   -0.11555E-05 17320   0.129E-02
  18 F= -.35488655E+03 E0= -.35487124E+03  d E =-.551074E+00  mag=     8.0003
       N       E                     dE             d eps       ncg     rms          rms(c)
DAV:   1    -0.354870112928E+03    0.16441E-01   -0.18830E+01 32096   0.128E+01    0.139E+00
DAV:   2    -0.355070464884E+03   -0.20035E+00   -0.22757E+00 28424   0.266E+00    0.152E+00
DAV:   3    -0.355087017117E+03   -0.16552E-01   -0.13656E-01 38224   0.929E-01    0.286E+00
DAV:   4    -0.355071180032E+03    0.15837E-01   -0.90799E-02 39016   0.651E-01    0.163E+00
DAV:   5    -0.355067164106E+03    0.40159E-02   -0.14826E-02 38808   0.421E-01    0.757E-01
DAV:   6    -0.355070960674E+03   -0.37966E-02   -0.17167E-02 37488   0.403E-01    0.172E+00
DAV:   7    -0.355064858163E+03    0.61025E-02   -0.17539E-02 36176   0.409E-01    0.910E-01
DAV:   8    -0.355065041287E+03   -0.18312E-03   -0.11756E-02 37920   0.329E-01    0.783E-01
DAV:   9    -0.355063753042E+03    0.12882E-02   -0.62520E-03 38008   0.239E-01    0.369E-01
DAV:  10    -0.355063629192E+03    0.12385E-03   -0.98789E-04 38608   0.136E-01    0.263E-01
DAV:  11    -0.355063583382E+03    0.45810E-04   -0.52530E-04 39008   0.804E-02    0.186E-01
DAV:  12    -0.355063531732E+03    0.51649E-04   -0.19670E-04 35904   0.589E-02    0.102E-01
DAV:  13    -0.355063522055E+03    0.96773E-05   -0.10247E-04 29168   0.409E-02    0.907E-02
DAV:  14    -0.355063523285E+03   -0.12299E-05   -0.66744E-05 23400   0.281E-02
  19 F= -.35506352E+03 E0= -.35504812E+03  d E =-.176970E+00  mag=     8.0001
       N       E                     dE             d eps       ncg     rms          rms(c)
DAV:   1    -0.355059472345E+03    0.40497E-02   -0.35651E+00 31936   0.467E+00    0.609E-01
DAV:   2    -0.355091511921E+03   -0.32040E-01   -0.33222E-01 28440   0.104E+00    0.143E+00
DAV:   3    -0.355088486802E+03    0.30251E-02   -0.23629E-02 36272   0.373E-01    0.851E-01
DAV:   4    -0.355088334855E+03    0.15195E-03   -0.81094E-03 38640   0.215E-01    0.734E-01
DAV:   5    -0.355088028155E+03    0.30670E-03   -0.37802E-03 38464   0.166E-01    0.652E-01
DAV:   6    -0.355088118126E+03   -0.89971E-04   -0.24955E-03 39120   0.171E-01    0.721E-01
DAV:   7    -0.355088622692E+03   -0.50457E-03   -0.39175E-03 37600   0.222E-01    0.904E-01
DAV:   8    -0.355087146481E+03    0.14762E-02   -0.49587E-03 38000   0.206E-01    0.384E-01
DAV:   9    -0.355087105221E+03    0.41260E-04   -0.13399E-03 37688   0.130E-01    0.248E-01
DAV:  10    -0.355087053935E+03    0.51286E-04   -0.71250E-04 37128   0.800E-02    0.171E-01
DAV:  11    -0.355087024487E+03    0.29448E-04   -0.17787E-04 30608   0.454E-02    0.909E-02
DAV:  12    -0.355087028719E+03   -0.42317E-05   -0.39127E-05 22400   0.243E-02
  20 F= -.35508703E+03 E0= -.35507160E+03  d E =-.235054E-01  mag=     8.0000
       N       E                     dE             d eps       ncg     rms          rms(c)
DAV:   1    -0.355087089214E+03   -0.64726E-04   -0.14274E+00 31456   0.315E+00    0.326E-01
DAV:   2    -0.355095476395E+03   -0.83872E-02   -0.79199E-02 28960   0.666E-01    0.869E-01
DAV:   3    -0.355094050556E+03    0.14258E-02   -0.36457E-03 36840   0.196E-01    0.472E-01
DAV:   4    -0.355094368717E+03   -0.31816E-03   -0.12521E-03 39536   0.976E-02    0.569E-01
DAV:   5    -0.355093986364E+03    0.38235E-03   -0.11335E-03 36472   0.882E-02    0.371E-01
DAV:   6    -0.355094219050E+03   -0.23269E-03   -0.13097E-03 37520   0.964E-02    0.472E-01
DAV:   7    -0.355094293553E+03   -0.74503E-04   -0.21278E-03 36072   0.129E-01    0.497E-01
DAV:   8    -0.355093950943E+03    0.34261E-03   -0.17823E-03 37512   0.125E-01    0.288E-01
DAV:   9    -0.355093909374E+03    0.41569E-04   -0.56801E-04 37880   0.874E-02    0.228E-01
DAV:  10    -0.355093878281E+03    0.31093E-04   -0.35885E-04 32152   0.652E-02    0.177E-01
DAV:  11    -0.355093845156E+03    0.33124E-04   -0.10558E-04 24952   0.426E-02    0.627E-02
DAV:  12    -0.355093857806E+03   -0.12649E-04   -0.54503E-05 21200   0.224E-02    0.673E-02
DAV:  13    -0.355093852416E+03    0.53898E-05   -0.25959E-05 18208   0.181E-02
  21 F= -.35509385E+03 E0= -.35507841E+03  d E =-.682370E-02  mag=     8.0000
       N       E                     dE             d eps       ncg     rms          rms(c)
DAV:   1    -0.355091723508E+03    0.21343E-02   -0.39178E+00 30696   0.496E+00    0.349E-01
DAV:   2    -0.355107168646E+03   -0.15445E-01   -0.15192E-01 28432   0.929E-01    0.853E-01
DAV:   3    -0.355105745863E+03    0.14228E-02   -0.49769E-03 37432   0.241E-01    0.399E-01
DAV:   4    -0.355106320835E+03   -0.57497E-03   -0.12717E-03 38848   0.132E-01    0.647E-01
DAV:   5    -0.355105652652E+03    0.66818E-03   -0.77220E-04 38584   0.112E-01    0.325E-01
DAV:   6    -0.355105811613E+03   -0.15896E-03   -0.90800E-04 38800   0.899E-02    0.407E-01
DAV:   7    -0.355105903033E+03   -0.91419E-04   -0.21015E-03 37624   0.131E-01    0.512E-01
DAV:   8    -0.355105610779E+03    0.29225E-03   -0.20584E-03 36448   0.115E-01    0.357E-01
DAV:   9    -0.355105450366E+03    0.16041E-03   -0.90511E-04 37400   0.822E-02    0.220E-01
DAV:  10    -0.355105431174E+03    0.19192E-04   -0.38794E-04 33928   0.583E-02    0.155E-01
DAV:  11    -0.355105412634E+03    0.18540E-04   -0.81576E-05 26256   0.378E-02    0.565E-02
DAV:  12    -0.355105423594E+03   -0.10959E-04   -0.44242E-05 20440   0.208E-02    0.631E-02
DAV:  13    -0.355105418273E+03    0.53201E-05   -0.20021E-05 17352   0.165E-02
  22 F= -.35510542E+03 E0= -.35509004E+03  d E =-.115659E-01  mag=     8.0000
       N       E                     dE             d eps       ncg     rms          rms(c)
DAV:   1    -0.355106580570E+03   -0.11570E-02   -0.16716E+00 30904   0.338E+00    0.203E-01
DAV:   2    -0.355112524865E+03   -0.59443E-02   -0.60345E-02 28288   0.591E-01    0.408E-01
DAV:   3    -0.355112488861E+03    0.36004E-04   -0.33816E-03 38304   0.170E-01    0.387E-01
DAV:   4    -0.355112361990E+03    0.12687E-03   -0.16508E-03 38144   0.101E-01    0.284E-01
DAV:   5    -0.355112220886E+03    0.14110E-03   -0.56089E-04 33336   0.666E-02    0.139E-01
DAV:   6    -0.355112225520E+03   -0.46341E-05   -0.20883E-04 26648   0.435E-02    0.153E-01
DAV:   7    -0.355112207340E+03    0.18181E-04   -0.19736E-04 30768   0.471E-02    0.151E-01
DAV:   8    -0.355112149681E+03    0.57659E-04   -0.18251E-04 34408   0.498E-02    0.833E-02
DAV:   9    -0.355112156994E+03   -0.73125E-05   -0.79472E-05 28232   0.316E-02
  23 F= -.35511216E+03 E0= -.35509683E+03  d E =-.673872E-02  mag=     8.0000
       N       E                     dE             d eps       ncg     rms          rms(c)
DAV:   1    -0.354809736165E+03    0.30241E+00   -0.11615E+02 30864   0.269E+01    0.155E+00
DAV:   2    -0.355166320880E+03   -0.35658E+00   -0.36682E+00 28288   0.462E+00    0.209E+00
DAV:   3    -0.355188384229E+03   -0.22063E-01   -0.25207E-01 38672   0.126E+00    0.415E+00
DAV:   4    -0.355152563547E+03    0.35821E-01   -0.10606E-01 38400   0.776E-01    0.122E+00
DAV:   5    -0.355155554011E+03   -0.29905E-02   -0.11599E-02 39312   0.390E-01    0.112E+00
DAV:   6    -0.355154088236E+03    0.14658E-02   -0.75294E-03 39656   0.352E-01    0.104E+00
DAV:   7    -0.355151604253E+03    0.24840E-02   -0.10081E-02 37896   0.360E-01    0.868E-01
DAV:   8    -0.355150386648E+03    0.12176E-02   -0.62291E-03 38424   0.244E-01    0.515E-01
DAV:   9    -0.355150796797E+03   -0.41015E-03   -0.24575E-03 38992   0.202E-01    0.667E-01
DAV:  10    -0.355150101652E+03    0.69514E-03   -0.23005E-03 38544   0.166E-01    0.271E-01
DAV:  11    -0.355150195039E+03   -0.93386E-04   -0.61579E-04 38776   0.979E-02    0.188E-01
DAV:  12    -0.355150221362E+03   -0.26324E-04   -0.39552E-04 35488   0.657E-02    0.169E-01
DAV:  13    -0.355150214717E+03    0.66450E-05   -0.19592E-04 27472   0.443E-02    0.145E-01
DAV:  14    -0.355150224368E+03   -0.96511E-05   -0.12716E-04 24664   0.387E-02    0.157E-01
DAV:  15    -0.355150190114E+03    0.34255E-04   -0.12467E-04 23168   0.327E-02    0.889E-02
DAV:  16    -0.355150185426E+03    0.46875E-05   -0.72001E-05 23392   0.318E-02
  24 F= -.35515019E+03 E0= -.35513469E+03  d E =-.380284E-01  mag=     8.0000
       N       E                     dE             d eps       ncg     rms          rms(c)
DAV:   1    -0.353607719602E+03    0.15425E+01   -0.13776E+02 32112   0.359E+01    0.491E+00
DAV:   2    -0.354710089872E+03   -0.11024E+01   -0.12986E+01 28416   0.755E+00    0.604E+00
DAV:   3    -0.354817799255E+03   -0.10771E+00   -0.15042E+00 37536   0.350E+00    0.883E+00
DAV:   4    -0.354666715389E+03    0.15108E+00   -0.69055E-01 38432   0.212E+00    0.506E+00
DAV:   5    -0.354649694413E+03    0.17021E-01   -0.25931E-01 38896   0.148E+00    0.437E+00
DAV:   6    -0.354634298987E+03    0.15395E-01   -0.34169E-01 37800   0.117E+00    0.359E+00
DAV:   7    -0.354640601296E+03   -0.63023E-02   -0.21543E-01 37528   0.122E+00    0.423E+00
DAV:   8    -0.354612183726E+03    0.28418E-01   -0.69603E-02 37888   0.111E+00    0.248E+00
DAV:   9    -0.354604987448E+03    0.71963E-02   -0.37652E-02 38192   0.658E-01    0.139E+00
DAV:  10    -0.354603577011E+03    0.14104E-02   -0.28203E-02 38824   0.452E-01    0.110E+00
DAV:  11    -0.354601837726E+03    0.17393E-02   -0.10172E-02 38832   0.341E-01    0.547E-01
DAV:  12    -0.354603152452E+03   -0.13147E-02   -0.44136E-03 38672   0.242E-01    0.994E-01
DAV:  13    -0.354601242577E+03    0.19099E-02   -0.36097E-03 38144   0.211E-01    0.357E-01
DAV:  14    -0.354601474514E+03   -0.23194E-03   -0.15519E-03 38976   0.145E-01    0.364E-01
DAV:  15    -0.354601521581E+03   -0.47067E-04   -0.11086E-03 38136   0.135E-01    0.403E-01
DAV:  16    -0.354601363108E+03    0.15847E-03   -0.74917E-04 38264   0.100E-01    0.265E-01
DAV:  17    -0.354601306613E+03    0.56495E-04   -0.34138E-04 38520   0.772E-02    0.153E-01
DAV:  18    -0.354601303676E+03    0.29371E-05   -0.17597E-04 36136   0.523E-02    0.101E-01
DAV:  19    -0.354601292758E+03    0.10918E-04   -0.86548E-05 26128   0.342E-02    0.816E-02
DAV:  20    -0.354601285337E+03    0.74214E-05   -0.50496E-05 25040   0.307E-02
  25 F= -.35460129E+03 E0= -.35458621E+03  d E =0.548900E+00  mag=     8.0000
       N       E                     dE             d eps       ncg     rms          rms(c)
DAV:   1    -0.354816069734E+03   -0.21478E+00   -0.32136E+01 32632   0.165E+01    0.220E+00
DAV:   2    -0.355147327129E+03   -0.33126E+00   -0.38149E+00 28728   0.397E+00    0.559E+00
DAV:   3    -0.355104437563E+03    0.42890E-01   -0.19750E-01 37040   0.123E+00    0.317E+00
DAV:   4    -0.355108658336E+03   -0.42208E-02   -0.30163E-02 34672   0.470E-01    0.326E+00
DAV:   5    -0.355106039777E+03    0.26186E-02   -0.35467E-02 36808   0.467E-01    0.323E+00
DAV:   6    -0.355104892394E+03    0.11474E-02   -0.66509E-02 38200   0.539E-01    0.330E+00
DAV:   7    -0.355124029794E+03   -0.19137E-01   -0.13394E-01 37664   0.107E+00    0.422E+00
DAV:   8    -0.355094533330E+03    0.29496E-01   -0.15956E-01 36912   0.105E+00    0.260E+00
DAV:   9    -0.355085091967E+03    0.94414E-02   -0.24447E-02 37496   0.686E-01    0.114E+00
DAV:  10    -0.355085958182E+03   -0.86621E-03   -0.14893E-02 38064   0.377E-01    0.982E-01
DAV:  11    -0.355083830572E+03    0.21276E-02   -0.62326E-03 36944   0.247E-01    0.264E-01
DAV:  12    -0.355084257882E+03   -0.42731E-03   -0.10292E-03 39728   0.120E-01    0.373E-01
DAV:  13    -0.355084089691E+03    0.16819E-03   -0.48609E-04 34768   0.776E-02    0.230E-01
DAV:  14    -0.355084059482E+03    0.30209E-04   -0.17189E-04 29960   0.510E-02    0.187E-01
DAV:  15    -0.355084064174E+03   -0.46921E-05   -0.34277E-04 37728   0.671E-02    0.203E-01
DAV:  16    -0.355084074475E+03   -0.10301E-04   -0.28905E-04 33776   0.631E-02    0.244E-01
DAV:  17    -0.355083970973E+03    0.10350E-03   -0.20075E-04 28792   0.562E-02    0.129E-01
DAV:  18    -0.355083943652E+03    0.27321E-04   -0.17308E-04 33064   0.531E-02    0.945E-02
DAV:  19    -0.355083935632E+03    0.80197E-05   -0.81071E-05 31240   0.331E-02
  26 F= -.35508394E+03 E0= -.35506855E+03  d E =-.482650E+00  mag=     8.0000
       N       E                     dE             d eps       ncg     rms          rms(c)
DAV:   1    -0.355115466505E+03   -0.31523E-01   -0.26209E+00 32848   0.498E+00    0.474E-01
DAV:   2    -0.355138505740E+03   -0.23039E-01   -0.29355E-01 28488   0.103E+00    0.692E-01
DAV:   3    -0.355139649048E+03   -0.11433E-02   -0.17430E-02 36568   0.362E-01    0.908E-01
DAV:   4    -0.355138215481E+03    0.14336E-02   -0.33071E-03 38288   0.205E-01    0.525E-01
DAV:   5    -0.355138073566E+03    0.14191E-03   -0.17622E-03 38096   0.139E-01    0.482E-01
DAV:   6    -0.355137873035E+03    0.20053E-03   -0.15216E-03 38448   0.155E-01    0.502E-01
DAV:   7    -0.355138116681E+03   -0.24365E-03   -0.43899E-03 38104   0.210E-01    0.749E-01
DAV:   8    -0.355137223271E+03    0.89341E-03   -0.43437E-03 36336   0.165E-01    0.377E-01
DAV:   9    -0.355137222633E+03    0.63733E-06   -0.14897E-03 38008   0.112E-01    0.339E-01
DAV:  10    -0.355137058660E+03    0.16397E-03   -0.75810E-04 35272   0.788E-02    0.147E-01
DAV:  11    -0.355137077219E+03   -0.18559E-04   -0.25281E-04 31912   0.477E-02    0.110E-01
DAV:  12    -0.355137078835E+03   -0.16156E-05   -0.15940E-04 24352   0.325E-02    0.942E-02
DAV:  13    -0.355137075153E+03    0.36821E-05   -0.36062E-05 21120   0.209E-02
  27 F= -.35513708E+03 E0= -.35512147E+03  d E =-.531395E-01  mag=     8.0000
       N       E                     dE             d eps       ncg     rms          rms(c)
DAV:   1    -0.355114923998E+03    0.22155E-01   -0.66693E+00 32480   0.790E+00    0.677E-01
DAV:   2    -0.355165144761E+03   -0.50221E-01   -0.61297E-01 28464   0.162E+00    0.105E+00
DAV:   3    -0.355167234549E+03   -0.20898E-02   -0.39199E-02 35800   0.523E-01    0.125E+00
DAV:   4    -0.355164446341E+03    0.27882E-02   -0.66980E-03 37008   0.286E-01    0.756E-01
DAV:   5    -0.355164221103E+03    0.22524E-03   -0.39240E-03 39504   0.217E-01    0.760E-01
DAV:   6    -0.355163799591E+03    0.42151E-03   -0.35543E-03 39216   0.212E-01    0.722E-01
DAV:   7    -0.355165322641E+03   -0.15230E-02   -0.11509E-02 36952   0.285E-01    0.129E+00
DAV:   8    -0.355162254898E+03    0.30677E-02   -0.97432E-03 36744   0.251E-01    0.545E-01
DAV:   9    -0.355162596839E+03   -0.34194E-03   -0.34443E-03 38456   0.172E-01    0.597E-01
DAV:  10    -0.355161886072E+03    0.71077E-03   -0.19196E-03 37632   0.140E-01    0.196E-01
DAV:  11    -0.355161957905E+03   -0.71833E-04   -0.62392E-04 36816   0.758E-02    0.159E-01
DAV:  12    -0.355161947445E+03    0.10461E-04   -0.39028E-04 36616   0.514E-02    0.134E-01
DAV:  13    -0.355161913806E+03    0.33639E-04   -0.13560E-04 27600   0.396E-02    0.678E-02
DAV:  14    -0.355161921086E+03   -0.72801E-05   -0.45666E-05 22880   0.281E-02
  28 F= -.35516192E+03 E0= -.35514621E+03  d E =-.248459E-01  mag=     8.0000
       N       E                     dE             d eps       ncg     rms          rms(c)
DAV:   1    -0.355164509050E+03   -0.25952E-02   -0.11201E+00 31480   0.239E+00    0.218E-01
DAV:   2    -0.355169065445E+03   -0.45564E-02   -0.38164E-02 29048   0.498E-01    0.822E-01
DAV:   3    -0.355167822153E+03    0.12433E-02   -0.21762E-03 35832   0.151E-01    0.347E-01
DAV:   4    -0.355167877678E+03   -0.55525E-04   -0.18109E-04 32616   0.454E-02    0.297E-01
DAV:   5    -0.355167983900E+03   -0.10622E-03   -0.40917E-04 30264   0.486E-02    0.378E-01
DAV:   6    -0.355167883176E+03    0.10072E-03   -0.52859E-04 27728   0.562E-02    0.307E-01
DAV:   7    -0.355167973457E+03   -0.90281E-04   -0.70950E-04 36384   0.762E-02    0.365E-01
DAV:   8    -0.355167839049E+03    0.13441E-03   -0.89786E-04 36744   0.833E-02    0.299E-01
DAV:   9    -0.355167798113E+03    0.40936E-04   -0.32985E-04 37240   0.725E-02    0.268E-01
DAV:  10    -0.355167708289E+03    0.89824E-04   -0.15326E-04 29016   0.490E-02    0.125E-01
DAV:  11    -0.355167700304E+03    0.79849E-05   -0.69789E-05 25624   0.358E-02
  29 F= -.35516770E+03 E0= -.35515204E+03  d E =-.577922E-02  mag=     8.0000
       N       E                     dE             d eps       ncg     rms          rms(c)
DAV:   1    -0.355162689800E+03    0.50185E-02   -0.52916E+00 31136   0.526E+00    0.442E-01
DAV:   2    -0.355180376187E+03   -0.17686E-01   -0.16772E-01 29952   0.102E+00    0.120E+00
DAV:   3    -0.355177904687E+03    0.24715E-02   -0.53696E-03 35104   0.239E-01    0.770E-01
DAV:   4    -0.355178394384E+03   -0.48970E-03   -0.29720E-03 37280   0.124E-01    0.948E-01
DAV:   5    -0.355177360101E+03    0.10343E-02   -0.27923E-03 36440   0.124E-01    0.644E-01
DAV:   6    -0.355177925017E+03   -0.56492E-03   -0.14752E-03 37640   0.132E-01    0.798E-01
DAV:   7    -0.355177427428E+03    0.49759E-03   -0.29073E-03 35776   0.170E-01    0.625E-01
DAV:   8    -0.355177444428E+03   -0.17000E-04   -0.39997E-03 36072   0.189E-01    0.605E-01
DAV:   9    -0.355176934070E+03    0.51036E-03   -0.23973E-03 36840   0.150E-01    0.339E-01
DAV:  10    -0.355176883157E+03    0.50914E-04   -0.83653E-04 37576   0.105E-01    0.231E-01
DAV:  11    -0.355176854661E+03    0.28495E-04   -0.21774E-04 32608   0.563E-02    0.107E-01
DAV:  12    -0.355176864443E+03   -0.97822E-05   -0.42928E-05 22992   0.231E-02
  30 F= -.35517686E+03 E0= -.35516124E+03  d E =-.916414E-02  mag=     8.0000
       N       E                     dE             d eps       ncg     rms          rms(c)
DAV:   1    -0.355177419639E+03   -0.56498E-03   -0.21772E-01 32024   0.152E+00    0.141E-01
DAV:   2    -0.355179044676E+03   -0.16250E-02   -0.16621E-02 28640   0.312E-01    0.434E-01
DAV:   3    -0.355178768815E+03    0.27586E-03   -0.20048E-03 35424   0.129E-01    0.219E-01
DAV:   4    -0.355178816738E+03   -0.47923E-04   -0.61399E-04 33760   0.708E-02    0.197E-01
DAV:   5    -0.355178750173E+03    0.66565E-04   -0.24695E-04 27096   0.427E-02    0.106E-01
DAV:   6    -0.355178740512E+03    0.96609E-05   -0.57037E-05 21984   0.293E-02
  31 F= -.35517874E+03 E0= -.35516316E+03  d E =-.187607E-02  mag=     8.0000
       N       E                     dE             d eps       ncg     rms          rms(c)
DAV:   1    -0.355179452241E+03   -0.70207E-03   -0.39514E-01 31128   0.177E+00    0.187E-01
DAV:   2    -0.355182919865E+03   -0.34676E-02   -0.18031E-02 31072   0.387E-01    0.109E+00
DAV:   3    -0.355180557544E+03    0.23623E-02   -0.37870E-03 36240   0.220E-01    0.216E-01
DAV:   4    -0.355180795929E+03   -0.23839E-03   -0.45711E-04 34968   0.660E-02    0.145E-01
DAV:   5    -0.355180803372E+03   -0.74427E-05   -0.18689E-04 28840   0.475E-02    0.153E-01
DAV:   6    -0.355180772039E+03    0.31333E-04   -0.17318E-04 23712   0.385E-02    0.117E-01
DAV:   7    -0.355180762364E+03    0.96747E-05   -0.12491E-04 26536   0.340E-02    0.104E-01
DAV:   8    -0.355180816639E+03   -0.54274E-04   -0.24656E-04 30248   0.484E-02    0.207E-01
DAV:   9    -0.355180732592E+03    0.84047E-04   -0.16495E-04 31536   0.459E-02    0.801E-02
DAV:  10    -0.355180741065E+03   -0.84737E-05   -0.83520E-05 21744   0.259E-02
  32 F= -.35518074E+03 E0= -.35516515E+03  d E =-.200055E-02  mag=     8.0000
       N       E                     dE             d eps       ncg     rms          rms(c)
DAV:   1    -0.355179005662E+03    0.17269E-02   -0.35375E+00 31136   0.459E+00    0.244E-01
DAV:   2    -0.355188345626E+03   -0.93400E-02   -0.94445E-02 28384   0.751E-01    0.363E-01
DAV:   3    -0.355188804611E+03   -0.45899E-03   -0.47865E-03 39912   0.192E-01    0.656E-01
DAV:   4    -0.355188092559E+03    0.71205E-03   -0.25603E-03 36360   0.129E-01    0.245E-01
DAV:   5    -0.355188086369E+03    0.61899E-05   -0.61593E-04 34912   0.664E-02    0.163E-01
DAV:   6    -0.355188064820E+03    0.21549E-04   -0.23041E-04 30144   0.524E-02    0.158E-01
DAV:   7    -0.355188044465E+03    0.20355E-04   -0.31514E-04 32600   0.539E-02    0.183E-01
DAV:   8    -0.355187961020E+03    0.83445E-04   -0.19732E-04 35344   0.558E-02    0.576E-02
DAV:   9    -0.355187979463E+03   -0.18443E-04   -0.88852E-05 30752   0.310E-02    0.794E-02
DAV:  10    -0.355187971983E+03    0.74801E-05   -0.26191E-05 20584   0.206E-02
  33 F= -.35518797E+03 E0= -.35517234E+03  d E =-.723092E-02  mag=     8.0000
       N       E                     dE             d eps       ncg     rms          rms(c)
DAV:   1    -0.354921791252E+03    0.26619E+00   -0.96046E+01 30840   0.252E+01    0.144E+00
DAV:   2    -0.355218283299E+03   -0.29649E+00   -0.30485E+00 28512   0.426E+00    0.224E+00
DAV:   3    -0.355231193859E+03   -0.12911E-01   -0.15311E-01 38144   0.111E+00    0.345E+00
DAV:   4    -0.355208460226E+03    0.22734E-01   -0.71849E-02 39600   0.677E-01    0.136E+00
DAV:   5    -0.355208459450E+03    0.77592E-06   -0.21567E-02 37328   0.374E-01    0.101E+00
DAV:   6    -0.355208438079E+03    0.21371E-04   -0.13681E-02 38448   0.370E-01    0.139E+00
DAV:   7    -0.355204858091E+03    0.35800E-02   -0.12131E-02 37968   0.373E-01    0.827E-01
DAV:   8    -0.355204014777E+03    0.84331E-03   -0.49014E-03 37880   0.271E-01    0.444E-01
DAV:   9    -0.355204209874E+03   -0.19510E-03   -0.39851E-03 39064   0.185E-01    0.465E-01
DAV:  10    -0.355203823761E+03    0.38611E-03   -0.15943E-03 38944   0.137E-01    0.222E-01
DAV:  11    -0.355203882805E+03   -0.59044E-04   -0.43785E-04 38120   0.837E-02    0.217E-01
DAV:  12    -0.355203858334E+03    0.24471E-04   -0.45791E-04 33264   0.640E-02    0.162E-01
DAV:  13    -0.355203820553E+03    0.37780E-04   -0.19655E-04 29416   0.495E-02    0.795E-02
DAV:  14    -0.355203854950E+03   -0.34397E-04   -0.10272E-04 24208   0.339E-02    0.144E-01
DAV:  15    -0.355203822204E+03    0.32746E-04   -0.57759E-05 21464   0.277E-02    0.679E-02
DAV:  16    -0.355203824175E+03   -0.19705E-05   -0.14462E-05 19376   0.169E-02
  34 F= -.35520382E+03 E0= -.35518820E+03  d E =-.158522E-01  mag=     8.0000
       N       E                     dE             d eps       ncg     rms          rms(c)
DAV:   1    -0.354716402990E+03    0.48742E+00   -0.19189E+02 31280   0.338E+01    0.204E+00
DAV:   2    -0.355286365861E+03   -0.56996E+00   -0.58161E+00 28600   0.574E+00    0.347E+00
DAV:   3    -0.355304083048E+03   -0.17717E-01   -0.38749E-01 38648   0.159E+00    0.481E+00
DAV:   4    -0.355258568404E+03    0.45515E-01   -0.17266E-01 38264   0.100E+00    0.188E+00
DAV:   5    -0.355262342544E+03   -0.37741E-02   -0.39684E-02 39304   0.601E-01    0.203E+00
DAV:   6    -0.355255955686E+03    0.63869E-02   -0.18715E-02 38712   0.434E-01    0.115E+00
DAV:   7    -0.355257438754E+03   -0.14831E-02   -0.27938E-02 37424   0.497E-01    0.209E+00
DAV:   8    -0.355249417559E+03    0.80212E-02   -0.13849E-02 38640   0.380E-01    0.591E-01
DAV:   9    -0.355253708145E+03   -0.42906E-02   -0.14700E-02 38904   0.331E-01    0.129E+00
DAV:  10    -0.355250202576E+03    0.35056E-02   -0.85651E-03 37584   0.274E-01    0.402E-01
DAV:  11    -0.355250551964E+03   -0.34939E-03   -0.11890E-03 38192   0.141E-01    0.373E-01
DAV:  12    -0.355250486604E+03    0.65360E-04   -0.13259E-03 38232   0.108E-01    0.261E-01
DAV:  13    -0.355250472359E+03    0.14245E-04   -0.65825E-04 36088   0.845E-02    0.196E-01
DAV:  14    -0.355250561008E+03   -0.88649E-04   -0.34415E-04 32176   0.600E-02    0.222E-01
DAV:  15    -0.355250507878E+03    0.53129E-04   -0.22611E-04 25984   0.529E-02    0.138E-01
DAV:  16    -0.355250530052E+03   -0.22174E-04   -0.10979E-04 28680   0.427E-02    0.115E-01
DAV:  17    -0.355250517803E+03    0.12249E-04   -0.80696E-05 26136   0.377E-02    0.772E-02
DAV:  18    -0.355250510805E+03    0.69978E-05   -0.55540E-05 25312   0.300E-02
  35 F= -.35525051E+03 E0= -.35523481E+03  d E =-.466866E-01  mag=     8.0000
       N       E                     dE             d eps       ncg     rms          rms(c)
DAV:   1    -0.355192676064E+03    0.57842E-01   -0.98993E+00 32800   0.104E+01    0.826E-01
DAV:   2    -0.355258829645E+03   -0.66154E-01   -0.68359E-01 28320   0.211E+00    0.201E+00
DAV:   3    -0.355253287497E+03    0.55421E-02   -0.25664E-02 36248   0.480E-01    0.103E+00
DAV:   4    -0.355253883447E+03   -0.59595E-03   -0.30114E-03 37320   0.189E-01    0.104E+00
DAV:   5    -0.355254657333E+03   -0.77389E-03   -0.45855E-03 38720   0.223E-01    0.122E+00
DAV:   6    -0.355254463754E+03    0.19358E-03   -0.62723E-03 39128   0.258E-01    0.119E+00
DAV:   7    -0.355256439004E+03   -0.19753E-02   -0.19926E-02 38648   0.301E-01    0.168E+00
DAV:   8    -0.355254415767E+03    0.20232E-02   -0.30730E-02 38744   0.432E-01    0.151E+00
DAV:   9    -0.355252697036E+03    0.17187E-02   -0.11652E-02 36872   0.331E-01    0.122E+00
DAV:  10    -0.355250411240E+03    0.22858E-02   -0.62200E-03 38024   0.225E-01    0.351E-01
DAV:  11    -0.355251115660E+03   -0.70442E-03   -0.16947E-03 34680   0.116E-01    0.268E-01
DAV:  12    -0.355251190111E+03   -0.74452E-04   -0.39044E-04 35360   0.665E-02    0.228E-01
DAV:  13    -0.355251185265E+03    0.48462E-05   -0.91188E-05 27752   0.353E-02
  36 F= -.35525119E+03 E0= -.35523525E+03  d E =-.674460E-03  mag=     8.0000
       N       E                     dE             d eps       ncg     rms          rms(c)
DAV:   1    -0.355219938341E+03    0.31252E-01   -0.10167E+01 30456   0.909E+00    0.674E-01
DAV:   2    -0.355264366284E+03   -0.44428E-01   -0.43139E-01 28344   0.171E+00    0.184E+00
DAV:   3    -0.355259424793E+03    0.49415E-02   -0.23061E-02 36808   0.517E-01    0.862E-01
DAV:   4    -0.355259755976E+03   -0.33118E-03   -0.63225E-03 38000   0.203E-01    0.910E-01
DAV:   5    -0.355258968357E+03    0.78762E-03   -0.56388E-03 38032   0.176E-01    0.626E-01
DAV:   6    -0.355260138380E+03   -0.11700E-02   -0.49889E-03 37368   0.186E-01    0.102E+00
DAV:   7    -0.355258935477E+03    0.12029E-02   -0.79333E-03 38256   0.275E-01    0.876E-01
DAV:   8    -0.355258600318E+03    0.33516E-03   -0.47223E-03 38544   0.241E-01    0.869E-01
DAV:   9    -0.355258208182E+03    0.39214E-03   -0.25429E-03 39168   0.211E-01    0.695E-01
DAV:  10    -0.355257785624E+03    0.42256E-03   -0.22363E-03 38664   0.154E-01    0.324E-01
DAV:  11    -0.355257834919E+03   -0.49294E-04   -0.63625E-04 34488   0.737E-02    0.203E-01
DAV:  12    -0.355257899601E+03   -0.64682E-04   -0.11600E-04 26032   0.353E-02    0.200E-01
DAV:  13    -0.355257915608E+03   -0.16007E-04   -0.56556E-05 21504   0.262E-02    0.214E-01
DAV:  14    -0.355257941729E+03   -0.26122E-04   -0.14573E-04 27040   0.421E-02    0.224E-01
DAV:  15    -0.355257909786E+03    0.31944E-04   -0.15836E-04 33880   0.461E-02    0.186E-01
DAV:  16    -0.355257835677E+03    0.74109E-04   -0.16717E-04 30672   0.504E-02    0.787E-02
DAV:  17    -0.355257842397E+03   -0.67196E-05   -0.68396E-05 28688   0.358E-02
  37 F= -.35525784E+03 E0= -.35524213E+03  d E =-.665713E-02  mag=     8.0000
       N       E                     dE             d eps       ncg     rms          rms(c)
DAV:   1    -0.355256428963E+03    0.14067E-02   -0.16404E+00 31616   0.327E+00    0.171E-01
DAV:   2    -0.355260915631E+03   -0.44867E-02   -0.45265E-02 28304   0.534E-01    0.303E-01
DAV:   3    -0.355260870161E+03    0.45469E-04   -0.19184E-03 39056   0.125E-01    0.284E-01
DAV:   4    -0.355260833349E+03    0.36812E-04   -0.84073E-04 38152   0.806E-02    0.231E-01
DAV:   5    -0.355260752142E+03    0.81207E-04   -0.44354E-04 30008   0.571E-02    0.132E-01
DAV:   6    -0.355260748056E+03    0.40856E-05   -0.15188E-04 24768   0.399E-02    0.130E-01
DAV:   7    -0.355260757281E+03   -0.92250E-05   -0.20504E-04 30760   0.457E-02    0.182E-01
DAV:   8    -0.355260688052E+03    0.69229E-04   -0.16092E-04 34168   0.492E-02    0.810E-02
DAV:   9    -0.355260697920E+03   -0.98674E-05   -0.78757E-05 26352   0.283E-02
  38 F= -.35526070E+03 E0= -.35524508E+03  d E =-.285552E-02  mag=     8.0000
       N       E                     dE             d eps       ncg     rms          rms(c)
DAV:   1    -0.355190269483E+03    0.70419E-01   -0.32513E+01 31200   0.141E+01    0.708E-01
DAV:   2    -0.355273045716E+03   -0.82776E-01   -0.84271E-01 28288   0.227E+00    0.823E-01
DAV:   3    -0.355278799387E+03   -0.57537E-02   -0.51024E-02 39536   0.519E-01    0.218E+00
DAV:   4    -0.355270252235E+03    0.85472E-02   -0.28448E-02 38120   0.363E-01    0.568E-01
DAV:   5    -0.355271403174E+03   -0.11509E-02   -0.35976E-03 35880   0.160E-01    0.423E-01
DAV:   6    -0.355270838463E+03    0.56471E-03   -0.17409E-03 36104   0.160E-01    0.379E-01
DAV:   7    -0.355270587084E+03    0.25138E-03   -0.23506E-03 36608   0.159E-01    0.394E-01
DAV:   8    -0.355270359182E+03    0.22790E-03   -0.11057E-03 37352   0.107E-01    0.188E-01
DAV:   9    -0.355270436426E+03   -0.77244E-04   -0.52431E-04 37672   0.757E-02    0.183E-01
DAV:  10    -0.355270399263E+03    0.37163E-04   -0.41837E-04 34120   0.571E-02    0.951E-02
DAV:  11    -0.355270432813E+03   -0.33550E-04   -0.68687E-05 23888   0.322E-02    0.104E-01
DAV:  12    -0.355270429398E+03    0.34148E-05   -0.33033E-05 21992   0.251E-02
  39 F= -.35527043E+03 E0= -.35525483E+03  d E =-.973148E-02  mag=     8.0000
       N       E                     dE             d eps       ncg     rms          rms(c)
DAV:   1    -0.354114561822E+03    0.11559E+01   -0.12246E+02 31232   0.373E+01    0.353E+00
DAV:   2    -0.355032321926E+03   -0.91776E+00   -0.98490E+00 28288   0.707E+00    0.464E+00
DAV:   3    -0.355081526532E+03   -0.49205E-01   -0.63848E-01 39128   0.230E+00    0.702E+00
DAV:   4    -0.355013721519E+03    0.67805E-01   -0.22349E-01 39008   0.143E+00    0.371E+00
DAV:   5    -0.355016657103E+03   -0.29356E-02   -0.22539E-01 37376   0.124E+00    0.358E+00
DAV:   6    -0.355015482857E+03    0.11742E-02   -0.15886E-01 39520   0.121E+00    0.376E+00
DAV:   7    -0.355022638980E+03   -0.71561E-02   -0.16967E-01 37784   0.111E+00    0.457E+00
DAV:   8    -0.354982522106E+03    0.40117E-01   -0.88766E-02 38744   0.894E-01    0.121E+00
DAV:   9    -0.354986848772E+03   -0.43267E-02   -0.12049E-02 37536   0.508E-01    0.112E+00
DAV:  10    -0.354985561535E+03    0.12872E-02   -0.14143E-02 38736   0.368E-01    0.818E-01
DAV:  11    -0.354984974762E+03    0.58677E-03   -0.41331E-03 38816   0.226E-01    0.418E-01
DAV:  12    -0.354985127214E+03   -0.15245E-03   -0.13480E-03 38400   0.120E-01    0.440E-01
DAV:  13    -0.354984928793E+03    0.19842E-03   -0.79653E-04 36768   0.925E-02    0.289E-01
DAV:  14    -0.354985006265E+03   -0.77472E-04   -0.62706E-04 38776   0.833E-02    0.304E-01
DAV:  15    -0.354985001533E+03    0.47317E-05   -0.10319E-03 39040   0.950E-02    0.348E-01
DAV:  16    -0.354984872626E+03    0.12891E-03   -0.75494E-04 37944   0.865E-02    0.273E-01
DAV:  17    -0.354984697891E+03    0.17473E-03   -0.61499E-04 38528   0.777E-02    0.164E-01
DAV:  18    -0.354984661313E+03    0.36577E-04   -0.18127E-04 36912   0.473E-02    0.777E-02
DAV:  19    -0.354984666186E+03   -0.48725E-05   -0.11817E-04 28768   0.395E-02    0.792E-02
DAV:  20    -0.354984656741E+03    0.94449E-05   -0.44881E-05 22800   0.296E-02
  40 F= -.35498466E+03 E0= -.35496855E+03  d E =0.285773E+00  mag=     8.0000
       N       E                     dE             d eps       ncg     rms          rms(c)
DAV:   1    -0.355057195989E+03   -0.72530E-01   -0.17930E+01 32096   0.148E+01    0.173E+00
DAV:   2    -0.355274711866E+03   -0.21752E+00   -0.21551E+00 28776   0.349E+00    0.462E+00
DAV:   3    -0.355240527701E+03    0.34184E-01   -0.16451E-01 36224   0.113E+00    0.286E+00
DAV:   4    -0.355238972122E+03    0.15556E-02   -0.40465E-02 39256   0.465E-01    0.269E+00
DAV:   5    -0.355236952814E+03    0.20193E-02   -0.25253E-02 38720   0.385E-01    0.264E+00
DAV:   6    -0.355234166295E+03    0.27865E-02   -0.29072E-02 37808   0.451E-01    0.240E+00
DAV:   7    -0.355233351222E+03    0.81507E-03   -0.23600E-02 38416   0.516E-01    0.224E+00
DAV:   8    -0.355233667607E+03   -0.31638E-03   -0.34631E-02 38392   0.702E-01    0.231E+00
DAV:   9    -0.355229327179E+03    0.43404E-02   -0.30386E-02 38112   0.698E-01    0.180E+00
DAV:  10    -0.355224499532E+03    0.48276E-02   -0.17304E-02 37808   0.430E-01    0.795E-01
DAV:  11    -0.355224763204E+03   -0.26367E-03   -0.56920E-03 37768   0.268E-01    0.591E-01
DAV:  12    -0.355224399268E+03    0.36394E-03   -0.30585E-03 35728   0.164E-01    0.396E-01
DAV:  13    -0.355224356844E+03    0.42424E-04   -0.37754E-04 35680   0.737E-02    0.304E-01
DAV:  14    -0.355224319840E+03    0.37004E-04   -0.56533E-05 24000   0.255E-02    0.270E-01
DAV:  15    -0.355224331541E+03   -0.11700E-04   -0.57785E-05 22064   0.252E-02    0.269E-01
DAV:  16    -0.355224277228E+03    0.54313E-04   -0.17888E-04 34656   0.511E-02    0.229E-01
DAV:  17    -0.355224219744E+03    0.57484E-04   -0.20912E-04 36664   0.573E-02    0.226E-01
DAV:  18    -0.355224166842E+03    0.52902E-04   -0.13965E-04 36344   0.505E-02    0.188E-01
DAV:  19    -0.355224146023E+03    0.20819E-04   -0.22259E-04 36088   0.493E-02    0.998E-02
DAV:  20    -0.355224179304E+03   -0.33280E-04   -0.12485E-04 31368   0.406E-02    0.628E-02
DAV:  21    -0.355224180654E+03   -0.13505E-05   -0.24816E-05 21504   0.171E-02
  41 F= -.35522418E+03 E0= -.35520829E+03  d E =-.239524E+00  mag=     8.0000
       N       E                     dE             d eps       ncg     rms          rms(c)
DAV:   1    -0.355229178318E+03   -0.49990E-02   -0.21361E+00 32112   0.558E+00    0.525E-01
DAV:   2    -0.355255956991E+03   -0.26779E-01   -0.28436E-01 28304   0.123E+00    0.141E+00
DAV:   3    -0.355253045733E+03    0.29113E-02   -0.18877E-02 37048   0.377E-01    0.672E-01
DAV:   4    -0.355253399805E+03   -0.35407E-03   -0.27043E-03 38472   0.180E-01    0.654E-01
DAV:   5    -0.355253261035E+03    0.13877E-03   -0.22659E-03 37672   0.151E-01    0.598E-01
DAV:   6    -0.355253094822E+03    0.16621E-03   -0.23656E-03 38728   0.134E-01    0.562E-01
DAV:   7    -0.355254124182E+03   -0.10294E-02   -0.63600E-03 39136   0.191E-01    0.100E+00
DAV:   8    -0.355252841536E+03    0.12826E-02   -0.65322E-03 38400   0.237E-01    0.750E-01
DAV:   9    -0.355252661230E+03    0.18031E-03   -0.18174E-03 37400   0.176E-01    0.599E-01
DAV:  10    -0.355252176532E+03    0.48470E-03   -0.12146E-03 37696   0.118E-01    0.273E-01
DAV:  11    -0.355252160426E+03    0.16106E-04   -0.60986E-04 36408   0.726E-02    0.109E-01
DAV:  12    -0.355252198222E+03   -0.37797E-04   -0.15719E-04 28952   0.368E-02    0.977E-02
DAV:  13    -0.355252198368E+03   -0.14577E-06   -0.19035E-05 19360   0.167E-02
  42 F= -.35525220E+03 E0= -.35523640E+03  d E =-.280177E-01  mag=     8.0000
       N       E                     dE             d eps       ncg     rms          rms(c)
DAV:   1    -0.355246088179E+03    0.61100E-02   -0.12947E+00 32432   0.444E+00    0.389E-01
DAV:   2    -0.355263136723E+03   -0.17049E-01   -0.16786E-01 28368   0.958E-01    0.130E+00
DAV:   3    -0.355260571675E+03    0.25650E-02   -0.12349E-02 37248   0.319E-01    0.441E-01
DAV:   4    -0.355261312779E+03   -0.74110E-03   -0.27874E-03 37920   0.161E-01    0.578E-01
DAV:   5    -0.355260761559E+03    0.55122E-03   -0.16428E-03 38000   0.124E-01    0.312E-01
DAV:   6    -0.355260941607E+03   -0.18005E-03   -0.14116E-03 38664   0.101E-01    0.439E-01
DAV:   7    -0.355260790712E+03    0.15089E-03   -0.17955E-03 38520   0.108E-01    0.388E-01
DAV:   8    -0.355260956725E+03   -0.16601E-03   -0.21051E-03 38960   0.138E-01    0.581E-01
DAV:   9    -0.355260675520E+03    0.28120E-03   -0.99461E-04 36584   0.116E-01    0.438E-01
DAV:  10    -0.355260419546E+03    0.25597E-03   -0.77314E-04 37840   0.829E-02    0.195E-01
DAV:  11    -0.355260415805E+03    0.37406E-05   -0.34524E-04 31352   0.521E-02    0.832E-02
DAV:  12    -0.355260433374E+03   -0.17569E-04   -0.73064E-05 23992   0.261E-02    0.788E-02
DAV:  13    -0.355260433058E+03    0.31604E-06   -0.14188E-05 18280   0.146E-02
  43 F= -.35526043E+03 E0= -.35524469E+03  d E =-.823469E-02  mag=     8.0000
       N       E                     dE             d eps       ncg     rms          rms(c)
DAV:   1    -0.355261066243E+03   -0.63287E-03   -0.61533E-01 33024   0.244E+00    0.200E-01
DAV:   2    -0.355266001318E+03   -0.49351E-02   -0.42807E-02 28560   0.500E-01    0.913E-01
DAV:   3    -0.355264602075E+03    0.13992E-02   -0.69017E-03 35592   0.202E-01    0.283E-01
DAV:   4    -0.355264759577E+03   -0.15750E-03   -0.67543E-04 37464   0.782E-02    0.208E-01
DAV:   5    -0.355264761391E+03   -0.18142E-05   -0.37656E-04 31336   0.562E-02    0.204E-01
DAV:   6    -0.355264733410E+03    0.27981E-04   -0.15272E-04 28728   0.481E-02    0.181E-01
DAV:   7    -0.355264719411E+03    0.14000E-04   -0.10295E-04 26672   0.396E-02    0.169E-01
DAV:   8    -0.355264744190E+03   -0.24779E-04   -0.42132E-04 36936   0.622E-02    0.224E-01
DAV:   9    -0.355264717200E+03    0.26990E-04   -0.27281E-04 32808   0.506E-02    0.190E-01
DAV:  10    -0.355264666866E+03    0.50333E-04   -0.11043E-04 22272   0.363E-02    0.105E-01
DAV:  11    -0.355264664214E+03    0.26522E-05   -0.39073E-05 18888   0.207E-02
  44 F= -.35526466E+03 E0= -.35524893E+03  d E =-.423116E-02  mag=     8.0000
       N       E                     dE             d eps       ncg     rms          rms(c)
DAV:   1    -0.355265148850E+03   -0.48198E-03   -0.78586E-01 32936   0.241E+00    0.198E-01
DAV:   2    -0.355268653732E+03   -0.35049E-02   -0.34691E-02 28568   0.469E-01    0.425E-01
DAV:   3    -0.355268419903E+03    0.23383E-03   -0.18367E-03 37200   0.137E-01    0.277E-01
DAV:   4    -0.355268369434E+03    0.50470E-04   -0.39690E-04 36584   0.605E-02    0.197E-01
DAV:   5    -0.355268398589E+03   -0.29156E-04   -0.35663E-04 31768   0.547E-02    0.236E-01
DAV:   6    -0.355268381311E+03    0.17278E-04   -0.47803E-04 27184   0.547E-02    0.237E-01
DAV:   7    -0.355268530242E+03   -0.14893E-03   -0.72769E-04 37248   0.813E-02    0.349E-01
DAV:   8    -0.355268288109E+03    0.24213E-03   -0.74023E-04 37192   0.807E-02    0.168E-01
DAV:   9    -0.355268299629E+03   -0.11520E-04   -0.14608E-04 28336   0.517E-02    0.126E-01
DAV:  10    -0.355268286124E+03    0.13505E-04   -0.93254E-05 22056   0.323E-02    0.799E-02
DAV:  11    -0.355268284124E+03    0.20004E-05   -0.21307E-05 19984   0.182E-02
  45 F= -.35526828E+03 E0= -.35525260E+03  d E =-.361991E-02  mag=     8.0000
       N       E                     dE             d eps       ncg     rms          rms(c)
DAV:   1    -0.355269210881E+03   -0.92476E-03   -0.28040E-01 31536   0.128E+00    0.105E-01
DAV:   2    -0.355270239011E+03   -0.10281E-02   -0.95081E-03 28656   0.237E-01    0.348E-01
DAV:   3    -0.355270032801E+03    0.20621E-03   -0.12534E-03 37880   0.837E-02    0.143E-01
DAV:   4    -0.355270041054E+03   -0.82526E-05   -0.96500E-05 28168   0.352E-02
  46 F= -.35527004E+03 E0= -.35525432E+03  d E =-.175693E-02  mag=     8.0000
       N       E                     dE             d eps       ncg     rms          rms(c)
DAV:   1    -0.355269241056E+03    0.79175E-03   -0.15035E+00 30216   0.289E+00    0.231E-01
DAV:   2    -0.355274788336E+03   -0.55473E-02   -0.49013E-02 29000   0.526E-01    0.840E-01
DAV:   3    -0.355273499032E+03    0.12893E-02   -0.59877E-03 39392   0.203E-01    0.294E-01
DAV:   4    -0.355273669424E+03   -0.17039E-03   -0.15703E-03 38712   0.972E-02    0.356E-01
DAV:   5    -0.355273470145E+03    0.19928E-03   -0.76247E-04 36864   0.825E-02    0.186E-01
DAV:   6    -0.355273480895E+03   -0.10750E-04   -0.32117E-04 34992   0.671E-02    0.198E-01
DAV:   7    -0.355273505541E+03   -0.24646E-04   -0.34368E-04 36440   0.686E-02    0.239E-01
DAV:   8    -0.355273414948E+03    0.90593E-04   -0.28678E-04 34200   0.580E-02    0.147E-01
DAV:   9    -0.355273402036E+03    0.12912E-04   -0.17986E-04 27928   0.401E-02    0.111E-01
DAV:  10    -0.355273390643E+03    0.11393E-04   -0.34540E-05 20808   0.247E-02    0.725E-02
DAV:  11    -0.355273386307E+03    0.43360E-05   -0.24091E-05 17584   0.171E-02
  47 F= -.35527339E+03 E0= -.35525770E+03  d E =-.334525E-02  mag=     8.0000
       N       E                     dE             d eps       ncg     rms          rms(c)
DAV:   1    -0.355272037023E+03    0.13536E-02   -0.14869E+00 31224   0.290E+00    0.194E-01
DAV:   2    -0.355276547074E+03   -0.45101E-02   -0.46168E-02 28712   0.500E-01    0.354E-01
DAV:   3    -0.355276643922E+03   -0.96848E-04   -0.42209E-03 41728   0.156E-01    0.433E-01
DAV:   4    -0.355276388599E+03    0.25532E-03   -0.18461E-03 37800   0.973E-02    0.292E-01
DAV:   5    -0.355276250105E+03    0.13849E-03   -0.57915E-04 35096   0.705E-02    0.130E-01
DAV:   6    -0.355276261785E+03   -0.11679E-04   -0.20116E-04 27960   0.482E-02    0.141E-01
DAV:   7    -0.355276241902E+03    0.19882E-04   -0.24006E-04 34256   0.520E-02    0.151E-01
DAV:   8    -0.355276212787E+03    0.29115E-04   -0.17259E-04 32752   0.461E-02    0.120E-01
DAV:   9    -0.355276194557E+03    0.18230E-04   -0.54195E-05 24504   0.292E-02    0.552E-02
DAV:  10    -0.355276197100E+03   -0.25425E-05   -0.19144E-05 18024   0.162E-02
  48 F= -.35527620E+03 E0= -.35526045E+03  d E =-.281079E-02  mag=     8.0000
       N       E                     dE             d eps       ncg     rms          rms(c)
DAV:   1    -0.355256615973E+03    0.19579E-01   -0.77332E+00 30752   0.677E+00    0.426E-01
DAV:   2    -0.355279451344E+03   -0.22835E-01   -0.23823E-01 28768   0.117E+00    0.578E-01
DAV:   3    -0.355281177163E+03   -0.17258E-02   -0.12225E-02 40936   0.312E-01    0.116E+00
DAV:   4    -0.355278804985E+03    0.23722E-02   -0.62393E-03 39440   0.214E-01    0.393E-01
DAV:   5    -0.355278923868E+03   -0.11888E-03   -0.21923E-03 37968   0.123E-01    0.365E-01
DAV:   6    -0.355278781365E+03    0.14250E-03   -0.13143E-03 38320   0.107E-01    0.326E-01
DAV:   7    -0.355278752583E+03    0.28781E-04   -0.13503E-03 37800   0.112E-01    0.419E-01
DAV:   8    -0.355278430368E+03    0.32222E-03   -0.74407E-04 38136   0.941E-02    0.132E-01
DAV:   9    -0.355278493653E+03   -0.63285E-04   -0.23154E-04 35960   0.551E-02    0.155E-01
DAV:  10    -0.355278455036E+03    0.38617E-04   -0.10688E-04 26120   0.392E-02    0.738E-02
DAV:  11    -0.355278453670E+03    0.13666E-05   -0.28972E-05 20328   0.226E-02
  49 F= -.35527845E+03 E0= -.35526268E+03  d E =-.225657E-02  mag=     8.0000
       N       E                     dE             d eps       ncg     rms          rms(c)
DAV:   1    -0.355276919073E+03    0.15360E-02   -0.46559E-01 31960   0.226E+00    0.166E-01
DAV:   2    -0.355279919632E+03   -0.30006E-02   -0.31851E-02 28528   0.451E-01    0.424E-01
DAV:   3    -0.355279638957E+03    0.28067E-03   -0.23803E-03 36392   0.145E-01    0.206E-01
DAV:   4    -0.355279663062E+03   -0.24105E-04   -0.46491E-04 38264   0.679E-02    0.233E-01
DAV:   5    -0.355279583283E+03    0.79779E-04   -0.36819E-04 31680   0.548E-02    0.143E-01
DAV:   6    -0.355279637471E+03   -0.54188E-04   -0.39905E-04 27928   0.534E-02    0.224E-01
DAV:   7    -0.355279590496E+03    0.46975E-04   -0.45698E-04 34360   0.621E-02    0.196E-01
DAV:   8    -0.355279563336E+03    0.27160E-04   -0.37734E-04 36128   0.618E-02    0.178E-01
DAV:   9    -0.355279526041E+03    0.37295E-04   -0.16660E-04 28072   0.438E-02    0.119E-01
DAV:  10    -0.355279515401E+03    0.10640E-04   -0.57514E-05 21768   0.287E-02    0.738E-02
DAV:  11    -0.355279511262E+03    0.41385E-05   -0.22571E-05 17368   0.161E-02
  50 F= -.35527951E+03 E0= -.35526376E+03  d E =-.105759E-02  mag=     8.0000
       N       E                     dE             d eps       ncg     rms          rms(c)
DAV:   1    -0.355277893531E+03    0.16219E-02   -0.58811E-01 29528   0.182E+00    0.122E-01
DAV:   2    -0.355279636180E+03   -0.17426E-02   -0.18179E-02 28624   0.310E-01    0.181E-01
DAV:   3    -0.355279746065E+03   -0.10988E-03   -0.15055E-03 41752   0.975E-02    0.294E-01
DAV:   4    -0.355279586910E+03    0.15916E-03   -0.62197E-04 32880   0.622E-02    0.159E-01
DAV:   5    -0.355279556903E+03    0.30007E-04   -0.21142E-04 26168   0.380E-02    0.740E-02
DAV:   6    -0.355279560474E+03   -0.35716E-05   -0.84081E-05 22520   0.301E-02
  51 F= -.35527956E+03 E0= -.35526388E+03  d E =-.492124E-04  mag=     8.0000
       N       E                     dE             d eps       ncg     rms          rms(c)
DAV:   1    -0.355277688853E+03    0.18680E-02   -0.60668E-01 29608   0.201E+00    0.158E-01
DAV:   2    -0.355280563421E+03   -0.28746E-02   -0.21447E-02 30920   0.385E-01    0.767E-01
DAV:   3    -0.355279423509E+03    0.11399E-02   -0.33372E-03 37888   0.178E-01    0.182E-01
DAV:   4    -0.355279595516E+03   -0.17201E-03   -0.73349E-04 37168   0.746E-02    0.242E-01
DAV:   5    -0.355279481560E+03    0.11396E-03   -0.45875E-04 28976   0.517E-02    0.108E-01
DAV:   6    -0.355279467575E+03    0.13985E-04   -0.72687E-05 22488   0.299E-02    0.711E-02
DAV:   7    -0.355279465128E+03    0.24476E-05   -0.61797E-05 22672   0.238E-02
  52 F= -.35527947E+03 E0= -.35526371E+03  d E =0.953468E-04  mag=     8.0000
       N       E                     dE             d eps       ncg     rms          rms(c)
DAV:   1    -0.355271998987E+03    0.74686E-02   -0.20032E+00 30280   0.418E+00    0.251E-01
DAV:   2    -0.355281311406E+03   -0.93124E-02   -0.86352E-02 28288   0.764E-01    0.903E-01
DAV:   3    -0.355279945147E+03    0.13663E-02   -0.58181E-03 36256   0.256E-01    0.335E-01
DAV:   4    -0.355280123380E+03   -0.17823E-03   -0.13361E-03 38784   0.119E-01    0.332E-01
DAV:   5    -0.355279884479E+03    0.23890E-03   -0.78977E-04 37848   0.825E-02    0.155E-01
DAV:   6    -0.355279904224E+03   -0.19745E-04   -0.35740E-04 25704   0.450E-02    0.179E-01
DAV:   7    -0.355279851586E+03    0.52639E-04   -0.27285E-04 32152   0.522E-02    0.135E-01
DAV:   8    -0.355279876727E+03   -0.25142E-04   -0.30463E-04 36120   0.548E-02    0.217E-01
DAV:   9    -0.355279796976E+03    0.79751E-04   -0.16010E-04 33368   0.447E-02    0.731E-02
DAV:  10    -0.355279802276E+03   -0.53006E-05   -0.37102E-05 21912   0.247E-02
  53 F= -.35527980E+03 E0= -.35526405E+03  d E =-.337149E-03  mag=     8.0000
       N       E                     dE             d eps       ncg     rms          rms(c)
DAV:   1    -0.355239962399E+03    0.39835E-01   -0.10761E+01 31464   0.974E+00    0.495E-01
DAV:   2    -0.355281282326E+03   -0.41320E-01   -0.42211E-01 28288   0.167E+00    0.540E-01
DAV:   3    -0.355284660551E+03   -0.33782E-02   -0.12465E-02 39000   0.375E-01    0.146E+00
DAV:   4    -0.355280573201E+03    0.40874E-02   -0.65257E-03 37760   0.261E-01    0.316E-01
DAV:   5    -0.355281107227E+03   -0.53403E-03   -0.19311E-03 38160   0.114E-01    0.378E-01
DAV:   6    -0.355280883546E+03    0.22368E-03   -0.15443E-03 38328   0.107E-01    0.324E-01
DAV:   7    -0.355280762156E+03    0.12139E-03   -0.84994E-04 37592   0.112E-01    0.330E-01
DAV:   8    -0.355280588683E+03    0.17347E-03   -0.48691E-04 38184   0.834E-02    0.136E-01
DAV:   9    -0.355280627851E+03   -0.39168E-04   -0.21791E-04 35672   0.576E-02    0.140E-01
DAV:  10    -0.355280598447E+03    0.29403E-04   -0.17991E-04 27184   0.387E-02    0.633E-02
DAV:  11    -0.355280607986E+03   -0.95383E-05   -0.34907E-05 21184   0.267E-02
  54 F= -.35528061E+03 E0= -.35526478E+03  d E =-.805709E-03  mag=     8.0000
       N       E                     dE             d eps       ncg     rms          rms(c)
DAV:   1    -0.355146603236E+03    0.13400E+00   -0.34136E+01 31512   0.177E+01    0.893E-01
DAV:   2    -0.355278894018E+03   -0.13229E+00   -0.13615E+00 28288   0.303E+00    0.666E-01
DAV:   3    -0.355283076606E+03   -0.41826E-02   -0.30124E-02 37088   0.543E-01    0.147E+00
DAV:   4    -0.355278501984E+03    0.45746E-02   -0.13802E-02 37408   0.354E-01    0.583E-01
DAV:   5    -0.355279028316E+03   -0.52633E-03   -0.60156E-03 39504   0.194E-01    0.715E-01
DAV:   6    -0.355278397496E+03    0.63082E-03   -0.56436E-03 38568   0.214E-01    0.644E-01
DAV:   7    -0.355277971763E+03    0.42573E-03   -0.37054E-03 37120   0.216E-01    0.590E-01
DAV:   8    -0.355277503637E+03    0.46813E-03   -0.24266E-03 37480   0.156E-01    0.292E-01
DAV:   9    -0.355277608487E+03   -0.10485E-03   -0.78768E-04 38376   0.115E-01    0.280E-01
DAV:  10    -0.355277535483E+03    0.73004E-04   -0.37009E-04 38184   0.779E-02    0.193E-01
DAV:  11    -0.355277518653E+03    0.16830E-04   -0.18346E-04 31112   0.549E-02    0.952E-02
DAV:  12    -0.355277533415E+03   -0.14762E-04   -0.13886E-04 23360   0.342E-02    0.893E-02
DAV:  13    -0.355277528022E+03    0.53929E-05   -0.64989E-05 21368   0.256E-02
  55 F= -.35527753E+03 E0= -.35526185E+03  d E =0.307996E-02  mag=     8.0000
       N       E                     dE             d eps       ncg     rms          rms(c)
DAV:   1    -0.355235870513E+03    0.41663E-01   -0.84645E+00 31600   0.925E+00    0.565E-01
DAV:   2    -0.355277536342E+03   -0.41666E-01   -0.43051E-01 28288   0.167E+00    0.886E-01
DAV:   3    -0.355280006037E+03   -0.24697E-02   -0.15000E-02 38376   0.434E-01    0.141E+00
DAV:   4    -0.355276503283E+03    0.35028E-02   -0.46708E-03 38888   0.234E-01    0.467E-01
DAV:   5    -0.355277019804E+03   -0.51652E-03   -0.43766E-03 39160   0.166E-01    0.657E-01
DAV:   6    -0.355276514253E+03    0.50555E-03   -0.36286E-03 38424   0.137E-01    0.458E-01
DAV:   7    -0.355276401860E+03    0.11239E-03   -0.21491E-03 37280   0.160E-01    0.493E-01
DAV:   8    -0.355276032140E+03    0.36972E-03   -0.27491E-03 38264   0.150E-01    0.344E-01
DAV:   9    -0.355276046862E+03   -0.14722E-04   -0.80681E-04 37840   0.115E-01    0.270E-01
DAV:  10    -0.355276091468E+03   -0.44606E-04   -0.73507E-04 38064   0.887E-02    0.269E-01
DAV:  11    -0.355276028110E+03    0.63358E-04   -0.30353E-04 32480   0.576E-02    0.118E-01
DAV:  12    -0.355276069980E+03   -0.41870E-04   -0.54115E-05 23272   0.269E-02    0.114E-01
DAV:  13    -0.355276079411E+03   -0.94310E-05   -0.26982E-05 21368   0.236E-02
  56 F= -.35527608E+03 E0= -.35526015E+03  d E =0.144861E-02  mag=     8.0000
       N       E                     dE             d eps       ncg     rms          rms(c)
DAV:   1    -0.355266398301E+03    0.96717E-02   -0.20086E+00 31944   0.460E+00    0.302E-01
DAV:   2    -0.355278216719E+03   -0.11818E-01   -0.11476E-01 28288   0.876E-01    0.939E-01
DAV:   3    -0.355276900955E+03    0.13158E-02   -0.67901E-03 35624   0.282E-01    0.399E-01
DAV:   4    -0.355276948901E+03   -0.47945E-04   -0.12627E-03 38744   0.121E-01    0.364E-01
DAV:   5    -0.355276860730E+03    0.88171E-04   -0.12912E-03 37016   0.104E-01    0.344E-01
DAV:   6    -0.355276710235E+03    0.15049E-03   -0.67190E-04 35896   0.770E-02    0.228E-01
DAV:   7    -0.355277002420E+03   -0.29219E-03   -0.10884E-03 38504   0.102E-01    0.468E-01
DAV:   8    -0.355276523736E+03    0.47868E-03   -0.96690E-04 37456   0.102E-01    0.148E-01
DAV:   9    -0.355276612216E+03   -0.88480E-04   -0.22141E-04 35568   0.585E-02    0.183E-01
DAV:  10    -0.355276578800E+03    0.33416E-04   -0.13968E-04 25064   0.423E-02    0.104E-01
DAV:  11    -0.355276575839E+03    0.29612E-05   -0.37460E-05 21528   0.256E-02
  57 F= -.35527658E+03 E0= -.35526079E+03  d E =-.496428E-03  mag=     8.0000
       N       E                     dE             d eps       ncg     rms          rms(c)
DAV:   1    -0.355271048800E+03    0.55300E-02   -0.15578E+00 31832   0.376E+00    0.201E-01
DAV:   2    -0.355277376286E+03   -0.63275E-02   -0.64629E-02 28288   0.656E-01    0.290E-01
DAV:   3    -0.355277788434E+03   -0.41215E-03   -0.21518E-03 38088   0.156E-01    0.543E-01
DAV:   4    -0.355277237736E+03    0.55070E-03   -0.94537E-04 37456   0.103E-01    0.157E-01
DAV:   5    -0.355277298914E+03   -0.61178E-04   -0.38057E-04 30632   0.485E-02    0.173E-01
DAV:   6    -0.355277252295E+03    0.46619E-04   -0.26388E-04 30272   0.485E-02    0.146E-01
DAV:   7    -0.355277262853E+03   -0.10558E-04   -0.19209E-04 33168   0.536E-02    0.193E-01
DAV:   8    -0.355277202518E+03    0.60335E-04   -0.12981E-04 29656   0.487E-02    0.906E-02
DAV:   9    -0.355277216943E+03   -0.14425E-04   -0.97903E-05 23336   0.349E-02    0.947E-02
DAV:  10    -0.355277209118E+03    0.78256E-05   -0.47746E-05 22232   0.281E-02
  58 F= -.35527721E+03 E0= -.35526138E+03  d E =-.633279E-03  mag=     8.0000
       N       E                     dE             d eps       ncg     rms          rms(c)
DAV:   1    -0.355273845037E+03    0.33719E-02   -0.76421E-01 30976   0.249E+00    0.136E-01
DAV:   2    -0.355276480968E+03   -0.26359E-02   -0.26270E-02 28312   0.426E-01    0.260E-01
DAV:   3    -0.355276512369E+03   -0.31401E-04   -0.89598E-04 38536   0.105E-01    0.291E-01
DAV:   4    -0.355276384642E+03    0.12773E-03   -0.24214E-04 33888   0.582E-02    0.158E-01
DAV:   5    -0.355276351769E+03    0.32873E-04   -0.15176E-04 25368   0.346E-02    0.724E-02
DAV:   6    -0.355276381572E+03   -0.29803E-04   -0.11806E-04 22304   0.325E-02    0.144E-01
DAV:   7    -0.355276355726E+03    0.25847E-04   -0.25811E-04 29784   0.410E-02    0.131E-01
DAV:   8    -0.355276336705E+03    0.19020E-04   -0.10511E-04 22400   0.312E-02    0.838E-02
DAV:   9    -0.355276335223E+03    0.14826E-05   -0.41134E-05 21256   0.252E-02
  59 F= -.35527634E+03 E0= -.35526049E+03  d E =0.873895E-03  mag=     8.0000
       N       E                     dE             d eps       ncg     rms          rms(c)
DAV:   1    -0.354550472669E+03    0.72586E+00   -0.20605E+02 30776   0.406E+01    0.216E+00
DAV:   2    -0.355278217684E+03   -0.72775E+00   -0.74521E+00 28288   0.697E+00    0.246E+00
DAV:   3    -0.355326564282E+03   -0.48347E-01   -0.22768E-01 38472   0.160E+00    0.612E+00
DAV:   4    -0.355258499461E+03    0.68065E-01   -0.13288E-01 39432   0.101E+00    0.149E+00
DAV:   5    -0.355264443113E+03   -0.59437E-02   -0.32806E-02 38040   0.517E-01    0.134E+00
DAV:   6    -0.355264674581E+03   -0.23147E-03   -0.31170E-02 38304   0.434E-01    0.156E+00
DAV:   7    -0.355261611386E+03    0.30632E-02   -0.29126E-02 36248   0.441E-01    0.149E+00
DAV:   8    -0.355257621202E+03    0.39902E-02   -0.22857E-02 38104   0.360E-01    0.740E-01
DAV:   9    -0.355258161023E+03   -0.53982E-03   -0.59813E-03 39096   0.296E-01    0.751E-01
DAV:  10    -0.355257471738E+03    0.68928E-03   -0.50698E-03 38664   0.223E-01    0.422E-01
DAV:  11    -0.355257605175E+03   -0.13344E-03   -0.11566E-03 37152   0.133E-01    0.423E-01
DAV:  12    -0.355257436295E+03    0.16888E-03   -0.82359E-04 37624   0.931E-02    0.261E-01
DAV:  13    -0.355257395486E+03    0.40810E-04   -0.41490E-04 35128   0.688E-02    0.136E-01
DAV:  14    -0.355257465959E+03   -0.70473E-04   -0.16571E-04 27616   0.463E-02    0.207E-01
DAV:  15    -0.355257394987E+03    0.70972E-04   -0.14464E-04 25096   0.441E-02    0.859E-02
DAV:  16    -0.355257417221E+03   -0.22234E-04   -0.83674E-05 24560   0.352E-02    0.102E-01
DAV:  17    -0.355257404123E+03    0.13098E-04   -0.60290E-05 24128   0.327E-02    0.641E-02
DAV:  18    -0.355257406448E+03   -0.23250E-05   -0.32280E-05 21832   0.226E-02
  60 F= -.35525741E+03 E0= -.35524167E+03  d E =0.189288E-01  mag=     8.0000
       N       E                     dE             d eps       ncg     rms          rms(c)
DAV:   1    -0.354973303950E+03    0.28410E+00   -0.49300E+01 32592   0.223E+01    0.139E+00
DAV:   2    -0.355247024259E+03   -0.27372E+00   -0.26774E+00 28288   0.417E+00    0.379E+00
DAV:   3    -0.355230745224E+03    0.16279E-01   -0.14811E-01 37552   0.105E+00    0.213E+00
DAV:   4    -0.355231366093E+03   -0.62087E-03   -0.33272E-02 39960   0.563E-01    0.184E+00
DAV:   5    -0.355224614616E+03    0.67515E-02   -0.22750E-02 38248   0.437E-01    0.835E-01
DAV:   6    -0.355228829530E+03   -0.42149E-02   -0.24332E-02 38544   0.403E-01    0.181E+00
DAV:   7    -0.355225686055E+03    0.31435E-02   -0.39199E-02 38000   0.372E-01    0.144E+00
DAV:   8    -0.355225056391E+03    0.62966E-03   -0.27487E-02 37752   0.422E-01    0.130E+00
DAV:   9    -0.355223355051E+03    0.17013E-02   -0.19340E-02 36736   0.303E-01    0.106E+00
DAV:  10    -0.355221931482E+03    0.14236E-02   -0.42964E-03 37560   0.200E-01    0.323E-01
DAV:  11    -0.355222252415E+03   -0.32093E-03   -0.86316E-04 35888   0.113E-01    0.226E-01
DAV:  12    -0.355222309321E+03   -0.56906E-04   -0.30892E-04 31848   0.636E-02    0.233E-01
DAV:  13    -0.355222234708E+03    0.74613E-04   -0.13156E-04 26208   0.442E-02    0.136E-01
DAV:  14    -0.355222283483E+03   -0.48775E-04   -0.22996E-04 31760   0.521E-02    0.227E-01
DAV:  15    -0.355222239089E+03    0.44394E-04   -0.25065E-04 29440   0.561E-02    0.201E-01
DAV:  16    -0.355222186285E+03    0.52804E-04   -0.15339E-04 27680   0.532E-02    0.107E-01
DAV:  17    -0.355222194566E+03   -0.82810E-05   -0.96158E-05 26312   0.412E-02
  61 F= -.35522219E+03 E0= -.35520583E+03  d E =0.352119E-01  mag=     8.0000
       N       E                     dE             d eps       ncg     rms          rms(c)
DAV:   1    -0.354589321130E+03    0.63287E+00   -0.18472E+02 31760   0.395E+01    0.213E+00
DAV:   2    -0.355295481611E+03   -0.70616E+00   -0.72401E+00 28288   0.693E+00    0.290E+00
DAV:   3    -0.355347513767E+03   -0.52032E-01   -0.32034E-01 38568   0.161E+00    0.566E+00
DAV:   4    -0.355280847634E+03    0.66666E-01   -0.16053E-01 39072   0.106E+00    0.197E+00
DAV:   5    -0.355280380179E+03    0.46746E-03   -0.27320E-02 38704   0.505E-01    0.120E+00
DAV:   6    -0.355282744795E+03   -0.23646E-02   -0.27754E-02 38136   0.459E-01    0.171E+00
DAV:   7    -0.355277110051E+03    0.56347E-02   -0.25534E-02 38024   0.488E-01    0.121E+00
DAV:   8    -0.355276568934E+03    0.54112E-03   -0.30464E-02 37664   0.501E-01    0.123E+00
DAV:   9    -0.355274980882E+03    0.15881E-02   -0.13595E-02 38008   0.353E-01    0.995E-01
DAV:  10    -0.355273622613E+03    0.13583E-02   -0.66893E-03 38392   0.275E-01    0.372E-01
DAV:  11    -0.355274193625E+03   -0.57101E-03   -0.23950E-03 37488   0.158E-01    0.550E-01
DAV:  12    -0.355273694037E+03    0.49959E-03   -0.13037E-03 36744   0.122E-01    0.251E-01
DAV:  13    -0.355273694540E+03   -0.50307E-06   -0.48017E-04 37600   0.815E-02    0.163E-01
DAV:  14    -0.355273774773E+03   -0.80234E-04   -0.34981E-04 34272   0.632E-02    0.232E-01
DAV:  15    -0.355273694019E+03    0.80754E-04   -0.25038E-04 30768   0.510E-02    0.139E-01
DAV:  16    -0.355273702295E+03   -0.82762E-05   -0.10799E-04 24840   0.407E-02    0.102E-01
DAV:  17    -0.355273697545E+03    0.47497E-05   -0.56156E-05 23536   0.331E-02
  62 F= -.35527370E+03 E0= -.35525781E+03  d E =-.515030E-01  mag=     8.0000
       N       E                     dE             d eps       ncg     rms          rms(c)
DAV:   1    -0.355194543946E+03    0.79158E-01   -0.10203E+01 32656   0.112E+01    0.727E-01
DAV:   2    -0.355265034259E+03   -0.70490E-01   -0.74738E-01 28288   0.214E+00    0.140E+00
DAV:   3    -0.355265888349E+03   -0.85409E-03   -0.46541E-02 36840   0.572E-01    0.135E+00
DAV:   4    -0.355264119158E+03    0.17692E-02   -0.20257E-02 37560   0.312E-01    0.112E+00
DAV:   5    -0.355262587103E+03    0.15321E-02   -0.11454E-02 38600   0.243E-01    0.630E-01
DAV:   6    -0.355263066492E+03   -0.47939E-03   -0.23573E-03 38128   0.188E-01    0.758E-01
DAV:   7    -0.355263322245E+03   -0.25575E-03   -0.53366E-03 38128   0.234E-01    0.892E-01
DAV:   8    -0.355261881315E+03    0.14409E-02   -0.51243E-03 37424   0.241E-01    0.555E-01
DAV:   9    -0.355261957643E+03   -0.76328E-04   -0.26191E-03 38144   0.171E-01    0.521E-01
DAV:  10    -0.355261575229E+03    0.38241E-03   -0.12252E-03 38864   0.129E-01    0.256E-01
DAV:  11    -0.355261557684E+03    0.17545E-04   -0.53227E-04 38304   0.820E-02    0.166E-01
DAV:  12    -0.355261535803E+03    0.21880E-04   -0.14103E-04 31464   0.475E-02    0.970E-02
DAV:  13    -0.355261535854E+03   -0.50262E-07   -0.37545E-05 22288   0.240E-02
  63 F= -.35526154E+03 E0= -.35524604E+03  d E =0.121617E-01  mag=     8.0000
       N       E                     dE             d eps       ncg     rms          rms(c)
DAV:   1    -0.355196596127E+03    0.64940E-01   -0.14598E+01 32544   0.126E+01    0.739E-01
DAV:   2    -0.355278327145E+03   -0.81731E-01   -0.83761E-01 28288   0.231E+00    0.167E+00
DAV:   3    -0.355276452030E+03    0.18751E-02   -0.36929E-02 37112   0.618E-01    0.123E+00
DAV:   4    -0.355275968678E+03    0.48335E-03   -0.11073E-02 39096   0.337E-01    0.107E+00
DAV:   5    -0.355274089120E+03    0.18796E-02   -0.74986E-03 38672   0.249E-01    0.573E-01
DAV:   6    -0.355274489440E+03   -0.40032E-03   -0.35816E-03 38520   0.164E-01    0.659E-01
DAV:   7    -0.355274799311E+03   -0.30987E-03   -0.74284E-03 38592   0.227E-01    0.840E-01
DAV:   8    -0.355274058047E+03    0.74126E-03   -0.50703E-03 37416   0.238E-01    0.775E-01
DAV:   9    -0.355273418577E+03    0.63947E-03   -0.30689E-03 37432   0.179E-01    0.506E-01
DAV:  10    -0.355273199428E+03    0.21915E-03   -0.16500E-03 38264   0.120E-01    0.226E-01
DAV:  11    -0.355273229015E+03   -0.29586E-04   -0.71047E-04 36016   0.799E-02    0.159E-01
DAV:  12    -0.355273214667E+03    0.14348E-04   -0.12852E-04 29928   0.403E-02    0.118E-01
DAV:  13    -0.355273207496E+03    0.71710E-05   -0.22785E-05 20200   0.182E-02
  64 F= -.35527321E+03 E0= -.35525739E+03  d E =-.116716E-01  mag=     8.0000
