       N       E                     dE             d eps       ncg     rms          rms(c)
DAV:   1     0.665715152636E+04    0.66572E+04   -0.28434E+05 38296   0.152E+03
DAV:   2     0.358659309279E+03   -0.62985E+04   -0.59296E+04 38800   0.469E+02
DAV:   3    -0.385677613764E+03   -0.74434E+03   -0.73053E+03 40888   0.170E+02
DAV:   4    -0.417036336461E+03   -0.31359E+02   -0.30871E+02 50544   0.313E+01
DAV:   5    -0.419690315222E+03   -0.26540E+01   -0.26390E+01 66544   0.690E+00    0.602E+01
DAV:   6    -0.371248664755E+03    0.48442E+02   -0.25865E+02 43600   0.365E+01    0.371E+01
DAV:   7    -0.378776243218E+03   -0.75276E+01   -0.30892E+01 40184   0.151E+01    0.261E+01
DAV:   8    -0.381033367067E+03   -0.22571E+01   -0.36134E+00 46992   0.403E+00    0.149E+01
DAV:   9    -0.383484947528E+03   -0.24516E+01   -0.38444E+00 41024   0.367E+00    0.535E+00
DAV:  10    -0.385042729184E+03   -0.15578E+01   -0.58748E-01 45832   0.158E+00    0.358E+00
DAV:  11    -0.386969139485E+03   -0.19264E+01   -0.92740E-01 40976   0.153E+00    0.242E+00
DAV:  12    -0.388676297255E+03   -0.17072E+01   -0.11316E+00 42696   0.138E+00    0.151E+00
DAV:  13    -0.389400262675E+03   -0.72397E+00   -0.48761E-01 42080   0.937E-01    0.108E+00
DAV:  14    -0.389756812559E+03   -0.35655E+00   -0.31966E-01 41392   0.674E-01    0.629E-01
DAV:  15    -0.389813962534E+03   -0.57150E-01   -0.54612E-02 42312   0.404E-01    0.277E-01
DAV:  16    -0.389815239133E+03   -0.12766E-02   -0.46373E-03 44056   0.158E-01    0.135E-01
DAV:  17    -0.389815007871E+03    0.23126E-03   -0.11188E-03 48376   0.813E-02    0.995E-02
DAV:  18    -0.389814877702E+03    0.13017E-03   -0.20883E-04 41192   0.348E-02    0.531E-02
DAV:  19    -0.389814788329E+03    0.89373E-04   -0.77909E-05 35944   0.226E-02    0.269E-02
DAV:  20    -0.389814763011E+03    0.25318E-04   -0.62956E-05 36576   0.203E-02    0.129E-02
DAV:  21    -0.389814759214E+03    0.37971E-05   -0.11673E-05 30560   0.945E-03
   1 F= -.38981476E+03 E0= -.38981443E+03  d E =-.389815E+03  mag=    47.9999
