       N       E                     dE             d eps       ncg     rms          ort
DAV:   1     0.649696573510E+04    0.64970E+04   -0.30312E+05  9152   0.159E+03
DAV:   2     0.340165672323E+03   -0.61568E+04   -0.57927E+04  9152   0.465E+02
DAV:   3    -0.379327345813E+03   -0.71949E+03   -0.70657E+03  9152   0.170E+02
DAV:   4    -0.410268115004E+03   -0.30941E+02   -0.30337E+02  9152   0.311E+01
DAV:   5    -0.412735225706E+03   -0.24671E+01   -0.24528E+01  9152   0.643E+00
SDA:   6    -0.253839731160E+03    0.15890E+03   -0.24528E+01  9152   0.108E+04 0.000E+00
CGA:   7    -0.354892785623E+03   -0.10105E+03   -0.10359E+03  9152   0.304E+03-0.340E+02
CGA:   8    -0.362832199495E+03   -0.79394E+01   -0.12430E+02  9152   0.224E+03-0.926E+02
CGA:   9    -0.367795480347E+03   -0.49633E+01   -0.80859E+01  9152   0.221E+03-0.120E+03
CGA:  10    -0.364375431902E+03    0.34200E+01   -0.13365E+02  9152   0.198E+03-0.970E+02
CGA:  11    -0.372598575778E+03   -0.82231E+01   -0.31525E+01  9152   0.960E+02 0.199E+03
CGA:  12    -0.368987532665E+03    0.36110E+01   -0.38747E+01  9152   0.105E+03-0.417E+02
CGA:  13    -0.374936609118E+03   -0.59491E+01   -0.13688E+01  9152   0.121E+02 0.483E+02
CGA:  14    -0.374338068492E+03    0.59854E+00   -0.64459E+00  9152   0.881E+02-0.247E+02
CGA:  15    -0.370261751548E+03    0.40763E+01   -0.37013E+01  9152   0.124E+03-0.487E+02
CGA:  16    -0.370129529813E+03    0.13222E+00   -0.37272E+01  9152   0.226E+03-0.203E+03
CGA:  17    -0.369469390429E+03    0.66014E+00   -0.97926E+01  9152   0.443E+02-0.312E+02
CGA:  18    -0.371158201975E+03   -0.16888E+01   -0.53980E+00  9152   0.182E+03 0.190E+03
CGA:  19    -0.368978793791E+03    0.21794E+01   -0.66346E+01  9152   0.251E+03-0.197E+03
CGA:  20    -0.370216815894E+03   -0.12380E+01   -0.98665E+01  9152   0.423E+02-0.370E+02
CGA:  21    -0.373725446032E+03   -0.35086E+01   -0.51280E+00  9152   0.237E+03 0.298E+03
CGA:  22    -0.369914032019E+03    0.38114E+01   -0.95979E+01  9152   0.236E+03-0.150E+03
CGA:  23    -0.371263427149E+03   -0.13494E+01   -0.78863E+01  9152   0.877E+02-0.900E+02
CGA:  24    -0.376939837991E+03   -0.56764E+01   -0.10535E+01  9152   0.343E+02 0.849E+02
CGA:  25    -0.377292521314E+03   -0.35268E+00   -0.70229E+00  9152   0.130E+02-0.142E+02
CGA:  26    -0.377635430205E+03   -0.34291E+00   -0.33859E+00  9152   0.379E+01 0.329E-01
CGA:  27    -0.377938589678E+03   -0.30316E+00   -0.31753E+00  9152   0.756E+01 0.531E+00
CGA:  28    -0.378494099106E+03   -0.55551E+00   -0.55104E+00  9152   0.510E+01 0.866E+00
CGA:  29    -0.378867237359E+03   -0.37314E+00   -0.37910E+00  9152   0.247E+01 0.902E-01
CGA:  30    -0.379043889042E+03   -0.17665E+00   -0.18427E+00  9152   0.151E+01 0.112E+00
CGA:  31    -0.379136162242E+03   -0.92273E-01   -0.96341E-01  9152   0.760E+00 0.214E-01
CGA:  32    -0.379179619839E+03   -0.43458E-01   -0.46904E-01  9152   0.614E+00 0.140E-01
CGA:  33    -0.379219579366E+03   -0.39960E-01   -0.40665E-01  9152   0.220E+00 0.529E-02
CGA:  34    -0.379240057580E+03   -0.20478E-01   -0.20305E-01  9152   0.102E+00 0.179E-01
CGA:  35    -0.379251562121E+03   -0.11505E-01   -0.11322E-01  9152   0.743E-01 0.694E-02
CGA:  36    -0.379261280397E+03   -0.97183E-02   -0.96077E-02  9152   0.511E-01 0.246E-02
CGA:  37    -0.379266192041E+03   -0.49116E-02   -0.49019E-02  9152   0.404E-01 0.127E-02
CGA:  38    -0.379269748536E+03   -0.35565E-02   -0.35547E-02  9152   0.364E-01-0.342E-03
CGA:  39    -0.379273132827E+03   -0.33843E-02   -0.33824E-02  9152   0.209E-01 0.114E-03
CGA:  40    -0.379275606020E+03   -0.24732E-02   -0.24828E-02  9152   0.156E-01-0.312E-03
CGA:  41    -0.379277480343E+03   -0.18743E-02   -0.18763E-02  9152   0.956E-02-0.103E-03
CGA:  42    -0.379278312174E+03   -0.83183E-03   -0.83086E-03  9152   0.795E-02-0.156E-03
CGA:  43    -0.379279032499E+03   -0.72033E-03   -0.72033E-03  9152   0.622E-02-0.764E-04
CGA:  44    -0.379279614830E+03   -0.58233E-03   -0.58271E-03  9152   0.279E-02-0.124E-03
CGA:  45    -0.379279974995E+03   -0.36017E-03   -0.36308E-03  9152   0.261E-02-0.695E-04
CGA:  46    -0.379280238724E+03   -0.26373E-03   -0.26436E-03  9152   0.189E-02-0.538E-04
CGA:  47    -0.379280372603E+03   -0.13388E-03   -0.13364E-03  9152   0.118E-02-0.150E-04
CGA:  48    -0.379280497735E+03   -0.12513E-03   -0.12533E-03  9152   0.792E-03-0.129E-04
CGA:  49    -0.379280584930E+03   -0.87195E-04   -0.87194E-04  9152   0.471E-03 0.420E-06
CGA:  50    -0.379280645522E+03   -0.60591E-04   -0.60344E-04  9152   0.460E-03 0.781E-05
CGA:  51    -0.379280684740E+03   -0.39218E-04   -0.39350E-04  9152   0.320E-03 0.102E-04
CGA:  52    -0.379280710441E+03   -0.25701E-04   -0.25844E-04  9152   0.220E-03 0.950E-05
CGA:  53    -0.379280740954E+03   -0.30513E-04   -0.29927E-04  9152   0.151E-03 0.159E-04
CGA:  54    -0.379280758008E+03   -0.17054E-04   -0.16982E-04  9152   0.980E-04 0.981E-05
SDA:  55    -0.379280773002E+03   -0.14993E-04   -0.14596E-04  9152   0.914E-04 0.942E-05
CGA:  56    -0.379280776833E+03   -0.38311E-05   -0.38208E-05  9152   0.275E-04-0.349E-07
   1 F= -.37928078E+03 E0= -.37927493E+03  d E =-.379281E+03  mag=    46.0000
       N       E                     dE             d eps       ncg     rms          ort
SDA:   1    -0.379315179960E+03   -0.34407E-01    0.00000E+00  9152   0.935E-01 0.000E+00
CGA:   2    -0.379318374807E+03   -0.31948E-02   -0.33747E-02  9152   0.131E-01-0.381E-02
CGA:   3    -0.379319842911E+03   -0.14681E-02   -0.14700E-02  9152   0.198E-01-0.678E-04
CGA:   4    -0.379321518302E+03   -0.16754E-02   -0.16763E-02  9152   0.308E-02 0.218E-04
CGA:   5    -0.379321860810E+03   -0.34251E-03   -0.34262E-03  9152   0.236E-02-0.745E-05
CGA:   6    -0.379322047867E+03   -0.18706E-03   -0.18709E-03  9152   0.108E-02-0.180E-05
CGA:   7    -0.379322108052E+03   -0.60186E-04   -0.60051E-04  9152   0.305E-03-0.590E-07
CGA:   8    -0.379322141376E+03   -0.33324E-04   -0.33306E-04  9152   0.248E-03 0.129E-05
CGA:   9    -0.379322162216E+03   -0.20841E-04   -0.20854E-04  9152   0.711E-04 0.120E-05
CGA:  10    -0.379322171855E+03   -0.96388E-05   -0.95528E-05  9152   0.983E-04 0.231E-05
   2 F= -.37932217E+03 E0= -.37931634E+03  d E =-.413950E-01  mag=    46.0000
       N       E                     dE             d eps       ncg     rms          ort
SDA:   1    -0.373820250811E+03    0.55019E+01    0.00000E+00  9152   0.177E+02 0.000E+00
CGA:   2    -0.378163013682E+03   -0.43428E+01   -0.46423E+01  9152   0.376E+02-0.200E+01
CGA:   3    -0.379399946869E+03   -0.12369E+01   -0.14975E+01  9152   0.656E+01-0.337E+01
CGA:   4    -0.380144228314E+03   -0.74428E+00   -0.75475E+00  9152   0.405E+01-0.315E+00
CGA:   5    -0.380435497290E+03   -0.29127E+00   -0.29707E+00  9152   0.142E+01 0.298E-01
CGA:   6    -0.380527101084E+03   -0.91604E-01   -0.85184E-01  9152   0.507E+00 0.406E-01
CGA:   7    -0.380604635237E+03   -0.77534E-01   -0.77173E-01  9152   0.204E+00 0.633E-02
CGA:   8    -0.380620370132E+03   -0.15735E-01   -0.15491E-01  9152   0.126E+00-0.145E-02
CGA:   9    -0.380636144779E+03   -0.15775E-01   -0.15740E-01  9152   0.706E-01 0.983E-03
CGA:  10    -0.380640886552E+03   -0.47418E-02   -0.46938E-02  9152   0.346E-01 0.672E-04
CGA:  11    -0.380645372131E+03   -0.44856E-02   -0.44822E-02  9152   0.264E-01 0.842E-04
CGA:  12    -0.380648385590E+03   -0.30135E-02   -0.30125E-02  9152   0.113E-01 0.518E-04
CGA:  13    -0.380649837344E+03   -0.14518E-02   -0.14492E-02  9152   0.175E-01 0.721E-04
CGA:  14    -0.380651260249E+03   -0.14229E-02   -0.14204E-02  9152   0.472E-02-0.150E-04
CGA:  15    -0.380652237548E+03   -0.97730E-03   -0.97270E-03  9152   0.521E-02 0.444E-04
CGA:  16    -0.380652582376E+03   -0.34483E-03   -0.34395E-03  9152   0.220E-02 0.142E-04
CGA:  17    -0.380652908091E+03   -0.32571E-03   -0.32488E-03  9152   0.256E-02 0.184E-04
CGA:  18    -0.380653103869E+03   -0.19578E-03   -0.19577E-03  9152   0.885E-03 0.613E-05
CGA:  19    -0.380653204366E+03   -0.10050E-03   -0.10049E-03  9152   0.700E-03 0.148E-05
CGA:  20    -0.380653310971E+03   -0.10661E-03   -0.10658E-03  9152   0.606E-03 0.683E-06
CGA:  21    -0.380653345874E+03   -0.34903E-04   -0.34972E-04  9152   0.211E-03-0.507E-06
CGA:  22    -0.380653398963E+03   -0.53088E-04   -0.53490E-04  9152   0.232E-03-0.274E-05
CGA:  23    -0.380653413143E+03   -0.14180E-04   -0.14165E-04  9152   0.942E-04-0.743E-06
CGA:  24    -0.380653429961E+03   -0.16818E-04   -0.16882E-04  9152   0.121E-03-0.929E-06
CGA:  25    -0.380653437855E+03   -0.78939E-05   -0.78667E-05  9152   0.419E-04-0.631E-06
   3 F= -.38065344E+03 E0= -.38064782E+03  d E =-.133127E+01  mag=    46.0000
       N       E                     dE             d eps       ncg     rms          ort
SDA:   1    -0.349589519355E+03    0.31064E+02    0.00000E+00  9152   0.883E+02 0.000E+00
CGA:   2    -0.374183966594E+03   -0.24594E+02   -0.24411E+02  9152   0.578E+02 0.752E+00
CGA:   3    -0.377623095540E+03   -0.34391E+01   -0.40580E+01  9152   0.265E+02 0.235E+00
CGA:   4    -0.380524780596E+03   -0.29017E+01   -0.26521E+01  9152   0.118E+02-0.176E+01
CGA:   5    -0.381385292418E+03   -0.86051E+00   -0.85732E+00  9152   0.407E+01-0.558E-01
CGA:   6    -0.381836440685E+03   -0.45115E+00   -0.44948E+00  9152   0.251E+01-0.921E-01
CGA:   7    -0.381997889557E+03   -0.16145E+00   -0.17112E+00  9152   0.126E+01-0.422E-01
CGA:   8    -0.382076036036E+03   -0.78146E-01   -0.63956E-01  9152   0.498E+00 0.147E+00
CGA:   9    -0.382155132900E+03   -0.79097E-01   -0.78763E-01  9152   0.390E+00 0.851E-02
CGA:  10    -0.382181944328E+03   -0.26811E-01   -0.27094E-01  9152   0.148E+00-0.133E-02
CGA:  11    -0.382195800968E+03   -0.13857E-01   -0.13774E-01  9152   0.218E+00-0.151E-02
CGA:  12    -0.382211716664E+03   -0.15916E-01   -0.16720E-01  9152   0.567E-01 0.241E-02
CGA:  13    -0.382216685666E+03   -0.49690E-02   -0.49813E-02  9152   0.565E-01 0.141E-03
CGA:  14    -0.382222171245E+03   -0.54856E-02   -0.54800E-02  9152   0.448E-01-0.172E-03
CGA:  15    -0.382225063338E+03   -0.28921E-02   -0.30154E-02  9152   0.165E-01-0.145E-03
CGA:  16    -0.382227281777E+03   -0.22184E-02   -0.22182E-02  9152   0.199E-01 0.134E-04
CGA:  17    -0.382228550676E+03   -0.12689E-02   -0.12674E-02  9152   0.859E-02 0.280E-04
CGA:  18    -0.382229439793E+03   -0.88912E-03   -0.88939E-03  9152   0.682E-02 0.960E-04
CGA:  19    -0.382230170870E+03   -0.73108E-03   -0.73107E-03  9152   0.471E-02 0.976E-05
CGA:  20    -0.382230501972E+03   -0.33110E-03   -0.33106E-03  9152   0.294E-02 0.761E-05
CGA:  21    -0.382230838141E+03   -0.33617E-03   -0.33587E-03  9152   0.264E-02 0.199E-04
CGA:  22    -0.382231172947E+03   -0.33481E-03   -0.33469E-03  9152   0.176E-02 0.497E-05
CGA:  23    -0.382231293709E+03   -0.12076E-03   -0.12079E-03  9152   0.118E-02-0.162E-06
CGA:  24    -0.382231450469E+03   -0.15676E-03   -0.15676E-03  9152   0.136E-02-0.738E-06
CGA:  25    -0.382231573286E+03   -0.12282E-03   -0.12273E-03  9152   0.399E-03-0.422E-05
CGA:  26    -0.382231609943E+03   -0.36657E-04   -0.36646E-04  9152   0.492E-03-0.128E-05
CGA:  27    -0.382231665813E+03   -0.55870E-04   -0.55905E-04  9152   0.297E-03-0.324E-05
CGA:  28    -0.382231688587E+03   -0.22774E-04   -0.22680E-04  9152   0.124E-03-0.287E-05
CGA:  29    -0.382231705754E+03   -0.17168E-04   -0.17330E-04  9152   0.185E-03-0.426E-05
CGA:  30    -0.382231718717E+03   -0.12962E-04   -0.12842E-04  9152   0.838E-04-0.379E-05
CGA:  31    -0.382231727140E+03   -0.84236E-05   -0.84234E-05  9152   0.573E-04-0.227E-05
   4 F= -.38223173E+03 E0= -.38222609E+03  d E =-.157829E+01  mag=    46.0000
       N       E                     dE             d eps       ncg     rms          ort
SDA:   1    -0.359422945191E+03    0.22809E+02    0.00000E+00  9152   0.659E+02 0.000E+00
CGA:   2    -0.374406440315E+03   -0.14983E+02   -0.15254E+02  9152   0.694E+02-0.217E+01
CGA:   3    -0.378223306778E+03   -0.38169E+01   -0.41272E+01  9152   0.255E+02 0.223E+01
CGA:   4    -0.381103228130E+03   -0.28799E+01   -0.28988E+01  9152   0.161E+02-0.329E+01
CGA:   5    -0.382004878835E+03   -0.90165E+00   -0.81836E+00  9152   0.386E+01 0.139E+00
CGA:   6    -0.382472408063E+03   -0.46753E+00   -0.47527E+00  9152   0.338E+01-0.286E+00
CGA:   7    -0.382641996092E+03   -0.16959E+00   -0.19367E+00  9152   0.121E+01-0.672E-01
CGA:   8    -0.382726411523E+03   -0.84415E-01   -0.73054E-01  9152   0.511E+00 0.568E-01
CGA:   9    -0.382791871932E+03   -0.65460E-01   -0.65024E-01  9152   0.444E+00 0.142E-01
CGA:  10    -0.382819172385E+03   -0.27300E-01   -0.27531E-01  9152   0.127E+00-0.747E-03
CGA:  11    -0.382837069868E+03   -0.17897E-01   -0.17721E-01  9152   0.916E-01 0.338E-02
CGA:  12    -0.382846073369E+03   -0.90035E-02   -0.89996E-02  9152   0.643E-01-0.249E-03
CGA:  13    -0.382850698125E+03   -0.46248E-02   -0.47325E-02  9152   0.332E-01 0.571E-03
CGA:  14    -0.382855139780E+03   -0.44417E-02   -0.44637E-02  9152   0.162E-01-0.501E-03
CGA:  15    -0.382857126631E+03   -0.19869E-02   -0.19832E-02  9152   0.198E-01 0.116E-03
CGA:  16    -0.382858710485E+03   -0.15839E-02   -0.15859E-02  9152   0.483E-02 0.356E-04
CGA:  17    -0.382859397169E+03   -0.68668E-03   -0.68283E-03  9152   0.716E-02 0.793E-04
CGA:  18    -0.382860117716E+03   -0.72055E-03   -0.72049E-03  9152   0.203E-02 0.338E-05
CGA:  19    -0.382860335441E+03   -0.21772E-03   -0.21767E-03  9152   0.200E-02 0.112E-04
CGA:  20    -0.382860575382E+03   -0.23994E-03   -0.23984E-03  9152   0.177E-02 0.643E-05
CGA:  21    -0.382860749581E+03   -0.17420E-03   -0.17426E-03  9152   0.532E-03 0.719E-05
CGA:  22    -0.382860845299E+03   -0.95717E-04   -0.95576E-04  9152   0.117E-02 0.172E-05
CGA:  23    -0.382860947905E+03   -0.10261E-03   -0.10264E-03  9152   0.259E-03 0.116E-06
CGA:  24    -0.382860994963E+03   -0.47058E-04   -0.47215E-04  9152   0.472E-03-0.207E-05
CGA:  25    -0.382861035376E+03   -0.40413E-04   -0.40387E-04  9152   0.146E-03-0.143E-05
CGA:  26    -0.382861053271E+03   -0.17896E-04   -0.17907E-04  9152   0.155E-03-0.939E-06
CGA:  27    -0.382861069117E+03   -0.15846E-04   -0.15835E-04  9152   0.845E-04-0.150E-05
CGA:  28    -0.382861078253E+03   -0.91366E-05   -0.91356E-05  9152   0.472E-04-0.131E-05
   5 F= -.38286108E+03 E0= -.38285539E+03  d E =-.629351E+00  mag=    46.0000
       N       E                     dE             d eps       ncg     rms          ort
SDA:   1    -0.360635660678E+03    0.22225E+02    0.00000E+00  9152   0.960E+02 0.000E+00
CGA:   2    -0.370330056805E+03   -0.96944E+01   -0.10000E+02  9152   0.468E+02 0.230E+02
CGA:   3    -0.376504524515E+03   -0.61745E+01   -0.60572E+01  9152   0.636E+02-0.913E+01
CGA:   4    -0.378315622279E+03   -0.18111E+01   -0.22267E+01  9152   0.965E+02-0.833E+01
CGA:   5    -0.379790682221E+03   -0.14751E+01   -0.21745E+01  9152   0.423E+02-0.378E+02
CGA:   6    -0.380843444052E+03   -0.10528E+01   -0.12779E+01  9152   0.304E+02 0.320E+01
CGA:   7    -0.381146694447E+03   -0.30325E+00   -0.79471E+00  9152   0.189E+02-0.240E+02
CGA:   8    -0.381645870994E+03   -0.49918E+00   -0.77863E+00  9152   0.138E+02-0.740E+01
CGA:   9    -0.382316692995E+03   -0.67082E+00   -0.66150E+00  9152   0.182E+02-0.244E+00
CGA:  10    -0.382696391174E+03   -0.37970E+00   -0.54492E+00  9152   0.116E+02-0.480E+01
CGA:  11    -0.382883334206E+03   -0.18694E+00   -0.21610E+00  9152   0.187E+01-0.123E+01
CGA:  12    -0.382957114165E+03   -0.73780E-01   -0.49596E-01  9152   0.694E+00 0.632E+00
CGA:  13    -0.382978260841E+03   -0.21147E-01   -0.16738E-01  9152   0.346E+00 0.210E+00
CGA:  14    -0.383006474606E+03   -0.28214E-01   -0.27840E-01  9152   0.151E+01-0.625E-02
CGA:  15    -0.383043408426E+03   -0.36934E-01   -0.38998E-01  9152   0.193E+01-0.442E-01
CGA:  16    -0.383065260355E+03   -0.21852E-01   -0.27971E-01  9152   0.809E+00-0.358E+00
CGA:  17    -0.383072725185E+03   -0.74648E-02   -0.10434E-01  9152   0.372E+00-0.163E+00
CGA:  18    -0.383077668385E+03   -0.49432E-02   -0.61700E-02  9152   0.303E+00-0.467E-01
CGA:  19    -0.383086604274E+03   -0.89359E-02   -0.98568E-02  9152   0.399E+00-0.767E-02
CGA:  20    -0.383100346574E+03   -0.13742E-01   -0.13930E-01  9152   0.249E+00-0.167E-02
CGA:  21    -0.383109189363E+03   -0.88428E-02   -0.91770E-02  9152   0.207E+00-0.323E-02
CGA:  22    -0.383118320156E+03   -0.91308E-02   -0.93612E-02  9152   0.116E+00 0.174E-02
CGA:  23    -0.383122265541E+03   -0.39454E-02   -0.40811E-02  9152   0.526E-01-0.131E-02
CGA:  24    -0.383126383806E+03   -0.41183E-02   -0.41195E-02  9152   0.792E-01-0.399E-04
CGA:  25    -0.383130467251E+03   -0.40834E-02   -0.40863E-02  9152   0.399E-01 0.114E-03
CGA:  26    -0.383132389802E+03   -0.19226E-02   -0.19388E-02  9152   0.297E-01 0.321E-03
CGA:  27    -0.383134183630E+03   -0.17938E-02   -0.17957E-02  9152   0.166E-01 0.775E-03
CGA:  28    -0.383135291923E+03   -0.11083E-02   -0.11074E-02  9152   0.185E-01 0.120E-03
CGA:  29    -0.383136725884E+03   -0.14340E-02   -0.14361E-02  9152   0.997E-02-0.999E-04
CGA:  30    -0.383137126652E+03   -0.40077E-03   -0.39974E-03  9152   0.461E-02-0.705E-05
CGA:  31    -0.383137578247E+03   -0.45160E-03   -0.45318E-03  9152   0.723E-02-0.400E-04
CGA:  32    -0.383137942507E+03   -0.36426E-03   -0.36395E-03  9152   0.279E-02-0.192E-04
CGA:  33    -0.383138095850E+03   -0.15334E-03   -0.15330E-03  9152   0.220E-02-0.480E-05
CGA:  34    -0.383138273420E+03   -0.17757E-03   -0.17768E-03  9152   0.233E-02-0.515E-05
CGA:  35    -0.383138409069E+03   -0.13565E-03   -0.13557E-03  9152   0.111E-02-0.946E-05
CGA:  36    -0.383138467799E+03   -0.58729E-04   -0.58504E-04  9152   0.875E-03-0.801E-05
CGA:  37    -0.383138550920E+03   -0.83121E-04   -0.83555E-04  9152   0.122E-02-0.117E-04
SDA:  38    -0.383138609240E+03   -0.58321E-04   -0.58154E-04  9152   0.603E-03-0.422E-05
CGA:  39    -0.383138661733E+03   -0.52493E-04   -0.52436E-04  9152   0.314E-03 0.165E-05
CGA:  40    -0.383138704341E+03   -0.42608E-04   -0.42864E-04  9152   0.243E-03-0.363E-05
CGA:  41    -0.383138729267E+03   -0.24927E-04   -0.25031E-04  9152   0.113E-03-0.254E-05
CGA:  42    -0.383138749585E+03   -0.20318E-04   -0.19946E-04  9152   0.939E-04 0.335E-05
CGA:  43    -0.383138763931E+03   -0.14345E-04   -0.14180E-04  9152   0.537E-04 0.230E-05
CGA:  44    -0.383138771450E+03   -0.75187E-05   -0.74887E-05  9152   0.110E-03 0.497E-06
CGA:  45    -0.383138784005E+03   -0.12555E-04   -0.12557E-04  9152   0.415E-04-0.101E-06
CGA:  46    -0.383138794567E+03   -0.10563E-04   -0.11066E-04  9152   0.303E-04-0.276E-05
CGA:  47    -0.383138797769E+03   -0.32011E-05   -0.32079E-05  9152   0.423E-04-0.339E-06
   6 F= -.38313880E+03 E0= -.38313242E+03  d E =-.277720E+00  mag=    46.0000
       N       E                     dE             d eps       ncg     rms          ort
SDA:   1    -0.351023087379E+03    0.32116E+02    0.00000E+00  9152   0.181E+03 0.000E+00
CGA:   2    -0.361824776694E+03   -0.10802E+02   -0.13059E+02  9152   0.742E+02 0.325E+02
CGA:   3    -0.372286384955E+03   -0.10462E+02   -0.12212E+02  9152   0.131E+03-0.222E+02
CGA:   4    -0.379533602317E+03   -0.72472E+01   -0.58896E+01  9152   0.312E+02 0.113E+02
CGA:   5    -0.380099602444E+03   -0.56600E+00   -0.99239E+00  9152   0.333E+02-0.159E+02
CGA:   6    -0.380882939998E+03   -0.78334E+00   -0.11963E+01  9152   0.232E+02-0.784E+01
CGA:   7    -0.382548831924E+03   -0.16659E+01   -0.16644E+01  9152   0.623E+01 0.155E+00
CGA:   8    -0.382804331881E+03   -0.25550E+00   -0.23361E+00  9152   0.121E+01 0.264E+00
CGA:   9    -0.383025567792E+03   -0.22124E+00   -0.22076E+00  9152   0.336E+01 0.208E-01
CGA:  10    -0.383129866018E+03   -0.10430E+00   -0.11312E+00  9152   0.878E+00-0.186E+00
CGA:  11    -0.383182653441E+03   -0.52787E-01   -0.50959E-01  9152   0.573E+00-0.877E-02
CGA:  12    -0.383236198608E+03   -0.53545E-01   -0.52972E-01  9152   0.421E+00 0.450E-01
CGA:  13    -0.383269088364E+03   -0.32890E-01   -0.32855E-01  9152   0.251E+00-0.118E-02
CGA:  14    -0.383279082741E+03   -0.99944E-02   -0.10927E-01  9152   0.123E+00-0.994E-02
CGA:  15    -0.383289336531E+03   -0.10254E-01   -0.10211E-01  9152   0.886E-01 0.807E-02
CGA:  16    -0.383296740719E+03   -0.74042E-02   -0.74042E-02  9152   0.316E-01 0.786E-05
CGA:  17    -0.383300250839E+03   -0.35101E-02   -0.34144E-02  9152   0.366E-01 0.280E-02
CGA:  18    -0.383303161645E+03   -0.29108E-02   -0.29408E-02  9152   0.193E-01 0.102E-02
CGA:  19    -0.383304982121E+03   -0.18205E-02   -0.18154E-02  9152   0.148E-01 0.407E-03
CGA:  20    -0.383306497360E+03   -0.15152E-02   -0.15043E-02  9152   0.765E-02 0.468E-03
CGA:  21    -0.383307068415E+03   -0.57106E-03   -0.57223E-03  9152   0.457E-02 0.311E-04
CGA:  22    -0.383307664806E+03   -0.59639E-03   -0.59307E-03  9152   0.262E-02 0.635E-04
CGA:  23    -0.383307869806E+03   -0.20500E-03   -0.20552E-03  9152   0.147E-02 0.240E-04
CGA:  24    -0.383308037470E+03   -0.16766E-03   -0.16726E-03  9152   0.134E-02 0.127E-04
CGA:  25    -0.383308193502E+03   -0.15603E-03   -0.15589E-03  9152   0.886E-03 0.408E-05
CGA:  26    -0.383308287148E+03   -0.93646E-04   -0.93567E-04  9152   0.687E-03 0.314E-05
CGA:  27    -0.383308359537E+03   -0.72389E-04   -0.72401E-04  9152   0.594E-03-0.114E-05
CGA:  28    -0.383308427620E+03   -0.68083E-04   -0.68187E-04  9152   0.338E-03-0.385E-05
CGA:  29    -0.383308464385E+03   -0.36765E-04   -0.36776E-04  9152   0.286E-03-0.668E-06
CGA:  30    -0.383308490295E+03   -0.25911E-04   -0.25910E-04  9152   0.157E-03-0.468E-06
CGA:  31    -0.383308508491E+03   -0.18195E-04   -0.18233E-04  9152   0.133E-03-0.141E-05
CGA:  32    -0.383308522006E+03   -0.13515E-04   -0.13524E-04  9152   0.763E-04-0.898E-06
CGA:  33    -0.383308529161E+03   -0.71553E-05   -0.71557E-05  9152   0.666E-04-0.737E-06
   7 F= -.38330853E+03 E0= -.38330152E+03  d E =-.169731E+00  mag=    46.0000
       N       E                     dE             d eps       ncg     rms          ort
SDA:   1    -0.323541626307E+03    0.59767E+02    0.00000E+00  9152   0.184E+03 0.000E+00
CGA:   2    -0.357033796189E+03   -0.33492E+02   -0.30397E+02  9152   0.142E+03 0.307E+02
CGA:   3    -0.368498001817E+03   -0.11464E+02   -0.13132E+02  9152   0.112E+03 0.550E+01
CGA:   4    -0.374687021335E+03   -0.61890E+01   -0.42515E+01  9152   0.732E+02 0.413E+02
CGA:   5    -0.375569790138E+03   -0.88277E+00   -0.30637E+01  9152   0.125E+03-0.610E+02
CGA:   6    -0.376830177788E+03   -0.12604E+01   -0.52241E+01  9152   0.607E+02-0.470E+02
CGA:   7    -0.379904683934E+03   -0.30745E+01   -0.18076E+01  9152   0.249E+02-0.203E+02
CGA:   8    -0.381238573493E+03   -0.13339E+01   -0.12790E+01  9152   0.157E+02-0.230E+01
CGA:   9    -0.381878751594E+03   -0.64018E+00   -0.73145E+00  9152   0.109E+02-0.107E+01
CGA:  10    -0.382365895862E+03   -0.48714E+00   -0.52279E+00  9152   0.701E+01-0.231E+00
CGA:  11    -0.382758794777E+03   -0.39290E+00   -0.42043E+00  9152   0.303E+01 0.266E+00
CGA:  12    -0.382977023443E+03   -0.21823E+00   -0.22132E+00  9152   0.170E+01 0.781E-01
CGA:  13    -0.383101686301E+03   -0.12466E+00   -0.12625E+00  9152   0.125E+01 0.682E-01
CGA:  14    -0.383159539528E+03   -0.57853E-01   -0.60603E-01  9152   0.804E+00-0.309E-01
CGA:  15    -0.383202669412E+03   -0.43130E-01   -0.44411E-01  9152   0.299E+00 0.294E-02
CGA:  16    -0.383221838559E+03   -0.19169E-01   -0.19646E-01  9152   0.173E+00 0.107E-01
CGA:  17    -0.383235632221E+03   -0.13794E-01   -0.13800E-01  9152   0.136E+00 0.286E-02
CGA:  18    -0.383248041779E+03   -0.12410E-01   -0.12213E-01  9152   0.955E-01 0.111E-01
CGA:  19    -0.383253966645E+03   -0.59249E-02   -0.60135E-02  9152   0.528E-01 0.634E-03
CGA:  20    -0.383258359410E+03   -0.43928E-02   -0.43872E-02  9152   0.319E-01 0.622E-03
CGA:  21    -0.383261286239E+03   -0.29268E-02   -0.29087E-02  9152   0.201E-01 0.947E-03
CGA:  22    -0.383262632584E+03   -0.13463E-02   -0.13464E-02  9152   0.118E-01-0.308E-05
CGA:  23    -0.383263655239E+03   -0.10227E-02   -0.10196E-02  9152   0.763E-02 0.203E-03
CGA:  24    -0.383264384063E+03   -0.72882E-03   -0.72744E-03  9152   0.483E-02 0.591E-04
CGA:  25    -0.383264765913E+03   -0.38185E-03   -0.38191E-03  9152   0.389E-02 0.571E-04
CGA:  26    -0.383265114347E+03   -0.34843E-03   -0.34843E-03  9152   0.248E-02 0.151E-05
CGA:  27    -0.383265360230E+03   -0.24588E-03   -0.24534E-03  9152   0.173E-02 0.207E-04
CGA:  28    -0.383265507161E+03   -0.14693E-03   -0.14695E-03  9152   0.141E-02-0.165E-05
CGA:  29    -0.383265628845E+03   -0.12168E-03   -0.12164E-03  9152   0.911E-03 0.373E-05
CGA:  30    -0.383265721342E+03   -0.92497E-04   -0.92510E-04  9152   0.626E-03-0.115E-05
CGA:  31    -0.383265773586E+03   -0.52244E-04   -0.52244E-04  9152   0.499E-03-0.115E-05
CGA:  32    -0.383265819092E+03   -0.45506E-04   -0.45556E-04  9152   0.366E-03-0.448E-05
CGA:  33    -0.383265854522E+03   -0.35430E-04   -0.35458E-04  9152   0.258E-03-0.181E-05
CGA:  34    -0.383265877830E+03   -0.23308E-04   -0.23318E-04  9152   0.223E-03-0.127E-05
CGA:  35    -0.383265897572E+03   -0.19742E-04   -0.19748E-04  9152   0.156E-03-0.100E-05
SDA:  36    -0.383265912451E+03   -0.14879E-04   -0.14886E-04  9152   0.119E-03-0.496E-06
CGA:  37    -0.383265916506E+03   -0.40549E-05   -0.40654E-05  9152   0.283E-04-0.581E-07
   8 F= -.38326592E+03 E0= -.38325807E+03  d E =0.426127E-01  mag=    46.0000
       N       E                     dE             d eps       ncg     rms          ort
SDA:   1    -0.360687251401E+03    0.22579E+02    0.00000E+00  9152   0.789E+02 0.000E+00
CGA:   2    -0.371416663460E+03   -0.10729E+02   -0.10589E+02  9152   0.694E+02 0.527E+01
CGA:   3    -0.376705054081E+03   -0.52884E+01   -0.44638E+01  9152   0.348E+02-0.116E+02
CGA:   4    -0.380672524177E+03   -0.39675E+01   -0.47244E+01  9152   0.565E+02-0.112E+02
CGA:   5    -0.381486707661E+03   -0.81418E+00   -0.14239E+01  9152   0.821E+01-0.103E+02
CGA:   6    -0.382533364187E+03   -0.10467E+01   -0.10686E+01  9152   0.471E+01-0.320E+00
CGA:   7    -0.382835352641E+03   -0.30199E+00   -0.32697E+00  9152   0.244E+01 0.266E+00
CGA:   8    -0.382997156315E+03   -0.16180E+00   -0.15347E+00  9152   0.401E+01-0.262E-01
CGA:   9    -0.383191150483E+03   -0.19399E+00   -0.16537E+00  9152   0.152E+01 0.414E+00
CGA:  10    -0.383266405260E+03   -0.75255E-01   -0.77189E-01  9152   0.129E+01-0.139E-01
CGA:  11    -0.383313321659E+03   -0.46916E-01   -0.50990E-01  9152   0.154E+01-0.788E-01
CGA:  12    -0.383379205504E+03   -0.65884E-01   -0.66054E-01  9152   0.100E+01-0.387E-01
CGA:  13    -0.383410772020E+03   -0.31567E-01   -0.39047E-01  9152   0.391E+00-0.918E-01
CGA:  14    -0.383427021495E+03   -0.16249E-01   -0.16948E-01  9152   0.282E+00-0.473E-02
CGA:  15    -0.383451661116E+03   -0.24640E-01   -0.24447E-01  9152   0.233E+00 0.131E-01
CGA:  16    -0.383464657262E+03   -0.12996E-01   -0.13324E-01  9152   0.743E-01 0.187E-02
CGA:  17    -0.383473841697E+03   -0.91844E-02   -0.90260E-02  9152   0.671E-01 0.315E-02
CGA:  18    -0.383479531055E+03   -0.56894E-02   -0.56862E-02  9152   0.243E-01 0.184E-02
CGA:  19    -0.383482266883E+03   -0.27358E-02   -0.27131E-02  9152   0.221E-01 0.609E-03
CGA:  20    -0.383484545739E+03   -0.22789E-02   -0.22747E-02  9152   0.928E-02 0.152E-03
CGA:  21    -0.383485556485E+03   -0.10107E-02   -0.10071E-02  9152   0.696E-02 0.109E-03
CGA:  22    -0.383486313968E+03   -0.75748E-03   -0.75747E-03  9152   0.467E-02 0.440E-06
CGA:  23    -0.383486658627E+03   -0.34466E-03   -0.34480E-03  9152   0.263E-02 0.440E-05
CGA:  24    -0.383486964781E+03   -0.30615E-03   -0.30500E-03  9152   0.205E-02 0.288E-04
CGA:  25    -0.383487169139E+03   -0.20436E-03   -0.20450E-03  9152   0.113E-02-0.718E-05
CGA:  26    -0.383487301914E+03   -0.13277E-03   -0.13265E-03  9152   0.101E-02 0.297E-05
CGA:  27    -0.383487417569E+03   -0.11566E-03   -0.11567E-03  9152   0.531E-03-0.751E-06
CGA:  28    -0.383487484317E+03   -0.66748E-04   -0.66811E-04  9152   0.465E-03-0.178E-05
CGA:  29    -0.383487541483E+03   -0.57166E-04   -0.57228E-04  9152   0.273E-03-0.174E-05
CGA:  30    -0.383487567659E+03   -0.26175E-04   -0.26173E-04  9152   0.234E-03 0.242E-06
CGA:  31    -0.383487593566E+03   -0.25908E-04   -0.25912E-04  9152   0.159E-03-0.104E-06
SDA:  32    -0.383487606382E+03   -0.12816E-04   -0.12823E-04  9152   0.928E-04 0.538E-06
CGA:  33    -0.383487611873E+03   -0.54904E-05   -0.54965E-05  9152   0.683E-04 0.385E-07
CGA:  34    -0.383487628166E+03   -0.16293E-04   -0.16249E-04  9152   0.489E-04 0.303E-06
CGA:  35    -0.383487630689E+03   -0.25231E-05   -0.25219E-05  9152   0.149E-04 0.457E-08
   9 F= -.38348763E+03 E0= -.38348069E+03  d E =-.221714E+00  mag=    46.0000
       N       E                     dE             d eps       ncg     rms          ort
SDA:   1    -0.382324323036E+03    0.11633E+01    0.00000E+00  9152   0.404E+01 0.000E+00
CGA:   2    -0.382906701878E+03   -0.58238E+00   -0.59576E+00  9152   0.495E+01-0.244E+00
CGA:   3    -0.383156030957E+03   -0.24933E+00   -0.25612E+00  9152   0.173E+01-0.510E-01
CGA:   4    -0.383411134583E+03   -0.25510E+00   -0.25302E+00  9152   0.830E+00 0.349E-01
CGA:   5    -0.383483634703E+03   -0.72500E-01   -0.70338E-01  9152   0.389E+00-0.249E-01
CGA:   6    -0.383513416040E+03   -0.29781E-01   -0.29745E-01  9152   0.196E+00-0.235E-03
CGA:   7    -0.383527543810E+03   -0.14128E-01   -0.14343E-01  9152   0.108E+00 0.912E-03
CGA:   8    -0.383535321384E+03   -0.77776E-02   -0.77782E-02  9152   0.294E-01-0.721E-06
CGA:   9    -0.383540257931E+03   -0.49365E-02   -0.49498E-02  9152   0.183E-01-0.175E-03
CGA:  10    -0.383541419380E+03   -0.11614E-02   -0.11730E-02  9152   0.972E-02-0.198E-04
CGA:  11    -0.383542619188E+03   -0.11998E-02   -0.11997E-02  9152   0.562E-02 0.661E-05
CGA:  12    -0.383543071437E+03   -0.45225E-03   -0.45149E-03  9152   0.422E-02-0.660E-05
CGA:  13    -0.383543387816E+03   -0.31638E-03   -0.31640E-03  9152   0.153E-02 0.190E-05
CGA:  14    -0.383543650473E+03   -0.26266E-03   -0.26225E-03  9152   0.107E-02 0.523E-05
CGA:  15    -0.383543731402E+03   -0.80928E-04   -0.80935E-04  9152   0.629E-03 0.207E-06
CGA:  16    -0.383543813290E+03   -0.81888E-04   -0.81842E-04  9152   0.577E-03 0.179E-05
CGA:  17    -0.383543850623E+03   -0.37333E-04   -0.37361E-04  9152   0.277E-03 0.106E-05
CGA:  18    -0.383543883523E+03   -0.32901E-04   -0.32900E-04  9152   0.148E-03-0.878E-07
CGA:  19    -0.383543906195E+03   -0.22671E-04   -0.22729E-04  9152   0.156E-03-0.106E-05
CGA:  20    -0.383543915748E+03   -0.95534E-05   -0.95473E-05  9152   0.534E-04-0.362E-06
  10 F= -.38354392E+03 E0= -.38353666E+03  d E =-.562851E-01  mag=    46.0000
       N       E                     dE             d eps       ncg     rms          ort
SDA:   1    -0.382274313975E+03    0.12696E+01    0.00000E+00  9152   0.370E+01 0.000E+00
CGA:   2    -0.382948558680E+03   -0.67424E+00   -0.64791E+00  9152   0.411E+01 0.316E+00
CGA:   3    -0.383229318149E+03   -0.28076E+00   -0.23017E+00  9152   0.121E+01 0.559E+00
CGA:   4    -0.383458639812E+03   -0.22932E+00   -0.23046E+00  9152   0.106E+01-0.162E-01
CGA:   5    -0.383504443391E+03   -0.45804E-01   -0.48496E-01  9152   0.279E+00-0.374E-01
CGA:   6    -0.383531680362E+03   -0.27237E-01   -0.27229E-01  9152   0.256E+00-0.799E-03
CGA:   7    -0.383544983705E+03   -0.13303E-01   -0.12852E-01  9152   0.388E-01 0.481E-02
CGA:   8    -0.383551467373E+03   -0.64837E-02   -0.64526E-02  9152   0.496E-01 0.445E-03
CGA:   9    -0.383553838970E+03   -0.23716E-02   -0.23027E-02  9152   0.128E-01 0.929E-03
CGA:  10    -0.383555191634E+03   -0.13527E-02   -0.13527E-02  9152   0.108E-01-0.102E-04
CGA:  11    -0.383556078767E+03   -0.88713E-03   -0.88810E-03  9152   0.647E-02 0.154E-04
CGA:  12    -0.383556566149E+03   -0.48738E-03   -0.48757E-03  9152   0.350E-02 0.251E-05
CGA:  13    -0.383556796574E+03   -0.23042E-03   -0.23055E-03  9152   0.254E-02 0.569E-06
CGA:  14    -0.383557150931E+03   -0.35436E-03   -0.35406E-03  9152   0.125E-02 0.614E-05
CGA:  15    -0.383557239503E+03   -0.88573E-04   -0.88383E-04  9152   0.989E-03 0.229E-07
CGA:  16    -0.383557360517E+03   -0.12101E-03   -0.12091E-03  9152   0.109E-02 0.382E-05
CGA:  17    -0.383557419475E+03   -0.58958E-04   -0.59244E-04  9152   0.279E-03 0.775E-06
CGA:  18    -0.383557474042E+03   -0.54567E-04   -0.54424E-04  9152   0.332E-03 0.147E-05
CGA:  19    -0.383557493706E+03   -0.19664E-04   -0.19722E-04  9152   0.174E-03 0.188E-06
CGA:  20    -0.383557509356E+03   -0.15650E-04   -0.15655E-04  9152   0.127E-03 0.256E-06
CGA:  21    -0.383557520920E+03   -0.11564E-04   -0.11564E-04  9152   0.972E-04-0.124E-07
CGA:  22    -0.383557530286E+03   -0.93661E-05   -0.93671E-05  9152   0.381E-04 0.269E-06
  11 F= -.38355753E+03 E0= -.38355003E+03  d E =-.136145E-01  mag=    46.0000
       N       E                     dE             d eps       ncg     rms          ort
SDA:   1    -0.373872178347E+03    0.96853E+01    0.00000E+00  9152   0.323E+02 0.000E+00
CGA:   2    -0.377729985352E+03   -0.38578E+01   -0.36641E+01  9152   0.266E+02 0.827E+01
CGA:   3    -0.380846146286E+03   -0.31162E+01   -0.27953E+01  9152   0.223E+02-0.588E+01
CGA:   4    -0.382592796036E+03   -0.17466E+01   -0.17490E+01  9152   0.114E+02-0.174E+01
CGA:   5    -0.382865009904E+03   -0.27221E+00   -0.42586E+00  9152   0.805E+01-0.304E+01
CGA:   6    -0.383100929213E+03   -0.23592E+00   -0.26340E+00  9152   0.413E+01-0.342E+00
CGA:   7    -0.383301467340E+03   -0.20054E+00   -0.17542E+00  9152   0.241E+01 0.250E+00
CGA:   8    -0.383377980624E+03   -0.76513E-01   -0.76244E-01  9152   0.139E+01-0.379E-02
CGA:   9    -0.383462386260E+03   -0.84406E-01   -0.87684E-01  9152   0.138E+01 0.130E-01
CGA:  10    -0.383506861946E+03   -0.44476E-01   -0.47466E-01  9152   0.471E+00-0.614E-01
CGA:  11    -0.383532179514E+03   -0.25318E-01   -0.24729E-01  9152   0.270E+00 0.207E-03
CGA:  12    -0.383545992862E+03   -0.13813E-01   -0.14042E-01  9152   0.294E+00-0.948E-03
CGA:  13    -0.383563673250E+03   -0.17680E-01   -0.18266E-01  9152   0.141E+00 0.622E-02
CGA:  14    -0.383570547045E+03   -0.68738E-02   -0.69308E-02  9152   0.808E-01-0.284E-03
CGA:  15    -0.383574475332E+03   -0.39283E-02   -0.39649E-02  9152   0.470E-01-0.154E-03
CGA:  16    -0.383579037860E+03   -0.45625E-02   -0.45138E-02  9152   0.439E-01 0.181E-02
CGA:  17    -0.383581134699E+03   -0.20968E-02   -0.21105E-02  9152   0.180E-01-0.482E-04
CGA:  18    -0.383582349986E+03   -0.12153E-02   -0.12144E-02  9152   0.107E-01-0.339E-04
CGA:  19    -0.383583565347E+03   -0.12154E-02   -0.12020E-02  9152   0.107E-01 0.306E-03
CGA:  20    -0.383584163557E+03   -0.59821E-03   -0.60063E-03  9152   0.457E-02 0.159E-04
CGA:  21    -0.383584473056E+03   -0.30950E-03   -0.30965E-03  9152   0.319E-02 0.832E-05
CGA:  22    -0.383584879020E+03   -0.40596E-03   -0.40315E-03  9152   0.245E-02 0.515E-04
CGA:  23    -0.383585049124E+03   -0.17010E-03   -0.17025E-03  9152   0.130E-02 0.758E-05
CGA:  24    -0.383585148265E+03   -0.99141E-04   -0.99164E-04  9152   0.144E-02 0.489E-05
CGA:  25    -0.383585300635E+03   -0.15237E-03   -0.15207E-03  9152   0.682E-03 0.867E-05
CGA:  26    -0.383585361629E+03   -0.60993E-04   -0.60957E-04  9152   0.547E-03 0.319E-05
CGA:  27    -0.383585417726E+03   -0.56097E-04   -0.56016E-04  9152   0.779E-03 0.306E-05
CGA:  28    -0.383585472060E+03   -0.54334E-04   -0.54368E-04  9152   0.254E-03 0.173E-05
CGA:  29    -0.383585502237E+03   -0.30178E-04   -0.30153E-04  9152   0.278E-03 0.592E-06
CGA:  30    -0.383585532047E+03   -0.29810E-04   -0.29826E-04  9152   0.283E-03-0.717E-06
CGA:  31    -0.383585547807E+03   -0.15759E-04   -0.15720E-04  9152   0.118E-03-0.788E-06
SDA:  32    -0.383585561314E+03   -0.13508E-04   -0.13547E-04  9152   0.121E-03-0.121E-05
CGA:  33    -0.383585567502E+03   -0.61879E-05   -0.61869E-05  9152   0.460E-04-0.186E-06
CGA:  34    -0.383585581260E+03   -0.13758E-04   -0.14069E-04  9152   0.486E-04-0.139E-05
CGA:  35    -0.383585584642E+03   -0.33823E-05   -0.33797E-05  9152   0.208E-04-0.128E-06
  12 F= -.38358558E+03 E0= -.38357783E+03  d E =-.280544E-01  mag=    46.0000
       N       E                     dE             d eps       ncg     rms          ort
SDA:   1    -0.229616619387E+03    0.15397E+03    0.00000E+00  9152   0.791E+03 0.000E+00
CGA:   2    -0.301896907362E+03   -0.72280E+02   -0.77739E+02  9152   0.997E+03-0.684E+03
CGA:   3    -0.333188237695E+03   -0.31291E+02   -0.42792E+02  9152   0.176E+03 0.230E+03
CGA:   4    -0.342714785196E+03   -0.95265E+01   -0.76182E+01  9152   0.119E+03 0.252E+02
CGA:   5    -0.344940098791E+03   -0.22253E+01   -0.16224E+02  9152   0.737E+03-0.158E+03
CGA:   6    -0.360874509675E+03   -0.15934E+02   -0.28104E+02  9152   0.139E+03 0.134E+02
CGA:   7    -0.371021371726E+03   -0.10147E+02   -0.37362E+01  9152   0.247E+02 0.165E+02
CGA:   8    -0.372339269177E+03   -0.13179E+01   -0.15872E+01  9152   0.447E+02-0.205E+01
CGA:   9    -0.375997373941E+03   -0.36581E+01   -0.31471E+01  9152   0.123E+03-0.497E+02
CGA:  10    -0.376466648829E+03   -0.46927E+00   -0.46516E+01  9152   0.335E+02-0.177E+02
CGA:  11    -0.378276059728E+03   -0.18094E+01   -0.60476E+00  9152   0.244E+02 0.509E+02
CGA:  12    -0.378594055721E+03   -0.31800E+00   -0.40039E+00  9152   0.126E+02-0.116E+02
CGA:  13    -0.379944381049E+03   -0.13503E+01   -0.12399E+01  9152   0.763E+01 0.876E+00
CGA:  14    -0.380258446604E+03   -0.31407E+00   -0.41299E+00  9152   0.421E+01 0.379E+00
CGA:  15    -0.380546714635E+03   -0.28827E+00   -0.25976E+00  9152   0.360E+01-0.264E+00
CGA:  16    -0.380870920025E+03   -0.32421E+00   -0.31664E+00  9152   0.134E+01 0.297E+00
CGA:  17    -0.380961572528E+03   -0.90653E-01   -0.90240E-01  9152   0.804E+00-0.124E-01
CGA:  18    -0.381057821393E+03   -0.96249E-01   -0.93930E-01  9152   0.547E+00 0.475E-01
CGA:  19    -0.381105841491E+03   -0.48020E-01   -0.47831E-01  9152   0.277E+00 0.260E-01
CGA:  20    -0.381132918210E+03   -0.27077E-01   -0.27025E-01  9152   0.148E+00 0.182E-02
CGA:  21    -0.381157564159E+03   -0.24646E-01   -0.22940E-01  9152   0.107E+00 0.216E-01
CGA:  22    -0.381166215075E+03   -0.86509E-02   -0.84116E-02  9152   0.488E-01-0.479E-02
CGA:  23    -0.381174566402E+03   -0.83513E-02   -0.83387E-02  9152   0.480E-01 0.305E-04
CGA:  24    -0.381178457066E+03   -0.38907E-02   -0.38844E-02  9152   0.163E-01-0.384E-03
CGA:  25    -0.381179937308E+03   -0.14802E-02   -0.14777E-02  9152   0.102E-01 0.328E-03
CGA:  26    -0.381181304991E+03   -0.13677E-02   -0.13768E-02  9152   0.785E-02-0.173E-03
CGA:  27    -0.381181945340E+03   -0.64035E-03   -0.64047E-03  9152   0.346E-02 0.566E-05
CGA:  28    -0.381182548418E+03   -0.60308E-03   -0.60493E-03  9152   0.493E-02-0.227E-04
CGA:  29    -0.381182978850E+03   -0.43043E-03   -0.43054E-03  9152   0.201E-02 0.658E-05
CGA:  30    -0.381183171739E+03   -0.19289E-03   -0.19299E-03  9152   0.131E-02-0.227E-04
CGA:  31    -0.381183419979E+03   -0.24824E-03   -0.24845E-03  9152   0.140E-02-0.200E-05
CGA:  32    -0.381183522768E+03   -0.10279E-03   -0.10271E-03  9152   0.586E-03-0.360E-05
CGA:  33    -0.381183606590E+03   -0.83822E-04   -0.84312E-04  9152   0.730E-03-0.964E-05
CGA:  34    -0.381183691994E+03   -0.85405E-04   -0.85604E-04  9152   0.457E-03-0.832E-05
CGA:  35    -0.381183732967E+03   -0.40973E-04   -0.41013E-04  9152   0.204E-03 0.179E-05
CGA:  36    -0.381183761869E+03   -0.28902E-04   -0.28918E-04  9152   0.261E-03 0.785E-08
CGA:  37    -0.381183786519E+03   -0.24650E-04   -0.24667E-04  9152   0.124E-03 0.229E-05
CGA:  38    -0.381183800301E+03   -0.13782E-04   -0.13773E-04  9152   0.849E-04 0.111E-05
CGA:  39    -0.381183813885E+03   -0.13584E-04   -0.13589E-04  9152   0.954E-04-0.926E-07
CGA:  40    -0.381183821531E+03   -0.76457E-05   -0.76323E-05  9152   0.433E-04-0.390E-06
  13 F= -.38118382E+03 E0= -.38117640E+03  d E =0.240176E+01  mag=    46.0000
       N       E                     dE             d eps       ncg     rms          ort
SDA:   1    -0.150143327300E+03    0.23104E+03    0.00000E+00  9152   0.312E+04 0.000E+00
CGA:   2    -0.309680298277E+03   -0.15954E+03   -0.15156E+03  9152   0.311E+03-0.138E+02
CGA:   3    -0.343453353589E+03   -0.33773E+02   -0.33216E+02  9152   0.138E+03 0.697E+02
CGA:   4    -0.359107259909E+03   -0.15654E+02   -0.10688E+02  9152   0.164E+03-0.391E+02
CGA:   5    -0.365237308219E+03   -0.61300E+01   -0.79113E+01  9152   0.198E+03 0.155E+02
CGA:   6    -0.373965822588E+03   -0.87285E+01   -0.63972E+01  9152   0.102E+03-0.117E+03
CGA:   7    -0.375676310570E+03   -0.17105E+01   -0.39551E+01  9152   0.161E+03-0.895E+02
CGA:   8    -0.377486536037E+03   -0.18102E+01   -0.46553E+01  9152   0.671E+02-0.613E+02
CGA:   9    -0.379719266268E+03   -0.22327E+01   -0.13502E+01  9152   0.837E+01 0.190E+02
CGA:  10    -0.380062842642E+03   -0.34358E+00   -0.30068E+00  9152   0.185E+02 0.618E+00
CGA:  11    -0.380937919336E+03   -0.87508E+00   -0.10097E+01  9152   0.775E+02-0.193E+01
CGA:  12    -0.381148439348E+03   -0.21052E+00   -0.85691E+00  9152   0.436E+02-0.548E+02
CGA:  13    -0.382334123041E+03   -0.11857E+01   -0.18703E+01  9152   0.136E+02-0.354E+01
CGA:  14    -0.382578137403E+03   -0.24401E+00   -0.31078E+00  9152   0.687E+01-0.301E+01
CGA:  15    -0.382918805598E+03   -0.34067E+00   -0.34069E+00  9152   0.313E+01 0.387E-02
CGA:  16    -0.383084175151E+03   -0.16537E+00   -0.17210E+00  9152   0.154E+01 0.521E-01
CGA:  17    -0.383245041796E+03   -0.16087E+00   -0.15491E+00  9152   0.212E+01 0.162E+00
CGA:  18    -0.383346791892E+03   -0.10175E+00   -0.11097E+00  9152   0.178E+01-0.136E-01
CGA:  19    -0.383460792680E+03   -0.11400E+00   -0.11619E+00  9152   0.687E+00 0.120E+00
CGA:  20    -0.383514564603E+03   -0.53772E-01   -0.53757E-01  9152   0.305E+00 0.970E-02
CGA:  21    -0.383546611172E+03   -0.32047E-01   -0.31596E-01  9152   0.229E+00 0.121E-01
CGA:  22    -0.383561947635E+03   -0.15336E-01   -0.15395E-01  9152   0.126E+00 0.237E-02
CGA:  23    -0.383572513557E+03   -0.10566E-01   -0.10518E-01  9152   0.689E-01 0.334E-02
CGA:  24    -0.383579164807E+03   -0.66512E-02   -0.65669E-02  9152   0.325E-01 0.315E-02
CGA:  25    -0.383583233886E+03   -0.40691E-02   -0.40183E-02  9152   0.357E-01 0.101E-02
CGA:  26    -0.383586869237E+03   -0.36354E-02   -0.36167E-02  9152   0.242E-01 0.637E-03
CGA:  27    -0.383588511772E+03   -0.16425E-02   -0.16487E-02  9152   0.110E-01 0.200E-03
CGA:  28    -0.383589786368E+03   -0.12746E-02   -0.12655E-02  9152   0.930E-02 0.203E-03
CGA:  29    -0.383590711466E+03   -0.92510E-03   -0.92681E-03  9152   0.507E-02-0.656E-04
CGA:  30    -0.383591211003E+03   -0.49954E-03   -0.49887E-03  9152   0.357E-02 0.198E-04
CGA:  31    -0.383591611435E+03   -0.40043E-03   -0.40179E-03  9152   0.356E-02-0.391E-04
CGA:  32    -0.383591953040E+03   -0.34161E-03   -0.34191E-03  9152   0.272E-02-0.201E-04
CGA:  33    -0.383592207296E+03   -0.25426E-03   -0.25423E-03  9152   0.167E-02-0.167E-05
CGA:  34    -0.383592399258E+03   -0.19196E-03   -0.19248E-03  9152   0.114E-02-0.131E-04
CGA:  35    -0.383592524664E+03   -0.12541E-03   -0.12536E-03  9152   0.871E-03 0.222E-05
CGA:  36    -0.383592607749E+03   -0.83085E-04   -0.83070E-04  9152   0.677E-03 0.245E-05
CGA:  37    -0.383592660555E+03   -0.52806E-04   -0.52805E-04  9152   0.337E-03 0.172E-05
CGA:  38    -0.383592701423E+03   -0.40868E-04   -0.40730E-04  9152   0.287E-03 0.412E-05
CGA:  39    -0.383592736040E+03   -0.34617E-04   -0.34570E-04  9152   0.179E-03 0.211E-05
CGA:  40    -0.383592753050E+03   -0.17010E-04   -0.16999E-04  9152   0.149E-03 0.255E-05
CGA:  41    -0.383592767489E+03   -0.14439E-04   -0.14431E-04  9152   0.133E-03 0.149E-05
CGA:  42    -0.383592781079E+03   -0.13590E-04   -0.13592E-04  9152   0.725E-04-0.101E-07
SDA:  43    -0.383592789020E+03   -0.79414E-05   -0.79613E-05  9152   0.512E-04-0.101E-05
  14 F= -.38359279E+03 E0= -.38358548E+03  d E =-.240897E+01  mag=    46.0000
       N       E                     dE             d eps       ncg     rms          ort
SDA:   1    -0.383428723705E+03    0.16406E+00    0.00000E+00  9152   0.637E+00 0.000E+00
CGA:   2    -0.383555641138E+03   -0.12692E+00   -0.12692E+00  9152   0.316E+00 0.873E-05
CGA:   3    -0.383600048621E+03   -0.44407E-01   -0.44322E-01  9152   0.372E+00 0.166E-02
CGA:   4    -0.383623204110E+03   -0.23155E-01   -0.23115E-01  9152   0.825E-01-0.122E-03
CGA:   5    -0.383629950087E+03   -0.67460E-02   -0.67391E-02  9152   0.723E-01-0.145E-03
CGA:   6    -0.383635522848E+03   -0.55728E-02   -0.55707E-02  9152   0.102E-01-0.309E-04
CGA:   7    -0.383637260797E+03   -0.17379E-02   -0.17374E-02  9152   0.937E-02 0.753E-05
CGA:   8    -0.383637748105E+03   -0.48731E-03   -0.48564E-03  9152   0.279E-02 0.124E-04
CGA:   9    -0.383638086379E+03   -0.33827E-03   -0.33817E-03  9152   0.301E-02 0.345E-05
CGA:  10    -0.383638299758E+03   -0.21338E-03   -0.21357E-03  9152   0.803E-03 0.259E-05
CGA:  11    -0.383638392467E+03   -0.92709E-04   -0.92776E-04  9152   0.640E-03-0.207E-05
CGA:  12    -0.383638454892E+03   -0.62425E-04   -0.62423E-04  9152   0.493E-03 0.381E-06
CGA:  13    -0.383638490818E+03   -0.35927E-04   -0.35937E-04  9152   0.174E-03-0.855E-07
CGA:  14    -0.383638508731E+03   -0.17913E-04   -0.17919E-04  9152   0.223E-03-0.707E-06
CGA:  15    -0.383638532013E+03   -0.23282E-04   -0.23282E-04  9152   0.532E-04-0.170E-07
CGA:  16    -0.383638538872E+03   -0.68586E-05   -0.68550E-05  9152   0.866E-04 0.103E-06
  15 F= -.38363854E+03 E0= -.38363117E+03  d E =-.457499E-01  mag=    46.0000
       N       E                     dE             d eps       ncg     rms          ort
SDA:   1    -0.379169500467E+03    0.44690E+01    0.00000E+00  9152   0.142E+02 0.000E+00
CGA:   2    -0.381482496443E+03   -0.23130E+01   -0.23118E+01  9152   0.188E+02 0.473E-01
CGA:   3    -0.382416384928E+03   -0.93389E+00   -0.10296E+01  9152   0.656E+01-0.988E+00
CGA:   4    -0.383339721566E+03   -0.92334E+00   -0.94757E+00  9152   0.401E+01-0.411E+00
CGA:   5    -0.383527445983E+03   -0.18772E+00   -0.21029E+00  9152   0.122E+01-0.132E+00
CGA:   6    -0.383665739024E+03   -0.13829E+00   -0.13884E+00  9152   0.831E+00-0.195E-01
CGA:   7    -0.383704302611E+03   -0.38564E-01   -0.38304E-01  9152   0.206E+00-0.550E-03
CGA:   8    -0.383730353215E+03   -0.26051E-01   -0.25969E-01  9152   0.185E+00 0.211E-02
CGA:   9    -0.383742283173E+03   -0.11930E-01   -0.11807E-01  9152   0.473E-01 0.179E-03
CGA:  10    -0.383747896038E+03   -0.56129E-02   -0.55898E-02  9152   0.559E-01 0.770E-03
CGA:  11    -0.383751742006E+03   -0.38460E-02   -0.38290E-02  9152   0.165E-01 0.615E-05
CGA:  12    -0.383753138648E+03   -0.13966E-02   -0.13941E-02  9152   0.141E-01-0.660E-04
CGA:  13    -0.383754616046E+03   -0.14774E-02   -0.14750E-02  9152   0.683E-02 0.156E-03
CGA:  14    -0.383755176821E+03   -0.56077E-03   -0.56095E-03  9152   0.462E-02 0.577E-05
CGA:  15    -0.383755611844E+03   -0.43502E-03   -0.43503E-03  9152   0.395E-02 0.254E-05
CGA:  16    -0.383755961122E+03   -0.34928E-03   -0.34938E-03  9152   0.206E-02 0.584E-05
CGA:  17    -0.383756137458E+03   -0.17634E-03   -0.17628E-03  9152   0.122E-02-0.296E-06
CGA:  18    -0.383756290554E+03   -0.15310E-03   -0.15293E-03  9152   0.147E-02 0.537E-05
CGA:  19    -0.383756383963E+03   -0.93409E-04   -0.93576E-04  9152   0.431E-03 0.270E-05
CGA:  20    -0.383756435449E+03   -0.51487E-04   -0.51472E-04  9152   0.518E-03 0.903E-06
CGA:  21    -0.383756485641E+03   -0.50191E-04   -0.50190E-04  9152   0.241E-03 0.195E-05
CGA:  22    -0.383756502014E+03   -0.16373E-04   -0.16385E-04  9152   0.172E-03 0.650E-07
CGA:  23    -0.383756527351E+03   -0.25337E-04   -0.25321E-04  9152   0.150E-03 0.300E-06
CGA:  24    -0.383756539102E+03   -0.11751E-04   -0.11749E-04  9152   0.853E-04-0.226E-06
CGA:  25    -0.383756547970E+03   -0.88678E-05   -0.88693E-05  9152   0.905E-04-0.147E-06
  16 F= -.38375655E+03 E0= -.38374896E+03  d E =-.118009E+00  mag=    46.0000
       N       E                     dE             d eps       ncg     rms          ort
SDA:   1    -0.382740704853E+03    0.10158E+01    0.00000E+00  9152   0.369E+01 0.000E+00
CGA:   2    -0.383045861613E+03   -0.30516E+00   -0.31161E+00  9152   0.450E+01 0.181E+00
CGA:   3    -0.383512693342E+03   -0.46683E+00   -0.46770E+00  9152   0.148E+01-0.154E+00
CGA:   4    -0.383628344103E+03   -0.11565E+00   -0.11483E+00  9152   0.111E+01-0.154E-01
CGA:   5    -0.383724322724E+03   -0.95979E-01   -0.96055E-01  9152   0.280E+00 0.390E-02
CGA:   6    -0.383740544260E+03   -0.16222E-01   -0.16529E-01  9152   0.159E+00-0.120E-02
CGA:   7    -0.383758007527E+03   -0.17463E-01   -0.17499E-01  9152   0.493E-01-0.136E-02
CGA:   8    -0.383760826552E+03   -0.28190E-02   -0.28501E-02  9152   0.262E-01-0.991E-04
CGA:   9    -0.383764024500E+03   -0.31979E-02   -0.32020E-02  9152   0.163E-01-0.941E-04
CGA:  10    -0.383764933847E+03   -0.90935E-03   -0.90854E-03  9152   0.520E-02 0.422E-05
CGA:  11    -0.383765633847E+03   -0.70000E-03   -0.69982E-03  9152   0.619E-02 0.501E-05
CGA:  12    -0.383766011745E+03   -0.37790E-03   -0.37835E-03  9152   0.152E-02 0.724E-06
CGA:  13    -0.383766190932E+03   -0.17919E-03   -0.17940E-03  9152   0.210E-02-0.555E-05
CGA:  14    -0.383766374878E+03   -0.18395E-03   -0.18396E-03  9152   0.796E-03 0.659E-06
CGA:  15    -0.383766438454E+03   -0.63576E-04   -0.63584E-04  9152   0.644E-03 0.400E-06
CGA:  16    -0.383766513503E+03   -0.75050E-04   -0.75069E-04  9152   0.532E-03-0.584E-06
CGA:  17    -0.383766556565E+03   -0.43062E-04   -0.43063E-04  9152   0.272E-03 0.530E-06
CGA:  18    -0.383766577822E+03   -0.21256E-04   -0.21270E-04  9152   0.179E-03 0.961E-06
CGA:  19    -0.383766600169E+03   -0.22347E-04   -0.22284E-04  9152   0.175E-03 0.213E-05
CGA:  20    -0.383766612104E+03   -0.11935E-04   -0.11968E-04  9152   0.546E-04 0.112E-05
CGA:  21    -0.383766618049E+03   -0.59455E-05   -0.59350E-05  9152   0.768E-04 0.730E-06
  17 F= -.38376662E+03 E0= -.38375902E+03  d E =-.100701E-01  mag=    46.0000
       N       E                     dE             d eps       ncg     rms          ort
SDA:   1    -0.380580397836E+03    0.31862E+01    0.00000E+00  9152   0.129E+02 0.000E+00
CGA:   2    -0.381454564967E+03   -0.87417E+00   -0.96371E+00  9152   0.112E+02 0.118E+01
CGA:   3    -0.382882826767E+03   -0.14283E+01   -0.16660E+01  9152   0.170E+02-0.510E+01
CGA:   4    -0.383255430804E+03   -0.37260E+00   -0.37503E+00  9152   0.492E+01 0.162E-01
CGA:   5    -0.383398944318E+03   -0.14351E+00   -0.16677E+00  9152   0.240E+01-0.477E+00
CGA:   6    -0.383591470006E+03   -0.19253E+00   -0.19257E+00  9152   0.232E+01 0.256E-01
CGA:   7    -0.383683537803E+03   -0.92068E-01   -0.87638E-01  9152   0.569E+00 0.705E-01
CGA:   8    -0.383710067967E+03   -0.26530E-01   -0.25555E-01  9152   0.311E+00 0.933E-02
CGA:   9    -0.383742660610E+03   -0.32593E-01   -0.32228E-01  9152   0.372E+00 0.143E-01
CGA:  10    -0.383757956162E+03   -0.15296E-01   -0.15115E-01  9152   0.668E-01 0.340E-02
CGA:  11    -0.383763777778E+03   -0.58216E-02   -0.58338E-02  9152   0.104E+00-0.202E-02
CGA:  12    -0.383770258385E+03   -0.64806E-02   -0.66137E-02  9152   0.568E-01 0.185E-02
CGA:  13    -0.383772933827E+03   -0.26754E-02   -0.27742E-02  9152   0.218E-01-0.566E-03
CGA:  14    -0.383774316385E+03   -0.13826E-02   -0.13836E-02  9152   0.150E-01 0.197E-04
CGA:  15    -0.383775408002E+03   -0.10916E-02   -0.10968E-02  9152   0.111E-01 0.304E-03
CGA:  16    -0.383776484365E+03   -0.10764E-02   -0.10743E-02  9152   0.603E-02 0.926E-04
CGA:  17    -0.383776727987E+03   -0.24362E-03   -0.24197E-03  9152   0.184E-02 0.240E-04
CGA:  18    -0.383777117415E+03   -0.38943E-03   -0.38722E-03  9152   0.289E-02 0.101E-04
CGA:  19    -0.383777237166E+03   -0.11975E-03   -0.12059E-03  9152   0.672E-03-0.968E-05
CGA:  20    -0.383777305830E+03   -0.68665E-04   -0.68535E-04  9152   0.796E-03 0.525E-05
CGA:  21    -0.383777385580E+03   -0.79749E-04   -0.79702E-04  9152   0.489E-03 0.189E-05
CGA:  22    -0.383777418002E+03   -0.32422E-04   -0.32471E-04  9152   0.358E-03 0.160E-05
CGA:  23    -0.383777444618E+03   -0.26617E-04   -0.26647E-04  9152   0.185E-03 0.225E-05
CGA:  24    -0.383777474784E+03   -0.30165E-04   -0.30083E-04  9152   0.261E-03 0.842E-06
CGA:  25    -0.383777488753E+03   -0.13970E-04   -0.13984E-04  9152   0.112E-03 0.197E-06
CGA:  26    -0.383777501245E+03   -0.12492E-04   -0.12479E-04  9152   0.150E-03 0.401E-06
CGA:  27    -0.383777516068E+03   -0.14822E-04   -0.14827E-04  9152   0.572E-04-0.516E-06
CGA:  28    -0.383777520588E+03   -0.45203E-05   -0.45188E-05  9152   0.799E-04-0.180E-06
  18 F= -.38377752E+03 E0= -.38377002E+03  d E =-.109025E-01  mag=    46.0000
       N       E                     dE             d eps       ncg     rms          ort
SDA:   1    -0.298955538117E+03    0.84822E+02    0.00000E+00  9152   0.289E+03 0.000E+00
CGA:   2    -0.335334755859E+03   -0.36379E+02   -0.41736E+02  9152   0.446E+03-0.761E+02
CGA:   3    -0.356471336112E+03   -0.21137E+02   -0.19725E+02  9152   0.143E+03-0.490E+02
CGA:   4    -0.367836094051E+03   -0.11365E+02   -0.97890E+01  9152   0.183E+03-0.532E+02
CGA:   5    -0.375764661993E+03   -0.79286E+01   -0.75968E+01  9152   0.695E+02 0.361E+01
CGA:   6    -0.377259422667E+03   -0.14948E+01   -0.22076E+01  9152   0.793E+02-0.535E+02
CGA:   7    -0.378771822861E+03   -0.15124E+01   -0.18545E+01  9152   0.355E+02-0.218E+02
CGA:   8    -0.380521330019E+03   -0.17495E+01   -0.16869E+01  9152   0.253E+02-0.209E+01
CGA:   9    -0.381527344294E+03   -0.10060E+01   -0.10558E+01  9152   0.158E+02-0.212E+01
CGA:  10    -0.382035852238E+03   -0.50851E+00   -0.53867E+00  9152   0.952E+01-0.873E+00
CGA:  11    -0.382230855389E+03   -0.19500E+00   -0.25727E+00  9152   0.871E+01-0.201E+01
CGA:  12    -0.382689054127E+03   -0.45820E+00   -0.44374E+00  9152   0.231E+01-0.468E+00
CGA:  13    -0.382784556531E+03   -0.95502E-01   -0.10115E+00  9152   0.168E+01-0.222E-01
CGA:  14    -0.382865793396E+03   -0.81237E-01   -0.81142E-01  9152   0.128E+01-0.796E-03
CGA:  15    -0.382973703217E+03   -0.10791E+00   -0.10422E+00  9152   0.704E+00 0.226E+00
CGA:  16    -0.383014575643E+03   -0.40872E-01   -0.41451E-01  9152   0.498E+00 0.269E-03
CGA:  17    -0.383052955051E+03   -0.38379E-01   -0.37896E-01  9152   0.495E+00 0.531E-01
CGA:  18    -0.383084988791E+03   -0.32034E-01   -0.32479E-01  9152   0.256E+00 0.921E-02
CGA:  19    -0.383102992813E+03   -0.18004E-01   -0.18049E-01  9152   0.999E-01 0.154E-01
CGA:  20    -0.383113182649E+03   -0.10190E-01   -0.99700E-02  9152   0.116E+00 0.700E-02
CGA:  21    -0.383123327469E+03   -0.10145E-01   -0.10077E-01  9152   0.598E-01 0.430E-02
CGA:  22    -0.383128121367E+03   -0.47939E-02   -0.47954E-02  9152   0.339E-01-0.167E-03
CGA:  23    -0.383132281379E+03   -0.41600E-02   -0.41063E-02  9152   0.233E-01 0.995E-03
CGA:  24    -0.383134489166E+03   -0.22078E-02   -0.22015E-02  9152   0.176E-01 0.254E-03
CGA:  25    -0.383136146013E+03   -0.16568E-02   -0.16512E-02  9152   0.880E-02 0.231E-03
CGA:  26    -0.383137195773E+03   -0.10498E-02   -0.10485E-02  9152   0.751E-02 0.275E-04
CGA:  27    -0.383137827140E+03   -0.63137E-03   -0.63086E-03  9152   0.411E-02 0.597E-04
CGA:  28    -0.383138314024E+03   -0.48688E-03   -0.48950E-03  9152   0.383E-02-0.558E-04
CGA:  29    -0.383138685166E+03   -0.37114E-03   -0.37038E-03  9152   0.192E-02 0.312E-04
CGA:  30    -0.383138915159E+03   -0.22999E-03   -0.23093E-03  9152   0.207E-02-0.216E-04
CGA:  31    -0.383139090300E+03   -0.17514E-03   -0.17514E-03  9152   0.119E-02-0.252E-05
CGA:  32    -0.383139238894E+03   -0.14859E-03   -0.15091E-03  9152   0.856E-03-0.478E-04
CGA:  33    -0.383139319751E+03   -0.80857E-04   -0.80821E-04  9152   0.672E-03 0.606E-06
CGA:  34    -0.383139390351E+03   -0.70600E-04   -0.71309E-04  9152   0.592E-03-0.262E-04
CGA:  35    -0.383139440194E+03   -0.49843E-04   -0.49841E-04  9152   0.309E-03 0.137E-04
CGA:  36    -0.383139480506E+03   -0.40312E-04   -0.41884E-04  9152   0.289E-03-0.307E-04
SDA:  37    -0.383139508045E+03   -0.27538E-04   -0.27258E-04  9152   0.227E-03 0.128E-04
CGA:  38    -0.383139519591E+03   -0.11547E-04   -0.11543E-04  9152   0.122E-03-0.476E-06
CGA:  39    -0.383139536302E+03   -0.16711E-04   -0.16678E-04  9152   0.157E-03 0.590E-06
CGA:  40    -0.383139568301E+03   -0.31999E-04   -0.32171E-04  9152   0.798E-04-0.192E-05
CGA:  41    -0.383139576271E+03   -0.79705E-05   -0.79631E-05  9152   0.931E-04 0.147E-05
CGA:  42    -0.383139589296E+03   -0.13024E-04   -0.12942E-04  9152   0.477E-04 0.213E-05
CGA:  43    -0.383139597075E+03   -0.77799E-05   -0.77600E-05  9152   0.495E-04 0.329E-06
  19 F= -.38313960E+03 E0= -.38313219E+03  d E =0.637924E+00  mag=    46.0000
       N       E                     dE             d eps       ncg     rms          ort
SDA:   1    -0.348942548024E+03    0.34197E+02    0.00000E+00  9152   0.157E+03 0.000E+00
CGA:   2    -0.362607946809E+03   -0.13665E+02   -0.13637E+02  9152   0.129E+03-0.235E+01
CGA:   3    -0.372361257001E+03   -0.97533E+01   -0.93218E+01  9152   0.525E+02-0.854E+01
CGA:   4    -0.377007007273E+03   -0.46458E+01   -0.53748E+01  9152   0.138E+03-0.352E+02
CGA:   5    -0.377702595504E+03   -0.69559E+00   -0.60300E+01  9152   0.822E+02-0.462E+02
CGA:   6    -0.380212091463E+03   -0.25095E+01   -0.13834E+01  9152   0.327E+02 0.395E+02
CGA:   7    -0.380629241250E+03   -0.41715E+00   -0.97373E+00  9152   0.606E+02-0.708E+02
CGA:   8    -0.380577121662E+03    0.52120E-01   -0.19801E+01  9152   0.559E+02-0.379E+02
CGA:   9    -0.381551218953E+03   -0.97410E+00   -0.12115E+01  9152   0.213E+02-0.344E+02
CGA:  10    -0.381727628467E+03   -0.17641E+00   -0.57749E+00  9152   0.176E+02-0.112E+02
CGA:  11    -0.382044040551E+03   -0.31641E+00   -0.30224E+00  9152   0.373E+01-0.796E+00
CGA:  12    -0.383478337499E+03   -0.14343E+01   -0.11172E-01  9152   0.415E+01-0.652E+00
CGA:  13    -0.383585693204E+03   -0.10736E+00   -0.10657E+00  9152   0.194E+01-0.379E-02
CGA:  14    -0.383698660824E+03   -0.11297E+00   -0.10943E+00  9152   0.149E+01 0.249E-01
CGA:  15    -0.383793300531E+03   -0.94640E-01   -0.96792E-01  9152   0.143E+01-0.213E-01
CGA:  16    -0.383847078741E+03   -0.53778E-01   -0.63520E-01  9152   0.670E+00-0.178E+00
CGA:  17    -0.383870749373E+03   -0.23671E-01   -0.24380E-01  9152   0.189E+00-0.133E-01
CGA:  18    -0.383885556154E+03   -0.14807E-01   -0.15124E-01  9152   0.380E+00 0.573E-03
CGA:  19    -0.383910811944E+03   -0.25256E-01   -0.25618E-01  9152   0.941E-01-0.144E-02
CGA:  20    -0.383916532701E+03   -0.57208E-02   -0.58811E-02  9152   0.862E-01-0.964E-03
CGA:  21    -0.383923331292E+03   -0.67986E-02   -0.68273E-02  9152   0.826E-01 0.783E-04
CGA:  22    -0.383927851530E+03   -0.45202E-02   -0.46512E-02  9152   0.192E-01-0.112E-02
CGA:  23    -0.383929664563E+03   -0.18130E-02   -0.18193E-02  9152   0.318E-01 0.197E-03
CGA:  24    -0.383932238077E+03   -0.25735E-02   -0.25816E-02  9152   0.106E-01 0.443E-04
CGA:  25    -0.383932992136E+03   -0.75406E-03   -0.75512E-03  9152   0.811E-02 0.106E-04
CGA:  26    -0.383933874963E+03   -0.88283E-03   -0.88240E-03  9152   0.779E-02 0.598E-04
CGA:  27    -0.383934559146E+03   -0.68418E-03   -0.68572E-03  9152   0.609E-02 0.410E-04
CGA:  28    -0.383934920610E+03   -0.36146E-03   -0.36332E-03  9152   0.255E-02-0.294E-05
CGA:  29    -0.383935451597E+03   -0.53099E-03   -0.53103E-03  9152   0.376E-02-0.400E-06
CGA:  30    -0.383935638180E+03   -0.18658E-03   -0.18551E-03  9152   0.127E-02 0.355E-05
CGA:  31    -0.383935780147E+03   -0.14197E-03   -0.14198E-03  9152   0.187E-02-0.187E-05
CGA:  32    -0.383936020530E+03   -0.24038E-03   -0.24038E-03  9152   0.796E-03-0.318E-06
CGA:  33    -0.383936064400E+03   -0.43869E-04   -0.43837E-04  9152   0.606E-03-0.543E-06
CGA:  34    -0.383936176440E+03   -0.11204E-03   -0.11206E-03  9152   0.374E-03-0.363E-06
CGA:  35    -0.383936203095E+03   -0.26655E-04   -0.26639E-04  9152   0.301E-03-0.580E-06
CGA:  36    -0.383936239010E+03   -0.35915E-04   -0.35952E-04  9152   0.325E-03-0.233E-05
CGA:  37    -0.383936259730E+03   -0.20720E-04   -0.20707E-04  9152   0.134E-03-0.421E-06
CGA:  38    -0.383936272273E+03   -0.12543E-04   -0.12550E-04  9152   0.107E-03 0.611E-06
CGA:  39    -0.383936285172E+03   -0.12899E-04   -0.12871E-04  9152   0.121E-03 0.165E-05
CGA:  40    -0.383936293340E+03   -0.81682E-05   -0.82139E-05  9152   0.546E-04 0.124E-05
  20 F= -.38393629E+03 E0= -.38392889E+03  d E =-.796696E+00  mag=    46.0000
       N       E                     dE             d eps       ncg     rms          ort
SDA:   1    -0.383435196914E+03    0.50109E+00    0.00000E+00  9152   0.167E+01 0.000E+00
CGA:   2    -0.383665574629E+03   -0.23038E+00   -0.23099E+00  9152   0.258E+01-0.102E-01
CGA:   3    -0.383828195002E+03   -0.16262E+00   -0.16137E+00  9152   0.725E+00-0.164E-03
CGA:   4    -0.383895499390E+03   -0.67304E-01   -0.67113E-01  9152   0.705E+00-0.968E-02
CGA:   5    -0.383948793051E+03   -0.53294E-01   -0.53467E-01  9152   0.984E-01 0.138E-02
CGA:   6    -0.383960851198E+03   -0.12058E-01   -0.12120E-01  9152   0.944E-01-0.181E-02
CGA:   7    -0.383967108385E+03   -0.62572E-02   -0.63383E-02  9152   0.172E-01 0.119E-03
CGA:   8    -0.383968708789E+03   -0.16004E-02   -0.16010E-02  9152   0.204E-01 0.422E-04
CGA:   9    -0.383970259414E+03   -0.15506E-02   -0.15513E-02  9152   0.502E-02 0.994E-05
CGA:  10    -0.383970796990E+03   -0.53758E-03   -0.53778E-03  9152   0.284E-02-0.118E-04
CGA:  11    -0.383971128277E+03   -0.33129E-03   -0.33123E-03  9152   0.267E-02 0.247E-05
CGA:  12    -0.383971305124E+03   -0.17685E-03   -0.17704E-03  9152   0.750E-03-0.746E-06
CGA:  13    -0.383971381573E+03   -0.76450E-04   -0.76443E-04  9152   0.103E-02 0.798E-06
CGA:  14    -0.383971487119E+03   -0.10555E-03   -0.10556E-03  9152   0.253E-03-0.261E-05
CGA:  15    -0.383971516513E+03   -0.29395E-04   -0.29382E-04  9152   0.337E-03 0.367E-06
CGA:  16    -0.383971554313E+03   -0.37800E-04   -0.37810E-04  9152   0.173E-03-0.670E-06
CGA:  17    -0.383971564995E+03   -0.10683E-04   -0.10705E-04  9152   0.953E-04 0.669E-06
CGA:  18    -0.383971577134E+03   -0.12139E-04   -0.12109E-04  9152   0.787E-04 0.102E-05
CGA:  19    -0.383971586619E+03   -0.94848E-05   -0.94609E-05  9152   0.386E-04 0.117E-05
  21 F= -.38397159E+03 E0= -.38396424E+03  d E =-.352933E-01  mag=    46.0000
       N       E                     dE             d eps       ncg     rms          ort
SDA:   1    -0.380336850307E+03    0.36347E+01    0.00000E+00  9152   0.118E+02 0.000E+00
CGA:   2    -0.381752757110E+03   -0.14159E+01   -0.13929E+01  9152   0.151E+02 0.822E+00
CGA:   3    -0.383105945188E+03   -0.13532E+01   -0.13239E+01  9152   0.523E+01-0.494E+00
CGA:   4    -0.383511231374E+03   -0.40529E+00   -0.39734E+00  9152   0.418E+01-0.964E-01
CGA:   5    -0.383848858547E+03   -0.33763E+00   -0.33675E+00  9152   0.893E+00-0.139E-01
CGA:   6    -0.383919667764E+03   -0.70809E-01   -0.70700E-01  9152   0.532E+00-0.186E-02
CGA:   7    -0.383971359207E+03   -0.51691E-01   -0.51675E-01  9152   0.171E+00 0.509E-02
CGA:   8    -0.383984230479E+03   -0.12871E-01   -0.12702E-01  9152   0.963E-01-0.146E-02
CGA:   9    -0.383992437329E+03   -0.82069E-02   -0.82047E-02  9152   0.646E-01-0.792E-04
CGA:  10    -0.383997439555E+03   -0.50022E-02   -0.50261E-02  9152   0.263E-01 0.436E-03
CGA:  11    -0.383999494145E+03   -0.20546E-02   -0.20578E-02  9152   0.133E-01 0.622E-04
CGA:  12    -0.384001401650E+03   -0.19075E-02   -0.19030E-02  9152   0.903E-02 0.741E-04
CGA:  13    -0.384001993264E+03   -0.59161E-03   -0.59154E-03  9152   0.416E-02 0.133E-05
CGA:  14    -0.384002513826E+03   -0.52056E-03   -0.52027E-03  9152   0.542E-02 0.633E-05
CGA:  15    -0.384002909700E+03   -0.39587E-03   -0.39689E-03  9152   0.150E-02 0.986E-05
CGA:  16    -0.384003102712E+03   -0.19301E-03   -0.19311E-03  9152   0.189E-02-0.248E-05
CGA:  17    -0.384003295739E+03   -0.19303E-03   -0.19297E-03  9152   0.826E-03 0.572E-05
CGA:  18    -0.384003355793E+03   -0.60054E-04   -0.60088E-04  9152   0.587E-03 0.753E-06
CGA:  19    -0.384003421409E+03   -0.65616E-04   -0.65552E-04  9152   0.480E-03 0.376E-05
CGA:  20    -0.384003467476E+03   -0.46067E-04   -0.46068E-04  9152   0.214E-03 0.250E-05
CGA:  21    -0.384003486690E+03   -0.19214E-04   -0.19224E-04  9152   0.158E-03 0.153E-05
CGA:  22    -0.384003508629E+03   -0.21938E-04   -0.21898E-04  9152   0.196E-03 0.914E-06
CGA:  23    -0.384003521347E+03   -0.12718E-04   -0.12750E-04  9152   0.640E-04 0.751E-06
CGA:  24    -0.384003530990E+03   -0.96430E-05   -0.96677E-05  9152   0.977E-04-0.485E-06
  22 F= -.38400353E+03 E0= -.38399631E+03  d E =-.319444E-01  mag=    46.0000
       N       E                     dE             d eps       ncg     rms          ort
SDA:   1    -0.382556390353E+03    0.14471E+01    0.00000E+00  9152   0.485E+01 0.000E+00
CGA:   2    -0.383054991217E+03   -0.49860E+00   -0.49896E+00  9152   0.626E+01-0.429E-01
CGA:   3    -0.383753714470E+03   -0.69872E+00   -0.69960E+00  9152   0.135E+01-0.377E-01
CGA:   4    -0.383877307200E+03   -0.12359E+00   -0.12349E+00  9152   0.153E+01-0.517E-02
CGA:   5    -0.383977179580E+03   -0.99872E-01   -0.10081E+00  9152   0.240E+00 0.969E-03
CGA:   6    -0.384000141774E+03   -0.22962E-01   -0.22924E-01  9152   0.148E+00-0.928E-02
CGA:   7    -0.384013957161E+03   -0.13815E-01   -0.13817E-01  9152   0.381E-01 0.241E-02
CGA:   8    -0.384017681378E+03   -0.37242E-02   -0.37246E-02  9152   0.265E-01 0.128E-03
CGA:   9    -0.384019555013E+03   -0.18736E-02   -0.18768E-02  9152   0.171E-01 0.178E-04
CGA:  10    -0.384021044743E+03   -0.14897E-02   -0.14880E-02  9152   0.334E-02-0.759E-04
CGA:  11    -0.384021625221E+03   -0.58048E-03   -0.57970E-03  9152   0.494E-02 0.946E-05
CGA:  12    -0.384021937400E+03   -0.31218E-03   -0.31222E-03  9152   0.131E-02-0.606E-06
CGA:  13    -0.384022062195E+03   -0.12480E-03   -0.12481E-03  9152   0.154E-02 0.304E-05
CGA:  14    -0.384022253898E+03   -0.19170E-03   -0.19184E-03  9152   0.866E-03-0.390E-05
CGA:  15    -0.384022322780E+03   -0.68882E-04   -0.68996E-04  9152   0.465E-03 0.210E-05
CGA:  16    -0.384022383570E+03   -0.60789E-04   -0.60779E-04  9152   0.518E-03 0.416E-06
CGA:  17    -0.384022426607E+03   -0.43038E-04   -0.43065E-04  9152   0.314E-03 0.178E-05
CGA:  18    -0.384022448200E+03   -0.21593E-04   -0.21602E-04  9152   0.981E-04 0.555E-06
CGA:  19    -0.384022472165E+03   -0.23964E-04   -0.23776E-04  9152   0.108E-03 0.130E-05
CGA:  20    -0.384022477681E+03   -0.55160E-05   -0.55174E-05  9152   0.413E-04 0.359E-07
  23 F= -.38402248E+03 E0= -.38401537E+03  d E =-.189467E-01  mag=    46.0000
       N       E                     dE             d eps       ncg     rms          ort
SDA:   1    -0.333647578131E+03    0.50375E+02    0.00000E+00  9152   0.165E+03 0.000E+00
CGA:   2    -0.352187372302E+03   -0.18540E+02   -0.19010E+02  9152   0.251E+03-0.211E+02
CGA:   3    -0.369391050232E+03   -0.17204E+02   -0.13890E+02  9152   0.868E+02-0.716E+01
CGA:   4    -0.375469218780E+03   -0.60782E+01   -0.51929E+01  9152   0.486E+02 0.557E+01
CGA:   5    -0.380976103993E+03   -0.55069E+01   -0.55088E+01  9152   0.210E+02-0.279E+00
CGA:   6    -0.381752604076E+03   -0.77650E+00   -0.82342E+00  9152   0.244E+02-0.270E+01
CGA:   7    -0.382530257559E+03   -0.77765E+00   -0.68963E+00  9152   0.103E+02 0.109E+01
CGA:   8    -0.382787332478E+03   -0.25707E+00   -0.35269E+00  9152   0.146E+02-0.255E+01
CGA:   9    -0.383106264670E+03   -0.31893E+00   -0.38195E+00  9152   0.999E+01-0.119E+01
CGA:  10    -0.383264020241E+03   -0.15776E+00   -0.25471E+00  9152   0.703E+01-0.240E+01
CGA:  11    -0.383435703846E+03   -0.17168E+00   -0.14530E+00  9152   0.218E+01 0.646E+00
CGA:  12    -0.383490065214E+03   -0.54361E-01   -0.55650E-01  9152   0.153E+01-0.574E-01
CGA:  13    -0.383600351654E+03   -0.11029E+00   -0.10969E+00  9152   0.267E+01-0.357E-01
CGA:  14    -0.383662355837E+03   -0.62004E-01   -0.70627E-01  9152   0.172E+01-0.227E+00
CGA:  15    -0.383713139067E+03   -0.50783E-01   -0.57898E-01  9152   0.890E+00-0.909E-01
CGA:  16    -0.383738291292E+03   -0.25152E-01   -0.30838E-01  9152   0.420E+00-0.726E-01
CGA:  17    -0.383762283323E+03   -0.23992E-01   -0.24112E-01  9152   0.286E+00 0.354E-02
CGA:  18    -0.383791851215E+03   -0.29568E-01   -0.29696E-01  9152   0.366E+00-0.319E-02
CGA:  19    -0.383806943819E+03   -0.15093E-01   -0.15478E-01  9152   0.895E-01-0.199E-02
CGA:  20    -0.383813754624E+03   -0.68108E-02   -0.67851E-02  9152   0.735E-01 0.418E-02
CGA:  21    -0.383820255443E+03   -0.65008E-02   -0.64797E-02  9152   0.668E-01 0.121E-02
CGA:  22    -0.383824449762E+03   -0.41943E-02   -0.42029E-02  9152   0.236E-01 0.248E-03
CGA:  23    -0.383827043307E+03   -0.25935E-02   -0.25928E-02  9152   0.243E-01 0.173E-04
CGA:  24    -0.383828740373E+03   -0.16971E-02   -0.16972E-02  9152   0.171E-01 0.607E-05
CGA:  25    -0.383829980319E+03   -0.12399E-02   -0.12405E-02  9152   0.742E-02 0.133E-03
CGA:  26    -0.383830766182E+03   -0.78586E-03   -0.78515E-03  9152   0.849E-02 0.173E-04
CGA:  27    -0.383831553456E+03   -0.78727E-03   -0.78848E-03  9152   0.924E-02-0.509E-04
CGA:  28    -0.383832132467E+03   -0.57901E-03   -0.57967E-03  9152   0.233E-02 0.141E-04
CGA:  29    -0.383832469619E+03   -0.33715E-03   -0.33541E-03  9152   0.500E-02 0.249E-04
CGA:  30    -0.383832836425E+03   -0.36681E-03   -0.36677E-03  9152   0.272E-02 0.186E-06
CGA:  31    -0.383833057242E+03   -0.22082E-03   -0.22083E-03  9152   0.143E-02-0.378E-05
SDA:  32    -0.383833225333E+03   -0.16809E-03   -0.16819E-03  9152   0.194E-02-0.263E-05
CGA:  33    -0.383833315798E+03   -0.90465E-04   -0.90495E-04  9152   0.818E-03-0.286E-05
CGA:  34    -0.383833397791E+03   -0.81993E-04   -0.81984E-04  9152   0.695E-03-0.639E-06
CGA:  35    -0.383833517275E+03   -0.11948E-03   -0.12008E-03  9152   0.302E-03-0.648E-05
CGA:  36    -0.383833548948E+03   -0.31673E-04   -0.31625E-04  9152   0.255E-03 0.217E-05
CGA:  37    -0.383833596510E+03   -0.47562E-04   -0.46996E-04  9152   0.242E-03 0.583E-05
CGA:  38    -0.383833613721E+03   -0.17211E-04   -0.17230E-04  9152   0.225E-03 0.104E-05
CGA:  39    -0.383833645940E+03   -0.32219E-04   -0.32164E-04  9152   0.276E-03 0.103E-05
CGA:  40    -0.383833675040E+03   -0.29100E-04   -0.29110E-04  9152   0.103E-03-0.898E-06
CGA:  41    -0.383833702534E+03   -0.27495E-04   -0.27754E-04  9152   0.189E-03-0.147E-05
CGA:  42    -0.383833710444E+03   -0.79100E-05   -0.79192E-05  9152   0.474E-04 0.158E-06
CGA:  43    -0.383833723608E+03   -0.13163E-04   -0.12883E-04  9152   0.413E-04 0.163E-05
CGA:  44    -0.383833726820E+03   -0.32123E-05   -0.32234E-05  9152   0.255E-04 0.339E-06
  24 F= -.38383373E+03 E0= -.38382726E+03  d E =0.188751E+00  mag=    46.0000
       N       E                     dE             d eps       ncg     rms          ort
SDA:   1    -0.367496909718E+03    0.16337E+02    0.00000E+00  9152   0.786E+02 0.000E+00
CGA:   2    -0.373311307243E+03   -0.58144E+01   -0.49683E+01  9152   0.604E+02-0.667E+01
CGA:   3    -0.378316335978E+03   -0.50050E+01   -0.47738E+01  9152   0.365E+02-0.230E+01
CGA:   4    -0.380030978144E+03   -0.17146E+01   -0.20623E+01  9152   0.386E+02-0.396E+01
CGA:   5    -0.382099172778E+03   -0.20682E+01   -0.16665E+01  9152   0.969E+01 0.620E+01
CGA:   6    -0.382758080346E+03   -0.65891E+00   -0.58288E+00  9152   0.161E+02 0.446E+00
CGA:   7    -0.383439669500E+03   -0.68159E+00   -0.62322E+00  9152   0.115E+02 0.794E+00
CGA:   8    -0.383635445453E+03   -0.19578E+00   -0.28039E+00  9152   0.504E+01-0.333E+01
CGA:   9    -0.383770521234E+03   -0.13508E+00   -0.16873E+00  9152   0.428E+01-0.248E+00
CGA:  10    -0.383874798913E+03   -0.10428E+00   -0.98209E-01  9152   0.148E+01 0.163E+00
CGA:  11    -0.383976192181E+03   -0.10139E+00   -0.96072E-01  9152   0.214E+01-0.299E-01
CGA:  12    -0.384032306835E+03   -0.56115E-01   -0.62726E-01  9152   0.145E+01-0.163E+00
CGA:  13    -0.384078679334E+03   -0.46372E-01   -0.50985E-01  9152   0.114E+01-0.569E-01
CGA:  14    -0.384109109726E+03   -0.30430E-01   -0.32571E-01  9152   0.249E+00-0.564E-01
CGA:  15    -0.384122422796E+03   -0.13313E-01   -0.13438E-01  9152   0.453E+00 0.851E-03
CGA:  16    -0.384154114760E+03   -0.31692E-01   -0.31774E-01  9152   0.232E+00 0.717E-02
CGA:  17    -0.384162100309E+03   -0.79855E-02   -0.82279E-02  9152   0.980E-01-0.356E-02
CGA:  18    -0.384167762710E+03   -0.56624E-02   -0.57073E-02  9152   0.782E-01 0.912E-03
CGA:  19    -0.384175156172E+03   -0.73935E-02   -0.73061E-02  9152   0.866E-01 0.302E-02
CGA:  20    -0.384178802693E+03   -0.36465E-02   -0.37100E-02  9152   0.182E-01-0.488E-03
CGA:  21    -0.384180913828E+03   -0.21111E-02   -0.21011E-02  9152   0.246E-01 0.196E-03
CGA:  22    -0.384182695825E+03   -0.17820E-02   -0.17834E-02  9152   0.196E-01 0.336E-03
CGA:  23    -0.384183850125E+03   -0.11543E-02   -0.11594E-02  9152   0.425E-02 0.832E-04
CGA:  24    -0.384184550572E+03   -0.70045E-03   -0.69569E-03  9152   0.105E-01 0.548E-04
CGA:  25    -0.384185160075E+03   -0.60950E-03   -0.61139E-03  9152   0.278E-02 0.186E-04
CGA:  26    -0.384185415074E+03   -0.25500E-03   -0.25468E-03  9152   0.196E-02 0.144E-04
CGA:  27    -0.384185666719E+03   -0.25164E-03   -0.25129E-03  9152   0.307E-02 0.575E-05
CGA:  28    -0.384185858561E+03   -0.19184E-03   -0.19190E-03  9152   0.126E-02-0.327E-05
CGA:  29    -0.384185984455E+03   -0.12589E-03   -0.12574E-03  9152   0.105E-02 0.509E-05
CGA:  30    -0.384186139497E+03   -0.15504E-03   -0.15490E-03  9152   0.133E-02 0.193E-05
CGA:  31    -0.384186203184E+03   -0.63687E-04   -0.63664E-04  9152   0.438E-03-0.688E-06
SDA:  32    -0.384186290884E+03   -0.87700E-04   -0.87567E-04  9152   0.612E-03 0.113E-05
CGA:  33    -0.384186325522E+03   -0.34638E-04   -0.34711E-04  9152   0.197E-03-0.549E-06
CGA:  34    -0.384186346624E+03   -0.21102E-04   -0.21119E-04  9152   0.344E-03-0.875E-06
CGA:  35    -0.384186388553E+03   -0.41929E-04   -0.41948E-04  9152   0.157E-03-0.571E-06
CGA:  36    -0.384186401276E+03   -0.12723E-04   -0.12728E-04  9152   0.687E-04 0.491E-06
CGA:  37    -0.384186418488E+03   -0.17211E-04   -0.16697E-04  9152   0.811E-04 0.334E-05
CGA:  38    -0.384186429828E+03   -0.11340E-04   -0.11296E-04  9152   0.732E-04 0.115E-05
CGA:  39    -0.384186437609E+03   -0.77814E-05   -0.77848E-05  9152   0.131E-03-0.513E-06
CGA:  40    -0.384186451635E+03   -0.14026E-04   -0.14037E-04  9152   0.258E-04-0.110E-05
CGA:  41    -0.384186460113E+03   -0.84775E-05   -0.85361E-05  9152   0.385E-04-0.253E-06
  25 F= -.38418646E+03 E0= -.38417999E+03  d E =-.352733E+00  mag=    46.0000
       N       E                     dE             d eps       ncg     rms          ort
SDA:   1    -0.383924687105E+03    0.26176E+00    0.00000E+00  9152   0.821E+00 0.000E+00
CGA:   2    -0.384061229688E+03   -0.13654E+00   -0.13805E+00  9152   0.110E+01-0.215E-01
CGA:   3    -0.384147280581E+03   -0.86051E-01   -0.87377E-01  9152   0.242E+00 0.617E-02
CGA:   4    -0.384189344526E+03   -0.42064E-01   -0.42073E-01  9152   0.101E+00-0.128E-03
CGA:   5    -0.384194624989E+03   -0.52805E-02   -0.53359E-02  9152   0.552E-01-0.598E-03
CGA:   6    -0.384200112356E+03   -0.54874E-02   -0.54895E-02  9152   0.208E-01 0.910E-04
CGA:   7    -0.384201583620E+03   -0.14713E-02   -0.14658E-02  9152   0.658E-02 0.141E-04
CGA:   8    -0.384202490670E+03   -0.90705E-03   -0.90713E-03  9152   0.631E-02-0.199E-05
CGA:   9    -0.384202829727E+03   -0.33906E-03   -0.33945E-03  9152   0.193E-02-0.756E-05
CGA:  10    -0.384202999098E+03   -0.16937E-03   -0.16949E-03  9152   0.132E-02 0.205E-05
CGA:  11    -0.384203181564E+03   -0.18247E-03   -0.18258E-03  9152   0.456E-03-0.297E-05
CGA:  12    -0.384203214621E+03   -0.33057E-04   -0.33069E-04  9152   0.501E-03 0.572E-06
CGA:  13    -0.384203285069E+03   -0.70447E-04   -0.70442E-04  9152   0.189E-03 0.198E-06
CGA:  14    -0.384203305257E+03   -0.20188E-04   -0.20189E-04  9152   0.185E-03 0.179E-06
CGA:  15    -0.384203322243E+03   -0.16986E-04   -0.16979E-04  9152   0.186E-03-0.500E-06
CGA:  16    -0.384203338424E+03   -0.16181E-04   -0.16184E-04  9152   0.430E-04 0.902E-08
CGA:  17    -0.384203345220E+03   -0.67956E-05   -0.68056E-05  9152   0.753E-04-0.188E-06
  26 F= -.38420335E+03 E0= -.38419692E+03  d E =-.168851E-01  mag=    46.0000
       N       E                     dE             d eps       ncg     rms          ort
SDA:   1    -0.376735986410E+03    0.74674E+01    0.00000E+00  9152   0.214E+02 0.000E+00
CGA:   2    -0.380335389563E+03   -0.35994E+01   -0.35674E+01  9152   0.338E+02 0.391E+00
CGA:   3    -0.382493043032E+03   -0.21577E+01   -0.16848E+01  9152   0.866E+01 0.831E+01
CGA:   4    -0.383211226430E+03   -0.71818E+00   -0.73955E+00  9152   0.752E+01 0.287E-01
CGA:   5    -0.383658421706E+03   -0.44720E+00   -0.45764E+00  9152   0.770E+01-0.141E+00
CGA:   6    -0.384075221660E+03   -0.41680E+00   -0.37203E+00  9152   0.939E+00 0.532E+00
CGA:   7    -0.384121888629E+03   -0.46667E-01   -0.46461E-01  9152   0.977E+00 0.259E-03
CGA:   8    -0.384203187080E+03   -0.81298E-01   -0.81409E-01  9152   0.411E+00 0.289E-02
CGA:   9    -0.384219517508E+03   -0.16330E-01   -0.17074E-01  9152   0.235E+00-0.113E-01
CGA:  10    -0.384231883690E+03   -0.12366E-01   -0.12293E-01  9152   0.116E+00 0.441E-03
CGA:  11    -0.384243148308E+03   -0.11265E-01   -0.11248E-01  9152   0.126E+00 0.177E-02
CGA:  12    -0.384248485036E+03   -0.53367E-02   -0.55472E-02  9152   0.368E-01-0.246E-02
CGA:  13    -0.384251281178E+03   -0.27961E-02   -0.27982E-02  9152   0.175E-01 0.612E-04
CGA:  14    -0.384253750279E+03   -0.24691E-02   -0.24654E-02  9152   0.313E-01 0.621E-04
CGA:  15    -0.384255281969E+03   -0.15317E-02   -0.15767E-02  9152   0.820E-02-0.292E-03
CGA:  16    -0.384255962236E+03   -0.68027E-03   -0.68132E-03  9152   0.521E-02 0.878E-04
CGA:  17    -0.384257051684E+03   -0.10894E-02   -0.10908E-02  9152   0.527E-02-0.126E-04
CGA:  18    -0.384257276154E+03   -0.22447E-03   -0.22610E-03  9152   0.193E-02-0.160E-04
CGA:  19    -0.384257554365E+03   -0.27821E-03   -0.27759E-03  9152   0.171E-02 0.106E-04
CGA:  20    -0.384257784821E+03   -0.23046E-03   -0.23038E-03  9152   0.795E-03 0.152E-05
CGA:  21    -0.384257846051E+03   -0.61230E-04   -0.61257E-04  9152   0.846E-03 0.889E-06
CGA:  22    -0.384257921604E+03   -0.75553E-04   -0.75552E-04  9152   0.515E-03-0.103E-06
CGA:  23    -0.384257983208E+03   -0.61604E-04   -0.61546E-04  9152   0.213E-03 0.195E-05
CGA:  24    -0.384258028405E+03   -0.45196E-04   -0.45062E-04  9152   0.316E-03 0.120E-05
CGA:  25    -0.384258045768E+03   -0.17363E-04   -0.17353E-04  9152   0.141E-03-0.973E-07
CGA:  26    -0.384258058912E+03   -0.13145E-04   -0.13148E-04  9152   0.109E-03 0.347E-06
CGA:  27    -0.384258077579E+03   -0.18666E-04   -0.18709E-04  9152   0.530E-04-0.602E-06
CGA:  28    -0.384258083827E+03   -0.62476E-05   -0.62528E-05  9152   0.309E-04-0.315E-06
  27 F= -.38425808E+03 E0= -.38425196E+03  d E =-.547386E-01  mag=    46.0000
       N       E                     dE             d eps       ncg     rms          ort
SDA:   1    -0.346907895894E+03    0.37350E+02    0.00000E+00  9152   0.109E+03 0.000E+00
CGA:   2    -0.367146398946E+03   -0.20239E+02   -0.19302E+02  9152   0.129E+03 0.301E+01
CGA:   3    -0.375396770048E+03   -0.82504E+01   -0.85626E+01  9152   0.110E+03-0.683E+02
CGA:   4    -0.377178302405E+03   -0.17815E+01   -0.58067E+01  9152   0.420E+02-0.133E+02
CGA:   5    -0.380547132530E+03   -0.33688E+01   -0.15532E+01  9152   0.781E+01 0.120E+02
CGA:   6    -0.380950669668E+03   -0.40354E+00   -0.38354E+00  9152   0.273E+02-0.122E+00
CGA:   7    -0.381615723682E+03   -0.66505E+00   -0.89177E+00  9152   0.919E+02-0.592E+01
CGA:   8    -0.382386748378E+03   -0.77102E+00   -0.74668E+00  9152   0.722E+02 0.624E+01
CGA:   9    -0.382423268987E+03   -0.36521E-01   -0.10035E+01  9152   0.200E+02-0.799E+02
CGA:  10    -0.382944558695E+03   -0.52129E+00   -0.50894E+00  9152   0.183E+02-0.854E+00
[...]
CGA:  31    -0.384310525246E+03   -0.36221E-04   -0.36224E-04  9152   0.939E-03 0.234E-05
SDA:  32    -0.384310559141E+03   -0.33895E-04   -0.33909E-04  9152   0.280E-03 0.430E-06
CGA:  33    -0.384310574180E+03   -0.15039E-04   -0.15034E-04  9152   0.250E-03-0.167E-05
CGA:  34    -0.384310593553E+03   -0.19373E-04   -0.19399E-04  9152   0.160E-03-0.119E-05
CGA:  35    -0.384310619198E+03   -0.25645E-04   -0.25820E-04  9152   0.535E-04-0.168E-05
CGA:  36    -0.384310635114E+03   -0.15916E-04   -0.16136E-04  9152   0.376E-04-0.904E-06
CGA:  37    -0.384310638903E+03   -0.37892E-05   -0.38054E-05  9152   0.935E-04-0.562E-06
 127 F= -.38431064E+03 E0= -.38430509E+03  d E =-.476105E-01  mag=    46.0000
       N       E                     dE             d eps       ncg     rms          ort
SDA:   1    -0.382854908196E+03    0.14557E+01    0.00000E+00  9152   0.439E+01 0.000E+00
CGA:   2    -0.383677411027E+03   -0.82250E+00   -0.81426E+00  9152   0.411E+01 0.876E-01
CGA:   3    -0.383948064681E+03   -0.27065E+00   -0.26572E+00  9152   0.405E+01-0.976E-01
CGA:   4    -0.384146785609E+03   -0.19872E+00   -0.19900E+00  9152   0.102E+01-0.852E-02
CGA:   5    -0.384273526535E+03   -0.12674E+00   -0.12608E+00  9152   0.521E+00 0.126E-01
CGA:   6    -0.384292195837E+03   -0.18669E-01   -0.17849E-01  9152   0.196E+00 0.135E-01
CGA:   7    -0.384314950523E+03   -0.22755E-01   -0.22833E-01  9152   0.712E-01-0.183E-02
CGA:   8    -0.384320864629E+03   -0.59141E-02   -0.59114E-02  9152   0.728E-01 0.513E-03
CGA:   9    -0.384323743374E+03   -0.28787E-02   -0.28707E-02  9152   0.171E-01 0.804E-04
CGA:  10    -0.384326446763E+03   -0.27034E-02   -0.27075E-02  9152   0.814E-02-0.521E-04
CGA:  11    -0.384327107171E+03   -0.66041E-03   -0.66044E-03  9152   0.962E-02 0.117E-04
CGA:  12    -0.384327556994E+03   -0.44982E-03   -0.44913E-03  9152   0.284E-02 0.695E-05
CGA:  13    -0.384328095535E+03   -0.53854E-03   -0.53819E-03  9152   0.142E-02 0.294E-05
CGA:  14    -0.384328254459E+03   -0.15892E-03   -0.15873E-03  9152   0.226E-02 0.692E-05
CGA:  15    -0.384328367785E+03   -0.11333E-03   -0.11330E-03  9152   0.113E-02 0.113E-05
CGA:  16    -0.384328529999E+03   -0.16221E-03   -0.16224E-03  9152   0.381E-03-0.361E-06
CGA:  17    -0.384328609463E+03   -0.79463E-04   -0.79331E-04  9152   0.379E-03 0.115E-05
CGA:  18    -0.384328634238E+03   -0.24775E-04   -0.24742E-04  9152   0.422E-03-0.846E-06
CGA:  19    -0.384328661909E+03   -0.27671E-04   -0.27669E-04  9152   0.127E-03-0.115E-06
CGA:  20    -0.384328683898E+03   -0.21989E-04   -0.21944E-04  9152   0.687E-04 0.549E-06
CGA:  21    -0.384328694871E+03   -0.10973E-04   -0.11000E-04  9152   0.124E-03-0.422E-06
CGA:  22    -0.384328699855E+03   -0.49835E-05   -0.49965E-05  9152   0.415E-04 0.113E-06
 128 F= -.38432870E+03 E0= -.38432317E+03  d E =-.180610E-01  mag=    46.0000
       N       E                     dE             d eps       ncg     rms          ort
SDA:   1    -0.384024535521E+03    0.30416E+00    0.00000E+00  9152   0.942E+00 0.000E+00
CGA:   2    -0.384184451862E+03   -0.15992E+00   -0.15874E+00  9152   0.139E+01 0.158E-01
CGA:   3    -0.384246296125E+03   -0.61844E-01   -0.58965E-01  9152   0.573E+00 0.296E-01
CGA:   4    -0.384299828786E+03   -0.53533E-01   -0.53460E-01  9152   0.224E+00-0.392E-02
CGA:   5    -0.384328499823E+03   -0.28671E-01   -0.28616E-01  9152   0.408E-01 0.133E-02
CGA:   6    -0.384334242801E+03   -0.57430E-02   -0.57366E-02  9152   0.495E-01 0.127E-03
CGA:   7    -0.384335967752E+03   -0.17250E-02   -0.17020E-02  9152   0.996E-02 0.474E-03
CGA:   8    -0.384337300053E+03   -0.13323E-02   -0.13329E-02  9152   0.419E-02-0.131E-04
CGA:   9    -0.384337897205E+03   -0.59715E-03   -0.59752E-03  9152   0.166E-02-0.775E-05
CGA:  10    -0.384338123528E+03   -0.22632E-03   -0.22620E-03  9152   0.979E-03 0.294E-05
CGA:  11    -0.384338199642E+03   -0.76114E-04   -0.76040E-04  9152   0.146E-02-0.109E-05
CGA:  12    -0.384338294594E+03   -0.94952E-04   -0.94971E-04  9152   0.281E-03 0.753E-06
CGA:  13    -0.384338362359E+03   -0.67765E-04   -0.67532E-04  9152   0.216E-03 0.168E-05
CGA:  14    -0.384338389208E+03   -0.26849E-04   -0.26852E-04  9152   0.232E-03-0.123E-06
CGA:  15    -0.384338400345E+03   -0.11137E-04   -0.11100E-04  9152   0.151E-03-0.278E-06
CGA:  16    -0.384338417389E+03   -0.17044E-04   -0.17042E-04  9152   0.522E-04 0.289E-06
CGA:  17    -0.384338428183E+03   -0.10794E-04   -0.10798E-04  9152   0.270E-04-0.392E-07
CGA:  18    -0.384338431183E+03   -0.30006E-05   -0.30006E-05  9152   0.493E-04 0.270E-06
 129 F= -.38433843E+03 E0= -.38433288E+03  d E =-.973133E-02  mag=    46.0000
       N       E                     dE             d eps       ncg     rms          ort
SDA:   1    -0.380894963361E+03    0.34435E+01    0.00000E+00  9152   0.992E+01 0.000E+00
CGA:   2    -0.382805674361E+03   -0.19107E+01   -0.18703E+01  9152   0.103E+02 0.496E+00
CGA:   3    -0.383569702072E+03   -0.76403E+00   -0.77234E+00  9152   0.102E+02-0.483E+00
CGA:   4    -0.383986205852E+03   -0.41650E+00   -0.40998E+00  9152   0.210E+01-0.172E+00
CGA:   5    -0.384212358188E+03   -0.22615E+00   -0.22597E+00  9152   0.236E+01 0.346E-01
CGA:   6    -0.384293906075E+03   -0.81548E-01   -0.72885E-01  9152   0.362E+00 0.188E+00
CGA:   7    -0.384330372820E+03   -0.36467E-01   -0.36438E-01  9152   0.439E+00-0.117E-02
CGA:   8    -0.384344692329E+03   -0.14320E-01   -0.15054E-01  9152   0.157E+00-0.163E-01
CGA:   9    -0.384358471030E+03   -0.13779E-01   -0.13797E-01  9152   0.111E+00 0.970E-03
CGA:  10    -0.384361838606E+03   -0.33676E-02   -0.32728E-02  9152   0.321E-01 0.244E-02
CGA:  11    -0.384365650348E+03   -0.38117E-02   -0.38137E-02  9152   0.368E-01-0.676E-04
CGA:  12    -0.384366919006E+03   -0.12687E-02   -0.12890E-02  9152   0.172E-01-0.419E-03
CGA:  13    -0.384368468861E+03   -0.15499E-02   -0.15505E-02  9152   0.815E-02 0.129E-03
CGA:  14    -0.384368762034E+03   -0.29317E-03   -0.29184E-03  9152   0.494E-02 0.244E-04
CGA:  15    -0.384369467629E+03   -0.70559E-03   -0.70473E-03  9152   0.481E-02 0.154E-04
CGA:  16    -0.384369696208E+03   -0.22858E-03   -0.22959E-03  9152   0.437E-02-0.192E-05
CGA:  17    -0.384370021647E+03   -0.32544E-03   -0.32592E-03  9152   0.155E-02 0.127E-04
CGA:  18    -0.384370147139E+03   -0.12549E-03   -0.12547E-03  9152   0.310E-02-0.135E-05
CGA:  19    -0.384370349223E+03   -0.20208E-03   -0.20227E-03  9152   0.112E-02 0.154E-05
CGA:  20    -0.384370455481E+03   -0.10626E-03   -0.10623E-03  9152   0.176E-02 0.300E-05
CGA:  21    -0.384370523395E+03   -0.67914E-04   -0.67906E-04  9152   0.376E-03 0.113E-05
CGA:  22    -0.384370578678E+03   -0.55283E-04   -0.55191E-04  9152   0.899E-03 0.151E-05
CGA:  23    -0.384370613894E+03   -0.35216E-04   -0.35366E-04  9152   0.293E-03 0.141E-05
CGA:  24    -0.384370644482E+03   -0.30588E-04   -0.30557E-04  9152   0.221E-03 0.172E-05
CGA:  25    -0.384370653384E+03   -0.89023E-05   -0.88819E-05  9152   0.153E-03-0.230E-06
CGA:  26    -0.384370678317E+03   -0.24933E-04   -0.25045E-04  9152   0.123E-03-0.143E-05
CGA:  27    -0.384370683569E+03   -0.52523E-05   -0.52582E-05  9152   0.964E-04 0.298E-07
 130 F= -.38437068E+03 E0= -.38436505E+03  d E =-.322524E-01  mag=    46.0000
       N       E                     dE             d eps       ncg     rms          ort
SDA:   1    -0.381337187541E+03    0.30335E+01    0.00000E+00  9152   0.947E+01 0.000E+00
CGA:   2    -0.382888975860E+03   -0.15518E+01   -0.15145E+01  9152   0.794E+01 0.523E+00
CGA:   3    -0.383795729140E+03   -0.90675E+00   -0.91486E+00  9152   0.714E+01-0.279E+00
CGA:   4    -0.384033637973E+03   -0.23791E+00   -0.26262E+00  9152   0.260E+01-0.783E+00
CGA:   5    -0.384270869066E+03   -0.23723E+00   -0.23995E+00  9152   0.846E+00-0.127E+00
CGA:   6    -0.384342001472E+03   -0.71132E-01   -0.71278E-01  9152   0.353E+00 0.550E-01
CGA:   7    -0.384358415460E+03   -0.16414E-01   -0.16932E-01  9152   0.226E+00-0.601E-02
CGA:   8    -0.384377764795E+03   -0.19349E-01   -0.19348E-01  9152   0.879E-01-0.264E-02
CGA:   9    -0.384384178253E+03   -0.64135E-02   -0.64235E-02  9152   0.481E-01 0.249E-03
CGA:  10    -0.384386493591E+03   -0.23153E-02   -0.23120E-02  9152   0.278E-01 0.155E-04
CGA:  11    -0.384389805866E+03   -0.33123E-02   -0.32681E-02  9152   0.108E-01 0.101E-02
CGA:  12    -0.384390404572E+03   -0.59871E-03   -0.59647E-03  9152   0.886E-02 0.435E-05
CGA:  13    -0.384391166564E+03   -0.76199E-03   -0.76195E-03  9152   0.361E-02 0.240E-04
CGA:  14    -0.384391559004E+03   -0.39244E-03   -0.39158E-03  9152   0.513E-02 0.270E-04
CGA:  15    -0.384391825750E+03   -0.26675E-03   -0.27002E-03  9152   0.186E-02-0.570E-05
CGA:  16    -0.384392009749E+03   -0.18400E-03   -0.18392E-03  9152   0.154E-02 0.363E-05
CGA:  17    -0.384392113314E+03   -0.10356E-03   -0.10367E-03  9152   0.155E-02 0.277E-05
CGA:  18    -0.384392257364E+03   -0.14405E-03   -0.14405E-03  9152   0.554E-03 0.506E-06
CGA:  19    -0.384392293957E+03   -0.36593E-04   -0.36643E-04  9152   0.609E-03 0.163E-05
CGA:  20    -0.384392349044E+03   -0.55087E-04   -0.55078E-04  9152   0.279E-03 0.117E-05
CGA:  21    -0.384392374302E+03   -0.25258E-04   -0.25249E-04  9152   0.368E-03 0.144E-05
CGA:  22    -0.384392395341E+03   -0.21039E-04   -0.21036E-04  9152   0.889E-04 0.413E-06
CGA:  23    -0.384392406019E+03   -0.10678E-04   -0.10642E-04  9152   0.175E-03 0.977E-06
CGA:  24    -0.384392417343E+03   -0.11324E-04   -0.11327E-04  9152   0.659E-04 0.132E-06
CGA:  25    -0.384392423056E+03   -0.57126E-05   -0.57125E-05  9152   0.557E-04-0.470E-07
 131 F= -.38439242E+03 E0= -.38438664E+03  d E =-.217395E-01  mag=    46.0000
       N       E                     dE             d eps       ncg     rms          ort
SDA:   1    -0.381657607440E+03    0.27348E+01    0.00000E+00  9152   0.793E+01 0.000E+00
CGA:   2    -0.382789318289E+03   -0.11317E+01   -0.11416E+01  9152   0.170E+02-0.232E-01
CGA:   3    -0.383577290506E+03   -0.78797E+00   -0.81953E+00  9152   0.681E+01-0.112E+01
CGA:   4    -0.384059237527E+03   -0.48195E+00   -0.48158E+00  9152   0.152E+01-0.198E-01
CGA:   5    -0.384266275623E+03   -0.20704E+00   -0.20466E+00  9152   0.138E+01 0.404E-01
CGA:   6    -0.384315502681E+03   -0.49227E-01   -0.46501E-01  9152   0.229E+00 0.448E-01
CGA:   7    -0.384350346853E+03   -0.34844E-01   -0.35045E-01  9152   0.992E-01-0.300E-02
CGA:   8    -0.384358289556E+03   -0.79427E-02   -0.79428E-02  9152   0.105E+00 0.103E-04
CGA:   9    -0.384362990133E+03   -0.47006E-02   -0.48073E-02  9152   0.238E-01-0.980E-03
CGA:  10    -0.384366142693E+03   -0.31526E-02   -0.31548E-02  9152   0.191E-01-0.389E-04
CGA:  11    -0.384367117227E+03   -0.97453E-03   -0.97685E-03  9152   0.115E-01-0.775E-05
CGA:  12    -0.384367874890E+03   -0.75766E-03   -0.75779E-03  9152   0.354E-02 0.205E-05
CGA:  13    -0.384368426193E+03   -0.55130E-03   -0.54989E-03  9152   0.628E-02 0.192E-04
CGA:  14    -0.384368685481E+03   -0.25929E-03   -0.25864E-03  9152   0.139E-02 0.758E-05
CGA:  15    -0.384368949269E+03   -0.26379E-03   -0.26310E-03  9152   0.196E-02 0.670E-05
CGA:  16    -0.384369036720E+03   -0.87450E-04   -0.87272E-04  9152   0.101E-02 0.266E-05
CGA:  17    -0.384369197787E+03   -0.16107E-03   -0.16061E-03  9152   0.562E-03 0.636E-05
CGA:  18    -0.384369227005E+03   -0.29218E-04   -0.29178E-04  9152   0.484E-03-0.153E-06
CGA:  19    -0.384369293582E+03   -0.66577E-04   -0.66549E-04  9152   0.285E-03 0.597E-06
CGA:  20    -0.384369314320E+03   -0.20739E-04   -0.20740E-04  9152   0.239E-03 0.676E-07
CGA:  21    -0.384369327317E+03   -0.12997E-04   -0.13034E-04  9152   0.110E-03 0.776E-06
CGA:  22    -0.384369345188E+03   -0.17871E-04   -0.17843E-04  9152   0.111E-03 0.383E-06
CGA:  23    -0.384369350462E+03   -0.52733E-05   -0.52935E-05  9152   0.655E-04 0.376E-06
 132 F= -.38436935E+03 E0= -.38436369E+03  d E =0.230726E-01  mag=    46.0000
       N       E                     dE             d eps       ncg     rms          ort
SDA:   1    -0.381216434655E+03    0.31529E+01    0.00000E+00  9152   0.910E+01 0.000E+00
CGA:   2    -0.382483056723E+03   -0.12666E+01   -0.12700E+01  9152   0.195E+02 0.113E+00
CGA:   3    -0.383457647693E+03   -0.97459E+00   -0.10189E+01  9152   0.764E+01-0.174E+01
CGA:   4    -0.383981609591E+03   -0.52396E+00   -0.52334E+00  9152   0.193E+01-0.173E-01
CGA:   5    -0.384174240566E+03   -0.19263E+00   -0.19146E+00  9152   0.215E+01 0.863E-01
CGA:   6    -0.384276905975E+03   -0.10267E+00   -0.98089E-01  9152   0.300E+00 0.405E-01
CGA:   7    -0.384309168761E+03   -0.32263E-01   -0.32235E-01  9152   0.313E+00 0.116E-02
CGA:   8    -0.384323824270E+03   -0.14656E-01   -0.14323E-01  9152   0.874E-01 0.332E-02
CGA:   9    -0.384332362871E+03   -0.85386E-02   -0.85241E-02  9152   0.501E-01 0.100E-02
CGA:  10    -0.384335178096E+03   -0.28152E-02   -0.28046E-02  9152   0.334E-01 0.176E-04
CGA:  11    -0.384337883180E+03   -0.27051E-02   -0.27056E-02  9152   0.133E-01 0.372E-04
CGA:  12    -0.384338981533E+03   -0.10984E-02   -0.10979E-02  9152   0.122E-01-0.507E-04
CGA:  13    -0.384339595755E+03   -0.61422E-03   -0.61525E-03  9152   0.357E-02-0.329E-06
CGA:  14    -0.384340154471E+03   -0.55872E-03   -0.55878E-03  9152   0.582E-02-0.902E-06
CGA:  15    -0.384340403647E+03   -0.24918E-03   -0.25054E-03  9152   0.135E-02-0.111E-04
CGA:  16    -0.384340646619E+03   -0.24297E-03   -0.24326E-03  9152   0.284E-02-0.309E-05
CGA:  17    -0.384340776981E+03   -0.13036E-03   -0.13070E-03  9152   0.776E-03 0.488E-07
CGA:  18    -0.384340895725E+03   -0.11874E-03   -0.11868E-03  9152   0.111E-02 0.929E-06
CGA:  19    -0.384340946404E+03   -0.50679E-04   -0.50854E-04  9152   0.389E-03 0.182E-06
CGA:  20    -0.384341000814E+03   -0.54410E-04   -0.54425E-04  9152   0.430E-03-0.249E-06
CGA:  21    -0.384341023785E+03   -0.22971E-04   -0.23028E-04  9152   0.239E-03 0.111E-05
CGA:  22    -0.384341044792E+03   -0.21007E-04   -0.21009E-04  9152   0.127E-03 0.750E-06
CGA:  23    -0.384341056540E+03   -0.11747E-04   -0.11745E-04  9152   0.175E-03 0.931E-06
CGA:  24    -0.384341068489E+03   -0.11949E-04   -0.11951E-04  9152   0.613E-04 0.859E-07
CGA:  25    -0.384341075642E+03   -0.71528E-05   -0.71424E-05  9152   0.943E-04 0.376E-06
 133 F= -.38434108E+03 E0= -.38433558E+03  d E =0.282748E-01  mag=    46.0000
       N       E                     dE             d eps       ncg     rms          ort
SDA:   1    -0.383004540445E+03    0.13365E+01    0.00000E+00  9152   0.394E+01 0.000E+00
CGA:   2    -0.383747560059E+03   -0.74302E+00   -0.73050E+00  9152   0.360E+01 0.139E+00
CGA:   3    -0.384117606859E+03   -0.37005E+00   -0.37107E+00  9152   0.244E+01-0.933E-01
CGA:   4    -0.384212253054E+03   -0.94646E-01   -0.87433E-01  9152   0.832E+00 0.856E-01
CGA:   5    -0.384320313774E+03   -0.10806E+00   -0.10786E+00  9152   0.384E+00 0.445E-02
CGA:   6    -0.384333911167E+03   -0.13597E-01   -0.14287E-01  9152   0.199E+00-0.132E-01
CGA:   7    -0.384349614129E+03   -0.15703E-01   -0.15696E-01  9152   0.603E-01-0.340E-03
CGA:   8    -0.384355236666E+03   -0.56225E-02   -0.56221E-02  9152   0.686E-01 0.555E-04
CGA:   9    -0.384357720029E+03   -0.24834E-02   -0.25073E-02  9152   0.145E-01-0.440E-03
CGA:  10    -0.384359721017E+03   -0.20010E-02   -0.20012E-02  9152   0.816E-02-0.594E-05
CGA:  11    -0.384360193985E+03   -0.47297E-03   -0.47243E-03  9152   0.831E-02-0.294E-05
CGA:  12    -0.384360713451E+03   -0.51947E-03   -0.52028E-03  9152   0.190E-02 0.535E-05
CGA:  13    -0.384361025075E+03   -0.31162E-03   -0.31133E-03  9152   0.211E-02 0.368E-05
CGA:  14    -0.384361120851E+03   -0.95775E-04   -0.95595E-04  9152   0.144E-02 0.244E-05
CGA:  15    -0.384361264915E+03   -0.14406E-03   -0.14397E-03  9152   0.572E-03 0.655E-05
CGA:  16    -0.384361365017E+03   -0.10010E-03   -0.99894E-04  9152   0.807E-03 0.241E-05
CGA:  17    -0.384361397858E+03   -0.32841E-04   -0.32790E-04  9152   0.401E-03 0.295E-06
CGA:  18    -0.384361447003E+03   -0.49145E-04   -0.49096E-04  9152   0.170E-03 0.140E-05
CGA:  19    -0.384361470686E+03   -0.23683E-04   -0.23678E-04  9152   0.245E-03 0.104E-06
CGA:  20    -0.384361480698E+03   -0.10011E-04   -0.99855E-05  9152   0.102E-03-0.253E-06
CGA:  21    -0.384361493373E+03   -0.12675E-04   -0.12654E-04  9152   0.383E-04 0.596E-06
CGA:  22    -0.384361499014E+03   -0.56412E-05   -0.56380E-05  9152   0.837E-04 0.563E-07
 134 F= -.38436150E+03 E0= -.38435592E+03  d E =-.204234E-01  mag=    46.0000
       N       E                     dE             d eps       ncg     rms          ort
SDA:   1    -0.384031487045E+03    0.33001E+00    0.00000E+00  9152   0.967E+00 0.000E+00
CGA:   2    -0.384231145862E+03   -0.19966E+00   -0.19637E+00  9152   0.895E+00 0.301E-01
CGA:   3    -0.384280823723E+03   -0.49678E-01   -0.48054E-01  9152   0.713E+00 0.934E-02
CGA:   4    -0.384333109676E+03   -0.52286E-01   -0.51990E-01  9152   0.197E+00-0.192E-02
CGA:   5    -0.384355898131E+03   -0.22788E-01   -0.22757E-01  9152   0.608E-01 0.105E-02
CGA:   6    -0.384362595377E+03   -0.66972E-02   -0.66982E-02  9152   0.452E-01-0.439E-04
CGA:   7    -0.384364193332E+03   -0.15980E-02   -0.16186E-02  9152   0.150E-01-0.405E-03
CGA:   8    -0.384366036898E+03   -0.18436E-02   -0.18467E-02  9152   0.338E-02-0.750E-04
CGA:   9    -0.384366665325E+03   -0.62843E-03   -0.62734E-03  9152   0.264E-02 0.118E-04
CGA:  10    -0.384366773221E+03   -0.10790E-03   -0.10747E-03  9152   0.144E-02 0.373E-05
CGA:  11    -0.384366931736E+03   -0.15852E-03   -0.15853E-03  9152   0.591E-03-0.596E-06
CGA:  12    -0.384367010293E+03   -0.78557E-04   -0.78617E-04  9152   0.426E-03-0.167E-05
CGA:  13    -0.384367037753E+03   -0.27459E-04   -0.27497E-04  9152   0.487E-03 0.442E-06
CGA:  14    -0.384367074427E+03   -0.36675E-04   -0.36679E-04  9152   0.140E-03-0.158E-06
CGA:  15    -0.384367102552E+03   -0.28125E-04   -0.28157E-04  9152   0.136E-03-0.308E-06
CGA:  16    -0.384367108683E+03   -0.61311E-05   -0.61113E-05  9152   0.938E-04-0.235E-06
CGA:  17    -0.384367120163E+03   -0.11480E-04   -0.11469E-04  9152   0.349E-04 0.440E-06
CGA:  18    -0.384367125769E+03   -0.56056E-05   -0.56039E-05  9152   0.451E-04 0.233E-07
 135 F= -.38436713E+03 E0= -.38436147E+03  d E =-.562675E-02  mag=    46.0000
       N       E                     dE             d eps       ncg     rms          ort
SDA:   1    -0.384137718910E+03    0.22940E+00    0.00000E+00  9152   0.653E+00 0.000E+00
CGA:   2    -0.384258546507E+03   -0.12083E+00   -0.12184E+00  9152   0.669E+00-0.112E-01
CGA:   3    -0.384319863218E+03   -0.61317E-01   -0.61426E-01  9152   0.447E+00 0.378E-02
CGA:   4    -0.384336658515E+03   -0.16795E-01   -0.16433E-01  9152   0.140E+00 0.541E-02
CGA:   5    -0.384355046105E+03   -0.18388E-01   -0.18366E-01  9152   0.343E-01 0.539E-03
CGA:   6    -0.384359217619E+03   -0.41715E-02   -0.41782E-02  9152   0.204E-01-0.229E-03
CGA:   7    -0.384360005323E+03   -0.78770E-03   -0.79563E-03  9152   0.975E-02-0.142E-03
CGA:   8    -0.384361118391E+03   -0.11131E-02   -0.11127E-02  9152   0.194E-02 0.110E-04
CGA:   9    -0.384361388656E+03   -0.27027E-03   -0.27012E-03  9152   0.305E-02 0.357E-05
CGA:  10    -0.384361511203E+03   -0.12255E-03   -0.12209E-03  9152   0.728E-03 0.761E-05
CGA:  11    -0.384361588568E+03   -0.77365E-04   -0.77360E-04  9152   0.338E-03 0.785E-06
CGA:  12    -0.384361630358E+03   -0.41790E-04   -0.41782E-04  9152   0.449E-03 0.324E-06
CGA:  13    -0.384361648804E+03   -0.18445E-04   -0.18512E-04  9152   0.135E-03 0.432E-06
CGA:  14    -0.384361673504E+03   -0.24700E-04   -0.24695E-04  9152   0.769E-04 0.599E-07
CGA:  15    -0.384361679326E+03   -0.58225E-05   -0.58378E-05  9152   0.120E-03 0.545E-06
CGA:  16    -0.384361689851E+03   -0.10524E-04   -0.10530E-04  9152   0.344E-04 0.445E-06
CGA:  17    -0.384361694071E+03   -0.42203E-05   -0.42190E-05  9152   0.336E-04 0.589E-07
 136 F= -.38436169E+03 E0= -.38435609E+03  d E =0.543170E-02  mag=    46.0000
