       N       E                     dE             d eps       ncg     rms          rms(c)
DAV:   1     0.670539660362E+04    0.67054E+04   -0.27353E+05 36240   0.155E+03
DAV:   2     0.431337478928E+03   -0.62741E+04   -0.60182E+04 36528   0.480E+02
DAV:   3    -0.363901039804E+03   -0.79524E+03   -0.77625E+03 39336   0.179E+02
DAV:   4    -0.409478329315E+03   -0.45577E+02   -0.44063E+02 52800   0.433E+01
DAV:   5    -0.413015731259E+03   -0.35374E+01   -0.34845E+01 64344   0.866E+00    0.646E+01
DAV:   6    -0.348710728411E+03    0.64305E+02   -0.33066E+02 48560   0.404E+01    0.380E+01
DAV:   7    -0.369159231194E+03   -0.20449E+02   -0.50496E+01 48376   0.187E+01    0.227E+01
DAV:   8    -0.373115518658E+03   -0.39563E+01   -0.55311E+00 49808   0.608E+00    0.146E+01
DAV:   9    -0.378028115080E+03   -0.49126E+01   -0.33837E+00 41712   0.418E+00    0.589E+00
DAV:  10    -0.380185131669E+03   -0.21570E+01   -0.11462E+00 47536   0.211E+00    0.349E+00
DAV:  11    -0.381985563729E+03   -0.18004E+01   -0.74325E-01 42784   0.144E+00    0.274E+00
DAV:  12    -0.384734982103E+03   -0.27494E+01   -0.22030E+00 40736   0.198E+00    0.162E+00
DAV:  13    -0.385905351964E+03   -0.11704E+01   -0.12414E+00 43240   0.155E+00    0.777E-01
DAV:  14    -0.386065259171E+03   -0.15991E+00   -0.21005E-01 42872   0.776E-01    0.408E-01
DAV:  15    -0.386068937557E+03   -0.36784E-02   -0.20565E-02 47752   0.303E-01    0.219E-01
DAV:  16    -0.386068077222E+03    0.86033E-03   -0.78368E-03 41576   0.229E-01    0.140E-01
DAV:  17    -0.386067670577E+03    0.40664E-03   -0.20732E-03 39696   0.118E-01    0.884E-02
DAV:  18    -0.386067392998E+03    0.27758E-03   -0.79483E-04 39512   0.660E-02    0.399E-02
DAV:  19    -0.386067354569E+03    0.38429E-04   -0.39713E-04 39712   0.450E-02    0.292E-02
DAV:  20    -0.386067335700E+03    0.18869E-04   -0.74275E-05 36280   0.275E-02    0.131E-02
DAV:  21    -0.386067334671E+03    0.10297E-05   -0.57534E-05 34824   0.175E-02
   1 F= -.38606733E+03 E0= -.38606733E+03  d E =-.386067E+03  mag=    35.9997
       N       E                     dE             d eps       ncg     rms          rms(c)
DAV:   1    -0.386129534813E+03   -0.62199E-01   -0.37195E-02 37688   0.268E-01    0.469E-02
DAV:   2    -0.386129626675E+03   -0.91861E-04   -0.13422E-03 42336   0.534E-02    0.323E-02
DAV:   3    -0.386129623093E+03    0.35818E-05   -0.68475E-05 41312   0.135E-02    0.201E-02
DAV:   4    -0.386129618310E+03    0.47829E-05   -0.13334E-05 30296   0.113E-02
   2 F= -.38612962E+03 E0= -.38612962E+03  d E =-.622836E-01  mag=    35.9999
       N       E                     dE             d eps       ncg     rms          rms(c)
DAV:   1    -0.387502544625E+03   -0.13729E+01   -0.31775E+01 36824   0.781E+00    0.131E+00
DAV:   2    -0.387594967791E+03   -0.92423E-01   -0.12042E+00 43488   0.152E+00    0.887E-01
DAV:   3    -0.387592868414E+03    0.20994E-02   -0.57796E-02 58936   0.369E-01    0.546E-01
DAV:   4    -0.387588882317E+03    0.39861E-02   -0.77707E-03 51640   0.281E-01    0.204E-01
DAV:   5    -0.387589162666E+03   -0.28035E-03   -0.44535E-03 48448   0.155E-01    0.745E-02
DAV:   6    -0.387589154791E+03    0.78752E-05   -0.69755E-04 46864   0.681E-02    0.473E-02
DAV:   7    -0.387589119854E+03    0.34936E-04   -0.82457E-05 46176   0.304E-02    0.263E-02
DAV:   8    -0.387589099207E+03    0.20647E-04   -0.29854E-05 36376   0.334E-02    0.101E-02
DAV:   9    -0.387589096566E+03    0.26419E-05   -0.36352E-05 39328   0.228E-02
   3 F= -.38758910E+03 E0= -.38758910E+03  d E =-.145948E+01  mag=    36.0000
       N       E                     dE             d eps       ncg     rms          rms(c)
DAV:   1    -0.388698244711E+03   -0.11091E+01   -0.12393E+02 37584   0.177E+01    0.237E+00
DAV:   2    -0.389208022464E+03   -0.50978E+00   -0.56963E+00 42536   0.345E+00    0.167E+00
DAV:   3    -0.389204239871E+03    0.37826E-02   -0.19718E-01 58776   0.714E-01    0.111E+00
DAV:   4    -0.389187798063E+03    0.16442E-01   -0.52073E-02 48496   0.602E-01    0.482E-01
DAV:   5    -0.389188812122E+03   -0.10141E-02   -0.18470E-02 48168   0.317E-01    0.263E-01
DAV:   6    -0.389188137855E+03    0.67427E-03   -0.78574E-03 47208   0.196E-01    0.934E-02
DAV:   7    -0.389188122376E+03    0.15479E-04   -0.74665E-04 45696   0.643E-02    0.495E-02
DAV:   8    -0.389188085610E+03    0.36766E-04   -0.17918E-04 48712   0.448E-02    0.312E-02
DAV:   9    -0.389188064507E+03    0.21103E-04   -0.53157E-05 40232   0.440E-02    0.156E-02
DAV:  10    -0.389188057588E+03    0.69190E-05   -0.53820E-05 41744   0.290E-02
   4 F= -.38918806E+03 E0= -.38918806E+03  d E =-.159896E+01  mag=    36.0000
       N       E                     dE             d eps       ncg     rms          rms(c)
DAV:   1    -0.389418619526E+03   -0.23056E+00   -0.15584E+02 37992   0.237E+01    0.277E+00
DAV:   2    -0.390105904538E+03   -0.68729E+00   -0.71892E+00 38736   0.435E+00    0.180E+00
DAV:   3    -0.390111381763E+03   -0.54772E-02   -0.18729E-01 59576   0.802E-01    0.116E+00
DAV:   4    -0.390098922952E+03    0.12459E-01   -0.50220E-02 49872   0.470E-01    0.609E-01
DAV:   5    -0.390099692978E+03   -0.77003E-03   -0.12392E-02 47384   0.266E-01    0.267E-01
DAV:   6    -0.390099225518E+03    0.46746E-03   -0.70891E-03 46752   0.193E-01    0.110E-01
DAV:   7    -0.390099306904E+03   -0.81387E-04   -0.97281E-04 43992   0.638E-02    0.490E-02
DAV:   8    -0.390099292950E+03    0.13955E-04   -0.14442E-04 44312   0.319E-02    0.296E-02
DAV:   9    -0.390099292803E+03    0.14679E-06   -0.53511E-05 38032   0.238E-02
   5 F= -.39009929E+03 E0= -.39009929E+03  d E =-.911235E+00  mag=    36.0000
       N       E                     dE             d eps       ncg     rms          rms(c)
DAV:   1    -0.389437659681E+03    0.66163E+00   -0.19689E+02 38680   0.319E+01    0.406E+00
DAV:   2    -0.390586562152E+03   -0.11489E+01   -0.11658E+01 36920   0.582E+00    0.224E+00
DAV:   3    -0.390625175946E+03   -0.38614E-01   -0.29508E-01 59136   0.110E+00    0.128E+00
DAV:   4    -0.390617359354E+03    0.78166E-02   -0.62231E-02 48392   0.511E-01    0.728E-01
DAV:   5    -0.390619848171E+03   -0.24888E-02   -0.11099E-02 46480   0.258E-01    0.270E-01
DAV:   6    -0.390619921926E+03   -0.73755E-04   -0.59551E-03 46976   0.190E-01    0.120E-01
DAV:   7    -0.390620048724E+03   -0.12680E-03   -0.10090E-03 43168   0.617E-02    0.539E-02
DAV:   8    -0.390620042271E+03    0.64532E-05   -0.14192E-04 47832   0.278E-02    0.333E-02
DAV:   9    -0.390620046978E+03   -0.47071E-05   -0.62284E-05 34736   0.175E-02
   6 F= -.39062005E+03 E0= -.39062005E+03  d E =-.520754E+00  mag=    36.0000
       N       E                     dE             d eps       ncg     rms          rms(c)
DAV:   1    -0.389886429982E+03    0.73361E+00   -0.14471E+02 38168   0.311E+01    0.385E+00
DAV:   2    -0.390783812930E+03   -0.89738E+00   -0.89947E+00 36120   0.562E+00    0.198E+00
DAV:   3    -0.390833402525E+03   -0.49590E-01   -0.21487E-01 57760   0.966E-01    0.110E+00
DAV:   4    -0.390831541122E+03    0.18614E-02   -0.28275E-02 48616   0.360E-01    0.649E-01
DAV:   5    -0.390834123137E+03   -0.25820E-02   -0.61812E-03 44512   0.223E-01    0.187E-01
DAV:   6    -0.390834527079E+03   -0.40394E-03   -0.29627E-03 46304   0.123E-01    0.881E-02
DAV:   7    -0.390834568708E+03   -0.41629E-04   -0.35189E-04 47232   0.405E-02    0.465E-02
DAV:   8    -0.390834563976E+03    0.47320E-05   -0.61067E-05 40248   0.207E-02
   7 F= -.39083456E+03 E0= -.39083456E+03  d E =-.214517E+00  mag=    36.0000
       N       E                     dE             d eps       ncg     rms          rms(c)
DAV:   1    -0.389899529060E+03    0.93504E+00   -0.22644E+02 37152   0.384E+01    0.383E+00
DAV:   2    -0.390972250907E+03   -0.10727E+01   -0.10919E+01 36184   0.693E+00    0.210E+00
DAV:   3    -0.391010551121E+03   -0.38300E-01   -0.25437E-01 57656   0.114E+00    0.131E+00
DAV:   4    -0.391004548315E+03    0.60028E-02   -0.38131E-02 49072   0.435E-01    0.800E-01
DAV:   5    -0.391005920468E+03   -0.13722E-02   -0.10343E-02 44664   0.329E-01    0.218E-01
DAV:   6    -0.391006326423E+03   -0.40595E-03   -0.50536E-03 46552   0.178E-01    0.120E-01
DAV:   7    -0.391006379494E+03   -0.53071E-04   -0.91465E-04 45824   0.669E-02    0.624E-02
DAV:   8    -0.391006366455E+03    0.13038E-04   -0.12236E-04 50808   0.292E-02    0.408E-02
DAV:   9    -0.391006359013E+03    0.74425E-05   -0.46600E-05 37360   0.265E-02
   8 F= -.39100636E+03 E0= -.39100636E+03  d E =-.171795E+00  mag=    36.0000
       N       E                     dE             d eps       ncg     rms          rms(c)
DAV:   1    -0.389063582180E+03    0.19428E+01   -0.36974E+02 38008   0.517E+01    0.534E+00
DAV:   2    -0.391041467491E+03   -0.19779E+01   -0.20107E+01 37424   0.920E+00    0.299E+00
DAV:   3    -0.391095243414E+03   -0.53776E-01   -0.40221E-01 49992   0.163E+00    0.188E+00
DAV:   4    -0.391082088167E+03    0.13155E-01   -0.10200E-01 50392   0.726E-01    0.118E+00
DAV:   5    -0.391080358269E+03    0.17299E-02   -0.24194E-02 46712   0.562E-01    0.343E-01
DAV:   6    -0.391081303651E+03   -0.94538E-03   -0.11718E-02 47056   0.287E-01    0.168E-01
DAV:   7    -0.391081421585E+03   -0.11793E-03   -0.22110E-03 45680   0.105E-01    0.888E-02
DAV:   8    -0.391081380632E+03    0.40953E-04   -0.34663E-04 54104   0.425E-02    0.615E-02
DAV:   9    -0.391081336991E+03    0.43642E-04   -0.94304E-05 41736   0.475E-02    0.255E-02
DAV:  10    -0.391081325812E+03    0.11178E-04   -0.82133E-05 41000   0.367E-02    0.147E-02
DAV:  11    -0.391081327088E+03   -0.12751E-05   -0.60140E-05 36848   0.200E-02
   9 F= -.39108133E+03 E0= -.39108133E+03  d E =-.749681E-01  mag=    36.0000
       N       E                     dE             d eps       ncg     rms          rms(c)
DAV:   1    -0.390916918642E+03    0.16441E+00   -0.54872E+01 38016   0.186E+01    0.201E+00
DAV:   2    -0.391157190349E+03   -0.24027E+00   -0.25991E+00 36672   0.344E+00    0.106E+00
DAV:   3    -0.391166730581E+03   -0.95402E-02   -0.84992E-02 59456   0.664E-01    0.624E-01
DAV:   4    -0.391163388358E+03    0.33422E-02   -0.10100E-02 50432   0.336E-01    0.333E-01
DAV:   5    -0.391163029313E+03    0.35904E-03   -0.40011E-03 47032   0.296E-01    0.100E-01
DAV:   6    -0.391163163883E+03   -0.13457E-03   -0.30682E-03 47360   0.141E-01    0.732E-02
DAV:   7    -0.391163113306E+03    0.50577E-04   -0.36355E-04 48728   0.432E-02    0.442E-02
DAV:   8    -0.391163055483E+03    0.57823E-04   -0.46068E-05 42080   0.468E-02    0.238E-02
DAV:   9    -0.391163020938E+03    0.34545E-04   -0.60895E-05 42008   0.589E-02    0.120E-02
DAV:  10    -0.391163021804E+03   -0.86659E-06   -0.99316E-05 45328   0.283E-02
  10 F= -.39116302E+03 E0= -.39116302E+03  d E =-.816947E-01  mag=    36.0000
       N       E                     dE             d eps       ncg     rms          rms(c)
DAV:   1    -0.391165193999E+03   -0.21731E-02   -0.12493E+00 38072   0.333E+00    0.406E-01
DAV:   2    -0.391173280006E+03   -0.80860E-02   -0.84938E-02 36736   0.612E-01    0.213E-01
DAV:   3    -0.391173992080E+03   -0.71207E-03   -0.22116E-03 50424   0.120E-01    0.120E-01
DAV:   4    -0.391173974356E+03    0.17724E-04   -0.26155E-04 53000   0.495E-02    0.674E-02
DAV:   5    -0.391173997783E+03   -0.23427E-04   -0.83128E-05 44168   0.468E-02    0.178E-02
DAV:   6    -0.391174002529E+03   -0.47453E-05   -0.77250E-05 41256   0.220E-02
  11 F= -.39117400E+03 E0= -.39117400E+03  d E =-.109807E-01  mag=    36.0000
       N       E                     dE             d eps       ncg     rms          rms(c)
DAV:   1    -0.391153738958E+03    0.20259E-01   -0.80431E+00 36824   0.759E+00    0.773E-01
DAV:   2    -0.391191668170E+03   -0.37929E-01   -0.38652E-01 36336   0.133E+00    0.389E-01
DAV:   3    -0.391193812580E+03   -0.21444E-02   -0.87206E-03 51744   0.228E-01    0.222E-01
DAV:   4    -0.391193690408E+03    0.12217E-03   -0.85807E-04 51240   0.792E-02    0.131E-01
DAV:   5    -0.391193764960E+03   -0.74552E-04   -0.37700E-04 44400   0.774E-02    0.317E-02
DAV:   6    -0.391193787457E+03   -0.22497E-04   -0.23132E-04 44680   0.344E-02    0.228E-02
DAV:   7    -0.391193784468E+03    0.29896E-05   -0.19618E-05 31448   0.106E-02
  12 F= -.39119378E+03 E0= -.39119378E+03  d E =-.197819E-01  mag=    36.0000
       N       E                     dE             d eps       ncg     rms          rms(c)
DAV:   1    -0.391124297919E+03    0.69490E-01   -0.22154E+01 37032   0.123E+01    0.112E+00
DAV:   2    -0.391213909522E+03   -0.89612E-01   -0.91119E-01 36040   0.211E+00    0.554E-01
DAV:   3    -0.391217656785E+03   -0.37473E-02   -0.18852E-02 52832   0.333E-01    0.324E-01
DAV:   4    -0.391217259360E+03    0.39742E-03   -0.20211E-03 49976   0.109E-01    0.193E-01
DAV:   5    -0.391217385758E+03   -0.12640E-03   -0.94315E-04 44072   0.100E-01    0.470E-02
DAV:   6    -0.391217430879E+03   -0.45121E-04   -0.41479E-04 45120   0.426E-02    0.319E-02
DAV:   7    -0.391217427643E+03    0.32365E-05   -0.44040E-05 40160   0.154E-02
  13 F= -.39121743E+03 E0= -.39121743E+03  d E =-.236432E-01  mag=    36.0000
       N       E                     dE             d eps       ncg     rms          rms(c)
DAV:   1    -0.390290548173E+03    0.92688E+00   -0.21011E+02 37184   0.389E+01    0.362E+00
DAV:   2    -0.391206769474E+03   -0.91622E+00   -0.95319E+00 35824   0.706E+00    0.202E+00
DAV:   3    -0.391233586903E+03   -0.26817E-01   -0.18575E-01 49712   0.114E+00    0.126E+00
DAV:   4    -0.391226463299E+03    0.71236E-02   -0.30392E-02 52256   0.441E-01    0.735E-01
DAV:   5    -0.391226519217E+03   -0.55918E-04   -0.10633E-02 44632   0.380E-01    0.196E-01
DAV:   6    -0.391226862033E+03   -0.34282E-03   -0.57701E-03 47152   0.193E-01    0.107E-01
DAV:   7    -0.391226855216E+03    0.68170E-05   -0.85289E-04 50160   0.709E-02    0.581E-02
DAV:   8    -0.391226824235E+03    0.30981E-04   -0.13309E-04 49880   0.404E-02    0.371E-02
DAV:   9    -0.391226803096E+03    0.21139E-04   -0.39164E-05 39808   0.454E-02    0.143E-02
DAV:  10    -0.391226800254E+03    0.28414E-05   -0.63827E-05 41920   0.274E-02
  14 F= -.39122680E+03 E0= -.39122680E+03  d E =-.937261E-02  mag=    36.0000
       N       E                     dE             d eps       ncg     rms          rms(c)
DAV:   1    -0.391117928248E+03    0.10887E+00   -0.13352E+01 38760   0.118E+01    0.166E+00
DAV:   2    -0.391245311878E+03   -0.12738E+00   -0.12650E+00 36160   0.219E+00    0.865E-01
DAV:   3    -0.391258543614E+03   -0.13232E-01   -0.26812E-02 44864   0.422E-01    0.473E-01
DAV:   4    -0.391258943572E+03   -0.39996E-03   -0.25821E-03 52592   0.163E-01    0.273E-01
DAV:   5    -0.391259556782E+03   -0.61321E-03   -0.11007E-03 44544   0.166E-01    0.681E-02
DAV:   6    -0.391259607804E+03   -0.51021E-04   -0.81285E-04 44656   0.736E-02    0.410E-02
DAV:   7    -0.391259597972E+03    0.98320E-05   -0.11451E-04 45688   0.235E-02    0.238E-02
DAV:   8    -0.391259589928E+03    0.80437E-05   -0.11992E-05 30384   0.178E-02
  15 F= -.39125959E+03 E0= -.39125959E+03  d E =-.327897E-01  mag=    36.0000
       N       E                     dE             d eps       ncg     rms          rms(c)
DAV:   1    -0.391263167948E+03   -0.35700E-02   -0.11582E+00 37096   0.300E+00    0.357E-01
DAV:   2    -0.391269907188E+03   -0.67392E-02   -0.72268E-02 37032   0.568E-01    0.196E-01
DAV:   3    -0.391270349416E+03   -0.44223E-03   -0.18968E-03 52544   0.108E-01    0.119E-01
DAV:   4    -0.391270291099E+03    0.58317E-04   -0.24846E-04 51872   0.514E-02    0.659E-02
DAV:   5    -0.391270290807E+03    0.29162E-06   -0.82983E-05 43816   0.534E-02
  16 F= -.39127029E+03 E0= -.39127029E+03  d E =-.107009E-01  mag=    36.0000
       N       E                     dE             d eps       ncg     rms          rms(c)
DAV:   1    -0.391247315433E+03    0.22976E-01   -0.79473E+00 37576   0.749E+00    0.750E-01
DAV:   2    -0.391282210955E+03   -0.34896E-01   -0.37046E-01 36752   0.135E+00    0.412E-01
DAV:   3    -0.391283884042E+03   -0.16731E-02   -0.91226E-03 55792   0.229E-01    0.257E-01
DAV:   4    -0.391283516319E+03    0.36772E-03   -0.11293E-03 50600   0.106E-01    0.142E-01
DAV:   5    -0.391283533126E+03   -0.16807E-04   -0.47341E-04 46584   0.103E-01    0.363E-02
DAV:   6    -0.391283562096E+03   -0.28970E-04   -0.40135E-04 44048   0.466E-02    0.289E-02
DAV:   7    -0.391283556504E+03    0.55916E-05   -0.36699E-05 38288   0.134E-02
  17 F= -.39128356E+03 E0= -.39128356E+03  d E =-.132657E-01  mag=    36.0000
       N       E                     dE             d eps       ncg     rms          rms(c)
DAV:   1    -0.391278541151E+03    0.50209E-02   -0.41249E+00 37656   0.510E+00    0.446E-01
DAV:   2    -0.391293339504E+03   -0.14798E-01   -0.15258E-01 36680   0.885E-01    0.223E-01
DAV:   3    -0.391293713728E+03   -0.37422E-03   -0.28176E-03 53800   0.126E-01    0.139E-01
DAV:   4    -0.391293592893E+03    0.12084E-03   -0.36712E-04 48552   0.463E-02    0.774E-02
DAV:   5    -0.391293604010E+03   -0.11117E-04   -0.17111E-04 44072   0.358E-02    0.199E-02
DAV:   6    -0.391293608953E+03   -0.49429E-05   -0.54634E-05 37912   0.155E-02
  18 F= -.39129361E+03 E0= -.39129361E+03  d E =-.100524E-01  mag=    36.0000
       N       E                     dE             d eps       ncg     rms          rms(c)
DAV:   1    -0.391001901330E+03    0.29170E+00   -0.76614E+01 37272   0.234E+01    0.217E+00
DAV:   2    -0.391324083817E+03   -0.32218E+00   -0.32946E+00 35776   0.411E+00    0.107E+00
DAV:   3    -0.391334491767E+03   -0.10408E-01   -0.59614E-02 51032   0.628E-01    0.634E-01
DAV:   4    -0.391332766080E+03    0.17257E-02   -0.78798E-03 49488   0.217E-01    0.368E-01
DAV:   5    -0.391333019210E+03   -0.25313E-03   -0.30967E-03 45432   0.159E-01    0.971E-02
DAV:   6    -0.391333124232E+03   -0.10502E-03   -0.10681E-03 47360   0.719E-02    0.543E-02
DAV:   7    -0.391333125416E+03   -0.11834E-05   -0.15202E-04 49080   0.266E-02    0.310E-02
DAV:   8    -0.391333121364E+03    0.40521E-05   -0.21050E-05 29912   0.152E-02
  19 F= -.39133312E+03 E0= -.39133312E+03  d E =-.395124E-01  mag=    36.0000
       N       E                     dE             d eps       ncg     rms          rms(c)
DAV:   1    -0.387506742017E+03    0.38264E+01   -0.30627E+02 38224   0.522E+01    0.747E+00
DAV:   2    -0.390640903786E+03   -0.31342E+01   -0.31687E+01 35952   0.109E+01    0.417E+00
DAV:   3    -0.390810434359E+03   -0.16953E+00   -0.66185E-01 48584   0.191E+00    0.235E+00
DAV:   4    -0.390803200443E+03    0.72339E-02   -0.98148E-02 52968   0.813E-01    0.145E+00
DAV:   5    -0.390806317579E+03   -0.31171E-02   -0.23436E-02 46048   0.814E-01    0.397E-01
DAV:   6    -0.390807422079E+03   -0.11045E-02   -0.19168E-02 46064   0.400E-01    0.195E-01
DAV:   7    -0.390807300025E+03    0.12205E-03   -0.35323E-03 48048   0.143E-01    0.116E-01
DAV:   8    -0.390807057340E+03    0.24268E-03   -0.59556E-04 46872   0.891E-02    0.743E-02
DAV:   9    -0.390806930170E+03    0.12717E-03   -0.28462E-04 49752   0.953E-02    0.389E-02
DAV:  10    -0.390806910208E+03    0.19962E-04   -0.32800E-04 47864   0.668E-02    0.258E-02
DAV:  11    -0.390806922040E+03   -0.11831E-04   -0.15662E-04 42720   0.339E-02    0.195E-02
DAV:  12    -0.390806919480E+03    0.25591E-05   -0.23769E-05 34816   0.131E-02
  20 F= -.39080692E+03 E0= -.39080688E+03  d E =0.526202E+00  mag=    35.9994
       N       E                     dE             d eps       ncg     rms          rms(c)
DAV:   1    -0.390056518501E+03    0.75040E+00   -0.11866E+02 37696   0.311E+01    0.483E+00
DAV:   2    -0.391277111570E+03   -0.12206E+01   -0.12327E+01 36440   0.638E+00    0.261E+00
DAV:   3    -0.391356186345E+03   -0.79075E-01   -0.26492E-01 53040   0.120E+00    0.144E+00
DAV:   4    -0.391353130191E+03    0.30562E-02   -0.28019E-02 50480   0.567E-01    0.825E-01
DAV:   5    -0.391354211380E+03   -0.10812E-02   -0.10684E-02 46368   0.568E-01    0.206E-01
DAV:   6    -0.391354789711E+03   -0.57833E-03   -0.95842E-03 46728   0.260E-01    0.132E-01
DAV:   7    -0.391354648047E+03    0.14166E-03   -0.13220E-03 49720   0.769E-02    0.858E-02
DAV:   8    -0.391354460784E+03    0.18726E-03   -0.19134E-04 46216   0.806E-02    0.490E-02
DAV:   9    -0.391354332919E+03    0.12787E-03   -0.15887E-04 45704   0.105E-01    0.241E-02
DAV:  10    -0.391354325137E+03    0.77821E-05   -0.24960E-04 48280   0.586E-02    0.209E-02
DAV:  11    -0.391354334497E+03   -0.93601E-05   -0.14348E-04 39672   0.301E-02    0.183E-02
DAV:  12    -0.391354331233E+03    0.32638E-05   -0.25261E-05 35200   0.137E-02
  21 F= -.39135433E+03 E0= -.39135433E+03  d E =-.547412E+00  mag=    36.0000
       N       E                     dE             d eps       ncg     rms          rms(c)
DAV:   1    -0.391121349307E+03    0.23299E+00   -0.25028E+01 37224   0.149E+01    0.228E+00
DAV:   2    -0.391369518813E+03   -0.24817E+00   -0.24941E+00 36552   0.294E+00    0.119E+00
DAV:   3    -0.391389606600E+03   -0.20088E-01   -0.54757E-02 50296   0.558E-01    0.655E-01
DAV:   4    -0.391389412064E+03    0.19454E-03   -0.61119E-03 50896   0.257E-01    0.359E-01
DAV:   5    -0.391389992534E+03   -0.58047E-03   -0.23152E-03 44968   0.256E-01    0.949E-02
DAV:   6    -0.391390097856E+03   -0.10532E-03   -0.19474E-03 45152   0.113E-01    0.629E-02
DAV:   7    -0.391390066156E+03    0.31700E-04   -0.27019E-04 45736   0.364E-02    0.370E-02
DAV:   8    -0.391390036295E+03    0.29861E-04   -0.29246E-05 38384   0.340E-02    0.249E-02
DAV:   9    -0.391390009356E+03    0.26938E-04   -0.27866E-05 36208   0.472E-02    0.109E-02
DAV:  10    -0.391390005562E+03    0.37943E-05   -0.52822E-05 41224   0.303E-02
  22 F= -.39139001E+03 E0= -.39139001E+03  d E =-.356743E-01  mag=    36.0000
       N       E                     dE             d eps       ncg     rms          rms(c)
DAV:   1    -0.391379828860E+03    0.10180E-01   -0.17362E+00 38040   0.343E+00    0.307E-01
DAV:   2    -0.391386621754E+03   -0.67929E-02   -0.70524E-02 36784   0.604E-01    0.182E-01
DAV:   3    -0.391386921008E+03   -0.29925E-03   -0.14842E-03 53848   0.100E-01    0.117E-01
DAV:   4    -0.391386841238E+03    0.79770E-04   -0.16101E-04 50328   0.464E-02    0.696E-02
DAV:   5    -0.391386833877E+03    0.73607E-05   -0.10807E-04 44160   0.572E-02    0.159E-02
DAV:   6    -0.391386841840E+03   -0.79629E-05   -0.10779E-04 42208   0.240E-02    0.139E-02
DAV:   7    -0.391386840475E+03    0.13643E-05   -0.66752E-06 23200   0.647E-03
  23 F= -.39138684E+03 E0= -.39138684E+03  d E =0.316509E-02  mag=    36.0000
       N       E                     dE             d eps       ncg     rms          rms(c)
DAV:   1    -0.391312887593E+03    0.73954E-01   -0.12651E+01 37200   0.899E+00    0.867E-01
DAV:   2    -0.391364861068E+03   -0.51973E-01   -0.54833E-01 36328   0.162E+00    0.485E-01
DAV:   3    -0.391366259355E+03   -0.13983E-02   -0.11181E-02 54432   0.258E-01    0.315E-01
DAV:   4    -0.391365623835E+03    0.63552E-03   -0.14900E-03 50248   0.131E-01    0.169E-01
DAV:   5    -0.391365624689E+03   -0.85378E-06   -0.72984E-04 48320   0.122E-01    0.470E-02
DAV:   6    -0.391365648133E+03   -0.23444E-04   -0.53563E-04 43944   0.551E-02    0.353E-02
DAV:   7    -0.391365638449E+03    0.96838E-05   -0.72122E-05 41464   0.194E-02
  24 F= -.39136564E+03 E0= -.39136564E+03  d E =0.212020E-01  mag=    36.0000
       N       E                     dE             d eps       ncg     rms          rms(c)
DAV:   1    -0.391361235266E+03    0.44129E-02   -0.74583E-01 37616   0.249E+00    0.244E-01
DAV:   2    -0.391364907834E+03   -0.36726E-02   -0.37753E-02 36464   0.447E-01    0.122E-01
DAV:   3    -0.391365054980E+03   -0.14715E-03   -0.72748E-04 52776   0.677E-02    0.722E-02
DAV:   4    -0.391365035823E+03    0.19157E-04   -0.83150E-05 48152   0.257E-02    0.413E-02
DAV:   5    -0.391365039546E+03   -0.37226E-05   -0.33114E-05 40824   0.215E-02
  25 F= -.39136504E+03 E0= -.39136504E+03  d E =0.598904E-03  mag=    36.0000
       N       E                     dE             d eps       ncg     rms          rms(c)
DAV:   1    -0.391306937122E+03    0.58099E-01   -0.10968E+01 37728   0.948E+00    0.929E-01
DAV:   2    -0.391360207925E+03   -0.53271E-01   -0.53907E-01 35800   0.167E+00    0.454E-01
DAV:   3    -0.391362533996E+03   -0.23261E-02   -0.98619E-03 50800   0.253E-01    0.260E-01
DAV:   4    -0.391362356543E+03    0.17745E-03   -0.11873E-03 53320   0.874E-02    0.152E-01
DAV:   5    -0.391362429933E+03   -0.73390E-04   -0.44409E-04 46680   0.702E-02    0.398E-02
DAV:   6    -0.391362450357E+03   -0.20424E-04   -0.18585E-04 43960   0.308E-02    0.210E-02
DAV:   7    -0.391362447812E+03    0.25450E-05   -0.16778E-05 29216   0.115E-02
  26 F= -.39136245E+03 E0= -.39136245E+03  d E =0.259173E-02  mag=    36.0000
       N       E                     dE             d eps       ncg     rms          rms(c)
DAV:   1    -0.390883437549E+03    0.47901E+00   -0.10513E+02 37384   0.288E+01    0.259E+00
DAV:   2    -0.391331868553E+03   -0.44843E+00   -0.45652E+00 35776   0.507E+00    0.127E+00
DAV:   3    -0.391350381887E+03   -0.18513E-01   -0.85077E-02 49392   0.797E-01    0.730E-01
DAV:   4    -0.391348388700E+03    0.19932E-02   -0.11220E-02 52872   0.290E-01    0.431E-01
DAV:   5    -0.391348803778E+03   -0.41508E-03   -0.37646E-03 46960   0.244E-01    0.119E-01
DAV:   6    -0.391349007382E+03   -0.20360E-03   -0.20899E-03 46408   0.110E-01    0.698E-02
DAV:   7    -0.391348992588E+03    0.14795E-04   -0.27750E-04 55112   0.386E-02    0.392E-02
DAV:   8    -0.391348974113E+03    0.18475E-04   -0.28525E-05 37464   0.274E-02    0.202E-02
DAV:   9    -0.391348968941E+03    0.51714E-05   -0.22759E-05 32792   0.254E-02
  27 F= -.39134897E+03 E0= -.39134897E+03  d E =0.134789E-01  mag=    36.0000
       N       E                     dE             d eps       ncg     rms          rms(c)
DAV:   1    -0.384141521897E+03    0.72075E+01   -0.53847E+02 38512   0.795E+01    0.110E+01
DAV:   2    -0.390130895742E+03   -0.59894E+01   -0.58952E+01 36368   0.162E+01    0.569E+00
DAV:   3    -0.390483809294E+03   -0.35291E+00   -0.13757E+00 46624   0.330E+00    0.296E+00
DAV:   4    -0.390466556257E+03    0.17253E-01   -0.20775E-01 52160   0.158E+00    0.171E+00
DAV:   5    -0.390465751360E+03    0.80490E-03   -0.57875E-02 47512   0.133E+00    0.562E-01
DAV:   6    -0.390467023484E+03   -0.12721E-02   -0.58474E-02 45880   0.697E-01    0.332E-01
DAV:   7    -0.390466699552E+03    0.32393E-03   -0.11997E-02 52024   0.229E-01    0.210E-01
DAV:   8    -0.390466023072E+03    0.67648E-03   -0.18728E-03 51392   0.141E-01    0.147E-01
DAV:   9    -0.390465821808E+03    0.20126E-03   -0.89681E-04 47816   0.129E-01    0.813E-02
DAV:  10    -0.390465802130E+03    0.19677E-04   -0.55921E-04 47904   0.898E-02    0.500E-02
DAV:  11    -0.390465843627E+03   -0.41497E-04   -0.39087E-04 42672   0.425E-02    0.377E-02
DAV:  12    -0.390465848206E+03   -0.45789E-05   -0.50500E-05 41704   0.163E-02
  28 F= -.39046585E+03 E0= -.39046517E+03  d E =0.883121E+00  mag=    35.9851
       N       E                     dE             d eps       ncg     rms          rms(c)
DAV:   1    -0.388897886800E+03    0.15680E+01   -0.21540E+02 38896   0.481E+01    0.673E+00
DAV:   2    -0.391147556594E+03   -0.22497E+01   -0.21927E+01 36320   0.963E+00    0.441E+00
DAV:   3    -0.391316443049E+03   -0.16889E+00   -0.47068E-01 46176   0.178E+00    0.265E+00
DAV:   4    -0.391315346353E+03    0.10967E-02   -0.49950E-02 50816   0.779E-01    0.164E+00
DAV:   5    -0.391321146666E+03   -0.58003E-02   -0.26717E-02 46232   0.976E-01    0.327E-01
DAV:   6    -0.391322641118E+03   -0.14945E-02   -0.25343E-02 45608   0.388E-01    0.215E-01
DAV:   7    -0.391322310602E+03    0.33052E-03   -0.35630E-03 51224   0.123E-01    0.124E-01
DAV:   8    -0.391322020037E+03    0.29057E-03   -0.48998E-04 50440   0.898E-02    0.870E-02
DAV:   9    -0.391321779551E+03    0.24049E-03   -0.29819E-04 50096   0.132E-01    0.434E-02
DAV:  10    -0.391321724751E+03    0.54800E-04   -0.33945E-04 46400   0.103E-01    0.336E-02
DAV:  11    -0.391321759585E+03   -0.34835E-04   -0.44126E-04 43112   0.450E-02    0.296E-02
DAV:  12    -0.391321756180E+03    0.34057E-05   -0.33912E-05 37744   0.185E-02
  29 F= -.39132176E+03 E0= -.39132176E+03  d E =-.855908E+00  mag=    35.9995
       N       E                     dE             d eps       ncg     rms          rms(c)
DAV:   1    -0.390777645497E+03    0.54411E+00   -0.54244E+01 38680   0.264E+01    0.353E+00
DAV:   2    -0.391364335401E+03   -0.58669E+00   -0.58589E+00 36832   0.517E+00    0.183E+00
DAV:   3    -0.391416197474E+03   -0.51862E-01   -0.14083E-01 47312   0.109E+00    0.963E-01
DAV:   4    -0.391414827353E+03    0.13701E-02   -0.13446E-02 53408   0.509E-01    0.587E-01
DAV:   5    -0.391414490507E+03    0.33685E-03   -0.59989E-03 48024   0.621E-01    0.157E-01
DAV:   6    -0.391414823807E+03   -0.33330E-03   -0.90377E-03 46912   0.278E-01    0.118E-01
DAV:   7    -0.391414810626E+03    0.13181E-04   -0.17151E-03 47336   0.857E-02    0.903E-02
DAV:   8    -0.391414657152E+03    0.15347E-03   -0.33845E-04 45104   0.587E-02    0.623E-02
DAV:   9    -0.391414518209E+03    0.13894E-03   -0.18046E-04 52208   0.105E-01    0.374E-02
DAV:  10    -0.391414471893E+03    0.46316E-04   -0.17362E-04 46968   0.893E-02    0.292E-02
DAV:  11    -0.391414499075E+03   -0.27182E-04   -0.40383E-04 43480   0.459E-02    0.265E-02
DAV:  12    -0.391414496744E+03    0.23310E-05   -0.43662E-05 37520   0.149E-02
  30 F= -.39141450E+03 E0= -.39141450E+03  d E =-.927406E-01  mag=    36.0000
       N       E                     dE             d eps       ncg     rms          rms(c)
DAV:   1    -0.391399399413E+03    0.15100E-01   -0.31257E+00 38048   0.497E+00    0.640E-01
DAV:   2    -0.391420947961E+03   -0.21549E-01   -0.22461E-01 36776   0.930E-01    0.344E-01
DAV:   3    -0.391422386723E+03   -0.14388E-02   -0.45405E-03 46376   0.160E-01    0.204E-01
DAV:   4    -0.391422317022E+03    0.69700E-04   -0.55310E-04 49856   0.647E-02    0.112E-01
DAV:   5    -0.391422374881E+03   -0.57858E-04   -0.25007E-04 43024   0.482E-02    0.251E-02
DAV:   6    -0.391422379357E+03   -0.44765E-05   -0.84634E-05 42328   0.221E-02
  31 F= -.39142238E+03 E0= -.39142238E+03  d E =-.788261E-02  mag=    36.0000
       N       E                     dE             d eps       ncg     rms          rms(c)
DAV:   1    -0.391219827720E+03    0.20255E+00   -0.27356E+01 37376   0.144E+01    0.171E+00
DAV:   2    -0.391390363094E+03   -0.17054E+00   -0.18282E+00 36976   0.270E+00    0.912E-01
DAV:   3    -0.391397242094E+03   -0.68790E-02   -0.36317E-02 50304   0.457E-01    0.556E-01
DAV:   4    -0.391395929455E+03    0.13126E-02   -0.56545E-03 47968   0.214E-01    0.288E-01
DAV:   5    -0.391396359984E+03   -0.43053E-03   -0.19599E-03 45032   0.131E-01    0.791E-02
DAV:   6    -0.391396367902E+03   -0.79181E-05   -0.65069E-04 46080   0.644E-02    0.400E-02
DAV:   7    -0.391396364738E+03    0.31641E-05   -0.12991E-04 42880   0.260E-02    0.191E-02
DAV:   8    -0.391396361776E+03    0.29612E-05   -0.17338E-05 31072   0.167E-02
  32 F= -.39139636E+03 E0= -.39139636E+03  d E =0.260176E-01  mag=    36.0000
       N       E                     dE             d eps       ncg     rms          rms(c)
DAV:   1    -0.391387902881E+03    0.84619E-02   -0.58666E-01 38208   0.240E+00    0.259E-01
DAV:   2    -0.391391628529E+03   -0.37256E-02   -0.38071E-02 36984   0.431E-01    0.129E-01
DAV:   3    -0.391391842162E+03   -0.21363E-03   -0.69979E-04 53696   0.677E-02    0.742E-02
DAV:   4    -0.391391828258E+03    0.13904E-04   -0.74831E-05 45616   0.237E-02    0.407E-02
DAV:   5    -0.391391836250E+03   -0.79914E-05   -0.32258E-05 40104   0.190E-02
  33 F= -.39139184E+03 E0= -.39139184E+03  d E =0.452553E-02  mag=    36.0000
       N       E                     dE             d eps       ncg     rms          rms(c)
DAV:   1    -0.391367681614E+03    0.24147E-01   -0.22960E+00 38128   0.485E+00    0.528E-01
DAV:   2    -0.391382922420E+03   -0.15241E-01   -0.15190E-01 36368   0.864E-01    0.258E-01
DAV:   3    -0.391383852854E+03   -0.93043E-03   -0.27105E-03 50696   0.134E-01    0.143E-01
DAV:   4    -0.391383844456E+03    0.83984E-05   -0.27591E-04 52632   0.406E-02    0.832E-02
DAV:   5    -0.391383885203E+03   -0.40747E-04   -0.11567E-04 41896   0.310E-02    0.211E-02
DAV:   6    -0.391383889156E+03   -0.39528E-05   -0.31434E-05 37072   0.136E-02
  34 F= -.39138389E+03 E0= -.39138389E+03  d E =0.794709E-02  mag=    36.0000
       N       E                     dE             d eps       ncg     rms          rms(c)
DAV:   1    -0.391366742494E+03    0.17143E-01   -0.28737E+00 38032   0.484E+00    0.454E-01
DAV:   2    -0.391379582729E+03   -0.12840E-01   -0.12825E-01 36080   0.835E-01    0.225E-01
DAV:   3    -0.391380227046E+03   -0.64432E-03   -0.23173E-03 50880   0.124E-01    0.128E-01
DAV:   4    -0.391380194223E+03    0.32823E-04   -0.25079E-04 54256   0.393E-02    0.770E-02
DAV:   5    -0.391380216974E+03   -0.22752E-04   -0.12063E-04 43720   0.367E-02    0.197E-02
DAV:   6    -0.391380222740E+03   -0.57657E-05   -0.50807E-05 38208   0.158E-02
  35 F= -.39138022E+03 E0= -.39138022E+03  d E =0.366642E-02  mag=    36.0000
       N       E                     dE             d eps       ncg     rms          rms(c)
DAV:   1    -0.390993444380E+03    0.38677E+00   -0.62890E+01 38192   0.243E+01    0.245E+00
DAV:   2    -0.391340886459E+03   -0.34744E+00   -0.34294E+00 35776   0.426E+00    0.120E+00
DAV:   3    -0.391359980131E+03   -0.19094E-01   -0.60976E-02 47744   0.649E-01    0.650E-01
DAV:   4    -0.391359695758E+03    0.28437E-03   -0.65198E-03 55616   0.206E-01    0.386E-01
DAV:   5    -0.391360483926E+03   -0.78817E-03   -0.26981E-03 43784   0.176E-01    0.106E-01
DAV:   6    -0.391360602603E+03   -0.11868E-03   -0.11133E-03 45664   0.800E-02    0.531E-02
DAV:   7    -0.391360589153E+03    0.13450E-04   -0.15738E-04 48144   0.303E-02    0.294E-02
DAV:   8    -0.391360581004E+03    0.81492E-05   -0.18808E-05 31000   0.176E-02
  36 F= -.39136058E+03 E0= -.39136058E+03  d E =0.196417E-01  mag=    36.0000
       N       E                     dE             d eps       ncg     rms          rms(c)
DAV:   1    -0.390847700897E+03    0.51289E+00   -0.69002E+01 38264   0.272E+01    0.300E+00
DAV:   2    -0.391332392243E+03   -0.48469E+00   -0.47585E+00 35776   0.485E+00    0.147E+00
DAV:   3    -0.391365567907E+03   -0.33176E-01   -0.89279E-02 45616   0.790E-01    0.779E-01
DAV:   4    -0.391366112191E+03   -0.54428E-03   -0.81882E-03 55336   0.233E-01    0.469E-01
DAV:   5    -0.391367758998E+03   -0.16468E-02   -0.35202E-03 43624   0.201E-01    0.126E-01
DAV:   6    -0.391367903532E+03   -0.14453E-03   -0.12867E-03 45200   0.925E-02    0.601E-02
DAV:   7    -0.391367892738E+03    0.10795E-04   -0.24374E-04 46496   0.391E-02    0.333E-02
DAV:   8    -0.391367888326E+03    0.44119E-05   -0.35230E-05 36520   0.196E-02
  37 F= -.39136789E+03 E0= -.39136789E+03  d E =-.730732E-02  mag=    36.0000
       N       E                     dE             d eps       ncg     rms          rms(c)
DAV:   1    -0.391126731241E+03    0.24116E+00   -0.30399E+01 38352   0.179E+01    0.202E+00
DAV:   2    -0.391348940215E+03   -0.22221E+00   -0.22102E+00 35792   0.327E+00    0.991E-01
DAV:   3    -0.391364796996E+03   -0.15857E-01   -0.44537E-02 43040   0.561E-01    0.526E-01
DAV:   4    -0.391365186001E+03   -0.38901E-03   -0.43223E-03 53800   0.186E-01    0.317E-01
DAV:   5    -0.391366023472E+03   -0.83747E-03   -0.20052E-03 43152   0.181E-01    0.822E-02
DAV:   6    -0.391366121551E+03   -0.98079E-04   -0.10277E-03 46344   0.818E-02    0.461E-02
DAV:   7    -0.391366109729E+03    0.11821E-04   -0.14807E-04 47552   0.276E-02    0.279E-02
DAV:   8    -0.391366099117E+03    0.10612E-04   -0.15727E-05 31704   0.198E-02    0.162E-02
DAV:   9    -0.391366091162E+03    0.79555E-05   -0.14359E-05 29456   0.237E-02
  38 F= -.39136609E+03 E0= -.39136609E+03  d E =0.179716E-02  mag=    36.0000
       N       E                     dE             d eps       ncg     rms          rms(c)
DAV:   1    -0.391287491386E+03    0.78608E-01   -0.15270E+01 38184   0.120E+01    0.129E+00
DAV:   2    -0.391380329397E+03   -0.92838E-01   -0.93452E-01 35824   0.217E+00    0.650E-01
DAV:   3    -0.391387270856E+03   -0.69415E-02   -0.19921E-02 44264   0.363E-01    0.357E-01
DAV:   4    -0.391387328990E+03   -0.58134E-04   -0.20589E-03 56416   0.128E-01    0.214E-01
DAV:   5    -0.391387651377E+03   -0.32239E-03   -0.93417E-04 43136   0.121E-01    0.535E-02
DAV:   6    -0.391387691269E+03   -0.39892E-04   -0.47404E-04 43640   0.530E-02    0.327E-02
DAV:   7    -0.391387683587E+03    0.76819E-05   -0.59156E-05 41328   0.178E-02
  39 F= -.39138768E+03 E0= -.39138768E+03  d E =-.215924E-01  mag=    36.0000
       N       E                     dE             d eps       ncg     rms          rms(c)
DAV:   1    -0.391361734675E+03    0.25957E-01   -0.31486E+00 38752   0.609E+00    0.707E-01
DAV:   2    -0.391387823528E+03   -0.26089E-01   -0.25430E-01 35800   0.110E+00    0.338E-01
DAV:   3    -0.391389656559E+03   -0.18330E-02   -0.45086E-03 43928   0.177E-01    0.176E-01
DAV:   4    -0.391389712163E+03   -0.55604E-04   -0.40447E-04 55440   0.522E-02    0.105E-01
DAV:   5    -0.391389800622E+03   -0.88458E-04   -0.15100E-04 41960   0.459E-02    0.281E-02
DAV:   6    -0.391389808384E+03   -0.77630E-05   -0.64737E-05 40976   0.206E-02
  40 F= -.39138981E+03 E0= -.39138981E+03  d E =-.212480E-02  mag=    36.0000
       N       E                     dE             d eps       ncg     rms          rms(c)
DAV:   1    -0.391101914970E+03    0.28789E+00   -0.59260E+01 37824   0.231E+01    0.218E+00
DAV:   2    -0.391390584577E+03   -0.28867E+00   -0.28853E+00 35776   0.405E+00    0.105E+00
DAV:   3    -0.391403182417E+03   -0.12598E-01   -0.49522E-02 49504   0.598E-01    0.584E-01
DAV:   4    -0.391402494576E+03    0.68784E-03   -0.54905E-03 55128   0.187E-01    0.340E-01
DAV:   5    -0.391402932633E+03   -0.43806E-03   -0.23332E-03 44304   0.148E-01    0.903E-02
DAV:   6    -0.391403028306E+03   -0.95673E-04   -0.77537E-04 46624   0.633E-02    0.474E-02
DAV:   7    -0.391403019119E+03    0.91872E-05   -0.95207E-05 45904   0.239E-02
  41 F= -.39140302E+03 E0= -.39140302E+03  d E =-.132107E-01  mag=    36.0000
       N       E                     dE             d eps       ncg     rms          rms(c)
DAV:   1    -0.390370187077E+03    0.10328E+01   -0.17572E+02 38056   0.415E+01    0.417E+00
DAV:   2    -0.391389583921E+03   -0.10194E+01   -0.10225E+01 35824   0.749E+00    0.206E+00
DAV:   3    -0.391437644415E+03   -0.48060E-01   -0.18577E-01 49544   0.117E+00    0.116E+00
DAV:   4    -0.391435817738E+03    0.18267E-02   -0.20326E-02 53232   0.375E-01    0.673E-01
DAV:   5    -0.391437701488E+03   -0.18837E-02   -0.79878E-03 46104   0.300E-01    0.175E-01
DAV:   6    -0.391438016766E+03   -0.31528E-03   -0.29577E-03 46320   0.134E-01    0.913E-02
DAV:   7    -0.391437997904E+03    0.18861E-04   -0.46069E-04 53808   0.508E-02    0.515E-02
DAV:   8    -0.391437983324E+03    0.14580E-04   -0.58080E-05 41096   0.290E-02    0.275E-02
DAV:   9    -0.391437978386E+03    0.49381E-05   -0.29419E-05 33928   0.271E-02
  42 F= -.39143798E+03 E0= -.39143798E+03  d E =-.349593E-01  mag=    36.0000
       N       E                     dE             d eps       ncg     rms          rms(c)
DAV:   1    -0.390834931275E+03    0.60305E+00   -0.87262E+01 38152   0.299E+01    0.314E+00
DAV:   2    -0.391386683854E+03   -0.55175E+00   -0.55482E+00 35856   0.546E+00    0.157E+00
DAV:   3    -0.391420396614E+03   -0.33713E-01   -0.11605E-01 45896   0.931E-01    0.872E-01
DAV:   4    -0.391420120941E+03    0.27567E-03   -0.11119E-02 56336   0.320E-01    0.517E-01
DAV:   5    -0.391421337284E+03   -0.12163E-02   -0.47981E-03 46056   0.307E-01    0.130E-01
DAV:   6    -0.391421591004E+03   -0.25372E-03   -0.31398E-03 46440   0.145E-01    0.803E-02
DAV:   7    -0.391421569828E+03    0.21176E-04   -0.43964E-04 53576   0.459E-02    0.512E-02
DAV:   8    -0.391421532827E+03    0.37001E-04   -0.50014E-05 41000   0.331E-02    0.287E-02
DAV:   9    -0.391421515766E+03    0.17061E-04   -0.34902E-05 37952   0.412E-02    0.137E-02
DAV:  10    -0.391421515643E+03    0.12320E-06   -0.57532E-05 41432   0.250E-02
  43 F= -.39142152E+03 E0= -.39142152E+03  d E =0.164627E-01  mag=    36.0000
       N       E                     dE             d eps       ncg     rms          rms(c)
DAV:   1    -0.390653285630E+03    0.76823E+00   -0.88549E+01 37896   0.316E+01    0.355E+00
DAV:   2    -0.391338548104E+03   -0.68526E+00   -0.67552E+00 35912   0.574E+00    0.172E+00
DAV:   3    -0.391378000964E+03   -0.39453E-01   -0.12161E-01 48856   0.920E-01    0.925E-01
DAV:   4    -0.391377804076E+03    0.19689E-03   -0.11975E-02 54040   0.295E-01    0.540E-01
DAV:   5    -0.391379159142E+03   -0.13551E-02   -0.40593E-03 47616   0.240E-01    0.131E-01
DAV:   6    -0.391379349456E+03   -0.19031E-03   -0.17879E-03 46592   0.109E-01    0.642E-02
DAV:   7    -0.391379329789E+03    0.19667E-04   -0.26815E-04 52344   0.381E-02    0.359E-02
DAV:   8    -0.391379315592E+03    0.14197E-04   -0.28431E-05 37632   0.237E-02    0.196E-02
DAV:   9    -0.391379309142E+03    0.64503E-05   -0.16044E-05 29472   0.238E-02
  44 F= -.39137931E+03 E0= -.39137931E+03  d E =0.422065E-01  mag=    36.0000
       N       E                     dE             d eps       ncg     rms          rms(c)
DAV:   1    -0.391174504693E+03    0.20481E+00   -0.33047E+01 38296   0.188E+01    0.200E+00
DAV:   2    -0.391388781274E+03   -0.21428E+00   -0.21271E+00 35968   0.335E+00    0.985E-01
DAV:   3    -0.391402758510E+03   -0.13977E-01   -0.38095E-02 48168   0.526E-01    0.542E-01
DAV:   4    -0.391402764099E+03   -0.55893E-05   -0.37072E-03 56504   0.157E-01    0.315E-01
DAV:   5    -0.391403396665E+03   -0.63257E-03   -0.17247E-03 44040   0.126E-01    0.787E-02
DAV:   6    -0.391403450670E+03   -0.54005E-04   -0.48945E-04 46056   0.544E-02    0.373E-02
DAV:   7    -0.391403444875E+03    0.57947E-05   -0.78760E-05 41920   0.220E-02
  45 F= -.39140344E+03 E0= -.39140344E+03  d E =-.241357E-01  mag=    36.0000
       N       E                     dE             d eps       ncg     rms          rms(c)
DAV:   1    -0.391147942319E+03    0.25551E+00   -0.33524E+01 38000   0.198E+01    0.214E+00
DAV:   2    -0.391402992489E+03   -0.25505E+00   -0.24985E+00 35800   0.358E+00    0.103E+00
DAV:   3    -0.391417804436E+03   -0.14812E-01   -0.44882E-02 47016   0.562E-01    0.555E-01
DAV:   4    -0.391417882232E+03   -0.77796E-04   -0.42134E-03 56072   0.172E-01    0.335E-01
DAV:   5    -0.391418472002E+03   -0.58977E-03   -0.15696E-03 45872   0.142E-01    0.805E-02
DAV:   6    -0.391418550011E+03   -0.78010E-04   -0.63955E-04 46432   0.641E-02    0.392E-02
DAV:   7    -0.391418542717E+03    0.72942E-05   -0.90102E-05 44792   0.231E-02
  46 F= -.39141854E+03 E0= -.39141854E+03  d E =-.150978E-01  mag=    36.0000
       N       E                     dE             d eps       ncg     rms          rms(c)
DAV:   1    -0.391325534781E+03    0.93015E-01   -0.74435E+00 38592   0.979E+00    0.122E+00
DAV:   2    -0.391403738085E+03   -0.78203E-01   -0.76372E-01 36160   0.184E+00    0.605E-01
DAV:   3    -0.391409195339E+03   -0.54573E-02   -0.13971E-02 44880   0.303E-01    0.325E-01
DAV:   4    -0.391409304664E+03   -0.10933E-03   -0.12223E-03 56456   0.967E-02    0.194E-01
DAV:   5    -0.391409531822E+03   -0.22716E-03   -0.49324E-04 45208   0.847E-02    0.438E-02
DAV:   6    -0.391409552419E+03   -0.20598E-04   -0.20116E-04 45136   0.376E-02    0.209E-02
DAV:   7    -0.391409549864E+03    0.25556E-05   -0.29442E-05 35104   0.135E-02
  47 F= -.39140955E+03 E0= -.39140955E+03  d E =0.899285E-02  mag=    36.0000
       N       E                     dE             d eps       ncg     rms          rms(c)
DAV:   1    -0.391377473163E+03    0.32079E-01   -0.41157E+00 38208   0.667E+00    0.665E-01
DAV:   2    -0.391402274292E+03   -0.24801E-01   -0.24923E-01 35792   0.119E+00    0.327E-01
DAV:   3    -0.391403693900E+03   -0.14196E-02   -0.43232E-03 49216   0.181E-01    0.184E-01
DAV:   4    -0.391403653182E+03    0.40718E-04   -0.46262E-04 56776   0.574E-02    0.107E-01
DAV:   5    -0.391403704294E+03   -0.51112E-04   -0.20328E-04 45560   0.469E-02    0.288E-02
DAV:   6    -0.391403710934E+03   -0.66394E-05   -0.72887E-05 41672   0.214E-02
  48 F= -.39140371E+03 E0= -.39140371E+03  d E =0.583893E-02  mag=    36.0000
       N       E                     dE             d eps       ncg     rms          rms(c)
DAV:   1    -0.391398746350E+03    0.49579E-02   -0.61516E-01 38616   0.278E+00    0.314E-01
DAV:   2    -0.391404064230E+03   -0.53179E-02   -0.51592E-02 35928   0.504E-01    0.151E-01
DAV:   3    -0.391404418899E+03   -0.35467E-03   -0.88708E-04 48936   0.784E-02    0.805E-02
DAV:   4    -0.391404420609E+03   -0.17094E-05   -0.79081E-05 45864   0.228E-02
  49 F= -.39140442E+03 E0= -.39140442E+03  d E =-.709675E-03  mag=    36.0000
