       N       E                     dE             d eps       ncg     rms          ort
DAV:   1     0.894830987682E+04    0.89483E+04   -0.41424E+05  8208   0.179E+03
DAV:   2     0.625395310485E+03   -0.83229E+04   -0.78008E+04  8208   0.527E+02
DAV:   3    -0.350926033194E+03   -0.97632E+03   -0.94072E+03  8208   0.202E+02
DAV:   4    -0.394317774690E+03   -0.43392E+02   -0.42867E+02  8208   0.400E+01
DAV:   5    -0.396383269484E+03   -0.20655E+01   -0.20474E+01  8208   0.741E+00
SDA:   6    -0.186794059250E+03    0.20959E+03   -0.20474E+01  8208   0.147E+04 0.000E+00
CGA:   7    -0.297667424712E+03   -0.11087E+03   -0.12006E+03  8208   0.877E+03-0.414E+02
CGA:   8    -0.320509935075E+03   -0.22843E+02   -0.24100E+02  8208   0.238E+03 0.165E+03
CGA:   9    -0.321304277526E+03   -0.79434E+00   -0.13715E+02  8208   0.556E+03-0.175E+01
CGA:  10    -0.311083995686E+03    0.10220E+02   -0.19312E+02  8208   0.161E+04-0.683E+03
CGA:  11    -0.307478913991E+03    0.36051E+01   -0.94704E+02  8208   0.193E+04-0.134E+04
CGA:  12    -0.332184494255E+03   -0.24706E+02   -0.70803E+02  8208   0.240E+03-0.105E+03
CGA:  13    -0.337551506857E+03   -0.53670E+01   -0.50124E+01  8208   0.146E+03 0.526E+02
CGA:  14    -0.329632180241E+03    0.79193E+01   -0.44853E+01  8208   0.652E+03-0.207E+03
CGA:  15    -0.335909971790E+03   -0.62778E+01   -0.21674E+02  8208   0.108E+03-0.720E+02
CGA:  16    -0.337896412380E+03   -0.19864E+01   -0.96143E+00  8208   0.768E+02 0.952E+02
CGA:  17    -0.339885476950E+03   -0.19891E+01   -0.13135E+01  8208   0.429E+02 0.318E+02
CGA:  18    -0.339345916199E+03    0.53956E+00   -0.10960E+01  8208   0.312E+03-0.385E+03
CGA:  19    -0.337109534051E+03    0.22364E+01   -0.16412E+02  8208   0.185E+03-0.540E+02
CGA:  20    -0.338962993504E+03   -0.18535E+01   -0.44379E+01  8208   0.293E+03-0.108E+02
CGA:  21    -0.327760438126E+03    0.11203E+02   -0.86807E+01  8208   0.211E+03-0.105E+03
CGA:  22    -0.330367201683E+03   -0.26068E+01   -0.11367E+01  8208   0.259E+03 0.188E+03
CGA:  23    -0.342641199917E+03   -0.12274E+02   -0.35011E+01  8208   0.181E+02 0.692E+02
CGA:  24    -0.342890650606E+03   -0.24945E+00   -0.23654E+00  8208   0.243E+02 0.183E+01
CGA:  25    -0.343547138366E+03   -0.65649E+00   -0.22810E+00  8208   0.375E+02 0.460E+02
CGA:  26    -0.343344834664E+03    0.20230E+00   -0.99907E+00  8208   0.635E+02-0.370E+02
CGA:  27    -0.343579416961E+03   -0.23458E+00   -0.12038E+01  8208   0.815E+02-0.792E+02
CGA:  28    -0.342599884925E+03    0.97953E+00   -0.26119E+01  8208   0.892E+02-0.435E+02
CGA:  29    -0.343803613512E+03   -0.12037E+01   -0.17627E+01  8208   0.703E+02-0.106E+03
CGA:  30    -0.343445101383E+03    0.35851E+00   -0.17589E+01  8208   0.862E+02-0.618E+02
CGA:  31    -0.343861851640E+03   -0.41675E+00   -0.16773E+01  8208   0.973E+02-0.104E+03
CGA:  32    -0.343398484851E+03    0.46337E+00   -0.25495E+01  8208   0.814E+02-0.569E+02
CGA:  33    -0.344694920775E+03   -0.12964E+01   -0.13390E+01  8208   0.203E+02-0.468E+02
CGA:  34    -0.344895808591E+03   -0.20089E+00   -0.32562E+00  8208   0.749E+01-0.751E+01
CGA:  35    -0.345090838548E+03   -0.19503E+00   -0.15720E+00  8208   0.497E+01 0.632E+00
CGA:  36    -0.345334423154E+03   -0.24358E+00   -0.23387E+00  8208   0.816E+01 0.243E+00
CGA:  37    -0.345585406120E+03   -0.25098E+00   -0.15642E+00  8208   0.508E+01 0.422E+01
CGA:  38    -0.345668953417E+03   -0.83547E-01   -0.12049E+00  8208   0.308E+01-0.976E+00
CGA:  39    -0.345989752621E+03   -0.32080E+00   -0.36329E+00  8208   0.150E+02-0.107E+01
CGA:  40    -0.346130988748E+03   -0.14124E+00   -0.91095E-01  8208   0.123E+02 0.517E+01
CGA:  41    -0.346008890308E+03    0.12210E+00   -0.15814E+00  8208   0.187E+02-0.437E+02
CGA:  42    -0.346190410708E+03   -0.18152E+00   -0.36074E+00  8208   0.889E+01-0.764E+01
CGA:  43    -0.346329338557E+03   -0.13893E+00   -0.13138E+00  8208   0.226E+01 0.124E+00
CGA:  44    -0.346416096956E+03   -0.86758E-01   -0.88328E-01  8208   0.218E+01-0.798E-03
CGA:  45    -0.346525524395E+03   -0.10943E+00   -0.11081E+00  8208   0.163E+01 0.197E+00
CGA:  46    -0.346620607081E+03   -0.95083E-01   -0.95190E-01  8208   0.111E+01 0.241E+00
CGA:  47    -0.346668043555E+03   -0.47436E-01   -0.48568E-01  8208   0.793E+00 0.158E-01
CGA:  48    -0.346711070086E+03   -0.43027E-01   -0.43024E-01  8208   0.770E+00 0.159E-01
CGA:  49    -0.346755076185E+03   -0.44006E-01   -0.44355E-01  8208   0.413E+00-0.423E-01
CGA:  50    -0.346773112675E+03   -0.18036E-01   -0.18206E-01  8208   0.290E+00 0.838E-02
CGA:  51    -0.346787721215E+03   -0.14609E-01   -0.14656E-01  8208   0.177E+00 0.482E-02
CGA:  52    -0.346797311447E+03   -0.95902E-02   -0.95782E-02  8208   0.845E-01 0.116E-01
CGA:  53    -0.346801886612E+03   -0.45752E-02   -0.45813E-02  8208   0.656E-01 0.656E-03
CGA:  54    -0.346806131137E+03   -0.42445E-02   -0.41780E-02  8208   0.545E-01 0.378E-02
CGA:  55    -0.346810991617E+03   -0.48605E-02   -0.48255E-02  8208   0.690E-01 0.740E-03
CGA:  56    -0.346816036311E+03   -0.50447E-02   -0.48723E-02  8208   0.452E-01 0.804E-02
CGA:  57    -0.346818682543E+03   -0.26462E-02   -0.26367E-02  8208   0.340E-01-0.127E-02
CGA:  58    -0.346822362821E+03   -0.36803E-02   -0.33866E-02  8208   0.283E-01 0.547E-02
CGA:  59    -0.346824288321E+03   -0.19255E-02   -0.19272E-02  8208   0.269E-01-0.791E-03
CGA:  60    -0.346826499022E+03   -0.22107E-02   -0.21018E-02  8208   0.142E-01 0.360E-02
CGA:  61    -0.346828596739E+03   -0.20977E-02   -0.20006E-02  8208   0.120E-01 0.139E-02
CGA:  62    -0.346830354536E+03   -0.17578E-02   -0.17627E-02  8208   0.170E-01-0.892E-04
CGA:  63    -0.346832062403E+03   -0.17079E-02   -0.16433E-02  8208   0.656E-02 0.155E-02
CGA:  64    -0.346832753275E+03   -0.69087E-03   -0.67895E-03  8208   0.103E-01 0.329E-03
CGA:  65    -0.346833897669E+03   -0.11444E-02   -0.11687E-02  8208   0.118E-01-0.531E-03
CGA:  66    -0.346834749394E+03   -0.85173E-03   -0.84928E-03  8208   0.463E-02 0.235E-03
CGA:  67    -0.346835257486E+03   -0.50809E-03   -0.50632E-03  8208   0.488E-02 0.405E-04
CGA:  68    -0.346836069193E+03   -0.81171E-03   -0.82265E-03  8208   0.548E-02-0.129E-03
CGA:  69    -0.346836346597E+03   -0.27740E-03   -0.27973E-03  8208   0.286E-02 0.696E-05
CGA:  70    -0.346836660836E+03   -0.31424E-03   -0.31439E-03  8208   0.230E-02-0.963E-06
CGA:  71    -0.346836962819E+03   -0.30198E-03   -0.30052E-03  8208   0.159E-02 0.279E-04
SDA:  72    -0.346837074522E+03   -0.11170E-03   -0.11200E-03  8208   0.137E-02 0.235E-04
CGA:  73    -0.346837151052E+03   -0.76531E-04   -0.76575E-04  8208   0.117E-02 0.503E-05
CGA:  74    -0.346837344095E+03   -0.19304E-03   -0.19042E-03  8208   0.152E-02 0.315E-04
CGA:  75    -0.346837579449E+03   -0.23535E-03   -0.23452E-03  8208   0.102E-02 0.122E-04
CGA:  76    -0.346837725850E+03   -0.14640E-03   -0.14570E-03  8208   0.724E-03 0.120E-04
CGA:  77    -0.346837779184E+03   -0.53335E-04   -0.53374E-04  8208   0.176E-03 0.448E-05
CGA:  78    -0.346837793038E+03   -0.13854E-04   -0.13855E-04  8208   0.197E-03 0.277E-06
CGA:  79    -0.346837812852E+03   -0.19814E-04   -0.19833E-04  8208   0.157E-03-0.175E-05
CGA:  80    -0.346837831338E+03   -0.18485E-04   -0.18619E-04  8208   0.971E-04-0.435E-05
CGA:  81    -0.346837844500E+03   -0.13162E-04   -0.13417E-04  8208   0.981E-04-0.496E-05
CGA:  82    -0.346837854546E+03   -0.10046E-04   -0.10099E-04  8208   0.726E-04-0.334E-05
CGA:  83    -0.346837868956E+03   -0.14410E-04   -0.14515E-04  8208   0.429E-04-0.963E-06
CGA:  84    -0.346837873328E+03   -0.43718E-05   -0.43690E-05  8208   0.755E-04 0.678E-06
   1 F= -.34683787E+03 E0= -.34682046E+03  d E =-.346838E+03  mag=    30.8384
       N       E                     dE             d eps       ncg     rms          ort
SDA:   1    -0.346853495362E+03   -0.15626E-01    0.00000E+00  8208   0.981E-02 0.000E+00
CGA:   2    -0.346853923883E+03   -0.42852E-03   -0.42318E-03  8208   0.439E-02 0.749E-04
CGA:   3    -0.346854450782E+03   -0.52690E-03   -0.52694E-03  8208   0.436E-02-0.992E-07
CGA:   4    -0.346854841841E+03   -0.39106E-03   -0.39116E-03  8208   0.121E-02 0.787E-05
CGA:   5    -0.346854944731E+03   -0.10289E-03   -0.10289E-03  8208   0.459E-03-0.105E-05
CGA:   6    -0.346855002285E+03   -0.57553E-04   -0.57519E-04  8208   0.195E-03 0.113E-05
CGA:   7    -0.346855011664E+03   -0.93794E-05   -0.94038E-05  8208   0.947E-04 0.323E-06
   2 F= -.34685501E+03 E0= -.34683767E+03  d E =-.171383E-01  mag=    30.8271
       N       E                     dE             d eps       ncg     rms          ort
SDA:   1    -0.342320245572E+03    0.45348E+01    0.00000E+00  8208   0.138E+02 0.000E+00
CGA:   2    -0.346176249479E+03   -0.38560E+01   -0.38588E+01  8208   0.152E+02 0.220E-01
CGA:   3    -0.346867059539E+03   -0.69081E+00   -0.81724E+00  8208   0.741E+01-0.108E+01
CGA:   4    -0.347467696131E+03   -0.60064E+00   -0.59877E+00  8208   0.225E+01-0.345E-01
CGA:   5    -0.347658187512E+03   -0.19049E+00   -0.18958E+00  8208   0.113E+01-0.159E-01
CGA:   6    -0.347742367487E+03   -0.84180E-01   -0.85297E-01  8208   0.510E+00 0.884E-02
CGA:   7    -0.347775784928E+03   -0.33417E-01   -0.33871E-01  8208   0.255E+00-0.388E-04
CGA:   8    -0.347795652723E+03   -0.19868E-01   -0.19648E-01  8208   0.982E-01-0.240E-02
CGA:   9    -0.347806571740E+03   -0.10919E-01   -0.10911E-01  8208   0.697E-01 0.369E-03
CGA:  10    -0.347810255355E+03   -0.36836E-02   -0.37217E-02  8208   0.284E-01-0.249E-03
CGA:  11    -0.347814073252E+03   -0.38179E-02   -0.38229E-02  8208   0.177E-01-0.929E-04
CGA:  12    -0.347815265257E+03   -0.11920E-02   -0.11938E-02  8208   0.117E-01 0.175E-04
CGA:  13    -0.347816324243E+03   -0.10590E-02   -0.10592E-02  8208   0.738E-02 0.257E-04
CGA:  14    -0.347817124835E+03   -0.80059E-03   -0.79988E-03  8208   0.536E-02 0.393E-04
CGA:  15    -0.347817484986E+03   -0.36015E-03   -0.35972E-03  8208   0.298E-02 0.244E-05
CGA:  16    -0.347817792986E+03   -0.30800E-03   -0.30792E-03  8208   0.231E-02 0.754E-05
CGA:  17    -0.347817971977E+03   -0.17899E-03   -0.17911E-03  8208   0.116E-02 0.626E-05
CGA:  18    -0.347818076227E+03   -0.10425E-03   -0.10429E-03  8208   0.805E-03 0.820E-05
CGA:  19    -0.347818136665E+03   -0.60438E-04   -0.60566E-04  8208   0.501E-03 0.723E-05
CGA:  20    -0.347818182889E+03   -0.46224E-04   -0.46237E-04  8208   0.198E-03 0.847E-05
CGA:  21    -0.347818201112E+03   -0.18223E-04   -0.18230E-04  8208   0.222E-03 0.281E-05
CGA:  22    -0.347818220103E+03   -0.18991E-04   -0.19010E-04  8208   0.911E-04 0.227E-05
CGA:  23    -0.347818231128E+03   -0.11025E-04   -0.11030E-04  8208   0.951E-04-0.263E-06
CGA:  24    -0.347818237589E+03   -0.64605E-05   -0.64553E-05  8208   0.562E-04-0.333E-06
   3 F= -.34781824E+03 E0= -.34780115E+03  d E =-.963226E+00  mag=    30.7759
       N       E                     dE             d eps       ncg     rms          ort
SDA:   1    -0.320652890702E+03    0.27165E+02    0.00000E+00  8208   0.860E+02 0.000E+00
CGA:   2    -0.337106341136E+03   -0.16453E+02   -0.15876E+02  8208   0.845E+02 0.815E+01
CGA:   3    -0.343532146329E+03   -0.64258E+01   -0.64181E+01  8208   0.455E+02-0.148E+01
CGA:   4    -0.346477809203E+03   -0.29457E+01   -0.31226E+01  8208   0.190E+02 0.871E+00
CGA:   5    -0.347460249004E+03   -0.98244E+00   -0.69702E+00  8208   0.105E+02 0.502E+01
CGA:   6    -0.348366706524E+03   -0.90646E+00   -0.88032E+00  8208   0.720E+01 0.158E+00
CGA:   7    -0.348547535683E+03   -0.18083E+00   -0.26497E+00  8208   0.850E+01-0.148E+01
CGA:   8    -0.348859130095E+03   -0.31159E+00   -0.31647E+00  8208   0.551E+01-0.359E-01
CGA:   9    -0.348994593939E+03   -0.13546E+00   -0.13265E+00  8208   0.104E+01-0.588E-01
CGA:  10    -0.349034245196E+03   -0.39651E-01   -0.35232E-01  8208   0.122E+01 0.804E-01
CGA:  11    -0.349126226443E+03   -0.91981E-01   -0.92767E-01  8208   0.182E+01 0.259E-01
CGA:  12    -0.349166258333E+03   -0.40032E-01   -0.48634E-01  8208   0.519E+00-0.244E+00
CGA:  13    -0.349186702486E+03   -0.20444E-01   -0.21257E-01  8208   0.285E+00-0.294E-02
CGA:  14    -0.349200287407E+03   -0.13585E-01   -0.13676E-01  8208   0.238E+00-0.105E-03
CGA:  15    -0.349217393453E+03   -0.17106E-01   -0.17127E-01  8208   0.195E+00 0.303E-02
CGA:  16    -0.349227056023E+03   -0.96626E-02   -0.97934E-02  8208   0.135E+00 0.501E-04
CGA:  17    -0.349233629548E+03   -0.65735E-02   -0.66240E-02  8208   0.466E-01 0.435E-04
CGA:  18    -0.349237679324E+03   -0.40498E-02   -0.40405E-02  8208   0.791E-01 0.447E-03
CGA:  19    -0.349242247708E+03   -0.45684E-02   -0.45703E-02  8208   0.156E-01 0.673E-04
CGA:  20    -0.349243275290E+03   -0.10276E-02   -0.10280E-02  8208   0.199E-01 0.231E-04
CGA:  21    -0.349244812116E+03   -0.15368E-02   -0.15366E-02  8208   0.908E-02 0.184E-04
CGA:  22    -0.349245477064E+03   -0.66495E-03   -0.66487E-03  8208   0.103E-01 0.528E-04
CGA:  23    -0.349246088768E+03   -0.61170E-03   -0.61275E-03  8208   0.391E-02 0.366E-04
CGA:  24    -0.349246373093E+03   -0.28432E-03   -0.28431E-03  8208   0.308E-02 0.201E-04
CGA:  25    -0.349246556362E+03   -0.18327E-03   -0.18360E-03  8208   0.222E-02 0.181E-04
CGA:  26    -0.349246762313E+03   -0.20595E-03   -0.20539E-03  8208   0.162E-02 0.238E-04
CGA:  27    -0.349246860480E+03   -0.98167E-04   -0.98191E-04  8208   0.102E-02 0.147E-05
CGA:  28    -0.349246926933E+03   -0.66453E-04   -0.66457E-04  8208   0.671E-03-0.852E-06
CGA:  29    -0.349247022438E+03   -0.95505E-04   -0.95552E-04  8208   0.889E-03-0.107E-05
CGA:  30    -0.349247060659E+03   -0.38221E-04   -0.38427E-04  8208   0.298E-03-0.812E-06
CGA:  31    -0.349247109823E+03   -0.49164E-04   -0.48307E-04  8208   0.472E-03 0.948E-05
SDA:  32    -0.349247135260E+03   -0.25436E-04   -0.25575E-04  8208   0.282E-03 0.348E-05
CGA:  33    -0.349247156441E+03   -0.21181E-04   -0.21177E-04  8208   0.264E-03-0.330E-05
CGA:  34    -0.349247177651E+03   -0.21210E-04   -0.21223E-04  8208   0.135E-03-0.292E-05
CGA:  35    -0.349247202065E+03   -0.24415E-04   -0.24195E-04  8208   0.148E-03 0.207E-05
CGA:  36    -0.349247217952E+03   -0.15887E-04   -0.15809E-04  8208   0.878E-04 0.320E-05
CGA:  37    -0.349247232594E+03   -0.14642E-04   -0.14378E-04  8208   0.103E-03 0.337E-05
CGA:  38    -0.349247248978E+03   -0.16384E-04   -0.16436E-04  8208   0.257E-03-0.768E-06
CGA:  39    -0.349247275113E+03   -0.26135E-04   -0.26066E-04  8208   0.219E-03 0.343E-05
CGA:  40    -0.349247315339E+03   -0.40225E-04   -0.39594E-04  8208   0.219E-03 0.694E-05
CGA:  41    -0.349247351319E+03   -0.35980E-04   -0.35876E-04  8208   0.468E-03 0.259E-05
CGA:  42    -0.349247382765E+03   -0.31446E-04   -0.32474E-04  8208   0.144E-03 0.140E-04
CGA:  43    -0.349247409002E+03   -0.26237E-04   -0.25324E-04  8208   0.276E-03 0.118E-04
CGA:  44    -0.349247431247E+03   -0.22246E-04   -0.22198E-04  8208   0.142E-03 0.372E-05
CGA:  45    -0.349247442841E+03   -0.11594E-04   -0.11687E-04  8208   0.869E-04 0.350E-05
CGA:  46    -0.349247456843E+03   -0.14002E-04   -0.13773E-04  8208   0.103E-03 0.391E-05
CGA:  47    -0.349247464809E+03   -0.79661E-05   -0.80180E-05  8208   0.713E-04 0.235E-05
   4 F= -.34924746E+03 E0= -.34923314E+03  d E =-.142923E+01  mag=    30.4192
       N       E                     dE             d eps       ncg     rms          ort
SDA:   1    -0.330285087245E+03    0.18962E+02    0.00000E+00  8208   0.619E+02 0.000E+00
CGA:   2    -0.339973155685E+03   -0.96881E+01   -0.96044E+01  8208   0.652E+02 0.162E+01
CGA:   3    -0.345463309272E+03   -0.54902E+01   -0.50450E+01  8208   0.276E+02-0.344E+01
CGA:   4    -0.348036072709E+03   -0.25728E+01   -0.25733E+01  8208   0.122E+02 0.124E+00
CGA:   5    -0.348929293584E+03   -0.89322E+00   -0.87188E+00  8208   0.898E+01 0.952E-02
CGA:   6    -0.349315202947E+03   -0.38591E+00   -0.37114E+00  8208   0.234E+01 0.743E-01
CGA:   7    -0.349587052057E+03   -0.27185E+00   -0.27372E+00  8208   0.119E+01-0.708E-01
CGA:   8    -0.349662679917E+03   -0.75628E-01   -0.75984E-01  8208   0.656E+00 0.103E-02
CGA:   9    -0.349708713393E+03   -0.46033E-01   -0.45865E-01  8208   0.373E+00-0.102E-02
CGA:  10    -0.349739915638E+03   -0.31202E-01   -0.31634E-01  8208   0.237E+00 0.178E-01
CGA:  11    -0.349757730081E+03   -0.17814E-01   -0.17836E-01  8208   0.871E-01 0.213E-03
CGA:  12    -0.349768211572E+03   -0.10481E-01   -0.10470E-01  8208   0.962E-01 0.280E-03
CGA:  13    -0.349774080851E+03   -0.58693E-02   -0.59784E-02  8208   0.335E-01-0.541E-04
CGA:  14    -0.349777959055E+03   -0.38782E-02   -0.38645E-02  8208   0.233E-01 0.418E-03
CGA:  15    -0.349780441048E+03   -0.24820E-02   -0.24720E-02  8208   0.221E-01 0.561E-03
CGA:  16    -0.349782014240E+03   -0.15732E-02   -0.15749E-02  8208   0.635E-02 0.260E-04
CGA:  17    -0.349782902730E+03   -0.88849E-03   -0.87794E-03  8208   0.601E-02 0.196E-03
CGA:  18    -0.349783373327E+03   -0.47060E-03   -0.47175E-03  8208   0.324E-02 0.245E-04
CGA:  19    -0.349783697514E+03   -0.32419E-03   -0.32373E-03  8208   0.144E-02 0.580E-04
CGA:  20    -0.349783882284E+03   -0.18477E-03   -0.18414E-03  8208   0.160E-02 0.191E-04
CGA:  21    -0.349784025431E+03   -0.14315E-03   -0.14357E-03  8208   0.762E-03 0.304E-04
CGA:  22    -0.349784129681E+03   -0.10425E-03   -0.10395E-03  8208   0.793E-03 0.788E-05
CGA:  23    -0.349784231132E+03   -0.10145E-03   -0.10020E-03  8208   0.739E-03 0.353E-04
CGA:  24    -0.349784326080E+03   -0.94948E-04   -0.95000E-04  8208   0.610E-03 0.335E-06
CGA:  25    -0.349784407670E+03   -0.81590E-04   -0.80157E-04  8208   0.650E-03 0.351E-04
CGA:  26    -0.349784499011E+03   -0.91341E-04   -0.91696E-04  8208   0.505E-03-0.664E-05
CGA:  27    -0.349784571003E+03   -0.71991E-04   -0.70476E-04  8208   0.409E-03 0.314E-04
CGA:  28    -0.349784617498E+03   -0.46496E-04   -0.46501E-04  8208   0.307E-03-0.119E-05
CGA:  29    -0.349784664038E+03   -0.46540E-04   -0.45706E-04  8208   0.176E-03 0.155E-04
CGA:  30    -0.349784686368E+03   -0.22330E-04   -0.22332E-04  8208   0.127E-03 0.330E-06
CGA:  31    -0.349784705023E+03   -0.18655E-04   -0.18546E-04  8208   0.116E-03 0.224E-05
SDA:  32    -0.349784717642E+03   -0.12618E-04   -0.12616E-04  8208   0.508E-04-0.647E-06
CGA:  33    -0.349784721888E+03   -0.42462E-05   -0.42427E-05  8208   0.420E-04-0.134E-06
   5 F= -.34978472E+03 E0= -.34977175E+03  d E =-.537257E+00  mag=    30.2496
       N       E                     dE             d eps       ncg     rms          ort
SDA:   1    -0.332365396805E+03    0.17419E+02    0.00000E+00  8208   0.596E+02 0.000E+00
CGA:   2    -0.340423123994E+03   -0.80577E+01   -0.81045E+01  8208   0.587E+02-0.604E+00
CGA:   3    -0.345346581168E+03   -0.49235E+01   -0.42836E+01  8208   0.234E+02 0.614E+00
CGA:   4    -0.348185923055E+03   -0.28393E+01   -0.28694E+01  8208   0.175E+02-0.230E+01
CGA:   5    -0.349147428771E+03   -0.96151E+00   -0.91410E+00  8208   0.734E+01 0.278E+00
CGA:   6    -0.349501735855E+03   -0.35431E+00   -0.37055E+00  8208   0.357E+01-0.224E+00
CGA:   7    -0.349744084629E+03   -0.24235E+00   -0.24768E+00  8208   0.166E+01-0.367E-02
CGA:   8    -0.349859763244E+03   -0.11568E+00   -0.11604E+00  8208   0.615E+00-0.175E-02
CGA:   9    -0.349907385467E+03   -0.47622E-01   -0.46876E-01  8208   0.484E+00-0.334E-02
CGA:  10    -0.349939716241E+03   -0.32331E-01   -0.33023E-01  8208   0.277E+00 0.631E-03
CGA:  11    -0.349958529165E+03   -0.18813E-01   -0.19196E-01  8208   0.942E-01 0.545E-03
CGA:  12    -0.349967922281E+03   -0.93931E-02   -0.93946E-02  8208   0.103E+00 0.287E-02
CGA:  13    -0.349975343158E+03   -0.74209E-02   -0.74933E-02  8208   0.412E-01 0.206E-03
CGA:  14    -0.349978419884E+03   -0.30767E-02   -0.31114E-02  8208   0.221E-01 0.347E-03
CGA:  15    -0.349981228277E+03   -0.28084E-02   -0.27709E-02  8208   0.254E-01 0.987E-03
CGA:  16    -0.349983088175E+03   -0.18599E-02   -0.18755E-02  8208   0.101E-01 0.942E-04
CGA:  17    -0.349984096339E+03   -0.10082E-02   -0.10072E-02  8208   0.761E-02 0.232E-03
CGA:  18    -0.349984959998E+03   -0.86366E-03   -0.86348E-03  8208   0.720E-02 0.155E-04
CGA:  19    -0.349985584271E+03   -0.62427E-03   -0.63014E-03  8208   0.300E-02 0.225E-03
CGA:  20    -0.349985984429E+03   -0.40016E-03   -0.40088E-03  8208   0.365E-02-0.121E-04
CGA:  21    -0.349986433890E+03   -0.44946E-03   -0.44073E-03  8208   0.248E-02 0.272E-03
CGA:  22    -0.349986709591E+03   -0.27570E-03   -0.27583E-03  8208   0.186E-02-0.137E-04
CGA:  23    -0.349987082000E+03   -0.37241E-03   -0.34659E-03  8208   0.199E-02 0.274E-03
CGA:  24    -0.349987312614E+03   -0.23061E-03   -0.23033E-03  8208   0.141E-02-0.314E-04
CGA:  25    -0.349987534034E+03   -0.22142E-03   -0.21236E-03  8208   0.116E-02 0.150E-03
CGA:  26    -0.349987697915E+03   -0.16388E-03   -0.16459E-03  8208   0.706E-03-0.227E-04
CGA:  27    -0.349987832890E+03   -0.13497E-03   -0.13115E-03  8208   0.484E-03 0.419E-04
CGA:  28    -0.349987893921E+03   -0.61031E-04   -0.61049E-04  8208   0.354E-03-0.213E-05
CGA:  29    -0.349987945254E+03   -0.51333E-04   -0.51301E-04  8208   0.260E-03 0.247E-06
CGA:  30    -0.349987977648E+03   -0.32394E-04   -0.32404E-04  8208   0.127E-03-0.833E-06
CGA:  31    -0.349987999729E+03   -0.22081E-04   -0.22102E-04  8208   0.131E-03-0.403E-06
SDA:  32    -0.349988016429E+03   -0.16700E-04   -0.16705E-04  8208   0.795E-04-0.441E-06
CGA:  33    -0.349988023629E+03   -0.72004E-05   -0.71766E-05  8208   0.481E-04-0.799E-06
CGA:  34    -0.349988033774E+03   -0.10145E-04   -0.10213E-04  8208   0.620E-04-0.718E-06
CGA:  35    -0.349988041256E+03   -0.74815E-05   -0.74818E-05  8208   0.208E-04-0.326E-06
   6 F= -.34998804E+03 E0= -.34997576E+03  d E =-.203319E+00  mag=    30.1734
       N       E                     dE             d eps       ncg     rms          ort
SDA:   1    -0.335750493622E+03    0.14238E+02    0.00000E+00  8208   0.430E+02 0.000E+00
CGA:   2    -0.342827942041E+03   -0.70774E+01   -0.72987E+01  8208   0.538E+02-0.270E+01
CGA:   3    -0.346663269131E+03   -0.38353E+01   -0.35047E+01  8208   0.178E+02 0.268E+01
CGA:   4    -0.348775511722E+03   -0.21122E+01   -0.20655E+01  8208   0.125E+02-0.142E+01
CGA:   5    -0.349552283401E+03   -0.77677E+00   -0.75406E+00  8208   0.326E+01 0.194E+00
CGA:   6    -0.349816031781E+03   -0.26375E+00   -0.26405E+00  8208   0.199E+01 0.310E-02
CGA:   7    -0.349967243978E+03   -0.15121E+00   -0.15304E+00  8208   0.580E+00 0.256E-03
CGA:   8    -0.350021806009E+03   -0.54562E-01   -0.54783E-01  8208   0.333E+00 0.296E-02
CGA:   9    -0.350053298633E+03   -0.31493E-01   -0.31547E-01  8208   0.149E+00 0.896E-03
CGA:  10    -0.350067667529E+03   -0.14369E-01   -0.14370E-01  8208   0.644E-01 0.115E-03
CGA:  11    -0.350074406994E+03   -0.67395E-02   -0.67651E-02  8208   0.460E-01 0.145E-02
CGA:  12    -0.350078946356E+03   -0.45394E-02   -0.45498E-02  8208   0.149E-01 0.251E-03
CGA:  13    -0.350081048163E+03   -0.21018E-02   -0.20871E-02  8208   0.147E-01 0.375E-03
CGA:  14    -0.350082744969E+03   -0.16968E-02   -0.16968E-02  8208   0.614E-02 0.459E-04
CGA:  15    -0.350083482030E+03   -0.73706E-03   -0.73460E-03  8208   0.431E-02 0.220E-03
CGA:  16    -0.350084111629E+03   -0.62960E-03   -0.62935E-03  8208   0.198E-02 0.998E-05
CGA:  17    -0.350084360360E+03   -0.24873E-03   -0.24797E-03  8208   0.117E-02 0.452E-04
CGA:  18    -0.350084505421E+03   -0.14506E-03   -0.14503E-03  8208   0.773E-03 0.614E-05
CGA:  19    -0.350084601727E+03   -0.96306E-04   -0.96173E-04  8208   0.276E-03 0.112E-04
CGA:  20    -0.350084659474E+03   -0.57747E-04   -0.57657E-04  8208   0.239E-03 0.978E-06
CGA:  21    -0.350084690610E+03   -0.31135E-04   -0.31056E-04  8208   0.154E-03 0.548E-05
CGA:  22    -0.350084711397E+03   -0.20787E-04   -0.20782E-04  8208   0.118E-03 0.546E-06
CGA:  23    -0.350084734640E+03   -0.23243E-04   -0.23232E-04  8208   0.707E-04-0.794E-07
CGA:  24    -0.350084745220E+03   -0.10580E-04   -0.10604E-04  8208   0.635E-04-0.102E-05
CGA:  25    -0.350084755228E+03   -0.10008E-04   -0.10026E-04  8208   0.425E-04-0.700E-06
CGA:  26    -0.350084760285E+03   -0.50563E-05   -0.50563E-05  8208   0.223E-04-0.338E-07
   7 F= -.35008476E+03 E0= -.35007322E+03  d E =-.967190E-01  mag=    30.1443
       N       E                     dE             d eps       ncg     rms          ort
SDA:   1    -0.316916530561E+03    0.33168E+02    0.00000E+00  8208   0.979E+02 0.000E+00
CGA:   2    -0.333696862650E+03   -0.16780E+02   -0.16974E+02  8208   0.160E+03-0.515E+00
CGA:   3    -0.343684737645E+03   -0.99879E+01   -0.11202E+02  8208   0.378E+02-0.209E+01
CGA:   4    -0.346965175681E+03   -0.32804E+01   -0.36208E+01  8208   0.421E+02 0.310E+01
CGA:   5    -0.346763700088E+03    0.20148E+00   -0.15914E+01  8208   0.116E+03-0.574E+02
CGA:   6    -0.346579814166E+03    0.18389E+00   -0.62648E+01  8208   0.784E+02-0.274E+02
CGA:   7    -0.347601062504E+03   -0.10212E+01   -0.27582E+01  8208   0.904E+02-0.209E+02
CGA:   8    -0.346185941409E+03    0.14151E+01   -0.21772E+01  8208   0.104E+03-0.604E+02
CGA:   9    -0.347438438687E+03   -0.12525E+01   -0.42934E+01  8208   0.687E+02-0.729E+02
CGA:  10    -0.349261145925E+03   -0.18227E+01   -0.20154E+01  8208   0.252E+02-0.480E+02
CGA:  11    -0.349796829963E+03   -0.53568E+00   -0.62695E+00  8208   0.676E+01-0.137E+02
CGA:  12    -0.349897953950E+03   -0.10112E+00   -0.15195E+00  8208   0.172E+01-0.223E+01
CGA:  13    -0.349969691538E+03   -0.71738E-01   -0.70367E-01  8208   0.110E+01-0.174E-03
CGA:  14    -0.350027405103E+03   -0.57714E-01   -0.61880E-01  8208   0.126E+01-0.215E-01
CGA:  15    -0.350120124851E+03   -0.92720E-01   -0.94348E-01  8208   0.109E+01 0.266E-01
CGA:  16    -0.350165015548E+03   -0.44891E-01   -0.49094E-01  8208   0.387E+00-0.534E-01
CGA:  17    -0.350184361838E+03   -0.19346E-01   -0.20279E-01  8208   0.252E+00-0.361E-02
CGA:  18    -0.350202180312E+03   -0.17818E-01   -0.18302E-01  8208   0.179E+00 0.105E-01
CGA:  19    -0.350212842020E+03   -0.10662E-01   -0.10955E-01  8208   0.975E-01 0.289E-03
CGA:  20    -0.350220319355E+03   -0.74773E-02   -0.75588E-02  8208   0.806E-01 0.397E-02
CGA:  21    -0.350227182510E+03   -0.68632E-02   -0.68932E-02  8208   0.561E-01 0.466E-02
CGA:  22    -0.350232155654E+03   -0.49731E-02   -0.49795E-02  8208   0.400E-01 0.274E-02
CGA:  23    -0.350236148753E+03   -0.39931E-02   -0.39362E-02  8208   0.241E-01 0.383E-02
CGA:  24    -0.350238725083E+03   -0.25763E-02   -0.25497E-02  8208   0.192E-01 0.150E-02
CGA:  25    -0.350241303585E+03   -0.25785E-02   -0.24473E-02  8208   0.101E-01 0.298E-02
CGA:  26    -0.350242470850E+03   -0.11673E-02   -0.11670E-02  8208   0.965E-02 0.241E-04
CGA:  27    -0.350244256617E+03   -0.17858E-02   -0.16302E-02  8208   0.234E-02 0.178E-02
CGA:  28    -0.350245111958E+03   -0.85534E-03   -0.87809E-03  8208   0.594E-02-0.147E-03
CGA:  29    -0.350245783101E+03   -0.67114E-03   -0.66102E-03  8208   0.230E-02 0.394E-03
CGA:  30    -0.350246058214E+03   -0.27511E-03   -0.27406E-03  8208   0.169E-02 0.810E-04
CGA:  31    -0.350246344418E+03   -0.28620E-03   -0.29073E-03  8208   0.148E-02-0.641E-04
CGA:  32    -0.350246523320E+03   -0.17890E-03   -0.17831E-03  8208   0.699E-03 0.175E-04
CGA:  33    -0.350246640029E+03   -0.11671E-03   -0.11685E-03  8208   0.703E-03-0.444E-05
CGA:  34    -0.350246727323E+03   -0.87293E-04   -0.87473E-04  8208   0.379E-03-0.109E-04
CGA:  35    -0.350246778390E+03   -0.51067E-04   -0.51054E-04  8208   0.252E-03 0.151E-06
CGA:  36    -0.350246824021E+03   -0.45631E-04   -0.45661E-04  8208   0.218E-03-0.374E-06
CGA:  37    -0.350246851374E+03   -0.27353E-04   -0.27369E-04  8208   0.137E-03-0.158E-05
CGA:  38    -0.350246872326E+03   -0.20952E-04   -0.21031E-04  8208   0.107E-03-0.226E-05
CGA:  39    -0.350246889555E+03   -0.17229E-04   -0.17242E-04  8208   0.719E-04-0.191E-06
CGA:  40    -0.350246898829E+03   -0.92740E-05   -0.92623E-05  8208   0.470E-04 0.150E-05
   8 F= -.35024690E+03 E0= -.35023691E+03  d E =-.162139E+00  mag=    30.1190
       N       E                     dE             d eps       ncg     rms          ort
SDA:   1    -0.340189034539E+03    0.10058E+02    0.00000E+00  8208   0.314E+02 0.000E+00
CGA:   2    -0.345699603576E+03   -0.55106E+01   -0.54657E+01  8208   0.249E+02 0.596E+00
CGA:   3    -0.348275602541E+03   -0.25760E+01   -0.24919E+01  8208   0.113E+02-0.672E-01
CGA:   4    -0.349759118192E+03   -0.14835E+01   -0.15051E+01  8208   0.401E+01-0.138E+01
CGA:   5    -0.350097602860E+03   -0.33848E+00   -0.34859E+00  8208   0.140E+01 0.112E+00
CGA:   6    -0.350221988959E+03   -0.12439E+00   -0.11518E+00  8208   0.601E+00 0.994E-02
CGA:   7    -0.350279134904E+03   -0.57146E-01   -0.57450E-01  8208   0.300E+00 0.293E-02
CGA:   8    -0.350304305156E+03   -0.25170E-01   -0.26027E-01  8208   0.116E+00 0.362E-02
CGA:   9    -0.350318590694E+03   -0.14286E-01   -0.14276E-01  8208   0.529E-01 0.105E-02
CGA:  10    -0.350324383693E+03   -0.57930E-02   -0.58372E-02  8208   0.259E-01 0.233E-02
CGA:  11    -0.350327641413E+03   -0.32577E-02   -0.32556E-02  8208   0.148E-01 0.345E-03
CGA:  12    -0.350329453303E+03   -0.18119E-02   -0.18087E-02  8208   0.747E-02 0.491E-03
CGA:  13    -0.350330605947E+03   -0.11526E-02   -0.11431E-02  8208   0.461E-02 0.221E-03
CGA:  14    -0.350331269898E+03   -0.66395E-03   -0.66260E-03  8208   0.238E-02 0.459E-04
CGA:  15    -0.350331632897E+03   -0.36300E-03   -0.36111E-03  8208   0.120E-02 0.439E-04
CGA:  16    -0.350331803758E+03   -0.17086E-03   -0.17067E-03  8208   0.605E-03 0.787E-05
CGA:  17    -0.350331890023E+03   -0.86265E-04   -0.86118E-04  8208   0.295E-03 0.532E-05
CGA:  18    -0.350331931136E+03   -0.41112E-04   -0.41062E-04  8208   0.154E-03 0.280E-05
CGA:  19    -0.350331954097E+03   -0.22962E-04   -0.22899E-04  8208   0.819E-04 0.236E-05
CGA:  20    -0.350331967343E+03   -0.13246E-04   -0.13209E-04  8208   0.549E-04 0.902E-06
CGA:  21    -0.350331976770E+03   -0.94266E-05   -0.94073E-05  8208   0.355E-04 0.336E-06
   9 F= -.35033198E+03 E0= -.35032262E+03  d E =-.850779E-01  mag=    30.0863
       N       E                     dE             d eps       ncg     rms          ort
SDA:   1    -0.333802536572E+03    0.16529E+02    0.00000E+00  8208   0.443E+02 0.000E+00
CGA:   2    -0.343465361958E+03   -0.96628E+01   -0.97940E+01  8208   0.684E+02-0.154E+01
CGA:   3    -0.347687215632E+03   -0.42219E+01   -0.45147E+01  8208   0.148E+02 0.306E+01
CGA:   4    -0.348940769724E+03   -0.12536E+01   -0.12612E+01  8208   0.156E+02 0.154E-01
CGA:   5    -0.349740918018E+03   -0.80015E+00   -0.62999E+00  8208   0.421E+01 0.317E+01
CGA:   6    -0.350044504870E+03   -0.30359E+00   -0.31386E+00  8208   0.296E+01-0.950E-01
CGA:   7    -0.350188950788E+03   -0.14445E+00   -0.17127E+00  8208   0.239E+01-0.178E+00
CGA:   8    -0.350275848753E+03   -0.86898E-01   -0.77565E-01  8208   0.108E+01 0.205E+00
CGA:   9    -0.350333402510E+03   -0.57554E-01   -0.51603E-01  8208   0.480E+00 0.114E+00
CGA:  10    -0.350354417081E+03   -0.21015E-01   -0.21849E-01  8208   0.428E+00-0.158E-01
CGA:  11    -0.350381846905E+03   -0.27430E-01   -0.27867E-01  8208   0.346E+00-0.630E-03
CGA:  12    -0.350395558791E+03   -0.13712E-01   -0.15325E-01  8208   0.129E+00-0.208E-01
CGA:  13    -0.350402130221E+03   -0.65714E-02   -0.67697E-02  8208   0.887E-01-0.132E-02
CGA:  14    -0.350407454422E+03   -0.53242E-02   -0.53887E-02  8208   0.525E-01-0.169E-03
CGA:  15    -0.350411814155E+03   -0.43597E-02   -0.44337E-02  8208   0.416E-01 0.186E-02
CGA:  16    -0.350414619155E+03   -0.28050E-02   -0.28506E-02  8208   0.162E-01 0.957E-04
CGA:  17    -0.350416131920E+03   -0.15128E-02   -0.15134E-02  8208   0.141E-01 0.102E-03
CGA:  18    -0.350417502951E+03   -0.13710E-02   -0.13708E-02  8208   0.902E-02 0.205E-03
CGA:  19    -0.350418275128E+03   -0.77218E-03   -0.77570E-03  8208   0.404E-02 0.120E-03
CGA:  20    -0.350418688173E+03   -0.41304E-03   -0.41266E-03  8208   0.345E-02 0.439E-04
CGA:  21    -0.350419085705E+03   -0.39753E-03   -0.39710E-03  8208   0.190E-02 0.169E-04
CGA:  22    -0.350419240591E+03   -0.15489E-03   -0.15511E-03  8208   0.946E-03 0.581E-05
CGA:  23    -0.350419346346E+03   -0.10575E-03   -0.10564E-03  8208   0.662E-03 0.594E-05
CGA:  24    -0.350419418534E+03   -0.72187E-04   -0.72116E-04  8208   0.427E-03 0.540E-05
CGA:  25    -0.350419459916E+03   -0.41382E-04   -0.41385E-04  8208   0.233E-03 0.169E-05
CGA:  26    -0.350419490941E+03   -0.31025E-04   -0.31029E-04  8208   0.226E-03-0.255E-06
CGA:  27    -0.350419516355E+03   -0.25414E-04   -0.25386E-04  8208   0.140E-03 0.175E-05
CGA:  28    -0.350419531176E+03   -0.14821E-04   -0.14809E-04  8208   0.865E-04 0.191E-05
CGA:  29    -0.350419544034E+03   -0.12859E-04   -0.12877E-04  8208   0.104E-03-0.468E-06
CGA:  30    -0.350419555771E+03   -0.11737E-04   -0.11764E-04  8208   0.490E-04-0.235E-05
CGA:  31    -0.350419561348E+03   -0.55764E-05   -0.56044E-05  8208   0.425E-04-0.201E-05
  10 F= -.35041956E+03 E0= -.35041078E+03  d E =-.875846E-01  mag=    30.0610
       N       E                     dE             d eps       ncg     rms          ort
SDA:   1    -0.305968213804E+03    0.44451E+02    0.00000E+00  8208   0.199E+03 0.000E+00
CGA:   2    -0.323823085114E+03   -0.17855E+02   -0.18489E+02  8208   0.103E+03 0.220E+02
CGA:   3    -0.337314828318E+03   -0.13492E+02   -0.14475E+02  8208   0.113E+03-0.352E+02
CGA:   4    -0.345400485471E+03   -0.80857E+01   -0.81928E+01  8208   0.252E+02-0.106E+02
CGA:   5    -0.347168566203E+03   -0.17681E+01   -0.15970E+01  8208   0.410E+02 0.263E+00
CGA:   6    -0.348993668001E+03   -0.18251E+01   -0.19742E+01  8208   0.652E+01-0.201E+01
CGA:   7    -0.349445831862E+03   -0.45216E+00   -0.46465E+00  8208   0.411E+01 0.980E-01
CGA:   8    -0.349861914453E+03   -0.41608E+00   -0.41722E+00  8208   0.409E+01-0.809E+00
CGA:   9    -0.350025286758E+03   -0.16337E+00   -0.16375E+00  8208   0.148E+01 0.310E-01
CGA:  10    -0.350105687442E+03   -0.80401E-01   -0.76612E-01  8208   0.116E+01 0.348E-01
CGA:  11    -0.350263956521E+03   -0.15827E+00   -0.16074E+00  8208   0.594E+00-0.514E-01
CGA:  12    -0.350300253357E+03   -0.36297E-01   -0.36498E-01  8208   0.580E+00 0.123E-02
CGA:  13    -0.350338122479E+03   -0.37869E-01   -0.39130E-01  8208   0.334E+00 0.523E-02
CGA:  14    -0.350367174806E+03   -0.29052E-01   -0.29251E-01  8208   0.351E+00 0.126E-01
CGA:  15    -0.350388625819E+03   -0.21451E-01   -0.22413E-01  8208   0.188E+00-0.190E-02
CGA:  16    -0.350402597092E+03   -0.13971E-01   -0.13908E-01  8208   0.126E+00-0.360E-03
CGA:  17    -0.350419348830E+03   -0.16752E-01   -0.16339E-01  8208   0.988E-01 0.628E-02
CGA:  18    -0.350426353589E+03   -0.70048E-02   -0.70928E-02  8208   0.529E-01 0.598E-03
CGA:  19    -0.350433362980E+03   -0.70094E-02   -0.67260E-02  8208   0.396E-01 0.588E-02
CGA:  20    -0.350438172489E+03   -0.48095E-02   -0.47954E-02  8208   0.328E-01 0.607E-03
CGA:  21    -0.350441382134E+03   -0.32096E-02   -0.32045E-02  8208   0.181E-01 0.126E-02
CGA:  22    -0.350444160243E+03   -0.27781E-02   -0.27733E-02  8208   0.134E-01 0.691E-04
CGA:  23    -0.350445998265E+03   -0.18380E-02   -0.18411E-02  8208   0.111E-01-0.650E-04
CGA:  24    -0.350447313211E+03   -0.13149E-02   -0.12940E-02  8208   0.649E-02 0.752E-03
CGA:  25    -0.350448403156E+03   -0.10899E-02   -0.10908E-02  8208   0.459E-02-0.158E-04
CGA:  26    -0.350449064682E+03   -0.66153E-03   -0.66133E-03  8208   0.312E-02 0.503E-05
CGA:  27    -0.350449454763E+03   -0.39008E-03   -0.38852E-03  8208   0.196E-02 0.494E-04
CGA:  28    -0.350449797320E+03   -0.34256E-03   -0.34312E-03  8208   0.115E-02-0.834E-05
CGA:  29    -0.350449950546E+03   -0.15323E-03   -0.15315E-03  8208   0.800E-03 0.158E-05
CGA:  30    -0.350450070813E+03   -0.12027E-03   -0.12039E-03  8208   0.549E-03-0.324E-05
CGA:  31    -0.350450149343E+03   -0.78530E-04   -0.78581E-04  8208   0.297E-03-0.160E-05
SDA:  32    -0.350450197696E+03   -0.48353E-04   -0.48244E-04  8208   0.235E-03 0.205E-05
CGA:  33    -0.350450222837E+03   -0.25141E-04   -0.25136E-04  8208   0.151E-03-0.707E-07
CGA:  34    -0.350450258385E+03   -0.35548E-04   -0.35227E-04  8208   0.857E-04 0.264E-05
CGA:  35    -0.350450270147E+03   -0.11761E-04   -0.11763E-04  8208   0.342E-04-0.182E-06
CGA:  36    -0.350450277621E+03   -0.74745E-05   -0.75208E-05  8208   0.386E-04-0.506E-06
  11 F= -.35045028E+03 E0= -.35044126E+03  d E =-.307163E-01  mag=    30.0660
       N       E                     dE             d eps       ncg     rms          ort
SDA:   1    -0.336757049148E+03    0.13693E+02    0.00000E+00  8208   0.593E+02 0.000E+00
CGA:   2    -0.343747204066E+03   -0.69902E+01   -0.70716E+01  8208   0.246E+02 0.312E+01
CGA:   3    -0.346802944102E+03   -0.30557E+01   -0.26806E+01  8208   0.196E+02-0.281E+01
CGA:   4    -0.349396034332E+03   -0.25931E+01   -0.26001E+01  8208   0.650E+01-0.351E+00
CGA:   5    -0.349890257129E+03   -0.49422E+00   -0.49024E+00  8208   0.793E+01-0.734E-01
CGA:   6    -0.350270727496E+03   -0.38047E+00   -0.39373E+00  8208   0.120E+01-0.216E+00
CGA:   7    -0.350398162776E+03   -0.12744E+00   -0.12782E+00  8208   0.138E+01 0.987E-02
CGA:   8    -0.350457736231E+03   -0.59573E-01   -0.65766E-01  8208   0.430E+00-0.100E+00
CGA:   9    -0.350490267374E+03   -0.32531E-01   -0.33069E-01  8208   0.252E+00 0.196E-02
CGA:  10    -0.350515137934E+03   -0.24871E-01   -0.25110E-01  8208   0.154E+00 0.445E-02
CGA:  11    -0.350526777462E+03   -0.11640E-01   -0.12064E-01  8208   0.848E-01-0.866E-04
CGA:  12    -0.350533189593E+03   -0.64121E-02   -0.66986E-02  8208   0.462E-01 0.785E-03
CGA:  13    -0.350539679492E+03   -0.64899E-02   -0.64491E-02  8208   0.170E-01 0.107E-02
CGA:  14    -0.350542326960E+03   -0.26475E-02   -0.25806E-02  8208   0.144E-01 0.140E-02
CGA:  15    -0.350543837554E+03   -0.15106E-02   -0.15114E-02  8208   0.844E-02 0.148E-04
CGA:  16    -0.350544903080E+03   -0.10655E-02   -0.10600E-02  8208   0.333E-02 0.290E-03
CGA:  17    -0.350545497174E+03   -0.59409E-03   -0.57636E-03  8208   0.226E-02 0.266E-03
CGA:  18    -0.350545788012E+03   -0.29084E-03   -0.29092E-03  8208   0.147E-02-0.274E-04
CGA:  19    -0.350545995628E+03   -0.20762E-03   -0.20600E-03  8208   0.710E-03 0.422E-04
CGA:  20    -0.350546091888E+03   -0.96259E-04   -0.96049E-04  8208   0.457E-03 0.101E-04
CGA:  21    -0.350546169050E+03   -0.77163E-04   -0.77061E-04  8208   0.252E-03 0.234E-05
CGA:  22    -0.350546203890E+03   -0.34840E-04   -0.34791E-04  8208   0.184E-03 0.205E-05
CGA:  23    -0.350546232541E+03   -0.28651E-04   -0.28626E-04  8208   0.115E-03 0.408E-06
CGA:  24    -0.350546249723E+03   -0.17182E-04   -0.17172E-04  8208   0.639E-04 0.217E-06
CGA:  25    -0.350546261448E+03   -0.11725E-04   -0.11766E-04  8208   0.549E-04-0.800E-06
CGA:  26    -0.350546269201E+03   -0.77529E-05   -0.77667E-05  8208   0.309E-04-0.973E-06
  12 F= -.35054627E+03 E0= -.35053807E+03  d E =-.959916E-01  mag=    30.0406
       N       E                     dE             d eps       ncg     rms          ort
SDA:   1    -0.350117729585E+03    0.42853E+00    0.00000E+00  8208   0.141E+01 0.000E+00
CGA:   2    -0.350365232620E+03   -0.24750E+00   -0.24748E+00  8208   0.743E+00 0.473E-03
CGA:   3    -0.350495490932E+03   -0.13026E+00   -0.13026E+00  8208   0.375E+00 0.240E-04
CGA:   4    -0.350538708878E+03   -0.43218E-01   -0.43124E-01  8208   0.111E+00-0.137E-02
CGA:   5    -0.350550833649E+03   -0.12125E-01   -0.12158E-01  8208   0.309E-01 0.415E-03
CGA:   6    -0.350554886398E+03   -0.40527E-02   -0.40527E-02  8208   0.120E-01-0.128E-04
CGA:   7    -0.350556338811E+03   -0.14524E-02   -0.14523E-02  8208   0.427E-02 0.878E-06
CGA:   8    -0.350556977641E+03   -0.63883E-03   -0.63884E-03  8208   0.140E-02 0.422E-06
CGA:   9    -0.350557182520E+03   -0.20488E-03   -0.20484E-03  8208   0.694E-03 0.267E-05
CGA:  10    -0.350557274075E+03   -0.91555E-04   -0.91555E-04  8208   0.279E-03 0.341E-06
CGA:  11    -0.350557320908E+03   -0.46833E-04   -0.46800E-04  8208   0.179E-03 0.973E-06
CGA:  12    -0.350557344175E+03   -0.23267E-04   -0.23268E-04  8208   0.794E-04 0.270E-06
CGA:  13    -0.350557358569E+03   -0.14394E-04   -0.14390E-04  8208   0.412E-04 0.781E-07
CGA:  14    -0.350557364324E+03   -0.57554E-05   -0.57551E-05  8208   0.203E-04 0.106E-06
  13 F= -.35055736E+03 E0= -.35054909E+03  d E =-.110951E-01  mag=    30.0410
       N       E                     dE             d eps       ncg     rms          ort
SDA:   1    -0.344152916660E+03    0.64044E+01    0.00000E+00  8208   0.174E+02 0.000E+00
CGA:   2    -0.348229898303E+03   -0.40770E+01   -0.40816E+01  8208   0.117E+02-0.438E-01
CGA:   3    -0.349852461831E+03   -0.16226E+01   -0.16227E+01  8208   0.505E+01 0.146E-01
CGA:   4    -0.350345186177E+03   -0.49272E+00   -0.48997E+00  8208   0.132E+01 0.403E-01
CGA:   5    -0.350510261036E+03   -0.16507E+00   -0.16525E+00  8208   0.340E+00 0.471E-02
CGA:   6    -0.350560946362E+03   -0.50685E-01   -0.50716E-01  8208   0.143E+00-0.198E-02
CGA:   7    -0.350576759949E+03   -0.15814E-01   -0.15921E-01  8208   0.514E-01 0.103E-02
CGA:   8    -0.350584274313E+03   -0.75144E-02   -0.75157E-02  8208   0.177E-01-0.111E-03
CGA:   9    -0.350586623044E+03   -0.23487E-02   -0.23498E-02  8208   0.933E-02 0.811E-04
CGA:  10    -0.350587962560E+03   -0.13395E-02   -0.13395E-02  8208   0.363E-02 0.135E-04
CGA:  11    -0.350588647378E+03   -0.68482E-03   -0.68393E-03  8208   0.282E-02 0.163E-04
CGA:  12    -0.350589020407E+03   -0.37303E-03   -0.37317E-03  8208   0.125E-02 0.900E-05
CGA:  13    -0.350589262782E+03   -0.24238E-03   -0.24203E-03  8208   0.734E-03 0.628E-05
CGA:  14    -0.350589358499E+03   -0.95717E-04   -0.95753E-04  8208   0.348E-03 0.233E-05
CGA:  15    -0.350589416891E+03   -0.58392E-04   -0.58325E-04  8208   0.165E-03 0.255E-05
CGA:  16    -0.350589439034E+03   -0.22143E-04   -0.22154E-04  8208   0.906E-04 0.965E-06
CGA:  17    -0.350589456604E+03   -0.17570E-04   -0.17511E-04  8208   0.520E-04 0.117E-05
CGA:  18    -0.350589466208E+03   -0.96040E-05   -0.95847E-05  8208   0.506E-04 0.517E-06
CGA:  19    -0.350589476356E+03   -0.10148E-04   -0.10125E-04  8208   0.358E-04 0.444E-06
CGA:  20    -0.350589483089E+03   -0.67331E-05   -0.67435E-05  8208   0.362E-04-0.300E-06
  14 F= -.35058948E+03 E0= -.35058104E+03  d E =-.321188E-01  mag=    30.0372
       N       E                     dE             d eps       ncg     rms          ort
SDA:   1    -0.303842353778E+03    0.46747E+02    0.00000E+00  8208   0.211E+03 0.000E+00
CGA:   2    -0.324384759880E+03   -0.20542E+02   -0.23596E+02  8208   0.109E+03 0.182E+02
CGA:   3    -0.337594434998E+03   -0.13210E+02   -0.11368E+02  8208   0.635E+02-0.126E+02
CGA:   4    -0.346196531319E+03   -0.86021E+01   -0.75279E+01  8208   0.720E+02-0.259E+02
CGA:   5    -0.348284257707E+03   -0.20877E+01   -0.24887E+01  8208   0.135E+02-0.409E+01
CGA:   6    -0.349014788288E+03   -0.73053E+00   -0.78337E+00  8208   0.145E+02-0.162E+01
CGA:   7    -0.349630377955E+03   -0.61559E+00   -0.71016E+00  8208   0.912E+01-0.125E+01
CGA:   8    -0.349945634834E+03   -0.31526E+00   -0.30287E+00  8208   0.206E+01 0.383E+00
CGA:   9    -0.350163283355E+03   -0.21765E+00   -0.21668E+00  8208   0.470E+01-0.645E-02
CGA:  10    -0.350281342132E+03   -0.11806E+00   -0.13599E+00  8208   0.120E+01-0.574E+00
CGA:  11    -0.350365221869E+03   -0.83880E-01   -0.81064E-01  8208   0.764E+00 0.183E-01
CGA:  12    -0.350400345011E+03   -0.35123E-01   -0.37227E-01  8208   0.783E+00-0.298E-01
CGA:  13    -0.350446386402E+03   -0.46041E-01   -0.47823E-01  8208   0.453E+00-0.104E-01
CGA:  14    -0.350478044997E+03   -0.31659E-01   -0.29625E-01  8208   0.128E+00 0.123E-01
CGA:  15    -0.350496992784E+03   -0.18948E-01   -0.18808E-01  8208   0.140E+00 0.330E-02
CGA:  16    -0.350509007826E+03   -0.12015E-01   -0.12250E-01  8208   0.183E+00 0.136E-02
CGA:  17    -0.350517922271E+03   -0.89144E-02   -0.96169E-02  8208   0.534E-01-0.751E-02
CGA:  18    -0.350524532822E+03   -0.66106E-02   -0.65429E-02  8208   0.586E-01 0.242E-02
CGA:  19    -0.350531322670E+03   -0.67898E-02   -0.67902E-02  8208   0.558E-01-0.521E-03
CGA:  20    -0.350535938185E+03   -0.46155E-02   -0.47632E-02  8208   0.345E-01 0.147E-02
CGA:  21    -0.350539576600E+03   -0.36384E-02   -0.36615E-02  8208   0.246E-01 0.172E-02
CGA:  22    -0.350543066597E+03   -0.34900E-02   -0.35159E-02  8208   0.194E-01-0.697E-03
CGA:  23    -0.350545799770E+03   -0.27332E-02   -0.27198E-02  8208   0.101E-01 0.253E-03
CGA:  24    -0.350547009359E+03   -0.12096E-02   -0.12048E-02  8208   0.708E-02 0.475E-03
CGA:  25    -0.350548379917E+03   -0.13706E-02   -0.13741E-02  8208   0.441E-02-0.459E-04
CGA:  26    -0.350549042536E+03   -0.66262E-03   -0.66235E-03  8208   0.300E-02 0.323E-05
CGA:  27    -0.350549505030E+03   -0.46249E-03   -0.46262E-03  8208   0.202E-02-0.638E-05
CGA:  28    -0.350549895924E+03   -0.39089E-03   -0.39153E-03  8208   0.116E-02-0.905E-05
CGA:  29    -0.350550086860E+03   -0.19094E-03   -0.19122E-03  8208   0.106E-02-0.690E-05
CGA:  30    -0.350550243522E+03   -0.15666E-03   -0.15691E-03  8208   0.506E-03-0.101E-04
CGA:  31    -0.350550329423E+03   -0.85901E-04   -0.85975E-04  8208   0.409E-03-0.157E-05
SDA:  32    -0.350550392384E+03   -0.62961E-04   -0.62870E-04  8208   0.198E-03 0.373E-05
CGA:  33    -0.350550423730E+03   -0.31346E-04   -0.31329E-04  8208   0.162E-03 0.639E-06
CGA:  34    -0.350550454751E+03   -0.31021E-04   -0.30936E-04  8208   0.876E-04 0.144E-05
CGA:  35    -0.350550468121E+03   -0.13370E-04   -0.13360E-04  8208   0.375E-04 0.521E-06
CGA:  36    -0.350550477091E+03   -0.89701E-05   -0.89116E-05  8208   0.490E-04 0.543E-06
  15 F= -.35055048E+03 E0= -.35054313E+03  d E =0.390060E-01  mag=    30.0226
       N       E                     dE             d eps       ncg     rms          ort
SDA:   1    -0.311672947680E+03    0.38878E+02    0.00000E+00  8208   0.179E+03 0.000E+00
CGA:   2    -0.331238489786E+03   -0.19566E+02   -0.19488E+02  8208   0.786E+02 0.120E+01
CGA:   3    -0.339784969144E+03   -0.85465E+01   -0.83358E+01  8208   0.565E+02-0.362E+01
CGA:   4    -0.343149606810E+03   -0.33646E+01   -0.40690E+01  8208   0.161E+03-0.873E+01
CGA:   5    -0.345688527681E+03   -0.25389E+01   -0.48153E+01  8208   0.714E+02-0.776E+02
CGA:   6    -0.347282293168E+03   -0.15938E+01   -0.93763E+00  8208   0.420E+02 0.245E+02
CGA:   7    -0.347356870974E+03   -0.74578E-01   -0.17494E+01  8208   0.710E+02-0.559E+02
CGA:   8    -0.348153596532E+03   -0.79673E+00   -0.37366E+01  8208   0.223E+02-0.125E+02
CGA:   9    -0.348767175439E+03   -0.61358E+00   -0.28949E+00  8208   0.210E+02 0.212E+02
CGA:  10    -0.349438801807E+03   -0.67163E+00   -0.32078E+00  8208   0.112E+02 0.197E+02
CGA:  11    -0.349735737674E+03   -0.29694E+00   -0.21037E+00  8208   0.262E+01 0.355E+01
CGA:  12    -0.349894663622E+03   -0.15893E+00   -0.15763E+00  8208   0.683E+01-0.118E-01
CGA:  13    -0.350153561931E+03   -0.25890E+00   -0.26605E+00  8208   0.115E+02-0.183E+00
CGA:  14    -0.350349932677E+03   -0.19637E+00   -0.23667E+00  8208   0.490E+01-0.157E+01
CGA:  15    -0.350397138627E+03   -0.47206E-01   -0.69048E-01  8208   0.103E+01-0.123E+01
CGA:  16    -0.350415242270E+03   -0.18104E-01   -0.24246E-01  8208   0.117E+01-0.134E+00
CGA:  17    -0.350497584238E+03   -0.82342E-01   -0.82439E-01  8208   0.142E+01 0.969E-02
CGA:  18    -0.350544586085E+03   -0.47002E-01   -0.46067E-01  8208   0.444E+00 0.149E-01
CGA:  19    -0.350569486748E+03   -0.24901E-01   -0.25539E-01  8208   0.521E+00 0.152E-02
CGA:  20    -0.350595620700E+03   -0.26134E-01   -0.27402E-01  8208   0.321E+00-0.122E-02
CGA:  21    -0.350615405676E+03   -0.19785E-01   -0.20188E-01  8208   0.184E+00 0.602E-02
CGA:  22    -0.350631245323E+03   -0.15840E-01   -0.15804E-01  8208   0.147E+00 0.369E-02
CGA:  23    -0.350641055672E+03   -0.98103E-02   -0.99237E-02  8208   0.687E-01 0.269E-02
CGA:  24    -0.350648182179E+03   -0.71265E-02   -0.70689E-02  8208   0.471E-01 0.179E-02
CGA:  25    -0.350652122993E+03   -0.39408E-02   -0.39354E-02  8208   0.333E-01 0.155E-02
CGA:  26    -0.350656981388E+03   -0.48584E-02   -0.48179E-02  8208   0.203E-01 0.589E-03
CGA:  27    -0.350659004424E+03   -0.20230E-02   -0.20116E-02  8208   0.144E-01 0.512E-03
CGA:  28    -0.350661332864E+03   -0.23284E-02   -0.23003E-02  8208   0.101E-01 0.345E-03
CGA:  29    -0.350662497539E+03   -0.11647E-02   -0.11587E-02  8208   0.539E-02 0.162E-03
CGA:  30    -0.350663182189E+03   -0.68465E-03   -0.68207E-03  8208   0.338E-02 0.529E-04
CGA:  31    -0.350663720617E+03   -0.53843E-03   -0.53545E-03  8208   0.233E-02 0.402E-04
CGA:  32    -0.350663992918E+03   -0.27230E-03   -0.27193E-03  8208   0.118E-02 0.127E-04
CGA:  33    -0.350664209513E+03   -0.21659E-03   -0.21643E-03  8208   0.118E-02 0.167E-05
CGA:  34    -0.350664344780E+03   -0.13527E-03   -0.13517E-03  8208   0.436E-03 0.370E-05
CGA:  35    -0.350664421645E+03   -0.76864E-04   -0.76772E-04  8208   0.450E-03 0.102E-05
CGA:  36    -0.350664481648E+03   -0.60003E-04   -0.60009E-04  8208   0.235E-03-0.129E-06
CGA:  37    -0.350664514748E+03   -0.33100E-04   -0.33157E-04  8208   0.157E-03-0.164E-05
CGA:  38    -0.350664542859E+03   -0.28111E-04   -0.28331E-04  8208   0.157E-03-0.295E-05
CGA:  39    -0.350664561418E+03   -0.18559E-04   -0.18572E-04  8208   0.611E-04-0.145E-05
CGA:  40    -0.350664571363E+03   -0.99453E-05   -0.99017E-05  8208   0.626E-04 0.807E-06
  16 F= -.35066457E+03 E0= -.35065620E+03  d E =-.114094E+00  mag=    30.0334
       N       E                     dE             d eps       ncg     rms          ort
SDA:   1    -0.348099391060E+03    0.25652E+01    0.00000E+00  8208   0.101E+02 0.000E+00
CGA:   2    -0.349519061281E+03   -0.14197E+01   -0.14187E+01  8208   0.380E+01 0.251E-01
CGA:   3    -0.350209454883E+03   -0.69039E+00   -0.69284E+00  8208   0.286E+01-0.430E-01
CGA:   4    -0.350544441466E+03   -0.33499E+00   -0.33499E+00  8208   0.940E+00 0.944E-03
CGA:   5    -0.350651723704E+03   -0.10728E+00   -0.10730E+00  8208   0.203E+00 0.172E-02
CGA:   6    -0.350680824254E+03   -0.29101E-01   -0.29123E-01  8208   0.687E-01-0.606E-03
CGA:   7    -0.350689348031E+03   -0.85238E-02   -0.85208E-02  8208   0.305E-01 0.424E-03
CGA:   8    -0.350693431279E+03   -0.40832E-02   -0.40839E-02  8208   0.918E-02-0.249E-04
CGA:   9    -0.350694867503E+03   -0.14362E-02   -0.14347E-02  8208   0.424E-02 0.321E-04
CGA:  10    -0.350695385484E+03   -0.51798E-03   -0.51799E-03  8208   0.175E-02 0.485E-05
CGA:  11    -0.350695685079E+03   -0.29959E-03   -0.29930E-03  8208   0.788E-03 0.547E-05
CGA:  12    -0.350695800419E+03   -0.11534E-03   -0.11529E-03  8208   0.429E-03 0.173E-05
CGA:  13    -0.350695864921E+03   -0.64502E-04   -0.64469E-04  8208   0.177E-03 0.108E-05
CGA:  14    -0.350695892738E+03   -0.27817E-04   -0.27807E-04  8208   0.100E-03 0.177E-06
CGA:  15    -0.350695907571E+03   -0.14833E-04   -0.14824E-04  8208   0.419E-04 0.333E-06
CGA:  16    -0.350695913960E+03   -0.63899E-05   -0.63827E-05  8208   0.230E-04 0.233E-06
  17 F= -.35069591E+03 E0= -.35068777E+03  d E =-.313426E-01  mag=    30.0291
       N       E                     dE             d eps       ncg     rms          ort
SDA:   1    -0.350549635799E+03    0.14627E+00    0.00000E+00  8208   0.534E+00 0.000E+00
CGA:   2    -0.350631873181E+03   -0.82237E-01   -0.82236E-01  8208   0.223E+00 0.444E-04
CGA:   3    -0.350676355242E+03   -0.44482E-01   -0.44481E-01  8208   0.119E+00 0.264E-04
CGA:   4    -0.350692987990E+03   -0.16633E-01   -0.16633E-01  8208   0.304E-01 0.375E-04
CGA:   5    -0.350696630906E+03   -0.36429E-02   -0.36424E-02  8208   0.997E-02-0.923E-05
CGA:   6    -0.350697840459E+03   -0.12096E-02   -0.12098E-02  8208   0.324E-02 0.949E-05
CGA:   7    -0.350698311168E+03   -0.47071E-03   -0.47074E-03  8208   0.135E-02-0.739E-06
CGA:   8    -0.350698473122E+03   -0.16195E-03   -0.16196E-03  8208   0.525E-03 0.421E-06
CGA:   9    -0.350698550826E+03   -0.77704E-04   -0.77701E-04  8208   0.167E-03 0.155E-06
CGA:  10    -0.350698579134E+03   -0.28308E-04   -0.28297E-04  8208   0.979E-04 0.352E-06
CGA:  11    -0.350698592712E+03   -0.13579E-04   -0.13579E-04  8208   0.407E-04 0.218E-07
CGA:  12    -0.350698600118E+03   -0.74058E-05   -0.74006E-05  8208   0.229E-04 0.123E-06
  18 F= -.35069860E+03 E0= -.35069050E+03  d E =-.268616E-02  mag=    30.0281
       N       E                     dE             d eps       ncg     rms          ort
SDA:   1    -0.350447334069E+03    0.25126E+00    0.00000E+00  8208   0.778E+00 0.000E+00
CGA:   2    -0.350593802220E+03   -0.14647E+00   -0.14648E+00  8208   0.448E+00-0.114E-03
CGA:   3    -0.350668146878E+03   -0.74345E-01   -0.74319E-01  8208   0.211E+00 0.707E-03
CGA:   4    -0.350691519161E+03   -0.23372E-01   -0.23321E-01  8208   0.643E-01-0.289E-03
CGA:   5    -0.350698652868E+03   -0.71337E-02   -0.71420E-02  8208   0.162E-01 0.736E-04
CGA:   6    -0.350701120240E+03   -0.24674E-02   -0.24675E-02  8208   0.498E-02-0.512E-05
CGA:   7    -0.350701826831E+03   -0.70659E-03   -0.70657E-03  8208   0.242E-02 0.601E-05
CGA:   8    -0.350702109772E+03   -0.28294E-03   -0.28289E-03  8208   0.764E-03-0.491E-06
CGA:   9    -0.350702238820E+03   -0.12905E-03   -0.12903E-03  8208   0.309E-03 0.639E-06
CGA:  10    -0.350702282575E+03   -0.43755E-04   -0.43755E-04  8208   0.191E-03 0.255E-06
CGA:  11    -0.350702312911E+03   -0.30336E-04   -0.30328E-04  8208   0.805E-04 0.427E-06
CGA:  12    -0.350702327560E+03   -0.14649E-04   -0.14643E-04  8208   0.567E-04 0.176E-06
CGA:  13    -0.350702335208E+03   -0.76474E-05   -0.76498E-05  8208   0.233E-04 0.273E-06
  19 F= -.35070234E+03 E0= -.35069424E+03  d E =-.373509E-02  mag=    30.0277
       N       E                     dE             d eps       ncg     rms          ort
SDA:   1    -0.350268160842E+03    0.43417E+00    0.00000E+00  8208   0.113E+01 0.000E+00
CGA:   2    -0.350573289424E+03   -0.30513E+00   -0.30522E+00  8208   0.740E+00-0.699E-03
CGA:   3    -0.350668247427E+03   -0.94958E-01   -0.94986E-01  8208   0.269E+00 0.468E-03
CGA:   4    -0.350697825905E+03   -0.29578E-01   -0.29526E-01  8208   0.763E-01-0.121E-03
CGA:   5    -0.350707013347E+03   -0.91874E-02   -0.91971E-02  8208   0.215E-01 0.114E-03
CGA:   6    -0.350710009540E+03   -0.29962E-02   -0.29957E-02  8208   0.784E-02-0.255E-04
CGA:   7    -0.350711031868E+03   -0.10223E-02   -0.10225E-02  8208   0.272E-02 0.457E-05
CGA:   8    -0.350711427257E+03   -0.39539E-03   -0.39539E-03  8208   0.101E-02-0.640E-06
CGA:   9    -0.350711563750E+03   -0.13649E-03   -0.13652E-03  8208   0.511E-03 0.210E-05
CGA:  10    -0.350711640119E+03   -0.76369E-04   -0.76364E-04  8208   0.248E-03 0.125E-05
CGA:  11    -0.350711684900E+03   -0.44780E-04   -0.44735E-04  8208   0.156E-03 0.132E-05
CGA:  12    -0.350711711667E+03   -0.26768E-04   -0.26768E-04  8208   0.885E-04 0.301E-07
CGA:  13    -0.350711725770E+03   -0.14103E-04   -0.14101E-04  8208   0.535E-04 0.106E-06
CGA:  14    -0.350711733294E+03   -0.75242E-05   -0.75250E-05  8208   0.218E-04 0.933E-07
  20 F= -.35071173E+03 E0= -.35070367E+03  d E =-.939809E-02  mag=    30.0275
       N       E                     dE             d eps       ncg     rms          ort
SDA:   1    -0.339227651561E+03    0.11484E+02    0.00000E+00  8208   0.321E+02 0.000E+00
CGA:   2    -0.346416084590E+03   -0.71884E+01   -0.71966E+01  8208   0.200E+02-0.997E-01
CGA:   3    -0.349550600364E+03   -0.31345E+01   -0.31336E+01  8208   0.665E+01 0.969E-01
CGA:   4    -0.350400520352E+03   -0.84992E+00   -0.84876E+00  8208   0.180E+01 0.312E-02
CGA:   5    -0.350614549436E+03   -0.21403E+00   -0.20924E+00  8208   0.676E+00-0.105E-01
CGA:   6    -0.350693211126E+03   -0.78662E-01   -0.79570E-01  8208   0.224E+00 0.809E-02
CGA:   7    -0.350723110067E+03   -0.29899E-01   -0.29896E-01  8208   0.890E-01-0.110E-04
CGA:   8    -0.350735157174E+03   -0.12047E-01   -0.12053E-01  8208   0.287E-01 0.234E-03
CGA:   9    -0.350739917341E+03   -0.47602E-02   -0.47591E-02  8208   0.137E-01 0.468E-04
CGA:  10    -0.350741821240E+03   -0.19039E-02   -0.19048E-02  8208   0.786E-02 0.565E-04
CGA:  11    -0.350743166380E+03   -0.13451E-02   -0.13448E-02  8208   0.397E-02 0.162E-04
CGA:  12    -0.350743818361E+03   -0.65198E-03   -0.65147E-03  8208   0.254E-02 0.235E-04
CGA:  13    -0.350744216461E+03   -0.39810E-03   -0.39806E-03  8208   0.112E-02 0.623E-05
CGA:  14    -0.350744395856E+03   -0.17939E-03   -0.17934E-03  8208   0.627E-03 0.441E-05
CGA:  15    -0.350744484835E+03   -0.88979E-04   -0.89000E-04  8208   0.239E-03 0.247E-05
CGA:  16    -0.350744527763E+03   -0.42928E-04   -0.42849E-04  8208   0.152E-03 0.266E-05
CGA:  17    -0.350744550655E+03   -0.22892E-04   -0.22894E-04  8208   0.856E-04 0.129E-05
CGA:  18    -0.350744567944E+03   -0.17290E-04   -0.17261E-04  8208   0.710E-04 0.566E-06
CGA:  19    -0.350744580578E+03   -0.12633E-04   -0.12639E-04  8208   0.492E-04-0.247E-06
CGA:  20    -0.350744591824E+03   -0.11247E-04   -0.11322E-04  8208   0.415E-04-0.995E-06
CGA:  21    -0.350744598309E+03   -0.64841E-05   -0.64848E-05  8208   0.259E-04-0.685E-06
  21 F= -.35074460E+03 E0= -.35073680E+03  d E =-.328650E-01  mag=    30.0241
       N       E                     dE             d eps       ncg     rms          ort
SDA:   1    -0.143136489076E+03    0.20761E+03    0.00000E+00  8208   0.567E+04 0.000E+00
CGA:   2    -0.231675200155E+03   -0.88539E+02   -0.40262E+03  8208   0.126E+04-0.851E+03
CGA:   3    -0.282403106336E+03   -0.50728E+02   -0.22710E+02  8208   0.342E+03 0.491E+03
CGA:   4    -0.306408704427E+03   -0.24006E+02   -0.23123E+02  8208   0.130E+03 0.301E+02
CGA:   5    -0.329433617809E+03   -0.23025E+02   -0.22681E+02  8208   0.207E+03-0.161E+02
CGA:   6    -0.327130929258E+03    0.23027E+01   -0.71301E+01  8208   0.635E+03-0.895E+02
CGA:   7    -0.332369708247E+03   -0.52388E+01   -0.60257E+01  8208   0.243E+03-0.111E+03
CGA:   8    -0.336899236885E+03   -0.45295E+01   -0.55351E+01  8208   0.196E+03-0.139E+03
CGA:   9    -0.341508009768E+03   -0.46088E+01   -0.54655E+01  8208   0.927E+02-0.789E+02
CGA:  10    -0.344062540692E+03   -0.25545E+01   -0.21349E+01  8208   0.657E+02 0.309E-01
CGA:  11    -0.346583704163E+03   -0.25212E+01   -0.34498E+01  8208   0.699E+02-0.318E+01
CGA:  12    -0.347953324432E+03   -0.13696E+01   -0.22680E+01  8208   0.529E+02-0.179E+02
CGA:  13    -0.347718529483E+03    0.23479E+00   -0.12741E+01  8208   0.720E+02-0.371E+02
CGA:  14    -0.348272761223E+03   -0.55423E+00   -0.27269E+01  8208   0.304E+02-0.259E+02
CGA:  15    -0.348996147080E+03   -0.72339E+00   -0.49987E+00  8208   0.141E+02 0.921E+01
CGA:  16    -0.349327683663E+03   -0.33154E+00   -0.24288E+00  8208   0.177E+01 0.314E+01
CGA:  17    -0.349381140607E+03   -0.53457E-01   -0.72414E-01  8208   0.346E+01-0.389E+00
CGA:  18    -0.349475674744E+03   -0.94534E-01   -0.95595E-01  8208   0.516E+01 0.466E-02
CGA:  19    -0.349633141809E+03   -0.15747E+00   -0.17274E+00  8208   0.389E+01-0.306E+00
CGA:  20    -0.349692389323E+03   -0.59248E-01   -0.74650E-01  8208   0.148E+01-0.632E+00
CGA:  21    -0.349730512456E+03   -0.38123E-01   -0.44658E-01  8208   0.135E+01-0.104E+00
CGA:  22    -0.349810678999E+03   -0.80167E-01   -0.82086E-01  8208   0.119E+01 0.425E-01
CGA:  23    -0.349872339177E+03   -0.61660E-01   -0.65235E-01  8208   0.798E+00-0.161E-02
CGA:  24    -0.349905429905E+03   -0.33091E-01   -0.35253E-01  8208   0.338E+00-0.139E-01
CGA:  25    -0.349935848599E+03   -0.30419E-01   -0.30043E-01  8208   0.351E+00 0.183E-01
CGA:  26    -0.349958984039E+03   -0.23135E-01   -0.23426E-01  8208   0.183E+00 0.556E-02
CGA:  27    -0.349975084363E+03   -0.16100E-01   -0.15991E-01  8208   0.614E-01 0.742E-02
CGA:  28    -0.349983764749E+03   -0.86804E-02   -0.82486E-02  8208   0.653E-01 0.719E-02
CGA:  29    -0.349992066033E+03   -0.83013E-02   -0.81838E-02  8208   0.335E-01 0.287E-02
CGA:  30    -0.349996467037E+03   -0.44010E-02   -0.43337E-02  8208   0.155E-01 0.132E-02
CGA:  31    -0.349999402494E+03   -0.29355E-02   -0.25887E-02  8208   0.197E-01 0.451E-02
CGA:  32    -0.350004818759E+03   -0.54163E-02    0.51579E-02  8208   0.221E-01 0.334E-01
CGA:  33    -0.350007323286E+03   -0.25045E-02   -0.24961E-02  8208   0.186E-01 0.242E-03
CGA:  34    -0.350008393095E+03   -0.10698E-02   -0.17648E-02  8208   0.678E-01-0.154E-01
CGA:  35    -0.350015117517E+03   -0.67244E-02   -0.67109E-02  8208   0.102E-01 0.407E-04
CGA:  36    -0.350016092325E+03   -0.97481E-03   -0.98116E-03  8208   0.441E-02-0.795E-05
CGA:  37    -0.350016638774E+03   -0.54645E-03   -0.54533E-03  8208   0.144E-02-0.936E-05
CGA:  38    -0.350016811478E+03   -0.17270E-03   -0.17307E-03  8208   0.715E-03 0.373E-05
CGA:  39    -0.350016931240E+03   -0.11976E-03   -0.11973E-03  8208   0.407E-03 0.191E-05
CGA:  40    -0.350016998946E+03   -0.67705E-04   -0.67645E-04  8208   0.291E-03 0.370E-05
CGA:  41    -0.350017095109E+03   -0.96164E-04   -0.95994E-04  8208   0.277E-03 0.826E-06
CGA:  42    -0.350017128586E+03   -0.33477E-04   -0.33550E-04  8208   0.164E-03-0.380E-06
CGA:  43    -0.350017173503E+03   -0.44917E-04   -0.45547E-04  8208   0.221E-03-0.524E-05
CGA:  44    -0.350017193903E+03   -0.20399E-04   -0.20498E-04  8208   0.678E-04-0.108E-05
CGA:  45    -0.350017205468E+03   -0.11566E-04   -0.11559E-04  8208   0.340E-04 0.828E-06
CGA:  46    -0.350017212573E+03   -0.71051E-05   -0.70779E-05  8208   0.174E-04 0.618E-06
  22 F= -.35001721E+03 E0= -.35000881E+03  d E =0.727386E+00  mag=    30.0943
       N       E                     dE             d eps       ncg     rms          ort
SDA:   1    -0.300460646306E+03    0.49557E+02    0.00000E+00  8208   0.605E+03 0.000E+00
CGA:   2    -0.323124693097E+03   -0.22664E+02   -0.34743E+02  8208   0.973E+02 0.225E+02
CGA:   3    -0.333329894037E+03   -0.10205E+02   -0.62555E+01  8208   0.408E+02 0.629E+02
CGA:   4    -0.337912603882E+03   -0.45827E+01   -0.32341E+01  8208   0.683E+02 0.305E+01
CGA:   5    -0.346896637312E+03   -0.89840E+01   -0.90841E+01  8208   0.665E+02 0.358E+00
CGA:   6    -0.347980638393E+03   -0.10840E+01   -0.35222E+01  8208   0.238E+02-0.234E+02
CGA:   7    -0.348752659802E+03   -0.77202E+00   -0.61051E+00  8208   0.905E+01 0.487E+01
CGA:   8    -0.349287100371E+03   -0.53444E+00   -0.38899E+00  8208   0.635E+01 0.221E+01
CGA:   9    -0.349739817439E+03   -0.45272E+00   -0.47259E+00  8208   0.140E+02-0.333E+00
CGA:  10    -0.350061063213E+03   -0.32125E+00   -0.33644E+00  8208   0.815E+01-0.260E+00
CGA:  11    -0.350203017191E+03   -0.14195E+00   -0.18467E+00  8208   0.340E+01-0.135E+01
CGA:  12    -0.350278294297E+03   -0.75277E-01   -0.65327E-01  8208   0.213E+01 0.378E+00
CGA:  13    -0.350357274597E+03   -0.78980E-01   -0.74053E-01  8208   0.205E+01 0.142E+00
CGA:  14    -0.350438039516E+03   -0.80765E-01   -0.77969E-01  8208   0.239E+01 0.584E-01
CGA:  15    -0.350511729302E+03   -0.73690E-01   -0.80631E-01  8208   0.174E+01-0.144E+00
CGA:  16    -0.350553620448E+03   -0.41891E-01   -0.44231E-01  8208   0.104E+01-0.649E-01
CGA:  17    -0.350590060798E+03   -0.36440E-01   -0.40302E-01  8208   0.102E+01-0.524E-01
CGA:  18    -0.350627929930E+03   -0.37869E-01   -0.38600E-01  8208   0.634E+00-0.102E-01
CGA:  19    -0.350650810712E+03   -0.22881E-01   -0.24705E-01  8208   0.377E+00-0.241E-01
CGA:  20    -0.350669836234E+03   -0.19026E-01   -0.19238E-01  8208   0.313E+00 0.217E-03
CGA:  21    -0.350686117902E+03   -0.16282E-01   -0.16726E-01  8208   0.208E+00-0.142E-02
CGA:  22    -0.350697842940E+03   -0.11725E-01   -0.12000E-01  8208   0.146E+00 0.211E-03
CGA:  23    -0.350708443232E+03   -0.10600E-01   -0.10634E-01  8208   0.118E+00 0.770E-03
CGA:  24    -0.350716506863E+03   -0.80636E-02   -0.80649E-02  8208   0.803E-01-0.968E-05
CGA:  25    -0.350722137393E+03   -0.56305E-02   -0.56291E-02  8208   0.595E-01 0.531E-05
CGA:  26    -0.350726172640E+03   -0.40352E-02   -0.40423E-02  8208   0.366E-01 0.161E-03
CGA:  27    -0.350728677136E+03   -0.25045E-02   -0.25180E-02  8208   0.253E-01 0.327E-03
CGA:  28    -0.350730972816E+03   -0.22957E-02   -0.22933E-02  8208   0.232E-01 0.181E-03
CGA:  29    -0.350732856848E+03   -0.18840E-02   -0.18840E-02  8208   0.148E-01-0.880E-05
CGA:  30    -0.350733919895E+03   -0.10630E-02   -0.10622E-02  8208   0.928E-02-0.482E-04
CGA:  31    -0.350734706366E+03   -0.78647E-03   -0.78652E-03  8208   0.796E-02-0.232E-04
CGA:  32    -0.350735368674E+03   -0.66231E-03   -0.66225E-03  8208   0.595E-02 0.138E-04
CGA:  33    -0.350735841744E+03   -0.47307E-03   -0.47310E-03  8208   0.409E-02 0.430E-05
SDA:  34    -0.350736160577E+03   -0.31883E-03   -0.31884E-03  8208   0.253E-02 0.271E-05
CGA:  35    -0.350736494209E+03   -0.33363E-03   -0.33332E-03  8208   0.160E-02 0.625E-05
CGA:  36    -0.350736783937E+03   -0.28973E-03   -0.28909E-03  8208   0.502E-03 0.623E-05
CGA:  37    -0.350736866128E+03   -0.82191E-04   -0.81964E-04  8208   0.244E-03 0.297E-05
CGA:  38    -0.350736908441E+03   -0.42313E-04   -0.42357E-04  8208   0.132E-03-0.783E-06
CGA:  39    -0.350736927573E+03   -0.19132E-04   -0.19251E-04  8208   0.949E-04-0.260E-05
CGA:  40    -0.350736947088E+03   -0.19515E-04   -0.19737E-04  8208   0.461E-04-0.216E-05
CGA:  41    -0.350736957108E+03   -0.10020E-04   -0.97641E-05  8208   0.319E-04 0.217E-05
CGA:  42    -0.350736963798E+03   -0.66904E-05   -0.65466E-05  8208   0.224E-04 0.159E-05
  23 F= -.35073696E+03 E0= -.35072902E+03  d E =-.719751E+00  mag=    30.0449
       N       E                     dE             d eps       ncg     rms          ort
SDA:   1    -0.344658988114E+03    0.60780E+01    0.00000E+00  8208   0.237E+02 0.000E+00
CGA:   2    -0.347994279009E+03   -0.33353E+01   -0.33310E+01  8208   0.962E+01 0.128E+00
CGA:   3    -0.349610695198E+03   -0.16164E+01   -0.16248E+01  8208   0.709E+01-0.251E+00
CGA:   4    -0.350460963651E+03   -0.85027E+00   -0.85013E+00  8208   0.195E+01 0.273E-01
CGA:   5    -0.350706415500E+03   -0.24545E+00   -0.24532E+00  8208   0.497E+00 0.153E-01
CGA:   6    -0.350771004360E+03   -0.64589E-01   -0.64666E-01  8208   0.203E+00-0.547E-02
CGA:   7    -0.350794926922E+03   -0.23923E-01   -0.23929E-01  8208   0.660E-01 0.136E-02
CGA:   8    -0.350805505264E+03   -0.10578E-01   -0.10575E-01  8208   0.234E-01 0.790E-04
CGA:   9    -0.350808722038E+03   -0.32168E-02   -0.32158E-02  8208   0.110E-01 0.535E-04
CGA:  10    -0.350810234060E+03   -0.15120E-02   -0.15118E-02  8208   0.415E-02 0.147E-04
CGA:  11    -0.350810910291E+03   -0.67623E-03   -0.67521E-03  8208   0.242E-02 0.221E-04
CGA:  12    -0.350811252013E+03   -0.34172E-03   -0.34162E-03  8208   0.951E-03 0.605E-05
CGA:  13    -0.350811420884E+03   -0.16887E-03   -0.16867E-03  8208   0.534E-03 0.323E-05
CGA:  14    -0.350811495208E+03   -0.74323E-04   -0.74312E-04  8208   0.229E-03 0.893E-06
CGA:  15    -0.350811534187E+03   -0.38979E-04   -0.38934E-04  8208   0.122E-03 0.858E-06
CGA:  16    -0.350811550170E+03   -0.15983E-04   -0.15984E-04  8208   0.512E-04 0.413E-06
CGA:  17    -0.350811559243E+03   -0.90734E-05   -0.90313E-05  8208   0.232E-04 0.832E-06
  24 F= -.35081156E+03 E0= -.35080387E+03  d E =-.745954E-01  mag=    30.0310
       N       E                     dE             d eps       ncg     rms          ort
SDA:   1    -0.350091389848E+03    0.72016E+00    0.00000E+00  8208   0.265E+01 0.000E+00
CGA:   2    -0.350490521408E+03   -0.39913E+00   -0.39911E+00  8208   0.108E+01 0.831E-03
CGA:   3    -0.350697476702E+03   -0.20696E+00   -0.20691E+00  8208   0.645E+00 0.716E-03
CGA:   4    -0.350779098293E+03   -0.81622E-01   -0.81566E-01  8208   0.215E+00-0.170E-02
CGA:   5    -0.350801854045E+03   -0.22756E-01   -0.22806E-01  8208   0.557E-01 0.344E-03
CGA:   6    -0.350809772813E+03   -0.79188E-02   -0.79192E-02  8208   0.158E-01-0.372E-04
CGA:   7    -0.350812188583E+03   -0.24158E-02   -0.24155E-02  8208   0.710E-02 0.158E-04
CGA:   8    -0.350813035850E+03   -0.84727E-03   -0.84723E-03  8208   0.253E-02 0.212E-05
CGA:   9    -0.350813440951E+03   -0.40510E-03   -0.40507E-03  8208   0.862E-03 0.138E-05
CGA:  10    -0.350813574313E+03   -0.13336E-03   -0.13337E-03  8208   0.536E-03-0.865E-07
CGA:  11    -0.350813647601E+03   -0.73288E-04   -0.73290E-04  8208   0.196E-03 0.531E-06
CGA:  12    -0.350813684652E+03   -0.37050E-04   -0.37032E-04  8208   0.111E-03 0.355E-06
CGA:  13    -0.350813699404E+03   -0.14752E-04   -0.14757E-04  8208   0.496E-04 0.522E-06
CGA:  14    -0.350813708178E+03   -0.87739E-05   -0.87558E-05  8208   0.232E-04 0.510E-06
  25 F= -.35081371E+03 E0= -.35080611E+03  d E =-.214893E-02  mag=    30.0278
       N       E                     dE             d eps       ncg     rms          ort
SDA:   1    -0.350330430380E+03    0.48327E+00    0.00000E+00  8208   0.156E+01 0.000E+00
CGA:   2    -0.350597252192E+03   -0.26682E+00   -0.26687E+00  8208   0.867E+00-0.104E-02
CGA:   3    -0.350733069789E+03   -0.13582E+00   -0.13584E+00  8208   0.420E+00-0.112E-02
CGA:   4    -0.350787282782E+03   -0.54213E-01   -0.54223E-01  8208   0.115E+00 0.299E-03
CGA:   5    -0.350802100545E+03   -0.14818E-01   -0.14816E-01  8208   0.331E-01-0.385E-04
CGA:   6    -0.350806371639E+03   -0.42711E-02   -0.42701E-02  8208   0.119E-01-0.212E-04
CGA:   7    -0.350807826111E+03   -0.14545E-02   -0.14550E-02  8208   0.433E-02 0.159E-04
CGA:   8    -0.350808470760E+03   -0.64465E-03   -0.64463E-03  8208   0.165E-02 0.369E-05
CGA:   9    -0.350808711773E+03   -0.24101E-03   -0.24102E-03  8208   0.729E-03-0.763E-07
CGA:  10    -0.350808824897E+03   -0.11312E-03   -0.11314E-03  8208   0.316E-03-0.131E-05
CGA:  11    -0.350808881309E+03   -0.56411E-04   -0.56427E-04  8208   0.187E-03-0.328E-06
CGA:  12    -0.350808907813E+03   -0.26504E-04   -0.26505E-04  8208   0.913E-04 0.568E-06
CGA:  13    -0.350808922646E+03   -0.14833E-04   -0.14812E-04  8208   0.451E-04 0.116E-05
CGA:  14    -0.350808929129E+03   -0.64836E-05   -0.64859E-05  8208   0.201E-04 0.788E-06
  26 F= -.35080893E+03 E0= -.35080135E+03  d E =0.477905E-02  mag=    30.0265
       N       E                     dE             d eps       ncg     rms          ort
SDA:   1    -0.350551216208E+03    0.25771E+00    0.00000E+00  8208   0.784E+00 0.000E+00
CGA:   2    -0.350692239434E+03   -0.14102E+00   -0.14109E+00  8208   0.506E+00-0.123E-02
CGA:   3    -0.350762997177E+03   -0.70758E-01   -0.70752E-01  8208   0.222E+00-0.272E-03
CGA:   4    -0.350792599800E+03   -0.29603E-01   -0.29605E-01  8208   0.563E-01 0.966E-04
CGA:   5    -0.350800006642E+03   -0.74068E-02   -0.74079E-02  8208   0.183E-01 0.327E-04
CGA:   6    -0.350802129595E+03   -0.21230E-02   -0.21214E-02  8208   0.612E-02-0.667E-05
CGA:   7    -0.350802969905E+03   -0.84031E-03   -0.84036E-03  8208   0.203E-02 0.675E-05
CGA:   8    -0.350803281421E+03   -0.31152E-03   -0.31149E-03  8208   0.927E-03 0.321E-05
CGA:   9    -0.350803407628E+03   -0.12621E-03   -0.12620E-03  8208   0.336E-03 0.188E-06
CGA:  10    -0.350803468712E+03   -0.61084E-04   -0.61147E-04  8208   0.177E-03-0.158E-05
CGA:  11    -0.350803495070E+03   -0.26358E-04   -0.26360E-04  8208   0.106E-03-0.388E-06
CGA:  12    -0.350803511965E+03   -0.16895E-04   -0.16889E-04  8208   0.496E-04 0.426E-06
CGA:  13    -0.350803519624E+03   -0.76583E-05   -0.76529E-05  8208   0.268E-04 0.788E-06
  27 F= -.35080352E+03 E0= -.35079594E+03  d E =0.540951E-02  mag=    30.0264
       N       E                     dE             d eps       ncg     rms          ort
SDA:   1    -0.350703946730E+03    0.99565E-01    0.00000E+00  8208   0.300E+00 0.000E+00
CGA:   2    -0.350756483214E+03   -0.52536E-01   -0.52539E-01  8208   0.194E+00-0.431E-04
CGA:   3    -0.350783628469E+03   -0.27145E-01   -0.27144E-01  8208   0.916E-01-0.217E-04
CGA:   4    -0.350795421164E+03   -0.11793E-01   -0.11791E-01  8208   0.227E-01-0.265E-04
CGA:   5    -0.350798289570E+03   -0.28684E-02   -0.28695E-02  8208   0.703E-02 0.206E-04
CGA:   6    -0.350799127420E+03   -0.83785E-03   -0.83773E-03  8208   0.243E-02 0.124E-05
CGA:   7    -0.350799472447E+03   -0.34503E-03   -0.34503E-03  8208   0.785E-03 0.242E-05
CGA:   8    -0.350799597837E+03   -0.12539E-03   -0.12537E-03  8208   0.338E-03 0.137E-05
CGA:   9    -0.350799642498E+03   -0.44660E-04   -0.44662E-04  8208   0.135E-03 0.291E-06
CGA:  10    -0.350799665810E+03   -0.23312E-04   -0.23328E-04  8208   0.700E-04-0.557E-06
CGA:  11    -0.350799676271E+03   -0.10461E-04   -0.10462E-04  8208   0.427E-04-0.213E-06
CGA:  12    -0.350799683169E+03   -0.68984E-05   -0.68975E-05  8208   0.194E-04 0.609E-07
  28 F= -.35079968E+03 E0= -.35079210E+03  d E =0.383645E-02  mag=    30.0262
       N       E                     dE             d eps       ncg     rms          ort
SDA:   1    -0.350658021496E+03    0.14165E+00    0.00000E+00  8208   0.382E+00 0.000E+00
CGA:   2    -0.350742141067E+03   -0.84120E-01   -0.84130E-01  8208   0.243E+00-0.112E-03
CGA:   3    -0.350778496702E+03   -0.36356E-01   -0.36355E-01  8208   0.953E-01-0.883E-04
CGA:   4    -0.350789640906E+03   -0.11144E-01   -0.11154E-01  8208   0.270E-01 0.630E-04
CGA:   5    -0.350792832350E+03   -0.31914E-02   -0.31902E-02  8208   0.792E-02-0.357E-05
CGA:   6    -0.350793898627E+03   -0.10663E-02   -0.10664E-02  8208   0.271E-02 0.619E-05
CGA:   7    -0.350794269433E+03   -0.37081E-03   -0.37081E-03  8208   0.101E-02 0.138E-05
CGA:   8    -0.350794419381E+03   -0.14995E-03   -0.14995E-03  8208   0.366E-03 0.171E-05
CGA:   9    -0.350794472959E+03   -0.53578E-04   -0.53577E-04  8208   0.188E-03-0.108E-06
CGA:  10    -0.350794500849E+03   -0.27890E-04   -0.27891E-04  8208   0.902E-04-0.438E-06
CGA:  11    -0.350794517617E+03   -0.16768E-04   -0.16777E-04  8208   0.565E-04-0.213E-06
CGA:  12    -0.350794526111E+03   -0.84938E-05   -0.84937E-05  8208   0.304E-04 0.114E-06
  29 F= -.35079453E+03 E0= -.35078694E+03  d E =0.515706E-02  mag=    30.0261
       N       E                     dE             d eps       ncg     rms          ort
SDA:   1    -0.350147045858E+03    0.64747E+00    0.00000E+00  8208   0.176E+01 0.000E+00
CGA:   2    -0.350540894444E+03   -0.39385E+00   -0.39388E+00  8208   0.113E+01-0.303E-03
CGA:   3    -0.350714100579E+03   -0.17321E+00   -0.17321E+00  8208   0.429E+00 0.287E-03
CGA:   4    -0.350762570669E+03   -0.48470E-01   -0.48409E-01  8208   0.127E+00-0.137E-03
CGA:   5    -0.350777068396E+03   -0.14498E-01   -0.14516E-01  8208   0.337E-01 0.983E-04
CGA:   6    -0.350782179647E+03   -0.51113E-02   -0.51113E-02  8208   0.106E-01-0.648E-05
CGA:   7    -0.350783704298E+03   -0.15247E-02   -0.15248E-02  8208   0.478E-02 0.157E-04
CGA:   8    -0.350784299362E+03   -0.59506E-03   -0.59500E-03  8208   0.156E-02 0.125E-05
CGA:   9    -0.350784558009E+03   -0.25865E-03   -0.25863E-03  8208   0.724E-03 0.993E-06
CGA:  10    -0.350784664301E+03   -0.10629E-03   -0.10629E-03  8208   0.425E-03-0.431E-06
CGA:  11    -0.350784740097E+03   -0.75796E-04   -0.75788E-04  8208   0.207E-03 0.324E-06
CGA:  12    -0.350784776420E+03   -0.36323E-04   -0.36312E-04  8208   0.146E-03 0.471E-06
CGA:  13    -0.350784797381E+03   -0.20961E-04   -0.20968E-04  8208   0.572E-04 0.804E-06
CGA:  14    -0.350784807595E+03   -0.10214E-04   -0.10195E-04  8208   0.308E-04 0.735E-06
CGA:  15    -0.350784811825E+03   -0.42300E-05   -0.42351E-05  8208   0.126E-04 0.293E-06
  30 F= -.35078481E+03 E0= -.35077726E+03  d E =0.971429E-02  mag=    30.0254
       N       E                     dE             d eps       ncg     rms          ort
SDA:   1    -0.340648967211E+03    0.10136E+02    0.00000E+00  8208   0.276E+02 0.000E+00
CGA:   2    -0.346941577952E+03   -0.62926E+01   -0.62917E+01  8208   0.177E+02 0.112E-01
CGA:   3    -0.349726175039E+03   -0.27846E+01   -0.27846E+01  8208   0.604E+01-0.367E-01
CGA:   4    -0.350449492030E+03   -0.72332E+00   -0.72259E+00  8208   0.171E+01 0.541E-02
CGA:   5    -0.350644487233E+03   -0.19500E+00   -0.19547E+00  8208   0.525E+00 0.417E-02
CGA:   6    -0.350719218109E+03   -0.74731E-01   -0.74704E-01  8208   0.165E+00-0.843E-03
CGA:   7    -0.350742739059E+03   -0.23521E-01   -0.23532E-01  8208   0.720E-01 0.525E-03
CGA:   8    -0.350751668255E+03   -0.89292E-02   -0.89283E-02  8208   0.235E-01 0.195E-04
CGA:   9    -0.350755670733E+03   -0.40025E-02   -0.40019E-02  8208   0.981E-02 0.279E-04
CGA:  10    -0.350757261539E+03   -0.15908E-02   -0.15906E-02  8208   0.649E-02 0.196E-04
CGA:  11    -0.350758296708E+03   -0.10352E-02   -0.10351E-02  8208   0.301E-02 0.146E-04
CGA:  12    -0.350758847821E+03   -0.55111E-03   -0.55073E-03  8208   0.209E-02 0.127E-04
CGA:  13    -0.350759128739E+03   -0.28092E-03   -0.28103E-03  8208   0.879E-03 0.680E-05
CGA:  14    -0.350759280700E+03   -0.15196E-03   -0.15184E-03  8208   0.448E-03 0.614E-05
CGA:  15    -0.350759340126E+03   -0.59425E-04   -0.59470E-04  8208   0.193E-03 0.233E-05
CGA:  16    -0.350759374553E+03   -0.34428E-04   -0.34390E-04  8208   0.104E-03 0.155E-05
CGA:  17    -0.350759390324E+03   -0.15771E-04   -0.15773E-04  8208   0.651E-04 0.464E-06
CGA:  18    -0.350759403836E+03   -0.13512E-04   -0.13513E-04  8208   0.460E-04-0.278E-07
CGA:  19    -0.350759412100E+03   -0.82636E-05   -0.82720E-05  8208   0.387E-04-0.366E-06
  31 F= -.35075941E+03 E0= -.35075194E+03  d E =0.253997E-01  mag=    30.0226
       N       E                     dE             d eps       ncg     rms          ort
SDA:   1    -0.322823839896E+03    0.27936E+02    0.00000E+00  8208   0.731E+02 0.000E+00
CGA:   2    -0.341255835602E+03   -0.18432E+02   -0.18412E+02  8208   0.466E+02 0.192E+00
CGA:   3    -0.348120546963E+03   -0.68647E+01   -0.68115E+01  8208   0.163E+02-0.666E+00
CGA:   4    -0.349882711351E+03   -0.17622E+01   -0.17891E+01  8208   0.466E+01 0.282E+00
CGA:   5    -0.350428840020E+03   -0.54613E+00   -0.51033E+00  8208   0.131E+01 0.173E+00
CGA:   6    -0.350641124263E+03   -0.21228E+00   -0.21235E+00  8208   0.410E+00 0.161E-01
CGA:   7    -0.350701598130E+03   -0.60474E-01   -0.60466E-01  8208   0.206E+00-0.864E-04
CGA:   8    -0.350724909679E+03   -0.23312E-01   -0.23600E-01  8208   0.632E-01 0.132E-02
CGA:   9    -0.350736470844E+03   -0.11561E-01   -0.11557E-01  8208   0.265E-01 0.123E-03
CGA:  10    -0.350740788816E+03   -0.43180E-02   -0.43158E-02  8208   0.189E-01 0.240E-03
CGA:  11    -0.350743763586E+03   -0.29748E-02   -0.29748E-02  8208   0.802E-02 0.408E-04
CGA:  12    -0.350745387357E+03   -0.16238E-02   -0.16211E-02  8208   0.542E-02 0.495E-04
CGA:  13    -0.350746119504E+03   -0.73215E-03   -0.73270E-03  8208   0.226E-02 0.158E-04
CGA:  14    -0.350746532782E+03   -0.41328E-03   -0.41294E-03  8208   0.982E-03 0.130E-04
CGA:  15    -0.350746672587E+03   -0.13980E-03   -0.13988E-03  8208   0.496E-03 0.426E-05
CGA:  16    -0.350746756826E+03   -0.84239E-04   -0.84203E-04  8208   0.249E-03 0.329E-05
CGA:  17    -0.350746798434E+03   -0.41608E-04   -0.41596E-04  8208   0.179E-03 0.177E-05
CGA:  18    -0.350746833822E+03   -0.35388E-04   -0.35383E-04  8208   0.131E-03 0.231E-06
CGA:  19    -0.350746856656E+03   -0.22834E-04   -0.22849E-04  8208   0.115E-03-0.979E-06
CGA:  20    -0.350746878413E+03   -0.21757E-04   -0.21806E-04  8208   0.762E-04-0.161E-05
CGA:  21    -0.350746890925E+03   -0.12512E-04   -0.12515E-04  8208   0.511E-04-0.831E-06
CGA:  22    -0.350746900019E+03   -0.90937E-05   -0.91036E-05  8208   0.281E-04-0.593E-06
  32 F= -.35074690E+03 E0= -.35073938E+03  d E =0.125121E-01  mag=    30.0249
       N       E                     dE             d eps       ncg     rms          ort
SDA:   1    -0.339494019713E+03    0.11253E+02    0.00000E+00  8208   0.315E+02 0.000E+00
CGA:   2    -0.346536682165E+03   -0.70427E+01   -0.70396E+01  8208   0.191E+02 0.405E-01
CGA:   3    -0.349633005000E+03   -0.30963E+01   -0.30962E+01  8208   0.668E+01-0.899E-02
CGA:   4    -0.350457098556E+03   -0.82409E+00   -0.82341E+00  8208   0.198E+01 0.195E-02
CGA:   5    -0.350679089406E+03   -0.22199E+00   -0.22086E+00  8208   0.609E+00 0.352E-02
CGA:   6    -0.350765622905E+03   -0.86533E-01   -0.86480E-01  8208   0.177E+00-0.777E-03
CGA:   7    -0.350793262871E+03   -0.27640E-01   -0.27643E-01  8208   0.790E-01 0.349E-03
CGA:   8    -0.350802431262E+03   -0.91684E-02   -0.91610E-02  8208   0.303E-01 0.314E-04
CGA:   9    -0.350807218126E+03   -0.47869E-02   -0.47869E-02  8208   0.117E-01 0.448E-04
CGA:  10    -0.350809156704E+03   -0.19386E-02   -0.19382E-02  8208   0.831E-02 0.398E-04
CGA:  11    -0.350810372661E+03   -0.12160E-02   -0.12162E-02  8208   0.358E-02 0.163E-04
CGA:  12    -0.350811072699E+03   -0.70004E-03   -0.69956E-03  8208   0.237E-02 0.120E-04
CGA:  13    -0.350811395997E+03   -0.32330E-03   -0.32337E-03  8208   0.103E-02 0.376E-05
CGA:  14    -0.350811579498E+03   -0.18350E-03   -0.18345E-03  8208   0.469E-03 0.228E-05
CGA:  15    -0.350811642727E+03   -0.63230E-04   -0.63266E-04  8208   0.222E-03 0.143E-05
CGA:  16    -0.350811680827E+03   -0.38100E-04   -0.38077E-04  8208   0.979E-04 0.173E-05
CGA:  17    -0.350811696552E+03   -0.15725E-04   -0.15725E-04  8208   0.651E-04 0.762E-06
CGA:  18    -0.350811708766E+03   -0.12213E-04   -0.12201E-04  8208   0.376E-04 0.439E-06
CGA:  19    -0.350811715822E+03   -0.70564E-05   -0.70612E-05  8208   0.341E-04-0.173E-06
  33 F= -.35081172E+03 E0= -.35080438E+03  d E =-.648158E-01  mag=    30.0237
       N       E                     dE             d eps       ncg     rms          ort
SDA:   1    -0.300825910519E+03    0.49986E+02    0.00000E+00  8208   0.602E+03 0.000E+00
CGA:   2    -0.321899111916E+03   -0.21073E+02   -0.33750E+02  8208   0.960E+02 0.408E+02
CGA:   3    -0.334960221152E+03   -0.13061E+02   -0.96511E+01  8208   0.411E+02 0.311E+02
CGA:   4    -0.343049383282E+03   -0.80892E+01   -0.89846E+01  8208   0.187E+03-0.506E+02
CGA:   5    -0.345797908397E+03   -0.27485E+01   -0.12571E+02  8208   0.338E+02-0.266E+02
CGA:   6    -0.347005909475E+03   -0.12080E+01   -0.72553E+00  8208   0.170E+02 0.202E+02
CGA:   7    -0.347592208057E+03   -0.58630E+00   -0.31748E+00  8208   0.114E+02 0.144E+02
CGA:   8    -0.347983745012E+03   -0.39154E+00   -0.20943E+00  8208   0.797E+01 0.990E+01
CGA:   9    -0.348301724901E+03   -0.31798E+00   -0.17162E+00  8208   0.528E+01 0.667E+01
CGA:  10    -0.348702112201E+03   -0.40039E+00   -0.25802E+00  8208   0.369E+01 0.229E+01
CGA:  11    -0.349644161732E+03   -0.94205E+00   -0.97229E+00  8208   0.187E+02-0.377E+00
CGA:  12    -0.350015755201E+03   -0.37159E+00   -0.46054E+00  8208   0.893E+01-0.258E+01
CGA:  13    -0.350145565963E+03   -0.12981E+00   -0.21108E+00  8208   0.216E+01-0.189E+01
CGA:  14    -0.350205051060E+03   -0.59485E-01   -0.72585E-01  8208   0.129E+01-0.176E+00
CGA:  15    -0.350314562985E+03   -0.10951E+00   -0.11002E+00  8208   0.134E+01 0.850E-02
CGA:  16    -0.350399254844E+03   -0.84692E-01   -0.83487E-01  8208   0.528E+00 0.164E-01
CGA:  17    -0.350440067460E+03   -0.40813E-01   -0.40157E-01  8208   0.539E+00 0.555E-03
CGA:  18    -0.350482576443E+03   -0.42509E-01   -0.42164E-01  8208   0.468E+00-0.736E-03
CGA:  19    -0.350512457062E+03   -0.29881E-01   -0.30559E-01  8208   0.300E+00-0.106E-02
CGA:  20    -0.350535150961E+03   -0.22694E-01   -0.23178E-01  8208   0.162E+00 0.375E-02
CGA:  21    -0.350546611511E+03   -0.11461E-01   -0.11445E-01  8208   0.922E-01 0.414E-04
CGA:  22    -0.350555451366E+03   -0.88399E-02   -0.88323E-02  8208   0.670E-01-0.681E-03
CGA:  23    -0.350560558702E+03   -0.51073E-02   -0.51202E-02  8208   0.415E-01 0.111E-03
CGA:  24    -0.350564489922E+03   -0.39312E-02   -0.39338E-02  8208   0.330E-01 0.233E-03
CGA:  25    -0.350567689920E+03   -0.32000E-02   -0.32003E-02  8208   0.258E-01 0.432E-04
CGA:  26    -0.350570043290E+03   -0.23534E-02   -0.23519E-02  8208   0.167E-01-0.752E-04
CGA:  27    -0.350571646007E+03   -0.16027E-02   -0.16027E-02  8208   0.139E-01 0.113E-05
CGA:  28    -0.350572966903E+03   -0.13209E-02   -0.13211E-02  8208   0.934E-02 0.303E-04
CGA:  29    -0.350573824305E+03   -0.85740E-03   -0.85769E-03  8208   0.642E-02 0.158E-04
CGA:  30    -0.350574389450E+03   -0.56515E-03   -0.56498E-03  8208   0.394E-02-0.136E-04
CGA:  31    -0.350574786561E+03   -0.39711E-03   -0.39717E-03  8208   0.325E-02-0.155E-04
CGA:  32    -0.350575093285E+03   -0.30672E-03   -0.30672E-03  8208   0.228E-02-0.299E-05
CGA:  33    -0.350575304003E+03   -0.21072E-03   -0.21074E-03  8208   0.121E-02 0.250E-05
CGA:  34    -0.350575396675E+03   -0.92672E-04   -0.92663E-04  8208   0.742E-03 0.234E-06
CGA:  35    -0.350575502217E+03   -0.10554E-03   -0.10572E-03  8208   0.870E-03-0.420E-05
CGA:  36    -0.350575563743E+03   -0.61526E-04   -0.61459E-04  8208   0.301E-03-0.330E-05
CGA:  37    -0.350575594805E+03   -0.31063E-04   -0.31066E-04  8208   0.292E-03-0.594E-06
CGA:  38    -0.350575624840E+03   -0.30034E-04   -0.30026E-04  8208   0.214E-03 0.143E-05
CGA:  39    -0.350575646447E+03   -0.21607E-04   -0.21599E-04  8208   0.157E-03 0.270E-05
SDA:  40    -0.350575659851E+03   -0.13404E-04   -0.13431E-04  8208   0.817E-04 0.190E-05
CGA:  41    -0.350575671521E+03   -0.11669E-04   -0.11718E-04  8208   0.760E-04-0.110E-05
CGA:  42    -0.350575685360E+03   -0.13840E-04   -0.13929E-04  8208   0.308E-04-0.106E-05
CGA:  43    -0.350575688380E+03   -0.30198E-05   -0.30220E-05  8208   0.131E-04 0.481E-06
  34 F= -.35057569E+03 E0= -.35056811E+03  d E =0.236027E+00  mag=    30.0225
       N       E                     dE             d eps       ncg     rms          ort
SDA:   1    -0.333909449278E+03    0.16666E+02    0.00000E+00  8208   0.812E+02 0.000E+00
CGA:   2    -0.341657611875E+03   -0.77482E+01   -0.79325E+01  8208   0.316E+02 0.966E+01
CGA:   3    -0.344477313545E+03   -0.28197E+01   -0.43040E+01  8208   0.161E+03-0.680E+02
CGA:   4    -0.346856761110E+03   -0.23794E+01   -0.85765E+01  8208   0.216E+02-0.147E+02
CGA:   5    -0.347906649839E+03   -0.10499E+01   -0.59428E+00  8208   0.110E+02 0.148E+02
CGA:   6    -0.348478143875E+03   -0.57149E+00   -0.33551E+00  8208   0.530E+01 0.745E+01
CGA:   7    -0.348994800902E+03   -0.51666E+00   -0.52597E+00  8208   0.156E+02-0.191E+01
CGA:   8    -0.349681047851E+03   -0.68625E+00   -0.68678E+00  8208   0.355E+02-0.170E-01
CGA:   9    -0.350277209393E+03   -0.59616E+00   -0.11068E+01  8208   0.438E+01-0.897E+01
CGA:  10    -0.350447337124E+03   -0.17013E+00   -0.17659E+00  8208   0.149E+01 0.320E-01
CGA:  11    -0.350609755589E+03   -0.16242E+00   -0.16201E+00  8208   0.124E+01 0.155E-01
CGA:  12    -0.350703515287E+03   -0.93760E-01   -0.94095E-01  8208   0.417E+00 0.778E-02
CGA:  13    -0.350745807901E+03   -0.42293E-01   -0.42339E-01  8208   0.389E+00-0.278E-02
CGA:  14    -0.350784260294E+03   -0.38452E-01   -0.38405E-01  8208   0.216E+00 0.320E-02
CGA:  15    -0.350804302345E+03   -0.20042E-01   -0.20040E-01  8208   0.109E+00 0.107E-02
CGA:  16    -0.350813392688E+03   -0.90903E-02   -0.90903E-02  8208   0.439E-01 0.147E-04
CGA:  17    -0.350818787950E+03   -0.53953E-02   -0.53904E-02  8208   0.361E-01 0.114E-03
CGA:  18    -0.350821956780E+03   -0.31688E-02   -0.31704E-02  8208   0.136E-01 0.134E-03
CGA:  19    -0.350823537091E+03   -0.15803E-02   -0.15805E-02  8208   0.104E-01-0.119E-04
CGA:  20    -0.350824695518E+03   -0.11584E-02   -0.11587E-02  8208   0.627E-02-0.970E-05
CGA:  21    -0.350825430948E+03   -0.73543E-03   -0.73483E-03  8208   0.388E-02 0.224E-04
CGA:  22    -0.350825806613E+03   -0.37566E-03   -0.37564E-03  8208   0.188E-02 0.145E-04
CGA:  23    -0.350826064861E+03   -0.25825E-03   -0.25827E-03  8208   0.160E-02-0.799E-06
CGA:  24    -0.350826224108E+03   -0.15925E-03   -0.15926E-03  8208   0.674E-03-0.443E-05
CGA:  25    -0.350826305383E+03   -0.81276E-04   -0.81272E-04  8208   0.486E-03-0.393E-06
CGA:  26    -0.350826363973E+03   -0.58590E-04   -0.58555E-04  8208   0.333E-03 0.129E-05
CGA:  27    -0.350826400200E+03   -0.36226E-04   -0.36215E-04  8208   0.141E-03 0.117E-05
CGA:  28    -0.350826417622E+03   -0.17422E-04   -0.17426E-04  8208   0.125E-03-0.305E-06
CGA:  29    -0.350826433681E+03   -0.16059E-04   -0.16091E-04  8208   0.562E-04-0.130E-05
CGA:  30    -0.350826439934E+03   -0.62529E-05   -0.62595E-05  8208   0.405E-04-0.796E-06
  35 F= -.35082644E+03 E0= -.35081931E+03  d E =-.250752E+00  mag=    30.0169
       N       E                     dE             d eps       ncg     rms          ort
SDA:   1    -0.349050727248E+03    0.17757E+01    0.00000E+00  8208   0.607E+01 0.000E+00
CGA:   2    -0.350051485147E+03   -0.10008E+01   -0.99930E+00  8208   0.314E+01 0.221E-01
CGA:   3    -0.350547165198E+03   -0.49568E+00   -0.49841E+00  8208   0.181E+01-0.470E-01
CGA:   4    -0.350761454169E+03   -0.21429E+00   -0.21419E+00  8208   0.479E+00 0.640E-02
CGA:   5    -0.350825130306E+03   -0.63676E-01   -0.63716E-01  8208   0.123E+00-0.125E-02
CGA:   6    -0.350842400420E+03   -0.17270E-01   -0.17275E-01  8208   0.474E-01-0.120E-03
CGA:   7    -0.350847764281E+03   -0.53639E-02   -0.53640E-02  8208   0.185E-01 0.140E-03
CGA:   8    -0.350850435808E+03   -0.26715E-02   -0.26714E-02  8208   0.667E-02 0.839E-05
CGA:   9    -0.350851329338E+03   -0.89353E-03   -0.89356E-03  8208   0.350E-02 0.314E-05
CGA:  10    -0.350851802078E+03   -0.47274E-03   -0.47257E-03  8208   0.123E-02 0.843E-05
CGA:  11    -0.350852039002E+03   -0.23692E-03   -0.23655E-03  8208   0.749E-03 0.517E-05
CGA:  12    -0.350852137700E+03   -0.98699E-04   -0.98682E-04  8208   0.352E-03 0.161E-05
CGA:  13    -0.350852202954E+03   -0.65254E-04   -0.65212E-04  8208   0.169E-03 0.689E-06
CGA:  14    -0.350852226161E+03   -0.23207E-04   -0.23204E-04  8208   0.991E-04 0.332E-06
CGA:  15    -0.350852241033E+03   -0.14871E-04   -0.14859E-04  8208   0.373E-04 0.502E-06
CGA:  16    -0.350852246352E+03   -0.53192E-05   -0.53118E-05  8208   0.222E-04 0.478E-06
  36 F= -.35085225E+03 E0= -.35084505E+03  d E =-.258064E-01  mag=    30.0211
       N       E                     dE             d eps       ncg     rms          ort
SDA:   1    -0.350573070870E+03    0.27917E+00    0.00000E+00  8208   0.874E+00 0.000E+00
CGA:   2    -0.350737800747E+03   -0.16473E+00   -0.16458E+00  8208   0.566E+00 0.219E-02
CGA:   3    -0.350814455064E+03   -0.76654E-01   -0.76678E-01  8208   0.264E+00-0.322E-02
CGA:   4    -0.350847235603E+03   -0.32781E-01   -0.32783E-01  8208   0.677E-01 0.157E-03
CGA:   5    -0.350856603687E+03   -0.93681E-02   -0.93686E-02  8208   0.178E-01-0.318E-04
CGA:   6    -0.350859011919E+03   -0.24082E-02   -0.24083E-02  8208   0.674E-02-0.195E-05
CGA:   7    -0.350859795728E+03   -0.78381E-03   -0.78393E-03  8208   0.249E-02 0.583E-05
CGA:   8    -0.350860172481E+03   -0.37675E-03   -0.37675E-03  8208   0.964E-03 0.165E-05
CGA:   9    -0.350860299012E+03   -0.12653E-03   -0.12653E-03  8208   0.496E-03 0.164E-05
CGA:  10    -0.350860370823E+03   -0.71811E-04   -0.71798E-04  8208   0.196E-03 0.117E-05
CGA:  11    -0.350860406147E+03   -0.35324E-04   -0.35300E-04  8208   0.129E-03 0.564E-06
CGA:  12    -0.350860424550E+03   -0.18403E-04   -0.18401E-04  8208   0.572E-04 0.347E-06
CGA:  13    -0.350860435454E+03   -0.10904E-04   -0.10893E-04  8208   0.323E-04 0.214E-06
CGA:  14    -0.350860439747E+03   -0.42925E-05   -0.42927E-05  8208   0.148E-04 0.390E-07
  37 F= -.35086044E+03 E0= -.35085320E+03  d E =-.819339E-02  mag=    30.0230
       N       E                     dE             d eps       ncg     rms          ort
SDA:   1    -0.350414829124E+03    0.44561E+00    0.00000E+00  8208   0.138E+01 0.000E+00
CGA:   2    -0.350669981164E+03   -0.25515E+00   -0.25482E+00  8208   0.871E+00 0.565E-02
CGA:   3    -0.350789370720E+03   -0.11939E+00   -0.11930E+00  8208   0.419E+00-0.738E-02
CGA:   4    -0.350841421614E+03   -0.52051E-01   -0.52060E-01  8208   0.106E+00 0.248E-03
CGA:   5    -0.350856104212E+03   -0.14683E-01   -0.14682E-01  8208   0.281E-01-0.488E-04
CGA:   6    -0.350859928663E+03   -0.38245E-02   -0.38244E-02  8208   0.102E-01-0.254E-05
CGA:   7    -0.350861179084E+03   -0.12504E-02   -0.12508E-02  8208   0.384E-02 0.118E-04
CGA:   8    -0.350861752970E+03   -0.57389E-03   -0.57390E-03  8208   0.147E-02 0.188E-05
CGA:   9    -0.350861953575E+03   -0.20061E-03   -0.20061E-03  8208   0.717E-03 0.272E-05
CGA:  10    -0.350862058182E+03   -0.10461E-03   -0.10460E-03  8208   0.318E-03 0.134E-05
CGA:  11    -0.350862109712E+03   -0.51530E-04   -0.51523E-04  8208   0.198E-03 0.575E-06
CGA:  12    -0.350862139556E+03   -0.29844E-04   -0.29839E-04  8208   0.850E-04 0.642E-06
CGA:  13    -0.350862155352E+03   -0.15796E-04   -0.15779E-04  8208   0.516E-04 0.419E-06
CGA:  14    -0.350862162217E+03   -0.68648E-05   -0.68668E-05  8208   0.210E-04 0.185E-06
  38 F= -.35086216E+03 E0= -.35085489E+03  d E =-.172247E-02  mag=    30.0247
       N       E                     dE             d eps       ncg     rms          ort
SDA:   1    -0.350780058107E+03    0.82097E-01    0.00000E+00  8208   0.240E+00 0.000E+00
CGA:   2    -0.350822367344E+03   -0.42309E-01   -0.42279E-01  8208   0.190E+00 0.676E-03
CGA:   3    -0.350844542353E+03   -0.22175E-01   -0.22138E-01  8208   0.652E-01-0.285E-03
CGA:   4    -0.350854656224E+03   -0.10114E-01   -0.10114E-01  8208   0.161E-01-0.841E-06
CGA:   5    -0.350857011765E+03   -0.23555E-02   -0.23555E-02  8208   0.468E-02 0.555E-05
CGA:   6    -0.350857556875E+03   -0.54511E-03   -0.54512E-03  8208   0.186E-02 0.344E-05
CGA:   7    -0.350857795717E+03   -0.23884E-03   -0.23885E-03  8208   0.561E-03 0.151E-05
CGA:   8    -0.350857890757E+03   -0.95040E-04   -0.95037E-04  8208   0.259E-03 0.601E-06
CGA:   9    -0.350857921644E+03   -0.30887E-04   -0.30888E-04  8208   0.117E-03 0.278E-06
CGA:  10    -0.350857942337E+03   -0.20692E-04   -0.20699E-04  8208   0.529E-04-0.116E-06
CGA:  11    -0.350857951357E+03   -0.90204E-05   -0.90216E-05  8208   0.387E-04-0.161E-07
  39 F= -.35085795E+03 E0= -.35085067E+03  d E =0.421086E-02  mag=    30.0248
       N       E                     dE             d eps       ncg     rms          ort
SDA:   1    -0.350669926616E+03    0.18802E+00    0.00000E+00  8208   0.510E+00 0.000E+00
CGA:   2    -0.350784476855E+03   -0.11455E+00   -0.11457E+00  8208   0.287E+00-0.193E-03
CGA:   3    -0.350822763801E+03   -0.38287E-01   -0.38285E-01  8208   0.128E+00-0.213E-04
CGA:   4    -0.350838367811E+03   -0.15604E-01   -0.15602E-01  8208   0.393E-01-0.138E-04
CGA:   5    -0.350843469064E+03   -0.51013E-02   -0.51013E-02  8208   0.986E-02 0.633E-05
CGA:   6    -0.350844860388E+03   -0.13913E-02   -0.13913E-02  8208   0.347E-02 0.734E-05
CGA:   7    -0.350845291452E+03   -0.43106E-03   -0.43112E-03  8208   0.146E-02 0.397E-05
CGA:   8    -0.350845507666E+03   -0.21621E-03   -0.21621E-03  8208   0.513E-03 0.135E-05
CGA:   9    -0.350845589487E+03   -0.81821E-04   -0.81834E-04  8208   0.318E-03-0.487E-06
CGA:  10    -0.350845632983E+03   -0.43495E-04   -0.43486E-04  8208   0.147E-03-0.751E-06
CGA:  11    -0.350845661919E+03   -0.28937E-04   -0.28949E-04  8208   0.967E-04-0.147E-06
CGA:  12    -0.350845675402E+03   -0.13483E-04   -0.13487E-04  8208   0.497E-04 0.503E-06
CGA:  13    -0.350845684364E+03   -0.89619E-05   -0.89403E-05  8208   0.214E-04 0.723E-06
  40 F= -.35084568E+03 E0= -.35083840E+03  d E =0.122670E-01  mag=    30.0247
       N       E                     dE             d eps       ncg     rms          ort
SDA:   1    -0.350698855486E+03    0.14682E+00    0.00000E+00  8208   0.434E+00 0.000E+00
CGA:   2    -0.350780929923E+03   -0.82074E-01   -0.82072E-01  8208   0.214E+00 0.683E-04
CGA:   3    -0.350815639303E+03   -0.34709E-01   -0.34711E-01  8208   0.979E-01-0.930E-04
CGA:   4    -0.350827859484E+03   -0.12220E-01   -0.12225E-01  8208   0.352E-01 0.655E-04
CGA:   5    -0.350831852658E+03   -0.39932E-02   -0.39904E-02  8208   0.972E-02-0.591E-05
CGA:   6    -0.350833227367E+03   -0.13747E-02   -0.13748E-02  8208   0.267E-02 0.976E-05
CGA:   7    -0.350833625031E+03   -0.39766E-03   -0.39766E-03  8208   0.136E-02 0.429E-05
CGA:   8    -0.350833785296E+03   -0.16027E-03   -0.16029E-03  8208   0.486E-03 0.145E-05
CGA:   9    -0.350833871343E+03   -0.86048E-04   -0.86082E-04  8208   0.211E-03-0.977E-06
CGA:  10    -0.350833903707E+03   -0.32363E-04   -0.32369E-04  8208   0.148E-03-0.102E-05
CGA:  11    -0.350833926388E+03   -0.22682E-04   -0.22685E-04  8208   0.601E-04-0.624E-06
CGA:  12    -0.350833938145E+03   -0.11757E-04   -0.11733E-04  8208   0.398E-04 0.533E-06
CGA:  13    -0.350833943215E+03   -0.50705E-05   -0.50851E-05  8208   0.163E-04 0.610E-06
  41 F= -.35083394E+03 E0= -.35082657E+03  d E =0.117411E-01  mag=    30.0253
