       N       E                     dE             d eps       ncg     rms          ort
DAV:   1     0.714969279176E+04    0.71497E+04   -0.27580E+05  8528   0.168E+03
DAV:   2     0.746502557462E+03   -0.64032E+04   -0.60690E+04  8528   0.503E+02
DAV:   3    -0.359066087306E+03   -0.11056E+04   -0.10808E+04  8528   0.206E+02
DAV:   4    -0.423975319163E+03   -0.64909E+02   -0.62858E+02  8528   0.510E+01
DAV:   5    -0.429159444226E+03   -0.51841E+01   -0.50398E+01  8528   0.115E+01
SDA:   6    -0.140865393002E+03    0.28829E+03   -0.50398E+01  8528   0.231E+04 0.000E+00
CGA:   7    -0.226418994214E+03   -0.85554E+02   -0.12622E+03  8528   0.424E+04-0.137E+04
CGA:   8    -0.165203151337E+03    0.61216E+02   -0.22040E+03  8528   0.907E+04-0.565E+04
CGA:   9     0.146201850711E+03    0.31141E+03   -0.62295E+03  8528   0.274E+05-0.159E+05
CGA:  10     0.234675040075E+03    0.88473E+02   -0.14751E+04  8528   0.281E+05-0.231E+05
CGA:  11    -0.109401179157E+03   -0.34408E+03   -0.10144E+04  8528   0.256E+04-0.346E+04
CGA:  12    -0.297589304982E+03   -0.18819E+03   -0.65380E+02  8528   0.256E+04-0.414E+04
CGA:  13    -0.248454247843E+03    0.49135E+02   -0.81769E+02  8528   0.874E+04-0.465E+04
CGA:  14     0.180692226725E+03    0.42915E+03   -0.47400E+03  8528   0.117E+05-0.483E+04
CGA:  15    -0.182435137921E+02   -0.19894E+03   -0.41150E+03  8528   0.186E+05-0.186E+05
CGA:  16     0.186690805672E+03    0.20493E+03   -0.11256E+04  8528   0.546E+04-0.404E+04
CGA:  17    -0.284456354897E+03   -0.47115E+03   -0.15087E+03  8528   0.362E+04 0.221E+04
CGA:  18    -0.169330075981E+03    0.11513E+03   -0.28779E+03  8528   0.539E+04 0.562E+03
CGA:  19    -0.215989446225E+03   -0.46659E+02   -0.25346E+03  8528   0.188E+04-0.123E+04
CGA:  20    -0.355981540513E+03   -0.13999E+03   -0.50934E+02  8528   0.200E+03-0.419E+03
CGA:  21    -0.360149037880E+03   -0.41675E+01   -0.31568E+01  8528   0.143E+03 0.442E+02
CGA:  22    -0.365528027229E+03   -0.53790E+01   -0.55914E+01  8528   0.444E+02 0.158E+02
CGA:  23    -0.367190659314E+03   -0.16626E+01   -0.13561E+01  8528   0.283E+02 0.944E+01
CGA:  24    -0.368855598174E+03   -0.16649E+01   -0.12135E+01  8528   0.248E+02 0.967E+01
CGA:  25    -0.370313475448E+03   -0.14579E+01   -0.18051E+01  8528   0.604E+02-0.223E+01
CGA:  26    -0.371475373852E+03   -0.11619E+01   -0.13594E+01  8528   0.348E+02-0.900E+01
CGA:  27    -0.372259109667E+03   -0.78374E+00   -0.56786E+00  8528   0.323E+02 0.119E+02
CGA:  28    -0.373317241479E+03   -0.10581E+01   -0.94769E+00  8528   0.215E+02-0.289E+00
CGA:  29    -0.373529337842E+03   -0.21210E+00   -0.51849E+00  8528   0.169E+02-0.995E+01
CGA:  30    -0.373718976151E+03   -0.18964E+00   -0.34203E+00  8528   0.188E+02-0.176E+01
CGA:  31    -0.374162563772E+03   -0.44359E+00   -0.29380E+00  8528   0.109E+02 0.782E+01
CGA:  32    -0.374633358936E+03   -0.47080E+00   -0.40516E+00  8528   0.157E+02 0.146E+01
CGA:  33    -0.374951441860E+03   -0.31808E+00   -0.22819E+00  8528   0.141E+02 0.658E+01
CGA:  34    -0.375183850530E+03   -0.23241E+00   -0.24294E+00  8528   0.105E+02-0.213E+01
CGA:  35    -0.375288767796E+03   -0.10492E+00   -0.17726E+00  8528   0.227E+02-0.278E+01
CGA:  36    -0.375496468408E+03   -0.20770E+00   -0.28289E+00  8528   0.207E+02-0.308E+01
CGA:  37    -0.375692854238E+03   -0.19639E+00   -0.24784E+00  8528   0.112E+02-0.228E+01
CGA:  38    -0.375840299021E+03   -0.14744E+00   -0.12809E+00  8528   0.763E+01 0.146E+01
CGA:  39    -0.376005942100E+03   -0.16564E+00   -0.15816E+00  8528   0.812E+01 0.310E+00
CGA:  40    -0.376152237524E+03   -0.14630E+00   -0.15312E+00  8528   0.650E+01-0.946E+00
CGA:  41    -0.376202904632E+03   -0.50667E-01   -0.11162E+00  8528   0.610E+01-0.206E+01
CGA:  42    -0.376339301126E+03   -0.13640E+00   -0.11554E+00  8528   0.457E+01 0.642E+00
CGA:  43    -0.376429081633E+03   -0.89781E-01   -0.71519E-01  8528   0.291E+01 0.105E+01
CGA:  44    -0.376514996517E+03   -0.85915E-01   -0.82825E-01  8528   0.477E+01 0.834E-01
CGA:  45    -0.376622011862E+03   -0.10702E+00   -0.10119E+00  8528   0.762E+01 0.216E+00
SDA:  46    -0.376741205436E+03   -0.11919E+00   -0.11683E+00  8528   0.736E+01 0.859E-01
CGA:  47    -0.377000561148E+03   -0.25936E+00   -0.26694E+00  8528   0.151E+01 0.147E+00
CGA:  48    -0.377068347946E+03   -0.67787E-01   -0.67584E-01  8528   0.146E+01-0.315E-01
CGA:  49    -0.377233136016E+03   -0.16479E+00   -0.16351E+00  8528   0.157E+01 0.171E-01
CGA:  50    -0.377414424796E+03   -0.18129E+00   -0.19390E+00  8528   0.130E+01-0.214E+00
CGA:  51    -0.377500161287E+03   -0.85736E-01   -0.10438E+00  8528   0.230E+01-0.564E+00
CGA:  52    -0.377539754790E+03   -0.39594E-01   -0.35382E-01  8528   0.273E+01 0.752E-01
CGA:  53    -0.377604789777E+03   -0.65035E-01   -0.67478E-01  8528   0.198E+01-0.986E-01
CGA:  54    -0.377690934136E+03   -0.86144E-01   -0.88852E-01  8528   0.248E+01 0.172E+00
CGA:  55    -0.377776003667E+03   -0.85070E-01   -0.74506E-01  8528   0.701E+00 0.151E+00
CGA:  56    -0.377814160414E+03   -0.38157E-01   -0.38158E-01  8528   0.127E+01-0.255E-02
CGA:  57    -0.377874209439E+03   -0.60049E-01   -0.60324E-01  8528   0.128E+01 0.350E-01
CGA:  58    -0.377946997560E+03   -0.72788E-01   -0.72673E-01  8528   0.139E+01 0.129E-01
CGA:  59    -0.377989382113E+03   -0.42385E-01   -0.38761E-01  8528   0.573E+00 0.609E-01
CGA:  60    -0.378008229052E+03   -0.18847E-01   -0.17667E-01  8528   0.644E+00 0.117E-01
CGA:  61    -0.378032971957E+03   -0.24743E-01   -0.24515E-01  8528   0.940E+00-0.441E-02
CGA:  62    -0.378054832088E+03   -0.21860E-01   -0.23702E-01  8528   0.695E+00-0.335E-01
CGA:  63    -0.378081915346E+03   -0.27083E-01   -0.27326E-01  8528   0.112E+01 0.131E-01
CGA:  64    -0.378119911948E+03   -0.37997E-01   -0.35362E-01  8528   0.643E+00 0.184E-01
CGA:  65    -0.378134283690E+03   -0.14372E-01   -0.13761E-01  8528   0.476E+00 0.158E-01
CGA:  66    -0.378152183309E+03   -0.17900E-01   -0.17964E-01  8528   0.817E+00 0.250E-02
CGA:  67    -0.378176411235E+03   -0.24228E-01   -0.24144E-01  8528   0.756E+00 0.335E-02
CGA:  68    -0.378197147171E+03   -0.20736E-01   -0.20404E-01  8528   0.852E+00 0.580E-03
CGA:  69    -0.378219518479E+03   -0.22371E-01   -0.22009E-01  8528   0.777E+00 0.566E-02
CGA:  70    -0.378235458375E+03   -0.15940E-01   -0.15361E-01  8528   0.652E+00 0.165E-01
CGA:  71    -0.378250309578E+03   -0.14851E-01   -0.14308E-01  8528   0.594E+00 0.109E-01
CGA:  72    -0.378259670705E+03   -0.93611E-02   -0.83405E-02  8528   0.369E+00 0.545E-01
CGA:  73    -0.378265856079E+03   -0.61854E-02   -0.56917E-02  8528   0.364E+00 0.248E-01
CGA:  74    -0.378273553320E+03   -0.76972E-02   -0.73419E-02  8528   0.688E+00 0.885E-02
CGA:  75    -0.378285651325E+03   -0.12098E-01   -0.11950E-01  8528   0.115E+01 0.460E-02
CGA:  76    -0.378300946522E+03   -0.15295E-01   -0.16144E-01  8528   0.109E+01-0.343E-01
SDA:  77    -0.378312864881E+03   -0.11918E-01   -0.12784E-01  8528   0.796E+00-0.520E-01
CGA:  78    -0.378355486342E+03   -0.42621E-01   -0.42660E-01  8528   0.180E+00-0.195E-02
CGA:  79    -0.378366698690E+03   -0.11212E-01   -0.11528E-01  8528   0.417E+00-0.102E-01
CGA:  80    -0.378407134220E+03   -0.40436E-01   -0.39172E-01  8528   0.600E+00 0.221E-01
CGA:  81    -0.378441607185E+03   -0.34473E-01   -0.34240E-01  8528   0.648E+00 0.863E-02
CGA:  82    -0.378465081225E+03   -0.23474E-01   -0.23096E-01  8528   0.376E+00-0.298E-01
CGA:  83    -0.378485304780E+03   -0.20224E-01   -0.20307E-01  8528   0.715E+00-0.352E-02
CGA:  84    -0.378542969981E+03   -0.57665E-01   -0.49568E-01  8528   0.687E+00 0.208E+00
CGA:  85    -0.378582364963E+03   -0.39395E-01   -0.39760E-01  8528   0.466E+00-0.702E-01
CGA:  86    -0.378606899628E+03   -0.24535E-01   -0.27368E-01  8528   0.749E+00-0.102E+00
CGA:  87    -0.378619001273E+03   -0.12102E-01   -0.13378E-01  8528   0.645E+00-0.204E-01
CGA:  88    -0.378638900264E+03   -0.19899E-01   -0.20198E-01  8528   0.506E+00 0.187E-01
CGA:  89    -0.378654925468E+03   -0.16025E-01   -0.13736E-01  8528   0.555E+00 0.179E-01
CGA:  90    -0.378666665623E+03   -0.11740E-01   -0.10175E-01  8528   0.775E+00 0.538E-01
CGA:  91    -0.378681039564E+03   -0.14374E-01   -0.13733E-01  8528   0.102E+01 0.214E-01
CGA:  92    -0.378694552476E+03   -0.13513E-01   -0.11859E-01  8528   0.954E+00 0.128E+00
CGA:  93    -0.378705422296E+03   -0.10870E-01   -0.84698E-02  8528   0.786E+00 0.267E+00
CGA:  94    -0.378714896751E+03   -0.94745E-02   -0.77085E-02  8528   0.778E+00 0.194E+00
CGA:  95    -0.378723088722E+03   -0.81920E-02   -0.71860E-02  8528   0.981E+00 0.107E+00
CGA:  96    -0.378730746147E+03   -0.76574E-02   -0.74357E-02  8528   0.130E+01 0.163E-01
CGA:  97    -0.378738093261E+03   -0.73471E-02   -0.70524E-02  8528   0.150E+01 0.536E-01
CGA:  98    -0.378745741828E+03   -0.76486E-02   -0.63223E-02  8528   0.141E+01 0.310E+00
CGA:  99    -0.378753638114E+03   -0.78963E-02   -0.63532E-02  8528   0.117E+01 0.383E+00
CGA: 100    -0.378760200678E+03   -0.65626E-02   -0.56832E-02  8528   0.978E+00 0.208E+00
CGA: 101    -0.378764923480E+03   -0.47228E-02   -0.45479E-02  8528   0.923E+00 0.357E-01
CGA: 102    -0.378768480916E+03   -0.35574E-02   -0.38644E-02  8528   0.973E+00-0.750E-01
CGA: 103    -0.378771475570E+03   -0.29947E-02   -0.37038E-02  8528   0.108E+01-0.161E+00
CGA: 104    -0.378774304493E+03   -0.28289E-02   -0.37625E-02  8528   0.119E+01-0.204E+00
CGA: 105    -0.378777601225E+03   -0.32967E-02   -0.42284E-02  8528   0.132E+01-0.186E+00
CGA: 106    -0.378782303430E+03   -0.47022E-02   -0.52971E-02  8528   0.148E+01-0.958E-01
CGA: 107    -0.378789136235E+03   -0.68328E-02   -0.59432E-02  8528   0.151E+01 0.205E+00
SDA: 108    -0.378796810470E+03   -0.76742E-02   -0.55413E-02  8528   0.130E+01 0.623E+00
CGA: 109    -0.378832842612E+03   -0.36032E-01   -0.36332E-01  8528   0.411E+00-0.270E-01
CGA: 110    -0.378851758656E+03   -0.18916E-01   -0.18984E-01  8528   0.291E+00-0.262E-02
CGA: 111    -0.378879423138E+03   -0.27664E-01   -0.28654E-01  8528   0.586E+00-0.153E-01
CGA: 112    -0.378923011539E+03   -0.43588E-01   -0.67659E-01  8528   0.142E+01-0.312E+00
CGA: 113    -0.378956907037E+03   -0.33895E-01   -0.34825E-01  8528   0.122E+00 0.564E-01
CGA: 114    -0.378968906574E+03   -0.12000E-01   -0.11880E-01  8528   0.146E+00 0.211E-02
CGA: 115    -0.378978619976E+03   -0.97134E-02   -0.97483E-02  8528   0.267E+00-0.107E-02
CGA: 116    -0.378987815352E+03   -0.91954E-02   -0.91959E-02  8528   0.118E+00-0.617E-03
CGA: 117    -0.378994406396E+03   -0.65910E-02   -0.65777E-02  8528   0.100E+00 0.515E-03
CGA: 118    -0.379006262638E+03   -0.11856E-01   -0.11837E-01  8528   0.173E+00 0.133E-03
CGA: 119    -0.379021466641E+03   -0.15204E-01   -0.18935E-01  8528   0.814E+00-0.638E-01
CGA: 120    -0.379028440311E+03   -0.69737E-02   -0.73554E-02  8528   0.556E+00-0.209E-01
CGA: 121    -0.379033757642E+03   -0.53173E-02   -0.55684E-02  8528   0.189E+00-0.210E-01
CGA: 122    -0.379038049560E+03   -0.42919E-02   -0.43227E-02  8528   0.352E+00-0.304E-03
CGA: 123    -0.379046457853E+03   -0.84083E-02   -0.84449E-02  8528   0.238E+00-0.111E-03
CGA: 124    -0.379049286791E+03   -0.28289E-02   -0.28590E-02  8528   0.101E+00-0.194E-02
CGA: 125    -0.379052326191E+03   -0.30394E-02   -0.30342E-02  8528   0.212E+00-0.163E-03
CGA: 126    -0.379056908327E+03   -0.45821E-02   -0.46002E-02  8528   0.155E+00-0.106E-03
CGA: 127    -0.379059768664E+03   -0.28603E-02   -0.28834E-02  8528   0.185E+00-0.458E-03
CGA: 128    -0.379066997371E+03   -0.72287E-02   -0.72285E-02  8528   0.330E+00 0.614E-04
CGA: 129    -0.379071421087E+03   -0.44237E-02   -0.41500E-02  8528   0.147E+00 0.153E-01
CGA: 130    -0.379074184094E+03   -0.27630E-02   -0.27480E-02  8528   0.170E+00 0.454E-03
CGA: 131    -0.379077181341E+03   -0.29972E-02   -0.30327E-02  8528   0.122E+00-0.664E-03
CGA: 132    -0.379078842258E+03   -0.16609E-02   -0.16705E-02  8528   0.990E-01-0.383E-03
CGA: 133    -0.379081997709E+03   -0.31555E-02   -0.31553E-02  8528   0.257E+00 0.226E-03
CGA: 134    -0.379086795150E+03   -0.47974E-02   -0.46932E-02  8528   0.182E+00 0.160E-02
CGA: 135    -0.379089517389E+03   -0.27222E-02   -0.27065E-02  8528   0.192E+00 0.364E-03
CGA: 136    -0.379094953694E+03   -0.54363E-02   -0.54259E-02  8528   0.341E+00-0.232E-02
CGA: 137    -0.379098416181E+03   -0.34625E-02   -0.29012E-02  8528   0.149E+00 0.549E-01
CGA: 138    -0.379099972778E+03   -0.15566E-02   -0.14624E-02  8528   0.960E-01 0.891E-02
CGA: 139    -0.379101695312E+03   -0.17225E-02   -0.16696E-02  8528   0.217E+00 0.100E-02
CGA: 140    -0.379104445428E+03   -0.27501E-02   -0.24412E-02  8528   0.305E+00 0.197E-01
CGA: 141    -0.379106849087E+03   -0.24037E-02   -0.21866E-02  8528   0.188E+00 0.291E-01
CGA: 142    -0.379108125319E+03   -0.12762E-02   -0.13055E-02  8528   0.113E+00-0.365E-02
SDA: 143    -0.379109128186E+03   -0.10029E-02   -0.10358E-02  8528   0.165E+00-0.235E-02
CGA: 144    -0.379113136678E+03   -0.40085E-02   -0.40085E-02  8528   0.146E+00 0.517E-04
CGA: 145    -0.379119025777E+03   -0.58891E-02   -0.58006E-02  8528   0.523E-01 0.501E-02
CGA: 146    -0.379126214780E+03   -0.71890E-02   -0.52066E-04  8528   0.137E+00-0.116E-01
CGA: 147    -0.379134312909E+03   -0.80981E-02   -0.93371E-02  8528   0.296E+00-0.304E-01
CGA: 148    -0.379140960572E+03   -0.66477E-02   -0.64997E-02  8528   0.250E+00 0.457E-02
CGA: 149    -0.379148449139E+03   -0.74886E-02   -0.71023E-02  8528   0.153E+00 0.471E-02
CGA: 150    -0.379153046339E+03   -0.45972E-02   -0.46314E-02  8528   0.172E+00 0.443E-04
CGA: 151    -0.379159518601E+03   -0.64723E-02   -0.65747E-02  8528   0.141E+00 0.562E-02
CGA: 152    -0.379166675238E+03   -0.71566E-02   -0.72272E-02  8528   0.302E+00-0.841E-02
CGA: 153    -0.379175102246E+03   -0.84270E-02   -0.76962E-02  8528   0.297E+00 0.688E-02
CGA: 154    -0.379179575990E+03   -0.44737E-02   -0.40694E-02  8528   0.169E+00 0.228E-01
CGA: 155    -0.379182995183E+03   -0.34192E-02   -0.33763E-02  8528   0.213E+00 0.122E-02
CGA: 156    -0.379187086241E+03   -0.40911E-02   -0.40367E-02  8528   0.215E+00 0.166E-02
CGA: 157    -0.379189899246E+03   -0.28130E-02   -0.27502E-02  8528   0.155E+00 0.385E-02
CGA: 158    -0.379192730830E+03   -0.28316E-02   -0.28389E-02  8528   0.234E+00-0.646E-04
CGA: 159    -0.379197572730E+03   -0.48419E-02   -0.49630E-02  8528   0.312E+00-0.135E-02
CGA: 160    -0.379201913055E+03   -0.43403E-02   -0.45770E-02  8528   0.175E+00-0.976E-02
CGA: 161    -0.379204953616E+03   -0.30406E-02   -0.30621E-02  8528   0.192E+00-0.572E-03
CGA: 162    -0.379209112928E+03   -0.41593E-02   -0.40829E-02  8528   0.165E+00 0.585E-03
CGA: 163    -0.379211188938E+03   -0.20760E-02   -0.20327E-02  8528   0.775E-01 0.231E-02
CGA: 164    -0.379212568573E+03   -0.13796E-02   -0.13650E-02  8528   0.918E-01 0.375E-03
CGA: 165    -0.379214456860E+03   -0.18883E-02   -0.18815E-02  8528   0.107E+00 0.469E-04
CGA: 166    -0.379216089913E+03   -0.16331E-02   -0.16371E-02  8528   0.985E-01-0.122E-03
CGA: 167    -0.379218366259E+03   -0.22763E-02   -0.22822E-02  8528   0.196E+00 0.153E-03
CGA: 168    -0.379223180055E+03   -0.48138E-02   -0.47852E-02  8528   0.265E+00-0.972E-03
CGA: 169    -0.379226390337E+03   -0.32103E-02   -0.31161E-02  8528   0.129E+00 0.556E-02
CGA: 170    -0.379227968223E+03   -0.15779E-02   -0.15949E-02  8528   0.839E-01-0.960E-03
CGA: 171    -0.379229274613E+03   -0.13064E-02   -0.13197E-02  8528   0.745E-01-0.312E-03
CGA: 172    -0.379230307695E+03   -0.10331E-02   -0.10375E-02  8528   0.523E-01-0.131E-03
CGA: 173    -0.379231212907E+03   -0.90521E-03   -0.90623E-03  8528   0.691E-01 0.767E-05
SDA: 174    -0.379232983003E+03   -0.17701E-02   -0.17694E-02  8528   0.135E+00-0.347E-03
CGA: 175    -0.379235745811E+03   -0.27628E-02   -0.27601E-02  8528   0.421E-01-0.596E-04
CGA: 176    -0.379238027144E+03   -0.22813E-02   -0.22992E-02  8528   0.373E-01-0.651E-03
CGA: 177    -0.379240539039E+03   -0.25119E-02   -0.25322E-02  8528   0.132E+00-0.580E-03
CGA: 178    -0.379247687796E+03   -0.71488E-02   -0.70281E-02  8528   0.408E-01 0.436E-02
CGA: 179    -0.379249585837E+03   -0.18980E-02   -0.18990E-02  8528   0.401E-01-0.635E-04
CGA: 180    -0.379250613098E+03   -0.10273E-02   -0.10253E-02  8528   0.220E-01-0.880E-04
CGA: 181    -0.379252365849E+03   -0.17528E-02   -0.18158E-02  8528   0.636E-01-0.142E-02
CGA: 182    -0.379254259346E+03   -0.18935E-02   -0.19009E-02  8528   0.270E-01 0.175E-02
CGA: 183    -0.379255551305E+03   -0.12920E-02   -0.12805E-02  8528   0.263E-01 0.712E-03
CGA: 184    -0.379256075361E+03   -0.52406E-03   -0.51087E-03  8528   0.726E-02 0.290E-03
CGA: 185    -0.379256541139E+03   -0.46578E-03   -0.47078E-03  8528   0.165E-01-0.166E-03
CGA: 186    -0.379257161490E+03   -0.62035E-03   -0.61693E-03  8528   0.182E-01 0.625E-03
CGA: 187    -0.379257346182E+03   -0.18469E-03   -0.15816E-02  8528   0.104E+00-0.393E-01
CGA: 188    -0.379258677521E+03   -0.13313E-02   -0.13440E-02  8528   0.166E-01-0.701E-03
CGA: 189    -0.379259130442E+03   -0.45292E-03   -0.45363E-03  8528   0.312E-02 0.150E-04
CGA: 190    -0.379259345434E+03   -0.21499E-03   -0.21585E-03  8528   0.653E-02-0.276E-04
CGA: 191    -0.379259626226E+03   -0.28079E-03   -0.28098E-03  8528   0.762E-02-0.308E-04
CGA: 192    -0.379259918774E+03   -0.29255E-03   -0.29261E-03  8528   0.437E-02-0.664E-04
CGA: 193    -0.379260028919E+03   -0.11015E-03   -0.10938E-03  8528   0.382E-02-0.550E-05
CGA: 194    -0.379260235047E+03   -0.20613E-03   -0.20619E-03  8528   0.264E-02-0.291E-05
CGA: 195    -0.379260668655E+03   -0.43361E-03   -0.43618E-03  8528   0.565E-02-0.114E-03
CGA: 196    -0.379260895396E+03   -0.22674E-03   -0.22415E-03  8528   0.528E-02-0.344E-03
CGA: 197    -0.379260979578E+03   -0.84182E-04   -0.82514E-04  8528   0.116E-02 0.861E-04
CGA: 198    -0.379261009900E+03   -0.30323E-04   -0.30363E-04  8528   0.144E-02-0.491E-05
CGA: 199    -0.379261080112E+03   -0.70212E-04   -0.70483E-04  8528   0.226E-02-0.346E-04
CGA: 200    -0.379261144097E+03   -0.63985E-04   -0.62363E-04  8528   0.307E-02-0.218E-04
   1 F= -.37926114E+03 E0= -.37923176E+03  d E =-.379261E+03  mag=    10.7710
       N       E                     dE             d eps       ncg     rms          ort
SDA:   1    -0.372982649427E+03    0.62784E+01    0.00000E+00  8528   0.429E+03 0.000E+00
CGA:   2    -0.378941415300E+03   -0.59588E+01   -0.57663E+01  8528   0.321E+02-0.125E+03
CGA:   3    -0.379274308649E+03   -0.33289E+00   -0.31787E+00  8528   0.178E+01 0.645E+00
CGA:   4    -0.379299736500E+03   -0.25428E-01   -0.23637E-01  8528   0.247E+00 0.107E+00
CGA:   5    -0.379306035050E+03   -0.62986E-02   -0.61912E-02  8528   0.116E+00 0.590E-03
CGA:   6    -0.379307743579E+03   -0.17085E-02   -0.16928E-02  8528   0.406E-01 0.752E-03
CGA:   7    -0.379310145846E+03   -0.24023E-02   -0.23970E-02  8528   0.688E-01 0.199E-03
CGA:   8    -0.379311407365E+03   -0.12615E-02   -0.12611E-02  8528   0.453E-01 0.640E-04
CGA:   9    -0.379313053447E+03   -0.16461E-02   -0.16461E-02  8528   0.208E-01-0.972E-05
CGA:  10    -0.379313445648E+03   -0.39220E-03   -0.39180E-03  8528   0.140E-01 0.113E-04
CGA:  11    -0.379313758507E+03   -0.31286E-03   -0.31244E-03  8528   0.511E-02 0.112E-05
CGA:  12    -0.379313960076E+03   -0.20157E-03   -0.20150E-03  8528   0.990E-02 0.879E-05
CGA:  13    -0.379314213018E+03   -0.25294E-03   -0.25294E-03  8528   0.564E-02-0.400E-05
CGA:  14    -0.379314358493E+03   -0.14547E-03   -0.14538E-03  8528   0.466E-02-0.114E-04
CGA:  15    -0.379314467931E+03   -0.10944E-03   -0.10939E-03  8528   0.122E-02-0.790E-05
CGA:  16    -0.379314487450E+03   -0.19519E-04   -0.19487E-04  8528   0.689E-03-0.123E-05
CGA:  17    -0.379314514440E+03   -0.26990E-04   -0.27021E-04  8528   0.610E-03-0.447E-05
CGA:  18    -0.379314540905E+03   -0.26465E-04   -0.26522E-04  8528   0.155E-02-0.525E-05
CGA:  19    -0.379314576981E+03   -0.36076E-04   -0.36003E-04  8528   0.248E-03-0.743E-05
CGA:  20    -0.379314583184E+03   -0.62023E-05   -0.61989E-05  8528   0.232E-03-0.645E-06
   2 F= -.37931458E+03 E0= -.37928493E+03  d E =-.534391E-01  mag=    10.7680
       N       E                     dE             d eps       ncg     rms          ort
SDA:   1    -0.379352383926E+03   -0.37807E-01    0.00000E+00  8528   0.305E+00 0.000E+00
CGA:   2    -0.379356313802E+03   -0.39299E-02   -0.39353E-02  8528   0.458E-01-0.270E-03
CGA:   3    -0.379357305066E+03   -0.99126E-03   -0.99357E-03  8528   0.121E-01 0.317E-04
CGA:   4    -0.379357609590E+03   -0.30452E-03   -0.30470E-03  8528   0.132E-01 0.228E-04
CGA:   5    -0.379358903529E+03   -0.12939E-02   -0.12897E-02  8528   0.107E-01 0.635E-04
CGA:   6    -0.379359320157E+03   -0.41663E-03   -0.41670E-03  8528   0.207E-02-0.497E-05
CGA:   7    -0.379359406513E+03   -0.86356E-04   -0.86447E-04  8528   0.369E-02-0.105E-04
CGA:   8    -0.379359501346E+03   -0.94832E-04   -0.94649E-04  8528   0.204E-02-0.183E-04
CGA:   9    -0.379359605825E+03   -0.10448E-03   -0.10497E-03  8528   0.141E-02-0.272E-04
CGA:  10    -0.379359635424E+03   -0.29599E-04   -0.29540E-04  8528   0.550E-03-0.560E-05
CGA:  11    -0.379359651959E+03   -0.16535E-04   -0.16513E-04  8528   0.191E-03-0.561E-05
CGA:  12    -0.379359662291E+03   -0.10333E-04   -0.10400E-04  8528   0.281E-03-0.322E-05
CGA:  13    -0.379359668928E+03   -0.66366E-05   -0.66289E-05  8528   0.257E-03-0.684E-06
CGA:  14    -0.379359682050E+03   -0.13122E-04   -0.13097E-04  8528   0.770E-04 0.149E-05
CGA:  15    -0.379359686367E+03   -0.43169E-05   -0.43052E-05  8528   0.349E-04 0.624E-06
   3 F= -.37935969E+03 E0= -.37933004E+03  d E =-.451032E-01  mag=    10.7683
       N       E                     dE             d eps       ncg     rms          ort
SDA:   1    -0.234085726272E+03    0.14527E+03    0.00000E+00  8528   0.168E+04 0.000E+00
CGA:   2    -0.258988071293E+03   -0.24902E+02   -0.37995E+02  8528   0.677E+03-0.714E+01
CGA:   3    -0.282050595240E+03   -0.23063E+02   -0.20798E+02  8528   0.162E+04-0.557E+03
CGA:   4    -0.292142913939E+03   -0.10092E+02   -0.27751E+02  8528   0.810E+03-0.436E+03
CGA:   5    -0.315862158492E+03   -0.23719E+02   -0.12400E+02  8528   0.477E+03-0.272E+03
CGA:   6    -0.336453623960E+03   -0.20591E+02   -0.34195E+01  8528   0.196E+04-0.210E+03
CGA:   7    -0.336992714233E+03   -0.53909E+00   -0.19152E+02  8528   0.125E+04-0.109E+04
CGA:   8    -0.337790258452E+03   -0.79754E+00   -0.28930E+02  8528   0.153E+04-0.813E+03
CGA:   9    -0.340281268329E+03   -0.24910E+01   -0.34229E+02  8528   0.118E+04-0.884E+03
CGA:  10    -0.346969804000E+03   -0.66885E+01   -0.23679E+02  8528   0.124E+04-0.120E+04
CGA:  11    -0.355848796564E+03   -0.88790E+01   -0.21358E+02  8528   0.964E+03-0.110E+04
CGA:  12    -0.349609649189E+03    0.62391E+01   -0.20541E+02  8528   0.104E+04-0.743E+03
CGA:  13    -0.366036112694E+03   -0.16426E+02   -0.13832E+02  8528   0.644E+03-0.118E+04
CGA:  14    -0.361031003842E+03    0.50051E+01   -0.12071E+02  8528   0.113E+04-0.712E+03
CGA:  15    -0.363900751559E+03   -0.28697E+01   -0.16151E+02  8528   0.943E+03-0.989E+03
CGA:  16    -0.356874543476E+03    0.70262E+01   -0.17435E+02  8528   0.128E+04-0.901E+03
CGA:  17    -0.367839410986E+03   -0.10965E+02   -0.16014E+02  8528   0.845E+03-0.129E+04
CGA:  18    -0.364852369943E+03    0.29870E+01   -0.13279E+02  8528   0.117E+04-0.928E+03
CGA:  19    -0.368308144678E+03   -0.34558E+01   -0.15135E+02  8528   0.908E+03-0.104E+04
CGA:  20    -0.367061360194E+03    0.12468E+01   -0.13125E+02  8528   0.112E+04-0.986E+03
CGA:  21    -0.369931076773E+03   -0.28697E+01   -0.14043E+02  8528   0.857E+03-0.974E+03
CGA:  22    -0.370723663645E+03   -0.79259E+00   -0.11175E+02  8528   0.863E+03-0.872E+03
CGA:  23    -0.372825218154E+03   -0.21016E+01   -0.10379E+02  8528   0.637E+03-0.728E+03
CGA:  24    -0.375116842625E+03   -0.22916E+01   -0.70883E+01  8528   0.397E+03-0.509E+03
CGA:  25    -0.376942325081E+03   -0.18255E+01   -0.39442E+01  8528   0.154E+03-0.228E+03
CGA:  26    -0.377969705418E+03   -0.10274E+01   -0.11570E+01  8528   0.173E+02-0.218E+02
CGA:  27    -0.378700708742E+03   -0.73100E+00   -0.73182E+00  8528   0.648E+02 0.439E-01
CGA:  28    -0.380885511315E+03   -0.21848E+01   -0.21791E+01  8528   0.528E+02 0.286E+01
CGA:  29    -0.381551737846E+03   -0.66623E+00   -0.76281E+00  8528   0.181E+02-0.487E+01
CGA:  30    -0.381857389793E+03   -0.30565E+00   -0.32564E+00  8528   0.925E+01-0.142E+00
CGA:  31    -0.382074363415E+03   -0.21697E+00   -0.21817E+00  8528   0.107E+02 0.273E-01
CGA:  32    -0.382506616870E+03   -0.43225E+00   -0.41588E+00  8528   0.114E+02 0.138E+01
CGA:  33    -0.382766587714E+03   -0.25997E+00   -0.25474E+00  8528   0.802E+01-0.152E-01
CGA:  34    -0.382968732215E+03   -0.20214E+00   -0.20190E+00  8528   0.435E+01-0.138E-01
CGA:  35    -0.383086737395E+03   -0.11801E+00   -0.11873E+00  8528   0.419E+01 0.983E-01
CGA:  36    -0.383192065323E+03   -0.10533E+00   -0.10706E+00  8528   0.273E+01 0.101E+00
CGA:  37    -0.383276420489E+03   -0.84355E-01   -0.84367E-01  8528   0.279E+01-0.193E-01
CGA:  38    -0.383356482628E+03   -0.80062E-01   -0.80125E-01  8528   0.197E+01 0.315E-01
CGA:  39    -0.383422859640E+03   -0.66377E-01   -0.65905E-01  8528   0.209E+01 0.851E-01
CGA:  40    -0.383474742616E+03   -0.51883E-01   -0.52322E-01  8528   0.101E+01 0.180E-01
CGA:  41    -0.383509420945E+03   -0.34678E-01   -0.34926E-01  8528   0.120E+01-0.343E-01
CGA:  42    -0.383545242468E+03   -0.35822E-01   -0.35786E-01  8528   0.939E+00 0.173E-01
CGA:  43    -0.383576764038E+03   -0.31522E-01   -0.31464E-01  8528   0.708E+00 0.109E-01
CGA:  44    -0.383596283916E+03   -0.19520E-01   -0.19607E-01  8528   0.603E+00 0.129E-01
CGA:  45    -0.383623731403E+03   -0.27447E-01   -0.27813E-01  8528   0.918E+00-0.195E-01
CGA:  46    -0.383652354755E+03   -0.28623E-01   -0.28533E-01  8528   0.590E+00 0.356E-01
CGA:  47    -0.383667787301E+03   -0.15433E-01   -0.15365E-01  8528   0.309E+00-0.288E-02
CGA:  48    -0.383679173365E+03   -0.11386E-01   -0.11277E-01  8528   0.429E+00 0.119E-01
CGA:  49    -0.383703686212E+03   -0.24513E-01   -0.25006E-01  8528   0.843E+00-0.212E-01
CGA:  50    -0.383731017564E+03   -0.27331E-01   -0.27389E-01  8528   0.579E+00-0.170E-01
CGA:  51    -0.383747949899E+03   -0.16932E-01   -0.17035E-01  8528   0.321E+00 0.215E-01
CGA:  52    -0.383763117116E+03   -0.15167E-01   -0.15505E-01  8528   0.539E+00-0.172E-01
CGA:  53    -0.383783989371E+03   -0.20872E-01   -0.21098E-01  8528   0.554E+00-0.208E-01
CGA:  54    -0.383799011384E+03   -0.15022E-01   -0.14844E-01  8528   0.403E+00-0.874E-02
CGA:  55    -0.383814006288E+03   -0.14995E-01   -0.14717E-01  8528   0.134E+00 0.400E-01
SDA:  56    -0.383823056679E+03   -0.90504E-02   -0.90820E-02  8528   0.445E+00-0.102E-02
CGA:  57    -0.383828669240E+03   -0.56126E-02   -0.56417E-02  8528   0.101E+00-0.173E-02
CGA:  58    -0.383842038929E+03   -0.13370E-01   -0.13546E-01  8528   0.418E+00-0.237E-02
CGA:  59    -0.383862462955E+03   -0.20424E-01   -0.20590E-01  8528   0.668E+00-0.106E-01
CGA:  60    -0.383882371666E+03   -0.19909E-01   -0.19501E-01  8528   0.241E+00-0.155E-01
CGA:  61    -0.383892834127E+03   -0.10462E-01   -0.10496E-01  8528   0.654E-01-0.373E-02
CGA:  62    -0.383895522511E+03   -0.26884E-02   -0.26903E-02  8528   0.139E+00-0.384E-03
CGA:  63    -0.383900754444E+03   -0.52319E-02   -0.52190E-02  8528   0.122E+00-0.434E-02
CGA:  64    -0.383906773769E+03   -0.60193E-02   -0.60824E-02  8528   0.158E+00-0.392E-02
CGA:  65    -0.383909378261E+03   -0.26045E-02   -0.28275E-02  8528   0.296E-01-0.658E-02
CGA:  66    -0.383910761985E+03   -0.13837E-02   -0.13874E-02  8528   0.240E-01-0.252E-03
CGA:  67    -0.383912157425E+03   -0.13954E-02   -0.13838E-02  8528   0.619E-01 0.506E-03
CGA:  68    -0.383914159638E+03   -0.20022E-02   -0.19882E-02  8528   0.408E-01-0.330E-03
CGA:  69    -0.383915927274E+03   -0.17676E-02   -0.17734E-02  8528   0.414E-01-0.841E-03
CGA:  70    -0.383916655633E+03   -0.72836E-03   -0.74314E-03  8528   0.144E-01-0.415E-03
CGA:  71    -0.383917722563E+03   -0.10669E-02   -0.10893E-02  8528   0.261E-01-0.607E-03
CGA:  72    -0.383919265319E+03   -0.15428E-02   -0.14971E-02  8528   0.517E-01 0.186E-02
CGA:  73    -0.383920525977E+03   -0.12607E-02   -0.11848E-02  8528   0.172E-01 0.171E-02
CGA:  74    -0.383921076959E+03   -0.55098E-03   -0.55275E-03  8528   0.867E-02 0.473E-04
CGA:  75    -0.383921416673E+03   -0.33971E-03   -0.33969E-03  8528   0.186E-01-0.384E-05
CGA:  76    -0.383922404651E+03   -0.98798E-03   -0.10123E-02  8528   0.232E-01-0.131E-02
CGA:  77    -0.383923030606E+03   -0.62595E-03   -0.63179E-03  8528   0.104E-01 0.135E-03
CGA:  78    -0.383923332530E+03   -0.30192E-03   -0.30087E-03  8528   0.523E-02 0.313E-05
CGA:  79    -0.383923531055E+03   -0.19852E-03   -0.19864E-03  8528   0.690E-02 0.376E-04
CGA:  80    -0.383923881708E+03   -0.35065E-03   -0.35103E-03  8528   0.122E-01-0.253E-04
CGA:  81    -0.383924233242E+03   -0.35153E-03   -0.34651E-03  8528   0.935E-02-0.405E-04
CGA:  82    -0.383924477976E+03   -0.24473E-03   -0.24697E-03  8528   0.408E-02 0.318E-05
CGA:  83    -0.383924611688E+03   -0.13371E-03   -0.13338E-03  8528   0.303E-02-0.193E-04
CGA:  84    -0.383924747100E+03   -0.13541E-03   -0.13488E-03  8528   0.447E-02 0.553E-04
CGA:  85    -0.383924978951E+03   -0.23185E-03   -0.23328E-03  8528   0.621E-02-0.892E-04
CGA:  86    -0.383925135808E+03   -0.15686E-03   -0.15637E-03  8528   0.425E-02 0.308E-05
SDA:  87    -0.383925228956E+03   -0.93149E-04   -0.94027E-04  8528   0.174E-02-0.100E-04
CGA:  88    -0.383925273544E+03   -0.44588E-04   -0.44571E-04  8528   0.235E-02-0.137E-05
CGA:  89    -0.383925434292E+03   -0.16075E-03   -0.16083E-03  8528   0.437E-02-0.272E-05
CGA:  90    -0.383925574329E+03   -0.14004E-03   -0.14005E-03  8528   0.589E-02 0.551E-05
CGA:  91    -0.383925763862E+03   -0.18953E-03   -0.18985E-03  8528   0.164E-02 0.183E-04
CGA:  92    -0.383925833304E+03   -0.69442E-04   -0.69446E-04  8528   0.112E-02-0.264E-05
CGA:  93    -0.383925961634E+03   -0.12833E-03   -0.13028E-03  8528   0.249E-02-0.249E-04
CGA:  94    -0.383926011702E+03   -0.50068E-04   -0.49795E-04  8528   0.191E-02-0.868E-05
CGA:  95    -0.383926070569E+03   -0.58867E-04   -0.58756E-04  8528   0.280E-03-0.112E-04
CGA:  96    -0.383926084877E+03   -0.14307E-04   -0.14293E-04  8528   0.695E-03 0.604E-06
CGA:  97    -0.383926111781E+03   -0.26904E-04   -0.26896E-04  8528   0.534E-03-0.193E-05
CGA:  98    -0.383926136520E+03   -0.24740E-04   -0.24738E-04  8528   0.530E-03-0.978E-07
CGA:  99    -0.383926145519E+03   -0.89987E-05   -0.90318E-05  8528   0.218E-03-0.748E-06
   4 F= -.38392615E+03 E0= -.38389465E+03  d E =-.456646E+01  mag=    10.7206
       N       E                     dE             d eps       ncg     rms          ort
SDA:   1    -0.378278593804E+03    0.56475E+01    0.00000E+00  8528   0.944E+02 0.000E+00
CGA:   2    -0.379074003601E+03   -0.79541E+00   -0.15550E+01  8528   0.621E+02-0.355E+02
CGA:   3    -0.380622530771E+03   -0.15485E+01   -0.15503E+01  8528   0.433E+02-0.594E+00
CGA:   4    -0.382032559069E+03   -0.14100E+01   -0.14071E+01  8528   0.331E+02-0.339E+00
CGA:   5    -0.382704240532E+03   -0.67168E+00   -0.63801E+00  8528   0.164E+02 0.894E+00
CGA:   6    -0.383336802620E+03   -0.63256E+00   -0.63225E+00  8528   0.177E+02 0.131E+01
CGA:   7    -0.383693578042E+03   -0.35678E+00   -0.35357E+00  8528   0.932E+01 0.783E-01
CGA:   8    -0.384080554997E+03   -0.38698E+00   -0.38269E+00  8528   0.432E+01 0.606E+00
CGA:   9    -0.384215293609E+03   -0.13474E+00   -0.13480E+00  8528   0.433E+01 0.204E-02
CGA:  10    -0.384312078922E+03   -0.96785E-01   -0.95406E-01  8528   0.211E+01 0.775E-02
CGA:  11    -0.384375405385E+03   -0.63326E-01   -0.63474E-01  8528   0.262E+01 0.715E-02
CGA:  12    -0.384426529753E+03   -0.51124E-01   -0.50634E-01  8528   0.807E+00 0.771E-02
CGA:  13    -0.384459725851E+03   -0.33196E-01   -0.33166E-01  8528   0.522E+00 0.292E-02
CGA:  14    -0.384469390227E+03   -0.96644E-02   -0.97505E-02  8528   0.344E+00-0.190E-02
CGA:  15    -0.384481608819E+03   -0.12219E-01   -0.12236E-01  8528   0.267E+00-0.612E-02
CGA:  16    -0.384488251815E+03   -0.66430E-02   -0.66642E-02  8528   0.257E+00 0.348E-03
CGA:  17    -0.384496297702E+03   -0.80459E-02   -0.80457E-02  8528   0.873E-01-0.737E-04
CGA:  18    -0.384500591083E+03   -0.42934E-02   -0.42815E-02  8528   0.684E-01 0.616E-03
CGA:  19    -0.384502671073E+03   -0.20800E-02   -0.20810E-02  8528   0.808E-01 0.871E-04
CGA:  20    -0.384505787326E+03   -0.31163E-02   -0.31149E-02  8528   0.490E-01 0.204E-03
CGA:  21    -0.384508216819E+03   -0.24295E-02   -0.24230E-02  8528   0.492E-01 0.350E-03
CGA:  22    -0.384509128386E+03   -0.91157E-03   -0.90970E-03  8528   0.320E-01 0.342E-04
CGA:  23    -0.384510489283E+03   -0.13609E-02   -0.13580E-02  8528   0.256E-01 0.245E-03
CGA:  24    -0.384511361924E+03   -0.87264E-03   -0.87267E-03  8528   0.357E-01 0.240E-04
CGA:  25    -0.384512588132E+03   -0.12262E-02   -0.12262E-02  8528   0.180E-01-0.226E-04
CGA:  26    -0.384513423492E+03   -0.83536E-03   -0.83454E-03  8528   0.144E-01 0.558E-04
CGA:  27    -0.384513725163E+03   -0.30167E-03   -0.30169E-03  8528   0.127E-01 0.163E-04
CGA:  28    -0.384514253956E+03   -0.52879E-03   -0.52805E-03  8528   0.107E-01 0.820E-04
CGA:  29    -0.384514577986E+03   -0.32403E-03   -0.32412E-03  8528   0.112E-01 0.187E-04
CGA:  30    -0.384514885181E+03   -0.30719E-03   -0.30742E-03  8528   0.391E-02 0.312E-04
CGA:  31    -0.384515079988E+03   -0.19481E-03   -0.19430E-03  8528   0.411E-02 0.315E-04
SDA:  32    -0.384515173647E+03   -0.93660E-04   -0.93761E-04  8528   0.411E-02 0.916E-05
CGA:  33    -0.384515226908E+03   -0.53261E-04   -0.53432E-04  8528   0.125E-02-0.562E-05
CGA:  34    -0.384515268258E+03   -0.41350E-04   -0.41349E-04  8528   0.160E-02-0.772E-06
CGA:  35    -0.384515417340E+03   -0.14908E-03   -0.14874E-03  8528   0.654E-02 0.532E-05
CGA:  36    -0.384515585149E+03   -0.16781E-03   -0.16791E-03  8528   0.102E-02 0.126E-04
CGA:  37    -0.384515641342E+03   -0.56193E-04   -0.56055E-04  8528   0.713E-03 0.623E-05
CGA:  38    -0.384515701646E+03   -0.60304E-04   -0.60035E-04  8528   0.221E-02 0.544E-05
CGA:  39    -0.384515743911E+03   -0.42265E-04   -0.42234E-04  8528   0.103E-02 0.171E-05
CGA:  40    -0.384515778422E+03   -0.34511E-04   -0.34508E-04  8528   0.448E-03-0.111E-05
CGA:  41    -0.384515793619E+03   -0.15197E-04   -0.15191E-04  8528   0.567E-03-0.164E-05
CGA:  42    -0.384515813916E+03   -0.20297E-04   -0.20287E-04  8528   0.327E-03-0.617E-05
CGA:  43    -0.384515850634E+03   -0.36717E-04   -0.37263E-04  8528   0.441E-03-0.722E-05
CGA:  44    -0.384515856678E+03   -0.60447E-05   -0.60321E-05  8528   0.154E-03-0.130E-05
   5 F= -.38451586E+03 E0= -.38448410E+03  d E =-.589711E+00  mag=    10.7348
       N       E                     dE             d eps       ncg     rms          ort
SDA:   1    -0.329700130946E+03    0.54816E+02    0.00000E+00  8528   0.785E+03 0.000E+00
CGA:   2    -0.341329790246E+03   -0.11630E+02   -0.15725E+02  8528   0.449E+03-0.273E+03
CGA:   3    -0.351840055977E+03   -0.10510E+02   -0.88830E+01  8528   0.278E+03-0.459E+02
CGA:   4    -0.360677524037E+03   -0.88375E+01   -0.81248E+01  8528   0.647E+03-0.530E+02
CGA:   5    -0.367539208969E+03   -0.68617E+01   -0.97163E+01  8528   0.326E+03-0.128E+03
CGA:   6    -0.376201419362E+03   -0.86622E+01   -0.81522E+01  8528   0.237E+03-0.952E+01
CGA:   7    -0.378534200248E+03   -0.23328E+01   -0.31008E+01  8528   0.101E+03-0.600E+02
CGA:   8    -0.379393566569E+03   -0.85937E+00   -0.67963E+00  8528   0.671E+02 0.156E+02
CGA:   9    -0.380522232162E+03   -0.11287E+01   -0.11551E+01  8528   0.779E+02-0.253E+01
CGA:  10    -0.381149349905E+03   -0.62712E+00   -0.65314E+00  8528   0.508E+02-0.490E+01
CGA:  11    -0.381696266007E+03   -0.54692E+00   -0.53028E+00  8528   0.828E+02 0.688E+00
CGA:  12    -0.382952237948E+03   -0.12560E+01   -0.13239E+01  8528   0.120E+03-0.291E+01
CGA:  13    -0.383742654991E+03   -0.79042E+00   -0.80656E+00  8528   0.426E+02-0.623E+00
CGA:  14    -0.384061144091E+03   -0.31849E+00   -0.32212E+00  8528   0.313E+02-0.105E+01
CGA:  15    -0.384352079140E+03   -0.29094E+00   -0.32342E+00  8528   0.189E+02-0.255E+01
CGA:  16    -0.384452108083E+03   -0.10003E+00   -0.10059E+00  8528   0.723E+01-0.142E+00
CGA:  17    -0.384520901775E+03   -0.68794E-01   -0.66277E-01  8528   0.888E+01 0.180E+00
CGA:  18    -0.384624907990E+03   -0.10401E+00   -0.10152E+00  8528   0.973E+01 0.101E+00
CGA:  19    -0.384692506482E+03   -0.67598E-01   -0.66862E-01  8528   0.605E+01 0.588E-01
CGA:  20    -0.384757276137E+03   -0.64770E-01   -0.62528E-01  8528   0.109E+02 0.120E+00
CGA:  21    -0.384902641320E+03   -0.14537E+00   -0.14918E+00  8528   0.201E+02-0.150E+00
CGA:  22    -0.385038013337E+03   -0.13537E+00   -0.14537E+00  8528   0.931E+01-0.756E+00
CGA:  23    -0.385101738011E+03   -0.63725E-01   -0.67610E-01  8528   0.717E+01-0.382E+00
CGA:  24    -0.385180670957E+03   -0.78933E-01   -0.80610E-01  8528   0.702E+01-0.570E-01
CGA:  25    -0.385227957900E+03   -0.47287E-01   -0.53273E-01  8528   0.182E+01-0.549E+00
CGA:  26    -0.385243180414E+03   -0.15223E-01   -0.15967E-01  8528   0.150E+01-0.420E-01
CGA:  27    -0.385271552709E+03   -0.28372E-01   -0.28380E-01  8528   0.173E+01 0.376E-01
CGA:  28    -0.385292442468E+03   -0.20890E-01   -0.21074E-01  8528   0.135E+01-0.178E-02
CGA:  29    -0.385329139225E+03   -0.36697E-01   -0.36467E-01  8528   0.271E+01 0.214E-01
CGA:  30    -0.385363042438E+03   -0.33903E-01   -0.34984E-01  8528   0.984E+00 0.484E-02
CGA:  31    -0.385377422541E+03   -0.14380E-01   -0.14641E-01  8528   0.783E+00 0.137E-01
SDA:  32    -0.385392049330E+03   -0.14627E-01   -0.14628E-01  8528   0.351E+00 0.682E-03
CGA:  33    -0.385398290488E+03   -0.62412E-02   -0.62413E-02  8528   0.196E+00 0.649E-04
CGA:  34    -0.385406426897E+03   -0.81364E-02   -0.80447E-02  8528   0.277E+00 0.423E-02
CGA:  35    -0.385427741704E+03   -0.21315E-01   -0.21818E-01  8528   0.165E+00-0.110E-01
CGA:  36    -0.385430738627E+03   -0.29969E-02   -0.30039E-02  8528   0.158E+00 0.552E-03
CGA:  37    -0.385438177804E+03   -0.74392E-02   -0.73125E-02  8528   0.136E+00 0.517E-02
CGA:  38    -0.385442866423E+03   -0.46886E-02   -0.46587E-02  8528   0.161E+00 0.244E-02
CGA:  39    -0.385447663420E+03   -0.47970E-02   -0.47779E-02  8528   0.908E-01 0.264E-02
CGA:  40    -0.385452105190E+03   -0.44418E-02   -0.43685E-02  8528   0.141E+00 0.310E-02
CGA:  41    -0.385454842491E+03   -0.27373E-02   -0.27232E-02  8528   0.742E-01-0.177E-03
CGA:  42    -0.385457570497E+03   -0.27280E-02   -0.27194E-02  8528   0.261E-01 0.621E-03
CGA:  43    -0.385458994638E+03   -0.14241E-02   -0.14283E-02  8528   0.629E-01-0.151E-03
CGA:  44    -0.385460586127E+03   -0.15915E-02   -0.15937E-02  8528   0.490E-01 0.541E-03
CGA:  45    -0.385462668640E+03   -0.20825E-02   -0.20799E-02  8528   0.508E-01 0.160E-03
CGA:  46    -0.385463705849E+03   -0.10372E-02   -0.10383E-02  8528   0.191E-01 0.386E-04
CGA:  47    -0.385464673024E+03   -0.96717E-03   -0.96783E-03  8528   0.240E-01-0.305E-04
CGA:  48    -0.385465227221E+03   -0.55420E-03   -0.55502E-03  8528   0.209E-01 0.278E-04
CGA:  49    -0.385465869175E+03   -0.64195E-03   -0.64213E-03  8528   0.103E-01-0.567E-04
CGA:  50    -0.385466695385E+03   -0.82621E-03   -0.82230E-03  8528   0.267E-01 0.889E-04
CGA:  51    -0.385467192845E+03   -0.49746E-03   -0.49676E-03  8528   0.127E-01-0.683E-05
CGA:  52    -0.385467717279E+03   -0.52443E-03   -0.52426E-03  8528   0.869E-02 0.105E-04
CGA:  53    -0.385467946450E+03   -0.22917E-03   -0.22924E-03  8528   0.774E-02 0.320E-05
CGA:  54    -0.385468250576E+03   -0.30413E-03   -0.30390E-03  8528   0.874E-02 0.224E-04
CGA:  55    -0.385468502272E+03   -0.25170E-03   -0.25171E-03  8528   0.869E-02 0.590E-05
CGA:  56    -0.385468736036E+03   -0.23376E-03   -0.23392E-03  8528   0.287E-02 0.148E-04
CGA:  57    -0.385468882963E+03   -0.14693E-03   -0.14684E-03  8528   0.486E-02 0.396E-05
CGA:  58    -0.385468978274E+03   -0.95311E-04   -0.95426E-04  8528   0.267E-02 0.370E-05
CGA:  59    -0.385469125368E+03   -0.14709E-03   -0.14729E-03  8528   0.222E-02-0.802E-05
CGA:  60    -0.385469197678E+03   -0.72310E-04   -0.72309E-04  8528   0.318E-02 0.364E-05
CGA:  61    -0.385469285983E+03   -0.88305E-04   -0.88278E-04  8528   0.206E-02-0.945E-06
CGA:  62    -0.385469378986E+03   -0.93002E-04   -0.92952E-04  8528   0.178E-02 0.291E-05
SDA:  63    -0.385469415886E+03   -0.36901E-04   -0.36870E-04  8528   0.113E-02 0.209E-05
CGA:  64    -0.385469433422E+03   -0.17536E-04   -0.17551E-04  8528   0.718E-03 0.561E-06
CGA:  65    -0.385469467162E+03   -0.33740E-04   -0.33692E-04  8528   0.121E-02 0.295E-05
CGA:  66    -0.385469544534E+03   -0.77372E-04   -0.77127E-04  8528   0.181E-02 0.819E-05
CGA:  67    -0.385469587117E+03   -0.42584E-04   -0.42604E-04  8528   0.663E-03 0.281E-05
CGA:  68    -0.385469613275E+03   -0.26157E-04   -0.26119E-04  8528   0.376E-03 0.584E-05
CGA:  69    -0.385469661615E+03   -0.48341E-04   -0.47639E-04  8528   0.176E-02 0.743E-05
CGA:  70    -0.385469690373E+03   -0.28757E-04   -0.28804E-04  8528   0.603E-03 0.533E-05
CGA:  71    -0.385469724036E+03   -0.33663E-04   -0.33561E-04  8528   0.391E-03 0.561E-05
CGA:  72    -0.385469742318E+03   -0.18282E-04   -0.18264E-04  8528   0.863E-03 0.248E-05
CGA:  73    -0.385469773815E+03   -0.31498E-04   -0.31512E-04  8528   0.468E-03 0.690E-05
CGA:  74    -0.385469783699E+03   -0.98833E-05   -0.99113E-05  8528   0.443E-03 0.163E-05
CGA:  75    -0.385469804402E+03   -0.20704E-04   -0.20686E-04  8528   0.349E-03 0.198E-05
CGA:  76    -0.385469827791E+03   -0.23388E-04   -0.23324E-04  8528   0.307E-03 0.214E-05
CGA:  77    -0.385469838206E+03   -0.10415E-04   -0.10416E-04  8528   0.353E-03 0.105E-06
CGA:  78    -0.385469844085E+03   -0.58786E-05   -0.58719E-05  8528   0.101E-03-0.304E-06
CGA:  79    -0.385469854977E+03   -0.10892E-04   -0.10973E-04  8528   0.221E-03-0.122E-05
CGA:  80    -0.385469862719E+03   -0.77424E-05   -0.77294E-05  8528   0.280E-03-0.216E-05
   6 F= -.38546986E+03 E0= -.38543831E+03  d E =-.954006E+00  mag=    10.7007
       N       E                     dE             d eps       ncg     rms          ort
SDA:   1    -0.379197047416E+03    0.62728E+01    0.00000E+00  8528   0.320E+02 0.000E+00
CGA:   2    -0.380044221838E+03   -0.84717E+00   -0.84370E+00  8528   0.484E+02-0.478E+00
CGA:   3    -0.382049880071E+03   -0.20057E+01   -0.19988E+01  8528   0.519E+02 0.168E+01
CGA:   4    -0.383980261794E+03   -0.19304E+01   -0.19048E+01  8528   0.303E+02-0.226E+01
CGA:   5    -0.384415625660E+03   -0.43536E+00   -0.48156E+00  8528   0.990E+01-0.171E+01
CGA:   6    -0.384705541750E+03   -0.28992E+00   -0.29124E+00  8528   0.135E+02 0.432E-01
CGA:   7    -0.385027718065E+03   -0.32218E+00   -0.31563E+00  8528   0.782E+01 0.675E-01
CGA:   8    -0.385490797445E+03   -0.46308E+00   -0.45742E+00  8528   0.327E+01 0.238E+00
CGA:   9    -0.385566866529E+03   -0.76069E-01   -0.76922E-01  8528   0.279E+01-0.118E-01
CGA:  10    -0.385617281396E+03   -0.50415E-01   -0.49831E-01  8528   0.681E+00 0.150E-01
CGA:  11    -0.385665137687E+03   -0.47856E-01   -0.47745E-01  8528   0.118E+01 0.322E-02
CGA:  12    -0.385697208819E+03   -0.32071E-01   -0.32223E-01  8528   0.900E+00 0.149E-02
CGA:  13    -0.385716178763E+03   -0.18970E-01   -0.18942E-01  8528   0.283E+00 0.531E-03
CGA:  14    -0.385720831409E+03   -0.46526E-02   -0.46289E-02  8528   0.135E+00 0.934E-03
CGA:  15    -0.385729619372E+03   -0.87880E-02   -0.87811E-02  8528   0.130E+00 0.205E-03
CGA:  16    -0.385737692186E+03   -0.80728E-02   -0.80649E-02  8528   0.200E+00 0.296E-03
CGA:  17    -0.385740776019E+03   -0.30838E-02   -0.31095E-02  8528   0.837E-01-0.104E-02
CGA:  18    -0.385743696071E+03   -0.29201E-02   -0.29193E-02  8528   0.415E-01-0.138E-03
CGA:  19    -0.385747360380E+03   -0.36643E-02   -0.36475E-02  8528   0.514E-01 0.340E-03
CGA:  20    -0.385749591955E+03   -0.22316E-02   -0.22310E-02  8528   0.731E-01 0.106E-03
CGA:  21    -0.385750872270E+03   -0.12803E-02   -0.12786E-02  8528   0.354E-01 0.683E-04
CGA:  22    -0.385753158736E+03   -0.22865E-02   -0.22815E-02  8528   0.384E-01 0.170E-03
CGA:  23    -0.385754787288E+03   -0.16286E-02   -0.16286E-02  8528   0.379E-01 0.127E-04
CGA:  24    -0.385755593812E+03   -0.80652E-03   -0.80546E-03  8528   0.167E-01 0.279E-04
CGA:  25    -0.385756213112E+03   -0.61930E-03   -0.61929E-03  8528   0.324E-01-0.256E-05
CGA:  26    -0.385757168099E+03   -0.95499E-03   -0.95604E-03  8528   0.157E-01 0.224E-04
CGA:  27    -0.385758132965E+03   -0.96487E-03   -0.96525E-03  8528   0.698E-02-0.146E-04
CGA:  28    -0.385758383481E+03   -0.25052E-03   -0.25062E-03  8528   0.709E-02 0.135E-04
CGA:  29    -0.385758526518E+03   -0.14304E-03   -0.14291E-03  8528   0.589E-02 0.579E-05
CGA:  30    -0.385758914905E+03   -0.38839E-03   -0.38844E-03  8528   0.411E-02-0.188E-05
CGA:  31    -0.385759114769E+03   -0.19986E-03   -0.19977E-03  8528   0.212E-02 0.814E-05
SDA:  32    -0.385759184281E+03   -0.69512E-04   -0.69520E-04  8528   0.295E-02-0.392E-06
CGA:  33    -0.385759216906E+03   -0.32626E-04   -0.32624E-04  8528   0.843E-03-0.225E-05
CGA:  34    -0.385759310326E+03   -0.93420E-04   -0.93849E-04  8528   0.238E-02-0.597E-05
CGA:  35    -0.385759411348E+03   -0.10102E-03   -0.10102E-03  8528   0.311E-02-0.283E-05
CGA:  36    -0.385759507405E+03   -0.96057E-04   -0.96030E-04  8528   0.851E-03-0.500E-05
CGA:  37    -0.385759544613E+03   -0.37208E-04   -0.37212E-04  8528   0.764E-03-0.182E-05
CGA:  38    -0.385759639395E+03   -0.94782E-04   -0.94768E-04  8528   0.265E-02-0.961E-07
CGA:  39    -0.385759683521E+03   -0.44126E-04   -0.44084E-04  8528   0.127E-02 0.893E-06
CGA:  40    -0.385759730121E+03   -0.46599E-04   -0.46584E-04  8528   0.387E-03-0.201E-05
CGA:  41    -0.385759762805E+03   -0.32685E-04   -0.32776E-04  8528   0.672E-03-0.231E-05
CGA:  42    -0.385759791152E+03   -0.28347E-04   -0.28341E-04  8528   0.750E-03-0.152E-05
CGA:  43    -0.385759811835E+03   -0.20683E-04   -0.20637E-04  8528   0.379E-03-0.252E-05
CGA:  44    -0.385759826435E+03   -0.14599E-04   -0.14596E-04  8528   0.517E-03-0.595E-06
CGA:  45    -0.385759836447E+03   -0.10012E-04   -0.10014E-04  8528   0.270E-03 0.783E-07
CGA:  46    -0.385759859327E+03   -0.22880E-04   -0.22865E-04  8528   0.117E-03 0.197E-06
CGA:  47    -0.385759870194E+03   -0.10868E-04   -0.10804E-04  8528   0.260E-03 0.119E-05
CGA:  48    -0.385759880833E+03   -0.10639E-04   -0.10644E-04  8528   0.346E-03 0.490E-06
CGA:  49    -0.385759886896E+03   -0.60629E-05   -0.60772E-05  8528   0.114E-03 0.461E-06
   7 F= -.38575989E+03 E0= -.38572909E+03  d E =-.290024E+00  mag=    10.7072
       N       E                     dE             d eps       ncg     rms          ort
SDA:   1    -0.334516081376E+03    0.51244E+02    0.00000E+00  8528   0.290E+03 0.000E+00
CGA:   2    -0.340714706755E+03   -0.61986E+01   -0.76764E+01  8528   0.280E+03-0.612E+01
CGA:   3    -0.348905733508E+03   -0.81910E+01   -0.27493E+02  8528   0.212E+04-0.214E+03
CGA:   4    -0.354182107764E+03   -0.52764E+01   -0.40399E+02  8528   0.130E+04-0.119E+04
CGA:   5    -0.372204709222E+03   -0.18023E+02   -0.15805E+02  8528   0.193E+03-0.426E+03
CGA:   6    -0.374815922753E+03   -0.26112E+01   -0.18484E+01  8528   0.491E+02 0.187E+02
CGA:   7    -0.375787866644E+03   -0.97194E+00   -0.90134E+00  8528   0.607E+02 0.241E+01
CGA:   8    -0.377514119997E+03   -0.17263E+01   -0.17445E+01  8528   0.152E+03-0.742E+00
CGA:   9    -0.381391773291E+03   -0.38777E+01   -0.37272E+01  8528   0.970E+02 0.112E+01
CGA:  10    -0.383462434312E+03   -0.20707E+01   -0.11395E+01  8528   0.507E+02 0.547E+02
CGA:  11    -0.384209074024E+03   -0.74664E+00   -0.76680E+00  8528   0.219E+02-0.195E+01
CGA:  12    -0.384650553078E+03   -0.44148E+00   -0.52605E+00  8528   0.781E+01 0.709E+00
CGA:  13    -0.384905786597E+03   -0.25523E+00   -0.25676E+00  8528   0.170E+02 0.102E+00
CGA:  14    -0.385642934343E+03   -0.73715E+00   -0.73773E+00  8528   0.105E+02-0.657E-01
CGA:  15    -0.385805996177E+03   -0.16306E+00   -0.15777E+00  8528   0.376E+01 0.200E+00
CGA:  16    -0.385941165359E+03   -0.13517E+00   -0.13504E+00  8528   0.335E+01-0.136E+00
CGA:  17    -0.386050536297E+03   -0.10937E+00   -0.10931E+00  8528   0.516E+01-0.138E-01
CGA:  18    -0.386187335811E+03   -0.13680E+00   -0.13528E+00  8528   0.205E+01-0.175E-01
CGA:  19    -0.386234565601E+03   -0.47230E-01   -0.48771E-01  8528   0.154E+01 0.507E-02
CGA:  20    -0.386278204343E+03   -0.43639E-01   -0.43921E-01  8528   0.111E+01 0.128E-01
CGA:  21    -0.386313002005E+03   -0.34798E-01   -0.34837E-01  8528   0.112E+01 0.511E-02
CGA:  22    -0.386339147338E+03   -0.26145E-01   -0.26123E-01  8528   0.456E+00 0.796E-04
CGA:  23    -0.386350495797E+03   -0.11348E-01   -0.11439E-01  8528   0.278E+00 0.178E-02
CGA:  24    -0.386357124460E+03   -0.66287E-02   -0.66500E-02  8528   0.229E+00 0.300E-03
CGA:  25    -0.386373547278E+03   -0.16423E-01   -0.16286E-01  8528   0.626E+00 0.363E-02
CGA:  26    -0.386388130308E+03   -0.14583E-01   -0.14643E-01  8528   0.256E+00 0.106E-02
CGA:  27    -0.386395825573E+03   -0.76953E-02   -0.77093E-02  8528   0.209E+00 0.143E-02
CGA:  28    -0.386401173246E+03   -0.53477E-02   -0.53564E-02  8528   0.150E+00 0.258E-03
CGA:  29    -0.386407932326E+03   -0.67591E-02   -0.67262E-02  8528   0.241E+00 0.212E-02
CGA:  30    -0.386414993558E+03   -0.70612E-02   -0.70659E-02  8528   0.152E+00 0.276E-03
CGA:  31    -0.386418872456E+03   -0.38789E-02   -0.38904E-02  8528   0.760E-01 0.270E-03
CGA:  32    -0.386420631395E+03   -0.17589E-02   -0.17533E-02  8528   0.439E-01-0.465E-04
CGA:  33    -0.386422440489E+03   -0.18091E-02   -0.18084E-02  8528   0.652E-01 0.441E-04
CGA:  34    -0.386424560905E+03   -0.21204E-02   -0.21206E-02  8528   0.511E-01 0.109E-03
CGA:  35    -0.386425950449E+03   -0.13895E-02   -0.13908E-02  8528   0.289E-01 0.571E-04
CGA:  36    -0.386426679231E+03   -0.72878E-03   -0.72910E-03  8528   0.205E-01 0.535E-05
CGA:  37    -0.386427532724E+03   -0.85349E-03   -0.85238E-03  8528   0.270E-01 0.904E-04
CGA:  38    -0.386428397754E+03   -0.86503E-03   -0.86507E-03  8528   0.277E-01 0.252E-04
CGA:  39    -0.386429506728E+03   -0.11090E-02   -0.11086E-02  8528   0.258E-01 0.438E-04
CGA:  40    -0.386430050129E+03   -0.54340E-03   -0.54399E-03  8528   0.107E-01 0.123E-04
SDA:  41    -0.386430507810E+03   -0.45768E-03   -0.45736E-03  8528   0.191E-01 0.246E-04
CGA:  42    -0.386430707129E+03   -0.19932E-03   -0.19921E-03  8528   0.372E-02 0.419E-08
CGA:  43    -0.386431027445E+03   -0.32032E-03   -0.32030E-03  8528   0.694E-02 0.464E-06
CGA:  44    -0.386431440553E+03   -0.41311E-03   -0.41368E-03  8528   0.118E-01-0.222E-04
CGA:  45    -0.386431830631E+03   -0.39008E-03   -0.38986E-03  8528   0.412E-02-0.394E-04
CGA:  46    -0.386432029482E+03   -0.19885E-03   -0.19898E-03  8528   0.979E-02-0.103E-04
CGA:  47    -0.386432261326E+03   -0.23184E-03   -0.23204E-03  8528   0.530E-02-0.438E-05
CGA:  48    -0.386432534721E+03   -0.27339E-03   -0.27363E-03  8528   0.316E-02-0.125E-04
CGA:  49    -0.386432742466E+03   -0.20775E-03   -0.20729E-03  8528   0.403E-02 0.143E-04
CGA:  50    -0.386432919279E+03   -0.17681E-03   -0.17690E-03  8528   0.102E-01-0.106E-04
CGA:  51    -0.386433209848E+03   -0.29057E-03   -0.29042E-03  8528   0.352E-02-0.296E-05
CGA:  52    -0.386433326704E+03   -0.11686E-03   -0.11683E-03  8528   0.178E-02-0.373E-05
CGA:  53    -0.386433405788E+03   -0.79085E-04   -0.79079E-04  8528   0.249E-02 0.112E-05
CGA:  54    -0.386433557853E+03   -0.15206E-03   -0.15197E-03  8528   0.254E-02 0.417E-05
CGA:  55    -0.386433661648E+03   -0.10380E-03   -0.10380E-03  8528   0.422E-02-0.211E-05
CGA:  56    -0.386433731808E+03   -0.70160E-04   -0.70255E-04  8528   0.487E-03-0.962E-07
CGA:  57    -0.386433857687E+03   -0.12588E-03   -0.88255E-05  8528   0.135E-02 0.226E-04
CGA:  58    -0.386433904527E+03   -0.46840E-04   -0.46979E-04  8528   0.148E-02 0.569E-05
CGA:  59    -0.386433945243E+03   -0.40716E-04   -0.40976E-04  8528   0.104E-02 0.151E-05
CGA:  60    -0.386433967168E+03   -0.21925E-04   -0.22009E-04  8528   0.750E-03 0.266E-05
CGA:  61    -0.386434040878E+03   -0.73710E-04   -0.73390E-04  8528   0.451E-03 0.943E-05
CGA:  62    -0.386434066755E+03   -0.25877E-04   -0.25894E-04  8528   0.752E-03 0.175E-05
CGA:  63    -0.386434088380E+03   -0.21626E-04   -0.21645E-04  8528   0.103E-02 0.201E-05
CGA:  64    -0.386434119907E+03   -0.31526E-04   -0.31583E-04  8528   0.400E-03 0.222E-05
CGA:  65    -0.386434137202E+03   -0.17295E-04   -0.17284E-04  8528   0.249E-03-0.653E-06
CGA:  66    -0.386434144188E+03   -0.69862E-05   -0.69711E-05  8528   0.192E-03-0.289E-06
CGA:  67    -0.386434156901E+03   -0.12713E-04   -0.12726E-04  8528   0.666E-03-0.181E-05
CGA:  68    -0.386434171473E+03   -0.14572E-04   -0.14464E-04  8528   0.225E-03-0.177E-05
CGA:  69    -0.386434178738E+03   -0.72649E-05   -0.72438E-05  8528   0.666E-04-0.114E-05
   8 F= -.38643418E+03 E0= -.38640491E+03  d E =-.674292E+00  mag=    10.7061
       N       E                     dE             d eps       ncg     rms          ort
SDA:   1    -0.324077317140E+03    0.62357E+02    0.00000E+00  8528   0.942E+03 0.000E+00
CGA:   2    -0.335971815901E+03   -0.11894E+02   -0.18597E+02  8528   0.257E+03-0.663E+02
CGA:   3    -0.348257412024E+03   -0.12286E+02   -0.99078E+01  8528   0.353E+03-0.516E+02
CGA:   4    -0.365138952422E+03   -0.16882E+02   -0.17091E+02  8528   0.606E+03-0.114E+02
CGA:   5    -0.373298144924E+03   -0.81592E+01   -0.11423E+02  8528   0.298E+03-0.224E+03
CGA:   6    -0.378102789010E+03   -0.48046E+01   -0.53932E+01  8528   0.634E+02 0.216E+00
CGA:   7    -0.379202953213E+03   -0.11002E+01   -0.97157E+00  8528   0.618E+02 0.549E+01
CGA:   8    -0.382293611466E+03   -0.30907E+01   -0.30931E+01  8528   0.964E+02 0.180E+00
CGA:   9    -0.383741390021E+03   -0.14478E+01   -0.17214E+01  8528   0.573E+02-0.122E+02
CGA:  10    -0.384901203445E+03   -0.11598E+01   -0.97909E+00  8528   0.197E+02 0.608E+01
CGA:  11    -0.385206930445E+03   -0.30573E+00   -0.24386E+00  8528   0.146E+02 0.443E+01
CGA:  12    -0.385564013952E+03   -0.35708E+00   -0.28330E+00  8528   0.159E+02 0.342E+01
CGA:  13    -0.385776731814E+03   -0.21272E+00   -0.17512E+00  8528   0.109E+02 0.393E+01
CGA:  14    -0.385908419030E+03   -0.13169E+00   -0.98937E-01  8528   0.689E+01 0.414E+01
CGA:  15    -0.385983819691E+03   -0.75401E-01   -0.59612E-01  8528   0.424E+01 0.224E+01
CGA:  16    -0.386035471253E+03   -0.51652E-01   -0.46920E-01  8528   0.575E+01 0.463E+00
CGA:  17    -0.386102285509E+03   -0.66814E-01   -0.61688E-01  8528   0.135E+02 0.404E+00
CGA:  18    -0.386218187254E+03   -0.11590E+00   -0.10365E+00  8528   0.232E+02 0.119E+01
CGA:  19    -0.386291863928E+03   -0.73677E-01   -0.19269E+00  8528   0.324E+02-0.163E+02
CGA:  20    -0.386586307217E+03   -0.29444E+00   -0.28507E+00  8528   0.355E+01 0.168E+00
CGA:  21    -0.386656097165E+03   -0.69790E-01   -0.68664E-01  8528   0.886E+00 0.922E-02
CGA:  22    -0.386674287572E+03   -0.18190E-01   -0.18325E-01  8528   0.100E+01-0.377E-03
CGA:  23    -0.386734206970E+03   -0.59919E-01   -0.60777E-01  8528   0.271E+01-0.362E-01
CGA:  24    -0.386799735619E+03   -0.65529E-01   -0.66408E-01  8528   0.315E+01 0.503E-01
CGA:  25    -0.386865405867E+03   -0.65670E-01   -0.58006E-01  8528   0.149E+01 0.169E+00
CGA:  26    -0.386894352279E+03   -0.28946E-01   -0.31344E-01  8528   0.891E+00 0.810E-02
CGA:  27    -0.386911691410E+03   -0.17339E-01   -0.18036E-01  8528   0.384E+00 0.656E-03
CGA:  28    -0.386923453075E+03   -0.11762E-01   -0.11751E-01  8528   0.551E+00 0.103E-01
CGA:  29    -0.386945842889E+03   -0.22390E-01   -0.22167E-01  8528   0.571E+00 0.145E-01
CGA:  30    -0.386973024408E+03   -0.27182E-01   -0.26344E-01  8528   0.372E+00 0.463E-01
CGA:  31    -0.386983730741E+03   -0.10706E-01   -0.10630E-01  8528   0.350E+00-0.482E-02
CGA:  32    -0.386990836671E+03   -0.71059E-02   -0.71455E-02  8528   0.125E+00 0.734E-03
CGA:  33    -0.387002037432E+03   -0.11201E-01   -0.13349E-01  8528   0.613E+00-0.390E-01
CGA:  34    -0.387008288045E+03   -0.62506E-02   -0.62084E-02  8528   0.749E+00-0.694E-02
CGA:  35    -0.387020055366E+03   -0.11767E-01   -0.13414E-01  8528   0.541E+00-0.228E-01
CGA:  36    -0.387026761702E+03   -0.67063E-02   -0.66959E-02  8528   0.193E+00 0.802E-02
CGA:  37    -0.387030934916E+03   -0.41732E-02   -0.41473E-02  8528   0.174E+00 0.382E-03
CGA:  38    -0.387033691372E+03   -0.27565E-02   -0.27972E-02  8528   0.918E-01-0.104E-02
CGA:  39    -0.387036699586E+03   -0.30082E-02   -0.30117E-02  8528   0.213E+00-0.741E-03
CGA:  40    -0.387043205742E+03   -0.65062E-02   -0.65112E-02  8528   0.384E+00-0.530E-02
CGA:  41    -0.387052618103E+03   -0.94124E-02   -0.93962E-02  8528   0.358E+00 0.270E-02
CGA:  42    -0.387057090548E+03   -0.44724E-02   -0.38757E-02  8528   0.145E+00 0.446E-01
CGA:  43    -0.387059284266E+03   -0.21937E-02   -0.21368E-02  8528   0.114E+00 0.282E-02
CGA:  44    -0.387060974401E+03   -0.16901E-02   -0.16573E-02  8528   0.841E-01 0.123E-02
CGA:  45    -0.387061996858E+03   -0.10225E-02   -0.10158E-02  8528   0.730E-01 0.322E-03
CGA:  46    -0.387063532804E+03   -0.15359E-02   -0.15366E-02  8528   0.141E+00-0.368E-04
CGA:  47    -0.387065771680E+03   -0.22389E-02   -0.22126E-02  8528   0.146E+00 0.463E-03
CGA:  48    -0.387067919991E+03   -0.21483E-02   -0.21014E-02  8528   0.186E+00 0.120E-02
CGA:  49    -0.387070885084E+03   -0.29651E-02   -0.28804E-02  8528   0.237E+00 0.135E-02
SDA:  50    -0.387073459353E+03   -0.25743E-02   -0.25268E-02  8528   0.174E+00 0.343E-02
CGA:  51    -0.387076495935E+03   -0.30366E-02   -0.30504E-02  8528   0.372E-01 0.242E-03
CGA:  52    -0.387077960153E+03   -0.14642E-02   -0.14676E-02  8528   0.346E-01-0.193E-03
CGA:  53    -0.387078818352E+03   -0.85820E-03   -0.85816E-03  8528   0.389E-01 0.962E-04
CGA:  54    -0.387081029462E+03   -0.22111E-02   -0.22565E-02  8528   0.396E-01-0.174E-02
CGA:  55    -0.387083884778E+03   -0.28553E-02   -0.27778E-02  8528   0.190E-01 0.978E-03
CGA:  56    -0.387085710558E+03   -0.18258E-02   -0.19013E-02  8528   0.611E-01-0.125E-02
CGA:  57    -0.387087461381E+03   -0.17508E-02   -0.17460E-02  8528   0.778E-01-0.144E-02
CGA:  58    -0.387089326658E+03   -0.18653E-02   -0.17437E-02  8528   0.499E-01-0.772E-03
CGA:  59    -0.387090323483E+03   -0.99682E-03   -0.10460E-02  8528   0.252E-01 0.696E-04
CGA:  60    -0.387090713396E+03   -0.38991E-03   -0.40231E-03  8528   0.139E-01-0.399E-03
CGA:  61    -0.387091322203E+03   -0.60881E-03   -0.62244E-03  8528   0.174E-01-0.754E-03
CGA:  62    -0.387092127563E+03   -0.80536E-03   -0.80665E-03  8528   0.378E-01-0.896E-04
CGA:  63    -0.387092868587E+03   -0.74102E-03   -0.76503E-03  8528   0.114E-01-0.658E-04
CGA:  64    -0.387093229478E+03   -0.36089E-03   -0.36093E-03  8528   0.503E-02-0.624E-04
CGA:  65    -0.387093402561E+03   -0.17308E-03   -0.17295E-03  8528   0.567E-02 0.391E-04
CGA:  66    -0.387093682799E+03   -0.28024E-03   -0.27935E-03  8528   0.978E-02 0.562E-04
CGA:  67    -0.387093918384E+03   -0.23559E-03   -0.23689E-03  8528   0.580E-02 0.943E-04
CGA:  68    -0.387094071836E+03   -0.15345E-03   -0.15382E-03  8528   0.186E-02 0.547E-04
CGA:  69    -0.387094194047E+03   -0.12221E-03   -0.12090E-03  8528   0.378E-02 0.392E-04
CGA:  70    -0.387094333567E+03   -0.13952E-03   -0.13982E-03  8528   0.740E-02-0.575E-04
CGA:  71    -0.387094583497E+03   -0.24993E-03   -0.24999E-03  8528   0.317E-02-0.372E-04
CGA:  72    -0.387094680405E+03   -0.96908E-04   -0.96969E-04  8528   0.193E-02 0.957E-05
CGA:  73    -0.387094716211E+03   -0.35807E-04   -0.35703E-04  8528   0.131E-02-0.893E-06
CGA:  74    -0.387094767078E+03   -0.50867E-04   -0.50709E-04  8528   0.151E-02 0.155E-04
CGA:  75    -0.387094835945E+03   -0.68867E-04   -0.69540E-04  8528   0.232E-02-0.445E-04
CGA:  76    -0.387094910633E+03   -0.74689E-04   -0.74632E-04  8528   0.204E-02-0.783E-04
CGA:  77    -0.387094939987E+03   -0.29354E-04   -0.29530E-04  8528   0.715E-03-0.115E-04
CGA:  78    -0.387094965170E+03   -0.25183E-04   -0.25163E-04  8528   0.827E-03 0.617E-05
CGA:  79    -0.387094987073E+03   -0.21903E-04   -0.21928E-04  8528   0.130E-02 0.854E-05
CGA:  80    -0.387095031290E+03   -0.44217E-04   -0.44170E-04  8528   0.874E-03 0.335E-04
SDA:  81    -0.387095050616E+03   -0.19325E-04   -0.19494E-04  8528   0.836E-03 0.111E-04
CGA:  82    -0.387095063529E+03   -0.12913E-04   -0.12881E-04  8528   0.489E-03-0.238E-05
CGA:  83    -0.387095082185E+03   -0.18656E-04   -0.18692E-04  8528   0.367E-03-0.556E-05
CGA:  84    -0.387095108855E+03   -0.26670E-04   -0.27157E-04  8528   0.932E-03-0.119E-04
CGA:  85    -0.387095140063E+03   -0.31208E-04   -0.31206E-04  8528   0.449E-03-0.412E-05
CGA:  86    -0.387095156382E+03   -0.16319E-04   -0.16328E-04  8528   0.136E-03-0.462E-05
CGA:  87    -0.387095161584E+03   -0.52023E-05   -0.52034E-05  8528   0.334E-03-0.671E-06
CGA:  88    -0.387095174074E+03   -0.12490E-04   -0.12482E-04  8528   0.233E-03 0.183E-05
CGA:  89    -0.387095186916E+03   -0.12842E-04   -0.12688E-04  8528   0.136E-03 0.665E-05
CGA:  90    -0.387095190056E+03   -0.31397E-05   -0.31467E-05  8528   0.528E-04-0.208E-06
   9 F= -.38709519E+03 E0= -.38706503E+03  d E =-.661011E+00  mag=    10.5034
       N       E                     dE             d eps       ncg     rms          ort
SDA:   1    -0.329858688312E+03    0.57236E+02    0.00000E+00  8528   0.490E+03 0.000E+00
CGA:   2    -0.338787790409E+03   -0.89291E+01   -0.10818E+02  8528   0.211E+03 0.424E+02
CGA:   3    -0.344319503540E+03   -0.55317E+01   -0.22064E+02  8528   0.166E+04-0.195E+03
CGA:   4    -0.357903773482E+03   -0.13584E+02   -0.28968E+02  8528   0.793E+03-0.705E+03
CGA:   5    -0.369698713947E+03   -0.11795E+02   -0.10125E+02  8528   0.127E+03-0.838E+02
CGA:   6    -0.371900173749E+03   -0.22015E+01   -0.19949E+01  8528   0.880E+02 0.151E+01
CGA:   7    -0.374918397810E+03   -0.30182E+01   -0.24919E+01  8528   0.119E+03-0.190E+02
CGA:   8    -0.375868143056E+03   -0.94975E+00   -0.14285E+01  8528   0.239E+03-0.211E+02
CGA:   9    -0.378591817224E+03   -0.27237E+01   -0.31565E+01  8528   0.387E+03-0.198E+02
CGA:  10    -0.383056651094E+03   -0.44648E+01   -0.58259E+01  8528   0.197E+03-0.171E+02
CGA:  11    -0.385099964551E+03   -0.20433E+01   -0.22267E+01  8528   0.525E+02-0.140E+02
CGA:  12    -0.385785973379E+03   -0.68601E+00   -0.67097E+00  8528   0.147E+02-0.148E+01
CGA:  13    -0.386076264245E+03   -0.29029E+00   -0.17775E+00  8528   0.102E+02 0.689E+01
CGA:  14    -0.386220108895E+03   -0.14384E+00   -0.10804E+00  8528   0.706E+01 0.378E+01
CGA:  15    -0.386305618007E+03   -0.85509E-01   -0.81891E-01  8528   0.914E+01 0.268E+00
CGA:  16    -0.386383357913E+03   -0.77740E-01   -0.79264E-01  8528   0.171E+02-0.168E+00
CGA:  17    -0.386517650582E+03   -0.13429E+00   -0.13769E+00  8528   0.309E+02-0.360E+00
CGA:  18    -0.386709116787E+03   -0.19147E+00   -0.19090E+00  8528   0.345E+02 0.177E+00
CGA:  19    -0.386881063890E+03   -0.17195E+00   -0.15969E+00  8528   0.251E+02 0.268E+01
CGA:  20    -0.387011150232E+03   -0.13009E+00   -0.11785E+00  8528   0.171E+02 0.258E+01
CGA:  21    -0.387099627974E+03   -0.88478E-01   -0.78977E-01  8528   0.115E+02 0.205E+01
CGA:  22    -0.387153411796E+03   -0.53784E-01   -0.53698E-01  8528   0.604E+01-0.131E-01
CGA:  23    -0.387176093553E+03   -0.22682E-01   -0.25325E-01  8528   0.310E+01-0.574E+00
CGA:  24    -0.387188550643E+03   -0.12457E-01   -0.13404E-01  8528   0.257E+01-0.171E+00
CGA:  25    -0.387204582703E+03   -0.16032E-01   -0.16841E-01  8528   0.343E+01-0.823E-01
CGA:  26    -0.387228245964E+03   -0.23663E-01   -0.23439E-01  8528   0.370E+01 0.275E-01
CGA:  27    -0.387250320704E+03   -0.22075E-01   -0.21247E-01  8528   0.333E+01 0.113E+00
CGA:  28    -0.387274757234E+03   -0.24437E-01   -0.24232E-01  8528   0.466E+01 0.211E-01
CGA:  29    -0.387311035277E+03   -0.36278E-01   -0.36120E-01  8528   0.685E+01 0.147E-01
CGA:  30    -0.387352896606E+03   -0.41861E-01   -0.44088E-01  8528   0.632E+01-0.223E+00
CGA:  31    -0.387387373319E+03   -0.34477E-01   -0.38031E-01  8528   0.488E+01-0.371E+00
CGA:  32    -0.387419587279E+03   -0.32214E-01   -0.34101E-01  8528   0.419E+01-0.131E+00
CGA:  33    -0.387446750792E+03   -0.27164E-01   -0.27039E-01  8528   0.202E+01 0.161E-01
SDA:  34    -0.387457674455E+03   -0.10924E-01   -0.10806E-01  8528   0.828E+00 0.144E-01
CGA:  35    -0.387486154056E+03   -0.28480E-01   -0.28853E-01  8528   0.882E+00-0.194E-01
CGA:  36    -0.387512261569E+03   -0.26108E-01   -0.26078E-01  8528   0.152E+01 0.230E-02
CGA:  37    -0.387571431416E+03   -0.59170E-01   -0.59250E-01  8528   0.493E+00-0.339E-02
CGA:  38    -0.387580044333E+03   -0.86129E-02   -0.86121E-02  8528   0.206E+00 0.726E-03
CGA:  39    -0.387587194559E+03   -0.71502E-02   -0.70736E-02  8528   0.918E-01 0.435E-02
CGA:  40    -0.387596622213E+03   -0.94277E-02   -0.17077E-03  8528   0.268E+00-0.112E-01
CGA:  41    -0.387604313116E+03   -0.76909E-02   -0.76909E-02  8528   0.315E+00-0.757E-03
CGA:  42    -0.387609349631E+03   -0.50365E-02   -0.50190E-02  8528   0.186E-01 0.667E-03
CGA:  43    -0.387610496406E+03   -0.11468E-02   -0.11415E-02  8528   0.293E-01 0.172E-03
CGA:  44    -0.387611848461E+03   -0.13521E-02   -0.13498E-02  8528   0.747E-01 0.148E-03
CGA:  45    -0.387614411524E+03   -0.25631E-02   -0.25630E-02  8528   0.526E-01 0.834E-04
CGA:  46    -0.387615963571E+03   -0.15520E-02   -0.15542E-02  8528   0.342E-01 0.209E-03
CGA:  47    -0.387616647140E+03   -0.68357E-03   -0.68468E-03  8528   0.107E-01 0.368E-04
CGA:  48    -0.387617999622E+03   -0.13525E-02   -0.13203E-02  8528   0.385E-01 0.405E-03
CGA:  49    -0.387619174809E+03   -0.11752E-02   -0.11758E-02  8528   0.470E-01 0.102E-03
CGA:  50    -0.387620237391E+03   -0.10626E-02   -0.10572E-02  8528   0.939E-02 0.177E-03
CGA:  51    -0.387620618523E+03   -0.38113E-03   -0.38087E-03  8528   0.448E-02 0.440E-04
CGA:  52    -0.387620999136E+03   -0.38061E-03   -0.38303E-03  8528   0.176E-01-0.510E-04
CGA:  53    -0.387621528187E+03   -0.52905E-03   -0.53027E-03  8528   0.535E-02-0.690E-05
CGA:  54    -0.387621729323E+03   -0.20114E-03   -0.20112E-03  8528   0.269E-02-0.230E-04
CGA:  55    -0.387621792763E+03   -0.63440E-04   -0.63333E-04  8528   0.324E-02-0.914E-05
CGA:  56    -0.387621949830E+03   -0.15707E-03   -0.15729E-03  8528   0.387E-02-0.229E-04
CGA:  57    -0.387622153753E+03   -0.20392E-03   -0.20387E-03  8528   0.477E-02-0.251E-05
CGA:  58    -0.387622238035E+03   -0.84282E-04   -0.83788E-04  8528   0.699E-03 0.268E-05
CGA:  59    -0.387622292584E+03   -0.54550E-04   -0.53982E-04  8528   0.114E-02 0.141E-04
CGA:  60    -0.387622378429E+03   -0.85844E-04   -0.85135E-04  8528   0.226E-02 0.213E-04
CGA:  61    -0.387622434154E+03   -0.55726E-04   -0.55966E-04  8528   0.162E-02 0.173E-04
CGA:  62    -0.387622477142E+03   -0.42988E-04   -0.43202E-04  8528   0.630E-03 0.128E-04
CGA:  63    -0.387622489596E+03   -0.12454E-04   -0.12529E-04  8528   0.483E-03 0.258E-05
CGA:  64    -0.387622567373E+03   -0.77777E-04   -0.79140E-04  8528   0.107E-02-0.137E-04
SDA:  65    -0.387622607478E+03   -0.40105E-04   -0.40114E-04  8528   0.438E-03-0.546E-06
CGA:  66    -0.387622616759E+03   -0.92810E-05   -0.93167E-05  8528   0.312E-03 0.139E-05
CGA:  67    -0.387622633999E+03   -0.17241E-04   -0.17194E-04  8528   0.302E-03 0.368E-05
CGA:  68    -0.387622654118E+03   -0.20118E-04   -0.20040E-04  8528   0.761E-03 0.352E-05
CGA:  69    -0.387622667288E+03   -0.13170E-04   -0.13270E-04  8528   0.218E-03 0.270E-05
CGA:  70    -0.387622675997E+03   -0.87091E-05   -0.87167E-05  8528   0.890E-04 0.153E-05
CGA:  71    -0.387622687686E+03   -0.11689E-04   -0.11745E-04  8528   0.271E-03-0.747E-06
CGA:  72    -0.387622700521E+03   -0.12835E-04   -0.12835E-04  8528   0.459E-03-0.375E-06
CGA:  73    -0.387622709741E+03   -0.92198E-05   -0.92827E-05  8528   0.139E-03 0.812E-06
  10 F= -.38762271E+03 E0= -.38759168E+03  d E =-.527520E+00  mag=    10.0977
       N       E                     dE             d eps       ncg     rms          ort
SDA:   1    -0.337179510123E+03    0.50443E+02    0.00000E+00  8528   0.824E+03 0.000E+00
CGA:   2    -0.350948983132E+03   -0.13769E+02   -0.12870E+02  8528   0.183E+03-0.101E+03
CGA:   3    -0.357818791769E+03   -0.68698E+01   -0.69023E+01  8528   0.361E+03 0.131E+02
CGA:   4    -0.367903929322E+03   -0.10085E+02   -0.11893E+02  8528   0.381E+03-0.910E+01
CGA:   5    -0.377133116979E+03   -0.92292E+01   -0.72205E+01  8528   0.215E+03 0.447E+02
CGA:   6    -0.379594488363E+03   -0.24614E+01   -0.30360E+01  8528   0.138E+03-0.574E+02
CGA:   7    -0.381132499389E+03   -0.15380E+01   -0.14734E+01  8528   0.110E+03-0.177E+01
CGA:   8    -0.382293637636E+03   -0.11611E+01   -0.20227E+01  8528   0.831E+02-0.169E+02
CGA:   9    -0.383942168216E+03   -0.16485E+01   -0.15993E+01  8528   0.118E+03 0.397E+00
CGA:  10    -0.385253560093E+03   -0.13114E+01   -0.14161E+01  8528   0.610E+02-0.240E+02
CGA:  11    -0.385810519056E+03   -0.55696E+00   -0.58320E+00  8528   0.427E+02-0.144E+01
CGA:  12    -0.386260901948E+03   -0.45038E+00   -0.45872E+00  8528   0.286E+02-0.119E+01
CGA:  13    -0.386597547097E+03   -0.33665E+00   -0.28274E+00  8528   0.190E+02 0.401E+01
CGA:  14    -0.386804670625E+03   -0.20712E+00   -0.20107E+00  8528   0.125E+02 0.360E+00
CGA:  15    -0.386933208701E+03   -0.12854E+00   -0.13623E+00  8528   0.117E+02-0.548E+00
CGA:  16    -0.387103158273E+03   -0.16995E+00   -0.18685E+00  8528   0.189E+02-0.404E+00
CGA:  17    -0.387324873420E+03   -0.22172E+00   -0.21861E+00  8528   0.116E+02 0.210E+00
CGA:  18    -0.387457793475E+03   -0.13292E+00   -0.12350E+00  8528   0.802E+01 0.591E+00
CGA:  19    -0.387552114202E+03   -0.94321E-01   -0.94768E-01  8528   0.509E+01-0.408E-01
CGA:  20    -0.387595821118E+03   -0.43707E-01   -0.42964E-01  8528   0.242E+01 0.604E-01
CGA:  21    -0.387622553369E+03   -0.26732E-01   -0.27578E-01  8528   0.210E+01-0.489E-01
CGA:  22    -0.387648960157E+03   -0.26407E-01   -0.26329E-01  8528   0.224E+01 0.357E-02
CGA:  23    -0.387680958980E+03   -0.31999E-01   -0.31824E-01  8528   0.277E+01 0.451E-02
CGA:  24    -0.387717221914E+03   -0.36263E-01   -0.39460E-01  8528   0.266E+01-0.531E-01
CGA:  25    -0.387762122910E+03   -0.44901E-01   -0.45129E-01  8528   0.328E+01 0.567E-02
CGA:  26    -0.387805476728E+03   -0.43354E-01   -0.44764E-01  8528   0.154E+01-0.369E-01
CGA:  27    -0.387821679374E+03   -0.16203E-01   -0.16438E-01  8528   0.769E+00-0.146E-01
CGA:  28    -0.387832332487E+03   -0.10653E-01   -0.10824E-01  8528   0.506E+00-0.137E-02
CGA:  29    -0.387842456093E+03   -0.10124E-01   -0.10141E-01  8528   0.792E+00 0.360E-02
CGA:  30    -0.387859503554E+03   -0.17047E-01   -0.17066E-01  8528   0.942E+00 0.189E-01
CGA:  31    -0.387883413692E+03   -0.23910E-01   -0.23668E-01  8528   0.113E+01 0.545E-01
SDA:  32    -0.387900847598E+03   -0.17434E-01   -0.17288E-01  8528   0.409E+00-0.264E-04
CGA:  33    -0.387906645589E+03   -0.57980E-02   -0.58122E-02  8528   0.129E+00-0.256E-04
CGA:  34    -0.387913991727E+03   -0.73461E-02   -0.72138E-02  8528   0.149E+00 0.420E-02
CGA:  35    -0.387929993790E+03   -0.16002E-01   -0.15986E-01  8528   0.279E+00 0.131E-03
CGA:  36    -0.387943648813E+03   -0.13655E-01   -0.13488E-01  8528   0.119E+00 0.721E-02
CGA:  37    -0.387945380564E+03   -0.17318E-02   -0.17440E-02  8528   0.607E-01-0.417E-03
CGA:  38    -0.387950362579E+03   -0.49820E-02   -0.49860E-02  8528   0.140E+00-0.677E-04
CGA:  39    -0.387955057005E+03   -0.46944E-02   -0.46903E-02  8528   0.171E+00 0.684E-03
CGA:  40    -0.387961055760E+03   -0.59988E-02   -0.59952E-02  8528   0.521E-01 0.459E-03
CGA:  41    -0.387962177899E+03   -0.11221E-02   -0.11305E-02  8528   0.494E-01 0.924E-04
CGA:  42    -0.387965061874E+03   -0.28840E-02   -0.28812E-02  8528   0.634E-01 0.924E-04
CGA:  43    -0.387968174935E+03   -0.31131E-02   -0.30893E-02  8528   0.105E+00 0.119E-02
CGA:  44    -0.387970510730E+03   -0.23358E-02   -0.23300E-02  8528   0.463E-01 0.101E-03
CGA:  45    -0.387972278398E+03   -0.17677E-02   -0.17627E-02  8528   0.156E-01 0.554E-03
CGA:  46    -0.387972667675E+03   -0.38928E-03   -0.38906E-03  8528   0.209E-01-0.640E-06
CGA:  47    -0.387975348031E+03   -0.26804E-02   -0.26818E-02  8528   0.307E-01-0.442E-04
CGA:  48    -0.387976064571E+03   -0.71654E-03   -0.71634E-03  8528   0.201E-01-0.271E-05
CGA:  49    -0.387976517366E+03   -0.45280E-03   -0.45468E-03  8528   0.662E-02-0.153E-04
CGA:  50    -0.387977009225E+03   -0.49186E-03   -0.48849E-03  8528   0.193E-01 0.896E-04
CGA:  51    -0.387977745041E+03   -0.73582E-03   -0.73576E-03  8528   0.239E-01 0.853E-04
CGA:  52    -0.387978547926E+03   -0.80288E-03   -0.80345E-03  8528   0.138E-01 0.729E-04
CGA:  53    -0.387978845587E+03   -0.29766E-03   -0.29735E-03  8528   0.476E-02 0.573E-05
CGA:  54    -0.387979048905E+03   -0.20332E-03   -0.20323E-03  8528   0.663E-02 0.112E-04
CGA:  55    -0.387979265616E+03   -0.21671E-03   -0.21680E-03  8528   0.855E-02 0.113E-04
CGA:  56    -0.387980032025E+03   -0.76641E-03   -0.77122E-03  8528   0.112E-01-0.101E-03
CGA:  57    -0.387980213417E+03   -0.18139E-03   -0.18273E-03  8528   0.370E-02-0.471E-04
CGA:  58    -0.387980345006E+03   -0.13159E-03   -0.13163E-03  8528   0.244E-02 0.110E-04
CGA:  59    -0.387980518265E+03   -0.17326E-03   -0.17317E-03  8528   0.957E-02 0.235E-05
CGA:  60    -0.387980840591E+03   -0.32233E-03   -0.32202E-03  8528   0.439E-02-0.198E-04
CGA:  61    -0.387981028708E+03   -0.18812E-03   -0.18803E-03  8528   0.302E-02 0.107E-04
CGA:  62    -0.387981077561E+03   -0.48854E-04   -0.48781E-04  8528   0.980E-03 0.361E-05
SDA:  63    -0.387981159262E+03   -0.81700E-04   -0.81540E-04  8528   0.285E-02 0.359E-05
CGA:  64    -0.387981201334E+03   -0.42072E-04   -0.42035E-04  8528   0.995E-03 0.351E-05
CGA:  65    -0.387981229044E+03   -0.27710E-04   -0.27713E-04  8528   0.721E-03-0.549E-06
CGA:  66    -0.387981288739E+03   -0.59696E-04   -0.59556E-04  8528   0.205E-02 0.311E-05
CGA:  67    -0.387981400216E+03   -0.11148E-03   -0.11124E-03  8528   0.144E-02 0.165E-04
CGA:  68    -0.387981469957E+03   -0.69741E-04   -0.69716E-04  8528   0.335E-03 0.478E-05
CGA:  69    -0.387981499854E+03   -0.29897E-04   -0.29737E-04  8528   0.185E-02 0.337E-05
CGA:  70    -0.387981561710E+03   -0.61856E-04   -0.61840E-04  8528   0.151E-02 0.533E-05
CGA:  71    -0.387981674094E+03   -0.11238E-03   -0.11207E-03  8528   0.580E-03 0.100E-04
CGA:  72    -0.387981703040E+03   -0.28947E-04   -0.28953E-04  8528   0.904E-03-0.146E-05
CGA:  73    -0.387981736626E+03   -0.33585E-04   -0.33512E-04  8528   0.143E-02-0.736E-05
CGA:  74    -0.387981797036E+03   -0.60410E-04   -0.60345E-04  8528   0.198E-02-0.195E-04
CGA:  75    -0.387981863061E+03   -0.66025E-04   -0.65967E-04  8528   0.805E-03-0.139E-04
CGA:  76    -0.387981902090E+03   -0.39029E-04   -0.39084E-04  8528   0.282E-03-0.964E-05
CGA:  77    -0.387981944033E+03   -0.41943E-04   -0.40745E-04  8528   0.132E-02 0.119E-04
CGA:  78    -0.387981973081E+03   -0.29048E-04   -0.29132E-04  8528   0.848E-03 0.129E-04
CGA:  79    -0.387982014421E+03   -0.41340E-04   -0.41339E-04  8528   0.554E-03 0.942E-05
CGA:  80    -0.387982029022E+03   -0.14601E-04   -0.14659E-04  8528   0.254E-03 0.291E-05
CGA:  81    -0.387982043023E+03   -0.14000E-04   -0.14013E-04  8528   0.504E-03-0.175E-05
CGA:  82    -0.387982063198E+03   -0.20175E-04   -0.20146E-04  8528   0.105E-02-0.333E-05
CGA:  83    -0.387982114005E+03   -0.50806E-04   -0.50821E-04  8528   0.283E-03-0.830E-05
CGA:  84    -0.387982125771E+03   -0.11766E-04   -0.11746E-04  8528   0.202E-03-0.323E-05
CGA:  85    -0.387982132619E+03   -0.68481E-05   -0.68287E-05  8528   0.386E-03-0.145E-05
CGA:  86    -0.387982162847E+03   -0.30228E-04   -0.30349E-04  8528   0.100E-02-0.371E-05
CGA:  87    -0.387982188392E+03   -0.25545E-04   -0.25407E-04  8528   0.199E-03-0.196E-05
CGA:  88    -0.387982201472E+03   -0.13081E-04   -0.13055E-04  8528   0.212E-03 0.111E-05
CGA:  89    -0.387982208698E+03   -0.72253E-05   -0.72489E-05  8528   0.358E-03 0.144E-05
CGA:  90    -0.387982221984E+03   -0.13286E-04   -0.13336E-04  8528   0.296E-03 0.495E-05
CGA:  91    -0.387982243319E+03   -0.21336E-04   -0.21173E-04  8528   0.214E-03 0.685E-05
CGA:  92    -0.387982248182E+03   -0.48621E-05   -0.48795E-05  8528   0.948E-04 0.118E-05
  11 F= -.38798225E+03 E0= -.38795491E+03  d E =-.359538E+00  mag=     8.4077
       N       E                     dE             d eps       ncg     rms          ort
SDA:   1    -0.378889916986E+03    0.90923E+01    0.00000E+00  8528   0.504E+02 0.000E+00
CGA:   2    -0.380144792367E+03   -0.12549E+01   -0.12643E+01  8528   0.382E+02 0.220E+00
CGA:   3    -0.385066847862E+03   -0.49221E+01   -0.51508E+01  8528   0.595E+02-0.405E+01
CGA:   4    -0.386191825121E+03   -0.11250E+01   -0.11701E+01  8528   0.242E+02-0.397E+01
CGA:   5    -0.386521116177E+03   -0.32929E+00   -0.44662E+00  8528   0.154E+02-0.423E+01
CGA:   6    -0.387439342128E+03   -0.91823E+00   -0.92834E+00  8528   0.179E+02-0.325E+00
CGA:   7    -0.387730158533E+03   -0.29082E+00   -0.31158E+00  8528   0.500E+01-0.853E+00
CGA:   8    -0.387870213703E+03   -0.14006E+00   -0.14325E+00  8528   0.455E+01-0.260E-01
CGA:   9    -0.387953791116E+03   -0.83577E-01   -0.83007E-01  8528   0.155E+01 0.146E-01
CGA:  10    -0.388024909915E+03   -0.71119E-01   -0.71126E-01  8528   0.245E+01-0.498E-02
CGA:  11    -0.388101611833E+03   -0.76702E-01   -0.76269E-01  8528   0.124E+01-0.775E-03
CGA:  12    -0.388131546688E+03   -0.29935E-01   -0.30292E-01  8528   0.684E+00-0.740E-02
CGA:  13    -0.388144046442E+03   -0.12500E-01   -0.12599E-01  8528   0.279E+00-0.331E-02
CGA:  14    -0.388158861304E+03   -0.14815E-01   -0.14915E-01  8528   0.515E+00-0.626E-02
CGA:  15    -0.388177659220E+03   -0.18798E-01   -0.19194E-01  8528   0.288E+00 0.338E-01
CGA:  16    -0.388184107654E+03   -0.64484E-02   -0.64903E-02  8528   0.149E+00-0.951E-03
CGA:  17    -0.388187494070E+03   -0.33864E-02   -0.33641E-02  8528   0.594E-01 0.438E-03
CGA:  18    -0.388191757680E+03   -0.42636E-02   -0.41804E-02  8528   0.135E+00 0.244E-02
CGA:  19    -0.388195317198E+03   -0.35595E-02   -0.35997E-02  8528   0.714E-01-0.590E-04
CGA:  20    -0.388197184762E+03   -0.18676E-02   -0.18705E-02  8528   0.223E-01 0.184E-04
CGA:  21    -0.388197758748E+03   -0.57399E-03   -0.57558E-03  8528   0.215E-01 0.353E-05
CGA:  22    -0.388199106991E+03   -0.13482E-02   -0.13480E-02  8528   0.292E-01-0.496E-05
CGA:  23    -0.388199834415E+03   -0.72742E-03   -0.73020E-03  8528   0.184E-01-0.104E-04
CGA:  24    -0.388200429315E+03   -0.59490E-03   -0.59603E-03  8528   0.831E-02 0.333E-04
CGA:  25    -0.388200651947E+03   -0.22263E-03   -0.22274E-03  8528   0.735E-02 0.722E-06
CGA:  26    -0.388200977877E+03   -0.32593E-03   -0.32596E-03  8528   0.801E-02-0.824E-05
CGA:  27    -0.388201320439E+03   -0.34256E-03   -0.34238E-03  8528   0.108E-01 0.283E-04
CGA:  28    -0.388201592590E+03   -0.27215E-03   -0.27250E-03  8528   0.306E-02-0.721E-05
CGA:  29    -0.388201690595E+03   -0.98005E-04   -0.98029E-04  8528   0.348E-02 0.184E-05
CGA:  30    -0.388201832850E+03   -0.14225E-03   -0.14225E-03  8528   0.364E-02-0.436E-06
CGA:  31    -0.388201994041E+03   -0.16119E-03   -0.16108E-03  8528   0.486E-02 0.138E-04
SDA:  32    -0.388202122121E+03   -0.12808E-03   -0.12817E-03  8528   0.177E-02 0.253E-05
CGA:  33    -0.388202148757E+03   -0.26636E-04   -0.26648E-04  8528   0.876E-03 0.255E-05
CGA:  34    -0.388202196904E+03   -0.48147E-04   -0.48120E-04  8528   0.127E-02 0.152E-05
CGA:  35    -0.388202335172E+03   -0.13827E-03   -0.13691E-03  8528   0.978E-03 0.192E-04
CGA:  36    -0.388202397231E+03   -0.62059E-04   -0.62002E-04  8528   0.104E-02 0.229E-05
CGA:  37    -0.388202419378E+03   -0.22147E-04   -0.22094E-04  8528   0.586E-03-0.334E-05
[...]
 143 F= -.38994181E+03 E0= -.38992710E+03  d E =0.217237E-01  mag=     7.9983
       N       E                     dE             d eps       ncg     rms          ort
SDA:   1    -0.384256455110E+03    0.56853E+01    0.00000E+00  8528   0.153E+02 0.000E+00
CGA:   2    -0.387593032732E+03   -0.33366E+01   -0.30195E+01  8528   0.199E+02 0.255E+01
CGA:   3    -0.388487611687E+03   -0.89458E+00   -0.55941E+00  8528   0.432E+01 0.874E+01
CGA:   4    -0.388737750072E+03   -0.25014E+00   -0.22051E+00  8528   0.104E+02 0.181E+00
CGA:   5    -0.389008539495E+03   -0.27079E+00   -0.26838E+00  8528   0.246E+02 0.346E-01
CGA:   6    -0.389304994802E+03   -0.29646E+00   -0.35013E+00  8528   0.148E+02-0.319E+01
CGA:   7    -0.389420718499E+03   -0.11572E+00   -0.18425E+00  8528   0.840E+01-0.372E+01
CGA:   8    -0.389527118391E+03   -0.10640E+00   -0.97540E-01  8528   0.568E+01 0.509E+00
CGA:   9    -0.389604867587E+03   -0.77749E-01   -0.59236E-01  8528   0.279E+01 0.166E+01
CGA:  10    -0.389648184097E+03   -0.43317E-01   -0.35790E-01  8528   0.173E+01 0.647E+00
CGA:  11    -0.389678285485E+03   -0.30101E-01   -0.28431E-01  8528   0.204E+01 0.100E+00
CGA:  12    -0.389706263127E+03   -0.27978E-01   -0.29248E-01  8528   0.221E+01-0.546E-01
CGA:  13    -0.389727232613E+03   -0.20969E-01   -0.21619E-01  8528   0.142E+01-0.438E-01
CGA:  14    -0.389742092954E+03   -0.14860E-01   -0.16461E-01  8528   0.132E+01-0.107E+00
CGA:  15    -0.389762058953E+03   -0.19966E-01   -0.21218E-01  8528   0.192E+01-0.433E-01
CGA:  16    -0.389790210388E+03   -0.28151E-01   -0.28253E-01  8528   0.158E+01-0.332E-02
CGA:  17    -0.389808678590E+03   -0.18468E-01   -0.17660E-01  8528   0.939E+00 0.564E-01
CGA:  18    -0.389821091852E+03   -0.12413E-01   -0.11516E-01  8528   0.761E+00 0.579E-01
CGA:  19    -0.389831477429E+03   -0.10386E-01   -0.98240E-02  8528   0.654E+00 0.342E-01
CGA:  20    -0.389839084549E+03   -0.76071E-02   -0.77771E-02  8528   0.468E+00-0.109E-01
CGA:  21    -0.389844363161E+03   -0.52786E-02   -0.54722E-02  8528   0.395E+00-0.115E-01
CGA:  22    -0.389849901272E+03   -0.55381E-02   -0.56395E-02  8528   0.438E+00-0.395E-02
CGA:  23    -0.389856236506E+03   -0.63352E-02   -0.64109E-02  8528   0.408E+00-0.282E-02
CGA:  24    -0.389861785475E+03   -0.55490E-02   -0.54782E-02  8528   0.371E+00 0.293E-02
CGA:  25    -0.389867884363E+03   -0.60989E-02   -0.60213E-02  8528   0.488E+00 0.169E-02
CGA:  26    -0.389875573325E+03   -0.76890E-02   -0.76931E-02  8528   0.481E+00-0.213E-03
CGA:  27    -0.389880699880E+03   -0.51266E-02   -0.51204E-02  8528   0.231E+00 0.225E-03
CGA:  28    -0.389883181906E+03   -0.24820E-02   -0.25344E-02  8528   0.154E+00-0.323E-02
CGA:  29    -0.389885636986E+03   -0.24551E-02   -0.24772E-02  8528   0.181E+00-0.277E-03
CGA:  30    -0.389888225177E+03   -0.25882E-02   -0.25737E-02  8528   0.125E+00 0.351E-03
CGA:  31    -0.389889573835E+03   -0.13487E-02   -0.13421E-02  8528   0.634E-01 0.367E-03
SDA:  32    -0.389890445277E+03   -0.87144E-03   -0.86388E-03  8528   0.663E-01 0.209E-03
CGA:  33    -0.389893115612E+03   -0.26703E-02   -0.26508E-02  8528   0.581E-01 0.110E-02
CGA:  34    -0.389896352992E+03   -0.32374E-02   -0.32624E-02  8528   0.442E-01-0.869E-03
CGA:  35    -0.389899738296E+03   -0.33853E-02   -0.33539E-02  8528   0.400E-01 0.692E-03
CGA:  36    -0.389901824112E+03   -0.20858E-02   -0.21096E-02  8528   0.170E-01-0.970E-03
CGA:  37    -0.389902677247E+03   -0.85313E-03   -0.85076E-03  8528   0.110E-01 0.102E-03
CGA:  38    -0.389903011871E+03   -0.33462E-03   -0.33455E-03  8528   0.276E-02-0.577E-04
CGA:  39    -0.389903362143E+03   -0.35027E-03   -0.34928E-03  8528   0.392E-02 0.158E-04
CGA:  40    -0.389903606297E+03   -0.24415E-03   -0.24466E-03  8528   0.553E-02-0.186E-04
CGA:  41    -0.389903862100E+03   -0.25580E-03   -0.25557E-03  8528   0.194E-02 0.136E-04
CGA:  42    -0.389903990369E+03   -0.12827E-03   -0.12844E-03  8528   0.194E-02-0.588E-05
CGA:  43    -0.389904206741E+03   -0.21637E-03   -0.21493E-03  8528   0.363E-02 0.218E-04
CGA:  44    -0.389904391417E+03   -0.18468E-03   -0.18469E-03  8528   0.300E-02-0.272E-06
CGA:  45    -0.389904539668E+03   -0.14825E-03   -0.14817E-03  8528   0.184E-02 0.910E-05
CGA:  46    -0.389904662487E+03   -0.12282E-03   -0.12278E-03  8528   0.134E-02 0.205E-05
CGA:  47    -0.389904806766E+03   -0.14428E-03   -0.14390E-03  8528   0.204E-02 0.636E-05
CGA:  48    -0.389904878497E+03   -0.71731E-04   -0.71652E-04  8528   0.972E-03-0.176E-05
CGA:  49    -0.389904930719E+03   -0.52222E-04   -0.52241E-04  8528   0.340E-03-0.283E-05
CGA:  50    -0.389904972561E+03   -0.41842E-04   -0.42334E-04  8528   0.635E-03-0.645E-05
CGA:  51    -0.389904992649E+03   -0.20087E-04   -0.20071E-04  8528   0.197E-03-0.229E-05
CGA:  52    -0.389905004805E+03   -0.12156E-04   -0.12169E-04  8528   0.234E-03-0.115E-05
CGA:  53    -0.389905021530E+03   -0.16726E-04   -0.16748E-04  8528   0.117E-03-0.110E-05
CGA:  54    -0.389905031223E+03   -0.96922E-05   -0.96565E-05  8528   0.120E-03 0.111E-05
 144 F= -.38990503E+03 E0= -.38989071E+03  d E =0.367758E-01  mag=     7.9977
       N       E                     dE             d eps       ncg     rms          ort
SDA:   1    -0.389040517312E+03    0.86450E+00    0.00000E+00  8528   0.238E+01 0.000E+00
CGA:   2    -0.389484282115E+03   -0.44376E+00   -0.41581E+00  8528   0.562E+01 0.269E+00
CGA:   3    -0.389684304449E+03   -0.20002E+00   -0.17120E+00  8528   0.104E+01 0.553E+00
CGA:   4    -0.389784527578E+03   -0.10022E+00   -0.97300E-01  8528   0.106E+01 0.827E-01
CGA:   5    -0.389854131522E+03   -0.69604E-01   -0.69623E-01  8528   0.582E+00-0.406E-02
CGA:   6    -0.389879957835E+03   -0.25826E-01   -0.25478E-01  8528   0.294E+00-0.367E-02
CGA:   7    -0.389887988009E+03   -0.80302E-02   -0.85360E-02  8528   0.112E+00-0.815E-02
CGA:   8    -0.389895999910E+03   -0.80119E-02   -0.80230E-02  8528   0.684E-01-0.460E-03
CGA:   9    -0.389899466337E+03   -0.34664E-02   -0.34662E-02  8528   0.510E-01-0.986E-05
CGA:  10    -0.389901274358E+03   -0.18080E-02   -0.18212E-02  8528   0.271E-01-0.603E-04
CGA:  11    -0.389902494557E+03   -0.12202E-02   -0.12171E-02  8528   0.808E-02-0.773E-04
CGA:  12    -0.389903181716E+03   -0.68716E-03   -0.68735E-03  8528   0.104E-01-0.376E-05
CGA:  13    -0.389903645359E+03   -0.46364E-03   -0.46430E-03  8528   0.619E-02 0.175E-04
CGA:  14    -0.389903857329E+03   -0.21197E-03   -0.21063E-03  8528   0.291E-02 0.116E-04
CGA:  15    -0.389904088315E+03   -0.23099E-03   -0.23078E-03  8528   0.140E-02 0.762E-05
CGA:  16    -0.389904191288E+03   -0.10297E-03   -0.10288E-03  8528   0.218E-02 0.446E-05
CGA:  17    -0.389904289845E+03   -0.98556E-04   -0.98527E-04  8528   0.164E-02 0.111E-05
CGA:  18    -0.389904377696E+03   -0.87851E-04   -0.87881E-04  8528   0.111E-02 0.562E-05
CGA:  19    -0.389904455242E+03   -0.77546E-04   -0.77577E-04  8528   0.660E-03-0.227E-05
CGA:  20    -0.389904504579E+03   -0.49337E-04   -0.49386E-04  8528   0.127E-02-0.242E-05
CGA:  21    -0.389904557657E+03   -0.53079E-04   -0.53103E-04  8528   0.593E-03-0.945E-06
CGA:  22    -0.389904594611E+03   -0.36954E-04   -0.36966E-04  8528   0.395E-03-0.177E-05
CGA:  23    -0.389904620347E+03   -0.25736E-04   -0.25731E-04  8528   0.304E-03 0.672E-06
CGA:  24    -0.389904633931E+03   -0.13584E-04   -0.13600E-04  8528   0.311E-03 0.912E-06
CGA:  25    -0.389904650688E+03   -0.16757E-04   -0.16758E-04  8528   0.157E-03 0.706E-06
CGA:  26    -0.389904659685E+03   -0.89972E-05   -0.89972E-05  8528   0.942E-04 0.432E-06
 145 F= -.38990466E+03 E0= -.38989036E+03  d E =0.371538E-03  mag=     7.9982
       N       E                     dE             d eps       ncg     rms          ort
SDA:   1    -0.387612252235E+03    0.22924E+01    0.00000E+00  8528   0.673E+01 0.000E+00
CGA:   2    -0.388542446221E+03   -0.93019E+00   -0.84115E+00  8528   0.147E+02 0.136E+01
CGA:   3    -0.389289507701E+03   -0.74706E+00   -0.62463E+00  8528   0.356E+01 0.872E+00
CGA:   4    -0.389552464400E+03   -0.26296E+00   -0.25835E+00  8528   0.332E+01 0.341E+00
CGA:   5    -0.389738246464E+03   -0.18578E+00   -0.17740E+00  8528   0.257E+01-0.174E+00
CGA:   6    -0.389846750677E+03   -0.10850E+00   -0.11132E+00  8528   0.799E+00 0.364E-01
CGA:   7    -0.389881856478E+03   -0.35106E-01   -0.34089E-01  8528   0.364E+00-0.509E-02
CGA:   8    -0.389900211210E+03   -0.18355E-01   -0.18429E-01  8528   0.288E+00 0.342E-02
CGA:   9    -0.389914812051E+03   -0.14601E-01   -0.14467E-01  8528   0.152E+00-0.524E-02
CGA:  10    -0.389921151211E+03   -0.63392E-02   -0.64260E-02  8528   0.547E-01 0.986E-03
CGA:  11    -0.389923909504E+03   -0.27583E-02   -0.27521E-02  8528   0.464E-01-0.320E-03
CGA:  12    -0.389926165126E+03   -0.22556E-02   -0.22581E-02  8528   0.280E-01 0.110E-03
CGA:  13    -0.389927935940E+03   -0.17708E-02   -0.17708E-02  8528   0.162E-01 0.265E-05
CGA:  14    -0.389928587185E+03   -0.65124E-03   -0.65329E-03  8528   0.104E-01 0.127E-04
CGA:  15    -0.389929160609E+03   -0.57342E-03   -0.57337E-03  8528   0.672E-02-0.348E-04
CGA:  16    -0.389929674766E+03   -0.51416E-03   -0.51256E-03  8528   0.805E-02 0.605E-04
CGA:  17    -0.389930041071E+03   -0.36630E-03   -0.36576E-03  8528   0.495E-02-0.839E-05
CGA:  18    -0.389930338648E+03   -0.29758E-03   -0.29753E-03  8528   0.467E-02 0.866E-05
CGA:  19    -0.389930669979E+03   -0.33133E-03   -0.33164E-03  8528   0.488E-02-0.135E-04
CGA:  20    -0.389930944340E+03   -0.27436E-03   -0.27438E-03  8528   0.418E-02 0.123E-04
CGA:  21    -0.389931147571E+03   -0.20323E-03   -0.20295E-03  8528   0.284E-02-0.106E-04
CGA:  22    -0.389931359735E+03   -0.21216E-03   -0.21190E-03  8528   0.225E-02 0.108E-04
CGA:  23    -0.389931459141E+03   -0.99406E-04   -0.99307E-04  8528   0.179E-02-0.193E-05
CGA:  24    -0.389931571004E+03   -0.11186E-03   -0.11184E-03  8528   0.121E-02 0.195E-05
CGA:  25    -0.389931642749E+03   -0.71745E-04   -0.71751E-04  8528   0.873E-03-0.108E-05
CGA:  26    -0.389931678867E+03   -0.36118E-04   -0.36153E-04  8528   0.552E-03 0.112E-05
CGA:  27    -0.389931717391E+03   -0.38524E-04   -0.38527E-04  8528   0.471E-03 0.161E-06
CGA:  28    -0.389931741345E+03   -0.23955E-04   -0.23970E-04  8528   0.310E-03 0.169E-05
CGA:  29    -0.389931757843E+03   -0.16498E-04   -0.16496E-04  8528   0.249E-03-0.255E-06
CGA:  30    -0.389931770315E+03   -0.12471E-04   -0.12469E-04  8528   0.154E-03-0.558E-06
CGA:  31    -0.389931781230E+03   -0.10916E-04   -0.10932E-04  8528   0.157E-03-0.108E-05
SDA:  32    -0.389931789408E+03   -0.81778E-05   -0.81742E-05  8528   0.134E-03-0.830E-06
 146 F= -.38993179E+03 E0= -.38991727E+03  d E =-.271297E-01  mag=     7.9986
       N       E                     dE             d eps       ncg     rms          ort
SDA:   1    -0.389510382388E+03    0.42140E+00    0.00000E+00  8528   0.120E+01 0.000E+00
CGA:   2    -0.389716093766E+03   -0.20571E+00   -0.21422E+00  8528   0.483E+01-0.825E-01
CGA:   3    -0.389819746525E+03   -0.10365E+00   -0.11471E+00  8528   0.733E+00-0.283E+00
CGA:   4    -0.389867780260E+03   -0.48034E-01   -0.48467E-01  8528   0.647E+00-0.262E-01
CGA:   5    -0.389910273170E+03   -0.42493E-01   -0.42555E-01  8528   0.340E+00-0.476E-02
CGA:   6    -0.389920425609E+03   -0.10152E-01   -0.10560E-01  8528   0.166E+00-0.596E-02
CGA:   7    -0.389927970162E+03   -0.75446E-02   -0.74918E-02  8528   0.601E-01-0.898E-03
CGA:   8    -0.389931353973E+03   -0.33838E-02   -0.33837E-02  8528   0.454E-01-0.258E-04
CGA:   9    -0.389934382086E+03   -0.30281E-02   -0.30329E-02  8528   0.199E-01-0.349E-03
CGA:  10    -0.389935110760E+03   -0.72867E-03   -0.73180E-03  8528   0.138E-01-0.959E-05
CGA:  11    -0.389935780964E+03   -0.67020E-03   -0.66945E-03  8528   0.462E-02-0.272E-04
CGA:  12    -0.389936249244E+03   -0.46828E-03   -0.46850E-03  8528   0.396E-02-0.517E-05
CGA:  13    -0.389936394426E+03   -0.14518E-03   -0.14460E-03  8528   0.257E-02-0.962E-06
CGA:  14    -0.389936544618E+03   -0.15019E-03   -0.15019E-03  8528   0.163E-02-0.795E-06
CGA:  15    -0.389936623546E+03   -0.78928E-04   -0.78906E-04  8528   0.737E-03-0.351E-06
CGA:  16    -0.389936675298E+03   -0.51751E-04   -0.51748E-04  8528   0.657E-03 0.203E-06
CGA:  17    -0.389936706864E+03   -0.31566E-04   -0.31560E-04  8528   0.676E-03-0.833E-07
CGA:  18    -0.389936750725E+03   -0.43861E-04   -0.43847E-04  8528   0.477E-03 0.166E-05
CGA:  19    -0.389936775766E+03   -0.25040E-04   -0.25040E-04  8528   0.185E-03 0.863E-07
CGA:  20    -0.389936795688E+03   -0.19922E-04   -0.19895E-04  8528   0.531E-03 0.532E-06
CGA:  21    -0.389936817645E+03   -0.21957E-04   -0.21950E-04  8528   0.170E-03 0.246E-07
CGA:  22    -0.389936833376E+03   -0.15731E-04   -0.15732E-04  8528   0.168E-03-0.320E-07
CGA:  23    -0.389936840495E+03   -0.71186E-05   -0.71195E-05  8528   0.899E-04 0.176E-06
 147 F= -.38993684E+03 E0= -.38992228E+03  d E =-.505109E-02  mag=     7.9982
       N       E                     dE             d eps       ncg     rms          ort
SDA:   1    -0.389435752153E+03    0.50108E+00    0.00000E+00  8528   0.206E+01 0.000E+00
CGA:   2    -0.389533928156E+03   -0.98176E-01   -0.10276E+00  8528   0.271E+01 0.127E+00
CGA:   3    -0.389749685215E+03   -0.21576E+00   -0.21883E+00  8528   0.273E+01-0.135E+00
CGA:   4    -0.389831325759E+03   -0.81641E-01   -0.87017E-01  8528   0.420E+00-0.615E-01
CGA:   5    -0.389877386913E+03   -0.46061E-01   -0.45730E-01  8528   0.686E+00 0.618E-02
CGA:   6    -0.389908703088E+03   -0.31316E-01   -0.31383E-01  8528   0.222E+00 0.331E-03
CGA:   7    -0.389914268800E+03   -0.55657E-02   -0.52776E-02  8528   0.427E-01 0.826E-02
CGA:   8    -0.389919802414E+03   -0.55336E-02   -0.55204E-02  8528   0.558E-01 0.204E-03
CGA:   9    -0.389922208338E+03   -0.24059E-02   -0.24056E-02  8528   0.131E-01 0.454E-05
CGA:  10    -0.389922872727E+03   -0.66439E-03   -0.66298E-03  8528   0.120E-01-0.313E-04
CGA:  11    -0.389923314500E+03   -0.44177E-03   -0.44438E-03  8528   0.640E-02-0.110E-04
CGA:  12    -0.389923973530E+03   -0.65903E-03   -0.66034E-03  8528   0.381E-02-0.281E-04
CGA:  13    -0.389924136650E+03   -0.16312E-03   -0.16297E-03  8528   0.153E-02 0.117E-08
CGA:  14    -0.389924266487E+03   -0.12984E-03   -0.12983E-03  8528   0.290E-02-0.563E-07
CGA:  15    -0.389924378862E+03   -0.11238E-03   -0.11207E-03  8528   0.135E-02-0.674E-06
CGA:  16    -0.389924471865E+03   -0.93003E-04   -0.92973E-04  8528   0.124E-02 0.231E-05
CGA:  17    -0.389924582091E+03   -0.11023E-03   -0.11031E-03  8528   0.883E-03-0.260E-05
CGA:  18    -0.389924648270E+03   -0.66179E-04   -0.66180E-04  8528   0.148E-02 0.279E-06
CGA:  19    -0.389924708496E+03   -0.60226E-04   -0.60307E-04  8528   0.753E-03 0.123E-05
CGA:  20    -0.389924757204E+03   -0.48708E-04   -0.48713E-04  8528   0.751E-03-0.486E-06
CGA:  21    -0.389924814827E+03   -0.57623E-04   -0.57562E-04  8528   0.295E-03 0.407E-05
CGA:  22    -0.389924838443E+03   -0.23616E-04   -0.23596E-04  8528   0.412E-03 0.119E-05
CGA:  23    -0.389924853553E+03   -0.15111E-04   -0.15107E-04  8528   0.231E-03 0.411E-06
CGA:  24    -0.389924868996E+03   -0.15443E-04   -0.15442E-04  8528   0.168E-03 0.388E-07
CGA:  25    -0.389924878270E+03   -0.92737E-05   -0.92672E-05  8528   0.758E-04-0.831E-06
 148 F= -.38992488E+03 E0= -.38991045E+03  d E =0.119622E-01  mag=     7.9983
       N       E                     dE             d eps       ncg     rms          ort
SDA:   1    -0.389450767094E+03    0.47410E+00    0.00000E+00  8528   0.227E+01 0.000E+00
CGA:   2    -0.389524621531E+03   -0.73854E-01   -0.67513E-01  8528   0.181E+01 0.114E+00
CGA:   3    -0.389773265828E+03   -0.24864E+00   -0.24639E+00  8528   0.129E+01 0.340E-01
CGA:   4    -0.389821698845E+03   -0.48433E-01   -0.48174E-01  8528   0.601E+00 0.405E-02
CGA:   5    -0.389857802009E+03   -0.36103E-01   -0.36006E-01  8528   0.979E+00-0.813E-02
CGA:   6    -0.389891433120E+03   -0.33631E-01   -0.35181E-01  8528   0.234E+00-0.145E-01
CGA:   7    -0.389902394575E+03   -0.10961E-01   -0.11019E-01  8528   0.168E+00 0.715E-03
CGA:   8    -0.389907011552E+03   -0.46170E-02   -0.44950E-02  8528   0.489E-01 0.285E-02
CGA:   9    -0.389910677033E+03   -0.36655E-02   -0.36716E-02  8528   0.455E-01-0.311E-03
CGA:  10    -0.389912502778E+03   -0.18257E-02   -0.18365E-02  8528   0.352E-01 0.281E-05
CGA:  11    -0.389913920186E+03   -0.14174E-02   -0.14068E-02  8528   0.162E-01 0.786E-05
CGA:  12    -0.389914574451E+03   -0.65427E-03   -0.65527E-03  8528   0.481E-02 0.977E-05
CGA:  13    -0.389914836027E+03   -0.26158E-03   -0.26168E-03  8528   0.832E-02 0.123E-04
CGA:  14    -0.389915307109E+03   -0.47108E-03   -0.47104E-03  8528   0.352E-02-0.143E-04
CGA:  15    -0.389915479351E+03   -0.17224E-03   -0.17234E-03  8528   0.202E-02 0.440E-05
CGA:  16    -0.389915559402E+03   -0.80051E-04   -0.80151E-04  8528   0.163E-02 0.850E-06
CGA:  17    -0.389915635914E+03   -0.76513E-04   -0.76478E-04  8528   0.892E-03-0.144E-05
CGA:  18    -0.389915718206E+03   -0.82292E-04   -0.82452E-04  8528   0.130E-02-0.390E-05
CGA:  19    -0.389915767002E+03   -0.48796E-04   -0.48875E-04  8528   0.879E-03-0.224E-06
CGA:  20    -0.389915811272E+03   -0.44270E-04   -0.44259E-04  8528   0.629E-03-0.604E-06
CGA:  21    -0.389915848618E+03   -0.37346E-04   -0.37338E-04  8528   0.365E-03 0.241E-05
CGA:  22    -0.389915869503E+03   -0.20885E-04   -0.20884E-04  8528   0.715E-03 0.158E-05
CGA:  23    -0.389915919433E+03   -0.49931E-04   -0.49909E-04  8528   0.266E-03 0.189E-05
CGA:  24    -0.389915934285E+03   -0.14852E-04   -0.14855E-04  8528   0.279E-03 0.147E-05
CGA:  25    -0.389915946407E+03   -0.12122E-04   -0.12137E-04  8528   0.215E-03 0.891E-06
CGA:  26    -0.389915957940E+03   -0.11533E-04   -0.11531E-04  8528   0.173E-03-0.704E-06
CGA:  27    -0.389915970875E+03   -0.12934E-04   -0.12953E-04  8528   0.112E-03-0.104E-05
CGA:  28    -0.389915974861E+03   -0.39864E-05   -0.39869E-05  8528   0.959E-04-0.106E-06
 149 F= -.38991597E+03 E0= -.38990175E+03  d E =0.890341E-02  mag=     7.9981
       N       E                     dE             d eps       ncg     rms          ort
SDA:   1    -0.389833410019E+03    0.82561E-01    0.00000E+00  8528   0.336E+00 0.000E+00
CGA:   2    -0.389856328614E+03   -0.22919E-01   -0.22925E-01  8528   0.477E+00-0.397E-03
CGA:   3    -0.389895116085E+03   -0.38787E-01   -0.38908E-01  8528   0.235E+00-0.397E-02
CGA:   4    -0.389902659234E+03   -0.75431E-02   -0.77762E-02  8528   0.147E+00-0.234E-02
CGA:   5    -0.389911692551E+03   -0.90333E-02   -0.90335E-02  8528   0.736E-01-0.113E-04
CGA:   6    -0.389918135591E+03   -0.64430E-02   -0.64340E-02  8528   0.284E-01 0.256E-03
CGA:   7    -0.389919067971E+03   -0.93238E-03   -0.92544E-03  8528   0.156E-01 0.829E-04
CGA:   8    -0.389919862936E+03   -0.79497E-03   -0.79539E-03  8528   0.711E-02 0.206E-04
CGA:   9    -0.389920432834E+03   -0.56990E-03   -0.56960E-03  8528   0.502E-02 0.101E-04
CGA:  10    -0.389920700773E+03   -0.26794E-03   -0.26803E-03  8528   0.285E-02 0.881E-05
CGA:  11    -0.389920780905E+03   -0.80132E-04   -0.79856E-04  8528   0.835E-03 0.588E-05
CGA:  12    -0.389920904184E+03   -0.12328E-03   -0.12334E-03  8528   0.781E-03-0.547E-06
CGA:  13    -0.389920941396E+03   -0.37212E-04   -0.37195E-04  8528   0.614E-03 0.275E-06
CGA:  14    -0.389920966064E+03   -0.24668E-04   -0.24726E-04  8528   0.242E-03 0.935E-06
CGA:  15    -0.389920981280E+03   -0.15216E-04   -0.15218E-04  8528   0.286E-03-0.242E-06
CGA:  16    -0.389921005865E+03   -0.24585E-04   -0.24550E-04  8528   0.153E-03 0.127E-05
CGA:  17    -0.389921014625E+03   -0.87601E-05   -0.87603E-05  8528   0.216E-03 0.819E-07
CGA:  18    -0.389921026230E+03   -0.11605E-04   -0.11606E-04  8528   0.119E-03-0.271E-08
CGA:  19    -0.389921036392E+03   -0.10162E-04   -0.10182E-04  8528   0.107E-03-0.825E-06
CGA:  20    -0.389921044411E+03   -0.80193E-05   -0.80277E-05  8528   0.121E-03-0.651E-06
 150 F= -.38992104E+03 E0= -.38990680E+03  d E =-.506955E-02  mag=     7.9983
