       N       E                     dE             d eps       ncg     rms          ort
DAV:   1     0.663927163736E+04    0.66393E+04   -0.25800E+05 31360   0.203E+03
DAV:   2     0.454372645184E+03   -0.61849E+04   -0.57614E+04 31360   0.528E+02
DAV:   3    -0.515800224560E+03   -0.97017E+03   -0.89377E+03 31360   0.221E+02
DAV:   4    -0.557766928801E+03   -0.41967E+02   -0.41641E+02 31360   0.478E+01
DAV:   5    -0.558265310647E+03   -0.49838E+00   -0.49800E+00 31360   0.542E+00
SDA:   6    -0.430264174172E+03    0.12800E+03   -0.49800E+00 31360   0.256E+02 0.000E+00
CGA:   7    -0.434725534766E+03   -0.44614E+01   -0.44638E+01 31360   0.327E+01-0.372E-01
CGA:   8    -0.435307806988E+03   -0.58227E+00   -0.58208E+00 31360   0.155E+01-0.928E-02
CGA:   9    -0.435574969601E+03   -0.26716E+00   -0.26691E+00 31360   0.580E+00-0.110E-01
CGA:  10    -0.435687530978E+03   -0.11256E+00   -0.11256E+00 31360   0.288E+00-0.430E-03
CGA:  11    -0.435746781888E+03   -0.59251E-01   -0.59196E-01 31360   0.129E+00 0.565E-02
CGA:  12    -0.435776542880E+03   -0.29761E-01   -0.29724E-01 31360   0.544E-01 0.118E-02
CGA:  13    -0.435789092493E+03   -0.12550E-01   -0.12628E-01 31360   0.205E-01-0.249E-02
CGA:  14    -0.435793669229E+03   -0.45767E-02   -0.46417E-02 31360   0.614E-02-0.172E-02
CGA:  15    -0.435795041432E+03   -0.13722E-02   -0.14240E-02 31360   0.193E-02-0.101E-02
CGA:  16    -0.435795461382E+03   -0.41995E-03   -0.42763E-03 31360   0.660E-03-0.128E-03
CGA:  17    -0.435795586700E+03   -0.12532E-03   -0.12588E-03 31360   0.227E-03 0.180E-03
CGA:  18    -0.435795631809E+03   -0.45109E-04   -0.49776E-04 31360   0.108E-03 0.134E-03
CGA:  19    -0.435795654654E+03   -0.22845E-04   -0.22627E-04 31360   0.526E-04 0.596E-04
CGA:  20    -0.435795664070E+03   -0.94161E-05   -0.10035E-04 31360   0.365E-04 0.421E-04
   1 F= -.43579566E+03 E0= -.43579566E+03  d E =-.435796E+03  mag=    54.0000
