       N       E                     dE             d eps       ncg     rms          ort
DAV:   1     0.579906647170E+04    0.57991E+04   -0.23438E+05  7072   0.164E+03
DAV:   2     0.567345164535E+03   -0.52317E+04   -0.49033E+04  7072   0.474E+02
DAV:   3    -0.374990129113E+03   -0.94234E+03   -0.91652E+03  7072   0.205E+02
DAV:   4    -0.417236496998E+03   -0.42246E+02   -0.41459E+02  7072   0.486E+01
DAV:   5    -0.418960237916E+03   -0.17237E+01   -0.16664E+01  7072   0.944E+00
SDA:   6    -0.193885508008E+03    0.22507E+03   -0.16664E+01  7072   0.208E+04 0.000E+00
CGA:   7    -0.210642866953E+03   -0.16757E+02   -0.18483E+03  7072   0.236E+04-0.933E+02
CGA:   8    -0.263130412292E+03   -0.52488E+02   -0.14567E+03  7072   0.732E+03-0.679E+03
CGA:   9    -0.292697838589E+03   -0.29567E+02   -0.27171E+02  7072   0.683E+03 0.458E+03
CGA:  10    -0.279085252685E+03    0.13613E+02   -0.37453E+02  7072   0.306E+04-0.185E+04
CGA:  11    -0.241749611084E+03    0.37336E+02   -0.24139E+03  7072   0.166E+04-0.368E+03
CGA:  12    -0.265152841120E+03   -0.23403E+02   -0.11990E+03  7072   0.726E+03 0.165E+03
CGA:  13    -0.329435197304E+03   -0.64282E+02   -0.45825E+02  7072   0.532E+03 0.374E+03
CGA:  14    -0.298518225763E+03    0.30917E+02   -0.23658E+02  7072   0.155E+04-0.505E+03
CGA:  15    -0.245230521815E+03    0.53288E+02   -0.83900E+02  7072   0.472E+04-0.264E+04
CGA:  16    -0.277572603762E+03   -0.32342E+02   -0.33540E+03  7072   0.975E+03-0.467E+03
CGA:  17    -0.298958643083E+03   -0.21386E+02   -0.44272E+02  7072   0.740E+03 0.592E+03
CGA:  18    -0.312220372840E+03   -0.13262E+02   -0.28882E+02  7072   0.104E+04-0.968E+03
CGA:  19    -0.260366189744E+03    0.51854E+02   -0.48412E+02  7072   0.377E+04-0.193E+04
CGA:  20    -0.265560962940E+03   -0.51948E+01   -0.22808E+03  7072   0.397E+03-0.311E+03
CGA:  21    -0.328368257635E+03   -0.62807E+02   -0.13341E+02  7072   0.604E+03 0.838E+03
CGA:  22    -0.330605632049E+03   -0.22374E+01   -0.21160E+02  7072   0.106E+04-0.393E+03
CGA:  23    -0.304265170818E+03    0.26340E+02   -0.40113E+02  7072   0.223E+04-0.862E+03
CGA:  24    -0.249935554146E+03    0.54330E+02   -0.10605E+03  7072   0.320E+04-0.132E+04
CGA:  25    -0.275546854741E+03   -0.25611E+02   -0.17319E+03  7072   0.344E+03-0.273E+03
CGA:  26    -0.321499038501E+03   -0.45952E+02   -0.80216E+01  7072   0.422E+03 0.697E+03
CGA:  27    -0.328272801297E+03   -0.67738E+01   -0.95432E+01  7072   0.104E+04-0.817E+03
CGA:  28    -0.313591862161E+03    0.14681E+02   -0.31337E+02  7072   0.187E+04-0.885E+03
CGA:  29    -0.284053463305E+03    0.29538E+02   -0.70265E+02  7072   0.302E+04-0.160E+04
CGA:  30    -0.277141702408E+03    0.69118E+01   -0.12300E+03  7072   0.740E+03-0.610E+03
CGA:  31    -0.319176810144E+03   -0.42035E+02   -0.16863E+02  7072   0.974E+03-0.104E+04
CGA:  32    -0.317976144540E+03    0.12007E+01   -0.22335E+02  7072   0.247E+04-0.220E+04
CGA:  33    -0.293573753733E+03    0.24402E+02   -0.84679E+02  7072   0.259E+04-0.122E+04
CGA:  34    -0.320517283401E+03   -0.26944E+02   -0.44891E+02  7072   0.199E+04-0.190E+04
CGA:  35    -0.301160467587E+03    0.19357E+02   -0.58804E+02  7072   0.165E+04-0.158E+04
CGA:  36    -0.280536782361E+03    0.20624E+02   -0.43255E+02  7072   0.289E+04-0.221E+04
CGA:  37    -0.274267474142E+03    0.62693E+01   -0.93884E+02  7072   0.339E+04-0.227E+04
CGA:  38    -0.289582041092E+03   -0.15315E+02   -0.11703E+03  7072   0.171E+04-0.174E+04
CGA:  39    -0.313379653310E+03   -0.23798E+02   -0.46262E+02  7072   0.573E+03-0.785E+03
CGA:  40    -0.327468864708E+03   -0.14089E+02   -0.29997E+01  7072   0.152E+04 0.146E+04
CGA:  41    -0.311143681370E+03    0.16325E+02   -0.30876E+02  7072   0.176E+04-0.139E+04
CGA:  42    -0.306717615238E+03    0.44261E+01   -0.40103E+02  7072   0.909E+03-0.783E+03
CGA:  43    -0.337328471898E+03   -0.30611E+02   -0.61854E+01  7072   0.169E+04 0.233E+04
CGA:  44    -0.308203312588E+03    0.29125E+02   -0.31566E+02  7072   0.416E+04-0.235E+04
CGA:  45    -0.288072273434E+03    0.20131E+02   -0.10071E+03  7072   0.275E+04-0.159E+04
CGA:  46    -0.333983948649E+03   -0.45912E+02   -0.39709E+02  7072   0.209E+04-0.307E+04
CGA:  47    -0.318967979350E+03    0.15016E+02   -0.38726E+02  7072   0.289E+04-0.207E+04
CGA:  48    -0.291838182596E+03    0.27130E+02   -0.55341E+02  7072   0.327E+04-0.231E+04
CGA:  49    -0.296010630120E+03   -0.41724E+01   -0.68405E+02  7072   0.220E+04-0.176E+04
CGA:  50    -0.316781892031E+03   -0.20771E+02   -0.42365E+02  7072   0.273E+04-0.351E+04
CGA:  51    -0.313092512558E+03    0.36894E+01   -0.48317E+02  7072   0.160E+04-0.162E+04
CGA:  52    -0.333552171205E+03   -0.20460E+02   -0.22302E+02  7072   0.244E+04-0.360E+04
CGA:  53    -0.327511415961E+03    0.60408E+01   -0.39155E+02  7072   0.256E+04-0.222E+04
CGA:  54    -0.324040594399E+03    0.34708E+01   -0.38976E+02  7072   0.342E+04-0.319E+04
CGA:  55    -0.317132114251E+03    0.69085E+01   -0.55627E+02  7072   0.265E+04-0.233E+04
CGA:  56    -0.325109680763E+03   -0.79776E+01   -0.38489E+02  7072   0.333E+04-0.377E+04
CGA:  57    -0.324763993063E+03    0.34569E+00   -0.50410E+02  7072   0.270E+04-0.267E+04
CGA:  58    -0.334119798857E+03   -0.93558E+01   -0.37111E+02  7072   0.252E+04-0.311E+04
CGA:  59    -0.339225755616E+03   -0.51060E+01   -0.34361E+02  7072   0.159E+04-0.187E+04
CGA:  60    -0.349788152543E+03   -0.10562E+02   -0.17444E+02  7072   0.307E+03-0.745E+03
CGA:  61    -0.351943872110E+03   -0.21557E+01   -0.22396E+01  7072   0.165E+01 0.122E+01
CGA:  62    -0.352015766120E+03   -0.71894E-01   -0.70540E-01  7072   0.371E+01 0.106E+00
CGA:  63    -0.352202068402E+03   -0.18630E+00   -0.18461E+00  7072   0.369E+01 0.931E-01
CGA:  64    -0.352454038252E+03   -0.25197E+00   -0.21798E+00  7072   0.273E+01 0.118E+01
CGA:  65    -0.352550590872E+03   -0.96553E-01   -0.10091E+00  7072   0.257E+01 0.149E+00
CGA:  66    -0.352630908212E+03   -0.80317E-01   -0.81331E-01  7072   0.419E+00 0.685E-01
CGA:  67    -0.352655487791E+03   -0.24580E-01   -0.24011E-01  7072   0.779E+00 0.234E-01
CGA:  68    -0.352690210101E+03   -0.34722E-01   -0.34389E-01  7072   0.471E+00 0.362E-01
CGA:  69    -0.352717295849E+03   -0.27086E-01   -0.26402E-01  7072   0.402E+00 0.320E-01
CGA:  70    -0.352733592444E+03   -0.16297E-01   -0.16288E-01  7072   0.274E+00 0.576E-02
CGA:  71    -0.352745847500E+03   -0.12255E-01   -0.12155E-01  7072   0.126E+00 0.995E-02
CGA:  72    -0.352752472304E+03   -0.66248E-02   -0.65529E-02  7072   0.112E+00 0.432E-02
CGA:  73    -0.352757775137E+03   -0.53028E-02   -0.52823E-02  7072   0.925E-01 0.191E-02
CGA:  74    -0.352764621412E+03   -0.68463E-02   -0.67594E-02  7072   0.101E+00 0.244E-02
CGA:  75    -0.352768939749E+03   -0.43183E-02   -0.43097E-02  7072   0.476E-01 0.288E-02
CGA:  76    -0.352771591911E+03   -0.26522E-02   -0.26715E-02  7072   0.601E-01-0.112E-02
CGA:  77    -0.352775643805E+03   -0.40519E-02   -0.38744E-02  7072   0.267E-01 0.596E-02
CGA:  78    -0.352777870556E+03   -0.22268E-02   -0.23768E-02  7072   0.629E-01-0.365E-02
CGA:  79    -0.352779928011E+03   -0.20575E-02   -0.20532E-02  7072   0.285E-01-0.200E-03
CGA:  80    -0.352780850192E+03   -0.92218E-03   -0.91351E-03  7072   0.186E-01-0.160E-03
CGA:  81    -0.352781427266E+03   -0.57707E-03   -0.58280E-03  7072   0.142E-01 0.183E-04
CGA:  82    -0.352782199218E+03   -0.77195E-03   -0.77097E-03  7072   0.109E-01 0.385E-04
CGA:  83    -0.352782498761E+03   -0.29954E-03   -0.29861E-03  7072   0.895E-02-0.186E-04
CGA:  84    -0.352783416971E+03   -0.91821E-03   -0.91412E-03  7072   0.175E-01 0.748E-04
CGA:  85    -0.352783847304E+03   -0.43033E-03   -0.43262E-03  7072   0.702E-02-0.702E-04
CGA:  86    -0.352784191601E+03   -0.34430E-03   -0.34472E-03  7072   0.556E-02-0.653E-04
CGA:  87    -0.352784413728E+03   -0.22213E-03   -0.22206E-03  7072   0.596E-02-0.233E-04
CGA:  88    -0.352784656855E+03   -0.24313E-03   -0.24309E-03  7072   0.392E-02-0.221E-04
CGA:  89    -0.352784868611E+03   -0.21176E-03   -0.21211E-03  7072   0.462E-02-0.313E-04
SDA:  90    -0.352785020003E+03   -0.15139E-03   -0.15116E-03  7072   0.351E-02-0.157E-04
CGA:  91    -0.352785137774E+03   -0.11777E-03   -0.11779E-03  7072   0.131E-02 0.261E-05
CGA:  92    -0.352785189017E+03   -0.51243E-04   -0.51255E-04  7072   0.116E-02 0.422E-05
CGA:  93    -0.352785315604E+03   -0.12659E-03   -0.12393E-03  7072   0.207E-02 0.430E-04
CGA:  94    -0.352785492894E+03   -0.17729E-03   -0.17569E-03  7072   0.126E-02 0.451E-04
CGA:  95    -0.352785595427E+03   -0.10253E-03   -0.10250E-03  7072   0.704E-03 0.351E-05
CGA:  96    -0.352785619221E+03   -0.23794E-04   -0.23954E-04  7072   0.510E-03 0.618E-05
CGA:  97    -0.352785656503E+03   -0.37283E-04   -0.37170E-04  7072   0.608E-03 0.501E-05
CGA:  98    -0.352785694588E+03   -0.38084E-04   -0.37968E-04  7072   0.152E-03 0.926E-05
CGA:  99    -0.352785713125E+03   -0.18537E-04   -0.18107E-04  7072   0.225E-03 0.610E-05
CGA: 100    -0.352785725960E+03   -0.12834E-04   -0.12831E-04  7072   0.317E-03 0.415E-05
CGA: 101    -0.352785742413E+03   -0.16454E-04   -0.16464E-04  7072   0.160E-03 0.291E-05
CGA: 102    -0.352785750829E+03   -0.84152E-05   -0.84131E-05  7072   0.674E-04-0.114E-05
   1 F= -.35278575E+03 E0= -.35276964E+03  d E =-.352786E+03  mag=     8.0000
       N       E                     dE             d eps       ncg     rms          ort
SDA:   1    -0.352794173957E+03   -0.84315E-02    0.00000E+00  7072   0.602E-01 0.000E+00
CGA:   2    -0.352795532043E+03   -0.13581E-02   -0.13501E-02  7072   0.771E-02 0.234E-03
CGA:   3    -0.352795738470E+03   -0.20643E-03   -0.20636E-03  7072   0.229E-02 0.523E-06
CGA:   4    -0.352795892910E+03   -0.15444E-03   -0.15448E-03  7072   0.158E-02-0.295E-05
CGA:   5    -0.352796023363E+03   -0.13045E-03   -0.13068E-03  7072   0.115E-02-0.753E-05
CGA:   6    -0.352796121338E+03   -0.97976E-04   -0.98185E-04  7072   0.424E-03-0.685E-05
CGA:   7    -0.352796134500E+03   -0.13161E-04   -0.13187E-04  7072   0.287E-03 0.954E-06
CGA:   8    -0.352796152436E+03   -0.17936E-04   -0.17917E-04  7072   0.160E-03 0.279E-05
CGA:   9    -0.352796164414E+03   -0.11978E-04   -0.11962E-04  7072   0.901E-04 0.897E-06
CGA:  10    -0.352796168891E+03   -0.44763E-05   -0.44729E-05  7072   0.330E-04-0.447E-06
   2 F= -.35279617E+03 E0= -.35278005E+03  d E =-.104181E-01  mag=     8.0000
       N       E                     dE             d eps       ncg     rms          ort
SDA:   1    -0.352729255693E+03    0.66909E-01    0.00000E+00  7072   0.102E+01 0.000E+00
CGA:   2    -0.352806007869E+03   -0.76752E-01   -0.76322E-01  7072   0.281E+01 0.173E-01
CGA:   3    -0.352961813043E+03   -0.15581E+00   -0.15575E+00  7072   0.356E+00-0.146E-01
CGA:   4    -0.353000993171E+03   -0.39180E-01   -0.39492E-01  7072   0.619E+00-0.577E-02
CGA:   5    -0.353018121498E+03   -0.17128E-01   -0.16860E-01  7072   0.220E+00 0.488E-02
CGA:   6    -0.353033056918E+03   -0.14935E-01   -0.14860E-01  7072   0.860E-01 0.498E-02
CGA:   7    -0.353037071580E+03   -0.40147E-02   -0.40105E-02  7072   0.357E-01-0.778E-04
CGA:   8    -0.353038952824E+03   -0.18812E-02   -0.18807E-02  7072   0.459E-01-0.582E-04
CGA:   9    -0.353040863896E+03   -0.19111E-02   -0.19140E-02  7072   0.180E-01 0.240E-04
CGA:  10    -0.353041839989E+03   -0.97609E-03   -0.97593E-03  7072   0.738E-02-0.347E-04
CGA:  11    -0.353042259749E+03   -0.41976E-03   -0.41976E-03  7072   0.380E-02 0.582E-05
CGA:  12    -0.353042546525E+03   -0.28678E-03   -0.28658E-03  7072   0.867E-02 0.944E-05
CGA:  13    -0.353042897190E+03   -0.35067E-03   -0.35056E-03  7072   0.161E-02 0.277E-06
CGA:  14    -0.353043013956E+03   -0.11677E-03   -0.11672E-03  7072   0.128E-02 0.229E-05
CGA:  15    -0.353043149369E+03   -0.13541E-03   -0.13525E-03  7072   0.164E-02 0.328E-05
CGA:  16    -0.353043221316E+03   -0.71947E-04   -0.71926E-04  7072   0.172E-02-0.825E-06
CGA:  17    -0.353043304668E+03   -0.83352E-04   -0.83366E-04  7072   0.604E-03 0.532E-06
CGA:  18    -0.353043347323E+03   -0.42655E-04   -0.42634E-04  7072   0.621E-03 0.171E-05
CGA:  19    -0.353043414498E+03   -0.67175E-04   -0.66890E-04  7072   0.657E-03 0.579E-05
CGA:  20    -0.353043440317E+03   -0.25819E-04   -0.25884E-04  7072   0.496E-03 0.275E-05
CGA:  21    -0.353043462005E+03   -0.21688E-04   -0.21723E-04  7072   0.263E-03 0.239E-05
CGA:  22    -0.353043477674E+03   -0.15669E-04   -0.15669E-04  7072   0.137E-03 0.345E-05
CGA:  23    -0.353043498506E+03   -0.20832E-04   -0.20271E-04  7072   0.134E-03 0.647E-05
CGA:  24    -0.353043502706E+03   -0.42002E-05   -0.42274E-05  7072   0.746E-04 0.807E-06
   3 F= -.35304350E+03 E0= -.35302734E+03  d E =-.247334E+00  mag=     8.0000
       N       E                     dE             d eps       ncg     rms          ort
SDA:   1    -0.351244009457E+03    0.17995E+01    0.00000E+00  7072   0.786E+01 0.000E+00
CGA:   2    -0.351932984508E+03   -0.68898E+00   -0.66764E+00  7072   0.190E+02 0.712E+00
CGA:   3    -0.352836640165E+03   -0.90366E+00   -0.87284E+00  7072   0.634E+01-0.173E-01
CGA:   4    -0.353128210858E+03   -0.29157E+00   -0.29626E+00  7072   0.405E+01 0.552E-01
CGA:   5    -0.353312922016E+03   -0.18471E+00   -0.17571E+00  7072   0.237E+01-0.291E-01
CGA:   6    -0.353431023981E+03   -0.11810E+00   -0.11831E+00  7072   0.176E+01 0.590E-02
CGA:   7    -0.353533448203E+03   -0.10242E+00   -0.10237E+00  7072   0.831E+00-0.172E-01
CGA:   8    -0.353556240707E+03   -0.22793E-01   -0.23465E-01  7072   0.285E+00-0.131E-01
CGA:   9    -0.353572423472E+03   -0.16183E-01   -0.16181E-01  7072   0.199E+00-0.147E-02
CGA:  10    -0.353582965556E+03   -0.10542E-01   -0.10560E-01  7072   0.155E+00 0.155E-02
CGA:  11    -0.353589532532E+03   -0.65670E-02   -0.65548E-02  7072   0.935E-01-0.943E-04
CGA:  12    -0.353593645812E+03   -0.41133E-02   -0.41254E-02  7072   0.253E-01 0.221E-03
CGA:  13    -0.353595168236E+03   -0.15224E-02   -0.15224E-02  7072   0.420E-01 0.626E-05
CGA:  14    -0.353597740831E+03   -0.25726E-02   -0.25705E-02  7072   0.244E-01 0.260E-03
CGA:  15    -0.353598860498E+03   -0.11197E-02   -0.11197E-02  7072   0.106E-01 0.253E-05
CGA:  16    -0.353599355018E+03   -0.49452E-03   -0.49497E-03  7072   0.117E-01 0.185E-04
CGA:  17    -0.353600250614E+03   -0.89560E-03   -0.89590E-03  7072   0.999E-02-0.980E-05
CGA:  18    -0.353600811522E+03   -0.56091E-03   -0.56093E-03  7072   0.928E-02 0.249E-04
CGA:  19    -0.353601241432E+03   -0.42991E-03   -0.42986E-03  7072   0.547E-02-0.364E-05
CGA:  20    -0.353601494584E+03   -0.25315E-03   -0.25340E-03  7072   0.388E-02 0.107E-04
CGA:  21    -0.353601903195E+03   -0.40861E-03   -0.40784E-03  7072   0.627E-02 0.158E-04
CGA:  22    -0.353602103971E+03   -0.20078E-03   -0.20128E-03  7072   0.215E-02 0.760E-05
CGA:  23    -0.353602268993E+03   -0.16502E-03   -0.16496E-03  7072   0.177E-02 0.415E-05
CGA:  24    -0.353602340912E+03   -0.71919E-04   -0.72061E-04  7072   0.137E-02 0.657E-05
CGA:  25    -0.353602439939E+03   -0.99027E-04   -0.98881E-04  7072   0.135E-02 0.998E-05
CGA:  26    -0.353602508754E+03   -0.68815E-04   -0.68890E-04  7072   0.632E-03 0.919E-05
CGA:  27    -0.353602533553E+03   -0.24799E-04   -0.24824E-04  7072   0.477E-03 0.148E-05
CGA:  28    -0.353602573033E+03   -0.39480E-04   -0.39415E-04  7072   0.434E-03 0.244E-05
CGA:  29    -0.353602594752E+03   -0.21719E-04   -0.21722E-04  7072   0.378E-03 0.362E-06
CGA:  30    -0.353602613106E+03   -0.18354E-04   -0.18366E-04  7072   0.210E-03 0.126E-05
CGA:  31    -0.353602623309E+03   -0.10203E-04   -0.10201E-04  7072   0.129E-03-0.226E-06
SDA:  32    -0.353602632327E+03   -0.90175E-05   -0.90320E-05  7072   0.190E-03-0.108E-05
   4 F= -.35360263E+03 E0= -.35358641E+03  d E =-.559130E+00  mag=     8.0000
       N       E                     dE             d eps       ncg     rms          ort
SDA:   1    -0.349492167266E+03    0.41105E+01    0.00000E+00  7072   0.197E+02 0.000E+00
CGA:   2    -0.350464666976E+03   -0.97250E+00   -0.98986E+00  7072   0.288E+02 0.136E+01
CGA:   3    -0.352271193033E+03   -0.18065E+01   -0.18320E+01  7072   0.239E+02-0.328E+01
CGA:   4    -0.353095599814E+03   -0.82441E+00   -0.83569E+00  7072   0.891E+01-0.305E-01
CGA:   5    -0.353502042520E+03   -0.40644E+00   -0.33305E+00  7072   0.422E+01 0.296E+00
CGA:   6    -0.353678793536E+03   -0.17675E+00   -0.17701E+00  7072   0.356E+01-0.213E-02
CGA:   7    -0.353975883030E+03   -0.29709E+00   -0.29483E+00  7072   0.248E+01 0.660E-01
CGA:   8    -0.354042741244E+03   -0.66858E-01   -0.65418E-01  7072   0.798E+00 0.382E-01
CGA:   9    -0.354066279081E+03   -0.23538E-01   -0.24446E-01  7072   0.476E+00-0.963E-02
CGA:  10    -0.354092488033E+03   -0.26209E-01   -0.26148E-01  7072   0.313E+00 0.923E-02
CGA:  11    -0.354115333582E+03   -0.22846E-01   -0.22875E-01  7072   0.226E+00-0.118E-02
CGA:  12    -0.354122678147E+03   -0.73446E-02   -0.74701E-02  7072   0.142E+00-0.461E-03
CGA:  13    -0.354127698080E+03   -0.50199E-02   -0.50069E-02  7072   0.370E-01-0.354E-04
CGA:  14    -0.354134215226E+03   -0.65171E-02   -0.62268E-02  7072   0.396E-01 0.269E-02
CGA:  15    -0.354136341630E+03   -0.21264E-02   -0.21298E-02  7072   0.241E-01 0.176E-03
CGA:  16    -0.354137294118E+03   -0.95249E-03   -0.94905E-03  7072   0.224E-01-0.185E-04
CGA:  17    -0.354138654587E+03   -0.13605E-02   -0.13588E-02  7072   0.133E-01 0.186E-03
CGA:  18    -0.354140114392E+03   -0.14598E-02   -0.14472E-02  7072   0.110E-01 0.233E-03
CGA:  19    -0.354140684800E+03   -0.57041E-03   -0.57072E-03  7072   0.119E-01 0.143E-04
CGA:  20    -0.354141143876E+03   -0.45908E-03   -0.46110E-03  7072   0.620E-02 0.271E-05
CGA:  21    -0.354141591557E+03   -0.44768E-03   -0.44754E-03  7072   0.663E-02 0.921E-05
CGA:  22    -0.354142200065E+03   -0.60851E-03   -0.60689E-03  7072   0.363E-02 0.450E-04
CGA:  23    -0.354142388479E+03   -0.18841E-03   -0.18850E-03  7072   0.268E-02 0.914E-05
CGA:  24    -0.354142508863E+03   -0.12038E-03   -0.12043E-03  7072   0.293E-02 0.315E-05
CGA:  25    -0.354142693699E+03   -0.18484E-03   -0.18479E-03  7072   0.177E-02 0.834E-05
CGA:  26    -0.354142878008E+03   -0.18431E-03   -0.18374E-03  7072   0.679E-03 0.125E-04
CGA:  27    -0.354142923068E+03   -0.45059E-04   -0.45048E-04  7072   0.943E-03 0.227E-05
CGA:  28    -0.354142966936E+03   -0.43868E-04   -0.43906E-04  7072   0.937E-03 0.232E-05
CGA:  29    -0.354143025951E+03   -0.59014E-04   -0.59016E-04  7072   0.399E-03-0.595E-06
CGA:  30    -0.354143059570E+03   -0.33619E-04   -0.33647E-04  7072   0.183E-03-0.128E-05
CGA:  31    -0.354143075251E+03   -0.15681E-04   -0.15676E-04  7072   0.310E-03 0.142E-06
SDA:  32    -0.354143090357E+03   -0.15107E-04   -0.15097E-04  7072   0.278E-03-0.564E-06
CGA:  33    -0.354143096601E+03   -0.62439E-05   -0.62402E-05  7072   0.841E-04-0.169E-06
   5 F= -.35414310E+03 E0= -.35412686E+03  d E =-.540464E+00  mag=     8.0000
       N       E                     dE             d eps       ncg     rms          ort
SDA:   1    -0.344079178825E+03    0.10064E+02    0.00000E+00  7072   0.619E+02 0.000E+00
CGA:   2    -0.346062334095E+03   -0.19832E+01   -0.22642E+01  7072   0.612E+02-0.487E+01
CGA:   3    -0.349472347154E+03   -0.34100E+01   -0.34891E+01  7072   0.759E+02-0.160E+02
CGA:   4    -0.352001545573E+03   -0.25292E+01   -0.25559E+01  7072   0.310E+02 0.778E+00
CGA:   5    -0.353126372091E+03   -0.11248E+01   -0.99932E+00  7072   0.665E+01 0.352E+01
CGA:   6    -0.353374083187E+03   -0.24771E+00   -0.23765E+00  7072   0.122E+02 0.897E-01
CGA:   7    -0.353900394745E+03   -0.52631E+00   -0.52210E+00  7072   0.105E+02-0.665E-01
CGA:   8    -0.354187461443E+03   -0.28707E+00   -0.30210E+00  7072   0.850E+01-0.329E+00
CGA:   9    -0.354307824094E+03   -0.12036E+00   -0.12702E+00  7072   0.135E+01-0.355E+00
CGA:  10    -0.354371449679E+03   -0.63626E-01   -0.63729E-01  7072   0.250E+01 0.178E-01
CGA:  11    -0.354430275182E+03   -0.58826E-01   -0.64528E-01  7072   0.130E+01-0.118E+00
CGA:  12    -0.354500482342E+03   -0.70207E-01   -0.70627E-01  7072   0.981E+00-0.399E-01
CGA:  13    -0.354542254064E+03   -0.41772E-01   -0.42000E-01  7072   0.383E+00 0.125E-01
CGA:  14    -0.354556029700E+03   -0.13776E-01   -0.13810E-01  7072   0.217E+00 0.310E-03
CGA:  15    -0.354566662916E+03   -0.10633E-01   -0.10661E-01  7072   0.278E+00 0.185E-01
CGA:  16    -0.354583810679E+03   -0.17148E-01   -0.17456E-01  7072   0.240E+00-0.241E-01
CGA:  17    -0.354589918004E+03   -0.61073E-02   -0.64463E-02  7072   0.583E-01-0.248E-02
CGA:  18    -0.354594553944E+03   -0.46359E-02   -0.46076E-02  7072   0.554E-01 0.714E-03
CGA:  19    -0.354597352121E+03   -0.27982E-02   -0.27985E-02  7072   0.355E-01 0.151E-03
CGA:  20    -0.354600847941E+03   -0.34958E-02   -0.34221E-02  7072   0.531E-01 0.151E-02
CGA:  21    -0.354602262274E+03   -0.14143E-02   -0.14196E-02  7072   0.102E-01-0.970E-04
CGA:  22    -0.354603214111E+03   -0.95184E-03   -0.94536E-03  7072   0.126E-01 0.148E-03
CGA:  23    -0.354603942516E+03   -0.72841E-03   -0.72825E-03  7072   0.138E-01 0.301E-04
CGA:  24    -0.354604592539E+03   -0.65002E-03   -0.65092E-03  7072   0.805E-02 0.577E-04
CGA:  25    -0.354605011645E+03   -0.41911E-03   -0.41919E-03  7072   0.402E-02 0.293E-04
CGA:  26    -0.354605286009E+03   -0.27436E-03   -0.27407E-03  7072   0.512E-02 0.160E-04
CGA:  27    -0.354605591017E+03   -0.30501E-03   -0.30501E-03  7072   0.626E-02 0.153E-05
CGA:  28    -0.354605962375E+03   -0.37136E-03   -0.37126E-03  7072   0.419E-02 0.173E-04
CGA:  29    -0.354606222160E+03   -0.25979E-03   -0.25961E-03  7072   0.192E-02 0.193E-04
CGA:  30    -0.354606310803E+03   -0.88643E-04   -0.88700E-04  7072   0.253E-02 0.498E-05
CGA:  31    -0.354606610833E+03   -0.30003E-03   -0.29958E-03  7072   0.289E-02 0.743E-05
SDA:  32    -0.354606739716E+03   -0.12888E-03   -0.12883E-03  7072   0.108E-02-0.171E-06
CGA:  33    -0.354606771599E+03   -0.31883E-04   -0.31846E-04  7072   0.752E-03-0.314E-06
CGA:  34    -0.354606835430E+03   -0.63831E-04   -0.63798E-04  7072   0.639E-03 0.881E-06
CGA:  35    -0.354606887824E+03   -0.52394E-04   -0.52418E-04  7072   0.668E-03-0.111E-05
CGA:  36    -0.354606928552E+03   -0.40728E-04   -0.40731E-04  7072   0.174E-03-0.152E-05
CGA:  37    -0.354606940210E+03   -0.11658E-04   -0.11668E-04  7072   0.325E-03-0.125E-05
CGA:  38    -0.354606959117E+03   -0.18908E-04   -0.18907E-04  7072   0.310E-03-0.183E-05
CGA:  39    -0.354606974993E+03   -0.15876E-04   -0.15852E-04  7072   0.739E-04-0.298E-05
CGA:  40    -0.354606983317E+03   -0.83235E-05   -0.84126E-05  7072   0.722E-04-0.166E-05
   6 F= -.35460698E+03 E0= -.35459088E+03  d E =-.463887E+00  mag=     8.0000
       N       E                     dE             d eps       ncg     rms          ort
SDA:   1    -0.344097393246E+03    0.10510E+02    0.00000E+00  7072   0.442E+02 0.000E+00
CGA:   2    -0.346348997939E+03   -0.22516E+01   -0.23287E+01  7072   0.637E+02 0.227E+01
CGA:   3    -0.350164842664E+03   -0.38158E+01   -0.36466E+01  7072   0.542E+02-0.722E+01
CGA:   4    -0.352800389327E+03   -0.26355E+01   -0.25707E+01  7072   0.207E+02-0.193E+01
CGA:   5    -0.353363753667E+03   -0.56336E+00   -0.48348E+00  7072   0.931E+01 0.274E+01
CGA:   6    -0.353707812961E+03   -0.34406E+00   -0.33455E+00  7072   0.108E+02 0.116E+00
CGA:   7    -0.354328399488E+03   -0.62059E+00   -0.62077E+00  7072   0.865E+01 0.601E-01
CGA:   8    -0.354542388114E+03   -0.21399E+00   -0.21063E+00  7072   0.431E+01 0.144E+00
CGA:   9    -0.354628667014E+03   -0.86279E-01   -0.87966E-01  7072   0.128E+01-0.677E-01
CGA:  10    -0.354684919491E+03   -0.56252E-01   -0.56431E-01  7072   0.129E+01 0.574E-02
CGA:  11    -0.354735144101E+03   -0.50225E-01   -0.49978E-01  7072   0.104E+01-0.721E-03
CGA:  12    -0.354771831063E+03   -0.36687E-01   -0.38342E-01  7072   0.104E+01 0.842E-02
CGA:  13    -0.354806386367E+03   -0.34555E-01   -0.34543E-01  7072   0.286E+00-0.326E-03
CGA:  14    -0.354818089904E+03   -0.11704E-01   -0.11819E-01  7072   0.141E+00 0.308E-02
CGA:  15    -0.354826892265E+03   -0.88024E-02   -0.86913E-02  7072   0.206E+00 0.715E-02
CGA:  16    -0.354838070949E+03   -0.11179E-01   -0.11182E-01  7072   0.152E+00-0.715E-02
CGA:  17    -0.354841902025E+03   -0.38311E-02   -0.40842E-02  7072   0.504E-01-0.305E-02
CGA:  18    -0.354845509164E+03   -0.36071E-02   -0.35718E-02  7072   0.285E-01 0.124E-02
CGA:  19    -0.354847132728E+03   -0.16236E-02   -0.16239E-02  7072   0.388E-01-0.964E-04
CGA:  20    -0.354848967691E+03   -0.18350E-02   -0.18407E-02  7072   0.326E-01 0.632E-03
CGA:  21    -0.354850711946E+03   -0.17443E-02   -0.17435E-02  7072   0.102E-01 0.328E-03
CGA:  22    -0.354851279340E+03   -0.56739E-03   -0.56709E-03  7072   0.971E-02 0.487E-04
CGA:  23    -0.354852052680E+03   -0.77334E-03   -0.76955E-03  7072   0.166E-01 0.119E-03
CGA:  24    -0.354852668231E+03   -0.61555E-03   -0.61677E-03  7072   0.616E-02 0.128E-04
CGA:  25    -0.354853105081E+03   -0.43685E-03   -0.43634E-03  7072   0.410E-02 0.210E-04
CGA:  26    -0.354853452161E+03   -0.34708E-03   -0.34652E-03  7072   0.347E-02 0.160E-04
CGA:  27    -0.354853779568E+03   -0.32741E-03   -0.32682E-03  7072   0.634E-02 0.142E-04
CGA:  28    -0.354854025317E+03   -0.24575E-03   -0.24602E-03  7072   0.271E-02 0.837E-05
CGA:  29    -0.354854136207E+03   -0.11089E-03   -0.11087E-03  7072   0.140E-02 0.215E-06
CGA:  30    -0.354854283785E+03   -0.14758E-03   -0.14745E-03  7072   0.175E-02 0.229E-05
CGA:  31    -0.354854446086E+03   -0.16230E-03   -0.16217E-03  7072   0.975E-03 0.343E-05
SDA:  32    -0.354854511253E+03   -0.65167E-04   -0.65156E-04  7072   0.487E-03 0.162E-05
CGA:  33    -0.354854528724E+03   -0.17471E-04   -0.17481E-04  7072   0.343E-03 0.217E-06
CGA:  34    -0.354854555369E+03   -0.26645E-04   -0.26663E-04  7072   0.649E-03-0.989E-06
CGA:  35    -0.354854595138E+03   -0.39769E-04   -0.39767E-04  7072   0.242E-03 0.488E-06
CGA:  36    -0.354854612522E+03   -0.17384E-04   -0.17366E-04  7072   0.141E-03 0.138E-05
CGA:  37    -0.354854625396E+03   -0.12874E-04   -0.12881E-04  7072   0.178E-03-0.300E-06
CGA:  38    -0.354854639354E+03   -0.13958E-04   -0.13998E-04  7072   0.253E-03-0.236E-05
CGA:  39    -0.354854646970E+03   -0.76160E-05   -0.75894E-05  7072   0.627E-04-0.853E-06
   7 F= -.35485465E+03 E0= -.35483870E+03  d E =-.247664E+00  mag=     8.0000
       N       E                     dE             d eps       ncg     rms          ort
SDA:   1    -0.342004527145E+03    0.12850E+02    0.00000E+00  7072   0.386E+02 0.000E+00
CGA:   2    -0.346320107446E+03   -0.43156E+01   -0.40509E+01  7072   0.928E+02 0.575E+01
CGA:   3    -0.350927163625E+03   -0.46071E+01   -0.39055E+01  7072   0.293E+02 0.926E+01
CGA:   4    -0.352693272581E+03   -0.17661E+01   -0.17451E+01  7072   0.166E+02-0.552E+00
CGA:   5    -0.353755461702E+03   -0.10622E+01   -0.10690E+01  7072   0.169E+02-0.190E+01
CGA:   6    -0.354514798644E+03   -0.75934E+00   -0.77384E+00  7072   0.541E+01 0.376E+00
CGA:   7    -0.354662750700E+03   -0.14795E+00   -0.13997E+00  7072   0.237E+01 0.223E+00
CGA:   8    -0.354756415052E+03   -0.93664E-01   -0.92776E-01  7072   0.149E+01 0.532E-02
CGA:   9    -0.354873321100E+03   -0.11691E+00   -0.11687E+00  7072   0.165E+01 0.442E-03
CGA:  10    -0.354926481914E+03   -0.53161E-01   -0.55510E-01  7072   0.390E+00-0.223E-01
CGA:  11    -0.354944118745E+03   -0.17637E-01   -0.17659E-01  7072   0.216E+00 0.387E-03
CGA:  12    -0.354953327473E+03   -0.92087E-02   -0.93656E-02  7072   0.222E+00 0.158E-02
CGA:  13    -0.354968841488E+03   -0.15514E-01   -0.15536E-01  7072   0.186E+00-0.124E-02
CGA:  14    -0.354975591559E+03   -0.67501E-02   -0.69034E-02  7072   0.585E-01-0.313E-03
CGA:  15    -0.354978215201E+03   -0.26236E-02   -0.26308E-02  7072   0.356E-01 0.139E-03
CGA:  16    -0.354980764752E+03   -0.25496E-02   -0.25281E-02  7072   0.458E-01 0.108E-02
CGA:  17    -0.354983202705E+03   -0.24380E-02   -0.24384E-02  7072   0.363E-01 0.306E-04
CGA:  18    -0.354985067692E+03   -0.18650E-02   -0.18694E-02  7072   0.139E-01 0.290E-03
CGA:  19    -0.354985758921E+03   -0.69123E-03   -0.69174E-03  7072   0.134E-01 0.270E-04
CGA:  20    -0.354986905918E+03   -0.11470E-02   -0.11397E-02  7072   0.178E-01 0.219E-03
CGA:  21    -0.354987824830E+03   -0.91891E-03   -0.91969E-03  7072   0.121E-01 0.514E-04
CGA:  22    -0.354988441428E+03   -0.61660E-03   -0.61731E-03  7072   0.620E-02 0.457E-04
CGA:  23    -0.354988806257E+03   -0.36483E-03   -0.36481E-03  7072   0.565E-02 0.833E-05
CGA:  24    -0.354989138320E+03   -0.33206E-03   -0.33202E-03  7072   0.619E-02 0.194E-04
CGA:  25    -0.354989592853E+03   -0.45453E-03   -0.45422E-03  7072   0.363E-02 0.155E-04
CGA:  26    -0.354989725233E+03   -0.13238E-03   -0.13256E-03  7072   0.159E-02 0.248E-05
CGA:  27    -0.354989859516E+03   -0.13428E-03   -0.13432E-03  7072   0.256E-02-0.131E-05
CGA:  28    -0.354990004533E+03   -0.14502E-03   -0.14503E-03  7072   0.183E-02 0.445E-05
CGA:  29    -0.354990099516E+03   -0.94984E-04   -0.94999E-04  7072   0.789E-03 0.269E-05
CGA:  30    -0.354990140649E+03   -0.41133E-04   -0.41154E-04  7072   0.752E-03 0.295E-05
CGA:  31    -0.354990193570E+03   -0.52921E-04   -0.52934E-04  7072   0.846E-03-0.628E-06
SDA:  32    -0.354990248350E+03   -0.54780E-04   -0.54785E-04  7072   0.526E-03-0.729E-06
CGA:  33    -0.354990261399E+03   -0.13049E-04   -0.13035E-04  7072   0.159E-03 0.390E-07
CGA:  34    -0.354990272931E+03   -0.11531E-04   -0.11526E-04  7072   0.281E-03 0.269E-06
CGA:  35    -0.354990301126E+03   -0.28195E-04   -0.28271E-04  7072   0.211E-03-0.179E-05
CGA:  36    -0.354990316049E+03   -0.14923E-04   -0.14944E-04  7072   0.112E-03-0.183E-05
CGA:  37    -0.354990324011E+03   -0.79623E-05   -0.79761E-05  7072   0.627E-04-0.123E-05
CGA:  38    -0.354990334244E+03   -0.10233E-04   -0.10433E-04  7072   0.158E-03-0.190E-05
CGA:  39    -0.354990339137E+03   -0.48930E-05   -0.48468E-05  7072   0.732E-04-0.115E-05
   8 F= -.35499034E+03 E0= -.35497462E+03  d E =-.135692E+00  mag=     8.0000
       N       E                     dE             d eps       ncg     rms          ort
SDA:   1    -0.334373456938E+03    0.20617E+02    0.00000E+00  7072   0.656E+02 0.000E+00
CGA:   2    -0.340578755401E+03   -0.62053E+01   -0.59469E+01  7072   0.142E+03 0.808E+01
CGA:   3    -0.348638287606E+03   -0.80595E+01   -0.63011E+01  7072   0.327E+02 0.265E+02
CGA:   4    -0.350989632287E+03   -0.23513E+01   -0.23591E+01  7072   0.286E+02 0.771E+00
CGA:   5    -0.353334019188E+03   -0.23444E+01   -0.24348E+01  7072   0.370E+02-0.420E+01
CGA:   6    -0.354242895807E+03   -0.90888E+00   -0.98036E+00  7072   0.662E+01-0.312E+00
CGA:   7    -0.354423962748E+03   -0.18107E+00   -0.19367E+00  7072   0.485E+01-0.222E+00
CGA:   8    -0.354629855184E+03   -0.20589E+00   -0.19893E+00  7072   0.387E+01-0.375E-02
CGA:   9    -0.354839653810E+03   -0.20980E+00   -0.21024E+00  7072   0.352E+01 0.247E-01
CGA:  10    -0.354938188579E+03   -0.98535E-01   -0.10477E+00  7072   0.823E+00-0.880E-01
CGA:  11    -0.354978087816E+03   -0.39899E-01   -0.40126E-01  7072   0.594E+00 0.765E-02
CGA:  12    -0.355000726666E+03   -0.22639E-01   -0.23566E-01  7072   0.598E+00 0.113E-02
CGA:  13    -0.355040034155E+03   -0.39307E-01   -0.39277E-01  7072   0.545E+00 0.256E-02
CGA:  14    -0.355056393435E+03   -0.16359E-01   -0.17327E-01  7072   0.164E+00-0.104E-01
CGA:  15    -0.355064962135E+03   -0.85687E-02   -0.85691E-02  7072   0.100E+00 0.769E-04
CGA:  16    -0.355076479952E+03   -0.11518E-01   -0.11169E-01  7072   0.125E+00 0.610E-02
CGA:  17    -0.355082210077E+03   -0.57301E-02   -0.57514E-02  7072   0.509E-01 0.228E-03
CGA:  18    -0.355085396999E+03   -0.31869E-02   -0.31824E-02  7072   0.512E-01 0.722E-03
CGA:  19    -0.355087861566E+03   -0.24646E-02   -0.24632E-02  7072   0.429E-01-0.153E-04
CGA:  20    -0.355090831068E+03   -0.29695E-02   -0.29579E-02  7072   0.306E-01 0.720E-03
CGA:  21    -0.355093032814E+03   -0.22017E-02   -0.21998E-02  7072   0.159E-01 0.110E-03
CGA:  22    -0.355094050637E+03   -0.10178E-02   -0.10170E-02  7072   0.170E-01 0.117E-03
CGA:  23    -0.355095063098E+03   -0.10125E-02   -0.10124E-02  7072   0.184E-01-0.152E-04
CGA:  24    -0.355096083328E+03   -0.10202E-02   -0.10208E-02  7072   0.875E-02 0.586E-04
CGA:  25    -0.355096588772E+03   -0.50544E-03   -0.50544E-03  7072   0.545E-02 0.279E-06
CGA:  26    -0.355097044272E+03   -0.45550E-03   -0.45459E-03  7072   0.586E-02 0.321E-04
CGA:  27    -0.355097376745E+03   -0.33247E-03   -0.33251E-03  7072   0.603E-02 0.844E-05
CGA:  28    -0.355097656904E+03   -0.28016E-03   -0.28042E-03  7072   0.212E-02 0.121E-04
CGA:  29    -0.355097821360E+03   -0.16446E-03   -0.16451E-03  7072   0.171E-02-0.174E-05
CGA:  30    -0.355097962964E+03   -0.14160E-03   -0.14152E-03  7072   0.235E-02 0.374E-05
CGA:  31    -0.355098068061E+03   -0.10510E-03   -0.10502E-03  7072   0.123E-02-0.901E-06
SDA:  32    -0.355098132423E+03   -0.64362E-04   -0.64355E-04  7072   0.790E-03 0.323E-06
CGA:  33    -0.355098157557E+03   -0.25134E-04   -0.25082E-04  7072   0.348E-03-0.295E-06
CGA:  34    -0.355098191797E+03   -0.34240E-04   -0.34242E-04  7072   0.103E-02-0.788E-07
CGA:  35    -0.355098264349E+03   -0.72552E-04   -0.72583E-04  7072   0.294E-03-0.288E-05
CGA:  36    -0.355098285181E+03   -0.20833E-04   -0.20854E-04  7072   0.154E-03-0.224E-05
CGA:  37    -0.355098300457E+03   -0.15276E-04   -0.15332E-04  7072   0.204E-03-0.151E-05
CGA:  38    -0.355098329329E+03   -0.28872E-04   -0.28944E-04  7072   0.157E-03-0.978E-06
CGA:  39    -0.355098335052E+03   -0.57235E-05   -0.57303E-05  7072   0.118E-03 0.256E-06
   9 F= -.35509834E+03 E0= -.35508303E+03  d E =-.107996E+00  mag=     8.0000
       N       E                     dE             d eps       ncg     rms          ort
SDA:   1    -0.353503203847E+03    0.15951E+01    0.00000E+00  7072   0.556E+01 0.000E+00
CGA:   2    -0.353931175303E+03   -0.42797E+00   -0.42498E+00  7072   0.115E+02 0.191E+00
CGA:   3    -0.354556240552E+03   -0.62507E+00   -0.61650E+00  7072   0.465E+01-0.108E+00
CGA:   4    -0.354812397422E+03   -0.25616E+00   -0.25616E+00  7072   0.212E+01 0.325E-02
CGA:   5    -0.354952699362E+03   -0.14030E+00   -0.14038E+00  7072   0.262E+01-0.750E-01
CGA:   6    -0.355052899492E+03   -0.10020E+00   -0.10152E+00  7072   0.967E+00-0.710E-02
CGA:   7    -0.355095689778E+03   -0.42790E-01   -0.42438E-01  7072   0.169E+00 0.391E-04
CGA:   8    -0.355113805801E+03   -0.18116E-01   -0.18038E-01  7072   0.289E+00 0.163E-02
CGA:   9    -0.355123894200E+03   -0.10088E-01   -0.10048E-01  7072   0.822E-01 0.480E-03
CGA:  10    -0.355127588183E+03   -0.36940E-02   -0.37146E-02  7072   0.417E-01 0.970E-04
CGA:  11    -0.355130546677E+03   -0.29585E-02   -0.29564E-02  7072   0.284E-01 0.162E-03
CGA:  12    -0.355132304861E+03   -0.17582E-02   -0.17588E-02  7072   0.264E-01 0.182E-03
CGA:  13    -0.355133474872E+03   -0.11700E-02   -0.11688E-02  7072   0.115E-01-0.157E-05
CGA:  14    -0.355133952686E+03   -0.47781E-03   -0.47990E-03  7072   0.456E-02 0.471E-05
CGA:  15    -0.355134466267E+03   -0.51358E-03   -0.51268E-03  7072   0.509E-02 0.161E-04
CGA:  16    -0.355134690879E+03   -0.22461E-03   -0.22514E-03  7072   0.415E-02 0.598E-05
CGA:  17    -0.355134930939E+03   -0.24006E-03   -0.24002E-03  7072   0.114E-02-0.240E-05
CGA:  18    -0.355135027403E+03   -0.96464E-04   -0.96297E-04  7072   0.187E-02 0.670E-05
CGA:  19    -0.355135141648E+03   -0.11425E-03   -0.11425E-03  7072   0.175E-02 0.214E-05
CGA:  20    -0.355135233956E+03   -0.92308E-04   -0.92374E-04  7072   0.772E-03 0.163E-05
CGA:  21    -0.355135282249E+03   -0.48293E-04   -0.48291E-04  7072   0.548E-03-0.313E-05
CGA:  22    -0.355135317613E+03   -0.35364E-04   -0.35363E-04  7072   0.677E-03-0.182E-06
CGA:  23    -0.355135357951E+03   -0.40338E-04   -0.40336E-04  7072   0.431E-03-0.101E-05
CGA:  24    -0.355135379318E+03   -0.21367E-04   -0.21367E-04  7072   0.185E-03-0.395E-06
CGA:  25    -0.355135393712E+03   -0.14394E-04   -0.14410E-04  7072   0.184E-03-0.119E-05
CGA:  26    -0.355135400732E+03   -0.70207E-05   -0.70274E-05  7072   0.102E-03 0.534E-07
CGA:  27    -0.355135413465E+03   -0.12732E-04   -0.12673E-04  7072   0.869E-04 0.803E-06
CGA:  28    -0.355135417071E+03   -0.36064E-05   -0.36235E-05  7072   0.479E-04 0.594E-06
  10 F= -.35513542E+03 E0= -.35512044E+03  d E =-.370820E-01  mag=     8.0000
       N       E                     dE             d eps       ncg     rms          ort
SDA:   1    -0.355040703359E+03    0.94710E-01    0.00000E+00  7072   0.428E+00 0.000E+00
CGA:   2    -0.355059366818E+03   -0.18663E-01   -0.18642E-01  7072   0.509E+00-0.574E-04
CGA:   3    -0.355103965470E+03   -0.44599E-01   -0.44457E-01  7072   0.408E+00 0.454E-02
CGA:   4    -0.355122479664E+03   -0.18514E-01   -0.18357E-01  7072   0.116E+00-0.505E-03
CGA:   5    -0.355134945231E+03   -0.12466E-01   -0.12456E-01  7072   0.999E-01 0.199E-03
CGA:   6    -0.355139877260E+03   -0.49320E-02   -0.49264E-02  7072   0.244E-01-0.549E-04
CGA:   7    -0.355141475672E+03   -0.15984E-02   -0.15981E-02  7072   0.927E-02 0.137E-03
CGA:   8    -0.355142569832E+03   -0.10942E-02   -0.10940E-02  7072   0.946E-02 0.328E-05
CGA:   9    -0.355142834876E+03   -0.26504E-03   -0.26440E-03  7072   0.302E-02 0.999E-05
CGA:  10    -0.355143046010E+03   -0.21113E-03   -0.21111E-03  7072   0.177E-02 0.468E-05
CGA:  11    -0.355143170800E+03   -0.12479E-03   -0.12481E-03  7072   0.146E-02-0.358E-05
CGA:  12    -0.355143280338E+03   -0.10954E-03   -0.10958E-03  7072   0.368E-03-0.464E-05
CGA:  13    -0.355143303758E+03   -0.23420E-04   -0.23418E-04  7072   0.260E-03-0.948E-06
CGA:  14    -0.355143330944E+03   -0.27186E-04   -0.27174E-04  7072   0.212E-03 0.254E-06
CGA:  15    -0.355143342684E+03   -0.11740E-04   -0.11733E-04  7072   0.228E-03-0.687E-06
CGA:  16    -0.355143351561E+03   -0.88763E-05   -0.88396E-05  7072   0.425E-04-0.139E-05
  11 F= -.35514335E+03 E0= -.35512831E+03  d E =-.793449E-02  mag=     8.0000
       N       E                     dE             d eps       ncg     rms          ort
SDA:   1    -0.354481859971E+03    0.66148E+00    0.00000E+00  7072   0.190E+01 0.000E+00
CGA:   2    -0.354710215803E+03   -0.22836E+00   -0.22181E+00  7072   0.472E+01 0.121E+00
CGA:   3    -0.354983663939E+03   -0.27345E+00   -0.27268E+00  7072   0.231E+01-0.692E-02
CGA:   4    -0.355051813588E+03   -0.68150E-01   -0.71486E-01  7072   0.671E+00-0.625E-01
CGA:   5    -0.355108775074E+03   -0.56961E-01   -0.56939E-01  7072   0.470E+00 0.712E-03
CGA:   6    -0.355139843274E+03   -0.31068E-01   -0.31047E-01  7072   0.153E+00-0.292E-02
CGA:   7    -0.355147192302E+03   -0.73490E-02   -0.74386E-02  7072   0.520E-01 0.442E-03
CGA:   8    -0.355152174195E+03   -0.49819E-02   -0.49951E-02  7072   0.668E-01-0.372E-03
CGA:   9    -0.355154465073E+03   -0.22909E-02   -0.22958E-02  7072   0.233E-01-0.657E-04
CGA:  10    -0.355155509949E+03   -0.10449E-02   -0.10426E-02  7072   0.103E-01 0.592E-05
CGA:  11    -0.355156235960E+03   -0.72601E-03   -0.72609E-03  7072   0.621E-02-0.102E-04
CGA:  12    -0.355156858481E+03   -0.62252E-03   -0.62167E-03  7072   0.281E-02 0.191E-04
CGA:  13    -0.355156994822E+03   -0.13634E-03   -0.13637E-03  7072   0.124E-02-0.279E-05
CGA:  14    -0.355157123006E+03   -0.12818E-03   -0.12815E-03  7072   0.174E-02 0.289E-06
CGA:  15    -0.355157191111E+03   -0.68105E-04   -0.68174E-04  7072   0.976E-03-0.811E-06
CGA:  16    -0.355157245959E+03   -0.54849E-04   -0.54806E-04  7072   0.437E-03-0.303E-05
CGA:  17    -0.355157275480E+03   -0.29521E-04   -0.29520E-04  7072   0.325E-03 0.586E-06
CGA:  18    -0.355157318287E+03   -0.42807E-04   -0.42785E-04  7072   0.396E-03 0.212E-06
CGA:  19    -0.355157338284E+03   -0.19997E-04   -0.20028E-04  7072   0.284E-03 0.710E-06
CGA:  20    -0.355157350448E+03   -0.12164E-04   -0.12156E-04  7072   0.156E-03-0.303E-06
CGA:  21    -0.355157361777E+03   -0.11329E-04   -0.11326E-04  7072   0.159E-03 0.448E-06
CGA:  22    -0.355157378852E+03   -0.17075E-04   -0.16978E-04  7072   0.637E-04 0.241E-05
CGA:  23    -0.355157382614E+03   -0.37619E-05   -0.37690E-05  7072   0.591E-04 0.536E-06
  12 F= -.35515738E+03 E0= -.35514231E+03  d E =-.140311E-01  mag=     8.0000
       N       E                     dE             d eps       ncg     rms          ort
SDA:   1    -0.352117923871E+03    0.30395E+01    0.00000E+00  7072   0.758E+01 0.000E+00
CGA:   2    -0.354175667571E+03   -0.20577E+01   -0.20684E+01  7072   0.134E+02-0.660E-01
CGA:   3    -0.354630973025E+03   -0.45531E+00   -0.48330E+00  7072   0.343E+01-0.355E+00
CGA:   4    -0.354842383801E+03   -0.21141E+00   -0.20855E+00  7072   0.444E+01-0.476E-01
CGA:   5    -0.355060209831E+03   -0.21783E+00   -0.21715E+00  7072   0.134E+01 0.328E-02
CGA:   6    -0.355116037228E+03   -0.55827E-01   -0.54704E-01  7072   0.298E+00 0.150E-01
CGA:   7    -0.355146475489E+03   -0.30438E-01   -0.30318E-01  7072   0.275E+00 0.344E-02
CGA:   8    -0.355165678015E+03   -0.19203E-01   -0.19181E-01  7072   0.149E+00-0.141E-02
CGA:   9    -0.355169999067E+03   -0.43211E-02   -0.43215E-02  7072   0.467E-01-0.699E-05
CGA:  10    -0.355173606285E+03   -0.36072E-02   -0.36096E-02  7072   0.477E-01-0.270E-03
CGA:  11    -0.355176638979E+03   -0.30327E-02   -0.30365E-02  7072   0.209E-01 0.162E-03
CGA:  12    -0.355177858321E+03   -0.12193E-02   -0.12185E-02  7072   0.869E-02-0.261E-04
CGA:  13    -0.355178236090E+03   -0.37777E-03   -0.37850E-03  7072   0.718E-02-0.394E-05
CGA:  14    -0.355178760624E+03   -0.52453E-03   -0.52450E-03  7072   0.737E-02 0.770E-05
CGA:  15    -0.355179216421E+03   -0.45580E-03   -0.45584E-03  7072   0.139E-02 0.286E-05
CGA:  16    -0.355179335322E+03   -0.11890E-03   -0.11893E-03  7072   0.304E-02-0.114E-05
CGA:  17    -0.355179523717E+03   -0.18839E-03   -0.18845E-03  7072   0.222E-02 0.275E-05
CGA:  18    -0.355179646339E+03   -0.12262E-03   -0.12260E-03  7072   0.114E-02-0.846E-06
CGA:  19    -0.355179728804E+03   -0.82465E-04   -0.82454E-04  7072   0.753E-03 0.293E-05
CGA:  20    -0.355179777297E+03   -0.48493E-04   -0.48490E-04  7072   0.913E-03-0.222E-06
CGA:  21    -0.355179833262E+03   -0.55965E-04   -0.55985E-04  7072   0.838E-03 0.183E-05
CGA:  22    -0.355179877263E+03   -0.44001E-04   -0.44022E-04  7072   0.284E-03 0.125E-05
CGA:  23    -0.355179900846E+03   -0.23583E-04   -0.23544E-04  7072   0.212E-03 0.265E-05
CGA:  24    -0.355179915255E+03   -0.14409E-04   -0.14411E-04  7072   0.331E-03 0.123E-05
CGA:  25    -0.355179933660E+03   -0.18405E-04   -0.18436E-04  7072   0.154E-03 0.234E-05
CGA:  26    -0.355179944000E+03   -0.10340E-04   -0.10341E-04  7072   0.880E-04 0.991E-06
CGA:  27    -0.355179950694E+03   -0.66938E-05   -0.66842E-05  7072   0.103E-03 0.123E-05
  13 F= -.35517995E+03 E0= -.35516488E+03  d E =-.225681E-01  mag=     8.0000
       N       E                     dE             d eps       ncg     rms          ort
SDA:   1    -0.339820091468E+03    0.15360E+02    0.00000E+00  7072   0.427E+02 0.000E+00
CGA:   2    -0.347012218217E+03   -0.71921E+01   -0.66741E+01  7072   0.815E+02 0.592E+01
CGA:   3    -0.350412252255E+03   -0.34000E+01   -0.26924E+01  7072   0.184E+02 0.186E+02
CGA:   4    -0.351988252056E+03   -0.15760E+01   -0.15681E+01  7072   0.396E+02-0.259E+01
CGA:   5    -0.353107216132E+03   -0.11190E+01   -0.98801E+00  7072   0.338E+02 0.357E+01
CGA:   6    -0.354037728652E+03   -0.93051E+00   -0.99172E+00  7072   0.224E+02-0.175E+01
CGA:   7    -0.354407518083E+03   -0.36979E+00   -0.37015E+00  7072   0.673E+01 0.664E-01
CGA:   8    -0.354564983612E+03   -0.15747E+00   -0.14831E+00  7072   0.463E+01 0.397E+00
CGA:   9    -0.354683051807E+03   -0.11807E+00   -0.11458E+00  7072   0.268E+01 0.101E+00
CGA:  10    -0.354756674310E+03   -0.73623E-01   -0.74718E-01  7072   0.291E+01-0.220E-01
CGA:  11    -0.354844181267E+03   -0.87507E-01   -0.87775E-01  7072   0.226E+01 0.440E-02
CGA:  12    -0.354896969643E+03   -0.52788E-01   -0.53497E-01  7072   0.153E+01-0.198E-01
CGA:  13    -0.354935087796E+03   -0.38118E-01   -0.39733E-01  7072   0.734E+00-0.303E-01
CGA:  14    -0.354950717590E+03   -0.15630E-01   -0.16641E-01  7072   0.469E+00-0.267E-01
CGA:  15    -0.354971150129E+03   -0.20433E-01   -0.20542E-01  7072   0.456E+00 0.563E-02
CGA:  16    -0.354984838784E+03   -0.13689E-01   -0.13718E-01  7072   0.380E+00-0.225E-03
CGA:  17    -0.355001031339E+03   -0.16193E-01   -0.16188E-01  7072   0.201E+00-0.121E-03
CGA:  18    -0.355004783157E+03   -0.37518E-02   -0.38194E-02  7072   0.582E-01-0.238E-02
CGA:  19    -0.355009359095E+03   -0.45759E-02   -0.45148E-02  7072   0.142E+00 0.180E-02
CGA:  20    -0.355013816518E+03   -0.44574E-02   -0.44890E-02  7072   0.464E-01-0.181E-03
CGA:  21    -0.355016624428E+03   -0.28079E-02   -0.28070E-02  7072   0.551E-01 0.555E-04
CGA:  22    -0.355018142666E+03   -0.15182E-02   -0.15235E-02  7072   0.176E-01-0.591E-04
CGA:  23    -0.355019177761E+03   -0.10351E-02   -0.10344E-02  7072   0.198E-01 0.439E-04
CGA:  24    -0.355019950470E+03   -0.77271E-03   -0.77282E-03  7072   0.189E-01 0.122E-05
CGA:  25    -0.355021170776E+03   -0.12203E-02   -0.12186E-02  7072   0.133E-01 0.806E-04
CGA:  26    -0.355021597110E+03   -0.42633E-03   -0.42763E-03  7072   0.892E-02-0.553E-05
CGA:  27    -0.355022015856E+03   -0.41875E-03   -0.41870E-03  7072   0.371E-02-0.197E-04
CGA:  28    -0.355022191665E+03   -0.17581E-03   -0.17581E-03  7072   0.550E-02 0.244E-06
CGA:  29    -0.355022525228E+03   -0.33356E-03   -0.33296E-03  7072   0.382E-02 0.355E-04
CGA:  30    -0.355022727081E+03   -0.20185E-03   -0.20185E-03  7072   0.425E-02-0.988E-06
CGA:  31    -0.355022871250E+03   -0.14417E-03   -0.14399E-03  7072   0.129E-02-0.761E-05
SDA:  32    -0.355022931272E+03   -0.60022E-04   -0.60025E-04  7072   0.115E-02 0.111E-05
CGA:  33    -0.355022970641E+03   -0.39369E-04   -0.39410E-04  7072   0.703E-03 0.291E-05
CGA:  34    -0.355023035189E+03   -0.64548E-04   -0.64310E-04  7072   0.120E-02 0.536E-05
CGA:  35    -0.355023121212E+03   -0.86023E-04   -0.85876E-04  7072   0.858E-03 0.696E-05
CGA:  36    -0.355023180591E+03   -0.59378E-04   -0.59417E-04  7072   0.279E-03-0.184E-05
CGA:  37    -0.355023219056E+03   -0.38466E-04   -0.38331E-04  7072   0.290E-03 0.146E-05
CGA:  38    -0.355023248640E+03   -0.29584E-04   -0.29609E-04  7072   0.388E-03-0.637E-06
CGA:  39    -0.355023265627E+03   -0.16987E-04   -0.16967E-04  7072   0.262E-03-0.114E-05
CGA:  40    -0.355023281034E+03   -0.15408E-04   -0.15408E-04  7072   0.182E-03-0.295E-06
CGA:  41    -0.355023299272E+03   -0.18238E-04   -0.18272E-04  7072   0.148E-03-0.848E-06
CGA:  42    -0.355023317419E+03   -0.18146E-04   -0.18156E-04  7072   0.169E-03-0.181E-06
CGA:  43    -0.355023324568E+03   -0.71491E-05   -0.71472E-05  7072   0.535E-04-0.502E-07
  14 F= -.35502332E+03 E0= -.35500887E+03  d E =0.156626E+00  mag=     8.0000
       N       E                     dE             d eps       ncg     rms          ort
SDA:   1    -0.351837133576E+03    0.31862E+01    0.00000E+00  7072   0.144E+02 0.000E+00
CGA:   2    -0.352879307354E+03   -0.10422E+01   -0.10076E+01  7072   0.124E+02 0.298E+01
CGA:   3    -0.353660879704E+03   -0.78157E+00   -0.77433E+00  7072   0.137E+02-0.166E+00
CGA:   4    -0.354318855044E+03   -0.65798E+00   -0.64624E+00  7072   0.939E+01-0.171E+00
CGA:   5    -0.354568547872E+03   -0.24969E+00   -0.24766E+00  7072   0.563E+01 0.113E+00
CGA:   6    -0.354819905426E+03   -0.25136E+00   -0.24981E+00  7072   0.479E+01-0.153E-01
CGA:   7    -0.355027640104E+03   -0.20773E+00   -0.20396E+00  7072   0.261E+01-0.105E-02
CGA:   8    -0.355090283197E+03   -0.62643E-01   -0.62047E-01  7072   0.949E+00 0.129E-01
CGA:   9    -0.355131403462E+03   -0.41120E-01   -0.41292E-01  7072   0.609E+00 0.364E-02
CGA:  10    -0.355149349713E+03   -0.17946E-01   -0.17955E-01  7072   0.460E+00-0.108E-03
CGA:  11    -0.355173270814E+03   -0.23921E-01   -0.23943E-01  7072   0.309E+00 0.356E-02
CGA:  12    -0.355182729256E+03   -0.94584E-02   -0.98207E-02  7072   0.189E+00-0.320E-02
CGA:  13    -0.355190286600E+03   -0.75573E-02   -0.75653E-02  7072   0.873E-01 0.243E-03
CGA:  14    -0.355194571055E+03   -0.42845E-02   -0.42809E-02  7072   0.797E-01-0.382E-03
CGA:  15    -0.355197533550E+03   -0.29625E-02   -0.29894E-02  7072   0.570E-01 0.215E-03
CGA:  16    -0.355201135962E+03   -0.36024E-02   -0.35789E-02  7072   0.335E-01 0.146E-02
CGA:  17    -0.355202371444E+03   -0.12355E-02   -0.12342E-02  7072   0.165E-01-0.726E-05
CGA:  18    -0.355203021048E+03   -0.64960E-03   -0.65121E-03  7072   0.111E-01 0.277E-04
CGA:  19    -0.355203761841E+03   -0.74079E-03   -0.73885E-03  7072   0.831E-02 0.946E-04
CGA:  20    -0.355204180546E+03   -0.41870E-03   -0.41871E-03  7072   0.856E-02 0.547E-05
CGA:  21    -0.355204501177E+03   -0.32063E-03   -0.32208E-03  7072   0.232E-02 0.226E-04
CGA:  22    -0.355204662333E+03   -0.16116E-03   -0.16080E-03  7072   0.260E-02 0.161E-04
CGA:  23    -0.355204768982E+03   -0.10665E-03   -0.10663E-03  7072   0.179E-02-0.112E-05
CGA:  24    -0.355204869861E+03   -0.10088E-03   -0.10084E-03  7072   0.125E-02 0.423E-05
CGA:  25    -0.355204942458E+03   -0.72597E-04   -0.72475E-04  7072   0.769E-03 0.127E-04
CGA:  26    -0.355204974843E+03   -0.32385E-04   -0.32382E-04  7072   0.700E-03-0.452E-06
CGA:  27    -0.355205020699E+03   -0.45856E-04   -0.45843E-04  7072   0.530E-03 0.399E-06
CGA:  28    -0.355205053643E+03   -0.32944E-04   -0.32915E-04  7072   0.418E-03 0.210E-05
CGA:  29    -0.355205068753E+03   -0.15110E-04   -0.15116E-04  7072   0.241E-03-0.519E-07
CGA:  30    -0.355205081668E+03   -0.12915E-04   -0.12913E-04  7072   0.131E-03 0.844E-06
CGA:  31    -0.355205093395E+03   -0.11728E-04   -0.11749E-04  7072   0.228E-03-0.702E-06
SDA:  32    -0.355205101517E+03   -0.81213E-05   -0.80977E-05  7072   0.838E-04-0.143E-05
  15 F= -.35520510E+03 E0= -.35519020E+03  d E =-.181777E+00  mag=     8.0000
       N       E                     dE             d eps       ncg     rms          ort
SDA:   1    -0.355169353714E+03    0.35740E-01    0.00000E+00  7072   0.170E+00 0.000E+00
CGA:   2    -0.355176625015E+03   -0.72713E-02   -0.72741E-02  7072   0.198E+00 0.144E-03
CGA:   3    -0.355195397655E+03   -0.18773E-01   -0.18796E-01  7072   0.118E+00-0.517E-03
CGA:   4    -0.355200284617E+03   -0.48870E-02   -0.49038E-02  7072   0.537E-01 0.320E-03
CGA:   5    -0.355206863136E+03   -0.65785E-02   -0.65855E-02  7072   0.258E-01-0.998E-04
CGA:   6    -0.355207871593E+03   -0.10085E-02   -0.10095E-02  7072   0.137E-01-0.104E-04
CGA:   7    -0.355208486803E+03   -0.61521E-03   -0.61467E-03  7072   0.707E-02-0.245E-04
CGA:   8    -0.355208930666E+03   -0.44386E-03   -0.44383E-03  7072   0.335E-02 0.164E-05
CGA:   9    -0.355209184893E+03   -0.25423E-03   -0.25436E-03  7072   0.189E-02-0.517E-05
CGA:  10    -0.355209269218E+03   -0.84325E-04   -0.84297E-04  7072   0.116E-02-0.264E-05
CGA:  11    -0.355209324267E+03   -0.55049E-04   -0.54976E-04  7072   0.697E-03-0.652E-05
CGA:  12    -0.355209377639E+03   -0.53372E-04   -0.53458E-04  7072   0.588E-03-0.422E-05
CGA:  13    -0.355209408509E+03   -0.30870E-04   -0.30854E-04  7072   0.141E-03-0.414E-05
CGA:  14    -0.355209417548E+03   -0.90388E-05   -0.90495E-05  7072   0.180E-03-0.127E-05
  16 F= -.35520942E+03 E0= -.35519444E+03  d E =-.431603E-02  mag=     8.0000
       N       E                     dE             d eps       ncg     rms          ort
SDA:   1    -0.354872397669E+03    0.33701E+00    0.00000E+00  7072   0.929E+00 0.000E+00
CGA:   2    -0.354998617990E+03   -0.12622E+00   -0.12955E+00  7072   0.350E+01-0.429E-01
CGA:   3    -0.355120737725E+03   -0.12212E+00   -0.12168E+00  7072   0.655E+00 0.854E-03
CGA:   4    -0.355165352664E+03   -0.44615E-01   -0.44543E-01  7072   0.443E+00 0.512E-02
CGA:   5    -0.355188223528E+03   -0.22871E-01   -0.22855E-01  7072   0.332E+00-0.650E-03
CGA:   6    -0.355201025088E+03   -0.12802E-01   -0.12816E-01  7072   0.141E+00-0.698E-04
CGA:   7    -0.355208242929E+03   -0.72178E-02   -0.72035E-02  7072   0.412E-01-0.763E-03
CGA:   8    -0.355210695780E+03   -0.24529E-02   -0.24529E-02  7072   0.322E-01 0.948E-06
CGA:   9    -0.355212644557E+03   -0.19488E-02   -0.19487E-02  7072   0.264E-01 0.159E-04
CGA:  10    -0.355213598203E+03   -0.95365E-03   -0.95017E-03  7072   0.959E-02 0.432E-06
CGA:  11    -0.355214126454E+03   -0.52825E-03   -0.52827E-03  7072   0.397E-02-0.928E-06
CGA:  12    -0.355214561058E+03   -0.43460E-03   -0.43484E-03  7072   0.310E-02-0.464E-05
CGA:  13    -0.355214671982E+03   -0.11092E-03   -0.11072E-03  7072   0.219E-02-0.734E-05
CGA:  14    -0.355214816088E+03   -0.14411E-03   -0.14423E-03  7072   0.494E-03-0.147E-04
CGA:  15    -0.355214856465E+03   -0.40376E-04   -0.40458E-04  7072   0.621E-03-0.352E-05
CGA:  16    -0.355214903151E+03   -0.46686E-04   -0.46725E-04  7072   0.551E-03-0.233E-05
CGA:  17    -0.355214922108E+03   -0.18958E-04   -0.18960E-04  7072   0.221E-03-0.307E-06
CGA:  18    -0.355214935034E+03   -0.12926E-04   -0.12925E-04  7072   0.124E-03-0.110E-05
CGA:  19    -0.355214944290E+03   -0.92560E-05   -0.92479E-05  7072   0.140E-03 0.562E-06
CGA:  20    -0.355214961933E+03   -0.17642E-04   -0.17461E-04  7072   0.977E-04 0.288E-05
CGA:  21    -0.355214964739E+03   -0.28066E-05   -0.28157E-05  7072   0.430E-04 0.236E-06
  17 F= -.35521496E+03 E0= -.35519994E+03  d E =-.554719E-02  mag=     8.0000
       N       E                     dE             d eps       ncg     rms          ort
SDA:   1    -0.355141613500E+03    0.73348E-01    0.00000E+00  7072   0.242E+00 0.000E+00
CGA:   2    -0.355163162879E+03   -0.21549E-01   -0.21433E-01  7072   0.477E+00 0.375E-02
CGA:   3    -0.355189228134E+03   -0.26065E-01   -0.25972E-01  7072   0.381E+00-0.215E-02
CGA:   4    -0.355205970792E+03   -0.16743E-01   -0.16924E-01  7072   0.802E-01 0.468E-03
CGA:   5    -0.355212043715E+03   -0.60729E-02   -0.60725E-02  7072   0.522E-01 0.299E-04
CGA:   6    -0.355216062902E+03   -0.40192E-02   -0.40261E-02  7072   0.220E-01-0.364E-03
CGA:   7    -0.355216952528E+03   -0.88963E-03   -0.89236E-03  7072   0.111E-01-0.162E-05
CGA:   8    -0.355217479310E+03   -0.52678E-03   -0.52638E-03  7072   0.677E-02-0.176E-05
CGA:   9    -0.355217800692E+03   -0.32138E-03   -0.32142E-03  7072   0.346E-02 0.113E-05
CGA:  10    -0.355218107213E+03   -0.30652E-03   -0.30678E-03  7072   0.974E-03-0.932E-05
CGA:  11    -0.355218189620E+03   -0.82407E-04   -0.82400E-04  7072   0.845E-03 0.134E-06
CGA:  12    -0.355218244969E+03   -0.55349E-04   -0.55350E-04  7072   0.513E-03-0.653E-06
CGA:  13    -0.355218265845E+03   -0.20876E-04   -0.20884E-04  7072   0.376E-03 0.136E-06
CGA:  14    -0.355218289060E+03   -0.23215E-04   -0.23212E-04  7072   0.968E-04-0.147E-05
CGA:  15    -0.355218296421E+03   -0.73606E-05   -0.73552E-05  7072   0.126E-03 0.448E-06
CGA:  16    -0.355218308370E+03   -0.11949E-04   -0.11955E-04  7072   0.616E-04-0.197E-06
CGA:  17    -0.355218311409E+03   -0.30393E-05   -0.30371E-05  7072   0.456E-04-0.175E-06
  18 F= -.35521831E+03 E0= -.35520330E+03  d E =-.334667E-02  mag=     8.0000
       N       E                     dE             d eps       ncg     rms          ort
SDA:   1    -0.352012394678E+03    0.32059E+01    0.00000E+00  7072   0.788E+01 0.000E+00
CGA:   2    -0.354187429821E+03   -0.21750E+01   -0.21730E+01  7072   0.167E+02 0.192E-01
CGA:   3    -0.354615258376E+03   -0.42783E+00   -0.45625E+00  7072   0.490E+01-0.102E+01
CGA:   4    -0.354874414003E+03   -0.25916E+00   -0.27245E+00  7072   0.292E+01 0.297E+00
CGA:   5    -0.355096163743E+03   -0.22175E+00   -0.22174E+00  7072   0.171E+01-0.114E+00
CGA:   6    -0.355170132171E+03   -0.73968E-01   -0.75148E-01  7072   0.330E+00 0.139E-02
CGA:   7    -0.355195868774E+03   -0.25737E-01   -0.25727E-01  7072   0.259E+00 0.786E-03
CGA:   8    -0.355217570121E+03   -0.21701E-01   -0.21705E-01  7072   0.110E+00-0.206E-03
CGA:   9    -0.355225081921E+03   -0.75118E-02   -0.75110E-02  7072   0.386E-01-0.124E-03
CGA:  10    -0.355227639982E+03   -0.25581E-02   -0.25571E-02  7072   0.425E-01-0.866E-04
CGA:  11    -0.355229727392E+03   -0.20874E-02   -0.21007E-02  7072   0.241E-01 0.456E-04
CGA:  12    -0.355230789715E+03   -0.10623E-02   -0.10628E-02  7072   0.127E-01-0.105E-04
CGA:  13    -0.355231463289E+03   -0.67357E-03   -0.67400E-03  7072   0.387E-02-0.153E-05
CGA:  14    -0.355231918892E+03   -0.45560E-03   -0.45486E-03  7072   0.384E-02 0.135E-04
CGA:  15    -0.355232228957E+03   -0.31006E-03   -0.31004E-03  7072   0.248E-02 0.732E-06
CGA:  16    -0.355232347029E+03   -0.11807E-03   -0.11781E-03  7072   0.185E-02-0.279E-05
CGA:  17    -0.355232435666E+03   -0.88637E-04   -0.88634E-04  7072   0.132E-02-0.555E-07
CGA:  18    -0.355232591799E+03   -0.15613E-03   -0.15584E-03  7072   0.135E-02 0.559E-05
CGA:  19    -0.355232670068E+03   -0.78269E-04   -0.78302E-04  7072   0.794E-03 0.228E-06
CGA:  20    -0.355232726230E+03   -0.56162E-04   -0.56162E-04  7072   0.502E-03-0.297E-06
CGA:  21    -0.355232772853E+03   -0.46623E-04   -0.46513E-04  7072   0.937E-03 0.447E-05
CGA:  22    -0.355232810860E+03   -0.38007E-04   -0.38053E-04  7072   0.367E-03 0.165E-05
CGA:  23    -0.355232840880E+03   -0.30020E-04   -0.30006E-04  7072   0.178E-03 0.109E-05
CGA:  24    -0.355232857419E+03   -0.16539E-04   -0.16490E-04  7072   0.227E-03 0.219E-05
CGA:  25    -0.355232875374E+03   -0.17954E-04   -0.17935E-04  7072   0.238E-03 0.296E-05
CGA:  26    -0.355232884902E+03   -0.95284E-05   -0.95538E-05  7072   0.107E-03 0.788E-06
  19 F= -.35523288E+03 E0= -.35521782E+03  d E =-.145735E-01  mag=     8.0000
       N       E                     dE             d eps       ncg     rms          ort
SDA:   1    -0.347443529569E+03    0.77893E+01    0.00000E+00  7072   0.282E+02 0.000E+00
CGA:   2    -0.349109324140E+03   -0.16658E+01   -0.17392E+01  7072   0.423E+02 0.356E+01
CGA:   3    -0.352321312916E+03   -0.32120E+01   -0.31782E+01  7072   0.430E+02-0.535E+01
CGA:   4    -0.353714734771E+03   -0.13934E+01   -0.13332E+01  7072   0.172E+02 0.966E+00
CGA:   5    -0.354055699530E+03   -0.34096E+00   -0.36276E+00  7072   0.100E+02-0.734E+00
CGA:   6    -0.354463358856E+03   -0.40766E+00   -0.40610E+00  7072   0.873E+01-0.106E-01
CGA:   7    -0.354878068539E+03   -0.41471E+00   -0.40599E+00  7072   0.734E+01-0.301E-03
CGA:   8    -0.354998308392E+03   -0.12024E+00   -0.13806E+00  7072   0.189E+01-0.761E+00
CGA:   9    -0.355071392918E+03   -0.73085E-01   -0.73865E-01  7072   0.895E+00 0.708E-02
CGA:  10    -0.355106557725E+03   -0.35165E-01   -0.34673E-01  7072   0.107E+01 0.143E-02
CGA:  11    -0.355143714356E+03   -0.37157E-01   -0.39116E-01  7072   0.708E+00-0.852E-02
CGA:  12    -0.355174054685E+03   -0.30340E-01   -0.30799E-01  7072   0.200E+00 0.634E-02
CGA:  13    -0.355182309053E+03   -0.82544E-02   -0.81314E-02  7072   0.188E+00-0.574E-03
CGA:  14    -0.355189860702E+03   -0.75516E-02   -0.78166E-02  7072   0.158E+00 0.292E-02
CGA:  15    -0.355199406029E+03   -0.95453E-02   -0.95304E-02  7072   0.662E-01 0.219E-02
CGA:  16    -0.355203005449E+03   -0.35994E-02   -0.36013E-02  7072   0.284E-01 0.403E-03
CGA:  17    -0.355204988591E+03   -0.19831E-02   -0.19592E-02  7072   0.261E-01 0.129E-02
CGA:  18    -0.355206432840E+03   -0.14442E-02   -0.14403E-02  7072   0.321E-01-0.484E-03
CGA:  19    -0.355207963784E+03   -0.15309E-02   -0.15497E-02  7072   0.135E-01 0.990E-03
CGA:  20    -0.355208598507E+03   -0.63472E-03   -0.64038E-03  7072   0.567E-02 0.170E-03
CGA:  21    -0.355208991383E+03   -0.39288E-03   -0.39410E-03  7072   0.113E-01-0.649E-04
CGA:  22    -0.355209659327E+03   -0.66794E-03   -0.66633E-03  7072   0.770E-02 0.254E-03
CGA:  23    -0.355210028646E+03   -0.36932E-03   -0.37095E-03  7072   0.311E-02 0.562E-04
CGA:  24    -0.355210207841E+03   -0.17920E-03   -0.17922E-03  7072   0.393E-02-0.132E-04
CGA:  25    -0.355210387004E+03   -0.17916E-03   -0.17951E-03  7072   0.250E-02 0.607E-05
CGA:  26    -0.355210601565E+03   -0.21456E-03   -0.21389E-03  7072   0.248E-02 0.180E-04
CGA:  27    -0.355210709797E+03   -0.10823E-03   -0.10812E-03  7072   0.150E-02-0.596E-05
CGA:  28    -0.355210765170E+03   -0.55373E-04   -0.55375E-04  7072   0.775E-03-0.781E-06
CGA:  29    -0.355210842659E+03   -0.77490E-04   -0.77388E-04  7072   0.102E-02 0.227E-05
CGA:  30    -0.355210894004E+03   -0.51345E-04   -0.51326E-04  7072   0.757E-03-0.198E-05
CGA:  31    -0.355210921921E+03   -0.27917E-04   -0.27919E-04  7072   0.373E-03-0.238E-06
SDA:  32    -0.355210954039E+03   -0.32118E-04   -0.32111E-04  7072   0.410E-03 0.140E-06
CGA:  33    -0.355210966779E+03   -0.12740E-04   -0.12728E-04  7072   0.134E-03 0.343E-06
CGA:  34    -0.355210978405E+03   -0.11626E-04   -0.11572E-04  7072   0.295E-03 0.163E-05
CGA:  35    -0.355210999042E+03   -0.20637E-04   -0.20625E-04  7072   0.244E-03 0.113E-05
CGA:  36    -0.355211017039E+03   -0.17997E-04   -0.18005E-04  7072   0.102E-03-0.446E-06
CGA:  37    -0.355211025990E+03   -0.89509E-05   -0.89155E-05  7072   0.958E-04 0.116E-05
CGA:  38    -0.355211036737E+03   -0.10747E-04   -0.10656E-04  7072   0.114E-03 0.174E-05
CGA:  39    -0.355211041452E+03   -0.47154E-05   -0.47095E-05  7072   0.721E-04-0.208E-07
  20 F= -.35521104E+03 E0= -.35519599E+03  d E =0.218434E-01  mag=     8.0000
       N       E                     dE             d eps       ncg     rms          ort
SDA:   1    -0.354247482644E+03    0.96355E+00    0.00000E+00  7072   0.304E+01 0.000E+00
CGA:   2    -0.354598003465E+03   -0.35052E+00   -0.34326E+00  7072   0.760E+01 0.137E+00
CGA:   3    -0.354913976165E+03   -0.31597E+00   -0.31219E+00  7072   0.193E+01 0.755E-02
CGA:   4    -0.355047037558E+03   -0.13306E+00   -0.13275E+00  7072   0.168E+01 0.291E-01
CGA:   5    -0.355178291629E+03   -0.13125E+00   -0.13159E+00  7072   0.115E+01-0.164E-01
CGA:   6    -0.355208405075E+03   -0.30113E-01   -0.31324E-01  7072   0.240E+00-0.280E-01
CGA:   7    -0.355224980740E+03   -0.16576E-01   -0.16595E-01  7072   0.163E+00-0.136E-02
CGA:   8    -0.355234624327E+03   -0.96436E-02   -0.96464E-02  7072   0.133E+00 0.472E-03
CGA:   9    -0.355240101735E+03   -0.54774E-02   -0.54677E-02  7072   0.481E-01-0.986E-05
CGA:  10    -0.355242494731E+03   -0.23930E-02   -0.24024E-02  7072   0.251E-01 0.237E-03
CGA:  11    -0.355244077137E+03   -0.15824E-02   -0.15826E-02  7072   0.226E-01-0.505E-04
CGA:  12    -0.355245572183E+03   -0.14950E-02   -0.14949E-02  7072   0.155E-01 0.105E-04
CGA:  13    -0.355246065940E+03   -0.49376E-03   -0.49336E-03  7072   0.357E-02-0.154E-04
CGA:  14    -0.355246379598E+03   -0.31366E-03   -0.31418E-03  7072   0.401E-02-0.186E-04
CGA:  15    -0.355246610029E+03   -0.23043E-03   -0.23038E-03  7072   0.301E-02-0.162E-04
CGA:  16    -0.355246728794E+03   -0.11877E-03   -0.11877E-03  7072   0.114E-02-0.589E-05
CGA:  17    -0.355246809104E+03   -0.80310E-04   -0.80372E-04  7072   0.604E-03-0.548E-05
CGA:  18    -0.355246846777E+03   -0.37673E-04   -0.37667E-04  7072   0.865E-03 0.200E-05
CGA:  19    -0.355246899378E+03   -0.52601E-04   -0.52601E-04  7072   0.335E-03 0.182E-05
CGA:  20    -0.355246918383E+03   -0.19005E-04   -0.19014E-04  7072   0.248E-03 0.229E-05
CGA:  21    -0.355246935185E+03   -0.16802E-04   -0.16779E-04  7072   0.297E-03 0.325E-05
CGA:  22    -0.355246951560E+03   -0.16375E-04   -0.16411E-04  7072   0.145E-03 0.577E-05
CGA:  23    -0.355246960036E+03   -0.84760E-05   -0.84835E-05  7072   0.976E-04 0.264E-05
  21 F= -.35524696E+03 E0= -.35523180E+03  d E =-.359186E-01  mag=     8.0000
       N       E                     dE             d eps       ncg     rms          ort
SDA:   1    -0.355231527163E+03    0.15424E-01    0.00000E+00  7072   0.242E+00 0.000E+00
CGA:   2    -0.355236316434E+03   -0.47893E-02   -0.48740E-02  7072   0.407E-01-0.315E-02
CGA:   3    -0.355242059235E+03   -0.57428E-02   -0.57406E-02  7072   0.643E-01 0.314E-04
CGA:   4    -0.355245928541E+03   -0.38693E-02   -0.38694E-02  7072   0.203E-01 0.242E-04
CGA:   5    -0.355246941519E+03   -0.10130E-02   -0.10097E-02  7072   0.179E-01-0.695E-04
CGA:   6    -0.355247739974E+03   -0.79845E-03   -0.79827E-03  7072   0.741E-02-0.465E-06
CGA:   7    -0.355248286109E+03   -0.54614E-03   -0.54606E-03  7072   0.310E-02 0.416E-05
CGA:   8    -0.355248444865E+03   -0.15876E-03   -0.15877E-03  7072   0.154E-02-0.196E-05
CGA:   9    -0.355248508753E+03   -0.63887E-04   -0.63765E-04  7072   0.875E-03-0.320E-05
CGA:  10    -0.355248565849E+03   -0.57097E-04   -0.57094E-04  7072   0.795E-03 0.421E-06
CGA:  11    -0.355248603463E+03   -0.37613E-04   -0.37582E-04  7072   0.178E-03-0.151E-05
CGA:  12    -0.355248619260E+03   -0.15797E-04   -0.15883E-04  7072   0.195E-03-0.287E-05
CGA:  13    -0.355248626582E+03   -0.73222E-05   -0.72764E-05  7072   0.120E-03-0.196E-05
CGA:  14    -0.355248636633E+03   -0.10051E-04   -0.10092E-04  7072   0.595E-04-0.166E-05
CGA:  15    -0.355248639762E+03   -0.31296E-05   -0.31225E-05  7072   0.291E-04-0.913E-06
  22 F= -.35524864E+03 E0= -.35523348E+03  d E =-.167973E-02  mag=     8.0000
       N       E                     dE             d eps       ncg     rms          ort
SDA:   1    -0.355047508601E+03    0.20113E+00    0.00000E+00  7072   0.932E+00 0.000E+00
CGA:   2    -0.355079198771E+03   -0.31690E-01   -0.31862E-01  7072   0.845E+00-0.245E-02
CGA:   3    -0.355204989574E+03   -0.12579E+00   -0.12625E+00  7072   0.462E+00-0.591E-02
CGA:   4    -0.355223003149E+03   -0.18014E-01   -0.18273E-01  7072   0.173E+00-0.130E-02
CGA:   5    -0.355241675931E+03   -0.18673E-01   -0.18698E-01  7072   0.133E+00-0.484E-03
CGA:   6    -0.355247645259E+03   -0.59693E-02   -0.59898E-02  7072   0.460E-01 0.413E-04
CGA:   7    -0.355249684013E+03   -0.20388E-02   -0.20338E-02  7072   0.318E-01-0.146E-04
CGA:   8    -0.355250992719E+03   -0.13087E-02   -0.13126E-02  7072   0.972E-02-0.258E-05
CGA:   9    -0.355252164601E+03   -0.11719E-02   -0.11719E-02  7072   0.544E-02 0.488E-07
CGA:  10    -0.355252449022E+03   -0.28442E-03   -0.28454E-03  7072   0.302E-02-0.943E-06
CGA:  11    -0.355252609716E+03   -0.16069E-03   -0.16056E-03  7072   0.219E-02-0.778E-05
CGA:  12    -0.355252703247E+03   -0.93532E-04   -0.93528E-04  7072   0.132E-02-0.487E-05
CGA:  13    -0.355252809618E+03   -0.10637E-03   -0.10657E-03  7072   0.805E-03-0.118E-04
CGA:  14    -0.355252847025E+03   -0.37407E-04   -0.37353E-04  7072   0.248E-03-0.441E-05
CGA:  15    -0.355252877670E+03   -0.30646E-04   -0.30888E-04  7072   0.441E-03-0.435E-05
CGA:  16    -0.355252894564E+03   -0.16893E-04   -0.16888E-04  7072   0.259E-03-0.121E-05
CGA:  17    -0.355252911415E+03   -0.16851E-04   -0.16852E-04  7072   0.144E-03-0.999E-06
CGA:  18    -0.355252922243E+03   -0.10828E-04   -0.10832E-04  7072   0.107E-03-0.600E-06
CGA:  19    -0.355252934113E+03   -0.11869E-04   -0.11872E-04  7072   0.173E-03-0.281E-06
CGA:  20    -0.355252944250E+03   -0.10137E-04   -0.10149E-04  7072   0.875E-04 0.980E-06
CGA:  21    -0.355252947421E+03   -0.31714E-05   -0.31882E-05  7072   0.481E-04 0.420E-06
  23 F= -.35525295E+03 E0= -.35523781E+03  d E =-.430766E-02  mag=     8.0000
       N       E                     dE             d eps       ncg     rms          ort
SDA:   1    -0.355223109382E+03    0.29835E-01    0.00000E+00  7072   0.210E+00 0.000E+00
CGA:   2    -0.355229631135E+03   -0.65218E-02   -0.67798E-02  7072   0.111E+00-0.413E-02
CGA:   3    -0.355237915568E+03   -0.82844E-02   -0.82860E-02  7072   0.174E+00-0.704E-04
CGA:   4    -0.355248794612E+03   -0.10879E-01   -0.10877E-01  7072   0.533E-01-0.321E-03
CGA:   5    -0.355251169416E+03   -0.23748E-02   -0.23753E-02  7072   0.192E-01 0.421E-05
CGA:   6    -0.355253000363E+03   -0.18309E-02   -0.18297E-02  7072   0.176E-01 0.372E-04
CGA:   7    -0.355253693638E+03   -0.69328E-03   -0.69323E-03  7072   0.694E-02 0.324E-05
CGA:   8    -0.355253927290E+03   -0.23365E-03   -0.23475E-03  7072   0.201E-02-0.103E-04
CGA:   9    -0.355254119848E+03   -0.19256E-03   -0.19272E-03  7072   0.133E-02-0.454E-05
CGA:  10    -0.355254219561E+03   -0.99714E-04   -0.99714E-04  7072   0.101E-02-0.470E-07
CGA:  11    -0.355254254647E+03   -0.35085E-04   -0.35013E-04  7072   0.337E-03-0.120E-05
CGA:  12    -0.355254272623E+03   -0.17977E-04   -0.17973E-04  7072   0.309E-03-0.442E-06
CGA:  13    -0.355254298005E+03   -0.25382E-04   -0.25405E-04  7072   0.147E-03-0.124E-05
CGA:  14    -0.355254305279E+03   -0.72743E-05   -0.72785E-05  7072   0.611E-04 0.278E-06
  24 F= -.35525431E+03 E0= -.35523916E+03  d E =-.135786E-02  mag=     8.0000
       N       E                     dE             d eps       ncg     rms          ort
SDA:   1    -0.354940467125E+03    0.31383E+00    0.00000E+00  7072   0.993E+00 0.000E+00
CGA:   2    -0.355001739059E+03   -0.61272E-01   -0.61233E-01  7072   0.215E+01-0.991E-02
CGA:   3    -0.355189035471E+03   -0.18730E+00   -0.18720E+00  7072   0.646E+00 0.292E-02
CGA:   4    -0.355214204226E+03   -0.25169E-01   -0.25574E-01  7072   0.269E+00-0.191E-02
CGA:   5    -0.355240222870E+03   -0.26019E-01   -0.26139E-01  7072   0.274E+00-0.296E-02
CGA:   6    -0.355249810813E+03   -0.95879E-02   -0.97524E-02  7072   0.102E+00-0.171E-02
CGA:   7    -0.355253156905E+03   -0.33461E-02   -0.33358E-02  7072   0.251E-01 0.163E-03
CGA:   8    -0.355255389152E+03   -0.22322E-02   -0.22316E-02  7072   0.200E-01 0.245E-04
CGA:   9    -0.355256997096E+03   -0.16079E-02   -0.16069E-02  7072   0.985E-02 0.417E-04
CGA:  10    -0.355257467529E+03   -0.47043E-03   -0.47051E-03  7072   0.465E-02-0.255E-05
CGA:  11    -0.355257632142E+03   -0.16461E-03   -0.16529E-03  7072   0.253E-02-0.616E-05
CGA:  12    -0.355257863793E+03   -0.23165E-03   -0.23180E-03  7072   0.248E-02-0.530E-05
CGA:  13    -0.355257975224E+03   -0.11143E-03   -0.11137E-03  7072   0.589E-03-0.306E-05
CGA:  14    -0.355258033403E+03   -0.58179E-04   -0.58148E-04  7072   0.332E-03 0.258E-06
CGA:  15    -0.355258066876E+03   -0.33474E-04   -0.33486E-04  7072   0.480E-03-0.749E-06
CGA:  16    -0.355258094703E+03   -0.27827E-04   -0.27827E-04  7072   0.300E-03-0.318E-06
CGA:  17    -0.355258104647E+03   -0.99441E-05   -0.99660E-05  7072   0.124E-03 0.366E-06
CGA:  18    -0.355258121197E+03   -0.16549E-04   -0.16572E-04  7072   0.216E-03-0.578E-06
CGA:  19    -0.355258133403E+03   -0.12207E-04   -0.12207E-04  7072   0.996E-04-0.244E-06
CGA:  20    -0.355258143986E+03   -0.10582E-04   -0.10598E-04  7072   0.474E-04-0.534E-06
CGA:  21    -0.355258148438E+03   -0.44522E-05   -0.44352E-05  7072   0.829E-04 0.530E-06
  25 F= -.35525815E+03 E0= -.35524297E+03  d E =-.384316E-02  mag=     8.0000
       N       E                     dE             d eps       ncg     rms          ort
SDA:   1    -0.353904872066E+03    0.13533E+01    0.00000E+00  7072   0.346E+01 0.000E+00
CGA:   2    -0.354719447490E+03   -0.81458E+00   -0.76462E+00  7072   0.491E+01 0.365E+00
CGA:   3    -0.354969155641E+03   -0.24971E+00   -0.20439E+00  7072   0.184E+01 0.714E+00
CGA:   4    -0.355081589234E+03   -0.11243E+00   -0.11216E+00  7072   0.152E+01-0.122E-02
CGA:   5    -0.355182347102E+03   -0.10076E+00   -0.10069E+00  7072   0.122E+01-0.310E-02
CGA:   6    -0.355230978103E+03   -0.48631E-01   -0.48225E-01  7072   0.271E+00 0.683E-02
CGA:   7    -0.355239294240E+03   -0.83161E-02   -0.83944E-02  7072   0.148E+00-0.156E-02
CGA:   8    -0.355250893663E+03   -0.11599E-01   -0.11606E-01  7072   0.986E-01-0.491E-03
CGA:   9    -0.355256333771E+03   -0.54401E-02   -0.54341E-02  7072   0.635E-01-0.821E-04
CGA:  10    -0.355258737884E+03   -0.24041E-02   -0.24092E-02  7072   0.260E-01-0.420E-04
CGA:  11    -0.355259810015E+03   -0.10721E-02   -0.10697E-02  7072   0.168E-01 0.148E-04
CGA:  12    -0.355260996338E+03   -0.11863E-02   -0.11862E-02  7072   0.135E-01 0.888E-05
CGA:  13    -0.355261722797E+03   -0.72646E-03   -0.72630E-03  7072   0.501E-02-0.667E-05
CGA:  14    -0.355261915929E+03   -0.19313E-03   -0.19298E-03  7072   0.355E-02 0.976E-06
CGA:  15    -0.355262111859E+03   -0.19593E-03   -0.19607E-03  7072   0.223E-02 0.758E-05
CGA:  16    -0.355262287467E+03   -0.17561E-03   -0.17558E-03  7072   0.212E-02 0.122E-05
CGA:  17    -0.355262400703E+03   -0.11324E-03   -0.11322E-03  7072   0.120E-02-0.876E-06
CGA:  18    -0.355262460917E+03   -0.60214E-04   -0.60346E-04  7072   0.871E-03 0.418E-05
CGA:  19    -0.355262499135E+03   -0.38218E-04   -0.38233E-04  7072   0.682E-03 0.684E-06
CGA:  20    -0.355262586181E+03   -0.87046E-04   -0.87101E-04  7072   0.650E-03-0.133E-05
CGA:  21    -0.355262615924E+03   -0.29743E-04   -0.29762E-04  7072   0.332E-03 0.691E-07
CGA:  22    -0.355262634450E+03   -0.18526E-04   -0.18526E-04  7072   0.371E-03-0.252E-07
CGA:  23    -0.355262656597E+03   -0.22147E-04   -0.22152E-04  7072   0.314E-03 0.610E-06
CGA:  24    -0.355262675159E+03   -0.18562E-04   -0.18559E-04  7072   0.207E-03-0.601E-06
CGA:  25    -0.355262688950E+03   -0.13790E-04   -0.13788E-04  7072   0.952E-04 0.692E-06
CGA:  26    -0.355262694243E+03   -0.52934E-05   -0.53034E-05  7072   0.111E-03 0.103E-05
  26 F= -.35526269E+03 E0= -.35524752E+03  d E =-.454581E-02  mag=     8.0000
       N       E                     dE             d eps       ncg     rms          ort
SDA:   1    -0.341657819690E+03    0.13605E+02    0.00000E+00  7072   0.459E+02 0.000E+00
CGA:   2    -0.346405897820E+03   -0.47481E+01   -0.43935E+01  7072   0.573E+02 0.833E+01
CGA:   3    -0.349548656280E+03   -0.31428E+01   -0.28465E+01  7072   0.337E+02 0.290E+01
CGA:   4    -0.351687314662E+03   -0.21387E+01   -0.21381E+01  7072   0.284E+02 0.538E-01
CGA:   5    -0.352733301927E+03   -0.10460E+01   -0.95659E+00  7072   0.324E+02 0.120E+01
CGA:   6    -0.353682443115E+03   -0.94914E+00   -0.78163E+00  7072   0.978E+01 0.546E+01
CGA:   7    -0.353997105991E+03   -0.31466E+00   -0.30639E+00  7072   0.106E+02 0.234E+00
CGA:   8    -0.354321898674E+03   -0.32479E+00   -0.32805E+00  7072   0.831E+01-0.499E-01
CGA:   9    -0.354479547101E+03   -0.15765E+00   -0.15734E+00  7072   0.471E+01 0.218E-01
CGA:  10    -0.354573364412E+03   -0.93817E-01   -0.86011E-01  7072   0.199E+01 0.330E+00
CGA:  11    -0.354622426010E+03   -0.49062E-01   -0.51515E-01  7072   0.213E+01-0.589E-01
CGA:  12    -0.354674559825E+03   -0.52134E-01   -0.55780E-01  7072   0.147E+01-0.596E-01
CGA:  13    -0.354711441382E+03   -0.36882E-01   -0.38142E-01  7072   0.128E+01-0.194E-01
CGA:  14    -0.354745609547E+03   -0.34168E-01   -0.33825E-01  7072   0.622E+00 0.472E-02
CGA:  15    -0.354761355224E+03   -0.15746E-01   -0.16050E-01  7072   0.586E+00-0.487E-02
CGA:  16    -0.354779087727E+03   -0.17733E-01   -0.18001E-01  7072   0.235E+00-0.126E-03
CGA:  17    -0.354784689641E+03   -0.56019E-02   -0.57794E-02  7072   0.209E+00-0.303E-02
CGA:  18    -0.354796694718E+03   -0.12005E-01   -0.11951E-01  7072   0.241E+00 0.306E-02
CGA:  19    -0.354802781090E+03   -0.60864E-02   -0.61601E-02  7072   0.127E+00-0.100E-02
CGA:  20    -0.354807032153E+03   -0.42511E-02   -0.42743E-02  7072   0.513E-01 0.365E-03
CGA:  21    -0.354808513099E+03   -0.14809E-02   -0.14879E-02  7072   0.421E-01 0.481E-06
CGA:  22    -0.354810565363E+03   -0.20523E-02   -0.20511E-02  7072   0.345E-01 0.139E-03
CGA:  23    -0.354811835297E+03   -0.12699E-02   -0.12724E-02  7072   0.335E-01 0.114E-03
CGA:  24    -0.354813288047E+03   -0.14528E-02   -0.14529E-02  7072   0.251E-01 0.453E-03
CGA:  25    -0.354814164202E+03   -0.87615E-03   -0.87877E-03  7072   0.960E-02 0.761E-04
CGA:  26    -0.354814435216E+03   -0.27101E-03   -0.27081E-03  7072   0.603E-02-0.336E-05
CGA:  27    -0.354814862180E+03   -0.42696E-03   -0.42577E-03  7072   0.800E-02 0.391E-04
CGA:  28    -0.354815194176E+03   -0.33200E-03   -0.33222E-03  7072   0.806E-02 0.501E-04
CGA:  29    -0.354815517416E+03   -0.32324E-03   -0.32327E-03  7072   0.356E-02 0.702E-05
CGA:  30    -0.354815701915E+03   -0.18450E-03   -0.18445E-03  7072   0.449E-02 0.409E-05
CGA:  31    -0.354815841116E+03   -0.13920E-03   -0.13960E-03  7072   0.153E-02 0.658E-05
SDA:  32    -0.354815953545E+03   -0.11243E-03   -0.11199E-03  7072   0.320E-02 0.140E-04
CGA:  33    -0.354816016654E+03   -0.63109E-04   -0.62931E-04  7072   0.560E-03 0.106E-05
CGA:  34    -0.354816084676E+03   -0.68022E-04   -0.68071E-04  7072   0.118E-02-0.766E-06
CGA:  35    -0.354816167324E+03   -0.82648E-04   -0.82638E-04  7072   0.936E-03 0.506E-06
CGA:  36    -0.354816228184E+03   -0.60860E-04   -0.60810E-04  7072   0.423E-03 0.272E-05
CGA:  37    -0.354816249731E+03   -0.21548E-04   -0.21548E-04  7072   0.307E-03-0.731E-07
CGA:  38    -0.354816264043E+03   -0.14311E-04   -0.14308E-04  7072   0.335E-03-0.923E-06
CGA:  39    -0.354816302605E+03   -0.38563E-04   -0.38323E-04  7072   0.291E-03 0.355E-05
CGA:  40    -0.354816326158E+03   -0.23553E-04   -0.23556E-04  7072   0.182E-03-0.196E-06
CGA:  41    -0.354816341353E+03   -0.15194E-04   -0.15241E-04  7072   0.130E-03-0.165E-05
CGA:  42    -0.354816354624E+03   -0.13271E-04   -0.13264E-04  7072   0.313E-03 0.224E-07
CGA:  43    -0.354816364999E+03   -0.10375E-04   -0.10362E-04  7072   0.507E-04-0.612E-06
CGA:  44    -0.354816374416E+03   -0.94175E-05   -0.94802E-05  7072   0.982E-04-0.527E-06
  27 F= -.35481637E+03 E0= -.35480014E+03  d E =0.446320E+00  mag=     8.0000
       N       E                     dE             d eps       ncg     rms          ort
SDA:   1    -0.351484945538E+03    0.33314E+01    0.00000E+00  7072   0.333E+02 0.000E+00
CGA:   2    -0.352225847990E+03   -0.74090E+00   -0.11365E+01  7072   0.229E+02-0.395E+01
CGA:   3    -0.353278813921E+03   -0.10530E+01   -0.10512E+01  7072   0.140E+02-0.689E-01
CGA:   4    -0.354131283523E+03   -0.85247E+00   -0.85260E+00  7072   0.763E+01-0.403E+00
CGA:   5    -0.354533097928E+03   -0.40181E+00   -0.40204E+00  7072   0.617E+01 0.162E-01
CGA:   6    -0.354888729834E+03   -0.35563E+00   -0.35872E+00  7072   0.371E+01 0.576E+00
CGA:   7    -0.355015314575E+03   -0.12658E+00   -0.11729E+00  7072   0.140E+01 0.172E+00
CGA:   8    -0.355103021347E+03   -0.87707E-01   -0.87662E-01  7072   0.693E+00 0.187E-01
CGA:   9    -0.355144225074E+03   -0.41204E-01   -0.41216E-01  7072   0.545E+00 0.279E-01
CGA:  10    -0.355162884810E+03   -0.18660E-01   -0.18529E-01  7072   0.285E+00 0.179E-02
CGA:  11    -0.355178381211E+03   -0.15496E-01   -0.15496E-01  7072   0.172E+00-0.286E-04
CGA:  12    -0.355187110444E+03   -0.87292E-02   -0.87652E-02  7072   0.871E-01 0.218E-02
CGA:  13    -0.355191894211E+03   -0.47838E-02   -0.47832E-02  7072   0.649E-01-0.691E-04
CGA:  14    -0.355195128704E+03   -0.32345E-02   -0.32454E-02  7072   0.545E-01 0.611E-03
CGA:  15    -0.355197267917E+03   -0.21392E-02   -0.21445E-02  7072   0.206E-01 0.466E-04
CGA:  16    -0.355198881197E+03   -0.16133E-02   -0.16133E-02  7072   0.107E-01 0.762E-05
CGA:  17    -0.355199716074E+03   -0.83488E-03   -0.83036E-03  7072   0.799E-02 0.174E-03
CGA:  18    -0.355200026365E+03   -0.31029E-03   -0.31055E-03  7072   0.611E-02 0.136E-04
CGA:  19    -0.355200448985E+03   -0.42262E-03   -0.42172E-03  7072   0.405E-02 0.578E-04
CGA:  20    -0.355200664018E+03   -0.21503E-03   -0.21508E-03  7072   0.227E-02 0.848E-05
CGA:  21    -0.355200813356E+03   -0.14934E-03   -0.14916E-03  7072   0.124E-02 0.150E-04
CGA:  22    -0.355200932337E+03   -0.11898E-03   -0.11911E-03  7072   0.111E-02-0.363E-05
CGA:  23    -0.355201004983E+03   -0.72646E-04   -0.72697E-04  7072   0.127E-02-0.802E-05
CGA:  24    -0.355201054037E+03   -0.49055E-04   -0.49117E-04  7072   0.637E-03-0.307E-05
CGA:  25    -0.355201097258E+03   -0.43220E-04   -0.43243E-04  7072   0.316E-03-0.301E-05
CGA:  26    -0.355201126437E+03   -0.29179E-04   -0.29421E-04  7072   0.272E-03-0.722E-05
CGA:  27    -0.355201141989E+03   -0.15553E-04   -0.15547E-04  7072   0.216E-03-0.290E-05
CGA:  28    -0.355201152779E+03   -0.10790E-04   -0.10762E-04  7072   0.142E-03-0.268E-05
CGA:  29    -0.355201158883E+03   -0.61039E-05   -0.60799E-05  7072   0.951E-04-0.151E-05
  28 F= -.35520116E+03 E0= -.35518551E+03  d E =-.384784E+00  mag=     8.0000
[...]
  68 F= -.35529619E+03 E0= -.35528063E+03  d E =-.206729E-02  mag=     8.0000
       N       E                     dE             d eps       ncg     rms          ort
SDA:   1    -0.355256327623E+03    0.39857E-01    0.00000E+00  7072   0.300E+00 0.000E+00
CGA:   2    -0.355263749442E+03   -0.74218E-02   -0.73578E-02  7072   0.134E+00 0.152E-02
CGA:   3    -0.355281307377E+03   -0.17558E-01   -0.17524E-01  7072   0.135E+00 0.494E-03
CGA:   4    -0.355289113621E+03   -0.78062E-02   -0.78092E-02  7072   0.628E-01 0.517E-03
CGA:   5    -0.355293181724E+03   -0.40681E-02   -0.40693E-02  7072   0.358E-01-0.168E-03
CGA:   6    -0.355295502241E+03   -0.23205E-02   -0.23203E-02  7072   0.188E-01 0.583E-05
CGA:   7    -0.355296520621E+03   -0.10184E-02   -0.10182E-02  7072   0.127E-01-0.321E-04
CGA:   8    -0.355296887528E+03   -0.36691E-03   -0.36789E-03  7072   0.335E-02-0.302E-04
CGA:   9    -0.355297257325E+03   -0.36980E-03   -0.37003E-03  7072   0.237E-02-0.448E-05
CGA:  10    -0.355297376630E+03   -0.11931E-03   -0.11928E-03  7072   0.867E-03-0.308E-05
CGA:  11    -0.355297451118E+03   -0.74488E-04   -0.74611E-04  7072   0.770E-03-0.471E-05
CGA:  12    -0.355297476594E+03   -0.25476E-04   -0.25471E-04  7072   0.385E-03-0.166E-05
CGA:  13    -0.355297504706E+03   -0.28112E-04   -0.28164E-04  7072   0.388E-03-0.399E-05
CGA:  14    -0.355297524479E+03   -0.19773E-04   -0.19739E-04  7072   0.867E-04-0.344E-05
CGA:  15    -0.355297530737E+03   -0.62574E-05   -0.62921E-05  7072   0.731E-04-0.284E-05
  69 F= -.35529753E+03 E0= -.35528197E+03  d E =-.133958E-02  mag=     8.0000
       N       E                     dE             d eps       ncg     rms          ort
SDA:   1    -0.355282597257E+03    0.14927E-01    0.00000E+00  7072   0.346E+00 0.000E+00
CGA:   2    -0.355288755437E+03   -0.61582E-02   -0.63387E-02  7072   0.335E-01-0.802E-02
CGA:   3    -0.355291991804E+03   -0.32364E-02   -0.32359E-02  7072   0.382E-01 0.131E-04
CGA:   4    -0.355294762815E+03   -0.27710E-02   -0.27689E-02  7072   0.360E-01 0.141E-03
CGA:   5    -0.355296212801E+03   -0.14500E-02   -0.14454E-02  7072   0.173E-01 0.133E-04
CGA:   6    -0.355296899887E+03   -0.68709E-03   -0.68736E-03  7072   0.427E-02-0.246E-05
CGA:   7    -0.355297306283E+03   -0.40640E-03   -0.40711E-03  7072   0.589E-02-0.195E-04
CGA:   8    -0.355297542440E+03   -0.23616E-03   -0.23620E-03  7072   0.166E-02-0.661E-05
CGA:   9    -0.355297598755E+03   -0.56315E-04   -0.56242E-04  7072   0.715E-03-0.123E-05
CGA:  10    -0.355297650724E+03   -0.51969E-04   -0.51949E-04  7072   0.429E-03 0.157E-05
CGA:  11    -0.355297674306E+03   -0.23581E-04   -0.23580E-04  7072   0.270E-03-0.124E-06
CGA:  12    -0.355297686878E+03   -0.12572E-04   -0.12574E-04  7072   0.215E-03 0.120E-06
CGA:  13    -0.355297697671E+03   -0.10793E-04   -0.10779E-04  7072   0.601E-04-0.131E-05
CGA:  14    -0.355297702804E+03   -0.51335E-05   -0.51626E-05  7072   0.812E-04-0.108E-05
  70 F= -.35529770E+03 E0= -.35528213E+03  d E =-.172067E-03  mag=     8.0000
       N       E                     dE             d eps       ncg     rms          ort
SDA:   1    -0.355267872538E+03    0.29825E-01    0.00000E+00  7072   0.207E+00 0.000E+00
CGA:   2    -0.355273077435E+03   -0.52049E-02   -0.51701E-02  7072   0.956E-01 0.836E-03
CGA:   3    -0.355285833473E+03   -0.12756E-01   -0.12742E-01  7072   0.147E+00 0.196E-03
CGA:   4    -0.355293041872E+03   -0.72084E-02   -0.72062E-02  7072   0.229E-01-0.428E-04
CGA:   5    -0.355295829887E+03   -0.27880E-02   -0.27892E-02  7072   0.223E-01-0.197E-04
CGA:   6    -0.355296651807E+03   -0.82192E-03   -0.82356E-03  7072   0.133E-01-0.192E-04
CGA:   7    -0.355297214789E+03   -0.56298E-03   -0.56279E-03  7072   0.435E-02-0.683E-05
CGA:   8    -0.355297468600E+03   -0.25381E-03   -0.25381E-03  7072   0.145E-02-0.230E-06
CGA:   9    -0.355297618878E+03   -0.15028E-03   -0.15027E-03  7072   0.129E-02 0.488E-06
CGA:  10    -0.355297677833E+03   -0.58955E-04   -0.58999E-04  7072   0.513E-03 0.219E-05
CGA:  11    -0.355297707433E+03   -0.29600E-04   -0.29597E-04  7072   0.496E-03-0.442E-06
CGA:  12    -0.355297726248E+03   -0.18814E-04   -0.18809E-04  7072   0.192E-03-0.320E-06
CGA:  13    -0.355297739879E+03   -0.13631E-04   -0.13653E-04  7072   0.155E-03-0.223E-05
CGA:  14    -0.355297751748E+03   -0.11869E-04   -0.11906E-04  7072   0.428E-04-0.236E-05
CGA:  15    -0.355297756177E+03   -0.44291E-05   -0.44731E-05  7072   0.980E-04-0.101E-05
  71 F= -.35529776E+03 E0= -.35528216E+03  d E =-.533724E-04  mag=     8.0000
       N       E                     dE             d eps       ncg     rms          ort
SDA:   1    -0.354899292684E+03    0.39846E+00    0.00000E+00  7072   0.103E+02 0.000E+00
CGA:   2    -0.355088038568E+03   -0.18875E+00   -0.17388E+00  7072   0.538E+00 0.444E+00
CGA:   3    -0.355165232022E+03   -0.77193E-01   -0.79642E-01  7072   0.237E+01-0.320E-01
CGA:   4    -0.355234694307E+03   -0.69462E-01   -0.69630E-01  7072   0.767E+00-0.507E-02
CGA:   5    -0.355260815762E+03   -0.26121E-01   -0.27416E-01  7072   0.297E+00-0.126E-01
CGA:   6    -0.355269415811E+03   -0.86000E-02   -0.86457E-02  7072   0.218E+00-0.895E-03
CGA:   7    -0.355288116512E+03   -0.18701E-01   -0.18701E-01  7072   0.163E+00-0.517E-04
CGA:   8    -0.355291922305E+03   -0.38058E-02   -0.37993E-02  7072   0.473E-01 0.191E-03
CGA:   9    -0.355293831902E+03   -0.19096E-02   -0.19062E-02  7072   0.231E-01 0.141E-05
CGA:  10    -0.355295081837E+03   -0.12499E-02   -0.12498E-02  7072   0.268E-01-0.642E-05
CGA:  11    -0.355295953858E+03   -0.87202E-03   -0.87311E-03  7072   0.114E-01 0.409E-05
CGA:  12    -0.355296745519E+03   -0.79166E-03   -0.79125E-03  7072   0.987E-02 0.262E-04
CGA:  13    -0.355296981219E+03   -0.23570E-03   -0.23576E-03  7072   0.245E-02-0.354E-05
CGA:  14    -0.355297116831E+03   -0.13561E-03   -0.13561E-03  7072   0.282E-02 0.216E-05
CGA:  15    -0.355297302006E+03   -0.18518E-03   -0.18515E-03  7072   0.311E-02 0.247E-05
CGA:  16    -0.355297386520E+03   -0.84514E-04   -0.84320E-04  7072   0.740E-03 0.106E-05
CGA:  17    -0.355297428212E+03   -0.41692E-04   -0.41696E-04  7072   0.644E-03-0.356E-05
CGA:  18    -0.355297454665E+03   -0.26453E-04   -0.26439E-04  7072   0.575E-03-0.145E-05
CGA:  19    -0.355297481941E+03   -0.27275E-04   -0.27264E-04  7072   0.341E-03-0.175E-05
CGA:  20    -0.355297506414E+03   -0.24473E-04   -0.24479E-04  7072   0.410E-03-0.321E-06
CGA:  21    -0.355297517065E+03   -0.10651E-04   -0.10666E-04  7072   0.112E-03 0.354E-06
CGA:  22    -0.355297528219E+03   -0.11154E-04   -0.11181E-04  7072   0.218E-03-0.693E-06
CGA:  23    -0.355297537105E+03   -0.88865E-05   -0.88797E-05  7072   0.205E-03-0.530E-06
CGA:  24    -0.355297548066E+03   -0.10960E-04   -0.10962E-04  7072   0.970E-04 0.963E-06
CGA:  25    -0.355297553036E+03   -0.49703E-05   -0.49720E-05  7072   0.121E-03 0.323E-06
  72 F= -.35529755E+03 E0= -.35528200E+03  d E =0.203141E-03  mag=     8.0000
       N       E                     dE             d eps       ncg     rms          ort
SDA:   1    -0.355152010591E+03    0.14554E+00    0.00000E+00  7072   0.447E+00 0.000E+00
CGA:   2    -0.355200486757E+03   -0.48476E-01   -0.49433E-01  7072   0.117E+01-0.170E-01
CGA:   3    -0.355250624790E+03   -0.50138E-01   -0.50265E-01  7072   0.533E+00 0.231E-02
CGA:   4    -0.355269150687E+03   -0.18526E-01   -0.18610E-01  7072   0.170E+00-0.545E-03
CGA:   5    -0.355283977980E+03   -0.14827E-01   -0.14770E-01  7072   0.134E+00 0.155E-02
CGA:   6    -0.355291570080E+03   -0.75921E-02   -0.75924E-02  7072   0.556E-01 0.256E-03
CGA:   7    -0.355294578309E+03   -0.30082E-02   -0.30071E-02  7072   0.266E-01-0.190E-03
CGA:   8    -0.355295412590E+03   -0.83428E-03   -0.83967E-03  7072   0.132E-01-0.484E-04
CGA:   9    -0.355296390637E+03   -0.97805E-03   -0.97743E-03  7072   0.890E-02 0.297E-04
CGA:  10    -0.355296967090E+03   -0.57645E-03   -0.57655E-03  7072   0.197E-02-0.522E-05
CGA:  11    -0.355297218173E+03   -0.25108E-03   -0.25075E-03  7072   0.137E-02 0.468E-05
CGA:  12    -0.355297316930E+03   -0.98757E-04   -0.98731E-04  7072   0.147E-02 0.158E-05
CGA:  13    -0.355297376064E+03   -0.59134E-04   -0.59068E-04  7072   0.709E-03-0.327E-05
CGA:  14    -0.355297404603E+03   -0.28539E-04   -0.28521E-04  7072   0.281E-03-0.166E-05
CGA:  15    -0.355297435849E+03   -0.31246E-04   -0.31391E-04  7072   0.433E-03-0.271E-05
CGA:  16    -0.355297460678E+03   -0.24829E-04   -0.24820E-04  7072   0.141E-03-0.254E-05
CGA:  17    -0.355297473522E+03   -0.12843E-04   -0.12887E-04  7072   0.175E-03-0.143E-05
CGA:  18    -0.355297480558E+03   -0.70367E-05   -0.70505E-05  7072   0.143E-03 0.532E-06
CGA:  19    -0.355297492469E+03   -0.11911E-04   -0.11875E-04  7072   0.145E-03 0.170E-05
CGA:  20    -0.355297504633E+03   -0.12163E-04   -0.12123E-04  7072   0.436E-04 0.200E-05
CGA:  21    -0.355297511984E+03   -0.73515E-05   -0.74089E-05  7072   0.571E-04-0.560E-06
  73 F= -.35529751E+03 E0= -.35528194E+03  d E =0.410517E-04  mag=     8.0000
       N       E                     dE             d eps       ncg     rms          ort
SDA:   1    -0.354934580545E+03    0.36292E+00    0.00000E+00  7072   0.112E+01 0.000E+00
CGA:   2    -0.355052067906E+03   -0.11749E+00   -0.11707E+00  7072   0.225E+01 0.981E-02
CGA:   3    -0.355206362844E+03   -0.15429E+00   -0.15428E+00  7072   0.758E+00-0.202E-02
CGA:   4    -0.355239089186E+03   -0.32726E-01   -0.32630E-01  7072   0.466E+00 0.323E-03
CGA:   5    -0.355261046557E+03   -0.21957E-01   -0.21497E-01  7072   0.413E+00-0.202E-04
CGA:   6    -0.355286316596E+03   -0.25270E-01   -0.25316E-01  7072   0.777E-01 0.272E-02
CGA:   7    -0.355291347906E+03   -0.50313E-02   -0.50307E-02  7072   0.432E-01-0.823E-04
CGA:   8    -0.355294474324E+03   -0.31264E-02   -0.31272E-02  7072   0.175E-01-0.906E-04
CGA:   9    -0.355296080173E+03   -0.16058E-02   -0.16052E-02  7072   0.130E-01 0.268E-04
CGA:  10    -0.355296550138E+03   -0.46996E-03   -0.47074E-03  7072   0.594E-02 0.137E-05
CGA:  11    -0.355296853830E+03   -0.30369E-03   -0.30347E-03  7072   0.504E-02-0.144E-05
CGA:  12    -0.355297120812E+03   -0.26698E-03   -0.26725E-03  7072   0.237E-02 0.787E-05
CGA:  13    -0.355297296616E+03   -0.17580E-03   -0.17573E-03  7072   0.113E-02 0.798E-05
CGA:  14    -0.355297384466E+03   -0.87851E-04   -0.87840E-04  7072   0.592E-03 0.991E-06
CGA:  15    -0.355297420320E+03   -0.35854E-04   -0.35845E-04  7072   0.972E-03-0.126E-05
CGA:  16    -0.355297475468E+03   -0.55148E-04   -0.55165E-04  7072   0.415E-03 0.678E-06
CGA:  17    -0.355297501270E+03   -0.25802E-04   -0.25803E-04  7072   0.235E-03 0.151E-06
CGA:  18    -0.355297529797E+03   -0.28527E-04   -0.28461E-04  7072   0.228E-03 0.114E-05
CGA:  19    -0.355297551479E+03   -0.21682E-04   -0.21655E-04  7072   0.416E-03 0.963E-06
CGA:  20    -0.355297566490E+03   -0.15011E-04   -0.15045E-04  7072   0.147E-03 0.460E-06
CGA:  21    -0.355297575795E+03   -0.93047E-05   -0.92965E-05  7072   0.105E-03-0.165E-05
CGA:  22    -0.355297587738E+03   -0.11944E-04   -0.12011E-04  7072   0.147E-03-0.142E-05
CGA:  23    -0.355297594947E+03   -0.72090E-05   -0.71864E-05  7072   0.480E-04-0.111E-05
  74 F= -.35529759E+03 E0= -.35528206E+03  d E =-.829629E-04  mag=     8.0000
       N       E                     dE             d eps       ncg     rms          ort
SDA:   1    -0.354244932379E+03    0.10527E+01    0.00000E+00  7072   0.297E+01 0.000E+00
CGA:   2    -0.354716852312E+03   -0.47192E+00   -0.44478E+00  7072   0.685E+01 0.341E+00
CGA:   3    -0.354993030499E+03   -0.27618E+00   -0.25774E+00  7072   0.208E+01 0.278E+00
CGA:   4    -0.355117864024E+03   -0.12483E+00   -0.12466E+00  7072   0.117E+01-0.293E-02
CGA:   5    -0.355233312242E+03   -0.11545E+00   -0.11600E+00  7072   0.860E+00-0.157E-01
CGA:   6    -0.355264506861E+03   -0.31195E-01   -0.31267E-01  7072   0.174E+00-0.744E-03
CGA:   7    -0.355274116129E+03   -0.96093E-02   -0.95208E-02  7072   0.207E+00-0.127E-02
CGA:   8    -0.355283797021E+03   -0.96809E-02   -0.97116E-02  7072   0.937E-01 0.861E-04
CGA:   9    -0.355288901434E+03   -0.51044E-02   -0.50952E-02  7072   0.242E-01-0.148E-03
CGA:  10    -0.355290922260E+03   -0.20208E-02   -0.20200E-02  7072   0.180E-01 0.367E-04
CGA:  11    -0.355292304092E+03   -0.13818E-02   -0.13828E-02  7072   0.157E-01-0.646E-04
CGA:  12    -0.355292870119E+03   -0.56603E-03   -0.56845E-03  7072   0.852E-02-0.164E-04
CGA:  13    -0.355293284905E+03   -0.41479E-03   -0.41525E-03  7072   0.291E-02 0.902E-05
CGA:  14    -0.355293522156E+03   -0.23725E-03   -0.23717E-03  7072   0.355E-02 0.487E-05
CGA:  15    -0.355293782962E+03   -0.26081E-03   -0.26081E-03  7072   0.190E-02-0.181E-05
CGA:  16    -0.355293886025E+03   -0.10306E-03   -0.10322E-03  7072   0.146E-02 0.466E-05
CGA:  17    -0.355293945260E+03   -0.59234E-04   -0.59195E-04  7072   0.108E-02-0.239E-06
CGA:  18    -0.355294073217E+03   -0.12796E-03   -0.12793E-03  7072   0.102E-02 0.454E-06
CGA:  19    -0.355294160698E+03   -0.87481E-04   -0.87446E-04  7072   0.577E-03 0.154E-05
CGA:  20    -0.355294192533E+03   -0.31835E-04   -0.31851E-04  7072   0.645E-03 0.390E-06
CGA:  21    -0.355294232310E+03   -0.39777E-04   -0.39765E-04  7072   0.728E-03-0.181E-05
CGA:  22    -0.355294277600E+03   -0.45290E-04   -0.45288E-04  7072   0.350E-03-0.395E-06
CGA:  23    -0.355294296536E+03   -0.18936E-04   -0.18930E-04  7072   0.163E-03-0.472E-06
CGA:  24    -0.355294313558E+03   -0.17022E-04   -0.17023E-04  7072   0.238E-03-0.120E-07
CGA:  25    -0.355294326378E+03   -0.12820E-04   -0.12805E-04  7072   0.193E-03-0.943E-06
CGA:  26    -0.355294333761E+03   -0.73826E-05   -0.73859E-05  7072   0.784E-04 0.526E-07
  75 F= -.35529433E+03 E0= -.35527879E+03  d E =0.326119E-02  mag=     8.0000
       N       E                     dE             d eps       ncg     rms          ort
SDA:   1    -0.353960527892E+03    0.13338E+01    0.00000E+00  7072   0.426E+01 0.000E+00
CGA:   2    -0.354267919688E+03   -0.30739E+00   -0.30749E+00  7072   0.107E+02-0.730E-02
CGA:   3    -0.354926792313E+03   -0.65887E+00   -0.65865E+00  7072   0.240E+01-0.126E-01
CGA:   4    -0.355073005658E+03   -0.14621E+00   -0.14590E+00  7072   0.141E+01-0.199E-01
CGA:   5    -0.355245990756E+03   -0.17299E+00   -0.17263E+00  7072   0.341E+00 0.551E-02
CGA:   6    -0.355259121153E+03   -0.13130E-01   -0.13191E-01  7072   0.292E+00-0.576E-03
CGA:   7    -0.355276816429E+03   -0.17695E-01   -0.17659E-01  7072   0.195E+00-0.182E-02
CGA:   8    -0.355285868504E+03   -0.90521E-02   -0.90794E-02  7072   0.503E-01 0.114E-03
CGA:   9    -0.355289088435E+03   -0.32199E-02   -0.32200E-02  7072   0.361E-01 0.257E-04
CGA:  10    -0.355291143176E+03   -0.20547E-02   -0.20551E-02  7072   0.303E-01 0.132E-04
CGA:  11    -0.355292645447E+03   -0.15023E-02   -0.15009E-02  7072   0.226E-01-0.133E-04
CGA:  12    -0.355293561439E+03   -0.91599E-03   -0.91696E-03  7072   0.443E-02-0.534E-05
CGA:  13    -0.355293912192E+03   -0.35075E-03   -0.35077E-03  7072   0.506E-02-0.478E-05
CGA:  14    -0.355294368870E+03   -0.45668E-03   -0.45709E-03  7072   0.507E-02-0.185E-04
CGA:  15    -0.355294509247E+03   -0.14038E-03   -0.14010E-03  7072   0.133E-02-0.849E-05
CGA:  16    -0.355294630385E+03   -0.12114E-03   -0.12107E-03  7072   0.131E-02 0.132E-05
CGA:  17    -0.355294751017E+03   -0.12063E-03   -0.12056E-03  7072   0.160E-02 0.216E-05
CGA:  18    -0.355294854424E+03   -0.10341E-03   -0.10341E-03  7072   0.166E-02 0.233E-05
CGA:  19    -0.355294915325E+03   -0.60901E-04   -0.60891E-04  7072   0.534E-03-0.846E-06
CGA:  20    -0.355294957283E+03   -0.41958E-04   -0.41921E-04  7072   0.846E-03 0.238E-05
CGA:  21    -0.355295036010E+03   -0.78727E-04   -0.78575E-04  7072   0.396E-03 0.557E-05
CGA:  22    -0.355295059188E+03   -0.23178E-04   -0.23191E-04  7072   0.418E-03 0.122E-05
CGA:  23    -0.355295076935E+03   -0.17747E-04   -0.17757E-04  7072   0.230E-03 0.215E-06
CGA:  24    -0.355295096158E+03   -0.19224E-04   -0.19178E-04  7072   0.183E-03 0.238E-05
CGA:  25    -0.355295112207E+03   -0.16049E-04   -0.16038E-04  7072   0.125E-03 0.491E-06
CGA:  26    -0.355295116544E+03   -0.43370E-05   -0.43490E-05  7072   0.777E-04 0.365E-06
  76 F= -.35529512E+03 E0= -.35527934E+03  d E =-.782783E-03  mag=     8.0000
       N       E                     dE             d eps       ncg     rms          ort
SDA:   1    -0.354887155962E+03    0.40796E+00    0.00000E+00  7072   0.134E+01 0.000E+00
CGA:   2    -0.354993585592E+03   -0.10643E+00   -0.10711E+00  7072   0.249E+01-0.355E-01
CGA:   3    -0.355164204267E+03   -0.17062E+00   -0.17051E+00  7072   0.183E+01 0.223E-01
CGA:   4    -0.355218916432E+03   -0.54712E-01   -0.53675E-01  7072   0.458E+00 0.215E-01
CGA:   5    -0.355254361009E+03   -0.35445E-01   -0.35426E-01  7072   0.498E+00 0.119E-02
CGA:   6    -0.355281558661E+03   -0.27198E-01   -0.27286E-01  7072   0.107E+00 0.218E-02
CGA:   7    -0.355289992130E+03   -0.84335E-02   -0.84270E-02  7072   0.563E-01 0.346E-03
CGA:   8    -0.355292628705E+03   -0.26366E-02   -0.26280E-02  7072   0.420E-01-0.305E-04
CGA:   9    -0.355294576142E+03   -0.19474E-02   -0.19472E-02  7072   0.263E-01 0.653E-05
CGA:  10    -0.355296058603E+03   -0.14825E-02   -0.14836E-02  7072   0.979E-02 0.552E-04
CGA:  11    -0.355296492093E+03   -0.43349E-03   -0.43436E-03  7072   0.475E-02 0.103E-04
CGA:  12    -0.355296991732E+03   -0.49964E-03   -0.49935E-03  7072   0.374E-02 0.704E-05
CGA:  13    -0.355297151124E+03   -0.15939E-03   -0.15953E-03  7072   0.290E-02 0.472E-05
CGA:  14    -0.355297286572E+03   -0.13545E-03   -0.13543E-03  7072   0.102E-02 0.290E-05
CGA:  15    -0.355297351472E+03   -0.64901E-04   -0.64900E-04  7072   0.619E-03 0.377E-05
CGA:  16    -0.355297422619E+03   -0.71147E-04   -0.71090E-04  7072   0.734E-03 0.101E-05
CGA:  17    -0.355297447374E+03   -0.24755E-04   -0.24816E-04  7072   0.275E-03 0.110E-05
CGA:  18    -0.355297463144E+03   -0.15769E-04   -0.15774E-04  7072   0.236E-03 0.612E-06
CGA:  19    -0.355297475212E+03   -0.12068E-04   -0.12077E-04  7072   0.120E-03 0.604E-06
CGA:  20    -0.355297491869E+03   -0.16657E-04   -0.16637E-04  7072   0.156E-03 0.176E-06
CGA:  21    -0.355297499085E+03   -0.72164E-05   -0.72213E-05  7072   0.906E-04 0.146E-06
  77 F= -.35529750E+03 E0= -.35528193E+03  d E =-.238254E-02  mag=     8.0000
       N       E                     dE             d eps       ncg     rms          ort
SDA:   1    -0.355225585200E+03    0.71907E-01    0.00000E+00  7072   0.248E+00 0.000E+00
CGA:   2    -0.355243592410E+03   -0.18007E-01   -0.18026E-01  7072   0.535E+00-0.135E-02
CGA:   3    -0.355272670543E+03   -0.29078E-01   -0.29109E-01  7072   0.250E+00 0.971E-03
CGA:   4    -0.355285073610E+03   -0.12403E-01   -0.12376E-01  7072   0.742E-01-0.350E-03
CGA:   5    -0.355294699467E+03   -0.96259E-02   -0.96359E-02  7072   0.427E-01-0.151E-03
CGA:   6    -0.355296963503E+03   -0.22640E-02   -0.22645E-02  7072   0.177E-01 0.124E-04
CGA:   7    -0.355297919867E+03   -0.95636E-03   -0.95634E-03  7072   0.125E-01 0.291E-05
CGA:   8    -0.355298418117E+03   -0.49825E-03   -0.49917E-03  7072   0.694E-02 0.184E-05
CGA:   9    -0.355298814367E+03   -0.39625E-03   -0.39615E-03  7072   0.415E-02-0.263E-05
CGA:  10    -0.355299013321E+03   -0.19895E-03   -0.19904E-03  7072   0.105E-02 0.501E-05
CGA:  11    -0.355299142057E+03   -0.12874E-03   -0.12858E-03  7072   0.111E-02 0.268E-05
CGA:  12    -0.355299200461E+03   -0.58404E-04   -0.58425E-04  7072   0.734E-03 0.176E-05
CGA:  13    -0.355299229567E+03   -0.29106E-04   -0.29106E-04  7072   0.414E-03 0.652E-06
CGA:  14    -0.355299250319E+03   -0.20751E-04   -0.20774E-04  7072   0.140E-03 0.161E-05
CGA:  15    -0.355299272462E+03   -0.22143E-04   -0.22129E-04  7072   0.189E-03 0.138E-06
CGA:  16    -0.355299282013E+03   -0.95515E-05   -0.95448E-05  7072   0.840E-04-0.484E-06
  78 F= -.35529928E+03 E0= -.35528373E+03  d E =-.178293E-02  mag=     8.0000
