       N       E                     dE             d eps       ncg     rms          ort
DAV:   1     0.847704111924E+04    0.84770E+04   -0.38454E+05  7296   0.188E+03
DAV:   2     0.574144557157E+03   -0.79029E+04   -0.73863E+04  7296   0.553E+02
DAV:   3    -0.324034485993E+03   -0.89818E+03   -0.86352E+03  7296   0.209E+02
DAV:   4    -0.355336455435E+03   -0.31302E+02   -0.30954E+02  7296   0.410E+01
DAV:   5    -0.355999817905E+03   -0.66336E+00   -0.65803E+00  7296   0.604E+00
SDA:   6     0.290078068654E+02    0.38501E+03   -0.65803E+00  7296   0.312E+04 0.000E+00
CGA:   7    -0.110356773191E+03   -0.13936E+03   -0.12021E+03  7296   0.121E+04 0.784E+03
CGA:   8    -0.208900326446E+03   -0.98544E+02   -0.95795E+02  7296   0.468E+03 0.148E+03
CGA:   9    -0.223318009762E+03   -0.14418E+02   -0.14438E+02  7296   0.277E+03-0.138E+03
CGA:  10    -0.216371939614E+03    0.69461E+01   -0.74685E+01  7296   0.191E+04-0.483E+03
CGA:  11    -0.195613152683E+03    0.20759E+02   -0.10496E+03  7296   0.212E+04-0.424E+03
CGA:  12    -0.207994822511E+03   -0.12382E+02   -0.43745E+02  7296   0.230E+04 0.434E+03
CGA:  13    -0.193286598878E+03    0.14708E+02   -0.91775E+02  7296   0.236E+04-0.145E+04
CGA:  14    -0.167618584736E+03    0.25668E+02   -0.96927E+02  7296   0.212E+04-0.991E+03
CGA:  15    -0.188946255177E+03   -0.21328E+02   -0.22166E+02  7296   0.566E+04 0.716E+03
CGA:  16    -0.949506470543E+02    0.93996E+02   -0.31952E+03  7296   0.815E+04-0.611E+04
CGA:  17    -0.243993714247E+03   -0.14904E+03   -0.27980E+03  7296   0.443E+03-0.596E+03
CGA:  18    -0.252378690352E+03   -0.83850E+01   -0.64163E+01  7296   0.120E+03 0.120E+03
CGA:  19    -0.257066615492E+03   -0.46879E+01   -0.36193E+01  7296   0.326E+02 0.347E+02
CGA:  20    -0.258157747468E+03   -0.10911E+01   -0.16071E+01  7296   0.419E+02-0.110E+02
CGA:  21    -0.258514578652E+03   -0.35683E+00   -0.19239E+00  7296   0.434E+02 0.240E+02
CGA:  22    -0.259771726122E+03   -0.12571E+01   -0.89666E+00  7296   0.154E+02 0.152E+02
CGA:  23    -0.260997120422E+03   -0.12254E+01   -0.14207E+01  7296   0.320E+02 0.761E-01
CGA:  24    -0.262944754804E+03   -0.19476E+01   -0.14981E+01  7296   0.377E+02 0.506E+01
CGA:  25    -0.263524693807E+03   -0.57994E+00   -0.10049E+01  7296   0.271E+02-0.226E+02
CGA:  26    -0.264515774579E+03   -0.99108E+00   -0.11021E+01  7296   0.806E+01-0.263E+01
CGA:  27    -0.265810071632E+03   -0.12943E+01   -0.14605E+01  7296   0.233E+02-0.276E+01
CGA:  28    -0.266211829526E+03   -0.40176E+00   -0.49785E+00  7296   0.210E+02 0.497E+00
CGA:  29    -0.266767964996E+03   -0.55614E+00   -0.67816E+00  7296   0.120E+02-0.472E+01
CGA:  30    -0.267048836110E+03   -0.28087E+00   -0.31285E+00  7296   0.817E+01-0.712E+00
CGA:  31    -0.267340840319E+03   -0.29200E+00   -0.34058E+00  7296   0.555E+01-0.368E+00
CGA:  32    -0.267584298182E+03   -0.24346E+00   -0.24411E+00  7296   0.356E+01-0.240E-01
CGA:  33    -0.267787410286E+03   -0.20311E+00   -0.20283E+00  7296   0.309E+01 0.115E-01
CGA:  34    -0.267954365607E+03   -0.16696E+00   -0.16989E+00  7296   0.273E+01 0.420E-02
CGA:  35    -0.268122260723E+03   -0.16790E+00   -0.16768E+00  7296   0.267E+01 0.386E-02
CGA:  36    -0.268276167097E+03   -0.15391E+00   -0.15380E+00  7296   0.236E+01-0.126E-02
CGA:  37    -0.268411973667E+03   -0.13581E+00   -0.13803E+00  7296   0.214E+01 0.133E-01
CGA:  38    -0.268544860242E+03   -0.13289E+00   -0.13210E+00  7296   0.184E+01-0.113E-01
CGA:  39    -0.268650979118E+03   -0.10612E+00   -0.10624E+00  7296   0.141E+01 0.240E-03
CGA:  40    -0.268726972626E+03   -0.75994E-01   -0.76159E-01  7296   0.102E+01-0.215E-02
CGA:  41    -0.268792090817E+03   -0.65118E-01   -0.65286E-01  7296   0.101E+01 0.368E-02
CGA:  42    -0.268865199315E+03   -0.73108E-01   -0.73198E-01  7296   0.104E+01 0.118E-01
CGA:  43    -0.268929959887E+03   -0.64761E-01   -0.63927E-01  7296   0.780E+00-0.150E-01
CGA:  44    -0.268977599557E+03   -0.47640E-01   -0.48323E-01  7296   0.768E+00 0.177E-01
CGA:  45    -0.269047096351E+03   -0.69497E-01   -0.10063E+00  7296   0.167E+01-0.421E+00
CGA:  46    -0.269136889201E+03   -0.89793E-01   -0.89914E-01  7296   0.182E+00 0.283E-03
CGA:  47    -0.269361268663E+03   -0.22438E+00   -0.13500E+00  7296   0.176E+01 0.180E+00
CGA:  48    -0.269459878617E+03   -0.98610E-01   -0.95803E-01  7296   0.367E+00 0.376E-01
CGA:  49    -0.269546120766E+03   -0.86242E-01   -0.87203E-01  7296   0.942E+00-0.827E-02
CGA:  50    -0.269661013626E+03   -0.11489E+00   -0.74472E-01  7296   0.507E+00 0.315E+00
CGA:  51    -0.269694658462E+03   -0.33645E-01   -0.27146E-01  7296   0.425E+00 0.120E+00
CGA:  52    -0.269718720290E+03   -0.24062E-01   -0.25499E-01  7296   0.430E+00-0.156E-01
CGA:  53    -0.269732809057E+03   -0.14089E-01   -0.12020E-01  7296   0.300E+00 0.644E-01
CGA:  54    -0.269744038347E+03   -0.11229E-01   -0.96199E-02  7296   0.246E+00 0.494E-01
CGA:  55    -0.269753500610E+03   -0.94623E-02   -0.91142E-02  7296   0.211E+00 0.102E-01
CGA:  56    -0.269759271820E+03   -0.57712E-02   -0.59503E-02  7296   0.144E+00-0.625E-02
CGA:  57    -0.269763420656E+03   -0.41488E-02   -0.42318E-02  7296   0.151E+00-0.286E-02
CGA:  58    -0.269768515456E+03   -0.50948E-02   -0.51337E-02  7296   0.155E+00-0.909E-03
CGA:  59    -0.269772487528E+03   -0.39721E-02   -0.38146E-02  7296   0.963E-01 0.547E-02
CGA:  60    -0.269775222600E+03   -0.27351E-02   -0.27204E-02  7296   0.825E-01 0.453E-03
CGA:  61    -0.269777807497E+03   -0.25849E-02   -0.26114E-02  7296   0.731E-01-0.777E-03
CGA:  62    -0.269779652455E+03   -0.18450E-02   -0.18656E-02  7296   0.492E-01-0.106E-02
CGA:  63    -0.269781158939E+03   -0.15065E-02   -0.15194E-02  7296   0.534E-01-0.561E-03
CGA:  64    -0.269782935095E+03   -0.17762E-02   -0.17814E-02  7296   0.485E-01-0.175E-03
CGA:  65    -0.269784100445E+03   -0.11654E-02   -0.11569E-02  7296   0.267E-01 0.439E-03
CGA:  66    -0.269784848415E+03   -0.74797E-03   -0.74488E-03  7296   0.248E-01 0.236E-03
CGA:  67    -0.269785710383E+03   -0.86197E-03   -0.86235E-03  7296   0.275E-01 0.461E-04
CGA:  68    -0.269786473431E+03   -0.76305E-03   -0.76955E-03  7296   0.216E-01-0.261E-03
CGA:  69    -0.269787130152E+03   -0.65672E-03   -0.66284E-03  7296   0.226E-01-0.260E-03
CGA:  70    -0.269787840038E+03   -0.70989E-03   -0.71032E-03  7296   0.186E-01-0.750E-04
CGA:  71    -0.269788280205E+03   -0.44017E-03   -0.43759E-03  7296   0.103E-01 0.145E-03
CGA:  72    -0.269788601541E+03   -0.32134E-03   -0.32094E-03  7296   0.119E-01 0.840E-04
CGA:  73    -0.269789089511E+03   -0.48797E-03   -0.48744E-03  7296   0.157E-01 0.366E-04
CGA:  74    -0.269789507870E+03   -0.41836E-03   -0.42004E-03  7296   0.909E-02-0.958E-04
CGA:  75    -0.269789746152E+03   -0.23828E-03   -0.23844E-03  7296   0.713E-02-0.899E-04
CGA:  76    -0.269789997316E+03   -0.25116E-03   -0.25075E-03  7296   0.760E-02-0.363E-04
CGA:  77    -0.269790204058E+03   -0.20674E-03   -0.20648E-03  7296   0.485E-02 0.212E-04
SDA:  78    -0.269790343478E+03   -0.13942E-03   -0.13980E-03  7296   0.463E-02 0.284E-04
CGA:  79    -0.269790606760E+03   -0.26328E-03   -0.26333E-03  7296   0.151E-02-0.339E-04
CGA:  80    -0.269790690494E+03   -0.83734E-04   -0.83721E-04  7296   0.754E-03 0.347E-04
CGA:  81    -0.269790827373E+03   -0.13688E-03   -0.13683E-03  7296   0.885E-03 0.649E-06
CGA:  82    -0.269790975129E+03   -0.14776E-03   -0.14996E-03  7296   0.109E-02-0.225E-04
CGA:  83    -0.269791121009E+03   -0.14588E-03   -0.14520E-03  7296   0.947E-03 0.820E-05
CGA:  84    -0.269791174911E+03   -0.53902E-04   -0.53664E-04  7296   0.475E-03-0.191E-04
CGA:  85    -0.269791228165E+03   -0.53254E-04   -0.53271E-04  7296   0.419E-03-0.185E-06
CGA:  86    -0.269791276018E+03   -0.47853E-04   -0.48113E-04  7296   0.167E-03-0.595E-05
CGA:  87    -0.269791312369E+03   -0.36351E-04   -0.36897E-04  7296   0.278E-03-0.381E-05
CGA:  88    -0.269791332694E+03   -0.20325E-04   -0.20357E-04  7296   0.223E-03 0.519E-05
CGA:  89    -0.269791354189E+03   -0.21496E-04   -0.21696E-04  7296   0.197E-03-0.144E-04
CGA:  90    -0.269791388135E+03   -0.33946E-04   -0.33777E-04  7296   0.182E-03 0.145E-05
CGA:  91    -0.269791407128E+03   -0.18993E-04   -0.19001E-04  7296   0.885E-04-0.449E-06
CGA:  92    -0.269791415489E+03   -0.83612E-05   -0.83192E-05  7296   0.821E-04 0.665E-05
   1 F= -.26979142E+03 E0= -.26977508E+03  d E =-.269791E+03  mag=    18.8805
       N       E                     dE             d eps       ncg     rms          ort
SDA:   1    -0.269869148379E+03   -0.77741E-01    0.00000E+00  7296   0.189E+01 0.000E+00
CGA:   2    -0.269926600975E+03   -0.57453E-01   -0.53154E-01  7296   0.561E-01 0.892E-01
CGA:   3    -0.269930385727E+03   -0.37848E-02   -0.37895E-02  7296   0.236E-01 0.183E-03
CGA:   4    -0.269932187393E+03   -0.18017E-02   -0.18018E-02  7296   0.268E-01-0.109E-04
CGA:   5    -0.269934704135E+03   -0.25167E-02   -0.25165E-02  7296   0.151E-01 0.313E-04
CGA:   6    -0.269935689867E+03   -0.98573E-03   -0.98575E-03  7296   0.380E-02-0.110E-04
CGA:   7    -0.269935890777E+03   -0.20091E-03   -0.19954E-03  7296   0.253E-02-0.527E-04
CGA:   8    -0.269936161043E+03   -0.27027E-03   -0.27108E-03  7296   0.763E-03-0.303E-04
CGA:   9    -0.269936222738E+03   -0.61695E-04   -0.61716E-04  7296   0.666E-03 0.147E-04
CGA:  10    -0.269936263127E+03   -0.40388E-04   -0.40255E-04  7296   0.286E-03-0.619E-05
CGA:  11    -0.269936295929E+03   -0.32803E-04   -0.32446E-04  7296   0.123E-03 0.110E-04
CGA:  12    -0.269936311947E+03   -0.16018E-04   -0.15695E-04  7296   0.170E-03 0.824E-05
CGA:  13    -0.269936323968E+03   -0.12021E-04   -0.11882E-04  7296   0.830E-04-0.704E-05
CGA:  14    -0.269936331904E+03   -0.79364E-05   -0.79212E-05  7296   0.481E-04 0.104E-05
   2 F= -.26993633E+03 E0= -.26992003E+03  d E =-.144916E+00  mag=    18.8424
       N       E                     dE             d eps       ncg     rms          ort
SDA:   1    -0.223184083870E+03    0.46752E+02    0.00000E+00  7296   0.168E+03 0.000E+00
CGA:   2    -0.245817913525E+03   -0.22634E+02   -0.28210E+02  7296   0.258E+03-0.507E+02
CGA:   3    -0.261420979581E+03   -0.15603E+02   -0.21268E+02  7296   0.172E+03-0.145E+03
CGA:   4    -0.269576081337E+03   -0.81551E+01   -0.85651E+01  7296   0.344E+02-0.443E+01
CGA:   5    -0.273570368615E+03   -0.39943E+01   -0.40203E+01  7296   0.243E+02-0.565E+00
CGA:   6    -0.275597003450E+03   -0.20266E+01   -0.20051E+01  7296   0.130E+02-0.174E+01
CGA:   7    -0.276211696049E+03   -0.61469E+00   -0.59169E+00  7296   0.485E+01 0.220E+00
CGA:   8    -0.276720914788E+03   -0.50922E+00   -0.50667E+00  7296   0.400E+01 0.142E+00
CGA:   9    -0.277152693841E+03   -0.43178E+00   -0.42883E+00  7296   0.114E+01 0.142E+00
CGA:  10    -0.277291872257E+03   -0.13918E+00   -0.13885E+00  7296   0.110E+01 0.916E-02
CGA:  11    -0.277433127796E+03   -0.14126E+00   -0.13986E+00  7296   0.335E+00 0.306E-01
CGA:  12    -0.277474631808E+03   -0.41504E-01   -0.41342E-01  7296   0.339E+00 0.457E-02
CGA:  13    -0.277517795056E+03   -0.43163E-01   -0.42998E-01  7296   0.114E+00 0.438E-02
CGA:  14    -0.277529857280E+03   -0.12062E-01   -0.12058E-01  7296   0.771E-01 0.372E-03
CGA:  15    -0.277540870044E+03   -0.11013E-01   -0.10984E-01  7296   0.411E-01 0.541E-03
CGA:  16    -0.277545468515E+03   -0.45985E-02   -0.45978E-02  7296   0.207E-01 0.524E-04
CGA:  17    -0.277548495776E+03   -0.30273E-02   -0.30178E-02  7296   0.108E-01 0.174E-03
CGA:  18    -0.277550071231E+03   -0.15755E-02   -0.15740E-02  7296   0.882E-02 0.281E-04
CGA:  19    -0.277551204029E+03   -0.11328E-02   -0.11328E-02  7296   0.373E-02-0.595E-06
CGA:  20    -0.277551814798E+03   -0.61077E-03   -0.61159E-03  7296   0.410E-02-0.158E-04
CGA:  21    -0.277552286539E+03   -0.47174E-03   -0.47187E-03  7296   0.139E-02-0.219E-04
CGA:  22    -0.277552528978E+03   -0.24244E-03   -0.24264E-03  7296   0.196E-02-0.305E-05
CGA:  23    -0.277552754900E+03   -0.22592E-03   -0.22593E-03  7296   0.604E-03-0.859E-06
CGA:  24    -0.277552876777E+03   -0.12188E-03   -0.12171E-03  7296   0.843E-03 0.160E-05
CGA:  25    -0.277552987001E+03   -0.11022E-03   -0.11026E-03  7296   0.370E-03-0.212E-05
CGA:  26    -0.277553059659E+03   -0.72658E-04   -0.72894E-04  7296   0.432E-03-0.312E-05
CGA:  27    -0.277553114393E+03   -0.54734E-04   -0.54761E-04  7296   0.208E-03-0.490E-05
CGA:  28    -0.277553153508E+03   -0.39115E-04   -0.39521E-04  7296   0.211E-03-0.585E-05
CGA:  29    -0.277553179315E+03   -0.25807E-04   -0.25807E-04  7296   0.969E-04-0.175E-05
CGA:  30    -0.277553194445E+03   -0.15130E-04   -0.15063E-04  7296   0.950E-04 0.210E-05
CGA:  31    -0.277553205731E+03   -0.11286E-04   -0.11312E-04  7296   0.438E-04 0.233E-05
CGA:  32    -0.277553214983E+03   -0.92526E-05   -0.92542E-05  7296   0.457E-04-0.455E-07
   3 F= -.27755321E+03 E0= -.27754449E+03  d E =-.761688E+01  mag=    18.0000
       N       E                     dE             d eps       ncg     rms          ort
SDA:   1     0.624046579046E+01    0.28379E+03    0.00000E+00  7296   0.482E+04 0.000E+00
CGA:   2    -0.171737988972E+03   -0.17798E+03   -0.32368E+03  7296   0.786E+03 0.818E+03
CGA:   3    -0.231387486953E+03   -0.59649E+02   -0.77953E+02  7296   0.137E+03 0.925E+02
CGA:   4    -0.260790830107E+03   -0.29403E+02   -0.28931E+02  7296   0.154E+03 0.537E+01
CGA:   5    -0.273837046206E+03   -0.13046E+02   -0.12605E+02  7296   0.277E+02 0.182E+01
CGA:   6    -0.277422982221E+03   -0.35859E+01   -0.35860E+01  7296   0.185E+02 0.560E-01
CGA:   7    -0.279210959022E+03   -0.17880E+01   -0.17901E+01  7296   0.931E+01 0.662E-01
CGA:   8    -0.280534989074E+03   -0.13240E+01   -0.13281E+01  7296   0.671E+01-0.168E+00
CGA:   9    -0.281152973460E+03   -0.61798E+00   -0.61131E+00  7296   0.409E+01-0.306E-01
CGA:  10    -0.281626370973E+03   -0.47340E+00   -0.46536E+00  7296   0.513E+01-0.377E+00
CGA:  11    -0.281909650822E+03   -0.28328E+00   -0.29478E+00  7296   0.311E+01-0.103E+00
CGA:  12    -0.282072703737E+03   -0.16305E+00   -0.17967E+00  7296   0.185E+01-0.784E-01
CGA:  13    -0.282243250992E+03   -0.17055E+00   -0.17044E+00  7296   0.151E+01 0.100E-04
CGA:  14    -0.282356019380E+03   -0.11277E+00   -0.11266E+00  7296   0.827E+00-0.464E-03
CGA:  15    -0.282414675745E+03   -0.58656E-01   -0.60302E-01  7296   0.473E+00-0.959E-03
CGA:  16    -0.282461643937E+03   -0.46968E-01   -0.47091E-01  7296   0.360E+00 0.388E-02
CGA:  17    -0.282488180530E+03   -0.26537E-01   -0.26409E-01  7296   0.141E+00 0.370E-04
CGA:  18    -0.282500693971E+03   -0.12513E-01   -0.12519E-01  7296   0.105E+00 0.607E-04
CGA:  19    -0.282512430856E+03   -0.11737E-01   -0.11728E-01  7296   0.929E-01 0.138E-02
CGA:  20    -0.282519823234E+03   -0.73924E-02   -0.73991E-02  7296   0.343E-01 0.101E-04
CGA:  21    -0.282523447489E+03   -0.36243E-02   -0.36242E-02  7296   0.352E-01-0.618E-04
CGA:  22    -0.282527568724E+03   -0.41212E-02   -0.41200E-02  7296   0.268E-01 0.397E-04
CGA:  23    -0.282529832329E+03   -0.22636E-02   -0.22625E-02  7296   0.122E-01-0.414E-04
CGA:  24    -0.282531136795E+03   -0.13045E-02   -0.13045E-02  7296   0.124E-01-0.205E-04
CGA:  25    -0.282532494887E+03   -0.13581E-02   -0.13583E-02  7296   0.657E-02-0.295E-04
CGA:  26    -0.282533017169E+03   -0.52228E-03   -0.52181E-03  7296   0.367E-02-0.113E-04
CGA:  27    -0.282533462375E+03   -0.44521E-03   -0.44544E-03  7296   0.353E-02-0.138E-04
CGA:  28    -0.282533774772E+03   -0.31240E-03   -0.31236E-03  7296   0.164E-02-0.419E-05
CGA:  29    -0.282533940354E+03   -0.16558E-03   -0.16558E-03  7296   0.131E-02 0.129E-05
CGA:  30    -0.282534080218E+03   -0.13986E-03   -0.13986E-03  7296   0.988E-03 0.244E-05
CGA:  31    -0.282534198797E+03   -0.11858E-03   -0.11898E-03  7296   0.779E-03-0.165E-04
SDA:  32    -0.282534268532E+03   -0.69734E-04   -0.69247E-04  7296   0.555E-03-0.117E-04
CGA:  33    -0.282534315165E+03   -0.46633E-04   -0.46604E-04  7296   0.272E-03-0.138E-05
CGA:  34    -0.282534377694E+03   -0.62529E-04   -0.62828E-04  7296   0.349E-03-0.250E-05
CGA:  35    -0.282534409437E+03   -0.31743E-04   -0.31743E-04  7296   0.984E-04 0.265E-06
CGA:  36    -0.282534426687E+03   -0.17251E-04   -0.17134E-04  7296   0.887E-04 0.180E-05
CGA:  37    -0.282534438209E+03   -0.11522E-04   -0.11511E-04  7296   0.421E-04 0.831E-06
CGA:  38    -0.282534447178E+03   -0.89691E-05   -0.90586E-05  7296   0.239E-04-0.956E-06
   4 F= -.28253445E+03 E0= -.28252645E+03  d E =-.498123E+01  mag=    18.0000
       N       E                     dE             d eps       ncg     rms          ort
SDA:   1    -0.276495383560E+03    0.60391E+01    0.00000E+00  7296   0.180E+02 0.000E+00
CGA:   2    -0.280862515040E+03   -0.43671E+01   -0.43626E+01  7296   0.109E+02 0.407E-01
CGA:   3    -0.282400904741E+03   -0.15384E+01   -0.15386E+01  7296   0.470E+01-0.135E-01
CGA:   4    -0.282867906560E+03   -0.46700E+00   -0.46835E+00  7296   0.134E+01 0.113E-01
CGA:   5    -0.283026223529E+03   -0.15832E+00   -0.15827E+00  7296   0.511E+00-0.269E-02
CGA:   6    -0.283076762559E+03   -0.50539E-01   -0.50616E-01  7296   0.230E+00 0.853E-03
CGA:   7    -0.283102349981E+03   -0.25587E-01   -0.25579E-01  7296   0.919E-01-0.203E-03
CGA:   8    -0.283112010568E+03   -0.96606E-02   -0.96655E-02  7296   0.403E-01 0.126E-03
CGA:   9    -0.283118328504E+03   -0.63179E-02   -0.63182E-02  7296   0.155E-01 0.354E-06
CGA:  10    -0.283120467441E+03   -0.21389E-02   -0.21384E-02  7296   0.112E-01 0.265E-04
CGA:  11    -0.283122014422E+03   -0.15470E-02   -0.15471E-02  7296   0.580E-02-0.514E-05
CGA:  12    -0.283122683526E+03   -0.66910E-03   -0.66925E-03  7296   0.405E-02 0.101E-04
CGA:  13    -0.283123236530E+03   -0.55300E-03   -0.55293E-03  7296   0.193E-02 0.672E-05
CGA:  14    -0.283123455450E+03   -0.21892E-03   -0.21900E-03  7296   0.105E-02 0.710E-05
CGA:  15    -0.283123618284E+03   -0.16283E-03   -0.16258E-03  7296   0.411E-03 0.833E-05
CGA:  16    -0.283123673401E+03   -0.55117E-04   -0.55088E-04  7296   0.275E-03 0.406E-05
CGA:  17    -0.283123710964E+03   -0.37563E-04   -0.37542E-04  7296   0.170E-03 0.232E-05
CGA:  18    -0.283123728356E+03   -0.17392E-04   -0.17421E-04  7296   0.876E-04 0.114E-05
CGA:  19    -0.283123745593E+03   -0.17238E-04   -0.17243E-04  7296   0.679E-04-0.727E-07
CGA:  20    -0.283123754122E+03   -0.85282E-05   -0.85280E-05  7296   0.438E-04-0.714E-07
   5 F= -.28312375E+03 E0= -.28311583E+03  d E =-.589307E+00  mag=    18.0000
       N       E                     dE             d eps       ncg     rms          ort
SDA:   1    -0.208088221172E+03    0.75036E+02    0.00000E+00  7296   0.370E+03 0.000E+00
CGA:   2    -0.244332571045E+03   -0.36244E+02   -0.35870E+02  7296   0.225E+03-0.372E+02
CGA:   3    -0.267003433088E+03   -0.22671E+02   -0.19297E+02  7296   0.760E+02 0.531E+01
CGA:   4    -0.276542397354E+03   -0.95390E+01   -0.95712E+01  7296   0.597E+02 0.269E+01
CGA:   5    -0.281011937369E+03   -0.44695E+01   -0.44172E+01  7296   0.207E+02 0.501E+00
CGA:   6    -0.282255635215E+03   -0.12437E+01   -0.11313E+01  7296   0.967E+01 0.879E+00
CGA:   7    -0.283066444819E+03   -0.81081E+00   -0.81388E+00  7296   0.728E+01-0.124E-01
CGA:   8    -0.283498225179E+03   -0.43178E+00   -0.47485E+00  7296   0.308E+01-0.255E+00
CGA:   9    -0.283696831692E+03   -0.19861E+00   -0.20029E+00  7296   0.120E+01-0.253E-02
CGA:  10    -0.283820676597E+03   -0.12384E+00   -0.12390E+00  7296   0.789E+00 0.215E-02
CGA:  11    -0.283875324542E+03   -0.54648E-01   -0.56603E-01  7296   0.361E+00-0.198E-02
CGA:  12    -0.283915275210E+03   -0.39951E-01   -0.39961E-01  7296   0.204E+00 0.486E-02
CGA:  13    -0.283934863035E+03   -0.19588E-01   -0.19584E-01  7296   0.117E+00-0.348E-04
CGA:  14    -0.283946427116E+03   -0.11564E-01   -0.11614E-01  7296   0.759E-01 0.165E-02
CGA:  15    -0.283954987427E+03   -0.85603E-02   -0.85595E-02  7296   0.359E-01 0.566E-03
CGA:  16    -0.283959204555E+03   -0.42171E-02   -0.42169E-02  7296   0.278E-01 0.354E-04
CGA:  17    -0.283962185011E+03   -0.29805E-02   -0.29821E-02  7296   0.147E-01 0.227E-03
CGA:  18    -0.283963541374E+03   -0.13564E-02   -0.13568E-02  7296   0.599E-02 0.151E-04
CGA:  19    -0.283964434853E+03   -0.89348E-03   -0.89266E-03  7296   0.527E-02 0.190E-04
CGA:  20    -0.283964897568E+03   -0.46272E-03   -0.46364E-03  7296   0.200E-02 0.186E-04
CGA:  21    -0.283965149958E+03   -0.25239E-03   -0.25226E-03  7296   0.177E-02 0.829E-05
CGA:  22    -0.283965416653E+03   -0.26670E-03   -0.26635E-03  7296   0.109E-02 0.850E-05
CGA:  23    -0.283965542797E+03   -0.12614E-03   -0.12613E-03  7296   0.102E-02 0.420E-05
CGA:  24    -0.283965707787E+03   -0.16499E-03   -0.16510E-03  7296   0.108E-02-0.183E-05
CGA:  25    -0.283965829415E+03   -0.12163E-03   -0.12163E-03  7296   0.493E-03 0.449E-06
CGA:  26    -0.283965910494E+03   -0.81079E-04   -0.81085E-04  7296   0.686E-03-0.518E-06
CGA:  27    -0.283965987797E+03   -0.77303E-04   -0.77275E-04  7296   0.307E-03-0.458E-05
CGA:  28    -0.283966021302E+03   -0.33505E-04   -0.33491E-04  7296   0.195E-03-0.202E-05
CGA:  29    -0.283966056044E+03   -0.34742E-04   -0.34899E-04  7296   0.174E-03-0.254E-05
CGA:  30    -0.283966071657E+03   -0.15613E-04   -0.15558E-04  7296   0.890E-04-0.173E-05
CGA:  31    -0.283966084628E+03   -0.12971E-04   -0.13016E-04  7296   0.814E-04-0.160E-05
SDA:  32    -0.283966095235E+03   -0.10607E-04   -0.10635E-04  7296   0.433E-04-0.227E-05
CGA:  33    -0.283966098595E+03   -0.33599E-05   -0.33457E-05  7296   0.213E-04-0.332E-06
   6 F= -.28396610E+03 E0= -.28395789E+03  d E =-.842344E+00  mag=    18.0000
       N       E                     dE             d eps       ncg     rms          ort
SDA:   1    -0.264594817248E+03    0.19371E+02    0.00000E+00  7296   0.570E+02 0.000E+00
CGA:   2    -0.275813230066E+03   -0.11218E+02   -0.11150E+02  7296   0.393E+02 0.758E+00
CGA:   3    -0.280788267584E+03   -0.49750E+01   -0.49676E+01  7296   0.226E+02-0.685E+00
CGA:   4    -0.283259146809E+03   -0.24709E+01   -0.24794E+01  7296   0.541E+01 0.175E+00
CGA:   5    -0.283863013833E+03   -0.60387E+00   -0.60251E+00  7296   0.215E+01-0.231E-01
CGA:   6    -0.284059810615E+03   -0.19680E+00   -0.19855E+00  7296   0.676E+00 0.795E-02
CGA:   7    -0.284141355404E+03   -0.81545E-01   -0.81529E-01  7296   0.376E+00-0.107E-02
CGA:   8    -0.284178948228E+03   -0.37593E-01   -0.37649E-01  7296   0.111E+00 0.684E-03
CGA:   9    -0.284197419404E+03   -0.18471E-01   -0.18468E-01  7296   0.612E-01 0.705E-04
CGA:  10    -0.284203474238E+03   -0.60548E-02   -0.60632E-02  7296   0.229E-01 0.945E-04
CGA:  11    -0.284207876678E+03   -0.44024E-02   -0.44015E-02  7296   0.159E-01 0.150E-04
CGA:  12    -0.284209472517E+03   -0.15958E-02   -0.15977E-02  7296   0.847E-02 0.295E-04
CGA:  13    -0.284210819158E+03   -0.13466E-02   -0.13462E-02  7296   0.600E-02 0.158E-04
CGA:  14    -0.284211461385E+03   -0.64223E-03   -0.64304E-03  7296   0.213E-02 0.220E-04
CGA:  15    -0.284211891643E+03   -0.43026E-03   -0.42931E-03  7296   0.151E-02 0.132E-04
CGA:  16    -0.284212040163E+03   -0.14852E-03   -0.14879E-03  7296   0.642E-03 0.638E-05
CGA:  17    -0.284212164075E+03   -0.12391E-03   -0.12369E-03  7296   0.573E-03 0.365E-05
CGA:  18    -0.284212226287E+03   -0.62212E-04   -0.62299E-04  7296   0.299E-03 0.300E-05
CGA:  19    -0.284212283962E+03   -0.57675E-04   -0.57625E-04  7296   0.366E-03 0.865E-06
CGA:  20    -0.284212337153E+03   -0.53191E-04   -0.53182E-04  7296   0.196E-03 0.666E-06
CGA:  21    -0.284212382571E+03   -0.45418E-04   -0.45669E-04  7296   0.272E-03-0.258E-05
CGA:  22    -0.284212415702E+03   -0.33130E-04   -0.33120E-04  7296   0.129E-03-0.104E-05
CGA:  23    -0.284212435360E+03   -0.19658E-04   -0.19675E-04  7296   0.116E-03-0.107E-05
CGA:  24    -0.284212450250E+03   -0.14890E-04   -0.14881E-04  7296   0.548E-04-0.100E-05
CGA:  25    -0.284212458096E+03   -0.78464E-05   -0.78563E-05  7296   0.356E-04-0.181E-05
   7 F= -.28421246E+03 E0= -.28420360E+03  d E =-.246360E+00  mag=    18.0000
       N       E                     dE             d eps       ncg     rms          ort
SDA:   1    -0.241990653566E+03    0.42222E+02    0.00000E+00  7296   0.126E+03 0.000E+00
CGA:   2    -0.264772622512E+03   -0.22782E+02   -0.22672E+02  7296   0.971E+02 0.178E+01
CGA:   3    -0.276055653045E+03   -0.11283E+02   -0.10951E+02  7296   0.505E+02-0.198E+01
CGA:   4    -0.282152137813E+03   -0.60965E+01   -0.61078E+01  7296   0.141E+02 0.261E+00
CGA:   5    -0.283531275658E+03   -0.13791E+01   -0.13610E+01  7296   0.529E+01 0.139E-01
CGA:   6    -0.284059207655E+03   -0.52793E+00   -0.53375E+00  7296   0.160E+01 0.268E-01
CGA:   7    -0.284236266883E+03   -0.17706E+00   -0.17683E+00  7296   0.855E+00-0.209E-02
CGA:   8    -0.284335782884E+03   -0.99516E-01   -0.99755E-01  7296   0.244E+00 0.531E-02
CGA:   9    -0.284371716236E+03   -0.35933E-01   -0.35933E-01  7296   0.166E+00 0.793E-04
CGA:  10    -0.284389531161E+03   -0.17815E-01   -0.17858E-01  7296   0.474E-01 0.488E-03
CGA:  11    -0.284397823884E+03   -0.82927E-02   -0.82908E-02  7296   0.474E-01 0.463E-04
CGA:  12    -0.284402694405E+03   -0.48705E-02   -0.48847E-02  7296   0.165E-01 0.130E-03
CGA:  13    -0.284405492374E+03   -0.27980E-02   -0.27971E-02  7296   0.143E-01 0.284E-04
CGA:  14    -0.284407230180E+03   -0.17378E-02   -0.17397E-02  7296   0.452E-02 0.738E-04
CGA:  15    -0.284407962483E+03   -0.73230E-03   -0.73193E-03  7296   0.430E-02 0.151E-04
CGA:  16    -0.284408453308E+03   -0.49082E-03   -0.49127E-03  7296   0.120E-02 0.162E-04
CGA:  17    -0.284408686488E+03   -0.23318E-03   -0.23299E-03  7296   0.153E-02 0.345E-05
CGA:  18    -0.284408864730E+03   -0.17824E-03   -0.17844E-03  7296   0.641E-03 0.680E-05
CGA:  19    -0.284408993626E+03   -0.12890E-03   -0.12882E-03  7296   0.859E-03 0.143E-05
CGA:  20    -0.284409144240E+03   -0.15061E-03   -0.15039E-03  7296   0.533E-03 0.499E-05
CGA:  21    -0.284409241241E+03   -0.97002E-04   -0.97270E-04  7296   0.672E-03-0.598E-05
CGA:  22    -0.284409340602E+03   -0.99361E-04   -0.99366E-04  7296   0.340E-03-0.226E-05
CGA:  23    -0.284409389480E+03   -0.48878E-04   -0.48880E-04  7296   0.254E-03-0.245E-05
CGA:  24    -0.284409423097E+03   -0.33618E-04   -0.33604E-04  7296   0.137E-03-0.158E-05
CGA:  25    -0.284409444985E+03   -0.21888E-04   -0.21954E-04  7296   0.772E-04-0.348E-05
CGA:  26    -0.284409453876E+03   -0.88910E-05   -0.88609E-05  7296   0.436E-04-0.121E-05
   8 F= -.28440945E+03 E0= -.28440051E+03  d E =-.196996E+00  mag=    18.0000
       N       E                     dE             d eps       ncg     rms          ort
SDA:   1    -0.243862460384E+03    0.40547E+02    0.00000E+00  7296   0.112E+03 0.000E+00
CGA:   2    -0.267586903578E+03   -0.23724E+02   -0.23669E+02  7296   0.926E+02 0.539E+00
CGA:   3    -0.277783464869E+03   -0.10197E+02   -0.10038E+02  7296   0.415E+02 0.119E+01
CGA:   4    -0.282590774172E+03   -0.48073E+01   -0.47934E+01  7296   0.120E+02-0.356E-01
CGA:   5    -0.283742272608E+03   -0.11515E+01   -0.11856E+01  7296   0.424E+01 0.859E-01
CGA:   6    -0.284204613078E+03   -0.46234E+00   -0.45974E+00  7296   0.134E+01-0.110E-01
CGA:   7    -0.284361593167E+03   -0.15698E+00   -0.15743E+00  7296   0.693E+00 0.641E-02
CGA:   8    -0.284437233089E+03   -0.75640E-01   -0.75520E-01  7296   0.213E+00-0.638E-03
CGA:   9    -0.284467050587E+03   -0.29817E-01   -0.29814E-01  7296   0.128E+00 0.884E-03
CGA:  10    -0.284481636511E+03   -0.14586E-01   -0.14579E-01  7296   0.411E-01-0.371E-04
CGA:  11    -0.284489849012E+03   -0.82125E-02   -0.81852E-02  7296   0.296E-01 0.369E-03
CGA:  12    -0.284493364677E+03   -0.35157E-02   -0.35158E-02  7296   0.167E-01 0.277E-04
CGA:  13    -0.284495916275E+03   -0.25516E-02   -0.25501E-02  7296   0.109E-01 0.832E-04
CGA:  14    -0.284497198405E+03   -0.12821E-02   -0.12822E-02  7296   0.460E-02 0.172E-04
CGA:  15    -0.284497943661E+03   -0.74526E-03   -0.74461E-03  7296   0.329E-02 0.245E-04
CGA:  16    -0.284498285633E+03   -0.34197E-03   -0.34220E-03  7296   0.129E-02 0.730E-05
CGA:  17    -0.284498523565E+03   -0.23793E-03   -0.23755E-03  7296   0.108E-02 0.781E-05
CGA:  18    -0.284498672184E+03   -0.14862E-03   -0.14863E-03  7296   0.639E-03 0.390E-05
CGA:  19    -0.284498812561E+03   -0.14038E-03   -0.14007E-03  7296   0.763E-03 0.373E-05
CGA:  20    -0.284498935378E+03   -0.12282E-03   -0.12280E-03  7296   0.559E-03 0.122E-05
CGA:  21    -0.284499040700E+03   -0.10532E-03   -0.10531E-03  7296   0.664E-03-0.177E-06
CGA:  22    -0.284499127798E+03   -0.87098E-04   -0.87011E-04  7296   0.307E-03-0.468E-05
CGA:  23    -0.284499177671E+03   -0.49872E-04   -0.49924E-04  7296   0.255E-03-0.321E-05
CGA:  24    -0.284499210348E+03   -0.32678E-04   -0.32598E-04  7296   0.122E-03-0.421E-05
CGA:  25    -0.284499225864E+03   -0.15515E-04   -0.15499E-04  7296   0.741E-04-0.108E-05
CGA:  26    -0.284499238539E+03   -0.12675E-04   -0.12714E-04  7296   0.429E-04-0.139E-05
CGA:  27    -0.284499244528E+03   -0.59893E-05   -0.59871E-05  7296   0.305E-04-0.524E-06
   9 F= -.28449924E+03 E0= -.28449068E+03  d E =-.897907E-01  mag=    18.0000
       N       E                     dE             d eps       ncg     rms          ort
SDA:   1    -0.241480051883E+03    0.43019E+02    0.00000E+00  7296   0.135E+03 0.000E+00
CGA:   2    -0.263035778267E+03   -0.21556E+02   -0.21604E+02  7296   0.129E+03-0.219E+01
CGA:   3    -0.275412538752E+03   -0.12377E+02   -0.12626E+02  7296   0.469E+02 0.505E+00
CGA:   4    -0.281883552966E+03   -0.64710E+01   -0.64501E+01  7296   0.192E+02-0.909E+00
CGA:   5    -0.283455763929E+03   -0.15722E+01   -0.16845E+01  7296   0.580E+01-0.450E-01
CGA:   6    -0.284128296789E+03   -0.67253E+00   -0.66982E+00  7296   0.187E+01-0.242E-01
CGA:   7    -0.284333703188E+03   -0.20541E+00   -0.20589E+00  7296   0.876E+00 0.378E-02
CGA:   8    -0.284438863011E+03   -0.10516E+00   -0.10537E+00  7296   0.288E+00 0.387E-02
CGA:   9    -0.284473935523E+03   -0.35073E-01   -0.35102E-01  7296   0.177E+00 0.672E-03
CGA:  10    -0.284495557197E+03   -0.21622E-01   -0.21635E-01  7296   0.535E-01 0.364E-03
CGA:  11    -0.284503431305E+03   -0.78741E-02   -0.78729E-02  7296   0.445E-01 0.979E-04
CGA:  12    -0.284508762859E+03   -0.53316E-02   -0.53384E-02  7296   0.169E-01 0.176E-03
CGA:  13    -0.284511443621E+03   -0.26808E-02   -0.26798E-02  7296   0.157E-01 0.404E-04
CGA:  14    -0.284513173034E+03   -0.17294E-02   -0.17315E-02  7296   0.536E-02 0.413E-04
CGA:  15    -0.284514009050E+03   -0.83602E-03   -0.83564E-03  7296   0.398E-02 0.178E-04
CGA:  16    -0.284514523453E+03   -0.51440E-03   -0.51451E-03  7296   0.131E-02 0.105E-04
CGA:  17    -0.284514743825E+03   -0.22037E-03   -0.22018E-03  7296   0.125E-02 0.614E-05
CGA:  18    -0.284514905765E+03   -0.16194E-03   -0.16200E-03  7296   0.508E-03 0.504E-05
CGA:  19    -0.284515004776E+03   -0.99011E-04   -0.98720E-04  7296   0.656E-03 0.512E-05
CGA:  20    -0.284515103131E+03   -0.98355E-04   -0.98339E-04  7296   0.379E-03 0.230E-05
CGA:  21    -0.284515176668E+03   -0.73537E-04   -0.73409E-04  7296   0.506E-03 0.222E-05
CGA:  22    -0.284515251548E+03   -0.74880E-04   -0.74888E-04  7296   0.289E-03-0.221E-05
CGA:  23    -0.284515292609E+03   -0.41061E-04   -0.41059E-04  7296   0.232E-03-0.179E-05
CGA:  24    -0.284515331838E+03   -0.39230E-04   -0.39328E-04  7296   0.115E-03-0.368E-05
CGA:  25    -0.284515347110E+03   -0.15272E-04   -0.15256E-04  7296   0.838E-04-0.162E-05
CGA:  26    -0.284515360632E+03   -0.13522E-04   -0.13551E-04  7296   0.406E-04-0.148E-05
CGA:  27    -0.284515366532E+03   -0.59002E-05   -0.59014E-05  7296   0.308E-04-0.568E-06
  10 F= -.28451537E+03 E0= -.28450727E+03  d E =-.161220E-01  mag=    18.0000
       N       E                     dE             d eps       ncg     rms          ort
SDA:   1    -0.273589981144E+03    0.10925E+02    0.00000E+00  7296   0.405E+02 0.000E+00
CGA:   2    -0.278753300872E+03   -0.51633E+01   -0.51510E+01  7296   0.280E+02-0.204E+00
CGA:   3    -0.281951077924E+03   -0.31978E+01   -0.32259E+01  7296   0.126E+02 0.256E+00
CGA:   4    -0.283850843574E+03   -0.18998E+01   -0.19016E+01  7296   0.514E+01-0.211E+00
CGA:   5    -0.284323012202E+03   -0.47217E+00   -0.48036E+00  7296   0.155E+01 0.267E-02
CGA:   6    -0.284489119854E+03   -0.16611E+00   -0.16546E+00  7296   0.530E+00-0.246E-02
CGA:   7    -0.284545735287E+03   -0.56615E-01   -0.56790E-01  7296   0.223E+00 0.987E-03
CGA:   8    -0.284573774357E+03   -0.28039E-01   -0.28035E-01  7296   0.840E-01-0.787E-04
CGA:   9    -0.284582800185E+03   -0.90258E-02   -0.90364E-02  7296   0.425E-01 0.987E-04
CGA:  10    -0.284588609784E+03   -0.58096E-02   -0.58096E-02  7296   0.140E-01 0.144E-05
CGA:  11    -0.284590416602E+03   -0.18068E-02   -0.18072E-02  7296   0.935E-02 0.285E-04
CGA:  12    -0.284591681870E+03   -0.12653E-02   -0.12653E-02  7296   0.353E-02 0.124E-04
CGA:  13    -0.284592232112E+03   -0.55024E-03   -0.55008E-03  7296   0.252E-02 0.796E-05
CGA:  14    -0.284592563898E+03   -0.33179E-03   -0.33181E-03  7296   0.110E-02 0.320E-05
CGA:  15    -0.284592690916E+03   -0.12702E-03   -0.12709E-03  7296   0.686E-03 0.277E-05
CGA:  16    -0.284592789388E+03   -0.98473E-04   -0.98467E-04  7296   0.251E-03 0.867E-06
CGA:  17    -0.284592821274E+03   -0.31886E-04   -0.31902E-04  7296   0.171E-03 0.162E-05
CGA:  18    -0.284592844902E+03   -0.23628E-04   -0.23627E-04  7296   0.761E-04 0.960E-06
CGA:  19    -0.284592854613E+03   -0.97109E-05   -0.97238E-05  7296   0.455E-04 0.139E-05
  11 F= -.28459285E+03 E0= -.28458439E+03  d E =-.774881E-01  mag=    18.0000
       N       E                     dE             d eps       ncg     rms          ort
SDA:   1    -0.282219971848E+03    0.23729E+01    0.00000E+00  7296   0.719E+01 0.000E+00
CGA:   2    -0.283444837939E+03   -0.12249E+01   -0.12201E+01  7296   0.625E+01 0.104E+00
CGA:   3    -0.284095728571E+03   -0.65089E+00   -0.64330E+00  7296   0.288E+01-0.202E-01
CGA:   4    -0.284473496842E+03   -0.37777E+00   -0.37789E+00  7296   0.791E+00 0.822E-02
CGA:   5    -0.284560344100E+03   -0.86847E-01   -0.86751E-01  7296   0.288E+00-0.838E-03
CGA:   6    -0.284588523292E+03   -0.28179E-01   -0.28209E-01  7296   0.921E-01 0.801E-04
CGA:   7    -0.284599410217E+03   -0.10887E-01   -0.10883E-01  7296   0.396E-01-0.980E-04
CGA:   8    -0.284604364106E+03   -0.49539E-02   -0.49547E-02  7296   0.121E-01 0.486E-04
CGA:   9    -0.284606178444E+03   -0.18143E-02   -0.18144E-02  7296   0.788E-02 0.170E-05
CGA:  10    -0.284606946873E+03   -0.76843E-03   -0.76916E-03  7296   0.249E-02 0.104E-04
CGA:  11    -0.284607362208E+03   -0.41534E-03   -0.41515E-03  7296   0.194E-02 0.548E-05
CGA:  12    -0.284607579409E+03   -0.21720E-03   -0.21736E-03  7296   0.814E-03 0.614E-05
CGA:  13    -0.284607711266E+03   -0.13186E-03   -0.13181E-03  7296   0.642E-03 0.197E-05
CGA:  14    -0.284607789081E+03   -0.77815E-04   -0.77861E-04  7296   0.240E-03 0.321E-05
CGA:  15    -0.284607826622E+03   -0.37541E-04   -0.37522E-04  7296   0.192E-03 0.875E-06
CGA:  16    -0.284607850442E+03   -0.23820E-04   -0.23839E-04  7296   0.636E-04 0.176E-05
CGA:  17    -0.284607861898E+03   -0.11456E-04   -0.11440E-04  7296   0.688E-04 0.352E-06
CGA:  18    -0.284607870298E+03   -0.84005E-05   -0.84137E-05  7296   0.334E-04 0.879E-06
  12 F= -.28460787E+03 E0= -.28459942E+03  d E =-.150157E-01  mag=    18.0000
       N       E                     dE             d eps       ncg     rms          ort
SDA:   1    -0.283841684493E+03    0.76618E+00    0.00000E+00  7296   0.207E+01 0.000E+00
CGA:   2    -0.284308228525E+03   -0.46654E+00   -0.46620E+00  7296   0.191E+01 0.345E-02
CGA:   3    -0.284493649107E+03   -0.18542E+00   -0.18532E+00  7296   0.740E+00 0.154E-03
CGA:   4    -0.284580673212E+03   -0.87024E-01   -0.86964E-01  7296   0.204E+00-0.825E-03
CGA:   5    -0.284602764909E+03   -0.22092E-01   -0.22118E-01  7296   0.727E-01 0.210E-03
CGA:   6    -0.284610381573E+03   -0.76167E-02   -0.76051E-02  7296   0.262E-01-0.721E-04
CGA:   7    -0.284613197258E+03   -0.28157E-02   -0.28170E-02  7296   0.109E-01 0.133E-04
CGA:   8    -0.284614542301E+03   -0.13450E-02   -0.13449E-02  7296   0.328E-02-0.439E-05
CGA:   9    -0.284615016228E+03   -0.47393E-03   -0.47386E-03  7296   0.202E-02 0.544E-05
CGA:  10    -0.284615226170E+03   -0.20994E-03   -0.20994E-03  7296   0.643E-03 0.110E-05
CGA:  11    -0.284615341119E+03   -0.11495E-03   -0.11479E-03  7296   0.486E-03 0.341E-05
CGA:  12    -0.284615400205E+03   -0.59086E-04   -0.59088E-04  7296   0.240E-03 0.328E-06
CGA:  13    -0.284615437258E+03   -0.37053E-04   -0.37022E-04  7296   0.180E-03 0.155E-05
CGA:  14    -0.284615458625E+03   -0.21367E-04   -0.21370E-04  7296   0.749E-04 0.204E-06
CGA:  15    -0.284615469157E+03   -0.10533E-04   -0.10529E-04  7296   0.507E-04 0.598E-06
CGA:  16    -0.284615475301E+03   -0.61434E-05   -0.61486E-05  7296   0.166E-04 0.354E-06
  13 F= -.28461548E+03 E0= -.28460707E+03  d E =-.760500E-02  mag=    18.0000
       N       E                     dE             d eps       ncg     rms          ort
SDA:   1    -0.281548908247E+03    0.30666E+01    0.00000E+00  7296   0.761E+01 0.000E+00
CGA:   2    -0.283616609052E+03   -0.20677E+01   -0.20689E+01  7296   0.709E+01-0.114E-01
CGA:   3    -0.284271999486E+03   -0.65539E+00   -0.65925E+00  7296   0.203E+01 0.784E-02
CGA:   4    -0.284516334494E+03   -0.24434E+00   -0.24393E+00  7296   0.709E+00-0.654E-02
CGA:   5    -0.284585438767E+03   -0.69104E-01   -0.69508E-01  7296   0.196E+00 0.102E-02
CGA:   6    -0.284611793477E+03   -0.26355E-01   -0.26351E-01  7296   0.741E-01-0.574E-03
CGA:   7    -0.284619225286E+03   -0.74318E-02   -0.74444E-02  7296   0.356E-01 0.589E-04
CGA:   8    -0.284623496759E+03   -0.42715E-02   -0.42706E-02  7296   0.992E-02-0.243E-04
CGA:   9    -0.284624765115E+03   -0.12684E-02   -0.12684E-02  7296   0.630E-02 0.967E-05
CGA:  10    -0.284625469559E+03   -0.70444E-03   -0.70445E-03  7296   0.219E-02 0.289E-05
CGA:  11    -0.284625812075E+03   -0.34252E-03   -0.34240E-03  7296   0.163E-02 0.464E-05
CGA:  12    -0.284626057006E+03   -0.24493E-03   -0.24488E-03  7296   0.719E-03 0.377E-05
CGA:  13    -0.284626171762E+03   -0.11476E-03   -0.11466E-03  7296   0.611E-03 0.375E-05
CGA:  14    -0.284626249384E+03   -0.77622E-04   -0.77650E-04  7296   0.217E-03 0.294E-05
CGA:  15    -0.284626279760E+03   -0.30376E-04   -0.30367E-04  7296   0.160E-03 0.243E-05
CGA:  16    -0.284626297771E+03   -0.18011E-04   -0.18032E-04  7296   0.559E-04 0.915E-06
CGA:  17    -0.284626305660E+03   -0.78892E-05   -0.78855E-05  7296   0.391E-04 0.639E-06
  14 F= -.28462631E+03 E0= -.28461789E+03  d E =-.108304E-01  mag=    18.0000
       N       E                     dE             d eps       ncg     rms          ort
SDA:   1    -0.274023076108E+03    0.10603E+02    0.00000E+00  7296   0.263E+02 0.000E+00
CGA:   2    -0.281428892246E+03   -0.74058E+01   -0.73979E+01  7296   0.177E+02 0.556E-01
CGA:   3    -0.283641546413E+03   -0.22127E+01   -0.22111E+01  7296   0.623E+01-0.150E-01
CGA:   4    -0.284323444079E+03   -0.68190E+00   -0.68256E+00  7296   0.168E+01 0.583E-02
CGA:   5    -0.284510612798E+03   -0.18717E+00   -0.18693E+00  7296   0.655E+00-0.155E-02
CGA:   6    -0.284579961149E+03   -0.69348E-01   -0.69349E-01  7296   0.232E+00 0.102E-03
CGA:   7    -0.284610143505E+03   -0.30182E-01   -0.30178E-01  7296   0.942E-01-0.248E-03
CGA:   8    -0.284619383470E+03   -0.92400E-02   -0.92583E-02  7296   0.389E-01 0.737E-04
CGA:   9    -0.284624676040E+03   -0.52926E-02   -0.52926E-02  7296   0.156E-01-0.247E-04
CGA:  10    -0.284626432152E+03   -0.17561E-02   -0.17574E-02  7296   0.844E-02 0.270E-04
CGA:  11    -0.284627815431E+03   -0.13833E-02   -0.13830E-02  7296   0.469E-02 0.100E-04
CGA:  12    -0.284628433648E+03   -0.61822E-03   -0.61829E-03  7296   0.293E-02 0.158E-04
CGA:  13    -0.284628897484E+03   -0.46384E-03   -0.46360E-03  7296   0.176E-02 0.110E-04
CGA:  14    -0.284629094932E+03   -0.19745E-03   -0.19772E-03  7296   0.801E-03 0.969E-05
CGA:  15    -0.284629225957E+03   -0.13103E-03   -0.13087E-03  7296   0.374E-03 0.592E-05
CGA:  16    -0.284629265590E+03   -0.39633E-04   -0.39733E-04  7296   0.197E-03 0.304E-05
CGA:  17    -0.284629293774E+03   -0.28184E-04   -0.28176E-04  7296   0.113E-03 0.131E-05
CGA:  18    -0.284629308993E+03   -0.15218E-04   -0.15220E-04  7296   0.595E-04 0.942E-06
CGA:  19    -0.284629323137E+03   -0.14145E-04   -0.14125E-04  7296   0.701E-04 0.196E-06
CGA:  20    -0.284629333166E+03   -0.10029E-04   -0.10028E-04  7296   0.531E-04 0.225E-06
CGA:  21    -0.284629344910E+03   -0.11744E-04   -0.11782E-04  7296   0.646E-04-0.469E-06
CGA:  22    -0.284629353091E+03   -0.81808E-05   -0.81752E-05  7296   0.348E-04-0.370E-06
  15 F= -.28462935E+03 E0= -.28462086E+03  d E =-.304743E-02  mag=    18.0000
       N       E                     dE             d eps       ncg     rms          ort
SDA:   1    -0.283767665001E+03    0.86168E+00    0.00000E+00  7296   0.248E+01 0.000E+00
CGA:   2    -0.284225331665E+03   -0.45767E+00   -0.45874E+00  7296   0.257E+01-0.194E-01
CGA:   3    -0.284472824739E+03   -0.24749E+00   -0.24921E+00  7296   0.890E+00 0.115E-02
CGA:   4    -0.284585810008E+03   -0.11299E+00   -0.11297E+00  7296   0.306E+00-0.418E-03
CGA:   5    -0.284615895214E+03   -0.30085E-01   -0.30121E-01  7296   0.922E-01 0.540E-04
CGA:   6    -0.284626156870E+03   -0.10262E-01   -0.10255E-01  7296   0.368E-01-0.585E-04
CGA:   7    -0.284629801333E+03   -0.36445E-02   -0.36507E-02  7296   0.127E-01 0.196E-04
CGA:   8    -0.284631675903E+03   -0.18746E-02   -0.18748E-02  7296   0.406E-02-0.116E-04
CGA:   9    -0.284632208867E+03   -0.53296E-03   -0.53300E-03  7296   0.256E-02 0.404E-05
CGA:  10    -0.284632504677E+03   -0.29581E-03   -0.29581E-03  7296   0.812E-03 0.395E-06
CGA:  11    -0.284632629863E+03   -0.12519E-03   -0.12513E-03  7296   0.628E-03 0.294E-05
CGA:  12    -0.284632713426E+03   -0.83563E-04   -0.83566E-04  7296   0.276E-03 0.741E-06
CGA:  13    -0.284632751346E+03   -0.37920E-04   -0.37920E-04  7296   0.214E-03 0.160E-05
CGA:  14    -0.284632779791E+03   -0.28444E-04   -0.28446E-04  7296   0.847E-04 0.320E-06
CGA:  15    -0.284632790233E+03   -0.10443E-04   -0.10448E-04  7296   0.525E-04 0.361E-06
CGA:  16    -0.284632797670E+03   -0.74366E-05   -0.74361E-05  7296   0.171E-04 0.104E-06
  16 F= -.28463280E+03 E0= -.28462433E+03  d E =-.344458E-02  mag=    18.0000
       N       E                     dE             d eps       ncg     rms          ort
SDA:   1    -0.284208537292E+03    0.42425E+00    0.00000E+00  7296   0.129E+01 0.000E+00
CGA:   2    -0.284446419648E+03   -0.23788E+00   -0.23776E+00  7296   0.938E+00 0.195E-02
CGA:   3    -0.284551116528E+03   -0.10470E+00   -0.10458E+00  7296   0.547E+00-0.112E-02
CGA:   4    -0.284611774758E+03   -0.60658E-01   -0.60722E-01  7296   0.139E+00 0.653E-03
CGA:   5    -0.284627880872E+03   -0.16106E-01   -0.16096E-01  7296   0.472E-01-0.156E-03
CGA:   6    -0.284632549401E+03   -0.46685E-02   -0.46771E-02  7296   0.162E-01 0.411E-04
CGA:   7    -0.284634549890E+03   -0.20005E-02   -0.20003E-02  7296   0.711E-02-0.835E-05
CGA:   8    -0.284635315891E+03   -0.76600E-03   -0.76619E-03  7296   0.233E-02 0.404E-05
CGA:   9    -0.284635680988E+03   -0.36510E-03   -0.36514E-03  7296   0.118E-02-0.116E-05
CGA:  10    -0.284635793344E+03   -0.11236E-03   -0.11243E-03  7296   0.454E-03 0.143E-05
CGA:  11    -0.284635870579E+03   -0.77235E-04   -0.77232E-04  7296   0.259E-03 0.102E-06
CGA:  12    -0.284635899074E+03   -0.28495E-04   -0.28520E-04  7296   0.141E-03 0.104E-05
CGA:  13    -0.284635922706E+03   -0.23632E-04   -0.23631E-04  7296   0.823E-04 0.303E-07
CGA:  14    -0.284635931815E+03   -0.91088E-05   -0.91169E-05  7296   0.398E-04 0.351E-06
  17 F= -.28463593E+03 E0= -.28462747E+03  d E =-.313415E-02  mag=    18.0000
       N       E                     dE             d eps       ncg     rms          ort
SDA:   1    -0.284508595089E+03    0.12733E+00    0.00000E+00  7296   0.342E+00 0.000E+00
CGA:   2    -0.284580569369E+03   -0.71974E-01   -0.72008E-01  7296   0.371E+00-0.377E-03
CGA:   3    -0.284614503702E+03   -0.33934E-01   -0.33998E-01  7296   0.135E+00 0.513E-05
CGA:   4    -0.284631413042E+03   -0.16909E-01   -0.16909E-01  7296   0.317E-01-0.314E-04
CGA:   5    -0.284634801891E+03   -0.33888E-02   -0.33900E-02  7296   0.128E-01 0.141E-04
CGA:   6    -0.284636077498E+03   -0.12756E-02   -0.12752E-02  7296   0.370E-02-0.516E-05
CGA:   7    -0.284636573227E+03   -0.49573E-03   -0.49572E-03  7296   0.192E-02 0.334E-05
CGA:   8    -0.284636761693E+03   -0.18847E-03   -0.18842E-03  7296   0.529E-03-0.585E-06
CGA:   9    -0.284636849805E+03   -0.88112E-04   -0.88082E-04  7296   0.254E-03 0.809E-06
CGA:  10    -0.284636874887E+03   -0.25083E-04   -0.25074E-04  7296   0.111E-03-0.228E-06
CGA:  11    -0.284636892658E+03   -0.17770E-04   -0.17753E-04  7296   0.753E-04 0.576E-06
CGA:  12    -0.284636900903E+03   -0.82449E-05   -0.82423E-05  7296   0.337E-04-0.106E-06
  18 F= -.28463690E+03 E0= -.28462846E+03  d E =-.969087E-03  mag=    18.0000
       N       E                     dE             d eps       ncg     rms          ort
SDA:   1    -0.283886768327E+03    0.75012E+00    0.00000E+00  7296   0.211E+01 0.000E+00
CGA:   2    -0.284291422243E+03   -0.40465E+00   -0.40413E+00  7296   0.209E+01 0.735E-02
CGA:   3    -0.284489892382E+03   -0.19847E+00   -0.19747E+00  7296   0.864E+00-0.675E-03
CGA:   4    -0.284601571995E+03   -0.11168E+00   -0.11169E+00  7296   0.205E+00 0.825E-03
CGA:   5    -0.284624892852E+03   -0.23321E-01   -0.23309E-01  7296   0.816E-01-0.181E-03
CGA:   6    -0.284632634594E+03   -0.77417E-02   -0.77508E-02  7296   0.225E-01 0.263E-04
CGA:   7    -0.284635895585E+03   -0.32610E-02   -0.32612E-02  7296   0.104E-01-0.734E-05
CGA:   8    -0.284636908615E+03   -0.10130E-02   -0.10134E-02  7296   0.385E-02 0.747E-05
CGA:   9    -0.284637472999E+03   -0.56438E-03   -0.56439E-03  7296   0.186E-02 0.342E-06
CGA:  10    -0.284637654410E+03   -0.18141E-03   -0.18152E-03  7296   0.709E-03 0.194E-05
CGA:  11    -0.284637779689E+03   -0.12528E-03   -0.12525E-03  7296   0.463E-03 0.728E-06
CGA:  12    -0.284637829971E+03   -0.50282E-04   -0.50306E-04  7296   0.231E-03 0.103E-05
CGA:  13    -0.284637873393E+03   -0.43422E-04   -0.43333E-04  7296   0.147E-03 0.158E-05
CGA:  14    -0.284637888066E+03   -0.14673E-04   -0.14711E-04  7296   0.698E-04 0.109E-05
CGA:  15    -0.284637900498E+03   -0.12431E-04   -0.12382E-04  7296   0.339E-04 0.111E-05
CGA:  16    -0.284637904293E+03   -0.37950E-05   -0.38064E-05  7296   0.173E-04 0.485E-06
  19 F= -.28463790E+03 E0= -.28462947E+03  d E =-.100339E-02  mag=    18.0000
       N       E                     dE             d eps       ncg     rms          ort
SDA:   1    -0.284170348485E+03    0.46755E+00    0.00000E+00  7296   0.140E+01 0.000E+00
CGA:   2    -0.284438175930E+03   -0.26783E+00   -0.26782E+00  7296   0.816E+00 0.881E-04
CGA:   3    -0.284566040104E+03   -0.12786E+00   -0.12786E+00  7296   0.549E+00 0.320E-05
CGA:   4    -0.284613468153E+03   -0.47428E-01   -0.47484E-01  7296   0.155E+00-0.118E-03
CGA:   5    -0.284631357006E+03   -0.17889E-01   -0.17885E-01  7296   0.348E-01-0.650E-04
CGA:   6    -0.284635541439E+03   -0.41844E-02   -0.41847E-02  7296   0.178E-01 0.669E-05
CGA:   7    -0.284637432627E+03   -0.18912E-02   -0.18913E-02  7296   0.549E-02 0.322E-05
CGA:   8    -0.284638115644E+03   -0.68302E-03   -0.68300E-03  7296   0.298E-02 0.932E-06
CGA:   9    -0.284638468800E+03   -0.35316E-03   -0.35320E-03  7296   0.859E-03 0.201E-05
CGA:  10    -0.284638591360E+03   -0.12256E-03   -0.12255E-03  7296   0.605E-03 0.123E-05
CGA:  11    -0.284638658495E+03   -0.67136E-04   -0.67145E-04  7296   0.214E-03 0.499E-06
CGA:  12    -0.284638692844E+03   -0.34348E-04   -0.34324E-04  7296   0.183E-03 0.820E-06
CGA:  13    -0.284638713771E+03   -0.20928E-04   -0.20938E-04  7296   0.631E-04 0.557E-06
CGA:  14    -0.284638724587E+03   -0.10816E-04   -0.10790E-04  7296   0.487E-04 0.663E-06
CGA:  15    -0.284638729921E+03   -0.53342E-05   -0.53403E-05  7296   0.173E-04 0.245E-06
  20 F= -.28463873E+03 E0= -.28463034E+03  d E =-.825628E-03  mag=    18.0000
       N       E                     dE             d eps       ncg     rms          ort
SDA:   1    -0.284522820477E+03    0.11590E+00    0.00000E+00  7296   0.328E+00 0.000E+00
CGA:   2    -0.284585242475E+03   -0.62422E-01   -0.62419E-01  7296   0.350E+00 0.467E-04
CGA:   3    -0.284617833438E+03   -0.32591E-01   -0.32606E-01  7296   0.125E+00 0.300E-04
CGA:   4    -0.284633358007E+03   -0.15525E-01   -0.15522E-01  7296   0.380E-01-0.117E-03
CGA:   5    -0.284637466172E+03   -0.41082E-02   -0.41108E-02  7296   0.102E-01 0.350E-04
CGA:   6    -0.284638788152E+03   -0.13220E-02   -0.13219E-02  7296   0.365E-02-0.694E-05
CGA:   7    -0.284639167222E+03   -0.37907E-03   -0.37917E-03  7296   0.185E-02 0.228E-05
CGA:   8    -0.284639381860E+03   -0.21464E-03   -0.21461E-03  7296   0.499E-03-0.199E-05
CGA:   9    -0.284639456852E+03   -0.74991E-04   -0.74984E-04  7296   0.306E-03 0.347E-06
CGA:  10    -0.284639488794E+03   -0.31942E-04   -0.31939E-04  7296   0.106E-03-0.104E-06
CGA:  11    -0.284639505139E+03   -0.16345E-04   -0.16336E-04  7296   0.826E-04 0.375E-06
CGA:  12    -0.284639515534E+03   -0.10395E-04   -0.10394E-04  7296   0.358E-04-0.164E-06
CGA:  13    -0.284639520949E+03   -0.54148E-05   -0.54119E-05  7296   0.274E-04 0.132E-06
  21 F= -.28463952E+03 E0= -.28463111E+03  d E =-.791028E-03  mag=    18.0000
