       N       E                     dE             d eps       ncg     rms          ort
DAV:   1     0.714894532543E+04    0.71489E+04   -0.27596E+05  8528   0.168E+03
DAV:   2     0.750494091633E+03   -0.63985E+04   -0.60638E+04  8528   0.503E+02
DAV:   3    -0.361896417384E+03   -0.11124E+04   -0.10873E+04  8528   0.206E+02
DAV:   4    -0.426498243093E+03   -0.64602E+02   -0.62719E+02  8528   0.509E+01
DAV:   5    -0.431582326852E+03   -0.50841E+01   -0.49606E+01  8528   0.115E+01
SDA:   6    -0.143286360395E+03    0.28830E+03   -0.49606E+01  8528   0.242E+04 0.000E+00
CGA:   7    -0.232771435083E+03   -0.89485E+02   -0.12862E+03  8528   0.433E+04-0.130E+04
CGA:   8    -0.182499712515E+03    0.50272E+02   -0.23653E+03  8528   0.884E+04-0.538E+04
CGA:   9     0.310408052661E+02    0.21354E+03   -0.56056E+03  8528   0.902E+04-0.514E+04
CGA:  10    -0.224123806697E+03   -0.25516E+03   -0.35956E+03  8528   0.274E+04-0.453E+04
CGA:  11    -0.301090557726E+03   -0.76967E+02   -0.89831E+02  8528   0.315E+04-0.412E+04
CGA:  12    -0.193102846724E+03    0.10799E+03   -0.17664E+03  8528   0.729E+04-0.320E+04
CGA:  13     0.157068614687E+03    0.35017E+03   -0.35678E+03  8528   0.161E+05-0.951E+04
CGA:  14     0.108695308655E+03   -0.48373E+02   -0.71839E+03  8528   0.214E+05-0.190E+05
CGA:  15     0.593444633816E+02   -0.49351E+02   -0.11257E+04  8528   0.112E+05-0.105E+05
CGA:  16    -0.122694488911E+03   -0.18204E+03   -0.24670E+03  8528   0.677E+04-0.300E+04
CGA:  17    -0.790407219705E+02    0.43654E+02   -0.17649E+03  8528   0.485E+04-0.360E+04
CGA:  18    -0.100768161971E+03   -0.21727E+02   -0.17147E+03  8528   0.368E+04-0.346E+04
CGA:  19    -0.269200287110E+03   -0.16843E+03   -0.97362E+02  8528   0.625E+04-0.910E+04
CGA:  20    -0.159034345666E+03    0.11017E+03   -0.28511E+03  8528   0.447E+04-0.161E+04
CGA:  21    -0.319610365106E+03   -0.16058E+03   -0.76047E+02  8528   0.360E+04-0.158E+04
CGA:  22    -0.298775283393E+03    0.20835E+02   -0.12094E+03  8528   0.143E+04-0.182E+03
CGA:  23    -0.335554545794E+03   -0.36779E+02   -0.32294E+02  8528   0.567E+03 0.946E+02
CGA:  24    -0.355845600562E+03   -0.20291E+02   -0.13019E+02  8528   0.181E+03 0.253E+03
CGA:  25    -0.361122859219E+03   -0.52773E+01   -0.36764E+01  8528   0.353E+03 0.106E+03
CGA:  26    -0.368376190415E+03   -0.72533E+01   -0.54111E+01  8528   0.141E+03-0.624E+02
CGA:  27    -0.370499277999E+03   -0.21231E+01   -0.13195E+01  8528   0.988E+02 0.693E+02
CGA:  28    -0.372051104761E+03   -0.15518E+01   -0.16987E+01  8528   0.923E+02-0.148E+02
CGA:  29    -0.373238637369E+03   -0.11875E+01   -0.98881E+00  8528   0.835E+02 0.142E+02
CGA:  30    -0.372816774018E+03    0.42186E+00   -0.16440E+01  8528   0.175E+03-0.118E+03
CGA:  31    -0.371783944524E+03    0.10328E+01   -0.37405E+01  8528   0.367E+03-0.174E+03
CGA:  32    -0.370200346768E+03    0.15836E+01   -0.63879E+01  8528   0.596E+03-0.441E+03
CGA:  33    -0.355123145288E+03    0.15077E+02   -0.15358E+02  8528   0.122E+04-0.582E+03
CGA:  34    -0.353911435829E+03    0.12117E+01   -0.23727E+02  8528   0.149E+04-0.138E+04
CGA:  35    -0.346519408541E+03    0.73920E+01   -0.36002E+02  8528   0.672E+03-0.543E+03
CGA:  36    -0.369791061961E+03   -0.23272E+02   -0.43822E+01  8528   0.727E+03 0.126E+04
CGA:  37    -0.368877041599E+03    0.91402E+00   -0.12367E+02  8528   0.649E+03-0.568E+03
CGA:  38    -0.362849070411E+03    0.60280E+01   -0.12817E+02  8528   0.159E+04-0.113E+04
CGA:  39    -0.364052774906E+03   -0.12037E+01   -0.28398E+02  8528   0.988E+03-0.979E+03
CGA:  40    -0.361587418420E+03    0.24654E+01   -0.19291E+02  8528   0.172E+04-0.153E+04
CGA:  41    -0.366774946603E+03   -0.51875E+01   -0.29553E+02  8528   0.769E+03-0.902E+03
CGA:  42    -0.371160006136E+03   -0.43851E+01   -0.13185E+02  8528   0.540E+03-0.700E+03
CGA:  43    -0.373942356792E+03   -0.27824E+01   -0.84452E+01  8528   0.253E+03-0.337E+03
CGA:  44    -0.376568947271E+03   -0.26266E+01   -0.28162E+01  8528   0.294E+02-0.901E+02
CGA:  45    -0.376883753447E+03   -0.31481E+00   -0.36152E+00  8528   0.679E+01-0.226E+01
CGA:  46    -0.377079855119E+03   -0.19610E+00   -0.20021E+00  8528   0.108E+02 0.106E-01
CGA:  47    -0.378192309780E+03   -0.11125E+01   -0.92135E+00  8528   0.429E+01 0.397E+01
CGA:  48    -0.378357938015E+03   -0.16563E+00   -0.16716E+00  8528   0.578E+01-0.386E-01
CGA:  49    -0.378892938866E+03   -0.53500E+00   -0.57626E+00  8528   0.167E+02-0.657E+00
CGA:  50    -0.379362784892E+03   -0.46985E+00   -0.47021E+00  8528   0.846E+01 0.229E+00
CGA:  51    -0.379547063037E+03   -0.18428E+00   -0.19851E+00  8528   0.416E+01-0.364E+00
CGA:  52    -0.379738539277E+03   -0.19148E+00   -0.19148E+00  8528   0.372E+01-0.834E-02
CGA:  53    -0.379831024725E+03   -0.92485E-01   -0.97133E-01  8528   0.179E+01-0.664E-01
CGA:  54    -0.379906942476E+03   -0.75918E-01   -0.76432E-01  8528   0.226E+01 0.860E-01
CGA:  55    -0.380064643967E+03   -0.15770E+00   -0.15933E+00  8528   0.231E+01-0.622E-01
CGA:  56    -0.380153311913E+03   -0.88668E-01   -0.86263E-01  8528   0.184E+01-0.689E-01
CGA:  57    -0.380222760494E+03   -0.69449E-01   -0.66670E-01  8528   0.233E+01-0.705E-01
CGA:  58    -0.380289092602E+03   -0.66332E-01   -0.66601E-01  8528   0.206E+01-0.650E-02
CGA:  59    -0.380334522079E+03   -0.45429E-01   -0.45210E-01  8528   0.144E+01 0.912E-02
CGA:  60    -0.380385207863E+03   -0.50686E-01   -0.49968E-01  8528   0.200E+01-0.156E-01
CGA:  61    -0.380431024688E+03   -0.45817E-01   -0.41747E-01  8528   0.164E+01 0.111E+00
CGA:  62    -0.380464155578E+03   -0.33131E-01   -0.31354E-01  8528   0.132E+01 0.539E-01
CGA:  63    -0.380491505659E+03   -0.27350E-01   -0.26990E-01  8528   0.156E+01-0.640E-02
CGA:  64    -0.380528488598E+03   -0.36983E-01   -0.40333E-01  8528   0.202E+01-0.155E-01
CGA:  65    -0.380565912638E+03   -0.37424E-01   -0.35275E-01  8528   0.976E+00 0.618E-01
CGA:  66    -0.380582880877E+03   -0.16968E-01   -0.16506E-01  8528   0.632E+00 0.130E-01
CGA:  67    -0.380597355410E+03   -0.14475E-01   -0.14100E-01  8528   0.852E+00 0.422E-02
CGA:  68    -0.380616682282E+03   -0.19327E-01   -0.18973E-01  8528   0.995E+00 0.382E-02
CGA:  69    -0.380631111850E+03   -0.14430E-01   -0.13860E-01  8528   0.635E+00 0.305E-01
CGA:  70    -0.380641283781E+03   -0.10172E-01   -0.99463E-02  8528   0.630E+00 0.983E-02
CGA:  71    -0.380653659748E+03   -0.12376E-01   -0.12134E-01  8528   0.846E+00 0.546E-02
CGA:  72    -0.380666465062E+03   -0.12805E-01   -0.12675E-01  8528   0.661E+00 0.772E-02
CGA:  73    -0.380674570157E+03   -0.81051E-02   -0.77827E-02  8528   0.444E+00 0.202E-01
SDA:  74    -0.380681687918E+03   -0.71178E-02   -0.70622E-02  8528   0.586E+00 0.201E-02
CGA:  75    -0.380698489713E+03   -0.16802E-01   -0.16805E-01  8528   0.272E+00 0.933E-03
CGA:  76    -0.380710589872E+03   -0.12100E-01   -0.12016E-01  8528   0.156E+00 0.490E-02
CGA:  77    -0.380726816863E+03   -0.16227E-01   -0.16204E-01  8528   0.324E+00 0.468E-04
CGA:  78    -0.380746713453E+03   -0.19897E-01   -0.20039E-01  8528   0.296E+00-0.404E-02
CGA:  79    -0.380763712839E+03   -0.16999E-01   -0.20319E-01  8528   0.344E+00-0.102E+00
CGA:  80    -0.380772276488E+03   -0.85636E-02   -0.85827E-02  8528   0.214E+00-0.177E-01
CGA:  81    -0.380778033067E+03   -0.57566E-02   -0.56880E-02  8528   0.164E+00-0.808E-03
CGA:  82    -0.380782957418E+03   -0.49244E-02   -0.49178E-02  8528   0.109E+00-0.827E-04
CGA:  83    -0.380787420662E+03   -0.44632E-02   -0.44576E-02  8528   0.152E+00 0.838E-03
CGA:  84    -0.380792207078E+03   -0.47864E-02   -0.47680E-02  8528   0.957E-01-0.905E-03
CGA:  85    -0.380795590133E+03   -0.33831E-02   -0.33801E-02  8528   0.840E-01-0.122E-02
CGA:  86    -0.380797430861E+03   -0.18407E-02   -0.18765E-02  8528   0.389E-01-0.328E-03
CGA:  87    -0.380799772751E+03   -0.23419E-02   -0.23467E-02  8528   0.922E-01-0.217E-03
CGA:  88    -0.380802541424E+03   -0.27687E-02   -0.27705E-02  8528   0.596E-01-0.776E-04
CGA:  89    -0.380804912161E+03   -0.23707E-02   -0.23797E-02  8528   0.811E-01-0.174E-02
CGA:  90    -0.380807240117E+03   -0.23280E-02   -0.23141E-02  8528   0.751E-01-0.582E-03
CGA:  91    -0.380809974693E+03   -0.27346E-02   -0.27341E-02  8528   0.900E-01 0.231E-02
CGA:  92    -0.380812356414E+03   -0.23817E-02   -0.24016E-02  8528   0.377E-01 0.276E-03
CGA:  93    -0.380814446143E+03   -0.20897E-02   -0.21171E-02  8528   0.698E-01-0.117E-02
CGA:  94    -0.380816617923E+03   -0.21718E-02   -0.21808E-02  8528   0.645E-01 0.627E-03
CGA:  95    -0.380820865330E+03   -0.42474E-02   -0.41034E-02  8528   0.122E+00 0.468E-02
CGA:  96    -0.380824440789E+03   -0.35755E-02   -0.33286E-02  8528   0.774E-01 0.111E-02
CGA:  97    -0.380826739592E+03   -0.22988E-02   -0.22799E-02  8528   0.720E-01-0.331E-03
CGA:  98    -0.380828355864E+03   -0.16163E-02   -0.16272E-02  8528   0.528E-01 0.882E-04
CGA:  99    -0.380830256830E+03   -0.19010E-02   -0.19009E-02  8528   0.901E-01 0.238E-04
CGA: 100    -0.380833139791E+03   -0.28830E-02   -0.28644E-02  8528   0.118E+00-0.131E-02
CGA: 101    -0.380836565108E+03   -0.34253E-02   -0.34618E-02  8528   0.176E+00 0.202E-02
CGA: 102    -0.380842619527E+03   -0.60544E-02   -0.59266E-02  8528   0.234E+00-0.167E-01
CGA: 103    -0.380845326894E+03   -0.27074E-02   -0.22891E-02  8528   0.269E+00 0.239E-01
CGA: 104    -0.380848567159E+03   -0.32403E-02   -0.31431E-02  8528   0.286E+00 0.991E-02
SDA: 105    -0.380851318797E+03   -0.27516E-02   -0.23799E-02  8528   0.282E+00 0.441E-01
CGA: 106    -0.380863416440E+03   -0.12098E-01   -0.12045E-01  8528   0.168E+00 0.353E-02
CGA: 107    -0.380873237806E+03   -0.98214E-02   -0.96461E-02  8528   0.162E+00 0.667E-02
CGA: 108    -0.380891745779E+03   -0.18508E-01   -0.19322E-01  8528   0.577E+00-0.157E-01
CGA: 109    -0.380915695068E+03   -0.23949E-01   -0.24553E-01  8528   0.577E+00-0.475E-01
CGA: 110    -0.380927140161E+03   -0.11445E-01   -0.11853E-01  8528   0.284E+00-0.265E-02
CGA: 111    -0.380937301606E+03   -0.10161E-01   -0.10230E-01  8528   0.280E+00 0.265E-01
CGA: 112    -0.380953948406E+03   -0.16647E-01   -0.16114E-01  8528   0.223E+00 0.243E-01
CGA: 113    -0.380987095238E+03   -0.33147E-01   -0.32642E-01  8528   0.207E+00-0.569E-02
CGA: 114    -0.381003022609E+03   -0.15927E-01   -0.16182E-01  8528   0.206E+00-0.739E-02
CGA: 115    -0.381012511796E+03   -0.94892E-02   -0.94987E-02  8528   0.200E+00-0.184E-02
CGA: 116    -0.381027047897E+03   -0.14536E-01   -0.15537E-01  8528   0.371E+00-0.288E-01
CGA: 117    -0.381051368750E+03   -0.24321E-01   -0.25298E-01  8528   0.756E+00-0.322E-01
CGA: 118    -0.381073082176E+03   -0.21713E-01   -0.21534E-01  8528   0.608E+00-0.738E-02
CGA: 119    -0.381088058436E+03   -0.14976E-01   -0.13936E-01  8528   0.476E+00 0.290E-01
CGA: 120    -0.381103688715E+03   -0.15630E-01   -0.15557E-01  8528   0.503E+00 0.541E-03
CGA: 121    -0.381116529601E+03   -0.12841E-01   -0.13226E-01  8528   0.491E+00-0.358E-02
CGA: 122    -0.381137224582E+03   -0.20695E-01   -0.20752E-01  8528   0.588E+00 0.137E-01
CGA: 123    -0.381154587158E+03   -0.17363E-01   -0.15876E-01  8528   0.571E+00 0.194E-01
CGA: 124    -0.381169530360E+03   -0.14943E-01   -0.13691E-01  8528   0.543E+00 0.233E-01
CGA: 125    -0.381178128674E+03   -0.85983E-02   -0.79928E-02  8528   0.359E+00 0.331E-01
CGA: 126    -0.381185380503E+03   -0.72518E-02   -0.71453E-02  8528   0.488E+00 0.361E-02
CGA: 127    -0.381195517096E+03   -0.10137E-01   -0.10117E-01  8528   0.608E+00 0.843E-03
CGA: 128    -0.381204650286E+03   -0.91332E-02   -0.93970E-02  8528   0.542E+00-0.115E-01
CGA: 129    -0.381215221122E+03   -0.10571E-01   -0.10998E-01  8528   0.664E+00-0.781E-02
CGA: 130    -0.381226877659E+03   -0.11657E-01   -0.11565E-01  8528   0.486E+00 0.407E-02
CGA: 131    -0.381235075642E+03   -0.81980E-02   -0.81580E-02  8528   0.401E+00 0.568E-03
CGA: 132    -0.381242816444E+03   -0.77408E-02   -0.77904E-02  8528   0.352E+00-0.164E-02
CGA: 133    -0.381248618946E+03   -0.58025E-02   -0.58412E-02  8528   0.267E+00-0.179E-02
CGA: 134    -0.381255194171E+03   -0.65752E-02   -0.65710E-02  8528   0.446E+00-0.389E-03
CGA: 135    -0.381266642696E+03   -0.11449E-01   -0.11409E-01  8528   0.570E+00-0.142E-02
SDA: 136    -0.381276417588E+03   -0.97749E-02   -0.96626E-02  8528   0.465E+00 0.356E-02
CGA: 137    -0.381307919201E+03   -0.31502E-01   -0.31227E-01  8528   0.319E+00 0.788E-02
CGA: 138    -0.381328218124E+03   -0.20299E-01   -0.20585E-01  8528   0.444E+00-0.927E-02
CGA: 139    -0.381384397730E+03   -0.56180E-01   -0.53105E-01  8528   0.470E+00 0.381E-01
CGA: 140    -0.381414233691E+03   -0.29836E-01   -0.30096E-01  8528   0.243E+00-0.107E-01
CGA: 141    -0.381422232942E+03   -0.79993E-02   -0.79477E-02  8528   0.211E+00-0.223E-02
CGA: 142    -0.381434537929E+03   -0.12305E-01   -0.12397E-01  8528   0.253E+00-0.411E-02
CGA: 143    -0.381447830610E+03   -0.13293E-01   -0.13314E-01  8528   0.384E+00-0.139E-02
CGA: 144    -0.381464416552E+03   -0.16586E-01   -0.16641E-01  8528   0.270E+00-0.161E-01
CGA: 145    -0.381472378474E+03   -0.79619E-02   -0.79445E-02  8528   0.188E+00 0.647E-04
CGA: 146    -0.381479868393E+03   -0.74899E-02   -0.74756E-02  8528   0.119E+00-0.478E-02
CGA: 147    -0.381490658894E+03   -0.10791E-01   -0.11216E-01  8528   0.415E+00-0.837E-02
CGA: 148    -0.381498845828E+03   -0.81869E-02   -0.79925E-02  8528   0.121E+00 0.499E-02
CGA: 149    -0.381502486845E+03   -0.36410E-02   -0.35913E-02  8528   0.996E-01-0.435E-04
CGA: 150    -0.381504701168E+03   -0.22143E-02   -0.21720E-02  8528   0.639E-01 0.922E-03
CGA: 151    -0.381506688778E+03   -0.19876E-02   -0.20072E-02  8528   0.807E-01 0.367E-03
CGA: 152    -0.381511120359E+03   -0.44316E-02   -0.44419E-02  8528   0.176E+00-0.581E-03
CGA: 153    -0.381514716199E+03   -0.35958E-02   -0.32096E-02  8528   0.128E+00 0.126E-01
CGA: 154    -0.381518621963E+03   -0.39058E-02   -0.37625E-02  8528   0.189E+00-0.220E-03
CGA: 155    -0.381521346461E+03   -0.27245E-02   -0.26525E-02  8528   0.903E-01 0.504E-02
CGA: 156    -0.381522577014E+03   -0.12306E-02   -0.12688E-02  8528   0.609E-01-0.189E-02
CGA: 157    -0.381523640980E+03   -0.10640E-02   -0.10887E-02  8528   0.493E-01-0.629E-03
CGA: 158    -0.381524543961E+03   -0.90298E-03   -0.89841E-03  8528   0.550E-01 0.172E-03
CGA: 159    -0.381525855672E+03   -0.13117E-02   -0.12950E-02  8528   0.806E-01 0.740E-04
CGA: 160    -0.381527591874E+03   -0.17362E-02   -0.17169E-02  8528   0.104E+00 0.336E-03
CGA: 161    -0.381529109492E+03   -0.15176E-02   -0.15540E-02  8528   0.494E-01-0.122E-02
CGA: 162    -0.381529776838E+03   -0.66735E-03   -0.67539E-03  8528   0.406E-01-0.287E-03
CGA: 163    -0.381530775201E+03   -0.99836E-03   -0.99882E-03  8528   0.457E-01 0.738E-04
CGA: 164    -0.381531319455E+03   -0.54425E-03   -0.52933E-03  8528   0.194E-01 0.101E-02
CGA: 165    -0.381531702826E+03   -0.38337E-03   -0.37971E-03  8528   0.288E-01 0.472E-04
CGA: 166    -0.381532359303E+03   -0.65648E-03   -0.65403E-03  8528   0.444E-01-0.533E-04
SDA: 167    -0.381533150326E+03   -0.79102E-03   -0.80472E-03  8528   0.471E-01-0.158E-03
CGA: 168    -0.381534017024E+03   -0.86670E-03   -0.87253E-03  8528   0.192E-01-0.416E-04
CGA: 169    -0.381534477803E+03   -0.46078E-03   -0.46078E-03  8528   0.111E-01-0.791E-05
CGA: 170    -0.381535118022E+03   -0.64022E-03   -0.64202E-03  8528   0.195E-01-0.647E-04
CGA: 171    -0.381536264175E+03   -0.11462E-02   -0.11292E-02  8528   0.260E-01 0.593E-03
CGA: 172    -0.381538178859E+03   -0.19147E-02   -0.18943E-02  8528   0.289E-01 0.351E-03
CGA: 173    -0.381538780880E+03   -0.60202E-03   -0.60453E-03  8528   0.169E-01-0.424E-04
CGA: 174    -0.381539358585E+03   -0.57771E-03   -0.57782E-03  8528   0.551E-02-0.376E-04
CGA: 175    -0.381540092520E+03   -0.73393E-03   -0.73218E-03  8528   0.733E-02-0.201E-05
CGA: 176    -0.381540306647E+03   -0.21413E-03   -0.21399E-03  8528   0.936E-02 0.166E-04
CGA: 177    -0.381540641859E+03   -0.33521E-03   -0.33540E-03  8528   0.153E-02 0.751E-04
CGA: 178    -0.381540729503E+03   -0.87644E-04   -0.87515E-04  8528   0.164E-02 0.415E-05
CGA: 179    -0.381540811625E+03   -0.82122E-04   -0.82228E-04  8528   0.287E-02-0.987E-05
CGA: 180    -0.381540920424E+03   -0.10880E-03   -0.10878E-03  8528   0.366E-02-0.184E-04
CGA: 181    -0.381541048573E+03   -0.12815E-03   -0.12850E-03  8528   0.226E-02 0.340E-04
CGA: 182    -0.381541127942E+03   -0.79369E-04   -0.79263E-04  8528   0.939E-03-0.100E-04
CGA: 183    -0.381541028117E+03    0.99824E-04   -0.52986E-04  8528   0.307E-01-0.272E-02
CGA: 184    -0.381541341812E+03   -0.31369E-03   -0.31715E-03  8528   0.134E-02-0.297E-03
CGA: 185    -0.381541400580E+03   -0.58769E-04   -0.58907E-04  8528   0.676E-03 0.696E-06
CGA: 186    -0.381541432212E+03   -0.31631E-04   -0.31632E-04  8528   0.945E-03-0.635E-06
CGA: 187    -0.381541471134E+03   -0.38922E-04   -0.38916E-04  8528   0.135E-02-0.146E-05
CGA: 188    -0.381541520164E+03   -0.49030E-04   -0.48875E-04  8528   0.131E-02 0.110E-05
CGA: 189    -0.381541566915E+03   -0.46751E-04   -0.46910E-04  8528   0.420E-03-0.461E-05
CGA: 190    -0.381541586423E+03   -0.19508E-04   -0.19425E-04  8528   0.217E-03-0.500E-05
CGA: 191    -0.381541595109E+03   -0.86865E-05   -0.86452E-05  8528   0.451E-03-0.415E-05
CGA: 192    -0.381541612894E+03   -0.17785E-04   -0.17415E-04  8528   0.278E-03-0.715E-05
CGA: 193    -0.381541638973E+03   -0.26078E-04   -0.26587E-04  8528   0.106E-03-0.142E-04
CGA: 194    -0.381541642324E+03   -0.33515E-05   -0.33590E-05  8528   0.132E-03 0.803E-06
   1 F= -.38154164E+03 E0= -.38151588E+03  d E =-.381542E+03  mag=    17.0441
       N       E                     dE             d eps       ncg     rms          ort
SDA:   1    -0.381550985827E+03   -0.93469E-02    0.00000E+00  8528   0.197E+01 0.000E+00
CGA:   2    -0.381571031086E+03   -0.20045E-01   -0.19877E-01  8528   0.458E-01 0.139E-01
CGA:   3    -0.381571825381E+03   -0.79430E-03   -0.81161E-03  8528   0.105E-01-0.749E-03
CGA:   4    -0.381572576223E+03   -0.75084E-03   -0.74978E-03  8528   0.685E-02 0.482E-04
CGA:   5    -0.381573447488E+03   -0.87126E-03   -0.87057E-03  8528   0.159E-01 0.872E-05
CGA:   6    -0.381573677179E+03   -0.22969E-03   -0.23010E-03  8528   0.300E-02-0.457E-05
CGA:   7    -0.381573787704E+03   -0.11052E-03   -0.11044E-03  8528   0.188E-02-0.134E-05
CGA:   8    -0.381573852731E+03   -0.65027E-04   -0.64893E-04  8528   0.108E-02-0.573E-05
CGA:   9    -0.381573925616E+03   -0.72886E-04   -0.73079E-04  8528   0.987E-03-0.139E-04
CGA:  10    -0.381573968514E+03   -0.42898E-04   -0.42848E-04  8528   0.211E-03-0.540E-05
CGA:  11    -0.381573978849E+03   -0.10334E-04   -0.10329E-04  8528   0.151E-03-0.100E-05
CGA:  12    -0.381573983613E+03   -0.47640E-05   -0.47539E-05  8528   0.127E-03-0.402E-06
   2 F= -.38157398E+03 E0= -.38154814E+03  d E =-.323413E-01  mag=    17.0458
       N       E                     dE             d eps       ncg     rms          ort
SDA:   1    -0.381576636726E+03   -0.26579E-02    0.00000E+00  8528   0.228E+01 0.000E+00
CGA:   2    -0.381599127658E+03   -0.22491E-01   -0.24295E-01  8528   0.610E-01-0.154E+00
CGA:   3    -0.381599985726E+03   -0.85807E-03   -0.85499E-03  8528   0.920E-02 0.160E-03
CGA:   4    -0.381600451091E+03   -0.46536E-03   -0.46534E-03  8528   0.998E-02 0.110E-04
CGA:   5    -0.381600697479E+03   -0.24639E-03   -0.24669E-03  8528   0.786E-02 0.434E-05
CGA:   6    -0.381601178995E+03   -0.48152E-03   -0.48111E-03  8528   0.827E-02 0.272E-04
CGA:   7    -0.381601423557E+03   -0.24456E-03   -0.24468E-03  8528   0.441E-02 0.414E-06
CGA:   8    -0.381601516384E+03   -0.92827E-04   -0.92598E-04  8528   0.143E-02 0.216E-05
CGA:   9    -0.381601568233E+03   -0.51849E-04   -0.51775E-04  8528   0.127E-02-0.651E-05
CGA:  10    -0.381601609378E+03   -0.41145E-04   -0.41069E-04  8528   0.789E-03-0.706E-05
CGA:  11    -0.381601645696E+03   -0.36318E-04   -0.36333E-04  8528   0.125E-02-0.104E-04
CGA:  12    -0.381601674433E+03   -0.28738E-04   -0.28571E-04  8528   0.176E-03-0.831E-05
CGA:  13    -0.381601681118E+03   -0.66843E-05   -0.66744E-05  8528   0.146E-03-0.183E-05
   3 F= -.38160168E+03 E0= -.38157583E+03  d E =-.276975E-01  mag=    17.0458
       N       E                     dE             d eps       ncg     rms          ort
SDA:   1    -0.308559223618E+03    0.73042E+02    0.00000E+00  8528   0.717E+03 0.000E+00
CGA:   2    -0.322656131199E+03   -0.14097E+02   -0.10561E+02  8528   0.274E+03-0.319E+02
CGA:   3    -0.349279092817E+03   -0.26623E+02   -0.29396E+02  8528   0.357E+03-0.145E+02
CGA:   4    -0.364330844210E+03   -0.15052E+02   -0.82292E+01  8528   0.177E+03 0.122E+03
CGA:   5    -0.369293768103E+03   -0.49629E+01   -0.54458E+01  8528   0.341E+03-0.670E+01
CGA:   6    -0.369935388989E+03   -0.64162E+00   -0.45242E+01  8528   0.372E+03-0.257E+03
CGA:   7    -0.376078193987E+03   -0.61428E+01   -0.61413E+01  8528   0.610E+02-0.577E+02
CGA:   8    -0.377141405866E+03   -0.10632E+01   -0.97455E+00  8528   0.599E+02 0.328E+01
CGA:   9    -0.378446092141E+03   -0.13047E+01   -0.94449E+00  8528   0.291E+02 0.162E+02
CGA:  10    -0.378941334286E+03   -0.49524E+00   -0.49781E+00  8528   0.408E+02-0.477E+00
CGA:  11    -0.380042707533E+03   -0.11014E+01   -0.11128E+01  8528   0.109E+03 0.949E-01
CGA:  12    -0.381270988176E+03   -0.12283E+01   -0.12603E+01  8528   0.847E+02-0.277E+01
CGA:  13    -0.382337711826E+03   -0.10667E+01   -0.10634E+01  8528   0.781E+02-0.204E-01
CGA:  14    -0.383005977740E+03   -0.66827E+00   -0.63345E+00  8528   0.205E+02 0.521E+01
CGA:  15    -0.383174829619E+03   -0.16885E+00   -0.18822E+00  8528   0.127E+02-0.184E+01
CGA:  16    -0.383498561351E+03   -0.32373E+00   -0.32677E+00  8528   0.170E+02 0.445E+00
CGA:  17    -0.383667176155E+03   -0.16861E+00   -0.17914E+00  8528   0.782E+01-0.884E+00
CGA:  18    -0.383979072189E+03   -0.31190E+00   -0.32416E+00  8528   0.229E+02-0.749E+00
CGA:  19    -0.384173382555E+03   -0.19431E+00   -0.19242E+00  8528   0.101E+02 0.164E+00
CGA:  20    -0.384262189275E+03   -0.88807E-01   -0.97188E-01  8528   0.640E+01-0.679E+00
CGA:  21    -0.384351762549E+03   -0.89573E-01   -0.10029E+00  8528   0.529E+01-0.169E+00
CGA:  22    -0.384402322854E+03   -0.50560E-01   -0.52473E-01  8528   0.157E+01-0.117E+00
CGA:  23    -0.384434813874E+03   -0.32491E-01   -0.32654E-01  8528   0.212E+01 0.718E-02
CGA:  24    -0.384480045988E+03   -0.45232E-01   -0.45425E-01  8528   0.270E+01 0.955E-02
CGA:  25    -0.384561996348E+03   -0.81950E-01   -0.81370E-01  8528   0.309E+01 0.102E+00
CGA:  26    -0.384603722446E+03   -0.41726E-01   -0.41870E-01  8528   0.954E+00-0.299E-02
CGA:  27    -0.384630621386E+03   -0.26899E-01   -0.27023E-01  8528   0.112E+01-0.320E-01
CGA:  28    -0.384646182309E+03   -0.15561E-01   -0.15680E-01  8528   0.472E+00-0.324E-02
CGA:  29    -0.384662815151E+03   -0.16633E-01   -0.16574E-01  8528   0.130E+01 0.464E-02
CGA:  30    -0.384699178087E+03   -0.36363E-01   -0.36373E-01  8528   0.870E+00-0.328E-02
CGA:  31    -0.384716768024E+03   -0.17590E-01   -0.17748E-01  8528   0.690E+00 0.666E-02
CGA:  32    -0.384728289685E+03   -0.11522E-01   -0.11668E-01  8528   0.149E+00-0.483E-03
CGA:  33    -0.384732095015E+03   -0.38053E-02   -0.38055E-02  8528   0.188E+00-0.741E-03
CGA:  34    -0.384736964909E+03   -0.48699E-02   -0.48698E-02  8528   0.144E+00 0.171E-03
CGA:  35    -0.384741761565E+03   -0.47967E-02   -0.48017E-02  8528   0.251E+00-0.471E-03
CGA:  36    -0.384748936143E+03   -0.71746E-02   -0.71792E-02  8528   0.319E+00-0.809E-03
SDA:  37    -0.384758718648E+03   -0.97825E-02   -0.97571E-02  8528   0.228E+00 0.365E-02
CGA:  38    -0.384761740026E+03   -0.30214E-02   -0.30096E-02  8528   0.560E-01 0.380E-03
CGA:  39    -0.384765036953E+03   -0.32969E-02   -0.33076E-02  8528   0.683E-01-0.343E-03
CGA:  40    -0.384768698234E+03   -0.36613E-02   -0.36631E-02  8528   0.863E-01-0.773E-04
CGA:  41    -0.384773626569E+03   -0.49283E-02   -0.48906E-02  8528   0.659E-01 0.133E-02
CGA:  42    -0.384774991432E+03   -0.13649E-02   -0.13614E-02  8528   0.414E-01-0.446E-04
CGA:  43    -0.384777116867E+03   -0.21254E-02   -0.21290E-02  8528   0.217E-01-0.167E-03
CGA:  44    -0.384779950204E+03   -0.28333E-02   -0.81049E-05  8528   0.108E+00-0.929E-02
CGA:  45    -0.384781306815E+03   -0.13566E-02   -0.13492E-02  8528   0.694E-01 0.958E-03
CGA:  46    -0.384782605810E+03   -0.12990E-02   -0.13714E-02  8528   0.291E-01-0.255E-02
CGA:  47    -0.384783331719E+03   -0.72591E-03   -0.73503E-03  8528   0.202E-01-0.164E-03
CGA:  48    -0.384784226323E+03   -0.89460E-03   -0.89166E-03  8528   0.409E-01-0.150E-03
CGA:  49    -0.384785768982E+03   -0.15427E-02   -0.15002E-02  8528   0.511E-01-0.270E-03
CGA:  50    -0.384786994332E+03   -0.12253E-02   -0.12038E-02  8528   0.424E-01 0.678E-03
CGA:  51    -0.384787933581E+03   -0.93925E-03   -0.96296E-03  8528   0.207E-01-0.512E-03
CGA:  52    -0.384788304815E+03   -0.37123E-03   -0.37774E-03  8528   0.108E-01-0.237E-03
CGA:  53    -0.384788703952E+03   -0.39914E-03   -0.39847E-03  8528   0.171E-01-0.285E-04
CGA:  54    -0.384789214629E+03   -0.51068E-03   -0.50806E-03  8528   0.162E-01-0.493E-05
CGA:  55    -0.384789789101E+03   -0.57447E-03   -0.57462E-03  8528   0.240E-01-0.643E-05
CGA:  56    -0.384790366636E+03   -0.57754E-03   -0.56580E-03  8528   0.889E-02 0.215E-03
CGA:  57    -0.384790516467E+03   -0.14983E-03   -0.15024E-03  8528   0.407E-02-0.200E-04
CGA:  58    -0.384790650699E+03   -0.13423E-03   -0.13442E-03  8528   0.521E-02 0.775E-05
CGA:  59    -0.384790790008E+03   -0.13931E-03   -0.13927E-03  8528   0.504E-02 0.873E-05
CGA:  60    -0.384790969156E+03   -0.17915E-03   -0.17884E-03  8528   0.817E-02-0.112E-04
CGA:  61    -0.384791216705E+03   -0.24755E-03   -0.24703E-03  8528   0.908E-02 0.126E-04
CGA:  62    -0.384791424391E+03   -0.20769E-03   -0.21032E-03  8528   0.551E-02-0.821E-05
CGA:  63    -0.384791525313E+03   -0.10092E-03   -0.10175E-03  8528   0.254E-02-0.124E-04
CGA:  64    -0.384791603022E+03   -0.77709E-04   -0.77611E-04  8528   0.369E-02-0.759E-05
CGA:  65    -0.384791723750E+03   -0.12073E-03   -0.12034E-03  8528   0.405E-02-0.401E-04
CGA:  66    -0.384791833773E+03   -0.11002E-03   -0.10968E-03  8528   0.467E-02-0.253E-04
CGA:  67    -0.384791970036E+03   -0.13626E-03   -0.13622E-03  8528   0.309E-02-0.242E-04
SDA:  68    -0.384792018554E+03   -0.48518E-04   -0.48543E-04  8528   0.965E-03-0.132E-04
CGA:  69    -0.384792094045E+03   -0.75491E-04   -0.74869E-04  8528   0.127E-02 0.142E-04
CGA:  70    -0.384792177887E+03   -0.83842E-04   -0.83337E-04  8528   0.324E-02 0.182E-04
CGA:  71    -0.384792246156E+03   -0.68269E-04   -0.68618E-04  8528   0.835E-03 0.112E-04
CGA:  72    -0.384792284420E+03   -0.38264E-04   -0.38212E-04  8528   0.522E-03 0.577E-05
CGA:  73    -0.384792328679E+03   -0.44260E-04   -0.44752E-04  8528   0.937E-03-0.110E-04
CGA:  74    -0.384792376062E+03   -0.47383E-04   -0.47573E-04  8528   0.174E-02-0.168E-04
CGA:  75    -0.384792412821E+03   -0.36759E-04   -0.36752E-04  8528   0.382E-03-0.166E-04
CGA:  76    -0.384792422435E+03   -0.96132E-05   -0.95954E-05  8528   0.186E-03-0.141E-05
CGA:  77    -0.384792433278E+03   -0.10843E-04   -0.10819E-04  8528   0.156E-03 0.110E-05
CGA:  78    -0.384792455491E+03   -0.22213E-04   -0.21325E-04  8528   0.164E-03 0.902E-05
CGA:  79    -0.384792465941E+03   -0.10450E-04   -0.10383E-04  8528   0.101E-03 0.441E-05
CGA:  80    -0.384792468962E+03   -0.30214E-05   -0.30300E-05  8528   0.739E-04 0.340E-06
   4 F= -.38479247E+03 E0= -.38476672E+03  d E =-.319079E+01  mag=    17.0344
       N       E                     dE             d eps       ncg     rms          ort
SDA:   1    -0.380462131829E+03    0.43303E+01    0.00000E+00  8528   0.188E+02 0.000E+00
CGA:   2    -0.381171144356E+03   -0.70901E+00   -0.72646E+00  8528   0.383E+02 0.659E+00
CGA:   3    -0.382888930453E+03   -0.17178E+01   -0.17147E+01  8528   0.416E+02-0.546E+00
CGA:   4    -0.384244956761E+03   -0.13560E+01   -0.14019E+01  8528   0.714E+01 0.637E+00
CGA:   5    -0.384626363459E+03   -0.38141E+00   -0.39112E+00  8528   0.127E+02-0.761E+00
CGA:   6    -0.384799027670E+03   -0.17266E+00   -0.16564E+00  8528   0.391E+01 0.421E+00
CGA:   7    -0.384991878162E+03   -0.19285E+00   -0.19191E+00  8528   0.917E+01 0.165E+00
CGA:   8    -0.385146123431E+03   -0.15425E+00   -0.15565E+00  8528   0.179E+01-0.442E-01
CGA:   9    -0.385212638512E+03   -0.66515E-01   -0.66849E-01  8528   0.115E+01 0.209E-01
CGA:  10    -0.385231453665E+03   -0.18815E-01   -0.18354E-01  8528   0.521E+00 0.222E-01
CGA:  11    -0.385250619207E+03   -0.19166E-01   -0.18996E-01  8528   0.603E+00-0.103E-01
CGA:  12    -0.385271731480E+03   -0.21112E-01   -0.21140E-01  8528   0.515E+00 0.180E-02
CGA:  13    -0.385282493599E+03   -0.10762E-01   -0.11046E-01  8528   0.401E+00-0.581E-02
CGA:  14    -0.385293947856E+03   -0.11454E-01   -0.11518E-01  8528   0.116E+00 0.841E-03
CGA:  15    -0.385297546838E+03   -0.35990E-02   -0.35871E-02  8528   0.888E-01-0.327E-03
CGA:  16    -0.385299255105E+03   -0.17083E-02   -0.17167E-02  8528   0.585E-01-0.177E-03
CGA:  17    -0.385303224487E+03   -0.39694E-02   -0.39707E-02  8528   0.836E-01-0.383E-04
CGA:  18    -0.385305895859E+03   -0.26714E-02   -0.26644E-02  8528   0.817E-01-0.245E-03
CGA:  19    -0.385307387105E+03   -0.14912E-02   -0.15281E-02  8528   0.240E-01-0.990E-03
CGA:  20    -0.385308221912E+03   -0.83481E-03   -0.83554E-03  8528   0.201E-01 0.102E-03
CGA:  21    -0.385308870617E+03   -0.64871E-03   -0.64828E-03  8528   0.173E-01-0.306E-04
CGA:  22    -0.385309316063E+03   -0.44545E-03   -0.44625E-03  8528   0.191E-01-0.179E-05
CGA:  23    -0.385310513020E+03   -0.11970E-02   -0.11942E-02  8528   0.125E-01 0.942E-04
CGA:  24    -0.385310915245E+03   -0.40222E-03   -0.40205E-03  8528   0.174E-01-0.980E-05
CGA:  25    -0.385311310768E+03   -0.39552E-03   -0.39579E-03  8528   0.390E-02 0.954E-05
CGA:  26    -0.385311550297E+03   -0.23953E-03   -0.23848E-03  8528   0.104E-01 0.425E-04
CGA:  27    -0.385311930448E+03   -0.38015E-03   -0.38024E-03  8528   0.108E-01 0.459E-04
CGA:  28    -0.385312154766E+03   -0.22432E-03   -0.22552E-03  8528   0.402E-02 0.158E-04
CGA:  29    -0.385312348402E+03   -0.19364E-03   -0.19360E-03  8528   0.355E-02 0.790E-05
CGA:  30    -0.385312440981E+03   -0.92579E-04   -0.92581E-04  8528   0.335E-02 0.499E-05
CGA:  31    -0.385312532990E+03   -0.92009E-04   -0.92139E-04  8528   0.225E-02 0.428E-05
SDA:  32    -0.385312707864E+03   -0.17487E-03   -0.17515E-03  8528   0.293E-02-0.692E-05
CGA:  33    -0.385312753081E+03   -0.45217E-04   -0.45277E-04  8528   0.108E-02-0.183E-05
CGA:  34    -0.385312783922E+03   -0.30841E-04   -0.30877E-04  8528   0.535E-03 0.180E-05
CGA:  35    -0.385312848356E+03   -0.64433E-04   -0.64546E-04  8528   0.163E-02-0.140E-05
CGA:  36    -0.385312910365E+03   -0.62009E-04   -0.62005E-04  8528   0.755E-03-0.896E-06
CGA:  37    -0.385312952430E+03   -0.42065E-04   -0.42042E-04  8528   0.470E-03 0.952E-06
CGA:  38    -0.385312975105E+03   -0.22674E-04   -0.22696E-04  8528   0.353E-03-0.338E-05
CGA:  39    -0.385313019014E+03   -0.43909E-04   -0.44461E-04  8528   0.889E-03-0.653E-05
CGA:  40    -0.385313033454E+03   -0.14440E-04   -0.14361E-04  8528   0.339E-03-0.183E-05
CGA:  41    -0.385313050313E+03   -0.16859E-04   -0.16865E-04  8528   0.151E-03-0.152E-05
CGA:  42    -0.385313063074E+03   -0.12761E-04   -0.12724E-04  8528   0.381E-03 0.884E-06
CGA:  43    -0.385313076014E+03   -0.12940E-04   -0.12942E-04  8528   0.292E-03 0.185E-07
CGA:  44    -0.385313083166E+03   -0.71519E-05   -0.71508E-05  8528   0.209E-03-0.117E-06
   5 F= -.38531308E+03 E0= -.38528739E+03  d E =-.520614E+00  mag=    17.0063
       N       E                     dE             d eps       ncg     rms          ort
SDA:   1    -0.333489482070E+03    0.51824E+02    0.00000E+00  8528   0.484E+03 0.000E+00
CGA:   2    -0.343259011085E+03   -0.97695E+01   -0.58412E+01  8528   0.149E+03 0.848E+02
CGA:   3    -0.350691149901E+03   -0.74321E+01   -0.74423E+01  8528   0.540E+03 0.695E+01
CGA:   4    -0.361694796099E+03   -0.11004E+02   -0.13517E+02  8528   0.323E+03-0.324E+02
CGA:   5    -0.371098058639E+03   -0.94033E+01   -0.89958E+01  8528   0.514E+03-0.635E+02
CGA:   6    -0.374269504296E+03   -0.31714E+01   -0.36142E+01  8528   0.162E+03-0.247E+03
CGA:   7    -0.375293348718E+03   -0.10238E+01   -0.91901E+00  8528   0.201E+03 0.706E+01
CGA:   8    -0.377094123056E+03   -0.18008E+01   -0.25911E+01  8528   0.103E+03-0.729E+02
CGA:   9    -0.378266809674E+03   -0.11727E+01   -0.12081E+01  8528   0.122E+03-0.148E+01
CGA:  10    -0.379867591169E+03   -0.16008E+01   -0.15706E+01  8528   0.589E+02-0.209E+00
CGA:  11    -0.380874645168E+03   -0.10071E+01   -0.95035E+00  8528   0.902E+02 0.985E+00
CGA:  12    -0.382277621010E+03   -0.14030E+01   -0.13759E+01  8528   0.619E+02-0.111E+00
CGA:  13    -0.383139325439E+03   -0.86170E+00   -0.87990E+00  8528   0.698E+02-0.206E+01
CGA:  14    -0.383622294759E+03   -0.48297E+00   -0.43807E+00  8528   0.216E+02 0.378E+01
CGA:  15    -0.383799172201E+03   -0.17688E+00   -0.16553E+00  8528   0.223E+02 0.121E+01
CGA:  16    -0.384121716971E+03   -0.32254E+00   -0.30485E+00  8528   0.371E+02 0.607E+00
CGA:  17    -0.384322897425E+03   -0.20118E+00   -0.25001E+00  8528   0.164E+02-0.734E+01
CGA:  18    -0.384409510379E+03   -0.86613E-01   -0.87686E-01  8528   0.174E+02-0.159E+00
CGA:  19    -0.384602951644E+03   -0.19344E+00   -0.19660E+00  8528   0.252E+02-0.276E+00
CGA:  20    -0.384787673800E+03   -0.18472E+00   -0.19050E+00  8528   0.219E+02-0.869E+00
CGA:  21    -0.384978863234E+03   -0.19119E+00   -0.18280E+00  8528   0.258E+02 0.535E+00
CGA:  22    -0.385148632499E+03   -0.16977E+00   -0.16722E+00  8528   0.163E+02 0.388E+00
CGA:  23    -0.385248678557E+03   -0.10005E+00   -0.10992E+00  8528   0.131E+02-0.124E+01
CGA:  24    -0.385353196811E+03   -0.10452E+00   -0.10764E+00  8528   0.155E+02-0.297E+00
CGA:  25    -0.385458301438E+03   -0.10510E+00   -0.11950E+00  8528   0.910E+01-0.134E+01
CGA:  26    -0.385519161058E+03   -0.60860E-01   -0.65633E-01  8528   0.733E+01-0.464E+00
CGA:  27    -0.385591894034E+03   -0.72733E-01   -0.81381E-01  8528   0.563E+01-0.244E+00
CGA:  28    -0.385641874401E+03   -0.49980E-01   -0.50892E-01  8528   0.402E+01-0.586E-01
CGA:  29    -0.385719747502E+03   -0.77873E-01   -0.77873E-01  8528   0.632E+01-0.104E-02
CGA:  30    -0.385782666113E+03   -0.62919E-01   -0.58761E-01  8528   0.321E+01 0.279E+00
CGA:  31    -0.385820234698E+03   -0.37569E-01   -0.36340E-01  8528   0.338E+01 0.347E-01
SDA:  32    -0.385859519071E+03   -0.39284E-01   -0.39612E-01  8528   0.368E+01-0.931E-02
CGA:  33    -0.385921914628E+03   -0.62396E-01   -0.62874E-01  8528   0.108E+01 0.181E+00
CGA:  34    -0.385941991468E+03   -0.20077E-01   -0.20081E-01  8528   0.113E+01 0.427E-02
CGA:  35    -0.385993458258E+03   -0.51467E-01   -0.50275E-01  8528   0.105E+01 0.493E-01
CGA:  36    -0.386044879799E+03   -0.51422E-01   -0.51027E-01  8528   0.207E+01 0.150E-01
CGA:  37    -0.386091804121E+03   -0.46924E-01   -0.46921E-01  8528   0.120E+01 0.128E-02
CGA:  38    -0.386110171415E+03   -0.18367E-01   -0.18449E-01  8528   0.255E+00 0.191E-02
CGA:  39    -0.386117903626E+03   -0.77322E-02   -0.76522E-02  8528   0.130E+00 0.696E-02
CGA:  40    -0.386122487472E+03   -0.45838E-02   -0.45848E-02  8528   0.235E+00-0.713E-04
CGA:  41    -0.386128609502E+03   -0.61220E-02   -0.60931E-02  8528   0.244E+00 0.460E-02
CGA:  42    -0.386143562587E+03   -0.14953E-01   -0.14830E-01  8528   0.234E+00 0.342E-02
CGA:  43    -0.386152216418E+03   -0.86538E-02   -0.86111E-02  8528   0.292E+00 0.261E-02
CGA:  44    -0.386157226915E+03   -0.50105E-02   -0.51179E-02  8528   0.964E-01 0.121E-02
CGA:  45    -0.386160668395E+03   -0.34415E-02   -0.34218E-02  8528   0.812E-01 0.141E-02
CGA:  46    -0.386164357900E+03   -0.36895E-02   -0.36643E-02  8528   0.141E+00 0.123E-02
CGA:  47    -0.386169413596E+03   -0.50557E-02   -0.50482E-02  8528   0.200E+00 0.491E-03
CGA:  48    -0.386173907861E+03   -0.44943E-02   -0.45161E-02  8528   0.216E-01 0.207E-02
CGA:  49    -0.386175524294E+03   -0.16164E-02   -0.15929E-02  8528   0.417E-01 0.548E-03
CGA:  50    -0.386177339741E+03   -0.18154E-02   -0.18159E-02  8528   0.934E-01-0.259E-05
CGA:  51    -0.386180179461E+03   -0.28397E-02   -0.28405E-02  8528   0.500E-01-0.246E-03
CGA:  52    -0.386182099157E+03   -0.19197E-02   -0.19098E-02  8528   0.151E-01 0.820E-03
CGA:  53    -0.386182721620E+03   -0.62246E-03   -0.61910E-03  8528   0.217E-01 0.253E-03
CGA:  54    -0.386183404508E+03   -0.68289E-03   -0.68285E-03  8528   0.309E-01 0.589E-04
CGA:  55    -0.386185003114E+03   -0.15986E-02   -0.15928E-02  8528   0.330E-01 0.253E-03
CGA:  56    -0.386186313469E+03   -0.13104E-02   -0.13097E-02  8528   0.208E-01 0.912E-04
CGA:  57    -0.386187118949E+03   -0.80548E-03   -0.80565E-03  8528   0.204E-01 0.115E-04
CGA:  58    -0.386187465311E+03   -0.34636E-03   -0.34729E-03  8528   0.918E-02 0.251E-04
CGA:  59    -0.386188719516E+03   -0.12542E-02   -0.12438E-02  8528   0.136E-01 0.901E-04
CGA:  60    -0.386189134858E+03   -0.41534E-03   -0.41581E-03  8528   0.134E-01 0.488E-04
CGA:  61    -0.386189411748E+03   -0.27689E-03   -0.27532E-03  8528   0.618E-02 0.714E-04
CGA:  62    -0.386189752284E+03   -0.34054E-03   -0.33801E-03  8528   0.548E-02 0.123E-03
SDA:  63    -0.386190063309E+03   -0.31102E-03   -0.30835E-03  8528   0.115E-01 0.127E-03
CGA:  64    -0.386190223144E+03   -0.15983E-03   -0.16006E-03  8528   0.416E-02-0.113E-04
CGA:  65    -0.386190384845E+03   -0.16170E-03   -0.16171E-03  8528   0.280E-02-0.240E-06
CGA:  66    -0.386190539665E+03   -0.15482E-03   -0.15470E-03  8528   0.421E-02 0.635E-05
CGA:  67    -0.386190813405E+03   -0.27374E-03   -0.27170E-03  8528   0.524E-02 0.706E-04
CGA:  68    -0.386191080774E+03   -0.26737E-03   -0.26738E-03  8528   0.747E-02 0.653E-05
CGA:  69    -0.386191200064E+03   -0.11929E-03   -0.11994E-03  8528   0.138E-02 0.876E-06
CGA:  70    -0.386191319639E+03   -0.11958E-03   -0.11845E-03  8528   0.210E-02 0.234E-04
CGA:  71    -0.386191472217E+03   -0.15258E-03   -0.15091E-03  8528   0.288E-02 0.526E-04
CGA:  72    -0.386191697814E+03   -0.22560E-03   -0.22857E-03  8528   0.182E-02-0.811E-04
CGA:  73    -0.386191729162E+03   -0.31348E-04   -0.31647E-04  8528   0.113E-02-0.284E-07
CGA:  74    -0.386191777585E+03   -0.48423E-04   -0.48416E-04  8528   0.729E-03 0.112E-04
CGA:  75    -0.386191830787E+03   -0.53202E-04   -0.52787E-04  8528   0.153E-02 0.142E-04
CGA:  76    -0.386191905498E+03   -0.74711E-04   -0.74610E-04  8528   0.567E-03 0.241E-04
CGA:  77    -0.386191927781E+03   -0.22283E-04   -0.22333E-04  8528   0.605E-03 0.688E-05
CGA:  78    -0.386191944027E+03   -0.16246E-04   -0.16239E-04  8528   0.639E-03 0.223E-05
CGA:  79    -0.386191979141E+03   -0.35115E-04   -0.35111E-04  8528   0.579E-03 0.166E-06
CGA:  80    -0.386192018539E+03   -0.39398E-04   -0.39349E-04  8528   0.477E-03 0.149E-05
CGA:  81    -0.386192046886E+03   -0.28348E-04   -0.28268E-04  8528   0.156E-03 0.445E-05
CGA:  82    -0.386192053094E+03   -0.62075E-05   -0.62245E-05  8528   0.405E-03 0.287E-05
CGA:  83    -0.386192078177E+03   -0.25083E-04   -0.24806E-04  8528   0.298E-03 0.175E-04
CGA:  84    -0.386192089470E+03   -0.11293E-04   -0.11349E-04  8528   0.113E-03 0.610E-05
CGA:  85    -0.386192097692E+03   -0.82216E-05   -0.81113E-05  8528   0.673E-04 0.434E-05
   6 F= -.38619210E+03 E0= -.38616626E+03  d E =-.879015E+00  mag=    16.8962
       N       E                     dE             d eps       ncg     rms          ort
SDA:   1    -0.381193744550E+03    0.49983E+01    0.00000E+00  8528   0.285E+02 0.000E+00
CGA:   2    -0.381744796228E+03   -0.55105E+00   -0.62109E+00  8528   0.337E+02-0.255E+01
CGA:   3    -0.384343597755E+03   -0.25988E+01   -0.25333E+01  8528   0.317E+02 0.147E+01
CGA:   4    -0.385171348258E+03   -0.82775E+00   -0.85446E+00  8528   0.740E+01 0.131E+01
CGA:   5    -0.385542034771E+03   -0.37069E+00   -0.37208E+00  8528   0.978E+01-0.528E+00
CGA:   6    -0.385732022608E+03   -0.18999E+00   -0.17420E+00  8528   0.816E+01 0.503E+00
CGA:   7    -0.386089558676E+03   -0.35754E+00   -0.35839E+00  8528   0.605E+01 0.924E-01
CGA:   8    -0.386184750397E+03   -0.95192E-01   -0.10403E+00  8528   0.368E+01-0.375E+00
CGA:   9    -0.386291415555E+03   -0.10667E+00   -0.10703E+00  8528   0.114E+01 0.135E-02
CGA:  10    -0.386313979735E+03   -0.22564E-01   -0.21791E-01  8528   0.616E+00 0.249E-01
CGA:  11    -0.386331540180E+03   -0.17560E-01   -0.17512E-01  8528   0.777E+00 0.159E-03
CGA:  12    -0.386360989661E+03   -0.29449E-01   -0.29440E-01  8528   0.523E+00-0.103E-02
CGA:  13    -0.386373309430E+03   -0.12320E-01   -0.12150E-01  8528   0.456E+00 0.264E-02
CGA:  14    -0.386383272744E+03   -0.99633E-02   -0.99655E-02  8528   0.177E+00 0.840E-05
CGA:  15    -0.386388165999E+03   -0.48933E-02   -0.48842E-02  8528   0.113E+00-0.466E-04
CGA:  16    -0.386390017192E+03   -0.18512E-02   -0.18452E-02  8528   0.652E-01 0.249E-03
CGA:  17    -0.386393759544E+03   -0.37424E-02   -0.37157E-02  8528   0.103E+00 0.117E-02
CGA:  18    -0.386396214795E+03   -0.24553E-02   -0.24603E-02  8528   0.120E+00-0.983E-05
CGA:  19    -0.386400282143E+03   -0.40673E-02   -0.40665E-02  8528   0.489E-01-0.553E-04
CGA:  20    -0.386401252520E+03   -0.97038E-03   -0.96779E-03  8528   0.343E-01 0.692E-04
CGA:  21    -0.386402139357E+03   -0.88684E-03   -0.88825E-03  8528   0.292E-01 0.181E-04
CGA:  22    -0.386403163587E+03   -0.10242E-02   -0.10250E-02  8528   0.317E-01 0.333E-03
CGA:  23    -0.386404345603E+03   -0.11820E-02   -0.11820E-02  8528   0.662E-01-0.122E-04
CGA:  24    -0.386406138443E+03   -0.17928E-02   -0.17831E-02  8528   0.179E-01-0.167E-03
CGA:  25    -0.386406650968E+03   -0.51253E-03   -0.51289E-03  8528   0.272E-01 0.117E-04
CGA:  26    -0.386407329507E+03   -0.67854E-03   -0.67944E-03  8528   0.112E-01 0.953E-05
CGA:  27    -0.386407824989E+03   -0.49548E-03   -0.49572E-03  8528   0.224E-01-0.174E-04
CGA:  28    -0.386408343574E+03   -0.51859E-03   -0.51843E-03  8528   0.158E-01-0.165E-06
CGA:  29    -0.386408837951E+03   -0.49438E-03   -0.49418E-03  8528   0.877E-02-0.256E-04
CGA:  30    -0.386409024653E+03   -0.18670E-03   -0.18679E-03  8528   0.669E-02 0.118E-05
CGA:  31    -0.386409187503E+03   -0.16285E-03   -0.16309E-03  8528   0.437E-02 0.447E-05
SDA:  32    -0.386409372049E+03   -0.18455E-03   -0.18440E-03  8528   0.596E-02 0.106E-04
CGA:  33    -0.386409467403E+03   -0.95354E-04   -0.95079E-04  8528   0.222E-02 0.680E-05
CGA:  34    -0.386409527096E+03   -0.59693E-04   -0.59663E-04  8528   0.167E-02-0.373E-05
CGA:  35    -0.386409658122E+03   -0.13103E-03   -0.13100E-03  8528   0.264E-02 0.548E-06
CGA:  36    -0.386409788061E+03   -0.12994E-03   -0.12980E-03  8528   0.231E-02 0.765E-05
CGA:  37    -0.386409870795E+03   -0.82734E-04   -0.82734E-04  8528   0.116E-02-0.687E-05
CGA:  38    -0.386409900687E+03   -0.29892E-04   -0.29859E-04  8528   0.119E-02-0.273E-05
CGA:  39    -0.386409942633E+03   -0.41946E-04   -0.41946E-04  8528   0.954E-03-0.430E-05
CGA:  40    -0.386410033048E+03   -0.90415E-04   -0.91064E-04  8528   0.582E-03-0.109E-04
CGA:  41    -0.386410076327E+03   -0.43280E-04   -0.43420E-04  8528   0.335E-03-0.387E-05
CGA:  42    -0.386410091594E+03   -0.15266E-04   -0.15273E-04  8528   0.784E-03-0.133E-05
CGA:  43    -0.386410121292E+03   -0.29698E-04   -0.29689E-04  8528   0.794E-03-0.356E-05
CGA:  44    -0.386410147775E+03   -0.26482E-04   -0.26460E-04  8528   0.544E-03-0.355E-05
CGA:  45    -0.386410169697E+03   -0.21922E-04   -0.21927E-04  8528   0.110E-03-0.698E-05
CGA:  46    -0.386410194899E+03   -0.25202E-04   -0.54788E-06  8528   0.389E-03-0.127E-04
CGA:  47    -0.386410203442E+03   -0.85436E-05   -0.84634E-05  8528   0.283E-03-0.978E-06
   7 F= -.38641020E+03 E0= -.38638390E+03  d E =-.218106E+00  mag=    16.7653
       N       E                     dE             d eps       ncg     rms          ort
SDA:   1    -0.338308230736E+03    0.48102E+02    0.00000E+00  8528   0.546E+03 0.000E+00
CGA:   2    -0.351541641530E+03   -0.13233E+02   -0.90401E+01  8528   0.182E+03 0.743E+02
CGA:   3    -0.352365249788E+03   -0.82361E+00   -0.44653E+01  8528   0.523E+03-0.872E+02
CGA:   4    -0.353218059138E+03   -0.85281E+00   -0.60533E+01  8528   0.737E+03-0.624E+02
CGA:   5    -0.364996685495E+03   -0.11779E+02   -0.14539E+02  8528   0.419E+03-0.214E+03
CGA:   6    -0.370829402632E+03   -0.58327E+01   -0.30021E+01  8528   0.563E+03 0.399E+03
CGA:   7    -0.375371889956E+03   -0.45425E+01   -0.83990E+01  8528   0.520E+03-0.514E+03
CGA:   8    -0.371262423267E+03    0.41095E+01   -0.10712E+02  8528   0.872E+03-0.585E+03
CGA:   9    -0.374556986306E+03   -0.32946E+01   -0.13472E+02  8528   0.614E+03-0.695E+03
CGA:  10    -0.368758047779E+03    0.57989E+01   -0.12153E+02  8528   0.110E+04-0.783E+03
CGA:  11    -0.373952243709E+03   -0.51942E+01   -0.16555E+02  8528   0.733E+03-0.897E+03
CGA:  12    -0.368559674015E+03    0.53926E+01   -0.14094E+02  8528   0.112E+04-0.856E+03
CGA:  13    -0.375405231445E+03   -0.68456E+01   -0.16108E+02  8528   0.697E+03-0.941E+03
CGA:  14    -0.372152172291E+03    0.32531E+01   -0.12309E+02  8528   0.112E+04-0.920E+03
CGA:  15    -0.376685180989E+03   -0.45330E+01   -0.15695E+02  8528   0.668E+03-0.847E+03
CGA:  16    -0.375454041458E+03    0.12311E+01   -0.10790E+02  8528   0.964E+03-0.869E+03
CGA:  17    -0.379401650562E+03   -0.39476E+01   -0.12462E+02  8528   0.510E+03-0.686E+03
CGA:  18    -0.380632117631E+03   -0.12305E+01   -0.69609E+01  8528   0.475E+03-0.536E+03
CGA:  19    -0.383392759906E+03   -0.27606E+01   -0.48996E+01  8528   0.117E+03-0.229E+03
CGA:  20    -0.384368052491E+03   -0.97529E+00   -0.91037E+00  8528   0.458E+01 0.160E+01
CGA:  21    -0.384796555315E+03   -0.42850E+00   -0.43696E+00  8528   0.441E+02-0.156E+00
CGA:  22    -0.386082903381E+03   -0.12863E+01   -0.13049E+01  8528   0.942E+01 0.993E+00
CGA:  23    -0.386232275699E+03   -0.14937E+00   -0.16618E+00  8528   0.689E+01-0.580E+00
CGA:  24    -0.386310672558E+03   -0.78397E-01   -0.80776E-01  8528   0.314E+01-0.168E+00
CGA:  25    -0.386405146896E+03   -0.94474E-01   -0.95541E-01  8528   0.229E+01 0.815E-01
CGA:  26    -0.386584675754E+03   -0.17953E+00   -0.17911E+00  8528   0.565E+01 0.119E-01
CGA:  27    -0.386671978435E+03   -0.87303E-01   -0.90195E-01  8528   0.237E+01-0.145E+00
CGA:  28    -0.386717390732E+03   -0.45412E-01   -0.44848E-01  8528   0.198E+01 0.896E-02
CGA:  29    -0.386755141618E+03   -0.37751E-01   -0.39473E-01  8528   0.468E+00-0.299E-01
CGA:  30    -0.386771860229E+03   -0.16719E-01   -0.16701E-01  8528   0.356E+00 0.678E-02
CGA:  31    -0.386802570119E+03   -0.30710E-01   -0.31113E-01  8528   0.128E+01-0.858E-02
CGA:  32    -0.386819099384E+03   -0.16529E-01   -0.18338E-01  8528   0.341E+00-0.782E-01
CGA:  33    -0.386828061816E+03   -0.89624E-02   -0.89334E-02  8528   0.117E+00-0.655E-03
CGA:  34    -0.386835322949E+03   -0.72611E-02   -0.71500E-02  8528   0.332E+00 0.398E-02
CGA:  35    -0.386843103162E+03   -0.77802E-02   -0.77757E-02  8528   0.308E+00 0.978E-04
CGA:  36    -0.386859424076E+03   -0.16321E-01   -0.16092E-01  8528   0.158E+00 0.114E-01
CGA:  37    -0.386864070458E+03   -0.46464E-02   -0.46404E-02  8528   0.122E+00-0.833E-04
CGA:  38    -0.386866313428E+03   -0.22430E-02   -0.22596E-02  8528   0.731E-01-0.401E-03
CGA:  39    -0.386869643408E+03   -0.33300E-02   -0.33214E-02  8528   0.870E-01 0.636E-03
CGA:  40    -0.386874411013E+03   -0.47676E-02   -0.47285E-02  8528   0.118E+00 0.184E-02
CGA:  41    -0.386877212704E+03   -0.28017E-02   -0.28114E-02  8528   0.520E-01-0.446E-04
CGA:  42    -0.386878084220E+03   -0.87152E-03   -0.87300E-03  8528   0.272E-01-0.281E-04
CGA:  43    -0.386879632463E+03   -0.15482E-02   -0.15459E-02  8528   0.190E-01 0.100E-03
CGA:  44    -0.386880995861E+03   -0.13634E-02   -0.13612E-02  8528   0.659E-01 0.643E-04
CGA:  45    -0.386882326329E+03   -0.13305E-02   -0.13399E-02  8528   0.236E-01-0.110E-03
CGA:  46    -0.386883040423E+03   -0.71409E-03   -0.71552E-03  8528   0.107E-01 0.729E-04
CGA:  47    -0.386883485552E+03   -0.44513E-03   -0.44510E-03  8528   0.169E-01 0.191E-05
CGA:  48    -0.386883968726E+03   -0.48317E-03   -0.48402E-03  8528   0.170E-01 0.141E-04
SDA:  49    -0.386884485382E+03   -0.51666E-03   -0.51681E-03  8528   0.146E-01-0.636E-05
CGA:  50    -0.386884757653E+03   -0.27227E-03   -0.27089E-03  8528   0.781E-02 0.311E-04
CGA:  51    -0.386884936586E+03   -0.17893E-03   -0.17865E-03  8528   0.576E-02-0.765E-05
CGA:  52    -0.386885119044E+03   -0.18246E-03   -0.18244E-03  8528   0.519E-02-0.720E-05
CGA:  53    -0.386885524278E+03   -0.40523E-03   -0.40694E-03  8528   0.862E-02-0.394E-04
CGA:  54    -0.386885911394E+03   -0.38712E-03   -0.38753E-03  8528   0.644E-02-0.464E-04
CGA:  55    -0.386885999511E+03   -0.88117E-04   -0.88042E-04  8528   0.272E-02-0.962E-05
CGA:  56    -0.386886178410E+03   -0.17890E-03   -0.17922E-03  8528   0.340E-02-0.114E-04
CGA:  57    -0.386886405752E+03   -0.22734E-03   -0.22768E-03  8528   0.384E-02-0.118E-04
CGA:  58    -0.386886589461E+03   -0.18371E-03   -0.18379E-03  8528   0.354E-02-0.641E-05
CGA:  59    -0.386886685794E+03   -0.96333E-04   -0.96148E-04  8528   0.133E-02 0.256E-05
CGA:  60    -0.386886748739E+03   -0.62945E-04   -0.62848E-04  8528   0.283E-02 0.107E-04
CGA:  61    -0.386886805843E+03   -0.57104E-04   -0.57340E-04  8528   0.155E-02 0.102E-04
CGA:  62    -0.386886933817E+03   -0.12797E-03   -0.12697E-03  8528   0.611E-03 0.229E-04
CGA:  63    -0.386886969915E+03   -0.36098E-04   -0.36038E-04  8528   0.948E-03 0.314E-05
CGA:  64    -0.386886991183E+03   -0.21269E-04   -0.21275E-04  8528   0.911E-03 0.381E-06
CGA:  65    -0.386887032417E+03   -0.41234E-04   -0.41231E-04  8528   0.158E-02 0.656E-06
CGA:  66    -0.386887079680E+03   -0.47263E-04   -0.47260E-04  8528   0.341E-03-0.444E-06
CGA:  67    -0.386887101365E+03   -0.21685E-04   -0.21610E-04  8528   0.256E-03 0.302E-05
CGA:  68    -0.386887116843E+03   -0.15479E-04   -0.15411E-04  8528   0.111E-02 0.359E-05
CGA:  69    -0.386887150060E+03   -0.33217E-04   -0.33369E-04  8528   0.172E-03 0.102E-04
CGA:  70    -0.386887157132E+03   -0.70713E-05   -0.70737E-05  8528   0.217E-03 0.227E-05
   8 F= -.38688716E+03 E0= -.38685904E+03  d E =-.476954E+00  mag=    14.8287
       N       E                     dE             d eps       ncg     rms          ort
SDA:   1    -0.309109468993E+03    0.77778E+02    0.00000E+00  8528   0.138E+04 0.000E+00
CGA:   2    -0.328875182559E+03   -0.19766E+02   -0.26770E+02  8528   0.481E+03-0.523E+03
CGA:   3    -0.342120729998E+03   -0.13246E+02   -0.16161E+02  8528   0.905E+03-0.161E+03
CGA:   4    -0.363271449215E+03   -0.21151E+02   -0.21587E+02  8528   0.260E+03 0.268E+02
CGA:   5    -0.370787906726E+03   -0.75165E+01   -0.41174E+01  8528   0.627E+02 0.111E+03
CGA:   6    -0.372080586229E+03   -0.12927E+01   -0.15014E+01  8528   0.151E+03-0.144E+02
CGA:   7    -0.374593686456E+03   -0.25131E+01   -0.26472E+01  8528   0.365E+03 0.368E+01
CGA:   8    -0.377813686003E+03   -0.32200E+01   -0.41091E+01  8528   0.224E+03-0.632E+02
CGA:   9    -0.379036718384E+03   -0.12230E+01   -0.19563E+01  8528   0.236E+03-0.958E+02
CGA:  10    -0.379744432384E+03   -0.70771E+00   -0.16960E+01  8528   0.304E+03-0.479E+02
CGA:  11    -0.381277292626E+03   -0.15329E+01   -0.17814E+01  8528   0.961E+02-0.106E+03
CGA:  12    -0.381682962196E+03   -0.40567E+00   -0.33817E+00  8528   0.896E+02 0.997E+01
CGA:  13    -0.382378511840E+03   -0.69555E+00   -0.77981E+00  8528   0.126E+03-0.229E+02
CGA:  14    -0.382581965810E+03   -0.20345E+00   -0.61350E+00  8528   0.149E+03-0.538E+02
CGA:  15    -0.382764886126E+03   -0.18292E+00   -0.29226E+00  8528   0.879E+02-0.280E+02
CGA:  16    -0.382988437714E+03   -0.22355E+00   -0.23956E+00  8528   0.552E+02-0.475E+01
CGA:  17    -0.383216610969E+03   -0.22817E+00   -0.24141E+00  8528   0.595E+02-0.464E+01
CGA:  18    -0.383428988718E+03   -0.21238E+00   -0.27845E+00  8528   0.765E+02-0.156E+02
CGA:  19    -0.383558656870E+03   -0.12967E+00   -0.14362E+00  8528   0.668E+02-0.662E+01
CGA:  20    -0.383691976005E+03   -0.13332E+00   -0.14273E+00  8528   0.506E+02-0.458E+01
CGA:  21    -0.383800137806E+03   -0.10816E+00   -0.10457E+00  8528   0.462E+02 0.148E+01
CGA:  22    -0.383927858292E+03   -0.12772E+00   -0.11623E+00  8528   0.528E+02 0.421E+01
CGA:  23    -0.384096164091E+03   -0.16831E+00   -0.18491E+00  8528   0.785E+02-0.579E+01
CGA:  24    -0.384214799577E+03   -0.11864E+00   -0.25330E+00  8528   0.120E+03-0.337E+02
CGA:  25    -0.384250072106E+03   -0.35273E-01   -0.18125E+00  8528   0.109E+03-0.491E+02
CGA:  26    -0.384292315643E+03   -0.42244E-01   -0.16087E+00  8528   0.712E+02-0.436E+02
CGA:  27    -0.384356769541E+03   -0.64454E-01   -0.10654E+00  8528   0.587E+02-0.154E+02
CGA:  28    -0.384488032129E+03   -0.13126E+00   -0.18191E+00  8528   0.733E+02-0.111E+02
CGA:  29    -0.384759960491E+03   -0.27193E+00   -0.30517E+00  8528   0.989E+02-0.507E+01
CGA:  30    -0.385084989582E+03   -0.32503E+00   -0.30607E+00  8528   0.753E+02 0.544E+00
CGA:  31    -0.385285364443E+03   -0.20037E+00   -0.23640E+00  8528   0.481E+02-0.110E+02
SDA:  32    -0.385396438522E+03   -0.11107E+00   -0.11951E+00  8528   0.333E+02-0.258E+01
CGA:  33    -0.385902294809E+03   -0.50586E+00   -0.50605E+00  8528   0.890E+01 0.884E-02
CGA:  34    -0.386155122536E+03   -0.25283E+00   -0.24921E+00  8528   0.801E+01 0.253E+00
CGA:  35    -0.386391596339E+03   -0.23647E+00   -0.24211E+00  8528   0.947E+01-0.379E+00
CGA:  36    -0.386701877129E+03   -0.31028E+00   -0.33638E+00  8528   0.102E+02-0.127E+01
CGA:  37    -0.387035041748E+03   -0.33316E+00   -0.33122E+00  8528   0.356E+01 0.543E-01
CGA:  38    -0.387111065331E+03   -0.76024E-01   -0.75449E-01  8528   0.208E+01 0.102E+00
CGA:  39    -0.387165790435E+03   -0.54725E-01   -0.55959E-01  8528   0.142E+01-0.119E+00
CGA:  40    -0.387211815710E+03   -0.46025E-01   -0.46215E-01  8528   0.140E+01-0.122E-01
CGA:  41    -0.387260795595E+03   -0.48980E-01   -0.48511E-01  8528   0.115E+01 0.242E-01
CGA:  42    -0.387307881046E+03   -0.47085E-01   -0.46992E-01  8528   0.888E+00 0.545E-02
CGA:  43    -0.387346052525E+03   -0.38171E-01   -0.36815E-01  8528   0.750E+00 0.653E-01
CGA:  44    -0.387364048882E+03   -0.17996E-01   -0.18041E-01  8528   0.448E+00-0.278E-01
CGA:  45    -0.387373202225E+03   -0.91533E-02   -0.91572E-02  8528   0.289E+00 0.534E-02
CGA:  46    -0.387391561011E+03   -0.18359E-01   -0.17771E-01  8528   0.487E+00 0.161E-01
CGA:  47    -0.387409037120E+03   -0.17476E-01   -0.17474E-01  8528   0.287E+00-0.163E-04
CGA:  48    -0.387416752214E+03   -0.77151E-02   -0.77013E-02  8528   0.202E+00 0.306E-02
CGA:  49    -0.387420510600E+03   -0.37584E-02   -0.37556E-02  8528   0.106E+00-0.798E-04
CGA:  50    -0.387427566281E+03   -0.70557E-02   -0.68563E-02  8528   0.128E+00 0.542E-02
CGA:  51    -0.387436220428E+03   -0.86541E-02   -0.85349E-02  8528   0.207E+00 0.353E-02
CGA:  52    -0.387442880620E+03   -0.66602E-02   -0.66519E-02  8528   0.214E+00 0.139E-02
CGA:  53    -0.387448387463E+03   -0.55068E-02   -0.55167E-02  8528   0.149E+00 0.160E-02
CGA:  54    -0.387452943919E+03   -0.45565E-02   -0.45664E-02  8528   0.415E-01-0.237E-02
CGA:  55    -0.387455810925E+03   -0.28670E-02   -0.28467E-02  8528   0.557E-01 0.538E-03
CGA:  56    -0.387459411265E+03   -0.36003E-02   -0.36028E-02  8528   0.141E+00-0.168E-03
CGA:  57    -0.387462274412E+03   -0.28631E-02   -0.28580E-02  8528   0.514E-01-0.156E-03
CGA:  58    -0.387464550464E+03   -0.22761E-02   -0.22700E-02  8528   0.301E-01 0.351E-03
CGA:  59    -0.387465707452E+03   -0.11570E-02   -0.11581E-02  8528   0.291E-01-0.130E-03
CGA:  60    -0.387466705349E+03   -0.99790E-03   -0.99866E-03  8528   0.400E-01-0.197E-03
CGA:  61    -0.387467794000E+03   -0.10887E-02   -0.10870E-02  8528   0.287E-01-0.112E-03
CGA:  62    -0.387469635666E+03   -0.18417E-02   -0.18502E-02  8528   0.246E-01-0.264E-03
SDA:  63    -0.387470350525E+03   -0.71486E-03   -0.71341E-03  8528   0.276E-01-0.124E-03
CGA:  64    -0.387470700018E+03   -0.34949E-03   -0.34920E-03  8528   0.960E-02 0.130E-05
CGA:  65    -0.387471392004E+03   -0.69199E-03   -0.68975E-03  8528   0.997E-02 0.553E-04
CGA:  66    -0.387472250185E+03   -0.85818E-03   -0.86080E-03  8528   0.165E-01-0.590E-04
CGA:  67    -0.387472899481E+03   -0.64930E-03   -0.64932E-03  8528   0.128E-01-0.339E-05
CGA:  68    -0.387473194854E+03   -0.29537E-03   -0.29563E-03  8528   0.833E-02-0.218E-05
CGA:  69    -0.387473423058E+03   -0.22820E-03   -0.22676E-03  8528   0.757E-02-0.206E-04
CGA:  70    -0.387473984148E+03   -0.56109E-03   -0.55293E-03  8528   0.987E-02 0.216E-03
CGA:  71    -0.387474630160E+03   -0.64601E-03   -0.67930E-03  8528   0.801E-02-0.116E-02
CGA:  72    -0.387474824550E+03   -0.19439E-03   -0.19431E-03  8528   0.266E-02-0.959E-06
CGA:  73    -0.387474867189E+03   -0.42640E-04   -0.42045E-04  8528   0.132E-02 0.196E-04
CGA:  74    -0.387474937688E+03   -0.70499E-04   -0.70767E-04  8528   0.195E-02-0.176E-04
CGA:  75    -0.387475022811E+03   -0.85123E-04   -0.85365E-04  8528   0.168E-02-0.339E-04
CGA:  76    -0.387475080649E+03   -0.57838E-04   -0.57793E-04  8528   0.897E-03-0.154E-04
CGA:  77    -0.387475098818E+03   -0.18169E-04   -0.18057E-04  8528   0.575E-03-0.267E-05
CGA:  78    -0.387475115744E+03   -0.16926E-04   -0.16923E-04  8528   0.518E-03-0.210E-05
CGA:  79    -0.387475142181E+03   -0.26437E-04   -0.26458E-04  8528   0.592E-03-0.839E-06
CGA:  80    -0.387475182773E+03   -0.40592E-04   -0.40875E-04  8528   0.147E-02-0.907E-05
CGA:  81    -0.387475218283E+03   -0.35509E-04   -0.34786E-04  8528   0.103E-02 0.166E-04
CGA:  82    -0.387475240278E+03   -0.21995E-04   -0.22257E-04  8528   0.332E-03-0.146E-05
CGA:  83    -0.387475251379E+03   -0.11101E-04   -0.11107E-04  8528   0.269E-03 0.445E-06
CGA:  84    -0.387475262135E+03   -0.10757E-04   -0.10761E-04  8528   0.530E-03-0.151E-05
CGA:  85    -0.387475276811E+03   -0.14676E-04   -0.14666E-04  8528   0.503E-03-0.318E-05
CGA:  86    -0.387475297479E+03   -0.20668E-04   -0.20713E-04  8528   0.388E-03-0.852E-05
CGA:  87    -0.387475307379E+03   -0.98998E-05   -0.98714E-05  8528   0.197E-03-0.173E-05
   9 F= -.38747531E+03 E0= -.38744779E+03  d E =-.588150E+00  mag=    14.9096
       N       E                     dE             d eps       ncg     rms          ort
SDA:   1    -0.335348792654E+03    0.52127E+02    0.00000E+00  8528   0.283E+03 0.000E+00
CGA:   2    -0.340601289587E+03   -0.52525E+01   -0.55513E+01  8528   0.290E+03-0.459E+02
CGA:   3    -0.368375997018E+03   -0.27775E+02   -0.27296E+02  8528   0.222E+03 0.714E+00
CGA:   4    -0.376476120170E+03   -0.81001E+01   -0.74920E+01  8528   0.161E+03-0.486E+02
CGA:   5    -0.379137299985E+03   -0.26612E+01   -0.24077E+01  8528   0.770E+02 0.191E+00
CGA:   6    -0.381303346872E+03   -0.21660E+01   -0.18272E+01  8528   0.570E+02 0.208E+01
CGA:   7    -0.383106587080E+03   -0.18032E+01   -0.14556E+01  8528   0.627E+02 0.197E+01
CGA:   8    -0.383793270814E+03   -0.68668E+00   -0.76871E+00  8528   0.796E+02-0.855E+01
CGA:   9    -0.384388753893E+03   -0.59548E+00   -0.46227E+00  8528   0.880E+02 0.182E+02
CGA:  10    -0.385441524417E+03   -0.10528E+01   -0.10847E+01  8528   0.893E+02-0.557E+01
CGA:  11    -0.385977478372E+03   -0.53595E+00   -0.72076E+00  8528   0.378E+02-0.168E+02
CGA:  12    -0.386175067199E+03   -0.19759E+00   -0.20578E+00  8528   0.277E+02-0.109E+01
CGA:  13    -0.386489914495E+03   -0.31485E+00   -0.29602E+00  8528   0.221E+02 0.198E+01
CGA:  14    -0.386646119485E+03   -0.15620E+00   -0.13441E+00  8528   0.848E+01 0.317E+01
CGA:  15    -0.386722137900E+03   -0.76018E-01   -0.75151E-01  8528   0.717E+01 0.817E-01
CGA:  16    -0.386790328000E+03   -0.68190E-01   -0.65653E-01  8528   0.820E+01 0.238E+00
CGA:  17    -0.386874292314E+03   -0.83964E-01   -0.84080E-01  8528   0.119E+02-0.470E-01
CGA:  18    -0.387000395994E+03   -0.12610E+00   -0.14171E+00  8528   0.160E+02-0.741E+00
CGA:  19    -0.387106563170E+03   -0.10617E+00   -0.10358E+00  8528   0.817E+01 0.901E-01
CGA:  20    -0.387180186815E+03   -0.73624E-01   -0.71321E-01  8528   0.110E+02 0.127E+00
CGA:  21    -0.387300681673E+03   -0.12049E+00   -0.11470E+00  8528   0.121E+02 0.299E+00
CGA:  22    -0.387363808575E+03   -0.63127E-01   -0.76424E-01  8528   0.502E+01-0.185E+01
CGA:  23    -0.387396876504E+03   -0.33068E-01   -0.40072E-01  8528   0.505E+01-0.424E+00
CGA:  24    -0.387443614420E+03   -0.46738E-01   -0.47268E-01  8528   0.191E+01-0.270E-01
CGA:  25    -0.387457359124E+03   -0.13745E-01   -0.14589E-01  8528   0.821E+00-0.771E-01
CGA:  26    -0.387472343779E+03   -0.14985E-01   -0.15014E-01  8528   0.131E+01 0.198E-01
CGA:  27    -0.387494270239E+03   -0.21926E-01   -0.22432E-01  8528   0.114E+01 0.549E-01
CGA:  28    -0.387531276979E+03   -0.37007E-01   -0.35794E-01  8528   0.133E+01 0.901E-01
CGA:  29    -0.387556206350E+03   -0.24929E-01   -0.24834E-01  8528   0.841E+00-0.125E-01
CGA:  30    -0.387571781277E+03   -0.15575E-01   -0.15592E-01  8528   0.495E+00 0.581E-02
CGA:  31    -0.387582479158E+03   -0.10698E-01   -0.10681E-01  8528   0.375E+00 0.616E-02
SDA:  32    -0.387588761573E+03   -0.62824E-02   -0.62690E-02  8528   0.251E+00-0.126E-02
CGA:  33    -0.387594082936E+03   -0.53214E-02   -0.53184E-02  8528   0.142E+00 0.119E-02
CGA:  34    -0.387598418674E+03   -0.43357E-02   -0.43318E-02  8528   0.176E+00 0.319E-03
CGA:  35    -0.387605212761E+03   -0.67941E-02   -0.66998E-02  8528   0.214E+00 0.513E-02
CGA:  36    -0.387612697245E+03   -0.74845E-02   -0.74183E-02  8528   0.118E+00 0.463E-02
CGA:  37    -0.387617097753E+03   -0.44005E-02   -0.44079E-02  8528   0.507E-01-0.443E-03
CGA:  38    -0.387619697228E+03   -0.25995E-02   -0.26021E-02  8528   0.748E-01-0.101E-03
CGA:  39    -0.387621806694E+03   -0.21095E-02   -0.21059E-02  8528   0.104E+00 0.563E-03
CGA:  40    -0.387626775070E+03   -0.49684E-02   -0.49913E-02  8528   0.713E-01-0.987E-03
CGA:  41    -0.387629425292E+03   -0.26502E-02   -0.26355E-02  8528   0.368E-01 0.100E-02
CGA:  42    -0.387630207660E+03   -0.78237E-03   -0.78233E-03  8528   0.163E-01-0.828E-05
CGA:  43    -0.387630970662E+03   -0.76300E-03   -0.75969E-03  8528   0.390E-01 0.151E-03
CGA:  44    -0.387632408493E+03   -0.14378E-02   -0.14359E-02  8528   0.230E-01 0.167E-03
CGA:  45    -0.387634025837E+03   -0.16173E-02   -0.16028E-02  8528   0.189E-01 0.368E-03
CGA:  46    -0.387634340772E+03   -0.31494E-03   -0.31593E-03  8528   0.775E-02-0.740E-05
CGA:  47    -0.387634708113E+03   -0.36734E-03   -0.36618E-03  8528   0.990E-02 0.573E-04
CGA:  48    -0.387635046586E+03   -0.33847E-03   -0.33852E-03  8528   0.874E-02-0.224E-05
CGA:  49    -0.387635638973E+03   -0.59239E-03   -0.58850E-03  8528   0.141E-01 0.107E-03
CGA:  50    -0.387635898291E+03   -0.25932E-03   -0.25965E-03  8528   0.531E-02-0.299E-06
CGA:  51    -0.387636155651E+03   -0.25736E-03   -0.25736E-03  8528   0.460E-02 0.241E-06
CGA:  52    -0.387636317470E+03   -0.16182E-03   -0.16181E-03  8528   0.556E-02-0.559E-06
CGA:  53    -0.387636546974E+03   -0.22950E-03   -0.22961E-03  8528   0.701E-02-0.120E-04
CGA:  54    -0.387636737598E+03   -0.19062E-03   -0.19050E-03  8528   0.296E-02-0.194E-04
CGA:  55    -0.387636818747E+03   -0.81149E-04   -0.81161E-04  8528   0.122E-02-0.227E-05
CGA:  56    -0.387636876426E+03   -0.57679E-04   -0.57745E-04  8528   0.275E-02-0.456E-05
CGA:  57    -0.387636968829E+03   -0.92403E-04   -0.92407E-04  8528   0.160E-02-0.344E-05
CGA:  58    -0.387637027373E+03   -0.58544E-04   -0.58565E-04  8528   0.129E-02-0.532E-05
CGA:  59    -0.387637072005E+03   -0.44632E-04   -0.44639E-04  8528   0.104E-02-0.373E-05
CGA:  60    -0.387637097154E+03   -0.25149E-04   -0.25114E-04  8528   0.605E-03-0.382E-05
CGA:  61    -0.387637121977E+03   -0.24823E-04   -0.24848E-04  8528   0.877E-03-0.304E-05
CGA:  62    -0.387637170972E+03   -0.48995E-04   -0.49267E-04  8528   0.833E-03-0.117E-04
SDA:  63    -0.387637194158E+03   -0.23185E-04   -0.23169E-04  8528   0.857E-03-0.283E-05
CGA:  64    -0.387637204860E+03   -0.10702E-04   -0.10689E-04  8528   0.247E-03-0.724E-06
CGA:  65    -0.387637217593E+03   -0.12733E-04   -0.12695E-04  8528   0.209E-03 0.180E-05
CGA:  66    -0.387637234417E+03   -0.16825E-04   -0.16769E-04  8528   0.526E-03 0.111E-05
CGA:  67    -0.387637263278E+03   -0.28861E-04   -0.28797E-04  8528   0.493E-03 0.332E-05
CGA:  68    -0.387637276449E+03   -0.13171E-04   -0.13180E-04  8528   0.165E-03 0.642E-06
CGA:  69    -0.387637286459E+03   -0.10010E-04   -0.10009E-04  8528   0.374E-03-0.306E-07
CGA:  70    -0.387637295425E+03   -0.89662E-05   -0.89496E-05  8528   0.287E-03-0.123E-05
CGA:  71    -0.387637317687E+03   -0.22262E-04   -0.22303E-04  8528   0.420E-03-0.114E-05
CGA:  72    -0.387637341527E+03   -0.23840E-04   -0.23841E-04  8528   0.992E-04-0.137E-06
CGA:  73    -0.387637346497E+03   -0.49702E-05   -0.49530E-05  8528   0.217E-03 0.159E-05
  10 F= -.38763735E+03 E0= -.38760992E+03  d E =-.162039E+00  mag=    14.9304
       N       E                     dE             d eps       ncg     rms          ort
SDA:   1    -0.335344577048E+03    0.52293E+02    0.00000E+00  8528   0.338E+03 0.000E+00
CGA:   2    -0.351186203275E+03   -0.15842E+02   -0.72485E+01  8528   0.221E+03 0.395E+03
CGA:   3    -0.356969598289E+03   -0.57834E+01   -0.50276E+01  8528   0.264E+03-0.471E+01
CGA:   4    -0.362813990578E+03   -0.58444E+01   -0.59054E+01  8528   0.262E+03-0.313E+02
CGA:   5    -0.366952653325E+03   -0.41387E+01   -0.49230E+01  8528   0.287E+03-0.183E+02
CGA:   6    -0.372187444754E+03   -0.52348E+01   -0.36385E+01  8528   0.238E+03 0.699E+02
CGA:   7    -0.376735977537E+03   -0.45485E+01   -0.59056E+01  8528   0.361E+03-0.415E+02
CGA:   8    -0.377731645717E+03   -0.99567E+00   -0.34469E+01  8528   0.179E+03-0.149E+03
CGA:   9    -0.380906690790E+03   -0.31750E+01   -0.27960E+01  8528   0.106E+03-0.139E+02
CGA:  10    -0.382014913091E+03   -0.11082E+01   -0.10525E+01  8528   0.578E+02 0.177E+01
CGA:  11    -0.382856229163E+03   -0.84132E+00   -0.81776E+00  8528   0.566E+02-0.427E+01
CGA:  12    -0.383470288964E+03   -0.61406E+00   -0.67029E+00  8528   0.568E+02-0.358E+01
CGA:  13    -0.384207114543E+03   -0.73683E+00   -0.87072E+00  8528   0.681E+02-0.267E+01
CGA:  14    -0.385135604268E+03   -0.92849E+00   -0.95030E+00  8528   0.282E+02-0.523E+00
CGA:  15    -0.385683636308E+03   -0.54803E+00   -0.54084E+00  8528   0.416E+02 0.165E+00
CGA:  16    -0.386078206160E+03   -0.39457E+00   -0.24220E+00  8528   0.266E+02 0.246E+02
CGA:  17    -0.386389156865E+03   -0.31095E+00   -0.33649E+00  8528   0.102E+02-0.119E+01
CGA:  18    -0.386572794481E+03   -0.18364E+00   -0.17272E+00  8528   0.699E+01-0.311E-02
CGA:  19    -0.386695734309E+03   -0.12294E+00   -0.12330E+00  8528   0.518E+01-0.262E-02
CGA:  20    -0.386892399068E+03   -0.19666E+00   -0.19304E+00  8528   0.667E+01 0.266E+00
CGA:  21    -0.387020422182E+03   -0.12802E+00   -0.12473E+00  8528   0.111E+02-0.256E-01
CGA:  22    -0.387288249539E+03   -0.26783E+00   -0.26818E+00  8528   0.637E+01 0.903E-01
CGA:  23    -0.387355214404E+03   -0.66965E-01   -0.72793E-01  8528   0.362E+01-0.314E+00
CGA:  24    -0.387419635241E+03   -0.64421E-01   -0.65565E-01  8528   0.999E+00 0.356E-01
CGA:  25    -0.387441119595E+03   -0.21484E-01   -0.21586E-01  8528   0.127E+01 0.109E-01
CGA:  26    -0.387462251285E+03   -0.21132E-01   -0.21560E-01  8528   0.619E+00 0.285E-02
CGA:  27    -0.387497740933E+03   -0.35490E-01   -0.34610E-01  8528   0.145E+01 0.301E-01
CGA:  28    -0.387526971263E+03   -0.29230E-01   -0.29994E-01  8528   0.809E+00 0.276E-01
CGA:  29    -0.387541291700E+03   -0.14320E-01   -0.14483E-01  8528   0.312E+00 0.181E-02
CGA:  30    -0.387550379319E+03   -0.90876E-02   -0.91008E-02  8528   0.192E+00-0.195E-02
CGA:  31    -0.387570878047E+03   -0.20499E-01   -0.19632E-01  8528   0.238E+00 0.136E-01
CGA:  32    -0.387582643482E+03   -0.11765E-01   -0.11700E-01  8528   0.192E+00 0.330E-02
CGA:  33    -0.387586476075E+03   -0.38326E-02   -0.38713E-02  8528   0.133E+00-0.135E-04
CGA:  34    -0.387590420845E+03   -0.39448E-02   -0.39439E-02  8528   0.553E-01 0.183E-02
CGA:  35    -0.387595757523E+03   -0.53367E-02   -0.53235E-02  8528   0.771E-01 0.237E-03
CGA:  36    -0.387601207963E+03   -0.54504E-02   -0.54032E-02  8528   0.865E-01 0.130E-02
CGA:  37    -0.387602858138E+03   -0.16502E-02   -0.16648E-02  8528   0.496E-01-0.287E-03
CGA:  38    -0.387604596346E+03   -0.17382E-02   -0.17380E-02  8528   0.260E-01 0.106E-03
CGA:  39    -0.387605758646E+03   -0.11623E-02   -0.11585E-02  8528   0.272E-01 0.270E-03
CGA:  40    -0.387607425325E+03   -0.16667E-02   -0.16564E-02  8528   0.350E-01 0.367E-03
CGA:  41    -0.387608412087E+03   -0.98676E-03   -0.98733E-03  8528   0.260E-01 0.401E-04
CGA:  42    -0.387608970929E+03   -0.55884E-03   -0.56058E-03  8528   0.907E-02-0.118E-04
CGA:  43    -0.387609914839E+03   -0.94391E-03   -0.93678E-03  8528   0.136E-01 0.118E-03
CGA:  44    -0.387610456776E+03   -0.54194E-03   -0.54193E-03  8528   0.184E-01 0.396E-06
CGA:  45    -0.387610880558E+03   -0.42378E-03   -0.42264E-03  8528   0.792E-02 0.849E-05
CGA:  46    -0.387611305783E+03   -0.42523E-03   -0.42463E-03  8528   0.639E-02 0.274E-04
SDA:  47    -0.387611597894E+03   -0.29211E-03   -0.29209E-03  8528   0.717E-02 0.113E-05
CGA:  48    -0.387611741764E+03   -0.14387E-03   -0.14351E-03  8528   0.366E-02 0.397E-05
CGA:  49    -0.387611875114E+03   -0.13335E-03   -0.13334E-03  8528   0.536E-02-0.548E-05
CGA:  50    -0.387612088238E+03   -0.21312E-03   -0.21313E-03  8528   0.442E-02-0.364E-05
CGA:  51    -0.387612437697E+03   -0.34946E-03   -0.34899E-03  8528   0.445E-02 0.105E-04
CGA:  52    -0.387612639512E+03   -0.20182E-03   -0.20199E-03  8528   0.312E-02-0.232E-04
CGA:  53    -0.387612719275E+03   -0.79762E-04   -0.79689E-04  8528   0.370E-02-0.315E-05
CGA:  54    -0.387612918377E+03   -0.19910E-03   -0.19938E-03  8528   0.427E-02-0.154E-04
CGA:  55    -0.387613315832E+03   -0.39745E-03   -0.39929E-03  8528   0.476E-02-0.366E-04
CGA:  56    -0.387613541868E+03   -0.22604E-03   -0.22589E-03  8528   0.336E-02 0.175E-04
CGA:  57    -0.387613673465E+03   -0.13160E-03   -0.13156E-03  8528   0.382E-02 0.916E-06
CGA:  58    -0.387613979255E+03   -0.30579E-03   -0.30772E-03  8528   0.165E-01-0.495E-04
CGA:  59    -0.387614432111E+03   -0.45286E-03   -0.45292E-03  8528   0.854E-02 0.438E-04
CGA:  60    -0.387614916014E+03   -0.48390E-03   -0.48120E-03  8528   0.393E-02 0.165E-03
CGA:  61    -0.387615011173E+03   -0.95159E-04   -0.94810E-04  8528   0.571E-02 0.102E-04
CGA:  62    -0.387615830203E+03   -0.81903E-03   -0.82590E-03  8528   0.198E-01-0.104E-03
CGA:  63    -0.387616538163E+03   -0.70796E-03   -0.71558E-03  8528   0.206E-01 0.147E-03
CGA:  64    -0.387617194477E+03   -0.65631E-03   -0.63725E-03  8528   0.240E-01 0.118E-03
CGA:  65    -0.387617746655E+03   -0.55218E-03   -0.55583E-03  8528   0.818E-02-0.233E-04
CGA:  66    -0.387618196635E+03   -0.44998E-03   -0.44684E-03  8528   0.193E-01 0.244E-03
CGA:  67    -0.387618784026E+03   -0.58739E-03   -0.56512E-03  8528   0.300E-01 0.245E-03
CGA:  68    -0.387620401211E+03   -0.16172E-02   -0.16969E-02  8528   0.624E-01-0.535E-02
CGA:  69    -0.387620984259E+03   -0.58305E-03   -0.57584E-03  8528   0.361E-01 0.133E-02
CGA:  70    -0.387621550731E+03   -0.56647E-03   -0.61443E-03  8528   0.381E-01-0.162E-02
CGA:  71    -0.387622018249E+03   -0.46752E-03   -0.44886E-03  8528   0.149E-01 0.164E-02
CGA:  72    -0.387622206155E+03   -0.18791E-03   -0.18490E-03  8528   0.136E-01 0.302E-03
CGA:  73    -0.387622599258E+03   -0.39310E-03   -0.39587E-03  8528   0.338E-01 0.929E-04
CGA:  74    -0.387623169513E+03   -0.57026E-03   -0.62187E-03  8528   0.317E-01-0.110E-02
CGA:  75    -0.387623885481E+03   -0.71597E-03   -0.71581E-03  8528   0.393E-01 0.293E-03
CGA:  76    -0.387624361935E+03   -0.47645E-03   -0.41956E-03  8528   0.156E-01 0.454E-02
CGA:  77    -0.387624591527E+03   -0.22959E-03   -0.22199E-03  8528   0.157E-01 0.502E-03
SDA:  78    -0.387624872301E+03   -0.28077E-03   -0.27509E-03  8528   0.198E-01 0.236E-03
CGA:  79    -0.387625322476E+03   -0.45017E-03   -0.45105E-03  8528   0.259E-01-0.802E-05
CGA:  80    -0.387626858001E+03   -0.15355E-02   -0.15367E-02  8528   0.364E-01-0.461E-04
CGA:  81    -0.387630225166E+03   -0.33672E-02   -0.33722E-02  8528   0.831E-01-0.135E-03
CGA:  82    -0.387633163794E+03   -0.29386E-02   -0.29325E-02  8528   0.305E-01-0.124E-02
CGA:  83    -0.387634522837E+03   -0.13590E-02   -0.13547E-02  8528   0.262E-01 0.382E-03
CGA:  84    -0.387635591796E+03   -0.10690E-02   -0.10694E-02  8528   0.526E-01-0.116E-03
CGA:  85    -0.387636920261E+03   -0.13285E-02   -0.13302E-02  8528   0.203E-01-0.892E-05
CGA:  86    -0.387637991398E+03   -0.10711E-02   -0.10709E-02  8528   0.513E-02 0.645E-05
CGA:  87    -0.387638207689E+03   -0.21629E-03   -0.21634E-03  8528   0.134E-01-0.103E-04
CGA:  88    -0.387638649449E+03   -0.44176E-03   -0.44173E-03  8528   0.846E-02-0.121E-04
CGA:  89    -0.387639075483E+03   -0.42603E-03   -0.42650E-03  8528   0.570E-02-0.305E-04
CGA:  90    -0.387639265968E+03   -0.19049E-03   -0.19036E-03  8528   0.459E-02-0.944E-05
CGA:  91    -0.387639405427E+03   -0.13946E-03   -0.13947E-03  8528   0.497E-02-0.104E-05
CGA:  92    -0.387639530118E+03   -0.12469E-03   -0.12451E-03  8528   0.383E-02 0.578E-06
CGA:  93    -0.387639810196E+03   -0.28008E-03   -0.27771E-03  8528   0.415E-02 0.653E-04
CGA:  94    -0.387640031944E+03   -0.22175E-03   -0.22222E-03  8528   0.480E-02-0.253E-04
CGA:  95    -0.387640108640E+03   -0.76695E-04   -0.76606E-04  8528   0.224E-02 0.130E-04
CGA:  96    -0.387640208043E+03   -0.99404E-04   -0.99271E-04  8528   0.139E-02 0.185E-04
CGA:  97    -0.387640363452E+03   -0.15541E-03   -0.15391E-03  8528   0.836E-02 0.212E-04
CGA:  98    -0.387640526746E+03   -0.16329E-03   -0.16216E-03  8528   0.151E-02 0.582E-04
CGA:  99    -0.387640582899E+03   -0.56153E-04   -0.56206E-04  8528   0.118E-02 0.841E-05
CGA: 100    -0.387640638665E+03   -0.55767E-04   -0.55749E-04  8528   0.213E-02 0.241E-05
CGA: 101    -0.387640701839E+03   -0.63174E-04   -0.63137E-04  8528   0.237E-02 0.153E-05
CGA: 102    -0.387640774408E+03   -0.72569E-04   -0.72494E-04  8528   0.182E-02-0.843E-08
CGA: 103    -0.387640877479E+03   -0.10307E-03   -0.10289E-03  8528   0.110E-02 0.735E-05
CGA: 104    -0.387640905501E+03   -0.28022E-04   -0.28010E-04  8528   0.156E-02-0.559E-06
CGA: 105    -0.387640969440E+03   -0.63939E-04   -0.63942E-04  8528   0.104E-02-0.429E-05
CGA: 106    -0.387641069966E+03   -0.10053E-03   -0.10080E-03  8528   0.278E-02-0.506E-05
CGA: 107    -0.387641130421E+03   -0.60455E-04   -0.60166E-04  8528   0.225E-02 0.198E-05
CGA: 108    -0.387641192162E+03   -0.61741E-04   -0.61677E-04  8528   0.675E-03-0.425E-05
SDA: 109    -0.387641219273E+03   -0.27111E-04   -0.27112E-04  8528   0.995E-03-0.291E-06
CGA: 110    -0.387641236111E+03   -0.16838E-04   -0.16885E-04  8528   0.422E-03 0.440E-06
CGA: 111    -0.387641253497E+03   -0.17386E-04   -0.17383E-04  8528   0.948E-03 0.230E-05
CGA: 112    -0.387641301609E+03   -0.48112E-04   -0.48000E-04  8528   0.994E-03 0.977E-05
CGA: 113    -0.387641350450E+03   -0.48841E-04   -0.48771E-04  8528   0.360E-03 0.829E-05
CGA: 114    -0.387641373240E+03   -0.22789E-04   -0.22695E-04  8528   0.258E-03 0.413E-05
CGA: 115    -0.387641396189E+03   -0.22949E-04   -0.22898E-04  8528   0.460E-03 0.958E-06
CGA: 116    -0.387641434780E+03   -0.38591E-04   -0.38215E-04  8528   0.940E-03 0.951E-05
CGA: 117    -0.387641453146E+03   -0.18367E-04   -0.18431E-04  8528   0.601E-03 0.194E-05
CGA: 118    -0.387641477417E+03   -0.24270E-04   -0.24271E-04  8528   0.223E-03 0.101E-05
CGA: 119    -0.387641486993E+03   -0.95761E-05   -0.95761E-05  8528   0.411E-03-0.270E-06
CGA: 120    -0.387641548684E+03   -0.61691E-04   -0.61817E-04  8528   0.125E-02-0.201E-05
CGA: 121    -0.387641564570E+03   -0.15886E-04   -0.15913E-04  8528   0.225E-03 0.263E-06
CGA: 122    -0.387641581393E+03   -0.16824E-04   -0.16750E-04  8528   0.179E-03 0.262E-05
CGA: 123    -0.387641610259E+03   -0.28866E-04   -0.28546E-04  8528   0.598E-03 0.266E-05
CGA: 124    -0.387641635864E+03   -0.25604E-04   -0.25644E-04  8528   0.611E-03 0.406E-05
CGA: 125    -0.387641646389E+03   -0.10525E-04   -0.10607E-04  8528   0.277E-03 0.378E-06
CGA: 126    -0.387641660500E+03   -0.14112E-04   -0.14112E-04  8528   0.174E-03 0.573E-06
CGA: 127    -0.387641668810E+03   -0.83091E-05   -0.83071E-05  8528   0.317E-03-0.471E-06
CGA: 128    -0.387641695939E+03   -0.27129E-04   -0.27139E-04  8528   0.357E-03-0.323E-06
CGA: 129    -0.387641703252E+03   -0.73129E-05   -0.73457E-05  8528   0.289E-03 0.213E-06
  11 F= -.38764170E+03 E0= -.38761537E+03  d E =-.435675E-02  mag=    12.8663
       N       E                     dE             d eps       ncg     rms          ort
SDA:   1    -0.379295897151E+03    0.83458E+01    0.00000E+00  8528   0.621E+02 0.000E+00
CGA:   2    -0.380199409944E+03   -0.90351E+00   -0.94623E+00  8528   0.388E+02-0.634E+01
CGA:   3    -0.383580894542E+03   -0.33815E+01   -0.35303E+01  8528   0.923E+02-0.223E+01
CGA:   4    -0.385289443938E+03   -0.17085E+01   -0.18703E+01  8528   0.615E+02-0.491E+01
CGA:   5    -0.386213289198E+03   -0.92385E+00   -0.10718E+01  8528   0.222E+02-0.100E+02
CGA:   6    -0.386802785340E+03   -0.58950E+00   -0.60330E+00  8528   0.135E+02-0.128E+00
CGA:   7    -0.387110649728E+03   -0.30786E+00   -0.30959E+00  8528   0.911E+01-0.138E+00
CGA:   8    -0.387420834384E+03   -0.31018E+00   -0.30875E+00  8528   0.116E+02-0.301E-01
CGA:   9    -0.387742224290E+03   -0.32139E+00   -0.32120E+00  8528   0.273E+01 0.744E-02
CGA:  10    -0.387823499076E+03   -0.81275E-01   -0.82706E-01  8528   0.163E+01-0.129E-02
CGA:  11    -0.387852839984E+03   -0.29341E-01   -0.29773E-01  8528   0.770E+00-0.137E-01
CGA:  12    -0.387882373498E+03   -0.29534E-01   -0.29515E-01  8528   0.997E+00-0.169E-02
CGA:  13    -0.387925078870E+03   -0.42705E-01   -0.42707E-01  8528   0.744E+00-0.621E-02
CGA:  14    -0.387940939745E+03   -0.15861E-01   -0.15921E-01  8528   0.338E+00-0.152E-02
CGA:  15    -0.387948628746E+03   -0.76890E-02   -0.78238E-02  8528   0.185E+00-0.203E-02
CGA:  16    -0.387955566722E+03   -0.69380E-02   -0.69397E-02  8528   0.890E-01 0.220E-03
CGA:  17    -0.387958183738E+03   -0.26170E-02   -0.26245E-02  8528   0.138E+00 0.127E-03
CGA:  18    -0.387965614777E+03   -0.74310E-02   -0.74265E-02  8528   0.949E-01 0.294E-03
CGA:  19    -0.387967511833E+03   -0.18971E-02   -0.19120E-02  8528   0.323E-01-0.333E-03
CGA:  20    -0.387968530399E+03   -0.10186E-02   -0.10190E-02  8528   0.343E-01 0.210E-04
CGA:  21    -0.387969527033E+03   -0.99663E-03   -0.99648E-03  8528   0.218E-01 0.119E-04
CGA:  22    -0.387970752538E+03   -0.12255E-02   -0.12247E-02  8528   0.385E-01 0.415E-04
CGA:  23    -0.387971756642E+03   -0.10041E-02   -0.10049E-02  8528   0.250E-01 0.188E-04
CGA:  24    -0.387972404936E+03   -0.64829E-03   -0.64879E-03  8528   0.812E-02 0.827E-05
CGA:  25    -0.387972713074E+03   -0.30814E-03   -0.30815E-03  8528   0.117E-01 0.101E-04
CGA:  26    -0.387973055522E+03   -0.34245E-03   -0.34266E-03  8528   0.836E-02 0.179E-05
CGA:  27    -0.387973452617E+03   -0.39709E-03   -0.39729E-03  8528   0.125E-01-0.148E-04
CGA:  28    -0.387973859547E+03   -0.40693E-03   -0.40716E-03  8528   0.813E-02 0.151E-04
CGA:  29    -0.387974031195E+03   -0.17165E-03   -0.17155E-03  8528   0.353E-02 0.396E-05
CGA:  30    -0.387974147857E+03   -0.11666E-03   -0.11666E-03  8528   0.248E-02-0.936E-06
CGA:  31    -0.387974261509E+03   -0.11365E-03   -0.11363E-03  8528   0.529E-02 0.258E-05
SDA:  32    -0.387974433163E+03   -0.17165E-03   -0.17175E-03  8528   0.265E-02 0.942E-05
CGA:  33    -0.387974482013E+03   -0.48851E-04   -0.48806E-04  8528   0.161E-02 0.212E-05
CGA:  34    -0.387974521533E+03   -0.39520E-04   -0.39545E-04  8528   0.687E-03 0.624E-06
[...]
CGA:  23    -0.389457651560E+03   -0.93905E-03   -0.93885E-03  8528   0.172E-01 0.601E-05
CGA:  24    -0.389458177787E+03   -0.52623E-03   -0.52500E-03  8528   0.643E-02-0.168E-05
CGA:  25    -0.389458431518E+03   -0.25373E-03   -0.25370E-03  8528   0.979E-02-0.149E-05
CGA:  26    -0.389458937982E+03   -0.50646E-03   -0.50645E-03  8528   0.361E-02 0.330E-05
CGA:  27    -0.389459097266E+03   -0.15928E-03   -0.15930E-03  8528   0.585E-02 0.539E-05
CGA:  28    -0.389459311864E+03   -0.21460E-03   -0.21467E-03  8528   0.254E-02 0.805E-05
CGA:  29    -0.389459446980E+03   -0.13512E-03   -0.13508E-03  8528   0.349E-02 0.539E-05
CGA:  30    -0.389459568193E+03   -0.12121E-03   -0.12126E-03  8528   0.170E-02 0.485E-05
CGA:  31    -0.389459609182E+03   -0.40989E-04   -0.41022E-04  8528   0.768E-03 0.734E-06
SDA:  32    -0.389459706358E+03   -0.97176E-04   -0.97275E-04  8528   0.218E-02-0.118E-05
CGA:  33    -0.389459736248E+03   -0.29890E-04   -0.29920E-04  8528   0.437E-03-0.259E-05
CGA:  34    -0.389459760977E+03   -0.24729E-04   -0.24738E-04  8528   0.424E-03-0.988E-06
CGA:  35    -0.389459786275E+03   -0.25298E-04   -0.25323E-04  8528   0.460E-03-0.210E-05
CGA:  36    -0.389459847544E+03   -0.61269E-04   -0.61682E-04  8528   0.329E-03-0.470E-05
CGA:  37    -0.389459857548E+03   -0.10004E-04   -0.10003E-04  8528   0.342E-03-0.499E-06
CGA:  38    -0.389459872070E+03   -0.14522E-04   -0.14519E-04  8528   0.339E-03-0.509E-06
CGA:  39    -0.389459885641E+03   -0.13571E-04   -0.13556E-04  8528   0.154E-03-0.111E-05
CGA:  40    -0.389459909352E+03   -0.23711E-04   -0.23725E-04  8528   0.183E-03-0.112E-06
CGA:  41    -0.389459914510E+03   -0.51575E-05   -0.51523E-05  8528   0.225E-03-0.153E-06
CGA:  42    -0.389459929678E+03   -0.15168E-04   -0.15178E-04  8528   0.571E-04-0.735E-06
CGA:  43    -0.389459936130E+03   -0.64514E-05   -0.64481E-05  8528   0.115E-03 0.376E-07
 144 F= -.38945994E+03 E0= -.38944247E+03  d E =0.156017E-03  mag=    12.0000
       N       E                     dE             d eps       ncg     rms          ort
SDA:   1    -0.388486019940E+03    0.97391E+00    0.00000E+00  8528   0.415E+01 0.000E+00
CGA:   2    -0.388599330167E+03   -0.11331E+00   -0.12350E+00  8528   0.619E+01-0.162E+00
CGA:   3    -0.389142060438E+03   -0.54273E+00   -0.53888E+00  8528   0.484E+01 0.102E+00
CGA:   4    -0.389278662680E+03   -0.13660E+00   -0.14146E+00  8528   0.919E+00-0.135E+00
CGA:   5    -0.389357932512E+03   -0.79270E-01   -0.78901E-01  8528   0.241E+01 0.969E-02
CGA:   6    -0.389408622414E+03   -0.50690E-01   -0.52309E-01  8528   0.622E+00-0.588E-01
CGA:   7    -0.389432070631E+03   -0.23448E-01   -0.23487E-01  8528   0.290E+00 0.401E-04
CGA:   8    -0.389445479501E+03   -0.13409E-01   -0.13347E-01  8528   0.114E+00-0.223E-02
CGA:   9    -0.389448586447E+03   -0.31069E-02   -0.31458E-02  8528   0.109E+00-0.667E-03
CGA:  10    -0.389453878195E+03   -0.52917E-02   -0.52981E-02  8528   0.844E-01 0.694E-03
CGA:  11    -0.389457056168E+03   -0.31780E-02   -0.31415E-02  8528   0.214E-01-0.178E-03
CGA:  12    -0.389457954983E+03   -0.89881E-03   -0.89978E-03  8528   0.282E-01 0.251E-04
CGA:  13    -0.389458735085E+03   -0.78010E-03   -0.78535E-03  8528   0.113E-01-0.801E-04
CGA:  14    -0.389459347476E+03   -0.61239E-03   -0.61273E-03  8528   0.952E-02-0.513E-04
CGA:  15    -0.389459817838E+03   -0.47036E-03   -0.47040E-03  8528   0.872E-02 0.243E-04
CGA:  16    -0.389460005531E+03   -0.18769E-03   -0.18803E-03  8528   0.385E-02-0.882E-05
CGA:  17    -0.389460324179E+03   -0.31865E-03   -0.31968E-03  8528   0.365E-02-0.276E-04
CGA:  18    -0.389460454966E+03   -0.13079E-03   -0.13094E-03  8528   0.293E-02 0.361E-05
CGA:  19    -0.389460549378E+03   -0.94412E-04   -0.94603E-04  8528   0.299E-02 0.161E-05
CGA:  20    -0.389460750741E+03   -0.20136E-03   -0.20150E-03  8528   0.188E-02-0.544E-05
CGA:  21    -0.389460857206E+03   -0.10646E-03   -0.10642E-03  8528   0.352E-02 0.381E-05
CGA:  22    -0.389460969800E+03   -0.11259E-03   -0.11263E-03  8528   0.199E-02-0.733E-06
CGA:  23    -0.389461034904E+03   -0.65103E-04   -0.64913E-04  8528   0.756E-03-0.920E-06
CGA:  24    -0.389461108803E+03   -0.73900E-04   -0.73863E-04  8528   0.242E-02 0.742E-06
CGA:  25    -0.389461174220E+03   -0.65416E-04   -0.65469E-04  8528   0.886E-03 0.366E-06
CGA:  26    -0.389461199407E+03   -0.25188E-04   -0.25171E-04  8528   0.305E-03 0.719E-07
CGA:  27    -0.389461228138E+03   -0.28731E-04   -0.28746E-04  8528   0.726E-03-0.329E-06
CGA:  28    -0.389461245158E+03   -0.17019E-04   -0.17021E-04  8528   0.305E-03-0.225E-06
CGA:  29    -0.389461259292E+03   -0.14135E-04   -0.14135E-04  8528   0.226E-03 0.268E-06
CGA:  30    -0.389461271645E+03   -0.12353E-04   -0.12353E-04  8528   0.190E-03 0.203E-07
CGA:  31    -0.389461276654E+03   -0.50088E-05   -0.50102E-05  8528   0.166E-03 0.825E-07
SDA:  32    -0.389461289504E+03   -0.12850E-04   -0.12853E-04  8528   0.138E-03-0.118E-06
CGA:  33    -0.389461292700E+03   -0.31963E-05   -0.31879E-05  8528   0.713E-04-0.264E-06
 145 F= -.38946129E+03 E0= -.38944367E+03  d E =-.135657E-02  mag=    12.0000
       N       E                     dE             d eps       ncg     rms          ort
SDA:   1    -0.386850281415E+03    0.26110E+01    0.00000E+00  8528   0.885E+01 0.000E+00
CGA:   2    -0.387690907505E+03   -0.84063E+00   -0.94513E+00  8528   0.470E+02-0.184E+01
CGA:   3    -0.388450082984E+03   -0.75918E+00   -0.76490E+00  8528   0.189E+02-0.482E+00
CGA:   4    -0.388779757179E+03   -0.32967E+00   -0.41242E+00  8528   0.505E+01-0.200E+01
CGA:   5    -0.388879968166E+03   -0.10021E+00   -0.11014E+00  8528   0.509E+01-0.231E+00
CGA:   6    -0.389189251471E+03   -0.30928E+00   -0.33724E+00  8528   0.666E+01-0.104E+01
CGA:   7    -0.389304625780E+03   -0.11537E+00   -0.11895E+00  8528   0.278E+01-0.881E-01
CGA:   8    -0.389358630202E+03   -0.54004E-01   -0.62371E-01  8528   0.139E+01-0.182E+00
CGA:   9    -0.389402637175E+03   -0.44007E-01   -0.43419E-01  8528   0.300E+00-0.521E-02
CGA:  10    -0.389417344647E+03   -0.14707E-01   -0.14756E-01  8528   0.374E+00-0.651E-02
CGA:  11    -0.389438721078E+03   -0.21376E-01   -0.21296E-01  8528   0.277E+00 0.444E-02
CGA:  12    -0.389445733212E+03   -0.70121E-02   -0.71230E-02  8528   0.170E+00-0.167E-02
CGA:  13    -0.389451057980E+03   -0.53248E-02   -0.53288E-02  8528   0.938E-01 0.343E-04
CGA:  14    -0.389453883908E+03   -0.28259E-02   -0.28225E-02  8528   0.260E-01-0.516E-05
CGA:  15    -0.389456311933E+03   -0.24280E-02   -0.24121E-02  8528   0.660E-01 0.332E-03
CGA:  16    -0.389458974017E+03   -0.26621E-02   -0.26616E-02  8528   0.213E-01-0.189E-04
CGA:  17    -0.389459390982E+03   -0.41696E-03   -0.41372E-03  8528   0.113E-01 0.107E-03
CGA:  18    -0.389460127415E+03   -0.73643E-03   -0.73677E-03  8528   0.128E-01-0.136E-04
CGA:  19    -0.389460626654E+03   -0.49924E-03   -0.50018E-03  8528   0.809E-02 0.545E-04
CGA:  20    -0.389461194331E+03   -0.56768E-03   -0.56772E-03  8528   0.143E-01-0.226E-05
CGA:  21    -0.389461566110E+03   -0.37178E-03   -0.37080E-03  8528   0.820E-02 0.652E-05
CGA:  22    -0.389461875247E+03   -0.30914E-03   -0.30909E-03  8528   0.790E-02-0.378E-05
CGA:  23    -0.389462440721E+03   -0.56547E-03   -0.56507E-03  8528   0.470E-02 0.141E-04
CGA:  24    -0.389462602048E+03   -0.16133E-03   -0.16117E-03  8528   0.465E-02 0.126E-05
CGA:  25    -0.389462846138E+03   -0.24409E-03   -0.24408E-03  8528   0.892E-02 0.411E-05
CGA:  26    -0.389463126107E+03   -0.27997E-03   -0.28060E-03  8528   0.336E-02 0.133E-04
CGA:  27    -0.389463344316E+03   -0.21821E-03   -0.21798E-03  8528   0.322E-02 0.107E-04
CGA:  28    -0.389463441884E+03   -0.97569E-04   -0.97388E-04  8528   0.161E-02 0.352E-06
CGA:  29    -0.389463494479E+03   -0.52595E-04   -0.52533E-04  8528   0.215E-02-0.127E-05
CGA:  30    -0.389463635387E+03   -0.14091E-03   -0.14088E-03  8528   0.173E-02 0.119E-05
CGA:  31    -0.389463686118E+03   -0.50731E-04   -0.50707E-04  8528   0.477E-03 0.383E-06
SDA:  32    -0.389463715614E+03   -0.29496E-04   -0.29528E-04  8528   0.926E-03-0.170E-05
CGA:  33    -0.389463730233E+03   -0.14619E-04   -0.14629E-04  8528   0.301E-03-0.235E-07
CGA:  34    -0.389463748219E+03   -0.17986E-04   -0.17974E-04  8528   0.575E-03 0.620E-06
CGA:  35    -0.389463786942E+03   -0.38723E-04   -0.38724E-04  8528   0.253E-03-0.297E-07
CGA:  36    -0.389463807840E+03   -0.20898E-04   -0.20888E-04  8528   0.127E-03 0.251E-06
CGA:  37    -0.389463812885E+03   -0.50454E-05   -0.50432E-05  8528   0.218E-03-0.273E-06
CGA:  38    -0.389463823968E+03   -0.11083E-04   -0.11087E-04  8528   0.275E-03-0.772E-06
CGA:  39    -0.389463835167E+03   -0.11199E-04   -0.11199E-04  8528   0.925E-04-0.140E-06
CGA:  40    -0.389463846267E+03   -0.11100E-04   -0.11190E-04  8528   0.655E-04-0.123E-05
CGA:  41    -0.389463848918E+03   -0.26510E-05   -0.26537E-05  8528   0.121E-03 0.269E-06
 146 F= -.38946385E+03 E0= -.38944622E+03  d E =-.255622E-02  mag=    12.0000
       N       E                     dE             d eps       ncg     rms          ort
SDA:   1    -0.389027215715E+03    0.43663E+00    0.00000E+00  8528   0.154E+01 0.000E+00
CGA:   2    -0.389216293923E+03   -0.18908E+00   -0.18359E+00  8528   0.398E+01 0.817E-01
CGA:   3    -0.389310643687E+03   -0.94350E-01   -0.97390E-01  8528   0.178E+01-0.864E-01
CGA:   4    -0.389357174945E+03   -0.46531E-01   -0.45663E-01  8528   0.679E+00 0.166E-01
CGA:   5    -0.389402213209E+03   -0.45038E-01   -0.44625E-01  8528   0.403E+00 0.204E-01
CGA:   6    -0.389430092525E+03   -0.27879E-01   -0.27788E-01  8528   0.887E+00 0.433E-02
CGA:   7    -0.389449212676E+03   -0.19120E-01   -0.19121E-01  8528   0.153E+00-0.569E-03
CGA:   8    -0.389453634347E+03   -0.44217E-02   -0.44517E-02  8528   0.488E-01-0.374E-03
CGA:   9    -0.389458406794E+03   -0.47724E-02   -0.47710E-02  8528   0.991E-01 0.281E-04
CGA:  10    -0.389460174264E+03   -0.17675E-02   -0.17761E-02  8528   0.271E-01-0.357E-03
CGA:  11    -0.389461440586E+03   -0.12663E-02   -0.12670E-02  8528   0.165E-01 0.906E-04
CGA:  12    -0.389462100039E+03   -0.65945E-03   -0.65872E-03  8528   0.604E-02-0.153E-04
CGA:  13    -0.389462411496E+03   -0.31146E-03   -0.31143E-03  8528   0.144E-01 0.845E-05
CGA:  14    -0.389462917821E+03   -0.50632E-03   -0.50697E-03  8528   0.543E-02 0.737E-05
CGA:  15    -0.389463118780E+03   -0.20096E-03   -0.20041E-03  8528   0.250E-02-0.811E-05
CGA:  16    -0.389463303748E+03   -0.18497E-03   -0.18446E-03  8528   0.240E-02 0.172E-04
CGA:  17    -0.389463363973E+03   -0.60225E-04   -0.60238E-04  8528   0.229E-02-0.330E-06
CGA:  18    -0.389463533816E+03   -0.16984E-03   -0.17010E-03  8528   0.203E-02-0.896E-05
CGA:  19    -0.389463617978E+03   -0.84163E-04   -0.84237E-04  8528   0.113E-02 0.334E-05
CGA:  20    -0.389463714523E+03   -0.96544E-04   -0.96519E-04  8528   0.303E-02 0.737E-06
CGA:  21    -0.389463778981E+03   -0.64458E-04   -0.64381E-04  8528   0.840E-03 0.441E-05
CGA:  22    -0.389463836854E+03   -0.57873E-04   -0.57781E-04  8528   0.121E-02 0.426E-05
CGA:  23    -0.389463904688E+03   -0.67834E-04   -0.67834E-04  8528   0.678E-03 0.826E-06
CGA:  24    -0.389463932664E+03   -0.27976E-04   -0.27981E-04  8528   0.119E-02 0.914E-06
CGA:  25    -0.389463973076E+03   -0.40412E-04   -0.40448E-04  8528   0.336E-03 0.190E-05
CGA:  26    -0.389463987357E+03   -0.14281E-04   -0.14279E-04  8528   0.243E-03-0.959E-08
CGA:  27    -0.389464014030E+03   -0.26674E-04   -0.26784E-04  8528   0.410E-03-0.182E-05
CGA:  28    -0.389464022276E+03   -0.82456E-05   -0.82336E-05  8528   0.211E-03-0.502E-06
CGA:  29    -0.389464033090E+03   -0.10814E-04   -0.10815E-04  8528   0.108E-03-0.348E-06
CGA:  30    -0.389464037904E+03   -0.48135E-05   -0.48137E-05  8528   0.811E-04-0.223E-07
 147 F= -.38946404E+03 E0= -.38944653E+03  d E =-.188986E-03  mag=    12.0000
       N       E                     dE             d eps       ncg     rms          ort
SDA:   1    -0.388834066447E+03    0.62997E+00    0.00000E+00  8528   0.542E+01 0.000E+00
CGA:   2    -0.388926553678E+03   -0.92487E-01   -0.94465E-01  8528   0.296E+01-0.147E+00
CGA:   3    -0.389286753022E+03   -0.36020E+00   -0.36351E+00  8528   0.173E+01-0.487E-01
CGA:   4    -0.389329737495E+03   -0.42984E-01   -0.48566E-01  8528   0.782E+00-0.815E-01
CGA:   5    -0.389367368179E+03   -0.37631E-01   -0.37647E-01  8528   0.144E+01 0.263E-02
CGA:   6    -0.389416976321E+03   -0.49608E-01   -0.48555E-01  8528   0.530E+00 0.400E-02
CGA:   7    -0.389442031759E+03   -0.25055E-01   -0.25128E-01  8528   0.306E+00 0.595E-02
CGA:   8    -0.389449851818E+03   -0.78201E-02   -0.78052E-02  8528   0.124E+00 0.381E-03
CGA:   9    -0.389453043182E+03   -0.31914E-02   -0.31657E-02  8528   0.638E-01 0.499E-03
CGA:  10    -0.389458758791E+03   -0.57156E-02   -0.57174E-02  8528   0.545E-01-0.406E-04
CGA:  11    -0.389460243999E+03   -0.14852E-02   -0.14939E-02  8528   0.296E-01-0.138E-03
CGA:  12    -0.389461036598E+03   -0.79260E-03   -0.79578E-03  8528   0.166E-01-0.507E-04
CGA:  13    -0.389461942428E+03   -0.90583E-03   -0.90585E-03  8528   0.754E-02-0.513E-05
CGA:  14    -0.389462367718E+03   -0.42529E-03   -0.42508E-03  8528   0.149E-01 0.173E-04
CGA:  15    -0.389462824325E+03   -0.45661E-03   -0.45700E-03  8528   0.700E-02-0.731E-05
CGA:  16    -0.389463084413E+03   -0.26009E-03   -0.26000E-03  8528   0.285E-02-0.383E-05
CGA:  17    -0.389463324796E+03   -0.24038E-03   -0.24019E-03  8528   0.698E-02 0.523E-05
CGA:  18    -0.389463498205E+03   -0.17341E-03   -0.17375E-03  8528   0.321E-02-0.183E-05
CGA:  19    -0.389463701001E+03   -0.20280E-03   -0.20275E-03  8528   0.336E-02 0.375E-05
CGA:  20    -0.389463884247E+03   -0.18325E-03   -0.18319E-03  8528   0.331E-02 0.852E-05
CGA:  21    -0.389463984820E+03   -0.10057E-03   -0.10071E-03  8528   0.343E-02 0.152E-05
CGA:  22    -0.389464180160E+03   -0.19534E-03   -0.19533E-03  8528   0.164E-02 0.112E-05
CGA:  23    -0.389464245106E+03   -0.64947E-04   -0.64912E-04  8528   0.135E-02-0.160E-05
CGA:  24    -0.389464315524E+03   -0.70418E-04   -0.70418E-04  8528   0.273E-02-0.603E-06
CGA:  25    -0.389464410583E+03   -0.95059E-04   -0.95051E-04  8528   0.613E-03-0.244E-05
CGA:  26    -0.389464435494E+03   -0.24911E-04   -0.24888E-04  8528   0.463E-03-0.182E-05
CGA:  27    -0.389464460841E+03   -0.25347E-04   -0.25348E-04  8528   0.844E-03-0.192E-06
CGA:  28    -0.389464484516E+03   -0.23676E-04   -0.23706E-04  8528   0.291E-03 0.485E-07
CGA:  29    -0.389464504873E+03   -0.20357E-04   -0.20353E-04  8528   0.257E-03 0.210E-06
CGA:  30    -0.389464512602E+03   -0.77293E-05   -0.77464E-05  8528   0.165E-03 0.749E-06
 148 F= -.38946451E+03 E0= -.38944701E+03  d E =-.474699E-03  mag=    12.0000
       N       E                     dE             d eps       ncg     rms          ort
SDA:   1    -0.388863877490E+03    0.60063E+00    0.00000E+00  8528   0.268E+01 0.000E+00
CGA:   2    -0.388997349492E+03   -0.13347E+00   -0.13276E+00  8528   0.508E+01 0.126E+00
CGA:   3    -0.389209121642E+03   -0.21177E+00   -0.21304E+00  8528   0.355E+01 0.639E-01
CGA:   4    -0.389310626077E+03   -0.10150E+00   -0.98781E-01  8528   0.604E+00 0.185E-01
CGA:   5    -0.389385186485E+03   -0.74560E-01   -0.75252E-01  8528   0.126E+01-0.103E-01
CGA:   6    -0.389413038793E+03   -0.27852E-01   -0.28109E-01  8528   0.660E+00-0.720E-02
CGA:   7    -0.389439126204E+03   -0.26087E-01   -0.26079E-01  8528   0.272E+00-0.291E-03
CGA:   8    -0.389447674577E+03   -0.85484E-02   -0.83672E-02  8528   0.741E-01 0.548E-03
CGA:   9    -0.389451995614E+03   -0.43210E-02   -0.43118E-02  8528   0.181E+00 0.568E-03
CGA:  10    -0.389457711165E+03   -0.57156E-02   -0.57307E-02  8528   0.344E-01-0.191E-05
CGA:  11    -0.389459057408E+03   -0.13462E-02   -0.13421E-02  8528   0.232E-01-0.178E-03
CGA:  12    -0.389460074980E+03   -0.10176E-02   -0.10177E-02  8528   0.244E-01 0.211E-04
CGA:  13    -0.389460648503E+03   -0.57352E-03   -0.57709E-03  8528   0.929E-02-0.711E-04
CGA:  14    -0.389461532821E+03   -0.88432E-03   -0.88648E-03  8528   0.802E-02-0.438E-04
CGA:  15    -0.389461719341E+03   -0.18652E-03   -0.18704E-03  8528   0.578E-02-0.118E-04
CGA:  16    -0.389462041988E+03   -0.32265E-03   -0.32264E-03  8528   0.415E-02 0.886E-06
CGA:  17    -0.389462212606E+03   -0.17062E-03   -0.17056E-03  8528   0.292E-02-0.383E-05
CGA:  18    -0.389462340956E+03   -0.12835E-03   -0.12835E-03  8528   0.483E-02 0.146E-05
CGA:  19    -0.389462515187E+03   -0.17423E-03   -0.17440E-03  8528   0.161E-02 0.936E-05
CGA:  20    -0.389462720177E+03   -0.20499E-03   -0.20468E-03  8528   0.480E-02 0.352E-05
CGA:  21    -0.389462810260E+03   -0.90083E-04   -0.90239E-04  8528   0.930E-03-0.807E-06
CGA:  22    -0.389462871016E+03   -0.60755E-04   -0.60748E-04  8528   0.172E-02 0.280E-06
CGA:  23    -0.389463002729E+03   -0.13171E-03   -0.13186E-03  8528   0.236E-02-0.534E-05
CGA:  24    -0.389463043532E+03   -0.40802E-04   -0.40627E-04  8528   0.389E-03 0.341E-05
CGA:  25    -0.389463093129E+03   -0.49597E-04   -0.49611E-04  8528   0.753E-03-0.153E-06
CGA:  26    -0.389463111790E+03   -0.18661E-04   -0.18642E-04  8528   0.493E-03 0.255E-06
CGA:  27    -0.389463135088E+03   -0.23298E-04   -0.23298E-04  8528   0.422E-03 0.215E-06
CGA:  28    -0.389463152970E+03   -0.17882E-04   -0.17889E-04  8528   0.175E-03 0.742E-06
CGA:  29    -0.389463160066E+03   -0.70965E-05   -0.71010E-05  8528   0.296E-03 0.369E-06
CGA:  30    -0.389463173011E+03   -0.12945E-04   -0.12948E-04  8528   0.128E-03 0.297E-06
CGA:  31    -0.389463180128E+03   -0.71168E-05   -0.71195E-05  8528   0.168E-03-0.455E-06
 149 F= -.38946318E+03 E0= -.38944558E+03  d E =0.133247E-02  mag=    12.0000
       N       E                     dE             d eps       ncg     rms          ort
SDA:   1    -0.389327913849E+03    0.13526E+00    0.00000E+00  8528   0.141E+01 0.000E+00
CGA:   2    -0.389349998010E+03   -0.22084E-01   -0.21548E-01  8528   0.493E+00 0.239E-01
CGA:   3    -0.389391181185E+03   -0.41183E-01   -0.42073E-01  8528   0.118E+01-0.229E-01
CGA:   4    -0.389431809103E+03   -0.40628E-01   -0.41193E-01  8528   0.172E+00 0.645E-02
CGA:   5    -0.389439348910E+03   -0.75398E-02   -0.75478E-02  8528   0.333E+00 0.545E-03
CGA:   6    -0.389451960484E+03   -0.12612E-01   -0.12612E-01  8528   0.163E+00-0.124E-04
CGA:   7    -0.389457324299E+03   -0.53638E-02   -0.52889E-02  8528   0.858E-01-0.789E-04
CGA:   8    -0.389462121826E+03   -0.47975E-02   -0.48014E-02  8528   0.135E-01-0.300E-03
CGA:   9    -0.389462772150E+03   -0.65032E-03   -0.65026E-03  8528   0.241E-01 0.564E-04
CGA:  10    -0.389463741531E+03   -0.96938E-03   -0.96939E-03  8528   0.197E-01 0.787E-05
CGA:  11    -0.389464211922E+03   -0.47039E-03   -0.46623E-03  8528   0.423E-02 0.971E-04
CGA:  12    -0.389464530257E+03   -0.31833E-03   -0.31844E-03  8528   0.189E-02-0.253E-05
CGA:  13    -0.389464635435E+03   -0.10518E-03   -0.10508E-03  8528   0.269E-02 0.963E-05
CGA:  14    -0.389464766395E+03   -0.13096E-03   -0.13096E-03  8528   0.200E-02 0.198E-05
CGA:  15    -0.389464804952E+03   -0.38557E-04   -0.38485E-04  8528   0.798E-03 0.462E-05
CGA:  16    -0.389464885766E+03   -0.80815E-04   -0.80651E-04  8528   0.599E-03 0.304E-05
CGA:  17    -0.389464905903E+03   -0.20136E-04   -0.20175E-04  8528   0.296E-03 0.122E-05
CGA:  18    -0.389464942239E+03   -0.36336E-04   -0.36376E-04  8528   0.440E-03-0.556E-06
CGA:  19    -0.389464958844E+03   -0.16605E-04   -0.16597E-04  8528   0.533E-03-0.363E-06
CGA:  20    -0.389464978425E+03   -0.19581E-04   -0.19579E-04  8528   0.432E-03-0.172E-06
CGA:  21    -0.389464991586E+03   -0.13162E-04   -0.13168E-04  8528   0.118E-03 0.369E-06
CGA:  22    -0.389465009909E+03   -0.18322E-04   -0.18243E-04  8528   0.213E-03 0.753E-06
CGA:  23    -0.389465019959E+03   -0.10050E-04   -0.10053E-04  8528   0.188E-03 0.174E-06
CGA:  24    -0.389465029073E+03   -0.91138E-05   -0.91120E-05  8528   0.105E-03-0.351E-06
 150 F= -.38946503E+03 E0= -.38944752E+03  d E =-.184894E-02  mag=    12.0000
