       N       E                     dE             d eps       ncg     rms          rms(c)
DAV:   1     0.576859376939E+04    0.57686E+04   -0.25987E+05129520   0.177E+03
DAV:   2     0.187080038466E+03   -0.55815E+04   -0.51552E+04128870   0.493E+02
DAV:   3    -0.563324496019E+03   -0.75040E+03   -0.71947E+03130370   0.198E+02
DAV:   4    -0.589058781758E+03   -0.25734E+02   -0.25573E+02134840   0.388E+01
DAV:   5    -0.589423784721E+03   -0.36500E+00   -0.36470E+00141390   0.469E+00    0.127E+01
DAV:   6    -0.465431448199E+03    0.12399E+03   -0.40873E+01128850   0.149E+01    0.178E+01
DAV:   7    -0.465057016211E+03    0.37443E+00   -0.85243E-01131520   0.238E+00    0.747E+00
DAV:   8    -0.464828600653E+03    0.22842E+00   -0.29537E-01131940   0.125E+00    0.420E+00
DAV:   9    -0.464772123447E+03    0.56477E-01   -0.36697E-02130310   0.494E-01    0.312E+00
DAV:  10    -0.464742528831E+03    0.29595E-01   -0.16059E-02130950   0.310E-01    0.254E+00
DAV:  11    -0.464718841656E+03    0.23687E-01   -0.17257E-02131030   0.333E-01    0.179E+00
DAV:  12    -0.464705669604E+03    0.13172E-01   -0.10617E-02130670   0.251E-01    0.129E+00
DAV:  13    -0.464705625989E+03    0.43615E-04   -0.20411E-04136320   0.409E-02    0.128E+00
DAV:  14    -0.464705966838E+03   -0.34085E-03   -0.88207E-06 83480   0.820E-03    0.129E+00
DAV:  15    -0.464704312227E+03    0.16546E-02   -0.21137E-04130310   0.399E-02    0.119E+00
DAV:  16    -0.464694031000E+03    0.10281E-01   -0.20815E-02131970   0.361E-01    0.316E-01
DAV:  17    -0.464692825007E+03    0.12060E-02   -0.24864E-03129410   0.123E-01    0.908E-02
DAV:  18    -0.464692627152E+03    0.19785E-03   -0.14868E-04135700   0.296E-02    0.441E-02
DAV:  19    -0.464692567880E+03    0.59272E-04   -0.36674E-05109280   0.151E-02    0.131E-02
DAV:  20    -0.464692566578E+03    0.13015E-05   -0.36331E-06 73390   0.538E-03
   1 F= -.46469257E+03 E0= -.46469257E+03  d E =-.464693E+03  mag=    54.0000
