       N       E                     dE             d eps       ncg     rms          rms(c)
DAV:   1     0.183663364276E+04    0.18366E+04   -0.84178E+04 90072   0.166E+03
DAV:   2    -0.476258448049E+01   -0.18414E+04   -0.17295E+04 92120   0.495E+02
DAV:   3    -0.222642820544E+03   -0.21788E+03   -0.21584E+03101968   0.175E+02
DAV:   4    -0.231502041228E+03   -0.88592E+01   -0.88297E+01125632   0.315E+01
DAV:   5    -0.231947451990E+03   -0.44541E+00   -0.44476E+00148912   0.535E+00    0.688E+00
DAV:   6    -0.190232203555E+03    0.41715E+02   -0.20369E+01 99144   0.180E+01    0.843E+00
DAV:   7    -0.190150472695E+03    0.81731E-01   -0.90782E-01126112   0.352E+00    0.357E+00
DAV:   8    -0.190062292156E+03    0.88181E-01   -0.11870E-01106480   0.132E+00    0.246E+00
DAV:   9    -0.190023881231E+03    0.38411E-01   -0.39788E-02104016   0.784E-01    0.160E+00
DAV:  10    -0.190014147355E+03    0.97339E-02   -0.53916E-03109792   0.283E-01    0.134E+00
DAV:  11    -0.190006037733E+03    0.81096E-02   -0.40258E-03103200   0.254E-01    0.106E+00
DAV:  12    -0.190000081781E+03    0.59560E-02   -0.35093E-03105216   0.230E-01    0.811E-01
DAV:  13    -0.189996190921E+03    0.38909E-02   -0.23200E-03103432   0.186E-01    0.610E-01
DAV:  14    -0.189993618684E+03    0.25722E-02   -0.15411E-03106480   0.154E-01    0.444E-01
DAV:  15    -0.189990898203E+03    0.27205E-02   -0.31662E-03102152   0.221E-01    0.205E-01
DAV:  16    -0.189989781392E+03    0.11168E-02   -0.14371E-03107600   0.147E-01    0.517E-02
DAV:  17    -0.189989613750E+03    0.16764E-03   -0.10375E-04116352   0.351E-02    0.226E-02
DAV:  18    -0.189989614187E+03   -0.43719E-06   -0.26528E-06 58224   0.756E-03
   1 F= -.18998961E+03 E0= -.18998961E+03  d E =-.189990E+03  mag=    16.0000
