       N       E                     dE             d eps       ncg     rms          ort
DAV:   1     0.540638267362E+04    0.54064E+04   -0.27076E+05  7904   0.160E+03
DAV:   2     0.167567602742E+03   -0.52388E+04   -0.48814E+04  7904   0.450E+02
DAV:   3    -0.384075503385E+03   -0.55164E+03   -0.54276E+03  7904   0.161E+02
DAV:   4    -0.396147642758E+03   -0.12072E+02   -0.12008E+02  7904   0.253E+01
DAV:   5    -0.396505104772E+03   -0.35746E+00   -0.35702E+00  7904   0.351E+00
SDA:   6    -0.163550654936E+03    0.23295E+03   -0.35702E+00  7904   0.101E+04 0.000E+00
CGA:   7    -0.253030941715E+03   -0.89480E+02   -0.11149E+03  7904   0.228E+04-0.820E+02
CGA:   8    -0.281004678952E+03   -0.27974E+02   -0.62455E+02  7904   0.393E+03-0.391E+03
CGA:   9    -0.289358759979E+03   -0.83541E+01   -0.81514E+01  7904   0.520E+03 0.606E+02
CGA:  10    -0.252200079621E+03    0.37159E+02   -0.23277E+02  7904   0.100E+04-0.100E+03
CGA:  11    -0.304846206645E+03   -0.52646E+02   -0.10820E+02  7904   0.384E+03 0.120E+04
CGA:  12    -0.277666788593E+03    0.27179E+02   -0.23774E+02  7904   0.137E+04-0.263E+03
CGA:  13    -0.288365661707E+03   -0.10699E+02   -0.33205E+02  7904   0.109E+04-0.425E+03
CGA:  14    -0.317167229909E+03   -0.28802E+02   -0.16433E+02  7904   0.370E+03 0.114E+03
CGA:  15    -0.294139961285E+03    0.23027E+02   -0.24743E+02  7904   0.119E+04 0.146E+02
CGA:  16    -0.292154491991E+03    0.19855E+01   -0.36875E+02  7904   0.221E+04-0.653E+03
CGA:  17    -0.307277903308E+03   -0.15123E+02   -0.86687E+02  7904   0.533E+03-0.523E+03
CGA:  18    -0.325654502935E+03   -0.18377E+02   -0.86916E+01  7904   0.532E+03-0.907E+02
CGA:  19    -0.299584285670E+03    0.26070E+02   -0.18592E+02  7904   0.146E+04-0.198E+03
CGA:  20    -0.325097949200E+03   -0.25514E+02   -0.39065E+02  7904   0.901E+02-0.152E+03
CGA:  21    -0.327601829938E+03   -0.25039E+01   -0.12167E+01  7904   0.787E+02 0.992E+02
CGA:  22    -0.330060157591E+03   -0.24583E+01   -0.11732E+01  7904   0.258E+02 0.532E+02
CGA:  23    -0.330762484127E+03   -0.70233E+00   -0.43930E+00  7904   0.124E+02 0.134E+02
CGA:  24    -0.331630980414E+03   -0.86850E+00   -0.50818E+00  7904   0.914E+01 0.656E+01
CGA:  25    -0.331924855624E+03   -0.29388E+00   -0.28963E+00  7904   0.122E+02 0.706E-01
CGA:  26    -0.332614157901E+03   -0.68930E+00   -0.39690E+00  7904   0.627E+01 0.876E+01
CGA:  27    -0.332775376205E+03   -0.16122E+00   -0.13144E+00  7904   0.488E+01 0.123E+01
CGA:  28    -0.333369435763E+03   -0.59406E+00   -0.61455E+00  7904   0.181E+02-0.883E+00
CGA:  29    -0.333532671205E+03   -0.16324E+00   -0.94693E-01  7904   0.167E+02 0.112E+02
CGA:  30    -0.333747433807E+03   -0.21476E+00   -0.11928E+00  7904   0.105E+02 0.132E+02
CGA:  31    -0.333889144824E+03   -0.14171E+00   -0.73818E-01  7904   0.747E+01 0.950E+01
CGA:  32    -0.334017905609E+03   -0.12876E+00   -0.71901E-01  7904   0.401E+01 0.568E+01
CGA:  33    -0.334130840297E+03   -0.11293E+00   -0.76586E-01  7904   0.154E+01 0.166E+01
CGA:  34    -0.334229547906E+03   -0.98708E-01   -0.94716E-01  7904   0.379E+01 0.335E-01
CGA:  35    -0.334343870358E+03   -0.11432E+00   -0.77065E-01  7904   0.646E+01 0.178E+01
CGA:  36    -0.334464022809E+03   -0.12015E+00   -0.65042E-01  7904   0.591E+01 0.808E+01
CGA:  37    -0.334611951024E+03   -0.14793E+00   -0.13720E+00  7904   0.109E+01 0.432E+00
CGA:  38    -0.334642252033E+03   -0.30301E-01   -0.30696E-01  7904   0.252E+01-0.100E-01
CGA:  39    -0.334772559575E+03   -0.13031E+00   -0.24025E+00  7904   0.123E+02-0.516E+01
CGA:  40    -0.334937338153E+03   -0.16478E+00   -0.21553E+00  7904   0.557E+01-0.203E+01
CGA:  41    -0.334987976315E+03   -0.50638E-01   -0.37379E-01  7904   0.137E+01 0.153E+01
CGA:  42    -0.335004502035E+03   -0.16526E-01   -0.12729E-01  7904   0.649E+00 0.482E+00
CGA:  43    -0.335018681265E+03   -0.14179E-01   -0.13647E-01  7904   0.125E+01 0.288E-01
CGA:  44    -0.335039578323E+03   -0.20897E-01   -0.17529E-01  7904   0.229E+01 0.269E+00
CGA:  45    -0.335050652774E+03   -0.11074E-01   -0.60750E-02  7904   0.198E+01 0.229E+01
CGA:  46    -0.335073912428E+03   -0.23260E-01   -0.23340E-01  7904   0.489E+00-0.110E-01
CGA:  47    -0.335091776235E+03   -0.17864E-01   -0.18024E-01  7904   0.804E+00 0.417E-02
CGA:  48    -0.335111932453E+03   -0.20156E-01   -0.19137E-01  7904   0.130E+01 0.222E-01
CGA:  49    -0.335171232317E+03   -0.59300E-01   -0.54699E-01  7904   0.216E+01-0.332E+00
CGA:  50    -0.335180731737E+03   -0.94994E-02   -0.63220E-02  7904   0.179E+01 0.793E+00
CGA:  51    -0.335201651588E+03   -0.20920E-01   -0.23849E-01  7904   0.186E+01-0.226E+00
CGA:  52    -0.335221156954E+03   -0.19505E-01   -0.19143E-01  7904   0.172E+01 0.866E-01
CGA:  53    -0.335232043938E+03   -0.10887E-01   -0.82488E-02  7904   0.681E+00 0.540E+00
CGA:  54    -0.335238041713E+03   -0.59978E-02   -0.51328E-02  7904   0.479E+00 0.137E+00
CGA:  55    -0.335243721838E+03   -0.56801E-02   -0.56971E-02  7904   0.811E+00-0.574E-03
CGA:  56    -0.335250670714E+03   -0.69489E-02   -0.79425E-02  7904   0.122E+01-0.702E-01
CGA:  57    -0.335260095187E+03   -0.94245E-02   -0.11128E-01  7904   0.157E+01-0.120E+00
CGA:  58    -0.335269482547E+03   -0.93874E-02   -0.62131E-02  7904   0.125E+01 0.716E+00
CGA:  59    -0.335280722077E+03   -0.11240E-01   -0.77429E-02  7904   0.711E+00 0.800E+00
CGA:  60    -0.335294012625E+03   -0.13291E-01   -0.13422E-01  7904   0.343E+00-0.237E-02
CGA:  61    -0.335300559436E+03   -0.65468E-02   -0.67379E-02  7904   0.179E+00-0.121E-02
CGA:  62    -0.335306998507E+03   -0.64391E-02   -0.64019E-02  7904   0.333E+00 0.263E-02
CGA:  63    -0.335312938935E+03   -0.59404E-02   -0.60988E-02  7904   0.165E+00-0.191E-02
CGA:  64    -0.335320731579E+03   -0.77926E-02   -0.76262E-02  7904   0.283E+00 0.773E-02
CGA:  65    -0.335327553775E+03   -0.68222E-02   -0.69200E-02  7904   0.173E+00 0.356E-02
CGA:  66    -0.335332276366E+03   -0.47226E-02   -0.47178E-02  7904   0.248E+00-0.103E-02
CGA:  67    -0.335339044260E+03   -0.67679E-02   -0.68084E-02  7904   0.134E+00 0.107E-01
CGA:  68    -0.335341313475E+03   -0.22692E-02   -0.22034E-02  7904   0.448E-01 0.160E-02
CGA:  69    -0.335343028400E+03   -0.17149E-02   -0.17108E-02  7904   0.914E-01 0.283E-03
CGA:  70    -0.335346074206E+03   -0.30458E-02   -0.30507E-02  7904   0.155E+00-0.799E-03
CGA:  71    -0.335351197215E+03   -0.51230E-02   -0.50917E-02  7904   0.117E+00 0.471E-02
CGA:  72    -0.335353569659E+03   -0.23724E-02   -0.23813E-02  7904   0.535E-01-0.622E-04
CGA:  73    -0.335355530042E+03   -0.19604E-02   -0.19467E-02  7904   0.896E-01 0.120E-02
CGA:  74    -0.335357699413E+03   -0.21694E-02   -0.21674E-02  7904   0.627E-01-0.155E-03
CGA:  75    -0.335358830195E+03   -0.11308E-02   -0.11367E-02  7904   0.190E-01-0.771E-04
CGA:  76    -0.335359305410E+03   -0.47522E-03   -0.47474E-03  7904   0.180E-01-0.847E-04
CGA:  77    -0.335360279161E+03   -0.97375E-03   -0.96975E-03  7904   0.492E-01 0.127E-03
CGA:  78    -0.335361422237E+03   -0.11431E-02   -0.11448E-02  7904   0.284E-01 0.625E-04
CGA:  79    -0.335362012154E+03   -0.58992E-03   -0.59318E-03  7904   0.187E-01 0.441E-04
CGA:  80    -0.335362987377E+03   -0.97522E-03   -0.97157E-03  7904   0.415E-01 0.139E-03
CGA:  81    -0.335364253475E+03   -0.12661E-02   -0.12660E-02  7904   0.300E-01 0.191E-03
CGA:  82    -0.335364729878E+03   -0.47640E-03   -0.47509E-03  7904   0.120E-01 0.441E-04
CGA:  83    -0.335365045464E+03   -0.31559E-03   -0.31582E-03  7904   0.122E-01 0.289E-04
CGA:  84    -0.335365587806E+03   -0.54234E-03   -0.54105E-03  7904   0.182E-01 0.618E-04
CGA:  85    -0.335366170584E+03   -0.58278E-03   -0.58283E-03  7904   0.198E-01-0.227E-04
CGA:  86    -0.335366717042E+03   -0.54646E-03   -0.54421E-03  7904   0.231E-01-0.380E-03
CGA:  87    -0.335367304859E+03   -0.58782E-03   -0.58696E-03  7904   0.162E-01-0.837E-04
CGA:  88    -0.335367692061E+03   -0.38720E-03   -0.38774E-03  7904   0.875E-02 0.249E-04
CGA:  89    -0.335367978969E+03   -0.28691E-03   -0.28648E-03  7904   0.862E-02 0.801E-04
SDA:  90    -0.335368377389E+03   -0.39842E-03   -0.39565E-03  7904   0.138E-01 0.149E-03
CGA:  91    -0.335368529078E+03   -0.15169E-03   -0.15147E-03  7904   0.290E-02 0.824E-05
CGA:  92    -0.335368674953E+03   -0.14587E-03   -0.14674E-03  7904   0.519E-02-0.378E-04
CGA:  93    -0.335368828742E+03   -0.15379E-03   -0.15381E-03  7904   0.116E-01 0.346E-04
CGA:  94    -0.335369690276E+03   -0.86153E-03   -0.86273E-03  7904   0.114E-01-0.573E-04
CGA:  95    -0.335370377794E+03   -0.68752E-03   -0.67166E-03  7904   0.184E-01 0.542E-03
CGA:  96    -0.335370634526E+03   -0.25673E-03   -0.24354E-03  7904   0.488E-02 0.722E-03
CGA:  97    -0.335370816768E+03   -0.18224E-03   -0.18233E-03  7904   0.444E-02-0.259E-04
CGA:  98    -0.335370948571E+03   -0.13180E-03   -0.13168E-03  7904   0.777E-02-0.300E-04
CGA:  99    -0.335371364219E+03   -0.41565E-03   -0.41884E-03  7904   0.164E-02-0.159E-03
CGA: 100    -0.335371418767E+03   -0.54548E-04   -0.54548E-04  7904   0.413E-02 0.124E-04
CGA: 101    -0.335371572876E+03   -0.15411E-03   -0.15397E-03  7904   0.301E-02 0.352E-04
CGA: 102    -0.335371754854E+03   -0.18198E-03   -0.18355E-03  7904   0.908E-02-0.605E-04
CGA: 103    -0.335371936439E+03   -0.18159E-03   -0.17297E-03  7904   0.422E-02 0.244E-03
CGA: 104    -0.335372079551E+03   -0.14311E-03   -0.14330E-03  7904   0.449E-02 0.760E-04
CGA: 105    -0.335372149568E+03   -0.70017E-04   -0.68842E-04  7904   0.238E-02 0.803E-04
CGA: 106    -0.335372334316E+03   -0.18475E-03   -0.19593E-03  7904   0.104E-01-0.284E-03
CGA: 107    -0.335372445736E+03   -0.11142E-03   -0.11522E-03  7904   0.340E-02-0.105E-03
CGA: 108    -0.335372483707E+03   -0.37971E-04   -0.39104E-04  7904   0.222E-02-0.560E-04
CGA: 109    -0.335372526220E+03   -0.42513E-04   -0.42312E-04  7904   0.170E-02 0.863E-05
CGA: 110    -0.335372552266E+03   -0.26046E-04   -0.25527E-04  7904   0.203E-02 0.201E-04
CGA: 111    -0.335372632092E+03   -0.79826E-04   -0.80591E-04  7904   0.633E-02-0.743E-04
CGA: 112    -0.335372706846E+03   -0.74753E-04   -0.80271E-04  7904   0.285E-02-0.248E-03
CGA: 113    -0.335372742103E+03   -0.35257E-04   -0.36802E-04  7904   0.284E-02-0.704E-04
CGA: 114    -0.335372815105E+03   -0.73002E-04   -0.72580E-04  7904   0.307E-02-0.325E-04
CGA: 115    -0.335372845571E+03   -0.30466E-04   -0.28627E-04  7904   0.136E-02 0.153E-03
CGA: 116    -0.335372872176E+03   -0.26605E-04   -0.26376E-04  7904   0.278E-02 0.551E-05
CGA: 117    -0.335372934450E+03   -0.62275E-04   -0.61662E-04  7904   0.506E-02-0.767E-05
CGA: 118    -0.335372983581E+03   -0.49131E-04   -0.49652E-04  7904   0.287E-02-0.190E-05
CGA: 119    -0.335373017716E+03   -0.34135E-04   -0.35505E-04  7904   0.325E-02-0.473E-04
CGA: 120    -0.335373069000E+03   -0.51284E-04   -0.51807E-04  7904   0.306E-02 0.189E-04
SDA: 121    -0.335373097516E+03   -0.28516E-04   -0.28175E-04  7904   0.154E-02 0.553E-04
CGA: 122    -0.335373230348E+03   -0.13283E-03   -0.13211E-03  7904   0.440E-02 0.136E-04
CGA: 123    -0.335373357051E+03   -0.12670E-03   -0.12671E-03  7904   0.641E-02-0.234E-04
CGA: 124    -0.335373519883E+03   -0.16283E-03   -0.16278E-03  7904   0.216E-02-0.116E-04
CGA: 125    -0.335373743243E+03   -0.22336E-03   -0.21934E-03  7904   0.108E-01 0.680E-04
CGA: 126    -0.335374005697E+03   -0.26245E-03   -0.26005E-03  7904   0.371E-02-0.631E-04
CGA: 127    -0.335374109625E+03   -0.10393E-03   -0.10388E-03  7904   0.188E-02-0.114E-04
CGA: 128    -0.335374135611E+03   -0.25986E-04   -0.25753E-04  7904   0.820E-03 0.458E-05
CGA: 129    -0.335374232647E+03   -0.97037E-04   -0.94013E-04  7904   0.246E-02 0.418E-04
CGA: 130    -0.335374273246E+03   -0.40599E-04   -0.40811E-04  7904   0.396E-03-0.309E-06
CGA: 131    -0.335374311183E+03   -0.37937E-04   -0.37400E-04  7904   0.244E-02 0.779E-05
CGA: 132    -0.335374393954E+03   -0.82771E-04   -0.82568E-04  7904   0.168E-02-0.619E-05
CGA: 133    -0.335374432692E+03   -0.38738E-04   -0.36121E-04  7904   0.176E-02 0.538E-04
CGA: 134    -0.335374495471E+03   -0.62779E-04   -0.62180E-04  7904   0.132E-02-0.170E-03
CGA: 135    -0.335374514458E+03   -0.18987E-04   -0.18389E-04  7904   0.985E-03 0.351E-04
CGA: 136    -0.335374533244E+03   -0.18786E-04   -0.17999E-04  7904   0.602E-03 0.249E-04
CGA: 137    -0.335374546303E+03   -0.13060E-04   -0.12779E-04  7904   0.818E-03 0.335E-05
CGA: 138    -0.335374560529E+03   -0.14226E-04   -0.14155E-04  7904   0.508E-03 0.520E-05
CGA: 139    -0.335374568073E+03   -0.75432E-05   -0.76473E-05  7904   0.434E-03-0.252E-05
   1 F= -.33537457E+03 E0= -.33534791E+03  d E =-.335375E+03  mag=    32.0000
       N       E                     dE             d eps       ncg     rms          ort
SDA:   1    -0.335358806346E+03    0.15754E-01    0.00000E+00  7904   0.160E+01 0.000E+00
CGA:   2    -0.335372978841E+03   -0.14172E-01   -0.15337E-01  7904   0.141E+00-0.932E-01
CGA:   3    -0.335374852757E+03   -0.18739E-02   -0.19169E-02  7904   0.166E-01-0.152E-02
CGA:   4    -0.335375055796E+03   -0.20304E-03   -0.20356E-03  7904   0.314E-02-0.133E-04
CGA:   5    -0.335375176691E+03   -0.12089E-03   -0.12027E-03  7904   0.214E-02 0.478E-04
CGA:   6    -0.335375235721E+03   -0.59030E-04   -0.59039E-04  7904   0.314E-02 0.276E-05
CGA:   7    -0.335375333724E+03   -0.98003E-04   -0.98052E-04  7904   0.147E-02-0.143E-04
CGA:   8    -0.335375360488E+03   -0.26763E-04   -0.26810E-04  7904   0.851E-03 0.126E-05
CGA:   9    -0.335375395381E+03   -0.34893E-04   -0.34884E-04  7904   0.100E-02 0.642E-06
CGA:  10    -0.335375438343E+03   -0.42962E-04   -0.42919E-04  7904   0.120E-02 0.295E-05
CGA:  11    -0.335375453990E+03   -0.15647E-04   -0.15609E-04  7904   0.158E-03-0.399E-06
CGA:  12    -0.335375458758E+03   -0.47681E-05   -0.47666E-05  7904   0.217E-03 0.990E-06
   2 F= -.33537546E+03 E0= -.33534835E+03  d E =-.890685E-03  mag=    32.0000
       N       E                     dE             d eps       ncg     rms          ort
SDA:   1    -0.335346335170E+03    0.29119E-01    0.00000E+00  7904   0.284E+01 0.000E+00
CGA:   2    -0.335371772333E+03   -0.25437E-01   -0.24550E-01  7904   0.182E+00 0.791E-01
CGA:   3    -0.335375187089E+03   -0.34148E-02   -0.33733E-02  7904   0.322E-01 0.389E-03
CGA:   4    -0.335375535577E+03   -0.34849E-03   -0.34466E-03  7904   0.166E-02 0.237E-03
CGA:   5    -0.335375587237E+03   -0.51659E-04   -0.51666E-04  7904   0.146E-02-0.134E-05
CGA:   6    -0.335375615502E+03   -0.28265E-04   -0.28306E-04  7904   0.138E-02 0.279E-05
CGA:   7    -0.335375692131E+03   -0.76630E-04   -0.76479E-04  7904   0.192E-02 0.538E-05
CGA:   8    -0.335375726046E+03   -0.33914E-04   -0.33878E-04  7904   0.962E-03-0.188E-05
CGA:   9    -0.335375751138E+03   -0.25092E-04   -0.25080E-04  7904   0.253E-03-0.525E-05
CGA:  10    -0.335375761891E+03   -0.10753E-04   -0.10761E-04  7904   0.791E-03-0.469E-06
CGA:  11    -0.335375785573E+03   -0.23682E-04   -0.23679E-04  7904   0.273E-03 0.170E-05
CGA:  12    -0.335375790776E+03   -0.52024E-05   -0.51893E-05  7904   0.180E-03-0.113E-05
   3 F= -.33537579E+03 E0= -.33534878E+03  d E =-.332018E-03  mag=    32.0000
       N       E                     dE             d eps       ncg     rms          ort
SDA:   1    -0.333890995492E+03    0.14848E+01    0.00000E+00  7904   0.662E+01 0.000E+00
CGA:   2    -0.334022483956E+03   -0.13149E+00   -0.13619E+00  7904   0.956E+01 0.934E-01
CGA:   3    -0.334941337172E+03   -0.91885E+00   -0.92326E+00  7904   0.665E+01-0.106E+00
CGA:   4    -0.335035425466E+03   -0.94088E-01   -0.97647E-01  7904   0.321E+01-0.123E+00
CGA:   5    -0.335127032975E+03   -0.91608E-01   -0.91093E-01  7904   0.264E+01-0.216E+00
CGA:   6    -0.335197568754E+03   -0.70536E-01   -0.70505E-01  7904   0.298E+01-0.954E-02
CGA:   7    -0.335310049542E+03   -0.11248E+00   -0.11276E+00  7904   0.170E+01-0.295E-01
CGA:   8    -0.335355890473E+03   -0.45841E-01   -0.46638E-01  7904   0.353E+00 0.122E+00
CGA:   9    -0.335364182067E+03   -0.82916E-02   -0.81750E-02  7904   0.231E+00-0.125E-02
CGA:  10    -0.335373788135E+03   -0.96061E-02   -0.95063E-02  7904   0.343E+00 0.668E-02
CGA:  11    -0.335385195438E+03   -0.11407E-01   -0.11424E-01  7904   0.278E+00-0.456E-02
CGA:  12    -0.335388941740E+03   -0.37463E-02   -0.37719E-02  7904   0.773E-01-0.112E-02
CGA:  13    -0.335391641066E+03   -0.26993E-02   -0.26926E-02  7904   0.480E-01 0.802E-03
CGA:  14    -0.335393530759E+03   -0.18897E-02   -0.18888E-02  7904   0.643E-01 0.793E-04
CGA:  15    -0.335395248189E+03   -0.17174E-02   -0.17199E-02  7904   0.304E-01 0.264E-03
CGA:  16    -0.335396367428E+03   -0.11192E-02   -0.11243E-02  7904   0.167E-01-0.519E-03
CGA:  17    -0.335396806584E+03   -0.43916E-03   -0.43942E-03  7904   0.217E-01 0.244E-04
CGA:  18    -0.335397460102E+03   -0.65352E-03   -0.65348E-03  7904   0.209E-01-0.764E-04
CGA:  19    -0.335397978671E+03   -0.51857E-03   -0.51884E-03  7904   0.121E-01 0.183E-04
CGA:  20    -0.335398212933E+03   -0.23426E-03   -0.23562E-03  7904   0.319E-02 0.360E-05
CGA:  21    -0.335398489911E+03   -0.27698E-03   -0.27858E-03  7904   0.929E-02-0.337E-04
CGA:  22    -0.335398766737E+03   -0.27683E-03   -0.27688E-03  7904   0.732E-02 0.158E-04
CGA:  23    -0.335398988663E+03   -0.22193E-03   -0.22191E-03  7904   0.302E-02 0.377E-05
CGA:  24    -0.335399091731E+03   -0.10307E-03   -0.10297E-03  7904   0.178E-02 0.348E-04
CGA:  25    -0.335399149316E+03   -0.57585E-04   -0.57587E-04  7904   0.322E-02 0.554E-05
CGA:  26    -0.335399296736E+03   -0.14742E-03   -0.14750E-03  7904   0.423E-02-0.456E-05
CGA:  27    -0.335399362640E+03   -0.65904E-04   -0.66198E-04  7904   0.137E-02-0.275E-05
CGA:  28    -0.335399408375E+03   -0.45735E-04   -0.45733E-04  7904   0.103E-02 0.225E-05
CGA:  29    -0.335399470398E+03   -0.62023E-04   -0.61667E-04  7904   0.151E-02 0.128E-04
CGA:  30    -0.335399506248E+03   -0.35849E-04   -0.35849E-04  7904   0.807E-03 0.680E-06
CGA:  31    -0.335399532320E+03   -0.26072E-04   -0.26070E-04  7904   0.346E-03-0.295E-05
SDA:  32    -0.335399545230E+03   -0.12910E-04   -0.12912E-04  7904   0.597E-03-0.546E-06
CGA:  33    -0.335399551908E+03   -0.66772E-05   -0.66657E-05  7904   0.202E-03-0.456E-06
   4 F= -.33539955E+03 E0= -.33537282E+03  d E =-.237611E-01  mag=    32.0000
       N       E                     dE             d eps       ncg     rms          ort
SDA:   1    -0.335352941294E+03    0.46604E-01    0.00000E+00  7904   0.262E+01 0.000E+00
CGA:   2    -0.335380065343E+03   -0.27124E-01   -0.30055E-01  7904   0.255E+00-0.179E+00
CGA:   3    -0.335384368707E+03   -0.43034E-02   -0.43176E-02  7904   0.878E-01-0.212E-03
CGA:   4    -0.335386462355E+03   -0.20936E-02   -0.20980E-02  7904   0.118E+00 0.146E-03
CGA:   5    -0.335392577319E+03   -0.61150E-02   -0.60797E-02  7904   0.108E+00 0.151E-02
CGA:   6    -0.335395093213E+03   -0.25159E-02   -0.25087E-02  7904   0.644E-01-0.986E-04
CGA:   7    -0.335396951363E+03   -0.18581E-02   -0.18551E-02  7904   0.265E-01-0.546E-03
CGA:   8    -0.335397621918E+03   -0.67055E-03   -0.67112E-03  7904   0.415E-01 0.339E-04
CGA:   9    -0.335399573729E+03   -0.19518E-02   -0.19530E-02  7904   0.354E-01-0.625E-04
CGA:  10    -0.335400143499E+03   -0.56977E-03   -0.57326E-03  7904   0.764E-02-0.973E-04
CGA:  11    -0.335400346448E+03   -0.20295E-03   -0.20248E-03  7904   0.444E-02-0.434E-04
CGA:  12    -0.335400509302E+03   -0.16285E-03   -0.16279E-03  7904   0.985E-02 0.600E-05
CGA:  13    -0.335400841204E+03   -0.33190E-03   -0.33199E-03  7904   0.522E-02-0.213E-04
CGA:  14    -0.335400922287E+03   -0.81083E-04   -0.81142E-04  7904   0.128E-02 0.449E-06
CGA:  15    -0.335400965954E+03   -0.43667E-04   -0.43648E-04  7904   0.109E-02 0.368E-05
CGA:  16    -0.335401001519E+03   -0.35565E-04   -0.35555E-04  7904   0.170E-02 0.445E-05
CGA:  17    -0.335401048209E+03   -0.46690E-04   -0.46686E-04  7904   0.976E-03-0.575E-07
CGA:  18    -0.335401069262E+03   -0.21054E-04   -0.21079E-04  7904   0.576E-03 0.204E-05
CGA:  19    -0.335401087280E+03   -0.18018E-04   -0.18021E-04  7904   0.329E-03-0.189E-05
CGA:  20    -0.335401100706E+03   -0.13426E-04   -0.13413E-04  7904   0.768E-03 0.115E-05
CGA:  21    -0.335401123066E+03   -0.22360E-04   -0.22357E-04  7904   0.303E-03-0.159E-05
CGA:  22    -0.335401127280E+03   -0.42138E-05   -0.42218E-05  7904   0.802E-04 0.371E-06
   5 F= -.33540113E+03 E0= -.33537449E+03  d E =-.157537E-02  mag=    32.0000
       N       E                     dE             d eps       ncg     rms          ort
SDA:   1    -0.335340947243E+03    0.60176E-01    0.00000E+00  7904   0.618E+01 0.000E+00
CGA:   2    -0.335393999816E+03   -0.53053E-01   -0.49870E-01  7904   0.121E+00 0.300E+00
CGA:   3    -0.335395601283E+03   -0.16015E-02   -0.16463E-02  7904   0.310E-01-0.218E-02
CGA:   4    -0.335396324632E+03   -0.72335E-03   -0.72429E-03  7904   0.184E-01 0.363E-04
CGA:   5    -0.335397108583E+03   -0.78395E-03   -0.78569E-03  7904   0.596E-01-0.114E-03
CGA:   6    -0.335398791002E+03   -0.16824E-02   -0.16819E-02  7904   0.174E-01-0.762E-04
CGA:   7    -0.335399344447E+03   -0.55344E-03   -0.55316E-03  7904   0.119E-01 0.150E-03
CGA:   8    -0.335399482033E+03   -0.13759E-03   -0.13745E-03  7904   0.339E-02 0.505E-05
CGA:   9    -0.335399783194E+03   -0.30116E-03   -0.30053E-03  7904   0.523E-02 0.127E-04
CGA:  10    -0.335399947850E+03   -0.16466E-03   -0.16464E-03  7904   0.492E-02-0.619E-05
CGA:  11    -0.335400009858E+03   -0.62008E-04   -0.61718E-04  7904   0.732E-03 0.641E-05
CGA:  12    -0.335400037512E+03   -0.27654E-04   -0.27651E-04  7904   0.159E-02 0.366E-06
CGA:  13    -0.335400091842E+03   -0.54329E-04   -0.54335E-04  7904   0.331E-03-0.229E-05
CGA:  14    -0.335400098947E+03   -0.71052E-05   -0.71036E-05  7904   0.296E-03-0.174E-06
   6 F= -.33540010E+03 E0= -.33537349E+03  d E =0.102833E-02  mag=    32.0000
       N       E                     dE             d eps       ncg     rms          ort
SDA:   1    -0.313726102297E+03    0.21674E+02    0.00000E+00  7904   0.810E+03 0.000E+00
CGA:   2    -0.323996459406E+03   -0.10270E+02   -0.10609E+02  7904   0.596E+02-0.116E+02
CGA:   3    -0.325144103986E+03   -0.11476E+01   -0.10800E+01  7904   0.559E+02 0.180E+01
CGA:   4    -0.327364392396E+03   -0.22203E+01   -0.21055E+01  7904   0.130E+03 0.109E+02
CGA:   5    -0.331254105012E+03   -0.38897E+01   -0.38801E+01  7904   0.565E+02-0.226E+01
CGA:   6    -0.332611015086E+03   -0.13569E+01   -0.13190E+01  7904   0.257E+02-0.154E+01
CGA:   7    -0.333309190448E+03   -0.69818E+00   -0.69030E+00  7904   0.165E+02-0.189E+01
CGA:   8    -0.334124428721E+03   -0.81524E+00   -0.84792E+00  7904   0.248E+02-0.184E+01
CGA:   9    -0.334602854722E+03   -0.47843E+00   -0.44303E+00  7904   0.128E+02 0.500E-01
CGA:  10    -0.334872757156E+03   -0.26990E+00   -0.29128E+00  7904   0.309E+01 0.633E+00
CGA:  11    -0.334952816623E+03   -0.80059E-01   -0.79829E-01  7904   0.330E+01-0.112E-01
CGA:  12    -0.335042951826E+03   -0.90135E-01   -0.89856E-01  7904   0.257E+01-0.556E-01
CGA:  13    -0.335170310591E+03   -0.12736E+00   -0.12277E+00  7904   0.124E+01 0.210E+00
CGA:  14    -0.335210884756E+03   -0.40574E-01   -0.40574E-01  7904   0.558E+00 0.711E-01
CGA:  15    -0.335222959176E+03   -0.12074E-01   -0.12025E-01  7904   0.474E+00-0.669E-04
CGA:  16    -0.335247993374E+03   -0.25034E-01   -0.26519E-01  7904   0.763E+00-0.571E-01
CGA:  17    -0.335259110403E+03   -0.11117E-01   -0.11320E-01  7904   0.400E+00-0.478E-02
CGA:  18    -0.335269789954E+03   -0.10680E-01   -0.10787E-01  7904   0.165E+00 0.127E-01
CGA:  19    -0.335273646994E+03   -0.38570E-02   -0.38276E-02  7904   0.234E+00-0.611E-03
CGA:  20    -0.335281352335E+03   -0.77053E-02   -0.77142E-02  7904   0.199E+00-0.161E-02
CGA:  21    -0.335286113784E+03   -0.47614E-02   -0.47982E-02  7904   0.156E+00 0.174E-02
CGA:  22    -0.335288447949E+03   -0.23342E-02   -0.23332E-02  7904   0.499E-01 0.419E-04
CGA:  23    -0.335290399834E+03   -0.19519E-02   -0.19576E-02  7904   0.102E+00-0.428E-03
CGA:  24    -0.335292997278E+03   -0.25974E-02   -0.26000E-02  7904   0.662E-01 0.257E-03
CGA:  25    -0.335294974071E+03   -0.19768E-02   -0.19768E-02  7904   0.963E-01-0.177E-04
CGA:  26    -0.335296722343E+03   -0.17483E-02   -0.17350E-02  7904   0.236E-01 0.209E-03
CGA:  27    -0.335297361631E+03   -0.63929E-03   -0.63977E-03  7904   0.282E-01 0.138E-03
CGA:  28    -0.335297901152E+03   -0.53952E-03   -0.54294E-03  7904   0.168E-01 0.222E-04
CGA:  29    -0.335298796245E+03   -0.89509E-03   -0.89566E-03  7904   0.317E-01-0.240E-04
CGA:  30    -0.335299406301E+03   -0.61006E-03   -0.60978E-03  7904   0.171E-01 0.122E-04
CGA:  31    -0.335299793695E+03   -0.38739E-03   -0.38727E-03  7904   0.904E-02 0.246E-06
SDA:  32    -0.335299965347E+03   -0.17165E-03   -0.17225E-03  7904   0.712E-02 0.111E-04
CGA:  33    -0.335300128999E+03   -0.16365E-03   -0.16350E-03  7904   0.508E-02-0.794E-05
CGA:  34    -0.335300309591E+03   -0.18059E-03   -0.18033E-03  7904   0.518E-02 0.272E-04
CGA:  35    -0.335300569900E+03   -0.26031E-03   -0.25958E-03  7904   0.217E-02 0.320E-04
CGA:  36    -0.335300704562E+03   -0.13466E-03   -0.13480E-03  7904   0.647E-02-0.475E-05
CGA:  37    -0.335300846783E+03   -0.14222E-03   -0.14212E-03  7904   0.397E-02-0.637E-05
CGA:  38    -0.335301000247E+03   -0.15346E-03   -0.15306E-03  7904   0.145E-02 0.377E-04
CGA:  39    -0.335301046427E+03   -0.46180E-04   -0.46176E-04  7904   0.154E-02 0.472E-05
CGA:  40    -0.335301083986E+03   -0.37559E-04   -0.37649E-04  7904   0.465E-03 0.616E-05
CGA:  41    -0.335301149362E+03   -0.65377E-04   -0.63741E-04  7904   0.350E-02 0.155E-04
CGA:  42    -0.335301213779E+03   -0.64417E-04   -0.64477E-04  7904   0.301E-03 0.985E-05
CGA:  43    -0.335301239434E+03   -0.25655E-04   -0.25598E-04  7904   0.118E-02 0.109E-05
CGA:  44    -0.335301276310E+03   -0.36875E-04   -0.36855E-04  7904   0.131E-02-0.283E-05
CGA:  45    -0.335301310270E+03   -0.33960E-04   -0.34019E-04  7904   0.307E-03 0.118E-05
CGA:  46    -0.335301320721E+03   -0.10451E-04   -0.10449E-04  7904   0.537E-03-0.967E-06
CGA:  47    -0.335301344161E+03   -0.23440E-04   -0.23469E-04  7904   0.385E-03-0.314E-05
CGA:  48    -0.335301359653E+03   -0.15492E-04   -0.15497E-04  7904   0.869E-03-0.143E-05
CGA:  49    -0.335301383935E+03   -0.24282E-04   -0.24320E-04  7904   0.176E-03 0.241E-05
CGA:  50    -0.335301391268E+03   -0.73332E-05   -0.73271E-05  7904   0.183E-03 0.103E-05
   7 F= -.33530139E+03 E0= -.33527647E+03  d E =0.987077E-01  mag=    32.0000
       N       E                     dE             d eps       ncg     rms          ort
SDA:   1    -0.316654719626E+03    0.18647E+02    0.00000E+00  7904   0.690E+03 0.000E+00
CGA:   2    -0.325516641794E+03   -0.88619E+01   -0.98143E+01  7904   0.190E+03-0.191E+03
CGA:   3    -0.327570781691E+03   -0.20541E+01   -0.16868E+01  7904   0.632E+02 0.328E+02
CGA:   4    -0.328377983641E+03   -0.80720E+00   -0.81290E+00  7904   0.464E+02-0.917E+01
CGA:   5    -0.329063204690E+03   -0.68522E+00   -0.64989E+00  7904   0.742E+02 0.140E+01
CGA:   6    -0.330812994820E+03   -0.17498E+01   -0.19131E+01  7904   0.827E+02 0.631E+01
CGA:   7    -0.332573043859E+03   -0.17600E+01   -0.17194E+01  7904   0.631E+02 0.254E+01
CGA:   8    -0.333253391982E+03   -0.68035E+00   -0.47382E+00  7904   0.285E+02 0.233E+02
CGA:   9    -0.333559632846E+03   -0.30624E+00   -0.34339E+00  7904   0.212E+02-0.478E+01
CGA:  10    -0.333735639241E+03   -0.17601E+00   -0.21700E+00  7904   0.242E+02-0.160E+01
CGA:  11    -0.334018516755E+03   -0.28288E+00   -0.32364E+00  7904   0.242E+02-0.138E+01
CGA:  12    -0.334467294143E+03   -0.44878E+00   -0.44023E+00  7904   0.249E+02 0.691E-01
CGA:  13    -0.334703134108E+03   -0.23584E+00   -0.18697E+00  7904   0.118E+02 0.534E+01
CGA:  14    -0.334841695445E+03   -0.13856E+00   -0.13856E+00  7904   0.932E+01 0.983E-02
CGA:  15    -0.334922049417E+03   -0.80354E-01   -0.82960E-01  7904   0.506E+01-0.131E+00
CGA:  16    -0.334963952820E+03   -0.41903E-01   -0.45422E-01  7904   0.354E+01-0.279E+00
CGA:  17    -0.335011691139E+03   -0.47738E-01   -0.47733E-01  7904   0.474E+01 0.131E-02
CGA:  18    -0.335070000727E+03   -0.58310E-01   -0.54819E-01  7904   0.483E+01 0.152E+00
CGA:  19    -0.335132683576E+03   -0.62683E-01   -0.64272E-01  7904   0.571E+01-0.397E-01
CGA:  20    -0.335186955192E+03   -0.54272E-01   -0.58856E-01  7904   0.269E+01-0.217E+00
CGA:  21    -0.335212469771E+03   -0.25515E-01   -0.26791E-01  7904   0.182E+01-0.674E-01
CGA:  22    -0.335238061479E+03   -0.25592E-01   -0.24898E-01  7904   0.136E+01 0.134E-02
CGA:  23    -0.335250812311E+03   -0.12751E-01   -0.12005E-01  7904   0.708E+00 0.545E-01
CGA:  24    -0.335259276191E+03   -0.84639E-02   -0.84942E-02  7904   0.631E+00-0.659E-03
CGA:  25    -0.335266277749E+03   -0.70016E-02   -0.70663E-02  7904   0.526E+00-0.174E-02
CGA:  26    -0.335274026773E+03   -0.77490E-02   -0.77784E-02  7904   0.783E+00 0.143E-02
CGA:  27    -0.335285626909E+03   -0.11600E-01   -0.11570E-01  7904   0.719E+00-0.136E-02
CGA:  28    -0.335292503052E+03   -0.68761E-02   -0.68063E-02  7904   0.472E+00 0.364E-02
CGA:  29    -0.335298412248E+03   -0.59092E-02   -0.59338E-02  7904   0.422E+00 0.231E-03
CGA:  30    -0.335302588535E+03   -0.41763E-02   -0.42377E-02  7904   0.262E+00-0.225E-02
CGA:  31    -0.335306032842E+03   -0.34443E-02   -0.34530E-02  7904   0.299E+00 0.342E-03
SDA:  32    -0.335310061407E+03   -0.40286E-02   -0.40044E-02  7904   0.269E+00-0.120E-02
CGA:  33    -0.335313063818E+03   -0.30024E-02   -0.30035E-02  7904   0.505E-01-0.941E-05
CGA:  34    -0.335314882013E+03   -0.18182E-02   -0.17834E-02  7904   0.815E-01 0.192E-02
CGA:  35    -0.335317519523E+03   -0.26375E-02   -0.26455E-02  7904   0.970E-01-0.555E-03
CGA:  36    -0.335321688526E+03   -0.41690E-02   -0.41748E-02  7904   0.326E-01-0.248E-03
CGA:  37    -0.335323205746E+03   -0.15172E-02   -0.15407E-02  7904   0.945E-01-0.923E-03
CGA:  38    -0.335325624848E+03   -0.24191E-02   -0.24193E-02  7904   0.619E-01-0.126E-04
CGA:  39    -0.335327720204E+03   -0.20954E-02   -0.20809E-02  7904   0.189E-01 0.102E-02
CGA:  40    -0.335328062217E+03   -0.34201E-03   -0.34170E-03  7904   0.114E-01-0.249E-04
CGA:  41    -0.335329184737E+03   -0.11225E-02   -0.11241E-02  7904   0.516E-01-0.222E-04
CGA:  42    -0.335329925264E+03   -0.74053E-03   -0.73924E-03  7904   0.600E-02 0.102E-04
CGA:  43    -0.335330190829E+03   -0.26556E-03   -0.26453E-03  7904   0.807E-02 0.510E-04
CGA:  44    -0.335330477831E+03   -0.28700E-03   -0.28640E-03  7904   0.148E-01 0.534E-04
CGA:  45    -0.335330996022E+03   -0.51819E-03   -0.51811E-03  7904   0.138E-01 0.692E-05
CGA:  46    -0.335331213852E+03   -0.21783E-03   -0.21736E-03  7904   0.364E-02 0.127E-04
CGA:  47    -0.335331330582E+03   -0.11673E-03   -0.11686E-03  7904   0.194E-02-0.157E-04
CGA:  48    -0.335331421973E+03   -0.91392E-04   -0.91541E-04  7904   0.677E-02-0.724E-05
CGA:  49    -0.335331629814E+03   -0.20784E-03   -0.20781E-03  7904   0.201E-02 0.113E-04
CGA:  50    -0.335331666241E+03   -0.36428E-04   -0.36453E-04  7904   0.131E-02 0.207E-05
CGA:  51    -0.335331802099E+03   -0.13586E-03   -0.13573E-03  7904   0.341E-02 0.190E-05
CGA:  52    -0.335331848391E+03   -0.46292E-04   -0.46445E-04  7904   0.104E-02-0.312E-05
CGA:  53    -0.335331873948E+03   -0.25557E-04   -0.25554E-04  7904   0.441E-03-0.192E-05
CGA:  54    -0.335331899580E+03   -0.25632E-04   -0.25848E-04  7904   0.159E-02-0.777E-05
CGA:  55    -0.335331964612E+03   -0.65031E-04   -0.65158E-04  7904   0.120E-02-0.126E-04
CGA:  56    -0.335331981357E+03   -0.16745E-04   -0.16690E-04  7904   0.447E-03-0.299E-05
CGA:  57    -0.335331994580E+03   -0.13223E-04   -0.13225E-04  7904   0.243E-03 0.811E-06
CGA:  58    -0.335332016071E+03   -0.21491E-04   -0.21430E-04  7904   0.127E-02 0.954E-06
CGA:  59    -0.335332040966E+03   -0.24895E-04   -0.24841E-04  7904   0.341E-03-0.226E-05
CGA:  60    -0.335332049310E+03   -0.83447E-05   -0.83307E-05  7904   0.319E-03-0.133E-05
CGA:  61    -0.335332060831E+03   -0.11521E-04   -0.11525E-04  7904   0.287E-03-0.122E-05
CGA:  62    -0.335332075131E+03   -0.14300E-04   -0.14318E-04  7904   0.605E-03-0.112E-05
SDA:  63    -0.335332083896E+03   -0.87649E-05   -0.87904E-05  7904   0.105E-03 0.459E-06
   8 F= -.33533208E+03 E0= -.33530620E+03  d E =-.306926E-01  mag=    32.0000
       N       E                     dE             d eps       ncg     rms          ort
SDA:   1    -0.334050575137E+03    0.12815E+01    0.00000E+00  7904   0.419E+02 0.000E+00
CGA:   2    -0.334464596915E+03   -0.41402E+00   -0.29139E+00  7904   0.648E+01 0.153E+02
CGA:   3    -0.334545449675E+03   -0.80853E-01   -0.70606E-01  7904   0.334E+01 0.109E+01
CGA:   4    -0.334651666502E+03   -0.10622E+00   -0.10598E+00  7904   0.109E+02-0.253E-01
CGA:   5    -0.334828300168E+03   -0.17663E+00   -0.18769E+00  7904   0.151E+02-0.131E+00
CGA:   6    -0.334970697769E+03   -0.14240E+00   -0.14588E+00  7904   0.567E+01-0.219E+00
CGA:   7    -0.335026198137E+03   -0.55500E-01   -0.56144E-01  7904   0.378E+01-0.383E-01
CGA:   8    -0.335093054917E+03   -0.66857E-01   -0.57271E-01  7904   0.503E+01 0.304E+00
CGA:   9    -0.335131135507E+03   -0.38081E-01   -0.24766E-01  7904   0.359E+01 0.276E+01
CGA:  10    -0.335174911934E+03   -0.43776E-01   -0.46140E-01  7904   0.161E+01-0.918E-01
CGA:  11    -0.335238470148E+03   -0.63558E-01   -0.65606E-01  7904   0.184E+01-0.114E+00
CGA:  12    -0.335292302172E+03   -0.53832E-01   -0.53764E-01  7904   0.159E+01 0.828E-02
CGA:  13    -0.335331168770E+03   -0.38867E-01   -0.38727E-01  7904   0.289E+00-0.281E-01
CGA:  14    -0.335342574105E+03   -0.11405E-01   -0.11065E-01  7904   0.264E+00 0.217E-01
CGA:  15    -0.335353572838E+03   -0.10999E-01   -0.11044E-01  7904   0.523E+00-0.304E-02
CGA:  16    -0.335379523550E+03   -0.25951E-01   -0.25727E-01  7904   0.547E+00 0.932E-02
CGA:  17    -0.335387327774E+03   -0.78042E-02   -0.76782E-02  7904   0.147E+00 0.486E-02
CGA:  18    -0.335392486666E+03   -0.51589E-02   -0.52189E-02  7904   0.113E+00-0.585E-02
CGA:  19    -0.335397833572E+03   -0.53469E-02   -0.53389E-02  7904   0.194E+00 0.339E-03
CGA:  20    -0.335402949918E+03   -0.51163E-02   -0.51187E-02  7904   0.525E-01 0.352E-03
CGA:  21    -0.335404127626E+03   -0.11777E-02   -0.11815E-02  7904   0.582E-01 0.128E-03
CGA:  22    -0.335406242831E+03   -0.21152E-02   -0.21114E-02  7904   0.620E-01 0.363E-03
CGA:  23    -0.335408155132E+03   -0.19123E-02   -0.19127E-02  7904   0.313E-01-0.143E-03
CGA:  24    -0.335408754304E+03   -0.59917E-03   -0.59772E-03  7904   0.732E-02-0.106E-04
CGA:  25    -0.335409263486E+03   -0.50918E-03   -0.51178E-03  7904   0.197E-01-0.683E-04
CGA:  26    -0.335409824253E+03   -0.56077E-03   -0.56066E-03  7904   0.191E-01-0.247E-04
CGA:  27    -0.335410338496E+03   -0.51424E-03   -0.51456E-03  7904   0.124E-01 0.324E-04
CGA:  28    -0.335410543107E+03   -0.20461E-03   -0.20415E-03  7904   0.271E-02 0.399E-05
CGA:  29    -0.335410698448E+03   -0.15534E-03   -0.15516E-03  7904   0.508E-02 0.637E-05
CGA:  30    -0.335410946737E+03   -0.24829E-03   -0.24868E-03  7904   0.792E-02-0.208E-04
CGA:  31    -0.335411136121E+03   -0.18938E-03   -0.18941E-03  7904   0.188E-02-0.311E-05
CGA:  32    -0.335411171038E+03   -0.34916E-04   -0.34817E-04  7904   0.155E-02-0.290E-05
CGA:  33    -0.335411236454E+03   -0.65416E-04   -0.65446E-04  7904   0.188E-02-0.182E-05
CGA:  34    -0.335411317084E+03   -0.80630E-04   -0.80541E-04  7904   0.176E-02 0.761E-05
CGA:  35    -0.335411351216E+03   -0.34132E-04   -0.34186E-04  7904   0.366E-03 0.408E-05
CGA:  36    -0.335411378015E+03   -0.26799E-04   -0.26740E-04  7904   0.107E-02 0.143E-05
CGA:  37    -0.335411405383E+03   -0.27368E-04   -0.27377E-04  7904   0.777E-03 0.589E-06
CGA:  38    -0.335411422542E+03   -0.17159E-04   -0.17114E-04  7904   0.370E-03-0.255E-05
CGA:  39    -0.335411430342E+03   -0.78004E-05   -0.78028E-05  7904   0.208E-03-0.335E-07
SDA:  40    -0.335411444691E+03   -0.14349E-04   -0.14393E-04  7904   0.337E-03-0.123E-05
CGA:  41    -0.335411450963E+03   -0.62717E-05   -0.62860E-05  7904   0.158E-03 0.215E-06
   9 F= -.33541145E+03 E0= -.33538565E+03  d E =-.793671E-01  mag=    32.0000
       N       E                     dE             d eps       ncg     rms          ort
SDA:   1    -0.334970184556E+03    0.44126E+00    0.00000E+00  7904   0.609E+01 0.000E+00
CGA:   2    -0.335048991897E+03   -0.78807E-01   -0.74353E-01  7904   0.139E+01 0.290E+00
CGA:   3    -0.335171621834E+03   -0.12263E+00   -0.11439E+00  7904   0.289E+01 0.176E+00
CGA:   4    -0.335243664122E+03   -0.72042E-01   -0.71207E-01  7904   0.218E+01 0.135E-02
CGA:   5    -0.335319610081E+03   -0.75946E-01   -0.75841E-01  7904   0.102E+01 0.426E-01
CGA:   6    -0.335341057727E+03   -0.21448E-01   -0.20411E-01  7904   0.809E+00 0.173E-01
CGA:   7    -0.335365049387E+03   -0.23992E-01   -0.23821E-01  7904   0.520E+00-0.160E-01
CGA:   8    -0.335402782759E+03   -0.37733E-01   -0.36681E-01  7904   0.551E+00 0.272E-01
CGA:   9    -0.335410774221E+03   -0.79915E-02   -0.77793E-02  7904   0.106E+00 0.111E-01
CGA:  10    -0.335413831102E+03   -0.30569E-02   -0.30802E-02  7904   0.117E+00 0.148E-02
CGA:  11    -0.335417123504E+03   -0.32924E-02   -0.32891E-02  7904   0.132E+00-0.178E-03
CGA:  12    -0.335423255587E+03   -0.61321E-02   -0.61627E-02  7904   0.539E-01-0.179E-02
CGA:  13    -0.335424549074E+03   -0.12935E-02   -0.13031E-02  7904   0.400E-01 0.142E-03
CGA:  14    -0.335425241441E+03   -0.69237E-03   -0.70106E-03  7904   0.121E-01-0.187E-03
CGA:  15    -0.335425694154E+03   -0.45271E-03   -0.45284E-03  7904   0.208E-01-0.123E-04
CGA:  16    -0.335426472557E+03   -0.77840E-03   -0.77761E-03  7904   0.197E-01 0.114E-03
CGA:  17    -0.335427036924E+03   -0.56437E-03   -0.56326E-03  7904   0.112E-01-0.854E-04
CGA:  18    -0.335427212824E+03   -0.17590E-03   -0.17637E-03  7904   0.477E-02-0.132E-04
CGA:  19    -0.335427526124E+03   -0.31330E-03   -0.31337E-03  7904   0.757E-02-0.187E-05
CGA:  20    -0.335427670378E+03   -0.14425E-03   -0.14444E-03  7904   0.315E-02-0.317E-05
CGA:  21    -0.335427758324E+03   -0.87946E-04   -0.87920E-04  7904   0.258E-02-0.465E-05
CGA:  22    -0.335427825461E+03   -0.67137E-04   -0.67140E-04  7904   0.262E-02 0.181E-06
CGA:  23    -0.335427944948E+03   -0.11949E-03   -0.11977E-03  7904   0.245E-02-0.178E-04
CGA:  24    -0.335428017882E+03   -0.72934E-04   -0.72969E-04  7904   0.241E-02 0.791E-05
CGA:  25    -0.335428062299E+03   -0.44417E-04   -0.44523E-04  7904   0.543E-03-0.290E-06
CGA:  26    -0.335428076822E+03   -0.14523E-04   -0.14534E-04  7904   0.675E-03 0.168E-05
CGA:  27    -0.335428118493E+03   -0.41671E-04   -0.41690E-04  7904   0.123E-02-0.660E-06
CGA:  28    -0.335428150907E+03   -0.32413E-04   -0.32418E-04  7904   0.844E-03 0.389E-06
CGA:  29    -0.335428165515E+03   -0.14609E-04   -0.14553E-04  7904   0.225E-03-0.840E-06
CGA:  30    -0.335428174572E+03   -0.90562E-05   -0.90398E-05  7904   0.362E-03 0.181E-05
CGA:  31    -0.335428186403E+03   -0.11832E-04   -0.11832E-04  7904   0.357E-03 0.161E-06
SDA:  32    -0.335428199572E+03   -0.13169E-04   -0.13163E-04  7904   0.498E-03 0.114E-05
CGA:  33    -0.335428204790E+03   -0.52177E-05   -0.51848E-05  7904   0.117E-03-0.753E-06
  10 F= -.33542820E+03 E0= -.33540227E+03  d E =-.167538E-01  mag=    32.0000
       N       E                     dE             d eps       ncg     rms          ort
SDA:   1    -0.335094742923E+03    0.33346E+00    0.00000E+00  7904   0.768E+01 0.000E+00
CGA:   2    -0.335158292134E+03   -0.63549E-01   -0.78449E-01  7904   0.136E+01-0.113E+01
CGA:   3    -0.335214075604E+03   -0.55783E-01   -0.58891E-01  7904   0.319E+01-0.142E+00
CGA:   4    -0.335304938810E+03   -0.90863E-01   -0.90865E-01  7904   0.255E+01 0.594E-01
CGA:   5    -0.335370475909E+03   -0.65537E-01   -0.65086E-01  7904   0.940E+00-0.157E-01
CGA:   6    -0.335384659050E+03   -0.14183E-01   -0.14767E-01  7904   0.313E+00-0.178E-01
CGA:   7    -0.335399878316E+03   -0.15219E-01   -0.15458E-01  7904   0.815E+00-0.108E-01
CGA:   8    -0.335422302260E+03   -0.22424E-01   -0.22447E-01  7904   0.285E+00 0.296E-02
CGA:   9    -0.335427739698E+03   -0.54374E-02   -0.53949E-02  7904   0.131E+00 0.551E-03
CGA:  10    -0.335430467197E+03   -0.27275E-02   -0.27586E-02  7904   0.465E-01 0.156E-03
CGA:  11    -0.335431934018E+03   -0.14668E-02   -0.14674E-02  7904   0.738E-01-0.253E-03
CGA:  12    -0.335434808083E+03   -0.28741E-02   -0.28706E-02  7904   0.513E-01 0.291E-03
CGA:  13    -0.335435780803E+03   -0.97272E-03   -0.96914E-03  7904   0.226E-01 0.216E-04
CGA:  14    -0.335436261050E+03   -0.48025E-03   -0.48070E-03  7904   0.690E-02 0.848E-05
CGA:  15    -0.335436440150E+03   -0.17910E-03   -0.17900E-03  7904   0.877E-02-0.963E-05
CGA:  16    -0.335436900321E+03   -0.46017E-03   -0.45873E-03  7904   0.114E-01 0.610E-04
CGA:  17    -0.335437140446E+03   -0.24013E-03   -0.23977E-03  7904   0.607E-02-0.997E-06
CGA:  18    -0.335437277163E+03   -0.13672E-03   -0.13675E-03  7904   0.198E-02 0.321E-05
CGA:  19    -0.335437325500E+03   -0.48337E-04   -0.48305E-04  7904   0.227E-02-0.407E-05
CGA:  20    -0.335437443064E+03   -0.11756E-03   -0.11742E-03  7904   0.265E-02 0.623E-05
CGA:  21    -0.335437494890E+03   -0.51826E-04   -0.51742E-04  7904   0.151E-02-0.366E-05
CGA:  22    -0.335437545310E+03   -0.50420E-04   -0.50412E-04  7904   0.114E-02 0.162E-05
CGA:  23    -0.335437573672E+03   -0.28362E-04   -0.28351E-04  7904   0.119E-02-0.987E-06
CGA:  24    -0.335437626023E+03   -0.52351E-04   -0.52222E-04  7904   0.100E-02 0.893E-05
CGA:  25    -0.335437643461E+03   -0.17438E-04   -0.17421E-04  7904   0.443E-03 0.176E-06
CGA:  26    -0.335437660056E+03   -0.16596E-04   -0.16588E-04  7904   0.484E-03 0.108E-05
CGA:  27    -0.335437673373E+03   -0.13316E-04   -0.13314E-04  7904   0.570E-03-0.635E-06
CGA:  28    -0.335437699874E+03   -0.26501E-04   -0.26404E-04  7904   0.513E-03 0.590E-05
CGA:  29    -0.335437707873E+03   -0.79988E-05   -0.79937E-05  7904   0.142E-03 0.217E-06
  11 F= -.33543771E+03 E0= -.33541165E+03  d E =-.950308E-02  mag=    32.0000
       N       E                     dE             d eps       ncg     rms          ort
SDA:   1    -0.334731905667E+03    0.70579E+00    0.00000E+00  7904   0.292E+02 0.000E+00
CGA:   2    -0.334933921690E+03   -0.20202E+00   -0.30518E+00  7904   0.447E+01-0.743E+01
CGA:   3    -0.335009756843E+03   -0.75835E-01   -0.74006E-01  7904   0.248E+01-0.451E-01
CGA:   4    -0.335122084495E+03   -0.11233E+00   -0.10950E+00  7904   0.468E+01 0.155E+00
CGA:   5    -0.335283320569E+03   -0.16124E+00   -0.16269E+00  7904   0.401E+01-0.298E+00
CGA:   6    -0.335355422427E+03   -0.72102E-01   -0.73627E-01  7904   0.964E+00-0.574E-02
CGA:   7    -0.335373741948E+03   -0.18320E-01   -0.18020E-01  7904   0.534E+00 0.175E-02
CGA:   8    -0.335399786823E+03   -0.26045E-01   -0.25919E-01  7904   0.104E+01 0.584E-02
CGA:   9    -0.335425983392E+03   -0.26197E-01   -0.26025E-01  7904   0.466E+00-0.102E-01
CGA:  10    -0.335434596719E+03   -0.86133E-02   -0.87112E-02  7904   0.168E+00-0.620E-03
CGA:  11    -0.335438451600E+03   -0.38549E-02   -0.38436E-02  7904   0.101E+00-0.438E-03
CGA:  12    -0.335441406414E+03   -0.29548E-02   -0.29544E-02  7904   0.103E+00 0.557E-03
CGA:  13    -0.335444615179E+03   -0.32088E-02   -0.32110E-02  7904   0.876E-01-0.609E-03
CGA:  14    -0.335446462574E+03   -0.18474E-02   -0.18482E-02  7904   0.294E-01 0.970E-05
CGA:  15    -0.335447055548E+03   -0.59297E-03   -0.59145E-03  7904   0.175E-01-0.259E-04
CGA:  16    -0.335447734845E+03   -0.67930E-03   -0.67814E-03  7904   0.276E-01 0.861E-04
CGA:  17    -0.335448527497E+03   -0.79265E-03   -0.79264E-03  7904   0.144E-01-0.576E-04
CGA:  18    -0.335448783715E+03   -0.25622E-03   -0.25710E-03  7904   0.518E-02-0.410E-06
CGA:  19    -0.335448941014E+03   -0.15730E-03   -0.15734E-03  7904   0.709E-02-0.121E-04
CGA:  20    -0.335449255917E+03   -0.31490E-03   -0.31457E-03  7904   0.905E-02 0.173E-04
CGA:  21    -0.335449433121E+03   -0.17720E-03   -0.17696E-03  7904   0.250E-02-0.798E-05
CGA:  22    -0.335449483335E+03   -0.50214E-04   -0.50267E-04  7904   0.166E-02 0.250E-05
CGA:  23    -0.335449565741E+03   -0.82405E-04   -0.82521E-04  7904   0.390E-02-0.509E-05
CGA:  24    -0.335449693173E+03   -0.12743E-03   -0.12737E-03  7904   0.235E-02 0.148E-04
CGA:  25    -0.335449733416E+03   -0.40244E-04   -0.40207E-04  7904   0.766E-03 0.121E-05
CGA:  26    -0.335449756292E+03   -0.22875E-04   -0.22870E-04  7904   0.977E-03 0.451E-05
CGA:  27    -0.335449801176E+03   -0.44884E-04   -0.44834E-04  7904   0.153E-02 0.307E-05
CGA:  28    -0.335449838462E+03   -0.37286E-04   -0.37331E-04  7904   0.765E-03 0.626E-05
CGA:  29    -0.335449854542E+03   -0.16080E-04   -0.16073E-04  7904   0.383E-03-0.157E-06
CGA:  30    -0.335449865323E+03   -0.10781E-04   -0.10783E-04  7904   0.364E-03 0.261E-05
CGA:  31    -0.335449879125E+03   -0.13803E-04   -0.13791E-04  7904   0.531E-03 0.140E-05
SDA:  32    -0.335449894479E+03   -0.15354E-04   -0.15357E-04  7904   0.329E-03 0.556E-05
CGA:  33    -0.335449897423E+03   -0.29443E-05   -0.29318E-05  7904   0.453E-04-0.327E-06
  12 F= -.33544990E+03 E0= -.33542374E+03  d E =-.121896E-01  mag=    32.0000
       N       E                     dE             d eps       ncg     rms          ort
SDA:   1    -0.334962574688E+03    0.48732E+00    0.00000E+00  7904   0.408E+01 0.000E+00
CGA:   2    -0.335013913310E+03   -0.51339E-01   -0.58121E-01  7904   0.249E+01-0.278E+00
CGA:   3    -0.335152177944E+03   -0.13826E+00   -0.13135E+00  7904   0.334E+01 0.235E+00
CGA:   4    -0.335253720011E+03   -0.10154E+00   -0.10183E+00  7904   0.378E+01 0.236E-01
CGA:   5    -0.335356849962E+03   -0.10313E+00   -0.10228E+00  7904   0.118E+01-0.515E-01
CGA:   6    -0.335380606875E+03   -0.23757E-01   -0.23997E-01  7904   0.918E+00-0.159E-03
CGA:   7    -0.335402988781E+03   -0.22382E-01   -0.21883E-01  7904   0.436E+00-0.134E-01
CGA:   8    -0.335436103820E+03   -0.33115E-01   -0.32017E-01  7904   0.516E+00 0.266E-01
CGA:   9    -0.335443570712E+03   -0.74669E-02   -0.71579E-02  7904   0.131E+00 0.157E-01
CGA:  10    -0.335448314261E+03   -0.47435E-02   -0.47552E-02  7904   0.140E+00-0.214E-02
CGA:  11    -0.335451226656E+03   -0.29124E-02   -0.29053E-02  7904   0.849E-01-0.472E-04
CGA:  12    -0.335455041722E+03   -0.38151E-02   -0.37725E-02  7904   0.522E-01 0.257E-02
CGA:  13    -0.335455969025E+03   -0.92730E-03   -0.92332E-03  7904   0.335E-01 0.811E-04
CGA:  14    -0.335456939590E+03   -0.97056E-03   -0.97064E-03  7904   0.121E-01 0.108E-04
CGA:  15    -0.335457570950E+03   -0.63136E-03   -0.63294E-03  7904   0.326E-01-0.690E-04
CGA:  16    -0.335458207484E+03   -0.63653E-03   -0.63749E-03  7904   0.877E-02-0.146E-04
CGA:  17    -0.335458502247E+03   -0.29476E-03   -0.29452E-03  7904   0.663E-02 0.723E-04
CGA:  18    -0.335458637431E+03   -0.13518E-03   -0.13529E-03  7904   0.444E-02 0.133E-05
CGA:  19    -0.335458829930E+03   -0.19250E-03   -0.19272E-03  7904   0.521E-02-0.167E-04
CGA:  20    -0.335458933175E+03   -0.10324E-03   -0.10341E-03  7904   0.378E-02-0.278E-05
CGA:  21    -0.335459083425E+03   -0.15025E-03   -0.15059E-03  7904   0.121E-02-0.300E-04
CGA:  22    -0.335459116839E+03   -0.33415E-04   -0.33437E-04  7904   0.216E-02 0.496E-05
CGA:  23    -0.335459209549E+03   -0.92710E-04   -0.92485E-04  7904   0.129E-02 0.174E-04
CGA:  24    -0.335459249784E+03   -0.40235E-04   -0.40238E-04  7904   0.167E-02 0.361E-05
CGA:  25    -0.335459291150E+03   -0.41366E-04   -0.41362E-04  7904   0.614E-03 0.136E-05
CGA:  26    -0.335459308519E+03   -0.17368E-04   -0.17382E-04  7904   0.850E-03 0.373E-05
CGA:  27    -0.335459336169E+03   -0.27651E-04   -0.27648E-04  7904   0.670E-03 0.306E-05
CGA:  28    -0.335459366522E+03   -0.30353E-04   -0.30274E-04  7904   0.568E-03 0.553E-05
CGA:  29    -0.335459374958E+03   -0.84359E-05   -0.84320E-05  7904   0.253E-03 0.170E-06
CGA:  30    -0.335459388977E+03   -0.14019E-04   -0.13984E-04  7904   0.272E-03 0.150E-05
CGA:  31    -0.335459395677E+03   -0.66999E-05   -0.67099E-05  7904   0.312E-03 0.126E-05
SDA:  32    -0.335459409195E+03   -0.13518E-04   -0.13457E-04  7904   0.208E-03 0.553E-05
CGA:  33    -0.335459411359E+03   -0.21640E-05   -0.21510E-05  7904   0.489E-04-0.426E-06
  13 F= -.33545941E+03 E0= -.33543329E+03  d E =-.951394E-02  mag=    32.0000
       N       E                     dE             d eps       ncg     rms          ort
SDA:   1    -0.335173547013E+03    0.28586E+00    0.00000E+00  7904   0.242E+01 0.000E+00
CGA:   2    -0.335208302918E+03   -0.34756E-01   -0.33119E-01  7904   0.138E+01 0.733E-01
CGA:   3    -0.335277665151E+03   -0.69362E-01   -0.64274E-01  7904   0.103E+01 0.277E+00
CGA:   4    -0.335380112076E+03   -0.10245E+00   -0.10668E+00  7904   0.231E+01-0.963E-01
CGA:   5    -0.335406459859E+03   -0.26348E-01   -0.25698E-01  7904   0.580E+00 0.385E-01
CGA:   6    -0.335418404412E+03   -0.11945E-01   -0.11955E-01  7904   0.638E+00 0.177E-03
CGA:   7    -0.335431218008E+03   -0.12814E-01   -0.13311E-01  7904   0.321E+00-0.201E-02
CGA:   8    -0.335439978327E+03   -0.87603E-02   -0.87849E-02  7904   0.540E+00 0.183E-02
CGA:   9    -0.335454143291E+03   -0.14165E-01   -0.13929E-01  7904   0.153E+00-0.957E-02
CGA:  10    -0.335456498013E+03   -0.23547E-02   -0.23255E-02  7904   0.106E+00 0.954E-03
CGA:  11    -0.335459120218E+03   -0.26222E-02   -0.26100E-02  7904   0.627E-01-0.500E-03
CGA:  12    -0.335460342441E+03   -0.12222E-02   -0.12249E-02  7904   0.669E-01-0.142E-04
CGA:  13    -0.335462658137E+03   -0.23157E-02   -0.23078E-02  7904   0.502E-01 0.106E-02
CGA:  14    -0.335463322871E+03   -0.66473E-03   -0.66395E-03  7904   0.191E-01 0.117E-04
CGA:  15    -0.335463913823E+03   -0.59095E-03   -0.59229E-03  7904   0.145E-01-0.421E-03
CGA:  16    -0.335464138504E+03   -0.22468E-03   -0.22466E-03  7904   0.107E-01-0.272E-05
CGA:  17    -0.335464638110E+03   -0.49961E-03   -0.49611E-03  7904   0.172E-01 0.176E-03
CGA:  18    -0.335464881900E+03   -0.24379E-03   -0.24397E-03  7904   0.507E-02-0.314E-05
CGA:  19    -0.335465040490E+03   -0.15859E-03   -0.15877E-03  7904   0.593E-02-0.446E-04
CGA:  20    -0.335465127891E+03   -0.87401E-04   -0.87482E-04  7904   0.234E-02-0.571E-05
CGA:  21    -0.335465241229E+03   -0.11334E-03   -0.11297E-03  7904   0.600E-02 0.173E-04
CGA:  22    -0.335465345075E+03   -0.10385E-03   -0.10383E-03  7904   0.179E-02-0.175E-05
CGA:  23    -0.335465390225E+03   -0.45149E-04   -0.45132E-04  7904   0.214E-02-0.310E-05
CGA:  24    -0.335465431718E+03   -0.41493E-04   -0.41435E-04  7904   0.721E-03-0.149E-05
CGA:  25    -0.335465455502E+03   -0.23784E-04   -0.23770E-04  7904   0.165E-02 0.262E-05
CGA:  26    -0.335465502517E+03   -0.47015E-04   -0.47014E-04  7904   0.818E-03 0.107E-04
CGA:  27    -0.335465520098E+03   -0.17581E-04   -0.17585E-04  7904   0.836E-03 0.957E-06
CGA:  28    -0.335465541005E+03   -0.20906E-04   -0.20899E-04  7904   0.378E-03-0.343E-06
CGA:  29    -0.335465548904E+03   -0.78997E-05   -0.79138E-05  7904   0.485E-03 0.183E-05
CGA:  30    -0.335465569509E+03   -0.20604E-04   -0.20537E-04  7904   0.415E-03 0.433E-05
CGA:  31    -0.335465577383E+03   -0.78744E-05   -0.78765E-05  7904   0.361E-03 0.245E-06
SDA:  32    -0.335465587521E+03   -0.10138E-04   -0.10137E-04  7904   0.207E-03 0.112E-05
CGA:  33    -0.335465590840E+03   -0.33188E-05   -0.33187E-05  7904   0.991E-04-0.155E-07
  14 F= -.33546559E+03 E0= -.33543969E+03  d E =-.617948E-02  mag=    32.0000
       N       E                     dE             d eps       ncg     rms          ort
SDA:   1    -0.334194893892E+03    0.12707E+01    0.00000E+00  7904   0.789E+01 0.000E+00
CGA:   2    -0.334331520970E+03   -0.13663E+00   -0.13591E+00  7904   0.586E+01-0.131E-01
CGA:   3    -0.334846973406E+03   -0.51545E+00   -0.45348E+00  7904   0.773E+01 0.120E+01
CGA:   4    -0.335013274724E+03   -0.16630E+00   -0.15495E+00  7904   0.510E+01 0.241E+00
CGA:   5    -0.335202277118E+03   -0.18900E+00   -0.25341E+00  7904   0.510E+01-0.351E+01
CGA:   6    -0.335296520721E+03   -0.94244E-01   -0.10514E+00  7904   0.122E+01 0.832E-01
CGA:   7    -0.335321837708E+03   -0.25317E-01   -0.24944E-01  7904   0.764E+00-0.624E-03
CGA:   8    -0.335385786614E+03   -0.63949E-01   -0.64420E-01  7904   0.128E+01-0.109E-01
CGA:   9    -0.335414617720E+03   -0.28831E-01   -0.28539E-01  7904   0.887E+00-0.208E-02
CGA:  10    -0.335430477897E+03   -0.15860E-01   -0.16506E-01  7904   0.316E+00-0.789E-02
CGA:  11    -0.335439213179E+03   -0.87353E-02   -0.87523E-02  7904   0.329E+00 0.250E-02
CGA:  12    -0.335456684607E+03   -0.17471E-01   -0.17451E-01  7904   0.348E+00 0.797E-03
CGA:  13    -0.335465641888E+03   -0.89573E-02   -0.89619E-02  7904   0.127E+00 0.225E-03
CGA:  14    -0.335468285222E+03   -0.26433E-02   -0.26230E-02  7904   0.546E-01 0.395E-04
CGA:  15    -0.335470234236E+03   -0.19490E-02   -0.19508E-02  7904   0.108E+00-0.242E-03
CGA:  16    -0.335473250050E+03   -0.30158E-02   -0.30202E-02  7904   0.359E-01 0.638E-03
CGA:  17    -0.335473849911E+03   -0.59986E-03   -0.59838E-03  7904   0.881E-02 0.429E-04
CGA:  18    -0.335474265637E+03   -0.41573E-03   -0.41390E-03  7904   0.126E-01 0.952E-04
CGA:  19    -0.335474855435E+03   -0.58980E-03   -0.59027E-03  7904   0.147E-01-0.282E-04
CGA:  20    -0.335475223770E+03   -0.36834E-03   -0.36827E-03  7904   0.389E-02-0.107E-04
CGA:  21    -0.335475376086E+03   -0.15232E-03   -0.15257E-03  7904   0.570E-02-0.235E-04
CGA:  22    -0.335475601507E+03   -0.22542E-03   -0.22537E-03  7904   0.660E-02 0.595E-05
CGA:  23    -0.335475797429E+03   -0.19592E-03   -0.19600E-03  7904   0.752E-02 0.222E-04
CGA:  24    -0.335475946127E+03   -0.14870E-03   -0.14889E-03  7904   0.203E-02 0.593E-05
CGA:  25    -0.335476012387E+03   -0.66260E-04   -0.66251E-04  7904   0.270E-02 0.651E-05
CGA:  26    -0.335476169426E+03   -0.15704E-03   -0.15714E-03  7904   0.277E-02-0.391E-05
CGA:  27    -0.335476240303E+03   -0.70877E-04   -0.70965E-04  7904   0.108E-02 0.539E-05
CGA:  28    -0.335476269017E+03   -0.28713E-04   -0.28707E-04  7904   0.879E-03-0.143E-06
CGA:  29    -0.335476319197E+03   -0.50180E-04   -0.50070E-04  7904   0.251E-02 0.433E-05
CGA:  30    -0.335476371767E+03   -0.52570E-04   -0.52515E-04  7904   0.574E-03-0.273E-06
CGA:  31    -0.335476382043E+03   -0.10276E-04   -0.10274E-04  7904   0.245E-03-0.133E-06
CGA:  32    -0.335476401860E+03   -0.19817E-04   -0.19859E-04  7904   0.719E-03-0.898E-06
CGA:  33    -0.335476428444E+03   -0.26584E-04   -0.26586E-04  7904   0.530E-03-0.932E-06
CGA:  34    -0.335476439779E+03   -0.11335E-04   -0.11329E-04  7904   0.185E-03-0.773E-06
CGA:  35    -0.335476443092E+03   -0.33132E-05   -0.33190E-05  7904   0.121E-03 0.321E-06
  15 F= -.33547644E+03 E0= -.33545087E+03  d E =-.108523E-01  mag=    32.0000
       N       E                     dE             d eps       ncg     rms          ort
SDA:   1    -0.332360296865E+03    0.31161E+01    0.00000E+00  7904   0.152E+02 0.000E+00
CGA:   2    -0.332992289803E+03   -0.63199E+00   -0.60055E+00  7904   0.141E+02 0.346E+01
CGA:   3    -0.333447793359E+03   -0.45550E+00   -0.42724E+00  7904   0.244E+02-0.405E+00
CGA:   4    -0.334773657829E+03   -0.13259E+01   -0.13228E+01  7904   0.655E+01-0.873E-01
CGA:   5    -0.334857911758E+03   -0.84254E-01   -0.99085E-01  7904   0.546E+01-0.607E+00
CGA:   6    -0.335037898355E+03   -0.17999E+00   -0.19961E+00  7904   0.801E+01-0.210E+01
CGA:   7    -0.335161798756E+03   -0.12390E+00   -0.12308E+00  7904   0.126E+02-0.961E-02
CGA:   8    -0.335331582328E+03   -0.16978E+00   -0.19779E+00  7904   0.154E+01-0.927E+00
CGA:   9    -0.335362790198E+03   -0.31208E-01   -0.32302E-01  7904   0.769E+00 0.843E-02
CGA:  10    -0.335389012174E+03   -0.26222E-01   -0.26251E-01  7904   0.125E+01-0.987E-02
CGA:  11    -0.335430362807E+03   -0.41351E-01   -0.41404E-01  7904   0.114E+01-0.245E-01
CGA:  12    -0.335453597269E+03   -0.23234E-01   -0.23962E-01  7904   0.222E+00 0.982E-03
CGA:  13    -0.335462657546E+03   -0.90603E-02   -0.88603E-02  7904   0.187E+00 0.174E-01
CGA:  14    -0.335472537523E+03   -0.98800E-02   -0.98419E-02  7904   0.258E+00 0.184E-02
CGA:  15    -0.335478426652E+03   -0.58891E-02   -0.58501E-02  7904   0.174E+00 0.310E-04
CGA:  16    -0.335483029492E+03   -0.46028E-02   -0.45618E-02  7904   0.927E-01-0.158E-02
CGA:  17    -0.335484760846E+03   -0.17314E-02   -0.17523E-02  7904   0.662E-01-0.259E-03
CGA:  18    -0.335489737921E+03   -0.49771E-02   -0.49123E-02  7904   0.447E-01 0.145E-02
CGA:  19    -0.335490839115E+03   -0.11012E-02   -0.10882E-02  7904   0.256E-01-0.118E-03
CGA:  20    -0.335491263825E+03   -0.42471E-03   -0.42414E-03  7904   0.159E-01 0.140E-04
CGA:  21    -0.335492726456E+03   -0.14626E-02   -0.14611E-02  7904   0.465E-01 0.256E-04
CGA:  22    -0.335493492142E+03   -0.76569E-03   -0.76497E-03  7904   0.962E-02 0.107E-04
CGA:  23    -0.335493742924E+03   -0.25078E-03   -0.25210E-03  7904   0.840E-02 0.330E-04
CGA:  24    -0.335493922806E+03   -0.17988E-03   -0.18024E-03  7904   0.758E-02-0.137E-05
CGA:  25    -0.335494385539E+03   -0.46273E-03   -0.46427E-03  7904   0.346E-02-0.530E-04
CGA:  26    -0.335494484533E+03   -0.98993E-04   -0.98884E-04  7904   0.344E-02-0.782E-05
CGA:  27    -0.335494554309E+03   -0.69776E-04   -0.69591E-04  7904   0.268E-02-0.181E-05
CGA:  28    -0.335494736478E+03   -0.18217E-03   -0.18173E-03  7904   0.521E-02 0.128E-04
CGA:  29    -0.335494830290E+03   -0.93812E-04   -0.93677E-04  7904   0.151E-02 0.464E-05
CGA:  30    -0.335494877660E+03   -0.47369E-04   -0.47409E-04  7904   0.785E-03 0.414E-05
CGA:  31    -0.335494894871E+03   -0.17212E-04   -0.17231E-04  7904   0.102E-02 0.115E-06
SDA:  32    -0.335494957404E+03   -0.62533E-04   -0.62648E-04  7904   0.127E-02-0.441E-05
CGA:  33    -0.335494991966E+03   -0.34562E-04   -0.34582E-04  7904   0.197E-03 0.126E-06
CGA:  34    -0.335495000175E+03   -0.82081E-05   -0.82166E-05  7904   0.643E-03-0.132E-05
CGA:  35    -0.335495030486E+03   -0.30312E-04   -0.30335E-04  7904   0.644E-03-0.156E-05
CGA:  36    -0.335495064681E+03   -0.34195E-04   -0.34175E-04  7904   0.508E-03 0.954E-06
CGA:  37    -0.335495072073E+03   -0.73913E-05   -0.74228E-05  7904   0.106E-03 0.486E-06
  16 F= -.33549507E+03 E0= -.33546980E+03  d E =-.186290E-01  mag=    32.0000
       N       E                     dE             d eps       ncg     rms          ort
SDA:   1    -0.324519514016E+03    0.10976E+02    0.00000E+00  7904   0.854E+02 0.000E+00
CGA:   2    -0.326244270296E+03   -0.17248E+01   -0.22939E+01  7904   0.499E+02 0.979E+01
CGA:   3    -0.327891613899E+03   -0.16473E+01   -0.13440E+01  7904   0.591E+02 0.734E+00
CGA:   4    -0.332671956660E+03   -0.47803E+01   -0.47797E+01  7904   0.718E+02-0.217E+01
CGA:   5    -0.333510655163E+03   -0.83870E+00   -0.96668E+00  7904   0.147E+02-0.108E+02
CGA:   6    -0.334142415612E+03   -0.63176E+00   -0.75285E+00  7904   0.216E+02-0.706E+01
CGA:   7    -0.334349696665E+03   -0.20728E+00   -0.20242E+00  7904   0.307E+02 0.149E+00
CGA:   8    -0.334907076408E+03   -0.55738E+00   -0.63160E+00  7904   0.185E+02-0.144E+01
CGA:   9    -0.335137062804E+03   -0.22999E+00   -0.21579E+00  7904   0.225E+01 0.116E+01
CGA:  10    -0.335191791582E+03   -0.54729E-01   -0.52666E-01  7904   0.316E+01 0.202E-01
CGA:  11    -0.335287476318E+03   -0.95685E-01   -0.95269E-01  7904   0.329E+01-0.218E-01
CGA:  12    -0.335346019633E+03   -0.58543E-01   -0.59556E-01  7904   0.340E+01-0.235E-01
CGA:  13    -0.335422565251E+03   -0.76546E-01   -0.70127E-01  7904   0.144E+01 0.136E+00
CGA:  14    -0.335438372417E+03   -0.15807E-01   -0.15022E-01  7904   0.512E+00 0.646E-01
CGA:  15    -0.335450367742E+03   -0.11995E-01   -0.12175E-01  7904   0.798E+00 0.199E-02
CGA:  16    -0.335468592081E+03   -0.18224E-01   -0.19401E-01  7904   0.485E+00 0.340E-01
CGA:  17    -0.335483679079E+03   -0.15087E-01   -0.15044E-01  7904   0.726E+00-0.124E-01
CGA:  18    -0.335492518582E+03   -0.88395E-02   -0.71045E-02  7904   0.258E+00 0.139E+00
CGA:  19    -0.335495566511E+03   -0.30479E-02   -0.29933E-02  7904   0.167E+00 0.435E-02
CGA:  20    -0.335499651611E+03   -0.40851E-02   -0.41039E-02  7904   0.399E+00 0.119E-02
CGA:  21    -0.335506790149E+03   -0.71385E-02   -0.76232E-02  7904   0.292E+00 0.248E-02
CGA:  22    -0.335510529535E+03   -0.37394E-02   -0.37526E-02  7904   0.145E+00-0.330E-03
CGA:  23    -0.335513180159E+03   -0.26506E-02   -0.26088E-02  7904   0.950E-01 0.220E-03
CGA:  24    -0.335514237240E+03   -0.10571E-02   -0.10292E-02  7904   0.355E-01 0.173E-02
CGA:  25    -0.335515104870E+03   -0.86763E-03   -0.86708E-03  7904   0.877E-01-0.101E-03
CGA:  26    -0.335517802694E+03   -0.26978E-02   -0.26664E-02  7904   0.963E-01 0.462E-02
CGA:  27    -0.335518859405E+03   -0.10567E-02   -0.10716E-02  7904   0.342E-01-0.850E-03
CGA:  28    -0.335519806911E+03   -0.94751E-03   -0.94941E-03  7904   0.363E-01-0.461E-03
CGA:  29    -0.335520271381E+03   -0.46447E-03   -0.45915E-03  7904   0.195E-01 0.192E-03
CGA:  30    -0.335520890984E+03   -0.61960E-03   -0.61982E-03  7904   0.450E-01-0.359E-04
CGA:  31    -0.335521748509E+03   -0.85752E-03   -0.86141E-03  7904   0.213E-01 0.133E-03
SDA:  32    -0.335521987102E+03   -0.23859E-03   -0.23922E-03  7904   0.816E-02-0.194E-04
CGA:  33    -0.335522209050E+03   -0.22195E-03   -0.22201E-03  7904   0.690E-02-0.103E-04
CGA:  34    -0.335522400916E+03   -0.19187E-03   -0.19169E-03  7904   0.638E-02 0.396E-04
CGA:  35    -0.335522783548E+03   -0.38263E-03   -0.38173E-03  7904   0.110E-01 0.253E-04
CGA:  36    -0.335522944545E+03   -0.16100E-03   -0.16135E-03  7904   0.363E-02 0.541E-05
CGA:  37    -0.335523269624E+03   -0.32508E-03   -0.32818E-03  7904   0.387E-02-0.587E-04
CGA:  38    -0.335523505066E+03   -0.23544E-03   -0.23448E-03  7904   0.157E-02 0.300E-04
CGA:  39    -0.335523531880E+03   -0.26814E-04   -0.26797E-04  7904   0.126E-02-0.166E-05
CGA:  40    -0.335523635344E+03   -0.10346E-03   -0.10358E-03  7904   0.382E-02-0.220E-05
CGA:  41    -0.335523739480E+03   -0.10414E-03   -0.10408E-03  7904   0.344E-02-0.685E-05
CGA:  42    -0.335523839423E+03   -0.99943E-04   -0.10002E-03  7904   0.387E-03 0.977E-05
CGA:  43    -0.335523920661E+03   -0.81238E-04   -0.43246E-05  7904   0.171E-02 0.208E-06
CGA:  44    -0.335523943404E+03   -0.22742E-04   -0.22942E-04  7904   0.602E-03-0.307E-05
CGA:  45    -0.335523972016E+03   -0.28613E-04   -0.28688E-04  7904   0.354E-03 0.558E-05
CGA:  46    -0.335524004530E+03   -0.32513E-04   -0.32430E-04  7904   0.116E-02 0.243E-05
CGA:  47    -0.335524026226E+03   -0.21696E-04   -0.21753E-04  7904   0.221E-03 0.195E-05
CGA:  48    -0.335524033533E+03   -0.73074E-05   -0.73310E-05  7904   0.216E-03 0.784E-06
  17 F= -.33552403E+03 E0= -.33549888E+03  d E =-.289615E-01  mag=    32.0000
       N       E                     dE             d eps       ncg     rms          ort
SDA:   1    -0.316379651119E+03    0.19144E+02    0.00000E+00  7904   0.179E+04 0.000E+00
CGA:   2    -0.324322552340E+03   -0.79429E+01   -0.47246E+02  7904   0.411E+03-0.318E+03
CGA:   3    -0.331578314724E+03   -0.72558E+01   -0.69097E+01  7904   0.112E+03-0.750E+02
CGA:   4    -0.332661155458E+03   -0.10828E+01   -0.54955E+00  7904   0.803E+02 0.935E+02
CGA:   5    -0.333734635044E+03   -0.10735E+01   -0.55831E+00  7904   0.483E+02 0.713E+02
CGA:   6    -0.334217485619E+03   -0.48285E+00   -0.24279E+00  7904   0.300E+02 0.445E+02
CGA:   7    -0.334529286332E+03   -0.31180E+00   -0.18642E+00  7904   0.108E+02 0.184E+02
CGA:   8    -0.334702593854E+03   -0.17331E+00   -0.12713E+00  7904   0.445E+01 0.333E+01
CGA:   9    -0.334846059794E+03   -0.14347E+00   -0.98137E-01  7904   0.340E+01 0.215E+01
CGA:  10    -0.334894110544E+03   -0.48051E-01   -0.30265E-01  7904   0.214E+01 0.285E+01
CGA:  11    -0.334969526689E+03   -0.75416E-01   -0.75810E-01  7904   0.374E+01 0.831E-01
CGA:  12    -0.335062412116E+03   -0.92885E-01   -0.87649E-01  7904   0.369E+01 0.655E-01
CGA:  13    -0.335326749987E+03   -0.26434E+00   -0.25809E+00  7904   0.835E+01 0.180E+00
CGA:  14    -0.335432734000E+03   -0.10598E+00   -0.11495E+00  7904   0.137E+01-0.555E+00
CGA:  15    -0.335457727788E+03   -0.24994E-01   -0.27279E-01  7904   0.426E+00-0.281E-01
CGA:  16    -0.335464530563E+03   -0.68028E-02   -0.70894E-02  7904   0.296E+00-0.934E-02
CGA:  17    -0.335488196811E+03   -0.23666E-01   -0.23761E-01  7904   0.652E+00-0.215E-02
CGA:  18    -0.335499756907E+03   -0.11560E-01   -0.11964E-01  7904   0.201E+00-0.110E-01
CGA:  19    -0.335504204571E+03   -0.44477E-02   -0.44256E-02  7904   0.669E-01 0.240E-03
CGA:  20    -0.335506478028E+03   -0.22735E-02   -0.22757E-02  7904   0.935E-01 0.477E-03
CGA:  21    -0.335509658938E+03   -0.31809E-02   -0.31819E-02  7904   0.513E-01 0.200E-03
CGA:  22    -0.335510994309E+03   -0.13354E-02   -0.13348E-02  7904   0.334E-01-0.333E-04
CGA:  23    -0.335511722745E+03   -0.72844E-03   -0.71894E-03  7904   0.144E-01 0.783E-04
CGA:  24    -0.335512350872E+03   -0.62813E-03   -0.62916E-03  7904   0.347E-01-0.886E-04
CGA:  25    -0.335513517002E+03   -0.11661E-02   -0.11667E-02  7904   0.299E-01 0.186E-03
CGA:  26    -0.335514212563E+03   -0.69556E-03   -0.69832E-03  7904   0.115E-01-0.175E-04
CGA:  27    -0.335514402690E+03   -0.19013E-03   -0.19176E-03  7904   0.335E-02-0.478E-04
CGA:  28    -0.335514668278E+03   -0.26559E-03   -0.26512E-03  7904   0.128E-01 0.991E-05
CGA:  29    -0.335515064481E+03   -0.39620E-03   -0.39760E-03  7904   0.650E-02 0.116E-03
CGA:  30    -0.335515236801E+03   -0.17232E-03   -0.17234E-03  7904   0.317E-02 0.112E-04
CGA:  31    -0.335515302403E+03   -0.65602E-04   -0.65967E-04  7904   0.217E-02 0.557E-05
CGA:  32    -0.335515399774E+03   -0.97371E-04   -0.97193E-04  7904   0.401E-02 0.147E-04
CGA:  33    -0.335515512491E+03   -0.11272E-03   -0.11285E-03  7904   0.346E-02 0.122E-04
CGA:  34    -0.335515629740E+03   -0.11725E-03   -0.11726E-03  7904   0.141E-02 0.965E-05
CGA:  35    -0.335515654668E+03   -0.24929E-04   -0.24947E-04  7904   0.602E-03 0.747E-06
CGA:  36    -0.335515693925E+03   -0.39257E-04   -0.39191E-04  7904   0.139E-02 0.207E-05
CGA:  37    -0.335515728051E+03   -0.34126E-04   -0.34179E-04  7904   0.933E-03 0.323E-05
CGA:  38    -0.335515750200E+03   -0.22149E-04   -0.22164E-04  7904   0.484E-03 0.114E-05
CGA:  39    -0.335515763478E+03   -0.13278E-04   -0.13310E-04  7904   0.553E-03 0.383E-05
CGA:  40    -0.335515794200E+03   -0.30723E-04   -0.30529E-04  7904   0.485E-03 0.924E-05
SDA:  41    -0.335515804169E+03   -0.99689E-05   -0.10068E-04  7904   0.237E-03 0.516E-05
  18 F= -.33551580E+03 E0= -.33549010E+03  d E =0.822936E-02  mag=    32.0000
       N       E                     dE             d eps       ncg     rms          ort
SDA:   1    -0.290324547934E+03    0.45191E+02    0.00000E+00  7904   0.110E+04 0.000E+00
CGA:   2    -0.323443675819E+03   -0.33119E+02   -0.29475E+02  7904   0.536E+03-0.506E+03
CGA:   3    -0.326503273866E+03   -0.30596E+01   -0.43685E+01  7904   0.297E+03-0.134E+03
CGA:   4    -0.330576421974E+03   -0.40731E+01   -0.42299E+01  7904   0.722E+02 0.480E+02
CGA:   5    -0.331277305630E+03   -0.70088E+00   -0.27065E+00  7904   0.875E+02 0.129E+03
CGA:   6    -0.332314905060E+03   -0.10376E+01   -0.54621E+00  7904   0.359E+02 0.656E+02
CGA:   7    -0.332757239528E+03   -0.44233E+00   -0.33129E+00  7904   0.114E+02 0.966E+01
CGA:   8    -0.333157602566E+03   -0.40036E+00   -0.25014E+00  7904   0.216E+02 0.353E+01
CGA:   9    -0.333242835769E+03   -0.85233E-01   -0.53249E-01  7904   0.222E+02 0.161E+02
CGA:  10    -0.333442967648E+03   -0.20013E+00   -0.24425E+00  7904   0.842E+01-0.254E+01
CGA:  11    -0.333733447764E+03   -0.29048E+00   -0.50743E+00  7904   0.347E+02-0.645E+01
CGA:  12    -0.334176503636E+03   -0.44306E+00   -0.53418E+00  7904   0.873E+01-0.184E+01
CGA:  13    -0.334301579690E+03   -0.12508E+00   -0.12044E+00  7904   0.375E+01 0.141E+00
CGA:  14    -0.334921716088E+03   -0.62014E+00   -0.35938E-01  7904   0.235E+02 0.902E-01
CGA:  15    -0.335265493793E+03   -0.34378E+00   -0.28603E+00  7904   0.173E+01 0.387E+01
CGA:  16    -0.335361573839E+03   -0.96080E-01   -0.85273E-01  7904   0.375E+01-0.116E+01
CGA:  17    -0.335393724204E+03   -0.32150E-01   -0.42931E-01  7904   0.809E+00-0.767E+00
CGA:  18    -0.335406301960E+03   -0.12578E-01   -0.12249E-01  7904   0.366E+00 0.107E-01
CGA:  19    -0.335420010489E+03   -0.13709E-01   -0.13731E-01  7904   0.841E+00 0.138E-02
CGA:  20    -0.335468058881E+03   -0.48048E-01   -0.47971E-01  7904   0.431E+00 0.396E-02
CGA:  21    -0.335475136456E+03   -0.70776E-02   -0.70950E-02  7904   0.152E+00-0.714E-03
CGA:  22    -0.335480974012E+03   -0.58376E-02   -0.58422E-02  7904   0.232E+00 0.569E-03
CGA:  23    -0.335488900051E+03   -0.79260E-02   -0.79712E-02  7904   0.383E+00 0.178E-02
CGA:  24    -0.335500205570E+03   -0.11306E-01   -0.11253E-01  7904   0.128E+00-0.337E-03
CGA:  25    -0.335502139720E+03   -0.19342E-02   -0.19611E-02  7904   0.348E-01-0.119E-02
CGA:  26    -0.335504158385E+03   -0.20187E-02   -0.20203E-02  7904   0.823E-01-0.703E-04
CGA:  27    -0.335505929416E+03   -0.17710E-02   -0.17960E-02  7904   0.270E-01-0.434E-03
CGA:  28    -0.335506448729E+03   -0.51931E-03   -0.51867E-03  7904   0.185E-01 0.124E-04
CGA:  29    -0.335507222387E+03   -0.77366E-03   -0.77344E-03  7904   0.242E-01 0.423E-04
CGA:  30    -0.335508114468E+03   -0.89208E-03   -0.89219E-03  7904   0.256E-01 0.310E-04
CGA:  31    -0.335508731556E+03   -0.61709E-03   -0.62147E-03  7904   0.734E-02-0.113E-04
CGA:  32    -0.335508891852E+03   -0.16030E-03   -0.16010E-03  7904   0.735E-02 0.334E-05
CGA:  33    -0.335509351444E+03   -0.45959E-03   -0.45798E-03  7904   0.186E-01 0.590E-04
CGA:  34    -0.335509743563E+03   -0.39212E-03   -0.39153E-03  7904   0.396E-02 0.181E-04
CGA:  35    -0.335509846357E+03   -0.10279E-03   -0.10313E-03  7904   0.320E-02 0.670E-05
CGA:  36    -0.335509963265E+03   -0.11691E-03   -0.11691E-03  7904   0.340E-02 0.462E-05
CGA:  37    -0.335510075146E+03   -0.11188E-03   -0.11195E-03  7904   0.404E-02 0.784E-05
CGA:  38    -0.335510162542E+03   -0.87397E-04   -0.87335E-04  7904   0.114E-02-0.336E-05
CGA:  39    -0.335510182852E+03   -0.20310E-04   -0.20324E-04  7904   0.499E-03-0.348E-07
CGA:  40    -0.335510213829E+03   -0.30977E-04   -0.30960E-04  7904   0.118E-02 0.470E-06
CGA:  41    -0.335510249504E+03   -0.35675E-04   -0.35702E-04  7904   0.773E-03 0.349E-05
CGA:  42    -0.335510267980E+03   -0.18477E-04   -0.18489E-04  7904   0.434E-03 0.877E-06
CGA:  43    -0.335510276377E+03   -0.83973E-05   -0.84284E-05  7904   0.222E-03 0.131E-05
CGA:  44    -0.335510288538E+03   -0.12161E-04   -0.12167E-04  7904   0.636E-03-0.374E-06
CGA:  45    -0.335510315315E+03   -0.26777E-04   -0.26764E-04  7904   0.257E-03 0.145E-05
CGA:  46    -0.335510319441E+03   -0.41256E-05   -0.41124E-05  7904   0.870E-04-0.685E-06
  19 F= -.33551032E+03 E0= -.33548501E+03  d E =0.548473E-02  mag=    32.0000
       N       E                     dE             d eps       ncg     rms          ort
SDA:   1    -0.334894452822E+03    0.61586E+00    0.00000E+00  7904   0.102E+02 0.000E+00
CGA:   2    -0.334999877807E+03   -0.10542E+00   -0.89662E-01  7904   0.141E+01 0.151E+01
CGA:   3    -0.335068896973E+03   -0.69019E-01   -0.69612E-01  7904   0.638E+01-0.482E-01
CGA:   4    -0.335227000388E+03   -0.15810E+00   -0.15676E+00  7904   0.976E+01-0.170E-01
CGA:   5    -0.335328360085E+03   -0.10136E+00   -0.10340E+00  7904   0.411E+01-0.133E+00
CGA:   6    -0.335377657510E+03   -0.49297E-01   -0.52984E-01  7904   0.259E+01-0.191E+00
CGA:   7    -0.335406231176E+03   -0.28574E-01   -0.27506E-01  7904   0.864E+00 0.870E-01
CGA:   8    -0.335416824699E+03   -0.10594E-01   -0.10441E-01  7904   0.712E+00 0.937E-02
CGA:   9    -0.335446295221E+03   -0.29471E-01   -0.29364E-01  7904   0.259E+01 0.766E-02
CGA:  10    -0.335483701486E+03   -0.37406E-01   -0.36927E-01  7904   0.753E+00 0.203E-01
CGA:  11    -0.335490656276E+03   -0.69548E-02   -0.68097E-02  7904   0.294E+00 0.126E-01
CGA:  12    -0.335495732664E+03   -0.50764E-02   -0.52675E-02  7904   0.220E+00-0.193E-02
CGA:  13    -0.335498195703E+03   -0.24630E-02   -0.25212E-02  7904   0.113E+00-0.318E-02
CGA:  14    -0.335503228818E+03   -0.50331E-02   -0.49989E-02  7904   0.415E+00 0.175E-02
CGA:  15    -0.335510348358E+03   -0.71195E-02   -0.70634E-02  7904   0.103E+00 0.969E-03
CGA:  16    -0.335511578596E+03   -0.12302E-02   -0.12077E-02  7904   0.480E-01 0.123E-02
CGA:  17    -0.335512501329E+03   -0.92273E-03   -0.91469E-03  7904   0.357E-01-0.592E-04
CGA:  18    -0.335513072684E+03   -0.57136E-03   -0.57243E-03  7904   0.307E-01-0.442E-05
CGA:  19    -0.335514076188E+03   -0.10035E-02   -0.10032E-02  7904   0.765E-01 0.345E-04
CGA:  20    -0.335515557356E+03   -0.14812E-02   -0.14854E-02  7904   0.295E-01 0.996E-04
CGA:  21    -0.335515885721E+03   -0.32837E-03   -0.32882E-03  7904   0.156E-01-0.250E-04
CGA:  22    -0.335516389989E+03   -0.50427E-03   -0.50618E-03  7904   0.223E-01-0.198E-03
CGA:  23    -0.335516659549E+03   -0.26956E-03   -0.26855E-03  7904   0.114E-01 0.171E-04
CGA:  24    -0.335517012840E+03   -0.35329E-03   -0.35318E-03  7904   0.196E-01 0.101E-04
CGA:  25    -0.335517230598E+03   -0.21776E-03   -0.21889E-03  7904   0.325E-02-0.507E-04
CGA:  26    -0.335517290240E+03   -0.59643E-04   -0.59735E-04  7904   0.494E-02 0.655E-05
CGA:  27    -0.335517452676E+03   -0.16244E-03   -0.16234E-03  7904   0.622E-02 0.983E-05
CGA:  28    -0.335517570849E+03   -0.11817E-03   -0.11811E-03  7904   0.790E-02-0.213E-05
CGA:  29    -0.335517757207E+03   -0.18636E-03   -0.18634E-03  7904   0.402E-02-0.831E-05
CGA:  30    -0.335517794485E+03   -0.37278E-04   -0.37406E-04  7904   0.783E-03-0.381E-05
CGA:  31    -0.335517810135E+03   -0.15650E-04   -0.15655E-04  7904   0.113E-02 0.577E-06
SDA:  32    -0.335517848481E+03   -0.38346E-04   -0.38336E-04  7904   0.188E-02 0.242E-06
CGA:  33    -0.335517873615E+03   -0.25134E-04   -0.25133E-04  7904   0.715E-03-0.123E-05
CGA:  34    -0.335517891695E+03   -0.18080E-04   -0.18096E-04  7904   0.344E-03-0.708E-05
CGA:  35    -0.335517915537E+03   -0.23842E-04   -0.23961E-04  7904   0.160E-02-0.250E-05
CGA:  36    -0.335517970991E+03   -0.55454E-04   -0.55514E-04  7904   0.124E-03-0.699E-05
CGA:  37    -0.335517983316E+03   -0.12325E-04   -0.12250E-04  7904   0.180E-03 0.989E-06
CGA:  38    -0.335517992960E+03   -0.96440E-05   -0.95813E-05  7904   0.121E-03 0.272E-05
  20 F= -.33551799E+03 E0= -.33549260E+03  d E =-.767352E-02  mag=    32.0000
       N       E                     dE             d eps       ncg     rms          ort
SDA:   1    -0.335089706879E+03    0.42828E+00    0.00000E+00  7904   0.420E+01 0.000E+00
CGA:   2    -0.335149804140E+03   -0.60097E-01   -0.59719E-01  7904   0.164E+01 0.196E-01
CGA:   3    -0.335264991665E+03   -0.11519E+00   -0.10534E+00  7904   0.228E+01 0.277E+00
CGA:   4    -0.335341737262E+03   -0.76746E-01   -0.77042E-01  7904   0.359E+01 0.520E-01
CGA:   5    -0.335444116277E+03   -0.10238E+00   -0.98108E-01  7904   0.597E+00-0.301E+00
CGA:   6    -0.335462954085E+03   -0.18838E-01   -0.18787E-01  7904   0.782E+00 0.901E-02
CGA:   7    -0.335486284864E+03   -0.23331E-01   -0.23314E-01  7904   0.436E+00-0.422E-02
CGA:   8    -0.335506815062E+03   -0.20530E-01   -0.20359E-01  7904   0.316E+00 0.887E-02
CGA:   9    -0.335512261199E+03   -0.54461E-02   -0.54016E-02  7904   0.776E-01 0.116E-02
CGA:  10    -0.335516245704E+03   -0.39845E-02   -0.39939E-02  7904   0.106E+00-0.422E-03
CGA:  11    -0.335518821245E+03   -0.25755E-02   -0.25698E-02  7904   0.878E-01-0.146E-03
CGA:  12    -0.335521462204E+03   -0.26410E-02   -0.26430E-02  7904   0.484E-01 0.590E-03
CGA:  13    -0.335522172831E+03   -0.71063E-03   -0.70964E-03  7904   0.109E-01 0.337E-04
CGA:  14    -0.335522797690E+03   -0.62486E-03   -0.62895E-03  7904   0.185E-01-0.148E-03
CGA:  15    -0.335523292102E+03   -0.49441E-03   -0.49442E-03  7904   0.132E-01 0.555E-06
CGA:  16    -0.335523821286E+03   -0.52918E-03   -0.52828E-03  7904   0.548E-02 0.811E-04
CGA:  17    -0.335523918681E+03   -0.97396E-04   -0.97297E-04  7904   0.333E-02 0.888E-06
CGA:  18    -0.335524081878E+03   -0.16320E-03   -0.16312E-03  7904   0.591E-02 0.387E-05
CGA:  19    -0.335524213798E+03   -0.13192E-03   -0.13178E-03  7904   0.320E-02-0.404E-05
CGA:  20    -0.335524334114E+03   -0.12032E-03   -0.12013E-03  7904   0.130E-02 0.240E-04
CGA:  21    -0.335524361806E+03   -0.27691E-04   -0.27695E-04  7904   0.888E-03 0.455E-06
CGA:  22    -0.335524424754E+03   -0.62949E-04   -0.62774E-04  7904   0.150E-02 0.444E-05
CGA:  23    -0.335524462165E+03   -0.37410E-04   -0.37410E-04  7904   0.134E-02 0.934E-06
CGA:  24    -0.335524495558E+03   -0.33393E-04   -0.33465E-04  7904   0.519E-03 0.535E-05
CGA:  25    -0.335524505785E+03   -0.10227E-04   -0.10235E-04  7904   0.327E-03 0.625E-06
CGA:  26    -0.335524526487E+03   -0.20702E-04   -0.20664E-04  7904   0.440E-03 0.120E-05
CGA:  27    -0.335524540961E+03   -0.14474E-04   -0.14475E-04  7904   0.458E-03 0.603E-06
CGA:  28    -0.335524553572E+03   -0.12611E-04   -0.12619E-04  7904   0.166E-03 0.111E-05
CGA:  29    -0.335524557976E+03   -0.44034E-05   -0.44037E-05  7904   0.234E-03 0.109E-06
  21 F= -.33552456E+03 E0= -.33549930E+03  d E =-.656502E-02  mag=    32.0000
       N       E                     dE             d eps       ncg     rms          ort
SDA:   1    -0.334902565587E+03    0.62199E+00    0.00000E+00  7904   0.424E+01 0.000E+00
CGA:   2    -0.334980646772E+03   -0.78081E-01   -0.73659E-01  7904   0.303E+01 0.115E+00
CGA:   3    -0.335124405200E+03   -0.14376E+00   -0.13608E+00  7904   0.328E+01 0.496E+00
CGA:   4    -0.335249908281E+03   -0.12550E+00   -0.12549E+00  7904   0.562E+01-0.285E-01
CGA:   5    -0.335431438871E+03   -0.18153E+00   -0.18099E+00  7904   0.574E+00-0.424E+00
CGA:   6    -0.335453660324E+03   -0.22221E-01   -0.22365E-01  7904   0.131E+01-0.114E-01
CGA:   7    -0.335485289995E+03   -0.31630E-01   -0.31992E-01  7904   0.567E+00 0.689E-02
CGA:   8    -0.335509629587E+03   -0.24340E-01   -0.24539E-01  7904   0.526E+00-0.152E-01
CGA:   9    -0.335516144619E+03   -0.65150E-02   -0.65935E-02  7904   0.789E-01-0.429E-02
CGA:  10    -0.335521563983E+03   -0.54194E-02   -0.52904E-02  7904   0.729E-01 0.369E-02
CGA:  11    -0.335524318823E+03   -0.27548E-02   -0.27544E-02  7904   0.101E+00 0.123E-03
CGA:  12    -0.335526496914E+03   -0.21781E-02   -0.21463E-02  7904   0.177E-01 0.276E-03
CGA:  13    -0.335527575672E+03   -0.10788E-02   -0.10677E-02  7904   0.225E-01 0.391E-03
CGA:  14    -0.335528031531E+03   -0.45586E-03   -0.45626E-03  7904   0.165E-01 0.330E-05
CGA:  15    -0.335528765715E+03   -0.73418E-03   -0.73593E-03  7904   0.884E-02-0.123E-03
CGA:  16    -0.335528913124E+03   -0.14741E-03   -0.14702E-03  7904   0.558E-02 0.972E-05
CGA:  17    -0.335529158065E+03   -0.24494E-03   -0.24368E-03  7904   0.323E-02 0.961E-04
CGA:  18    -0.335529379896E+03   -0.22183E-03   -0.22221E-03  7904   0.504E-02-0.115E-04
CGA:  19    -0.335529461068E+03   -0.81172E-04   -0.81155E-04  7904   0.146E-02-0.132E-05
CGA:  20    -0.335529536324E+03   -0.75256E-04   -0.74979E-04  7904   0.972E-03 0.142E-04
CGA:  21    -0.335529583447E+03   -0.47123E-04   -0.47046E-04  7904   0.244E-02 0.564E-05
CGA:  22    -0.335529646114E+03   -0.62667E-04   -0.62543E-04  7904   0.909E-03 0.765E-06
CGA:  23    -0.335529676525E+03   -0.30411E-04   -0.30421E-04  7904   0.949E-03 0.358E-05
CGA:  24    -0.335529693002E+03   -0.16477E-04   -0.16515E-04  7904   0.303E-03 0.134E-05
CGA:  25    -0.335529721944E+03   -0.28942E-04   -0.28643E-04  7904   0.494E-03 0.514E-05
CGA:  26    -0.335529735928E+03   -0.13984E-04   -0.13993E-04  7904   0.562E-03 0.589E-06
CGA:  27    -0.335529752194E+03   -0.16265E-04   -0.16280E-04  7904   0.164E-03 0.191E-05
CGA:  28    -0.335529759363E+03   -0.71694E-05   -0.71579E-05  7904   0.356E-03 0.161E-05
[...]
CGA:  12    -0.335518933303E+03   -0.45705E-04   -0.45855E-04  7904   0.456E-03 0.188E-05
CGA:  13    -0.335518965782E+03   -0.32480E-04   -0.32298E-04  7904   0.898E-03 0.501E-05
CGA:  14    -0.335518991557E+03   -0.25774E-04   -0.25781E-04  7904   0.738E-03 0.818E-06
CGA:  15    -0.335519007645E+03   -0.16088E-04   -0.16060E-04  7904   0.128E-03-0.923E-06
CGA:  16    -0.335519010876E+03   -0.32306E-05   -0.32387E-05  7904   0.187E-03 0.788E-06
CGA:  17    -0.335519024166E+03   -0.13290E-04   -0.13222E-04  7904   0.105E-03 0.189E-05
CGA:  18    -0.335519027233E+03   -0.30668E-05   -0.30651E-05  7904   0.759E-04-0.253E-06
 178 F= -.33551903E+03 E0= -.33549399E+03  d E =0.119636E-02  mag=    32.0000
       N       E                     dE             d eps       ncg     rms          ort
SDA:   1    -0.335355447178E+03    0.16358E+00    0.00000E+00  7904   0.991E+00 0.000E+00
CGA:   2    -0.335375278628E+03   -0.19831E-01   -0.20525E-01  7904   0.772E+00-0.803E-02
CGA:   3    -0.335415867844E+03   -0.40589E-01   -0.41165E-01  7904   0.128E+01-0.261E-01
CGA:   4    -0.335476017926E+03   -0.60150E-01   -0.60027E-01  7904   0.704E+00 0.707E-02
CGA:   5    -0.335485031147E+03   -0.90132E-02   -0.87622E-02  7904   0.153E+00 0.149E-01
CGA:   6    -0.335493939677E+03   -0.89085E-02   -0.88828E-02  7904   0.360E+00 0.101E-02
CGA:   7    -0.335503504441E+03   -0.95648E-02   -0.95675E-02  7904   0.170E+00 0.161E-04
CGA:   8    -0.335509399516E+03   -0.58951E-02   -0.58874E-02  7904   0.397E-01-0.579E-02
CGA:   9    -0.335510329572E+03   -0.93006E-03   -0.93148E-03  7904   0.362E-01 0.110E-04
CGA:  10    -0.335512182722E+03   -0.18532E-02   -0.18508E-02  7904   0.312E-01 0.124E-03
CGA:  11    -0.335512806045E+03   -0.62332E-03   -0.62608E-03  7904   0.173E-01-0.220E-04
CGA:  12    -0.335513163105E+03   -0.35706E-03   -0.35710E-03  7904   0.592E-02 0.848E-05
CGA:  13    -0.335513429867E+03   -0.26676E-03   -0.26689E-03  7904   0.105E-01-0.842E-05
CGA:  14    -0.335513748569E+03   -0.31870E-03   -0.31855E-03  7904   0.391E-02-0.118E-04
CGA:  15    -0.335513862751E+03   -0.11418E-03   -0.11427E-03  7904   0.136E-02 0.836E-05
CGA:  16    -0.335513907752E+03   -0.45001E-04   -0.45005E-04  7904   0.213E-02 0.249E-05
CGA:  17    -0.335514036878E+03   -0.12913E-03   -0.12901E-03  7904   0.146E-02 0.425E-05
CGA:  18    -0.335514055869E+03   -0.18992E-04   -0.18929E-04  7904   0.360E-03 0.375E-08
CGA:  19    -0.335514070586E+03   -0.14717E-04   -0.14729E-04  7904   0.463E-03-0.166E-05
CGA:  20    -0.335514087294E+03   -0.16708E-04   -0.16712E-04  7904   0.619E-03-0.241E-05
CGA:  21    -0.335514116002E+03   -0.28707E-04   -0.28687E-04  7904   0.269E-03 0.151E-05
CGA:  22    -0.335514122358E+03   -0.63560E-05   -0.63470E-05  7904   0.143E-03-0.561E-06
 179 F= -.33551412E+03 E0= -.33548903E+03  d E =0.490488E-02  mag=    32.0000
       N       E                     dE             d eps       ncg     rms          ort
SDA:   1    -0.335487067878E+03    0.27048E-01    0.00000E+00  7904   0.149E+01 0.000E+00
CGA:   2    -0.335501359582E+03   -0.14292E-01   -0.16061E-01  7904   0.205E+00-0.127E+00
CGA:   3    -0.335504902959E+03   -0.35434E-02   -0.35031E-02  7904   0.369E-01 0.821E-03
CGA:   4    -0.335506247949E+03   -0.13450E-02   -0.13447E-02  7904   0.803E-01 0.510E-04
CGA:   5    -0.335510772061E+03   -0.45241E-02   -0.45190E-02  7904   0.386E-01 0.197E-03
CGA:   6    -0.335511815403E+03   -0.10433E-02   -0.10394E-02  7904   0.315E-01-0.130E-03
CGA:   7    -0.335512372310E+03   -0.55691E-03   -0.55244E-03  7904   0.971E-02 0.112E-03
CGA:   8    -0.335513282827E+03   -0.91052E-03   -0.90503E-03  7904   0.176E-01 0.969E-04
CGA:   9    -0.335513536847E+03   -0.25402E-03   -0.25350E-03  7904   0.238E-02 0.436E-04
CGA:  10    -0.335513772753E+03   -0.23591E-03   -0.23566E-03  7904   0.631E-02 0.420E-05
CGA:  11    -0.335513862105E+03   -0.89352E-04   -0.88981E-04  7904   0.114E-02 0.952E-05
CGA:  12    -0.335513895231E+03   -0.33126E-04   -0.33082E-04  7904   0.640E-03-0.341E-05
CGA:  13    -0.335513913859E+03   -0.18628E-04   -0.18618E-04  7904   0.790E-03-0.153E-05
CGA:  14    -0.335513956576E+03   -0.42718E-04   -0.42736E-04  7904   0.381E-03-0.120E-05
CGA:  15    -0.335513966017E+03   -0.94409E-05   -0.94216E-05  7904   0.213E-03-0.140E-05
 180 F= -.33551397E+03 E0= -.33548885E+03  d E =0.156341E-03  mag=    32.0000
       N       E                     dE             d eps       ncg     rms          ort
SDA:   1    -0.335346864992E+03    0.16709E+00    0.00000E+00  7904   0.103E+02 0.000E+00
CGA:   2    -0.335445773391E+03   -0.98908E-01   -0.77041E-01  7904   0.820E+00 0.248E+01
CGA:   3    -0.335455963001E+03   -0.10190E-01   -0.96877E-02  7904   0.345E+00 0.418E-01
CGA:   4    -0.335464436495E+03   -0.84735E-02   -0.88097E-02  7904   0.336E+00 0.667E-02
CGA:   5    -0.335471215001E+03   -0.67785E-02   -0.68579E-02  7904   0.514E+00-0.708E-03
CGA:   6    -0.335494913134E+03   -0.23698E-01   -0.23817E-01  7904   0.700E+00-0.672E-02
CGA:   7    -0.335501676284E+03   -0.67632E-02   -0.64560E-02  7904   0.111E+00 0.263E-01
CGA:   8    -0.335503336958E+03   -0.16607E-02   -0.16361E-02  7904   0.883E-01 0.101E-02
CGA:   9    -0.335505355801E+03   -0.20188E-02   -0.20167E-02  7904   0.102E+00-0.157E-04
CGA:  10    -0.335507205121E+03   -0.18493E-02   -0.18553E-02  7904   0.106E+00-0.282E-04
CGA:  11    -0.335510046801E+03   -0.28417E-02   -0.28415E-02  7904   0.148E+00 0.976E-05
CGA:  12    -0.335511752901E+03   -0.17061E-02   -0.16896E-02  7904   0.206E-01 0.108E-02
CGA:  13    -0.335511956366E+03   -0.20346E-03   -0.20439E-03  7904   0.925E-02-0.602E-04
CGA:  14    -0.335512307146E+03   -0.35078E-03   -0.35019E-03  7904   0.211E-01 0.413E-04
CGA:  15    -0.335512628627E+03   -0.32148E-03   -0.32059E-03  7904   0.128E-01-0.447E-05
CGA:  16    -0.335512987657E+03   -0.35903E-03   -0.35914E-03  7904   0.159E-01-0.912E-04
CGA:  17    -0.335513150973E+03   -0.16332E-03   -0.16295E-03  7904   0.236E-02 0.185E-05
CGA:  18    -0.335513189918E+03   -0.38945E-04   -0.39003E-04  7904   0.291E-02 0.207E-05
CGA:  19    -0.335513270343E+03   -0.80425E-04   -0.80378E-04  7904   0.279E-02 0.198E-04
CGA:  20    -0.335513316472E+03   -0.46129E-04   -0.46111E-04  7904   0.296E-02 0.640E-06
CGA:  21    -0.335513389188E+03   -0.72715E-04   -0.72705E-04  7904   0.161E-02-0.363E-05
CGA:  22    -0.335513404469E+03   -0.15281E-04   -0.15334E-04  7904   0.536E-03-0.785E-06
CGA:  23    -0.335513428097E+03   -0.23628E-04   -0.23574E-04  7904   0.190E-02 0.269E-05
CGA:  24    -0.335513460516E+03   -0.32420E-04   -0.32423E-04  7904   0.681E-03-0.550E-06
CGA:  25    -0.335513471871E+03   -0.11355E-04   -0.11329E-04  7904   0.599E-03-0.255E-05
CGA:  26    -0.335513481058E+03   -0.91863E-05   -0.91557E-05  7904   0.176E-03-0.196E-05
 181 F= -.33551348E+03 E0= -.33548842E+03  d E =0.484960E-03  mag=    32.0000
       N       E                     dE             d eps       ncg     rms          ort
SDA:   1    -0.335477161778E+03    0.36310E-01    0.00000E+00  7904   0.347E+01 0.000E+00
CGA:   2    -0.335505313127E+03   -0.28151E-01   -0.30693E-01  7904   0.707E-01-0.206E+00
CGA:   3    -0.335506880956E+03   -0.15678E-02   -0.15683E-02  7904   0.527E-01-0.696E-03
CGA:   4    -0.335508402775E+03   -0.15218E-02   -0.15199E-02  7904   0.515E-01 0.230E-03
CGA:   5    -0.335511150127E+03   -0.27474E-02   -0.27426E-02  7904   0.399E-01 0.167E-03
CGA:   6    -0.335511757231E+03   -0.60710E-03   -0.60969E-03  7904   0.133E-01-0.218E-04
CGA:   7    -0.335512400139E+03   -0.64291E-03   -0.64325E-03  7904   0.171E-01-0.144E-04
CGA:   8    -0.335512972036E+03   -0.57190E-03   -0.57171E-03  7904   0.204E-01 0.111E-04
CGA:   9    -0.335513417833E+03   -0.44580E-03   -0.44486E-03  7904   0.277E-02-0.899E-04
CGA:  10    -0.335513505538E+03   -0.87706E-04   -0.87704E-04  7904   0.494E-02-0.137E-05
CGA:  11    -0.335513736252E+03   -0.23071E-03   -0.23136E-03  7904   0.185E-02-0.307E-04
CGA:  12    -0.335513767278E+03   -0.31026E-04   -0.31062E-04  7904   0.876E-03 0.106E-05
CGA:  13    -0.335513799214E+03   -0.31936E-04   -0.31890E-04  7904   0.627E-03 0.428E-05
CGA:  14    -0.335513823445E+03   -0.24231E-04   -0.24164E-04  7904   0.108E-02 0.589E-05
CGA:  15    -0.335513852454E+03   -0.29009E-04   -0.29012E-04  7904   0.150E-03 0.352E-05
CGA:  16    -0.335513855222E+03   -0.27685E-05   -0.27757E-05  7904   0.110E-03 0.712E-06
 182 F= -.33551386E+03 E0= -.33548878E+03  d E =-.374165E-03  mag=    32.0000
       N       E                     dE             d eps       ncg     rms          ort
SDA:   1    -0.335418445149E+03    0.95407E-01    0.00000E+00  7904   0.296E+01 0.000E+00
CGA:   2    -0.335454225256E+03   -0.35780E-01   -0.35647E-01  7904   0.510E+00 0.579E-02
CGA:   3    -0.335464342658E+03   -0.10117E-01   -0.10354E-01  7904   0.200E+00 0.148E-02
CGA:   4    -0.335486530919E+03   -0.22188E-01   -0.22533E-01  7904   0.861E+00-0.518E-02
CGA:   5    -0.335499507822E+03   -0.12977E-01   -0.13242E-01  7904   0.141E+00-0.907E-02
CGA:   6    -0.335503842517E+03   -0.43347E-02   -0.43416E-02  7904   0.575E-01 0.269E-02
CGA:   7    -0.335506712802E+03   -0.28703E-02   -0.28614E-02  7904   0.160E+00 0.441E-03
CGA:   8    -0.335511545370E+03   -0.48326E-02   -0.48272E-02  7904   0.403E-01-0.782E-03
CGA:   9    -0.335512337541E+03   -0.79217E-03   -0.78518E-03  7904   0.161E-01 0.760E-04
CGA:  10    -0.335512693563E+03   -0.35602E-03   -0.35520E-03  7904   0.103E-01-0.776E-05
CGA:  11    -0.335513594612E+03   -0.90105E-03   -0.89757E-03  7904   0.151E-01 0.653E-04
CGA:  12    -0.335513798508E+03   -0.20390E-03   -0.20314E-03  7904   0.333E-02 0.505E-04
CGA:  13    -0.335513916297E+03   -0.11779E-03   -0.11774E-03  7904   0.157E-02 0.180E-04
CGA:  14    -0.335513982435E+03   -0.66139E-04   -0.66198E-04  7904   0.366E-02-0.630E-05
CGA:  15    -0.335514092138E+03   -0.10970E-03   -0.10968E-03  7904   0.777E-03-0.463E-05
CGA:  16    -0.335514112432E+03   -0.20293E-04   -0.20300E-04  7904   0.812E-03 0.382E-06
CGA:  17    -0.335514141792E+03   -0.29360E-04   -0.29350E-04  7904   0.848E-03 0.335E-05
CGA:  18    -0.335514174372E+03   -0.32580E-04   -0.32579E-04  7904   0.316E-03 0.250E-06
CGA:  19    -0.335514178545E+03   -0.41738E-05   -0.41906E-05  7904   0.101E-03 0.342E-06
CGA:  20    -0.335514193102E+03   -0.14557E-04   -0.14552E-04  7904   0.280E-03-0.575E-08
CGA:  21    -0.335514197839E+03   -0.47366E-05   -0.47646E-05  7904   0.118E-03 0.100E-05
 183 F= -.33551420E+03 E0= -.33548905E+03  d E =-.342617E-03  mag=    32.0000
       N       E                     dE             d eps       ncg     rms          ort
SDA:   1    -0.335487826097E+03    0.26367E-01    0.00000E+00  7904   0.835E+00 0.000E+00
CGA:   2    -0.335495661927E+03   -0.78358E-02   -0.74211E-02  7904   0.743E-01 0.387E-01
CGA:   3    -0.335499933745E+03   -0.42718E-02   -0.42459E-02  7904   0.129E+00 0.112E-02
CGA:   4    -0.335503829283E+03   -0.38955E-02   -0.39050E-02  7904   0.219E+00 0.391E-03
CGA:   5    -0.335509893443E+03   -0.60642E-02   -0.60673E-02  7904   0.348E-01 0.459E-04
CGA:   6    -0.335510960774E+03   -0.10673E-02   -0.10640E-02  7904   0.455E-01-0.227E-03
CGA:   7    -0.335511839174E+03   -0.87840E-03   -0.87576E-03  7904   0.294E-01 0.750E-04
CGA:   8    -0.335513591410E+03   -0.17522E-02   -0.17449E-02  7904   0.285E-01 0.277E-03
CGA:   9    -0.335513907681E+03   -0.31627E-03   -0.31344E-03  7904   0.523E-02 0.222E-03
CGA:  10    -0.335514165062E+03   -0.25738E-03   -0.25799E-03  7904   0.108E-01-0.350E-04
CGA:  11    -0.335514389044E+03   -0.22398E-03   -0.22383E-03  7904   0.505E-02-0.465E-05
CGA:  12    -0.335514531301E+03   -0.14226E-03   -0.14233E-03  7904   0.380E-02-0.657E-06
CGA:  13    -0.335514582232E+03   -0.50931E-04   -0.51000E-04  7904   0.795E-03-0.526E-05
CGA:  14    -0.335514660052E+03   -0.77819E-04   -0.77804E-04  7904   0.319E-02 0.392E-06
CGA:  15    -0.335514700091E+03   -0.40039E-04   -0.39920E-04  7904   0.229E-03 0.189E-05
CGA:  16    -0.335514710770E+03   -0.10679E-04   -0.10691E-04  7904   0.442E-03-0.975E-06
CGA:  17    -0.335514720133E+03   -0.93629E-05   -0.93736E-05  7904   0.416E-03 0.232E-06
CGA:  18    -0.335514739929E+03   -0.19796E-04   -0.19792E-04  7904   0.164E-03 0.214E-06
CGA:  19    -0.335514742602E+03   -0.26730E-05   -0.26603E-05  7904   0.104E-03-0.561E-06
 184 F= -.33551474E+03 E0= -.33548962E+03  d E =-.544763E-03  mag=    32.0000
       N       E                     dE             d eps       ncg     rms          ort
SDA:   1    -0.335458121760E+03    0.56618E-01    0.00000E+00  7904   0.736E+00 0.000E+00
CGA:   2    -0.335467066758E+03   -0.89450E-02   -0.85873E-02  7904   0.212E+00 0.227E-01
CGA:   3    -0.335475557816E+03   -0.84911E-02   -0.85833E-02  7904   0.290E+00-0.997E-02
CGA:   4    -0.335488932034E+03   -0.13374E-01   -0.13359E-01  7904   0.609E+00 0.798E-03
CGA:   5    -0.335502850287E+03   -0.13918E-01   -0.13892E-01  7904   0.958E-01-0.504E-05
CGA:   6    -0.335504730021E+03   -0.18797E-02   -0.18685E-02  7904   0.871E-01 0.203E-03
CGA:   7    -0.335507658353E+03   -0.29283E-02   -0.29294E-02  7904   0.562E-01-0.757E-03
CGA:   8    -0.335510736522E+03   -0.30782E-02   -0.30556E-02  7904   0.548E-01 0.924E-03
CGA:   9    -0.335511422912E+03   -0.68639E-03   -0.69438E-03  7904   0.134E-01-0.410E-03
CGA:  10    -0.335512025712E+03   -0.60280E-03   -0.59928E-03  7904   0.132E-01 0.223E-03
CGA:  11    -0.335512701035E+03   -0.67532E-03   -0.67710E-03  7904   0.999E-02-0.905E-04
CGA:  12    -0.335512837604E+03   -0.13657E-03   -0.13659E-03  7904   0.148E-02-0.867E-05
CGA:  13    -0.335513020214E+03   -0.18261E-03   -0.18353E-03  7904   0.449E-02-0.109E-04
CGA:  14    -0.335513085493E+03   -0.65278E-04   -0.65408E-04  7904   0.146E-02-0.491E-05
CGA:  15    -0.335513127701E+03   -0.42208E-04   -0.42248E-04  7904   0.318E-03 0.136E-05
CGA:  16    -0.335513160628E+03   -0.32927E-04   -0.33146E-04  7904   0.724E-03-0.337E-05
CGA:  17    -0.335513181297E+03   -0.20669E-04   -0.20691E-04  7904   0.673E-03 0.147E-05
CGA:  18    -0.335513191871E+03   -0.10574E-04   -0.10604E-04  7904   0.892E-04-0.604E-07
CGA:  19    -0.335513198860E+03   -0.69889E-05   -0.69324E-05  7904   0.139E-03 0.141E-05
 185 F= -.33551320E+03 E0= -.33548817E+03  d E =0.154374E-02  mag=    32.0000
       N       E                     dE             d eps       ncg     rms          ort
SDA:   1    -0.335487486566E+03    0.25705E-01    0.00000E+00  7904   0.212E+01 0.000E+00
CGA:   2    -0.335508421832E+03   -0.20935E-01   -0.20797E-01  7904   0.361E-01 0.142E-01
CGA:   3    -0.335509293765E+03   -0.87193E-03   -0.87384E-03  7904   0.315E-01-0.287E-05
CGA:   4    -0.335510037369E+03   -0.74360E-03   -0.75192E-03  7904   0.233E-01-0.266E-04
CGA:   5    -0.335512328349E+03   -0.22910E-02   -0.22982E-02  7904   0.966E-02-0.136E-03
CGA:   6    -0.335512543129E+03   -0.21478E-03   -0.21429E-03  7904   0.963E-02 0.307E-05
CGA:   7    -0.335512874075E+03   -0.33095E-03   -0.33061E-03  7904   0.833E-02-0.351E-04
CGA:   8    -0.335513228243E+03   -0.35417E-03   -0.35403E-03  7904   0.569E-02 0.195E-04
CGA:   9    -0.335513316502E+03   -0.88259E-04   -0.87915E-04  7904   0.156E-02 0.786E-05
CGA:  10    -0.335513399167E+03   -0.82665E-04   -0.82601E-04  7904   0.152E-02 0.348E-05
CGA:  11    -0.335513450795E+03   -0.51629E-04   -0.51624E-04  7904   0.217E-02 0.155E-06
CGA:  12    -0.335513491634E+03   -0.40838E-04   -0.40863E-04  7904   0.166E-03 0.406E-05
CGA:  13    -0.335513515347E+03   -0.23714E-04   -0.23536E-04  7904   0.599E-03 0.167E-05
CGA:  14    -0.335513523115E+03   -0.77680E-05   -0.78108E-05  7904   0.645E-04 0.727E-06
 186 F= -.33551352E+03 E0= -.33548849E+03  d E =-.324256E-03  mag=    32.0000
       N       E                     dE             d eps       ncg     rms          ort
SDA:   1    -0.335420697775E+03    0.92818E-01    0.00000E+00  7904   0.933E+00 0.000E+00
CGA:   2    -0.335436296116E+03   -0.15598E-01   -0.16681E-01  7904   0.489E+00-0.366E-01
CGA:   3    -0.335448579071E+03   -0.12283E-01   -0.12291E-01  7904   0.473E+00 0.305E-04
CGA:   4    -0.335489212775E+03   -0.40634E-01   -0.40472E-01  7904   0.516E+00 0.362E-02
CGA:   5    -0.335495953148E+03   -0.67404E-02   -0.64898E-02  7904   0.837E-01 0.157E-01
CGA:   6    -0.335502101576E+03   -0.61484E-02   -0.60935E-02  7904   0.190E+00 0.166E-02
CGA:   7    -0.335506599352E+03   -0.44978E-02   -0.44792E-02  7904   0.129E+00 0.234E-03
CGA:   8    -0.335510771123E+03   -0.41718E-02   -0.41297E-02  7904   0.251E-01-0.111E-02
CGA:   9    -0.335511191451E+03   -0.42033E-03   -0.41617E-03  7904   0.160E-01 0.150E-03
CGA:  10    -0.335512174523E+03   -0.98307E-03   -0.97747E-03  7904   0.206E-01 0.226E-03
CGA:  11    -0.335512905316E+03   -0.73079E-03   -0.73064E-03  7904   0.151E-01-0.279E-05
CGA:  12    -0.335513112235E+03   -0.20692E-03   -0.20863E-03  7904   0.176E-02-0.765E-04
CGA:  13    -0.335513193126E+03   -0.80891E-04   -0.80931E-04  7904   0.355E-02-0.411E-05
CGA:  14    -0.335513301971E+03   -0.10885E-03   -0.10885E-03  7904   0.316E-02 0.408E-06
CGA:  15    -0.335513427764E+03   -0.12579E-03   -0.12579E-03  7904   0.116E-02 0.981E-07
CGA:  16    -0.335513442910E+03   -0.15146E-04   -0.15219E-04  7904   0.338E-03-0.792E-06
CGA:  17    -0.335513471013E+03   -0.28103E-04   -0.28024E-04  7904   0.645E-03 0.171E-05
CGA:  18    -0.335513487773E+03   -0.16760E-04   -0.16797E-04  7904   0.598E-03 0.166E-05
CGA:  19    -0.335513503399E+03   -0.15626E-04   -0.15617E-04  7904   0.141E-03-0.248E-06
CGA:  20    -0.335513507202E+03   -0.38028E-05   -0.38089E-05  7904   0.186E-03 0.483E-06
 187 F= -.33551351E+03 E0= -.33548839E+03  d E =0.159135E-04  mag=    32.0000
       N       E                     dE             d eps       ncg     rms          ort
SDA:   1    -0.335453767067E+03    0.59736E-01    0.00000E+00  7904   0.299E+01 0.000E+00
CGA:   2    -0.335481281242E+03   -0.27514E-01   -0.23932E-01  7904   0.164E+00 0.383E+00
CGA:   3    -0.335484891688E+03   -0.36104E-02   -0.36432E-02  7904   0.207E+00-0.685E-03
CGA:   4    -0.335490020027E+03   -0.51283E-02   -0.52614E-02  7904   0.198E+00 0.129E-02
CGA:   5    -0.335499132816E+03   -0.91128E-02   -0.90943E-02  7904   0.540E+00 0.130E-02
CGA:   6    -0.335506796039E+03   -0.76632E-02   -0.73770E-02  7904   0.588E-01 0.149E-01
CGA:   7    -0.335507621787E+03   -0.82575E-03   -0.81019E-03  7904   0.465E-01 0.788E-03
CGA:   8    -0.335509299062E+03   -0.16773E-02   -0.16792E-02  7904   0.591E-01-0.549E-03
CGA:   9    -0.335510394412E+03   -0.10953E-02   -0.11017E-02  7904   0.705E-01-0.821E-04
CGA:  10    -0.335512235707E+03   -0.18413E-02   -0.18456E-02  7904   0.254E-01 0.190E-03
CGA:  11    -0.335512468318E+03   -0.23261E-03   -0.23067E-03  7904   0.526E-02 0.173E-03
CGA:  12    -0.335512692965E+03   -0.22465E-03   -0.22490E-03  7904   0.169E-01-0.209E-04
CGA:  13    -0.335513060788E+03   -0.36782E-03   -0.36736E-03  7904   0.761E-02-0.163E-04
CGA:  14    -0.335513155148E+03   -0.94360E-04   -0.94254E-04  7904   0.288E-02-0.373E-05
CGA:  15    -0.335513220314E+03   -0.65166E-04   -0.65055E-04  7904   0.272E-02-0.605E-05
CGA:  16    -0.335513267032E+03   -0.46718E-04   -0.46692E-04  7904   0.210E-02-0.711E-06
CGA:  17    -0.335513344585E+03   -0.77553E-04   -0.77496E-04  7904   0.341E-02 0.624E-05
CGA:  18    -0.335513384406E+03   -0.39821E-04   -0.39816E-04  7904   0.508E-03-0.431E-06
CGA:  19    -0.335513395614E+03   -0.11207E-04   -0.11190E-04  7904   0.698E-03-0.194E-05
CGA:  20    -0.335513410411E+03   -0.14797E-04   -0.14779E-04  7904   0.504E-03-0.141E-05
CGA:  21    -0.335513429345E+03   -0.18934E-04   -0.18919E-04  7904   0.135E-02 0.155E-05
CGA:  22    -0.335513452522E+03   -0.23177E-04   -0.23197E-04  7904   0.151E-03 0.555E-07
CGA:  23    -0.335513454208E+03   -0.16865E-05   -0.16740E-05  7904   0.803E-04-0.624E-06
 188 F= -.33551345E+03 E0= -.33548834E+03  d E =0.529939E-04  mag=    32.0000
