       N       E                     dE             d eps       ncg     rms          ort
DAV:   1     0.639980553798E+04    0.63998E+04   -0.31664E+05  8320   0.178E+03
DAV:   2     0.351735580671E+03   -0.60481E+04   -0.56577E+04  8320   0.512E+02
DAV:   3    -0.299370623990E+03   -0.65111E+03   -0.63079E+03  8320   0.188E+02
DAV:   4    -0.317956382816E+03   -0.18586E+02   -0.18437E+02  8320   0.349E+01
DAV:   5    -0.318494278919E+03   -0.53790E+00   -0.53473E+00  8320   0.533E+00
SDA:   6     0.816052317356E+02    0.40010E+03   -0.53473E+00  8320   0.250E+04 0.000E+00
CGA:   7     0.743657179879E+01   -0.74169E+02   -0.12705E+03  8320   0.103E+05-0.158E+04
CGA:   8     0.619045272397E+03    0.61161E+03   -0.56815E+03  8320   0.535E+05-0.805E+04
CGA:   9     0.265192215051E+04    0.20329E+04   -0.39438E+04  8320   0.261E+05-0.870E+04
CGA:  10     0.909383694820E+03   -0.17425E+04   -0.53064E+03  8320   0.232E+05 0.188E+05
CGA:  11     0.176470778097E+04    0.85532E+03   -0.88471E+03  8320   0.115E+06-0.762E+05
CGA:  12     0.256671846787E+04    0.80201E+03   -0.75625E+04  8320   0.241E+05-0.971E+04
CGA:  13     0.152417108595E+04   -0.10425E+04   -0.53808E+03  8320   0.236E+05 0.180E+05
CGA:  14     0.531298816664E+03   -0.99287E+03   -0.72673E+03  8320   0.483E+05-0.267E+05
CGA:  15     0.219423740254E+04    0.16629E+04   -0.27223E+04  8320   0.153E+06-0.473E+05
CGA:  16     0.249056010536E+04    0.29632E+03   -0.90734E+04  8320   0.562E+05-0.128E+05
CGA:  17     0.156794538630E+04   -0.92261E+03   -0.26832E+04  8320   0.490E+05 0.222E+05
CGA:  18     0.135708194670E+04   -0.21086E+03   -0.39492E+04  8320   0.746E+05-0.227E+05
CGA:  19     0.993840568631E+03   -0.36324E+03   -0.21967E+04  8320   0.139E+05-0.719E+04
CGA:  20     0.968782700938E+02   -0.89696E+03   -0.33620E+03  8320   0.184E+05-0.282E+05
CGA:  21     0.414086114471E+03    0.31721E+03   -0.83130E+03  8320   0.297E+05-0.112E+05
CGA:  22     0.126804269485E+04    0.85396E+03   -0.12501E+04  8320   0.760E+05-0.438E+05
CGA:  23     0.245459462617E+04    0.11866E+04   -0.35559E+04  8320   0.609E+05-0.378E+05
CGA:  24     0.131500335008E+04   -0.11396E+04   -0.11079E+04  8320   0.505E+05-0.250E+05
CGA:  25     0.664360714584E+03   -0.65064E+03   -0.11236E+04  8320   0.359E+05-0.390E+05
CGA:  26     0.659500617150E+03   -0.48601E+01   -0.13219E+04  8320   0.539E+05-0.489E+05
CGA:  27     0.143285519656E+04    0.77335E+03   -0.19560E+04  8320   0.108E+06-0.620E+05
CGA:  28     0.153139663583E+04    0.98541E+02   -0.47663E+04  8320   0.229E+05-0.133E+05
CGA:  29     0.238876025514E+03   -0.12925E+04   -0.52751E+03  8320   0.186E+05-0.750E+03
CGA:  30     0.163863848926E+03   -0.75012E+02   -0.46533E+03  8320   0.230E+05-0.200E+05
CGA:  31     0.259183735517E+03    0.95320E+02   -0.73289E+03  8320   0.355E+05-0.237E+05
CGA:  32     0.163143373014E+03   -0.96040E+02   -0.10068E+04  8320   0.179E+05-0.208E+05
CGA:  33    -0.949488088583E+02   -0.25809E+03   -0.38568E+03  8320   0.505E+04-0.955E+04
CGA:  34    -0.181763491467E+03   -0.86815E+02   -0.61878E+02  8320   0.692E+03 0.118E+04
CGA:  35    -0.186667279572E+03   -0.49038E+01   -0.10665E+02  8320   0.624E+03-0.680E+03
CGA:  36    -0.190159476297E+03   -0.34922E+01   -0.10311E+02  8320   0.406E+03-0.394E+03
CGA:  37    -0.194241793215E+03   -0.40823E+01   -0.50449E+01  8320   0.108E+03-0.128E+03
CGA:  38    -0.198475312347E+03   -0.42335E+01   -0.41950E+01  8320   0.215E+03-0.102E+01
CGA:  39    -0.205246906780E+03   -0.67716E+01   -0.68278E+01  8320   0.202E+03 0.404E+01
CGA:  40    -0.211811658819E+03   -0.65648E+01   -0.81811E+01  8320   0.185E+03-0.419E+01
CGA:  41    -0.216424035708E+03   -0.46124E+01   -0.39217E+01  8320   0.294E+02 0.324E+02
CGA:  42    -0.218182525097E+03   -0.17585E+01   -0.18026E+01  8320   0.453E+02 0.160E+01
CGA:  43    -0.221210958624E+03   -0.30284E+01   -0.30258E+01  8320   0.433E+02 0.433E+00
CGA:  44    -0.223385348503E+03   -0.21744E+01   -0.22112E+01  8320   0.246E+02 0.112E+01
CGA:  45    -0.224479655168E+03   -0.10943E+01   -0.11033E+01  8320   0.262E+02-0.353E-01
CGA:  46    -0.226144455842E+03   -0.16648E+01   -0.16451E+01  8320   0.745E+01 0.343E+01
CGA:  47    -0.226738569989E+03   -0.59411E+00   -0.58720E+00  8320   0.118E+02 0.460E+00
CGA:  48    -0.227551031507E+03   -0.81246E+00   -0.81370E+00  8320   0.978E+01-0.161E+00
CGA:  49    -0.228845966003E+03   -0.12949E+01   -0.13180E+01  8320   0.592E+01-0.336E+00
CGA:  50    -0.229124849103E+03   -0.27888E+00   -0.27863E+00  8320   0.450E+01-0.468E-01
CGA:  51    -0.229439075214E+03   -0.31423E+00   -0.31197E+00  8320   0.384E+01 0.212E+00
CGA:  52    -0.229977499492E+03   -0.53842E+00   -0.53515E+00  8320   0.274E+01-0.852E-01
CGA:  53    -0.230263771920E+03   -0.28627E+00   -0.28068E+00  8320   0.204E+01 0.128E+00
CGA:  54    -0.230589128872E+03   -0.32536E+00   -0.32521E+00  8320   0.202E+01-0.379E-02
CGA:  55    -0.230744322369E+03   -0.15519E+00   -0.15508E+00  8320   0.151E+01 0.189E-01
CGA:  56    -0.230887349329E+03   -0.14303E+00   -0.14466E+00  8320   0.179E+01-0.595E-01
CGA:  57    -0.231060869893E+03   -0.17352E+00   -0.17441E+00  8320   0.149E+01-0.192E-01
CGA:  58    -0.231168121738E+03   -0.10725E+00   -0.10737E+00  8320   0.653E+00 0.156E-01
CGA:  59    -0.231284240635E+03   -0.11612E+00   -0.11673E+00  8320   0.817E+00-0.739E-02
CGA:  60    -0.231357450843E+03   -0.73210E-01   -0.73540E-01  8320   0.802E+00-0.193E-01
CGA:  61    -0.231408094206E+03   -0.50643E-01   -0.49031E-01  8320   0.738E+00-0.151E-01
CGA:  62    -0.231474310816E+03   -0.66217E-01   -0.65984E-01  8320   0.648E+00 0.133E-01
CGA:  63    -0.231518892577E+03   -0.44582E-01   -0.44730E-01  8320   0.508E+00 0.313E-02
CGA:  64    -0.231545758847E+03   -0.26866E-01   -0.25513E-01  8320   0.580E+00 0.377E-02
CGA:  65    -0.231596791748E+03   -0.51033E-01   -0.51085E-01  8320   0.648E+00-0.318E-02
CGA:  66    -0.231626975153E+03   -0.30183E-01   -0.31170E-01  8320   0.625E+00-0.690E-02
SDA:  67    -0.231656694598E+03   -0.29719E-01   -0.28536E-01  8320   0.371E+00 0.609E-02
CGA:  68    -0.231688798956E+03   -0.32104E-01   -0.32099E-01  8320   0.551E+00 0.409E-03
CGA:  69    -0.231727171364E+03   -0.38372E-01   -0.38184E-01  8320   0.964E+00-0.986E-02
CGA:  70    -0.231798841647E+03   -0.71670E-01   -0.71668E-01  8320   0.779E+00-0.232E-02
CGA:  71    -0.231859405794E+03   -0.60564E-01   -0.60520E-01  8320   0.806E+00 0.138E-01
CGA:  72    -0.231895096218E+03   -0.35690E-01   -0.31992E-01  8320   0.101E+01 0.426E-01
CGA:  73    -0.231960793007E+03   -0.65697E-01   -0.64237E-01  8320   0.134E+01-0.281E-01
CGA:  74    -0.231992022531E+03   -0.31230E-01   -0.41790E-01  8320   0.578E+00-0.128E+00
CGA:  75    -0.232018405963E+03   -0.26383E-01   -0.27622E-01  8320   0.345E+00 0.150E-01
CGA:  76    -0.232040178695E+03   -0.21773E-01   -0.21870E-01  8320   0.363E+00 0.419E-02
CGA:  77    -0.232072459834E+03   -0.32281E-01   -0.32562E-01  8320   0.420E+00-0.111E-01
CGA:  78    -0.232107464160E+03   -0.35004E-01   -0.35013E-01  8320   0.407E+00-0.427E-03
CGA:  79    -0.232133552004E+03   -0.26088E-01   -0.26177E-01  8320   0.289E+00 0.460E-02
CGA:  80    -0.232151441019E+03   -0.17889E-01   -0.17702E-01  8320   0.280E+00-0.505E-02
CGA:  81    -0.232170071358E+03   -0.18630E-01   -0.18602E-01  8320   0.200E+00-0.368E-02
CGA:  82    -0.232183362805E+03   -0.13291E-01   -0.13286E-01  8320   0.178E+00-0.594E-03
CGA:  83    -0.232194471652E+03   -0.11109E-01   -0.11100E-01  8320   0.203E+00-0.361E-03
CGA:  84    -0.232205314125E+03   -0.10842E-01   -0.10842E-01  8320   0.135E+00 0.483E-04
CGA:  85    -0.232214908180E+03   -0.95941E-02   -0.95994E-02  8320   0.105E+00-0.147E-02
CGA:  86    -0.232220630171E+03   -0.57220E-02   -0.57168E-02  8320   0.932E-01-0.111E-03
CGA:  87    -0.232225285209E+03   -0.46550E-02   -0.46656E-02  8320   0.789E-01 0.393E-04
CGA:  88    -0.232230994913E+03   -0.57097E-02   -0.57086E-02  8320   0.636E-01 0.769E-04
CGA:  89    -0.232235312911E+03   -0.43180E-02   -0.43177E-02  8320   0.580E-01-0.645E-03
CGA:  90    -0.232238241405E+03   -0.29285E-02   -0.29140E-02  8320   0.563E-01-0.201E-03
CGA:  91    -0.232241566914E+03   -0.33255E-02   -0.33338E-02  8320   0.424E-01 0.335E-03
CGA:  92    -0.232244135719E+03   -0.25688E-02   -0.25706E-02  8320   0.259E-01 0.758E-04
CGA:  93    -0.232245419657E+03   -0.12839E-02   -0.12789E-02  8320   0.262E-01-0.621E-04
CGA:  94    -0.232247094095E+03   -0.16744E-02   -0.16745E-02  8320   0.257E-01 0.903E-05
CGA:  95    -0.232248963623E+03   -0.18695E-02   -0.18685E-02  8320   0.253E-01 0.755E-04
CGA:  96    -0.232250371772E+03   -0.14081E-02   -0.14070E-02  8320   0.245E-01-0.456E-04
CGA:  97    -0.232251441975E+03   -0.10702E-02   -0.10731E-02  8320   0.121E-01 0.622E-05
SDA:  98    -0.232252350272E+03   -0.90830E-03   -0.91371E-03  8320   0.134E-01-0.324E-03
CGA:  99    -0.232253160888E+03   -0.81062E-03   -0.81024E-03  8320   0.122E-01-0.280E-04
CGA: 100    -0.232253836075E+03   -0.67519E-03   -0.67494E-03  8320   0.134E-01 0.306E-05
CGA: 101    -0.232254920680E+03   -0.10846E-02   -0.10894E-02  8320   0.888E-02-0.194E-03
CGA: 102    -0.232256273338E+03   -0.13527E-02   -0.13418E-02  8320   0.424E-02 0.116E-03
CGA: 103    -0.232256845810E+03   -0.57247E-03   -0.57537E-03  8320   0.386E-02-0.483E-04
CGA: 104    -0.232257225376E+03   -0.37957E-03   -0.37969E-03  8320   0.150E-02-0.127E-06
CGA: 105    -0.232257361118E+03   -0.13574E-03   -0.13591E-03  8320   0.909E-03-0.429E-05
CGA: 106    -0.232257471581E+03   -0.11046E-03   -0.11046E-03  8320   0.417E-03 0.633E-06
CGA: 107    -0.232257504898E+03   -0.33317E-04   -0.33324E-04  8320   0.686E-03-0.237E-05
CGA: 108    -0.232257531763E+03   -0.26865E-04   -0.26694E-04  8320   0.258E-03-0.353E-05
CGA: 109    -0.232257555597E+03   -0.23833E-04   -0.23978E-04  8320   0.219E-03-0.773E-05
CGA: 110    -0.232257575788E+03   -0.20191E-04   -0.20317E-04  8320   0.151E-03-0.646E-05
CGA: 111    -0.232257603065E+03   -0.27277E-04   -0.28173E-04  8320   0.142E-03-0.798E-05
CGA: 112    -0.232257615422E+03   -0.12357E-04   -0.12377E-04  8320   0.138E-03-0.226E-05
CGA: 113    -0.232257623066E+03   -0.76438E-05   -0.76213E-05  8320   0.184E-03-0.753E-06
CGA: 114    -0.232257634128E+03   -0.11063E-04   -0.11049E-04  8320   0.966E-04-0.794E-06
CGA: 115    -0.232257642533E+03   -0.84051E-05   -0.84050E-05  8320   0.398E-04 0.289E-07
   1 F= -.23225764E+03 E0= -.23224491E+03  d E =-.232258E+03  mag=     6.0003
       N       E                     dE             d eps       ncg     rms          ort
SDA:   1    -0.232256545991E+03    0.10881E-02    0.00000E+00  8320   0.489E-01 0.000E+00
CGA:   2    -0.232257544464E+03   -0.99847E-03   -0.99691E-03  8320   0.587E-02 0.607E-04
CGA:   3    -0.232257779350E+03   -0.23489E-03   -0.23559E-03  8320   0.164E-02-0.287E-05
CGA:   4    -0.232257957963E+03   -0.17861E-03   -0.17860E-03  8320   0.127E-02 0.554E-06
CGA:   5    -0.232258095251E+03   -0.13729E-03   -0.13742E-03  8320   0.685E-03-0.470E-05
CGA:   6    -0.232258129442E+03   -0.34191E-04   -0.34098E-04  8320   0.464E-03-0.292E-05
CGA:   7    -0.232258146794E+03   -0.17351E-04   -0.17274E-04  8320   0.246E-03-0.176E-05
CGA:   8    -0.232258166133E+03   -0.19340E-04   -0.19341E-04  8320   0.707E-04-0.676E-06
CGA:   9    -0.232258172293E+03   -0.61599E-05   -0.61500E-05  8320   0.248E-04 0.103E-05
   2 F= -.23225817E+03 E0= -.23224546E+03  d E =-.529760E-03  mag=     6.0004
       N       E                     dE             d eps       ncg     rms          ort
SDA:   1    -0.232256166281E+03    0.19999E-02    0.00000E+00  8320   0.128E+00 0.000E+00
CGA:   2    -0.232258298075E+03   -0.21318E-02   -0.21195E-02  8320   0.531E-03 0.593E-03
CGA:   3    -0.232258354575E+03   -0.56500E-04   -0.56554E-04  8320   0.478E-03-0.155E-05
CGA:   4    -0.232258386037E+03   -0.31462E-04   -0.31460E-04  8320   0.691E-03-0.378E-06
CGA:   5    -0.232258415756E+03   -0.29719E-04   -0.29721E-04  8320   0.271E-03 0.280E-08
CGA:   6    -0.232258431702E+03   -0.15946E-04   -0.15942E-04  8320   0.769E-04-0.223E-06
CGA:   7    -0.232258438912E+03   -0.72095E-05   -0.71992E-05  8320   0.452E-04 0.499E-06
   3 F= -.23225844E+03 E0= -.23224573E+03  d E =-.266618E-03  mag=     6.0004
       N       E                     dE             d eps       ncg     rms          ort
SDA:   1    -0.231561980054E+03    0.69645E+00    0.00000E+00  8320   0.271E+01 0.000E+00
CGA:   2    -0.231769674113E+03   -0.20769E+00   -0.20813E+00  8320   0.361E+01-0.692E-01
CGA:   3    -0.231953775726E+03   -0.18410E+00   -0.18519E+00  8320   0.347E+01 0.356E-02
CGA:   4    -0.232122680796E+03   -0.16891E+00   -0.17241E+00  8320   0.119E+01 0.345E-02
CGA:   5    -0.232203976846E+03   -0.81296E-01   -0.81130E-01  8320   0.433E+00-0.240E-01
CGA:   6    -0.232228717942E+03   -0.24741E-01   -0.24779E-01  8320   0.646E+00 0.759E-03
CGA:   7    -0.232258547651E+03   -0.29830E-01   -0.29901E-01  8320   0.939E-01-0.133E-03
CGA:   8    -0.232265246892E+03   -0.66992E-02   -0.67023E-02  8320   0.379E-01-0.796E-03
CGA:   9    -0.232269078173E+03   -0.38313E-02   -0.38264E-02  8320   0.221E-01 0.125E-03
CGA:  10    -0.232270378912E+03   -0.13007E-02   -0.13014E-02  8320   0.154E-01 0.166E-04
CGA:  11    -0.232270893344E+03   -0.51443E-03   -0.51705E-03  8320   0.759E-02-0.413E-04
CGA:  12    -0.232271794858E+03   -0.90151E-03   -0.90107E-03  8320   0.346E-02 0.801E-05
CGA:  13    -0.232272037890E+03   -0.24303E-03   -0.24302E-03  8320   0.214E-02-0.504E-05
CGA:  14    -0.232272185937E+03   -0.14805E-03   -0.14805E-03  8320   0.254E-02 0.223E-05
CGA:  15    -0.232272283245E+03   -0.97308E-04   -0.97568E-04  8320   0.112E-02-0.394E-06
CGA:  16    -0.232272397356E+03   -0.11411E-03   -0.11400E-03  8320   0.461E-03 0.330E-05
CGA:  17    -0.232272454322E+03   -0.56966E-04   -0.56765E-04  8320   0.702E-03 0.374E-05
CGA:  18    -0.232272480178E+03   -0.25856E-04   -0.25909E-04  8320   0.408E-03 0.146E-05
CGA:  19    -0.232272508228E+03   -0.28050E-04   -0.28056E-04  8320   0.181E-03 0.154E-05
CGA:  20    -0.232272525838E+03   -0.17610E-04   -0.17561E-04  8320   0.155E-03 0.184E-05
CGA:  21    -0.232272536311E+03   -0.10473E-04   -0.10478E-04  8320   0.159E-03 0.709E-06
CGA:  22    -0.232272542156E+03   -0.58447E-05   -0.58656E-05  8320   0.663E-04 0.551E-06
   4 F= -.23227254E+03 E0= -.23225998E+03  d E =-.141032E-01  mag=     6.0001
       N       E                     dE             d eps       ncg     rms          ort
SDA:   1    -0.231456163156E+03    0.81637E+00    0.00000E+00  8320   0.305E+01 0.000E+00
CGA:   2    -0.231710707605E+03   -0.25454E+00   -0.25397E+00  8320   0.420E+01 0.334E-01
CGA:   3    -0.231907396337E+03   -0.19669E+00   -0.19519E+00  8320   0.344E+01-0.241E-02
CGA:   4    -0.232134325676E+03   -0.22693E+00   -0.22711E+00  8320   0.114E+01 0.131E-01
CGA:   5    -0.232203261814E+03   -0.68936E-01   -0.68094E-01  8320   0.477E+00-0.181E-01
CGA:   6    -0.232242190973E+03   -0.38929E-01   -0.38862E-01  8320   0.635E+00 0.368E-02
CGA:   7    -0.232263309915E+03   -0.21119E-01   -0.21196E-01  8320   0.135E+00-0.171E-02
CGA:   8    -0.232271512825E+03   -0.82029E-02   -0.81797E-02  8320   0.459E-01-0.940E-03
CGA:   9    -0.232274528643E+03   -0.30158E-02   -0.30154E-02  8320   0.571E-01-0.533E-04
CGA:  10    -0.232276921395E+03   -0.23928E-02   -0.24059E-02  8320   0.195E-01-0.478E-04
CGA:  11    -0.232278136315E+03   -0.12149E-02   -0.12150E-02  8320   0.766E-02 0.628E-05
CGA:  12    -0.232278697514E+03   -0.56120E-03   -0.56096E-03  8320   0.137E-01 0.233E-04
CGA:  13    -0.232279397458E+03   -0.69994E-03   -0.69881E-03  8320   0.255E-02-0.124E-04
CGA:  14    -0.232279589625E+03   -0.19217E-03   -0.19204E-03  8320   0.287E-02 0.102E-04
CGA:  15    -0.232279722283E+03   -0.13266E-03   -0.13269E-03  8320   0.190E-02 0.230E-05
CGA:  16    -0.232279856844E+03   -0.13456E-03   -0.13455E-03  8320   0.128E-02 0.193E-05
CGA:  17    -0.232279944610E+03   -0.87765E-04   -0.87759E-04  8320   0.955E-03 0.342E-05
CGA:  18    -0.232279984190E+03   -0.39580E-04   -0.39671E-04  8320   0.642E-03 0.220E-05
CGA:  19    -0.232280044639E+03   -0.60450E-04   -0.60302E-04  8320   0.433E-03 0.508E-05
CGA:  20    -0.232280072529E+03   -0.27889E-04   -0.27897E-04  8320   0.499E-03 0.218E-05
CGA:  21    -0.232280094849E+03   -0.22320E-04   -0.22346E-04  8320   0.187E-03 0.182E-05
CGA:  22    -0.232280115034E+03   -0.20185E-04   -0.20092E-04  8320   0.218E-03 0.218E-05
CGA:  23    -0.232280124071E+03   -0.90368E-05   -0.90629E-05  8320   0.136E-03 0.990E-06
CGA:  24    -0.232280134099E+03   -0.10028E-04   -0.10021E-04  8320   0.935E-04 0.101E-05
CGA:  25    -0.232280141775E+03   -0.76758E-05   -0.76629E-05  8320   0.116E-03 0.877E-06
   5 F= -.23228014E+03 E0= -.23226776E+03  d E =-.759962E-02  mag=     6.0000
       N       E                     dE             d eps       ncg     rms          ort
SDA:   1    -0.231062247147E+03    0.12179E+01    0.00000E+00  8320   0.559E+01 0.000E+00
CGA:   2    -0.231336332415E+03   -0.27409E+00   -0.28219E+00  8320   0.624E+01 0.884E-01
CGA:   3    -0.231698920691E+03   -0.36259E+00   -0.36071E+00  8320   0.410E+01-0.766E-01
CGA:   4    -0.232086254416E+03   -0.38733E+00   -0.38748E+00  8320   0.190E+01-0.116E-02
CGA:   5    -0.232147701529E+03   -0.61447E-01   -0.57897E-01  8320   0.855E+00 0.772E-01
CGA:   6    -0.232225807627E+03   -0.78106E-01   -0.77951E-01  8320   0.514E+00 0.507E-02
CGA:   7    -0.232260529622E+03   -0.34722E-01   -0.34717E-01  8320   0.236E+00 0.194E-02
CGA:   8    -0.232268678796E+03   -0.81492E-02   -0.81353E-02  8320   0.100E+00 0.190E-03
CGA:   9    -0.232274044872E+03   -0.53661E-02   -0.53604E-02  8320   0.530E-01-0.148E-03
CGA:  10    -0.232279223864E+03   -0.51790E-02   -0.51364E-02  8320   0.239E-01 0.104E-02
CGA:  11    -0.232280080414E+03   -0.85655E-03   -0.85857E-03  8320   0.146E-01-0.256E-04
CGA:  12    -0.232281303484E+03   -0.12231E-02   -0.12211E-02  8320   0.126E-01 0.666E-04
CGA:  13    -0.232282240166E+03   -0.93668E-03   -0.93654E-03  8320   0.511E-02 0.958E-05
CGA:  14    -0.232282421745E+03   -0.18158E-03   -0.18205E-03  8320   0.315E-02-0.323E-05
CGA:  15    -0.232282738666E+03   -0.31692E-03   -0.31671E-03  8320   0.247E-02 0.571E-05
CGA:  16    -0.232282948860E+03   -0.21019E-03   -0.21002E-03  8320   0.270E-02 0.733E-05
CGA:  17    -0.232283038497E+03   -0.89638E-04   -0.89656E-04  8320   0.786E-03 0.363E-05
CGA:  18    -0.232283160078E+03   -0.12158E-03   -0.12065E-03  8320   0.124E-02 0.108E-04
CGA:  19    -0.232283219210E+03   -0.59132E-04   -0.59167E-04  8320   0.836E-03 0.337E-05
CGA:  20    -0.232283260802E+03   -0.41592E-04   -0.41638E-04  8320   0.395E-03 0.235E-05
CGA:  21    -0.232283299749E+03   -0.38947E-04   -0.38844E-04  8320   0.423E-03 0.328E-05
CGA:  22    -0.232283323614E+03   -0.23865E-04   -0.23894E-04  8320   0.409E-03 0.171E-05
CGA:  23    -0.232283345203E+03   -0.21589E-04   -0.21608E-04  8320   0.158E-03 0.141E-05
CGA:  24    -0.232283360458E+03   -0.15255E-04   -0.15215E-04  8320   0.188E-03 0.133E-05
CGA:  25    -0.232283369724E+03   -0.92658E-05   -0.92771E-05  8320   0.164E-03 0.633E-06
CGA:  26    -0.232283383298E+03   -0.13574E-04   -0.13565E-04  8320   0.973E-04 0.526E-06
CGA:  27    -0.232283390839E+03   -0.75408E-05   -0.75387E-05  8320   0.125E-03 0.229E-06
   6 F= -.23228339E+03 E0= -.23227132E+03  d E =-.324906E-02  mag=     6.0000
       N       E                     dE             d eps       ncg     rms          ort
SDA:   1    -0.231959902741E+03    0.32348E+00    0.00000E+00  8320   0.823E+01 0.000E+00
CGA:   2    -0.232115426120E+03   -0.15552E+00   -0.16149E+00  8320   0.575E+00-0.465E+00
CGA:   3    -0.232185502269E+03   -0.70076E-01   -0.71157E-01  8320   0.116E+01-0.167E-01
CGA:   4    -0.232233226793E+03   -0.47725E-01   -0.47722E-01  8320   0.514E+00-0.631E-03
CGA:   5    -0.232259517061E+03   -0.26290E-01   -0.26254E-01  8320   0.178E+00-0.410E-03
CGA:   6    -0.232271207617E+03   -0.11691E-01   -0.11690E-01  8320   0.186E+00-0.397E-04
CGA:   7    -0.232279244453E+03   -0.80368E-02   -0.80260E-02  8320   0.576E-01 0.293E-04
CGA:   8    -0.232283270381E+03   -0.40259E-02   -0.40257E-02  8320   0.331E-01 0.339E-04
CGA:   9    -0.232284392303E+03   -0.11219E-02   -0.11218E-02  8320   0.119E-01-0.412E-05
CGA:  10    -0.232285398495E+03   -0.10062E-02   -0.10062E-02  8320   0.771E-02-0.187E-05
CGA:  11    -0.232285722768E+03   -0.32427E-03   -0.32433E-03  8320   0.477E-02-0.169E-05
CGA:  12    -0.232286026756E+03   -0.30399E-03   -0.30399E-03  8320   0.214E-02 0.161E-05
CGA:  13    -0.232286166152E+03   -0.13940E-03   -0.13940E-03  8320   0.245E-02-0.417E-06
CGA:  14    -0.232286288881E+03   -0.12273E-03   -0.12275E-03  8320   0.835E-03 0.135E-05
CGA:  15    -0.232286340739E+03   -0.51858E-04   -0.51861E-04  8320   0.663E-03 0.150E-05
CGA:  16    -0.232286377024E+03   -0.36285E-04   -0.36290E-04  8320   0.509E-03 0.736E-06
CGA:  17    -0.232286408823E+03   -0.31799E-04   -0.31799E-04  8320   0.293E-03-0.774E-06
CGA:  18    -0.232286428075E+03   -0.19252E-04   -0.19252E-04  8320   0.272E-03-0.210E-06
CGA:  19    -0.232286440388E+03   -0.12312E-04   -0.12309E-04  8320   0.124E-03-0.285E-06
CGA:  20    -0.232286452885E+03   -0.12498E-04   -0.12501E-04  8320   0.152E-03-0.825E-07
CGA:  21    -0.232286458661E+03   -0.57758E-05   -0.57706E-05  8320   0.542E-04-0.201E-06
   7 F= -.23228646E+03 E0= -.23227436E+03  d E =-.306782E-02  mag=     6.0000
       N       E                     dE             d eps       ncg     rms          ort
SDA:   1    -0.232275158463E+03    0.11294E-01    0.00000E+00  8320   0.132E+00 0.000E+00
CGA:   2    -0.232278349512E+03   -0.31910E-02   -0.31949E-02  8320   0.363E-01-0.129E-03
CGA:   3    -0.232281105066E+03   -0.27556E-02   -0.27540E-02  8320   0.354E-01 0.760E-04
CGA:   4    -0.232285035839E+03   -0.39308E-02   -0.39344E-02  8320   0.111E-01-0.706E-04
CGA:   5    -0.232285978603E+03   -0.94276E-03   -0.94201E-03  8320   0.883E-02 0.285E-04
CGA:   6    -0.232286409577E+03   -0.43097E-03   -0.43096E-03  8320   0.668E-02 0.318E-05
CGA:   7    -0.232286675869E+03   -0.26629E-03   -0.26614E-03  8320   0.157E-02 0.243E-05
CGA:   8    -0.232286798779E+03   -0.12291E-03   -0.12286E-03  8320   0.617E-03 0.278E-05
CGA:   9    -0.232286853324E+03   -0.54545E-04   -0.54568E-04  8320   0.467E-03-0.814E-06
CGA:  10    -0.232286869996E+03   -0.16671E-04   -0.16675E-04  8320   0.265E-03 0.103E-06
CGA:  11    -0.232286888072E+03   -0.18077E-04   -0.18077E-04  8320   0.888E-04-0.649E-07
CGA:  12    -0.232286899967E+03   -0.11895E-04   -0.11952E-04  8320   0.791E-04-0.813E-06
CGA:  13    -0.232286903061E+03   -0.30939E-05   -0.30917E-05  8320   0.481E-04-0.989E-07
   8 F= -.23228690E+03 E0= -.23227483E+03  d E =-.444400E-03  mag=     6.0000
       N       E                     dE             d eps       ncg     rms          ort
SDA:   1    -0.232267892467E+03    0.19008E-01    0.00000E+00  8320   0.850E-01 0.000E+00
CGA:   2    -0.232273422503E+03   -0.55300E-02   -0.55309E-02  8320   0.608E-01 0.687E-03
CGA:   3    -0.232281786546E+03   -0.83640E-02   -0.83770E-02  8320   0.805E-01-0.186E-03
CGA:   4    -0.232284277460E+03   -0.24909E-02   -0.24795E-02  8320   0.286E-01 0.214E-03
CGA:   5    -0.232285921751E+03   -0.16443E-02   -0.16457E-02  8320   0.849E-02 0.492E-04
CGA:   6    -0.232286904111E+03   -0.98236E-03   -0.98215E-03  8320   0.378E-02 0.463E-05
CGA:   7    -0.232287228027E+03   -0.32392E-03   -0.32385E-03  8320   0.948E-03 0.378E-05
CGA:   8    -0.232287310295E+03   -0.82268E-04   -0.82307E-04  8320   0.821E-03-0.163E-05
CGA:   9    -0.232287350271E+03   -0.39976E-04   -0.39984E-04  8320   0.688E-03 0.115E-06
CGA:  10    -0.232287380107E+03   -0.29836E-04   -0.29831E-04  8320   0.158E-03-0.474E-06
CGA:  11    -0.232287399843E+03   -0.19736E-04   -0.19816E-04  8320   0.120E-03-0.141E-05
CGA:  12    -0.232287408873E+03   -0.90306E-05   -0.90295E-05  8320   0.588E-04 0.231E-06
   9 F= -.23228741E+03 E0= -.23227536E+03  d E =-.505812E-03  mag=     6.0000
       N       E                     dE             d eps       ncg     rms          ort
SDA:   1    -0.232251737169E+03    0.35663E-01    0.00000E+00  8320   0.225E+00 0.000E+00
CGA:   2    -0.232258814752E+03   -0.70776E-02   -0.71090E-02  8320   0.134E+00-0.650E-03
CGA:   3    -0.232270180919E+03   -0.11366E-01   -0.11339E-01  8320   0.137E+00 0.120E-02
CGA:   4    -0.232282455231E+03   -0.12274E-01   -0.12297E-01  8320   0.396E-01-0.857E-03
CGA:   5    -0.232285193003E+03   -0.27378E-02   -0.27381E-02  8320   0.170E-01 0.135E-03
CGA:   6    -0.232287026340E+03   -0.18333E-02   -0.18339E-02  8320   0.711E-02-0.109E-04
CGA:   7    -0.232287453941E+03   -0.42760E-03   -0.42768E-03  8320   0.554E-02 0.269E-05
CGA:   8    -0.232287633691E+03   -0.17975E-03   -0.17968E-03  8320   0.156E-02 0.264E-05
CGA:   9    -0.232287772495E+03   -0.13880E-03   -0.13889E-03  8320   0.932E-03-0.363E-05
CGA:  10    -0.232287853313E+03   -0.80818E-04   -0.80796E-04  8320   0.309E-03 0.915E-06
CGA:  11    -0.232287872984E+03   -0.19671E-04   -0.19666E-04  8320   0.487E-03-0.655E-06
CGA:  12    -0.232287899448E+03   -0.26465E-04   -0.26453E-04  8320   0.146E-03-0.547E-06
CGA:  13    -0.232287910696E+03   -0.11248E-04   -0.11245E-04  8320   0.693E-04 0.467E-06
CGA:  14    -0.232287916962E+03   -0.62653E-05   -0.62639E-05  8320   0.811E-04 0.777E-07
  10 F= -.23228792E+03 E0= -.23227590E+03  d E =-.508089E-03  mag=     6.0000
       N       E                     dE             d eps       ncg     rms          ort
SDA:   1    -0.232245305050E+03    0.42606E-01    0.00000E+00  8320   0.512E+00 0.000E+00
CGA:   2    -0.232256418020E+03   -0.11113E-01   -0.11153E-01  8320   0.107E+00-0.208E-02
CGA:   3    -0.232270187929E+03   -0.13770E-01   -0.13825E-01  8320   0.140E+00-0.891E-03
CGA:   4    -0.232283214244E+03   -0.13026E-01   -0.13014E-01  8320   0.339E-01 0.408E-03
CGA:   5    -0.232285457935E+03   -0.22437E-02   -0.22424E-02  8320   0.248E-01-0.804E-04
CGA:   6    -0.232286772581E+03   -0.13146E-02   -0.13155E-02  8320   0.226E-01 0.555E-05
CGA:   7    -0.232287711218E+03   -0.93864E-03   -0.94120E-03  8320   0.354E-02-0.124E-04
CGA:   8    -0.232288064363E+03   -0.35315E-03   -0.35311E-03  8320   0.148E-02 0.133E-05
CGA:   9    -0.232288183653E+03   -0.11929E-03   -0.11926E-03  8320   0.172E-02 0.250E-05
CGA:  10    -0.232288246669E+03   -0.63016E-04   -0.63062E-04  8320   0.666E-03-0.531E-06
CGA:  11    -0.232288288630E+03   -0.41961E-04   -0.41959E-04  8320   0.260E-03-0.465E-06
CGA:  12    -0.232288323205E+03   -0.34575E-04   -0.34608E-04  8320   0.212E-03-0.523E-06
CGA:  13    -0.232288331343E+03   -0.81374E-05   -0.81353E-05  8320   0.133E-03-0.362E-08
  11 F= -.23228833E+03 E0= -.23227635E+03  d E =-.414381E-03  mag=     6.0000
       N       E                     dE             d eps       ncg     rms          ort
SDA:   1    -0.232205247256E+03    0.83076E-01    0.00000E+00  8320   0.433E+00 0.000E+00
CGA:   2    -0.232220965274E+03   -0.15718E-01   -0.15760E-01  8320   0.344E+00-0.799E-03
CGA:   3    -0.232249326119E+03   -0.28361E-01   -0.28412E-01  8320   0.311E+00-0.243E-02
CGA:   4    -0.232278126306E+03   -0.28800E-01   -0.28771E-01  8320   0.598E-01 0.929E-03
CGA:   5    -0.232283497934E+03   -0.53716E-02   -0.53794E-02  8320   0.452E-01-0.289E-03
CGA:   6    -0.232287098655E+03   -0.36007E-02   -0.35994E-02  8320   0.111E-01 0.102E-03
CGA:   7    -0.232288073939E+03   -0.97528E-03   -0.97536E-03  8320   0.472E-02-0.333E-05
CGA:   8    -0.232288331611E+03   -0.25767E-03   -0.25776E-03  8320   0.501E-02 0.179E-05
CGA:   9    -0.232288562028E+03   -0.23042E-03   -0.23053E-03  8320   0.179E-02-0.282E-07
CGA:  10    -0.232288692631E+03   -0.13060E-03   -0.13060E-03  8320   0.629E-03 0.157E-06
CGA:  11    -0.232288778860E+03   -0.86229E-04   -0.86287E-04  8320   0.503E-03-0.877E-06
CGA:  12    -0.232288799917E+03   -0.21057E-04   -0.21056E-04  8320   0.392E-03 0.272E-07
CGA:  13    -0.232288821671E+03   -0.21755E-04   -0.21757E-04  8320   0.131E-03-0.214E-07
CGA:  14    -0.232288841177E+03   -0.19505E-04   -0.19426E-04  8320   0.162E-03 0.103E-05
CGA:  15    -0.232288851183E+03   -0.10006E-04   -0.10007E-04  8320   0.927E-04 0.483E-07
CGA:  16    -0.232288855280E+03   -0.40973E-05   -0.41015E-05  8320   0.866E-04 0.160E-06
  12 F= -.23228886E+03 E0= -.23227693E+03  d E =-.523938E-03  mag=     6.0000
       N       E                     dE             d eps       ncg     rms          ort
SDA:   1    -0.232175036154E+03    0.11382E+00    0.00000E+00  8320   0.547E+00 0.000E+00
CGA:   2    -0.232199766425E+03   -0.24730E-01   -0.24878E-01  8320   0.520E+00-0.133E-02
CGA:   3    -0.232233518352E+03   -0.33752E-01   -0.33813E-01  8320   0.446E+00 0.272E-02
CGA:   4    -0.232268157737E+03   -0.34639E-01   -0.34674E-01  8320   0.146E+00-0.450E-02
CGA:   5    -0.232279335116E+03   -0.11177E-01   -0.11170E-01  8320   0.708E-01 0.949E-03
CGA:   6    -0.232285233224E+03   -0.58981E-02   -0.58999E-02  8320   0.593E-01-0.117E-03
CGA:   7    -0.232286953673E+03   -0.17204E-02   -0.17195E-02  8320   0.147E-01 0.229E-04
CGA:   8    -0.232288152453E+03   -0.11988E-02   -0.11989E-02  8320   0.535E-02-0.411E-05
CGA:   9    -0.232288701365E+03   -0.54891E-03   -0.54864E-03  8320   0.361E-02 0.721E-05
CGA:  10    -0.232288859802E+03   -0.15844E-03   -0.15849E-03  8320   0.249E-02-0.586E-06
CGA:  11    -0.232288978334E+03   -0.11853E-03   -0.11857E-03  8320   0.104E-02 0.387E-06
CGA:  12    -0.232289099865E+03   -0.12153E-03   -0.12158E-03  8320   0.458E-03-0.110E-05
CGA:  13    -0.232289130635E+03   -0.30770E-04   -0.30775E-04  8320   0.500E-03 0.643E-06
CGA:  14    -0.232289152242E+03   -0.21607E-04   -0.21616E-04  8320   0.260E-03 0.747E-07
CGA:  15    -0.232289175633E+03   -0.23391E-04   -0.23391E-04  8320   0.168E-03 0.222E-07
CGA:  16    -0.232289188800E+03   -0.13167E-04   -0.13163E-04  8320   0.117E-03 0.631E-06
CGA:  17    -0.232289195531E+03   -0.67314E-05   -0.67372E-05  8320   0.152E-03 0.362E-06
CGA:  18    -0.232289205573E+03   -0.10042E-04   -0.10043E-04  8320   0.545E-04 0.212E-06
CGA:  19    -0.232289211797E+03   -0.62242E-05   -0.62131E-05  8320   0.474E-04 0.261E-06
  13 F= -.23228921E+03 E0= -.23227736E+03  d E =-.356517E-03  mag=     6.0000
       N       E                     dE             d eps       ncg     rms          ort
SDA:   1    -0.232260506100E+03    0.28699E-01    0.00000E+00  8320   0.329E+00 0.000E+00
CGA:   2    -0.232267725285E+03   -0.72192E-02   -0.72348E-02  8320   0.697E-01-0.836E-03
CGA:   3    -0.232278416926E+03   -0.10692E-01   -0.10654E-01  8320   0.896E-01 0.477E-03
CGA:   4    -0.232284666111E+03   -0.62492E-02   -0.62451E-02  8320   0.269E-01-0.340E-03
CGA:   5    -0.232287246570E+03   -0.25805E-02   -0.25774E-02  8320   0.171E-01 0.102E-03
CGA:   6    -0.232288207940E+03   -0.96137E-03   -0.96078E-03  8320   0.136E-01-0.691E-05
CGA:   7    -0.232288663221E+03   -0.45528E-03   -0.45519E-03  8320   0.250E-02 0.197E-05
CGA:   8    -0.232288911480E+03   -0.24826E-03   -0.24825E-03  8320   0.143E-02 0.786E-06
CGA:   9    -0.232289024179E+03   -0.11270E-03   -0.11269E-03  8320   0.599E-03 0.602E-06
CGA:  10    -0.232289053945E+03   -0.29767E-04   -0.29765E-04  8320   0.611E-03-0.218E-06
CGA:  11    -0.232289087909E+03   -0.33964E-04   -0.33966E-04  8320   0.219E-03 0.296E-07
CGA:  12    -0.232289109414E+03   -0.21505E-04   -0.21518E-04  8320   0.997E-04-0.476E-06
CGA:  13    -0.232289116356E+03   -0.69419E-05   -0.69429E-05  8320   0.110E-03 0.312E-06
  14 F= -.23228912E+03 E0= -.23227729E+03  d E =0.954409E-04  mag=     6.0000
       N       E                     dE             d eps       ncg     rms          ort
SDA:   1    -0.232203958960E+03    0.85150E-01    0.00000E+00  8320   0.599E+00 0.000E+00
CGA:   2    -0.232221981118E+03   -0.18022E-01   -0.18148E-01  8320   0.290E+00-0.335E-02
CGA:   3    -0.232245163836E+03   -0.23183E-01   -0.23128E-01  8320   0.329E+00 0.331E-02
CGA:   4    -0.232276622701E+03   -0.31459E-01   -0.31542E-01  8320   0.985E-01-0.255E-02
CGA:   5    -0.232283058365E+03   -0.64357E-02   -0.64404E-02  8320   0.330E-01 0.363E-03
CGA:   6    -0.232286351368E+03   -0.32930E-02   -0.32919E-02  8320   0.416E-01 0.312E-04
CGA:   7    -0.232287551910E+03   -0.12005E-02   -0.11981E-02  8320   0.770E-02 0.517E-04
CGA:   8    -0.232288254776E+03   -0.70287E-03   -0.70256E-03  8320   0.292E-02 0.121E-04
CGA:   9    -0.232288537116E+03   -0.28234E-03   -0.28239E-03  8320   0.164E-02-0.160E-05
CGA:  10    -0.232288667072E+03   -0.12996E-03   -0.12994E-03  8320   0.816E-03 0.190E-05
CGA:  11    -0.232288717000E+03   -0.49928E-04   -0.49910E-04  8320   0.957E-03-0.118E-05
CGA:  12    -0.232288759633E+03   -0.42633E-04   -0.42606E-04  8320   0.299E-03-0.579E-06
CGA:  13    -0.232288785309E+03   -0.25676E-04   -0.25672E-04  8320   0.142E-03 0.219E-06
CGA:  14    -0.232288800491E+03   -0.15182E-04   -0.15185E-04  8320   0.115E-03-0.598E-07
CGA:  15    -0.232288810449E+03   -0.99581E-05   -0.99529E-05  8320   0.133E-03 0.378E-06
  15 F= -.23228881E+03 E0= -.23227704E+03  d E =0.305907E-03  mag=     6.0000
       N       E                     dE             d eps       ncg     rms          ort
SDA:   1    -0.232262988970E+03    0.25812E-01    0.00000E+00  8320   0.134E+00 0.000E+00
CGA:   2    -0.232268339779E+03   -0.53508E-02   -0.54309E-02  8320   0.108E+00-0.706E-03
CGA:   3    -0.232275803295E+03   -0.74635E-02   -0.74632E-02  8320   0.998E-01-0.128E-03
CGA:   4    -0.232283462111E+03   -0.76588E-02   -0.76604E-02  8320   0.291E-01-0.145E-03
CGA:   5    -0.232285952921E+03   -0.24908E-02   -0.24896E-02  8320   0.171E-01 0.571E-04
CGA:   6    -0.232286915346E+03   -0.96243E-03   -0.96262E-03  8320   0.152E-01 0.232E-05
CGA:   7    -0.232287506177E+03   -0.59083E-03   -0.58972E-03  8320   0.341E-02 0.760E-05
CGA:   8    -0.232287773815E+03   -0.26764E-03   -0.26759E-03  8320   0.152E-02 0.333E-05
CGA:   9    -0.232287905846E+03   -0.13203E-03   -0.13205E-03  8320   0.105E-02-0.788E-06
CGA:  10    -0.232287941687E+03   -0.35841E-04   -0.35865E-04  8320   0.519E-03-0.108E-06
CGA:  11    -0.232287986398E+03   -0.44711E-04   -0.44713E-04  8320   0.217E-03-0.109E-06
CGA:  12    -0.232288008723E+03   -0.22325E-04   -0.22322E-04  8320   0.162E-03 0.901E-07
CGA:  13    -0.232288014722E+03   -0.59991E-05   -0.59981E-05  8320   0.947E-04-0.568E-07
  16 F= -.23228801E+03 E0= -.23227627E+03  d E =0.795727E-03  mag=     6.0000
       N       E                     dE             d eps       ncg     rms          ort
SDA:   1    -0.232001098240E+03    0.28691E+00    0.00000E+00  8320   0.958E+00 0.000E+00
CGA:   2    -0.232069853046E+03   -0.68755E-01   -0.68745E-01  8320   0.175E+01 0.309E-02
CGA:   3    -0.232169730039E+03   -0.99877E-01   -0.99466E-01  8320   0.117E+01-0.868E-02
CGA:   4    -0.232254236930E+03   -0.84507E-01   -0.84414E-01  8320   0.198E+00 0.177E-01
CGA:   5    -0.232271818106E+03   -0.17581E-01   -0.17623E-01  8320   0.142E+00-0.163E-02
CGA:   6    -0.232282007374E+03   -0.10189E-01   -0.10189E-01  8320   0.101E+00 0.144E-03
CGA:   7    -0.232285066236E+03   -0.30589E-02   -0.30877E-02  8320   0.286E-01-0.582E-03
CGA:   8    -0.232287088096E+03   -0.20219E-02   -0.20221E-02  8320   0.115E-01-0.469E-04
CGA:   9    -0.232288176001E+03   -0.10879E-02   -0.10873E-02  8320   0.645E-02 0.173E-04
CGA:  10    -0.232288547809E+03   -0.37181E-03   -0.37172E-03  8320   0.560E-02-0.220E-05
CGA:  11    -0.232288773447E+03   -0.22564E-03   -0.22566E-03  8320   0.228E-02 0.933E-06
CGA:  12    -0.232288987293E+03   -0.21385E-03   -0.21378E-03  8320   0.785E-03 0.241E-05
CGA:  13    -0.232289070401E+03   -0.83108E-04   -0.83088E-04  8320   0.910E-03 0.594E-06
CGA:  14    -0.232289101707E+03   -0.31306E-04   -0.31304E-04  8320   0.427E-03 0.303E-06
CGA:  15    -0.232289147360E+03   -0.45653E-04   -0.45600E-04  8320   0.218E-03 0.136E-05
CGA:  16    -0.232289166980E+03   -0.19621E-04   -0.19633E-04  8320   0.225E-03-0.586E-06
CGA:  17    -0.232289179843E+03   -0.12862E-04   -0.12864E-04  8320   0.235E-03 0.978E-07
CGA:  18    -0.232289191871E+03   -0.12029E-04   -0.12032E-04  8320   0.863E-04 0.165E-06
CGA:  19    -0.232289199950E+03   -0.80787E-05   -0.80786E-05  8320   0.593E-04 0.103E-07
  17 F= -.23228920E+03 E0= -.23227736E+03  d E =-.118523E-02  mag=     6.0000
       N       E                     dE             d eps       ncg     rms          ort
SDA:   1    -0.232111292917E+03    0.17790E+00    0.00000E+00  8320   0.128E+01 0.000E+00
CGA:   2    -0.232146277985E+03   -0.34985E-01   -0.35279E-01  8320   0.566E+00-0.110E-01
CGA:   3    -0.232208805643E+03   -0.62528E-01   -0.61936E-01  8320   0.643E+00 0.128E-01
CGA:   4    -0.232264026713E+03   -0.55221E-01   -0.55364E-01  8320   0.190E+00-0.791E-02
CGA:   5    -0.232275942602E+03   -0.11916E-01   -0.11939E-01  8320   0.100E+00 0.843E-03
CGA:   6    -0.232281087979E+03   -0.51454E-02   -0.51530E-02  8320   0.988E-01 0.237E-04
CGA:   7    -0.232285856533E+03   -0.47686E-02   -0.47574E-02  8320   0.161E-01-0.116E-04
CGA:   8    -0.232287330101E+03   -0.14736E-02   -0.14727E-02  8320   0.713E-02 0.316E-04
CGA:   9    -0.232288012191E+03   -0.68209E-03   -0.68203E-03  8320   0.391E-02 0.233E-05
CGA:  10    -0.232288204918E+03   -0.19273E-03   -0.19282E-03  8320   0.335E-02 0.551E-06
CGA:  11    -0.232288362127E+03   -0.15721E-03   -0.15714E-03  8320   0.133E-02-0.942E-06
CGA:  12    -0.232288499260E+03   -0.13713E-03   -0.13720E-03  8320   0.468E-03-0.193E-05
CGA:  13    -0.232288543104E+03   -0.43844E-04   -0.43831E-04  8320   0.443E-03 0.503E-06
CGA:  14    -0.232288562624E+03   -0.19520E-04   -0.19527E-04  8320   0.335E-03 0.148E-06
CGA:  15    -0.232288584792E+03   -0.22167E-04   -0.22165E-04  8320   0.171E-03-0.275E-06
CGA:  16    -0.232288598978E+03   -0.14186E-04   -0.14176E-04  8320   0.939E-04 0.866E-06
CGA:  17    -0.232288609658E+03   -0.10680E-04   -0.10656E-04  8320   0.137E-03 0.586E-06
CGA:  18    -0.232288614629E+03   -0.49711E-05   -0.49855E-05  8320   0.624E-04 0.361E-06
  18 F= -.23228861E+03 E0= -.23227684E+03  d E =0.585320E-03  mag=     6.0000
       N       E                     dE             d eps       ncg     rms          ort
SDA:   1    -0.232266092263E+03    0.22517E-01    0.00000E+00  8320   0.981E-01 0.000E+00
CGA:   2    -0.232270397409E+03   -0.43051E-02   -0.43059E-02  8320   0.963E-01-0.128E-04
CGA:   3    -0.232277941070E+03   -0.75437E-02   -0.75316E-02  8320   0.985E-01 0.105E-02
CGA:   4    -0.232285218887E+03   -0.72778E-02   -0.72791E-02  8320   0.203E-01-0.500E-03
CGA:   5    -0.232286838967E+03   -0.16201E-02   -0.16192E-02  8320   0.970E-02 0.638E-04
CGA:   6    -0.232287762303E+03   -0.92334E-03   -0.92373E-03  8320   0.380E-02-0.132E-04
CGA:   7    -0.232287995003E+03   -0.23270E-03   -0.23268E-03  8320   0.239E-02-0.501E-06
CGA:   8    -0.232288078988E+03   -0.83984E-04   -0.84048E-04  8320   0.111E-02 0.252E-07
CGA:   9    -0.232288173343E+03   -0.94355E-04   -0.94353E-04  8320   0.421E-03 0.610E-07
CGA:  10    -0.232288215137E+03   -0.41794E-04   -0.41792E-04  8320   0.169E-03 0.714E-07
CGA:  11    -0.232288226531E+03   -0.11394E-04   -0.11391E-04  8320   0.259E-03-0.485E-06
CGA:  12    -0.232288239120E+03   -0.12589E-04   -0.12582E-04  8320   0.633E-04-0.253E-06
CGA:  13    -0.232288244126E+03   -0.50063E-05   -0.50044E-05  8320   0.359E-04 0.246E-06
  19 F= -.23228824E+03 E0= -.23227650E+03  d E =0.370503E-03  mag=     6.0000
       N       E                     dE             d eps       ncg     rms          ort
SDA:   1    -0.231987472711E+03    0.30077E+00    0.00000E+00  8320   0.860E+00 0.000E+00
CGA:   2    -0.232105730915E+03   -0.11826E+00   -0.11808E+00  8320   0.147E+01 0.375E-02
CGA:   3    -0.232189289426E+03   -0.83559E-01   -0.83394E-01  8320   0.138E+01-0.172E-02
CGA:   4    -0.232248625811E+03   -0.59336E-01   -0.57806E-01  8320   0.215E+00 0.140E-01
CGA:   5    -0.232269009888E+03   -0.20384E-01   -0.20329E-01  8320   0.157E+00 0.202E-02
CGA:   6    -0.232280728661E+03   -0.11719E-01   -0.11717E-01  8320   0.381E-01-0.666E-03
CGA:   7    -0.232282772778E+03   -0.20441E-02   -0.20446E-02  8320   0.391E-01 0.657E-05
CGA:   8    -0.232284593642E+03   -0.18209E-02   -0.18196E-02  8320   0.117E-01 0.717E-05
CGA:   9    -0.232285641584E+03   -0.10479E-02   -0.10481E-02  8320   0.480E-02-0.559E-05
CGA:  10    -0.232285996586E+03   -0.35500E-03   -0.35500E-03  8320   0.471E-02 0.421E-06
CGA:  11    -0.232286191791E+03   -0.19520E-03   -0.19526E-03  8320   0.251E-02-0.358E-06
CGA:  12    -0.232286361986E+03   -0.17020E-03   -0.17018E-03  8320   0.784E-03-0.255E-05
CGA:  13    -0.232286439345E+03   -0.77359E-04   -0.77303E-04  8320   0.696E-03 0.190E-05
CGA:  14    -0.232286472132E+03   -0.32787E-04   -0.32783E-04  8320   0.586E-03 0.920E-07
CGA:  15    -0.232286509862E+03   -0.37730E-04   -0.37733E-04  8320   0.258E-03 0.475E-06
CGA:  16    -0.232286532268E+03   -0.22406E-04   -0.22387E-04  8320   0.186E-03 0.121E-05
CGA:  17    -0.232286548246E+03   -0.15978E-04   -0.15966E-04  8320   0.280E-03 0.918E-06
CGA:  18    -0.232286559704E+03   -0.11457E-04   -0.11467E-04  8320   0.888E-04 0.467E-06
CGA:  19    -0.232286569626E+03   -0.99228E-05   -0.98941E-05  8320   0.683E-04 0.713E-06
  20 F= -.23228657E+03 E0= -.23227489E+03  d E =0.167450E-02  mag=     6.0000
       N       E                     dE             d eps       ncg     rms          ort
SDA:   1    -0.232081294188E+03    0.20527E+00    0.00000E+00  8320   0.137E+01 0.000E+00
CGA:   2    -0.232119276853E+03   -0.37983E-01   -0.37868E-01  8320   0.643E+00 0.153E-03
CGA:   3    -0.232214601684E+03   -0.95325E-01   -0.94877E-01  8320   0.533E+00 0.596E-02
CGA:   4    -0.232251749662E+03   -0.37148E-01   -0.37088E-01  8320   0.213E+00-0.393E-02
CGA:   5    -0.232272353912E+03   -0.20604E-01   -0.20569E-01  8320   0.130E+00 0.114E-02
CGA:   6    -0.232278341607E+03   -0.59877E-02   -0.60120E-02  8320   0.831E-01-0.126E-03
CGA:   7    -0.232281495838E+03   -0.31542E-02   -0.31395E-02  8320   0.192E-01 0.181E-03
CGA:   8    -0.232283653868E+03   -0.21580E-02   -0.21557E-02  8320   0.842E-02 0.519E-04
CGA:   9    -0.232284332856E+03   -0.67899E-03   -0.67903E-03  8320   0.348E-02-0.394E-05
CGA:  10    -0.232284701811E+03   -0.36896E-03   -0.36884E-03  8320   0.298E-02 0.322E-05
CGA:  11    -0.232284823187E+03   -0.12138E-03   -0.12126E-03  8320   0.189E-02-0.834E-07
CGA:  12    -0.232284924437E+03   -0.10125E-03   -0.10123E-03  8320   0.580E-03-0.466E-06
CGA:  13    -0.232285000345E+03   -0.75908E-04   -0.75811E-04  8320   0.433E-03 0.168E-05
CGA:  14    -0.232285031185E+03   -0.30840E-04   -0.30841E-04  8320   0.264E-03 0.141E-06
CGA:  15    -0.232285045028E+03   -0.13843E-04   -0.13846E-04  8320   0.274E-03 0.974E-07
CGA:  16    -0.232285062398E+03   -0.17369E-04   -0.17379E-04  8320   0.138E-03 0.768E-06
CGA:  17    -0.232285077449E+03   -0.15052E-04   -0.15038E-04  8320   0.588E-04 0.398E-06
CGA:  18    -0.232285083876E+03   -0.64264E-05   -0.64107E-05  8320   0.108E-03 0.483E-06
  21 F= -.23228508E+03 E0= -.23227346E+03  d E =0.148575E-02  mag=     6.0000
       N       E                     dE             d eps       ncg     rms          ort
SDA:   1    -0.232276412357E+03    0.86651E-02    0.00000E+00  8320   0.697E-01 0.000E+00
CGA:   2    -0.232278556490E+03   -0.21441E-02   -0.21446E-02  8320   0.318E-01-0.185E-04
CGA:   3    -0.232280638817E+03   -0.20823E-02   -0.20827E-02  8320   0.249E-01 0.216E-04
CGA:   4    -0.232283673438E+03   -0.30346E-02   -0.30363E-02  8320   0.906E-02-0.309E-04
CGA:   5    -0.232284292375E+03   -0.61894E-03   -0.61909E-03  8320   0.431E-02 0.991E-05
CGA:   6    -0.232284778377E+03   -0.48600E-03   -0.48626E-03  8320   0.209E-02-0.599E-05
CGA:   7    -0.232284852038E+03   -0.73661E-04   -0.73727E-04  8320   0.105E-02-0.411E-06
CGA:   8    -0.232284909916E+03   -0.57878E-04   -0.57880E-04  8320   0.473E-03 0.956E-07
CGA:   9    -0.232284950764E+03   -0.40848E-04   -0.40850E-04  8320   0.159E-03-0.128E-06
CGA:  10    -0.232284964001E+03   -0.13237E-04   -0.13236E-04  8320   0.141E-03 0.170E-06
CGA:  11    -0.232284969383E+03   -0.53822E-05   -0.53917E-05  8320   0.814E-04 0.244E-06
  22 F= -.23228497E+03 E0= -.23227333E+03  d E =0.114493E-03  mag=     6.0000
       N       E                     dE             d eps       ncg     rms          ort
SDA:   1    -0.232280594650E+03    0.43694E-02    0.00000E+00  8320   0.213E-01 0.000E+00
CGA:   2    -0.232281683729E+03   -0.10891E-02   -0.10874E-02  8320   0.187E-01-0.572E-05
CGA:   3    -0.232282697714E+03   -0.10140E-02   -0.10144E-02  8320   0.158E-01 0.481E-05
CGA:   4    -0.232283927888E+03   -0.12302E-02   -0.12301E-02  8320   0.643E-02 0.138E-04
CGA:   5    -0.232284404303E+03   -0.47642E-03   -0.47645E-03  8320   0.210E-02-0.117E-04
CGA:   6    -0.232284680177E+03   -0.27587E-03   -0.27583E-03  8320   0.581E-03 0.751E-06
CGA:   7    -0.232284733074E+03   -0.52897E-04   -0.52898E-04  8320   0.339E-03-0.647E-07
CGA:   8    -0.232284749388E+03   -0.16314E-04   -0.16311E-04  8320   0.288E-03-0.675E-07
CGA:   9    -0.232284763504E+03   -0.14115E-04   -0.14123E-04  8320   0.905E-04 0.205E-06
CGA:  10    -0.232284770884E+03   -0.73800E-05   -0.73825E-05  8320   0.413E-04-0.285E-06
  23 F= -.23228477E+03 E0= -.23227312E+03  d E =0.198499E-03  mag=     6.0000
       N       E                     dE             d eps       ncg     rms          ort
SDA:   1    -0.232246178085E+03    0.38585E-01    0.00000E+00  8320   0.124E+00 0.000E+00
CGA:   2    -0.232257275119E+03   -0.11097E-01   -0.11070E-01  8320   0.180E+00 0.127E-02
CGA:   3    -0.232269874029E+03   -0.12599E-01   -0.12595E-01  8320   0.204E+00-0.257E-03
CGA:   4    -0.232277933289E+03   -0.80593E-02   -0.80388E-02  8320   0.357E-01 0.225E-03
CGA:   5    -0.232281551543E+03   -0.36183E-02   -0.36158E-02  8320   0.178E-01 0.707E-04
CGA:   6    -0.232283142988E+03   -0.15914E-02   -0.15919E-02  8320   0.410E-02-0.206E-04
CGA:   7    -0.232283522846E+03   -0.37986E-03   -0.37973E-03  8320   0.435E-02 0.569E-05
CGA:   8    -0.232283667859E+03   -0.14501E-03   -0.14483E-03  8320   0.153E-02 0.267E-05
CGA:   9    -0.232283778678E+03   -0.11082E-03   -0.11082E-03  8320   0.737E-03-0.898E-06
CGA:  10    -0.232283837442E+03   -0.58765E-04   -0.58762E-04  8320   0.307E-03 0.389E-06
CGA:  11    -0.232283870048E+03   -0.32606E-04   -0.32622E-04  8320   0.206E-03-0.515E-06
CGA:  12    -0.232283877658E+03   -0.76096E-05   -0.76047E-05  8320   0.123E-03-0.116E-06
  24 F= -.23228388E+03 E0= -.23227224E+03  d E =0.893226E-03  mag=     6.0000
       N       E                     dE             d eps       ncg     rms          ort
SDA:   1    -0.222295760431E+03    0.99881E+01    0.00000E+00  8320   0.397E+02 0.000E+00
CGA:   2    -0.224756646004E+03   -0.24609E+01   -0.24863E+01  8320   0.515E+02 0.871E-01
CGA:   3    -0.228226955673E+03   -0.34703E+01   -0.34807E+01  8320   0.286E+02 0.102E+01
CGA:   4    -0.230319199307E+03   -0.20922E+01   -0.20591E+01  8320   0.188E+02-0.592E+01
CGA:   5    -0.230872802552E+03   -0.55360E+00   -0.54409E+00  8320   0.201E+02 0.932E-01
CGA:   6    -0.231563373309E+03   -0.69057E+00   -0.74056E+00  8320   0.558E+01-0.811E+00
CGA:   7    -0.231906389411E+03   -0.34302E+00   -0.34096E+00  8320   0.349E+01-0.147E+00
CGA:   8    -0.231984246165E+03   -0.77857E-01   -0.78273E-01  8320   0.152E+01-0.195E-01
CGA:   9    -0.232086353503E+03   -0.10211E+00   -0.10205E+00  8320   0.812E+00 0.400E-01
CGA:  10    -0.232122117122E+03   -0.35764E-01   -0.36466E-01  8320   0.894E+00-0.756E-03
CGA:  11    -0.232152323478E+03   -0.30206E-01   -0.31240E-01  8320   0.236E+00-0.109E-01
CGA:  12    -0.232170216047E+03   -0.17893E-01   -0.17878E-01  8320   0.183E+00 0.747E-03
CGA:  13    -0.232176938749E+03   -0.67227E-02   -0.67938E-02  8320   0.160E+00-0.615E-03
CGA:  14    -0.232186450585E+03   -0.95118E-02   -0.95589E-02  8320   0.466E-01 0.598E-02
CGA:  15    -0.232189468883E+03   -0.30183E-02   -0.30185E-02  8320   0.557E-01 0.116E-03
CGA:  16    -0.232191611358E+03   -0.21425E-02   -0.21464E-02  8320   0.305E-01-0.185E-05
CGA:  17    -0.232193806623E+03   -0.21953E-02   -0.21807E-02  8320   0.174E-01 0.976E-03
CGA:  18    -0.232194705655E+03   -0.89903E-03   -0.90162E-03  8320   0.164E-01 0.624E-04
CGA:  19    -0.232195384802E+03   -0.67915E-03   -0.68005E-03  8320   0.689E-02 0.794E-05
CGA:  20    -0.232196154835E+03   -0.77003E-03   -0.76527E-03  8320   0.694E-02 0.885E-04
CGA:  21    -0.232196414069E+03   -0.25923E-03   -0.26128E-03  8320   0.455E-02-0.838E-05
CGA:  22    -0.232196694202E+03   -0.28013E-03   -0.28014E-03  8320   0.190E-02 0.165E-04
CGA:  23    -0.232196886322E+03   -0.19212E-03   -0.19161E-03  8320   0.209E-02 0.123E-04
CGA:  24    -0.232196970414E+03   -0.84092E-04   -0.84392E-04  8320   0.151E-02 0.255E-05
CGA:  25    -0.232197070006E+03   -0.99592E-04   -0.99558E-04  8320   0.450E-03 0.797E-05
CGA:  26    -0.232197121540E+03   -0.51534E-04   -0.51290E-04  8320   0.695E-03 0.462E-05
CGA:  27    -0.232197145824E+03   -0.24283E-04   -0.24346E-04  8320   0.312E-03 0.815E-06
CGA:  28    -0.232197176008E+03   -0.30185E-04   -0.30101E-04  8320   0.178E-03 0.237E-05
CGA:  29    -0.232197192901E+03   -0.16893E-04   -0.16855E-04  8320   0.230E-03 0.116E-05
CGA:  30    -0.232197202607E+03   -0.97064E-05   -0.97136E-05  8320   0.162E-03 0.226E-06
CGA:  31    -0.232197216211E+03   -0.13604E-04   -0.13586E-04  8320   0.907E-04 0.845E-06
SDA:  32    -0.232197225850E+03   -0.96392E-05   -0.96277E-05  8320   0.124E-03 0.220E-06
  25 F= -.23219723E+03 E0= -.23218587E+03  d E =0.866518E-01  mag=     6.0000
       N       E                     dE             d eps       ncg     rms          ort
SDA:   1    -0.221353661053E+03    0.10844E+02    0.00000E+00  8320   0.549E+02 0.000E+00
CGA:   2    -0.224585089404E+03   -0.32314E+01   -0.33040E+01  8320   0.521E+02 0.480E+01
CGA:   3    -0.227620648241E+03   -0.30356E+01   -0.28900E+01  8320   0.277E+02-0.179E+01
CGA:   4    -0.229633981709E+03   -0.20133E+01   -0.20775E+01  8320   0.238E+02-0.515E+01
CGA:   5    -0.230475401520E+03   -0.84142E+00   -0.79713E+00  8320   0.164E+02 0.395E-01
CGA:   6    -0.231323741316E+03   -0.84834E+00   -0.87262E+00  8320   0.724E+01 0.592E+00
CGA:   7    -0.231724676630E+03   -0.40094E+00   -0.39943E+00  8320   0.989E+01-0.373E-01
CGA:   8    -0.231952177391E+03   -0.22750E+00   -0.22275E+00  8320   0.166E+01 0.211E+00
CGA:   9    -0.232081413479E+03   -0.12924E+00   -0.12895E+00  8320   0.183E+01 0.132E-01
CGA:  10    -0.232128491426E+03   -0.47078E-01   -0.46356E-01  8320   0.904E+00 0.192E-01
CGA:  11    -0.232179512751E+03   -0.51021E-01   -0.50975E-01  8320   0.382E+00-0.424E-02
CGA:  12    -0.232203146486E+03   -0.23634E-01   -0.23499E-01  8320   0.363E+00 0.444E-01
CGA:  13    -0.232214697040E+03   -0.11551E-01   -0.12033E-01  8320   0.155E+00-0.825E-02
CGA:  14    -0.232229235068E+03   -0.14538E-01   -0.14567E-01  8320   0.985E-01-0.749E-03
CGA:  15    -0.232232805249E+03   -0.35702E-02   -0.36248E-02  8320   0.630E-01-0.286E-03
CGA:  16    -0.232237399917E+03   -0.45947E-02   -0.45670E-02  8320   0.322E-01 0.135E-02
CGA:  17    -0.232239561797E+03   -0.21619E-02   -0.21559E-02  8320   0.385E-01 0.635E-03
CGA:  18    -0.232241300867E+03   -0.17391E-02   -0.17356E-02  8320   0.118E-01-0.133E-04
CGA:  19    -0.232242299443E+03   -0.99858E-03   -0.99018E-03  8320   0.137E-01 0.271E-03
CGA:  20    -0.232242897042E+03   -0.59760E-03   -0.59554E-03  8320   0.665E-02-0.721E-05
CGA:  21    -0.232243417563E+03   -0.52052E-03   -0.51729E-03  8320   0.488E-02 0.130E-03
CGA:  22    -0.232243679324E+03   -0.26176E-03   -0.26152E-03  8320   0.397E-02-0.103E-04
CGA:  23    -0.232243903226E+03   -0.22390E-03   -0.22423E-03  8320   0.183E-02 0.397E-04
CGA:  24    -0.232244053733E+03   -0.15051E-03   -0.15091E-03  8320   0.207E-02-0.143E-04
CGA:  25    -0.232244140562E+03   -0.86830E-04   -0.87495E-04  8320   0.918E-03 0.307E-05
CGA:  26    -0.232244230531E+03   -0.89968E-04   -0.90387E-04  8320   0.781E-03-0.100E-04
CGA:  27    -0.232244262979E+03   -0.32449E-04   -0.32642E-04  8320   0.490E-03 0.923E-07
CGA:  28    -0.232244304365E+03   -0.41386E-04   -0.41495E-04  8320   0.300E-03-0.377E-05
CGA:  29    -0.232244321857E+03   -0.17492E-04   -0.17507E-04  8320   0.307E-03 0.196E-05
CGA:  30    -0.232244340927E+03   -0.19069E-04   -0.19068E-04  8320   0.150E-03-0.567E-06
CGA:  31    -0.232244351089E+03   -0.10162E-04   -0.10149E-04  8320   0.128E-03 0.157E-05
SDA:  32    -0.232244358456E+03   -0.73677E-05   -0.73645E-05  8320   0.103E-03-0.261E-06
  26 F= -.23224436E+03 E0= -.23223273E+03  d E =-.471326E-01  mag=     6.0000
       N       E                     dE             d eps       ncg     rms          ort
SDA:   1    -0.231185342557E+03    0.10590E+01    0.00000E+00  8320   0.374E+01 0.000E+00
CGA:   2    -0.231784881712E+03   -0.59954E+00   -0.59895E+00  8320   0.216E+01 0.731E-02
CGA:   3    -0.231987304780E+03   -0.20242E+00   -0.20137E+00  8320   0.203E+01 0.320E-01
CGA:   4    -0.232133587804E+03   -0.14628E+00   -0.14634E+00  8320   0.183E+01-0.736E-02
CGA:   5    -0.232196406206E+03   -0.62818E-01   -0.61359E-01  8320   0.515E+00 0.183E-01
CGA:   6    -0.232245916176E+03   -0.49510E-01   -0.49339E-01  8320   0.155E+00 0.471E-02
CGA:   7    -0.232260237687E+03   -0.14322E-01   -0.14354E-01  8320   0.108E+00-0.994E-03
CGA:   8    -0.232264765854E+03   -0.45282E-02   -0.45270E-02  8320   0.721E-01 0.332E-06
CGA:   9    -0.232268477261E+03   -0.37114E-02   -0.37205E-02  8320   0.276E-01 0.131E-03
CGA:  10    -0.232270906494E+03   -0.24292E-02   -0.24297E-02  8320   0.101E-01-0.161E-04
CGA:  11    -0.232272012737E+03   -0.11062E-02   -0.11057E-02  8320   0.770E-02 0.129E-04
CGA:  12    -0.232272393954E+03   -0.38122E-03   -0.38134E-03  8320   0.680E-02 0.341E-05
CGA:  13    -0.232272727820E+03   -0.33387E-03   -0.33366E-03  8320   0.218E-02-0.310E-06
CGA:  14    -0.232272946557E+03   -0.21874E-03   -0.21849E-03  8320   0.150E-02 0.685E-05
CGA:  15    -0.232273095963E+03   -0.14941E-03   -0.14940E-03  8320   0.636E-03 0.416E-06
CGA:  16    -0.232273173972E+03   -0.78009E-04   -0.77874E-04  8320   0.407E-03 0.257E-05
CGA:  17    -0.232273219357E+03   -0.45386E-04   -0.45377E-04  8320   0.286E-03 0.242E-06
CGA:  18    -0.232273243023E+03   -0.23666E-04   -0.23660E-04  8320   0.164E-03 0.710E-06
CGA:  19    -0.232273251418E+03   -0.83947E-05   -0.84019E-05  8320   0.178E-03 0.287E-06
CGA:  20    -0.232273262974E+03   -0.11556E-04   -0.11556E-04  8320   0.646E-04 0.930E-08
CGA:  21    -0.232273269327E+03   -0.63536E-05   -0.63473E-05  8320   0.308E-04 0.252E-06
  27 F= -.23227327E+03 E0= -.23226175E+03  d E =-.289109E-01  mag=     6.0000
       N       E                     dE             d eps       ncg     rms          ort
SDA:   1    -0.232224003024E+03    0.49260E-01    0.00000E+00  8320   0.250E+00 0.000E+00
CGA:   2    -0.232237328419E+03   -0.13325E-01   -0.13229E-01  8320   0.270E+00-0.312E-03
CGA:   3    -0.232252951363E+03   -0.15623E-01   -0.15627E-01  8320   0.172E+00 0.437E-04
CGA:   4    -0.232263535468E+03   -0.10584E-01   -0.10595E-01  8320   0.566E-01 0.270E-03
CGA:   5    -0.232271607352E+03   -0.80719E-02   -0.80827E-02  8320   0.309E-01-0.155E-03
CGA:   6    -0.232273734348E+03   -0.21270E-02   -0.21269E-02  8320   0.229E-01-0.522E-05
CGA:   7    -0.232274496780E+03   -0.76243E-03   -0.76441E-03  8320   0.795E-02-0.354E-04
CGA:   8    -0.232275231708E+03   -0.73493E-03   -0.73520E-03  8320   0.282E-02-0.106E-04
CGA:   9    -0.232275444817E+03   -0.21311E-03   -0.21311E-03  8320   0.195E-02 0.401E-05
CGA:  10    -0.232275538839E+03   -0.94022E-04   -0.93964E-04  8320   0.153E-02-0.795E-07
CGA:  11    -0.232275623536E+03   -0.84698E-04   -0.84690E-04  8320   0.548E-03-0.142E-06
CGA:  12    -0.232275671632E+03   -0.48096E-04   -0.48091E-04  8320   0.267E-03 0.295E-06
CGA:  13    -0.232275691711E+03   -0.20079E-04   -0.20078E-04  8320   0.392E-03 0.248E-06
CGA:  14    -0.232275709118E+03   -0.17407E-04   -0.17400E-04  8320   0.100E-03-0.101E-07
CGA:  15    -0.232275719330E+03   -0.10212E-04   -0.10198E-04  8320   0.728E-04 0.462E-06
CGA:  16    -0.232275724416E+03   -0.50862E-05   -0.50861E-05  8320   0.797E-04-0.316E-07
  28 F= -.23227572E+03 E0= -.23226422E+03  d E =-.245509E-02  mag=     6.0000
       N       E                     dE             d eps       ncg     rms          ort
SDA:   1    -0.232136990641E+03    0.13873E+00    0.00000E+00  8320   0.568E+00 0.000E+00
CGA:   2    -0.232187681713E+03   -0.50691E-01   -0.50735E-01  8320   0.608E+00-0.178E-02
CGA:   3    -0.232223563953E+03   -0.35882E-01   -0.35905E-01  8320   0.536E+00 0.371E-03
CGA:   4    -0.232244856834E+03   -0.21293E-01   -0.21643E-01  8320   0.179E+00-0.345E-02
CGA:   5    -0.232265296197E+03   -0.20439E-01   -0.20497E-01  8320   0.101E+00-0.115E-02
CGA:   6    -0.232272935954E+03   -0.76398E-02   -0.76375E-02  8320   0.418E-01 0.354E-03
CGA:   7    -0.232274509934E+03   -0.15740E-02   -0.15720E-02  8320   0.270E-01 0.178E-04
CGA:   8    -0.232276584205E+03   -0.20743E-02   -0.20742E-02  8320   0.724E-02 0.122E-04
CGA:   9    -0.232277150393E+03   -0.56619E-03   -0.56620E-03  8320   0.479E-02-0.137E-06
CGA:  10    -0.232277396965E+03   -0.24657E-03   -0.24658E-03  8320   0.413E-02 0.129E-05
CGA:  11    -0.232277616975E+03   -0.22001E-03   -0.21988E-03  8320   0.151E-02-0.182E-05
CGA:  12    -0.232277738981E+03   -0.12201E-03   -0.12198E-03  8320   0.698E-03 0.154E-05
CGA:  13    -0.232277790336E+03   -0.51356E-04   -0.51358E-04  8320   0.104E-02-0.458E-06
CGA:  14    -0.232277840035E+03   -0.49699E-04   -0.49709E-04  8320   0.267E-03 0.748E-06
CGA:  15    -0.232277863550E+03   -0.23514E-04   -0.23499E-04  8320   0.201E-03 0.784E-06
CGA:  16    -0.232277878772E+03   -0.15222E-04   -0.15220E-04  8320   0.237E-03 0.428E-06
CGA:  17    -0.232277889138E+03   -0.10366E-04   -0.10365E-04  8320   0.103E-03 0.773E-07
CGA:  18    -0.232277898394E+03   -0.92563E-05   -0.92432E-05  8320   0.441E-04 0.652E-06
  29 F= -.23227790E+03 E0= -.23226638E+03  d E =-.217398E-02  mag=     6.0000
       N       E                     dE             d eps       ncg     rms          ort
SDA:   1    -0.232249691139E+03    0.28198E-01    0.00000E+00  8320   0.409E+00 0.000E+00
CGA:   2    -0.232258584565E+03   -0.88934E-02   -0.87092E-02  8320   0.669E-01 0.638E-02
CGA:   3    -0.232268799932E+03   -0.10215E-01   -0.10219E-01  8320   0.574E-01-0.484E-04
CGA:   4    -0.232273377008E+03   -0.45771E-02   -0.45755E-02  8320   0.382E-01 0.131E-03
CGA:   5    -0.232275047131E+03   -0.16701E-02   -0.16677E-02  8320   0.316E-01 0.876E-05
CGA:   6    -0.232277194479E+03   -0.21473E-02   -0.21472E-02  8320   0.111E-01-0.196E-04
CGA:   7    -0.232277879789E+03   -0.68531E-03   -0.68561E-03  8320   0.313E-02 0.107E-04
CGA:   8    -0.232278239573E+03   -0.35978E-03   -0.35993E-03  8320   0.102E-02-0.306E-05
CGA:   9    -0.232278328299E+03   -0.88726E-04   -0.88711E-04  8320   0.126E-02 0.107E-05
CGA:  10    -0.232278370874E+03   -0.42574E-04   -0.42548E-04  8320   0.369E-03 0.406E-06
CGA:  11    -0.232278410221E+03   -0.39348E-04   -0.39347E-04  8320   0.240E-03 0.220E-07
CGA:  12    -0.232278429111E+03   -0.18890E-04   -0.18887E-04  8320   0.985E-04 0.494E-06
CGA:  13    -0.232278438074E+03   -0.89635E-05   -0.89604E-05  8320   0.105E-03 0.183E-06
  30 F= -.23227844E+03 E0= -.23226690E+03  d E =-.539680E-03  mag=     6.0000
       N       E                     dE             d eps       ncg     rms          ort
SDA:   1    -0.230950471699E+03    0.13280E+01    0.00000E+00  8320   0.182E+02 0.000E+00
CGA:   2    -0.231336686362E+03   -0.38621E+00   -0.46143E+00  8320   0.493E+01-0.275E+01
CGA:   3    -0.231733005054E+03   -0.39632E+00   -0.40060E+00  8320   0.422E+01-0.123E+00
CGA:   4    -0.231941192336E+03   -0.20819E+00   -0.21102E+00  8320   0.285E+01 0.488E-02
CGA:   5    -0.232089203104E+03   -0.14801E+00   -0.14794E+00  8320   0.121E+01-0.195E-02
CGA:   6    -0.232176039857E+03   -0.86837E-01   -0.86825E-01  8320   0.126E+01 0.289E-02
CGA:   7    -0.232234293230E+03   -0.58253E-01   -0.57881E-01  8320   0.330E+00-0.478E-03
CGA:   8    -0.232250364611E+03   -0.16071E-01   -0.16169E-01  8320   0.179E+00 0.393E-03
CGA:   9    -0.232260852833E+03   -0.10488E-01   -0.10487E-01  8320   0.119E+00-0.723E-04
CGA:  10    -0.232266755271E+03   -0.59024E-02   -0.59053E-02  8320   0.415E-01 0.137E-04
CGA:  11    -0.232269067857E+03   -0.23126E-02   -0.23112E-02  8320   0.327E-01-0.413E-04
CGA:  12    -0.232270921059E+03   -0.18532E-02   -0.18541E-02  8320   0.159E-01 0.391E-04
CGA:  13    -0.232272016869E+03   -0.10958E-02   -0.10958E-02  8320   0.156E-01-0.211E-05
CGA:  14    -0.232272761646E+03   -0.74478E-03   -0.74537E-03  8320   0.526E-02 0.996E-05
CGA:  15    -0.232273126986E+03   -0.36534E-03   -0.36533E-03  8320   0.534E-02 0.193E-05
CGA:  16    -0.232273410894E+03   -0.28391E-03   -0.28400E-03  8320   0.285E-02 0.479E-05
CGA:  17    -0.232273623476E+03   -0.21258E-03   -0.21260E-03  8320   0.244E-02-0.930E-06
CGA:  18    -0.232273735303E+03   -0.11183E-03   -0.11191E-03  8320   0.116E-02 0.186E-05
CGA:  19    -0.232273826596E+03   -0.91292E-04   -0.91278E-04  8320   0.123E-02 0.904E-06
CGA:  20    -0.232273898557E+03   -0.71961E-04   -0.71972E-04  8320   0.780E-03 0.149E-05
CGA:  21    -0.232273938281E+03   -0.39724E-04   -0.39720E-04  8320   0.350E-03 0.248E-06
CGA:  22    -0.232273962378E+03   -0.24097E-04   -0.24089E-04  8320   0.362E-03 0.161E-05
CGA:  23    -0.232273983012E+03   -0.20635E-04   -0.20643E-04  8320   0.190E-03 0.123E-05
CGA:  24    -0.232273995448E+03   -0.12436E-04   -0.12434E-04  8320   0.147E-03 0.113E-05
CGA:  25    -0.232274002783E+03   -0.73344E-05   -0.73421E-05  8320   0.809E-04 0.568E-06
  31 F= -.23227400E+03 E0= -.23226231E+03  d E =0.443529E-02  mag=     6.0000
       N       E                     dE             d eps       ncg     rms          ort
SDA:   1    -0.231727908585E+03    0.54609E+00    0.00000E+00  8320   0.220E+01 0.000E+00
CGA:   2    -0.231908176009E+03   -0.18027E+00   -0.17984E+00  8320   0.295E+01 0.171E-01
CGA:   3    -0.232042009637E+03   -0.13383E+00   -0.13485E+00  8320   0.169E+01 0.795E-03
CGA:   4    -0.232153141771E+03   -0.11113E+00   -0.11122E+00  8320   0.702E+00-0.255E-01
CGA:   5    -0.232222924657E+03   -0.69783E-01   -0.69338E-01  8320   0.494E+00 0.106E-01
CGA:   6    -0.232253513204E+03   -0.30589E-01   -0.30563E-01  8320   0.312E+00-0.225E-02
CGA:   7    -0.232263371945E+03   -0.98587E-02   -0.98759E-02  8320   0.821E-01-0.313E-03
CGA:   8    -0.232272482211E+03   -0.91103E-02   -0.91021E-02  8320   0.244E-01 0.163E-03
CGA:   9    -0.232274422842E+03   -0.19406E-02   -0.19404E-02  8320   0.253E-01 0.136E-04
CGA:  10    -0.232275391545E+03   -0.96870E-03   -0.96860E-03  8320   0.110E-01-0.724E-07
CGA:  11    -0.232276233590E+03   -0.84205E-03   -0.84173E-03  8320   0.557E-02 0.194E-04
CGA:  12    -0.232276684774E+03   -0.45118E-03   -0.45140E-03  8320   0.293E-02-0.109E-04
CGA:  13    -0.232276853616E+03   -0.16884E-03   -0.16888E-03  8320   0.316E-02 0.162E-05
CGA:  14    -0.232277013357E+03   -0.15974E-03   -0.15977E-03  8320   0.113E-02 0.497E-06
CGA:  15    -0.232277129854E+03   -0.11650E-03   -0.11648E-03  8320   0.599E-03 0.576E-06
CGA:  16    -0.232277169640E+03   -0.39786E-04   -0.39786E-04  8320   0.786E-03 0.984E-06
CGA:  17    -0.232277212046E+03   -0.42406E-04   -0.42437E-04  8320   0.406E-03 0.201E-05
CGA:  18    -0.232277242681E+03   -0.30634E-04   -0.30633E-04  8320   0.166E-03 0.268E-06
CGA:  19    -0.232277258203E+03   -0.15523E-04   -0.15513E-04  8320   0.233E-03 0.366E-06
CGA:  20    -0.232277267818E+03   -0.96145E-05   -0.96085E-05  8320   0.110E-03-0.146E-06
  32 F= -.23227727E+03 E0= -.23226569E+03  d E =-.326504E-02  mag=     6.0000
       N       E                     dE             d eps       ncg     rms          ort
SDA:   1    -0.232244166622E+03    0.33092E-01    0.00000E+00  8320   0.117E+00 0.000E+00
CGA:   2    -0.232255545923E+03   -0.11379E-01   -0.11407E-01  8320   0.124E+00-0.752E-03
CGA:   3    -0.232267527060E+03   -0.11981E-01   -0.11968E-01  8320   0.444E-01 0.364E-03
CGA:   4    -0.232272335653E+03   -0.48086E-02   -0.48133E-02  8320   0.468E-01-0.107E-03
CGA:   5    -0.232274115779E+03   -0.17801E-02   -0.17836E-02  8320   0.243E-01-0.412E-04
CGA:   6    -0.232275387234E+03   -0.12715E-02   -0.12717E-02  8320   0.491E-02 0.334E-05
CGA:   7    -0.232275927723E+03   -0.54049E-03   -0.54041E-03  8320   0.252E-02 0.192E-05
CGA:   8    -0.232276088773E+03   -0.16105E-03   -0.16101E-03  8320   0.170E-02-0.191E-05
CGA:   9    -0.232276155364E+03   -0.66591E-04   -0.66630E-04  8320   0.944E-03 0.183E-06
CGA:  10    -0.232276232238E+03   -0.76874E-04   -0.76884E-04  8320   0.317E-03-0.598E-06
CGA:  11    -0.232276264283E+03   -0.32045E-04   -0.32016E-04  8320   0.217E-03 0.932E-06
CGA:  12    -0.232276273852E+03   -0.95687E-05   -0.95619E-05  8320   0.177E-03-0.124E-06
CGA:  13    -0.232276286397E+03   -0.12545E-04   -0.12545E-04  8320   0.856E-04-0.255E-07
CGA:  14    -0.232276292409E+03   -0.60114E-05   -0.60116E-05  8320   0.392E-04 0.311E-06
  33 F= -.23227629E+03 E0= -.23226473E+03  d E =0.975409E-03  mag=     6.0000
       N       E                     dE             d eps       ncg     rms          ort
SDA:   1    -0.232264654476E+03    0.11632E-01    0.00000E+00  8320   0.286E+00 0.000E+00
CGA:   2    -0.232270189118E+03   -0.55346E-02   -0.56261E-02  8320   0.201E-01-0.393E-02
CGA:   3    -0.232273120300E+03   -0.29312E-02   -0.29326E-02  8320   0.212E-01-0.189E-04
CGA:   4    -0.232274459405E+03   -0.13391E-02   -0.13395E-02  8320   0.163E-01 0.151E-04
CGA:   5    -0.232275101252E+03   -0.64185E-03   -0.64138E-03  8320   0.747E-02 0.366E-05
CGA:   6    -0.232275814485E+03   -0.71323E-03   -0.71276E-03  8320   0.407E-02 0.156E-04
CGA:   7    -0.232276044604E+03   -0.23012E-03   -0.23000E-03  8320   0.167E-02-0.251E-05
CGA:   8    -0.232276109581E+03   -0.64976E-04   -0.65014E-04  8320   0.979E-03-0.376E-06
CGA:   9    -0.232276185636E+03   -0.76056E-04   -0.76061E-04  8320   0.296E-03-0.733E-06
CGA:  10    -0.232276207172E+03   -0.21535E-04   -0.21537E-04  8320   0.277E-03-0.492E-06
CGA:  11    -0.232276218620E+03   -0.11448E-04   -0.11435E-04  8320   0.131E-03-0.345E-06
CGA:  12    -0.232276228427E+03   -0.98069E-05   -0.98038E-05  8320   0.668E-04 0.446E-06
  34 F= -.23227623E+03 E0= -.23226465E+03  d E =0.639821E-04  mag=     6.0000
       N       E                     dE             d eps       ncg     rms          ort
SDA:   1    -0.232267205502E+03    0.90131E-02    0.00000E+00  8320   0.162E+00 0.000E+00
CGA:   2    -0.232270406630E+03   -0.32011E-02   -0.31589E-02  8320   0.138E-01 0.167E-02
CGA:   3    -0.232273815493E+03   -0.34089E-02   -0.34098E-02  8320   0.148E-01-0.741E-05
CGA:   4    -0.232274598883E+03   -0.78339E-03   -0.78608E-03  8320   0.113E-01 0.778E-05
CGA:   5    -0.232275062450E+03   -0.46357E-03   -0.46321E-03  8320   0.508E-02-0.106E-05
CGA:   6    -0.232275427478E+03   -0.36503E-03   -0.36502E-03  8320   0.164E-02-0.354E-05
CGA:   7    -0.232275561207E+03   -0.13373E-03   -0.13370E-03  8320   0.528E-03 0.265E-05
CGA:   8    -0.232275609886E+03   -0.48679E-04   -0.48689E-04  8320   0.452E-03-0.349E-06
CGA:   9    -0.232275627486E+03   -0.17600E-04   -0.17613E-04  8320   0.236E-03 0.301E-06
CGA:  10    -0.232275639650E+03   -0.12165E-04   -0.12166E-04  8320   0.855E-04 0.941E-07
CGA:  11    -0.232275649992E+03   -0.10342E-04   -0.10345E-04  8320   0.363E-04-0.688E-07
CGA:  12    -0.232275653588E+03   -0.35953E-05   -0.35973E-05  8320   0.169E-04-0.700E-07
  35 F= -.23227565E+03 E0= -.23226408E+03  d E =0.574839E-03  mag=     6.0000
       N       E                     dE             d eps       ncg     rms          ort
SDA:   1    -0.231841481100E+03    0.43417E+00    0.00000E+00  8320   0.132E+01 0.000E+00
CGA:   2    -0.231976156864E+03   -0.13468E+00   -0.13425E+00  8320   0.324E+01 0.130E-01
CGA:   3    -0.232124290779E+03   -0.14813E+00   -0.14640E+00  8320   0.909E+00 0.736E-02
CGA:   4    -0.232199190494E+03   -0.74900E-01   -0.74837E-01  8320   0.465E+00 0.642E-02
CGA:   5    -0.232244482588E+03   -0.45292E-01   -0.45321E-01  8320   0.304E+00-0.101E-02
CGA:   6    -0.232254762421E+03   -0.10280E-01   -0.10283E-01  8320   0.120E+00-0.109E-03
CGA:   7    -0.232261431784E+03   -0.66694E-02   -0.66474E-02  8320   0.517E-01-0.159E-03
CGA:   8    -0.232266031602E+03   -0.45998E-02   -0.45979E-02  8320   0.187E-01 0.887E-04
CGA:   9    -0.232266959871E+03   -0.92827E-03   -0.92549E-03  8320   0.165E-01-0.127E-06
CGA:  10    -0.232267875997E+03   -0.91613E-03   -0.91604E-03  8320   0.809E-02-0.838E-06
CGA:  11    -0.232268454348E+03   -0.57835E-03   -0.57836E-03  8320   0.284E-02 0.297E-05
CGA:  12    -0.232268671285E+03   -0.21694E-03   -0.21693E-03  8320   0.337E-02 0.152E-05
CGA:  13    -0.232268806052E+03   -0.13477E-03   -0.13466E-03  8320   0.126E-02 0.176E-05
CGA:  14    -0.232268935274E+03   -0.12922E-03   -0.12914E-03  8320   0.579E-03 0.247E-05
CGA:  15    -0.232268973547E+03   -0.38273E-04   -0.38272E-04  8320   0.721E-03 0.956E-07
CGA:  16    -0.232269010404E+03   -0.36857E-04   -0.36877E-04  8320   0.366E-03 0.871E-06
CGA:  17    -0.232269045550E+03   -0.35146E-04   -0.35118E-04  8320   0.212E-03 0.112E-05
CGA:  18    -0.232269058241E+03   -0.12691E-04   -0.12695E-04  8320   0.189E-03 0.313E-06
CGA:  19    -0.232269068311E+03   -0.10070E-04   -0.10072E-04  8320   0.147E-03 0.145E-06
CGA:  20    -0.232269081382E+03   -0.13071E-04   -0.13054E-04  8320   0.557E-04 0.101E-05
CGA:  21    -0.232269085372E+03   -0.39896E-05   -0.39899E-05  8320   0.698E-04 0.199E-06
  36 F= -.23226909E+03 E0= -.23225745E+03  d E =0.656822E-02  mag=     6.0000
       N       E                     dE             d eps       ncg     rms          ort
SDA:   1    -0.232185903682E+03    0.83178E-01    0.00000E+00  8320   0.300E+00 0.000E+00
CGA:   2    -0.232217150990E+03   -0.31247E-01   -0.31173E-01  8320   0.458E+00 0.186E-02
CGA:   3    -0.232238016954E+03   -0.20866E-01   -0.20821E-01  8320   0.276E+00 0.117E-03
CGA:   4    -0.232252006732E+03   -0.13990E-01   -0.14100E-01  8320   0.105E+00 0.566E-03
CGA:   5    -0.232264501848E+03   -0.12495E-01   -0.12511E-01  8320   0.506E-01-0.294E-03
CGA:   6    -0.232268213441E+03   -0.37116E-02   -0.37114E-02  8320   0.165E-01 0.890E-04
CGA:   7    -0.232269693184E+03   -0.14797E-02   -0.14816E-02  8320   0.113E-01-0.737E-04
CGA:   8    -0.232270123870E+03   -0.43069E-03   -0.43117E-03  8320   0.640E-02-0.331E-05
CGA:   9    -0.232270486662E+03   -0.36279E-03   -0.36287E-03  8320   0.219E-02 0.205E-05
CGA:  10    -0.232270716220E+03   -0.22956E-03   -0.22958E-03  8320   0.989E-03-0.634E-06
CGA:  11    -0.232270803768E+03   -0.87548E-04   -0.87544E-04  8320   0.101E-02 0.276E-06
CGA:  12    -0.232270840272E+03   -0.36504E-04   -0.36515E-04  8320   0.439E-03 0.234E-06
CGA:  13    -0.232270874844E+03   -0.34571E-04   -0.34577E-04  8320   0.276E-03-0.713E-06
CGA:  14    -0.232270898525E+03   -0.23681E-04   -0.23672E-04  8320   0.112E-03 0.579E-06
CGA:  15    -0.232270906830E+03   -0.83058E-05   -0.83058E-05  8320   0.165E-03-0.109E-07
  37 F= -.23227091E+03 E0= -.23225930E+03  d E =-.182146E-02  mag=     6.0000
       N       E                     dE             d eps       ncg     rms          ort
SDA:   1    -0.232256287143E+03    0.14611E-01    0.00000E+00  8320   0.964E-01 0.000E+00
CGA:   2    -0.232260290740E+03   -0.40036E-02   -0.40163E-02  8320   0.686E-01-0.913E-04
CGA:   3    -0.232264314616E+03   -0.40239E-02   -0.40188E-02  8320   0.562E-01-0.143E-03
CGA:   4    -0.232268658964E+03   -0.43443E-02   -0.43420E-02  8320   0.171E-01 0.175E-03
CGA:   5    -0.232270567913E+03   -0.19089E-02   -0.19102E-02  8320   0.116E-01-0.264E-04
CGA:   6    -0.232271511823E+03   -0.94391E-03   -0.94372E-03  8320   0.372E-02 0.131E-04
CGA:   7    -0.232271740178E+03   -0.22835E-03   -0.22824E-03  8320   0.309E-02-0.356E-05
CGA:   8    -0.232271859778E+03   -0.11960E-03   -0.11963E-03  8320   0.130E-02 0.873E-06
CGA:   9    -0.232271959785E+03   -0.10001E-03   -0.99997E-04  8320   0.335E-03 0.127E-05
CGA:  10    -0.232271999701E+03   -0.39916E-04   -0.39916E-04  8320   0.252E-03 0.264E-08
CGA:  11    -0.232272014099E+03   -0.14398E-04   -0.14400E-04  8320   0.230E-03 0.128E-06
CGA:  12    -0.232272023545E+03   -0.94461E-05   -0.94593E-05  8320   0.691E-04 0.316E-06
  38 F= -.23227202E+03 E0= -.23226044E+03  d E =-.111671E-02  mag=     6.0000
       N       E                     dE             d eps       ncg     rms          ort
SDA:   1    -0.232265537226E+03    0.64769E-02    0.00000E+00  8320   0.654E-01 0.000E+00
CGA:   2    -0.232267829316E+03   -0.22921E-02   -0.22671E-02  8320   0.221E-01 0.373E-03
CGA:   3    -0.232268893408E+03   -0.10641E-02   -0.10638E-02  8320   0.190E-01-0.247E-07
CGA:   4    -0.232270683043E+03   -0.17896E-02   -0.17894E-02  8320   0.582E-02 0.796E-05
CGA:   5    -0.232271461381E+03   -0.77834E-03   -0.77860E-03  8320   0.413E-02-0.390E-05
CGA:   6    -0.232271779184E+03   -0.31780E-03   -0.31781E-03  8320   0.296E-02-0.409E-06
CGA:   7    -0.232271869543E+03   -0.90359E-04   -0.90453E-04  8320   0.856E-03-0.568E-06
CGA:   8    -0.232271945869E+03   -0.76326E-04   -0.76344E-04  8320   0.368E-03-0.936E-06
CGA:   9    -0.232271974991E+03   -0.29122E-04   -0.29123E-04  8320   0.180E-03-0.135E-06
CGA:  10    -0.232271984001E+03   -0.90096E-05   -0.90049E-05  8320   0.161E-03-0.190E-06
  39 F= -.23227198E+03 E0= -.23226039E+03  d E =0.395441E-04  mag=     6.0000
       N       E                     dE             d eps       ncg     rms          ort
SDA:   1    -0.232035533322E+03    0.23644E+00    0.00000E+00  8320   0.699E+00 0.000E+00
CGA:   2    -0.232129266762E+03   -0.93733E-01   -0.93944E-01  8320   0.154E+01-0.309E-02
CGA:   3    -0.232192054409E+03   -0.62788E-01   -0.62565E-01  8320   0.692E+00 0.944E-03
CGA:   4    -0.232226637653E+03   -0.34583E-01   -0.35001E-01  8320   0.286E+00 0.112E-02
CGA:   5    -0.232259078498E+03   -0.32441E-01   -0.32501E-01  8320   0.752E-01-0.124E-02
CGA:   6    -0.232266620962E+03   -0.75425E-02   -0.75338E-02  8320   0.351E-01 0.247E-03
CGA:   7    -0.232268783287E+03   -0.21623E-02   -0.21595E-02  8320   0.295E-01-0.636E-04
CGA:   8    -0.232269881177E+03   -0.10979E-02   -0.11004E-02  8320   0.102E-01-0.335E-04
CGA:   9    -0.232270664292E+03   -0.78312E-03   -0.78303E-03  8320   0.487E-02 0.121E-04
CGA:  10    -0.232271110401E+03   -0.44611E-03   -0.44620E-03  8320   0.199E-02-0.308E-05
CGA:  11    -0.232271290443E+03   -0.18004E-03   -0.18000E-03  8320   0.176E-02 0.215E-05
CGA:  12    -0.232271352289E+03   -0.61846E-04   -0.61921E-04  8320   0.870E-03 0.583E-06
CGA:  13    -0.232271433105E+03   -0.80817E-04   -0.80813E-04  8320   0.397E-03 0.281E-06
CGA:  14    -0.232271463010E+03   -0.29905E-04   -0.29902E-04  8320   0.219E-03 0.123E-05
CGA:  15    -0.232271484062E+03   -0.21051E-04   -0.21048E-04  8320   0.344E-03 0.153E-06
CGA:  16    -0.232271497016E+03   -0.12955E-04   -0.12969E-04  8320   0.109E-03 0.363E-06
CGA:  17    -0.232271507631E+03   -0.10615E-04   -0.10605E-04  8320   0.615E-04 0.420E-06
CGA:  18    -0.232271514485E+03   -0.68532E-05   -0.68421E-05  8320   0.690E-04 0.308E-06
  40 F= -.23227151E+03 E0= -.23225989E+03  d E =0.469516E-03  mag=     6.0000
       N       E                     dE             d eps       ncg     rms          ort
SDA:   1    -0.232182722435E+03    0.88785E-01    0.00000E+00  8320   0.331E+00 0.000E+00
CGA:   2    -0.232209032279E+03   -0.26310E-01   -0.26337E-01  8320   0.630E+00-0.302E-02
CGA:   3    -0.232239943483E+03   -0.30911E-01   -0.30936E-01  8320   0.231E+00-0.631E-04
CGA:   4    -0.232254531995E+03   -0.14589E-01   -0.14614E-01  8320   0.120E+00 0.863E-03
CGA:   5    -0.232269087180E+03   -0.14555E-01   -0.14566E-01  8320   0.342E-01-0.209E-03
CGA:   6    -0.232272225791E+03   -0.31386E-02   -0.31371E-02  8320   0.277E-01 0.617E-04
CGA:   7    -0.232273170349E+03   -0.94456E-03   -0.94172E-03  8320   0.123E-01 0.448E-04
CGA:   8    -0.232274011787E+03   -0.84144E-03   -0.84139E-03  8320   0.418E-02-0.501E-05
CGA:   9    -0.232274355415E+03   -0.34363E-03   -0.34358E-03  8320   0.230E-02 0.438E-05
CGA:  10    -0.232274561734E+03   -0.20632E-03   -0.20632E-03  8320   0.132E-02 0.290E-06
CGA:  11    -0.232274613758E+03   -0.52025E-04   -0.52000E-04  8320   0.917E-03 0.381E-06
CGA:  12    -0.232274677881E+03   -0.64122E-04   -0.64127E-04  8320   0.364E-03 0.117E-05
CGA:  13    -0.232274718641E+03   -0.40761E-04   -0.40793E-04  8320   0.205E-03-0.807E-06
CGA:  14    -0.232274730886E+03   -0.12245E-04   -0.12252E-04  8320   0.201E-03 0.422E-06
CGA:  15    -0.232274740973E+03   -0.10087E-04   -0.10091E-04  8320   0.130E-03 0.202E-06
CGA:  16    -0.232274751361E+03   -0.10388E-04   -0.10387E-04  8320   0.559E-04 0.786E-07
CGA:  17    -0.232274757110E+03   -0.57485E-05   -0.57480E-05  8320   0.482E-04 0.235E-07
  41 F= -.23227476E+03 E0= -.23226311E+03  d E =-.324262E-02  mag=     6.0000
       N       E                     dE             d eps       ncg     rms          ort
SDA:   1    -0.232253002940E+03    0.21748E-01    0.00000E+00  8320   0.131E+00 0.000E+00
CGA:   2    -0.232258253696E+03   -0.52508E-02   -0.52988E-02  8320   0.110E+00-0.463E-03
CGA:   3    -0.232265869760E+03   -0.76161E-02   -0.76163E-02  8320   0.530E-01 0.484E-04
CGA:   4    -0.232269435274E+03   -0.35655E-02   -0.35646E-02  8320   0.270E-01-0.969E-04
CGA:   5    -0.232272656885E+03   -0.32216E-02   -0.32220E-02  8320   0.312E-01-0.694E-05
CGA:   6    -0.232273667148E+03   -0.10103E-02   -0.10145E-02  8320   0.109E-01-0.760E-04
CGA:   7    -0.232274484944E+03   -0.81780E-03   -0.81786E-03  8320   0.376E-02-0.121E-04
CGA:   8    -0.232274793052E+03   -0.30811E-03   -0.30802E-03  8320   0.292E-02 0.637E-05
CGA:   9    -0.232274896011E+03   -0.10296E-03   -0.10288E-03  8320   0.112E-02 0.167E-05
CGA:  10    -0.232274970004E+03   -0.73992E-04   -0.73993E-04  8320   0.522E-03 0.272E-06
CGA:  11    -0.232275017709E+03   -0.47705E-04   -0.47708E-04  8320   0.370E-03-0.165E-06
CGA:  12    -0.232275031408E+03   -0.13700E-04   -0.13704E-04  8320   0.185E-03 0.340E-07
CGA:  13    -0.232275044782E+03   -0.13374E-04   -0.13375E-04  8320   0.980E-04-0.302E-06
CGA:  14    -0.232275054143E+03   -0.93604E-05   -0.93491E-05  8320   0.855E-04 0.430E-06
  42 F= -.23227505E+03 E0= -.23226344E+03  d E =-.297033E-03  mag=     6.0000
       N       E                     dE             d eps       ncg     rms          ort
SDA:   1    -0.232261998411E+03    0.13046E-01    0.00000E+00  8320   0.154E+00 0.000E+00
CGA:   2    -0.232265755228E+03   -0.37568E-02   -0.37488E-02  8320   0.416E-01 0.207E-03
CGA:   3    -0.232270201260E+03   -0.44460E-02   -0.44391E-02  8320   0.440E-01 0.155E-03
CGA:   4    -0.232273334674E+03   -0.31334E-02   -0.31338E-02  8320   0.129E-01-0.103E-03
CGA:   5    -0.232275094536E+03   -0.17599E-02   -0.17586E-02  8320   0.135E-01 0.190E-04
CGA:   6    -0.232275539161E+03   -0.44462E-03   -0.44399E-03  8320   0.544E-02 0.917E-05
CGA:   7    -0.232275879790E+03   -0.34063E-03   -0.34065E-03  8320   0.189E-02 0.211E-05
CGA:   8    -0.232276045996E+03   -0.16621E-03   -0.16618E-03  8320   0.905E-03 0.164E-05
CGA:   9    -0.232276100714E+03   -0.54718E-04   -0.54728E-04  8320   0.724E-03 0.707E-06
CGA:  10    -0.232276127720E+03   -0.27006E-04   -0.26997E-04  8320   0.251E-03-0.151E-06
CGA:  11    -0.232276155899E+03   -0.28179E-04   -0.28159E-04  8320   0.123E-03 0.474E-06
CGA:  12    -0.232276164522E+03   -0.86226E-05   -0.86220E-05  8320   0.107E-03-0.285E-06
  43 F= -.23227616E+03 E0= -.23226457E+03  d E =-.111038E-02  mag=     6.0000
       N       E                     dE             d eps       ncg     rms          ort
[...]
CGA:  17    -0.232252694544E+03   -0.64877E-05   -0.64894E-05  8320   0.505E-04-0.121E-06
  91 F= -.23225269E+03 E0= -.23224088E+03  d E =-.295615E-02  mag=     6.0000
       N       E                     dE             d eps       ncg     rms          ort
SDA:   1    -0.229727798957E+03    0.25249E+01    0.00000E+00  8320   0.712E+01 0.000E+00
CGA:   2    -0.230445729321E+03   -0.71793E+00   -0.71660E+00  8320   0.205E+02 0.534E-01
CGA:   3    -0.231535879703E+03   -0.10902E+01   -0.10970E+01  8320   0.478E+01 0.383E-01
CGA:   4    -0.231885953002E+03   -0.35007E+00   -0.35095E+00  8320   0.299E+01-0.177E+00
CGA:   5    -0.232135958235E+03   -0.25001E+00   -0.24949E+00  8320   0.733E+00 0.223E-01
CGA:   6    -0.232181029649E+03   -0.45071E-01   -0.45020E-01  8320   0.686E+00-0.165E-02
CGA:   7    -0.232207259125E+03   -0.26229E-01   -0.26252E-01  8320   0.257E+00-0.317E-03
CGA:   8    -0.232227094488E+03   -0.19835E-01   -0.19828E-01  8320   0.719E-01 0.581E-03
CGA:   9    -0.232234269651E+03   -0.71752E-02   -0.71608E-02  8320   0.543E-01 0.390E-03
CGA:  10    -0.232237355135E+03   -0.30855E-02   -0.30775E-02  8320   0.469E-01-0.130E-03
CGA:  11    -0.232239133499E+03   -0.17784E-02   -0.17835E-02  8320   0.120E-01-0.544E-04
CGA:  12    -0.232240385463E+03   -0.12520E-02   -0.12514E-02  8320   0.630E-02 0.130E-04
CGA:  13    -0.232241090770E+03   -0.70531E-03   -0.70457E-03  8320   0.473E-02 0.165E-04
CGA:  14    -0.232241243872E+03   -0.15310E-03   -0.15299E-03  8320   0.228E-02 0.512E-05
CGA:  15    -0.232241485457E+03   -0.24159E-03   -0.24130E-03  8320   0.178E-02 0.766E-05
CGA:  16    -0.232241649304E+03   -0.16385E-03   -0.16367E-03  8320   0.986E-03 0.845E-05
CGA:  17    -0.232241702228E+03   -0.52924E-04   -0.52988E-04  8320   0.942E-03 0.278E-05
CGA:  18    -0.232241755072E+03   -0.52844E-04   -0.52884E-04  8320   0.649E-03 0.254E-05
CGA:  19    -0.232241814341E+03   -0.59269E-04   -0.59174E-04  8320   0.269E-03 0.473E-05
CGA:  20    -0.232241836570E+03   -0.22228E-04   -0.22218E-04  8320   0.249E-03 0.102E-05
CGA:  21    -0.232241846917E+03   -0.10348E-04   -0.10379E-04  8320   0.163E-03 0.805E-06
CGA:  22    -0.232241860297E+03   -0.13379E-04   -0.13363E-04  8320   0.801E-04 0.147E-05
CGA:  23    -0.232241866602E+03   -0.63049E-05   -0.63009E-05  8320   0.363E-04 0.577E-06
  92 F= -.23224187E+03 E0= -.23223001E+03  d E =0.108279E-01  mag=     6.0000
       N       E                     dE             d eps       ncg     rms          ort
SDA:   1    -0.231428874578E+03    0.81299E+00    0.00000E+00  8320   0.235E+01 0.000E+00
CGA:   2    -0.231829222715E+03   -0.40035E+00   -0.40435E+00  8320   0.329E+01-0.427E-01
CGA:   3    -0.232016587581E+03   -0.18736E+00   -0.19052E+00  8320   0.165E+01 0.353E-01
CGA:   4    -0.232092026782E+03   -0.75439E-01   -0.74905E-01  8320   0.147E+01 0.190E-02
CGA:   5    -0.232194117170E+03   -0.10209E+00   -0.10204E+00  8320   0.292E+00-0.398E-02
CGA:   6    -0.232218545815E+03   -0.24429E-01   -0.24409E-01  8320   0.149E+00 0.127E-02
CGA:   7    -0.232229073066E+03   -0.10527E-01   -0.10530E-01  8320   0.919E-01 0.288E-03
CGA:   8    -0.232232277805E+03   -0.32047E-02   -0.31907E-02  8320   0.423E-01 0.214E-03
CGA:   9    -0.232235323563E+03   -0.30458E-02   -0.30458E-02  8320   0.165E-01 0.533E-04
CGA:  10    -0.232237146067E+03   -0.18225E-02   -0.18225E-02  8320   0.736E-02 0.141E-05
CGA:  11    -0.232237552898E+03   -0.40683E-03   -0.40720E-03  8320   0.747E-02 0.636E-05
CGA:  12    -0.232237931201E+03   -0.37830E-03   -0.37824E-03  8320   0.385E-02 0.200E-05
CGA:  13    -0.232238199853E+03   -0.26865E-03   -0.26865E-03  8320   0.148E-02-0.107E-06
CGA:  14    -0.232238340588E+03   -0.14074E-03   -0.14065E-03  8320   0.120E-02 0.338E-05
CGA:  15    -0.232238395249E+03   -0.54661E-04   -0.54713E-04  8320   0.107E-02 0.135E-05
CGA:  16    -0.232238476036E+03   -0.80787E-04   -0.80786E-04  8320   0.463E-03 0.637E-06
CGA:  17    -0.232238518388E+03   -0.42353E-04   -0.42311E-04  8320   0.298E-03 0.194E-05
CGA:  18    -0.232238536266E+03   -0.17878E-04   -0.17881E-04  8320   0.386E-03 0.322E-06
CGA:  19    -0.232238560061E+03   -0.23795E-04   -0.23806E-04  8320   0.176E-03 0.955E-06
CGA:  20    -0.232238572603E+03   -0.12542E-04   -0.12542E-04  8320   0.714E-04 0.713E-06
CGA:  21    -0.232238579038E+03   -0.64350E-05   -0.64323E-05  8320   0.120E-03 0.150E-06
  93 F= -.23223858E+03 E0= -.23222671E+03  d E =0.328756E-02  mag=     6.0000
       N       E                     dE             d eps       ncg     rms          ort
SDA:   1    -0.231750411370E+03    0.48816E+00    0.00000E+00  8320   0.163E+01 0.000E+00
CGA:   2    -0.231913850114E+03   -0.16344E+00   -0.16383E+00  8320   0.352E+01-0.100E-01
CGA:   3    -0.232058108450E+03   -0.14426E+00   -0.14607E+00  8320   0.129E+01-0.176E-01
CGA:   4    -0.232159004760E+03   -0.10090E+00   -0.10095E+00  8320   0.463E+00-0.429E-02
CGA:   5    -0.232220078172E+03   -0.61073E-01   -0.61051E-01  8320   0.151E+00 0.344E-03
CGA:   6    -0.232231329148E+03   -0.11251E-01   -0.11251E-01  8320   0.109E+00-0.855E-03
CGA:   7    -0.232236100967E+03   -0.47718E-02   -0.47769E-02  8320   0.728E-01-0.268E-04
CGA:   8    -0.232239515005E+03   -0.34140E-02   -0.34067E-02  8320   0.184E-01 0.148E-04
CGA:   9    -0.232241391055E+03   -0.18760E-02   -0.18748E-02  8320   0.946E-02 0.345E-04
CGA:  10    -0.232242089386E+03   -0.69833E-03   -0.69835E-03  8320   0.893E-02-0.179E-04
CGA:  11    -0.232242449078E+03   -0.35969E-03   -0.35992E-03  8320   0.454E-02 0.257E-06
CGA:  12    -0.232242718654E+03   -0.26958E-03   -0.26961E-03  8320   0.173E-02 0.226E-05
CGA:  13    -0.232242923126E+03   -0.20447E-03   -0.20441E-03  8320   0.118E-02 0.124E-05
CGA:  14    -0.232242988706E+03   -0.65580E-04   -0.65576E-04  8320   0.122E-02-0.153E-08
CGA:  15    -0.232243045574E+03   -0.56868E-04   -0.56906E-04  8320   0.416E-03 0.658E-06
CGA:  16    -0.232243105588E+03   -0.60015E-04   -0.60026E-04  8320   0.331E-03-0.150E-06
CGA:  17    -0.232243126341E+03   -0.20753E-04   -0.20759E-04  8320   0.336E-03 0.319E-06
CGA:  18    -0.232243140837E+03   -0.14496E-04   -0.14492E-04  8320   0.153E-03-0.204E-06
CGA:  19    -0.232243156310E+03   -0.15472E-04   -0.15477E-04  8320   0.117E-03-0.158E-06
CGA:  20    -0.232243165850E+03   -0.95401E-05   -0.95379E-05  8320   0.853E-04 0.295E-06
  94 F= -.23224317E+03 E0= -.23223128E+03  d E =-.458681E-02  mag=     6.0000
       N       E                     dE             d eps       ncg     rms          ort
SDA:   1    -0.232083703841E+03    0.15945E+00    0.00000E+00  8320   0.541E+00 0.000E+00
CGA:   2    -0.232127426676E+03   -0.43723E-01   -0.43661E-01  8320   0.107E+01 0.459E-02
CGA:   3    -0.232184138448E+03   -0.56712E-01   -0.56535E-01  8320   0.465E+00-0.111E-02
CGA:   4    -0.232214955456E+03   -0.30817E-01   -0.30803E-01  8320   0.180E+00-0.108E-02
CGA:   5    -0.232231980871E+03   -0.17025E-01   -0.17012E-01  8320   0.120E+00 0.420E-03
CGA:   6    -0.232237556939E+03   -0.55761E-02   -0.55720E-02  8320   0.727E-01 0.957E-05
CGA:   7    -0.232240332651E+03   -0.27757E-02   -0.27610E-02  8320   0.177E-01 0.158E-03
CGA:   8    -0.232242364331E+03   -0.20317E-02   -0.20309E-02  8320   0.792E-02 0.162E-04
CGA:   9    -0.232242808638E+03   -0.44431E-03   -0.44418E-03  8320   0.719E-02-0.255E-05
CGA:  10    -0.232243118967E+03   -0.31033E-03   -0.31058E-03  8320   0.278E-02-0.510E-06
CGA:  11    -0.232243348857E+03   -0.22989E-03   -0.22991E-03  8320   0.138E-02-0.702E-06
CGA:  12    -0.232243455251E+03   -0.10639E-03   -0.10639E-03  8320   0.110E-02 0.338E-06
CGA:  13    -0.232243495053E+03   -0.39802E-04   -0.39781E-04  8320   0.517E-03-0.524E-07
CGA:  14    -0.232243543102E+03   -0.48049E-04   -0.48020E-04  8320   0.292E-03 0.112E-05
CGA:  15    -0.232243566939E+03   -0.23837E-04   -0.23838E-04  8320   0.247E-03-0.868E-07
CGA:  16    -0.232243577018E+03   -0.10079E-04   -0.10094E-04  8320   0.145E-03 0.409E-06
CGA:  17    -0.232243587913E+03   -0.10895E-04   -0.10892E-04  8320   0.104E-03 0.631E-06
CGA:  18    -0.232243598411E+03   -0.10498E-04   -0.10478E-04  8320   0.592E-04 0.664E-06
CGA:  19    -0.232243600783E+03   -0.23719E-05   -0.23760E-05  8320   0.447E-04 0.131E-06
  95 F= -.23224360E+03 E0= -.23223175E+03  d E =-.434933E-03  mag=     6.0000
       N       E                     dE             d eps       ncg     rms          ort
SDA:   1    -0.232211327073E+03    0.32271E-01    0.00000E+00  8320   0.120E+00 0.000E+00
CGA:   2    -0.232217995680E+03   -0.66686E-02   -0.66885E-02  8320   0.184E+00 0.305E-03
CGA:   3    -0.232232209125E+03   -0.14213E-01   -0.14214E-01  8320   0.110E+00-0.368E-04
CGA:   4    -0.232240389548E+03   -0.81804E-02   -0.81804E-02  8320   0.233E-01 0.403E-05
CGA:   5    -0.232242932862E+03   -0.25433E-02   -0.25428E-02  8320   0.179E-01 0.111E-04
CGA:   6    -0.232243825464E+03   -0.89260E-03   -0.89251E-03  8320   0.874E-02 0.230E-06
CGA:   7    -0.232244122035E+03   -0.29657E-03   -0.29543E-03  8320   0.310E-02 0.169E-04
CGA:   8    -0.232244419564E+03   -0.29753E-03   -0.29743E-03  8320   0.120E-02 0.338E-05
CGA:   9    -0.232244519051E+03   -0.99487E-04   -0.99510E-04  8320   0.710E-03-0.144E-05
CGA:  10    -0.232244553790E+03   -0.34740E-04   -0.34756E-04  8320   0.581E-03 0.525E-06
CGA:  11    -0.232244582149E+03   -0.28359E-04   -0.28359E-04  8320   0.227E-03 0.283E-06
CGA:  12    -0.232244602195E+03   -0.20045E-04   -0.20040E-04  8320   0.729E-04 0.242E-06
CGA:  13    -0.232244608539E+03   -0.63444E-05   -0.63451E-05  8320   0.113E-03-0.262E-07
  96 F= -.23224461E+03 E0= -.23223275E+03  d E =-.100776E-02  mag=     6.0000
       N       E                     dE             d eps       ncg     rms          ort
SDA:   1    -0.232182633955E+03    0.61968E-01    0.00000E+00  8320   0.216E+00 0.000E+00
CGA:   2    -0.232194709805E+03   -0.12076E-01   -0.12098E-01  8320   0.360E+00 0.421E-03
CGA:   3    -0.232226570874E+03   -0.31861E-01   -0.31865E-01  8320   0.142E+00-0.149E-03
CGA:   4    -0.232237828209E+03   -0.11257E-01   -0.11254E-01  8320   0.485E-01 0.188E-03
CGA:   5    -0.232242967492E+03   -0.51393E-02   -0.51447E-02  8320   0.317E-01-0.127E-03
CGA:   6    -0.232244026357E+03   -0.10589E-02   -0.10647E-02  8320   0.137E-01-0.939E-04
CGA:   7    -0.232244774693E+03   -0.74834E-03   -0.74823E-03  8320   0.587E-02-0.742E-06
CGA:   8    -0.232245251341E+03   -0.47665E-03   -0.47667E-03  8320   0.221E-02-0.989E-06
CGA:   9    -0.232245417431E+03   -0.16609E-03   -0.16608E-03  8320   0.213E-02 0.122E-05
CGA:  10    -0.232245492832E+03   -0.75401E-04   -0.75504E-04  8320   0.779E-03 0.496E-07
CGA:  11    -0.232245558457E+03   -0.65625E-04   -0.65640E-04  8320   0.421E-03-0.720E-06
CGA:  12    -0.232245589692E+03   -0.31235E-04   -0.31231E-04  8320   0.200E-03 0.721E-06
CGA:  13    -0.232245598715E+03   -0.90231E-05   -0.90227E-05  8320   0.178E-03 0.932E-08
CGA:  14    -0.232245611478E+03   -0.12763E-04   -0.12762E-04  8320   0.722E-04 0.259E-06
CGA:  15    -0.232245618598E+03   -0.71206E-05   -0.71218E-05  8320   0.463E-04-0.443E-07
  97 F= -.23224562E+03 E0= -.23223377E+03  d E =-.101006E-02  mag=     6.0000
       N       E                     dE             d eps       ncg     rms          ort
SDA:   1    -0.232214610223E+03    0.31001E-01    0.00000E+00  8320   0.210E+00 0.000E+00
CGA:   2    -0.232220438433E+03   -0.58282E-02   -0.58671E-02  8320   0.101E+00-0.975E-03
CGA:   3    -0.232234114393E+03   -0.13676E-01   -0.13683E-01  8320   0.640E-01-0.107E-03
CGA:   4    -0.232239887671E+03   -0.57733E-02   -0.57716E-02  8320   0.329E-01 0.613E-04
CGA:   5    -0.232241972057E+03   -0.20844E-02   -0.20832E-02  8320   0.418E-01-0.568E-04
CGA:   6    -0.232243752476E+03   -0.17804E-02   -0.17811E-02  8320   0.620E-02-0.134E-05
CGA:   7    -0.232244287190E+03   -0.53471E-03   -0.53481E-03  8320   0.329E-02-0.403E-05
CGA:   8    -0.232244504201E+03   -0.21701E-03   -0.21702E-03  8320   0.280E-02 0.146E-05
CGA:   9    -0.232244602257E+03   -0.98056E-04   -0.97873E-04  8320   0.840E-03 0.187E-05
CGA:  10    -0.232244674768E+03   -0.72511E-04   -0.72500E-04  8320   0.413E-03 0.444E-06
CGA:  11    -0.232244713941E+03   -0.39172E-04   -0.39185E-04  8320   0.404E-03-0.467E-06
CGA:  12    -0.232244726419E+03   -0.12478E-04   -0.12485E-04  8320   0.123E-03 0.108E-06
CGA:  13    -0.232244740821E+03   -0.14402E-04   -0.14400E-04  8320   0.707E-04 0.549E-07
CGA:  14    -0.232244746762E+03   -0.59413E-05   -0.59389E-05  8320   0.929E-04 0.184E-06
  98 F= -.23224475E+03 E0= -.23223291E+03  d E =0.871836E-03  mag=     6.0000
       N       E                     dE             d eps       ncg     rms          ort
SDA:   1    -0.232215904236E+03    0.28837E-01    0.00000E+00  8320   0.100E+00 0.000E+00
CGA:   2    -0.232223824892E+03   -0.79207E-02   -0.79293E-02  8320   0.214E+00-0.573E-03
CGA:   3    -0.232235199194E+03   -0.11374E-01   -0.11376E-01  8320   0.714E-01 0.251E-04
CGA:   4    -0.232240651769E+03   -0.54526E-02   -0.54504E-02  8320   0.349E-01 0.182E-03
CGA:   5    -0.232244520753E+03   -0.38690E-02   -0.38719E-02  8320   0.107E-01-0.631E-04
CGA:   6    -0.232245356436E+03   -0.83568E-03   -0.83537E-03  8320   0.569E-02 0.290E-04
CGA:   7    -0.232245598590E+03   -0.24215E-03   -0.24193E-03  8320   0.447E-02 0.962E-06
CGA:   8    -0.232245850469E+03   -0.25188E-03   -0.25193E-03  8320   0.848E-03 0.162E-05
CGA:   9    -0.232245955770E+03   -0.10530E-03   -0.10528E-03  8320   0.513E-03 0.388E-06
CGA:  10    -0.232245994545E+03   -0.38775E-04   -0.38773E-04  8320   0.404E-03 0.656E-06
CGA:  11    -0.232246008492E+03   -0.13947E-04   -0.13943E-04  8320   0.174E-03 0.207E-06
CGA:  12    -0.232246022962E+03   -0.14470E-04   -0.14464E-04  8320   0.924E-04 0.458E-06
CGA:  13    -0.232246032046E+03   -0.90840E-05   -0.90862E-05  8320   0.407E-04-0.785E-07
  99 F= -.23224603E+03 E0= -.23223420E+03  d E =-.128528E-02  mag=     6.0000
       N       E                     dE             d eps       ncg     rms          ort
SDA:   1    -0.232015669270E+03    0.23035E+00    0.00000E+00  8320   0.965E+00 0.000E+00
CGA:   2    -0.232061383410E+03   -0.45714E-01   -0.45962E-01  8320   0.123E+01-0.694E-03
CGA:   3    -0.232167369722E+03   -0.10599E+00   -0.10615E+00  8320   0.476E+00-0.699E-02
CGA:   4    -0.232204443710E+03   -0.37074E-01   -0.37017E-01  8320   0.329E+00 0.495E-02
CGA:   5    -0.232232150854E+03   -0.27707E-01   -0.27740E-01  8320   0.214E+00-0.180E-02
CGA:   6    -0.232238595180E+03   -0.64443E-02   -0.64734E-02  8320   0.696E-01-0.645E-03
CGA:   7    -0.232243910271E+03   -0.53151E-02   -0.53143E-02  8320   0.287E-01 0.734E-04
CGA:   8    -0.232246328653E+03   -0.24184E-02   -0.24189E-02  8320   0.144E-01-0.270E-04
CGA:   9    -0.232246862515E+03   -0.53386E-03   -0.53278E-03  8320   0.866E-02 0.123E-04
CGA:  10    -0.232247505379E+03   -0.64286E-03   -0.64276E-03  8320   0.471E-02 0.137E-04
CGA:  11    -0.232247841586E+03   -0.33621E-03   -0.33622E-03  8320   0.170E-02-0.564E-05
CGA:  12    -0.232247940100E+03   -0.98514E-04   -0.98546E-04  8320   0.204E-02 0.222E-05
CGA:  13    -0.232248050342E+03   -0.11024E-03   -0.11024E-03  8320   0.674E-03 0.133E-05
CGA:  14    -0.232248111900E+03   -0.61558E-04   -0.61549E-04  8320   0.438E-03 0.303E-06
CGA:  15    -0.232248134560E+03   -0.22661E-04   -0.22663E-04  8320   0.365E-03 0.730E-07
CGA:  16    -0.232248154345E+03   -0.19784E-04   -0.19795E-04  8320   0.231E-03 0.554E-06
CGA:  17    -0.232248176474E+03   -0.22129E-04   -0.22142E-04  8320   0.106E-03-0.431E-06
CGA:  18    -0.232248182840E+03   -0.63664E-05   -0.63665E-05  8320   0.131E-03-0.597E-09
 100 F= -.23224818E+03 E0= -.23223635E+03  d E =-.215079E-02  mag=     6.0000
       N       E                     dE             d eps       ncg     rms          ort
SDA:   1    -0.232166043360E+03    0.82133E-01    0.00000E+00  8320   0.365E+00 0.000E+00
CGA:   2    -0.232183955913E+03   -0.17913E-01   -0.17930E-01  8320   0.424E+00 0.535E-04
CGA:   3    -0.232212896517E+03   -0.28941E-01   -0.28936E-01  8320   0.258E+00 0.248E-02
CGA:   4    -0.232229194057E+03   -0.16298E-01   -0.16281E-01  8320   0.952E-01-0.153E-02
CGA:   5    -0.232241366874E+03   -0.12173E-01   -0.12157E-01  8320   0.510E-01 0.251E-03
CGA:   6    -0.232243965811E+03   -0.25989E-02   -0.25956E-02  8320   0.360E-01-0.241E-04
CGA:   7    -0.232245345240E+03   -0.13794E-02   -0.13820E-02  8320   0.124E-01-0.252E-04
CGA:   8    -0.232246426012E+03   -0.10808E-02   -0.10807E-02  8320   0.437E-02 0.287E-05
CGA:   9    -0.232246749955E+03   -0.32394E-03   -0.32394E-03  8320   0.282E-02 0.382E-06
CGA:  10    -0.232246879190E+03   -0.12924E-03   -0.12918E-03  8320   0.234E-02-0.580E-06
CGA:  11    -0.232247020137E+03   -0.14095E-03   -0.14097E-03  8320   0.657E-03 0.967E-06
CGA:  12    -0.232247080261E+03   -0.60124E-04   -0.60161E-04  8320   0.390E-03-0.148E-05
CGA:  13    -0.232247104708E+03   -0.24447E-04   -0.24451E-04  8320   0.471E-03 0.530E-06
CGA:  14    -0.232247127871E+03   -0.23163E-04   -0.23166E-04  8320   0.176E-03 0.253E-06
CGA:  15    -0.232247139609E+03   -0.11738E-04   -0.11738E-04  8320   0.792E-04 0.397E-07
CGA:  16    -0.232247149124E+03   -0.95146E-05   -0.94997E-05  8320   0.128E-03 0.281E-06
 101 F= -.23224715E+03 E0= -.23223532E+03  d E =0.103372E-02  mag=     6.0000
       N       E                     dE             d eps       ncg     rms          ort
SDA:   1    -0.232228446566E+03    0.18693E-01    0.00000E+00  8320   0.103E+00 0.000E+00
CGA:   2    -0.232231830831E+03   -0.33843E-02   -0.34274E-02  8320   0.739E-01-0.686E-03
CGA:   3    -0.232240729440E+03   -0.88986E-02   -0.88974E-02  8320   0.704E-01 0.211E-04
CGA:   4    -0.232245507172E+03   -0.47777E-02   -0.47774E-02  8320   0.168E-01-0.122E-03
CGA:   5    -0.232247006055E+03   -0.14989E-02   -0.14990E-02  8320   0.158E-01-0.362E-05
CGA:   6    -0.232247611744E+03   -0.60569E-03   -0.60661E-03  8320   0.780E-02-0.786E-05
CGA:   7    -0.232248009190E+03   -0.39745E-03   -0.39728E-03  8320   0.169E-02-0.294E-05
CGA:   8    -0.232248161797E+03   -0.15261E-03   -0.15253E-03  8320   0.108E-02 0.303E-05
CGA:   9    -0.232248231768E+03   -0.69971E-04   -0.69968E-04  8320   0.868E-03-0.118E-06
CGA:  10    -0.232248262279E+03   -0.30511E-04   -0.30534E-04  8320   0.281E-03 0.496E-06
CGA:  11    -0.232248286060E+03   -0.23781E-04   -0.23775E-04  8320   0.138E-03 0.376E-06
CGA:  12    -0.232248300419E+03   -0.14358E-04   -0.14368E-04  8320   0.108E-03-0.273E-06
CGA:  13    -0.232248303760E+03   -0.33415E-05   -0.33360E-05  8320   0.424E-04-0.128E-06
 102 F= -.23224830E+03 E0= -.23223648E+03  d E =-.115464E-02  mag=     6.0000
       N       E                     dE             d eps       ncg     rms          ort
SDA:   1    -0.232199211706E+03    0.49089E-01    0.00000E+00  8320   0.151E+00 0.000E+00
CGA:   2    -0.232210222184E+03   -0.11010E-01   -0.11009E-01  8320   0.346E+00 0.311E-03
CGA:   3    -0.232236496121E+03   -0.26274E-01   -0.26282E-01  8320   0.107E+00-0.720E-03
CGA:   4    -0.232244026022E+03   -0.75299E-02   -0.75295E-02  8320   0.367E-01 0.436E-03
CGA:   5    -0.232247569465E+03   -0.35434E-02   -0.35475E-02  8320   0.189E-01-0.120E-03
CGA:   6    -0.232248455645E+03   -0.88618E-03   -0.88740E-03  8320   0.143E-01 0.215E-05
CGA:   7    -0.232249051462E+03   -0.59582E-03   -0.59515E-03  8320   0.335E-02 0.561E-05
CGA:   8    -0.232249406586E+03   -0.35512E-03   -0.35492E-03  8320   0.158E-02 0.495E-05
CGA:   9    -0.232249521678E+03   -0.11509E-03   -0.11510E-03  8320   0.142E-02-0.113E-05
CGA:  10    -0.232249572066E+03   -0.50388E-04   -0.50453E-04  8320   0.546E-03-0.115E-06
CGA:  11    -0.232249618055E+03   -0.45988E-04   -0.45975E-04  8320   0.285E-03 0.871E-06
CGA:  12    -0.232249637617E+03   -0.19563E-04   -0.19562E-04  8320   0.123E-03-0.533E-07
CGA:  13    -0.232249645224E+03   -0.76066E-05   -0.76056E-05  8320   0.152E-03-0.149E-06
 103 F= -.23224965E+03 E0= -.23223784E+03  d E =-.134146E-02  mag=     6.0000
