       N       E                     dE             d eps       ncg     rms          rms(c)
DAV:   1     0.526020194477E+04    0.52602E+04   -0.24502E+05 29848   0.163E+03
DAV:   2     0.293517466991E+03   -0.49667E+04   -0.46620E+04 30864   0.473E+02
DAV:   3    -0.316500257410E+03   -0.61002E+03   -0.57077E+03 31928   0.177E+02
DAV:   4    -0.342604942027E+03   -0.26105E+02   -0.25535E+02 34288   0.385E+01
DAV:   5    -0.343481457026E+03   -0.87651E+00   -0.87387E+00 42832   0.670E+00    0.581E-01
DAV:   6    -0.343645631974E+03   -0.16417E+00   -0.29011E-01 44328   0.126E+00    0.295E+00
DAV:   7    -0.343633358509E+03    0.12273E-01   -0.87956E-02 41224   0.637E-01    0.154E+00
DAV:   8    -0.343636166730E+03   -0.28082E-02   -0.21434E-02 38848   0.321E-01    0.138E+00
DAV:   9    -0.343634259989E+03    0.19067E-02   -0.55327E-03 37128   0.181E-01    0.500E-01
DAV:  10    -0.343635003599E+03   -0.74361E-03   -0.17829E-03 37144   0.937E-02    0.634E-01
DAV:  11    -0.343635983476E+03   -0.97988E-03   -0.28499E-03 38224   0.106E-01    0.961E-01
DAV:  12    -0.343635603858E+03    0.37962E-03   -0.32604E-04 32472   0.619E-02    0.103E+00
DAV:  13    -0.343635000554E+03    0.60330E-03   -0.27854E-03 38448   0.107E-01    0.990E-01
DAV:  14    -0.343633760160E+03    0.12404E-02   -0.32679E-03 38856   0.121E-01    0.434E-01
DAV:  15    -0.343634558910E+03   -0.79875E-03   -0.14602E-03 37968   0.102E-01    0.516E-01
DAV:  16    -0.343634513180E+03    0.45730E-04   -0.16001E-03 37984   0.855E-02    0.388E-01
DAV:  17    -0.343634384706E+03    0.12847E-03   -0.88098E-04 35904   0.690E-02    0.249E-01
DAV:  18    -0.343634455133E+03   -0.70427E-04   -0.27403E-04 27024   0.397E-02    0.288E-01
DAV:  19    -0.343634351937E+03    0.10320E-03   -0.24560E-04 28240   0.407E-02    0.223E-01
DAV:  20    -0.343634360548E+03   -0.86107E-05   -0.10367E-04 24872   0.296E-02    0.251E-01
DAV:  21    -0.343634321159E+03    0.39389E-04   -0.75444E-05 21264   0.240E-02    0.224E-01
DAV:  22    -0.343634261534E+03    0.59625E-04   -0.40767E-05 20840   0.198E-02    0.239E-01
DAV:  23    -0.343634219642E+03    0.41892E-04   -0.64660E-05 22464   0.230E-02    0.241E-01
DAV:  24    -0.343634214730E+03    0.49123E-05   -0.84406E-06 16744   0.981E-03
   1 F= -.34363421E+03 E0= -.34361848E+03  d E =-.343634E+03  mag=     7.8527
       N       E                     dE             d eps       ncg     rms          rms(c)
DAV:   1    -0.343636634601E+03   -0.24150E-02   -0.27234E-01 30576   0.199E+00    0.577E-01
DAV:   2    -0.343643671979E+03   -0.70374E-02   -0.41980E-02 37168   0.604E-01    0.228E+00
DAV:   3    -0.343635257116E+03    0.84149E-02   -0.36337E-02 38080   0.409E-01    0.113E+00
DAV:   4    -0.343635411724E+03   -0.15461E-03   -0.60035E-03 37688   0.281E-01    0.725E-01
DAV:   5    -0.343637803676E+03   -0.23920E-02   -0.13132E-02 38304   0.266E-01    0.149E+00
DAV:   6    -0.343635365786E+03    0.24379E-02   -0.16977E-02 38032   0.273E-01    0.919E-01
DAV:   7    -0.343635229576E+03    0.13621E-03   -0.72104E-03 37848   0.203E-01    0.780E-01
DAV:   8    -0.343635268366E+03   -0.38790E-04   -0.45298E-03 37912   0.159E-01    0.578E-01
DAV:   9    -0.343635056994E+03    0.21137E-03   -0.30258E-03 37888   0.133E-01    0.389E-01
DAV:  10    -0.343635034697E+03    0.22297E-04   -0.64677E-04 35152   0.638E-02    0.246E-01
DAV:  11    -0.343635072471E+03   -0.37774E-04   -0.50168E-05 24776   0.251E-02    0.221E-01
DAV:  12    -0.343635059493E+03    0.12978E-04   -0.45141E-06 15384   0.765E-03    0.220E-01
DAV:  13    -0.343635077068E+03   -0.17575E-04   -0.54887E-06 15352   0.583E-03    0.229E-01
DAV:  14    -0.343635078339E+03   -0.12707E-05   -0.34748E-06 15368   0.567E-03
   2 F= -.34363508E+03 E0= -.34361825E+03  d E =-.863609E-03  mag=     7.8318
       N       E                     dE             d eps       ncg     rms          rms(c)
DAV:   1    -0.343634990619E+03    0.86449E-04   -0.15473E-03 31616   0.146E-01    0.250E-01
DAV:   2    -0.343639712176E+03   -0.47216E-02   -0.15226E-02 38376   0.287E-01    0.168E+00
DAV:   3    -0.343634485459E+03    0.52267E-02   -0.14992E-02 37040   0.256E-01    0.452E-01
DAV:   4    -0.343635256122E+03   -0.77066E-03   -0.11417E-03 33544   0.922E-02    0.324E-01
DAV:   5    -0.343635314196E+03   -0.58074E-04   -0.32276E-04 29224   0.420E-02    0.457E-01
DAV:   6    -0.343635012105E+03    0.30209E-03   -0.12304E-03 36096   0.945E-02    0.428E-01
DAV:   7    -0.343634956878E+03    0.55227E-04   -0.29664E-04 34688   0.534E-02    0.273E-01
DAV:   8    -0.343634994505E+03   -0.37627E-04   -0.59820E-05 20064   0.216E-02    0.258E-01
DAV:   9    -0.343634998295E+03   -0.37900E-05   -0.22817E-05 16144   0.145E-02
   3 F= -.34363500E+03 E0= -.34361852E+03  d E =-.783565E-03  mag=     7.8327
       N       E                     dE             d eps       ncg     rms          rms(c)
DAV:   1    -0.343635224562E+03   -0.23006E-03   -0.19740E-02 30368   0.534E-01    0.361E-01
DAV:   2    -0.343646130525E+03   -0.10906E-01   -0.34543E-02 38792   0.450E-01    0.283E+00
DAV:   3    -0.343632508892E+03    0.13622E-01   -0.39217E-02 37488   0.418E-01    0.695E-01
DAV:   4    -0.343634911267E+03   -0.24024E-02   -0.37488E-03 33712   0.161E-01    0.343E-01
DAV:   5    -0.343635300083E+03   -0.38882E-03   -0.12840E-03 36032   0.891E-02    0.429E-01
DAV:   6    -0.343635178188E+03    0.12189E-03   -0.23930E-04 29720   0.471E-02    0.318E-01
DAV:   7    -0.343635201366E+03   -0.23177E-04   -0.51226E-05 18672   0.187E-02    0.347E-01
DAV:   8    -0.343635116601E+03    0.84764E-04   -0.12669E-04 22496   0.285E-02    0.401E-01
DAV:   9    -0.343635009797E+03    0.10680E-03   -0.50705E-04 30200   0.650E-02    0.386E-01
DAV:  10    -0.343635469833E+03   -0.46004E-03   -0.15635E-03 37944   0.968E-02    0.689E-01
DAV:  11    -0.343634656092E+03    0.81374E-03   -0.22748E-03 37792   0.938E-02    0.251E-01
DAV:  12    -0.343634984061E+03   -0.32797E-03   -0.83129E-04 36656   0.811E-02    0.385E-01
DAV:  13    -0.343634898843E+03    0.85218E-04   -0.93084E-04 36128   0.767E-02    0.240E-01
DAV:  14    -0.343634857725E+03    0.41118E-04   -0.53306E-04 31648   0.602E-02    0.179E-01
DAV:  15    -0.343634905468E+03   -0.47742E-04   -0.41211E-04 25560   0.461E-02    0.266E-01
DAV:  16    -0.343634798584E+03    0.10688E-03   -0.39570E-04 28744   0.499E-02    0.119E-01
DAV:  17    -0.343634860979E+03   -0.62395E-04   -0.18185E-04 22816   0.293E-02    0.180E-01
DAV:  18    -0.343634809745E+03    0.51234E-04   -0.12245E-04 21488   0.273E-02    0.986E-02
DAV:  19    -0.343634792775E+03    0.16971E-04   -0.23463E-05 18872   0.162E-02    0.945E-02
DAV:  20    -0.343634735572E+03    0.57203E-04   -0.47911E-05 21592   0.158E-02    0.104E-01
DAV:  21    -0.343634680905E+03    0.54667E-04   -0.36601E-05 22136   0.137E-02    0.124E-01
DAV:  22    -0.343634670296E+03    0.10609E-04   -0.76440E-06 16904   0.758E-03    0.128E-01
DAV:  23    -0.343634675360E+03   -0.50641E-05   -0.12218E-06 14768   0.404E-03
   4 F= -.34363468E+03 E0= -.34361890E+03  d E =-.460630E-03  mag=     7.8426
