       N       E                     dE             d eps       ncg     rms          rms(c)
DAV:   1     0.834026516442E+04    0.83403E+04   -0.33050E+05 32904   0.163E+03
DAV:   2     0.633205258867E+03   -0.77071E+04   -0.71359E+04 32024   0.488E+02
DAV:   3    -0.419846870116E+03   -0.10531E+04   -0.10263E+04 32856   0.194E+02
DAV:   4    -0.470798503238E+03   -0.50952E+02   -0.50263E+02 37712   0.392E+01
DAV:   5    -0.473216339826E+03   -0.24178E+01   -0.23780E+01 51112   0.667E+00    0.778E+01
DAV:   6    -0.438544493693E+03    0.34672E+02   -0.33530E+02 37024   0.390E+01    0.618E+01
DAV:   7    -0.439859186806E+03   -0.13147E+01   -0.31412E+01 32984   0.162E+01    0.415E+01
DAV:   8    -0.439648090855E+03    0.21110E+00   -0.45304E+00 40584   0.652E+00    0.279E+01
DAV:   9    -0.439590668843E+03    0.57422E-01   -0.50033E+00 37576   0.655E+00    0.155E+01
DAV:  10    -0.439654817968E+03   -0.64149E-01   -0.85184E-01 33808   0.315E+00    0.453E+00
DAV:  11    -0.439579508088E+03    0.75310E-01   -0.31299E-01 41160   0.218E+00    0.307E+00
DAV:  12    -0.439589836886E+03   -0.10329E-01   -0.13517E-01 36080   0.119E+00    0.236E+00
DAV:  13    -0.439592921421E+03   -0.30845E-02   -0.40902E-02 34624   0.694E-01    0.876E-01
DAV:  14    -0.439595773225E+03   -0.28518E-02   -0.83013E-03 35040   0.331E-01    0.611E-01
DAV:  15    -0.439597570737E+03   -0.17975E-02   -0.46704E-03 34424   0.237E-01    0.422E-01
DAV:  16    -0.439598971542E+03   -0.14008E-02   -0.23606E-03 34480   0.149E-01    0.182E-01
DAV:  17    -0.439599251438E+03   -0.27990E-03   -0.84336E-04 37560   0.957E-02    0.170E-01
DAV:  18    -0.439599235007E+03    0.16430E-04   -0.41151E-04 35120   0.661E-02    0.642E-02
DAV:  19    -0.439599257166E+03   -0.22159E-04   -0.73571E-05 31816   0.214E-02    0.691E-02
DAV:  20    -0.439599254796E+03    0.23703E-05   -0.41375E-05 26776   0.246E-02
   1 F= -.43959925E+03 E0= -.43959017E+03  d E =-.439599E+03  mag=    77.9995
       N       E                     dE             d eps       ncg     rms          rms(c)
DAV:   1    -0.439609488465E+03   -0.10231E-01   -0.77465E-03 34624   0.189E-01    0.313E-02
DAV:   2    -0.439609531188E+03   -0.42723E-04   -0.41856E-04 31920   0.363E-02    0.409E-02
DAV:   3    -0.439609530858E+03    0.33060E-06   -0.20983E-05 23784   0.153E-02    0.199E-02
DAV:   4    -0.439609530635E+03    0.22291E-06   -0.26599E-06 17048   0.557E-03
   2 F= -.43960953E+03 E0= -.43960046E+03  d E =-.102758E-01  mag=    77.9998
       N       E                     dE             d eps       ncg     rms          rms(c)
DAV:   1    -0.440005654390E+03   -0.39612E+00   -0.26533E+01 35040   0.111E+01    0.165E+00
DAV:   2    -0.440152092648E+03   -0.14644E+00   -0.14515E+00 33344   0.192E+00    0.979E-01
DAV:   3    -0.440154313903E+03   -0.22213E-02   -0.44754E-02 41696   0.433E-01    0.626E-01
DAV:   4    -0.440153341948E+03    0.97196E-03   -0.41467E-03 38592   0.171E-01    0.402E-01
DAV:   5    -0.440152092112E+03    0.12498E-02   -0.12077E-03 36520   0.129E-01    0.326E-01
DAV:   6    -0.440151514228E+03    0.57788E-03   -0.16056E-03 36752   0.130E-01    0.142E-01
DAV:   7    -0.440151543813E+03   -0.29585E-04   -0.80810E-04 38336   0.632E-02    0.625E-02
DAV:   8    -0.440151546736E+03   -0.29234E-05   -0.92663E-05 34872   0.266E-02
   3 F= -.44015155E+03 E0= -.44014266E+03  d E =-.542016E+00  mag=    78.0000
       N       E                     dE             d eps       ncg     rms          rms(c)
DAV:   1    -0.440087216281E+03    0.64328E-01   -0.14710E+02 35056   0.274E+01    0.443E+00
DAV:   2    -0.441117763672E+03   -0.10305E+01   -0.10223E+01 33144   0.501E+00    0.306E+00
DAV:   3    -0.441129241777E+03   -0.11478E-01   -0.31093E-01 42584   0.128E+00    0.176E+00
DAV:   4    -0.441122514934E+03    0.67268E-02   -0.36547E-02 36984   0.472E-01    0.959E-01
DAV:   5    -0.441114507116E+03    0.80078E-02   -0.83059E-03 39280   0.296E-01    0.665E-01
DAV:   6    -0.441112439577E+03    0.20675E-02   -0.77296E-03 39168   0.291E-01    0.507E-01
DAV:   7    -0.441112059105E+03    0.38047E-03   -0.31295E-03 41984   0.185E-01    0.178E-01
DAV:   8    -0.441112065753E+03   -0.66473E-05   -0.68799E-04 38032   0.810E-02    0.969E-02
DAV:   9    -0.441112063260E+03    0.24930E-05   -0.11985E-04 37312   0.301E-02    0.604E-02
DAV:  10    -0.441112056997E+03    0.62629E-05   -0.36373E-05 29264   0.207E-02
   4 F= -.44111206E+03 E0= -.44110329E+03  d E =-.960510E+00  mag=    78.0000
       N       E                     dE             d eps       ncg     rms          rms(c)
DAV:   1    -0.440362830299E+03    0.74923E+00   -0.13760E+02 34640   0.318E+01    0.543E+00
DAV:   2    -0.441627146251E+03   -0.12643E+01   -0.12170E+01 32592   0.580E+00    0.421E+00
DAV:   3    -0.441653343674E+03   -0.26197E-01   -0.41922E-01 42048   0.169E+00    0.236E+00
DAV:   4    -0.441647863034E+03    0.54806E-02   -0.48983E-02 38336   0.619E-01    0.108E+00
DAV:   5    -0.441642503969E+03    0.53591E-02   -0.89016E-03 38752   0.281E-01    0.826E-01
DAV:   6    -0.441639484669E+03    0.30193E-02   -0.59893E-03 38224   0.275E-01    0.520E-01
DAV:   7    -0.441638684893E+03    0.79978E-03   -0.34291E-03 39864   0.176E-01    0.151E-01
DAV:   8    -0.441638757260E+03   -0.72367E-04   -0.12374E-03 37016   0.855E-02    0.118E-01
DAV:   9    -0.441638758696E+03   -0.14360E-05   -0.15744E-04 38584   0.323E-02    0.632E-02
DAV:  10    -0.441638755207E+03    0.34889E-05   -0.30573E-05 30040   0.195E-02
   5 F= -.44163876E+03 E0= -.44162947E+03  d E =-.526698E+00  mag=    78.0000
       N       E                     dE             d eps       ncg     rms          rms(c)
DAV:   1    -0.440249861391E+03    0.13889E+01   -0.13541E+02 34776   0.369E+01    0.643E+00
DAV:   2    -0.441831491661E+03   -0.15816E+01   -0.14801E+01 31592   0.679E+00    0.537E+00
DAV:   3    -0.441879338837E+03   -0.47847E-01   -0.61943E-01 40864   0.212E+00    0.301E+00
DAV:   4    -0.441875533052E+03    0.38058E-02   -0.71376E-02 38112   0.795E-01    0.124E+00
DAV:   5    -0.441872010501E+03    0.35226E-02   -0.11410E-02 37592   0.294E-01    0.945E-01
DAV:   6    -0.441869370318E+03    0.26402E-02   -0.47796E-03 37840   0.269E-01    0.653E-01
DAV:   7    -0.441868140670E+03    0.12296E-02   -0.41471E-03 39184   0.218E-01    0.219E-01
DAV:   8    -0.441868238626E+03   -0.97956E-04   -0.19757E-03 36320   0.110E-01    0.202E-01
DAV:   9    -0.441868242056E+03   -0.34295E-05   -0.30025E-04 38568   0.515E-02    0.119E-01
DAV:  10    -0.441868238228E+03    0.38274E-05   -0.59106E-05 32912   0.282E-02
   6 F= -.44186824E+03 E0= -.44185810E+03  d E =-.229483E+00  mag=    78.0000
       N       E                     dE             d eps       ncg     rms          rms(c)
DAV:   1    -0.440967116575E+03    0.90113E+00   -0.95425E+01 34592   0.318E+01    0.483E+00
DAV:   2    -0.441923866402E+03   -0.95675E+00   -0.90214E+00 31552   0.576E+00    0.329E+00
DAV:   3    -0.441955936670E+03   -0.32070E-01   -0.32047E-01 40432   0.151E+00    0.243E+00
DAV:   4    -0.441951542261E+03    0.43944E-02   -0.39322E-02 38432   0.639E-01    0.907E-01
DAV:   5    -0.441949186003E+03    0.23563E-02   -0.55511E-03 37536   0.204E-01    0.651E-01
DAV:   6    -0.441947271155E+03    0.19148E-02   -0.36690E-03 38336   0.258E-01    0.513E-01
DAV:   7    -0.441946910710E+03    0.36045E-03   -0.26320E-03 37360   0.176E-01    0.177E-01
DAV:   8    -0.441946932275E+03   -0.21565E-04   -0.67492E-04 36600   0.807E-02    0.133E-01
DAV:   9    -0.441946941183E+03   -0.89079E-05   -0.15721E-04 34128   0.358E-02    0.665E-02
DAV:  10    -0.441946941341E+03   -0.15851E-06   -0.36075E-05 26104   0.184E-02
   7 F= -.44194694E+03 E0= -.44193633E+03  d E =-.787031E-01  mag=    78.0000
       N       E                     dE             d eps       ncg     rms          rms(c)
DAV:   1    -0.440390086950E+03    0.15569E+01   -0.21650E+02 34640   0.447E+01    0.575E+00
DAV:   2    -0.441982203161E+03   -0.15921E+01   -0.15270E+01 32200   0.795E+00    0.363E+00
DAV:   3    -0.442017650211E+03   -0.35447E-01   -0.40427E-01 40328   0.180E+00    0.297E+00
DAV:   4    -0.442009592055E+03    0.80582E-02   -0.58475E-02 39264   0.804E-01    0.113E+00
DAV:   5    -0.442004417150E+03    0.51749E-02   -0.11378E-02 37056   0.360E-01    0.921E-01
DAV:   6    -0.442001402428E+03    0.30147E-02   -0.78260E-03 36976   0.318E-01    0.682E-01
DAV:   7    -0.442000217613E+03    0.11848E-02   -0.51850E-03 36272   0.254E-01    0.409E-01
DAV:   8    -0.442000287353E+03   -0.69740E-04   -0.21311E-03 36760   0.136E-01    0.140E-01
DAV:   9    -0.442000311513E+03   -0.24159E-04   -0.30473E-04 36448   0.492E-02    0.755E-02
DAV:  10    -0.442000312077E+03   -0.56394E-06   -0.49466E-05 28992   0.221E-02
   8 F= -.44200031E+03 E0= -.44198945E+03  d E =-.533707E-01  mag=    78.0000
       N       E                     dE             d eps       ncg     rms          rms(c)
DAV:   1    -0.440852498371E+03    0.11478E+01   -0.23083E+02 34072   0.392E+01    0.454E+00
DAV:   2    -0.442062970791E+03   -0.12105E+01   -0.12024E+01 32208   0.687E+00    0.303E+00
DAV:   3    -0.442071701427E+03   -0.87306E-02   -0.33183E-01 40104   0.150E+00    0.253E+00
DAV:   4    -0.442062464945E+03    0.92365E-02   -0.50306E-02 40240   0.653E-01    0.102E+00
DAV:   5    -0.442054100158E+03    0.83648E-02   -0.13056E-02 37696   0.345E-01    0.804E-01
DAV:   6    -0.442050261167E+03    0.38390E-02   -0.99169E-03 37392   0.345E-01    0.544E-01
DAV:   7    -0.442049669497E+03    0.59167E-03   -0.47109E-03 39928   0.233E-01    0.291E-01
DAV:   8    -0.442049650790E+03    0.18707E-04   -0.14783E-03 39016   0.109E-01    0.147E-01
DAV:   9    -0.442049646107E+03    0.46834E-05   -0.27606E-04 36592   0.481E-02    0.648E-02
DAV:  10    -0.442049640854E+03    0.52529E-05   -0.79108E-05 33376   0.249E-02
   9 F= -.44204964E+03 E0= -.44203922E+03  d E =-.493288E-01  mag=    78.0000
       N       E                     dE             d eps       ncg     rms          rms(c)
DAV:   1    -0.441830602040E+03    0.21904E+00   -0.18720E+01 34408   0.157E+01    0.257E+00
DAV:   2    -0.442088191221E+03   -0.25759E+00   -0.24287E+00 32064   0.289E+00    0.147E+00
DAV:   3    -0.442097496665E+03   -0.93054E-02   -0.70982E-02 39328   0.693E-01    0.110E+00
DAV:   4    -0.442096540465E+03    0.95620E-03   -0.82992E-03 39536   0.305E-01    0.494E-01
DAV:   5    -0.442095844731E+03    0.69573E-03   -0.12515E-03 39248   0.114E-01    0.353E-01
DAV:   6    -0.442095299730E+03    0.54500E-03   -0.12098E-03 36632   0.134E-01    0.323E-01
DAV:   7    -0.442095129387E+03    0.17034E-03   -0.11045E-03 37768   0.115E-01    0.168E-01
DAV:   8    -0.442095130753E+03   -0.13663E-05   -0.38274E-04 38232   0.581E-02    0.517E-02
DAV:   9    -0.442095135774E+03   -0.50205E-05   -0.61394E-05 32864   0.203E-02
  10 F= -.44209514E+03 E0= -.44208453E+03  d E =-.454949E-01  mag=    78.0000
       N       E                     dE             d eps       ncg     rms          rms(c)
DAV:   1    -0.442086428991E+03    0.87018E-02   -0.48715E+00 33224   0.526E+00    0.558E-01
DAV:   2    -0.442106244385E+03   -0.19815E-01   -0.19778E-01 31584   0.894E-01    0.313E-01
DAV:   3    -0.442106447584E+03   -0.20320E-03   -0.39498E-03 39728   0.161E-01    0.239E-01
DAV:   4    -0.442106353359E+03    0.94224E-04   -0.47580E-04 40536   0.688E-02    0.130E-01
DAV:   5    -0.442106240623E+03    0.11274E-03   -0.14598E-04 35864   0.444E-02    0.105E-01
DAV:   6    -0.442106182923E+03    0.57700E-04   -0.17144E-04 36088   0.446E-02    0.523E-02
DAV:   7    -0.442106186691E+03   -0.37684E-05   -0.77188E-05 35792   0.236E-02
  11 F= -.44210619E+03 E0= -.44209558E+03  d E =-.110509E-01  mag=    78.0000
       N       E                     dE             d eps       ncg     rms          rms(c)
DAV:   1    -0.441623250517E+03    0.48293E+00   -0.13377E+02 32912   0.263E+01    0.268E+00
DAV:   2    -0.442149863990E+03   -0.52661E+00   -0.52803E+00 31288   0.450E+00    0.158E+00
DAV:   3    -0.442149259354E+03    0.60464E-03   -0.90815E-02 37632   0.827E-01    0.112E+00
DAV:   4    -0.442146890952E+03    0.23684E-02   -0.15155E-02 38528   0.335E-01    0.609E-01
DAV:   5    -0.442143844033E+03    0.30469E-02   -0.36448E-03 38064   0.209E-01    0.504E-01
DAV:   6    -0.442142698758E+03    0.11453E-02   -0.34862E-03 36368   0.199E-01    0.309E-01
DAV:   7    -0.442142568921E+03    0.12984E-03   -0.16470E-03 38616   0.120E-01    0.164E-01
DAV:   8    -0.442142592127E+03   -0.23206E-04   -0.53340E-04 37088   0.668E-02    0.988E-02
DAV:   9    -0.442142601255E+03   -0.91284E-05   -0.98415E-05 33456   0.327E-02
  12 F= -.44214260E+03 E0= -.44213215E+03  d E =-.364146E-01  mag=    78.0000
       N       E                     dE             d eps       ncg     rms          rms(c)
DAV:   1    -0.440737532895E+03    0.14051E+01   -0.20762E+02 34176   0.404E+01    0.535E+00
DAV:   2    -0.442152993504E+03   -0.14155E+01   -0.13671E+01 32584   0.722E+00    0.292E+00
DAV:   3    -0.442176529623E+03   -0.23536E-01   -0.33689E-01 37736   0.141E+00    0.210E+00
DAV:   4    -0.442171685160E+03    0.48445E-02   -0.49161E-02 38144   0.571E-01    0.112E+00
DAV:   5    -0.442165936460E+03    0.57487E-02   -0.74271E-03 38608   0.265E-01    0.820E-01
DAV:   6    -0.442161572531E+03    0.43639E-02   -0.64335E-03 36640   0.305E-01    0.639E-01
DAV:   7    -0.442160385771E+03    0.11868E-02   -0.46844E-03 37552   0.240E-01    0.276E-01
DAV:   8    -0.442160400405E+03   -0.14634E-04   -0.17667E-03 37256   0.120E-01    0.149E-01
DAV:   9    -0.442160396959E+03    0.34459E-05   -0.28827E-04 34304   0.487E-02    0.648E-02
DAV:  10    -0.442160394654E+03    0.23052E-05   -0.92267E-05 35264   0.241E-02
  13 F= -.44216039E+03 E0= -.44215034E+03  d E =-.177934E-01  mag=    78.0000
       N       E                     dE             d eps       ncg     rms          rms(c)
DAV:   1    -0.441579525985E+03    0.58087E+00   -0.23851E+01 35968   0.226E+01    0.419E+00
DAV:   2    -0.442173004619E+03   -0.59348E+00   -0.54361E+00 31536   0.412E+00    0.243E+00
DAV:   3    -0.442201995463E+03   -0.28991E-01   -0.20643E-01 37888   0.111E+00    0.175E+00
DAV:   4    -0.442200453940E+03    0.15415E-02   -0.26464E-02 38592   0.465E-01    0.801E-01
DAV:   5    -0.442199572035E+03    0.88190E-03   -0.24432E-03 37584   0.148E-01    0.574E-01
DAV:   6    -0.442198429705E+03    0.11423E-02   -0.21431E-03 40112   0.197E-01    0.402E-01
DAV:   7    -0.442198169274E+03    0.26043E-03   -0.15657E-03 38432   0.151E-01    0.154E-01
DAV:   8    -0.442198204349E+03   -0.35075E-04   -0.51942E-04 38192   0.688E-02    0.139E-01
DAV:   9    -0.442198198808E+03    0.55410E-05   -0.97895E-05 32920   0.325E-02
  14 F= -.44219820E+03 E0= -.44218796E+03  d E =-.378042E-01  mag=    78.0000
       N       E                     dE             d eps       ncg     rms          rms(c)
DAV:   1    -0.442170344900E+03    0.27859E-01   -0.18932E+00 35688   0.538E+00    0.107E+00
DAV:   2    -0.442209453588E+03   -0.39109E-01   -0.35336E-01 32064   0.963E-01    0.652E-01
DAV:   3    -0.442211348866E+03   -0.18953E-02   -0.15173E-02 38296   0.279E-01    0.536E-01
DAV:   4    -0.442211187060E+03    0.16181E-03   -0.25087E-03 37456   0.133E-01    0.183E-01
DAV:   5    -0.442211138115E+03    0.48945E-04   -0.20827E-04 35160   0.374E-02    0.133E-01
DAV:   6    -0.442211069193E+03    0.68922E-04   -0.23807E-04 37792   0.533E-02    0.113E-01
DAV:   7    -0.442211047784E+03    0.21409E-04   -0.11089E-04 35688   0.406E-02    0.514E-02
DAV:   8    -0.442211048147E+03   -0.36262E-06   -0.57659E-05 29472   0.216E-02
  15 F= -.44221105E+03 E0= -.44220082E+03  d E =-.128493E-01  mag=    78.0000
       N       E                     dE             d eps       ncg     rms          rms(c)
DAV:   1    -0.442165867727E+03    0.45180E-01   -0.69043E+00 34416   0.789E+00    0.114E+00
DAV:   2    -0.442222563292E+03   -0.56696E-01   -0.53671E-01 31912   0.139E+00    0.667E-01
DAV:   3    -0.442224409923E+03   -0.18466E-02   -0.18389E-02 39440   0.309E-01    0.542E-01
DAV:   4    -0.442224159412E+03    0.25051E-03   -0.29477E-03 39648   0.145E-01    0.225E-01
DAV:   5    -0.442223946149E+03    0.21326E-03   -0.39727E-04 37648   0.629E-02    0.140E-01
DAV:   6    -0.442223810825E+03    0.13532E-03   -0.37106E-04 38592   0.680E-02    0.111E-01
DAV:   7    -0.442223806260E+03    0.45653E-05   -0.18341E-04 38856   0.446E-02    0.552E-02
DAV:   8    -0.442223807404E+03   -0.11436E-05   -0.52855E-05 31456   0.224E-02
  16 F= -.44222381E+03 E0= -.44221360E+03  d E =-.127593E-01  mag=    78.0000
       N       E                     dE             d eps       ncg     rms          rms(c)
DAV:   1    -0.442201515973E+03    0.22290E-01   -0.83520E+00 32952   0.677E+00    0.735E-01
DAV:   2    -0.442235343025E+03   -0.33827E-01   -0.33997E-01 31576   0.116E+00    0.377E-01
DAV:   3    -0.442235651326E+03   -0.30830E-03   -0.61020E-03 38144   0.196E-01    0.273E-01
DAV:   4    -0.442235498606E+03    0.15272E-03   -0.71351E-04 39792   0.828E-02    0.180E-01
DAV:   5    -0.442235275099E+03    0.22351E-03   -0.30365E-04 35336   0.647E-02    0.984E-02
DAV:   6    -0.442235242270E+03    0.32829E-04   -0.31390E-04 36872   0.514E-02    0.792E-02
DAV:   7    -0.442235246247E+03   -0.39771E-05   -0.98989E-05 33704   0.278E-02
  17 F= -.44223525E+03 E0= -.44222508E+03  d E =-.114388E-01  mag=    78.0000
       N       E                     dE             d eps       ncg     rms          rms(c)
DAV:   1    -0.439297131742E+03    0.29381E+01   -0.23289E+02 34576   0.484E+01    0.889E+00
DAV:   2    -0.442063239892E+03   -0.27661E+01   -0.25771E+01 32072   0.901E+00    0.664E+00
DAV:   3    -0.442136716904E+03   -0.73477E-01   -0.91229E-01 37320   0.249E+00    0.384E+00
DAV:   4    -0.442132328448E+03    0.43885E-02   -0.12054E-01 37888   0.974E-01    0.160E+00
DAV:   5    -0.442124873667E+03    0.74548E-02   -0.16358E-02 37616   0.350E-01    0.113E+00
DAV:   6    -0.442119242261E+03    0.56314E-02   -0.10714E-02 37640   0.389E-01    0.905E-01
DAV:   7    -0.442117408206E+03    0.18341E-02   -0.75026E-03 37312   0.316E-01    0.374E-01
DAV:   8    -0.442117435620E+03   -0.27414E-04   -0.26232E-03 40088   0.153E-01    0.235E-01
DAV:   9    -0.442117413368E+03    0.22252E-04   -0.61810E-04 38568   0.748E-02    0.900E-02
DAV:  10    -0.442117387044E+03    0.26324E-04   -0.12305E-04 35176   0.348E-02    0.570E-02
DAV:  11    -0.442117370406E+03    0.16637E-04   -0.43484E-05 32280   0.232E-02    0.390E-02
DAV:  12    -0.442117366501E+03    0.39056E-05   -0.26805E-05 25848   0.178E-02
  18 F= -.44211737E+03 E0= -.44210724E+03  d E =0.117880E+00  mag=    78.0000
       N       E                     dE             d eps       ncg     rms          rms(c)
DAV:   1    -0.439656034592E+03    0.24613E+01   -0.64628E+01 40264   0.378E+01    0.103E+01
DAV:   2    -0.442221840734E+03   -0.25658E+01   -0.23738E+01 32056   0.761E+00    0.992E+00
DAV:   3    -0.442299674359E+03   -0.77834E-01   -0.12077E+00 34992   0.283E+00    0.328E+00
DAV:   4    -0.442308818867E+03   -0.91445E-02   -0.11599E-01 40424   0.789E-01    0.210E+00
DAV:   5    -0.442308341896E+03    0.47697E-03   -0.38130E-02 35280   0.582E-01    0.179E+00
DAV:   6    -0.442304604377E+03    0.37375E-02   -0.60566E-03 37944   0.276E-01    0.122E+00
DAV:   7    -0.442302287463E+03    0.23169E-02   -0.58313E-03 37616   0.343E-01    0.840E-01
DAV:   8    -0.442301665285E+03    0.62218E-03   -0.39820E-03 39256   0.267E-01    0.307E-01
DAV:   9    -0.442301785278E+03   -0.11999E-03   -0.15653E-03 37496   0.108E-01    0.997E-02
DAV:  10    -0.442301769394E+03    0.15884E-04   -0.29391E-04 37560   0.508E-02    0.107E-01
DAV:  11    -0.442301755589E+03    0.13805E-04   -0.94029E-05 33016   0.303E-02    0.620E-02
DAV:  12    -0.442301752320E+03    0.32688E-05   -0.68912E-05 27704   0.251E-02
  19 F= -.44230175E+03 E0= -.44229170E+03  d E =-.184386E+00  mag=    78.0000
       N       E                     dE             d eps       ncg     rms          rms(c)
DAV:   1    -0.442257091005E+03    0.44665E-01   -0.12706E+00 38576   0.517E+00    0.111E+00
DAV:   2    -0.442297367489E+03   -0.40276E-01   -0.36405E-01 32064   0.918E-01    0.551E-01
DAV:   3    -0.442299378207E+03   -0.20107E-02   -0.12768E-02 35776   0.236E-01    0.346E-01
DAV:   4    -0.442299348661E+03    0.29546E-04   -0.12518E-03 37448   0.878E-02    0.187E-01
DAV:   5    -0.442299289280E+03    0.59380E-04   -0.98906E-05 34328   0.281E-02    0.143E-01
DAV:   6    -0.442299203453E+03    0.85828E-04   -0.15756E-04 36272   0.530E-02    0.892E-02
DAV:   7    -0.442299193921E+03    0.95312E-05   -0.89223E-05 34832   0.332E-02
  20 F= -.44229919E+03 E0= -.44228911E+03  d E =0.255840E-02  mag=    78.0000
       N       E                     dE             d eps       ncg     rms          rms(c)
DAV:   1    -0.442289194848E+03    0.10009E-01   -0.11847E+00 34160   0.367E+00    0.500E-01
DAV:   2    -0.442300144388E+03   -0.10950E-01   -0.10338E-01 32040   0.653E-01    0.252E-01
DAV:   3    -0.442300497025E+03   -0.35264E-03   -0.32715E-03 40536   0.137E-01    0.192E-01
DAV:   4    -0.442300465230E+03    0.31796E-04   -0.33640E-04 38688   0.501E-02    0.943E-02
DAV:   5    -0.442300426179E+03    0.39050E-04   -0.40478E-05 33696   0.207E-02    0.697E-02
DAV:   6    -0.442300388348E+03    0.37831E-04   -0.67768E-05 34000   0.356E-02    0.472E-02
DAV:   7    -0.442300387323E+03    0.10251E-05   -0.40795E-05 33848   0.203E-02
  21 F= -.44230039E+03 E0= -.44229033E+03  d E =-.119340E-02  mag=    78.0000
       N       E                     dE             d eps       ncg     rms          rms(c)
DAV:   1    -0.442281652000E+03    0.18736E-01   -0.17102E+00 35072   0.456E+00    0.722E-01
DAV:   2    -0.442301997954E+03   -0.20346E-01   -0.18856E-01 32080   0.807E-01    0.336E-01
DAV:   3    -0.442302767833E+03   -0.76988E-03   -0.53631E-03 36824   0.145E-01    0.160E-01
DAV:   4    -0.442302734943E+03    0.32890E-04   -0.38717E-04 43232   0.431E-02    0.117E-01
DAV:   5    -0.442302677700E+03    0.57243E-04   -0.56162E-05 32264   0.304E-02    0.893E-02
DAV:   6    -0.442302630617E+03    0.47083E-04   -0.10509E-04 35816   0.426E-02    0.481E-02
DAV:   7    -0.442302632616E+03   -0.19991E-05   -0.49605E-05 35232   0.204E-02
  22 F= -.44230263E+03 E0= -.44229261E+03  d E =-.224529E-02  mag=    78.0000
       N       E                     dE             d eps       ncg     rms          rms(c)
DAV:   1    -0.442282588716E+03    0.20042E-01   -0.34292E+00 34184   0.500E+00    0.585E-01
DAV:   2    -0.442300811210E+03   -0.18222E-01   -0.17675E-01 31856   0.864E-01    0.313E-01
DAV:   3    -0.442301172080E+03   -0.36087E-03   -0.41645E-03 39320   0.165E-01    0.234E-01
DAV:   4    -0.442301106449E+03    0.65632E-04   -0.49042E-04 39752   0.642E-02    0.114E-01
DAV:   5    -0.442301010714E+03    0.95735E-04   -0.10316E-04 35920   0.343E-02    0.770E-02
DAV:   6    -0.442300967039E+03    0.43675E-04   -0.13720E-04 37136   0.425E-02    0.558E-02
DAV:   7    -0.442300969691E+03   -0.26526E-05   -0.61687E-05 34944   0.226E-02
  23 F= -.44230097E+03 E0= -.44229099E+03  d E =0.166293E-02  mag=    78.0000
       N       E                     dE             d eps       ncg     rms          rms(c)
DAV:   1    -0.442212873984E+03    0.88093E-01   -0.15138E+01 33984   0.979E+00    0.128E+00
DAV:   2    -0.442295714408E+03   -0.82840E-01   -0.79684E-01 31440   0.170E+00    0.711E-01
DAV:   3    -0.442297526775E+03   -0.18124E-02   -0.17677E-02 35512   0.332E-01    0.506E-01
DAV:   4    -0.442297212843E+03    0.31393E-03   -0.18870E-03 40480   0.137E-01    0.241E-01
DAV:   5    -0.442296881787E+03    0.33106E-03   -0.39018E-04 35768   0.610E-02    0.165E-01
DAV:   6    -0.442296686037E+03    0.19575E-03   -0.47116E-04 38208   0.772E-02    0.110E-01
DAV:   7    -0.442296693426E+03   -0.73895E-05   -0.26154E-04 36488   0.440E-02    0.420E-02
DAV:   8    -0.442296695606E+03   -0.21793E-05   -0.38583E-05 28368   0.184E-02
  24 F= -.44229670E+03 E0= -.44228679E+03  d E =0.427409E-02  mag=    78.0000
       N       E                     dE             d eps       ncg     rms          rms(c)
DAV:   1    -0.438903227816E+03    0.33935E+01   -0.21874E+02 35424   0.515E+01    0.996E+00
DAV:   2    -0.442023992579E+03   -0.31208E+01   -0.28929E+01 32272   0.964E+00    0.746E+00
DAV:   3    -0.442118311294E+03   -0.94319E-01   -0.10153E+00 37136   0.256E+00    0.380E+00
DAV:   4    -0.442115581972E+03    0.27293E-02   -0.10924E-01 38728   0.942E-01    0.186E+00
DAV:   5    -0.442107887298E+03    0.76947E-02   -0.16001E-02 37960   0.350E-01    0.133E+00
DAV:   6    -0.442100832439E+03    0.70549E-02   -0.98548E-03 38040   0.390E-01    0.849E-01
DAV:   7    -0.442099339617E+03    0.14928E-02   -0.80697E-03 37760   0.341E-01    0.481E-01
DAV:   8    -0.442099349952E+03   -0.10336E-04   -0.34394E-03 39504   0.181E-01    0.233E-01
DAV:   9    -0.442099329485E+03    0.20467E-04   -0.55806E-04 36864   0.735E-02    0.895E-02
DAV:  10    -0.442099296269E+03    0.33217E-04   -0.14797E-04 36576   0.398E-02    0.726E-02
DAV:  11    -0.442099277617E+03    0.18652E-04   -0.78626E-05 32976   0.324E-02    0.520E-02
DAV:  12    -0.442099272399E+03    0.52177E-05   -0.32699E-05 26744   0.211E-02
  25 F= -.44209927E+03 E0= -.44208936E+03  d E =0.197423E+00  mag=    78.0000
       N       E                     dE             d eps       ncg     rms          rms(c)
DAV:   1    -0.439108604463E+03    0.29907E+01   -0.81603E+01 40272   0.419E+01    0.114E+01
DAV:   2    -0.442192320601E+03   -0.30837E+01   -0.28393E+01 32272   0.837E+00    0.105E+01
DAV:   3    -0.442300340986E+03   -0.10802E+00   -0.14124E+00 35200   0.297E+00    0.355E+00
DAV:   4    -0.442306992216E+03   -0.66512E-02   -0.13016E-01 41504   0.889E-01    0.227E+00
DAV:   5    -0.442306656358E+03    0.33586E-03   -0.31102E-02 35256   0.579E-01    0.187E+00
DAV:   6    -0.442302820159E+03    0.38362E-02   -0.56585E-03 39040   0.271E-01    0.135E+00
DAV:   7    -0.442299695420E+03    0.31247E-02   -0.73104E-03 36984   0.378E-01    0.829E-01
DAV:   8    -0.442299108509E+03    0.58691E-03   -0.47736E-03 39440   0.279E-01    0.282E-01
DAV:   9    -0.442299231202E+03   -0.12269E-03   -0.17703E-03 36848   0.111E-01    0.113E-01
DAV:  10    -0.442299208690E+03    0.22511E-04   -0.23657E-04 38096   0.456E-02    0.938E-02
DAV:  11    -0.442299192941E+03    0.15749E-04   -0.84690E-05 33624   0.297E-02    0.655E-02
DAV:  12    -0.442299185460E+03    0.74808E-05   -0.61587E-05 30432   0.272E-02
  26 F= -.44229919E+03 E0= -.44228941E+03  d E =-.199913E+00  mag=    78.0000
       N       E                     dE             d eps       ncg     rms          rms(c)
DAV:   1    -0.442291068463E+03    0.81245E-02   -0.15292E+00 34368   0.443E+00    0.633E-01
DAV:   2    -0.442307737066E+03   -0.16669E-01   -0.15746E-01 32152   0.800E-01    0.322E-01
DAV:   3    -0.442308295142E+03   -0.55808E-03   -0.49847E-03 39368   0.168E-01    0.224E-01
DAV:   4    -0.442308253861E+03    0.41281E-04   -0.48306E-04 40584   0.605E-02    0.124E-01
DAV:   5    -0.442308185232E+03    0.68629E-04   -0.81015E-05 35416   0.317E-02    0.852E-02
DAV:   6    -0.442308142512E+03    0.42720E-04   -0.10855E-04 36184   0.425E-02    0.579E-02
DAV:   7    -0.442308144048E+03   -0.15358E-05   -0.53321E-05 34192   0.239E-02
  27 F= -.44230814E+03 E0= -.44229836E+03  d E =-.895859E-02  mag=    78.0000
       N       E                     dE             d eps       ncg     rms          rms(c)
DAV:   1    -0.442233032829E+03    0.75110E-01   -0.73565E+00 34288   0.976E+00    0.138E+00
DAV:   2    -0.442312146572E+03   -0.79114E-01   -0.74457E-01 32032   0.175E+00    0.726E-01
DAV:   3    -0.442314963864E+03   -0.28173E-02   -0.25365E-02 39856   0.390E-01    0.506E-01
DAV:   4    -0.442314789042E+03    0.17482E-03   -0.26031E-03 39664   0.138E-01    0.258E-01
DAV:   5    -0.442314512719E+03    0.27632E-03   -0.36928E-04 38432   0.626E-02    0.186E-01
DAV:   6    -0.442314290737E+03    0.22198E-03   -0.40906E-04 38112   0.869E-02    0.128E-01
DAV:   7    -0.442314283586E+03    0.71511E-05   -0.25171E-04 38992   0.539E-02    0.585E-02
DAV:   8    -0.442314284393E+03   -0.80749E-06   -0.70976E-05 33256   0.268E-02
  28 F= -.44231428E+03 E0= -.44230455E+03  d E =-.614035E-02  mag=    78.0000
       N       E                     dE             d eps       ncg     rms          rms(c)
DAV:   1    -0.442309629034E+03    0.46546E-02   -0.38956E-01 33968   0.165E+00    0.190E-01
DAV:   2    -0.442311580050E+03   -0.19510E-02   -0.19085E-02 32320   0.285E-01    0.111E-01
DAV:   3    -0.442311613061E+03   -0.33011E-04   -0.46600E-04 40024   0.588E-02    0.887E-02
DAV:   4    -0.442311601512E+03    0.11549E-04   -0.53595E-05 29280   0.244E-02    0.392E-02
DAV:   5    -0.442311588203E+03    0.13308E-04   -0.16416E-05 24464   0.135E-02    0.259E-02
DAV:   6    -0.442311582813E+03    0.53904E-05   -0.18576E-05 25552   0.154E-02
  29 F= -.44231158E+03 E0= -.44230188E+03  d E =0.270158E-02  mag=    78.0000
       N       E                     dE             d eps       ncg     rms          rms(c)
DAV:   1    -0.442293018109E+03    0.18570E-01   -0.21550E+00 34216   0.406E+00    0.473E-01
DAV:   2    -0.442304825842E+03   -0.11808E-01   -0.11345E-01 31584   0.695E-01    0.273E-01
DAV:   3    -0.442305093504E+03   -0.26766E-03   -0.29191E-03 39112   0.146E-01    0.215E-01
DAV:   4    -0.442305038422E+03    0.55082E-04   -0.33535E-04 39296   0.597E-02    0.867E-02
DAV:   5    -0.442304983202E+03    0.55220E-04   -0.68757E-05 34656   0.257E-02    0.586E-02
DAV:   6    -0.442304951995E+03    0.31207E-04   -0.75645E-05 34640   0.322E-02    0.362E-02
DAV:   7    -0.442304953632E+03   -0.16375E-05   -0.38540E-05 31480   0.173E-02
  30 F= -.44230495E+03 E0= -.44229529E+03  d E =0.662918E-02  mag=    78.0000
       N       E                     dE             d eps       ncg     rms          rms(c)
DAV:   1    -0.442263082828E+03    0.41869E-01   -0.82813E+00 33464   0.700E+00    0.713E-01
DAV:   2    -0.442295904156E+03   -0.32821E-01   -0.32303E-01 31080   0.118E+00    0.434E-01
DAV:   3    -0.442296334284E+03   -0.43013E-03   -0.69219E-03 35968   0.234E-01    0.332E-01
DAV:   4    -0.442296189542E+03    0.14474E-03   -0.83242E-04 39800   0.912E-02    0.150E-01
DAV:   5    -0.442296017339E+03    0.17220E-03   -0.21294E-04 36152   0.484E-02    0.112E-01
DAV:   6    -0.442295947193E+03    0.70146E-04   -0.22889E-04 35304   0.518E-02    0.770E-02
DAV:   7    -0.442295949573E+03   -0.23799E-05   -0.95074E-05 34464   0.286E-02
  31 F= -.44229595E+03 E0= -.44228637E+03  d E =0.900406E-02  mag=    78.0000
       N       E                     dE             d eps       ncg     rms          rms(c)
DAV:   1    -0.440781783628E+03    0.15142E+01   -0.25273E+02 33880   0.403E+01    0.530E+00
DAV:   2    -0.442230114214E+03   -0.14483E+01   -0.14086E+01 31144   0.716E+00    0.317E+00
DAV:   3    -0.442247965618E+03   -0.17851E-01   -0.31140E-01 35184   0.137E+00    0.179E+00
DAV:   4    -0.442243188667E+03    0.47770E-02   -0.40020E-02 38040   0.541E-01    0.111E+00
DAV:   5    -0.442238557693E+03    0.46310E-02   -0.83344E-03 35304   0.290E-01    0.810E-01
DAV:   6    -0.442235372788E+03    0.31849E-02   -0.67268E-03 36312   0.278E-01    0.591E-01
DAV:   7    -0.442234506432E+03    0.86636E-03   -0.46065E-03 36152   0.225E-01    0.294E-01
DAV:   8    -0.442234572099E+03   -0.65667E-04   -0.15079E-03 36896   0.112E-01    0.119E-01
DAV:   9    -0.442234592538E+03   -0.20440E-04   -0.26705E-04 35832   0.484E-02    0.794E-02
DAV:  10    -0.442234594546E+03   -0.20078E-05   -0.64219E-05 31344   0.243E-02
  32 F= -.44223459E+03 E0= -.44222520E+03  d E =0.613550E-01  mag=    78.0000
       N       E                     dE             d eps       ncg     rms          rms(c)
DAV:   1    -0.441700476051E+03    0.53412E+00   -0.37788E+01 34512   0.211E+01    0.383E+00
DAV:   2    -0.442224029555E+03   -0.52355E+00   -0.48174E+00 31640   0.383E+00    0.218E+00
DAV:   3    -0.442242209314E+03   -0.18180E-01   -0.14553E-01 36120   0.810E-01    0.126E+00
DAV:   4    -0.442241636600E+03    0.57271E-03   -0.15376E-02 39912   0.320E-01    0.796E-01
DAV:   5    -0.442240516472E+03    0.11201E-02   -0.25050E-03 36304   0.166E-01    0.625E-01
DAV:   6    -0.442239328801E+03    0.11877E-02   -0.25417E-03 37280   0.193E-01    0.422E-01
DAV:   7    -0.442239114596E+03    0.21420E-03   -0.18444E-03 37336   0.152E-01    0.162E-01
DAV:   8    -0.442239159271E+03   -0.44675E-04   -0.45533E-04 34744   0.599E-02    0.594E-02
DAV:   9    -0.442239158699E+03    0.57121E-06   -0.55289E-05 33256   0.224E-02
  33 F= -.44223916E+03 E0= -.44222977E+03  d E =-.456415E-02  mag=    78.0000
       N       E                     dE             d eps       ncg     rms          rms(c)
DAV:   1    -0.441756385794E+03    0.48277E+00   -0.87751E+01 33976   0.251E+01    0.321E+00
DAV:   2    -0.442279150214E+03   -0.52276E+00   -0.49914E+00 31256   0.439E+00    0.191E+00
DAV:   3    -0.442288342838E+03   -0.91926E-02   -0.11698E-01 35024   0.919E-01    0.135E+00
DAV:   4    -0.442286525830E+03    0.18170E-02   -0.15462E-02 39120   0.367E-01    0.647E-01
DAV:   5    -0.442284620074E+03    0.19058E-02   -0.25088E-03 35744   0.157E-01    0.477E-01
DAV:   6    -0.442283287642E+03    0.13324E-02   -0.24798E-03 37360   0.185E-01    0.328E-01
DAV:   7    -0.442283181269E+03    0.10637E-03   -0.17890E-03 36504   0.132E-01    0.164E-01
DAV:   8    -0.442283200935E+03   -0.19666E-04   -0.41132E-04 35216   0.642E-02    0.800E-02
DAV:   9    -0.442283204899E+03   -0.39640E-05   -0.73517E-05 31656   0.280E-02
  34 F= -.44228320E+03 E0= -.44227381E+03  d E =-.440462E-01  mag=    78.0000
       N       E                     dE             d eps       ncg     rms          rms(c)
DAV:   1    -0.442231109114E+03    0.52092E-01   -0.51691E+00 35096   0.714E+00    0.105E+00
DAV:   2    -0.442279093616E+03   -0.47985E-01   -0.44604E-01 31304   0.124E+00    0.512E-01
DAV:   3    -0.442280720608E+03   -0.16270E-02   -0.12706E-02 35792   0.227E-01    0.273E-01
DAV:   4    -0.442280638230E+03    0.82378E-04   -0.87316E-04 41776   0.763E-02    0.192E-01
DAV:   5    -0.442280519098E+03    0.11913E-03   -0.14555E-04 35368   0.441E-02    0.135E-01
DAV:   6    -0.442280411332E+03    0.10777E-03   -0.23621E-04 35480   0.602E-02    0.731E-02
DAV:   7    -0.442280416987E+03   -0.56544E-05   -0.10913E-04 33888   0.287E-02    0.237E-02
DAV:   8    -0.442280417336E+03   -0.34958E-06   -0.20136E-05 22680   0.136E-02
  35 F= -.44228042E+03 E0= -.44227111E+03  d E =0.278756E-02  mag=    78.0000
       N       E                     dE             d eps       ncg     rms          rms(c)
DAV:   1    -0.442261127045E+03    0.19290E-01   -0.11477E+00 35600   0.394E+00    0.726E-01
DAV:   2    -0.442280671508E+03   -0.19544E-01   -0.17611E-01 31664   0.686E-01    0.363E-01
DAV:   3    -0.442281488733E+03   -0.81722E-03   -0.58341E-03 34760   0.146E-01    0.191E-01
DAV:   4    -0.442281474775E+03    0.13957E-04   -0.40197E-04 37432   0.456E-02    0.129E-01
DAV:   5    -0.442281431602E+03    0.43173E-04   -0.83926E-05 33304   0.339E-02    0.998E-02
DAV:   6    -0.442281402427E+03    0.29175E-04   -0.12130E-04 33032   0.437E-02    0.731E-02
DAV:   7    -0.442281399384E+03    0.30426E-05   -0.64970E-05 30096   0.291E-02
  36 F= -.44228140E+03 E0= -.44227208E+03  d E =-.982048E-03  mag=    78.0000
