       N       E                     dE             d eps       ncg     rms          ort
DAV:   1     0.699961937038E+04    0.69996E+04   -0.30499E+05  9152   0.167E+03
DAV:   2     0.481645951094E+03   -0.65180E+04   -0.60565E+04  9152   0.482E+02
DAV:   3    -0.383786224044E+03   -0.86543E+03   -0.85127E+03  9152   0.188E+02
DAV:   4    -0.422469142791E+03   -0.38683E+02   -0.38240E+02  9152   0.371E+01
DAV:   5    -0.425049369162E+03   -0.25802E+01   -0.25583E+01  9152   0.681E+00
SDA:   6    -0.279744329091E+03    0.14531E+03   -0.25583E+01  9152   0.815E+03 0.000E+00
CGA:   7    -0.361615088744E+03   -0.81871E+02   -0.92851E+02  9152   0.126E+03 0.427E+01
CGA:   8    -0.368500289968E+03   -0.68852E+01   -0.11232E+02  9152   0.531E+02-0.228E+02
CGA:   9    -0.374740213505E+03   -0.62399E+01   -0.21706E+01  9152   0.149E+02-0.222E+01
CGA:  10    -0.375248320906E+03   -0.50811E+00   -0.11174E+01  9152   0.743E+02-0.982E+01
CGA:  11    -0.372331298024E+03    0.29170E+01   -0.54323E+01  9152   0.684E+02-0.243E+02
CGA:  12    -0.375464107594E+03   -0.31328E+01   -0.27515E+01  9152   0.477E+02-0.353E+02
CGA:  13    -0.373864546289E+03    0.15996E+01   -0.28107E+01  9152   0.424E+02-0.256E+02
CGA:  14    -0.376340170355E+03   -0.24756E+01   -0.17994E+01  9152   0.450E+02-0.581E+02
CGA:  15    -0.374768261263E+03    0.15719E+01   -0.24630E+01  9152   0.481E+02-0.302E+02
CGA:  16    -0.376447768838E+03   -0.16795E+01   -0.20836E+01  9152   0.455E+02-0.519E+02
CGA:  17    -0.375502419904E+03    0.94535E+00   -0.24332E+01  9152   0.490E+02-0.355E+02
CGA:  18    -0.376877977863E+03   -0.13756E+01   -0.21808E+01  9152   0.483E+02-0.550E+02
CGA:  19    -0.376244885859E+03    0.63309E+00   -0.25047E+01  9152   0.514E+02-0.398E+02
CGA:  20    -0.377278114816E+03   -0.10332E+01   -0.22957E+01  9152   0.527E+02-0.582E+02
CGA:  21    -0.376886672350E+03    0.39144E+00   -0.26468E+01  9152   0.462E+02-0.378E+02
CGA:  22    -0.377873438505E+03   -0.98677E+00   -0.19962E+01  9152   0.568E+02-0.650E+02
CGA:  23    -0.377481547522E+03    0.39189E+00   -0.27298E+01  9152   0.389E+02-0.319E+02
CGA:  24    -0.378550764898E+03   -0.10692E+01   -0.15453E+01  9152   0.567E+02-0.695E+02
CGA:  25    -0.378069495481E+03    0.48127E+00   -0.25466E+01  9152   0.395E+02-0.318E+02
CGA:  26    -0.378783404197E+03   -0.71391E+00   -0.15102E+01  9152   0.569E+02-0.654E+02
CGA:  27    -0.378514848330E+03    0.26856E+00   -0.24066E+01  9152   0.446E+02-0.382E+02
CGA:  28    -0.379065252187E+03   -0.55040E+00   -0.16698E+01  9152   0.541E+02-0.611E+02
CGA:  29    -0.379038898215E+03    0.26354E-01   -0.21375E+01  9152   0.479E+02-0.445E+02
CGA:  30    -0.379443312571E+03   -0.40441E+00   -0.17296E+01  9152   0.486E+02-0.542E+02
CGA:  31    -0.379592817015E+03   -0.14950E+00   -0.17815E+01  9152   0.408E+02-0.411E+02
CGA:  32    -0.380028101163E+03   -0.43528E+00   -0.13471E+01  9152   0.319E+02-0.397E+02
CGA:  33    -0.380275389947E+03   -0.24729E+00   -0.10245E+01  9152   0.201E+02-0.236E+02
CGA:  34    -0.380625137015E+03   -0.34975E+00   -0.51150E+00  9152   0.483E+01-0.964E+01
CGA:  35    -0.380748459095E+03   -0.12332E+00   -0.12587E+00  9152   0.826E+00-0.373E-01
CGA:  36    -0.380795252997E+03   -0.46794E-01   -0.46831E-01  9152   0.135E+01-0.823E-03
CGA:  37    -0.381123475018E+03   -0.32822E+00   -0.30350E+00  9152   0.135E+01 0.173E+00
CGA:  38    -0.381168837888E+03   -0.45363E-01   -0.48798E-01  9152   0.266E+00-0.862E-01
CGA:  39    -0.381185499763E+03   -0.16662E-01   -0.17038E-01  9152   0.148E+00 0.755E-02
CGA:  40    -0.381195074484E+03   -0.95747E-02   -0.97504E-02  9152   0.103E+00 0.215E-02
CGA:  41    -0.381205663861E+03   -0.10589E-01   -0.10396E-01  9152   0.908E-01 0.717E-02
CGA:  42    -0.381211789333E+03   -0.61255E-02   -0.61542E-02  9152   0.455E-01 0.353E-03
CGA:  43    -0.381215499260E+03   -0.37099E-02   -0.37103E-02  9152   0.351E-01 0.547E-03
CGA:  44    -0.381218527141E+03   -0.30279E-02   -0.30257E-02  9152   0.273E-01 0.349E-03
CGA:  45    -0.381220746641E+03   -0.22195E-02   -0.22203E-02  9152   0.182E-01 0.249E-03
CGA:  46    -0.381222264429E+03   -0.15178E-02   -0.15177E-02  9152   0.149E-01 0.227E-04
CGA:  47    -0.381223826149E+03   -0.15617E-02   -0.15608E-02  9152   0.164E-01-0.155E-04
CGA:  48    -0.381225276958E+03   -0.14508E-02   -0.14513E-02  9152   0.118E-01-0.132E-03
CGA:  49    -0.381226232527E+03   -0.95557E-03   -0.95541E-03  9152   0.901E-02-0.124E-03
CGA:  50    -0.381227127433E+03   -0.89491E-03   -0.89660E-03  9152   0.907E-02-0.118E-03
CGA:  51    -0.381227908760E+03   -0.78133E-03   -0.78167E-03  9152   0.618E-02-0.124E-03
CGA:  52    -0.381228395783E+03   -0.48702E-03   -0.48663E-03  9152   0.427E-02-0.923E-04
CGA:  53    -0.381228796901E+03   -0.40112E-03   -0.40204E-03  9152   0.392E-02-0.768E-04
CGA:  54    -0.381229137842E+03   -0.34094E-03   -0.34125E-03  9152   0.279E-02-0.673E-04
CGA:  55    -0.381229358088E+03   -0.22025E-03   -0.22009E-03  9152   0.186E-02-0.291E-04
CGA:  56    -0.381229520878E+03   -0.16279E-03   -0.16285E-03  9152   0.154E-02-0.105E-04
CGA:  57    -0.381229661232E+03   -0.14035E-03   -0.14033E-03  9152   0.129E-02 0.483E-05
CGA:  58    -0.381229774032E+03   -0.11280E-03   -0.11279E-03  9152   0.987E-03 0.931E-05
CGA:  59    -0.381229860024E+03   -0.85992E-04   -0.85976E-04  9152   0.782E-03 0.137E-04
CGA:  60    -0.381229934315E+03   -0.74291E-04   -0.74194E-04  9152   0.725E-03 0.133E-04
CGA:  61    -0.381230002594E+03   -0.68278E-04   -0.68161E-04  9152   0.595E-03 0.180E-04
CGA:  62    -0.381230053534E+03   -0.50940E-04   -0.50980E-04  9152   0.444E-03 0.170E-04
CGA:  63    -0.381230094459E+03   -0.40925E-04   -0.40856E-04  9152   0.381E-03 0.190E-04
SDA:  64    -0.381230130919E+03   -0.36460E-04   -0.36356E-04  9152   0.338E-03 0.188E-04
CGA:  65    -0.381230141380E+03   -0.10461E-04   -0.10490E-04  9152   0.886E-04 0.315E-06
CGA:  66    -0.381230171885E+03   -0.30505E-04   -0.29847E-04  9152   0.138E-03 0.261E-05
CGA:  67    -0.381230211225E+03   -0.39340E-04   -0.39397E-04  9152   0.187E-03-0.248E-06
CGA:  68    -0.381230221087E+03   -0.98630E-05   -0.98413E-05  9152   0.146E-03-0.780E-06
CGA:  69    -0.381230241948E+03   -0.20860E-04   -0.20983E-04  9152   0.139E-03-0.295E-05
CGA:  70    -0.381230260959E+03   -0.19012E-04   -0.19044E-04  9152   0.735E-04-0.927E-06
CGA:  71    -0.381230275890E+03   -0.14930E-04   -0.14664E-04  9152   0.149E-03 0.282E-05
CGA:  72    -0.381230283685E+03   -0.77957E-05   -0.79150E-05  9152   0.804E-04 0.189E-05
CGA:  73    -0.381230306627E+03   -0.22942E-04   -0.22074E-04  9152   0.843E-04 0.532E-05
CGA:  74    -0.381230317359E+03   -0.10732E-04   -0.10727E-04  9152   0.220E-03 0.162E-05
CGA:  75    -0.381230340225E+03   -0.22865E-04   -0.22898E-04  9152   0.817E-04 0.242E-05
CGA:  76    -0.381230359461E+03   -0.19237E-04   -0.19070E-04  9152   0.103E-03 0.145E-05
CGA:  77    -0.381230375857E+03   -0.16395E-04   -0.16402E-04  9152   0.146E-03-0.133E-06
CGA:  78    -0.381230384636E+03   -0.87793E-05   -0.87237E-05  9152   0.112E-03-0.723E-06
CGA:  79    -0.381230396675E+03   -0.12039E-04   -0.11995E-04  9152   0.633E-04-0.349E-05
CGA:  80    -0.381230419124E+03   -0.22449E-04   -0.27823E-04  9152   0.735E-04-0.161E-04
CGA:  81    -0.381230426604E+03   -0.74801E-05   -0.74813E-05  9152   0.176E-03-0.412E-05
CGA:  82    -0.381230438505E+03   -0.11901E-04   -0.11621E-04  9152   0.496E-04-0.432E-05
CGA:  83    -0.381230444937E+03   -0.64322E-05   -0.64325E-05  9152   0.928E-04-0.174E-05
   1 F= -.38123044E+03 E0= -.38122265E+03  d E =-.381230E+03  mag=    58.0000
       N       E                     dE             d eps       ncg     rms          ort
SDA:   1    -0.381230924575E+03   -0.48607E-03    0.00000E+00  9152   0.200E-01 0.000E+00
CGA:   2    -0.381231474410E+03   -0.54984E-03   -0.55252E-03  9152   0.221E-02-0.838E-04
CGA:   3    -0.381231793129E+03   -0.31872E-03   -0.31879E-03  9152   0.150E-02-0.209E-05
CGA:   4    -0.381231969626E+03   -0.17650E-03   -0.17650E-03  9152   0.771E-03 0.164E-06
CGA:   5    -0.381232029837E+03   -0.60211E-04   -0.60211E-04  9152   0.861E-03-0.172E-06
CGA:   6    -0.381232081665E+03   -0.51827E-04   -0.51927E-04  9152   0.126E-03-0.159E-06
CGA:   7    -0.381232101626E+03   -0.19961E-04   -0.19964E-04  9152   0.670E-04-0.318E-07
CGA:   8    -0.381232105089E+03   -0.34624E-05   -0.34625E-05  9152   0.447E-04-0.218E-07
   2 F= -.38123211E+03 E0= -.38122432E+03  d E =-.166015E-02  mag=    58.0000
       N       E                     dE             d eps       ncg     rms          ort
SDA:   1    -0.380840293033E+03    0.39181E+00    0.00000E+00  9152   0.137E+01 0.000E+00
CGA:   2    -0.381087954323E+03   -0.24766E+00   -0.24758E+00  9152   0.665E+00 0.103E-02
CGA:   3    -0.381175472657E+03   -0.87518E-01   -0.87617E-01  9152   0.109E+01-0.496E-02
CGA:   4    -0.381223715003E+03   -0.48242E-01   -0.48966E-01  9152   0.222E+00-0.159E-01
CGA:   5    -0.381249281201E+03   -0.25566E-01   -0.25566E-01  9152   0.949E-01-0.304E-03
CGA:   6    -0.381257852805E+03   -0.85716E-02   -0.85785E-02  9152   0.573E-01 0.582E-04
CGA:   7    -0.381260411545E+03   -0.25587E-02   -0.25337E-02  9152   0.208E-01 0.382E-03
CGA:   8    -0.381263115822E+03   -0.27043E-02   -0.27038E-02  9152   0.551E-02 0.183E-04
CGA:   9    -0.381263679752E+03   -0.56393E-03   -0.56377E-03  9152   0.816E-02-0.582E-05
CGA:  10    -0.381264152093E+03   -0.47234E-03   -0.47246E-03  9152   0.198E-02 0.300E-05
CGA:  11    -0.381264378037E+03   -0.22594E-03   -0.22594E-03  9152   0.119E-02 0.101E-05
CGA:  12    -0.381264495478E+03   -0.11744E-03   -0.11745E-03  9152   0.159E-02 0.108E-05
CGA:  13    -0.381264586786E+03   -0.91308E-04   -0.91243E-04  9152   0.330E-03 0.625E-06
CGA:  14    -0.381264656615E+03   -0.69829E-04   -0.69710E-04  9152   0.500E-03 0.114E-05
CGA:  15    -0.381264681775E+03   -0.25161E-04   -0.25155E-04  9152   0.241E-03 0.366E-07
CGA:  16    -0.381264707482E+03   -0.25707E-04   -0.25708E-04  9152   0.151E-03 0.395E-06
CGA:  17    -0.381264729757E+03   -0.22274E-04   -0.22264E-04  9152   0.176E-03 0.270E-06
CGA:  18    -0.381264737410E+03   -0.76539E-05   -0.76751E-05  9152   0.526E-04 0.208E-06
CGA:  19    -0.381264747620E+03   -0.10210E-04   -0.10207E-04  9152   0.486E-04 0.364E-07
CGA:  20    -0.381264750922E+03   -0.33016E-05   -0.33105E-05  9152   0.388E-04 0.189E-06
   3 F= -.38126475E+03 E0= -.38125707E+03  d E =-.326458E-01  mag=    58.0000
       N       E                     dE             d eps       ncg     rms          ort
SDA:   1    -0.380502012102E+03    0.76274E+00    0.00000E+00  9152   0.252E+01 0.000E+00
CGA:   2    -0.380963626268E+03   -0.46161E+00   -0.46148E+00  9152   0.118E+01 0.178E-02
CGA:   3    -0.381152243008E+03   -0.18862E+00   -0.18813E+00  9152   0.147E+01 0.942E-02
CGA:   4    -0.381213543241E+03   -0.61300E-01   -0.60374E-01  9152   0.415E+00 0.430E-02
CGA:   5    -0.381259997461E+03   -0.46454E-01   -0.46449E-01  9152   0.158E+00 0.192E-02
CGA:   6    -0.381276278378E+03   -0.16281E-01   -0.16272E-01  9152   0.596E-01-0.496E-03
CGA:   7    -0.381279987511E+03   -0.37091E-02   -0.37202E-02  9152   0.536E-01-0.669E-04
CGA:   8    -0.381284077080E+03   -0.40896E-02   -0.40887E-02  9152   0.929E-02-0.830E-05
CGA:   9    -0.381285579305E+03   -0.15022E-02   -0.15018E-02  9152   0.106E-01 0.798E-05
CGA:  10    -0.381286057219E+03   -0.47791E-03   -0.47748E-03  9152   0.390E-02 0.721E-05
CGA:  11    -0.381286463474E+03   -0.40626E-03   -0.40628E-03  9152   0.211E-02 0.942E-05
CGA:  12    -0.381286755237E+03   -0.29176E-03   -0.29182E-03  9152   0.202E-02-0.101E-05
CGA:  13    -0.381286844471E+03   -0.89234E-04   -0.89320E-04  9152   0.763E-03 0.615E-06
CGA:  14    -0.381286996742E+03   -0.15227E-03   -0.15221E-03  9152   0.607E-03 0.674E-06
CGA:  15    -0.381287042803E+03   -0.46061E-04   -0.46080E-04  9152   0.599E-03 0.587E-06
CGA:  16    -0.381287086468E+03   -0.43665E-04   -0.43656E-04  9152   0.322E-03 0.528E-07
CGA:  17    -0.381287135147E+03   -0.48680E-04   -0.48627E-04  9152   0.186E-03 0.109E-05
CGA:  18    -0.381287146350E+03   -0.11202E-04   -0.11198E-04  9152   0.167E-03-0.311E-07
CGA:  19    -0.381287165553E+03   -0.19203E-04   -0.19199E-04  9152   0.784E-04 0.402E-06
CGA:  20    -0.381287174894E+03   -0.93412E-05   -0.93376E-05  9152   0.765E-04 0.270E-06
   4 F= -.38128717E+03 E0= -.38127962E+03  d E =-.224240E-01  mag=    58.0000
       N       E                     dE             d eps       ncg     rms          ort
SDA:   1    -0.381070447724E+03    0.21672E+00    0.00000E+00  9152   0.434E+01 0.000E+00
CGA:   2    -0.381192542557E+03   -0.12209E+00   -0.11511E+00  9152   0.283E+00 0.288E-01
CGA:   3    -0.381249516054E+03   -0.56973E-01   -0.57228E-01  9152   0.235E+00-0.267E-02
CGA:   4    -0.381267320199E+03   -0.17804E-01   -0.17872E-01  9152   0.193E+00 0.198E-03
CGA:   5    -0.381277233276E+03   -0.99131E-02   -0.98623E-02  9152   0.780E-01 0.524E-03
CGA:   6    -0.381285600081E+03   -0.83668E-02   -0.83612E-02  9152   0.141E-01 0.522E-03
CGA:   7    -0.381288104276E+03   -0.25042E-02   -0.25055E-02  9152   0.387E-02-0.158E-04
CGA:   8    -0.381288575497E+03   -0.47122E-03   -0.47077E-03  9152   0.457E-02 0.170E-04
CGA:   9    -0.381288783236E+03   -0.20774E-03   -0.20797E-03  9152   0.143E-02-0.553E-05
CGA:  10    -0.381288935130E+03   -0.15189E-03   -0.15190E-03  9152   0.661E-03-0.204E-06
CGA:  11    -0.381289036473E+03   -0.10134E-03   -0.10135E-03  9152   0.357E-03-0.251E-07
CGA:  12    -0.381289060584E+03   -0.24110E-04   -0.24138E-04  9152   0.409E-03 0.591E-06
CGA:  13    -0.381289100028E+03   -0.39445E-04   -0.39450E-04  9152   0.136E-03 0.488E-06
CGA:  14    -0.381289125708E+03   -0.25680E-04   -0.25649E-04  9152   0.132E-03 0.353E-06
CGA:  15    -0.381289135480E+03   -0.97721E-05   -0.97660E-05  9152   0.145E-03-0.803E-07
CGA:  16    -0.381289147047E+03   -0.11567E-04   -0.11574E-04  9152   0.671E-04 0.267E-06
CGA:  17    -0.381289156758E+03   -0.97105E-05   -0.97031E-05  9152   0.338E-04 0.187E-06
   5 F= -.38128916E+03 E0= -.38128166E+03  d E =-.198186E-02  mag=    58.0000
       N       E                     dE             d eps       ncg     rms          ort
SDA:   1    -0.381219708068E+03    0.69439E-01    0.00000E+00  9152   0.458E+00 0.000E+00
CGA:   2    -0.381237042963E+03   -0.17335E-01   -0.17913E-01  9152   0.226E+00-0.122E-01
CGA:   3    -0.381269450930E+03   -0.32408E-01   -0.32418E-01  9152   0.782E-01-0.174E-03
CGA:   4    -0.381281801510E+03   -0.12351E-01   -0.12346E-01  9152   0.952E-01 0.850E-04
CGA:   5    -0.381285518561E+03   -0.37171E-02   -0.37000E-02  9152   0.185E-01 0.257E-03
CGA:   6    -0.381287957790E+03   -0.24392E-02   -0.24370E-02  9152   0.845E-02 0.603E-04
CGA:   7    -0.381288570635E+03   -0.61284E-03   -0.61159E-03  9152   0.532E-02-0.865E-07
CGA:   8    -0.381288847478E+03   -0.27684E-03   -0.27708E-03  9152   0.197E-02-0.865E-06
CGA:   9    -0.381289100411E+03   -0.25293E-03   -0.25297E-03  9152   0.647E-03-0.125E-05
CGA:  10    -0.381289145618E+03   -0.45206E-04   -0.45222E-04  9152   0.732E-03 0.238E-06
CGA:  11    -0.381289213294E+03   -0.67676E-04   -0.67671E-04  9152   0.185E-03-0.441E-06
CGA:  12    -0.381289233412E+03   -0.20118E-04   -0.20115E-04  9152   0.203E-03 0.410E-06
CGA:  13    -0.381289246055E+03   -0.12643E-04   -0.12642E-04  9152   0.124E-03-0.118E-08
CGA:  14    -0.381289259148E+03   -0.13092E-04   -0.13091E-04  9152   0.490E-04 0.298E-06
CGA:  15    -0.381289264381E+03   -0.52335E-05   -0.52332E-05  9152   0.821E-04 0.307E-07
   6 F= -.38128926E+03 E0= -.38128180E+03  d E =-.107624E-03  mag=    58.0000
       N       E                     dE             d eps       ncg     rms          ort
SDA:   1    -0.381231433817E+03    0.57825E-01    0.00000E+00  9152   0.159E+00 0.000E+00
CGA:   2    -0.381267248687E+03   -0.35815E-01   -0.35823E-01  9152   0.120E+00-0.786E-04
CGA:   3    -0.381278722625E+03   -0.11474E-01   -0.11481E-01  9152   0.114E+00 0.271E-03
CGA:   4    -0.381284255862E+03   -0.55332E-02   -0.55029E-02  9152   0.380E-01 0.337E-03
CGA:   5    -0.381287709728E+03   -0.34539E-02   -0.34566E-02  9152   0.878E-02 0.967E-04
CGA:   6    -0.381288963381E+03   -0.12537E-02   -0.12541E-02  9152   0.384E-02-0.727E-05
CGA:   7    -0.381289149599E+03   -0.18622E-03   -0.18658E-03  9152   0.238E-02-0.331E-05
CGA:   8    -0.381289389504E+03   -0.23990E-03   -0.23990E-03  9152   0.715E-03-0.175E-05
CGA:   9    -0.381289471750E+03   -0.82247E-04   -0.82251E-04  9152   0.412E-03-0.392E-06
CGA:  10    -0.381289498370E+03   -0.26620E-04   -0.26607E-04  9152   0.352E-03-0.229E-06
CGA:  11    -0.381289524606E+03   -0.26236E-04   -0.26254E-04  9152   0.876E-04 0.586E-06
CGA:  12    -0.381289538921E+03   -0.14316E-04   -0.14301E-04  9152   0.772E-04 0.234E-06
CGA:  13    -0.381289543420E+03   -0.44991E-05   -0.45108E-05  9152   0.616E-04 0.258E-06
   7 F= -.38128954E+03 E0= -.38128209E+03  d E =-.279039E-03  mag=    58.0000
       N       E                     dE             d eps       ncg     rms          ort
SDA:   1    -0.380907796901E+03    0.38174E+00    0.00000E+00  9152   0.106E+01 0.000E+00
CGA:   2    -0.381088496390E+03   -0.18070E+00   -0.18151E+00  9152   0.214E+01-0.942E-02
CGA:   3    -0.381187449043E+03   -0.98953E-01   -0.99470E-01  9152   0.628E+00-0.202E-01
CGA:   4    -0.381251473371E+03   -0.64024E-01   -0.64023E-01  9152   0.249E+00 0.172E-03
CGA:   5    -0.381278025629E+03   -0.26552E-01   -0.26521E-01  9152   0.665E-01 0.293E-02
CGA:   6    -0.381282630745E+03   -0.46051E-02   -0.45899E-02  9152   0.683E-01-0.119E-04
CGA:   7    -0.381287457794E+03   -0.48270E-02   -0.48273E-02  9152   0.894E-02 0.434E-05
CGA:   8    -0.381288965150E+03   -0.15074E-02   -0.15065E-02  9152   0.665E-02 0.113E-04
CGA:   9    -0.381289312808E+03   -0.34766E-03   -0.34790E-03  9152   0.364E-02-0.241E-05
CGA:  10    -0.381289587955E+03   -0.27515E-03   -0.27459E-03  9152   0.142E-02-0.537E-05
CGA:  11    -0.381289778946E+03   -0.19099E-03   -0.19096E-03  9152   0.604E-03 0.991E-06
CGA:  12    -0.381289815862E+03   -0.36916E-04   -0.36918E-04  9152   0.566E-03 0.809E-07
CGA:  13    -0.381289877899E+03   -0.62037E-04   -0.62017E-04  9152   0.200E-03 0.154E-05
CGA:  14    -0.381289906106E+03   -0.28207E-04   -0.28198E-04  9152   0.244E-03 0.219E-06
CGA:  15    -0.381289920127E+03   -0.14021E-04   -0.14037E-04  9152   0.147E-03 0.356E-06
CGA:  16    -0.381289936441E+03   -0.16314E-04   -0.16317E-04  9152   0.751E-04-0.147E-06
CGA:  17    -0.381289946823E+03   -0.10382E-04   -0.10362E-04  9152   0.877E-04 0.477E-06
CGA:  18    -0.381289951142E+03   -0.43189E-05   -0.43182E-05  9152   0.362E-04-0.254E-07
   8 F= -.38128995E+03 E0= -.38128254E+03  d E =-.407722E-03  mag=    58.0000
       N       E                     dE             d eps       ncg     rms          ort
SDA:   1    -0.376868398145E+03    0.44215E+01    0.00000E+00  9152   0.112E+02 0.000E+00
CGA:   2    -0.379984428634E+03   -0.31160E+01   -0.31229E+01  9152   0.820E+01-0.400E-01
CGA:   3    -0.380498008408E+03   -0.51358E+00   -0.57635E+00  9152   0.836E+01-0.384E+00
CGA:   4    -0.381045044083E+03   -0.54704E+00   -0.53291E+00  9152   0.126E+01-0.556E-02
CGA:   5    -0.381206439921E+03   -0.16140E+00   -0.16151E+00  9152   0.503E+00-0.589E-02
CGA:   6    -0.381251572208E+03   -0.45132E-01   -0.44939E-01  9152   0.274E+00-0.269E-02
CGA:   7    -0.381264765137E+03   -0.13193E-01   -0.13371E-01  9152   0.136E+00-0.229E-02
CGA:   8    -0.381280345537E+03   -0.15580E-01   -0.15574E-01  9152   0.323E-01 0.317E-03
CGA:   9    -0.381284130997E+03   -0.37855E-02   -0.37839E-02  9152   0.432E-01 0.721E-04
CGA:  10    -0.381286281732E+03   -0.21507E-02   -0.21315E-02  9152   0.930E-02 0.211E-03
CGA:  11    -0.381287628234E+03   -0.13465E-02   -0.13416E-02  9152   0.589E-02 0.935E-04
CGA:  12    -0.381288187915E+03   -0.55968E-03   -0.55958E-03  9152   0.706E-02-0.124E-05
CGA:  13    -0.381288656046E+03   -0.46813E-03   -0.46887E-03  9152   0.316E-02 0.639E-05
CGA:  14    -0.381289136305E+03   -0.48026E-03   -0.48012E-03  9152   0.205E-02 0.306E-05
CGA:  15    -0.381289373109E+03   -0.23680E-03   -0.23675E-03  9152   0.370E-02 0.315E-05
CGA:  16    -0.381289623680E+03   -0.25057E-03   -0.25042E-03  9152   0.912E-03-0.404E-06
CGA:  17    -0.381289790212E+03   -0.16653E-03   -0.16631E-03  9152   0.998E-03 0.265E-05
CGA:  18    -0.381289855842E+03   -0.65630E-04   -0.65585E-04  9152   0.737E-03 0.227E-06
CGA:  19    -0.381289911366E+03   -0.55524E-04   -0.55557E-04  9152   0.280E-03 0.102E-05
CGA:  20    -0.381289959816E+03   -0.48449E-04   -0.48380E-04  9152   0.209E-03 0.981E-06
CGA:  21    -0.381289972837E+03   -0.13021E-04   -0.13036E-04  9152   0.186E-03 0.307E-06
CGA:  22    -0.381289995310E+03   -0.22473E-04   -0.22480E-04  9152   0.840E-04-0.410E-06
CGA:  23    -0.381290007645E+03   -0.12335E-04   -0.12343E-04  9152   0.114E-03-0.189E-06
CGA:  24    -0.381290014504E+03   -0.68586E-05   -0.68361E-05  9152   0.653E-04-0.449E-06
   9 F= -.38129001E+03 E0= -.38128270E+03  d E =-.633618E-04  mag=    58.0000
       N       E                     dE             d eps       ncg     rms          ort
SDA:   1    -0.380827259652E+03    0.46275E+00    0.00000E+00  9152   0.137E+01 0.000E+00
CGA:   2    -0.381077096944E+03   -0.24984E+00   -0.24910E+00  9152   0.177E+01 0.114E-01
CGA:   3    -0.381163694432E+03   -0.86597E-01   -0.85092E-01  9152   0.758E+00 0.334E-02
CGA:   4    -0.381237260258E+03   -0.73566E-01   -0.73613E-01  9152   0.313E+00 0.286E-02
CGA:   5    -0.381274644682E+03   -0.37384E-01   -0.37436E-01  9152   0.686E-01-0.247E-02
CGA:   6    -0.381283831565E+03   -0.91869E-02   -0.91723E-02  9152   0.546E-01 0.363E-03
CGA:   7    -0.381286039670E+03   -0.22081E-02   -0.22023E-02  9152   0.147E-01 0.833E-04
CGA:   8    -0.381288002267E+03   -0.19626E-02   -0.19635E-02  9152   0.702E-02-0.248E-04
CGA:   9    -0.381288787035E+03   -0.78477E-03   -0.78476E-03  9152   0.365E-02-0.186E-06
CGA:  10    -0.381289011162E+03   -0.22413E-03   -0.22436E-03  9152   0.316E-02-0.177E-06
CGA:  11    -0.381289339695E+03   -0.32853E-03   -0.32853E-03  9152   0.101E-02 0.662E-06
CGA:  12    -0.381289511037E+03   -0.17134E-03   -0.17104E-03  9152   0.115E-02 0.448E-05
CGA:  13    -0.381289586753E+03   -0.75716E-04   -0.75732E-04  9152   0.103E-02 0.683E-06
CGA:  14    -0.381289696676E+03   -0.10992E-03   -0.10992E-03  9152   0.471E-03 0.154E-05
CGA:  15    -0.381289771615E+03   -0.74939E-04   -0.74952E-04  9152   0.470E-03-0.268E-06
CGA:  16    -0.381289803618E+03   -0.32003E-04   -0.32004E-04  9152   0.432E-03-0.146E-06
CGA:  17    -0.381289843446E+03   -0.39828E-04   -0.39808E-04  9152   0.123E-03-0.108E-05
CGA:  18    -0.381289864603E+03   -0.21157E-04   -0.21122E-04  9152   0.157E-03 0.500E-06
CGA:  19    -0.381289873011E+03   -0.84084E-05   -0.84010E-05  9152   0.785E-04-0.105E-06
  10 F= -.38128987E+03 E0= -.38128253E+03  d E =0.141493E-03  mag=    58.0000
       N       E                     dE             d eps       ncg     rms          ort
SDA:   1    -0.381159159106E+03    0.13071E+00    0.00000E+00  9152   0.517E+00 0.000E+00
CGA:   2    -0.381194945378E+03   -0.35786E-01   -0.36061E-01  9152   0.611E+00-0.125E-02
CGA:   3    -0.381249516660E+03   -0.54571E-01   -0.54526E-01  9152   0.241E+00-0.113E-02
CGA:   4    -0.381273947875E+03   -0.24431E-01   -0.24435E-01  9152   0.798E-01 0.136E-02
CGA:   5    -0.381285173682E+03   -0.11226E-01   -0.11289E-01  9152   0.424E-01-0.131E-02
CGA:   6    -0.381286871374E+03   -0.16977E-02   -0.17007E-02  9152   0.155E-01-0.496E-04
CGA:   7    -0.381288778081E+03   -0.19067E-02   -0.19065E-02  9152   0.356E-02 0.422E-05
CGA:   8    -0.381289205677E+03   -0.42760E-03   -0.42771E-03  9152   0.341E-02-0.459E-05
CGA:   9    -0.381289378633E+03   -0.17296E-03   -0.17245E-03  9152   0.149E-02 0.310E-05
CGA:  10    -0.381289525141E+03   -0.14651E-03   -0.14652E-03  9152   0.528E-03 0.151E-05
CGA:  11    -0.381289602642E+03   -0.77501E-04   -0.77488E-04  9152   0.411E-03 0.211E-06
CGA:  12    -0.381289626247E+03   -0.23605E-04   -0.23641E-04  9152   0.321E-03 0.446E-06
CGA:  13    -0.381289665106E+03   -0.38859E-04   -0.38848E-04  9152   0.133E-03 0.522E-06
CGA:  14    -0.381289691682E+03   -0.26576E-04   -0.26554E-04  9152   0.204E-03 0.225E-06
CGA:  15    -0.381289703219E+03   -0.11537E-04   -0.11525E-04  9152   0.126E-03-0.249E-06
CGA:  16    -0.381289716742E+03   -0.13522E-04   -0.13522E-04  9152   0.683E-04 0.715E-09
CGA:  17    -0.381289727473E+03   -0.10731E-04   -0.10750E-04  9152   0.490E-04-0.354E-06
CGA:  18    -0.381289730154E+03   -0.26815E-05   -0.26880E-05  9152   0.360E-04 0.121E-06
  11 F= -.38128973E+03 E0= -.38128237E+03  d E =0.142857E-03  mag=    58.0000
       N       E                     dE             d eps       ncg     rms          ort
SDA:   1    -0.373693313828E+03    0.75964E+01    0.00000E+00  9152   0.241E+02 0.000E+00
CGA:   2    -0.377401937065E+03   -0.37086E+01   -0.34976E+01  9152   0.235E+02 0.403E+01
CGA:   3    -0.379112063107E+03   -0.17101E+01   -0.14369E+01  9152   0.119E+02-0.585E+00
CGA:   4    -0.380204720378E+03   -0.10927E+01   -0.10661E+01  9152   0.126E+02-0.743E+00
CGA:   5    -0.380580312801E+03   -0.37559E+00   -0.48678E+00  9152   0.807E+01-0.169E+01
CGA:   6    -0.380954259367E+03   -0.37395E+00   -0.34394E+00  9152   0.108E+01 0.141E+00
CGA:   7    -0.381103493892E+03   -0.14923E+00   -0.15425E+00  9152   0.224E+01-0.975E-01
CGA:   8    -0.381161624152E+03   -0.58130E-01   -0.63397E-01  9152   0.294E+00-0.136E+00
CGA:   9    -0.381189743512E+03   -0.28119E-01   -0.27936E-01  9152   0.208E+00 0.236E-01
CGA:  10    -0.381203787431E+03   -0.14044E-01   -0.13963E-01  9152   0.195E+00 0.936E-04
CGA:  11    -0.381214962862E+03   -0.11175E-01   -0.11188E-01  9152   0.617E-01-0.830E-04
CGA:  12    -0.381222472994E+03   -0.75101E-02   -0.74510E-02  9152   0.608E-01 0.155E-02
CGA:  13    -0.381225020761E+03   -0.25478E-02   -0.25310E-02  9152   0.286E-01 0.255E-03
CGA:  14    -0.381228792898E+03   -0.37721E-02   -0.37703E-02  9152   0.163E-01 0.368E-04
CGA:  15    -0.381230248445E+03   -0.14555E-02   -0.14595E-02  9152   0.208E-01 0.375E-03
CGA:  16    -0.381231504557E+03   -0.12561E-02   -0.12585E-02  9152   0.119E-01-0.893E-06
CGA:  17    -0.381233273720E+03   -0.17692E-02   -0.17684E-02  9152   0.494E-02 0.142E-04
CGA:  18    -0.381234194475E+03   -0.92075E-03   -0.90715E-03  9152   0.829E-02 0.149E-03
CGA:  19    -0.381234619637E+03   -0.42516E-03   -0.42502E-03  9152   0.424E-02 0.243E-05
CGA:  20    -0.381235100153E+03   -0.48052E-03   -0.48048E-03  9152   0.233E-02 0.183E-05
CGA:  21    -0.381235475275E+03   -0.37512E-03   -0.37497E-03  9152   0.112E-02 0.234E-05
CGA:  22    -0.381235677101E+03   -0.20183E-03   -0.20170E-03  9152   0.122E-02 0.164E-05
CGA:  23    -0.381235741988E+03   -0.64888E-04   -0.64825E-04  9152   0.769E-03 0.788E-06
CGA:  24    -0.381235817079E+03   -0.75091E-04   -0.75095E-04  9152   0.361E-03 0.607E-06
CGA:  25    -0.381235878390E+03   -0.61311E-04   -0.61564E-04  9152   0.210E-03-0.351E-05
CGA:  26    -0.381235906329E+03   -0.27938E-04   -0.27974E-04  9152   0.235E-03-0.120E-05
CGA:  27    -0.381235918100E+03   -0.11772E-04   -0.11706E-04  9152   0.122E-03-0.738E-06
CGA:  28    -0.381235936550E+03   -0.18450E-04   -0.18530E-04  9152   0.716E-04-0.164E-05
CGA:  29    -0.381235946339E+03   -0.97891E-05   -0.98089E-05  9152   0.453E-04-0.601E-06
  12 F= -.38123595E+03 E0= -.38122872E+03  d E =0.537838E-01  mag=    58.0000
       N       E                     dE             d eps       ncg     rms          ort
SDA:   1    -0.380621390530E+03    0.61455E+00    0.00000E+00  9152   0.207E+01 0.000E+00
CGA:   2    -0.381061899881E+03   -0.44051E+00   -0.44066E+00  9152   0.879E+00-0.149E-02
CGA:   3    -0.381145679775E+03   -0.83780E-01   -0.84425E-01  9152   0.128E+01 0.103E-01
CGA:   4    -0.381224594542E+03   -0.78915E-01   -0.78648E-01  9152   0.240E+00 0.972E-03
CGA:   5    -0.381256195480E+03   -0.31601E-01   -0.31627E-01  9152   0.118E+00-0.839E-03
CGA:   6    -0.381263287958E+03   -0.70925E-02   -0.71115E-02  9152   0.697E-01-0.174E-03
CGA:   7    -0.381267588780E+03   -0.43008E-02   -0.43834E-02  9152   0.263E-01-0.395E-03
CGA:   8    -0.381270819656E+03   -0.32309E-02   -0.32314E-02  9152   0.100E-01-0.254E-04
CGA:   9    -0.381271514133E+03   -0.69448E-03   -0.69473E-03  9152   0.110E-01 0.302E-06
CGA:  10    -0.381272640575E+03   -0.11264E-02   -0.11264E-02  9152   0.339E-02-0.102E-05
CGA:  11    -0.381273117586E+03   -0.47701E-03   -0.47685E-03  9152   0.555E-02 0.458E-05
CGA:  12    -0.381273477613E+03   -0.36003E-03   -0.36019E-03  9152   0.327E-02 0.181E-05
CGA:  13    -0.381273830215E+03   -0.35260E-03   -0.35257E-03  9152   0.181E-02 0.102E-04
CGA:  14    -0.381274078599E+03   -0.24838E-03   -0.24880E-03  9152   0.309E-02-0.958E-05
CGA:  15    -0.381274252957E+03   -0.17436E-03   -0.17433E-03  9152   0.968E-03 0.124E-05
CGA:  16    -0.381274405956E+03   -0.15300E-03   -0.15297E-03  9152   0.746E-03 0.418E-06
CGA:  17    -0.381274455900E+03   -0.49944E-04   -0.49950E-04  9152   0.649E-03-0.408E-07
CGA:  18    -0.381274514927E+03   -0.59027E-04   -0.58982E-04  9152   0.259E-03-0.165E-05
CGA:  19    -0.381274543769E+03   -0.28841E-04   -0.28841E-04  9152   0.213E-03 0.712E-07
CGA:  20    -0.381274557300E+03   -0.13531E-04   -0.13524E-04  9152   0.159E-03-0.138E-06
CGA:  21    -0.381274575812E+03   -0.18512E-04   -0.18508E-04  9152   0.616E-04 0.285E-06
CGA:  22    -0.381274582379E+03   -0.65674E-05   -0.65674E-05  9152   0.993E-04-0.109E-06
  13 F= -.38127458E+03 E0= -.38126730E+03  d E =-.386360E-01  mag=    58.0000
       N       E                     dE             d eps       ncg     rms          ort
SDA:   1    -0.381267497370E+03    0.70784E-02    0.00000E+00  9152   0.399E-01 0.000E+00
CGA:   2    -0.381271057103E+03   -0.35597E-02   -0.35661E-02  9152   0.557E-01 0.175E-03
CGA:   3    -0.381274623956E+03   -0.35669E-02   -0.35712E-02  9152   0.156E-01-0.142E-04
CGA:   4    -0.381276170225E+03   -0.15463E-02   -0.15463E-02  9152   0.685E-02-0.109E-04
CGA:   5    -0.381277173213E+03   -0.10030E-02   -0.10028E-02  9152   0.302E-02 0.438E-05
CGA:   6    -0.381277321360E+03   -0.14815E-03   -0.14831E-03  9152   0.176E-02-0.220E-06
CGA:   7    -0.381277486406E+03   -0.16505E-03   -0.16503E-03  9152   0.385E-03-0.169E-05
CGA:   8    -0.381277537885E+03   -0.51479E-04   -0.51474E-04  9152   0.333E-03-0.688E-07
CGA:   9    -0.381277554030E+03   -0.16146E-04   -0.16101E-04  9152   0.148E-03-0.611E-06
CGA:  10    -0.381277570782E+03   -0.16752E-04   -0.16763E-04  9152   0.841E-04-0.661E-06
CGA:  11    -0.381277581204E+03   -0.10421E-04   -0.10425E-04  9152   0.695E-04-0.147E-06
CGA:  12    -0.381277585583E+03   -0.43799E-05   -0.43905E-05  9152   0.622E-04 0.255E-06
  14 F= -.38127759E+03 E0= -.38127030E+03  d E =-.300320E-02  mag=    58.0000
       N       E                     dE             d eps       ncg     rms          ort
SDA:   1    -0.381056430925E+03    0.22115E+00    0.00000E+00  9152   0.867E+00 0.000E+00
CGA:   2    -0.381136865047E+03   -0.80434E-01   -0.80248E-01  9152   0.139E+01-0.997E-02
CGA:   3    -0.381226265496E+03   -0.89400E-01   -0.89533E-01  9152   0.246E+00-0.547E-03
CGA:   4    -0.381261483672E+03   -0.35218E-01   -0.35103E-01  9152   0.157E+00 0.191E-02
CGA:   5    -0.381278978209E+03   -0.17495E-01   -0.17509E-01  9152   0.415E-01-0.830E-03
CGA:   6    -0.381282659282E+03   -0.36811E-02   -0.36835E-02  9152   0.475E-01 0.777E-04
CGA:   7    -0.381285084739E+03   -0.24255E-02   -0.24293E-02  9152   0.685E-02-0.456E-04
CGA:   8    -0.381286292244E+03   -0.12075E-02   -0.12083E-02  9152   0.374E-02-0.966E-05
CGA:   9    -0.381286645034E+03   -0.35279E-03   -0.35278E-03  9152   0.326E-02-0.161E-05
CGA:  10    -0.381286839008E+03   -0.19397E-03   -0.19423E-03  9152   0.211E-02-0.706E-06
CGA:  11    -0.381287109792E+03   -0.27078E-03   -0.27089E-03  9152   0.850E-03-0.248E-05
CGA:  12    -0.381287293208E+03   -0.18342E-03   -0.18288E-03  9152   0.138E-02 0.473E-05
CGA:  13    -0.381287365130E+03   -0.71921E-04   -0.71941E-04  9152   0.760E-03 0.662E-06
CGA:  14    -0.381287465701E+03   -0.10057E-03   -0.10055E-03  9152   0.479E-03 0.865E-06
CGA:  15    -0.381287530766E+03   -0.65065E-04   -0.65065E-04  9152   0.375E-03-0.339E-07
CGA:  16    -0.381287554042E+03   -0.23276E-04   -0.23283E-04  9152   0.304E-03-0.162E-07
CGA:  17    -0.381287584028E+03   -0.29986E-04   -0.29981E-04  9152   0.939E-04-0.834E-06
CGA:  18    -0.381287598874E+03   -0.14846E-04   -0.14852E-04  9152   0.104E-03-0.121E-06
CGA:  19    -0.381287604253E+03   -0.53791E-05   -0.53619E-05  9152   0.522E-04-0.280E-06
  15 F= -.38128760E+03 E0= -.38128030E+03  d E =-.100187E-01  mag=    58.0000
       N       E                     dE             d eps       ncg     rms          ort
SDA:   1    -0.381249823586E+03    0.37775E-01    0.00000E+00  9152   0.133E+00 0.000E+00
CGA:   2    -0.381272705912E+03   -0.22882E-01   -0.22909E-01  9152   0.113E+00-0.356E-03
CGA:   3    -0.381279963780E+03   -0.72579E-02   -0.72799E-02  9152   0.727E-01-0.110E-03
CGA:   4    -0.381284196286E+03   -0.42325E-02   -0.42870E-02  9152   0.286E-01-0.301E-03
CGA:   5    -0.381288299702E+03   -0.41034E-02   -0.41048E-02  9152   0.589E-02-0.247E-04
CGA:   6    -0.381289018039E+03   -0.71834E-03   -0.71825E-03  9152   0.673E-02 0.367E-05
CGA:   7    -0.381289308002E+03   -0.28996E-03   -0.28982E-03  9152   0.127E-02-0.146E-05
CGA:   8    -0.381289481350E+03   -0.17335E-03   -0.17343E-03  9152   0.752E-03-0.251E-05
CGA:   9    -0.381289560357E+03   -0.79007E-04   -0.79007E-04  9152   0.522E-03-0.146E-05
CGA:  10    -0.381289588121E+03   -0.27764E-04   -0.27776E-04  9152   0.321E-03-0.144E-06
CGA:  11    -0.381289638176E+03   -0.50055E-04   -0.50084E-04  9152   0.151E-03-0.461E-06
CGA:  12    -0.381289664159E+03   -0.25983E-04   -0.25893E-04  9152   0.285E-03 0.134E-05
CGA:  13    -0.381289680150E+03   -0.15991E-04   -0.16011E-04  9152   0.131E-03 0.299E-06
CGA:  14    -0.381289697707E+03   -0.17557E-04   -0.17550E-04  9152   0.905E-04 0.289E-06
CGA:  15    -0.381289709299E+03   -0.11592E-04   -0.11595E-04  9152   0.976E-04-0.178E-06
CGA:  16    -0.381289714259E+03   -0.49605E-05   -0.49631E-05  9152   0.409E-04-0.200E-08
  16 F= -.38128971E+03 E0= -.38128240E+03  d E =-.211001E-02  mag=    58.0000
       N       E                     dE             d eps       ncg     rms          ort
SDA:   1    -0.380724020170E+03    0.56569E+00    0.00000E+00  9152   0.186E+01 0.000E+00
CGA:   2    -0.380981380850E+03   -0.25736E+00   -0.25879E+00  9152   0.340E+01-0.336E-01
CGA:   3    -0.381139706654E+03   -0.15833E+00   -0.16213E+00  9152   0.648E+00-0.641E-01
CGA:   4    -0.381229136187E+03   -0.89430E-01   -0.89276E-01  9152   0.375E+00 0.247E-02
CGA:   5    -0.381268698202E+03   -0.39562E-01   -0.39555E-01  9152   0.118E+00-0.990E-03
CGA:   6    -0.381275905347E+03   -0.72071E-02   -0.71953E-02  9152   0.971E-01 0.535E-04
CGA:   7    -0.381283383968E+03   -0.74786E-02   -0.74943E-02  9152   0.150E-01 0.776E-04
CGA:   8    -0.381285974915E+03   -0.25909E-02   -0.25922E-02  9152   0.124E-01-0.177E-04
CGA:   9    -0.381286633768E+03   -0.65885E-03   -0.66071E-03  9152   0.708E-02-0.205E-04
CGA:  10    -0.381287260577E+03   -0.62681E-03   -0.62684E-03  9152   0.357E-02-0.886E-06
CGA:  11    -0.381287831810E+03   -0.57123E-03   -0.57117E-03  9152   0.223E-02 0.136E-05
CGA:  12    -0.381288005979E+03   -0.17417E-03   -0.17423E-03  9152   0.298E-02 0.142E-05
CGA:  13    -0.381288331776E+03   -0.32580E-03   -0.32574E-03  9152   0.120E-02 0.102E-04
CGA:  14    -0.381288528052E+03   -0.19628E-03   -0.19645E-03  9152   0.131E-02-0.247E-05
CGA:  15    -0.381288614965E+03   -0.86912E-04   -0.86984E-04  9152   0.108E-02 0.472E-06
CGA:  16    -0.381288712839E+03   -0.97874E-04   -0.97878E-04  9152   0.422E-03-0.273E-06
CGA:  17    -0.381288774978E+03   -0.62139E-04   -0.62167E-04  9152   0.314E-03-0.649E-06
CGA:  18    -0.381288792643E+03   -0.17665E-04   -0.17632E-04  9152   0.216E-03-0.546E-06
CGA:  19    -0.381288818315E+03   -0.25673E-04   -0.25679E-04  9152   0.819E-04-0.461E-06
CGA:  20    -0.381288829172E+03   -0.10857E-04   -0.10872E-04  9152   0.995E-04-0.551E-06
CGA:  21    -0.381288834879E+03   -0.57066E-05   -0.57036E-05  9152   0.528E-04-0.591E-07
  17 F= -.38128883E+03 E0= -.38128150E+03  d E =0.879380E-03  mag=    58.0000
       N       E                     dE             d eps       ncg     rms          ort
SDA:   1    -0.380306865366E+03    0.98196E+00    0.00000E+00  9152   0.267E+01 0.000E+00
CGA:   2    -0.380954405767E+03   -0.64754E+00   -0.64741E+00  9152   0.205E+01 0.108E-02
CGA:   3    -0.381070040747E+03   -0.11563E+00   -0.11946E+00  9152   0.163E+01-0.437E-01
CGA:   4    -0.381217610671E+03   -0.14757E+00   -0.14750E+00  9152   0.338E+00-0.143E-02
CGA:   5    -0.381257287848E+03   -0.39677E-01   -0.39703E-01  9152   0.184E+00-0.171E-02
CGA:   6    -0.381267765014E+03   -0.10477E-01   -0.10498E-01  9152   0.101E+00-0.201E-03
CGA:   7    -0.381274234953E+03   -0.64699E-02   -0.65307E-02  9152   0.254E-01-0.162E-03
CGA:   8    -0.381278254167E+03   -0.40192E-02   -0.40217E-02  9152   0.131E-01-0.432E-04
CGA:   9    -0.381278947727E+03   -0.69356E-03   -0.69418E-03  9152   0.876E-02-0.827E-05
CGA:  10    -0.381279944319E+03   -0.99659E-03   -0.99657E-03  9152   0.320E-02 0.264E-06
CGA:  11    -0.381280337029E+03   -0.39271E-03   -0.39264E-03  9152   0.316E-02 0.394E-05
CGA:  12    -0.381280537636E+03   -0.20061E-03   -0.20070E-03  9152   0.233E-02 0.217E-05
CGA:  13    -0.381280822950E+03   -0.28531E-03   -0.28506E-03  9152   0.120E-02 0.111E-04
CGA:  14    -0.381281005322E+03   -0.18237E-03   -0.18254E-03  9152   0.182E-02-0.281E-05
CGA:  15    -0.381281107828E+03   -0.10251E-03   -0.10253E-03  9152   0.867E-03 0.691E-06
CGA:  16    -0.381281246669E+03   -0.13884E-03   -0.13887E-03  9152   0.458E-03-0.539E-06
CGA:  17    -0.381281288862E+03   -0.42193E-04   -0.42190E-04  9152   0.572E-03-0.150E-06
CGA:  18    -0.381281330588E+03   -0.41726E-04   -0.41690E-04  9152   0.232E-03-0.714E-06
CGA:  19    -0.381281358227E+03   -0.27639E-04   -0.27638E-04  9152   0.115E-03 0.321E-07
CGA:  20    -0.381281368394E+03   -0.10167E-04   -0.10160E-04  9152   0.156E-03-0.345E-06
CGA:  21    -0.381281381687E+03   -0.13293E-04   -0.13290E-04  9152   0.419E-04-0.142E-06
CGA:  22    -0.381281388703E+03   -0.70163E-05   -0.70287E-05  9152   0.623E-04-0.191E-06
  18 F= -.38128139E+03 E0= -.38127407E+03  d E =0.744618E-02  mag=    58.0000
       N       E                     dE             d eps       ncg     rms          ort
SDA:   1    -0.379381599801E+03    0.18998E+01    0.00000E+00  9152   0.522E+01 0.000E+00
CGA:   2    -0.380292508399E+03   -0.91091E+00   -0.88522E+00  9152   0.980E+01 0.385E+00
CGA:   3    -0.380854075913E+03   -0.56157E+00   -0.51056E+00  9152   0.194E+01 0.338E+00
CGA:   4    -0.381160457814E+03   -0.30638E+00   -0.30639E+00  9152   0.120E+01 0.127E-02
CGA:   5    -0.381214863670E+03   -0.54406E-01   -0.53939E-01  9152   0.466E+00 0.311E-02
CGA:   6    -0.381259507521E+03   -0.44644E-01   -0.44754E-01  9152   0.168E+00 0.556E-02
CGA:   7    -0.381273117416E+03   -0.13610E-01   -0.13521E-01  9152   0.975E-01-0.615E-03
CGA:   8    -0.381278299895E+03   -0.51825E-02   -0.51742E-02  9152   0.406E-01 0.595E-04
CGA:   9    -0.381283369859E+03   -0.50700E-02   -0.50661E-02  9152   0.158E-01 0.109E-03
CGA:  10    -0.381284318209E+03   -0.94835E-03   -0.94991E-03  9152   0.122E-01-0.584E-05
CGA:  11    -0.381285521597E+03   -0.12034E-02   -0.12034E-02  9152   0.438E-02-0.101E-04
CGA:  12    -0.381285971968E+03   -0.45037E-03   -0.45017E-03  9152   0.473E-02 0.303E-04
CGA:  13    -0.381286270763E+03   -0.29879E-03   -0.29895E-03  9152   0.227E-02 0.120E-05
CGA:  14    -0.381286589915E+03   -0.31915E-03   -0.31900E-03  9152   0.205E-02 0.363E-05
CGA:  15    -0.381286746300E+03   -0.15639E-03   -0.15644E-03  9152   0.191E-02 0.846E-06
CGA:  16    -0.381286916265E+03   -0.16996E-03   -0.17008E-03  9152   0.861E-03 0.555E-05
CGA:  17    -0.381287035658E+03   -0.11939E-03   -0.11940E-03  9152   0.126E-02-0.181E-06
CGA:  18    -0.381287104049E+03   -0.68392E-04   -0.68445E-04  9152   0.340E-03 0.409E-06
CGA:  19    -0.381287155495E+03   -0.51446E-04   -0.51409E-04  9152   0.369E-03 0.696E-06
CGA:  20    -0.381287177187E+03   -0.21692E-04   -0.21723E-04  9152   0.197E-03 0.731E-06
CGA:  21    -0.381287196662E+03   -0.19475E-04   -0.19475E-04  9152   0.103E-03 0.176E-06
CGA:  22    -0.381287208102E+03   -0.11440E-04   -0.11436E-04  9152   0.126E-03 0.283E-06
CGA:  23    -0.381287216028E+03   -0.79259E-05   -0.79156E-05  9152   0.490E-04-0.304E-06
  19 F= -.38128722E+03 E0= -.38127993E+03  d E =-.582732E-02  mag=    58.0000
       N       E                     dE             d eps       ncg     rms          ort
SDA:   1    -0.373535690236E+03    0.77515E+01    0.00000E+00  9152   0.226E+02 0.000E+00
CGA:   2    -0.377879409217E+03   -0.43437E+01   -0.41049E+01  9152   0.196E+02 0.288E+01
CGA:   3    -0.379332036363E+03   -0.14526E+01   -0.10514E+01  9152   0.908E+01-0.700E+00
CGA:   4    -0.380682315353E+03   -0.13503E+01   -0.13496E+01  9152   0.641E+01 0.167E-01
CGA:   5    -0.380874366190E+03   -0.19205E+00   -0.19580E+00  9152   0.221E+01-0.145E+00
CGA:   6    -0.381129437046E+03   -0.25507E+00   -0.25510E+00  9152   0.114E+01-0.124E-02
CGA:   7    -0.381167191991E+03   -0.37755E-01   -0.40282E-01  9152   0.554E+00-0.451E-01
CGA:   8    -0.381219110129E+03   -0.51918E-01   -0.51921E-01  9152   0.211E+00 0.196E-02
CGA:   9    -0.381236920559E+03   -0.17810E-01   -0.17870E-01  9152   0.170E+00 0.150E-02
CGA:  10    -0.381244837490E+03   -0.79169E-02   -0.79573E-02  9152   0.805E-01-0.252E-03
CGA:  11    -0.381253765745E+03   -0.89283E-02   -0.88842E-02  9152   0.277E-01 0.182E-02
CGA:  12    -0.381256904145E+03   -0.31384E-02   -0.31360E-02  9152   0.496E-01 0.101E-03
CGA:  13    -0.381259552189E+03   -0.26480E-02   -0.26321E-02  9152   0.945E-02 0.130E-03
CGA:  14    -0.381261586875E+03   -0.20347E-02   -0.20325E-02  9152   0.136E-01 0.179E-04
CGA:  15    -0.381262200442E+03   -0.61357E-03   -0.61734E-03  9152   0.715E-02-0.429E-04
CGA:  16    -0.381263324329E+03   -0.11239E-02   -0.11231E-02  9152   0.415E-02 0.127E-04
CGA:  17    -0.381263825660E+03   -0.50133E-03   -0.50107E-03  9152   0.528E-02 0.106E-04
CGA:  18    -0.381264135183E+03   -0.30952E-03   -0.31085E-03  9152   0.330E-02-0.103E-05
CGA:  19    -0.381264459254E+03   -0.32407E-03   -0.32408E-03  9152   0.114E-02 0.574E-05
CGA:  20    -0.381264693109E+03   -0.23386E-03   -0.23341E-03  9152   0.178E-02 0.420E-05
CGA:  21    -0.381264765907E+03   -0.72798E-04   -0.72949E-04  9152   0.542E-03 0.222E-06
CGA:  22    -0.381264876724E+03   -0.11082E-03   -0.11070E-03  9152   0.283E-03 0.112E-05
CGA:  23    -0.381264917647E+03   -0.40923E-04   -0.40964E-04  9152   0.501E-03-0.109E-05
CGA:  24    -0.381264943187E+03   -0.25539E-04   -0.25502E-04  9152   0.161E-03-0.696E-06
CGA:  25    -0.381264964585E+03   -0.21398E-04   -0.21448E-04  9152   0.115E-03-0.175E-05
CGA:  26    -0.381264981187E+03   -0.16602E-04   -0.16657E-04  9152   0.895E-04-0.140E-05
CGA:  27    -0.381264985799E+03   -0.46117E-05   -0.45999E-05  9152   0.640E-04-0.202E-06
  20 F= -.38126499E+03 E0= -.38125761E+03  d E =0.222302E-01  mag=    58.0000
       N       E                     dE             d eps       ncg     rms          ort
SDA:   1    -0.380932838726E+03    0.33214E+00    0.00000E+00  9152   0.104E+01 0.000E+00
CGA:   2    -0.381119268454E+03   -0.18643E+00   -0.18607E+00  9152   0.163E+01 0.505E-02
CGA:   3    -0.381189656841E+03   -0.70388E-01   -0.69319E-01  9152   0.397E+00 0.155E-01
CGA:   4    -0.381254429139E+03   -0.64772E-01   -0.64717E-01  9152   0.121E+00 0.843E-03
CGA:   5    -0.381269459162E+03   -0.15030E-01   -0.15069E-01  9152   0.906E-01-0.186E-02
CGA:   6    -0.381273950889E+03   -0.44917E-02   -0.45174E-02  9152   0.385E-01-0.302E-03
CGA:   7    -0.381276630827E+03   -0.26799E-02   -0.26826E-02  9152   0.102E-01-0.419E-05
CGA:   8    -0.381278209155E+03   -0.15783E-02   -0.15789E-02  9152   0.463E-02-0.115E-04
CGA:   9    -0.381278493674E+03   -0.28452E-03   -0.28420E-03  9152   0.414E-02-0.766E-06
CGA:  10    -0.381278908756E+03   -0.41508E-03   -0.41509E-03  9152   0.120E-02 0.271E-06
CGA:  11    -0.381279088633E+03   -0.17988E-03   -0.17981E-03  9152   0.125E-02 0.152E-05
CGA:  12    -0.381279164187E+03   -0.75554E-04   -0.75737E-04  9152   0.874E-03 0.130E-05
CGA:  13    -0.381279256563E+03   -0.92376E-04   -0.92377E-04  9152   0.491E-03 0.206E-05
CGA:  14    -0.381279329649E+03   -0.73086E-04   -0.73052E-04  9152   0.428E-03 0.880E-06
CGA:  15    -0.381279357395E+03   -0.27745E-04   -0.27733E-04  9152   0.391E-03-0.167E-06
CGA:  16    -0.381279406869E+03   -0.49474E-04   -0.49466E-04  9152   0.128E-03 0.256E-06
CGA:  17    -0.381279425395E+03   -0.18526E-04   -0.18553E-04  9152   0.218E-03-0.693E-06
CGA:  18    -0.381279437597E+03   -0.12201E-04   -0.12191E-04  9152   0.763E-04-0.199E-06
CGA:  19    -0.381279446544E+03   -0.89470E-05   -0.89503E-05  9152   0.448E-04-0.316E-06
  21 F= -.38127945E+03 E0= -.38127209E+03  d E =-.144607E-01  mag=    58.0000
       N       E                     dE             d eps       ncg     rms          ort
SDA:   1    -0.381254833794E+03    0.24604E-01    0.00000E+00  9152   0.176E+00 0.000E+00
CGA:   2    -0.381261567373E+03   -0.67336E-02   -0.68214E-02  9152   0.792E-01-0.171E-02
CGA:   3    -0.381275520672E+03   -0.13953E-01   -0.13950E-01  9152   0.272E-01 0.464E-04
CGA:   4    -0.381279875746E+03   -0.43551E-02   -0.43555E-02  9152   0.157E-01-0.561E-05
CGA:   5    -0.381280670441E+03   -0.79470E-03   -0.78963E-03  9152   0.822E-02 0.575E-04
CGA:   6    -0.381281359186E+03   -0.68874E-03   -0.68856E-03  9152   0.284E-02-0.153E-05
CGA:   7    -0.381281642517E+03   -0.28333E-03   -0.28333E-03  9152   0.812E-03-0.604E-06
CGA:   8    -0.381281703807E+03   -0.61290E-04   -0.61286E-04  9152   0.868E-03 0.149E-06
CGA:   9    -0.381281767271E+03   -0.63463E-04   -0.63413E-04  9152   0.167E-03-0.528E-06
CGA:  10    -0.381281793441E+03   -0.26170E-04   -0.26155E-04  9152   0.155E-03 0.264E-06
CGA:  11    -0.381281801308E+03   -0.78665E-05   -0.78575E-05  9152   0.752E-04-0.132E-06
  22 F= -.38128180E+03 E0= -.38127445E+03  d E =-.235476E-02  mag=    58.0000
       N       E                     dE             d eps       ncg     rms          ort
SDA:   1    -0.379408304380E+03    0.18735E+01    0.00000E+00  9152   0.559E+01 0.000E+00
CGA:   2    -0.380424912310E+03   -0.10166E+01   -0.10026E+01  9152   0.630E+01 0.198E+00
CGA:   3    -0.380772245357E+03   -0.34733E+00   -0.32838E+00  9152   0.320E+01 0.138E+00
CGA:   4    -0.381090627175E+03   -0.31838E+00   -0.31909E+00  9152   0.122E+01 0.498E-01
CGA:   5    -0.381222221237E+03   -0.13159E+00   -0.13158E+00  9152   0.384E+00 0.269E-02
CGA:   6    -0.381249652564E+03   -0.27431E-01   -0.27294E-01  9152   0.420E+00-0.150E-03
CGA:   7    -0.381276291543E+03   -0.26639E-01   -0.26756E-01  9152   0.533E-01-0.160E-03
CGA:   8    -0.381284078124E+03   -0.77866E-02   -0.77801E-02  9152   0.347E-01 0.103E-03
CGA:   9    -0.381286650305E+03   -0.25722E-02   -0.25724E-02  9152   0.291E-01-0.104E-05
CGA:  10    -0.381288144408E+03   -0.14941E-02   -0.15060E-02  9152   0.750E-02-0.101E-03
CGA:  11    -0.381289474386E+03   -0.13300E-02   -0.13304E-02  9152   0.298E-02-0.487E-05
CGA:  12    -0.381289838057E+03   -0.36367E-03   -0.36352E-03  9152   0.308E-02 0.577E-05
CGA:  13    -0.381290012981E+03   -0.17492E-03   -0.17562E-03  9152   0.205E-02-0.208E-05
CGA:  14    -0.381290236064E+03   -0.22308E-03   -0.22307E-03  9152   0.669E-03 0.180E-05
CGA:  15    -0.381290373547E+03   -0.13748E-03   -0.13729E-03  9152   0.508E-03 0.190E-05
CGA:  16    -0.381290450668E+03   -0.77121E-04   -0.77089E-04  9152   0.342E-03 0.629E-06
CGA:  17    -0.381290475725E+03   -0.25057E-04   -0.25093E-04  9152   0.386E-03 0.347E-06
CGA:  18    -0.381290508100E+03   -0.32375E-04   -0.32371E-04  9152   0.149E-03-0.243E-06
CGA:  19    -0.381290532450E+03   -0.24350E-04   -0.24395E-04  9152   0.750E-04-0.765E-06
CGA:  20    -0.381290546566E+03   -0.14116E-04   -0.14152E-04  9152   0.627E-04-0.453E-06
CGA:  21    -0.381290553620E+03   -0.70537E-05   -0.70537E-05  9152   0.838E-04-0.517E-07
  23 F= -.38129055E+03 E0= -.38128322E+03  d E =-.875231E-02  mag=    58.0000
       N       E                     dE             d eps       ncg     rms          ort
SDA:   1    -0.381232497416E+03    0.58049E-01    0.00000E+00  9152   0.180E+00 0.000E+00
CGA:   2    -0.381264647065E+03   -0.32150E-01   -0.32180E-01  9152   0.175E+00-0.390E-03
CGA:   3    -0.381273163926E+03   -0.85169E-02   -0.85476E-02  9152   0.102E+00-0.495E-03
CGA:   4    -0.381285455210E+03   -0.12291E-01   -0.12295E-01  9152   0.257E-01-0.182E-03
CGA:   5    -0.381288323594E+03   -0.28684E-02   -0.28682E-02  9152   0.208E-01 0.109E-03
CGA:   6    -0.381289393150E+03   -0.10696E-02   -0.10691E-02  9152   0.820E-02 0.331E-05
CGA:   7    -0.381290030318E+03   -0.63717E-03   -0.63729E-03  9152   0.205E-02 0.173E-05
CGA:   8    -0.381290306480E+03   -0.27616E-03   -0.27613E-03  9152   0.184E-02 0.103E-05
CGA:   9    -0.381290385449E+03   -0.78969E-04   -0.79155E-04  9152   0.503E-03-0.132E-05
CGA:  10    -0.381290464053E+03   -0.78604E-04   -0.78591E-04  9152   0.266E-03 0.270E-06
CGA:  11    -0.381290483095E+03   -0.19042E-04   -0.19059E-04  9152   0.224E-03 0.352E-06
CGA:  12    -0.381290499065E+03   -0.15970E-04   -0.15965E-04  9152   0.838E-04-0.134E-06
CGA:  13    -0.381290509709E+03   -0.10645E-04   -0.10649E-04  9152   0.551E-04-0.166E-06
CGA:  14    -0.381290513276E+03   -0.35665E-05   -0.35579E-05  9152   0.436E-04-0.204E-06
  24 F= -.38129051E+03 E0= -.38128317E+03  d E =0.403439E-04  mag=    58.0000
       N       E                     dE             d eps       ncg     rms          ort
SDA:   1    -0.381212281054E+03    0.78229E-01    0.00000E+00  9152   0.216E+00 0.000E+00
CGA:   2    -0.381254165986E+03   -0.41885E-01   -0.41699E-01  9152   0.393E+00 0.200E-02
CGA:   3    -0.381271211365E+03   -0.17045E-01   -0.17036E-01  9152   0.963E-01-0.157E-03
CGA:   4    -0.381285582751E+03   -0.14371E-01   -0.14374E-01  9152   0.262E-01-0.490E-04
CGA:   5    -0.381288085554E+03   -0.25028E-02   -0.25015E-02  9152   0.279E-01-0.499E-04
CGA:   6    -0.381289525759E+03   -0.14402E-02   -0.14400E-02  9152   0.616E-02 0.276E-06
CGA:   7    -0.381290099691E+03   -0.57393E-03   -0.57388E-03  9152   0.221E-02-0.243E-05
CGA:   8    -0.381290336316E+03   -0.23663E-03   -0.23663E-03  9152   0.228E-02-0.846E-07
CGA:   9    -0.381290443013E+03   -0.10670E-03   -0.10643E-03  9152   0.456E-03 0.246E-05
CGA:  10    -0.381290521437E+03   -0.78424E-04   -0.78364E-04  9152   0.271E-03 0.793E-06
CGA:  11    -0.381290536643E+03   -0.15206E-04   -0.15188E-04  9152   0.181E-03-0.227E-06
CGA:  12    -0.381290553783E+03   -0.17140E-04   -0.17141E-04  9152   0.759E-04 0.980E-07
CGA:  13    -0.381290563415E+03   -0.96320E-05   -0.96296E-05  9152   0.679E-04 0.914E-07
  25 F= -.38129056E+03 E0= -.38128322E+03  d E =-.501391E-04  mag=    58.0000
       N       E                     dE             d eps       ncg     rms          ort
SDA:   1    -0.380065404795E+03    0.12251E+01    0.00000E+00  9152   0.336E+01 0.000E+00
CGA:   2    -0.380785191199E+03   -0.71979E+00   -0.71251E+00  9152   0.380E+01 0.665E-01
CGA:   3    -0.380974572909E+03   -0.18938E+00   -0.18614E+00  9152   0.196E+01 0.210E-01
CGA:   4    -0.381205489461E+03   -0.23092E+00   -0.23093E+00  9152   0.419E+00-0.749E-03
CGA:   5    -0.381254324880E+03   -0.48835E-01   -0.48949E-01  9152   0.312E+00-0.538E-02
CGA:   6    -0.381269894335E+03   -0.15569E-01   -0.15720E-01  9152   0.139E+00-0.173E-02
CGA:   7    -0.381279585497E+03   -0.96912E-02   -0.96753E-02  9152   0.340E-01-0.127E-04
CGA:   8    -0.381284599584E+03   -0.50141E-02   -0.50151E-02  9152   0.266E-01-0.156E-04
CGA:   9    -0.381285679726E+03   -0.10801E-02   -0.10746E-02  9152   0.814E-02 0.886E-04
CGA:  10    -0.381287007389E+03   -0.13277E-02   -0.13259E-02  9152   0.356E-02 0.248E-04
CGA:  11    -0.381287256878E+03   -0.24949E-03   -0.24929E-03  9152   0.303E-02-0.895E-06
CGA:  12    -0.381287476132E+03   -0.21925E-03   -0.21933E-03  9152   0.146E-02 0.708E-06
CGA:  13    -0.381287658017E+03   -0.18189E-03   -0.18188E-03  9152   0.737E-03 0.779E-07
CGA:  14    -0.381287709712E+03   -0.51695E-04   -0.51731E-04  9152   0.781E-03 0.584E-06
CGA:  15    -0.381287791236E+03   -0.81524E-04   -0.81523E-04  9152   0.315E-03 0.803E-07
CGA:  16    -0.381287831585E+03   -0.40349E-04   -0.40308E-04  9152   0.380E-03 0.125E-05
CGA:  17    -0.381287851642E+03   -0.20057E-04   -0.20060E-04  9152   0.153E-03-0.325E-07
CGA:  18    -0.381287874401E+03   -0.22759E-04   -0.22736E-04  9152   0.113E-03 0.442E-06
CGA:  19    -0.381287882973E+03   -0.85722E-05   -0.85734E-05  9152   0.968E-04 0.363E-07
  26 F= -.38128788E+03 E0= -.38128053E+03  d E =0.268044E-02  mag=    58.0000
       N       E                     dE             d eps       ncg     rms          ort
SDA:   1    -0.379127775393E+03    0.21601E+01    0.00000E+00  9152   0.552E+01 0.000E+00
CGA:   2    -0.380504539840E+03   -0.13768E+01   -0.13565E+01  9152   0.734E+01 0.152E+00
CGA:   3    -0.380834213248E+03   -0.32967E+00   -0.31660E+00  9152   0.258E+01-0.609E-02
CGA:   4    -0.381173490447E+03   -0.33928E+00   -0.33969E+00  9152   0.589E+00-0.967E-02
CGA:   5    -0.381237481830E+03   -0.63991E-01   -0.63996E-01  9152   0.502E+00-0.424E-03
CGA:   6    -0.381261081170E+03   -0.23599E-01   -0.23833E-01  9152   0.162E+00-0.352E-02
CGA:   7    -0.381274233441E+03   -0.13152E-01   -0.13136E-01  9152   0.519E-01-0.121E-03
CGA:   8    -0.381280946464E+03   -0.67130E-02   -0.67090E-02  9152   0.503E-01 0.102E-03
CGA:   9    -0.381283004874E+03   -0.20584E-02   -0.20538E-02  9152   0.106E-01 0.625E-04
CGA:  10    -0.381284878715E+03   -0.18738E-02   -0.18729E-02  9152   0.641E-02 0.121E-04
CGA:  11    -0.381285209216E+03   -0.33050E-03   -0.33047E-03  9152   0.389E-02-0.100E-05
CGA:  12    -0.381285649349E+03   -0.44013E-03   -0.44009E-03  9152   0.266E-02 0.223E-05
CGA:  13    -0.381285954796E+03   -0.30545E-03   -0.30551E-03  9152   0.208E-02-0.314E-05
CGA:  14    -0.381286071235E+03   -0.11644E-03   -0.11654E-03  9152   0.137E-02 0.306E-06
CGA:  15    -0.381286310208E+03   -0.23897E-03   -0.23879E-03  9152   0.872E-03 0.243E-05
CGA:  16    -0.381286376763E+03   -0.66555E-04   -0.66583E-04  9152   0.100E-02 0.997E-06
CGA:  17    -0.381286470156E+03   -0.93393E-04   -0.93390E-04  9152   0.412E-03 0.176E-06
CGA:  18    -0.381286518809E+03   -0.48653E-04   -0.48623E-04  9152   0.405E-03 0.164E-05
CGA:  19    -0.381286542875E+03   -0.24067E-04   -0.24085E-04  9152   0.235E-03 0.344E-06
CGA:  20    -0.381286567601E+03   -0.24725E-04   -0.24720E-04  9152   0.101E-03 0.807E-06
CGA:  21    -0.381286579114E+03   -0.11513E-04   -0.11513E-04  9152   0.168E-03-0.142E-07
CGA:  22    -0.381286590325E+03   -0.11212E-04   -0.11217E-04  9152   0.458E-04 0.192E-06
CGA:  23    -0.381286598038E+03   -0.77123E-05   -0.77474E-05  9152   0.743E-04-0.504E-06
  27 F= -.38128660E+03 E0= -.38127919E+03  d E =0.128494E-02  mag=    58.0000
       N       E                     dE             d eps       ncg     rms          ort
SDA:   1    -0.380841291636E+03    0.44530E+00    0.00000E+00  9152   0.561E+01 0.000E+00
CGA:   2    -0.381012107667E+03   -0.17082E+00   -0.16595E+00  9152   0.836E+00-0.125E+00
CGA:   3    -0.381203066617E+03   -0.19096E+00   -0.19164E+00  9152   0.381E+00-0.552E-02
CGA:   4    -0.381253778705E+03   -0.50712E-01   -0.50503E-01  9152   0.411E+00 0.504E-02
CGA:   5    -0.381270483328E+03   -0.16705E-01   -0.17370E-01  9152   0.954E-01-0.116E-01
CGA:   6    -0.381280334533E+03   -0.98512E-02   -0.98535E-02  9152   0.427E-01-0.280E-03
CGA:   7    -0.381283308038E+03   -0.29735E-02   -0.29720E-02  9152   0.258E-01-0.480E-05
CGA:   8    -0.381284693472E+03   -0.13854E-02   -0.13800E-02  9152   0.755E-02 0.414E-04
CGA:   9    -0.381285736753E+03   -0.10433E-02   -0.10422E-02  9152   0.468E-02 0.215E-04
CGA:  10    -0.381285954302E+03   -0.21755E-03   -0.21759E-03  9152   0.211E-02-0.979E-06
CGA:  11    -0.381286259609E+03   -0.30531E-03   -0.30519E-03  9152   0.103E-02 0.260E-05
CGA:  12    -0.381286326301E+03   -0.66692E-04   -0.66687E-04  9152   0.873E-03 0.127E-06
CGA:  13    -0.381286411467E+03   -0.85166E-04   -0.85167E-04  9152   0.476E-03 0.169E-05
CGA:  14    -0.381286466141E+03   -0.54673E-04   -0.54675E-04  9152   0.485E-03-0.159E-06
CGA:  15    -0.381286496882E+03   -0.30741E-04   -0.30758E-04  9152   0.316E-03 0.279E-06
CGA:  16    -0.381286538171E+03   -0.41290E-04   -0.41293E-04  9152   0.203E-03-0.993E-07
CGA:  17    -0.381286555672E+03   -0.17501E-04   -0.17504E-04  9152   0.248E-03 0.298E-06
CGA:  18    -0.381286575250E+03   -0.19578E-04   -0.19574E-04  9152   0.723E-04-0.182E-06
CGA:  19    -0.381286584854E+03   -0.96042E-05   -0.96005E-05  9152   0.115E-03 0.898E-07
  28 F= -.38128658E+03 E0= -.38127920E+03  d E =0.131835E-04  mag=    58.0000
       N       E                     dE             d eps       ncg     rms          ort
SDA:   1    -0.380971227966E+03    0.31535E+00    0.00000E+00  9152   0.103E+01 0.000E+00
CGA:   2    -0.381073267180E+03   -0.10204E+00   -0.10206E+00  9152   0.188E+01-0.371E-02
CGA:   3    -0.381204290985E+03   -0.13102E+00   -0.13043E+00  9152   0.481E+00-0.339E-02
CGA:   4    -0.381252777682E+03   -0.48487E-01   -0.48375E-01  9152   0.189E+00 0.116E-01
CGA:   5    -0.381277847525E+03   -0.25070E-01   -0.25023E-01  9152   0.481E-01 0.103E-02
CGA:   6    -0.381282385211E+03   -0.45377E-02   -0.45375E-02  9152   0.583E-01-0.180E-04
CGA:   7    -0.381285258343E+03   -0.28731E-02   -0.28511E-02  9152   0.764E-02 0.233E-03
CGA:   8    -0.381286455701E+03   -0.11974E-02   -0.11953E-02  9152   0.407E-02 0.302E-04
CGA:   9    -0.381286907080E+03   -0.45138E-03   -0.45138E-03  9152   0.166E-02-0.651E-06
CGA:  10    -0.381287046930E+03   -0.13985E-03   -0.13985E-03  9152   0.217E-02 0.624E-07
CGA:  11    -0.381287193796E+03   -0.14687E-03   -0.14678E-03  9152   0.426E-03-0.907E-06
CGA:  12    -0.381287282942E+03   -0.89146E-04   -0.89004E-04  9152   0.367E-03 0.128E-05
CGA:  13    -0.381287320436E+03   -0.37494E-04   -0.37494E-04  9152   0.432E-03 0.645E-06
CGA:  14    -0.381287346532E+03   -0.26096E-04   -0.26150E-04  9152   0.239E-03 0.101E-05
CGA:  15    -0.381287382912E+03   -0.36380E-04   -0.36339E-04  9152   0.110E-03 0.785E-06
CGA:  16    -0.381287402914E+03   -0.20002E-04   -0.19987E-04  9152   0.138E-03 0.180E-06
CGA:  17    -0.381287409757E+03   -0.68434E-05   -0.68244E-05  9152   0.710E-04-0.346E-06
  29 F= -.38128741E+03 E0= -.38128009E+03  d E =-.824903E-03  mag=    58.0000
       N       E                     dE             d eps       ncg     rms          ort
SDA:   1    -0.380257994113E+03    0.10294E+01    0.00000E+00  9152   0.437E+01 0.000E+00
CGA:   2    -0.380508896631E+03   -0.25090E+00   -0.24768E+00  9152   0.429E+01-0.198E-01
CGA:   3    -0.381008934916E+03   -0.50004E+00   -0.50115E+00  9152   0.119E+01-0.464E-01
CGA:   4    -0.381216692856E+03   -0.20776E+00   -0.20771E+00  9152   0.353E+00 0.567E-03
CGA:   5    -0.381255887673E+03   -0.39195E-01   -0.39188E-01  9152   0.311E+00 0.820E-03
CGA:   6    -0.381270068582E+03   -0.14181E-01   -0.14116E-01  9152   0.970E-01 0.730E-03
CGA:   7    -0.381278341053E+03   -0.82725E-02   -0.82958E-02  9152   0.299E-01 0.396E-03
CGA:   8    -0.381282770029E+03   -0.44290E-02   -0.44229E-02  9152   0.996E-02 0.106E-03
CGA:   9    -0.381283774577E+03   -0.10045E-02   -0.10046E-02  9152   0.139E-01 0.117E-04
CGA:  10    -0.381284552698E+03   -0.77812E-03   -0.77840E-03  9152   0.290E-02 0.879E-06
CGA:  11    -0.381284983982E+03   -0.43128E-03   -0.43108E-03  9152   0.167E-02 0.405E-05
CGA:  12    -0.381285184465E+03   -0.20048E-03   -0.20048E-03  9152   0.162E-02 0.260E-06
CGA:  13    -0.381285275049E+03   -0.90584E-04   -0.90720E-04  9152   0.970E-03-0.499E-06
CGA:  14    -0.381285398053E+03   -0.12300E-03   -0.12303E-03  9152   0.425E-03-0.102E-05
CGA:  15    -0.381285480919E+03   -0.82867E-04   -0.82673E-04  9152   0.561E-03 0.209E-05
CGA:  16    -0.381285507700E+03   -0.26781E-04   -0.26781E-04  9152   0.249E-03 0.120E-06
CGA:  17    -0.381285542418E+03   -0.34718E-04   -0.34701E-04  9152   0.161E-03 0.473E-06
CGA:  18    -0.381285562190E+03   -0.19772E-04   -0.19770E-04  9152   0.957E-04 0.130E-06
CGA:  19    -0.381285568414E+03   -0.62242E-05   -0.62356E-05  9152   0.914E-04 0.239E-06
CGA:  20    -0.381285578581E+03   -0.10167E-04   -0.10166E-04  9152   0.307E-04 0.190E-06
CGA:  21    -0.381285583973E+03   -0.53926E-05   -0.53635E-05  9152   0.405E-04 0.423E-06
  30 F= -.38128558E+03 E0= -.38127826E+03  d E =0.182578E-02  mag=    58.0000
       N       E                     dE             d eps       ncg     rms          ort
SDA:   1    -0.373916868536E+03    0.73687E+01    0.00000E+00  9152   0.254E+02 0.000E+00
CGA:   2    -0.377286147470E+03   -0.33693E+01   -0.32530E+01  9152   0.179E+02 0.362E+01
CGA:   3    -0.378880486298E+03   -0.15943E+01   -0.11620E+01  9152   0.885E+01 0.109E+01
CGA:   4    -0.380596349359E+03   -0.17159E+01   -0.17108E+01  9152   0.439E+01 0.816E-01
CGA:   5    -0.380765823970E+03   -0.16947E+00   -0.17390E+00  9152   0.342E+01-0.261E+00
CGA:   6    -0.381064349572E+03   -0.29853E+00   -0.29821E+00  9152   0.121E+01-0.758E-02
CGA:   7    -0.381113063743E+03   -0.48714E-01   -0.47620E-01  9152   0.801E+00 0.184E-01
CGA:   8    -0.381166943301E+03   -0.53880E-01   -0.53720E-01  9152   0.376E+00 0.119E-02
CGA:   9    -0.381192332571E+03   -0.25389E-01   -0.25833E-01  9152   0.399E+00 0.850E-03
CGA:  10    -0.381208167405E+03   -0.15835E-01   -0.17384E-01  9152   0.809E-01-0.174E-01
CGA:  11    -0.381220628154E+03   -0.12461E-01   -0.12379E-01  9152   0.110E+00 0.101E-02
CGA:  12    -0.381224595760E+03   -0.39676E-02   -0.40374E-02  9152   0.261E-01-0.141E-02
CGA:  13    -0.381228868879E+03   -0.42731E-02   -0.42318E-02  9152   0.169E-01 0.523E-03
CGA:  14    -0.381230544002E+03   -0.16751E-02   -0.16752E-02  9152   0.157E-01 0.149E-04
CGA:  15    -0.381231324132E+03   -0.78013E-03   -0.78367E-03  9152   0.708E-02-0.279E-04
CGA:  16    -0.381232372459E+03   -0.10483E-02   -0.10477E-02  9152   0.306E-02 0.101E-04
CGA:  17    -0.381232848744E+03   -0.47628E-03   -0.47582E-03  9152   0.444E-02 0.729E-05
CGA:  18    -0.381233062892E+03   -0.21415E-03   -0.21494E-03  9152   0.195E-02-0.675E-05
CGA:  19    -0.381233323204E+03   -0.26031E-03   -0.26031E-03  9152   0.108E-02-0.249E-06
CGA:  20    -0.381233491869E+03   -0.16866E-03   -0.16874E-03  9152   0.843E-03-0.148E-05
CGA:  21    -0.381233546812E+03   -0.54943E-04   -0.54993E-04  9152   0.856E-03 0.279E-06
CGA:  22    -0.381233629927E+03   -0.83115E-04   -0.83118E-04  9152   0.302E-03 0.252E-06
CGA:  23    -0.381233686210E+03   -0.56283E-04   -0.56298E-04  9152   0.204E-03-0.193E-06
CGA:  24    -0.381233711096E+03   -0.24886E-04   -0.24879E-04  9152   0.255E-03 0.341E-06
CGA:  25    -0.381233724747E+03   -0.13651E-04   -0.13634E-04  9152   0.122E-03-0.129E-06
CGA:  26    -0.381233741877E+03   -0.17130E-04   -0.17128E-04  9152   0.495E-04 0.458E-07
CGA:  27    -0.381233752583E+03   -0.10706E-04   -0.10700E-04  9152   0.412E-04 0.520E-07
CGA:  28    -0.381233756432E+03   -0.38490E-05   -0.38446E-05  9152   0.509E-04-0.244E-06
  31 F= -.38123376E+03 E0= -.38122677E+03  d E =0.518275E-01  mag=    58.0000
       N       E                     dE             d eps       ncg     rms          ort
SDA:   1    -0.380760820013E+03    0.47293E+00    0.00000E+00  9152   0.186E+01 0.000E+00
CGA:   2    -0.380941673397E+03   -0.18085E+00   -0.18044E+00  9152   0.276E+01-0.150E-01
CGA:   3    -0.381099632484E+03   -0.15796E+00   -0.15871E+00  9152   0.644E+00-0.157E-01
CGA:   4    -0.381220585517E+03   -0.12095E+00   -0.12097E+00  9152   0.243E+00-0.204E-03
CGA:   5    -0.381245907924E+03   -0.25322E-01   -0.25332E-01  9152   0.217E+00 0.871E-03
CGA:   6    -0.381256580436E+03   -0.10673E-01   -0.10578E-01  9152   0.738E-01 0.995E-03
CGA:   7    -0.381262944777E+03   -0.63643E-02   -0.63744E-02  9152   0.197E-01 0.151E-03
CGA:   8    -0.381265906256E+03   -0.29615E-02   -0.29626E-02  9152   0.116E-01-0.210E-04
CGA:   9    -0.381266435072E+03   -0.52882E-03   -0.53070E-03  9152   0.584E-02-0.200E-04
CGA:  10    -0.381267221518E+03   -0.78645E-03   -0.78629E-03  9152   0.224E-02 0.560E-05
CGA:  11    -0.381267456269E+03   -0.23475E-03   -0.23476E-03  9152   0.192E-02 0.266E-05
CGA:  12    -0.381267574675E+03   -0.11841E-03   -0.11830E-03  9152   0.132E-02-0.283E-07
CGA:  13    -0.381267719474E+03   -0.14480E-03   -0.14479E-03  9152   0.384E-03 0.868E-06
CGA:  14    -0.381267777153E+03   -0.57679E-04   -0.57726E-04  9152   0.799E-03-0.940E-06
CGA:  15    -0.381267823647E+03   -0.46494E-04   -0.46509E-04  9152   0.223E-03 0.179E-06
CGA:  16    -0.381267853261E+03   -0.29614E-04   -0.29606E-04  9152   0.166E-03 0.281E-06
CGA:  17    -0.381267871563E+03   -0.18302E-04   -0.18300E-04  9152   0.224E-03 0.488E-06
CGA:  18    -0.381267884073E+03   -0.12510E-04   -0.12507E-04  9152   0.498E-04 0.326E-07
CGA:  19    -0.381267893404E+03   -0.93301E-05   -0.93080E-05  9152   0.509E-04 0.266E-06
  32 F= -.38126789E+03 E0= -.38126079E+03  d E =-.341370E-01  mag=    58.0000
       N       E                     dE             d eps       ncg     rms          ort
SDA:   1    -0.381182247445E+03    0.85637E-01    0.00000E+00  9152   0.478E+00 0.000E+00
CGA:   2    -0.381207196445E+03   -0.24949E-01   -0.24691E-01  9152   0.376E+00 0.157E-02
CGA:   3    -0.381247622662E+03   -0.40426E-01   -0.40427E-01  9152   0.110E+00-0.624E-04
CGA:   4    -0.381268799374E+03   -0.21177E-01   -0.21180E-01  9152   0.582E-01-0.317E-04
CGA:   5    -0.381272313909E+03   -0.35145E-02   -0.35396E-02  9152   0.438E-01-0.138E-03
CGA:   6    -0.381275455401E+03   -0.31415E-02   -0.31414E-02  9152   0.131E-01-0.792E-05
CGA:   7    -0.381276732170E+03   -0.12768E-02   -0.12769E-02  9152   0.407E-02 0.947E-05
CGA:   8    -0.381277082939E+03   -0.35077E-03   -0.35075E-03  9152   0.477E-02-0.728E-06
CGA:   9    -0.381277375920E+03   -0.29298E-03   -0.29344E-03  9152   0.784E-03 0.499E-06
CGA:  10    -0.381277512747E+03   -0.13683E-03   -0.13675E-03  9152   0.807E-03 0.104E-05
CGA:  11    -0.381277552111E+03   -0.39364E-04   -0.39443E-04  9152   0.353E-03 0.577E-06
CGA:  12    -0.381277589354E+03   -0.37242E-04   -0.37241E-04  9152   0.199E-03 0.219E-06
CGA:  13    -0.381277615573E+03   -0.26219E-04   -0.26221E-04  9152   0.182E-03-0.538E-07
CGA:  14    -0.381277624607E+03   -0.90344E-05   -0.90138E-05  9152   0.791E-04-0.288E-06
CGA:  15    -0.381277638495E+03   -0.13887E-04   -0.13898E-04  9152   0.568E-04-0.146E-06
CGA:  16    -0.381277643285E+03   -0.47901E-05   -0.47872E-05  9152   0.641E-04-0.142E-06
  33 F= -.38127764E+03 E0= -.38127050E+03  d E =-.974988E-02  mag=    58.0000
       N       E                     dE             d eps       ncg     rms          ort
SDA:   1    -0.380673283125E+03    0.60436E+00    0.00000E+00  9152   0.224E+01 0.000E+00
CGA:   2    -0.380901474572E+03   -0.22819E+00   -0.22821E+00  9152   0.333E+01-0.249E-01
CGA:   3    -0.381081792627E+03   -0.18032E+00   -0.18055E+00  9152   0.795E+00-0.158E-01
CGA:   4    -0.381232247527E+03   -0.15045E+00   -0.15045E+00  9152   0.294E+00 0.529E-04
CGA:   5    -0.381265071994E+03   -0.32824E-01   -0.32806E-01  9152   0.241E+00 0.132E-02
CGA:   6    -0.381276897419E+03   -0.11825E-01   -0.11780E-01  9152   0.943E-01 0.318E-03
CGA:   7    -0.381284376489E+03   -0.74791E-02   -0.74970E-02  9152   0.242E-01 0.216E-03
CGA:   8    -0.381288092477E+03   -0.37160E-02   -0.37182E-02  9152   0.116E-01-0.358E-04
CGA:   9    -0.381288691686E+03   -0.59921E-03   -0.60087E-03  9152   0.789E-02-0.103E-04
CGA:  10    -0.381289607273E+03   -0.91559E-03   -0.91547E-03  9152   0.258E-02 0.733E-05
CGA:  11    -0.381289891810E+03   -0.28454E-03   -0.28452E-03  9152   0.204E-02 0.231E-05
CGA:  12    -0.381290025117E+03   -0.13331E-03   -0.13324E-03  9152   0.163E-02-0.264E-06
CGA:  13    -0.381290179509E+03   -0.15439E-03   -0.15440E-03  9152   0.414E-03 0.129E-05
CGA:  14    -0.381290250125E+03   -0.70616E-04   -0.70681E-04  9152   0.805E-03-0.912E-06
CGA:  15    -0.381290292093E+03   -0.41968E-04   -0.41983E-04  9152   0.241E-03 0.190E-06
CGA:  16    -0.381290323696E+03   -0.31604E-04   -0.31603E-04  9152   0.169E-03 0.608E-07
CGA:  17    -0.381290344199E+03   -0.20503E-04   -0.20495E-04  9152   0.219E-03 0.424E-06
CGA:  18    -0.381290355502E+03   -0.11302E-04   -0.11300E-04  9152   0.579E-04 0.389E-07
CGA:  19    -0.381290365506E+03   -0.10005E-04   -0.99596E-05  9152   0.457E-04 0.619E-06
CGA:  20    -0.381290369131E+03   -0.36243E-05   -0.36253E-05  9152   0.480E-04 0.411E-07
  34 F= -.38129037E+03 E0= -.38128313E+03  d E =-.127258E-01  mag=    58.0000
       N       E                     dE             d eps       ncg     rms          ort
SDA:   1    -0.381265344012E+03    0.25021E-01    0.00000E+00  9152   0.776E-01 0.000E+00
CGA:   2    -0.381279979885E+03   -0.14636E-01   -0.14639E-01  9152   0.638E-01-0.362E-04
CGA:   3    -0.381284586710E+03   -0.46068E-02   -0.46076E-02  9152   0.575E-01-0.130E-04
CGA:   4    -0.381288216389E+03   -0.36297E-02   -0.36436E-02  9152   0.187E-01-0.401E-04
CGA:   5    -0.381290185536E+03   -0.19691E-02   -0.19692E-02  9152   0.461E-02-0.130E-04
CGA:   6    -0.381290802858E+03   -0.61732E-03   -0.61709E-03  9152   0.420E-02 0.570E-05
CGA:   7    -0.381290967837E+03   -0.16498E-03   -0.16494E-03  9152   0.825E-03-0.110E-05
CGA:   8    -0.381291090026E+03   -0.12219E-03   -0.12218E-03  9152   0.403E-03 0.201E-06
CGA:   9    -0.381291126932E+03   -0.36906E-04   -0.36908E-04  9152   0.283E-03 0.889E-07
CGA:  10    -0.381291142021E+03   -0.15089E-04   -0.15116E-04  9152   0.142E-03 0.395E-06
CGA:  11    -0.381291160522E+03   -0.18501E-04   -0.18493E-04  9152   0.408E-04 0.249E-06
CGA:  12    -0.381291165434E+03   -0.49121E-05   -0.49098E-05  9152   0.662E-04 0.126E-06
  35 F= -.38129117E+03 E0= -.38128392E+03  d E =-.796304E-03  mag=    58.0000
       N       E                     dE             d eps       ncg     rms          ort
SDA:   1    -0.380940535530E+03    0.35062E+00    0.00000E+00  9152   0.108E+01 0.000E+00
CGA:   2    -0.381124759639E+03   -0.18422E+00   -0.18513E+00  9152   0.127E+01-0.114E-01
CGA:   3    -0.381183569919E+03   -0.58810E-01   -0.59567E-01  9152   0.608E+00-0.165E-01
CGA:   4    -0.381256515077E+03   -0.72945E-01   -0.73054E-01  9152   0.214E+00-0.368E-02
CGA:   5    -0.381276325508E+03   -0.19810E-01   -0.19847E-01  9152   0.110E+00 0.173E-02
CGA:   6    -0.381282764727E+03   -0.64392E-02   -0.64406E-02  9152   0.685E-01-0.255E-04
CGA:   7    -0.381288229826E+03   -0.54651E-02   -0.54683E-02  9152   0.112E-01 0.458E-04
CGA:   8    -0.381289805916E+03   -0.15761E-02   -0.15754E-02  9152   0.137E-01 0.125E-04
CGA:   9    -0.381290410255E+03   -0.60434E-03   -0.60655E-03  9152   0.285E-02-0.281E-04
CGA:  10    -0.381290815963E+03   -0.40571E-03   -0.40575E-03  9152   0.201E-02-0.518E-06
CGA:  11    -0.381290969155E+03   -0.15319E-03   -0.15332E-03  9152   0.142E-02 0.264E-05
CGA:  12    -0.381291051170E+03   -0.82015E-04   -0.82020E-04  9152   0.452E-03 0.357E-06
CGA:  13    -0.381291129110E+03   -0.77940E-04   -0.77947E-04  9152   0.352E-03-0.799E-07
CGA:  14    -0.381291147005E+03   -0.17895E-04   -0.17873E-04  9152   0.184E-03-0.304E-06
CGA:  15    -0.381291171805E+03   -0.24800E-04   -0.24791E-04  9152   0.115E-03 0.195E-06
CGA:  16    -0.381291183259E+03   -0.11454E-04   -0.11454E-04  9152   0.112E-03-0.103E-06
CGA:  17    -0.381291189798E+03   -0.65390E-05   -0.65529E-05  9152   0.435E-04 0.342E-06
  36 F= -.38129119E+03 E0= -.38128393E+03  d E =-.243642E-04  mag=    58.0000
       N       E                     dE             d eps       ncg     rms          ort
SDA:   1    -0.381236628671E+03    0.54555E-01    0.00000E+00  9152   0.170E+00 0.000E+00
CGA:   2    -0.381264780603E+03   -0.28152E-01   -0.28135E-01  9152   0.223E+00 0.242E-03
CGA:   3    -0.381275301000E+03   -0.10520E-01   -0.10555E-01  9152   0.907E-01-0.536E-03
CGA:   4    -0.381286430911E+03   -0.11130E-01   -0.11131E-01  9152   0.359E-01-0.535E-04
CGA:   5    -0.381289908638E+03   -0.34777E-02   -0.34787E-02  9152   0.140E-01 0.955E-04
CGA:   6    -0.381290803785E+03   -0.89515E-03   -0.89398E-03  9152   0.111E-01 0.341E-05
CGA:   7    -0.381291625986E+03   -0.82220E-03   -0.82209E-03  9152   0.173E-02 0.207E-05
CGA:   8    -0.381291892914E+03   -0.26693E-03   -0.26700E-03  9152   0.157E-02-0.126E-05
CGA:   9    -0.381291965136E+03   -0.72222E-04   -0.72238E-04  9152   0.590E-03-0.472E-06
CGA:  10    -0.381292032232E+03   -0.67096E-04   -0.67134E-04  9152   0.278E-03-0.199E-05
CGA:  11    -0.381292063221E+03   -0.30989E-04   -0.30983E-04  9152   0.225E-03 0.358E-06
CGA:  12    -0.381292075171E+03   -0.11950E-04   -0.11950E-04  9152   0.109E-03-0.216E-07
CGA:  13    -0.381292089296E+03   -0.14125E-04   -0.14107E-04  9152   0.527E-04 0.549E-06
CGA:  14    -0.381292095720E+03   -0.64237E-05   -0.64198E-05  9152   0.808E-04 0.162E-06
  37 F= -.38129210E+03 E0= -.38128486E+03  d E =-.905922E-03  mag=    58.0000
       N       E                     dE             d eps       ncg     rms          ort
SDA:   1    -0.381267654350E+03    0.24435E-01    0.00000E+00  9152   0.104E+00 0.000E+00
CGA:   2    -0.381274889727E+03   -0.72354E-02   -0.72613E-02  9152   0.117E+00 0.852E-04
CGA:   3    -0.381284049472E+03   -0.91597E-02   -0.91621E-02  9152   0.308E-01 0.336E-04
CGA:   4    -0.381289567597E+03   -0.55181E-02   -0.55185E-02  9152   0.161E-01-0.388E-05
CGA:   5    -0.381290817544E+03   -0.12499E-02   -0.12495E-02  9152   0.116E-01-0.372E-05
CGA:   6    -0.381291447487E+03   -0.62994E-03   -0.63100E-03  9152   0.419E-02-0.456E-05
CGA:   7    -0.381291878116E+03   -0.43063E-03   -0.43067E-03  9152   0.940E-03-0.341E-05
CGA:   8    -0.381291992084E+03   -0.11397E-03   -0.11393E-03  9152   0.116E-02 0.992E-06
CGA:   9    -0.381292046216E+03   -0.54133E-04   -0.54085E-04  9152   0.235E-03-0.499E-06
CGA:  10    -0.381292081532E+03   -0.35316E-04   -0.35345E-04  9152   0.145E-03-0.524E-06
CGA:  11    -0.381292093372E+03   -0.11840E-04   -0.11837E-04  9152   0.128E-03-0.196E-06
CGA:  12    -0.381292101088E+03   -0.77161E-05   -0.77274E-05  9152   0.455E-04 0.206E-06
  38 F= -.38129210E+03 E0= -.38128488E+03  d E =-.536802E-05  mag=    58.0000
       N       E                     dE             d eps       ncg     rms          ort
SDA:   1    -0.381189645507E+03    0.10245E+00    0.00000E+00  9152   0.343E+00 0.000E+00
CGA:   2    -0.381243762016E+03   -0.54117E-01   -0.54151E-01  9152   0.227E+00-0.582E-03
CGA:   3    -0.381261008265E+03   -0.17246E-01   -0.17367E-01  9152   0.233E+00 0.941E-03
CGA:   4    -0.381277354459E+03   -0.16346E-01   -0.16333E-01  9152   0.838E-01-0.450E-04
CGA:   5    -0.381286052316E+03   -0.86979E-02   -0.86987E-02  9152   0.232E-01-0.824E-04
CGA:   6    -0.381288662954E+03   -0.26106E-02   -0.26113E-02  9152   0.253E-01-0.300E-04
CGA:   7    -0.381289772190E+03   -0.11092E-02   -0.11132E-02  9152   0.380E-02-0.520E-04
CGA:   8    -0.381290367881E+03   -0.59569E-03   -0.59625E-03  9152   0.210E-02-0.830E-05
CGA:   9    -0.381290507248E+03   -0.13937E-03   -0.13953E-03  9152   0.149E-02 0.520E-06
CGA:  10    -0.381290604958E+03   -0.97710E-04   -0.97697E-04  9152   0.577E-03-0.529E-06
CGA:  11    -0.381290684706E+03   -0.79747E-04   -0.79748E-04  9152   0.254E-03-0.126E-07
CGA:  12    -0.381290701467E+03   -0.16762E-04   -0.16756E-04  9152   0.238E-03-0.198E-06
CGA:  13    -0.381290724856E+03   -0.23389E-04   -0.23388E-04  9152   0.832E-04 0.540E-06
CGA:  14    -0.381290735147E+03   -0.10291E-04   -0.10289E-04  9152   0.761E-04 0.718E-07
CGA:  15    -0.381290739579E+03   -0.44318E-05   -0.44415E-05  9152   0.460E-04 0.225E-06
  39 F= -.38129074E+03 E0= -.38128354E+03  d E =0.136151E-02  mag=    58.0000
       N       E                     dE             d eps       ncg     rms          ort
SDA:   1    -0.381248305645E+03    0.42430E-01    0.00000E+00  9152   0.159E+00 0.000E+00
CGA:   2    -0.381264146886E+03   -0.15841E-01   -0.15843E-01  9152   0.224E+00-0.388E-03
CGA:   3    -0.381277160616E+03   -0.13014E-01   -0.13029E-01  9152   0.685E-01-0.958E-04
CGA:   4    -0.381286130687E+03   -0.89701E-02   -0.89792E-02  9152   0.357E-01-0.219E-03
CGA:   5    -0.381290063027E+03   -0.39323E-02   -0.39306E-02  9152   0.107E-01 0.849E-04
CGA:   6    -0.381290836693E+03   -0.77367E-03   -0.77332E-03  9152   0.111E-01-0.283E-05
CGA:   7    -0.381291601024E+03   -0.76433E-03   -0.76455E-03  9152   0.137E-02 0.200E-05
CGA:   8    -0.381291823504E+03   -0.22248E-03   -0.22250E-03  9152   0.101E-02-0.239E-06
CGA:   9    -0.381291877454E+03   -0.53949E-04   -0.53981E-04  9152   0.541E-03 0.474E-06
CGA:  10    -0.381291920395E+03   -0.42941E-04   -0.42940E-04  9152   0.217E-03 0.764E-07
CGA:  11    -0.381291950996E+03   -0.30600E-04   -0.30558E-04  9152   0.999E-04 0.910E-06
CGA:  12    -0.381291957005E+03   -0.60091E-05   -0.60031E-05  9152   0.823E-04-0.138E-06
  40 F= -.38129196E+03 E0= -.38128475E+03  d E =-.121743E-02  mag=    58.0000
       N       E                     dE             d eps       ncg     rms          ort
SDA:   1    -0.381003911735E+03    0.28804E+00    0.00000E+00  9152   0.883E+00 0.000E+00
CGA:   2    -0.381165577077E+03   -0.16167E+00   -0.16172E+00  9152   0.714E+00-0.531E-03
CGA:   3    -0.381208001615E+03   -0.42425E-01   -0.42378E-01  9152   0.603E+00-0.108E-02
CGA:   4    -0.381264599204E+03   -0.56598E-01   -0.56610E-01  9152   0.152E+00 0.116E-02
CGA:   5    -0.381280699809E+03   -0.16101E-01   -0.16109E-01  9152   0.682E-01-0.658E-03
CGA:   6    -0.381286123538E+03   -0.54237E-02   -0.54351E-02  9152   0.550E-01 0.158E-03
CGA:   7    -0.381288910183E+03   -0.27866E-02   -0.27927E-02  9152   0.963E-02-0.666E-04
CGA:   8    -0.381290525891E+03   -0.16157E-02   -0.16151E-02  9152   0.535E-02 0.802E-05
CGA:   9    -0.381290802769E+03   -0.27688E-03   -0.27694E-03  9152   0.320E-02 0.308E-06
CGA:  10    -0.381291152561E+03   -0.34979E-03   -0.34966E-03  9152   0.140E-02 0.828E-05
CGA:  11    -0.381291293710E+03   -0.14115E-03   -0.14115E-03  9152   0.831E-03-0.390E-07
CGA:  12    -0.381291343203E+03   -0.49494E-04   -0.49501E-04  9152   0.585E-03 0.350E-06
CGA:  13    -0.381291416189E+03   -0.72985E-04   -0.73016E-04  9152   0.208E-03-0.107E-05
CGA:  14    -0.381291438781E+03   -0.22592E-04   -0.22595E-04  9152   0.309E-03-0.286E-06
CGA:  15    -0.381291460479E+03   -0.21698E-04   -0.21679E-04  9152   0.125E-03-0.649E-06
CGA:  16    -0.381291476870E+03   -0.16391E-04   -0.16369E-04  9152   0.849E-04 0.568E-06
CGA:  17    -0.381291483242E+03   -0.63715E-05   -0.63733E-05  9152   0.840E-04 0.849E-07
  41 F= -.38129148E+03 E0= -.38128422E+03  d E =0.473763E-03  mag=    58.0000
       N       E                     dE             d eps       ncg     rms          ort
SDA:   1    -0.381246125445E+03    0.45351E-01    0.00000E+00  9152   0.177E+00 0.000E+00
CGA:   2    -0.381260456114E+03   -0.14331E-01   -0.14335E-01  9152   0.230E+00 0.656E-04
CGA:   3    -0.381277297675E+03   -0.16842E-01   -0.16824E-01  9152   0.685E-01-0.149E-03
CGA:   4    -0.381286815177E+03   -0.95175E-02   -0.95165E-02  9152   0.353E-01 0.145E-05
CGA:   5    -0.381290289029E+03   -0.34739E-02   -0.34741E-02  9152   0.161E-01-0.101E-03
CGA:   6    -0.381291070203E+03   -0.78117E-03   -0.78101E-03  9152   0.808E-02 0.486E-05
CGA:   7    -0.381291938762E+03   -0.86856E-03   -0.86856E-03  9152   0.154E-02 0.925E-07
[...]
CGA:  15    -0.381279302938E+03   -0.12223E-03   -0.12201E-03  9152   0.693E-03 0.343E-05
CGA:  16    -0.381279358665E+03   -0.55726E-04   -0.55730E-04  9152   0.703E-03 0.470E-06
CGA:  17    -0.381279408257E+03   -0.49593E-04   -0.49636E-04  9152   0.273E-03 0.103E-05
CGA:  18    -0.381279449712E+03   -0.41455E-04   -0.41466E-04  9152   0.278E-03-0.184E-06
CGA:  19    -0.381279465044E+03   -0.15332E-04   -0.15339E-04  9152   0.172E-03 0.450E-07
CGA:  20    -0.381279484670E+03   -0.19626E-04   -0.19636E-04  9152   0.786E-04-0.665E-06
CGA:  21    -0.381279493281E+03   -0.86117E-05   -0.86120E-05  9152   0.109E-03-0.364E-07
 166 F= -.38127949E+03 E0= -.38127205E+03  d E =0.211404E-03  mag=    58.0000
       N       E                     dE             d eps       ncg     rms          ort
SDA:   1    -0.380975473890E+03    0.30401E+00    0.00000E+00  9152   0.897E+00 0.000E+00
CGA:   2    -0.381148548991E+03   -0.17308E+00   -0.17319E+00  9152   0.912E+00-0.101E-02
CGA:   3    -0.381192534140E+03   -0.43985E-01   -0.45026E-01  9152   0.587E+00-0.169E-01
CGA:   4    -0.381257627383E+03   -0.65093E-01   -0.65098E-01  9152   0.111E+00-0.156E-03
CGA:   5    -0.381271004034E+03   -0.13377E-01   -0.13362E-01  9152   0.122E+00 0.493E-03
CGA:   6    -0.381276312686E+03   -0.53087E-02   -0.52927E-02  9152   0.243E-01 0.136E-03
CGA:   7    -0.381278880990E+03   -0.25683E-02   -0.25668E-02  9152   0.122E-01 0.114E-03
CGA:   8    -0.381279962670E+03   -0.10817E-02   -0.10815E-02  9152   0.932E-02-0.526E-05
CGA:   9    -0.381280398129E+03   -0.43546E-03   -0.43624E-03  9152   0.247E-02-0.287E-05
CGA:  10    -0.381280814074E+03   -0.41595E-03   -0.41558E-03  9152   0.132E-02 0.498E-05
CGA:  11    -0.381280879851E+03   -0.65776E-04   -0.65851E-04  9152   0.808E-03 0.426E-06
CGA:  12    -0.381280979811E+03   -0.99961E-04   -0.10000E-03  9152   0.420E-03-0.127E-05
CGA:  13    -0.381281017094E+03   -0.37283E-04   -0.37280E-04  9152   0.313E-03-0.495E-06
CGA:  14    -0.381281035481E+03   -0.18387E-04   -0.18356E-04  9152   0.185E-03-0.737E-06
CGA:  15    -0.381281062652E+03   -0.27171E-04   -0.27197E-04  9152   0.980E-04-0.509E-06
CGA:  16    -0.381281069209E+03   -0.65573E-05   -0.65508E-05  9152   0.959E-04-0.182E-06
 167 F= -.38128107E+03 E0= -.38127361E+03  d E =-.157593E-02  mag=    58.0000
       N       E                     dE             d eps       ncg     rms          ort
SDA:   1    -0.381124680310E+03    0.15638E+00    0.00000E+00  9152   0.475E+00 0.000E+00
CGA:   2    -0.381175362660E+03   -0.50682E-01   -0.50579E-01  9152   0.928E+00 0.658E-02
CGA:   3    -0.381239741364E+03   -0.64379E-01   -0.64096E-01  9152   0.214E+00-0.142E-02
CGA:   4    -0.381266022248E+03   -0.26281E-01   -0.26350E-01  9152   0.109E+00-0.189E-02
CGA:   5    -0.381273580547E+03   -0.75583E-02   -0.75507E-02  9152   0.655E-01-0.340E-04
CGA:   6    -0.381276781220E+03   -0.32007E-02   -0.32172E-02  9152   0.177E-01-0.188E-03
CGA:   7    -0.381279105842E+03   -0.23246E-02   -0.23258E-02  9152   0.645E-02-0.247E-04
CGA:   8    -0.381279434067E+03   -0.32823E-03   -0.32857E-03  9152   0.421E-02-0.870E-06
CGA:   9    -0.381279905892E+03   -0.47183E-03   -0.47186E-03  9152   0.126E-02-0.397E-06
CGA:  10    -0.381280009887E+03   -0.10399E-03   -0.10404E-03  9152   0.113E-02 0.261E-05
CGA:  11    -0.381280079115E+03   -0.69228E-04   -0.69235E-04  9152   0.489E-03 0.569E-06
CGA:  12    -0.381280130625E+03   -0.51510E-04   -0.51500E-04  9152   0.213E-03 0.524E-06
CGA:  13    -0.381280146643E+03   -0.16018E-04   -0.16006E-04  9152   0.236E-03-0.626E-06
CGA:  14    -0.381280167977E+03   -0.21335E-04   -0.21334E-04  9152   0.885E-04-0.638E-06
CGA:  15    -0.381280179639E+03   -0.11661E-04   -0.11687E-04  9152   0.132E-03-0.624E-06
CGA:  16    -0.381280186928E+03   -0.72894E-05   -0.72895E-05  9152   0.493E-04-0.350E-07
 168 F= -.38128019E+03 E0= -.38127270E+03  d E =0.882282E-03  mag=    58.0000
       N       E                     dE             d eps       ncg     rms          ort
SDA:   1    -0.380746668825E+03    0.53351E+00    0.00000E+00  9152   0.137E+01 0.000E+00
CGA:   2    -0.381074868205E+03   -0.32820E+00   -0.33354E+00  9152   0.167E+01-0.382E-01
CGA:   3    -0.381186995192E+03   -0.11213E+00   -0.11438E+00  9152   0.824E+00-0.657E-02
CGA:   4    -0.381228334172E+03   -0.41339E-01   -0.40890E-01  9152   0.346E+00 0.299E-02
CGA:   5    -0.381263650737E+03   -0.35317E-01   -0.35312E-01  9152   0.763E-01 0.736E-03
CGA:   6    -0.381269242790E+03   -0.55921E-02   -0.55910E-02  9152   0.822E-01-0.214E-04
CGA:   7    -0.381275121044E+03   -0.58783E-02   -0.58821E-02  9152   0.112E-01 0.245E-04
CGA:   8    -0.381276385075E+03   -0.12640E-02   -0.12643E-02  9152   0.169E-01-0.103E-04
CGA:   9    -0.381277312856E+03   -0.92778E-03   -0.92841E-03  9152   0.285E-02-0.348E-05
CGA:  10    -0.381277602467E+03   -0.28961E-03   -0.28966E-03  9152   0.240E-02-0.351E-05
CGA:  11    -0.381277760372E+03   -0.15791E-03   -0.15801E-03  9152   0.148E-02 0.140E-05
CGA:  12    -0.381277863286E+03   -0.10291E-03   -0.10293E-03  9152   0.381E-03 0.310E-07
CGA:  13    -0.381277910228E+03   -0.46942E-04   -0.46919E-04  9152   0.654E-03 0.689E-06
CGA:  14    -0.381277950349E+03   -0.40120E-04   -0.40104E-04  9152   0.156E-03-0.153E-06
CGA:  15    -0.381277972668E+03   -0.22319E-04   -0.22304E-04  9152   0.235E-03 0.287E-06
CGA:  16    -0.381277985591E+03   -0.12923E-04   -0.12918E-04  9152   0.899E-04-0.188E-06
CGA:  17    -0.381277999622E+03   -0.14031E-04   -0.14013E-04  9152   0.858E-04 0.283E-06
CGA:  18    -0.381278003973E+03   -0.43510E-05   -0.43453E-05  9152   0.413E-04-0.114E-06
 169 F= -.38127800E+03 E0= -.38127050E+03  d E =0.218296E-02  mag=    58.0000
       N       E                     dE             d eps       ncg     rms          ort
SDA:   1    -0.377702091770E+03    0.35759E+01    0.00000E+00  9152   0.116E+02 0.000E+00
CGA:   2    -0.378645971814E+03   -0.94388E+00   -0.99097E+00  9152   0.150E+02 0.156E+01
CGA:   3    -0.380450328534E+03   -0.18044E+01   -0.19136E+01  9152   0.132E+02-0.417E+01
CGA:   4    -0.380889871736E+03   -0.43954E+00   -0.44785E+00  9152   0.178E+01-0.400E+00
CGA:   5    -0.381158140279E+03   -0.26827E+00   -0.27470E+00  9152   0.113E+01-0.896E-01
CGA:   6    -0.381198274761E+03   -0.40134E-01   -0.45096E-01  9152   0.573E+00-0.732E-01
CGA:   7    -0.381239531194E+03   -0.41256E-01   -0.41178E-01  9152   0.189E+00-0.130E-02
CGA:   8    -0.381254610651E+03   -0.15079E-01   -0.15184E-01  9152   0.141E+00 0.286E-02
CGA:   9    -0.381261948537E+03   -0.73379E-02   -0.72851E-02  9152   0.561E-01 0.278E-03
CGA:  10    -0.381268019342E+03   -0.60708E-02   -0.60279E-02  9152   0.221E-01 0.165E-02
CGA:  11    -0.381269233156E+03   -0.12138E-02   -0.12121E-02  9152   0.162E-01-0.290E-05
CGA:  12    -0.381271041203E+03   -0.18080E-02   -0.17976E-02  9152   0.353E-02 0.324E-03
CGA:  13    -0.381271312284E+03   -0.27108E-03   -0.27099E-03  9152   0.487E-02-0.188E-05
CGA:  14    -0.381271847899E+03   -0.53561E-03   -0.53320E-03  9152   0.107E-02 0.838E-04
CGA:  15    -0.381271966376E+03   -0.11848E-03   -0.11852E-03  9152   0.197E-02-0.126E-05
CGA:  16    -0.381272120918E+03   -0.15454E-03   -0.15490E-03  9152   0.905E-03 0.113E-04
CGA:  17    -0.381272210821E+03   -0.89903E-04   -0.89922E-04  9152   0.448E-03-0.104E-05
CGA:  18    -0.381272254474E+03   -0.43653E-04   -0.43639E-04  9152   0.691E-03 0.145E-05
CGA:  19    -0.381272304156E+03   -0.49682E-04   -0.49647E-04  9152   0.188E-03-0.596E-06
CGA:  20    -0.381272335972E+03   -0.31816E-04   -0.31702E-04  9152   0.216E-03 0.142E-05
CGA:  21    -0.381272345635E+03   -0.96637E-05   -0.96732E-05  9152   0.825E-04 0.239E-06
CGA:  22    -0.381272364159E+03   -0.18524E-04   -0.18404E-04  9152   0.628E-04 0.896E-06
CGA:  23    -0.381272367490E+03   -0.33313E-05   -0.33261E-05  9152   0.459E-04-0.104E-06
 170 F= -.38127237E+03 E0= -.38126488E+03  d E =0.563648E-02  mag=    58.0000
       N       E                     dE             d eps       ncg     rms          ort
SDA:   1    -0.368836241345E+03    0.12436E+02    0.00000E+00  9152   0.396E+02 0.000E+00
CGA:   2    -0.373339145667E+03   -0.45029E+01   -0.43205E+01  9152   0.321E+02 0.114E+02
CGA:   3    -0.377390615736E+03   -0.40515E+01   -0.37620E+01  9152   0.482E+02-0.159E+02
CGA:   4    -0.378701601332E+03   -0.13110E+01   -0.13456E+01  9152   0.572E+02-0.282E+00
CGA:   5    -0.379303644509E+03   -0.60204E+00   -0.17090E+01  9152   0.275E+02-0.465E+02
CGA:   6    -0.379923934880E+03   -0.62029E+00   -0.87251E+00  9152   0.217E+02-0.202E+02
CGA:   7    -0.380140605627E+03   -0.21667E+00   -0.76038E+00  9152   0.183E+02-0.120E+02
CGA:   8    -0.380506385725E+03   -0.36578E+00   -0.47684E+00  9152   0.742E+01-0.827E+01
CGA:   9    -0.381058786464E+03   -0.55240E+00   -0.55278E+00  9152   0.339E+01 0.920E-02
CGA:  10    -0.381134976159E+03   -0.76190E-01   -0.83429E-01  9152   0.603E+00-0.334E+00
CGA:  11    -0.381172958888E+03   -0.37983E-01   -0.38217E-01  9152   0.738E+00 0.443E-02
CGA:  12    -0.381217138485E+03   -0.44180E-01   -0.46645E-01  9152   0.356E+00 0.185E-01
CGA:  13    -0.381230870133E+03   -0.13732E-01   -0.14105E-01  9152   0.141E+00-0.666E-02
CGA:  14    -0.381241688074E+03   -0.10818E-01   -0.10861E-01  9152   0.101E+00 0.854E-02
CGA:  15    -0.381246523601E+03   -0.48355E-02   -0.49441E-02  9152   0.510E-01-0.103E-02
CGA:  16    -0.381251208742E+03   -0.46851E-02   -0.46414E-02  9152   0.527E-01 0.208E-02
CGA:  17    -0.381254384569E+03   -0.31758E-02   -0.32962E-02  9152   0.238E-01 0.100E-02
CGA:  18    -0.381255746078E+03   -0.13615E-02   -0.13558E-02  9152   0.128E-01-0.150E-04
CGA:  19    -0.381256979938E+03   -0.12339E-02   -0.12059E-02  9152   0.117E-01 0.115E-02
CGA:  20    -0.381257806084E+03   -0.82615E-03   -0.82122E-03  9152   0.733E-02-0.909E-04
CGA:  21    -0.381258398251E+03   -0.59217E-03   -0.58935E-03  9152   0.328E-02 0.475E-03
CGA:  22    -0.381258623577E+03   -0.22533E-03   -0.22502E-03  9152   0.252E-02-0.494E-05
CGA:  23    -0.381258902655E+03   -0.27908E-03   -0.27350E-03  9152   0.169E-02 0.138E-03
CGA:  24    -0.381259021055E+03   -0.11840E-03   -0.11829E-03  9152   0.107E-02-0.157E-05
CGA:  25    -0.381259104105E+03   -0.83050E-04   -0.83077E-04  9152   0.530E-03 0.176E-04
CGA:  26    -0.381259158903E+03   -0.54798E-04   -0.54775E-04  9152   0.600E-03 0.141E-05
CGA:  27    -0.381259199532E+03   -0.40629E-04   -0.40725E-04  9152   0.239E-03 0.439E-05
CGA:  28    -0.381259224054E+03   -0.24522E-04   -0.24507E-04  9152   0.217E-03 0.595E-06
CGA:  29    -0.381259238629E+03   -0.14575E-04   -0.14586E-04  9152   0.138E-03 0.554E-06
CGA:  30    -0.381259256822E+03   -0.18193E-04   -0.18193E-04  9152   0.125E-03-0.103E-07
CGA:  31    -0.381259264463E+03   -0.76411E-05   -0.76433E-05  9152   0.741E-04 0.549E-07
 171 F= -.38125926E+03 E0= -.38125170E+03  d E =0.131030E-01  mag=    58.0000
       N       E                     dE             d eps       ncg     rms          ort
SDA:   1    -0.380852541614E+03    0.40672E+00    0.00000E+00  9152   0.200E+01 0.000E+00
CGA:   2    -0.380954150640E+03   -0.10161E+00   -0.10343E+00  9152   0.169E+01-0.206E-01
CGA:   3    -0.381145110449E+03   -0.19096E+00   -0.19151E+00  9152   0.473E+00-0.126E-01
CGA:   4    -0.381227800985E+03   -0.82691E-01   -0.82656E-01  9152   0.313E+00 0.403E-03
CGA:   5    -0.381240958753E+03   -0.13158E-01   -0.13185E-01  9152   0.134E+00-0.122E-02
CGA:   6    -0.381256262752E+03   -0.15304E-01   -0.15302E-01  9152   0.391E-01 0.541E-04
CGA:   7    -0.381259315834E+03   -0.30531E-02   -0.30532E-02  9152   0.273E-01 0.667E-05
CGA:   8    -0.381260861920E+03   -0.15461E-02   -0.15462E-02  9152   0.134E-01-0.783E-05
CGA:   9    -0.381262130060E+03   -0.12681E-02   -0.12677E-02  9152   0.344E-02 0.246E-04
CGA:  10    -0.381262502974E+03   -0.37291E-03   -0.37295E-03  9152   0.575E-02-0.113E-05
CGA:  11    -0.381262849479E+03   -0.34650E-03   -0.34656E-03  9152   0.970E-03 0.150E-05
CGA:  12    -0.381263003641E+03   -0.15416E-03   -0.15403E-03  9152   0.142E-02 0.176E-05
CGA:  13    -0.381263087033E+03   -0.83392E-04   -0.83451E-04  9152   0.786E-03 0.142E-05
CGA:  14    -0.381263152999E+03   -0.65966E-04   -0.65966E-04  9152   0.348E-03 0.557E-06
CGA:  15    -0.381263213967E+03   -0.60968E-04   -0.60865E-04  9152   0.637E-03 0.118E-05
CGA:  16    -0.381263244026E+03   -0.30059E-04   -0.30065E-04  9152   0.163E-03-0.348E-07
CGA:  17    -0.381263274125E+03   -0.30100E-04   -0.30115E-04  9152   0.187E-03-0.165E-06
CGA:  18    -0.381263285114E+03   -0.10989E-04   -0.10974E-04  9152   0.119E-03-0.450E-06
CGA:  19    -0.381263295074E+03   -0.99602E-05   -0.99585E-05  9152   0.552E-04-0.229E-06
 172 F= -.38126330E+03 E0= -.38125578E+03  d E =-.403061E-02  mag=    58.0000
       N       E                     dE             d eps       ncg     rms          ort
SDA:   1    -0.379605530777E+03    0.16578E+01    0.00000E+00  9152   0.448E+01 0.000E+00
CGA:   2    -0.380238323707E+03   -0.63279E+00   -0.62368E+00  9152   0.108E+02 0.188E+00
CGA:   3    -0.380966748468E+03   -0.72842E+00   -0.71584E+00  9152   0.166E+01-0.188E+00
CGA:   4    -0.381126670558E+03   -0.15992E+00   -0.16006E+00  9152   0.153E+01-0.194E-01
CGA:   5    -0.381207512252E+03   -0.80842E-01   -0.80727E-01  9152   0.433E+00-0.767E-02
CGA:   6    -0.381241083403E+03   -0.33571E-01   -0.33599E-01  9152   0.171E+00 0.744E-03
CGA:   7    -0.381253410706E+03   -0.12327E-01   -0.12340E-01  9152   0.133E+00 0.113E-03
CGA:   8    -0.381261750674E+03   -0.83400E-02   -0.83130E-02  9152   0.267E-01-0.102E-03
CGA:   9    -0.381264425480E+03   -0.26748E-02   -0.26745E-02  9152   0.342E-01 0.211E-04
CGA:  10    -0.381266428838E+03   -0.20034E-02   -0.20031E-02  9152   0.588E-02-0.474E-05
CGA:  11    -0.381266996576E+03   -0.56774E-03   -0.56768E-03  9152   0.681E-02 0.484E-05
CGA:  12    -0.381267420737E+03   -0.42416E-03   -0.42413E-03  9152   0.202E-02-0.837E-06
CGA:  13    -0.381267603952E+03   -0.18322E-03   -0.18320E-03  9152   0.157E-02 0.235E-05
CGA:  14    -0.381267713022E+03   -0.10907E-03   -0.10909E-03  9152   0.109E-02 0.462E-06
CGA:  15    -0.381267819269E+03   -0.10625E-03   -0.10621E-03  9152   0.583E-03 0.293E-05
CGA:  16    -0.381267863963E+03   -0.44694E-04   -0.44702E-04  9152   0.598E-03 0.566E-06
CGA:  17    -0.381267921897E+03   -0.57934E-04   -0.57916E-04  9152   0.259E-03 0.165E-05
CGA:  18    -0.381267943563E+03   -0.21666E-04   -0.21668E-04  9152   0.303E-03 0.367E-06
CGA:  19    -0.381267969825E+03   -0.26261E-04   -0.26262E-04  9152   0.119E-03 0.122E-05
CGA:  20    -0.381267980340E+03   -0.10515E-04   -0.10515E-04  9152   0.121E-03 0.176E-06
CGA:  21    -0.381267988819E+03   -0.84786E-05   -0.84873E-05  9152   0.554E-04 0.495E-06
 173 F= -.38126799E+03 E0= -.38126046E+03  d E =-.469374E-02  mag=    58.0000
       N       E                     dE             d eps       ncg     rms          ort
SDA:   1    -0.379928300808E+03    0.13397E+01    0.00000E+00  9152   0.520E+01 0.000E+00
CGA:   2    -0.380247973381E+03   -0.31967E+00   -0.32929E+00  9152   0.607E+01 0.234E-01
CGA:   3    -0.380932603824E+03   -0.68463E+00   -0.68971E+00  9152   0.168E+01-0.125E+00
CGA:   4    -0.381148411558E+03   -0.21581E+00   -0.21656E+00  9152   0.145E+01-0.133E-01
CGA:   5    -0.381204635120E+03   -0.56224E-01   -0.56809E-01  9152   0.365E+00-0.205E-01
CGA:   6    -0.381248501118E+03   -0.43866E-01   -0.43863E-01  9152   0.142E+00 0.949E-04
CGA:   7    -0.381256220369E+03   -0.77193E-02   -0.77475E-02  9152   0.877E-01-0.209E-03
CGA:   8    -0.381262989888E+03   -0.67695E-02   -0.67728E-02  9152   0.313E-01 0.129E-03
CGA:   9    -0.381265731154E+03   -0.27413E-02   -0.27410E-02  9152   0.189E-01 0.129E-03
CGA:  10    -0.381266747673E+03   -0.10165E-02   -0.10164E-02  9152   0.984E-02-0.590E-05
CGA:  11    -0.381267820550E+03   -0.10729E-02   -0.10729E-02  9152   0.351E-02-0.240E-05
CGA:  12    -0.381268042525E+03   -0.22198E-03   -0.22203E-03  9152   0.319E-02 0.345E-06
CGA:  13    -0.381268361361E+03   -0.31884E-03   -0.31872E-03  9152   0.986E-03 0.656E-05
CGA:  14    -0.381268450381E+03   -0.89020E-04   -0.89011E-04  9152   0.139E-02 0.133E-05
CGA:  15    -0.381268562343E+03   -0.11196E-03   -0.11197E-03  9152   0.471E-03 0.200E-05
CGA:  16    -0.381268615030E+03   -0.52687E-04   -0.52691E-04  9152   0.625E-03-0.101E-06
CGA:  17    -0.381268656563E+03   -0.41533E-04   -0.41554E-04  9152   0.324E-03 0.678E-06
CGA:  18    -0.381268688786E+03   -0.32223E-04   -0.32220E-04  9152   0.189E-03 0.968E-07
CGA:  19    -0.381268703772E+03   -0.14986E-04   -0.14990E-04  9152   0.204E-03 0.481E-06
CGA:  20    -0.381268720266E+03   -0.16494E-04   -0.16495E-04  9152   0.614E-04 0.177E-06
CGA:  21    -0.381268726998E+03   -0.67321E-05   -0.67258E-05  9152   0.944E-04 0.275E-06
 174 F= -.38126873E+03 E0= -.38126121E+03  d E =-.738179E-03  mag=    58.0000
       N       E                     dE             d eps       ncg     rms          ort
SDA:   1    -0.380966970924E+03    0.30175E+00    0.00000E+00  9152   0.835E+00 0.000E+00
CGA:   2    -0.381110999215E+03   -0.14403E+00   -0.14258E+00  9152   0.181E+01 0.184E-01
CGA:   3    -0.381195393747E+03   -0.84395E-01   -0.83179E-01  9152   0.377E+00-0.377E-02
CGA:   4    -0.381247504491E+03   -0.52111E-01   -0.52020E-01  9152   0.142E+00 0.166E-02
CGA:   5    -0.381257083925E+03   -0.95794E-02   -0.95616E-02  9152   0.113E+00-0.198E-03
CGA:   6    -0.381263789753E+03   -0.67058E-02   -0.67071E-02  9152   0.318E-01-0.253E-05
CGA:   7    -0.381266848653E+03   -0.30589E-02   -0.30575E-02  9152   0.984E-02 0.100E-03
CGA:   8    -0.381267698947E+03   -0.85029E-03   -0.85034E-03  9152   0.115E-01 0.118E-04
CGA:   9    -0.381268351389E+03   -0.65244E-03   -0.65201E-03  9152   0.204E-02 0.498E-07
CGA:  10    -0.381268660749E+03   -0.30936E-03   -0.30922E-03  9152   0.154E-02 0.201E-05
CGA:  11    -0.381268734823E+03   -0.74074E-04   -0.74033E-04  9152   0.787E-03-0.215E-06
CGA:  12    -0.381268816915E+03   -0.82092E-04   -0.82080E-04  9152   0.355E-03 0.578E-06
CGA:  13    -0.381268855812E+03   -0.38897E-04   -0.38896E-04  9152   0.320E-03-0.193E-07
CGA:  14    -0.381268874061E+03   -0.18249E-04   -0.18266E-04  9152   0.205E-03 0.400E-06
CGA:  15    -0.381268900008E+03   -0.25947E-04   -0.25934E-04  9152   0.867E-04 0.330E-06
CGA:  16    -0.381268909826E+03   -0.98173E-05   -0.98150E-05  9152   0.164E-03 0.102E-06
CGA:  17    -0.381268921235E+03   -0.11410E-04   -0.11404E-04  9152   0.438E-04-0.298E-06
CGA:  18    -0.381268926989E+03   -0.57533E-05   -0.57468E-05  9152   0.440E-04 0.150E-06
 175 F= -.38126893E+03 E0= -.38126138E+03  d E =-.199991E-03  mag=    58.0000
       N       E                     dE             d eps       ncg     rms          ort
SDA:   1    -0.381244182604E+03    0.24739E-01    0.00000E+00  9152   0.452E+00 0.000E+00
CGA:   2    -0.381256093755E+03   -0.11911E-01   -0.12140E-01  9152   0.382E-01-0.994E-02
CGA:   3    -0.381263972052E+03   -0.78783E-02   -0.78775E-02  9152   0.336E-01 0.624E-05
CGA:   4    -0.381266208711E+03   -0.22367E-02   -0.22380E-02  9152   0.259E-01 0.546E-05
CGA:   5    -0.381267797288E+03   -0.15886E-02   -0.15861E-02  9152   0.855E-02-0.388E-05
CGA:   6    -0.381268653479E+03   -0.85619E-03   -0.85591E-03  9152   0.250E-02 0.182E-04
CGA:   7    -0.381268826177E+03   -0.17270E-03   -0.17268E-03  9152   0.236E-02 0.106E-06
CGA:   8    -0.381268984910E+03   -0.15873E-03   -0.15878E-03  9152   0.439E-03 0.159E-05
CGA:   9    -0.381269040572E+03   -0.55662E-04   -0.55711E-04  9152   0.397E-03-0.123E-05
CGA:  10    -0.381269058612E+03   -0.18039E-04   -0.18032E-04  9152   0.146E-03-0.298E-06
CGA:  11    -0.381269076687E+03   -0.18076E-04   -0.18111E-04  9152   0.805E-04-0.971E-06
CGA:  12    -0.381269083429E+03   -0.67416E-05   -0.67405E-05  9152   0.692E-04-0.165E-06
 176 F= -.38126908E+03 E0= -.38126154E+03  d E =-.156440E-03  mag=    58.0000
