       N       E                     dE             d eps       ncg     rms          rms(c)
DAV:   1     0.219975432169E+04    0.21998E+04   -0.87899E+04 93390   0.180E+03
DAV:   2     0.884736308752E+02   -0.21113E+04   -0.19616E+04 92740   0.529E+02
DAV:   3    -0.206412276291E+03   -0.29489E+03   -0.28693E+03100125   0.211E+02
DAV:   4    -0.223041799348E+03   -0.16630E+02   -0.16067E+02126440   0.442E+01
DAV:   5    -0.223920563570E+03   -0.87876E+00   -0.84282E+00148700   0.648E+00    0.373E+01
DAV:   6    -0.166320108116E+03    0.57600E+02   -0.13552E+02120945   0.629E+01    0.543E+01
DAV:   7    -0.177048355181E+03   -0.10728E+02   -0.24399E+01103925   0.197E+01    0.303E+01
DAV:   8    -0.179917783320E+03   -0.28694E+01   -0.47504E+00114290   0.180E+01    0.198E+01
DAV:   9    -0.181674500203E+03   -0.17567E+01   -0.38495E+00105435   0.172E+01    0.484E+00
DAV:  10    -0.181825928789E+03   -0.15143E+00   -0.99546E-01110040   0.463E+00    0.223E+00
DAV:  11    -0.181913185149E+03   -0.87256E-01   -0.99275E-02112170   0.224E+00    0.929E-01
DAV:  12    -0.181916762330E+03   -0.35772E-02   -0.27501E-02107960   0.924E-01    0.558E-01
DAV:  13    -0.181919148150E+03   -0.23858E-02   -0.97943E-03104285   0.686E-01    0.317E-01
DAV:  14    -0.181922508375E+03   -0.33602E-02   -0.27828E-03107380   0.328E-01    0.183E-01
DAV:  15    -0.181924436438E+03   -0.19281E-02   -0.27797E-03107195   0.306E-01    0.138E-01
DAV:  16    -0.181925325650E+03   -0.88921E-03   -0.23376E-03114470   0.185E-01    0.111E-01
DAV:  17    -0.181926937970E+03   -0.16123E-02   -0.40968E-03117700   0.230E-01    0.103E-01
DAV:  18    -0.181928375635E+03   -0.14377E-02   -0.55422E-03117155   0.254E-01    0.966E-02
DAV:  19    -0.181930280246E+03   -0.19046E-02   -0.11868E-02113730   0.375E-01    0.864E-02
DAV:  20    -0.181932456995E+03   -0.21767E-02   -0.20323E-02117245   0.483E-01    0.814E-02
DAV:  21    -0.181934526421E+03   -0.20694E-02   -0.21001E-02122300   0.476E-01    0.735E-02
DAV:  22    -0.181935864127E+03   -0.13377E-02   -0.83715E-03116770   0.276E-01    0.714E-02
DAV:  23    -0.181937517239E+03   -0.16531E-02   -0.17700E-02122400   0.435E-01    0.673E-02
DAV:  24    -0.181939197951E+03   -0.16807E-02   -0.23158E-02118375   0.502E-01    0.666E-02
DAV:  25    -0.181940688072E+03   -0.14901E-02   -0.15546E-02126670   0.394E-01    0.588E-02
DAV:  26    -0.181942893807E+03   -0.22057E-02   -0.45153E-02120840   0.713E-01    0.619E-02
DAV:  27    -0.181945047710E+03   -0.21539E-02   -0.60056E-02120930   0.817E-01    0.671E-02
DAV:  28    -0.181946152658E+03   -0.11049E-02   -0.56905E-03 97395   0.236E-01    0.475E-02
DAV:  29    -0.181946542827E+03   -0.39017E-03   -0.15125E-03103075   0.121E-01    0.428E-02
DAV:  30    -0.181947319867E+03   -0.77704E-03   -0.24599E-02122230   0.550E-01    0.511E-02
DAV:  31    -0.181947908263E+03   -0.58840E-03   -0.78099E-03123740   0.336E-01    0.676E-02
DAV:  32    -0.181948286355E+03   -0.37809E-03   -0.37564E-02118140   0.661E-01    0.620E-02
DAV:  33    -0.181948741997E+03   -0.45564E-03   -0.30974E-03102495   0.176E-01    0.427E-02
DAV:  34    -0.181948790532E+03   -0.48535E-04   -0.12486E-04 85570   0.369E-02    0.350E-02
DAV:  35    -0.181948829553E+03   -0.39020E-04   -0.22237E-04 73180   0.529E-02    0.357E-02
DAV:  36    -0.181948977622E+03   -0.14807E-03   -0.91837E-03118865   0.356E-01    0.458E-02
DAV:  37    -0.181949043776E+03   -0.66154E-04   -0.11085E-02124585   0.368E-01    0.511E-02
DAV:  38    -0.181949208050E+03   -0.16427E-03   -0.68016E-04 94340   0.111E-01    0.300E-02
DAV:  39    -0.181949179002E+03    0.29048E-04   -0.32261E-03108305   0.205E-01    0.282E-02
DAV:  40    -0.181949150192E+03    0.28810E-04   -0.25912E-03109230   0.210E-01    0.391E-02
DAV:  41    -0.181949208726E+03   -0.58534E-04   -0.14005E-03103665   0.143E-01    0.283E-02
DAV:  42    -0.181949194710E+03    0.14016E-04   -0.49340E-04106975   0.813E-02    0.297E-02
DAV:  43    -0.181949167760E+03    0.26950E-04   -0.19347E-03105260   0.166E-01    0.437E-02
DAV:  44    -0.181949142288E+03    0.25472E-04   -0.17534E-03107995   0.143E-01    0.486E-02
DAV:  45    -0.181949150850E+03   -0.85626E-05   -0.11681E-04 84550   0.352E-02    0.470E-02
DAV:  46    -0.181949150864E+03   -0.13268E-07   -0.12852E-05 53810   0.165E-02
   1 F= -.18194915E+03 E0= -.18194915E+03  d E =-.181949E+03  mag=    16.0001
       N       E                     dE             d eps       ncg     rms          rms(c)
DAV:   1    -0.181919249656E+03    0.29901E-01   -0.65936E-01129075   0.105E+01    0.765E-01
DAV:   2    -0.181948994939E+03   -0.29745E-01   -0.26302E-01 92825   0.186E+00    0.339E-01
DAV:   3    -0.181950463993E+03   -0.14691E-02   -0.99774E-03107360   0.471E-01    0.144E-01
DAV:   4    -0.181950319479E+03    0.14451E-03   -0.66983E-04126785   0.110E-01    0.896E-02
DAV:   5    -0.181950374271E+03   -0.54792E-04   -0.91737E-05116565   0.657E-02    0.448E-02
DAV:   6    -0.181950365045E+03    0.92252E-05   -0.20143E-05 77880   0.303E-02
   2 F= -.18195037E+03 E0= -.18195037E+03  d E =-.121418E-02  mag=    16.0000
       N       E                     dE             d eps       ncg     rms          rms(c)
DAV:   1    -0.181949352834E+03    0.10214E-02   -0.26151E-02128570   0.209E+00    0.152E-01
DAV:   2    -0.181950454418E+03   -0.11016E-02   -0.10342E-02 92650   0.370E-01    0.695E-02
DAV:   3    -0.181950452994E+03    0.14234E-05   -0.39534E-04105405   0.942E-02    0.306E-02
DAV:   4    -0.181950491325E+03   -0.38331E-04   -0.24208E-05 69635   0.201E-02    0.184E-02
DAV:   5    -0.181950482215E+03    0.91103E-05   -0.48321E-06 48865   0.149E-02    0.925E-03
DAV:   6    -0.181950485239E+03   -0.30245E-05   -0.34917E-06 47095   0.880E-03
   3 F= -.18195049E+03 E0= -.18195049E+03  d E =-.133438E-02  mag=    16.0000
       N       E                     dE             d eps       ncg     rms          rms(c)
DAV:   1    -0.181950279258E+03    0.20296E-03   -0.49227E-03128770   0.906E-01    0.659E-02
DAV:   2    -0.181950478201E+03   -0.19894E-03   -0.19615E-03 93975   0.161E-01    0.304E-02
DAV:   3    -0.181950462733E+03    0.15468E-04   -0.74810E-05 90515   0.409E-02    0.137E-02
DAV:   4    -0.181950477742E+03   -0.15008E-04   -0.48537E-06 49550   0.931E-03    0.835E-03
DAV:   5    -0.181950472089E+03    0.56527E-05   -0.17343E-06 46430   0.757E-03    0.442E-03
DAV:   6    -0.181950470109E+03    0.19801E-05   -0.15129E-06 46415   0.503E-03
   4 F= -.18195047E+03 E0= -.18195047E+03  d E =-.131925E-02  mag=    16.0000
       N       E                     dE             d eps       ncg     rms          rms(c)
DAV:   1    -0.181948879109E+03    0.15930E-02   -0.21438E-01104925   0.332E+00    0.267E-01
DAV:   2    -0.181950826773E+03   -0.19477E-02   -0.24916E-02 91865   0.705E-01    0.148E-01
DAV:   3    -0.181950874368E+03   -0.47595E-04   -0.94034E-04109955   0.173E-01    0.774E-02
DAV:   4    -0.181950928928E+03   -0.54560E-04   -0.10694E-04107765   0.619E-02    0.429E-02
DAV:   5    -0.181950918565E+03    0.10362E-04   -0.34421E-05 82990   0.295E-02    0.149E-02
DAV:   6    -0.181950905222E+03    0.13343E-04   -0.86329E-06 50860   0.154E-02    0.579E-03
DAV:   7    -0.181950915672E+03   -0.10449E-04   -0.28863E-06 48625   0.800E-03    0.434E-03
DAV:   8    -0.181950914860E+03    0.81195E-06   -0.21606E-06 47570   0.628E-03
   5 F= -.18195091E+03 E0= -.18195091E+03  d E =-.444751E-03  mag=    16.0000
       N       E                     dE             d eps       ncg     rms          rms(c)
DAV:   1    -0.181944903828E+03    0.60118E-02   -0.63325E-01104955   0.570E+00    0.459E-01
DAV:   2    -0.181951124265E+03   -0.62204E-02   -0.73716E-02 91825   0.121E+00    0.254E-01
DAV:   3    -0.181951171633E+03   -0.47368E-04   -0.27649E-03110015   0.296E-01    0.133E-01
DAV:   4    -0.181951213713E+03   -0.42080E-04   -0.32267E-04113020   0.106E-01    0.735E-02
DAV:   5    -0.181951179063E+03    0.34650E-04   -0.10335E-04107310   0.498E-02    0.250E-02
DAV:   6    -0.181951157208E+03    0.21854E-04   -0.20880E-05 65375   0.229E-02    0.955E-03
DAV:   7    -0.181951173621E+03   -0.16413E-04   -0.55131E-06 51645   0.109E-02    0.711E-03
DAV:   8    -0.181951174888E+03   -0.12669E-05   -0.57300E-06 49185   0.917E-03
   6 F= -.18195117E+03 E0= -.18195117E+03  d E =-.704779E-03  mag=    16.0000
       N       E                     dE             d eps       ncg     rms          rms(c)
DAV:   1    -0.181950776510E+03    0.39711E-03   -0.41792E-02104910   0.147E+00    0.118E-01
DAV:   2    -0.181951092471E+03   -0.31596E-03   -0.48726E-03 91940   0.312E-01    0.648E-02
DAV:   3    -0.181951117891E+03   -0.25420E-04   -0.18373E-04110380   0.766E-02    0.334E-02
DAV:   4    -0.181951158795E+03   -0.40903E-04   -0.22197E-05 68675   0.278E-02    0.182E-02
DAV:   5    -0.181951159540E+03   -0.74534E-06   -0.11905E-05 50290   0.160E-02    0.788E-03
DAV:   6    -0.181951151904E+03    0.76363E-05   -0.63497E-06 48360   0.100E-02
   7 F= -.18195115E+03 E0= -.18195115E+03  d E =-.681795E-03  mag=    16.0000
       N       E                     dE             d eps       ncg     rms          rms(c)
DAV:   1    -0.181947323811E+03    0.38357E-02   -0.42593E-01 99945   0.412E+00    0.258E-01
DAV:   2    -0.181951504963E+03   -0.41812E-02   -0.37101E-02 92710   0.782E-01    0.143E-01
DAV:   3    -0.181951650283E+03   -0.14532E-03   -0.11165E-03106525   0.171E-01    0.674E-02
DAV:   4    -0.181951605006E+03    0.45277E-04   -0.82199E-05111650   0.404E-02    0.431E-02
DAV:   5    -0.181951615518E+03   -0.10513E-04   -0.46598E-05 87690   0.455E-02    0.138E-02
DAV:   6    -0.181951618416E+03   -0.28970E-05   -0.20478E-05 64790   0.195E-02
   8 F= -.18195162E+03 E0= -.18195162E+03  d E =-.466512E-03  mag=    16.0000
