       N       E                     dE             d eps       ncg     rms          rms(c)
DAV:   1     0.179218302165E+04    0.17922E+04   -0.76781E+04116120   0.171E+03
DAV:   2     0.403182713200E+00   -0.17918E+04   -0.16494E+04120010   0.513E+02
DAV:   3    -0.198443148047E+03   -0.19885E+03   -0.19624E+03124180   0.188E+02
DAV:   4    -0.202736939681E+03   -0.42938E+01   -0.42820E+01126420   0.301E+01
DAV:   5    -0.202786901944E+03   -0.49962E-01   -0.49955E-01123630   0.341E+00    0.478E+01
DAV:   6    -0.151224825766E+03    0.51562E+02   -0.91844E+01141300   0.585E+01    0.424E+01
DAV:   7    -0.154389201069E+03   -0.31644E+01   -0.10534E+01118870   0.154E+01    0.280E+01
DAV:   8    -0.154782959374E+03   -0.39376E+00   -0.88804E-01136630   0.688E+00    0.163E+01
DAV:   9    -0.154832542634E+03   -0.49583E-01   -0.32976E-01122740   0.377E+00    0.321E+00
DAV:  10    -0.154856110489E+03   -0.23568E-01   -0.56389E-02130200   0.160E+00    0.927E-01
DAV:  11    -0.154856843764E+03   -0.73327E-03   -0.98872E-03125710   0.486E-01    0.478E-01
DAV:  12    -0.154858023911E+03   -0.11801E-02   -0.10947E-03127440   0.200E-01    0.267E-01
DAV:  13    -0.154858621813E+03   -0.59790E-03   -0.34155E-04121920   0.150E-01    0.127E-01
DAV:  14    -0.154858648722E+03   -0.26909E-04   -0.12859E-04127230   0.727E-02    0.456E-02
DAV:  15    -0.154858661637E+03   -0.12915E-04   -0.32372E-05 98250   0.306E-02    0.362E-02
DAV:  16    -0.154858703263E+03   -0.41626E-04   -0.13401E-05 67090   0.265E-02    0.232E-02
DAV:  17    -0.154858694308E+03    0.89550E-05   -0.76281E-06 64230   0.191E-02
   1 F= -.15485869E+03 E0= -.15485869E+03  d E =-.154859E+03  mag=    15.9999
       N       E                     dE             d eps       ncg     rms          rms(c)
DAV:   1    -0.154869976371E+03   -0.11273E-01   -0.39011E-01122420   0.391E+00    0.990E-01
DAV:   2    -0.154859565869E+03    0.10411E-01   -0.35613E-02117950   0.107E+00    0.708E-01
DAV:   3    -0.154859849250E+03   -0.28338E-03   -0.23331E-03123760   0.301E-01    0.267E-01
DAV:   4    -0.154859633151E+03    0.21610E-03   -0.66025E-04124280   0.162E-01    0.143E-01
DAV:   5    -0.154859471668E+03    0.16148E-03   -0.17684E-04123970   0.775E-02    0.490E-02
DAV:   6    -0.154859501865E+03   -0.30197E-04   -0.20935E-05 93700   0.354E-02    0.170E-02
DAV:   7    -0.154859500752E+03    0.11132E-05   -0.44015E-06 65530   0.113E-02
   2 F= -.15485950E+03 E0= -.15485950E+03  d E =-.806444E-03  mag=    16.0000
       N       E                     dE             d eps       ncg     rms          rms(c)
DAV:   1    -0.154859508658E+03   -0.67935E-05   -0.15285E-06 62540   0.782E-03    0.610E-03
DAV:   2    -0.154859499707E+03    0.89511E-05   -0.49550E-07 60340   0.368E-03    0.482E-03
DAV:   3    -0.154859505080E+03   -0.53729E-05   -0.12312E-07 59300   0.180E-03    0.289E-03
DAV:   4    -0.154859507890E+03   -0.28094E-05   -0.89643E-08 58880   0.206E-03    0.145E-03
DAV:   5    -0.154859508131E+03   -0.24182E-06   -0.37790E-08 58570   0.106E-03    0.666E-04
DAV:   6    -0.154859508351E+03   -0.21988E-06   -0.12193E-08 58350   0.542E-04
   3 F= -.15485951E+03 E0= -.15485951E+03  d E =-.814043E-03  mag=    16.0000
       N       E                     dE             d eps       ncg     rms          rms(c)
DAV:   1    -0.154860055947E+03   -0.54782E-03   -0.46107E-01113820   0.316E+00    0.412E-01
DAV:   2    -0.154860164779E+03   -0.10883E-03   -0.17504E-02115080   0.682E-01    0.319E-01
DAV:   3    -0.154860396156E+03   -0.23138E-03   -0.33046E-04127940   0.106E-01    0.109E-01
DAV:   4    -0.154860333181E+03    0.62976E-04   -0.11999E-04127550   0.746E-02    0.519E-02
DAV:   5    -0.154860302066E+03    0.31114E-04   -0.56911E-05113140   0.405E-02    0.229E-02
DAV:   6    -0.154860322251E+03   -0.20185E-04   -0.89836E-06 63800   0.173E-02    0.144E-02
DAV:   7    -0.154860335972E+03   -0.13721E-04   -0.28873E-06 60240   0.101E-02    0.796E-03
DAV:   8    -0.154860338161E+03   -0.21885E-05   -0.11587E-06 59170   0.547E-03
   4 F= -.15486034E+03 E0= -.15486034E+03  d E =-.829809E-03  mag=    16.0000
       N       E                     dE             d eps       ncg     rms          rms(c)
DAV:   1    -0.154856170574E+03    0.41654E-02   -0.41568E+00113760   0.949E+00    0.124E+00
DAV:   2    -0.154862490452E+03   -0.63199E-02   -0.15922E-01115060   0.206E+00    0.978E-01
DAV:   3    -0.154862582712E+03   -0.92260E-04   -0.29840E-03128680   0.310E-01    0.329E-01
DAV:   4    -0.154861693713E+03    0.88900E-03   -0.11204E-03130650   0.227E-01    0.157E-01
DAV:   5    -0.154861503443E+03    0.19027E-03   -0.50725E-04136760   0.121E-01    0.686E-02
DAV:   6    -0.154861587088E+03   -0.83646E-04   -0.81505E-05124390   0.493E-02    0.460E-02
DAV:   7    -0.154861631952E+03   -0.44864E-04   -0.16799E-05 71440   0.242E-02    0.238E-02
DAV:   8    -0.154861649244E+03   -0.17292E-04   -0.74733E-06 63200   0.155E-02    0.122E-02
DAV:   9    -0.154861659376E+03   -0.10132E-04   -0.25037E-06 60460   0.799E-03    0.617E-03
DAV:  10    -0.154861672541E+03   -0.13165E-04   -0.89895E-07 59210   0.699E-03    0.420E-03
DAV:  11    -0.154861673756E+03   -0.12153E-05   -0.41853E-07 58680   0.349E-03
   5 F= -.15486167E+03 E0= -.15486167E+03  d E =-.216540E-02  mag=    16.0000
       N       E                     dE             d eps       ncg     rms          rms(c)
DAV:   1    -0.154860951358E+03    0.72118E-03   -0.30761E-01120070   0.296E+00    0.220E-01
DAV:   2    -0.154862537184E+03   -0.15858E-02   -0.14559E-02115350   0.609E-01    0.136E-01
DAV:   3    -0.154862464814E+03    0.72370E-04   -0.31915E-04132430   0.109E-01    0.795E-02
DAV:   4    -0.154862389723E+03    0.75091E-04   -0.81235E-05129030   0.536E-02    0.395E-02
DAV:   5    -0.154862403811E+03   -0.14088E-04   -0.25910E-05 77090   0.268E-02    0.200E-02
DAV:   6    -0.154862396191E+03    0.76193E-05   -0.65055E-06 61170   0.153E-02
   6 F= -.15486240E+03 E0= -.15486240E+03  d E =-.722435E-03  mag=    16.0000
       N       E                     dE             d eps       ncg     rms          rms(c)
DAV:   1    -0.154852557138E+03    0.98467E-02   -0.22797E+00120070   0.805E+00    0.600E-01
DAV:   2    -0.154864063712E+03   -0.11507E-01   -0.10790E-01115420   0.166E+00    0.372E-01
DAV:   3    -0.154863674660E+03    0.38905E-03   -0.23926E-03132370   0.300E-01    0.219E-01
DAV:   4    -0.154863237039E+03    0.43762E-03   -0.59828E-04149830   0.143E-01    0.114E-01
DAV:   5    -0.154863283874E+03   -0.46835E-04   -0.20003E-04130900   0.721E-02    0.576E-02
DAV:   6    -0.154863270063E+03    0.13811E-04   -0.36727E-05 93100   0.378E-02    0.394E-02
DAV:   7    -0.154863242174E+03    0.27889E-04   -0.23321E-05 65180   0.255E-02    0.196E-02
DAV:   8    -0.154863237185E+03    0.49888E-05   -0.75349E-06 61030   0.132E-02
   7 F= -.15486324E+03 E0= -.15486324E+03  d E =-.156343E-02  mag=    16.0000
       N       E                     dE             d eps       ncg     rms          rms(c)
DAV:   1    -0.154862960834E+03    0.28134E-03   -0.66739E-01113780   0.405E+00    0.489E-01
DAV:   2    -0.154863884092E+03   -0.92326E-03   -0.28037E-02113920   0.871E-01    0.363E-01
DAV:   3    -0.154864091012E+03   -0.20692E-03   -0.64195E-04133290   0.151E-01    0.129E-01
DAV:   4    -0.154863973267E+03    0.11774E-03   -0.22517E-04133530   0.939E-02    0.615E-02
DAV:   5    -0.154863909050E+03    0.64218E-04   -0.10771E-04123880   0.551E-02    0.345E-02
DAV:   6    -0.154863891950E+03    0.17099E-04   -0.17850E-05 74810   0.230E-02    0.242E-02
DAV:   7    -0.154863875323E+03    0.16628E-04   -0.11123E-05 62110   0.165E-02    0.135E-02
DAV:   8    -0.154863857321E+03    0.18001E-04   -0.46158E-06 60230   0.990E-03    0.725E-03
DAV:   9    -0.154863852047E+03    0.52738E-05   -0.12241E-06 58770   0.583E-03
   8 F= -.15486385E+03 E0= -.15486385E+03  d E =-.614862E-03  mag=    16.0000
