       N       E                     dE             d eps       ncg     rms          rms(c)
DAV:   1     0.639065938490E+04    0.63907E+04   -0.30065E+05 37424   0.170E+03
DAV:   2     0.352109524397E+03   -0.60385E+04   -0.56511E+04 35552   0.512E+02
DAV:   3    -0.298681102215E+03   -0.65079E+03   -0.63047E+03 37344   0.188E+02
DAV:   4    -0.318128520552E+03   -0.19447E+02   -0.19292E+02 38256   0.353E+01
DAV:   5    -0.318607547896E+03   -0.47903E+00   -0.47640E+00 46128   0.523E+00    0.879E+01
DAV:   6    -0.254056377821E+03    0.64551E+02   -0.67228E+02 43024   0.114E+02    0.214E+02
DAV:   7    -0.216303417626E+03    0.37753E+02   -0.13549E+02 40352   0.463E+01    0.959E+01
DAV:   8    -0.264486387154E+03   -0.48183E+02   -0.15347E+02 50448   0.907E+01    0.141E+02
DAV:   9    -0.204178578880E+03    0.60308E+02   -0.82315E+01 46152   0.592E+01    0.920E+01
DAV:  10    -0.186860283644E+03    0.17318E+02   -0.65084E+01 43808   0.440E+01    0.816E+01
DAV:  11    -0.232174068511E+03   -0.45314E+02   -0.13000E+02 41696   0.597E+01    0.137E+02
DAV:  12    -0.200285362828E+03    0.31889E+02   -0.72931E+01 44760   0.337E+01    0.904E+01
DAV:  13    -0.184150110170E+03    0.16135E+02   -0.31914E+01 41912   0.247E+01    0.427E+01
DAV:  14    -0.187695802899E+03   -0.35457E+01   -0.17144E+01 44248   0.219E+01    0.531E+01
DAV:  15    -0.195294306305E+03   -0.75985E+01   -0.26768E+01 41776   0.156E+01    0.406E+01
DAV:  16    -0.199324574844E+03   -0.40303E+01   -0.12803E+01 41328   0.158E+01    0.366E+01
DAV:  17    -0.203555463668E+03   -0.42309E+01   -0.11031E+01 43144   0.113E+01    0.287E+01
DAV:  18    -0.212238138964E+03   -0.86827E+01   -0.92655E+00 41928   0.898E+00    0.348E+01
DAV:  19    -0.214307810669E+03   -0.20697E+01   -0.11369E+01 41744   0.878E+00    0.282E+01
DAV:  20    -0.217477847758E+03   -0.31700E+01   -0.69826E+00 43104   0.788E+00    0.276E+01
DAV:  21    -0.220229947782E+03   -0.27521E+01   -0.83253E+00 42664   0.903E+00    0.282E+01
DAV:  22    -0.223130200801E+03   -0.29003E+01   -0.35132E+00 42104   0.698E+00    0.218E+01
DAV:  23    -0.225902519795E+03   -0.27723E+01   -0.48047E+00 42944   0.676E+00    0.260E+01
DAV:  24    -0.226562728925E+03   -0.66021E+00   -0.63093E+00 41224   0.656E+00    0.164E+01
DAV:  25    -0.228126462189E+03   -0.15637E+01   -0.11708E+00 40936   0.388E+00    0.145E+01
DAV:  26    -0.228595766210E+03   -0.46930E+00   -0.42405E-01 42960   0.281E+00    0.133E+01
DAV:  27    -0.229190365619E+03   -0.59460E+00   -0.49382E-01 42040   0.259E+00    0.151E+01
DAV:  28    -0.229254875137E+03   -0.64510E-01   -0.13572E-01 37744   0.133E+00    0.141E+01
DAV:  29    -0.229244747028E+03    0.10128E-01   -0.17076E-02 39400   0.550E-01    0.141E+01
DAV:  30    -0.229374685005E+03   -0.12994E+00   -0.31145E-02 44464   0.849E-01    0.133E+01
DAV:  31    -0.229863707441E+03   -0.48902E+00   -0.38682E-01 42584   0.208E+00    0.104E+01
DAV:  32    -0.230292091656E+03   -0.42838E+00   -0.28763E-01 42608   0.248E+00    0.937E+00
DAV:  33    -0.230436976770E+03   -0.14489E+00   -0.25315E-01 40480   0.234E+00    0.822E+00
DAV:  34    -0.230806646626E+03   -0.36967E+00   -0.28753E-01 41864   0.234E+00    0.846E+00
DAV:  35    -0.231065656356E+03   -0.25901E+00   -0.19180E-01 40184   0.204E+00    0.793E+00
DAV:  36    -0.231222638548E+03   -0.15698E+00   -0.91570E-02 40176   0.203E+00    0.925E+00
DAV:  37    -0.231313318098E+03   -0.90680E-01   -0.66540E-02 40224   0.127E+00    0.904E+00
DAV:  38    -0.231381340873E+03   -0.68023E-01   -0.10257E-01 41168   0.161E+00    0.812E+00
DAV:  39    -0.231500793634E+03   -0.11945E+00   -0.23117E-01 40336   0.219E+00    0.616E+00
DAV:  40    -0.231552620099E+03   -0.51826E-01   -0.77982E-02 40568   0.168E+00    0.607E+00
DAV:  41    -0.231598572062E+03   -0.45952E-01   -0.47003E-02 41376   0.103E+00    0.616E+00
DAV:  42    -0.231595169479E+03    0.34026E-02   -0.10298E-02 42248   0.402E-01    0.599E+00
DAV:  43    -0.231590782116E+03    0.43874E-02   -0.11847E-03 35728   0.103E-01    0.601E+00
DAV:  44    -0.231581523097E+03    0.92590E-02   -0.16207E-02 43856   0.411E-01    0.615E+00
DAV:  45    -0.231555887497E+03    0.25636E-01   -0.11793E-02 46288   0.386E-01    0.620E+00
DAV:  46    -0.231553098311E+03    0.27892E-02   -0.25502E-03 43688   0.152E-01    0.624E+00
DAV:  47    -0.231552579080E+03    0.51923E-03   -0.14023E-03 41392   0.112E-01    0.632E+00
DAV:  48    -0.231558383035E+03   -0.58040E-02   -0.26412E-03 41968   0.138E-01    0.627E+00
DAV:  49    -0.231560738177E+03   -0.23551E-02   -0.12309E-03 42928   0.111E-01    0.629E+00
DAV:  50    -0.231561238467E+03   -0.50029E-03   -0.49544E-03 43208   0.209E-01    0.642E+00
DAV:  51    -0.231630320330E+03   -0.69082E-01   -0.28177E-01 43856   0.212E+00    0.104E+01
DAV:  52    -0.231581457721E+03    0.48863E-01   -0.10330E-01 42416   0.136E+00    0.103E+01
DAV:  53    -0.231608679834E+03   -0.27222E-01   -0.37642E-02 36016   0.498E-01    0.124E+01
DAV:  54    -0.231584173400E+03    0.24506E-01   -0.15049E-02 35896   0.465E-01    0.135E+01
DAV:  55    -0.231645748096E+03   -0.61575E-01   -0.25791E-02 41888   0.666E-01    0.152E+01
DAV:  56    -0.231627372168E+03    0.18376E-01   -0.16074E-01 44160   0.241E+00    0.137E+01
DAV:  57    -0.231691429733E+03   -0.64058E-01   -0.73992E-01 41984   0.101E+00    0.137E+01
DAV:  58    -0.231632099195E+03    0.59331E-01   -0.23279E+00 36480   0.121E+00    0.109E+01
DAV:  59    -0.231699495244E+03   -0.67396E-01   -0.26677E-02 37144   0.736E-01    0.112E+01
DAV:  60    -0.231711929199E+03   -0.12434E-01   -0.10386E-02 43216   0.416E-01    0.120E+01
DAV:  61    -0.231673942658E+03    0.37987E-01   -0.17221E-01 45384   0.214E+00    0.106E+01
DAV:  62    -0.231676798299E+03   -0.28556E-02   -0.14609E-01 43760   0.180E+00    0.771E+00
DAV:  63    -0.231679854746E+03   -0.30564E-02   -0.12687E-01 44408   0.175E+00    0.653E+00
DAV:  64    -0.231650056709E+03    0.29798E-01   -0.11050E-01 45112   0.177E+00    0.474E+00
DAV:  65    -0.231629515669E+03    0.20541E-01   -0.50189E-02 44568   0.810E-01    0.469E+00
DAV:  66    -0.231704925453E+03   -0.75410E-01   -0.24090E-01 44512   0.128E+00    0.845E+00
DAV:  67    -0.231706067739E+03   -0.11423E-02   -0.16871E-02 34760   0.584E-01    0.886E+00
DAV:  68    -0.231701506048E+03    0.45617E-02   -0.16441E-03 40792   0.154E-01    0.895E+00
DAV:  69    -0.231699984756E+03    0.15213E-02   -0.80694E-04 42928   0.128E-01    0.892E+00
DAV:  70    -0.231735351361E+03   -0.35367E-01   -0.12008E-02 44744   0.454E-01    0.891E+00
DAV:  71    -0.231668037618E+03    0.67314E-01   -0.53091E-02 46968   0.134E+00    0.825E+00
DAV:  72    -0.231690946996E+03   -0.22909E-01   -0.58461E-02 44592   0.991E-01    0.784E+00
DAV:  73    -0.231665222549E+03    0.25724E-01   -0.28520E-02 46816   0.893E-01    0.671E+00
DAV:  74    -0.231665468966E+03   -0.24642E-03   -0.95955E-03 41776   0.332E-01    0.592E+00
DAV:  75    -0.231649785581E+03    0.15683E-01   -0.79542E-03 45648   0.456E-01    0.393E+00
DAV:  76    -0.231726132887E+03   -0.76347E-01   -0.12070E-01 45112   0.154E+00    0.520E+00
DAV:  77    -0.231758673446E+03   -0.32541E-01   -0.38481E-02 41912   0.120E+00    0.510E+00
DAV:  78    -0.231743379429E+03    0.15294E-01   -0.18886E-02 43616   0.592E-01    0.454E+00
DAV:  79    -0.231708726685E+03    0.34653E-01   -0.40632E-02 46304   0.785E-01    0.402E+00
DAV:  80    -0.231686760064E+03    0.21967E-01   -0.23942E-02 44152   0.576E-01    0.410E+00
DAV:  81    -0.231685948286E+03    0.81178E-03   -0.12155E-02 43304   0.437E-01    0.418E+00
DAV:  82    -0.231684167809E+03    0.17805E-02   -0.19153E-03 35696   0.116E-01    0.428E+00
DAV:  83    -0.231678191851E+03    0.59760E-02   -0.34834E-03 44264   0.332E-01    0.413E+00
DAV:  84    -0.231669748534E+03    0.84433E-02   -0.99863E-03 46248   0.367E-01    0.363E+00
DAV:  85    -0.231655088060E+03    0.14660E-01   -0.71992E-03 45448   0.463E-01    0.309E+00
DAV:  86    -0.231642413963E+03    0.12674E-01   -0.95884E-03 45792   0.440E-01    0.242E+00
DAV:  87    -0.231645769809E+03   -0.33558E-02   -0.35443E-03 34576   0.257E-01    0.242E+00
DAV:  88    -0.231645479716E+03    0.29009E-03   -0.11323E-03 39792   0.144E-01    0.286E+00
DAV:  89    -0.231641728980E+03    0.37507E-02   -0.27141E-03 42392   0.251E-01    0.249E+00
DAV:  90    -0.231640967989E+03    0.76099E-03   -0.28640E-03 44336   0.166E-01    0.223E+00
DAV:  91    -0.231638777470E+03    0.21905E-02   -0.27262E-02 44048   0.392E-01    0.220E+00
DAV:  92    -0.231634325505E+03    0.44520E-02   -0.39795E-03 38920   0.342E-01    0.221E+00
DAV:  93    -0.231627700710E+03    0.66248E-02   -0.29888E-03 44480   0.198E-01    0.230E+00
DAV:  94    -0.231620946956E+03    0.67538E-02   -0.13941E-03 44120   0.115E-01    0.239E+00
DAV:  95    -0.231612312428E+03    0.86345E-02   -0.24155E-03 44728   0.120E-01    0.259E+00
DAV:  96    -0.231609270075E+03    0.30424E-02   -0.12933E-03 41672   0.137E-01    0.264E+00
DAV:  97    -0.231607387722E+03    0.18824E-02   -0.34393E-04 38216   0.597E-02    0.270E+00
DAV:  98    -0.231607902846E+03   -0.51512E-03   -0.49982E-05 29240   0.255E-02    0.270E+00
DAV:  99    -0.231603252728E+03    0.46501E-02   -0.26786E-04 40800   0.743E-02    0.279E+00
DAV: 100    -0.231601265936E+03    0.19868E-02   -0.32613E-04 43128   0.602E-02    0.290E+00
DAV: 101    -0.231652537815E+03   -0.51272E-01   -0.47394E-01 44072   0.158E+00    0.324E+00
DAV: 102    -0.231663555068E+03   -0.11017E-01   -0.41967E-02 35128   0.531E-01    0.289E+00
DAV: 103    -0.231664405349E+03   -0.85028E-03   -0.34652E-03 43008   0.170E-01    0.268E+00
DAV: 104    -0.231664335492E+03    0.69857E-04   -0.41222E-03 44008   0.215E-01    0.238E+00
DAV: 105    -0.231666650971E+03   -0.23155E-02   -0.10677E-01 44856   0.474E-01    0.478E+00
DAV: 106    -0.231642519187E+03    0.24132E-01   -0.18007E+00 40304   0.906E-01    0.190E+00
DAV: 107    -0.231644380228E+03   -0.18610E-02   -0.33843E-02 42096   0.611E-01    0.269E+00
DAV: 108    -0.231641871110E+03    0.25091E-02   -0.38809E-03 41136   0.248E-01    0.260E+00
DAV: 109    -0.231627737403E+03    0.14134E-01   -0.19023E-03 45728   0.179E-01    0.274E+00
DAV: 110    -0.231620888508E+03    0.68489E-02   -0.13298E-03 42024   0.102E-01    0.288E+00
DAV: 111    -0.231609562732E+03    0.11326E-01   -0.10410E-01 44520   0.698E-01    0.482E+00
DAV: 112    -0.231605800389E+03    0.37623E-02   -0.15587E-02 37416   0.356E-01    0.498E+00
DAV: 113    -0.231604335931E+03    0.14645E-02   -0.18147E-03 34456   0.149E-01    0.506E+00
DAV: 114    -0.231603053034E+03    0.12829E-02   -0.19456E-04 34456   0.404E-02    0.513E+00
DAV: 115    -0.231598340343E+03    0.47127E-02   -0.73713E-04 43752   0.140E-01    0.488E+00
DAV: 116    -0.231575797109E+03    0.22543E-01   -0.41732E-03 45752   0.363E-01    0.450E+00
DAV: 117    -0.231574513275E+03    0.12838E-02   -0.98996E-03 41360   0.253E-01    0.504E+00
DAV: 118    -0.231575557617E+03   -0.10443E-02   -0.15667E-03 33840   0.152E-01    0.503E+00
DAV: 119    -0.231575789403E+03   -0.23179E-03   -0.19185E-04 38128   0.488E-02    0.505E+00
DAV: 120    -0.231578811794E+03   -0.30224E-02   -0.18375E-04 40080   0.659E-02    0.501E+00
DAV: 121    -0.231610369687E+03   -0.31558E-01   -0.19622E-02 46856   0.428E-01    0.451E+00
DAV: 122    -0.231632506498E+03   -0.22137E-01   -0.25825E-02 40904   0.357E-01    0.567E+00
DAV: 123    -0.231632401287E+03    0.10521E-03   -0.14422E-03 37776   0.136E-01    0.584E+00
DAV: 124    -0.231619913553E+03    0.12488E-01   -0.74825E-04 40768   0.123E-01    0.584E+00
DAV: 125    -0.231615503588E+03    0.44100E-02   -0.45810E-04 38176   0.498E-02    0.587E+00
DAV: 126    -0.231616846271E+03   -0.13427E-02   -0.36782E-04 38864   0.729E-02    0.585E+00
DAV: 127    -0.231629734506E+03   -0.12888E-01   -0.64742E-03 43944   0.176E-01    0.553E+00
DAV: 128    -0.231640737856E+03   -0.11003E-01   -0.11752E-02 45184   0.186E-01    0.505E+00
DAV: 129    -0.231657073753E+03   -0.16336E-01   -0.32138E-02 44904   0.277E-01    0.430E+00
DAV: 130    -0.231681354493E+03   -0.24281E-01   -0.29584E-02 43960   0.348E-01    0.402E+00
DAV: 131    -0.231669359874E+03    0.11995E-01   -0.34647E-02 40952   0.543E-01    0.502E+00
DAV: 132    -0.231670549219E+03   -0.11893E-02   -0.31274E-03 34752   0.198E-01    0.533E+00
DAV: 133    -0.231664418517E+03    0.61307E-02   -0.77197E-04 36816   0.939E-02    0.555E+00
DAV: 134    -0.231661507744E+03    0.29108E-02   -0.40280E-04 34016   0.600E-02    0.566E+00
DAV: 135    -0.231664000337E+03   -0.24926E-02   -0.63464E-04 38872   0.712E-02    0.558E+00
DAV: 136    -0.231689235472E+03   -0.25235E-01   -0.22437E-02 41696   0.430E-01    0.612E+00
DAV: 137    -0.231696432681E+03   -0.71972E-02   -0.39296E-02 40696   0.255E-01    0.619E+00
DAV: 138    -0.231702443259E+03   -0.60106E-02   -0.47684E-03 33144   0.147E-01    0.633E+00
DAV: 139    -0.231693504594E+03    0.89387E-02   -0.61562E-02 38432   0.151E-01    0.584E+00
DAV: 140    -0.231696790848E+03   -0.32863E-02   -0.40700E-03 34200   0.152E-01    0.583E+00
DAV: 141    -0.231677904362E+03    0.18886E-01   -0.94893E-02 44448   0.332E-01    0.542E+00
DAV: 142    -0.231692573808E+03   -0.14669E-01   -0.13561E-02 38968   0.300E-01    0.588E+00
DAV: 143    -0.231696880465E+03   -0.43067E-02   -0.96872E-03 39824   0.974E-02    0.602E+00
DAV: 144    -0.231695902958E+03    0.97751E-03   -0.19452E-03 37520   0.856E-02    0.591E+00
DAV: 145    -0.231714835001E+03   -0.18932E-01   -0.53694E-02 41960   0.174E-01    0.720E+00
DAV: 146    -0.231913128617E+03   -0.19829E+00   -0.55511E-01 42432   0.449E-01    0.115E+01
DAV: 147    -0.231849259707E+03    0.63869E-01   -0.11606E-02 33360   0.426E-01    0.114E+01
DAV: 148    -0.231832764485E+03    0.16495E-01   -0.11574E-03 41464   0.118E-01    0.114E+01
DAV: 149    -0.231781726060E+03    0.51038E-01   -0.33068E-03 42640   0.996E-02    0.112E+01
DAV: 150    -0.231733678676E+03    0.48047E-01   -0.92306E-03 44944   0.198E-01    0.106E+01
DAV: 151    -0.231798998699E+03   -0.65320E-01   -0.22705E-02 43992   0.304E-01    0.112E+01
DAV: 152    -0.231725746543E+03    0.73252E-01   -0.14345E-02 41248   0.205E-01    0.101E+01
DAV: 153    -0.231727956647E+03   -0.22101E-02   -0.80446E-04 39832   0.844E-02    0.988E+00
DAV: 154    -0.231715588339E+03    0.12368E-01   -0.30967E-03 35408   0.409E-02    0.895E+00
DAV: 155    -0.231670497684E+03    0.45091E-01   -0.45102E-01 42216   0.217E-01    0.410E+00
DAV: 156    -0.231665407926E+03    0.50898E-02   -0.28841E-01 41632   0.761E-01    0.485E+00
DAV: 157    -0.231637150682E+03    0.28257E-01   -0.87658E-02 43536   0.498E-01    0.589E+00
DAV: 158    -0.231650351861E+03   -0.13201E-01   -0.40459E-02 34920   0.412E-01    0.540E+00
DAV: 159    -0.231664684599E+03   -0.14333E-01   -0.87342E-03 43624   0.236E-01    0.533E+00
DAV: 160    -0.231663925519E+03    0.75908E-03   -0.17921E-03 34416   0.113E-01    0.546E+00
DAV: 161    -0.231636683144E+03    0.27242E-01   -0.41668E-02 42856   0.356E-01    0.602E+00
DAV: 162    -0.231646863197E+03   -0.10180E-01   -0.98779E-03 34400   0.277E-01    0.556E+00
DAV: 163    -0.231646486114E+03    0.37708E-03   -0.45025E-04 34848   0.624E-02    0.552E+00
DAV: 164    -0.231644681075E+03    0.18050E-02   -0.55129E-04 35760   0.477E-02    0.562E+00
DAV: 165    -0.231643970912E+03    0.71016E-03   -0.10336E-04 29976   0.232E-02    0.565E+00
DAV: 166    -0.231633702238E+03    0.10269E-01   -0.27944E-02 45120   0.257E-01    0.655E+00
DAV: 167    -0.231633549681E+03    0.15256E-03   -0.40985E-03 35960   0.220E-01    0.626E+00
DAV: 168    -0.231637567010E+03   -0.40173E-02   -0.12367E-03 40760   0.743E-02    0.615E+00
DAV: 169    -0.231634788881E+03    0.27781E-02   -0.38363E-04 39424   0.742E-02    0.619E+00
DAV: 170    -0.231630790990E+03    0.39979E-02   -0.37112E-04 39256   0.433E-02    0.625E+00
DAV: 171    -0.231621387964E+03    0.94030E-02   -0.19102E-02 44072   0.238E-01    0.710E+00
DAV: 172    -0.231622743194E+03   -0.13552E-02   -0.18839E-03 35480   0.162E-01    0.701E+00
DAV: 173    -0.231626051209E+03   -0.33080E-02   -0.71331E-04 39272   0.598E-02    0.696E+00
DAV: 174    -0.231636358746E+03   -0.10308E-01   -0.66427E-03 45888   0.169E-01    0.656E+00
DAV: 175    -0.231650401869E+03   -0.14043E-01   -0.48833E-03 43912   0.151E-01    0.628E+00
DAV: 176    -0.231661718340E+03   -0.11316E-01   -0.13899E-03 45040   0.169E-01    0.624E+00
DAV: 177    -0.231681904357E+03   -0.20186E-01   -0.35646E-02 46544   0.402E-01    0.521E+00
DAV: 178    -0.231705783870E+03   -0.23880E-01   -0.57551E-02 44936   0.347E-01    0.476E+00
DAV: 179    -0.231772548151E+03   -0.66764E-01   -0.22722E-01 39776   0.281E-01    0.970E+00
DAV: 180    -0.231759484290E+03    0.13064E-01   -0.12732E-02 33200   0.441E-01    0.103E+01
DAV: 181    -0.231981657027E+03   -0.22217E+00   -0.13372E-01 43984   0.386E-01    0.117E+01
DAV: 182    -0.232153893435E+03   -0.17224E+00   -0.52199E-02 43448   0.320E-01    0.120E+01
DAV: 183    -0.232128678517E+03    0.25215E-01   -0.22998E-03 34208   0.150E-01    0.120E+01
DAV: 184    -0.232204575091E+03   -0.75897E-01   -0.56327E-03 41608   0.101E-01    0.122E+01
DAV: 185    -0.232305093940E+03   -0.10052E+00   -0.79038E-03 45472   0.193E-01    0.124E+01
DAV: 186    -0.232418473336E+03   -0.11338E+00   -0.78955E-03 44928   0.208E-01    0.127E+01
DAV: 187    -0.232435425764E+03   -0.16952E-01   -0.17550E-03 37912   0.115E-01    0.128E+01
DAV: 188    -0.232424222284E+03    0.11203E-01   -0.14085E-04 33008   0.393E-02    0.128E+01
DAV: 189    -0.232473019294E+03   -0.48797E-01   -0.10074E-03 41232   0.728E-02    0.129E+01
DAV: 190    -0.232548104381E+03   -0.75085E-01   -0.22785E-03 41736   0.101E-01    0.131E+01
DAV: 191    -0.233141206797E+03   -0.59310E+00   -0.15103E-01 44088   0.723E-01    0.174E+01
DAV: 192    -0.233095102862E+03    0.46104E-01   -0.15634E-02 35504   0.406E-01    0.175E+01
DAV: 193    -0.233096815419E+03   -0.17126E-02   -0.14176E-03 42632   0.158E-01    0.179E+01
DAV: 194    -0.233127939190E+03   -0.31124E-01   -0.59746E-04 39704   0.963E-02    0.182E+01
DAV: 195    -0.233125174939E+03    0.27643E-02   -0.14279E-04 35808   0.399E-02    0.183E+01
DAV: 196    -0.233186175808E+03   -0.61001E-01   -0.48011E-03 44696   0.190E-01    0.185E+01
DAV: 197    -0.233285424769E+03   -0.99249E-01   -0.75231E-03 45024   0.175E-01    0.194E+01
DAV: 198    -0.233312375182E+03   -0.26950E-01   -0.82350E-04 41776   0.124E-01    0.196E+01
DAV: 199    -0.233250558402E+03    0.61817E-01   -0.16073E-03 41896   0.761E-02    0.191E+01
DAV: 200    -0.233256793147E+03   -0.62347E-02   -0.16979E-04 32280   0.382E-02
   1 F= -.23325679E+03 E0= -.23324326E+03  d E =-.233257E+03  mag=     9.3700
       N       E                     dE             d eps       ncg     rms          rms(c)
DAV:   1    -0.233097103852E+03    0.15345E+00   -0.24855E-02 45848   0.491E-01    0.184E+01
DAV:   2    -0.248237864687E+03   -0.15141E+02   -0.11656E+02 55792   0.320E+01    0.613E+01
DAV:   3    -0.239890256073E+03    0.83476E+01   -0.22887E+01 43224   0.336E+01    0.446E+01
DAV:   4    -0.236217473582E+03    0.36728E+01   -0.14453E+01 41928   0.269E+01    0.283E+01
DAV:   5    -0.234893970339E+03    0.13235E+01   -0.13577E+01 43176   0.182E+01    0.307E+01
DAV:   6    -0.233252592072E+03    0.16414E+01   -0.14496E+01 41496   0.109E+01    0.146E+01
DAV:   7    -0.233246140683E+03    0.64514E-02   -0.57250E+00 43040   0.994E+00    0.199E+01
DAV:   8    -0.232281815669E+03    0.96433E+00   -0.13642E+00 42240   0.743E+00    0.103E+01
DAV:   9    -0.232272030297E+03    0.97854E-02   -0.10476E+00 44360   0.473E+00    0.118E+01
DAV:  10    -0.232063961174E+03    0.20807E+00   -0.20632E+00 42720   0.477E+00    0.889E+00
DAV:  11    -0.232028649473E+03    0.35312E-01   -0.11072E+00 43608   0.330E+00    0.865E+00
DAV:  12    -0.231912056764E+03    0.11659E+00   -0.19606E-01 43720   0.271E+00    0.715E+00
DAV:  13    -0.231840291429E+03    0.71765E-01   -0.28501E-01 44904   0.292E+00    0.649E+00
DAV:  14    -0.231782468006E+03    0.57823E-01   -0.19403E-01 44720   0.210E+00    0.510E+00
DAV:  15    -0.231761477322E+03    0.20991E-01   -0.38413E-02 42992   0.150E+00    0.414E+00
DAV:  16    -0.231750912434E+03    0.10565E-01   -0.39344E-02 44344   0.124E+00    0.372E+00
DAV:  17    -0.231734648546E+03    0.16264E-01   -0.32712E-02 44624   0.112E+00    0.314E+00
DAV:  18    -0.231732483042E+03    0.21655E-02   -0.11242E-02 43800   0.662E-01    0.316E+00
DAV:  19    -0.231729973874E+03    0.25092E-02   -0.41824E-03 44344   0.453E-01    0.305E+00
DAV:  20    -0.231726352099E+03    0.36218E-02   -0.47497E-03 44736   0.523E-01    0.253E+00
DAV:  21    -0.231706656625E+03    0.19695E-01   -0.29146E-02 49448   0.109E+00    0.388E+00
DAV:  22    -0.231694649778E+03    0.12007E-01   -0.34670E-02 43640   0.117E+00    0.437E+00
DAV:  23    -0.231684795564E+03    0.98542E-02   -0.12525E-02 43976   0.607E-01    0.387E+00
DAV:  24    -0.231677293847E+03    0.75017E-02   -0.40193E-03 46472   0.286E-01    0.292E+00
DAV:  25    -0.231672585064E+03    0.47088E-02   -0.54223E-03 44480   0.449E-01    0.207E+00
DAV:  26    -0.231673510926E+03   -0.92586E-03   -0.61111E-03 43448   0.484E-01    0.146E+00
DAV:  27    -0.231675978760E+03   -0.24678E-02   -0.17217E-03 38592   0.190E-01    0.123E+00
DAV:  28    -0.231675699166E+03    0.27959E-03   -0.19035E-03 44648   0.250E-01    0.136E+00
DAV:  29    -0.231676168935E+03   -0.46977E-03   -0.74463E-04 36248   0.127E-01    0.133E+00
DAV:  30    -0.231675433014E+03    0.73592E-03   -0.28639E-03 46080   0.304E-01    0.994E-01
DAV:  31    -0.231675407468E+03    0.25546E-04   -0.61609E-03 45248   0.294E-01    0.119E+00
DAV:  32    -0.231674260731E+03    0.11467E-02   -0.22021E-03 40296   0.191E-01    0.736E-01
DAV:  33    -0.231675137507E+03   -0.87678E-03   -0.12319E-03 45128   0.162E-01    0.499E-01
DAV:  34    -0.231675741787E+03   -0.60428E-03   -0.11574E-03 44272   0.190E-01    0.301E-01
DAV:  35    -0.231675790312E+03   -0.48525E-04   -0.75918E-04 46072   0.141E-01    0.247E-01
DAV:  36    -0.231675685103E+03    0.10521E-03   -0.36492E-04 42992   0.127E-01    0.190E-01
DAV:  37    -0.231675691413E+03   -0.63104E-05   -0.16287E-04 35904   0.724E-02    0.276E-01
DAV:  38    -0.231675642624E+03    0.48789E-04   -0.92296E-05 34984   0.474E-02    0.147E-01
DAV:  39    -0.231675696279E+03   -0.53655E-04   -0.62429E-05 32856   0.412E-02    0.121E-01
DAV:  40    -0.231675689795E+03    0.64841E-05   -0.54270E-05 28792   0.383E-02
   2 F= -.23167569E+03 E0= -.23166012E+03  d E =0.158110E+01  mag=     8.9477
       N       E                     dE             d eps       ncg     rms          rms(c)
DAV:   1    -0.231690299314E+03   -0.14603E-01   -0.12080E-01 35632   0.192E+00    0.147E-01
DAV:   2    -0.231692337520E+03   -0.20382E-02   -0.20161E-02 35312   0.387E-01    0.280E-01
DAV:   3    -0.231692302569E+03    0.34950E-04   -0.11492E-03 41344   0.220E-01    0.229E-01
DAV:   4    -0.231692432884E+03   -0.13031E-03   -0.65354E-04 35376   0.165E-01    0.414E-01
DAV:   5    -0.231692161975E+03    0.27091E-03   -0.14251E-04 34112   0.871E-02    0.228E-01
DAV:   6    -0.231692196193E+03   -0.34218E-04   -0.19694E-04 28760   0.787E-02    0.188E-01
DAV:   7    -0.231692192809E+03    0.33836E-05   -0.46567E-05 26080   0.496E-02
   3 F= -.23169219E+03 E0= -.23167658E+03  d E =-.165030E-01  mag=     8.9313
       N       E                     dE             d eps       ncg     rms          rms(c)
DAV:   1    -0.231724097892E+03   -0.31902E-01   -0.12320E+00 35232   0.601E+00    0.440E-01
DAV:   2    -0.231745532404E+03   -0.21435E-01   -0.20912E-01 35344   0.127E+00    0.128E+00
DAV:   3    -0.231743341581E+03    0.21908E-02   -0.23745E-02 40808   0.815E-01    0.768E-01
DAV:   4    -0.231744748166E+03   -0.14066E-02   -0.38179E-03 37976   0.420E-01    0.126E+00
DAV:   5    -0.231742000136E+03    0.27480E-02   -0.22052E-03 36816   0.341E-01    0.275E-01
DAV:   6    -0.231742957728E+03   -0.95759E-03   -0.41975E-04 39448   0.133E-01    0.231E-01
DAV:   7    -0.231743132308E+03   -0.17458E-03   -0.53490E-04 40520   0.167E-01    0.290E-01
DAV:   8    -0.231743148671E+03   -0.16363E-04   -0.34223E-04 42936   0.127E-01    0.369E-01
DAV:   9    -0.231743031939E+03    0.11673E-03   -0.28968E-04 39344   0.117E-01    0.320E-01
DAV:  10    -0.231742941864E+03    0.90075E-04   -0.17678E-04 35816   0.878E-02    0.150E-01
DAV:  11    -0.231743008042E+03   -0.66178E-04   -0.77704E-05 29384   0.612E-02    0.108E-01
DAV:  12    -0.231743027977E+03   -0.19935E-04   -0.15092E-05 20776   0.183E-02    0.101E-01
DAV:  13    -0.231743029825E+03   -0.18479E-05   -0.51490E-06 19696   0.149E-02
   4 F= -.23174303E+03 E0= -.23172748E+03  d E =-.508370E-01  mag=     8.9248
       N       E                     dE             d eps       ncg     rms          rms(c)
DAV:   1    -0.231771900348E+03   -0.28872E-01   -0.35361E+00 34824   0.979E+00    0.691E-01
DAV:   2    -0.231825896944E+03   -0.53997E-01   -0.53605E-01 35080   0.197E+00    0.181E+00
DAV:   3    -0.231824051756E+03    0.18452E-02   -0.35658E-02 41024   0.110E+00    0.161E+00
DAV:   4    -0.231825001095E+03   -0.94934E-03   -0.13192E-02 38416   0.741E-01    0.169E+00
DAV:   5    -0.231821134864E+03    0.38662E-02   -0.94000E-03 37128   0.587E-01    0.301E-01
DAV:   6    -0.231822442045E+03   -0.13072E-02   -0.17208E-03 40920   0.269E-01    0.463E-01
DAV:   7    -0.231822141249E+03    0.30080E-03   -0.15496E-03 41192   0.270E-01    0.252E-01
DAV:   8    -0.231822310372E+03   -0.16912E-03   -0.10518E-03 44144   0.227E-01    0.289E-01
DAV:   9    -0.231822215815E+03    0.94557E-04   -0.59122E-04 40792   0.160E-01    0.193E-01
DAV:  10    -0.231822217467E+03   -0.16517E-05   -0.81791E-05 28120   0.329E-02
   5 F= -.23182222E+03 E0= -.23180669E+03  d E =-.791876E-01  mag=     8.9291
       N       E                     dE             d eps       ncg     rms          rms(c)
DAV:   1    -0.231786737195E+03    0.35479E-01   -0.12309E+01 34536   0.173E+01    0.125E+00
DAV:   2    -0.231955477200E+03   -0.16874E+00   -0.16819E+00 35048   0.352E+00    0.321E+00
DAV:   3    -0.231950251777E+03    0.52254E-02   -0.11109E-01 40800   0.193E+00    0.275E+00
DAV:   4    -0.231953537759E+03   -0.32860E-02   -0.40500E-02 38944   0.134E+00    0.314E+00
DAV:   5    -0.231941537183E+03    0.12001E-01   -0.26913E-02 37920   0.987E-01    0.827E-01
DAV:   6    -0.231943776054E+03   -0.22389E-02   -0.18946E-03 43424   0.233E-01    0.687E-01
DAV:   7    -0.231944092742E+03   -0.31669E-03   -0.12040E-03 42456   0.209E-01    0.709E-01
DAV:   8    -0.231943644545E+03    0.44820E-03   -0.14087E-03 43976   0.252E-01    0.684E-01
DAV:   9    -0.231942972085E+03    0.67246E-03   -0.27833E-03 43032   0.465E-01    0.594E-01
DAV:  10    -0.231942919358E+03    0.52726E-04   -0.66423E-03 43472   0.564E-01    0.839E-01
DAV:  11    -0.231943373914E+03   -0.45456E-03   -0.68264E-03 40872   0.461E-01    0.814E-01
DAV:  12    -0.231943537357E+03   -0.16344E-03   -0.28462E-03 41472   0.284E-01    0.723E-01
DAV:  13    -0.231943463437E+03    0.73920E-04   -0.75304E-04 43224   0.164E-01    0.715E-01
DAV:  14    -0.231943411589E+03    0.51848E-04   -0.40989E-04 43880   0.133E-01    0.659E-01
DAV:  15    -0.231943907843E+03   -0.49625E-03   -0.10783E-03 45032   0.154E-01    0.590E-01
DAV:  16    -0.231944299942E+03   -0.39210E-03   -0.13562E-03 44288   0.205E-01    0.706E-01
DAV:  17    -0.231943764979E+03    0.53496E-03   -0.42922E-04 42496   0.124E-01    0.535E-01
DAV:  18    -0.231943769889E+03   -0.49098E-05   -0.33079E-04 43448   0.125E-01    0.332E-01
DAV:  19    -0.231943958423E+03   -0.18853E-03   -0.39542E-04 41624   0.139E-01    0.197E-01
DAV:  20    -0.231944099595E+03   -0.14117E-03   -0.22624E-04 42032   0.101E-01    0.191E-01
DAV:  21    -0.231944107080E+03   -0.74850E-05   -0.15851E-04 38808   0.108E-01    0.171E-01
DAV:  22    -0.231944092740E+03    0.14340E-04   -0.58223E-05 32560   0.580E-02    0.136E-01
DAV:  23    -0.231944088953E+03    0.37870E-05   -0.23730E-05 21912   0.309E-02
   6 F= -.23194409E+03 E0= -.23192860E+03  d E =-.121871E+00  mag=     8.9418
       N       E                     dE             d eps       ncg     rms          rms(c)
DAV:   1    -0.231750687570E+03    0.19341E+00   -0.28598E+01 34824   0.244E+01    0.182E+00
DAV:   2    -0.232109547867E+03   -0.35886E+00   -0.33802E+00 35024   0.520E+00    0.642E+00
DAV:   3    -0.232068323197E+03    0.41225E-01   -0.23060E-01 40216   0.279E+00    0.372E+00
DAV:   4    -0.232082938815E+03   -0.14616E-01   -0.11831E-01 36776   0.218E+00    0.375E+00
DAV:   5    -0.232062363764E+03    0.20575E-01   -0.62651E-02 36912   0.155E+00    0.110E+00
DAV:   6    -0.232067157424E+03   -0.47937E-02   -0.13701E-02 41096   0.730E-01    0.124E+00
DAV:   7    -0.232065390504E+03    0.17669E-02   -0.10283E-02 41832   0.654E-01    0.877E-01
DAV:   8    -0.232068249214E+03   -0.28587E-02   -0.50662E-03 41560   0.540E-01    0.176E+00
DAV:   9    -0.232066785416E+03    0.14638E-02   -0.27465E-03 41232   0.363E-01    0.202E+00
DAV:  10    -0.232063291843E+03    0.34936E-02   -0.13366E-03 42968   0.256E-01    0.151E+00
DAV:  11    -0.232062501242E+03    0.79060E-03   -0.33986E-03 42872   0.335E-01    0.575E-01
DAV:  12    -0.232065568811E+03   -0.30676E-02   -0.35648E-03 41848   0.384E-01    0.100E+00
DAV:  13    -0.232065376051E+03    0.19276E-03   -0.24314E-03 39664   0.374E-01    0.101E+00
DAV:  14    -0.232064227037E+03    0.11490E-02   -0.71171E-04 43664   0.165E-01    0.727E-01
DAV:  15    -0.232064340400E+03   -0.11336E-03   -0.48814E-04 43968   0.130E-01    0.387E-01
DAV:  16    -0.232064921418E+03   -0.58102E-03   -0.14240E-04 33088   0.539E-02    0.287E-01
DAV:  17    -0.232065163613E+03   -0.24219E-03   -0.19057E-04 38480   0.770E-02    0.366E-01
DAV:  18    -0.232065291761E+03   -0.12815E-03   -0.21623E-04 39424   0.858E-02    0.558E-01
DAV:  19    -0.232065146377E+03    0.14538E-03   -0.64354E-05 31784   0.367E-02    0.630E-01
DAV:  20    -0.232065146097E+03    0.28034E-06   -0.14304E-04 39488   0.706E-02    0.829E-01
DAV:  21    -0.232064814349E+03    0.33175E-03   -0.46844E-04 42608   0.111E-01    0.805E-01
DAV:  22    -0.232064636690E+03    0.17766E-03   -0.20457E-04 36200   0.859E-02    0.612E-01
DAV:  23    -0.232064756443E+03   -0.11975E-03   -0.12706E-04 38056   0.669E-02    0.324E-01
DAV:  24    -0.232065069966E+03   -0.31352E-03   -0.10351E-04 37744   0.561E-02    0.124E-01
DAV:  25    -0.232065242999E+03   -0.17303E-03   -0.62820E-05 30496   0.519E-02    0.911E-02
DAV:  26    -0.232065266560E+03   -0.23561E-04   -0.22031E-05 25280   0.286E-02    0.663E-02
DAV:  27    -0.232065266038E+03    0.52250E-06   -0.12995E-05 20168   0.192E-02
   7 F= -.23206527E+03 E0= -.23205002E+03  d E =-.121177E+00  mag=     8.9733
       N       E                     dE             d eps       ncg     rms          rms(c)
DAV:   1    -0.231652278567E+03    0.41299E+00   -0.54360E+01 33520   0.305E+01    0.241E+00
DAV:   2    -0.232233536010E+03   -0.58126E+00   -0.53607E+00 35296   0.692E+00    0.848E+00
DAV:   3    -0.232152882283E+03    0.80654E-01   -0.41556E-01 40240   0.397E+00    0.481E+00
DAV:   4    -0.232174045512E+03   -0.21163E-01   -0.17293E-01 36648   0.283E+00    0.513E+00
DAV:   5    -0.232138951003E+03    0.35095E-01   -0.83780E-02 37128   0.195E+00    0.148E+00
DAV:   6    -0.232148077726E+03   -0.91267E-02   -0.24725E-02 40032   0.103E+00    0.174E+00
DAV:   7    -0.232143748524E+03    0.43292E-02   -0.20619E-02 40280   0.896E-01    0.100E+00
DAV:   8    -0.232149599544E+03   -0.58510E-02   -0.99437E-03 41384   0.737E-01    0.223E+00
DAV:   9    -0.232148272214E+03    0.13273E-02   -0.42325E-03 41440   0.444E-01    0.273E+00
DAV:  10    -0.232144744142E+03    0.35281E-02   -0.11609E-03 39360   0.171E-01    0.277E+00
DAV:  11    -0.232145027813E+03   -0.28367E-03   -0.53599E-04 39568   0.110E-01    0.310E+00
DAV:  12    -0.232141868842E+03    0.31590E-02   -0.64191E-04 42256   0.165E-01    0.276E+00
DAV:  13    -0.232137244626E+03    0.46242E-02   -0.72492E-03 44456   0.620E-01    0.732E-01
DAV:  14    -0.232150048165E+03   -0.12804E-01   -0.85245E-03 41056   0.638E-01    0.264E+00
DAV:  15    -0.232141500889E+03    0.85473E-02   -0.67288E-03 37944   0.570E-01    0.197E+00
DAV:  16    -0.232138527988E+03    0.29729E-02   -0.26702E-03 45848   0.338E-01    0.679E-01
DAV:  17    -0.232142758518E+03   -0.42305E-02   -0.14497E-03 37856   0.196E-01    0.333E-01
DAV:  18    -0.232144211690E+03   -0.14532E-02   -0.39298E-04 36912   0.933E-02    0.267E-01
DAV:  19    -0.232144484736E+03   -0.27305E-03   -0.11562E-04 32912   0.433E-02    0.326E-01
DAV:  20    -0.232144575347E+03   -0.90610E-04   -0.49844E-05 29912   0.345E-02    0.398E-01
DAV:  21    -0.232144577118E+03   -0.17709E-05   -0.40518E-05 28264   0.473E-02
   8 F= -.23214458E+03 E0= -.23212964E+03  d E =-.793111E-01  mag=     9.0066
       N       E                     dE             d eps       ncg     rms          rms(c)
DAV:   1    -0.231190970942E+03    0.95360E+00   -0.10708E+02 33384   0.435E+01    0.338E+00
DAV:   2    -0.232269715588E+03   -0.10787E+01   -0.10719E+01 35456   0.963E+00    0.771E+00
DAV:   3    -0.232218537730E+03    0.51178E-01   -0.13378E+00 39408   0.601E+00    0.510E+00
DAV:   4    -0.232246609018E+03   -0.28071E-01   -0.20580E-01 41368   0.312E+00    0.684E+00
DAV:   5    -0.232164383486E+03    0.82226E-01   -0.63655E-02 36992   0.243E+00    0.143E+00
DAV:   6    -0.232182734343E+03   -0.18351E-01   -0.31584E-02 39952   0.121E+00    0.166E+00
DAV:   7    -0.232182144791E+03    0.58955E-03   -0.30420E-02 41936   0.106E+00    0.145E+00
DAV:   8    -0.232183271000E+03   -0.11262E-02   -0.13678E-02 43056   0.729E-01    0.195E+00
DAV:   9    -0.232181804696E+03    0.14663E-02   -0.27145E-03 39936   0.241E-01    0.226E+00
DAV:  10    -0.232191901053E+03   -0.10096E-01   -0.17081E-02 41504   0.655E-01    0.434E+00
DAV:  11    -0.232191931529E+03   -0.30475E-04   -0.13103E-02 40992   0.739E-01    0.494E+00
DAV:  12    -0.232185221157E+03    0.67104E-02   -0.74299E-03 43424   0.433E-01    0.485E+00
DAV:  13    -0.232182353247E+03    0.28679E-02   -0.21805E-03 43632   0.221E-01    0.474E+00
DAV:  14    -0.232176833805E+03    0.55194E-02   -0.21637E-03 44952   0.230E-01    0.425E+00
DAV:  15    -0.232166975508E+03    0.98583E-02   -0.68334E-03 45288   0.623E-01    0.224E+00
DAV:  16    -0.232174745427E+03   -0.77699E-02   -0.13179E-02 42752   0.783E-01    0.178E+00
DAV:  17    -0.232177563140E+03   -0.28177E-02   -0.72293E-03 37240   0.546E-01    0.177E+00
DAV:  18    -0.232173805137E+03    0.37580E-02   -0.24481E-03 44064   0.297E-01    0.112E+00
DAV:  19    -0.232175563725E+03   -0.17586E-02   -0.85737E-04 42832   0.175E-01    0.103E+00
DAV:  20    -0.232177019912E+03   -0.14562E-02   -0.57295E-04 38352   0.127E-01    0.112E+00
DAV:  21    -0.232177622096E+03   -0.60218E-03   -0.94728E-05 33408   0.301E-02    0.113E+00
DAV:  22    -0.232177835876E+03   -0.21378E-03   -0.64443E-06 21200   0.117E-02    0.114E+00
DAV:  23    -0.232179241169E+03   -0.14053E-02   -0.31410E-04 44240   0.115E-01    0.135E+00
DAV:  24    -0.232182409906E+03   -0.31687E-02   -0.15245E-03 42456   0.226E-01    0.203E+00
DAV:  25    -0.232179865660E+03    0.25442E-02   -0.18750E-03 40336   0.242E-01    0.191E+00
DAV:  26    -0.232178211999E+03    0.16537E-02   -0.12063E-03 45048   0.158E-01    0.158E+00
DAV:  27    -0.232178966562E+03   -0.75456E-03   -0.48199E-04 45232   0.124E-01    0.174E+00
DAV:  28    -0.232178791442E+03    0.17512E-03   -0.28670E-04 43736   0.128E-01    0.170E+00
DAV:  29    -0.232178122758E+03    0.66868E-03   -0.16570E-04 42496   0.109E-01    0.128E+00
DAV:  30    -0.232178577495E+03   -0.45474E-03   -0.28505E-04 41168   0.899E-02    0.721E-01
DAV:  31    -0.232179904266E+03   -0.13268E-02   -0.30906E-04 35840   0.725E-02    0.252E-01
DAV:  32    -0.232180922461E+03   -0.10182E-02   -0.20272E-04 33744   0.607E-02    0.119E-01
DAV:  33    -0.232181207176E+03   -0.28471E-03   -0.98255E-05 34112   0.424E-02    0.219E-01
DAV:  34    -0.232181137965E+03    0.69211E-04   -0.54992E-05 31312   0.443E-02    0.521E-02
DAV:  35    -0.232181183072E+03   -0.45107E-04   -0.35021E-05 29144   0.245E-02    0.101E-01
DAV:  36    -0.232181173526E+03    0.95464E-05   -0.12314E-05 22552   0.197E-02
   9 F= -.23218117E+03 E0= -.23216665E+03  d E =-.365964E-01  mag=     9.0538
       N       E                     dE             d eps       ncg     rms          rms(c)
DAV:   1    -0.231563212802E+03    0.61797E+00   -0.57214E+01 33480   0.354E+01    0.248E+00
DAV:   2    -0.232229483029E+03   -0.66627E+00   -0.66711E+00 35288   0.755E+00    0.511E+00
DAV:   3    -0.232216917600E+03    0.12565E-01   -0.63457E-01 39184   0.442E+00    0.356E+00
DAV:   4    -0.232201879311E+03    0.15038E-01   -0.81536E-02 40560   0.204E+00    0.292E+00
DAV:   5    -0.232192081375E+03    0.97979E-02   -0.17980E-02 36856   0.118E+00    0.176E+00
DAV:   6    -0.232196765996E+03   -0.46846E-02   -0.19308E-02 38008   0.981E-01    0.136E+00
DAV:   7    -0.232194913923E+03    0.18521E-02   -0.15584E-02 40816   0.808E-01    0.911E-01
DAV:   8    -0.232196190162E+03   -0.12762E-02   -0.15041E-02 40744   0.929E-01    0.107E+00
DAV:   9    -0.232195865510E+03    0.32465E-03   -0.99095E-03 42312   0.615E-01    0.122E+00
DAV:  10    -0.232195359975E+03    0.50554E-03   -0.27624E-03 41224   0.419E-01    0.147E+00
DAV:  11    -0.232193383385E+03    0.19766E-02   -0.85937E-04 43096   0.194E-01    0.108E+00
DAV:  12    -0.232193085410E+03    0.29797E-03   -0.10844E-03 42616   0.222E-01    0.583E-01
DAV:  13    -0.232194115485E+03   -0.10301E-02   -0.93371E-04 41072   0.220E-01    0.503E-01
DAV:  14    -0.232194746002E+03   -0.63052E-03   -0.90779E-04 39496   0.219E-01    0.603E-01
DAV:  15    -0.232194251060E+03    0.49494E-03   -0.63972E-04 42632   0.160E-01    0.304E-01
DAV:  16    -0.232194453188E+03   -0.20213E-03   -0.40835E-04 40624   0.992E-02    0.206E-01
DAV:  17    -0.232194579657E+03   -0.12647E-03   -0.17549E-04 31832   0.650E-02    0.204E-01
DAV:  18    -0.232194576934E+03    0.27225E-05   -0.30715E-05 23056   0.158E-02
  10 F= -.23219458E+03 E0= -.23218050E+03  d E =-.134034E-01  mag=     9.0697
       N       E                     dE             d eps       ncg     rms          rms(c)
DAV:   1    -0.231888738325E+03    0.30584E+00   -0.30786E+01 33568   0.264E+01    0.176E+00
DAV:   2    -0.232234859276E+03   -0.34612E+00   -0.35624E+00 35232   0.529E+00    0.225E+00
DAV:   3    -0.232259792191E+03   -0.24933E-01   -0.23872E-01 39864   0.280E+00    0.409E+00
DAV:   4    -0.232231005356E+03    0.28787E-01   -0.57352E-02 37256   0.175E+00    0.200E+00
DAV:   5    -0.232229851624E+03    0.11537E-02   -0.11232E-02 39560   0.784E-01    0.981E-01
DAV:   6    -0.232232100120E+03   -0.22485E-02   -0.74494E-03 40736   0.549E-01    0.978E-01
DAV:   7    -0.232231069078E+03    0.10310E-02   -0.33060E-03 44792   0.321E-01    0.794E-01
DAV:   8    -0.232230734815E+03    0.33426E-03   -0.11345E-03 46848   0.187E-01    0.779E-01
DAV:   9    -0.232230454016E+03    0.28080E-03   -0.31906E-04 40688   0.785E-02    0.756E-01
DAV:  10    -0.232230792929E+03   -0.33891E-03   -0.12942E-03 40584   0.238E-01    0.103E+00
DAV:  11    -0.232230528024E+03    0.26490E-03   -0.31622E-04 42432   0.112E-01    0.112E+00
DAV:  12    -0.232231413241E+03   -0.88522E-03   -0.90658E-03 43688   0.523E-01    0.147E+00
DAV:  13    -0.232229098013E+03    0.23152E-02   -0.13600E-02 42984   0.641E-01    0.142E+00
DAV:  14    -0.232228526502E+03    0.57151E-03   -0.60766E-03 44920   0.377E-01    0.106E+00
DAV:  15    -0.232231465944E+03   -0.29394E-02   -0.51547E-03 42872   0.384E-01    0.143E+00
DAV:  16    -0.232231834622E+03   -0.36868E-03   -0.31472E-03 42288   0.279E-01    0.165E+00
DAV:  17    -0.232228870381E+03    0.29642E-02   -0.11947E-03 42752   0.204E-01    0.124E+00
DAV:  18    -0.232228905604E+03   -0.35223E-04   -0.60577E-04 45528   0.159E-01    0.829E-01
DAV:  19    -0.232230166811E+03   -0.12612E-02   -0.42342E-04 42272   0.134E-01    0.778E-01
DAV:  20    -0.232230366790E+03   -0.19998E-03   -0.44886E-04 44616   0.130E-01    0.648E-01
DAV:  21    -0.232230498450E+03   -0.13166E-03   -0.41014E-04 42288   0.155E-01    0.418E-01
DAV:  22    -0.232230866236E+03   -0.36779E-03   -0.29270E-04 39624   0.130E-01    0.165E-01
DAV:  23    -0.232231232798E+03   -0.36656E-03   -0.19830E-04 36792   0.737E-02    0.207E-01
DAV:  24    -0.232231222014E+03    0.10783E-04   -0.67623E-05 31624   0.489E-02    0.173E-01
DAV:  25    -0.232231199273E+03    0.22742E-04   -0.21699E-05 25232   0.363E-02    0.139E-01
DAV:  26    -0.232231196082E+03    0.31911E-05   -0.11699E-05 20864   0.234E-02
  11 F= -.23223120E+03 E0= -.23221738E+03  d E =-.366191E-01  mag=     9.0711
       N       E                     dE             d eps       ncg     rms          rms(c)
DAV:   1    -0.231866032015E+03    0.36517E+00   -0.38694E+01 33480   0.288E+01    0.193E+00
DAV:   2    -0.232272090832E+03   -0.40606E+00   -0.41526E+00 35080   0.579E+00    0.297E+00
DAV:   3    -0.232295036980E+03   -0.22946E-01   -0.32977E-01 39648   0.317E+00    0.433E+00
DAV:   4    -0.232264382875E+03    0.30654E-01   -0.62893E-02 36816   0.186E+00    0.237E+00
DAV:   5    -0.232260155026E+03    0.42278E-02   -0.11703E-02 38792   0.791E-01    0.774E-01
DAV:   6    -0.232265721702E+03   -0.55667E-02   -0.12936E-02 38944   0.774E-01    0.132E+00
DAV:   7    -0.232262748925E+03    0.29728E-02   -0.87013E-03 42584   0.593E-01    0.652E-01
DAV:   8    -0.232263250456E+03   -0.50153E-03   -0.43113E-03 43848   0.497E-01    0.668E-01
DAV:   9    -0.232262845870E+03    0.40459E-03   -0.30192E-03 43368   0.372E-01    0.606E-01
DAV:  10    -0.232262433274E+03    0.41260E-03   -0.75698E-04 43088   0.169E-01    0.505E-01
DAV:  11    -0.232262330294E+03    0.10298E-03   -0.13038E-04 34152   0.366E-02    0.491E-01
DAV:  12    -0.232262218093E+03    0.11220E-03   -0.16788E-03 41680   0.202E-01    0.547E-01
DAV:  13    -0.232262445305E+03   -0.22721E-03   -0.40829E-03 41056   0.388E-01    0.645E-01
DAV:  14    -0.232262613050E+03   -0.16775E-03   -0.30727E-03 40552   0.296E-01    0.758E-01
DAV:  15    -0.232262143794E+03    0.46926E-03   -0.12368E-03 41128   0.239E-01    0.476E-01
DAV:  16    -0.232262541317E+03   -0.39752E-03   -0.74901E-04 42192   0.151E-01    0.283E-01
DAV:  17    -0.232262932846E+03   -0.39153E-03   -0.33990E-04 38536   0.102E-01    0.303E-01
DAV:  18    -0.232262922106E+03    0.10740E-04   -0.73860E-05 31192   0.391E-02    0.315E-01
DAV:  19    -0.232262884812E+03    0.37294E-04   -0.18834E-05 21552   0.139E-02    0.331E-01
DAV:  20    -0.232262876386E+03    0.84260E-05   -0.17605E-05 21944   0.218E-02
  12 F= -.23226288E+03 E0= -.23224912E+03  d E =-.316803E-01  mag=     9.0669
       N       E                     dE             d eps       ncg     rms          rms(c)
DAV:   1    -0.232043752302E+03    0.21913E+00   -0.20564E+01 33576   0.217E+01    0.145E+00
DAV:   2    -0.232276986611E+03   -0.23323E+00   -0.24095E+00 34704   0.433E+00    0.176E+00
DAV:   3    -0.232298957235E+03   -0.21971E-01   -0.14546E-01 39760   0.220E+00    0.408E+00
DAV:   4    -0.232273978656E+03    0.24979E-01   -0.31748E-02 37624   0.143E+00    0.220E+00
DAV:   5    -0.232274843708E+03   -0.86505E-03   -0.12139E-02 37192   0.735E-01    0.102E+00
DAV:   6    -0.232275170793E+03   -0.32708E-03   -0.14019E-03 36008   0.146E-01    0.105E+00
DAV:   7    -0.232275616173E+03   -0.44538E-03   -0.46740E-04 40496   0.115E-01    0.106E+00
DAV:   8    -0.232275218866E+03    0.39731E-03   -0.54765E-03 42264   0.458E-01    0.989E-01
DAV:   9    -0.232276779961E+03   -0.15611E-02   -0.11550E-02 42992   0.635E-01    0.143E+00
DAV:  10    -0.232273809389E+03    0.29706E-02   -0.95879E-03 42320   0.530E-01    0.855E-01
DAV:  11    -0.232274817989E+03   -0.10086E-02   -0.44290E-03 41440   0.366E-01    0.692E-01
DAV:  12    -0.232275606470E+03   -0.78848E-03   -0.16767E-03 40472   0.272E-01    0.736E-01
DAV:  13    -0.232275355903E+03    0.25057E-03   -0.40358E-04 40944   0.887E-02    0.756E-01
DAV:  14    -0.232275253878E+03    0.10203E-03   -0.15560E-04 36536   0.602E-02    0.780E-01
DAV:  15    -0.232275376463E+03   -0.12259E-03   -0.26700E-04 42032   0.955E-02    0.697E-01
DAV:  16    -0.232275765696E+03   -0.38923E-03   -0.75416E-04 43480   0.198E-01    0.568E-01
DAV:  17    -0.232275775285E+03   -0.95889E-05   -0.10673E-03 43528   0.252E-01    0.385E-01
DAV:  18    -0.232275974098E+03   -0.19881E-03   -0.99687E-04 42920   0.190E-01    0.302E-01
DAV:  19    -0.232276079033E+03   -0.10494E-03   -0.42816E-04 42080   0.160E-01    0.432E-01
DAV:  20    -0.232275859714E+03    0.21932E-03   -0.18075E-04 41328   0.887E-02    0.338E-01
DAV:  21    -0.232275798927E+03    0.60787E-04   -0.99354E-05 37608   0.665E-02    0.184E-01
DAV:  22    -0.232275905520E+03   -0.10659E-03   -0.67879E-05 33480   0.527E-02    0.150E-01
DAV:  23    -0.232275942759E+03   -0.37238E-04   -0.61209E-05 33288   0.454E-02    0.114E-01
DAV:  24    -0.232275938284E+03    0.44748E-05   -0.38699E-05 28736   0.347E-02
  13 F= -.23227594E+03 E0= -.23226237E+03  d E =-.130619E-01  mag=     9.0667
       N       E                     dE             d eps       ncg     rms          rms(c)
DAV:   1    -0.231961525994E+03    0.31442E+00   -0.22593E+01 33688   0.261E+01    0.170E+00
DAV:   2    -0.232294292720E+03   -0.33277E+00   -0.33933E+00 34520   0.533E+00    0.301E+00
DAV:   3    -0.232306144722E+03   -0.11852E-01   -0.30779E-01 38800   0.290E+00    0.353E+00
DAV:   4    -0.232287753441E+03    0.18391E-01   -0.50214E-02 37160   0.153E+00    0.209E+00
DAV:   5    -0.232283184059E+03    0.45694E-02   -0.78259E-03 37128   0.668E-01    0.683E-01
DAV:   6    -0.232286189354E+03   -0.30053E-02   -0.61405E-03 40784   0.578E-01    0.935E-01
DAV:   7    -0.232285404396E+03    0.78496E-03   -0.46718E-03 43152   0.488E-01    0.779E-01
DAV:   8    -0.232285577162E+03   -0.17277E-03   -0.37971E-03 42176   0.481E-01    0.848E-01
DAV:   9    -0.232284823796E+03    0.75337E-03   -0.31752E-03 43200   0.400E-01    0.583E-01
DAV:  10    -0.232284779678E+03    0.44117E-04   -0.16058E-03 43368   0.287E-01    0.374E-01
DAV:  11    -0.232284898973E+03   -0.11929E-03   -0.12800E-03 41416   0.279E-01    0.396E-01
DAV:  12    -0.232284872063E+03    0.26910E-04   -0.12165E-03 41856   0.184E-01    0.304E-01
DAV:  13    -0.232285128976E+03   -0.25691E-03   -0.21406E-03 40840   0.203E-01    0.340E-01
DAV:  14    -0.232285223276E+03   -0.94299E-04   -0.12773E-03 38624   0.155E-01    0.387E-01
DAV:  15    -0.232285126246E+03    0.97030E-04   -0.23260E-04 33920   0.408E-02    0.451E-01
DAV:  16    -0.232284891305E+03    0.23494E-03   -0.13265E-04 34288   0.734E-02    0.589E-01
DAV:  17    -0.232284590828E+03    0.30048E-03   -0.23346E-04 41368   0.862E-02    0.728E-01
DAV:  18    -0.232284244041E+03    0.34679E-03   -0.14058E-04 38192   0.573E-02    0.829E-01
DAV:  19    -0.232284275338E+03   -0.31297E-04   -0.67122E-05 28544   0.375E-02    0.831E-01
DAV:  20    -0.232284302766E+03   -0.27428E-04   -0.43401E-05 29232   0.322E-02    0.801E-01
DAV:  21    -0.232284409519E+03   -0.10675E-03   -0.81319E-05 35688   0.469E-02    0.709E-01
DAV:  22    -0.232284749654E+03   -0.34013E-03   -0.52875E-04 42376   0.115E-01    0.356E-01
DAV:  23    -0.232285192493E+03   -0.44284E-03   -0.48216E-04 41896   0.911E-02    0.231E-01
DAV:  24    -0.232285268131E+03   -0.75637E-04   -0.14468E-04 38208   0.546E-02    0.205E-01
DAV:  25    -0.232285238356E+03    0.29775E-04   -0.45572E-05 30624   0.319E-02    0.118E-01
DAV:  26    -0.232285255127E+03   -0.16771E-04   -0.28796E-05 23760   0.266E-02    0.537E-02
DAV:  27    -0.232285277294E+03   -0.22167E-04   -0.14227E-05 21920   0.226E-02    0.376E-02
DAV:  28    -0.232285279813E+03   -0.25194E-05   -0.68367E-06 19120   0.157E-02
  14 F= -.23228528E+03 E0= -.23227197E+03  d E =-.934153E-02  mag=     9.0651
       N       E                     dE             d eps       ncg     rms          rms(c)
DAV:   1    -0.231708942847E+03    0.57633E+00   -0.32707E+01 33848   0.338E+01    0.229E+00
DAV:   2    -0.232310776409E+03   -0.60183E+00   -0.61518E+00 34992   0.688E+00    0.380E+00
DAV:   3    -0.232341939389E+03   -0.31163E-01   -0.43770E-01 40376   0.385E+00    0.550E+00
DAV:   4    -0.232308770543E+03    0.33169E-01   -0.83511E-02 37792   0.233E+00    0.409E+00
DAV:   5    -0.232290049703E+03    0.18721E-01   -0.38020E-02 37128   0.146E+00    0.869E-01
DAV:   6    -0.232297319387E+03   -0.72697E-02   -0.13774E-02 41816   0.843E-01    0.126E+00
DAV:   7    -0.232295572207E+03    0.17472E-02   -0.88949E-03 43648   0.626E-01    0.852E-01
DAV:   8    -0.232296313689E+03   -0.74148E-03   -0.74604E-03 41776   0.722E-01    0.890E-01
DAV:   9    -0.232295679176E+03    0.63451E-03   -0.52088E-03 43600   0.562E-01    0.585E-01
DAV:  10    -0.232296166315E+03   -0.48714E-03   -0.30355E-03 42200   0.381E-01    0.771E-01
DAV:  11    -0.232295545905E+03    0.62041E-03   -0.10977E-03 41552   0.229E-01    0.704E-01
DAV:  12    -0.232295197207E+03    0.34870E-03   -0.66623E-04 44104   0.157E-01    0.427E-01
DAV:  13    -0.232295583207E+03   -0.38600E-03   -0.12529E-03 41400   0.200E-01    0.441E-01
DAV:  14    -0.232295778879E+03   -0.19567E-03   -0.64539E-04 39032   0.156E-01    0.474E-01
DAV:  15    -0.232295511073E+03    0.26781E-03   -0.40649E-04 40568   0.108E-01    0.365E-01
DAV:  16    -0.232295503484E+03    0.75884E-05   -0.11287E-04 30032   0.359E-02    0.297E-01
DAV:  17    -0.232295554260E+03   -0.50775E-04   -0.23977E-05 22944   0.172E-02    0.281E-01
DAV:  18    -0.232295595475E+03   -0.41215E-04   -0.19560E-05 21384   0.205E-02    0.252E-01
DAV:  19    -0.232295627313E+03   -0.31838E-04   -0.59068E-05 32768   0.571E-02    0.200E-01
DAV:  20    -0.232295650773E+03   -0.23460E-04   -0.62657E-05 31152   0.562E-02    0.189E-01
DAV:  21    -0.232295638587E+03    0.12186E-04   -0.50097E-05 30696   0.485E-02    0.151E-01
DAV:  22    -0.232295624492E+03    0.14095E-04   -0.30260E-05 25296   0.449E-02    0.119E-01
DAV:  23    -0.232295628699E+03   -0.42074E-05   -0.13347E-05 19240   0.264E-02
  15 F= -.23229563E+03 E0= -.23228262E+03  d E =-.103489E-01  mag=     9.0566
       N       E                     dE             d eps       ncg     rms          rms(c)
DAV:   1    -0.232094566644E+03    0.20106E+00   -0.11136E+01 34016   0.206E+01    0.134E+00
DAV:   2    -0.232310611679E+03   -0.21605E+00   -0.22525E+00 34504   0.407E+00    0.146E+00
DAV:   3    -0.232329258233E+03   -0.18647E-01   -0.14184E-01 39824   0.206E+00    0.334E+00
DAV:   4    -0.232309456844E+03    0.19801E-01   -0.31130E-02 37544   0.139E+00    0.164E+00
DAV:   5    -0.232309527660E+03   -0.70816E-04   -0.94446E-03 37048   0.637E-01    0.448E-01
DAV:   6    -0.232311282079E+03   -0.17544E-02   -0.31686E-03 41944   0.464E-01    0.699E-01
DAV:   7    -0.232310522571E+03    0.75951E-03   -0.35443E-03 42528   0.438E-01    0.422E-01
DAV:   8    -0.232310911055E+03   -0.38848E-03   -0.32498E-03 41752   0.416E-01    0.448E-01
DAV:   9    -0.232310548031E+03    0.36302E-03   -0.16171E-03 44080   0.312E-01    0.175E-01
DAV:  10    -0.232310669098E+03   -0.12107E-03   -0.79355E-04 44032   0.204E-01    0.216E-01
DAV:  11    -0.232310604294E+03    0.64804E-04   -0.50435E-04 39616   0.157E-01    0.162E-01
DAV:  12    -0.232310640541E+03   -0.36247E-04   -0.26925E-04 30232   0.779E-02    0.174E-01
DAV:  13    -0.232310633288E+03    0.72524E-05   -0.97224E-05 23648   0.420E-02
  16 F= -.23231063E+03 E0= -.23229773E+03  d E =-.150046E-01  mag=     9.0574
       N       E                     dE             d eps       ncg     rms          rms(c)
DAV:   1    -0.232228596786E+03    0.82044E-01   -0.34607E+00 34528   0.134E+01    0.860E-01
DAV:   2    -0.232316235897E+03   -0.87639E-01   -0.90851E-01 34584   0.262E+00    0.115E+00
DAV:   3    -0.232321108085E+03   -0.48722E-02   -0.59025E-02 38848   0.137E+00    0.184E+00
DAV:   4    -0.232315458284E+03    0.56498E-02   -0.15956E-02 38016   0.742E-01    0.821E-01
DAV:   5    -0.232315348804E+03    0.10948E-03   -0.15223E-03 39896   0.239E-01    0.693E-01
DAV:   6    -0.232315854552E+03   -0.50575E-03   -0.18261E-03 42496   0.243E-01    0.122E+00
DAV:   7    -0.232314456905E+03    0.13976E-02   -0.17202E-03 41160   0.251E-01    0.115E+00
DAV:   8    -0.232314780739E+03   -0.32383E-03   -0.24334E-04 38432   0.616E-02    0.122E+00
DAV:   9    -0.232315598912E+03   -0.81817E-03   -0.18146E-03 43384   0.310E-01    0.157E+00
DAV:  10    -0.232314852829E+03    0.74608E-03   -0.25101E-03 43600   0.307E-01    0.163E+00
DAV:  11    -0.232313158067E+03    0.16948E-02   -0.32791E-03 44528   0.342E-01    0.119E+00
DAV:  12    -0.232313031671E+03    0.12640E-03   -0.36392E-03 42816   0.360E-01    0.489E-01
DAV:  13    -0.232315493475E+03   -0.24618E-02   -0.18740E-03 38784   0.249E-01    0.692E-01
DAV:  14    -0.232315343717E+03    0.14976E-03   -0.79582E-04 42000   0.169E-01    0.689E-01
DAV:  15    -0.232314992815E+03    0.35090E-03   -0.23876E-04 42976   0.782E-02    0.647E-01
DAV:  16    -0.232314870298E+03    0.12252E-03   -0.38204E-05 27824   0.277E-02    0.630E-01
DAV:  17    -0.232314922822E+03   -0.52524E-04   -0.17057E-05 20832   0.241E-02    0.644E-01
DAV:  18    -0.232315001153E+03   -0.78331E-04   -0.26149E-04 41656   0.101E-01    0.504E-01
DAV:  19    -0.232315173671E+03   -0.17252E-03   -0.88155E-04 44384   0.182E-01    0.185E-01
DAV:  20    -0.232315590292E+03   -0.41662E-03   -0.53764E-04 43424   0.134E-01    0.470E-01
DAV:  21    -0.232315358259E+03    0.23203E-03   -0.19102E-04 38816   0.101E-01    0.491E-01
DAV:  22    -0.232315150401E+03    0.20786E-03   -0.78151E-05 36648   0.556E-02    0.324E-01
DAV:  23    -0.232315214614E+03   -0.64213E-04   -0.48050E-05 28184   0.445E-02    0.165E-01
DAV:  24    -0.232315340234E+03   -0.12562E-03   -0.33964E-05 27592   0.368E-02    0.662E-02
DAV:  25    -0.232315400385E+03   -0.60152E-04   -0.12662E-05 21936   0.223E-02    0.298E-02
DAV:  26    -0.232315415675E+03   -0.15289E-04   -0.58070E-06 20080   0.114E-02    0.250E-02
DAV:  27    -0.232315418589E+03   -0.29139E-05   -0.22139E-06 17704   0.883E-03
  17 F= -.23231542E+03 E0= -.23230263E+03  d E =-.478530E-02  mag=     9.0594
       N       E                     dE             d eps       ncg     rms          rms(c)
DAV:   1    -0.232251513143E+03    0.63903E-01   -0.50285E+00 33608   0.123E+01    0.746E-01
DAV:   2    -0.232320436409E+03   -0.68923E-01   -0.71854E-01 34392   0.243E+00    0.711E-01
DAV:   3    -0.232325167352E+03   -0.47309E-02   -0.36514E-02 38368   0.109E+00    0.149E+00
DAV:   4    -0.232320564771E+03    0.46026E-02   -0.12051E-02 37408   0.735E-01    0.781E-01
DAV:   5    -0.232320352844E+03    0.21193E-03   -0.14521E-03 37840   0.308E-01    0.298E-01
DAV:   6    -0.232320932257E+03   -0.57941E-03   -0.17635E-03 38696   0.270E-01    0.396E-01
DAV:   7    -0.232320662131E+03    0.27013E-03   -0.19579E-03 41752   0.267E-01    0.214E-01
DAV:   8    -0.232320847517E+03   -0.18539E-03   -0.93558E-04 43864   0.213E-01    0.317E-01
DAV:   9    -0.232320709560E+03    0.13796E-03   -0.57608E-04 42136   0.163E-01    0.234E-01
DAV:  10    -0.232320671135E+03    0.38425E-04   -0.14678E-04 34560   0.983E-02    0.149E-01
DAV:  11    -0.232320680446E+03   -0.93113E-05   -0.10938E-04 31264   0.777E-02    0.871E-02
DAV:  12    -0.232320720034E+03   -0.39588E-04   -0.67266E-05 26560   0.577E-02    0.106E-01
DAV:  13    -0.232320710735E+03    0.92998E-05   -0.47324E-05 24648   0.443E-02
  18 F= -.23232071E+03 E0= -.23230800E+03  d E =-.529215E-02  mag=     9.0587
       N       E                     dE             d eps       ncg     rms          rms(c)
DAV:   1    -0.230724967161E+03    0.15958E+01   -0.76567E+01 34136   0.557E+01    0.382E+00
DAV:   2    -0.232324849756E+03   -0.15999E+01   -0.16329E+01 35352   0.114E+01    0.623E+00
DAV:   3    -0.232380421532E+03   -0.55572E-01   -0.12584E+00 41384   0.667E+00    0.818E+00
DAV:   4    -0.232334433861E+03    0.45988E-01   -0.70693E-01 38720   0.419E+00    0.794E+00
DAV:   5    -0.232270230537E+03    0.64203E-01   -0.94546E-02 37640   0.238E+00    0.260E+00
DAV:   6    -0.232278123369E+03   -0.78928E-02   -0.68099E-02 37104   0.189E+00    0.198E+00
DAV:   7    -0.232282176253E+03   -0.40529E-02   -0.23245E-02 43032   0.103E+00    0.258E+00
DAV:   8    -0.232280367527E+03    0.18087E-02   -0.28098E-02 39624   0.108E+00    0.288E+00
DAV:   9    -0.232271972771E+03    0.83948E-02   -0.13507E-02 43288   0.871E-01    0.162E+00
DAV:  10    -0.232277235992E+03   -0.52632E-02   -0.11632E-02 41536   0.873E-01    0.195E+00
DAV:  11    -0.232276641177E+03    0.59481E-03   -0.45602E-03 41144   0.487E-01    0.222E+00
DAV:  12    -0.232275578677E+03    0.10625E-02   -0.12865E-03 35800   0.139E-01    0.263E+00
DAV:  13    -0.232272235786E+03    0.33429E-02   -0.35162E-03 42880   0.396E-01    0.206E+00
DAV:  14    -0.232270450839E+03    0.17849E-02   -0.11307E-02 41136   0.688E-01    0.978E-01
DAV:  15    -0.232273475375E+03   -0.30245E-02   -0.68731E-03 40264   0.426E-01    0.681E-01
DAV:  16    -0.232274943393E+03   -0.14680E-02   -0.23010E-03 38304   0.185E-01    0.782E-01
DAV:  17    -0.232274791297E+03    0.15210E-03   -0.72959E-04 41760   0.160E-01    0.943E-01
DAV:  18    -0.232274406300E+03    0.38500E-03   -0.66991E-04 42656   0.159E-01    0.103E+00
DAV:  19    -0.232274168281E+03    0.23802E-03   -0.13489E-04 35184   0.556E-02    0.110E+00
DAV:  20    -0.232274458732E+03   -0.29045E-03   -0.47031E-04 42376   0.137E-01    0.980E-01
DAV:  21    -0.232274583228E+03   -0.12450E-03   -0.81036E-04 44264   0.177E-01    0.769E-01
DAV:  22    -0.232274952858E+03   -0.36963E-03   -0.15349E-03 44104   0.225E-01    0.454E-01
DAV:  23    -0.232275097413E+03   -0.14456E-03   -0.13159E-03 44480   0.160E-01    0.493E-01
DAV:  24    -0.232275116009E+03   -0.18596E-04   -0.48661E-04 40912   0.931E-02    0.664E-01
DAV:  25    -0.232274886000E+03    0.23001E-03   -0.17313E-04 35008   0.101E-01    0.660E-01
DAV:  26    -0.232274771921E+03    0.11408E-03   -0.97014E-05 39192   0.694E-02    0.553E-01
DAV:  27    -0.232274819549E+03   -0.47628E-04   -0.73446E-05 34056   0.472E-02    0.384E-01
DAV:  28    -0.232275000768E+03   -0.18122E-03   -0.68259E-05 33632   0.382E-02    0.250E-01
DAV:  29    -0.232275132920E+03   -0.13215E-03   -0.30404E-05 26400   0.333E-02    0.153E-01
DAV:  30    -0.232275212380E+03   -0.79460E-04   -0.20779E-05 24144   0.303E-02    0.909E-02
DAV:  31    -0.232275252806E+03   -0.40426E-04   -0.15231E-05 22792   0.196E-02    0.581E-02
DAV:  32    -0.232275267551E+03   -0.14746E-04   -0.87843E-06 20736   0.125E-02    0.260E-02
DAV:  33    -0.232275273855E+03   -0.63035E-05   -0.35965E-06 18776   0.715E-03
  19 F= -.23227527E+03 E0= -.23226232E+03  d E =0.454369E-01  mag=     9.0377
       N       E                     dE             d eps       ncg     rms          rms(c)
DAV:   1    -0.231873912882E+03    0.40135E+00   -0.90845E+00 41712   0.284E+01    0.203E+00
DAV:   2    -0.232315278607E+03   -0.44137E+00   -0.46606E+00 35080   0.485E+00    0.130E+00
DAV:   3    -0.232330128778E+03   -0.14850E-01   -0.13902E-01 44680   0.198E+00    0.207E+00
DAV:   4    -0.232323679247E+03    0.64495E-02   -0.30326E-02 38600   0.136E+00    0.189E+00
DAV:   5    -0.232320865150E+03    0.28141E-02   -0.97918E-03 39424   0.823E-01    0.108E+00
DAV:   6    -0.232323127680E+03   -0.22625E-02   -0.94866E-03 38232   0.758E-01    0.109E+00
DAV:   7    -0.232321500298E+03    0.16274E-02   -0.80936E-03 38952   0.695E-01    0.568E-01
DAV:   8    -0.232322641897E+03   -0.11416E-02   -0.52788E-03 41792   0.578E-01    0.756E-01
DAV:   9    -0.232322026693E+03    0.61520E-03   -0.50312E-03 42376   0.498E-01    0.724E-01
DAV:  10    -0.232321389523E+03    0.63717E-03   -0.18372E-03 41216   0.267E-01    0.531E-01
DAV:  11    -0.232321269132E+03    0.12039E-03   -0.38849E-04 42032   0.150E-01    0.277E-01
DAV:  12    -0.232321448859E+03   -0.17973E-03   -0.29173E-04 38296   0.112E-01    0.145E-01
DAV:  13    -0.232321628652E+03   -0.17979E-03   -0.26762E-04 35768   0.109E-01    0.213E-01
DAV:  14    -0.232321625047E+03    0.36051E-05   -0.11425E-04 35920   0.773E-02    0.221E-01
DAV:  15    -0.232321560646E+03    0.64401E-04   -0.49809E-05 30296   0.532E-02    0.131E-01
DAV:  16    -0.232321576560E+03   -0.15914E-04   -0.45486E-05 23512   0.440E-02    0.518E-02
DAV:  17    -0.232321602777E+03   -0.26217E-04   -0.27267E-05 23600   0.303E-02    0.583E-02
DAV:  18    -0.232321600338E+03    0.24387E-05   -0.11508E-05 19416   0.191E-02
  20 F= -.23232160E+03 E0= -.23230873E+03  d E =-.463265E-01  mag=     9.0476
       N       E                     dE             d eps       ncg     rms          rms(c)
DAV:   1    -0.232317805562E+03    0.37972E-02   -0.14286E-01 38656   0.353E+00    0.241E-01
DAV:   2    -0.232324386562E+03   -0.65810E-02   -0.67949E-02 35008   0.623E-01    0.411E-01
DAV:   3    -0.232325000059E+03   -0.61350E-03   -0.34542E-03 39160   0.376E-01    0.815E-01
DAV:   4    -0.232324106124E+03    0.89393E-03   -0.10469E-03 37208   0.262E-01    0.340E-01
DAV:   5    -0.232324250084E+03   -0.14396E-03   -0.57179E-04 35760   0.155E-01    0.148E-01
DAV:   6    -0.232324302761E+03   -0.52677E-04   -0.59383E-05 27864   0.366E-02    0.146E-01
DAV:   7    -0.232324285294E+03    0.17467E-04   -0.78617E-05 24920   0.451E-02    0.177E-01
DAV:   8    -0.232324282566E+03    0.27271E-05   -0.22443E-05 21720   0.247E-02
  21 F= -.23232428E+03 E0= -.23231143E+03  d E =-.268223E-02  mag=     9.0487
       N       E                     dE             d eps       ncg     rms          rms(c)
DAV:   1    -0.232288697183E+03    0.35588E-01   -0.10410E+00 36792   0.886E+00    0.571E-01
DAV:   2    -0.232329058551E+03   -0.40361E-01   -0.42109E-01 34968   0.156E+00    0.571E-01
DAV:   3    -0.232331391595E+03   -0.23330E-02   -0.23803E-02 40104   0.801E-01    0.107E+00
DAV:   4    -0.232329132119E+03    0.22595E-02   -0.74486E-03 38808   0.498E-01    0.376E-01
DAV:   5    -0.232329350256E+03   -0.21814E-03   -0.70713E-04 38656   0.213E-01    0.443E-01
DAV:   6    -0.232329427001E+03   -0.76745E-04   -0.83765E-04 37984   0.232E-01    0.480E-01
DAV:   7    -0.232329154978E+03    0.27202E-03   -0.10332E-03 40464   0.269E-01    0.213E-01
DAV:   8    -0.232329489391E+03   -0.33441E-03   -0.15812E-03 40560   0.249E-01    0.372E-01
DAV:   9    -0.232329361370E+03    0.12802E-03   -0.11541E-03 38264   0.176E-01    0.278E-01
DAV:  10    -0.232329346846E+03    0.14524E-04   -0.19999E-04 30840   0.366E-02    0.338E-01
DAV:  11    -0.232329190872E+03    0.15597E-03   -0.14397E-04 31584   0.755E-02    0.403E-01
DAV:  12    -0.232329102927E+03    0.87945E-04   -0.10544E-04 29488   0.611E-02    0.421E-01
DAV:  13    -0.232329050114E+03    0.52813E-04   -0.47794E-05 24144   0.419E-02    0.453E-01
DAV:  14    -0.232328979144E+03    0.70971E-04   -0.37572E-05 23744   0.389E-02    0.480E-01
DAV:  15    -0.232328893110E+03    0.86034E-04   -0.23203E-05 24776   0.336E-02    0.512E-01
DAV:  16    -0.232328827583E+03    0.65527E-04   -0.25719E-05 25088   0.327E-02    0.539E-01
DAV:  17    -0.232328709525E+03    0.11806E-03   -0.39925E-05 29120   0.365E-02    0.596E-01
DAV:  18    -0.232328640512E+03    0.69013E-04   -0.25755E-05 26376   0.233E-02    0.638E-01
DAV:  19    -0.232328593765E+03    0.46748E-04   -0.87761E-06 20160   0.109E-02    0.656E-01
DAV:  20    -0.232328601733E+03   -0.79682E-05   -0.33245E-06 17944   0.984E-03
  22 F= -.23232860E+03 E0= -.23231579E+03  d E =-.431917E-02  mag=     9.0497
       N       E                     dE             d eps       ncg     rms          rms(c)
DAV:   1    -0.232328429707E+03    0.16406E-03   -0.80217E-02 34832   0.174E+00    0.671E-01
DAV:   2    -0.232334380483E+03   -0.59508E-02   -0.46107E-02 40624   0.609E-01    0.138E+00
DAV:   3    -0.232332194322E+03    0.21862E-02   -0.59452E-03 41736   0.358E-01    0.121E+00
DAV:   4    -0.232334387002E+03   -0.21927E-02   -0.11689E-02 43288   0.556E-01    0.306E+00
DAV:   5    -0.232333886883E+03    0.50012E-03   -0.46148E-03 39224   0.375E-01    0.339E+00
DAV:   6    -0.232333354717E+03    0.53217E-03   -0.13540E-03 36976   0.144E-01    0.377E+00
DAV:   7    -0.232333261545E+03    0.93171E-04   -0.53543E-04 39368   0.119E-01    0.404E+00
DAV:   8    -0.232335196284E+03   -0.19347E-02   -0.20057E-03 43488   0.246E-01    0.448E+00
DAV:   9    -0.232325674382E+03    0.95219E-02   -0.60774E-03 43208   0.518E-01    0.385E+00
DAV:  10    -0.232319968968E+03    0.57054E-02   -0.60367E-03 43880   0.500E-01    0.259E+00
DAV:  11    -0.232323362012E+03   -0.33930E-02   -0.34558E-03 41784   0.281E-01    0.174E+00
DAV:  12    -0.232326133760E+03   -0.27717E-02   -0.43682E-03 40512   0.350E-01    0.982E-01
DAV:  13    -0.232328653877E+03   -0.25201E-02   -0.26479E-03 40088   0.261E-01    0.347E-01
DAV:  14    -0.232330476159E+03   -0.18223E-02   -0.12740E-03 40296   0.227E-01    0.341E-01
DAV:  15    -0.232330669032E+03   -0.19287E-03   -0.62247E-04 43312   0.149E-01    0.242E-01
DAV:  16    -0.232330683977E+03   -0.14945E-04   -0.21651E-04 44168   0.881E-02    0.238E-01
DAV:  17    -0.232330668739E+03    0.15238E-04   -0.17199E-04 38328   0.701E-02    0.144E-01
DAV:  18    -0.232330675482E+03   -0.67430E-05   -0.92791E-05 36912   0.602E-02
  23 F= -.23233068E+03 E0= -.23231794E+03  d E =-.207375E-02  mag=     9.0527
       N       E                     dE             d eps       ncg     rms          rms(c)
DAV:   1    -0.232306592842E+03    0.24076E-01   -0.20362E+00 34384   0.783E+00    0.525E-01
DAV:   2    -0.232336279988E+03   -0.29687E-01   -0.29835E-01 35496   0.162E+00    0.102E+00
DAV:   3    -0.232335914099E+03    0.36589E-03   -0.20507E-02 39464   0.891E-01    0.766E-01
DAV:   4    -0.232334917654E+03    0.99644E-03   -0.32628E-03 37056   0.422E-01    0.356E-01
DAV:   5    -0.232334934864E+03   -0.17210E-04   -0.63629E-04 39720   0.171E-01    0.351E-01
DAV:   6    -0.232334902427E+03    0.32437E-04   -0.46421E-04 38984   0.157E-01    0.305E-01
DAV:   7    -0.232334855692E+03    0.46736E-04   -0.30087E-04 38080   0.921E-02    0.281E-01
DAV:   8    -0.232334822951E+03    0.32741E-04   -0.62531E-05 27032   0.378E-02    0.326E-01
DAV:   9    -0.232334848408E+03   -0.25457E-04   -0.62185E-05 26072   0.496E-02    0.338E-01
DAV:  10    -0.232334822688E+03    0.25720E-04   -0.75066E-04 44104   0.196E-01    0.321E-01
DAV:  11    -0.232334707765E+03    0.11492E-03   -0.13671E-03 40608   0.246E-01    0.265E-01
DAV:  12    -0.232334789784E+03   -0.82019E-04   -0.85777E-04 41712   0.163E-01    0.298E-01
DAV:  13    -0.232334824790E+03   -0.35006E-04   -0.35131E-04 39440   0.119E-01    0.317E-01
DAV:  14    -0.232334749926E+03    0.74864E-04   -0.13163E-04 35232   0.705E-02    0.256E-01
DAV:  15    -0.232334768620E+03   -0.18694E-04   -0.86862E-05 35608   0.522E-02    0.188E-01
DAV:  16    -0.232334800339E+03   -0.31719E-04   -0.10009E-04 34344   0.597E-02    0.149E-01
DAV:  17    -0.232334809508E+03   -0.91695E-05   -0.63274E-05 33096   0.476E-02
  24 F= -.23233481E+03 E0= -.23232208E+03  d E =-.413403E-02  mag=     9.0538
       N       E                     dE             d eps       ncg     rms          rms(c)
DAV:   1    -0.232330172541E+03    0.46278E-02   -0.22395E-01 34216   0.332E+00    0.220E-01
DAV:   2    -0.232335661389E+03   -0.54888E-02   -0.52632E-02 35096   0.689E-01    0.658E-01
DAV:   3    -0.232335223509E+03    0.43788E-03   -0.37109E-03 38648   0.396E-01    0.463E-01
DAV:   4    -0.232335341673E+03   -0.11816E-03   -0.98639E-04 35936   0.236E-01    0.423E-01
DAV:   5    -0.232335118012E+03    0.22366E-03   -0.51945E-04 34512   0.157E-01    0.176E-01
DAV:   6    -0.232335146969E+03   -0.28958E-04   -0.49772E-05 28024   0.294E-02    0.192E-01
DAV:   7    -0.232335161888E+03   -0.14918E-04   -0.16825E-05 20432   0.175E-02    0.203E-01
DAV:   8    -0.232335175644E+03   -0.13757E-04   -0.12286E-04 29968   0.775E-02    0.211E-01
DAV:   9    -0.232335160385E+03    0.15259E-04   -0.30708E-04 37128   0.110E-01    0.230E-01
DAV:  10    -0.232335111833E+03    0.48552E-04   -0.23143E-04 33456   0.103E-01    0.162E-01
DAV:  11    -0.232335118263E+03   -0.64300E-05   -0.16259E-04 28312   0.696E-02    0.105E-01
DAV:  12    -0.232335153094E+03   -0.34831E-04   -0.56765E-05 24560   0.392E-02    0.109E-01
DAV:  13    -0.232335152790E+03    0.30367E-06   -0.16560E-05 20240   0.171E-02
  25 F= -.23233515E+03 E0= -.23232244E+03  d E =-.343282E-03  mag=     9.0532
       N       E                     dE             d eps       ncg     rms          rms(c)
DAV:   1    -0.232305994834E+03    0.29158E-01   -0.22002E+00 33552   0.816E+00    0.517E-01
DAV:   2    -0.232337485237E+03   -0.31490E-01   -0.31415E-01 35144   0.166E+00    0.118E+00
DAV:   3    -0.232337310556E+03    0.17468E-03   -0.22434E-02 38096   0.882E-01    0.125E+00
DAV:   4    -0.232336484334E+03    0.82622E-03   -0.40582E-03 37008   0.476E-01    0.867E-01
DAV:   5    -0.232335800471E+03    0.68386E-03   -0.24286E-03 37792   0.326E-01    0.468E-01
DAV:   6    -0.232335811618E+03   -0.11147E-04   -0.68984E-04 42816   0.130E-01    0.599E-01
DAV:   7    -0.232335670096E+03    0.14152E-03   -0.19976E-04 36864   0.816E-02    0.576E-01
DAV:   8    -0.232336121747E+03   -0.45165E-03   -0.13780E-03 42904   0.250E-01    0.744E-01
DAV:   9    -0.232335645175E+03    0.47657E-03   -0.22245E-03 42984   0.316E-01    0.764E-01
DAV:  10    -0.232335331451E+03    0.31372E-03   -0.11494E-03 44184   0.190E-01    0.629E-01
DAV:  11    -0.232335327290E+03    0.41611E-05   -0.94549E-04 41808   0.197E-01    0.422E-01
DAV:  12    -0.232335717726E+03   -0.39044E-03   -0.64159E-04 42272   0.154E-01    0.360E-01
DAV:  13    -0.232335939149E+03   -0.22142E-03   -0.31729E-04 41312   0.106E-01    0.413E-01
DAV:  14    -0.232335808503E+03    0.13065E-03   -0.13747E-04 39584   0.723E-02    0.379E-01
DAV:  15    -0.232335777575E+03    0.30928E-04   -0.82786E-05 33400   0.533E-02    0.300E-01
DAV:  16    -0.232335840053E+03   -0.62478E-04   -0.11497E-04 38208   0.706E-02    0.236E-01
DAV:  17    -0.232335922091E+03   -0.82038E-04   -0.20647E-04 41088   0.794E-02    0.167E-01
DAV:  18    -0.232335928434E+03   -0.63429E-05   -0.16839E-04 37400   0.879E-02    0.132E-01
DAV:  19    -0.232335924029E+03    0.44050E-05   -0.69629E-05 30056   0.632E-02
  26 F= -.23233592E+03 E0= -.23232328E+03  d E =-.771239E-03  mag=     9.0553
       N       E                     dE             d eps       ncg     rms          rms(c)
DAV:   1    -0.232135702366E+03    0.20023E+00   -0.10829E+01 33920   0.210E+01    0.130E+00
DAV:   2    -0.232340337527E+03   -0.20464E+00   -0.20948E+00 34264   0.416E+00    0.202E+00
DAV:   3    -0.232352977203E+03   -0.12640E-01   -0.14992E-01 39040   0.222E+00    0.324E+00
DAV:   4    -0.232339420161E+03    0.13557E-01   -0.26373E-02 37256   0.134E+00    0.219E+00
DAV:   5    -0.232335416765E+03    0.40034E-02   -0.11448E-02 36648   0.775E-01    0.475E-01
DAV:   6    -0.232337463099E+03   -0.20463E-02   -0.23176E-03 42296   0.404E-01    0.536E-01
DAV:   7    -0.232337449637E+03    0.13462E-04   -0.30542E-03 43648   0.419E-01    0.515E-01
DAV:   8    -0.232337607045E+03   -0.15741E-03   -0.29868E-03 42320   0.398E-01    0.496E-01
DAV:   9    -0.232337325026E+03    0.28202E-03   -0.15253E-03 41720   0.331E-01    0.346E-01
DAV:  10    -0.232337341755E+03   -0.16730E-04   -0.85719E-04 42760   0.195E-01    0.284E-01
DAV:  11    -0.232337279042E+03    0.62713E-04   -0.44155E-04 39176   0.152E-01    0.122E-01
DAV:  12    -0.232337373217E+03   -0.94174E-04   -0.23244E-04 34200   0.892E-02    0.148E-01
DAV:  13    -0.232337378423E+03   -0.52066E-05   -0.15769E-04 32464   0.675E-02    0.125E-01
DAV:  14    -0.232337383228E+03   -0.48053E-05   -0.31265E-05 21312   0.192E-02
  27 F= -.23233738E+03 E0= -.23232491E+03  d E =-.145920E-02  mag=     9.0536
       N       E                     dE             d eps       ncg     rms          rms(c)
DAV:   1    -0.231459100623E+03    0.87828E+00   -0.67624E+01 33408   0.441E+01    0.269E+00
DAV:   2    -0.232331512864E+03   -0.87241E+00   -0.90524E+00 34208   0.879E+00    0.229E+00
DAV:   3    -0.232390378290E+03   -0.58865E-01   -0.49902E-01 39536   0.363E+00    0.455E+00
DAV:   4    -0.232331695775E+03    0.58683E-01   -0.61626E-02 37488   0.241E+00    0.159E+00
DAV:   5    -0.232333219377E+03   -0.15236E-02   -0.14005E-02 40528   0.799E-01    0.149E+00
DAV:   6    -0.232333520691E+03   -0.30131E-03   -0.14143E-02 40144   0.901E-01    0.126E+00
DAV:   7    -0.232331956137E+03    0.15646E-02   -0.13218E-02 43184   0.745E-01    0.895E-01
DAV:   8    -0.232332462334E+03   -0.50620E-03   -0.87545E-03 43248   0.674E-01    0.100E+00
DAV:   9    -0.232330810522E+03    0.16518E-02   -0.62676E-03 44096   0.565E-01    0.621E-01
DAV:  10    -0.232331327553E+03   -0.51703E-03   -0.66586E-03 41608   0.630E-01    0.750E-01
DAV:  11    -0.232331068595E+03    0.25896E-03   -0.10272E-02 40896   0.622E-01    0.707E-01
DAV:  12    -0.232331868291E+03   -0.79970E-03   -0.73591E-03 39264   0.443E-01    0.795E-01
DAV:  13    -0.232331951367E+03   -0.83076E-04   -0.25641E-03 41656   0.244E-01    0.848E-01
DAV:  14    -0.232331497657E+03    0.45371E-03   -0.61197E-04 36776   0.661E-02    0.943E-01
DAV:  15    -0.232330815204E+03    0.68245E-03   -0.46302E-04 41520   0.137E-01    0.118E+00
DAV:  16    -0.232330401037E+03    0.41417E-03   -0.31809E-04 42584   0.114E-01    0.137E+00
DAV:  17    -0.232330043524E+03    0.35751E-03   -0.11274E-04 33784   0.414E-02    0.145E+00
DAV:  18    -0.232329236046E+03    0.80748E-03   -0.24973E-04 39320   0.783E-02    0.164E+00
DAV:  19    -0.232328680751E+03    0.55529E-03   -0.58740E-04 43312   0.114E-01    0.198E+00
DAV:  20    -0.232328345688E+03    0.33506E-03   -0.15533E-04 33960   0.429E-02    0.199E+00
DAV:  21    -0.232328143265E+03    0.20242E-03   -0.94210E-04 42888   0.161E-01    0.145E+00
DAV:  22    -0.232330163643E+03   -0.20204E-02   -0.34286E-03 43256   0.317E-01    0.715E-01
DAV:  23    -0.232332153165E+03   -0.19895E-02   -0.38506E-03 43936   0.273E-01    0.391E-01
DAV:  24    -0.232332312091E+03   -0.15893E-03   -0.14697E-03 40408   0.148E-01    0.616E-01
DAV:  25    -0.232331781296E+03    0.53080E-03   -0.27228E-04 39152   0.878E-02    0.685E-01
DAV:  26    -0.232331456108E+03    0.32519E-03   -0.69703E-05 33344   0.539E-02    0.639E-01
DAV:  27    -0.232331551600E+03   -0.95492E-04   -0.15552E-04 39616   0.714E-02    0.396E-01
DAV:  28    -0.232331908363E+03   -0.35676E-03   -0.10849E-04 37800   0.508E-02    0.265E-01
DAV:  29    -0.232332111688E+03   -0.20332E-03   -0.31142E-05 26248   0.327E-02    0.232E-01
DAV:  30    -0.232332188595E+03   -0.76907E-04   -0.14935E-05 22816   0.212E-02    0.158E-01
DAV:  31    -0.232332246760E+03   -0.58165E-04   -0.22242E-05 26144   0.191E-02    0.841E-02
DAV:  32    -0.232332286971E+03   -0.40211E-04   -0.97608E-06 21624   0.112E-02    0.483E-02
DAV:  33    -0.232332303804E+03   -0.16833E-04   -0.35960E-06 19992   0.765E-03    0.235E-02
DAV:  34    -0.232332309251E+03   -0.54473E-05   -0.15965E-06 18336   0.517E-03
  28 F= -.23233231E+03 E0= -.23232014E+03  d E =0.507398E-02  mag=     9.0472
       N       E                     dE             d eps       ncg     rms          rms(c)
DAV:   1    -0.231518423428E+03    0.81388E+00   -0.38201E+01 34784   0.413E+01    0.264E+00
DAV:   2    -0.232394086030E+03   -0.87566E+00   -0.85624E+00 35272   0.840E+00    0.724E+00
DAV:   3    -0.232355034284E+03    0.39052E-01   -0.53415E-01 39192   0.456E+00    0.668E+00
DAV:   4    -0.232332357722E+03    0.22677E-01   -0.96922E-02 39016   0.244E+00    0.384E+00
DAV:   5    -0.232320185578E+03    0.12172E-01   -0.60875E-02 36856   0.175E+00    0.211E+00
DAV:   6    -0.232325705244E+03   -0.55197E-02   -0.18826E-02 40896   0.912E-01    0.282E+00
DAV:   7    -0.232319090508E+03    0.66147E-02   -0.39144E-02 41224   0.109E+00    0.176E+00
DAV:   8    -0.232322398758E+03   -0.33082E-02   -0.22427E-02 39944   0.102E+00    0.184E+00
DAV:   9    -0.232326536090E+03   -0.41373E-02   -0.10704E-02 39792   0.676E-01    0.224E+00
DAV:  10    -0.232323996799E+03    0.25393E-02   -0.19829E-03 36672   0.224E-01    0.242E+00
DAV:  11    -0.232323704654E+03    0.29215E-03   -0.18134E-03 41440   0.260E-01    0.307E+00
DAV:  12    -0.232321817440E+03    0.18872E-02   -0.23748E-03 41800   0.280E-01    0.360E+00
DAV:  13    -0.232320326311E+03    0.14911E-02   -0.98761E-04 39408   0.137E-01    0.406E+00
DAV:  14    -0.232316883061E+03    0.34432E-02   -0.67781E-04 40008   0.179E-01    0.415E+00
DAV:  15    -0.232317303697E+03   -0.42064E-03   -0.18278E-03 43784   0.270E-01    0.434E+00
DAV:  16    -0.232316047984E+03    0.12557E-02   -0.14027E-03 43552   0.226E-01    0.432E+00
DAV:  17    -0.232315212007E+03    0.83598E-03   -0.96997E-04 44696   0.155E-01    0.413E+00
DAV:  18    -0.232312767982E+03    0.24440E-02   -0.23324E-03 45416   0.344E-01    0.316E+00
DAV:  19    -0.232313287237E+03   -0.51926E-03   -0.10717E-02 43576   0.595E-01    0.133E+00
DAV:  20    -0.232320117680E+03   -0.68304E-02   -0.62251E-03 36784   0.290E-01    0.115E+00
DAV:  21    -0.232322233456E+03   -0.21158E-02   -0.13971E-03 36288   0.154E-01    0.145E+00
DAV:  22    -0.232322876363E+03   -0.64291E-03   -0.18065E-03 40704   0.191E-01    0.234E+00
DAV:  23    -0.232321356238E+03    0.15201E-02   -0.30760E-03 38744   0.266E-01    0.319E+00
DAV:  24    -0.232321884262E+03   -0.52802E-03   -0.27924E-03 40632   0.244E-01    0.400E+00
DAV:  25    -0.232320833604E+03    0.10507E-02   -0.12659E-03 38704   0.199E-01    0.430E+00
DAV:  26    -0.232320729776E+03    0.10383E-03   -0.79197E-04 42216   0.215E-01    0.455E+00
DAV:  27    -0.232321043876E+03   -0.31410E-03   -0.60922E-04 44376   0.164E-01    0.471E+00
DAV:  28    -0.232320680868E+03    0.36301E-03   -0.31735E-04 43944   0.103E-01    0.471E+00
DAV:  29    -0.232319345063E+03    0.13358E-02   -0.17674E-04 40672   0.938E-02    0.458E+00
DAV:  30    -0.232318593703E+03    0.75136E-03   -0.13614E-04 39152   0.774E-02    0.444E+00
DAV:  31    -0.232317878343E+03    0.71536E-03   -0.12294E-04 38656   0.663E-02    0.427E+00
DAV:  32    -0.232317838147E+03    0.40196E-04   -0.83002E-05 36320   0.378E-02    0.417E+00
DAV:  33    -0.232317173864E+03    0.66428E-03   -0.13028E-04 36136   0.514E-02    0.397E+00
DAV:  34    -0.232316052291E+03    0.11216E-02   -0.34458E-04 42352   0.734E-02    0.363E+00
DAV:  35    -0.232314495415E+03    0.15569E-02   -0.86371E-04 43336   0.117E-01    0.304E+00
DAV:  36    -0.232314541624E+03   -0.46209E-04   -0.79903E-04 40736   0.113E-01    0.246E+00
DAV:  37    -0.232315769751E+03   -0.12281E-02   -0.49413E-04 39528   0.883E-02    0.204E+00
DAV:  38    -0.232317256977E+03   -0.14872E-02   -0.22885E-04 35392   0.540E-02    0.181E+00
DAV:  39    -0.232318531453E+03   -0.12745E-02   -0.71999E-05 31400   0.323E-02    0.173E+00
DAV:  40    -0.232319279314E+03   -0.74786E-03   -0.23832E-05 26664   0.239E-02    0.171E+00
DAV:  41    -0.232319142293E+03    0.13702E-03   -0.37057E-04 43608   0.112E-01    0.122E+00
DAV:  42    -0.232320484397E+03   -0.13421E-02   -0.24281E-04 34336   0.498E-02    0.101E+00
DAV:  43    -0.232321466461E+03   -0.98206E-03   -0.86655E-05 32360   0.367E-02    0.823E-01
DAV:  44    -0.232322107707E+03   -0.64125E-03   -0.73910E-05 32008   0.314E-02    0.624E-01
DAV:  45    -0.232322674423E+03   -0.56672E-03   -0.67451E-05 31488   0.322E-02    0.432E-01
DAV:  46    -0.232323103856E+03   -0.42943E-03   -0.60872E-05 31640   0.290E-02    0.271E-01
DAV:  47    -0.232323364013E+03   -0.26016E-03   -0.37848E-05 28336   0.239E-02    0.139E-01
DAV:  48    -0.232323505575E+03   -0.14156E-03   -0.21974E-05 24792   0.184E-02    0.512E-02
DAV:  49    -0.232323557751E+03   -0.52177E-04   -0.99136E-06 21368   0.130E-02    0.186E-02
[...]
DAV:  22    -0.231961756626E+03    0.23059E-06   -0.12456E-05 19600   0.241E-02
 188 F= -.23196176E+03 E0= -.23194678E+03  d E =0.376984E-02  mag=     9.2304
       N       E                     dE             d eps       ncg     rms          rms(c)
DAV:   1    -0.231926381934E+03    0.35375E-01   -0.12514E+00 35088   0.889E+00    0.561E-01
DAV:   2    -0.231965742749E+03   -0.39361E-01   -0.40239E-01 35280   0.169E+00    0.107E+00
DAV:   3    -0.231968570288E+03   -0.28275E-02   -0.33524E-02 38416   0.955E-01    0.198E+00
DAV:   4    -0.231963544084E+03    0.50262E-02   -0.14596E-02 37208   0.659E-01    0.105E+00
DAV:   5    -0.231964561319E+03   -0.10172E-02   -0.48573E-03 37488   0.463E-01    0.259E-01
DAV:   6    -0.231964904798E+03   -0.34348E-03   -0.71639E-04 41488   0.197E-01    0.282E-01
DAV:   7    -0.231964843425E+03    0.61373E-04   -0.30555E-04 42552   0.941E-02    0.247E-01
DAV:   8    -0.231964815288E+03    0.28137E-04   -0.38059E-05 26256   0.192E-02    0.264E-01
DAV:   9    -0.231964653316E+03    0.16197E-03   -0.56719E-04 40448   0.107E-01    0.198E-01
DAV:  10    -0.231964928236E+03   -0.27492E-03   -0.80255E-04 39576   0.186E-01    0.327E-01
DAV:  11    -0.231964858351E+03    0.69885E-04   -0.61096E-04 38240   0.154E-01    0.315E-01
DAV:  12    -0.231964778681E+03    0.79670E-04   -0.19610E-04 33424   0.848E-02    0.293E-01
DAV:  13    -0.231964737220E+03    0.41461E-04   -0.14129E-04 30800   0.726E-02    0.205E-01
DAV:  14    -0.231964786715E+03   -0.49496E-04   -0.90564E-05 31192   0.595E-02    0.190E-01
DAV:  15    -0.231964806683E+03   -0.19967E-04   -0.45726E-05 25520   0.457E-02    0.218E-01
DAV:  16    -0.231964791666E+03    0.15017E-04   -0.28548E-05 22448   0.354E-02    0.231E-01
DAV:  17    -0.231964762126E+03    0.29540E-04   -0.19577E-05 21384   0.324E-02    0.221E-01
DAV:  18    -0.231964763472E+03   -0.13456E-05   -0.18600E-05 21864   0.369E-02
 189 F= -.23196476E+03 E0= -.23194990E+03  d E =-.300685E-02  mag=     9.2278
       N       E                     dE             d eps       ncg     rms          rms(c)
DAV:   1    -0.231959777532E+03    0.49846E-02   -0.45680E-01 34192   0.407E+00    0.343E-01
DAV:   2    -0.231969111921E+03   -0.93344E-02   -0.80634E-02 35584   0.882E-01    0.140E+00
DAV:   3    -0.231966414672E+03    0.26972E-02   -0.49562E-03 38216   0.396E-01    0.642E-01
DAV:   4    -0.231966965001E+03   -0.55033E-03   -0.52225E-04 34672   0.808E-02    0.626E-01
DAV:   5    -0.231966888273E+03    0.76729E-04   -0.25394E-04 39184   0.662E-02    0.716E-01
DAV:   6    -0.231965915490E+03    0.97278E-03   -0.41033E-03 39856   0.316E-01    0.729E-01
DAV:   7    -0.231967240475E+03   -0.13250E-02   -0.75787E-03 41896   0.361E-01    0.154E+00
DAV:   8    -0.231964721746E+03    0.25187E-02   -0.28689E-03 38776   0.326E-01    0.173E+00
DAV:   9    -0.231961584028E+03    0.31377E-02   -0.11745E-03 40392   0.254E-01    0.109E+00
DAV:  10    -0.231963131974E+03   -0.15479E-02   -0.66130E-04 41776   0.148E-01    0.752E-01
DAV:  11    -0.231965034931E+03   -0.19030E-02   -0.31684E-04 36264   0.110E-01    0.890E-01
DAV:  12    -0.231965088114E+03   -0.53183E-04   -0.11480E-04 35664   0.750E-02    0.995E-01
DAV:  13    -0.231964521814E+03    0.56630E-03   -0.64603E-05 31152   0.547E-02    0.976E-01
DAV:  14    -0.231964386694E+03    0.13512E-03   -0.45292E-05 29376   0.456E-02    0.991E-01
DAV:  15    -0.231964334746E+03    0.51948E-04   -0.18284E-05 23056   0.209E-02    0.104E+00
DAV:  16    -0.231964298651E+03    0.36094E-04   -0.10167E-05 20408   0.200E-02    0.102E+00
DAV:  17    -0.231964385672E+03   -0.87020E-04   -0.70476E-05 27024   0.353E-02    0.844E-01
DAV:  18    -0.231965043590E+03   -0.65792E-03   -0.16117E-04 39256   0.573E-02    0.592E-01
DAV:  19    -0.231966015041E+03   -0.97145E-03   -0.29323E-04 39416   0.690E-02    0.257E-01
DAV:  20    -0.231966831727E+03   -0.81669E-03   -0.21887E-04 37072   0.650E-02    0.181E-01
DAV:  21    -0.231967091239E+03   -0.25951E-03   -0.13117E-04 35920   0.526E-02    0.299E-01
DAV:  22    -0.231967004902E+03    0.86337E-04   -0.64046E-05 33968   0.435E-02    0.341E-01
DAV:  23    -0.231966899775E+03    0.10513E-03   -0.19085E-05 25104   0.361E-02    0.287E-01
DAV:  24    -0.231966895014E+03    0.47617E-05   -0.19412E-05 22328   0.315E-02
 190 F= -.23196690E+03 E0= -.23195212E+03  d E =-.213154E-02  mag=     9.2262
       N       E                     dE             d eps       ncg     rms          rms(c)
DAV:   1    -0.231961341667E+03    0.55581E-02   -0.38155E-01 33888   0.427E+00    0.287E-01
DAV:   2    -0.231971991021E+03   -0.10649E-01   -0.96939E-02 35488   0.884E-01    0.140E+00
DAV:   3    -0.231968565247E+03    0.34258E-02   -0.82712E-03 38720   0.493E-01    0.298E-01
DAV:   4    -0.231970474926E+03   -0.19097E-02   -0.10422E-03 37488   0.248E-01    0.249E-01
DAV:   5    -0.231970403094E+03    0.71832E-04   -0.52195E-04 38312   0.158E-01    0.184E-01
DAV:   6    -0.231970413380E+03   -0.10287E-04   -0.18606E-04 33408   0.781E-02    0.197E-01
DAV:   7    -0.231970384826E+03    0.28554E-04   -0.45590E-05 25672   0.350E-02    0.217E-01
DAV:   8    -0.231970377659E+03    0.71666E-05   -0.50983E-05 23152   0.352E-02
 191 F= -.23197038E+03 E0= -.23195571E+03  d E =-.348265E-02  mag=     9.2249
       N       E                     dE             d eps       ncg     rms          rms(c)
DAV:   1    -0.231950636770E+03    0.19748E-01   -0.13612E+00 33816   0.711E+00    0.584E-01
DAV:   2    -0.232000549708E+03   -0.49913E-01   -0.36931E-01 37528   0.183E+00    0.510E+00
DAV:   3    -0.231957798380E+03    0.42751E-01   -0.72778E-02 39888   0.138E+00    0.130E+00
DAV:   4    -0.231969299735E+03   -0.11501E-01   -0.62912E-03 38000   0.450E-01    0.750E-01
DAV:   5    -0.231973997015E+03   -0.46973E-02   -0.89510E-03 37744   0.464E-01    0.530E-01
DAV:   6    -0.231974810415E+03   -0.81340E-03   -0.17682E-03 40664   0.253E-01    0.665E-01
DAV:   7    -0.231974416025E+03    0.39439E-03   -0.49588E-04 41696   0.124E-01    0.712E-01
DAV:   8    -0.231974264558E+03    0.15147E-03   -0.15357E-04 38384   0.683E-02    0.967E-01
DAV:   9    -0.231973892743E+03    0.37182E-03   -0.16195E-04 34200   0.791E-02    0.106E+00
DAV:  10    -0.231973299454E+03    0.59329E-03   -0.59073E-04 43624   0.159E-01    0.694E-01
DAV:  11    -0.231973781216E+03   -0.48176E-03   -0.21757E-03 42352   0.286E-01    0.320E-01
DAV:  12    -0.231974751852E+03   -0.97064E-03   -0.19180E-03 39856   0.213E-01    0.589E-01
DAV:  13    -0.231974477061E+03    0.27479E-03   -0.75668E-04 38800   0.141E-01    0.631E-01
DAV:  14    -0.231974034153E+03    0.44291E-03   -0.23483E-04 39648   0.666E-02    0.545E-01
DAV:  15    -0.231973986102E+03    0.48051E-04   -0.43352E-05 25976   0.182E-02    0.547E-01
DAV:  16    -0.231973906095E+03    0.80007E-04   -0.17310E-04 28312   0.713E-02    0.353E-01
DAV:  17    -0.231974422757E+03   -0.51666E-03   -0.24491E-04 40848   0.107E-01    0.365E-01
DAV:  18    -0.231974545048E+03   -0.12229E-03   -0.19789E-04 40208   0.869E-02    0.401E-01
DAV:  19    -0.231974506549E+03    0.38499E-04   -0.12053E-04 39504   0.700E-02    0.447E-01
DAV:  20    -0.231974382074E+03    0.12447E-03   -0.61397E-05 30984   0.566E-02    0.443E-01
DAV:  21    -0.231974308633E+03    0.73441E-04   -0.39410E-05 24336   0.346E-02    0.380E-01
DAV:  22    -0.231974335753E+03   -0.27120E-04   -0.24698E-05 22392   0.357E-02    0.277E-01
DAV:  23    -0.231974422399E+03   -0.86646E-04   -0.35445E-05 24904   0.345E-02    0.198E-01
DAV:  24    -0.231974507086E+03   -0.84687E-04   -0.23373E-05 25032   0.309E-02    0.179E-01
DAV:  25    -0.231974542495E+03   -0.35409E-04   -0.76763E-06 20408   0.178E-02    0.166E-01
DAV:  26    -0.231974559318E+03   -0.16823E-04   -0.47631E-06 17688   0.114E-02    0.166E-01
DAV:  27    -0.231974564318E+03   -0.50003E-05   -0.30572E-06 17728   0.881E-03
 192 F= -.23197456E+03 E0= -.23195977E+03  d E =-.418666E-02  mag=     9.2257
       N       E                     dE             d eps       ncg     rms          rms(c)
DAV:   1    -0.231944581575E+03    0.29978E-01   -0.12443E+00 35072   0.829E+00    0.516E-01
DAV:   2    -0.231978575270E+03   -0.33994E-01   -0.30721E-01 35832   0.165E+00    0.267E+00
DAV:   3    -0.231966122837E+03    0.12452E-01   -0.31882E-02 37880   0.913E-01    0.621E-01
DAV:   4    -0.231972727821E+03   -0.66050E-02   -0.73659E-03 37712   0.547E-01    0.713E-01
DAV:   5    -0.231972123980E+03    0.60384E-03   -0.18740E-03 40912   0.248E-01    0.493E-01
DAV:   6    -0.231971919118E+03    0.20486E-03   -0.38878E-04 40720   0.978E-02    0.601E-01
DAV:   7    -0.231971624749E+03    0.29437E-03   -0.43112E-04 39728   0.128E-01    0.650E-01
DAV:   8    -0.231971833033E+03   -0.20828E-03   -0.38462E-04 42160   0.118E-01    0.615E-01
DAV:   9    -0.231971950742E+03   -0.11771E-03   -0.19260E-03 43280   0.369E-01    0.490E-01
DAV:  10    -0.231971906251E+03    0.44491E-04   -0.20023E-03 43384   0.286E-01    0.446E-01
DAV:  11    -0.231971953375E+03   -0.47124E-04   -0.10770E-03 40568   0.180E-01    0.420E-01
DAV:  12    -0.231971957423E+03   -0.40487E-05   -0.56476E-04 42176   0.131E-01    0.305E-01
DAV:  13    -0.231972008125E+03   -0.50702E-04   -0.30388E-04 38496   0.839E-02    0.270E-01
DAV:  14    -0.231972092443E+03   -0.84318E-04   -0.18169E-04 37856   0.754E-02    0.220E-01
DAV:  15    -0.231972137861E+03   -0.45418E-04   -0.17758E-04 38120   0.877E-02    0.203E-01
DAV:  16    -0.231972167334E+03   -0.29474E-04   -0.17538E-04 40056   0.103E-01    0.184E-01
DAV:  17    -0.231972144477E+03    0.22858E-04   -0.14700E-04 37224   0.108E-01    0.110E-01
DAV:  18    -0.231972137249E+03    0.72278E-05   -0.67476E-05 30344   0.702E-02
 193 F= -.23197214E+03 E0= -.23195722E+03  d E =0.242707E-02  mag=     9.2283
       N       E                     dE             d eps       ncg     rms          rms(c)
DAV:   1    -0.231935154610E+03    0.36990E-01   -0.10364E+00 38120   0.855E+00    0.492E-01
DAV:   2    -0.231966017409E+03   -0.30863E-01   -0.32021E-01 35064   0.150E+00    0.752E-01
DAV:   3    -0.231967666475E+03   -0.16491E-02   -0.14924E-02 38984   0.823E-01    0.138E+00
DAV:   4    -0.231965844373E+03    0.18221E-02   -0.68881E-03 38240   0.512E-01    0.106E+00
DAV:   5    -0.231964855584E+03    0.98879E-03   -0.40079E-03 37360   0.405E-01    0.261E-01
DAV:   6    -0.231965413992E+03   -0.55841E-03   -0.74819E-04 39512   0.200E-01    0.285E-01
DAV:   7    -0.231965391397E+03    0.22595E-04   -0.85327E-04 41072   0.157E-01    0.235E-01
DAV:   8    -0.231965388413E+03    0.29835E-05   -0.32201E-04 38152   0.108E-01    0.249E-01
DAV:   9    -0.231965345891E+03    0.42523E-04   -0.67717E-05 29640   0.386E-02    0.275E-01
DAV:  10    -0.231965503601E+03   -0.15771E-03   -0.35583E-04 37552   0.119E-01    0.610E-01
DAV:  11    -0.231965375605E+03    0.12800E-03   -0.54004E-04 40272   0.131E-01    0.819E-01
DAV:  12    -0.231965131609E+03    0.24400E-03   -0.17588E-04 38376   0.645E-02    0.953E-01
DAV:  13    -0.231964912313E+03    0.21930E-03   -0.63224E-05 29800   0.434E-02    0.108E+00
DAV:  14    -0.231964683018E+03    0.22930E-03   -0.51058E-05 32224   0.393E-02    0.117E+00
DAV:  15    -0.231964230499E+03    0.45252E-03   -0.84389E-05 34760   0.555E-02    0.108E+00
DAV:  16    -0.231963777714E+03    0.45278E-03   -0.50768E-04 42472   0.151E-01    0.532E-01
DAV:  17    -0.231964667552E+03   -0.88984E-03   -0.61193E-04 40920   0.153E-01    0.170E-01
DAV:  18    -0.231965408505E+03   -0.74095E-03   -0.43403E-04 39376   0.128E-01    0.294E-01
DAV:  19    -0.231965383420E+03    0.25085E-04   -0.18613E-04 39256   0.802E-02    0.241E-01
DAV:  20    -0.231965324193E+03    0.59227E-04   -0.48938E-05 33960   0.432E-02    0.178E-01
DAV:  21    -0.231965342772E+03   -0.18579E-04   -0.27249E-05 23832   0.316E-02    0.114E-01
DAV:  22    -0.231965366808E+03   -0.24036E-04   -0.21303E-05 24472   0.248E-02    0.496E-02
DAV:  23    -0.231965386654E+03   -0.19847E-04   -0.12186E-05 22032   0.222E-02    0.356E-02
DAV:  24    -0.231965390466E+03   -0.38120E-05   -0.71251E-06 19648   0.184E-02
 194 F= -.23196539E+03 E0= -.23195046E+03  d E =0.674678E-02  mag=     9.2225
       N       E                     dE             d eps       ncg     rms          rms(c)
DAV:   1    -0.231842756998E+03    0.12263E+00   -0.43394E+00 34976   0.158E+01    0.954E-01
DAV:   2    -0.231948995036E+03   -0.10624E+00   -0.10648E+00 34744   0.298E+00    0.260E+00
DAV:   3    -0.231949181082E+03   -0.18605E-03   -0.91049E-02 37784   0.151E+00    0.300E+00
DAV:   4    -0.231942455436E+03    0.67256E-02   -0.37531E-02 37672   0.114E+00    0.169E+00
DAV:   5    -0.231941703113E+03    0.75232E-03   -0.14004E-02 37512   0.745E-01    0.765E-01
DAV:   6    -0.231943113438E+03   -0.14103E-02   -0.77057E-03 40240   0.472E-01    0.651E-01
DAV:   7    -0.231944259513E+03   -0.11461E-02   -0.40638E-03 41096   0.423E-01    0.995E-01
DAV:   8    -0.231944529464E+03   -0.26995E-03   -0.17769E-03 39608   0.363E-01    0.132E+00
DAV:   9    -0.231942959102E+03    0.15704E-02   -0.11379E-03 41776   0.250E-01    0.119E+00
DAV:  10    -0.231942208784E+03    0.75032E-03   -0.41529E-04 44520   0.150E-01    0.895E-01
DAV:  11    -0.231942200005E+03    0.87782E-05   -0.87433E-04 43080   0.199E-01    0.220E-01
DAV:  12    -0.231943431465E+03   -0.12315E-02   -0.59092E-04 40808   0.170E-01    0.390E-01
DAV:  13    -0.231943594477E+03   -0.16301E-03   -0.51573E-04 40408   0.169E-01    0.453E-01
DAV:  14    -0.231943288690E+03    0.30579E-03   -0.24151E-04 41664   0.102E-01    0.248E-01
DAV:  15    -0.231943362721E+03   -0.74030E-04   -0.14248E-04 34904   0.703E-02    0.108E-01
DAV:  16    -0.231943498255E+03   -0.13553E-03   -0.89191E-05 29016   0.486E-02    0.159E-01
DAV:  17    -0.231943519517E+03   -0.21262E-04   -0.58171E-05 29152   0.453E-02    0.190E-01
DAV:  18    -0.231943486642E+03    0.32875E-04   -0.15783E-05 21320   0.177E-02    0.187E-01
DAV:  19    -0.231943465058E+03    0.21584E-04   -0.44457E-06 19448   0.142E-02    0.198E-01
DAV:  20    -0.231943460835E+03    0.42234E-05   -0.10997E-05 19296   0.242E-02
 195 F= -.23194346E+03 E0= -.23192866E+03  d E =0.219296E-01  mag=     9.2112
       N       E                     dE             d eps       ncg     rms          rms(c)
DAV:   1    -0.231849509313E+03    0.93956E-01   -0.31024E+00 37448   0.146E+01    0.986E-01
DAV:   2    -0.231990357823E+03   -0.14085E+00   -0.11756E+00 39472   0.311E+00    0.642E+00
DAV:   3    -0.231914855287E+03    0.75503E-01   -0.14126E-01 39656   0.213E+00    0.135E+00
DAV:   4    -0.231932388096E+03   -0.17533E-01   -0.24269E-02 38720   0.951E-01    0.153E+00
DAV:   5    -0.231932913208E+03   -0.52511E-03   -0.31891E-02 39576   0.788E-01    0.747E-01
DAV:   6    -0.231934845414E+03   -0.19322E-02   -0.52493E-03 39640   0.438E-01    0.742E-01
DAV:   7    -0.231934518820E+03    0.32659E-03   -0.13832E-03 42072   0.205E-01    0.783E-01
DAV:   8    -0.231934511536E+03    0.72840E-05   -0.54230E-04 42584   0.128E-01    0.123E+00
DAV:   9    -0.231933733649E+03    0.77789E-03   -0.25466E-04 39064   0.898E-02    0.135E+00
DAV:  10    -0.231932884533E+03    0.84912E-03   -0.64695E-04 42736   0.168E-01    0.118E+00
DAV:  11    -0.231932594174E+03    0.29036E-03   -0.18822E-03 42976   0.314E-01    0.691E-01
DAV:  12    -0.231934195111E+03   -0.16009E-02   -0.37397E-03 43696   0.317E-01    0.727E-01
DAV:  13    -0.231935144016E+03   -0.94890E-03   -0.28189E-03 39528   0.283E-01    0.102E+00
DAV:  14    -0.231933938876E+03    0.12051E-02   -0.10407E-03 41496   0.190E-01    0.871E-01
DAV:  15    -0.231933620242E+03    0.31863E-03   -0.78416E-04 45848   0.155E-01    0.566E-01
DAV:  16    -0.231934120981E+03   -0.50074E-03   -0.45510E-04 43688   0.132E-01    0.291E-01
DAV:  17    -0.231934533879E+03   -0.41290E-03   -0.29258E-04 42840   0.113E-01    0.203E-01
DAV:  18    -0.231934595772E+03   -0.61893E-04   -0.22294E-04 41640   0.107E-01    0.154E-01
DAV:  19    -0.231934615304E+03   -0.19532E-04   -0.12144E-04 33904   0.797E-02    0.152E-01
DAV:  20    -0.231934654931E+03   -0.39627E-04   -0.10625E-04 32888   0.797E-02    0.250E-01
DAV:  21    -0.231934569680E+03    0.85251E-04   -0.40451E-05 28600   0.516E-02    0.194E-01
DAV:  22    -0.231934559595E+03    0.10085E-04   -0.26239E-05 23944   0.352E-02    0.691E-02
DAV:  23    -0.231934616165E+03   -0.56570E-04   -0.23079E-05 23328   0.364E-02    0.813E-02
DAV:  24    -0.231934616919E+03   -0.75411E-06   -0.14576E-05 21392   0.290E-02
 196 F= -.23193462E+03 E0= -.23191959E+03  d E =0.884392E-02  mag=     9.2218
       N       E                     dE             d eps       ncg     rms          rms(c)
DAV:   1    -0.231904773840E+03    0.29842E-01   -0.17171E+00 36448   0.103E+01    0.578E-01
DAV:   2    -0.231949183251E+03   -0.44409E-01   -0.45125E-01 35008   0.185E+00    0.154E+00
DAV:   3    -0.231949183301E+03   -0.50015E-07   -0.28343E-02 38200   0.898E-01    0.190E+00
DAV:   4    -0.231946846517E+03    0.23368E-02   -0.90667E-03 37200   0.667E-01    0.793E-01
DAV:   5    -0.231946918819E+03   -0.72303E-04   -0.34016E-03 38400   0.407E-01    0.218E-01
DAV:   6    -0.231947402650E+03   -0.48383E-03   -0.66869E-04 42216   0.192E-01    0.284E-01
DAV:   7    -0.231947398507E+03    0.41428E-05   -0.81638E-04 41392   0.196E-01    0.268E-01
DAV:   8    -0.231947425535E+03   -0.27028E-04   -0.84233E-04 40256   0.188E-01    0.284E-01
DAV:   9    -0.231947292335E+03    0.13320E-03   -0.79604E-04 41216   0.170E-01    0.224E-01
DAV:  10    -0.231947288679E+03    0.36556E-05   -0.31895E-04 35544   0.108E-01    0.139E-01
DAV:  11    -0.231947289529E+03   -0.85040E-06   -0.13091E-04 32680   0.857E-02    0.142E-01
DAV:  12    -0.231947338678E+03   -0.49148E-04   -0.12481E-04 32888   0.727E-02    0.263E-01
DAV:  13    -0.231947263450E+03    0.75228E-04   -0.19853E-04 33464   0.929E-02    0.249E-01
DAV:  14    -0.231947224187E+03    0.39262E-04   -0.30189E-04 31528   0.771E-02    0.119E-01
DAV:  15    -0.231947314889E+03   -0.90702E-04   -0.10875E-04 28696   0.589E-02    0.116E-01
DAV:  16    -0.231947327973E+03   -0.13083E-04   -0.47436E-05 24784   0.327E-02    0.141E-01
DAV:  17    -0.231947310362E+03    0.17611E-04   -0.12036E-05 20768   0.129E-02    0.163E-01
DAV:  18    -0.231947331516E+03   -0.21154E-04   -0.21654E-05 22152   0.209E-02    0.245E-01
DAV:  19    -0.231947303463E+03    0.28053E-04   -0.22421E-05 25272   0.253E-02    0.293E-01
DAV:  20    -0.231947242430E+03    0.61033E-04   -0.10920E-05 21688   0.197E-02    0.301E-01
DAV:  21    -0.231947187955E+03    0.54475E-04   -0.12918E-05 20536   0.200E-02    0.213E-01
DAV:  22    -0.231947235623E+03   -0.47668E-04   -0.28089E-05 24408   0.303E-02    0.953E-02
DAV:  23    -0.231947307076E+03   -0.71453E-04   -0.28459E-05 27168   0.326E-02    0.404E-02
DAV:  24    -0.231947330669E+03   -0.23593E-04   -0.10829E-05 21392   0.171E-02    0.405E-02
DAV:  25    -0.231947330962E+03   -0.29316E-06   -0.45706E-06 18728   0.142E-02
 197 F= -.23194733E+03 E0= -.23193232E+03  d E =-.127140E-01  mag=     9.2227
       N       E                     dE             d eps       ncg     rms          rms(c)
DAV:   1    -0.231939304519E+03    0.80261E-02   -0.20856E-01 33512   0.285E+00    0.195E-01
DAV:   2    -0.231943402459E+03   -0.40979E-02   -0.38589E-02 35064   0.585E-01    0.771E-01
DAV:   3    -0.231942602797E+03    0.79966E-03   -0.24236E-03 37696   0.303E-01    0.311E-01
DAV:   4    -0.231943039272E+03   -0.43647E-03   -0.82949E-04 35256   0.210E-01    0.258E-01
DAV:   5    -0.231942910553E+03    0.12872E-03   -0.40141E-04 33128   0.140E-01    0.111E-01
DAV:   6    -0.231942925477E+03   -0.14924E-04   -0.13344E-04 26912   0.727E-02    0.113E-01
DAV:   7    -0.231942914744E+03    0.10733E-04   -0.69287E-05 25536   0.487E-02    0.895E-02
DAV:   8    -0.231942909146E+03    0.55977E-05   -0.25273E-05 20560   0.311E-02
 198 F= -.23194291E+03 E0= -.23192788E+03  d E =0.442182E-02  mag=     9.2223
