       N       E                     dE             d eps       ncg     rms          rms(c)
DAV:   1     0.653214258559E+04    0.65321E+04   -0.28016E+05 37608   0.153E+03
DAV:   2     0.347337214001E+03   -0.61848E+04   -0.58158E+04 38176   0.467E+02
DAV:   3    -0.376927924569E+03   -0.72427E+03   -0.71109E+03 39544   0.171E+02
DAV:   4    -0.408485613444E+03   -0.31558E+02   -0.30913E+02 49792   0.312E+01
DAV:   5    -0.410736722969E+03   -0.22511E+01   -0.22367E+01 62856   0.630E+00    0.641E+01
DAV:   6    -0.349989636358E+03    0.60747E+02   -0.29157E+02 41344   0.421E+01    0.559E+01
DAV:   7    -0.379152557081E+03   -0.29163E+02   -0.93209E+01 41120   0.328E+01    0.762E+01
DAV:   8    -0.356096329738E+03    0.23056E+02   -0.33193E+01 41088   0.190E+01    0.486E+01
DAV:   9    -0.358075300625E+03   -0.19790E+01   -0.24002E+01 42712   0.141E+01    0.482E+01
DAV:  10    -0.356865798417E+03    0.12095E+01   -0.12891E+01 42656   0.826E+00    0.292E+01
DAV:  11    -0.363872099980E+03   -0.70063E+01   -0.12612E+01 42648   0.697E+00    0.269E+01
DAV:  12    -0.367737808160E+03   -0.38657E+01   -0.19941E+01 43976   0.833E+00    0.248E+01
DAV:  13    -0.369657954664E+03   -0.19201E+01   -0.90379E+00 43224   0.527E+00    0.145E+01
DAV:  14    -0.371310966755E+03   -0.16530E+01   -0.23285E+00 44304   0.304E+00    0.146E+01
DAV:  15    -0.371936803363E+03   -0.62584E+00   -0.92269E-01 42840   0.262E+00    0.981E+00
DAV:  16    -0.373351438771E+03   -0.14146E+01   -0.83140E-01 45064   0.216E+00    0.929E+00
DAV:  17    -0.374209876300E+03   -0.85844E+00   -0.12790E+00 44256   0.200E+00    0.870E+00
DAV:  18    -0.375242640539E+03   -0.10328E+01   -0.77431E-01 43832   0.181E+00    0.430E+00
DAV:  19    -0.375578646578E+03   -0.33601E+00   -0.12402E-01 44640   0.987E-01    0.431E+00
DAV:  20    -0.375929011111E+03   -0.35036E+00   -0.89471E-02 41656   0.634E-01    0.382E+00
DAV:  21    -0.376589926896E+03   -0.66092E+00   -0.27254E-01 44744   0.103E+00    0.281E+00
DAV:  22    -0.377328349143E+03   -0.73842E+00   -0.51620E-01 43312   0.136E+00    0.357E+00
DAV:  23    -0.377363564840E+03   -0.35216E-01   -0.52059E-02 42632   0.649E-01    0.199E+00
DAV:  24    -0.377502054384E+03   -0.13849E+00   -0.56911E-02 41064   0.438E-01    0.153E+00
DAV:  25    -0.377645517039E+03   -0.14346E+00   -0.91786E-02 41800   0.498E-01    0.117E+00
DAV:  26    -0.377706871935E+03   -0.61355E-01   -0.47137E-02 42224   0.401E-01    0.127E+00
DAV:  27    -0.377714441411E+03   -0.75695E-02   -0.56143E-03 44496   0.194E-01    0.108E+00
DAV:  28    -0.377716924910E+03   -0.24835E-02   -0.26614E-03 45560   0.125E-01    0.828E-01
DAV:  29    -0.377720838360E+03   -0.39135E-02   -0.85509E-03 45784   0.195E-01    0.647E-01
DAV:  30    -0.377724222071E+03   -0.33837E-02   -0.54444E-03 40296   0.169E-01    0.699E-01
DAV:  31    -0.377724825169E+03   -0.60310E-03   -0.17666E-03 41864   0.109E-01    0.514E-01
DAV:  32    -0.377725144672E+03   -0.31950E-03   -0.14433E-03 45384   0.963E-02    0.441E-01
DAV:  33    -0.377725060680E+03    0.83992E-04   -0.44152E-04 43112   0.684E-02    0.369E-01
DAV:  34    -0.377724868977E+03    0.19170E-03   -0.60564E-04 46112   0.705E-02    0.200E-01
DAV:  35    -0.377724874480E+03   -0.55031E-05   -0.41078E-04 40336   0.510E-02    0.204E-01
DAV:  36    -0.377724828652E+03    0.45827E-04   -0.10861E-04 41288   0.293E-02    0.113E-01
DAV:  37    -0.377724828501E+03    0.15157E-06   -0.23282E-05 32936   0.139E-02
   1 F= -.37772483E+03 E0= -.37772028E+03  d E =-.377725E+03  mag=    46.0214
       N       E                     dE             d eps       ncg     rms          rms(c)
DAV:   1    -0.377826724173E+03   -0.10190E+00   -0.62943E-02 38736   0.314E-01    0.898E-02
DAV:   2    -0.377827066709E+03   -0.34254E-03   -0.29650E-03 41568   0.857E-02    0.397E-01
DAV:   3    -0.377826838170E+03    0.22854E-03   -0.35314E-04 43104   0.488E-02    0.117E-01
DAV:   4    -0.377826866586E+03   -0.28417E-04   -0.11626E-04 35560   0.188E-02    0.790E-02
DAV:   5    -0.377826862958E+03    0.36288E-05   -0.43236E-05 32456   0.179E-02
   2 F= -.37782686E+03 E0= -.37782228E+03  d E =-.102034E+00  mag=    46.0129
       N       E                     dE             d eps       ncg     rms          rms(c)
DAV:   1    -0.379904229153E+03   -0.20774E+01   -0.56485E+01 37664   0.943E+00    0.191E+00
DAV:   2    -0.380100952966E+03   -0.19672E+00   -0.25126E+00 41208   0.196E+00    0.289E+00
DAV:   3    -0.380103619738E+03   -0.26668E-02   -0.31718E-01 50104   0.844E-01    0.236E+00
DAV:   4    -0.380093863943E+03    0.97558E-02   -0.69992E-02 47296   0.519E-01    0.196E+00
DAV:   5    -0.380085489705E+03    0.83742E-02   -0.31615E-02 50256   0.404E-01    0.104E+00
DAV:   6    -0.380083491766E+03    0.19979E-02   -0.18596E-02 48704   0.410E-01    0.126E+00
DAV:   7    -0.380083327269E+03    0.16450E-03   -0.12212E-02 47944   0.261E-01    0.132E+00
DAV:   8    -0.380080373008E+03    0.29543E-02   -0.26639E-03 49184   0.210E-01    0.235E-01
DAV:   9    -0.380081367766E+03   -0.99476E-03   -0.21502E-03 42448   0.766E-02    0.349E-01
DAV:  10    -0.380081154461E+03    0.21331E-03   -0.66446E-04 45696   0.644E-02    0.139E-01
DAV:  11    -0.380081173318E+03   -0.18857E-04   -0.25687E-04 44096   0.370E-02    0.114E-01
DAV:  12    -0.380081191077E+03   -0.17759E-04   -0.72634E-05 34744   0.228E-02    0.121E-01
DAV:  13    -0.380081173475E+03    0.17602E-04   -0.69207E-05 30824   0.157E-02    0.590E-02
DAV:  14    -0.380081176024E+03   -0.25487E-05   -0.10454E-05 25176   0.965E-03
   3 F= -.38008118E+03 E0= -.38007697E+03  d E =-.225431E+01  mag=    46.0020
       N       E                     dE             d eps       ncg     rms          rms(c)
DAV:   1    -0.381357029436E+03   -0.12759E+01   -0.15523E+02 40320   0.203E+01    0.258E+00
DAV:   2    -0.381980863039E+03   -0.62383E+00   -0.68043E+00 39976   0.363E+00    0.259E+00
DAV:   3    -0.381984134406E+03   -0.32714E-02   -0.45558E-01 50280   0.105E+00    0.289E+00
DAV:   4    -0.381963474084E+03    0.20660E-01   -0.98886E-02 48560   0.638E-01    0.164E+00
DAV:   5    -0.381957148502E+03    0.63256E-02   -0.41398E-02 49400   0.444E-01    0.132E+00
DAV:   6    -0.381951869477E+03    0.52790E-02   -0.27641E-02 45424   0.509E-01    0.211E+00
DAV:   7    -0.381944496749E+03    0.73727E-02   -0.20722E-02 47312   0.429E-01    0.696E-01
DAV:   8    -0.381945905445E+03   -0.14087E-02   -0.18018E-02 50496   0.225E-01    0.535E-01
DAV:   9    -0.381945476591E+03    0.42885E-03   -0.18570E-03 44568   0.125E-01    0.327E-01
DAV:  10    -0.381945204412E+03    0.27218E-03   -0.10803E-03 49920   0.819E-02    0.145E-01
DAV:  11    -0.381945290583E+03   -0.86171E-04   -0.42716E-04 44760   0.417E-02    0.111E-01
DAV:  12    -0.381945316869E+03   -0.26286E-04   -0.80860E-05 35376   0.220E-02    0.108E-01
DAV:  13    -0.381945307382E+03    0.94874E-05   -0.29934E-05 29568   0.146E-02
   4 F= -.38194531E+03 E0= -.38194181E+03  d E =-.186413E+01  mag=    46.0004
       N       E                     dE             d eps       ncg     rms          rms(c)
DAV:   1    -0.382112988672E+03   -0.16767E+00   -0.18505E+02 41288   0.268E+01    0.296E+00
DAV:   2    -0.382945725820E+03   -0.83274E+00   -0.86112E+00 38792   0.436E+00    0.226E+00
DAV:   3    -0.382940264505E+03    0.54613E-02   -0.23167E-01 51952   0.838E-01    0.195E+00
DAV:   4    -0.382934552667E+03    0.57118E-02   -0.89906E-02 46968   0.531E-01    0.165E+00
DAV:   5    -0.382924340044E+03    0.10213E-01   -0.33159E-02 43728   0.432E-01    0.135E+00
DAV:   6    -0.382919250866E+03    0.50892E-02   -0.23639E-02 47576   0.369E-01    0.720E-01
DAV:   7    -0.382917972415E+03    0.12785E-02   -0.85763E-03 45920   0.242E-01    0.614E-01
DAV:   8    -0.382917511643E+03    0.46077E-03   -0.60914E-03 46664   0.163E-01    0.330E-01
DAV:   9    -0.382917413648E+03    0.97995E-04   -0.20482E-03 51040   0.110E-01    0.242E-01
DAV:  10    -0.382917450364E+03   -0.36716E-04   -0.87351E-04 45384   0.613E-02    0.163E-01
DAV:  11    -0.382917487487E+03   -0.37122E-04   -0.20907E-04 47952   0.301E-02    0.142E-01
DAV:  12    -0.382917473929E+03    0.13557E-04   -0.45106E-05 35272   0.202E-02    0.120E-01
DAV:  13    -0.382917448013E+03    0.25916E-04   -0.14274E-04 39336   0.247E-02    0.995E-02
DAV:  14    -0.382917438607E+03    0.94066E-05   -0.11483E-04 34288   0.223E-02    0.506E-02
DAV:  15    -0.382917443338E+03   -0.47307E-05   -0.28803E-05 30000   0.145E-02
   5 F= -.38291744E+03 E0= -.38291425E+03  d E =-.972136E+00  mag=    46.0001
       N       E                     dE             d eps       ncg     rms          rms(c)
DAV:   1    -0.382398261382E+03    0.51918E+00   -0.14908E+02 41360   0.299E+01    0.372E+00
DAV:   2    -0.383323122547E+03   -0.92486E+00   -0.92054E+00 38104   0.503E+00    0.403E+00
DAV:   3    -0.383337068311E+03   -0.13946E-01   -0.47534E-01 50824   0.137E+00    0.387E+00
DAV:   4    -0.383318655495E+03    0.18413E-01   -0.19639E-01 49584   0.869E-01    0.181E+00
DAV:   5    -0.383318359331E+03    0.29616E-03   -0.43086E-02 45816   0.467E-01    0.164E+00
DAV:   6    -0.383312026435E+03    0.63329E-02   -0.17175E-02 50584   0.358E-01    0.793E-01
DAV:   7    -0.383310483511E+03    0.15429E-02   -0.87888E-03 47544   0.288E-01    0.714E-01
DAV:   8    -0.383309819883E+03    0.66363E-03   -0.72152E-03 48752   0.233E-01    0.519E-01
DAV:   9    -0.383309582028E+03    0.23786E-03   -0.24840E-03 50232   0.131E-01    0.351E-01
DAV:  10    -0.383309459720E+03    0.12231E-03   -0.15154E-03 49968   0.102E-01    0.204E-01
DAV:  11    -0.383309586188E+03   -0.12647E-03   -0.71569E-04 45624   0.557E-02    0.193E-01
DAV:  12    -0.383309579721E+03    0.64673E-05   -0.19896E-04 44240   0.334E-02    0.131E-01
DAV:  13    -0.383309573242E+03    0.64786E-05   -0.87221E-05 35760   0.261E-02
   6 F= -.38330957E+03 E0= -.38330651E+03  d E =-.392130E+00  mag=    46.0000
       N       E                     dE             d eps       ncg     rms          rms(c)
DAV:   1    -0.382807220384E+03    0.50236E+00   -0.10085E+02 40904   0.273E+01    0.372E+00
DAV:   2    -0.383573936210E+03   -0.76672E+00   -0.74059E+00 37744   0.478E+00    0.978E+00
DAV:   3    -0.383495753679E+03    0.78183E-01   -0.12357E+00 48128   0.196E+00    0.480E+00
DAV:   4    -0.383488583117E+03    0.71706E-02   -0.13144E-01 46208   0.105E+00    0.211E+00
DAV:   5    -0.383501706703E+03   -0.13124E-01   -0.10128E-01 48752   0.613E-01    0.210E+00
DAV:   6    -0.383499089521E+03    0.26172E-02   -0.21750E-02 49816   0.372E-01    0.113E+00
DAV:   7    -0.383496554836E+03    0.25347E-02   -0.64385E-03 51312   0.215E-01    0.691E-01
DAV:   8    -0.383495584316E+03    0.97052E-03   -0.60719E-03 47600   0.224E-01    0.588E-01
DAV:   9    -0.383495234004E+03    0.35031E-03   -0.32282E-03 50760   0.178E-01    0.495E-01
DAV:  10    -0.383495005076E+03    0.22893E-03   -0.26623E-03 50944   0.132E-01    0.321E-01
DAV:  11    -0.383494985300E+03    0.19776E-04   -0.83630E-04 46056   0.803E-02    0.229E-01
DAV:  12    -0.383494975600E+03    0.97003E-05   -0.40578E-04 50608   0.566E-02    0.172E-01
DAV:  13    -0.383494951573E+03    0.24027E-04   -0.12642E-04 42600   0.332E-02    0.124E-01
DAV:  14    -0.383494937884E+03    0.13688E-04   -0.15083E-04 37696   0.262E-02    0.102E-01
DAV:  15    -0.383494954943E+03   -0.17059E-04   -0.11973E-04 32624   0.192E-02    0.860E-02
DAV:  16    -0.383494950747E+03    0.41958E-05   -0.14034E-05 28960   0.126E-02
   7 F= -.38349495E+03 E0= -.38349186E+03  d E =-.185378E+00  mag=    46.0000
       N       E                     dE             d eps       ncg     rms          rms(c)
DAV:   1    -0.382567478700E+03    0.92748E+00   -0.18965E+02 40472   0.373E+01    0.481E+00
DAV:   2    -0.383833993408E+03   -0.12665E+01   -0.12082E+01 37136   0.655E+00    0.133E+01
DAV:   3    -0.383683142957E+03    0.15085E+00   -0.19971E+00 46040   0.242E+00    0.582E+00
DAV:   4    -0.383678531557E+03    0.46114E-02   -0.24053E-01 46384   0.131E+00    0.232E+00
DAV:   5    -0.383691271287E+03   -0.12740E-01   -0.11571E-01 49456   0.721E-01    0.256E+00
DAV:   6    -0.383690525432E+03    0.74585E-03   -0.40494E-02 49568   0.490E-01    0.152E+00
DAV:   7    -0.383688932134E+03    0.15933E-02   -0.10423E-02 51872   0.272E-01    0.106E+00
DAV:   8    -0.383687196365E+03    0.17358E-02   -0.72562E-03 48848   0.260E-01    0.869E-01
DAV:   9    -0.383685635735E+03    0.15606E-02   -0.69163E-03 46944   0.250E-01    0.644E-01
DAV:  10    -0.383685301660E+03    0.33408E-03   -0.57063E-03 49432   0.197E-01    0.463E-01
DAV:  11    -0.383685234122E+03    0.67538E-04   -0.19244E-03 45272   0.111E-01    0.319E-01
DAV:  12    -0.383685117487E+03    0.11664E-03   -0.74920E-04 49648   0.872E-02    0.261E-01
DAV:  13    -0.383685038767E+03    0.78720E-04   -0.34580E-04 48064   0.502E-02    0.150E-01
DAV:  14    -0.383685058255E+03   -0.19488E-04   -0.39999E-04 42512   0.310E-02    0.110E-01
DAV:  15    -0.383685105819E+03   -0.47564E-04   -0.19363E-04 35624   0.214E-02    0.133E-01
DAV:  16    -0.383685082179E+03    0.23640E-04   -0.31584E-05 33152   0.186E-02    0.875E-02
DAV:  17    -0.383685067453E+03    0.14726E-04   -0.66220E-05 34440   0.183E-02    0.551E-02
DAV:  18    -0.383685069235E+03   -0.17814E-05   -0.39421E-05 27096   0.113E-02
   8 F= -.38368507E+03 E0= -.38368105E+03  d E =-.190118E+00  mag=    46.0000
       N       E                     dE             d eps       ncg     rms          rms(c)
DAV:   1    -0.381592034339E+03    0.20930E+01   -0.40674E+02 39656   0.519E+01    0.596E+00
DAV:   2    -0.383922225305E+03   -0.23302E+01   -0.23379E+01 37952   0.924E+00    0.148E+01
DAV:   3    -0.383754445444E+03    0.16778E+00   -0.19467E+00 46648   0.297E+00    0.743E+00
DAV:   4    -0.383700451216E+03    0.53994E-01   -0.47213E-01 48624   0.174E+00    0.362E+00
DAV:   5    -0.383686830288E+03    0.13621E-01   -0.21683E-01 46960   0.101E+00    0.266E+00
DAV:   6    -0.383682136668E+03    0.46936E-02   -0.71433E-02 46952   0.654E-01    0.182E+00
DAV:   7    -0.383679011740E+03    0.31249E-02   -0.22459E-02 50048   0.407E-01    0.132E+00
DAV:   8    -0.383675595560E+03    0.34162E-02   -0.95273E-03 53112   0.277E-01    0.115E+00
DAV:   9    -0.383671552742E+03    0.40428E-02   -0.17633E-02 45296   0.363E-01    0.897E-01
DAV:  10    -0.383670450494E+03    0.11022E-02   -0.14541E-02 47784   0.285E-01    0.620E-01
DAV:  11    -0.383670166503E+03    0.28399E-03   -0.40617E-03 47816   0.152E-01    0.514E-01
DAV:  12    -0.383669759582E+03    0.40692E-03   -0.18173E-03 48192   0.128E-01    0.377E-01
DAV:  13    -0.383669597847E+03    0.16173E-03   -0.24310E-03 50832   0.103E-01    0.229E-01
DAV:  14    -0.383669801343E+03   -0.20350E-03   -0.99563E-04 46360   0.674E-02    0.224E-01
DAV:  15    -0.383669786158E+03    0.15184E-04   -0.15354E-04 45256   0.338E-02    0.205E-01
DAV:  16    -0.383669713024E+03    0.73135E-04   -0.12640E-04 41936   0.272E-02    0.110E-01
DAV:  17    -0.383669706410E+03    0.66139E-05   -0.25737E-04 40488   0.303E-02    0.821E-02
DAV:  18    -0.383669713073E+03   -0.66633E-05   -0.74983E-05 31880   0.198E-02
   9 F= -.38366971E+03 E0= -.38366469E+03  d E =0.153562E-01  mag=    46.0000
       N       E                     dE             d eps       ncg     rms          rms(c)
DAV:   1    -0.382868278453E+03    0.80143E+00   -0.18196E+02 39576   0.288E+01    0.352E+00
DAV:   2    -0.383838093649E+03   -0.96982E+00   -0.10276E+01 38248   0.548E+00    0.475E+00
DAV:   3    -0.383858060533E+03   -0.19967E-01   -0.10847E+00 51704   0.172E+00    0.527E+00
DAV:   4    -0.383817563345E+03    0.40497E-01   -0.38283E-01 49328   0.104E+00    0.203E+00
DAV:   5    -0.383809514471E+03    0.80489E-02   -0.45959E-02 45040   0.648E-01    0.119E+00
DAV:   6    -0.383805641295E+03    0.38732E-02   -0.39142E-02 48656   0.539E-01    0.144E+00
DAV:   7    -0.383800967673E+03    0.46736E-02   -0.13577E-02 46608   0.336E-01    0.611E-01
DAV:   8    -0.383799382742E+03    0.15849E-02   -0.60030E-03 50968   0.231E-01    0.523E-01
DAV:   9    -0.383798792502E+03    0.59024E-03   -0.32664E-03 47288   0.179E-01    0.327E-01
DAV:  10    -0.383799176303E+03   -0.38380E-03   -0.24689E-03 49336   0.106E-01    0.314E-01
DAV:  11    -0.383799227559E+03   -0.51256E-04   -0.60938E-04 51000   0.675E-02    0.262E-01
DAV:  12    -0.383799129309E+03    0.98250E-04   -0.15825E-04 49464   0.362E-02    0.185E-01
DAV:  13    -0.383799035995E+03    0.93314E-04   -0.41462E-04 45416   0.421E-02    0.110E-01
DAV:  14    -0.383799080155E+03   -0.44161E-04   -0.33733E-04 42624   0.307E-02    0.982E-02
DAV:  15    -0.383799089094E+03   -0.89383E-05   -0.39413E-05 31280   0.161E-02
  10 F= -.38379909E+03 E0= -.38379445E+03  d E =-.129376E+00  mag=    46.0000
       N       E                     dE             d eps       ncg     rms          rms(c)
DAV:   1    -0.383843645091E+03   -0.44565E-01   -0.74904E+00 38432   0.652E+00    0.941E-01
DAV:   2    -0.383883641258E+03   -0.39996E-01   -0.42827E-01 37728   0.124E+00    0.204E+00
DAV:   3    -0.383877146783E+03    0.64945E-02   -0.39827E-02 48624   0.490E-01    0.643E-01
DAV:   4    -0.383877213249E+03   -0.66466E-04   -0.45800E-03 46056   0.193E-01    0.514E-01
DAV:   5    -0.383876751767E+03    0.46148E-03   -0.49185E-03 46952   0.163E-01    0.408E-01
DAV:   6    -0.383876741603E+03    0.10164E-04   -0.21821E-03 43792   0.103E-01    0.429E-01
DAV:   7    -0.383876454310E+03    0.28729E-03   -0.88702E-04 51432   0.682E-02    0.236E-01
DAV:   8    -0.383876378255E+03    0.76056E-04   -0.18204E-04 47264   0.345E-02    0.132E-01
DAV:   9    -0.383876349030E+03    0.29225E-04   -0.38806E-04 42592   0.411E-02    0.133E-01
DAV:  10    -0.383876364351E+03   -0.15321E-04   -0.24355E-04 44784   0.349E-02    0.983E-02
DAV:  11    -0.383876373286E+03   -0.89356E-05   -0.61293E-05 39592   0.218E-02
  11 F= -.38387637E+03 E0= -.38387132E+03  d E =-.772842E-01  mag=    46.0000
       N       E                     dE             d eps       ncg     rms          rms(c)
DAV:   1    -0.383840031362E+03    0.36333E-01   -0.16519E+01 38824   0.102E+01    0.134E+00
DAV:   2    -0.383929548085E+03   -0.89517E-01   -0.90733E-01 37552   0.190E+00    0.301E+00
DAV:   3    -0.383916026064E+03    0.13522E-01   -0.80917E-02 48376   0.685E-01    0.966E-01
DAV:   4    -0.383916131395E+03   -0.10533E-03   -0.15055E-02 47472   0.299E-01    0.785E-01
DAV:   5    -0.383915148450E+03    0.98295E-03   -0.10686E-02 47224   0.232E-01    0.591E-01
DAV:   6    -0.383915229231E+03   -0.80782E-04   -0.50483E-03 44336   0.154E-01    0.611E-01
DAV:   7    -0.383914945148E+03    0.28408E-03   -0.24090E-03 51328   0.103E-01    0.384E-01
DAV:   8    -0.383914858950E+03    0.86199E-04   -0.29028E-04 46832   0.494E-02    0.298E-01
DAV:   9    -0.383914672002E+03    0.18695E-03   -0.46807E-04 47696   0.554E-02    0.249E-01
DAV:  10    -0.383914583107E+03    0.88895E-04   -0.73244E-04 44032   0.627E-02    0.203E-01
DAV:  11    -0.383914601826E+03   -0.18719E-04   -0.64468E-04 47368   0.603E-02    0.194E-01
DAV:  12    -0.383914550832E+03    0.50993E-04   -0.17937E-04 44344   0.431E-02    0.115E-01
DAV:  13    -0.383914531682E+03    0.19151E-04   -0.84304E-05 41808   0.217E-02    0.386E-02
DAV:  14    -0.383914535034E+03   -0.33525E-05   -0.29249E-05 27976   0.126E-02
  12 F= -.38391454E+03 E0= -.38390897E+03  d E =-.381617E-01  mag=    46.0000
       N       E                     dE             d eps       ncg     rms          rms(c)
DAV:   1    -0.383846303560E+03    0.68228E-01   -0.21956E+01 39392   0.122E+01    0.120E+00
DAV:   2    -0.383941615262E+03   -0.95312E-01   -0.92386E-01 37088   0.206E+00    0.213E+00
DAV:   3    -0.383937040589E+03    0.45747E-02   -0.62443E-02 50624   0.594E-01    0.132E+00
DAV:   4    -0.383935256038E+03    0.17846E-02   -0.11341E-02 45832   0.271E-01    0.512E-01
DAV:   5    -0.383934898497E+03    0.35754E-03   -0.41920E-03 48896   0.169E-01    0.432E-01
DAV:   6    -0.383934849071E+03    0.49427E-04   -0.32075E-03 44848   0.121E-01    0.408E-01
DAV:   7    -0.383934898135E+03   -0.49064E-04   -0.11935E-03 48072   0.849E-02    0.323E-01
DAV:   8    -0.383934876340E+03    0.21795E-04   -0.18521E-04 45304   0.386E-02    0.277E-01
DAV:   9    -0.383934748098E+03    0.12824E-03   -0.12868E-04 42680   0.333E-02    0.198E-01
DAV:  10    -0.383934652952E+03    0.95146E-04   -0.62681E-04 45400   0.495E-02    0.166E-01
DAV:  11    -0.383934633624E+03    0.19329E-04   -0.30919E-04 45744   0.545E-02    0.100E-01
DAV:  12    -0.383934628583E+03    0.50403E-05   -0.10430E-04 44376   0.301E-02    0.412E-02
DAV:  13    -0.383934628381E+03    0.20184E-06   -0.33423E-05 31416   0.139E-02
  13 F= -.38393463E+03 E0= -.38392862E+03  d E =-.200933E-01  mag=    46.0000
       N       E                     dE             d eps       ncg     rms          rms(c)
DAV:   1    -0.379354683524E+03    0.45799E+01   -0.45097E+02 39464   0.586E+01    0.741E+00
DAV:   2    -0.383243303064E+03   -0.38886E+01   -0.40761E+01 37024   0.107E+01    0.571E+00
DAV:   3    -0.383324624771E+03   -0.81322E-01   -0.14596E+00 53256   0.217E+00    0.627E+00
DAV:   4    -0.383249394566E+03    0.75230E-01   -0.68882E-01 47256   0.157E+00    0.370E+00
DAV:   5    -0.383237374657E+03    0.12020E-01   -0.14795E-01 47544   0.932E-01    0.295E+00
DAV:   6    -0.383216108451E+03    0.21266E-01   -0.95247E-02 45704   0.776E-01    0.147E+00
DAV:   7    -0.383216482387E+03   -0.37394E-03   -0.64401E-02 45800   0.630E-01    0.200E+00
DAV:   8    -0.383209284249E+03    0.71981E-02   -0.19279E-02 47448   0.446E-01    0.804E-01
DAV:   9    -0.383208309786E+03    0.97446E-03   -0.13717E-02 50872   0.228E-01    0.659E-01
DAV:  10    -0.383207891146E+03    0.41864E-03   -0.66652E-03 45136   0.234E-01    0.481E-01
DAV:  11    -0.383208773828E+03   -0.88268E-03   -0.27830E-03 49896   0.115E-01    0.499E-01
DAV:  12    -0.383208671473E+03    0.10236E-03   -0.11131E-03 51072   0.834E-02    0.431E-01
DAV:  13    -0.383208285985E+03    0.38549E-03   -0.76859E-04 50168   0.644E-02    0.177E-01
DAV:  14    -0.383208294997E+03   -0.90121E-05   -0.56819E-04 45736   0.516E-02    0.139E-01
DAV:  15    -0.383208297630E+03   -0.26333E-05   -0.20461E-04 43088   0.440E-02    0.101E-01
DAV:  16    -0.383208285094E+03    0.12536E-04   -0.86713E-05 42992   0.269E-02    0.651E-02
DAV:  17    -0.383208283645E+03    0.14490E-05   -0.68076E-05 34496   0.211E-02
  14 F= -.38320828E+03 E0= -.38320231E+03  d E =0.726345E+00  mag=    46.0000
       N       E                     dE             d eps       ncg     rms          rms(c)
DAV:   1    -0.381532658167E+03    0.16756E+01   -0.24558E+02 40856   0.410E+01    0.683E+00
DAV:   2    -0.384376478992E+03   -0.28438E+01   -0.29395E+01 37544   0.889E+00    0.169E+01
DAV:   3    -0.384102101562E+03    0.27438E+00   -0.21028E+00 50160   0.344E+00    0.740E+00
DAV:   4    -0.384066713455E+03    0.35388E-01   -0.69900E-01 50296   0.192E+00    0.331E+00
DAV:   5    -0.384058051523E+03    0.86619E-02   -0.22609E-01 50952   0.111E+00    0.313E+00
DAV:   6    -0.384039034338E+03    0.19017E-01   -0.59955E-02 47736   0.739E-01    0.146E+00
DAV:   7    -0.384032967937E+03    0.60664E-02   -0.29157E-02 45296   0.598E-01    0.132E+00
DAV:   8    -0.384029592379E+03    0.33756E-02   -0.27319E-02 50912   0.439E-01    0.108E+00
DAV:   9    -0.384028990490E+03    0.60189E-03   -0.14053E-02 52160   0.283E-01    0.822E-01
DAV:  10    -0.384028403778E+03    0.58671E-03   -0.24523E-03 49424   0.140E-01    0.658E-01
DAV:  11    -0.384027394711E+03    0.10091E-02   -0.30983E-03 52464   0.116E-01    0.526E-01
DAV:  12    -0.384027301107E+03    0.93604E-04   -0.77105E-03 44168   0.171E-01    0.493E-01
DAV:  13    -0.384027499453E+03   -0.19835E-03   -0.17346E-03 48608   0.125E-01    0.387E-01
DAV:  14    -0.384027294150E+03    0.20530E-03   -0.75698E-04 52456   0.756E-02    0.218E-01
DAV:  15    -0.384027209547E+03    0.84603E-04   -0.44744E-04 45784   0.469E-02    0.106E-01
DAV:  16    -0.384027194857E+03    0.14690E-04   -0.13073E-04 42064   0.387E-02    0.103E-01
DAV:  17    -0.384027179289E+03    0.15567E-04   -0.13306E-04 40888   0.333E-02    0.797E-02
DAV:  18    -0.384027178530E+03    0.75936E-06   -0.68327E-05 35664   0.234E-02
  15 F= -.38402718E+03 E0= -.38402068E+03  d E =-.818895E+00  mag=    46.0000
       N       E                     dE             d eps       ncg     rms          rms(c)
DAV:   1    -0.384032736802E+03   -0.55575E-02   -0.16942E+00 39952   0.365E+00    0.397E-01
DAV:   2    -0.384042076021E+03   -0.93392E-02   -0.92729E-02 37808   0.595E-01    0.280E-01
DAV:   3    -0.384042341997E+03   -0.26598E-03   -0.29757E-03 50752   0.111E-01    0.252E-01
DAV:   4    -0.384042290873E+03    0.51124E-04   -0.90964E-04 49000   0.754E-02    0.239E-01
DAV:   5    -0.384042195986E+03    0.94887E-04   -0.25339E-04 43832   0.522E-02    0.158E-01
DAV:   6    -0.384042183475E+03    0.12511E-04   -0.30474E-04 42936   0.421E-02    0.109E-01
DAV:   7    -0.384042184243E+03   -0.76851E-06   -0.95924E-05 37112   0.240E-02
  16 F= -.38404218E+03 E0= -.38403569E+03  d E =-.150057E-01  mag=    46.0000
       N       E                     dE             d eps       ncg     rms          rms(c)
DAV:   1    -0.383940678009E+03    0.10151E+00   -0.29316E+01 39568   0.143E+01    0.142E+00
DAV:   2    -0.384076636960E+03   -0.13596E+00   -0.13481E+00 38352   0.233E+00    0.160E+00
DAV:   3    -0.384081319728E+03   -0.46828E-02   -0.76855E-02 48672   0.609E-01    0.213E+00
DAV:   4    -0.384074377941E+03    0.69418E-02   -0.32353E-02 46176   0.398E-01    0.576E-01
DAV:   5    -0.384074870851E+03   -0.49291E-03   -0.39369E-03 45624   0.190E-01    0.581E-01
DAV:   6    -0.384073769298E+03    0.11016E-02   -0.28038E-03 46656   0.161E-01    0.344E-01
DAV:   7    -0.384073759972E+03    0.93260E-05   -0.25186E-03 49176   0.117E-01    0.380E-01
DAV:   8    -0.384073540791E+03    0.21918E-03   -0.95903E-04 48264   0.769E-02    0.206E-01
DAV:   9    -0.384073505686E+03    0.35104E-04   -0.26309E-04 49784   0.426E-02    0.130E-01
DAV:  10    -0.384073469222E+03    0.36465E-04   -0.14345E-04 42336   0.287E-02    0.786E-02
DAV:  11    -0.384073474007E+03   -0.47852E-05   -0.14319E-04 44352   0.303E-02    0.412E-02
DAV:  12    -0.384073481913E+03   -0.79056E-05   -0.49837E-05 42824   0.196E-02
  17 F= -.38407348E+03 E0= -.38406695E+03  d E =-.312977E-01  mag=    46.0000
       N       E                     dE             d eps       ncg     rms          rms(c)
DAV:   1    -0.383989406756E+03    0.84067E-01   -0.29143E+01 39416   0.137E+01    0.124E+00
DAV:   2    -0.384098855987E+03   -0.10945E+00   -0.11012E+00 37320   0.221E+00    0.867E-01
DAV:   3    -0.384099521886E+03   -0.66590E-03   -0.27430E-02 48488   0.397E-01    0.774E-01
DAV:   4    -0.384098473793E+03    0.10481E-02   -0.77158E-03 50096   0.206E-01    0.451E-01
DAV:   5    -0.384097976284E+03    0.49751E-03   -0.25704E-03 45424   0.133E-01    0.392E-01
DAV:   6    -0.384097677666E+03    0.29862E-03   -0.16257E-03 48496   0.116E-01    0.340E-01
DAV:   7    -0.384097637808E+03    0.39858E-04   -0.82680E-04 48632   0.871E-02    0.271E-01
DAV:   8    -0.384097527995E+03    0.10981E-03   -0.31273E-04 44920   0.575E-02    0.118E-01
DAV:   9    -0.384097510496E+03    0.17499E-04   -0.15766E-04 44600   0.365E-02    0.107E-01
DAV:  10    -0.384097502689E+03    0.78071E-05   -0.15462E-04 42320   0.319E-02    0.731E-02
DAV:  11    -0.384097519258E+03   -0.16569E-04   -0.56548E-05 41696   0.187E-02    0.736E-02
DAV:  12    -0.384097508848E+03    0.10410E-04   -0.15065E-05 27416   0.128E-02    0.353E-02
DAV:  13    -0.384097507771E+03    0.10772E-05   -0.11528E-05 23168   0.927E-03
  18 F= -.38409751E+03 E0= -.38409097E+03  d E =-.240259E-01  mag=    46.0000
       N       E                     dE             d eps       ncg     rms          rms(c)
DAV:   1    -0.381213005557E+03    0.28845E+01   -0.39243E+02 40072   0.547E+01    0.631E+00
DAV:   2    -0.383820550323E+03   -0.26075E+01   -0.26177E+01 37064   0.959E+00    0.650E+00
DAV:   3    -0.383920359162E+03   -0.99809E-01   -0.15399E+00 51600   0.239E+00    0.909E+00
DAV:   4    -0.383813112344E+03    0.10725E+00   -0.93001E-01 48136   0.159E+00    0.305E+00
DAV:   5    -0.383817626544E+03   -0.45142E-02   -0.11390E-01 46352   0.918E-01    0.259E+00
DAV:   6    -0.383805151161E+03    0.12475E-01   -0.67924E-02 46640   0.633E-01    0.188E+00
DAV:   7    -0.383799246375E+03    0.59048E-02   -0.31021E-02 48848   0.454E-01    0.855E-01
DAV:   8    -0.383797162840E+03    0.20835E-02   -0.11033E-02 45816   0.358E-01    0.685E-01
DAV:   9    -0.383796905657E+03    0.25718E-03   -0.52548E-03 48352   0.212E-01    0.334E-01
DAV:  10    -0.383796820787E+03    0.84870E-04   -0.20597E-03 52952   0.118E-01    0.220E-01
DAV:  11    -0.383796814849E+03    0.59376E-05   -0.62672E-04 47456   0.638E-02    0.116E-01
DAV:  12    -0.383796835741E+03   -0.20892E-04   -0.23057E-04 44464   0.409E-02    0.111E-01
DAV:  13    -0.383796837972E+03   -0.22311E-05   -0.90278E-05 38952   0.250E-02
  19 F= -.38379684E+03 E0= -.38379080E+03  d E =0.300670E+00  mag=    46.0000
       N       E                     dE             d eps       ncg     rms          rms(c)
DAV:   1    -0.383446051944E+03    0.35078E+00   -0.59640E+01 41880   0.261E+01    0.364E+00
DAV:   2    -0.384066816760E+03   -0.62076E+00   -0.59333E+00 37072   0.436E+00    0.273E+00
DAV:   3    -0.384092087599E+03   -0.25271E-01   -0.21121E-01 50992   0.964E-01    0.185E+00
DAV:   4    -0.384089881028E+03    0.22066E-02   -0.54845E-02 49400   0.576E-01    0.157E+00
DAV:   5    -0.384086736331E+03    0.31447E-02   -0.18324E-02 47744   0.359E-01    0.924E-01
DAV:   6    -0.384085894998E+03    0.84133E-03   -0.92575E-03 47376   0.286E-01    0.829E-01
DAV:   7    -0.384085218641E+03    0.67636E-03   -0.69008E-03 45064   0.257E-01    0.700E-01
DAV:   8    -0.384084634414E+03    0.58423E-03   -0.25282E-03 45968   0.174E-01    0.162E-01
DAV:   9    -0.384084725445E+03   -0.91031E-04   -0.88336E-04 47632   0.725E-02    0.159E-01
DAV:  10    -0.384084690589E+03    0.34856E-04   -0.24230E-04 45768   0.487E-02    0.810E-02
DAV:  11    -0.384084706005E+03   -0.15416E-04   -0.13995E-04 38864   0.263E-02    0.667E-02
DAV:  12    -0.384084705420E+03    0.58526E-06   -0.34332E-05 32256   0.168E-02
  20 F= -.38408471E+03 E0= -.38407839E+03  d E =-.287867E+00  mag=    46.0000
       N       E                     dE             d eps       ncg     rms          rms(c)
DAV:   1    -0.384105994396E+03   -0.21288E-01   -0.42032E+00 39416   0.559E+00    0.640E-01
DAV:   2    -0.384128353499E+03   -0.22359E-01   -0.22810E-01 37448   0.911E-01    0.500E-01
DAV:   3    -0.384129522919E+03   -0.11694E-02   -0.87540E-03 50400   0.228E-01    0.833E-01
DAV:   4    -0.384128415809E+03    0.11071E-02   -0.22875E-03 45728   0.149E-01    0.187E-01
DAV:   5    -0.384128519218E+03   -0.10341E-03   -0.50390E-04 44136   0.654E-02    0.215E-01
DAV:   6    -0.384128382974E+03    0.13624E-03   -0.38693E-04 46144   0.630E-02    0.109E-01
DAV:   7    -0.384128411415E+03   -0.28441E-04   -0.34355E-04 46368   0.453E-02    0.170E-01
DAV:   8    -0.384128374056E+03    0.37359E-04   -0.15386E-04 41104   0.299E-02    0.101E-01
DAV:   9    -0.384128360583E+03    0.13473E-04   -0.36670E-05 31112   0.187E-02    0.251E-02
DAV:  10    -0.384128366930E+03   -0.63473E-05   -0.18377E-05 26440   0.103E-02
  21 F= -.38412837E+03 E0= -.38412201E+03  d E =-.436615E-01  mag=    46.0000
       N       E                     dE             d eps       ncg     rms          rms(c)
DAV:   1    -0.384009967975E+03    0.11839E+00   -0.45504E+01 39552   0.163E+01    0.172E+00
DAV:   2    -0.384196855514E+03   -0.18689E+00   -0.19631E+00 37856   0.268E+00    0.144E+00
DAV:   3    -0.384201837781E+03   -0.49823E-02   -0.85589E-02 49296   0.688E-01    0.244E+00
DAV:   4    -0.384192716567E+03    0.91212E-02   -0.32491E-02 45184   0.430E-01    0.614E-01
DAV:   5    -0.384193357904E+03   -0.64134E-03   -0.88441E-03 44704   0.240E-01    0.730E-01
DAV:   6    -0.384191911330E+03    0.14466E-02   -0.70646E-03 44784   0.208E-01    0.479E-01
DAV:   7    -0.384191476818E+03    0.43451E-03   -0.24080E-03 47928   0.144E-01    0.277E-01
DAV:   8    -0.384191360629E+03    0.11619E-03   -0.66982E-04 48376   0.803E-02    0.150E-01
DAV:   9    -0.384191369622E+03   -0.89929E-05   -0.34609E-04 48120   0.457E-02    0.886E-02
DAV:  10    -0.384191386775E+03   -0.17153E-04   -0.98851E-05 40040   0.228E-02    0.610E-02
DAV:  11    -0.384191384337E+03    0.24389E-05   -0.16709E-05 30920   0.133E-02
  22 F= -.38419138E+03 E0= -.38418486E+03  d E =-.630174E-01  mag=    46.0000
       N       E                     dE             d eps       ncg     rms          rms(c)
DAV:   1    -0.384192409047E+03   -0.10223E-02   -0.13195E+00 39560   0.314E+00    0.323E-01
DAV:   2    -0.384198585105E+03   -0.61761E-02   -0.62852E-02 37256   0.515E-01    0.235E-01
DAV:   3    -0.384198833253E+03   -0.24815E-03   -0.23205E-03 49376   0.116E-01    0.374E-01
DAV:   4    -0.384198592925E+03    0.24033E-03   -0.57152E-04 47160   0.725E-02    0.976E-02
DAV:   5    -0.384198612559E+03   -0.19634E-04   -0.20765E-04 41376   0.315E-02    0.120E-01
DAV:   6    -0.384198584709E+03    0.27850E-04   -0.15961E-04 40544   0.305E-02    0.878E-02
DAV:   7    -0.384198574653E+03    0.10056E-04   -0.67414E-05 39016   0.278E-02    0.559E-02
DAV:   8    -0.384198573307E+03    0.13469E-05   -0.27056E-05 31352   0.157E-02
  23 F= -.38419857E+03 E0= -.38419209E+03  d E =-.718897E-02  mag=    46.0000
       N       E                     dE             d eps       ncg     rms          rms(c)
DAV:   1    -0.383332867327E+03    0.86571E+00   -0.21949E+02 39048   0.376E+01    0.358E+00
DAV:   2    -0.384259553402E+03   -0.92669E+00   -0.95432E+00 36712   0.630E+00    0.285E+00
DAV:   3    -0.384282816349E+03   -0.23263E-01   -0.35943E-01 47344   0.134E+00    0.530E+00
DAV:   4    -0.384244514137E+03    0.38302E-01   -0.21717E-01 49992   0.908E-01    0.134E+00
DAV:   5    -0.384251149274E+03   -0.66351E-02   -0.46236E-02 42144   0.453E-01    0.164E+00
DAV:   6    -0.384246147018E+03    0.50023E-02   -0.22680E-02 45480   0.385E-01    0.132E+00
DAV:   7    -0.384243614601E+03    0.25324E-02   -0.11625E-02 47872   0.335E-01    0.650E-01
DAV:   8    -0.384243573336E+03    0.41265E-04   -0.50016E-03 44808   0.212E-01    0.449E-01
DAV:   9    -0.384243214658E+03    0.35868E-03   -0.15170E-03 47336   0.132E-01    0.246E-01
DAV:  10    -0.384243173992E+03    0.40665E-04   -0.73593E-04 53088   0.881E-02    0.149E-01
DAV:  11    -0.384243205732E+03   -0.31740E-04   -0.28839E-04 42032   0.509E-02    0.127E-01
DAV:  12    -0.384243180715E+03    0.25018E-04   -0.69653E-05 36184   0.265E-02    0.558E-02
DAV:  13    -0.384243180761E+03   -0.46020E-07   -0.58219E-05 36800   0.183E-02
  24 F= -.38424318E+03 E0= -.38423678E+03  d E =-.446075E-01  mag=    46.0000
       N       E                     dE             d eps       ncg     rms          rms(c)
DAV:   1    -0.379936840421E+03    0.43063E+01   -0.42971E+02 40152   0.596E+01    0.811E+00
DAV:   2    -0.384008001373E+03   -0.40712E+01   -0.41267E+01 37008   0.115E+01    0.113E+01
DAV:   3    -0.384176771556E+03   -0.16877E+00   -0.43754E+00 48840   0.364E+00    0.103E+01
DAV:   4    -0.383963533812E+03    0.21324E+00   -0.11340E+00 47192   0.228E+00    0.451E+00
DAV:   5    -0.383956990315E+03    0.65435E-02   -0.32789E-01 50096   0.114E+00    0.319E+00
DAV:   6    -0.383944466934E+03    0.12523E-01   -0.70856E-02 46456   0.773E-01    0.197E+00
DAV:   7    -0.383935030344E+03    0.94366E-02   -0.37567E-02 49024   0.574E-01    0.138E+00
DAV:   8    -0.383932065189E+03    0.29652E-02   -0.51215E-02 43992   0.526E-01    0.114E+00
DAV:   9    -0.383930075824E+03    0.19894E-02   -0.10362E-02 46480   0.338E-01    0.419E-01
DAV:  10    -0.383930502687E+03   -0.42686E-03   -0.50800E-03 47504   0.151E-01    0.293E-01
DAV:  11    -0.383930390074E+03    0.11261E-03   -0.17484E-03 48216   0.121E-01    0.228E-01
DAV:  12    -0.383930383452E+03    0.66215E-05   -0.62293E-04 48600   0.617E-02    0.146E-01
DAV:  13    -0.383930376692E+03    0.67599E-05   -0.23579E-04 42512   0.384E-02    0.115E-01
DAV:  14    -0.383930362251E+03    0.14441E-04   -0.15244E-04 38784   0.371E-02    0.606E-02
DAV:  15    -0.383930369288E+03   -0.70376E-05   -0.10065E-04 33216   0.235E-02    0.529E-02
DAV:  16    -0.383930366930E+03    0.23580E-05   -0.40997E-05 28736   0.153E-02
  25 F= -.38393037E+03 E0= -.38392365E+03  d E =0.312814E+00  mag=    46.0000
       N       E                     dE             d eps       ncg     rms          rms(c)
DAV:   1    -0.383290538945E+03    0.63983E+00   -0.85359E+01 41072   0.321E+01    0.451E+00
DAV:   2    -0.384245120184E+03   -0.95458E+00   -0.94114E+00 37264   0.558E+00    0.348E+00
DAV:   3    -0.384300874854E+03   -0.55755E-01   -0.41848E-01 50792   0.142E+00    0.526E+00
DAV:   4    -0.384267757393E+03    0.33117E-01   -0.24668E-01 46640   0.998E-01    0.182E+00
DAV:   5    -0.384274812434E+03   -0.70550E-02   -0.64475E-02 44808   0.541E-01    0.212E+00
DAV:   6    -0.384267769099E+03    0.70433E-02   -0.33449E-02 46056   0.391E-01    0.927E-01
DAV:   7    -0.384268552806E+03   -0.78371E-03   -0.72153E-03 48704   0.285E-01    0.850E-01
DAV:   8    -0.384267576868E+03    0.97594E-03   -0.54220E-03 49000   0.231E-01    0.531E-01
DAV:   9    -0.384267144941E+03    0.43193E-03   -0.24143E-03 53136   0.140E-01    0.235E-01
DAV:  10    -0.384267307798E+03   -0.16286E-03   -0.92321E-04 44712   0.914E-02    0.207E-01
DAV:  11    -0.384267277539E+03    0.30259E-04   -0.45564E-04 47440   0.585E-02    0.924E-02
DAV:  12    -0.384267269198E+03    0.83408E-05   -0.21853E-04 41880   0.397E-02    0.535E-02
DAV:  13    -0.384267269639E+03   -0.44095E-06   -0.44897E-05 31792   0.181E-02
  26 F= -.38426727E+03 E0= -.38426090E+03  d E =-.336903E+00  mag=    46.0000
       N       E                     dE             d eps       ncg     rms          rms(c)
DAV:   1    -0.384238437656E+03    0.28832E-01   -0.76099E+00 40656   0.882E+00    0.112E+00
DAV:   2    -0.384298078132E+03   -0.59640E-01   -0.59045E-01 37200   0.146E+00    0.987E-01
DAV:   3    -0.384302017890E+03   -0.39398E-02   -0.24970E-02 49128   0.438E-01    0.137E+00
DAV:   4    -0.384298827408E+03    0.31905E-02   -0.66214E-03 46632   0.269E-01    0.346E-01
DAV:   5    -0.384299120679E+03   -0.29327E-03   -0.23122E-03 47328   0.131E-01    0.439E-01
DAV:   6    -0.384298903711E+03    0.21697E-03   -0.16385E-03 44224   0.979E-02    0.323E-01
DAV:   7    -0.384298749546E+03    0.15416E-03   -0.90856E-04 47760   0.804E-02    0.142E-01
DAV:   8    -0.384298787322E+03   -0.37776E-04   -0.22602E-04 43200   0.458E-02    0.118E-01
DAV:   9    -0.384298759442E+03    0.27880E-04   -0.80596E-05 41192   0.288E-02    0.285E-02
DAV:  10    -0.384298767400E+03   -0.79577E-05   -0.25081E-05 29472   0.139E-02
  27 F= -.38429877E+03 E0= -.38429247E+03  d E =-.314978E-01  mag=    46.0000
       N       E                     dE             d eps       ncg     rms          rms(c)
DAV:   1    -0.384236759952E+03    0.61999E-01   -0.17648E+01 38864   0.107E+01    0.118E+00
DAV:   2    -0.384319271824E+03   -0.82512E-01   -0.86354E-01 37904   0.176E+00    0.979E-01
DAV:   3    -0.384322138832E+03   -0.28670E-02   -0.28686E-02 50320   0.447E-01    0.138E+00
DAV:   4    -0.384318599889E+03    0.35389E-02   -0.68617E-03 48856   0.285E-01    0.398E-01
DAV:   5    -0.384318668011E+03   -0.68122E-04   -0.32386E-03 44768   0.159E-01    0.532E-01
DAV:   6    -0.384318086955E+03    0.58106E-03   -0.25527E-03 45216   0.122E-01    0.368E-01
DAV:   7    -0.384317833457E+03    0.25350E-03   -0.11814E-03 48032   0.982E-02    0.170E-01
DAV:   8    -0.384317839753E+03   -0.62961E-05   -0.33938E-04 44456   0.586E-02    0.108E-01
DAV:   9    -0.384317817609E+03    0.22144E-04   -0.10977E-04 47360   0.341E-02    0.297E-02
DAV:  10    -0.384317824013E+03   -0.64043E-05   -0.28909E-05 33328   0.152E-02
  28 F= -.38431782E+03 E0= -.38431158E+03  d E =-.190566E-01  mag=    46.0000
       N       E                     dE             d eps       ncg     rms          rms(c)
DAV:   1    -0.384303079469E+03    0.14738E-01   -0.82478E+00 38776   0.645E+00    0.521E-01
DAV:   2    -0.384327384995E+03   -0.24306E-01   -0.25369E-01 38832   0.101E+00    0.314E-01
DAV:   3    -0.384327171816E+03    0.21318E-03   -0.49348E-03 52840   0.150E-01    0.242E-01
DAV:   4    -0.384326991137E+03    0.18068E-03   -0.97670E-04 48720   0.804E-02    0.238E-01
DAV:   5    -0.384326707269E+03    0.28387E-03   -0.37805E-04 43216   0.691E-02    0.142E-01
DAV:   6    -0.384326619609E+03    0.87660E-04   -0.56600E-04 46240   0.605E-02    0.176E-01
DAV:   7    -0.384326561589E+03    0.58021E-04   -0.30489E-04 48120   0.422E-02    0.583E-02
DAV:   8    -0.384326560694E+03    0.89501E-06   -0.44781E-05 36640   0.189E-02
  29 F= -.38432656E+03 E0= -.38432034E+03  d E =-.873668E-02  mag=    46.0000
       N       E                     dE             d eps       ncg     rms          rms(c)
DAV:   1    -0.384261424898E+03    0.65137E-01   -0.22475E+01 39496   0.120E+01    0.100E+00
DAV:   2    -0.384338324240E+03   -0.76899E-01   -0.78235E-01 37744   0.191E+00    0.590E-01
DAV:   3    -0.384338518564E+03   -0.19432E-03   -0.16122E-02 49736   0.288E-01    0.489E-01
DAV:   4    -0.384338036166E+03    0.48240E-03   -0.44061E-03 48072   0.141E-01    0.384E-01
DAV:   5    -0.384337407446E+03    0.62872E-03   -0.14554E-03 44040   0.110E-01    0.213E-01
DAV:   6    -0.384337227518E+03    0.17993E-03   -0.95444E-04 47680   0.980E-02    0.213E-01
DAV:   7    -0.384337187551E+03    0.39967E-04   -0.42849E-04 49512   0.620E-02    0.161E-01
DAV:   8    -0.384337147733E+03    0.39818E-04   -0.13401E-04 43200   0.385E-02    0.625E-02
DAV:   9    -0.384337158293E+03   -0.10560E-04   -0.10561E-04 37656   0.222E-02    0.630E-02
DAV:  10    -0.384337160537E+03   -0.22438E-05   -0.42518E-05 33304   0.179E-02
  30 F= -.38433716E+03 E0= -.38433094E+03  d E =-.105998E-01  mag=    46.0000
       N       E                     dE             d eps       ncg     rms          rms(c)
DAV:   1    -0.383598037079E+03    0.73912E+00   -0.19492E+02 39656   0.362E+01    0.322E+00
DAV:   2    -0.384361704369E+03   -0.76367E+00   -0.77888E+00 36816   0.601E+00    0.237E+00
DAV:   3    -0.384369060275E+03   -0.73559E-02   -0.22282E-01 47288   0.108E+00    0.288E+00
DAV:   4    -0.384356628503E+03    0.12432E-01   -0.66492E-02 49592   0.612E-01    0.109E+00
DAV:   5    -0.384356367536E+03    0.26097E-03   -0.18252E-02 46288   0.370E-01    0.141E+00
DAV:   6    -0.384351866604E+03    0.45009E-02   -0.11946E-02 49136   0.334E-01    0.599E-01
DAV:   7    -0.384351417835E+03    0.44877E-03   -0.68662E-03 45880   0.217E-01    0.492E-01
DAV:   8    -0.384351077232E+03    0.34060E-03   -0.21066E-03 48304   0.144E-01    0.251E-01
DAV:   9    -0.384351208007E+03   -0.13077E-03   -0.26736E-03 49712   0.870E-02    0.292E-01
DAV:  10    -0.384351159265E+03    0.48741E-04   -0.71900E-04 45320   0.647E-02    0.137E-01
DAV:  11    -0.384351159415E+03   -0.14952E-06   -0.14621E-04 45056   0.333E-02    0.751E-02
DAV:  12    -0.384351153083E+03    0.63316E-05   -0.32099E-05 33736   0.166E-02
  31 F= -.38435115E+03 E0= -.38434510E+03  d E =-.139925E-01  mag=    46.0000
       N       E                     dE             d eps       ncg     rms          rms(c)
DAV:   1    -0.382550110172E+03    0.18010E+01   -0.23573E+02 40464   0.407E+01    0.531E+00
DAV:   2    -0.384265009299E+03   -0.17149E+01   -0.17180E+01 38432   0.717E+00    0.433E+00
DAV:   3    -0.384290918314E+03   -0.25909E-01   -0.48934E-01 53760   0.140E+00    0.410E+00
DAV:   4    -0.384275327454E+03    0.15591E-01   -0.22798E-01 50240   0.101E+00    0.303E+00
DAV:   5    -0.384259804702E+03    0.15523E-01   -0.49578E-02 45992   0.632E-01    0.131E+00
DAV:   6    -0.384256973738E+03    0.28310E-02   -0.29443E-02 46152   0.402E-01    0.104E+00
DAV:   7    -0.384256126171E+03    0.84757E-03   -0.21858E-02 47744   0.319E-01    0.108E+00
DAV:   8    -0.384253996850E+03    0.21293E-02   -0.74777E-03 50000   0.248E-01    0.309E-01
DAV:   9    -0.384254084250E+03   -0.87399E-04   -0.22816E-03 47624   0.149E-01    0.227E-01
DAV:  10    -0.384254110347E+03   -0.26098E-04   -0.75499E-04 48928   0.720E-02    0.896E-02
DAV:  11    -0.384254120674E+03   -0.10326E-04   -0.14588E-04 49344   0.326E-02    0.693E-02
DAV:  12    -0.384254109731E+03    0.10942E-04   -0.39683E-05 37272   0.209E-02    0.400E-02
DAV:  13    -0.384254113191E+03   -0.34598E-05   -0.73989E-05 32000   0.170E-02
  32 F= -.38425411E+03 E0= -.38424801E+03  d E =0.970399E-01  mag=    46.0000
       N       E                     dE             d eps       ncg     rms          rms(c)
DAV:   1    -0.384121217331E+03    0.13289E+00   -0.14578E+01 42920   0.137E+01    0.217E+00
DAV:   2    -0.384345253508E+03   -0.22404E+00   -0.21065E+00 37640   0.227E+00    0.185E+00
DAV:   3    -0.384356003002E+03   -0.10749E-01   -0.74709E-02 47048   0.624E-01    0.171E+00
DAV:   4    -0.384353054944E+03    0.29481E-02   -0.20714E-02 46152   0.420E-01    0.935E-01
DAV:   5    -0.384352688596E+03    0.36635E-03   -0.39215E-03 45352   0.192E-01    0.537E-01
DAV:   6    -0.384352378455E+03    0.31014E-03   -0.24530E-03 48192   0.149E-01    0.409E-01
DAV:   7    -0.384352447107E+03   -0.68653E-04   -0.38732E-03 45048   0.126E-01    0.430E-01
DAV:   8    -0.384352229449E+03    0.21766E-03   -0.80953E-04 44320   0.864E-02    0.130E-01
DAV:   9    -0.384352279519E+03   -0.50070E-04   -0.51626E-04 48360   0.417E-02    0.106E-01
DAV:  10    -0.384352275335E+03    0.41840E-05   -0.11121E-04 37288   0.272E-02    0.344E-02
DAV:  11    -0.384352277614E+03   -0.22799E-05   -0.19868E-05 26440   0.105E-02
  33 F= -.38435228E+03 E0= -.38434628E+03  d E =-.981644E-01  mag=    46.0000
       N       E                     dE             d eps       ncg     rms          rms(c)
DAV:   1    -0.384312242669E+03    0.40033E-01   -0.58126E+00 41184   0.799E+00    0.113E+00
DAV:   2    -0.384378052994E+03   -0.65810E-01   -0.63006E-01 37496   0.133E+00    0.816E-01
DAV:   3    -0.384381117754E+03   -0.30648E-02   -0.21212E-02 47392   0.310E-01    0.781E-01
DAV:   4    -0.384380404254E+03    0.71350E-03   -0.40648E-03 47416   0.198E-01    0.424E-01
DAV:   5    -0.384380204748E+03    0.19951E-03   -0.87188E-04 43824   0.919E-02    0.236E-01
DAV:   6    -0.384380155234E+03    0.49513E-04   -0.87100E-04 47200   0.821E-02    0.262E-01
DAV:   7    -0.384380130527E+03    0.24708E-04   -0.10613E-03 43608   0.722E-02    0.227E-01
DAV:   8    -0.384380059108E+03    0.71419E-04   -0.18089E-04 46600   0.457E-02    0.677E-02
DAV:   9    -0.384380074199E+03   -0.15091E-04   -0.14500E-04 41480   0.227E-02    0.620E-02
DAV:  10    -0.384380071052E+03    0.31463E-05   -0.24498E-05 27368   0.150E-02
  34 F= -.38438007E+03 E0= -.38437414E+03  d E =-.277934E-01  mag=    46.0000
       N       E                     dE             d eps       ncg     rms          rms(c)
DAV:   1    -0.384379796395E+03    0.27780E-03   -0.19604E+00 40160   0.357E+00    0.385E-01
DAV:   2    -0.384389222505E+03   -0.94261E-02   -0.95126E-02 38392   0.574E-01    0.236E-01
DAV:   3    -0.384389377949E+03   -0.15544E-03   -0.24051E-03 49752   0.897E-02    0.145E-01
DAV:   4    -0.384389350562E+03    0.27388E-04   -0.37299E-04 49888   0.518E-02    0.193E-01
DAV:   5    -0.384389252724E+03    0.97838E-04   -0.16210E-04 40832   0.426E-02    0.751E-02
DAV:   6    -0.384389229521E+03    0.23203E-04   -0.14639E-04 45032   0.385E-02    0.937E-02
DAV:   7    -0.384389218271E+03    0.11250E-04   -0.96514E-05 43040   0.237E-02    0.532E-02
DAV:   8    -0.384389216158E+03    0.21134E-05   -0.27449E-05 27408   0.128E-02
  35 F= -.38438922E+03 E0= -.38438331E+03  d E =-.914511E-02  mag=    46.0000
       N       E                     dE             d eps       ncg     rms          rms(c)
DAV:   1    -0.384376233951E+03    0.12984E-01   -0.68813E+00 38872   0.583E+00    0.528E-01
DAV:   2    -0.384398493941E+03   -0.22260E-01   -0.23321E-01 38824   0.915E-01    0.347E-01
DAV:   3    -0.384398528179E+03   -0.34238E-04   -0.56485E-03 52368   0.161E-01    0.392E-01
DAV:   4    -0.384398216659E+03    0.31152E-03   -0.13668E-03 50112   0.103E-01    0.216E-01
DAV:   5    -0.384397934873E+03    0.28179E-03   -0.35613E-04 45064   0.604E-02    0.133E-01
DAV:   6    -0.384397877915E+03    0.56958E-04   -0.86703E-04 45280   0.640E-02    0.211E-01
DAV:   7    -0.384397821685E+03    0.56230E-04   -0.27097E-04 49648   0.444E-02    0.836E-02
DAV:   8    -0.384397817039E+03    0.46456E-05   -0.11740E-04 38048   0.214E-02    0.326E-02
DAV:   9    -0.384397819249E+03   -0.22097E-05   -0.17099E-05 26368   0.120E-02
  36 F= -.38439782E+03 E0= -.38439192E+03  d E =-.860309E-02  mag=    46.0000
       N       E                     dE             d eps       ncg     rms          rms(c)
DAV:   1    -0.384389465038E+03    0.83520E-02   -0.29827E+00 37952   0.395E+00    0.344E-01
DAV:   2    -0.384398903893E+03   -0.94389E-02   -0.97915E-02 38728   0.629E-01    0.210E-01
DAV:   3    -0.384398931164E+03   -0.27271E-04   -0.21640E-03 52688   0.103E-01    0.235E-01
DAV:   4    -0.384398817944E+03    0.11322E-03   -0.37681E-04 49552   0.619E-02    0.137E-01
DAV:   5    -0.384398714169E+03    0.10378E-03   -0.15847E-04 43096   0.403E-02    0.828E-02
DAV:   6    -0.384398696569E+03    0.17600E-04   -0.28760E-04 44824   0.390E-02    0.127E-01
DAV:   7    -0.384398672834E+03    0.23734E-04   -0.12801E-04 41568   0.272E-02    0.387E-02
DAV:   8    -0.384398674154E+03   -0.13199E-05   -0.21682E-05 30688   0.126E-02
  37 F= -.38439867E+03 E0= -.38439275E+03  d E =-.854905E-03  mag=    46.0000
       N       E                     dE             d eps       ncg     rms          rms(c)
DAV:   1    -0.384383275328E+03    0.15398E-01   -0.33896E+00 39760   0.513E+00    0.481E-01
DAV:   2    -0.384398005315E+03   -0.14730E-01   -0.14683E-01 37920   0.834E-01    0.300E-01
DAV:   3    -0.384398327446E+03   -0.32213E-03   -0.43596E-03 50032   0.146E-01    0.375E-01
DAV:   4    -0.384398111699E+03    0.21575E-03   -0.10603E-03 49112   0.852E-02    0.146E-01
DAV:   5    -0.384398081240E+03    0.30459E-04   -0.21479E-04 42544   0.429E-02    0.152E-01
DAV:   6    -0.384398035949E+03    0.45291E-04   -0.25577E-04 43536   0.419E-02    0.108E-01
DAV:   7    -0.384398022466E+03    0.13483E-04   -0.11940E-04 42888   0.384E-02    0.809E-02
DAV:   8    -0.384398016327E+03    0.61392E-05   -0.63482E-05 40176   0.200E-02
  38 F= -.38439802E+03 E0= -.38439205E+03  d E =0.657828E-03  mag=    46.0000
       N       E                     dE             d eps       ncg     rms          rms(c)
DAV:   1    -0.384345911189E+03    0.52111E-01   -0.12370E+01 39848   0.969E+00    0.926E-01
DAV:   2    -0.384400154118E+03   -0.54243E-01   -0.53503E-01 36880   0.159E+00    0.645E-01
DAV:   3    -0.384402150193E+03   -0.19961E-02   -0.16219E-02 48968   0.333E-01    0.111E+00
DAV:   4    -0.384400218048E+03    0.19321E-02   -0.34133E-03 45688   0.203E-01    0.244E-01
DAV:   5    -0.384400482883E+03   -0.26483E-03   -0.15651E-03 42664   0.784E-02    0.337E-01
DAV:   6    -0.384400306419E+03    0.17646E-03   -0.85890E-04 47232   0.688E-02    0.224E-01
DAV:   7    -0.384400247468E+03    0.58951E-04   -0.38463E-04 45080   0.764E-02    0.189E-01
DAV:   8    -0.384400240575E+03    0.68935E-05   -0.21179E-04 43472   0.483E-02    0.152E-01
DAV:   9    -0.384400202418E+03    0.38156E-04   -0.68174E-05 37896   0.264E-02    0.452E-02
DAV:  10    -0.384400212774E+03   -0.10355E-04   -0.34089E-05 26664   0.148E-02    0.416E-02
DAV:  11    -0.384400212941E+03   -0.16699E-06   -0.94634E-06 23488   0.996E-03
  39 F= -.38440021E+03 E0= -.38439421E+03  d E =-.219661E-02  mag=    46.0000
       N       E                     dE             d eps       ncg     rms          rms(c)
DAV:   1    -0.383151077526E+03    0.12491E+01   -0.20223E+02 40528   0.377E+01    0.424E+00
DAV:   2    -0.384336693085E+03   -0.11856E+01   -0.12004E+01 38496   0.644E+00    0.400E+00
DAV:   3    -0.384378192879E+03   -0.41500E-01   -0.68074E-01 50952   0.157E+00    0.561E+00
DAV:   4    -0.384326827297E+03    0.51366E-01   -0.36826E-01 47064   0.105E+00    0.150E+00
DAV:   5    -0.384332470001E+03   -0.56427E-02   -0.47664E-02 45664   0.475E-01    0.185E+00
DAV:   6    -0.384325886769E+03    0.65832E-02   -0.26515E-02 47528   0.393E-01    0.106E+00
DAV:   7    -0.384322732174E+03    0.31546E-02   -0.82248E-03 46944   0.341E-01    0.677E-01
DAV:   8    -0.384322171037E+03    0.56114E-03   -0.71372E-03 45528   0.250E-01    0.458E-01
DAV:   9    -0.384321826427E+03    0.34461E-03   -0.26234E-03 49512   0.145E-01    0.155E-01
DAV:  10    -0.384321905704E+03   -0.79278E-04   -0.54600E-04 48632   0.727E-02    0.134E-01
DAV:  11    -0.384321904234E+03    0.14702E-05   -0.19771E-04 45576   0.366E-02    0.652E-02
DAV:  12    -0.384321899233E+03    0.50007E-05   -0.44269E-05 35768   0.221E-02
  40 F= -.38432190E+03 E0= -.38431619E+03  d E =0.783137E-01  mag=    46.0000
       N       E                     dE             d eps       ncg     rms          rms(c)
DAV:   1    -0.384052795638E+03    0.26911E+00   -0.23396E+01 44712   0.164E+01    0.271E+00
DAV:   2    -0.384397139668E+03   -0.34434E+00   -0.32110E+00 38072   0.271E+00    0.273E+00
DAV:   3    -0.384417901471E+03   -0.20762E-01   -0.17018E-01 47584   0.900E-01    0.373E+00
DAV:   4    -0.384400447694E+03    0.17454E-01   -0.93448E-02 44000   0.652E-01    0.869E-01
DAV:   5    -0.384405314442E+03   -0.48667E-02   -0.11445E-02 44632   0.278E-01    0.100E+00
DAV:   6    -0.384403915192E+03    0.13993E-02   -0.78057E-03 46288   0.202E-01    0.606E-01
DAV:   7    -0.384403809398E+03    0.10579E-03   -0.38249E-03 49864   0.164E-01    0.446E-01
DAV:   8    -0.384403744005E+03    0.65393E-04   -0.14590E-03 45088   0.140E-01    0.331E-01
DAV:   9    -0.384403519726E+03    0.22428E-03   -0.64707E-04 49624   0.867E-02    0.973E-02
DAV:  10    -0.384403577763E+03   -0.58038E-04   -0.43475E-04 46456   0.554E-02    0.913E-02
DAV:  11    -0.384403576125E+03    0.16380E-05   -0.10048E-04 40896   0.263E-02    0.367E-02
DAV:  12    -0.384403574779E+03    0.13460E-05   -0.24768E-05 30080   0.161E-02
  41 F= -.38440357E+03 E0= -.38439766E+03  d E =-.816755E-01  mag=    46.0000
       N       E                     dE             d eps       ncg     rms          rms(c)
DAV:   1    -0.384406184558E+03   -0.26084E-02   -0.14528E+00 39736   0.291E+00    0.300E-01
DAV:   2    -0.384412126594E+03   -0.59420E-02   -0.59992E-02 38208   0.463E-01    0.236E-01
DAV:   3    -0.384412312267E+03   -0.18567E-03   -0.19670E-03 51176   0.107E-01    0.330E-01
DAV:   4    -0.384412106847E+03    0.20542E-03   -0.48831E-04 46928   0.691E-02    0.906E-02
DAV:   5    -0.384412095853E+03    0.10994E-04   -0.10445E-04 42520   0.265E-02    0.994E-02
DAV:   6    -0.384412072504E+03    0.23349E-04   -0.19266E-04 43960   0.356E-02    0.855E-02
DAV:   7    -0.384412072884E+03   -0.37979E-06   -0.81831E-05 38240   0.199E-02
  42 F= -.38441207E+03 E0= -.38440615E+03  d E =-.849810E-02  mag=    46.0000
       N       E                     dE             d eps       ncg     rms          rms(c)
DAV:   1    -0.384359938400E+03    0.52134E-01   -0.20769E+01 38272   0.992E+00    0.984E-01
DAV:   2    -0.384430249090E+03   -0.70311E-01   -0.73259E-01 38504   0.158E+00    0.107E+00
DAV:   3    -0.384431983642E+03   -0.17346E-02   -0.25734E-02 51056   0.441E-01    0.156E+00
DAV:   4    -0.384427769213E+03    0.42144E-02   -0.56986E-03 48248   0.283E-01    0.343E-01
DAV:   5    -0.384428150998E+03   -0.38178E-03   -0.38479E-03 44184   0.142E-01    0.512E-01
DAV:   6    -0.384427666513E+03    0.48448E-03   -0.25521E-03 46184   0.117E-01    0.417E-01
DAV:   7    -0.384427339960E+03    0.32655E-03   -0.10097E-03 49480   0.974E-02    0.128E-01
DAV:   8    -0.384427389993E+03   -0.50034E-04   -0.26468E-04 44632   0.450E-02    0.785E-02
DAV:   9    -0.384427384419E+03    0.55744E-05   -0.60289E-05 40920   0.250E-02
  43 F= -.38442738E+03 E0= -.38442138E+03  d E =-.153115E-01  mag=    46.0000
       N       E                     dE             d eps       ncg     rms          rms(c)
DAV:   1    -0.384426338471E+03    0.10515E-02   -0.10671E-01 42360   0.115E+00    0.169E-01
DAV:   2    -0.384427748557E+03   -0.14101E-02   -0.12145E-02 37616   0.201E-01    0.350E-01
DAV:   3    -0.384427632923E+03    0.11563E-03   -0.88583E-04 41264   0.921E-02    0.152E-01
DAV:   4    -0.384427650369E+03   -0.17446E-04   -0.98566E-05 36080   0.320E-02    0.567E-02
DAV:   5    -0.384427649053E+03    0.13155E-05   -0.37637E-05 31144   0.175E-02
  44 F= -.38442765E+03 E0= -.38442164E+03  d E =-.264634E-03  mag=    46.0000
       N       E                     dE             d eps       ncg     rms          rms(c)
DAV:   1    -0.384425164513E+03    0.24859E-02   -0.84553E-01 37856   0.201E+00    0.195E-01
DAV:   2    -0.384428004751E+03   -0.28402E-02   -0.28589E-02 38440   0.332E-01    0.372E-01
DAV:   3    -0.384427851516E+03    0.15324E-03   -0.12714E-03 51016   0.104E-01    0.183E-01
DAV:   4    -0.384427813182E+03    0.38334E-04   -0.12632E-04 40768   0.382E-02    0.821E-02
DAV:   5    -0.384427792800E+03    0.20381E-04   -0.95033E-05 42152   0.288E-02    0.933E-02
DAV:   6    -0.384427771140E+03    0.21661E-04   -0.60815E-05 41048   0.245E-02    0.467E-02
DAV:   7    -0.384427770538E+03    0.60179E-06   -0.28539E-05 33400   0.143E-02
  45 F= -.38442777E+03 E0= -.38442175E+03  d E =-.121485E-03  mag=    46.0000
       N       E                     dE             d eps       ncg     rms          rms(c)
DAV:   1    -0.384421522342E+03    0.62488E-02   -0.16344E+00 38112   0.299E+00    0.268E-01
DAV:   2    -0.384426938626E+03   -0.54163E-02   -0.56313E-02 38400   0.485E-01    0.240E-01
DAV:   3    -0.384427095091E+03   -0.15647E-03   -0.16737E-03 51392   0.113E-01    0.391E-01
DAV:   4    -0.384426814121E+03    0.28097E-03   -0.38846E-04 46408   0.713E-02    0.828E-02
DAV:   5    -0.384426821830E+03   -0.77091E-05   -0.15709E-04 43112   0.335E-02    0.123E-01
DAV:   6    -0.384426780440E+03    0.41390E-04   -0.13009E-04 43192   0.347E-02    0.482E-02
DAV:   7    -0.384426787297E+03   -0.68565E-05   -0.60360E-05 37712   0.194E-02
  46 F= -.38442679E+03 E0= -.38442072E+03  d E =0.983241E-03  mag=    46.0000
       N       E                     dE             d eps       ncg     rms          rms(c)
DAV:   1    -0.384425406414E+03    0.13740E-02   -0.39891E-01 39904   0.175E+00    0.174E-01
DAV:   2    -0.384427210381E+03   -0.18040E-02   -0.17099E-02 37184   0.293E-01    0.275E-01
DAV:   3    -0.384427186553E+03    0.23828E-04   -0.83974E-04 47496   0.930E-02    0.221E-01
DAV:   4    -0.384427133076E+03    0.53477E-04   -0.11985E-04 39376   0.410E-02    0.644E-02
DAV:   5    -0.384427134827E+03   -0.17512E-05   -0.30116E-05 32000   0.168E-02
  47 F= -.38442713E+03 E0= -.38442109E+03  d E =-.347531E-03  mag=    46.0000
       N       E                     dE             d eps       ncg     rms          rms(c)
DAV:   1    -0.384370458947E+03    0.56674E-01   -0.13310E+01 39960   0.103E+01    0.965E-01
DAV:   2    -0.384429791379E+03   -0.59332E-01   -0.58134E-01 36640   0.167E+00    0.533E-01
DAV:   3    -0.384430921108E+03   -0.11297E-02   -0.12895E-02 44976   0.252E-01    0.460E-01
DAV:   4    -0.384430673929E+03    0.24718E-03   -0.21227E-03 52024   0.132E-01    0.360E-01
DAV:   5    -0.384430393704E+03    0.28023E-03   -0.46776E-04 43928   0.819E-02    0.246E-01
DAV:   6    -0.384430314097E+03    0.79607E-04   -0.10733E-03 45056   0.701E-02    0.227E-01
DAV:   7    -0.384430233320E+03    0.80777E-04   -0.44978E-04 43376   0.748E-02    0.110E-01
DAV:   8    -0.384430234069E+03   -0.74859E-06   -0.17700E-04 43688   0.373E-02    0.386E-02
DAV:   9    -0.384430236589E+03   -0.25209E-05   -0.24767E-05 27856   0.165E-02
  48 F= -.38443024E+03 E0= -.38442416E+03  d E =-.310176E-02  mag=    46.0000
       N       E                     dE             d eps       ncg     rms          rms(c)
DAV:   1    -0.384263623836E+03    0.16661E+00   -0.35285E+01 39960   0.170E+01    0.167E+00
DAV:   2    -0.384433250454E+03   -0.16963E+00   -0.16418E+00 36608   0.279E+00    0.162E+00
DAV:   3    -0.384445028165E+03   -0.11778E-01   -0.10977E-01 48384   0.750E-01    0.334E+00
DAV:   4    -0.384430017051E+03    0.15011E-01   -0.49161E-02 42608   0.497E-01    0.627E-01
DAV:   5    -0.384433703465E+03   -0.36864E-02   -0.99468E-03 43304   0.176E-01    0.706E-01
DAV:   6    -0.384433296242E+03    0.40722E-03   -0.23958E-03 44920   0.132E-01    0.557E-01
DAV:   7    -0.384432596096E+03    0.70015E-03   -0.10776E-03 45808   0.116E-01    0.212E-01
DAV:   8    -0.384432823766E+03   -0.22767E-03   -0.84170E-04 45912   0.110E-01    0.411E-01
DAV:   9    -0.384432560944E+03    0.26282E-03   -0.42281E-04 43072   0.677E-02    0.188E-01
DAV:  10    -0.384432557937E+03    0.30071E-05   -0.19642E-04 48320   0.444E-02    0.737E-02
DAV:  11    -0.384432588177E+03   -0.30240E-04   -0.68114E-05 35616   0.235E-02    0.566E-02
DAV:  12    -0.384432581946E+03    0.62316E-05   -0.13651E-05 25152   0.135E-02
  49 F= -.38443258E+03 E0= -.38442639E+03  d E =-.234536E-02  mag=    46.0000
       N       E                     dE             d eps       ncg     rms          rms(c)
DAV:   1    -0.384357414808E+03    0.75173E-01   -0.14757E+01 39800   0.114E+01    0.111E+00
DAV:   2    -0.384433339474E+03   -0.75925E-01   -0.73743E-01 36640   0.186E+00    0.102E+00
DAV:   3    -0.384438235469E+03   -0.48960E-02   -0.31249E-02 48128   0.487E-01    0.205E+00
DAV:   4    -0.384432197318E+03    0.60382E-02   -0.11874E-02 43040   0.319E-01    0.322E-01
DAV:   5    -0.384433732003E+03   -0.15347E-02   -0.18277E-03 43728   0.113E-01    0.515E-01
DAV:   6    -0.384433277846E+03    0.45416E-03   -0.66860E-04 42752   0.960E-02    0.262E-01
DAV:   7    -0.384433322749E+03   -0.44903E-04   -0.73730E-04 48144   0.969E-02    0.312E-01
DAV:   8    -0.384433247540E+03    0.75209E-04   -0.41023E-04 41536   0.574E-02    0.232E-01
DAV:   9    -0.384433175661E+03    0.71879E-04   -0.13451E-04 38312   0.324E-02    0.106E-01
DAV:  10    -0.384433191768E+03   -0.16107E-04   -0.94088E-05 38616   0.272E-02    0.575E-02
DAV:  11    -0.384433200334E+03   -0.85657E-05   -0.23929E-05 27704   0.145E-02
  50 F= -.38443320E+03 E0= -.38442695E+03  d E =-.618388E-03  mag=    46.0000
       N       E                     dE             d eps       ncg     rms          rms(c)
DAV:   1    -0.384397214249E+03    0.35978E-01   -0.67782E+00 40600   0.784E+00    0.741E-01
DAV:   2    -0.384432277696E+03   -0.35063E-01   -0.34070E-01 36672   0.126E+00    0.494E-01
DAV:   3    -0.384433642160E+03   -0.13645E-02   -0.88454E-03 50064   0.240E-01    0.876E-01
DAV:   4    -0.384432519072E+03    0.11231E-02   -0.16518E-03 44344   0.145E-01    0.205E-01
DAV:   5    -0.384432682639E+03   -0.16357E-03   -0.92625E-04 41032   0.627E-02    0.270E-01
DAV:   6    -0.384432583928E+03    0.98711E-04   -0.74203E-04 46968   0.596E-02    0.184E-01
DAV:   7    -0.384432596440E+03   -0.12512E-04   -0.24486E-04 45344   0.659E-02    0.234E-01
DAV:   8    -0.384432520813E+03    0.75627E-04   -0.18461E-04 42776   0.394E-02    0.111E-01
DAV:   9    -0.384432518039E+03    0.27740E-05   -0.50007E-05 33096   0.243E-02
  51 F= -.38443252E+03 E0= -.38442622E+03  d E =0.682295E-03  mag=    46.0000
       N       E                     dE             d eps       ncg     rms          rms(c)
DAV:   1    -0.384407584099E+03    0.24937E-01   -0.51404E+00 40440   0.680E+00    0.666E-01
DAV:   2    -0.384434276910E+03   -0.26693E-01   -0.25538E-01 36688   0.110E+00    0.652E-01
DAV:   3    -0.384436043241E+03   -0.17663E-02   -0.94484E-03 46672   0.302E-01    0.106E+00
DAV:   4    -0.384434176990E+03    0.18663E-02   -0.21955E-03 43328   0.181E-01    0.276E-01
DAV:   5    -0.384434362515E+03   -0.18553E-03   -0.99433E-04 46672   0.641E-02    0.215E-01
DAV:   6    -0.384434334978E+03    0.27537E-04   -0.27871E-04 40768   0.493E-02    0.198E-01
DAV:   7    -0.384434257863E+03    0.77114E-04   -0.15049E-04 43520   0.542E-02    0.116E-01
DAV:   8    -0.384434296529E+03   -0.38666E-04   -0.13626E-04 40440   0.370E-02    0.155E-01
DAV:   9    -0.384434247443E+03    0.49086E-04   -0.41710E-05 33232   0.248E-02    0.446E-02
DAV:  10    -0.384434256881E+03   -0.94383E-05   -0.22770E-05 28256   0.133E-02
  52 F= -.38443426E+03 E0= -.38442794E+03  d E =-.173884E-02  mag=    46.0000
       N       E                     dE             d eps       ncg     rms          rms(c)
DAV:   1    -0.384296076783E+03    0.13817E+00   -0.26601E+01 40544   0.154E+01    0.150E+00
DAV:   2    -0.384431904581E+03   -0.13583E+00   -0.12983E+00 36816   0.248E+00    0.145E+00
DAV:   3    -0.384441731588E+03   -0.98270E-02   -0.98177E-02 48496   0.674E-01    0.308E+00
DAV:   4    -0.384429515654E+03    0.12216E-01   -0.36242E-02 42336   0.446E-01    0.845E-01
DAV:   5    -0.384431779914E+03   -0.22643E-02   -0.10589E-02 43792   0.163E-01    0.457E-01
DAV:   6    -0.384431626703E+03    0.15321E-03   -0.11186E-03 41072   0.116E-01    0.369E-01
DAV:   7    -0.384431247093E+03    0.37961E-03   -0.15591E-03 45552   0.109E-01    0.179E-01
DAV:   8    -0.384431338779E+03   -0.91686E-04   -0.51191E-04 45416   0.669E-02    0.249E-01
DAV:   9    -0.384431244533E+03    0.94247E-04   -0.23000E-04 42920   0.427E-02    0.955E-02
DAV:  10    -0.384431271739E+03   -0.27206E-04   -0.95329E-05 39344   0.272E-02    0.915E-02
DAV:  11    -0.384431266866E+03    0.48733E-05   -0.30278E-05 29344   0.194E-02
  53 F= -.38443127E+03 E0= -.38442494E+03  d E =0.299002E-02  mag=    46.0000
       N       E                     dE             d eps       ncg     rms          rms(c)
DAV:   1    -0.384169700412E+03    0.26157E+00   -0.42993E+01 40640   0.202E+01    0.211E+00
DAV:   2    -0.384431001140E+03   -0.26130E+00   -0.24446E+00 36608   0.332E+00    0.309E+00
DAV:   3    -0.384445458085E+03   -0.14457E-01   -0.28053E-01 45568   0.106E+00    0.412E+00
DAV:   4    -0.384424831814E+03    0.20626E-01   -0.79271E-02 43944   0.656E-01    0.134E+00
DAV:   5    -0.384426803085E+03   -0.19713E-02   -0.17562E-02 47224   0.253E-01    0.689E-01
DAV:   6    -0.384427028052E+03   -0.22497E-03   -0.28500E-03 44320   0.166E-01    0.498E-01
DAV:   7    -0.384426416509E+03    0.61154E-03   -0.19580E-03 44144   0.133E-01    0.268E-01
DAV:   8    -0.384426466681E+03   -0.50172E-04   -0.12654E-03 44848   0.113E-01    0.351E-01
DAV:   9    -0.384426271230E+03    0.19545E-03   -0.52132E-04 47496   0.758E-02    0.115E-01
DAV:  10    -0.384426350411E+03   -0.79181E-04   -0.33230E-04 43776   0.457E-02    0.136E-01
DAV:  11    -0.384426329354E+03    0.21057E-04   -0.92673E-05 34576   0.255E-02    0.543E-02
DAV:  12    -0.384426328893E+03    0.46119E-06   -0.14767E-05 28064   0.138E-02
  54 F= -.38442633E+03 E0= -.38442001E+03  d E =0.493797E-02  mag=    46.0000
       N       E                     dE             d eps       ncg     rms          rms(c)
DAV:   1    -0.384403705025E+03    0.22624E-01   -0.34949E+00 43256   0.538E+00    0.829E-01
DAV:   2    -0.384437234083E+03   -0.33529E-01   -0.29213E-01 37088   0.883E-01    0.861E-01
DAV:   3    -0.384440059403E+03   -0.28253E-02   -0.16406E-02 43720   0.337E-01    0.157E+00
DAV:   4    -0.384436879925E+03    0.31795E-02   -0.54154E-03 42248   0.229E-01    0.386E-01
DAV:   5    -0.384437535948E+03   -0.65602E-03   -0.22212E-03 42872   0.939E-02    0.275E-01
DAV:   6    -0.384437472112E+03    0.63836E-04   -0.34083E-04 39168   0.581E-02    0.172E-01
DAV:   7    -0.384437431715E+03    0.40397E-04   -0.26948E-04 45824   0.534E-02    0.133E-01
DAV:   8    -0.384437454430E+03   -0.22715E-04   -0.11389E-04 39880   0.304E-02    0.142E-01
DAV:   9    -0.384437414023E+03    0.40408E-04   -0.50009E-05 33160   0.255E-02    0.203E-02
DAV:  10    -0.384437428512E+03   -0.14489E-04   -0.22336E-05 27888   0.121E-02    0.382E-02
DAV:  11    -0.384437425782E+03    0.27303E-05   -0.41454E-06 21080   0.831E-03
  55 F= -.38443743E+03 E0= -.38443110E+03  d E =-.110969E-01  mag=    46.0000
       N       E                     dE             d eps       ncg     rms          rms(c)
DAV:   1    -0.384435567407E+03    0.18611E-02   -0.34780E-01 40960   0.184E+00    0.196E-01
DAV:   2    -0.384437795441E+03   -0.22280E-02   -0.21141E-02 37584   0.306E-01    0.258E-01
DAV:   3    -0.384437925598E+03   -0.13016E-03   -0.10414E-03 48328   0.998E-02    0.361E-01
DAV:   4    -0.384437749149E+03    0.17645E-03   -0.19938E-04 40960   0.569E-02    0.840E-02
DAV:   5    -0.384437783494E+03   -0.34345E-04   -0.15226E-04 34088   0.212E-02    0.990E-02
DAV:   6    -0.384437782588E+03    0.90592E-06   -0.33433E-05 27144   0.173E-02
  56 F= -.38443778E+03 E0= -.38443150E+03  d E =-.356806E-03  mag=    46.0000
