       N       E                     dE             d eps       ncg     rms          ort
DAV:   1     0.652158980798E+04    0.65216E+04   -0.28459E+05 32928   0.180E+03
DAV:   2     0.181826637014E+03   -0.63398E+04   -0.57796E+04 32928   0.495E+02
DAV:   3    -0.684746079014E+03   -0.86657E+03   -0.85058E+03 32928   0.205E+02
DAV:   4    -0.719469647153E+03   -0.34724E+02   -0.34476E+02 32928   0.406E+01
DAV:   5    -0.720554606417E+03   -0.10850E+01   -0.10722E+01 32928   0.555E+00
SDA:   6    -0.403835336794E+03    0.31672E+03   -0.10722E+01 32928   0.813E+03 0.000E+00
CGA:   7    -0.506985524306E+03   -0.10315E+03   -0.10519E+03 32928   0.103E+03-0.337E-01
CGA:   8    -0.522388047069E+03   -0.15403E+02   -0.15434E+02 32928   0.286E+02 0.260E+00
CGA:   9    -0.527809484061E+03   -0.54214E+01   -0.54223E+01 32928   0.138E+02 0.142E+00
CGA:  10    -0.530860926947E+03   -0.30514E+01   -0.30522E+01 32928   0.784E+01-0.518E-02
CGA:  11    -0.532721123884E+03   -0.18602E+01   -0.18684E+01 32928   0.370E+01-0.148E+00
CGA:  12    -0.533497453858E+03   -0.77633E+00   -0.77744E+00 32928   0.125E+01-0.571E-01
CGA:  13    -0.533775055942E+03   -0.27760E+00   -0.27807E+00 32928   0.407E+00-0.171E-01
CGA:  14    -0.533872035423E+03   -0.96979E-01   -0.96997E-01 32928   0.144E+00-0.303E-03
CGA:  15    -0.533910411007E+03   -0.38376E-01   -0.38059E-01 32928   0.611E-01 0.505E-02
CGA:  16    -0.533928676999E+03   -0.18266E-01   -0.17874E-01 32928   0.270E-01 0.506E-02
CGA:  17    -0.533936718871E+03   -0.80419E-02   -0.78568E-02 32928   0.981E-02 0.311E-02
CGA:  18    -0.533939591402E+03   -0.28725E-02   -0.28218E-02 32928   0.295E-02 0.110E-02
CGA:  19    -0.533940574252E+03   -0.98285E-03   -0.99097E-03 32928   0.966E-03-0.911E-04
CGA:  20    -0.533940893068E+03   -0.31882E-03   -0.43023E-03 32928   0.622E-03-0.462E-03
CGA:  21    -0.533940989629E+03   -0.96560E-04   -0.10939E-03 32928   0.310E-03-0.120E-03
CGA:  22    -0.533941041124E+03   -0.51495E-04   -0.53026E-04 32928   0.151E-03 0.648E-04
CGA:  23    -0.533941069039E+03   -0.27915E-04   -0.32220E-04 32928   0.680E-04 0.735E-04
CGA:  24    -0.533941081488E+03   -0.12449E-04   -0.15891E-04 32928   0.305E-04 0.463E-04
CGA:  25    -0.533941096134E+03   -0.14646E-04   -0.13492E-04 32928   0.924E-05 0.535E-05
CGA:  26    -0.533941095879E+03    0.25472E-06   -0.12818E-04 32928   0.331E-04-0.140E-04
CGA:  27    -0.533941105294E+03   -0.94147E-05   -0.16220E-04 32928   0.490E-04-0.333E-04
   1 F= -.53394111E+03 E0= -.53394111E+03  d E =-.533941E+03  mag=    60.0000
       N       E                     dE             d eps       ncg     rms          ort
SDA:   1    -0.517130426754E+03    0.16811E+02    0.00000E+00 32928   0.535E+02 0.000E+00
CGA:   2    -0.528618505866E+03   -0.11488E+02   -0.11523E+02 32928   0.208E+02 0.911E-01
CGA:   3    -0.532472604231E+03   -0.38541E+01   -0.38496E+01 32928   0.708E+01 0.213E-01
CGA:   4    -0.533580539796E+03   -0.11079E+01   -0.11073E+01 32928   0.186E+01 0.263E-02
CGA:   5    -0.533889902258E+03   -0.30936E+00   -0.30929E+00 32928   0.541E+00-0.517E-03
CGA:   6    -0.533991081340E+03   -0.10118E+00   -0.10123E+00 32928   0.177E+00 0.252E-03
CGA:   7    -0.534032159944E+03   -0.41079E-01   -0.41080E-01 32928   0.804E-01-0.293E-04
CGA:   8    -0.534051520360E+03   -0.19360E-01   -0.19354E-01 32928   0.293E-01-0.252E-03
CGA:   9    -0.534059221592E+03   -0.77012E-02   -0.77013E-02 32928   0.113E-01-0.845E-04
CGA:  10    -0.534062051379E+03   -0.28298E-02   -0.28311E-02 32928   0.327E-02 0.106E-03
CGA:  11    -0.534062897936E+03   -0.84656E-03   -0.84757E-03 32928   0.917E-03 0.192E-03
CGA:  12    -0.534063134574E+03   -0.23664E-03   -0.23865E-03 32928   0.256E-03 0.125E-03
CGA:  13    -0.534063217692E+03   -0.83118E-04   -0.82251E-04 32928   0.907E-04 0.401E-04
CGA:  14    -0.534063258443E+03   -0.40751E-04   -0.45755E-04 32928   0.601E-04-0.288E-04
CGA:  15    -0.534063249236E+03    0.92069E-05   -0.31562E-04 32928   0.138E-03-0.818E-04
CGA:  16    -0.534063284057E+03   -0.34821E-04   -0.35060E-04 32928   0.265E-04 0.561E-05
CGA:  17    -0.534063297533E+03   -0.13476E-04   -0.14282E-04 32928   0.102E-04-0.360E-05
CGA:  18    -0.534063288314E+03    0.92192E-05   -0.11067E-04 32928   0.580E-04-0.213E-04
CGA:  19    -0.534063300560E+03   -0.12247E-04   -0.13389E-04 32928   0.606E-05 0.938E-05
CGA:  20    -0.534063301170E+03   -0.60987E-06   -0.12833E-05 32928   0.287E-05 0.410E-05
   2 F= -.53406330E+03 E0= -.53406330E+03  d E =-.122196E+00  mag=    60.0000
       N       E                     dE             d eps       ncg     rms          ort
SDA:   1    -0.532179573837E+03    0.18837E+01    0.00000E+00 32928   0.593E+01 0.000E+00
CGA:   2    -0.533472645947E+03   -0.12931E+01   -0.12911E+01 32928   0.244E+01-0.337E-02
CGA:   3    -0.533921857847E+03   -0.44921E+00   -0.44939E+00 32928   0.820E+00-0.251E-02
CGA:   4    -0.534048547741E+03   -0.12669E+00   -0.12671E+00 32928   0.216E+00-0.168E-03
CGA:   5    -0.534084537833E+03   -0.35990E-01   -0.35996E-01 32928   0.638E-01 0.706E-04
CGA:   6    -0.534096457166E+03   -0.11919E-01   -0.11917E-01 32928   0.211E-01-0.189E-05
CGA:   7    -0.534101323335E+03   -0.48662E-02   -0.48758E-02 32928   0.962E-02 0.142E-03
CGA:   8    -0.534103617643E+03   -0.22943E-02   -0.23051E-02 32928   0.341E-02 0.190E-03
CGA:   9    -0.534104512054E+03   -0.89441E-03   -0.89730E-03 32928   0.128E-02 0.864E-04
CGA:  10    -0.534104856538E+03   -0.34448E-03   -0.34368E-03 32928   0.393E-03-0.285E-04
CGA:  11    -0.534104980696E+03   -0.12416E-03   -0.12877E-03 32928   0.179E-03-0.992E-04
CGA:  12    -0.534105024075E+03   -0.43379E-04   -0.49452E-04 32928   0.103E-03-0.768E-04
CGA:  13    -0.534105040449E+03   -0.16374E-04   -0.16256E-04 32928   0.384E-04-0.608E-05
CGA:  14    -0.534105043806E+03   -0.33568E-05   -0.55984E-05 32928   0.176E-04 0.161E-04
   3 F= -.53410504E+03 E0= -.53410504E+03  d E =-.163939E+00  mag=    60.0000
       N       E                     dE             d eps       ncg     rms          ort
SDA:   1    -0.532598066550E+03    0.15070E+01    0.00000E+00 32928   0.392E+01 0.000E+00
CGA:   2    -0.533757638362E+03   -0.11596E+01   -0.11594E+01 32928   0.168E+01 0.979E-02
CGA:   3    -0.534020257579E+03   -0.26262E+00   -0.26288E+00 32928   0.491E+00 0.166E-02
CGA:   4    -0.534097937652E+03   -0.77680E-01   -0.77596E-01 32928   0.129E+00-0.598E-03
CGA:   5    -0.534118649994E+03   -0.20712E-01   -0.20703E-01 32928   0.338E-01-0.692E-04
CGA:   6    -0.534124558540E+03   -0.59085E-02   -0.59498E-02 32928   0.100E-01 0.479E-03
CGA:   7    -0.534126536972E+03   -0.19784E-02   -0.19984E-02 32928   0.306E-02 0.325E-03
CGA:   8    -0.534127252744E+03   -0.71577E-03   -0.71767E-03 32928   0.105E-02 0.695E-04
CGA:   9    -0.534127525069E+03   -0.27232E-03   -0.27235E-03 32928   0.389E-03 0.442E-04
CGA:  10    -0.534127611474E+03   -0.86405E-04   -0.88856E-04 32928   0.114E-03 0.719E-04
CGA:  11    -0.534127635583E+03   -0.24109E-04   -0.26518E-04 32928   0.372E-04 0.441E-04
CGA:  12    -0.534127645149E+03   -0.95659E-05   -0.10391E-04 32928   0.135E-04 0.174E-04
   4 F= -.53412765E+03 E0= -.53412765E+03  d E =-.226013E-01  mag=    60.0000
       N       E                     dE             d eps       ncg     rms          ort
SDA:   1    -0.534116201454E+03    0.11434E-01    0.00000E+00 32928   0.302E-01 0.000E+00
CGA:   2    -0.534124950074E+03   -0.87486E-02   -0.87188E-02 32928   0.124E-01 0.726E-03
CGA:   3    -0.534126936172E+03   -0.19861E-02   -0.20022E-02 32928   0.369E-02 0.174E-03
CGA:   4    -0.534127543597E+03   -0.60743E-03   -0.60327E-03 32928   0.104E-02-0.489E-04
CGA:   5    -0.534127703472E+03   -0.15988E-03   -0.15976E-03 32928   0.275E-03-0.128E-05
CGA:   6    -0.534127740149E+03   -0.36677E-04   -0.40197E-04 32928   0.672E-04 0.388E-04
CGA:   7    -0.534127749223E+03   -0.90745E-05   -0.11306E-04 32928   0.209E-04 0.262E-04
   5 F= -.53412775E+03 E0= -.53412775E+03  d E =-.227054E-01  mag=    60.0000
       N       E                     dE             d eps       ncg     rms          ort
SDA:   1    -0.533061398918E+03    0.10663E+01    0.00000E+00 32928   0.270E+01 0.000E+00
CGA:   2    -0.533894546704E+03   -0.83315E+00   -0.83256E+00 32928   0.115E+01 0.589E-02
CGA:   3    -0.534078989349E+03   -0.18444E+00   -0.18414E+00 32928   0.308E+00-0.363E-02
CGA:   4    -0.534125411840E+03   -0.46422E-01   -0.46341E-01 32928   0.763E-01-0.104E-02
CGA:   5    -0.534137906557E+03   -0.12495E-01   -0.12528E-01 32928   0.209E-01 0.583E-03
CGA:   6    -0.534141466033E+03   -0.35595E-02   -0.35873E-02 32928   0.557E-02 0.575E-03
CGA:   7    -0.534142585996E+03   -0.11200E-02   -0.11236E-02 32928   0.174E-02 0.183E-03
CGA:   8    -0.534143014458E+03   -0.42846E-03   -0.42968E-03 32928   0.670E-03-0.517E-04
CGA:   9    -0.534143202175E+03   -0.18772E-03   -0.19471E-03 32928   0.344E-03-0.839E-04
CGA:  10    -0.534143275969E+03   -0.73795E-04   -0.73809E-04 32928   0.112E-03-0.608E-06
CGA:  11    -0.534143297997E+03   -0.22027E-04   -0.22574E-04 32928   0.333E-04 0.287E-04
CGA:  12    -0.534143305113E+03   -0.71158E-05   -0.76196E-05 32928   0.106E-04 0.131E-04
   6 F= -.53414331E+03 E0= -.53414331E+03  d E =-.155559E-01  mag=    60.0000
       N       E                     dE             d eps       ncg     rms          ort
SDA:   1    -0.533957199288E+03    0.18610E+00    0.00000E+00 32928   0.470E+00 0.000E+00
CGA:   2    -0.534102159181E+03   -0.14496E+00   -0.14484E+00 32928   0.200E+00 0.131E-02
CGA:   3    -0.534134373456E+03   -0.32214E-01   -0.32107E-01 32928   0.538E-01-0.154E-02
CGA:   4    -0.534142480184E+03   -0.81067E-02   -0.80743E-02 32928   0.134E-01-0.440E-03
CGA:   5    -0.534144616493E+03   -0.21363E-02   -0.21503E-02 32928   0.363E-02 0.237E-03
CGA:   6    -0.534145207177E+03   -0.59068E-03   -0.60314E-03 32928   0.923E-03 0.230E-03
CGA:   7    -0.534145394984E+03   -0.18781E-03   -0.18949E-03 32928   0.282E-03 0.777E-04
CGA:   8    -0.534145472333E+03   -0.77349E-04   -0.78161E-04 32928   0.126E-03-0.192E-04
CGA:   9    -0.534145506970E+03   -0.34637E-04   -0.38880E-04 32928   0.850E-04-0.366E-04
CGA:  10    -0.534145519759E+03   -0.12789E-04   -0.12781E-04 32928   0.290E-04-0.891E-06
CGA:  11    -0.534145523273E+03   -0.35136E-05   -0.42692E-05 32928   0.121E-04 0.105E-04
   7 F= -.53414552E+03 E0= -.53414552E+03  d E =-.177740E-01  mag=    60.0000
       N       E                     dE             d eps       ncg     rms          ort
SDA:   1    -0.533392343700E+03    0.75318E+00    0.00000E+00 32928   0.191E+01 0.000E+00
CGA:   2    -0.533970062585E+03   -0.57772E+00   -0.57669E+00 32928   0.857E+00 0.109E-01
CGA:   3    -0.534105528939E+03   -0.13547E+00   -0.13534E+00 32928   0.234E+00-0.171E-02
CGA:   4    -0.534140602994E+03   -0.35074E-01   -0.34957E-01 32928   0.581E-01-0.178E-02
CGA:   5    -0.534150165972E+03   -0.95630E-02   -0.95602E-02 32928   0.163E-01-0.644E-04
CGA:   6    -0.534152864994E+03   -0.26990E-02   -0.27188E-02 32928   0.425E-02 0.476E-03
CGA:   7    -0.534153693355E+03   -0.82836E-03   -0.83262E-03 32928   0.129E-02 0.262E-03
CGA:   8    -0.534154010790E+03   -0.31743E-03   -0.31698E-03 32928   0.475E-03 0.174E-04
CGA:   9    -0.534154151716E+03   -0.14093E-03   -0.14738E-03 32928   0.265E-03-0.651E-04
CGA:  10    -0.534154206071E+03   -0.54355E-04   -0.54293E-04 32928   0.877E-04 0.242E-05
CGA:  11    -0.534154220230E+03   -0.14159E-04   -0.15365E-04 32928   0.294E-04 0.304E-04
CGA:  12    -0.534154224206E+03   -0.39757E-05   -0.53392E-05 32928   0.110E-04 0.178E-04
   8 F= -.53415422E+03 E0= -.53415422E+03  d E =-.870093E-02  mag=    60.0000
       N       E                     dE             d eps       ncg     rms          ort
SDA:   1    -0.534127749762E+03    0.26470E-01    0.00000E+00 32928   0.681E-01 0.000E+00
CGA:   2    -0.534148037969E+03   -0.20288E-01   -0.20149E-01 32928   0.295E-01 0.163E-02
CGA:   3    -0.534152910477E+03   -0.48725E-02   -0.48549E-02 32928   0.851E-02-0.312E-03
CGA:   4    -0.534154212239E+03   -0.13018E-02   -0.12818E-02 32928   0.222E-02-0.328E-03
CGA:   5    -0.534154551291E+03   -0.33905E-03   -0.33882E-03 32928   0.604E-03-0.462E-05
CGA:   6    -0.534154635295E+03   -0.84004E-04   -0.88863E-04 32928   0.137E-03 0.809E-04
CGA:   7    -0.534154657442E+03   -0.22147E-04   -0.24231E-04 32928   0.424E-04 0.431E-04
CGA:   8    -0.534154667711E+03   -0.10269E-04   -0.10443E-04 32928   0.177E-04 0.121E-04
CGA:   9    -0.534154674453E+03   -0.67416E-05   -0.75487E-05 32928   0.161E-04-0.616E-05
   9 F= -.53415467E+03 E0= -.53415467E+03  d E =-.915118E-02  mag=    60.0000
       N       E                     dE             d eps       ncg     rms          ort
SDA:   1    -0.533456158673E+03    0.69851E+00    0.00000E+00 32928   0.175E+01 0.000E+00
CGA:   2    -0.533993538295E+03   -0.53738E+00   -0.53616E+00 32928   0.771E+00 0.118E-01
CGA:   3    -0.534115224799E+03   -0.12169E+00   -0.12161E+00 32928   0.216E+00-0.112E-02
CGA:   4    -0.534147747712E+03   -0.32523E-01   -0.32404E-01 32928   0.532E-01-0.198E-02
CGA:   5    -0.534156466907E+03   -0.87192E-02   -0.87090E-02 32928   0.148E-01-0.249E-03
CGA:   6    -0.534158878037E+03   -0.24111E-02   -0.24306E-02 32928   0.386E-02 0.498E-03
CGA:   7    -0.534159600584E+03   -0.72255E-03   -0.72920E-03 32928   0.107E-02 0.343E-03
CGA:   8    -0.534159856778E+03   -0.25619E-03   -0.25475E-03 32928   0.369E-03 0.865E-04
CGA:   9    -0.534159966545E+03   -0.10977E-03   -0.10985E-03 32928   0.180E-03-0.122E-05
CGA:  10    -0.534160007579E+03   -0.41034E-04   -0.40532E-04 32928   0.606E-04 0.244E-04
CGA:  11    -0.534160018056E+03   -0.10478E-04   -0.11571E-04 32928   0.220E-04 0.283E-04
CGA:  12    -0.534160021257E+03   -0.32003E-05   -0.43364E-05 32928   0.902E-05 0.161E-04
  10 F= -.53416002E+03 E0= -.53416002E+03  d E =-.534680E-02  mag=    60.0000
       N       E                     dE             d eps       ncg     rms          ort
SDA:   1    -0.534152101413E+03    0.79166E-02    0.00000E+00 32928   0.204E-01 0.000E+00
CGA:   2    -0.534158150973E+03   -0.60496E-02   -0.59595E-02 32928   0.830E-02 0.103E-02
CGA:   3    -0.534159593308E+03   -0.14423E-02   -0.14377E-02 32928   0.263E-02-0.102E-03
CGA:   4    -0.534160009201E+03   -0.41589E-03   -0.40586E-03 32928   0.732E-03-0.197E-03
CGA:   5    -0.534160112618E+03   -0.10342E-03   -0.10279E-03 32928   0.191E-03-0.119E-04
CGA:   6    -0.534160132816E+03   -0.20199E-04   -0.23644E-04 32928   0.429E-04 0.450E-04
CGA:   7    -0.534160135988E+03   -0.31722E-05   -0.55631E-05 32928   0.178E-04 0.256E-04
  11 F= -.53416014E+03 E0= -.53416014E+03  d E =-.546154E-02  mag=    60.0000
       N       E                     dE             d eps       ncg     rms          ort
SDA:   1    -0.533502494029E+03    0.65764E+00    0.00000E+00 32928   0.162E+01 0.000E+00
CGA:   2    -0.534029338284E+03   -0.52684E+00   -0.52577E+00 32928   0.614E+00 0.776E-02
CGA:   3    -0.534129048253E+03   -0.99710E-01   -0.99599E-01 32928   0.174E+00-0.283E-02
CGA:   4    -0.534154844551E+03   -0.25796E-01   -0.25724E-01 32928   0.424E-01-0.149E-02
CGA:   5    -0.534161792681E+03   -0.69481E-02   -0.69524E-02 32928   0.113E-01 0.150E-03
CGA:   6    -0.534163632939E+03   -0.18403E-02   -0.18538E-02 32928   0.290E-02 0.465E-03
CGA:   7    -0.534164190699E+03   -0.55776E-03   -0.55925E-03 32928   0.816E-03 0.263E-03
CGA:   8    -0.534164386084E+03   -0.19538E-03   -0.19366E-03 32928   0.285E-03 0.641E-04
CGA:   9    -0.534164473999E+03   -0.87915E-04   -0.88703E-04 32928   0.146E-03-0.815E-05
CGA:  10    -0.534164508296E+03   -0.34296E-04   -0.33830E-04 32928   0.511E-04 0.111E-04
CGA:  11    -0.534164517672E+03   -0.93764E-05   -0.97920E-05 32928   0.171E-04 0.200E-04
  12 F= -.53416452E+03 E0= -.53416452E+03  d E =-.438168E-02  mag=    60.0000
       N       E                     dE             d eps       ncg     rms          ort
SDA:   1    -0.534138284903E+03    0.26223E-01    0.00000E+00 32928   0.649E-01 0.000E+00
CGA:   2    -0.534159272163E+03   -0.20987E-01   -0.20830E-01 32928   0.239E-01 0.124E-02
CGA:   3    -0.534163355996E+03   -0.40838E-02   -0.40646E-02 32928   0.717E-02-0.550E-03
CGA:   4    -0.534164430174E+03   -0.10742E-02   -0.10604E-02 32928   0.177E-02-0.284E-03
CGA:   5    -0.534164700472E+03   -0.27030E-03   -0.27179E-03 32928   0.416E-03 0.396E-04
CGA:   6    -0.534164757923E+03   -0.57451E-04   -0.61566E-04 32928   0.980E-04 0.817E-04
CGA:   7    -0.534164771910E+03   -0.13987E-04   -0.16242E-04 32928   0.318E-04 0.416E-04
CGA:   8    -0.534164777305E+03   -0.53941E-05   -0.63200E-05 32928   0.131E-04 0.183E-04
  13 F= -.53416478E+03 E0= -.53416478E+03  d E =-.464132E-02  mag=    60.0000
       N       E                     dE             d eps       ncg     rms          ort
SDA:   1    -0.533924090453E+03    0.24068E+00    0.00000E+00 32928   0.603E+00 0.000E+00
CGA:   2    -0.534109720544E+03   -0.18563E+00   -0.18524E+00 32928   0.272E+00 0.339E-02
CGA:   3    -0.534151558606E+03   -0.41838E-01   -0.41764E-01 32928   0.728E-01-0.137E-02
CGA:   4    -0.534162663635E+03   -0.11105E-01   -0.11059E-01 32928   0.190E-01-0.958E-03
CGA:   5    -0.534165730245E+03   -0.30666E-02   -0.30644E-02 32928   0.515E-02-0.641E-04
CGA:   6    -0.534166559615E+03   -0.82937E-03   -0.83656E-03 32928   0.133E-02 0.214E-03
CGA:   7    -0.534166804504E+03   -0.24489E-03   -0.24727E-03 32928   0.367E-03 0.150E-03
CGA:   8    -0.534166891831E+03   -0.87326E-04   -0.86519E-04 32928   0.124E-03 0.456E-04
CGA:   9    -0.534166931208E+03   -0.39378E-04   -0.39904E-04 32928   0.678E-04-0.579E-05
CGA:  10    -0.534166947064E+03   -0.15855E-04   -0.15827E-04 32928   0.253E-04 0.628E-06
CGA:  11    -0.534166951039E+03   -0.39751E-05   -0.42861E-05 32928   0.870E-05 0.920E-05
  14 F= -.53416695E+03 E0= -.53416695E+03  d E =-.217373E-02  mag=    60.0000
       N       E                     dE             d eps       ncg     rms          ort
SDA:   1    -0.534165351710E+03    0.15954E-02    0.00000E+00 32928   0.411E-02 0.000E+00
CGA:   2    -0.534166575264E+03   -0.12236E-02   -0.12021E-02 32928   0.169E-02 0.222E-03
CGA:   3    -0.534166882373E+03   -0.30711E-03   -0.30350E-03 32928   0.566E-03-0.116E-03
CGA:   4    -0.534166969814E+03   -0.87441E-04   -0.84693E-04 32928   0.161E-03-0.707E-04
CGA:   5    -0.534166990195E+03   -0.20382E-04   -0.20530E-04 32928   0.332E-04 0.286E-05
CGA:   6    -0.534166992795E+03   -0.25993E-05   -0.37436E-05 32928   0.100E-04 0.136E-04
  15 F= -.53416699E+03 E0= -.53416699E+03  d E =-.221549E-02  mag=    60.0000
       N       E                     dE             d eps       ncg     rms          ort
SDA:   1    -0.534160567589E+03    0.64226E-02    0.00000E+00 32928   0.161E-01 0.000E+00
CGA:   2    -0.534165407242E+03   -0.48397E-02   -0.47816E-02 32928   0.697E-02 0.513E-03
CGA:   3    -0.534166571364E+03   -0.11641E-02   -0.11571E-02 32928   0.211E-02-0.234E-03
CGA:   4    -0.534166904992E+03   -0.33363E-03   -0.32891E-03 32928   0.573E-03-0.167E-03
CGA:   5    -0.534166987450E+03   -0.82458E-04   -0.82419E-04 32928   0.138E-03-0.121E-05
CGA:   6    -0.534167003695E+03   -0.16245E-04   -0.18025E-04 32928   0.324E-04 0.322E-04
CGA:   7    -0.534167006798E+03   -0.31027E-05   -0.44393E-05 32928   0.125E-04 0.184E-04
  16 F= -.53416701E+03 E0= -.53416701E+03  d E =-.222949E-02  mag=    60.0000
       N       E                     dE             d eps       ncg     rms          ort
SDA:   1    -0.533924999636E+03    0.24200E+00    0.00000E+00 32928   0.595E+00 0.000E+00
CGA:   2    -0.534119138694E+03   -0.19414E+00   -0.19326E+00 32928   0.220E+00 0.594E-02
CGA:   3    -0.534155489713E+03   -0.36351E-01   -0.36311E-01 32928   0.637E-01-0.175E-02
CGA:   4    -0.534165003351E+03   -0.95136E-02   -0.94703E-02 32928   0.159E-01-0.124E-02
CGA:   5    -0.534167552893E+03   -0.25495E-02   -0.25481E-02 32928   0.420E-02-0.739E-04
CGA:   6    -0.534168208455E+03   -0.65556E-03   -0.66179E-03 32928   0.104E-02 0.262E-03
CGA:   7    -0.534168397503E+03   -0.18905E-03   -0.19047E-03 32928   0.278E-03 0.172E-03
CGA:   8    -0.534168462462E+03   -0.64958E-04   -0.63972E-04 32928   0.955E-04 0.576E-04
CGA:   9    -0.534168491551E+03   -0.29089E-04   -0.28099E-04 32928   0.461E-04 0.158E-04
CGA:  10    -0.534168503152E+03   -0.11601E-04   -0.11257E-04 32928   0.171E-04 0.135E-04
CGA:  11    -0.534168506086E+03   -0.29338E-05   -0.33235E-05 32928   0.732E-05 0.110E-04
  17 F= -.53416851E+03 E0= -.53416851E+03  d E =-.149929E-02  mag=    60.0000
       N       E                     dE             d eps       ncg     rms          ort
SDA:   1    -0.534136066284E+03    0.32437E-01    0.00000E+00 32928   0.800E-01 0.000E+00
CGA:   2    -0.534161928269E+03   -0.25862E-01   -0.25582E-01 32928   0.287E-01 0.202E-02
CGA:   3    -0.534166892685E+03   -0.49644E-02   -0.49516E-02 32928   0.876E-02-0.621E-03
CGA:   4    -0.534168218013E+03   -0.13253E-02   -0.13101E-02 32928   0.223E-02-0.437E-03
CGA:   5    -0.534168558084E+03   -0.34007E-03   -0.33982E-03 32928   0.562E-03-0.986E-05
CGA:   6    -0.534168634052E+03   -0.75968E-04   -0.79698E-04 32928   0.128E-03 0.887E-04
CGA:   7    -0.534168652137E+03   -0.18085E-04   -0.20426E-04 32928   0.402E-04 0.518E-04
CGA:   8    -0.534168658431E+03   -0.62935E-05   -0.74331E-05 32928   0.165E-04 0.235E-04
  18 F= -.53416866E+03 E0= -.53416866E+03  d E =-.165163E-02  mag=    60.0000
       N       E                     dE             d eps       ncg     rms          ort
SDA:   1    -0.533936040433E+03    0.23261E+00    0.00000E+00 32928   0.579E+00 0.000E+00
CGA:   2    -0.534116391990E+03   -0.18035E+00   -0.17958E+00 32928   0.253E+00 0.595E-02
CGA:   3    -0.534155583203E+03   -0.39191E-01   -0.39135E-01 32928   0.696E-01-0.147E-02
CGA:   4    -0.534166195422E+03   -0.10612E-01   -0.10560E-01 32928   0.177E-01-0.148E-02
CGA:   5    -0.534169056656E+03   -0.28612E-02   -0.28561E-02 32928   0.490E-02-0.245E-03
CGA:   6    -0.534169829422E+03   -0.77277E-03   -0.77805E-03 32928   0.122E-02 0.223E-03
CGA:   7    -0.534170049707E+03   -0.22028E-03   -0.22190E-03 32928   0.330E-03 0.167E-03
CGA:   8    -0.534170128810E+03   -0.79103E-04   -0.77877E-04 32928   0.113E-03 0.500E-04
CGA:   9    -0.534170165017E+03   -0.36207E-04   -0.36337E-04 32928   0.620E-04-0.138E-05
CGA:  10    -0.534170179208E+03   -0.14191E-04   -0.13981E-04 32928   0.226E-04 0.535E-05
CGA:  11    -0.534170183045E+03   -0.38370E-05   -0.40776E-05 32928   0.833E-05 0.955E-05
  19 F= -.53417018E+03 E0= -.53417018E+03  d E =-.152461E-02  mag=    60.0000
       N       E                     dE             d eps       ncg     rms          ort
SDA:   1    -0.534170142950E+03    0.36258E-04    0.00000E+00 32928   0.127E-03 0.000E+00
CGA:   2    -0.534170168722E+03   -0.25772E-04   -0.25242E-04 32928   0.443E-04 0.450E-04
CGA:   3    -0.534170181800E+03   -0.13078E-04   -0.13010E-04 32928   0.202E-04 0.229E-05
CGA:   4    -0.534170185887E+03   -0.40864E-05   -0.42266E-05 32928   0.175E-04-0.135E-04
CGA:   5    -0.534170187364E+03   -0.14773E-05   -0.14983E-05 32928   0.173E-05 0.201E-06
CGA:   6    -0.534170187731E+03   -0.36746E-06   -0.35837E-06 32928   0.481E-06 0.438E-06
  20 F= -.53417019E+03 E0= -.53417019E+03  d E =-.152930E-02  mag=    60.0000
       N       E                     dE             d eps       ncg     rms          ort
SDA:   1    -0.534065826670E+03    0.10436E+00    0.00000E+00 32928   0.262E+00 0.000E+00
CGA:   2    -0.534144453095E+03   -0.78626E-01   -0.78227E-01 32928   0.126E+00 0.333E-02
CGA:   3    -0.534164161701E+03   -0.19709E-01   -0.19663E-01 32928   0.344E-01-0.138E-02
CGA:   4    -0.534169388521E+03   -0.52268E-02   -0.51909E-02 32928   0.887E-02-0.109E-02
CGA:   5    -0.534170805807E+03   -0.14173E-02   -0.14132E-02 32928   0.249E-02-0.208E-03
CGA:   6    -0.534171196218E+03   -0.39041E-03   -0.39285E-03 32928   0.626E-03 0.113E-03
CGA:   7    -0.534171305882E+03   -0.10966E-03   -0.11086E-03 32928   0.165E-03 0.953E-04
CGA:   8    -0.534171346096E+03   -0.40214E-04   -0.39562E-04 32928   0.584E-04 0.239E-04
CGA:   9    -0.534171365781E+03   -0.19685E-04   -0.22928E-04 32928   0.516E-04-0.203E-04
CGA:  10    -0.534171372919E+03   -0.71376E-05   -0.73895E-05 32928   0.234E-04-0.883E-05
  21 F= -.53417137E+03 E0= -.53417137E+03  d E =-.118519E-02  mag=    60.0000
       N       E                     dE             d eps       ncg     rms          ort
SDA:   1    -0.534170159860E+03    0.12059E-02    0.00000E+00 32928   0.326E-02 0.000E+00
CGA:   2    -0.534171081574E+03   -0.92171E-03   -0.89615E-03 32928   0.142E-02 0.305E-03
CGA:   3    -0.534171351486E+03   -0.26991E-03   -0.26663E-03 32928   0.625E-03-0.138E-03
CGA:   4    -0.534171438832E+03   -0.87346E-04   -0.82065E-04 32928   0.177E-03-0.109E-03
CGA:   5    -0.534171461080E+03   -0.22248E-04   -0.21606E-04 32928   0.420E-04-0.148E-04
CGA:   6    -0.534171465332E+03   -0.42526E-05   -0.49677E-05 32928   0.116E-04 0.119E-04
  22 F= -.53417147E+03 E0= -.53417147E+03  d E =-.127760E-02  mag=    60.0000
       N       E                     dE             d eps       ncg     rms          ort
SDA:   1    -0.534166601574E+03    0.48595E-02    0.00000E+00 32928   0.125E-01 0.000E+00
CGA:   2    -0.534170225315E+03   -0.36237E-02   -0.35545E-02 32928   0.564E-02 0.673E-03
CGA:   3    -0.534171221051E+03   -0.99574E-03   -0.98982E-03 32928   0.187E-02-0.291E-03
CGA:   4    -0.534171517363E+03   -0.29631E-03   -0.29111E-03 32928   0.521E-03-0.237E-03
CGA:   5    -0.534171590873E+03   -0.73510E-04   -0.72824E-04 32928   0.130E-03-0.279E-04
CGA:   6    -0.534171606059E+03   -0.15186E-04   -0.16491E-04 32928   0.302E-04 0.266E-04
CGA:   7    -0.534171609049E+03   -0.29904E-05   -0.40991E-05 32928   0.114E-04 0.162E-04
  23 F= -.53417161E+03 E0= -.53417161E+03  d E =-.142132E-02  mag=    60.0000
       N       E                     dE             d eps       ncg     rms          ort
SDA:   1    -0.534151439861E+03    0.20166E-01    0.00000E+00 32928   0.506E-01 0.000E+00
CGA:   2    -0.534166441130E+03   -0.15001E-01   -0.14833E-01 32928   0.237E-01 0.144E-02
CGA:   3    -0.534170326898E+03   -0.38858E-02   -0.38710E-02 32928   0.708E-02-0.602E-03
CGA:   4    -0.534171400682E+03   -0.10738E-02   -0.10602E-02 32928   0.193E-02-0.479E-03
CGA:   5    -0.534171692808E+03   -0.29213E-03   -0.29042E-03 32928   0.528E-03-0.874E-04
CGA:   6    -0.534171766985E+03   -0.74177E-04   -0.75664E-04 32928   0.122E-03 0.503E-04
CGA:   7    -0.534171784854E+03   -0.17870E-04   -0.19204E-04 32928   0.344E-04 0.390E-04
CGA:   8    -0.534171791358E+03   -0.65040E-05   -0.68769E-05 32928   0.134E-04 0.150E-04
  24 F= -.53417179E+03 E0= -.53417179E+03  d E =-.160363E-02  mag=    60.0000
       N       E                     dE             d eps       ncg     rms          ort
SDA:   1    -0.534089544770E+03    0.82240E-01    0.00000E+00 32928   0.204E+00 0.000E+00
CGA:   2    -0.534150590627E+03   -0.61046E-01   -0.60679E-01 32928   0.977E-01 0.300E-02
CGA:   3    -0.534165972092E+03   -0.15381E-01   -0.15347E-01 32928   0.270E-01-0.120E-02
CGA:   4    -0.534170060650E+03   -0.40886E-02   -0.40596E-02 32928   0.695E-02-0.964E-03
CGA:   5    -0.534171184097E+03   -0.11234E-02   -0.11209E-02 32928   0.192E-02-0.190E-03
CGA:   6    -0.534171483695E+03   -0.29960E-03   -0.30147E-03 32928   0.475E-03 0.100E-03
CGA:   7    -0.534171565862E+03   -0.82167E-04   -0.83218E-04 32928   0.124E-03 0.838E-04
CGA:   8    -0.534171596051E+03   -0.30189E-04   -0.29632E-04 32928   0.442E-04 0.233E-04
CGA:   9    -0.534171611536E+03   -0.15485E-04   -0.17658E-04 32928   0.379E-04-0.138E-04
CGA:  10    -0.534171617033E+03   -0.54973E-05   -0.56778E-05 32928   0.172E-04-0.587E-05
  25 F= -.53417162E+03 E0= -.53417162E+03  d E =-.142930E-02  mag=    60.0000
       N       E                     dE             d eps       ncg     rms          ort
SDA:   1    -0.534123885195E+03    0.47726E-01    0.00000E+00 32928   0.119E+00 0.000E+00
CGA:   2    -0.534160106306E+03   -0.36221E-01   -0.36453E-01 32928   0.603E-01-0.198E-02
CGA:   3    -0.534168763231E+03   -0.86569E-02   -0.86971E-02 32928   0.148E-01 0.865E-03
CGA:   4    -0.534170933835E+03   -0.21706E-02   -0.22032E-02 32928   0.342E-02 0.727E-03
CGA:   5    -0.534171536761E+03   -0.60293E-03   -0.60634E-03 32928   0.947E-03 0.168E-03
CGA:   6    -0.534171728977E+03   -0.19222E-03   -0.19262E-03 32928   0.330E-03-0.690E-04
CGA:   7    -0.534171794371E+03   -0.65394E-04   -0.67757E-04 32928   0.143E-03-0.710E-04
CGA:   8    -0.534171815416E+03   -0.21045E-04   -0.21039E-04 32928   0.413E-04-0.260E-05
CGA:   9    -0.534171820622E+03   -0.52059E-05   -0.59070E-05 32928   0.147E-04 0.158E-04
  26 F= -.53417182E+03 E0= -.53417182E+03  d E =-.163289E-02  mag=    60.0000
       N       E                     dE             d eps       ncg     rms          ort
SDA:   1    -0.534169997544E+03    0.18179E-02    0.00000E+00 32928   0.451E-02 0.000E+00
CGA:   2    -0.534171412935E+03   -0.14154E-02   -0.14772E-02 32928   0.270E-02-0.434E-03
CGA:   3    -0.534171713089E+03   -0.30015E-03   -0.31038E-03 32928   0.599E-03 0.159E-03
CGA:   4    -0.534171778182E+03   -0.65093E-04   -0.75134E-04 32928   0.136E-03 0.144E-03
CGA:   5    -0.534171795322E+03   -0.17140E-04   -0.20383E-04 32928   0.433E-04 0.506E-04
CGA:   6    -0.534171804464E+03   -0.91420E-05   -0.93661E-05 32928   0.142E-04 0.937E-05
CGA:   7    -0.534171788421E+03    0.16042E-04   -0.13119E-04 32928   0.153E-03-0.503E-04
CGA:   8    -0.534171806897E+03   -0.18475E-04   -0.19842E-04 32928   0.262E-04 0.172E-04
CGA:   9    -0.534171810230E+03   -0.33328E-05   -0.40464E-05 32928   0.710E-05 0.107E-04
  27 F= -.53417181E+03 E0= -.53417181E+03  d E =-.162250E-02  mag=    60.0000
       N       E                     dE             d eps       ncg     rms          ort
SDA:   1    -0.534095341335E+03    0.76466E-01    0.00000E+00 32928   0.191E+00 0.000E+00
CGA:   2    -0.534152648075E+03   -0.57307E-01   -0.57029E-01 32928   0.934E-01 0.275E-02
CGA:   3    -0.534167293529E+03   -0.14645E-01   -0.14609E-01 32928   0.255E-01-0.722E-03
CGA:   4    -0.534171194073E+03   -0.39005E-02   -0.38597E-02 32928   0.665E-02-0.833E-03
CGA:   5    -0.534172257979E+03   -0.10639E-02   -0.10553E-02 32928   0.192E-02-0.245E-03
CGA:   6    -0.534172554420E+03   -0.29644E-03   -0.29851E-03 32928   0.484E-03 0.572E-04
CGA:   7    -0.534172633021E+03   -0.78601E-04   -0.81199E-04 32928   0.120E-03 0.795E-04
CGA:   8    -0.534172657764E+03   -0.24743E-04   -0.25211E-04 32928   0.398E-04 0.328E-04
CGA:   9    -0.534172669524E+03   -0.11760E-04   -0.11520E-04 32928   0.187E-04 0.701E-05
CGA:  10    -0.534172675475E+03   -0.59509E-05   -0.59566E-05 32928   0.892E-05-0.769E-07
  28 F= -.53417268E+03 E0= -.53417268E+03  d E =-.865245E-03  mag=    60.0000
       N       E                     dE             d eps       ncg     rms          ort
SDA:   1    -0.534170040091E+03    0.26294E-02    0.00000E+00 32928   0.684E-02 0.000E+00
CGA:   2    -0.534172009494E+03   -0.19694E-02   -0.19323E-02 32928   0.304E-02 0.462E-03
CGA:   3    -0.534172558073E+03   -0.54858E-03   -0.54346E-03 32928   0.102E-02-0.129E-03
CGA:   4    -0.534172721674E+03   -0.16360E-03   -0.15717E-03 32928   0.317E-03-0.148E-03
CGA:   5    -0.534172766129E+03   -0.44455E-04   -0.42809E-04 32928   0.848E-04-0.369E-04
CGA:   6    -0.534172775430E+03   -0.93009E-05   -0.10211E-04 32928   0.188E-04 0.142E-04
  29 F= -.53417278E+03 E0= -.53417278E+03  d E =-.965200E-03  mag=    60.0000
       N       E                     dE             d eps       ncg     rms          ort
SDA:   1    -0.534162148200E+03    0.10618E-01    0.00000E+00 32928   0.268E-01 0.000E+00
CGA:   2    -0.534169985525E+03   -0.78373E-02   -0.77381E-02 32928   0.125E-01 0.102E-02
CGA:   3    -0.534172080471E+03   -0.20949E-02   -0.20852E-02 32928   0.369E-02-0.268E-03
CGA:   4    -0.534172682447E+03   -0.60198E-03   -0.59168E-03 32928   0.101E-02-0.326E-03
CGA:   5    -0.534172838287E+03   -0.15584E-03   -0.15383E-03 32928   0.283E-03-0.771E-04
CGA:   6    -0.534172875003E+03   -0.36716E-04   -0.38023E-04 32928   0.647E-04 0.281E-04
CGA:   7    -0.534172882426E+03   -0.74230E-05   -0.90188E-05 32928   0.194E-04 0.253E-04
  30 F= -.53417288E+03 E0= -.53417288E+03  d E =-.107220E-02  mag=    60.0000
       N       E                     dE             d eps       ncg     rms          ort
SDA:   1    -0.534129261647E+03    0.43613E-01    0.00000E+00 32928   0.108E+00 0.000E+00
CGA:   2    -0.534161388727E+03   -0.32127E-01   -0.31876E-01 32928   0.518E-01 0.221E-02
CGA:   3    -0.534169685413E+03   -0.82967E-02   -0.82781E-02 32928   0.144E-01-0.569E-03
CGA:   4    -0.534171906492E+03   -0.22211E-02   -0.21993E-02 32928   0.394E-02-0.662E-03
CGA:   5    -0.534172519468E+03   -0.61298E-03   -0.60843E-03 32928   0.113E-02-0.193E-03
CGA:   6    -0.534172687958E+03   -0.16849E-03   -0.16978E-03 32928   0.275E-03 0.475E-04
CGA:   7    -0.534172730125E+03   -0.42167E-04   -0.44005E-04 32928   0.694E-04 0.619E-04
CGA:   8    -0.534172742957E+03   -0.12832E-04   -0.13454E-04 32928   0.248E-04 0.268E-04
CGA:   9    -0.534172749404E+03   -0.64470E-05   -0.63934E-05 32928   0.107E-04 0.919E-05
  31 F= -.53417275E+03 E0= -.53417275E+03  d E =-.939174E-03  mag=    60.0000
       N       E                     dE             d eps       ncg     rms          ort
SDA:   1    -0.534164778017E+03    0.79649E-02    0.00000E+00 32928   0.198E-01 0.000E+00
CGA:   2    -0.534170935155E+03   -0.61571E-02   -0.62830E-02 32928   0.109E-01-0.956E-03
CGA:   3    -0.534172378665E+03   -0.14435E-02   -0.14558E-02 32928   0.262E-02 0.244E-03
CGA:   4    -0.534172719323E+03   -0.34066E-03   -0.35681E-03 32928   0.602E-03 0.293E-03
CGA:   5    -0.534172811987E+03   -0.92664E-04   -0.97264E-04 32928   0.152E-03 0.114E-03
CGA:   6    -0.534172847043E+03   -0.35056E-04   -0.35022E-04 32928   0.521E-04 0.342E-05
CGA:   7    -0.534172858356E+03   -0.11313E-04   -0.18891E-04 32928   0.707E-04-0.445E-04
CGA:   8    -0.534172866324E+03   -0.79681E-05   -0.85674E-05 32928   0.892E-05 0.839E-05
  32 F= -.53417287E+03 E0= -.53417287E+03  d E =-.105609E-02  mag=    60.0000
       N       E                     dE             d eps       ncg     rms          ort
SDA:   1    -0.534169278793E+03    0.35796E-02    0.00000E+00 32928   0.888E-02 0.000E+00
CGA:   2    -0.534172059090E+03   -0.27803E-02   -0.28670E-02 32928   0.511E-02-0.640E-03
CGA:   3    -0.534172685860E+03   -0.62677E-03   -0.63605E-03 32928   0.120E-02 0.156E-03
CGA:   4    -0.534172832396E+03   -0.14654E-03   -0.15864E-03 32928   0.259E-03 0.195E-03
CGA:   5    -0.534172869411E+03   -0.37015E-04   -0.40894E-04 32928   0.729E-04 0.751E-04
CGA:   6    -0.534172885110E+03   -0.15699E-04   -0.15880E-04 32928   0.234E-04 0.112E-04
CGA:   7    -0.534172885921E+03   -0.81123E-06   -0.13615E-04 32928   0.788E-04-0.401E-04
  33 F= -.53417289E+03 E0= -.53417289E+03  d E =-.107569E-02  mag=    60.0000
       N       E                     dE             d eps       ncg     rms          ort
SDA:   1    -0.534093099695E+03    0.79785E-01    0.00000E+00 32928   0.194E+00 0.000E+00
CGA:   2    -0.534157738795E+03   -0.64639E-01   -0.64350E-01 32928   0.693E-01 0.211E-02
CGA:   3    -0.534169332984E+03   -0.11594E-01   -0.11581E-01 32928   0.204E-01-0.327E-03
CGA:   4    -0.534172382259E+03   -0.30493E-02   -0.30253E-02 32928   0.491E-02-0.455E-03
CGA:   5    -0.534173196545E+03   -0.81429E-03   -0.80974E-03 32928   0.139E-02-0.152E-03
CGA:   6    -0.534173415389E+03   -0.21884E-03   -0.21952E-03 32928   0.355E-03 0.198E-04
CGA:   7    -0.534173476154E+03   -0.60765E-04   -0.61746E-04 32928   0.899E-04 0.407E-04
CGA:   8    -0.534173493676E+03   -0.17522E-04   -0.17888E-04 32928   0.278E-04 0.232E-04
CGA:   9    -0.534173500121E+03   -0.64445E-05   -0.65238E-05 32928   0.117E-04 0.115E-04
  34 F= -.53417350E+03 E0= -.53417350E+03  d E =-.614199E-03  mag=    60.0000
       N       E                     dE             d eps       ncg     rms          ort
SDA:   1    -0.534142631179E+03    0.30862E-01    0.00000E+00 32928   0.745E-01 0.000E+00
CGA:   2    -0.534167391699E+03   -0.24761E-01   -0.24582E-01 32928   0.263E-01 0.130E-02
CGA:   3    -0.534171834324E+03   -0.44426E-02   -0.44357E-02 32928   0.794E-02-0.196E-03
CGA:   4    -0.534173035827E+03   -0.12015E-02   -0.11879E-02 32928   0.193E-02-0.284E-03
CGA:   5    -0.534173353846E+03   -0.31802E-03   -0.31554E-03 32928   0.579E-03-0.927E-04
CGA:   6    -0.534173438844E+03   -0.84998E-04   -0.85459E-04 32928   0.142E-03 0.116E-04
CGA:   7    -0.534173461272E+03   -0.22428E-04   -0.23238E-04 32928   0.350E-04 0.249E-04
CGA:   8    -0.534173467060E+03   -0.57880E-05   -0.63102E-05 32928   0.120E-04 0.139E-04
  35 F= -.53417347E+03 E0= -.53417347E+03  d E =-.581139E-03  mag=    60.0000
       N       E                     dE             d eps       ncg     rms          ort
SDA:   1    -0.534112980813E+03    0.60480E-01    0.00000E+00 32928   0.150E+00 0.000E+00
CGA:   2    -0.534160257800E+03   -0.47277E-01   -0.47422E-01 32928   0.658E-01-0.114E-02
CGA:   3    -0.534170163972E+03   -0.99062E-02   -0.99097E-02 32928   0.180E-01 0.965E-04
CGA:   4    -0.534172849255E+03   -0.26853E-02   -0.26944E-02 32928   0.430E-02 0.219E-03
CGA:   5    -0.534173569129E+03   -0.71987E-03   -0.71936E-03 32928   0.121E-02-0.216E-04
CGA:   6    -0.534173794624E+03   -0.22549E-03   -0.22534E-03 32928   0.394E-03-0.961E-04
CGA:   7    -0.534173864734E+03   -0.70110E-04   -0.70267E-04 32928   0.118E-03-0.268E-04
CGA:   8    -0.534173883907E+03   -0.19173E-04   -0.19380E-04 32928   0.305E-04 0.167E-04
CGA:   9    -0.534173889863E+03   -0.59562E-05   -0.60969E-05 32928   0.111E-04 0.114E-04
  36 F= -.53417389E+03 E0= -.53417389E+03  d E =-.422803E-03  mag=    60.0000
       N       E                     dE             d eps       ncg     rms          ort
SDA:   1    -0.534164727292E+03    0.91566E-02    0.00000E+00 32928   0.223E-01 0.000E+00
CGA:   2    -0.534171802123E+03   -0.70748E-02   -0.71350E-02 32928   0.101E-01-0.469E-03
CGA:   3    -0.534173272420E+03   -0.14703E-02   -0.14722E-02 32928   0.278E-02 0.412E-04
CGA:   4    -0.534173670021E+03   -0.39760E-03   -0.40200E-03 32928   0.665E-03 0.878E-04
CGA:   5    -0.534173777802E+03   -0.10778E-03   -0.10772E-03 32928   0.207E-03-0.179E-05
CGA:   6    -0.534173819185E+03   -0.41383E-04   -0.41925E-04 32928   0.803E-04-0.409E-04
CGA:   7    -0.534173832215E+03   -0.13030E-04   -0.13213E-04 32928   0.264E-04-0.127E-04
CGA:   8    -0.534173835042E+03   -0.28269E-05   -0.31456E-05 32928   0.737E-05 0.640E-05
  37 F= -.53417384E+03 E0= -.53417384E+03  d E =-.367982E-03  mag=    60.0000
       N       E                     dE             d eps       ncg     rms          ort
SDA:   1    -0.534112230340E+03    0.61602E-01    0.00000E+00 32928   0.154E+00 0.000E+00
CGA:   2    -0.534159936280E+03   -0.47706E-01   -0.47993E-01 32928   0.697E-01-0.228E-02
CGA:   3    -0.534170302481E+03   -0.10366E-01   -0.10378E-01 32928   0.191E-01 0.298E-03
CGA:   4    -0.534173091122E+03   -0.27886E-02   -0.28098E-02 32928   0.446E-02 0.499E-03
CGA:   5    -0.534173847507E+03   -0.75639E-03   -0.75787E-03 32928   0.123E-02 0.695E-04
CGA:   6    -0.534174086112E+03   -0.23860E-03   -0.23920E-03 32928   0.422E-03-0.107E-03
CGA:   7    -0.534174164508E+03   -0.78396E-04   -0.79391E-04 32928   0.144E-03-0.505E-04
CGA:   8    -0.534174187724E+03   -0.23216E-04   -0.23257E-04 32928   0.385E-04 0.105E-04
CGA:   9    -0.534174195125E+03   -0.74010E-05   -0.74726E-05 32928   0.132E-04 0.120E-04
  38 F= -.53417420E+03 E0= -.53417420E+03  d E =-.360083E-03  mag=    60.0000
       N       E                     dE             d eps       ncg     rms          ort
SDA:   1    -0.534144570972E+03    0.29617E-01    0.00000E+00 32928   0.732E-01 0.000E+00
CGA:   2    -0.534167320417E+03   -0.22749E-01   -0.22941E-01 32928   0.338E-01-0.157E-02
CGA:   3    -0.534172243709E+03   -0.49233E-02   -0.49328E-02 32928   0.928E-02 0.206E-03
CGA:   4    -0.534173565594E+03   -0.13219E-02   -0.13392E-02 32928   0.217E-02 0.342E-03
CGA:   5    -0.534173920438E+03   -0.35484E-03   -0.35671E-03 32928   0.632E-03 0.564E-04
CGA:   6    -0.534174045444E+03   -0.12501E-03   -0.12523E-03 32928   0.221E-03-0.700E-04
CGA:   7    -0.534174087223E+03   -0.41779E-04   -0.42856E-04 32928   0.824E-04-0.385E-04
CGA:   8    -0.534174099065E+03   -0.11843E-04   -0.11943E-04 32928   0.218E-04 0.636E-05
CGA:   9    -0.534174102485E+03   -0.34191E-05   -0.36938E-05 32928   0.791E-05 0.829E-05
  39 F= -.53417410E+03 E0= -.53417410E+03  d E =-.267443E-03  mag=    60.0000
       N       E                     dE             d eps       ncg     rms          ort
SDA:   1    -0.534097398606E+03    0.76700E-01    0.00000E+00 32928   0.189E+00 0.000E+00
CGA:   2    -0.534157399177E+03   -0.60001E-01   -0.60168E-01 32928   0.837E-01-0.132E-02
CGA:   3    -0.534169877198E+03   -0.12478E-01   -0.12506E-01 32928   0.219E-01 0.637E-03
CGA:   4    -0.534173126066E+03   -0.32489E-02   -0.32681E-02 32928   0.526E-02 0.429E-03
CGA:   5    -0.534174019729E+03   -0.89366E-03   -0.89431E-03 32928   0.152E-02 0.267E-04
CGA:   6    -0.534174296926E+03   -0.27720E-03   -0.27652E-03 32928   0.467E-03-0.823E-04
CGA:   7    -0.534174386755E+03   -0.89829E-04   -0.90591E-04 32928   0.158E-03-0.480E-04
CGA:   8    -0.534174415863E+03   -0.29107E-04   -0.29146E-04 32928   0.471E-04-0.241E-05
CGA:   9    -0.534174425660E+03   -0.97978E-05   -0.96537E-05 32928   0.146E-04 0.828E-05
  40 F= -.53417443E+03 E0= -.53417443E+03  d E =-.323176E-03  mag=    60.0000
