       N       E                     dE             d eps       ncg     rms          ort
DAV:   1     0.734599161053E+04    0.73460E+04   -0.35041E+05  9568   0.175E+03
DAV:   2     0.485582954225E+03   -0.68604E+04   -0.64369E+04  9568   0.512E+02
DAV:   3    -0.315626162295E+03   -0.80121E+03   -0.77674E+03  9568   0.195E+02
DAV:   4    -0.349030317771E+03   -0.33404E+02   -0.32966E+02  9568   0.384E+01
DAV:   5    -0.351252522432E+03   -0.22222E+01   -0.21946E+01  9568   0.758E+00
SDA:   6    -0.171346322534E+03    0.17991E+03   -0.21946E+01  9568   0.144E+04 0.000E+00
CGA:   7    -0.274653325672E+03   -0.10331E+03   -0.14263E+03  9568   0.630E+03-0.978E+01
CGA:   8    -0.286026051708E+03   -0.11373E+02   -0.11802E+02  9568   0.188E+03 0.202E+03
CGA:   9    -0.285947494059E+03    0.78558E-01   -0.12381E+02  9568   0.529E+03-0.640E+02
CGA:  10    -0.288384659245E+03   -0.24372E+01   -0.64987E+01  9568   0.617E+03-0.758E+02
CGA:  11    -0.276332622222E+03    0.12052E+02   -0.72434E+01  9568   0.150E+04-0.496E+03
CGA:  12    -0.284970020216E+03   -0.86374E+01   -0.59391E+02  9568   0.672E+03-0.322E+03
CGA:  13    -0.291233068671E+03   -0.62630E+01   -0.77195E+01  9568   0.364E+03-0.251E+03
CGA:  14    -0.296732855339E+03   -0.54998E+01   -0.25008E+01  9568   0.190E+03 0.935E+02
CGA:  15    -0.296565340296E+03    0.16752E+00   -0.66465E+01  9568   0.379E+03 0.737E+02
CGA:  16    -0.269495990010E+03    0.27069E+02   -0.17146E+02  9568   0.146E+04-0.363E+03
CGA:  17    -0.221314383093E+03    0.48182E+02   -0.61098E+02  9568   0.163E+05-0.855E+04
CGA:  18    -0.170547614255E+03    0.50767E+02   -0.81356E+03  9568   0.744E+04-0.571E+04
CGA:  19    -0.276591667560E+03   -0.10604E+03   -0.14346E+03  9568   0.122E+04 0.432E+02
CGA:  20    -0.293874793325E+03   -0.17283E+02   -0.21531E+02  9568   0.546E+03-0.304E+02
CGA:  21    -0.295498333226E+03   -0.16235E+01   -0.11534E+02  9568   0.645E+03-0.297E+03
CGA:  22    -0.296508857836E+03   -0.10105E+01   -0.15012E+02  9568   0.167E+04-0.477E+03
CGA:  23    -0.297849813514E+03   -0.13410E+01   -0.58928E+02  9568   0.801E+03-0.513E+03
CGA:  24    -0.303494683964E+03   -0.56449E+01   -0.12235E+02  9568   0.106E+03-0.585E+02
CGA:  25    -0.304789783328E+03   -0.12951E+01   -0.18310E+01  9568   0.261E+03-0.111E+03
CGA:  26    -0.304485620109E+03    0.30416E+00   -0.11586E+02  9568   0.131E+03-0.215E+02
CGA:  27    -0.305507837872E+03   -0.10222E+01   -0.18644E+01  9568   0.180E+03-0.219E+03
CGA:  28    -0.304898611741E+03    0.60923E+00   -0.47901E+01  9568   0.150E+03-0.660E+02
CGA:  29    -0.306870269012E+03   -0.19717E+01   -0.12979E+01  9568   0.109E+02-0.146E+02
CGA:  30    -0.306905240582E+03   -0.34972E-01   -0.17142E-01  9568   0.107E+02 0.102E+02
CGA:  31    -0.306959092111E+03   -0.53852E-01   -0.26994E-01  9568   0.975E+01 0.106E+02
CGA:  32    -0.307007120677E+03   -0.48029E-01   -0.23771E-01  9568   0.912E+01 0.991E+01
CGA:  33    -0.307055737674E+03   -0.48617E-01   -0.24136E-01  9568   0.831E+01 0.920E+01
CGA:  34    -0.307107500153E+03   -0.51762E-01   -0.26104E-01  9568   0.704E+01 0.809E+01
CGA:  35    -0.307163741103E+03   -0.56241E-01   -0.29442E-01  9568   0.510E+01 0.629E+01
CGA:  36    -0.307225430582E+03   -0.61689E-01   -0.35557E-01  9568   0.262E+01 0.357E+01
CGA:  37    -0.307306214272E+03   -0.80784E-01   -0.69583E-01  9568   0.360E+01 0.247E+00
CGA:  38    -0.307554046999E+03   -0.24783E+00   -0.26897E+00  9568   0.156E+02-0.117E+01
CGA:  39    -0.307582632294E+03   -0.28585E-01   -0.23310E-01  9568   0.133E+02 0.145E+01
CGA:  40    -0.307600717614E+03   -0.18085E-01   -0.49044E-01  9568   0.143E+02-0.128E+02
CGA:  41    -0.307730040893E+03   -0.12932E+00   -0.23076E+00  9568   0.101E+02-0.461E+01
CGA:  42    -0.307794792419E+03   -0.64752E-01   -0.41835E-01  9568   0.437E+01 0.351E+01
CGA:  43    -0.307841621147E+03   -0.46829E-01   -0.49209E-01  9568   0.356E+01-0.296E+00
CGA:  44    -0.307903060037E+03   -0.61439E-01   -0.56572E-01  9568   0.873E+01 0.183E+00
CGA:  45    -0.307976861419E+03   -0.73801E-01   -0.44273E-01  9568   0.779E+01 0.620E+01
CGA:  46    -0.308047153519E+03   -0.70292E-01   -0.91186E-01  9568   0.257E+01-0.143E+01
CGA:  47    -0.308105339085E+03   -0.58186E-01   -0.58558E-01  9568   0.306E+01 0.350E-02
CGA:  48    -0.308277331900E+03   -0.17199E+00   -0.18334E+00  9568   0.477E+01-0.971E+00
CGA:  49    -0.308306377563E+03   -0.29046E-01   -0.20494E-01  9568   0.373E+01 0.131E+01
CGA:  50    -0.308350169994E+03   -0.43792E-01   -0.31426E-01  9568   0.206E+01 0.184E+01
CGA:  51    -0.308390551855E+03   -0.40382E-01   -0.37311E-01  9568   0.244E+01 0.214E+00
CGA:  52    -0.308423283672E+03   -0.32732E-01   -0.35729E-01  9568   0.341E+01-0.193E+00
CGA:  53    -0.308450749149E+03   -0.27465E-01   -0.21118E-01  9568   0.382E+01 0.849E+00
CGA:  54    -0.308473254392E+03   -0.22505E-01   -0.12880E-01  9568   0.335E+01 0.353E+01
CGA:  55    -0.308513414894E+03   -0.40161E-01   -0.43371E-01  9568   0.157E+01-0.178E+00
CGA:  56    -0.308540343548E+03   -0.26929E-01   -0.28342E-01  9568   0.108E+01-0.840E-02
CGA:  57    -0.308592385782E+03   -0.52042E-01   -0.48311E-01  9568   0.602E+00 0.195E+00
CGA:  58    -0.308646932388E+03   -0.54547E-01   -0.48194E-01  9568   0.583E+00 0.160E+00
CGA:  59    -0.308682864433E+03   -0.35932E-01   -0.36514E-01  9568   0.691E+00-0.335E-01
CGA:  60    -0.308706580747E+03   -0.23716E-01   -0.24127E-01  9568   0.699E+00-0.755E-01
CGA:  61    -0.308722489453E+03   -0.15909E-01   -0.13594E-01  9568   0.368E+00 0.351E-01
CGA:  62    -0.308729184204E+03   -0.66948E-02   -0.66503E-02  9568   0.256E+00-0.230E-02
CGA:  63    -0.308737637422E+03   -0.84532E-02   -0.84426E-02  9568   0.444E+00 0.781E-02
CGA:  64    -0.308750237310E+03   -0.12600E-01   -0.12663E-01  9568   0.302E+00 0.448E-02
CGA:  65    -0.308755421019E+03   -0.51837E-02   -0.54035E-02  9568   0.206E+00-0.560E-02
CGA:  66    -0.308761832763E+03   -0.64117E-02   -0.64121E-02  9568   0.653E-01 0.601E-02
CGA:  67    -0.308763671811E+03   -0.18390E-02   -0.18637E-02  9568   0.631E-01 0.779E-03
CGA:  68    -0.308765689896E+03   -0.20181E-02   -0.20179E-02  9568   0.538E-01 0.131E-04
CGA:  69    -0.308767168457E+03   -0.14786E-02   -0.14917E-02  9568   0.653E-01 0.417E-03
CGA:  70    -0.308769413775E+03   -0.22453E-02   -0.22339E-02  9568   0.338E-01 0.198E-02
CGA:  71    -0.308770278128E+03   -0.86435E-03   -0.86757E-03  9568   0.311E-01-0.152E-03
CGA:  72    -0.308771238655E+03   -0.96053E-03   -0.96060E-03  9568   0.234E-01 0.201E-03
CGA:  73    -0.308772037576E+03   -0.79892E-03   -0.79740E-03  9568   0.242E-01 0.236E-03
CGA:  74    -0.308772917691E+03   -0.88011E-03   -0.87493E-03  9568   0.304E-01 0.655E-03
CGA:  75    -0.308773829344E+03   -0.91165E-03   -0.91204E-03  9568   0.160E-01 0.284E-04
CGA:  76    -0.308774268317E+03   -0.43897E-03   -0.44070E-03  9568   0.133E-01 0.127E-03
CGA:  77    -0.308774729820E+03   -0.46150E-03   -0.46162E-03  9568   0.122E-01-0.405E-04
CGA:  78    -0.308775117530E+03   -0.38771E-03   -0.38754E-03  9568   0.109E-01 0.187E-03
CGA:  79    -0.308775600345E+03   -0.48282E-03   -0.48578E-03  9568   0.156E-01-0.198E-03
CGA:  80    -0.308776016720E+03   -0.41638E-03   -0.41995E-03  9568   0.630E-02 0.222E-03
CGA:  81    -0.308776217538E+03   -0.20082E-03   -0.20080E-03  9568   0.602E-02-0.369E-04
CGA:  82    -0.308776453936E+03   -0.23640E-03   -0.23418E-03  9568   0.714E-02 0.195E-03
CGA:  83    -0.308776732422E+03   -0.27849E-03   -0.28035E-03  9568   0.717E-02-0.214E-03
CGA:  84    -0.308776953119E+03   -0.22070E-03   -0.22096E-03  9568   0.382E-02 0.170E-03
SDA:  85    -0.308777066209E+03   -0.11309E-03   -0.11289E-03  9568   0.355E-02-0.276E-04
CGA:  86    -0.308777111745E+03   -0.45537E-04   -0.45546E-04  9568   0.110E-02-0.521E-05
CGA:  87    -0.308777196291E+03   -0.84546E-04   -0.83512E-04  9568   0.225E-02 0.233E-04
CGA:  88    -0.308777300777E+03   -0.10449E-03   -0.10454E-03  9568   0.256E-02-0.433E-05
CGA:  89    -0.308777456484E+03   -0.15571E-03   -0.15551E-03  9568   0.197E-02 0.638E-05
CGA:  90    -0.308777665625E+03   -0.20914E-03   -0.20595E-03  9568   0.116E-02 0.468E-04
CGA:  91    -0.308777715205E+03   -0.49580E-04   -0.49536E-04  9568   0.115E-02 0.119E-04
CGA:  92    -0.308777741690E+03   -0.26485E-04   -0.26519E-04  9568   0.624E-03 0.665E-05
CGA:  93    -0.308777763766E+03   -0.22076E-04   -0.22094E-04  9568   0.749E-03 0.344E-05
CGA:  94    -0.308777804028E+03   -0.40262E-04   -0.40109E-04  9568   0.579E-03 0.929E-05
CGA:  95    -0.308777830958E+03   -0.26930E-04   -0.26908E-04  9568   0.421E-03 0.235E-05
CGA:  96    -0.308777864888E+03   -0.33930E-04   -0.33964E-04  9568   0.641E-03-0.179E-05
CGA:  97    -0.308777878294E+03   -0.13407E-04   -0.13520E-04  9568   0.410E-03-0.538E-05
CGA:  98    -0.308777896804E+03   -0.18510E-04   -0.18534E-04  9568   0.271E-03-0.345E-05
CGA:  99    -0.308777904852E+03   -0.80474E-05   -0.80456E-05  9568   0.199E-03-0.179E-05
CGA: 100    -0.308777923464E+03   -0.18612E-04   -0.19048E-04  9568   0.387E-03-0.864E-05
CGA: 101    -0.308777930136E+03   -0.66724E-05   -0.66637E-05  9568   0.170E-03-0.629E-05
CGA: 102    -0.308777943745E+03   -0.13609E-04   -0.13807E-04  9568   0.151E-03-0.528E-05
CGA: 103    -0.308777947430E+03   -0.36845E-05   -0.36517E-05  9568   0.540E-04-0.248E-05
   1 F= -.30877795E+03 E0= -.30875688E+03  d E =-.308778E+03  mag=    25.7866
       N       E                     dE             d eps       ncg     rms          ort
SDA:   1    -0.308814694402E+03   -0.36751E-01    0.00000E+00  9568   0.890E+00 0.000E+00
CGA:   2    -0.308823629904E+03   -0.89355E-02   -0.95412E-02  9568   0.461E-01-0.477E-01
CGA:   3    -0.308824678493E+03   -0.10486E-02   -0.10525E-02  9568   0.163E-01-0.589E-04
CGA:   4    -0.308825657407E+03   -0.97891E-03   -0.97797E-03  9568   0.490E-01 0.469E-04
CGA:   5    -0.308827449867E+03   -0.17925E-02   -0.17916E-02  9568   0.132E-01-0.579E-04
CGA:   6    -0.308827754663E+03   -0.30480E-03   -0.30598E-03  9568   0.689E-02-0.783E-05
CGA:   7    -0.308828017007E+03   -0.26234E-03   -0.26224E-03  9568   0.564E-02-0.214E-04
CGA:   8    -0.308828189824E+03   -0.17282E-03   -0.17291E-03  9568   0.535E-02 0.118E-05
CGA:   9    -0.308828403665E+03   -0.21384E-03   -0.21384E-03  9568   0.217E-02-0.152E-04
CGA:  10    -0.308828469537E+03   -0.65872E-04   -0.65898E-04  9568   0.221E-02 0.259E-06
CGA:  11    -0.308828531067E+03   -0.61530E-04   -0.61371E-04  9568   0.490E-03-0.588E-05
CGA:  12    -0.308828547694E+03   -0.16627E-04   -0.16630E-04  9568   0.487E-03 0.429E-06
CGA:  13    -0.308828566002E+03   -0.18308E-04   -0.18305E-04  9568   0.560E-03-0.267E-05
CGA:  14    -0.308828585073E+03   -0.19072E-04   -0.19072E-04  9568   0.199E-03 0.200E-06
CGA:  15    -0.308828590412E+03   -0.53386E-05   -0.53334E-05  9568   0.147E-03-0.273E-06
   2 F= -.30882859E+03 E0= -.30880755E+03  d E =-.506430E-01  mag=    25.7851
       N       E                     dE             d eps       ncg     rms          ort
SDA:   1    -0.308568514016E+03    0.26007E+00    0.00000E+00  9568   0.309E+01 0.000E+00
CGA:   2    -0.308689272620E+03   -0.12076E+00   -0.12052E+00  9568   0.749E+01 0.102E+00
CGA:   3    -0.309154094975E+03   -0.46482E+00   -0.46725E+00  9568   0.333E+01-0.947E-01
CGA:   4    -0.309243527278E+03   -0.89432E-01   -0.88030E-01  9568   0.163E+01-0.107E-01
CGA:   5    -0.309286616700E+03   -0.43089E-01   -0.42319E-01  9568   0.125E+01-0.298E-02
CGA:   6    -0.309343431968E+03   -0.56815E-01   -0.56550E-01  9568   0.137E+01 0.237E-01
CGA:   7    -0.309388475290E+03   -0.45043E-01   -0.44609E-01  9568   0.626E+00-0.220E-01
CGA:   8    -0.309411666749E+03   -0.23191E-01   -0.23190E-01  9568   0.269E+00-0.268E-02
CGA:   9    -0.309416968990E+03   -0.53022E-02   -0.52810E-02  9568   0.174E+00 0.368E-03
CGA:  10    -0.309424480079E+03   -0.75111E-02   -0.74997E-02  9568   0.846E-01 0.120E-02
CGA:  11    -0.309430019760E+03   -0.55397E-02   -0.55388E-02  9568   0.109E+00 0.522E-04
CGA:  12    -0.309432763099E+03   -0.27433E-02   -0.27537E-02  9568   0.308E-01 0.646E-06
CGA:  13    -0.309433632567E+03   -0.86947E-03   -0.86972E-03  9568   0.309E-01-0.310E-05
CGA:  14    -0.309434649566E+03   -0.10170E-02   -0.10184E-02  9568   0.256E-01 0.135E-03
CGA:  15    -0.309436113680E+03   -0.14641E-02   -0.14655E-02  9568   0.170E-01-0.513E-04
CGA:  16    -0.309436915432E+03   -0.80175E-03   -0.80044E-03  9568   0.117E-01 0.115E-03
CGA:  17    -0.309437193487E+03   -0.27806E-03   -0.27680E-03  9568   0.802E-02 0.213E-04
CGA:  18    -0.309437552246E+03   -0.35876E-03   -0.35854E-03  9568   0.128E-01 0.282E-04
CGA:  19    -0.309438006867E+03   -0.45462E-03   -0.45454E-03  9568   0.722E-02 0.441E-05
CGA:  20    -0.309438522216E+03   -0.51535E-03   -0.51356E-03  9568   0.439E-02 0.542E-04
CGA:  21    -0.309438653122E+03   -0.13091E-03   -0.13088E-03  9568   0.462E-02 0.300E-05
CGA:  22    -0.309438823030E+03   -0.16991E-03   -0.16995E-03  9568   0.531E-02 0.137E-04
CGA:  23    -0.309439046466E+03   -0.22344E-03   -0.22349E-03  9568   0.408E-02-0.917E-05
CGA:  24    -0.309439185390E+03   -0.13892E-03   -0.13903E-03  9568   0.223E-02 0.106E-04
CGA:  25    -0.309439297849E+03   -0.11246E-03   -0.11254E-03  9568   0.135E-02-0.481E-05
CGA:  26    -0.309439326893E+03   -0.29044E-04   -0.29132E-04  9568   0.119E-02 0.310E-05
CGA:  27    -0.309439417360E+03   -0.90467E-04   -0.90221E-04  9568   0.137E-02 0.659E-05
CGA:  28    -0.309439457248E+03   -0.39888E-04   -0.39923E-04  9568   0.570E-03 0.376E-05
CGA:  29    -0.309439477010E+03   -0.19762E-04   -0.19769E-04  9568   0.320E-03 0.154E-05
CGA:  30    -0.309439488371E+03   -0.11360E-04   -0.11370E-04  9568   0.485E-03 0.185E-05
CGA:  31    -0.309439506322E+03   -0.17951E-04   -0.17949E-04  9568   0.357E-03-0.748E-06
SDA:  32    -0.309439523282E+03   -0.16960E-04   -0.16943E-04  9568   0.158E-03 0.178E-05
CGA:  33    -0.309439526812E+03   -0.35301E-05   -0.35174E-05  9568   0.102E-03-0.691E-06
   3 F= -.30943953E+03 E0= -.30941826E+03  d E =-.610936E+00  mag=    25.7876
       N       E                     dE             d eps       ncg     rms          ort
SDA:   1    -0.276876269299E+03    0.32563E+02    0.00000E+00  9568   0.118E+04 0.000E+00
CGA:   2    -0.289629404097E+03   -0.12753E+02   -0.25154E+02  9568   0.318E+03-0.149E+03
CGA:   3    -0.294703593729E+03   -0.50742E+01   -0.67240E+01  9568   0.294E+03-0.965E+02
CGA:   4    -0.295938686456E+03   -0.12351E+01   -0.31365E+01  9568   0.237E+03-0.136E+03
CGA:   5    -0.300973588318E+03   -0.50349E+01   -0.14537E+01  9568   0.140E+03 0.213E+03
CGA:   6    -0.301832191952E+03   -0.85860E+00   -0.19349E+01  9568   0.141E+03-0.673E+02
CGA:   7    -0.302737486613E+03   -0.90529E+00   -0.68025E+00  9568   0.759E+02 0.141E+02
CGA:   8    -0.303708790988E+03   -0.97130E+00   -0.13509E+01  9568   0.991E+02-0.155E+02
CGA:   9    -0.305029902080E+03   -0.13211E+01   -0.16188E+01  9568   0.207E+03-0.339E+00
CGA:  10    -0.307582771462E+03   -0.25529E+01   -0.23261E+01  9568   0.495E+02-0.728E+01
CGA:  11    -0.309040287553E+03   -0.14575E+01   -0.14261E+01  9568   0.687E+02-0.417E+02
CGA:  12    -0.309579795862E+03   -0.53951E+00   -0.59529E+00  9568   0.575E+01-0.964E+01
CGA:  13    -0.309688448837E+03   -0.10865E+00   -0.10895E+00  9568   0.636E+01 0.256E-02
CGA:  14    -0.310042124404E+03   -0.35368E+00   -0.35124E+00  9568   0.157E+02 0.949E-01
CGA:  15    -0.310383627096E+03   -0.34150E+00   -0.35442E+00  9568   0.892E+01 0.228E+00
CGA:  16    -0.310593162786E+03   -0.20954E+00   -0.21299E+00  9568   0.488E+01 0.121E+00
CGA:  17    -0.310692472002E+03   -0.99309E-01   -0.99606E-01  9568   0.192E+01-0.666E-02
CGA:  18    -0.310727446993E+03   -0.34975E-01   -0.34745E-01  9568   0.826E+00 0.783E-03
CGA:  19    -0.310763574103E+03   -0.36127E-01   -0.35836E-01  9568   0.158E+01 0.164E-01
CGA:  20    -0.310809282723E+03   -0.45709E-01   -0.45772E-01  9568   0.990E+00 0.383E-01
CGA:  21    -0.310829085807E+03   -0.19803E-01   -0.19916E-01  9568   0.413E+00-0.458E-03
CGA:  22    -0.310841570668E+03   -0.12485E-01   -0.12474E-01  9568   0.390E+00 0.366E-02
CGA:  23    -0.310851483301E+03   -0.99126E-02   -0.99368E-02  9568   0.265E+00 0.240E-02
CGA:  24    -0.310862665415E+03   -0.11182E-01   -0.11101E-01  9568   0.399E+00 0.495E-02
CGA:  25    -0.310874482136E+03   -0.11817E-01   -0.11818E-01  9568   0.259E+00 0.591E-02
CGA:  26    -0.310880868616E+03   -0.63865E-02   -0.64125E-02  9568   0.175E+00 0.162E-02
CGA:  27    -0.310887914096E+03   -0.70455E-02   -0.70607E-02  9568   0.187E+00-0.106E-02
CGA:  28    -0.310892124106E+03   -0.42100E-02   -0.42322E-02  9568   0.813E-01 0.717E-03
CGA:  29    -0.310894709110E+03   -0.25850E-02   -0.25827E-02  9568   0.810E-01 0.573E-03
CGA:  30    -0.310897740920E+03   -0.30318E-02   -0.30207E-02  9568   0.669E-01 0.105E-02
CGA:  31    -0.310899297753E+03   -0.15568E-02   -0.15579E-02  9568   0.363E-01 0.709E-04
CGA:  32    -0.310900666481E+03   -0.13687E-02   -0.13648E-02  9568   0.336E-01 0.371E-03
CGA:  33    -0.310901657192E+03   -0.99071E-03   -0.99079E-03  9568   0.289E-01 0.886E-04
CGA:  34    -0.310902847668E+03   -0.11905E-02   -0.11871E-02  9568   0.360E-01 0.250E-03
CGA:  35    -0.310903934199E+03   -0.10865E-02   -0.10866E-02  9568   0.170E-01 0.155E-03
CGA:  36    -0.310904370362E+03   -0.43616E-03   -0.43669E-03  9568   0.131E-01 0.536E-04
CGA:  37    -0.310904883809E+03   -0.51345E-03   -0.51310E-03  9568   0.113E-01 0.313E-04
CGA:  38    -0.310905190634E+03   -0.30683E-03   -0.30717E-03  9568   0.681E-02 0.494E-04
CGA:  39    -0.310905434509E+03   -0.24388E-03   -0.24372E-03  9568   0.761E-02 0.191E-04
CGA:  40    -0.310905674047E+03   -0.23954E-03   -0.23953E-03  9568   0.430E-02 0.871E-05
CGA:  41    -0.310905819902E+03   -0.14585E-03   -0.14583E-03  9568   0.490E-02 0.293E-05
SDA:  42    -0.310906012396E+03   -0.19249E-03   -0.19234E-03  9568   0.434E-02 0.140E-04
CGA:  43    -0.310906060966E+03   -0.48569E-04   -0.48415E-04  9568   0.776E-03-0.572E-06
CGA:  44    -0.310906128921E+03   -0.67955E-04   -0.68099E-04  9568   0.264E-02-0.304E-05
CGA:  45    -0.310906229292E+03   -0.10037E-03   -0.10036E-03  9568   0.138E-02-0.142E-05
CGA:  46    -0.310906311360E+03   -0.82067E-04   -0.82209E-04  9568   0.173E-02-0.626E-05
CGA:  47    -0.310906376842E+03   -0.65482E-04   -0.65471E-04  9568   0.212E-02-0.803E-06
CGA:  48    -0.310906422370E+03   -0.45529E-04   -0.45528E-04  9568   0.106E-02-0.683E-06
CGA:  49    -0.310906510399E+03   -0.88028E-04   -0.88257E-04  9568   0.592E-03-0.499E-05
CGA:  50    -0.310906542503E+03   -0.32105E-04   -0.32178E-04  9568   0.795E-03-0.465E-05
CGA:  51    -0.310906556510E+03   -0.14006E-04   -0.13945E-04  9568   0.353E-03-0.445E-05
CGA:  52    -0.310906580985E+03   -0.24476E-04   -0.24550E-04  9568   0.367E-03-0.276E-05
CGA:  53    -0.310906589657E+03   -0.86721E-05   -0.86618E-05  9568   0.177E-03-0.139E-05
CGA:  54    -0.310906608091E+03   -0.18433E-04   -0.18630E-04  9568   0.172E-03-0.340E-05
CGA:  55    -0.310906615060E+03   -0.69692E-05   -0.69698E-05  9568   0.243E-03-0.194E-05
   4 F= -.31090662E+03 E0= -.31088455E+03  d E =-.146709E+01  mag=    25.8020
       N       E                     dE             d eps       ncg     rms          ort
SDA:   1    -0.291174849529E+03    0.19732E+02    0.00000E+00  9568   0.106E+04 0.000E+00
CGA:   2    -0.295259147068E+03   -0.40843E+01   -0.21172E+02  9568   0.251E+03-0.882E+02
CGA:   3    -0.299107859364E+03   -0.38487E+01   -0.48934E+01  9568   0.199E+03-0.767E+02
CGA:   4    -0.299685590208E+03   -0.57773E+00   -0.13783E+01  9568   0.246E+03-0.994E+02
CGA:   5    -0.303144290477E+03   -0.34587E+01   -0.16492E+01  9568   0.115E+03 0.864E+02
CGA:   6    -0.303092138833E+03    0.52152E-01   -0.17482E+01  9568   0.283E+03-0.129E+03
CGA:   7    -0.303082166876E+03    0.99720E-02   -0.42264E+01  9568   0.348E+03-0.181E+03
CGA:   8    -0.304659277946E+03   -0.15771E+01   -0.43421E+01  9568   0.166E+03-0.189E+03
CGA:   9    -0.306053311736E+03   -0.13940E+01   -0.16954E+01  9568   0.425E+02-0.637E+02
CGA:  10    -0.307005696348E+03   -0.95238E+00   -0.97374E+00  9568   0.475E+02-0.215E+01
CGA:  11    -0.308065910583E+03   -0.10602E+01   -0.10877E+01  9568   0.499E+02 0.224E+00
CGA:  12    -0.309261165247E+03   -0.11953E+01   -0.12822E+01  9568   0.344E+02 0.460E+01
CGA:  13    -0.310176263053E+03   -0.91510E+00   -0.90628E+00  9568   0.176E+02-0.615E+00
CGA:  14    -0.310601714532E+03   -0.42545E+00   -0.43150E+00  9568   0.144E+02 0.291E+00
CGA:  15    -0.310852582819E+03   -0.25087E+00   -0.25356E+00  9568   0.681E+01-0.135E+00
CGA:  16    -0.311066207592E+03   -0.21362E+00   -0.21170E+00  9568   0.321E+01 0.596E+00
CGA:  17    -0.311171361724E+03   -0.10515E+00   -0.10545E+00  9568   0.336E+01-0.293E+00
CGA:  18    -0.311266242427E+03   -0.94881E-01   -0.94901E-01  9568   0.414E+01-0.798E-02
CGA:  19    -0.311350962184E+03   -0.84720E-01   -0.84616E-01  9568   0.125E+01-0.463E-02
CGA:  20    -0.311383036349E+03   -0.32074E-01   -0.32259E-01  9568   0.447E+00 0.205E-01
CGA:  21    -0.311398834912E+03   -0.15799E-01   -0.15814E-01  9568   0.655E+00-0.174E-02
CGA:  22    -0.311418678639E+03   -0.19844E-01   -0.19833E-01  9568   0.772E+00 0.600E-02
CGA:  23    -0.311441720276E+03   -0.23042E-01   -0.23044E-01  9568   0.442E+00-0.933E-02
CGA:  24    -0.311453394640E+03   -0.11674E-01   -0.11711E-01  9568   0.150E+00 0.583E-02
CGA:  25    -0.311457257200E+03   -0.38626E-02   -0.38604E-02  9568   0.144E+00-0.168E-03
CGA:  26    -0.311461832468E+03   -0.45753E-02   -0.45713E-02  9568   0.154E+00 0.935E-03
CGA:  27    -0.311468924689E+03   -0.70922E-02   -0.70550E-02  9568   0.142E+00 0.201E-02
CGA:  28    -0.311472964884E+03   -0.40402E-02   -0.40519E-02  9568   0.569E-01 0.255E-02
CGA:  29    -0.311474262456E+03   -0.12976E-02   -0.12992E-02  9568   0.428E-01 0.487E-04
CGA:  30    -0.311475558017E+03   -0.12956E-02   -0.12953E-02  9568   0.361E-01 0.246E-03
CGA:  31    -0.311477453540E+03   -0.18955E-02   -0.18965E-02  9568   0.399E-01-0.261E-04
CGA:  32    -0.311478602715E+03   -0.11492E-02   -0.11501E-02  9568   0.211E-01 0.239E-03
CGA:  33    -0.311479087957E+03   -0.48524E-03   -0.48555E-03  9568   0.140E-01 0.152E-04
CGA:  34    -0.311479498380E+03   -0.41042E-03   -0.41050E-03  9568   0.101E-01 0.518E-04
CGA:  35    -0.311480037931E+03   -0.53955E-03   -0.53777E-03  9568   0.117E-01 0.763E-04
CGA:  36    -0.311480409152E+03   -0.37122E-03   -0.37118E-03  9568   0.995E-02 0.941E-04
CGA:  37    -0.311480651016E+03   -0.24186E-03   -0.24198E-03  9568   0.599E-02 0.831E-05
CGA:  38    -0.311480837044E+03   -0.18603E-03   -0.18603E-03  9568   0.415E-02 0.345E-04
SDA:  39    -0.311481050457E+03   -0.21341E-03   -0.21335E-03  9568   0.513E-02 0.431E-05
CGA:  40    -0.311481113256E+03   -0.62799E-04   -0.63096E-04  9568   0.109E-02-0.811E-05
CGA:  41    -0.311481157112E+03   -0.43856E-04   -0.43862E-04  9568   0.204E-02-0.942E-06
CGA:  42    -0.311481287735E+03   -0.13062E-03   -0.13043E-03  9568   0.322E-02 0.567E-05
CGA:  43    -0.311481432537E+03   -0.14480E-03   -0.14474E-03  9568   0.264E-02 0.329E-05
CGA:  44    -0.311481585737E+03   -0.15320E-03   -0.15346E-03  9568   0.117E-02-0.102E-04
CGA:  45    -0.311481604587E+03   -0.18850E-04   -0.18829E-04  9568   0.708E-03-0.215E-05
CGA:  46    -0.311481659710E+03   -0.55123E-04   -0.54922E-04  9568   0.633E-03 0.445E-05
CGA:  47    -0.311481689624E+03   -0.29914E-04   -0.29925E-04  9568   0.823E-03-0.102E-05
CGA:  48    -0.311481711842E+03   -0.22217E-04   -0.22234E-04  9568   0.338E-03 0.155E-05
CGA:  49    -0.311481722994E+03   -0.11152E-04   -0.11149E-04  9568   0.553E-03-0.127E-05
CGA:  50    -0.311481743854E+03   -0.20860E-04   -0.20859E-04  9568   0.292E-03-0.203E-06
CGA:  51    -0.311481761056E+03   -0.17202E-04   -0.17289E-04  9568   0.331E-03-0.405E-05
CGA:  52    -0.311481776865E+03   -0.15809E-04   -0.15841E-04  9568   0.271E-03-0.318E-05
CGA:  53    -0.311481782538E+03   -0.56725E-05   -0.56417E-05  9568   0.235E-03-0.197E-05
CGA:  54    -0.311481793739E+03   -0.11201E-04   -0.11207E-04  9568   0.655E-04-0.671E-06
CGA:  55    -0.311481804604E+03   -0.10865E-04   -0.10864E-04  9568   0.173E-03-0.168E-06
CGA:  56    -0.311481806986E+03   -0.23820E-05   -0.24021E-05  9568   0.466E-04 0.258E-06
   5 F= -.31148181E+03 E0= -.31145939E+03  d E =-.575192E+00  mag=    25.8034
       N       E                     dE             d eps       ncg     rms          ort
SDA:   1    -0.255253757551E+03    0.56228E+02    0.00000E+00  9568   0.487E+03 0.000E+00
CGA:   2    -0.276897680856E+03   -0.21644E+02   -0.22502E+02  9568   0.364E+03-0.140E+03
CGA:   3    -0.285406973902E+03   -0.85093E+01   -0.92128E+01  9568   0.254E+03 0.192E+02
CGA:   4    -0.289236081506E+03   -0.38291E+01   -0.82631E+01  9568   0.660E+03 0.314E+02
CGA:   5    -0.281693996770E+03    0.75421E+01   -0.10819E+02  9568   0.278E+03-0.288E+03
CGA:   6    -0.286124695812E+03   -0.44307E+01   -0.73383E+01  9568   0.511E+03-0.146E+03
CGA:   7    -0.301232892296E+03   -0.15108E+02   -0.14889E+02  9568   0.150E+03-0.119E+03
CGA:   8    -0.301646805643E+03   -0.41391E+00   -0.60818E+01  9568   0.529E+03-0.381E+03
CGA:   9    -0.304157541539E+03   -0.25107E+01   -0.11101E+02  9568   0.308E+03-0.364E+02
CGA:  10    -0.305594633435E+03   -0.14371E+01   -0.35222E+01  9568   0.229E+03-0.135E+03
CGA:  11    -0.308843677796E+03   -0.32490E+01   -0.93573E+00  9568   0.183E+03 0.171E+03
CGA:  12    -0.309032422438E+03   -0.18874E+00   -0.26020E+01  9568   0.170E+03-0.117E+03
CGA:  13    -0.309418860731E+03   -0.38644E+00   -0.21137E+01  9568   0.129E+03-0.138E+03
CGA:  14    -0.310362014746E+03   -0.94315E+00   -0.10006E+01  9568   0.797E+01-0.229E+02
CGA:  15    -0.310482636893E+03   -0.12062E+00   -0.11948E+00  9568   0.650E+01-0.835E-02
CGA:  16    -0.310742791691E+03   -0.26015E+00   -0.26217E+00  9568   0.152E+02-0.177E+00
CGA:  17    -0.311133005690E+03   -0.39021E+00   -0.39427E+00  9568   0.157E+02 0.849E-01
CGA:  18    -0.311420302148E+03   -0.28730E+00   -0.30829E+00  9568   0.500E+01-0.359E+00
CGA:  19    -0.311523280296E+03   -0.10298E+00   -0.10505E+00  9568   0.307E+01 0.595E-02
CGA:  20    -0.311573524635E+03   -0.50244E-01   -0.44983E-01  9568   0.105E+01 0.224E+00
CGA:  21    -0.311635631406E+03   -0.62107E-01   -0.61845E-01  9568   0.298E+01 0.129E-01
CGA:  22    -0.311753816192E+03   -0.11818E+00   -0.11643E+00  9568   0.106E+01 0.172E+00
CGA:  23    -0.311775288312E+03   -0.21472E-01   -0.21979E-01  9568   0.106E+01-0.553E-02
CGA:  24    -0.311804740834E+03   -0.29453E-01   -0.28999E-01  9568   0.575E+00-0.349E-01
CGA:  25    -0.311822437116E+03   -0.17696E-01   -0.17688E-01  9568   0.646E+00 0.149E-01
CGA:  26    -0.311855532019E+03   -0.33095E-01   -0.32191E-01  9568   0.242E+00 0.438E-01
CGA:  27    -0.311864332032E+03   -0.88000E-02   -0.88089E-02  9568   0.241E+00-0.281E-02
CGA:  28    -0.311871656147E+03   -0.73241E-02   -0.73361E-02  9568   0.302E+00 0.310E-02
CGA:  29    -0.311880184989E+03   -0.85288E-02   -0.85864E-02  9568   0.262E+00 0.452E-02
CGA:  30    -0.311891593402E+03   -0.11408E-01   -0.11120E-01  9568   0.189E+00 0.218E-01
CGA:  31    -0.311896345199E+03   -0.47518E-02   -0.46257E-02  9568   0.513E-01-0.476E-03
CGA:  32    -0.311901605517E+03   -0.52603E-02   -0.51684E-02  9568   0.624E-01 0.124E-02
CGA:  33    -0.311903767835E+03   -0.21623E-02   -0.21599E-02  9568   0.115E+00-0.640E-03
CGA:  34    -0.311907094680E+03   -0.33268E-02   -0.33896E-02  9568   0.371E-01 0.344E-02
CGA:  35    -0.311908157386E+03   -0.10627E-02   -0.10624E-02  9568   0.239E-01-0.199E-04
CGA:  36    -0.311908940353E+03   -0.78297E-03   -0.78007E-03  9568   0.447E-01-0.591E-03
CGA:  37    -0.311910254696E+03   -0.13143E-02   -0.13274E-02  9568   0.239E-01 0.113E-02
CGA:  38    -0.311910952315E+03   -0.69762E-03   -0.71197E-03  9568   0.389E-01 0.801E-03
CGA:  39    -0.311912293716E+03   -0.13414E-02   -0.13316E-02  9568   0.315E-01-0.393E-02
CGA:  40    -0.311912841605E+03   -0.54789E-03   -0.52286E-03  9568   0.139E-01 0.622E-03
CGA:  41    -0.311913430804E+03   -0.58920E-03   -0.58018E-03  9568   0.401E-01 0.796E-03
CGA:  42    -0.311914468350E+03   -0.10375E-02   -0.95246E-03  9568   0.125E-01 0.212E-03
CGA:  43    -0.311915113360E+03   -0.64501E-03   -0.63025E-03  9568   0.178E-01 0.685E-03
SDA:  44    -0.311915508091E+03   -0.39473E-03   -0.40190E-03  9568   0.830E-02-0.549E-04
CGA:  45    -0.311915658014E+03   -0.14992E-03   -0.14959E-03  9568   0.682E-02 0.227E-05
CGA:  46    -0.311916003001E+03   -0.34499E-03   -0.34483E-03  9568   0.525E-02 0.703E-05
CGA:  47    -0.311916478846E+03   -0.47585E-03   -0.47140E-03  9568   0.844E-02 0.841E-04
CGA:  48    -0.311916860657E+03   -0.38181E-03   -0.38261E-03  9568   0.477E-02-0.677E-04
CGA:  49    -0.311917280118E+03   -0.41946E-03   -0.41762E-03  9568   0.387E-02 0.357E-04
CGA:  50    -0.311917462702E+03   -0.18258E-03   -0.18336E-03  9568   0.898E-02-0.755E-04
CGA:  51    -0.311917696549E+03   -0.23385E-03   -0.23657E-03  9568   0.362E-02-0.155E-04
CGA:  52    -0.311917790308E+03   -0.93759E-04   -0.93067E-04  9568   0.302E-02-0.994E-05
CGA:  53    -0.311917976537E+03   -0.18623E-03   -0.18507E-03  9568   0.261E-02 0.388E-04
CGA:  54    -0.311918060433E+03   -0.83895E-04   -0.83863E-04  9568   0.175E-02-0.798E-05
CGA:  55    -0.311918118675E+03   -0.58242E-04   -0.57916E-04  9568   0.317E-02-0.216E-04
CGA:  56    -0.311918233769E+03   -0.11509E-03   -0.11529E-03  9568   0.160E-02 0.392E-04
CGA:  57    -0.311918283517E+03   -0.49748E-04   -0.49962E-04  9568   0.165E-02 0.281E-05
CGA:  58    -0.311918337296E+03   -0.53779E-04   -0.53434E-04  9568   0.140E-02-0.214E-04
CGA:  59    -0.311918365086E+03   -0.27790E-04   -0.27900E-04  9568   0.112E-02-0.545E-05
CGA:  60    -0.311918461540E+03   -0.96454E-04   -0.95698E-04  9568   0.105E-02 0.124E-04
CGA:  61    -0.311918483209E+03   -0.21668E-04   -0.21252E-04  9568   0.100E-02 0.154E-05
CGA:  62    -0.311918517861E+03   -0.34652E-04   -0.34673E-04  9568   0.806E-03-0.187E-05
CGA:  63    -0.311918542742E+03   -0.24881E-04   -0.24906E-04  9568   0.677E-03-0.146E-05
CGA:  64    -0.311918558357E+03   -0.15615E-04   -0.15510E-04  9568   0.669E-03-0.293E-05
CGA:  65    -0.311918582556E+03   -0.24199E-04   -0.24212E-04  9568   0.668E-03 0.387E-05
CGA:  66    -0.311918601180E+03   -0.18624E-04   -0.18562E-04  9568   0.521E-03-0.234E-05
CGA:  67    -0.311918618911E+03   -0.17731E-04   -0.17691E-04  9568   0.972E-03-0.787E-05
CGA:  68    -0.311918643779E+03   -0.24868E-04   -0.25188E-04  9568   0.256E-03 0.307E-05
CGA:  69    -0.311918650022E+03   -0.62432E-05   -0.62777E-05  9568   0.386E-03-0.109E-05
CGA:  70    -0.311918663054E+03   -0.13032E-04   -0.13028E-04  9568   0.182E-03-0.314E-05
CGA:  71    -0.311918669657E+03   -0.66033E-05   -0.66067E-05  9568   0.442E-03-0.331E-05
CGA:  72    -0.311918685950E+03   -0.16292E-04   -0.16280E-04  9568   0.399E-03 0.124E-05
CGA:  73    -0.311918692649E+03   -0.66991E-05   -0.67314E-05  9568   0.905E-04-0.525E-05
   6 F= -.31191869E+03 E0= -.31189629E+03  d E =-.436886E+00  mag=    25.8099
       N       E                     dE             d eps       ncg     rms          ort
SDA:   1    -0.291857218958E+03    0.20061E+02    0.00000E+00  9568   0.150E+03 0.000E+00
CGA:   2    -0.295794524537E+03   -0.39373E+01   -0.40061E+01  9568   0.855E+02-0.396E+01
CGA:   3    -0.300514910357E+03   -0.47204E+01   -0.47116E+01  9568   0.221E+03 0.531E+01
CGA:   4    -0.304609098082E+03   -0.40942E+01   -0.43794E+01  9568   0.133E+03-0.485E+02
CGA:   5    -0.306518718833E+03   -0.19096E+01   -0.17627E+01  9568   0.960E+02 0.508E+00
CGA:   6    -0.308017853329E+03   -0.14991E+01   -0.13392E+01  9568   0.228E+02 0.130E+01
CGA:   7    -0.309126281848E+03   -0.11084E+01   -0.11476E+01  9568   0.627E+02-0.158E+01
CGA:   8    -0.310415976997E+03   -0.12897E+01   -0.12285E+01  9568   0.315E+02-0.309E+00
CGA:   9    -0.310950024495E+03   -0.53405E+00   -0.58876E+00  9568   0.220E+02-0.117E+01
CGA:  10    -0.311209221865E+03   -0.25920E+00   -0.23599E+00  9568   0.111E+02 0.150E+01
CGA:  11    -0.311400712570E+03   -0.19149E+00   -0.20171E+00  9568   0.775E+01-0.275E+00
CGA:  12    -0.311501217414E+03   -0.10050E+00   -0.10471E+00  9568   0.511E+01-0.194E+00
CGA:  13    -0.311605388524E+03   -0.10417E+00   -0.97766E-01  9568   0.532E+01 0.133E-02
CGA:  14    -0.311742245303E+03   -0.13686E+00   -0.13700E+00  9568   0.960E+01 0.150E-01
CGA:  15    -0.311861455154E+03   -0.11921E+00   -0.12534E+00  9568   0.257E+01-0.320E+00
CGA:  16    -0.311884724673E+03   -0.23270E-01   -0.23112E-01  9568   0.111E+01 0.866E-02
CGA:  17    -0.311906100335E+03   -0.21376E-01   -0.20877E-01  9568   0.109E+01-0.318E-02
CGA:  18    -0.311922780590E+03   -0.16680E-01   -0.16893E-01  9568   0.124E+01-0.473E-02
CGA:  19    -0.311948105999E+03   -0.25325E-01   -0.25550E-01  9568   0.150E+01 0.971E-02
CGA:  20    -0.311971207976E+03   -0.23102E-01   -0.23803E-01  9568   0.131E+01-0.111E-01
CGA:  21    -0.312004450919E+03   -0.33243E-01   -0.33207E-01  9568   0.723E+00 0.882E-01
CGA:  22    -0.312013321969E+03   -0.88711E-02   -0.89801E-02  9568   0.246E+00-0.568E-02
CGA:  23    -0.312018627914E+03   -0.53059E-02   -0.53064E-02  9568   0.207E+00 0.123E-03
CGA:  24    -0.312027222360E+03   -0.85944E-02   -0.84462E-02  9568   0.454E+00 0.796E-02
CGA:  25    -0.312036343918E+03   -0.91216E-02   -0.92622E-02  9568   0.213E+00 0.549E-02
CGA:  26    -0.312047906062E+03   -0.11562E-01   -0.11351E-01  9568   0.925E-01 0.769E-02
CGA:  27    -0.312050245239E+03   -0.23392E-02   -0.23420E-02  9568   0.106E+00 0.592E-03
CGA:  28    -0.312054182461E+03   -0.39372E-02   -0.38888E-02  9568   0.118E+00 0.365E-02
CGA:  29    -0.312058347227E+03   -0.41648E-02   -0.41648E-02  9568   0.430E-01 0.192E-04
CGA:  30    -0.312060015211E+03   -0.16680E-02   -0.16742E-02  9568   0.458E-01-0.424E-03
CGA:  31    -0.312062050063E+03   -0.20349E-02   -0.20238E-02  9568   0.449E-01 0.584E-03
SDA:  32    -0.312063370368E+03   -0.13203E-02   -0.13201E-02  9568   0.592E-01 0.304E-03
CGA:  33    -0.312064098288E+03   -0.72792E-03   -0.72848E-03  9568   0.158E-01-0.964E-05
CGA:  34    -0.312064728764E+03   -0.63048E-03   -0.63124E-03  9568   0.141E-01-0.526E-04
CGA:  35    -0.312065235121E+03   -0.50636E-03   -0.50506E-03  9568   0.138E-01 0.131E-03
CGA:  36    -0.312066516491E+03   -0.12814E-02   -0.12721E-02  9568   0.138E-01 0.169E-03
CGA:  37    -0.312066972286E+03   -0.45579E-03   -0.45580E-03  9568   0.680E-02-0.440E-05
CGA:  38    -0.312067564022E+03   -0.59174E-03   -0.59077E-03  9568   0.135E-01 0.236E-04
CGA:  39    -0.312067811570E+03   -0.24755E-03   -0.24716E-03  9568   0.791E-02 0.131E-05
CGA:  40    -0.312068219227E+03   -0.40766E-03   -0.40645E-03  9568   0.291E-02 0.560E-04
CGA:  41    -0.312068766243E+03   -0.54702E-03   -0.58393E-05  9568   0.121E-01-0.474E-03
CGA:  42    -0.312069031516E+03   -0.26527E-03   -0.26519E-03  9568   0.446E-02 0.147E-04
CGA:  43    -0.312069206262E+03   -0.17475E-03   -0.17491E-03  9568   0.427E-02 0.462E-05
CGA:  44    -0.312069324237E+03   -0.11797E-03   -0.11823E-03  9568   0.259E-02-0.540E-05
CGA:  45    -0.312069388072E+03   -0.63835E-04   -0.63891E-04  9568   0.217E-02-0.427E-05
CGA:  46    -0.312069498754E+03   -0.11068E-03   -0.11064E-03  9568   0.180E-02-0.807E-05
CGA:  47    -0.312069558786E+03   -0.60031E-04   -0.60076E-04  9568   0.187E-02-0.399E-05
CGA:  48    -0.312069658864E+03   -0.10008E-03   -0.10007E-03  9568   0.871E-03-0.571E-05
CGA:  49    -0.312069679163E+03   -0.20300E-04   -0.20291E-04  9568   0.434E-03 0.640E-06
CGA:  50    -0.312069698911E+03   -0.19748E-04   -0.19763E-04  9568   0.803E-03 0.155E-05
CGA:  51    -0.312069721277E+03   -0.22366E-04   -0.22476E-04  9568   0.355E-03 0.348E-05
CGA:  52    -0.312069730909E+03   -0.96320E-05   -0.96683E-05  9568   0.250E-03 0.911E-06
CGA:  53    -0.312069741297E+03   -0.10388E-04   -0.10411E-04  9568   0.164E-03 0.197E-05
CGA:  54    -0.312069751291E+03   -0.99937E-05   -0.99860E-05  9568   0.295E-03 0.552E-06
   7 F= -.31206975E+03 E0= -.31204800E+03  d E =-.151059E+00  mag=    25.8281
       N       E                     dE             d eps       ncg     rms          ort
SDA:   1    -0.309057954871E+03    0.30118E+01    0.00000E+00  9568   0.210E+02 0.000E+00
CGA:   2    -0.309375286397E+03   -0.31733E+00   -0.39479E+00  9568   0.191E+02-0.318E+01
CGA:   3    -0.310703809462E+03   -0.13285E+01   -0.12961E+01  9568   0.153E+02 0.756E+00
CGA:   4    -0.311298523384E+03   -0.59471E+00   -0.53258E+00  9568   0.720E+01-0.108E+00
CGA:   5    -0.311464959597E+03   -0.16644E+00   -0.13362E+00  9568   0.508E+01 0.133E+01
CGA:   6    -0.311700882213E+03   -0.23592E+00   -0.23666E+00  9568   0.528E+01 0.156E-01
CGA:   7    -0.311849073241E+03   -0.14819E+00   -0.15232E+00  9568   0.706E+01-0.314E-01
CGA:   8    -0.311982223725E+03   -0.13315E+00   -0.12199E+00  9568   0.301E+01 0.422E+00
CGA:   9    -0.312029431888E+03   -0.47208E-01   -0.46466E-01  9568   0.107E+01 0.405E-01
CGA:  10    -0.312047313082E+03   -0.17881E-01   -0.19484E-01  9568   0.832E+00-0.578E-01
CGA:  11    -0.312079838272E+03   -0.32525E-01   -0.32531E-01  9568   0.774E+00 0.384E-02
CGA:  12    -0.312097254752E+03   -0.17416E-01   -0.17134E-01  9568   0.714E+00 0.564E-02
CGA:  13    -0.312111326049E+03   -0.14071E-01   -0.13897E-01  9568   0.179E+00 0.478E-02
CGA:  14    -0.312115460364E+03   -0.41343E-02   -0.41771E-02  9568   0.176E+00-0.517E-03
CGA:  15    -0.312118594644E+03   -0.31343E-02   -0.31216E-02  9568   0.747E-01 0.394E-03
CGA:  16    -0.312122417048E+03   -0.38224E-02   -0.38392E-02  9568   0.193E+00-0.965E-03
CGA:  17    -0.312125782986E+03   -0.33659E-02   -0.34185E-02  9568   0.845E-01-0.157E-02
CGA:  18    -0.312128061344E+03   -0.22784E-02   -0.22919E-02  9568   0.478E-01 0.195E-03
CGA:  19    -0.312128755233E+03   -0.69389E-03   -0.69626E-03  9568   0.240E-01-0.121E-03
CGA:  20    -0.312129771995E+03   -0.10168E-02   -0.10154E-02  9568   0.340E-01 0.137E-03
CGA:  21    -0.312130584245E+03   -0.81225E-03   -0.81570E-03  9568   0.303E-01 0.764E-05
CGA:  22    -0.312131273718E+03   -0.68947E-03   -0.68535E-03  9568   0.225E-01 0.276E-04
CGA:  23    -0.312132019212E+03   -0.74549E-03   -0.74596E-03  9568   0.226E-01 0.109E-03
CGA:  24    -0.312132538193E+03   -0.51898E-03   -0.52151E-03  9568   0.221E-01 0.124E-04
CGA:  25    -0.312133104448E+03   -0.56626E-03   -0.56469E-03  9568   0.913E-02-0.256E-04
CGA:  26    -0.312133388558E+03   -0.28411E-03   -0.28409E-03  9568   0.142E-01-0.402E-05
CGA:  27    -0.312133705657E+03   -0.31710E-03   -0.31841E-03  9568   0.781E-02 0.143E-04
CGA:  28    -0.312134088589E+03   -0.38293E-03   -0.38285E-03  9568   0.140E-01 0.675E-05
CGA:  29    -0.312134331378E+03   -0.24279E-03   -0.24217E-03  9568   0.728E-02 0.186E-04
CGA:  30    -0.312134597108E+03   -0.26573E-03   -0.26559E-03  9568   0.504E-02 0.247E-04
CGA:  31    -0.312134692543E+03   -0.95435E-04   -0.95544E-04  9568   0.424E-02 0.291E-05
SDA:  32    -0.312134837024E+03   -0.14448E-03   -0.14450E-03  9568   0.293E-02-0.907E-05
CGA:  33    -0.312134890408E+03   -0.53385E-04   -0.53452E-04  9568   0.878E-03-0.679E-06
CGA:  34    -0.312134933985E+03   -0.43577E-04   -0.43565E-04  9568   0.196E-02 0.438E-06
CGA:  35    -0.312134997441E+03   -0.63456E-04   -0.63452E-04  9568   0.181E-02-0.622E-05
CGA:  36    -0.312135061495E+03   -0.64053E-04   -0.64048E-04  9568   0.124E-02 0.400E-06
CGA:  37    -0.312135119824E+03   -0.58329E-04   -0.58426E-04  9568   0.336E-03-0.661E-05
CGA:  38    -0.312135154097E+03   -0.34273E-04   -0.34107E-04  9568   0.360E-03 0.217E-05
CGA:  39    -0.312135162214E+03   -0.81167E-05   -0.81042E-05  9568   0.396E-03-0.133E-05
CGA:  40    -0.312135182965E+03   -0.20751E-04   -0.20719E-04  9568   0.244E-03 0.145E-05
CGA:  41    -0.312135201887E+03   -0.18922E-04   -0.18910E-04  9568   0.482E-03 0.106E-06
CGA:  42    -0.312135215666E+03   -0.13779E-04   -0.13758E-04  9568   0.148E-03-0.193E-05
CGA:  43    -0.312135221921E+03   -0.62552E-05   -0.62540E-05  9568   0.242E-03 0.118E-06
   8 F= -.31213522E+03 E0= -.31211305E+03  d E =-.654706E-01  mag=    25.8264
       N       E                     dE             d eps       ncg     rms          ort
SDA:   1    -0.307394472046E+03    0.47407E+01    0.00000E+00  9568   0.185E+02 0.000E+00
CGA:   2    -0.308301618683E+03   -0.90715E+00   -0.86782E+00  9568   0.246E+02 0.309E+01
CGA:   3    -0.309692210018E+03   -0.13906E+01   -0.13840E+01  9568   0.470E+02 0.623E+00
CGA:   4    -0.310924564232E+03   -0.12324E+01   -0.11405E+01  9568   0.828E+01 0.829E+00
CGA:   5    -0.311372835524E+03   -0.44827E+00   -0.44255E+00  9568   0.928E+01 0.329E+00
CGA:   6    -0.311656591637E+03   -0.28376E+00   -0.25385E+00  9568   0.923E+01-0.284E-01
CGA:   7    -0.311833639270E+03   -0.17705E+00   -0.16625E+00  9568   0.692E+01 0.325E+00
CGA:   8    -0.311940822025E+03   -0.10718E+00   -0.11710E+00  9568   0.598E+01-0.376E+00
CGA:   9    -0.312024865979E+03   -0.84044E-01   -0.85545E-01  9568   0.183E+01-0.643E-01
CGA:  10    -0.312057034962E+03   -0.32169E-01   -0.30899E-01  9568   0.129E+01 0.369E-01
CGA:  11    -0.312080269312E+03   -0.23234E-01   -0.23638E-01  9568   0.103E+01-0.102E-01
CGA:  12    -0.312110654377E+03   -0.30385E-01   -0.30471E-01  9568   0.188E+01 0.777E-02
CGA:  13    -0.312140704661E+03   -0.30050E-01   -0.29526E-01  9568   0.482E+00 0.189E-01
CGA:  14    -0.312148208609E+03   -0.75039E-02   -0.71895E-02  9568   0.250E+00 0.123E-01
CGA:  15    -0.312152449028E+03   -0.42404E-02   -0.42854E-02  9568   0.174E+00-0.115E-02
CGA:  16    -0.312157888471E+03   -0.54394E-02   -0.54348E-02  9568   0.284E+00 0.481E-02
CGA:  17    -0.312162803345E+03   -0.49149E-02   -0.49218E-02  9568   0.129E+00-0.155E-03
CGA:  18    -0.312166161902E+03   -0.33586E-02   -0.33457E-02  9568   0.106E+00-0.981E-03
CGA:  19    -0.312168088569E+03   -0.19267E-02   -0.19288E-02  9568   0.857E-01 0.258E-06
CGA:  20    -0.312170320737E+03   -0.22322E-02   -0.22357E-02  9568   0.442E-01 0.419E-03
CGA:  21    -0.312171087345E+03   -0.76661E-03   -0.76423E-03  9568   0.359E-01 0.301E-04
CGA:  22    -0.312172140370E+03   -0.10530E-02   -0.10531E-02  9568   0.363E-01-0.390E-04
CGA:  23    -0.312173025343E+03   -0.88497E-03   -0.88763E-03  9568   0.338E-01 0.219E-03
CGA:  24    -0.312173601272E+03   -0.57593E-03   -0.57727E-03  9568   0.169E-01-0.127E-04
CGA:  25    -0.312174212505E+03   -0.61123E-03   -0.61290E-03  9568   0.243E-01-0.141E-03
CGA:  26    -0.312174650829E+03   -0.43832E-03   -0.43937E-03  9568   0.150E-01 0.108E-04
CGA:  27    -0.312175020780E+03   -0.36995E-03   -0.37040E-03  9568   0.850E-02 0.619E-04
CGA:  28    -0.312175214708E+03   -0.19393E-03   -0.19385E-03  9568   0.113E-01-0.385E-05
CGA:  29    -0.312175601370E+03   -0.38666E-03   -0.38636E-03  9568   0.105E-01 0.342E-04
CGA:  30    -0.312175831176E+03   -0.22981E-03   -0.23054E-03  9568   0.864E-02 0.438E-04
CGA:  31    -0.312176001753E+03   -0.17058E-03   -0.17064E-03  9568   0.559E-02 0.726E-05
SDA:  32    -0.312176188902E+03   -0.18715E-03   -0.18744E-03  9568   0.565E-02-0.299E-04
CGA:  33    -0.312176257486E+03   -0.68584E-04   -0.68750E-04  9568   0.153E-02-0.504E-07
CGA:  34    -0.312176339137E+03   -0.81651E-04   -0.81605E-04  9568   0.283E-02 0.162E-05
CGA:  35    -0.312176473913E+03   -0.13478E-03   -0.13503E-03  9568   0.273E-02-0.123E-04
CGA:  36    -0.312176587478E+03   -0.11357E-03   -0.11358E-03  9568   0.204E-02-0.937E-06
CGA:  37    -0.312176661461E+03   -0.73983E-04   -0.73982E-04  9568   0.846E-03-0.449E-06
CGA:  38    -0.312176702605E+03   -0.41144E-04   -0.41182E-04  9568   0.197E-02-0.230E-05
CGA:  39    -0.312176745351E+03   -0.42747E-04   -0.42834E-04  9568   0.488E-03 0.460E-05
CGA:  40    -0.312176815009E+03   -0.69657E-04   -0.68745E-04  9568   0.468E-03 0.815E-05
CGA:  41    -0.312176843258E+03   -0.28249E-04   -0.28182E-04  9568   0.668E-03 0.250E-05
CGA:  42    -0.312176861725E+03   -0.18467E-04   -0.18474E-04  9568   0.708E-03 0.515E-06
CGA:  43    -0.312176885691E+03   -0.23967E-04   -0.23975E-04  9568   0.721E-03 0.287E-05
CGA:  44    -0.312176919587E+03   -0.33896E-04   -0.33913E-04  9568   0.349E-03-0.128E-05
CGA:  45    -0.312176927461E+03   -0.78734E-05   -0.78906E-05  9568   0.142E-03 0.690E-06
CGA:  46    -0.312176940347E+03   -0.12886E-04   -0.12891E-04  9568   0.150E-03-0.265E-06
CGA:  47    -0.312176949942E+03   -0.95957E-05   -0.96615E-05  9568   0.426E-03-0.274E-05
   9 F= -.31217695E+03 E0= -.31215427E+03  d E =-.417280E-01  mag=    25.8293
       N       E                     dE             d eps       ncg     rms          ort
SDA:   1    -0.302768393395E+03    0.94085E+01    0.00000E+00  9568   0.455E+02 0.000E+00
CGA:   2    -0.303727239829E+03   -0.95885E+00   -0.10107E+01  9568   0.570E+02-0.303E+01
CGA:   3    -0.306081308419E+03   -0.23541E+01   -0.24412E+01  9568   0.162E+03-0.716E+01
CGA:   4    -0.308173535215E+03   -0.20922E+01   -0.22129E+01  9568   0.114E+03-0.270E+02
CGA:   5    -0.309742910781E+03   -0.15694E+01   -0.16164E+01  9568   0.176E+02-0.495E+01
CGA:   6    -0.310317918049E+03   -0.57501E+00   -0.56828E+00  9568   0.293E+02-0.106E+01
CGA:   7    -0.310754502605E+03   -0.43658E+00   -0.41699E+00  9568   0.311E+02 0.860E+00
CGA:   8    -0.311199413740E+03   -0.44491E+00   -0.39415E+00  9568   0.172E+02 0.273E+01
CGA:   9    -0.311510185807E+03   -0.31077E+00   -0.37726E+00  9568   0.175E+02-0.822E+00
CGA:  10    -0.311713660837E+03   -0.20348E+00   -0.17627E+00  9568   0.872E+01 0.220E+01
CGA:  11    -0.311841666807E+03   -0.12801E+00   -0.10880E+00  9568   0.456E+01 0.120E+01
CGA:  12    -0.311895680741E+03   -0.54014E-01   -0.56320E-01  9568   0.275E+01-0.164E+00
CGA:  13    -0.311932653318E+03   -0.36973E-01   -0.36389E-01  9568   0.322E+01 0.212E-01
CGA:  14    -0.312001913066E+03   -0.69260E-01   -0.71818E-01  9568   0.529E+01 0.602E-01
CGA:  15    -0.312069151222E+03   -0.67238E-01   -0.63086E-01  9568   0.278E+01 0.232E+00
CGA:  16    -0.312109501784E+03   -0.40351E-01   -0.37115E-01  9568   0.191E+01 0.149E+00
CGA:  17    -0.312128614117E+03   -0.19112E-01   -0.18380E-01  9568   0.731E+00 0.591E-01
CGA:  18    -0.312136453590E+03   -0.78395E-02   -0.77423E-02  9568   0.639E+00 0.596E-02
CGA:  19    -0.312148169945E+03   -0.11716E-01   -0.11988E-01  9568   0.842E+00 0.502E-02
CGA:  20    -0.312156946759E+03   -0.87768E-02   -0.86519E-02  9568   0.484E+00 0.651E-02
CGA:  21    -0.312165401385E+03   -0.84546E-02   -0.83822E-02  9568   0.786E+00-0.114E-02
CGA:  22    -0.312176113097E+03   -0.10712E-01   -0.10508E-01  9568   0.612E+00 0.638E-02
CGA:  23    -0.312182848961E+03   -0.67359E-02   -0.64896E-02  9568   0.575E+00 0.145E-01
CGA:  24    -0.312190776114E+03   -0.79272E-02   -0.81226E-02  9568   0.491E+00-0.318E-02
CGA:  25    -0.312194741266E+03   -0.39652E-02   -0.42932E-02  9568   0.199E+00-0.258E-01
CGA:  26    -0.312197534078E+03   -0.27928E-02   -0.27909E-02  9568   0.230E+00-0.595E-04
CGA:  27    -0.312200482294E+03   -0.29482E-02   -0.28888E-02  9568   0.153E+00 0.147E-02
CGA:  28    -0.312202504993E+03   -0.20227E-02   -0.19912E-02  9568   0.175E+00 0.551E-03
CGA:  29    -0.312205061240E+03   -0.25562E-02   -0.25737E-02  9568   0.149E+00 0.299E-03
CGA:  30    -0.312206544376E+03   -0.14831E-02   -0.15423E-02  9568   0.108E+00-0.274E-02
CGA:  31    -0.312208969278E+03   -0.24249E-02   -0.24075E-02  9568   0.184E+00 0.369E-02
SDA:  32    -0.312211260041E+03   -0.22908E-02   -0.22234E-02  9568   0.836E-01 0.177E-02
CGA:  33    -0.312212645884E+03   -0.13858E-02   -0.13902E-02  9568   0.206E-01 0.490E-03
CGA:  34    -0.312213850011E+03   -0.12041E-02   -0.12071E-02  9568   0.416E-01-0.953E-04
CGA:  35    -0.312214729150E+03   -0.87914E-03   -0.87913E-03  9568   0.350E-01-0.201E-04
CGA:  36    -0.312215727053E+03   -0.99790E-03   -0.99311E-03  9568   0.260E-01 0.511E-03
CGA:  37    -0.312217208802E+03   -0.14817E-02   -0.14849E-02  9568   0.107E-01-0.109E-03
CGA:  38    -0.312217815855E+03   -0.60705E-03   -0.60389E-03  9568   0.187E-01 0.101E-03
CGA:  39    -0.312218070588E+03   -0.25473E-03   -0.25663E-03  9568   0.535E-02-0.621E-04
CGA:  40    -0.312218510665E+03   -0.44008E-03   -0.44286E-03  9568   0.729E-02-0.574E-04
CGA:  41    -0.312218736796E+03   -0.22613E-03   -0.22566E-03  9568   0.838E-02 0.770E-04
CGA:  42    -0.312219113411E+03   -0.37661E-03   -0.38093E-03  9568   0.158E-01-0.220E-03
CGA:  43    -0.312219399244E+03   -0.28583E-03   -0.29007E-03  9568   0.464E-02 0.468E-06
CGA:  44    -0.312219656418E+03   -0.25717E-03   -0.25668E-03  9568   0.672E-02 0.171E-04
CGA:  45    -0.312219965871E+03   -0.30945E-03   -0.31144E-03  9568   0.739E-02-0.101E-03
CGA:  46    -0.312220121372E+03   -0.15550E-03   -0.15823E-03  9568   0.666E-02 0.472E-04
CGA:  47    -0.312220340334E+03   -0.21896E-03   -0.21934E-03  9568   0.317E-02-0.681E-04
CGA:  48    -0.312220430137E+03   -0.89803E-04   -0.89816E-04  9568   0.264E-02 0.668E-05
CGA:  49    -0.312220644090E+03   -0.21395E-03   -0.22163E-03  9568   0.657E-02-0.168E-03
CGA:  50    -0.312220740891E+03   -0.96801E-04   -0.10211E-03  9568   0.222E-02-0.141E-03
CGA:  51    -0.312220881372E+03   -0.14048E-03   -0.14271E-03  9568   0.242E-02-0.681E-04
CGA:  52    -0.312220936811E+03   -0.55439E-04   -0.55905E-04  9568   0.979E-03 0.810E-05
CGA:  53    -0.312220978158E+03   -0.41347E-04   -0.41428E-04  9568   0.180E-02-0.551E-05
CGA:  54    -0.312221027745E+03   -0.49587E-04   -0.49945E-04  9568   0.129E-02 0.198E-04
CGA:  55    -0.312221087079E+03   -0.59334E-04   -0.59679E-04  9568   0.144E-02-0.210E-04
CGA:  56    -0.312221144535E+03   -0.57456E-04   -0.57222E-04  9568   0.637E-03 0.220E-04
CGA:  57    -0.312221157476E+03   -0.12941E-04   -0.12908E-04  9568   0.525E-03 0.703E-06
CGA:  58    -0.312221184224E+03   -0.26748E-04   -0.26692E-04  9568   0.574E-03 0.156E-05
CGA:  59    -0.312221201499E+03   -0.17275E-04   -0.17247E-04  9568   0.376E-03-0.444E-05
CGA:  60    -0.312221221788E+03   -0.20290E-04   -0.20271E-04  9568   0.342E-03 0.190E-06
CGA:  61    -0.312221230543E+03   -0.87551E-05   -0.87402E-05  9568   0.394E-03-0.630E-06
CGA:  62    -0.312221248806E+03   -0.18262E-04   -0.18244E-04  9568   0.517E-03 0.735E-07
SDA:  63    -0.312221264289E+03   -0.15483E-04   -0.15468E-04  9568   0.123E-03-0.158E-05
CGA:  64    -0.312221269372E+03   -0.50830E-05   -0.50879E-05  9568   0.265E-03-0.926E-06
  10 F= -.31222127E+03 E0= -.31219805E+03  d E =-.443194E-01  mag=    25.8419
       N       E                     dE             d eps       ncg     rms          ort
SDA:   1    -0.274432741996E+03    0.37789E+02    0.00000E+00  9568   0.200E+03 0.000E+00
CGA:   2    -0.279986443483E+03   -0.55537E+01   -0.49752E+01  9568   0.243E+03-0.311E+02
CGA:   3    -0.289059618692E+03   -0.90732E+01   -0.10227E+02  9568   0.591E+03-0.438E+02
CGA:   4    -0.292204854127E+03   -0.31452E+01   -0.73279E+01  9568   0.774E+03-0.267E+03
CGA:   5    -0.296521152946E+03   -0.43163E+01   -0.47677E+01  9568   0.298E+03-0.613E+02
CGA:   6    -0.298012428526E+03   -0.14913E+01   -0.36231E+01  9568   0.116E+03-0.977E+02
CGA:   7    -0.302543335175E+03   -0.45309E+01   -0.53537E+01  9568   0.109E+03-0.278E+02
CGA:   8    -0.305741683211E+03   -0.31983E+01   -0.32121E+01  9568   0.744E+02-0.134E+01
CGA:   9    -0.307492260508E+03   -0.17506E+01   -0.14963E+01  9568   0.373E+02 0.845E+00
CGA:  10    -0.308886440408E+03   -0.13942E+01   -0.14469E+01  9568   0.334E+02-0.685E+01
CGA:  11    -0.309747020861E+03   -0.86058E+00   -0.86046E+00  9568   0.317E+02-0.232E-01
CGA:  12    -0.310156023432E+03   -0.40900E+00   -0.34849E+00  9568   0.173E+02 0.362E+01
CGA:  13    -0.310513674516E+03   -0.35765E+00   -0.29287E+00  9568   0.204E+02 0.227E+01
CGA:  14    -0.310791006433E+03   -0.27733E+00   -0.32107E+00  9568   0.194E+02-0.204E+01
CGA:  15    -0.310953520081E+03   -0.16251E+00   -0.15706E+00  9568   0.127E+02 0.634E+00
CGA:  16    -0.311117639982E+03   -0.16412E+00   -0.14752E+00  9568   0.111E+02 0.105E+01
CGA:  17    -0.311224734404E+03   -0.10709E+00   -0.10235E+00  9568   0.713E+01 0.279E+00
CGA:  18    -0.311300964392E+03   -0.76230E-01   -0.65682E-01  9568   0.864E+01 0.891E+00
CGA:  19    -0.311398563893E+03   -0.97600E-01   -0.75481E-01  9568   0.113E+02 0.247E+01
CGA:  20    -0.311505888808E+03   -0.10732E+00   -0.83327E-01  9568   0.891E+01 0.376E+01
CGA:  21    -0.311575810317E+03   -0.69922E-01   -0.72699E-01  9568   0.554E+01-0.526E+00
CGA:  22    -0.311612121136E+03   -0.36311E-01   -0.41650E-01  9568   0.739E+01-0.524E+00
CGA:  23    -0.311666727969E+03   -0.54607E-01   -0.60404E-01  9568   0.780E+01-0.463E+00
CGA:  24    -0.311715876909E+03   -0.49149E-01   -0.46595E-01  9568   0.644E+01 0.318E+00
CGA:  25    -0.311767625995E+03   -0.51749E-01   -0.42823E-01  9568   0.622E+01 0.109E+01
CGA:  26    -0.311808695811E+03   -0.41070E-01   -0.34025E-01  9568   0.461E+01 0.126E+01
CGA:  27    -0.311836262356E+03   -0.27567E-01   -0.26655E-01  9568   0.328E+01 0.180E+00
CGA:  28    -0.311853326491E+03   -0.17064E-01   -0.15265E-01  9568   0.297E+01 0.365E+00
CGA:  29    -0.311870679106E+03   -0.17353E-01   -0.15398E-01  9568   0.309E+01 0.365E+00
CGA:  30    -0.311887304181E+03   -0.16625E-01   -0.15735E-01  9568   0.275E+01 0.163E+00
CGA:  31    -0.311898456230E+03   -0.11152E-01   -0.10678E-01  9568   0.199E+01 0.105E+00
SDA:  32    -0.311906512402E+03   -0.80562E-02   -0.76634E-02  9568   0.188E+01 0.886E-01
CGA:  33    -0.311943058707E+03   -0.36546E-01   -0.36786E-01  9568   0.724E+00-0.458E-01
CGA:  34    -0.311963303260E+03   -0.20245E-01   -0.19637E-01  9568   0.579E+00 0.470E-01
CGA:  35    -0.311989526575E+03   -0.26223E-01   -0.25673E-01  9568   0.185E+01 0.246E-01
CGA:  36    -0.312047932639E+03   -0.58406E-01   -0.62932E-01  9568   0.919E+00-0.303E+00
CGA:  37    -0.312061386318E+03   -0.13454E-01   -0.13513E-01  9568   0.214E+00 0.244E-01
CGA:  38    -0.312067176544E+03   -0.57902E-02   -0.57721E-02  9568   0.174E+00 0.184E-02
CGA:  39    -0.312071427396E+03   -0.42509E-02   -0.42160E-02  9568   0.118E+00 0.486E-02
CGA:  40    -0.312077201176E+03   -0.57738E-02   -0.60802E-02  9568   0.285E+00-0.113E-01
CGA:  41    -0.312083578150E+03   -0.63770E-02   -0.63256E-02  9568   0.137E+00 0.879E-02
CGA:  42    -0.312087128787E+03   -0.35506E-02   -0.35151E-02  9568   0.769E-01 0.601E-02
CGA:  43    -0.312089357451E+03   -0.22287E-02   -0.22273E-02  9568   0.884E-01 0.134E-03
CGA:  44    -0.312091385413E+03   -0.20280E-02   -0.20244E-02  9568   0.618E-01 0.145E-02
CGA:  45    -0.312095853748E+03   -0.44683E-02   -0.44316E-02  9568   0.548E-01 0.599E-03
CGA:  46    -0.312096740349E+03   -0.88660E-03   -0.88714E-03  9568   0.361E-01-0.123E-04
CGA:  47    -0.312098186701E+03   -0.14464E-02   -0.14317E-02  9568   0.283E-01 0.804E-03
CGA:  48    -0.312099035756E+03   -0.84906E-03   -0.84680E-03  9568   0.289E-01 0.288E-03
CGA:  49    -0.312099941377E+03   -0.90562E-03   -0.90539E-03  9568   0.429E-01 0.814E-05
CGA:  50    -0.312101287754E+03   -0.13464E-02   -0.13411E-02  9568   0.131E-01 0.569E-03
CGA:  51    -0.312101586069E+03   -0.29832E-03   -0.29851E-03  9568   0.107E-01 0.263E-04
CGA:  52    -0.312102073277E+03   -0.48721E-03   -0.48696E-03  9568   0.251E-01 0.760E-05
CGA:  53    -0.312102788745E+03   -0.71547E-03   -0.71489E-03  9568   0.941E-02 0.173E-03
CGA:  54    -0.312103133938E+03   -0.34519E-03   -0.34291E-03  9568   0.116E-01 0.184E-03
CGA:  55    -0.312103343610E+03   -0.20967E-03   -0.20994E-03  9568   0.423E-02 0.142E-04
CGA:  56    -0.312103567019E+03   -0.22341E-03   -0.22288E-03  9568   0.500E-02 0.177E-04
CGA:  57    -0.312103718385E+03   -0.15137E-03   -0.15130E-03  9568   0.393E-02 0.147E-04
CGA:  58    -0.312103814393E+03   -0.96008E-04   -0.95980E-04  9568   0.392E-02-0.804E-05
CGA:  59    -0.312104014922E+03   -0.20053E-03   -0.20002E-03  9568   0.287E-02 0.192E-04
CGA:  60    -0.312104085944E+03   -0.71022E-04   -0.71044E-04  9568   0.199E-02-0.354E-06
CGA:  61    -0.312104161674E+03   -0.75730E-04   -0.75793E-04  9568   0.316E-02-0.721E-05
CGA:  62    -0.312104239736E+03   -0.78062E-04   -0.78100E-04  9568   0.128E-02 0.373E-05
SDA:  63    -0.312104313553E+03   -0.73817E-04   -0.73733E-04  9568   0.154E-02 0.188E-05
CGA:  64    -0.312104335419E+03   -0.21866E-04   -0.21855E-04  9568   0.577E-03-0.245E-05
CGA:  65    -0.312104362508E+03   -0.27088E-04   -0.27010E-04  9568   0.709E-03 0.360E-05
CGA:  66    -0.312104392508E+03   -0.30000E-04   -0.30024E-04  9568   0.417E-03-0.244E-05
CGA:  67    -0.312104412295E+03   -0.19787E-04   -0.19806E-04  9568   0.580E-03-0.148E-05
CGA:  68    -0.312104434734E+03   -0.22439E-04   -0.22480E-04  9568   0.469E-03-0.596E-05
CGA:  69    -0.312104453317E+03   -0.18583E-04   -0.18582E-04  9568   0.789E-03-0.690E-06
CGA:  70    -0.312104473492E+03   -0.20175E-04   -0.20151E-04  9568   0.224E-03-0.400E-05
CGA:  71    -0.312104497229E+03   -0.23737E-04   -0.24081E-04  9568   0.274E-03-0.474E-05
CGA:  72    -0.312104508458E+03   -0.11229E-04   -0.11249E-04  9568   0.573E-03-0.350E-05
CGA:  73    -0.312104526270E+03   -0.17812E-04   -0.17815E-04  9568   0.270E-03-0.835E-06
CGA:  74    -0.312104536192E+03   -0.99220E-05   -0.99225E-05  9568   0.183E-03-0.957E-06
CGA:  75    -0.312104546988E+03   -0.10795E-04   -0.10756E-04  9568   0.194E-03 0.138E-05
CGA:  76    -0.312104551869E+03   -0.48817E-05   -0.48806E-05  9568   0.177E-03-0.251E-06
  11 F= -.31210455E+03 E0= -.31208172E+03  d E =0.116718E+00  mag=    25.8618
       N       E                     dE             d eps       ncg     rms          ort
SDA:   1    -0.301604842213E+03    0.10500E+02    0.00000E+00  9568   0.147E+03 0.000E+00
CGA:   2    -0.303649505512E+03   -0.20447E+01   -0.27680E+01  9568   0.112E+03-0.616E+02
CGA:   3    -0.304729336851E+03   -0.10798E+01   -0.14172E+01  9568   0.142E+03-0.451E+01
CGA:   4    -0.306676950595E+03   -0.19476E+01   -0.20550E+01  9568   0.845E+02-0.366E+02
CGA:   5    -0.308785392439E+03   -0.21084E+01   -0.18916E+01  9568   0.465E+02-0.176E+02
CGA:   6    -0.310145200393E+03   -0.13598E+01   -0.13666E+01  9568   0.358E+02-0.124E+01
CGA:   7    -0.310597387652E+03   -0.45219E+00   -0.58947E+00  9568   0.173E+02-0.421E+01
CGA:   8    -0.311160285258E+03   -0.56290E+00   -0.56564E+00  9568   0.131E+02-0.455E+00
CGA:   9    -0.311546876217E+03   -0.38659E+00   -0.38165E+00  9568   0.620E+01-0.514E+00
CGA:  10    -0.311877084243E+03   -0.33021E+00   -0.33259E+00  9568   0.368E+01-0.838E-01
CGA:  11    -0.311990205021E+03   -0.11312E+00   -0.11124E+00  9568   0.301E+01-0.177E+00
CGA:  12    -0.312067416994E+03   -0.77212E-01   -0.76829E-01  9568   0.195E+01-0.144E-01
CGA:  13    -0.312106125973E+03   -0.38709E-01   -0.37632E-01  9568   0.127E+01 0.164E-01
CGA:  14    -0.312150766969E+03   -0.44641E-01   -0.44547E-01  9568   0.932E+00 0.362E-01
CGA:  15    -0.312181236923E+03   -0.30470E-01   -0.30376E-01  9568   0.524E+00-0.252E-01
CGA:  16    -0.312211723385E+03   -0.30486E-01   -0.28788E-01  9568   0.254E+00 0.654E-01
CGA:  17    -0.312220362883E+03   -0.86395E-02   -0.86758E-02  9568   0.266E+00 0.335E-02
CGA:  18    -0.312235248078E+03   -0.14885E-01   -0.14802E-01  9568   0.323E+00 0.401E-02
CGA:  19    -0.312242334617E+03   -0.70865E-02   -0.71529E-02  9568   0.395E+00 0.281E-03
CGA:  20    -0.312253390582E+03   -0.11056E-01   -0.11267E-01  9568   0.109E+00 0.101E-01
CGA:  21    -0.312256418789E+03   -0.30282E-02   -0.30212E-02  9568   0.657E-01-0.198E-03
CGA:  22    -0.312261306261E+03   -0.48875E-02   -0.47255E-02  9568   0.142E+00 0.424E-02
CGA:  23    -0.312264235715E+03   -0.29295E-02   -0.28538E-02  9568   0.108E+00 0.195E-02
CGA:  24    -0.312267346714E+03   -0.31110E-02   -0.31486E-02  9568   0.711E-01 0.178E-02
CGA:  25    -0.312269399597E+03   -0.20529E-02   -0.20495E-02  9568   0.195E-01-0.126E-03
CGA:  26    -0.312270305104E+03   -0.90551E-03   -0.90528E-03  9568   0.396E-01 0.186E-04
CGA:  27    -0.312271418427E+03   -0.11133E-02   -0.11248E-02  9568   0.423E-01 0.477E-03
CGA:  28    -0.312272355136E+03   -0.93671E-03   -0.93645E-03  9568   0.173E-01 0.183E-04
CGA:  29    -0.312273195141E+03   -0.84001E-03   -0.84144E-03  9568   0.994E-02-0.774E-04
CGA:  30    -0.312273516387E+03   -0.32125E-03   -0.32142E-03  9568   0.803E-02 0.413E-04
CGA:  31    -0.312274011071E+03   -0.49468E-03   -0.48946E-03  9568   0.168E-01 0.186E-03
SDA:  32    -0.312274331359E+03   -0.32029E-03   -0.31723E-03  9568   0.838E-02 0.982E-04
CGA:  33    -0.312274443442E+03   -0.11208E-03   -0.11157E-03  9568   0.327E-02 0.222E-04
CGA:  34    -0.312274558688E+03   -0.11525E-03   -0.11525E-03  9568   0.406E-02-0.347E-05
CGA:  35    -0.312274718082E+03   -0.15939E-03   -0.15950E-03  9568   0.501E-02-0.155E-04
CGA:  36    -0.312275215267E+03   -0.49718E-03   -0.49367E-03  9568   0.488E-02 0.551E-04
CGA:  37    -0.312275412395E+03   -0.19713E-03   -0.19719E-03  9568   0.446E-02-0.147E-04
CGA:  38    -0.312275706584E+03   -0.29419E-03   -0.29914E-03  9568   0.613E-02-0.159E-03
CGA:  39    -0.312275789519E+03   -0.82934E-04   -0.86912E-04  9568   0.224E-02-0.183E-03
CGA:  40    -0.312276038748E+03   -0.24923E-03   -0.25671E-03  9568   0.864E-02-0.117E-03
CGA:  41    -0.312276260556E+03   -0.22181E-03   -0.22645E-03  9568   0.424E-02 0.119E-04
CGA:  42    -0.312276492137E+03   -0.23158E-03   -0.23450E-03  9568   0.490E-02-0.158E-03
CGA:  43    -0.312276564718E+03   -0.72581E-04   -0.75443E-04  9568   0.167E-02-0.128E-03
CGA:  44    -0.312276670045E+03   -0.10533E-03   -0.10614E-03  9568   0.255E-02-0.301E-04
CGA:  45    -0.312276752912E+03   -0.82867E-04   -0.83155E-04  9568   0.188E-02 0.314E-05
CGA:  46    -0.312276811703E+03   -0.58790E-04   -0.58613E-04  9568   0.207E-02-0.281E-05
CGA:  47    -0.312276876803E+03   -0.65101E-04   -0.65411E-04  9568   0.121E-02 0.679E-05
CGA:  48    -0.312276906686E+03   -0.29883E-04   -0.29799E-04  9568   0.826E-03 0.351E-05
CGA:  49    -0.312276960272E+03   -0.53586E-04   -0.53116E-04  9568   0.511E-03 0.175E-04
CGA:  50    -0.312276970978E+03   -0.10706E-04   -0.10761E-04  9568   0.477E-03 0.360E-05
CGA:  51    -0.312277005489E+03   -0.34510E-04   -0.34092E-04  9568   0.423E-03 0.127E-04
CGA:  52    -0.312277016280E+03   -0.10791E-04   -0.10799E-04  9568   0.369E-03 0.165E-05
CGA:  53    -0.312277053918E+03   -0.37639E-04   -0.36944E-04  9568   0.671E-03 0.122E-04
CGA:  54    -0.312277064908E+03   -0.10989E-04   -0.10967E-04  9568   0.242E-03 0.580E-05
CGA:  55    -0.312277076780E+03   -0.11872E-04   -0.11854E-04  9568   0.192E-03 0.194E-05
CGA:  56    -0.312277083627E+03   -0.68478E-05   -0.68541E-05  9568   0.246E-03 0.115E-05
CGA:  57    -0.312277094755E+03   -0.11128E-04   -0.11113E-04  9568   0.282E-03 0.402E-05
CGA:  58    -0.312277101890E+03   -0.71348E-05   -0.71708E-05  9568   0.176E-03 0.288E-05
  12 F= -.31227710E+03 E0= -.31225391E+03  d E =-.172550E+00  mag=    25.8646
       N       E                     dE             d eps       ncg     rms          ort
SDA:   1    -0.312056224686E+03    0.22087E+00    0.00000E+00  9568   0.421E+01 0.000E+00
CGA:   2    -0.312114156347E+03   -0.57932E-01   -0.54799E-01  9568   0.926E+00 0.160E+00
CGA:   3    -0.312141020725E+03   -0.26864E-01   -0.27310E-01  9568   0.100E+01 0.371E-02
CGA:   4    -0.312210648955E+03   -0.69628E-01   -0.70144E-01  9568   0.953E+00-0.163E-01
CGA:   5    -0.312233186726E+03   -0.22538E-01   -0.21869E-01  9568   0.365E+00 0.927E-02
CGA:   6    -0.312250115584E+03   -0.16929E-01   -0.16874E-01  9568   0.315E+00 0.589E-02
CGA:   7    -0.312257811287E+03   -0.76957E-02   -0.76985E-02  9568   0.372E+00-0.876E-04
CGA:   8    -0.312274352768E+03   -0.16541E-01   -0.16512E-01  9568   0.876E-01 0.365E-02
CGA:   9    -0.312276740371E+03   -0.23876E-02   -0.23917E-02  9568   0.496E-01 0.717E-05
CGA:  10    -0.312278804799E+03   -0.20644E-02   -0.20641E-02  9568   0.915E-01 0.576E-04
CGA:  11    -0.312280768210E+03   -0.19634E-02   -0.19697E-02  9568   0.243E-01-0.110E-03
CGA:  12    -0.312282149289E+03   -0.13811E-02   -0.13735E-02  9568   0.700E-02 0.340E-03
CGA:  13    -0.312282330781E+03   -0.18149E-03   -0.18115E-03  9568   0.976E-02-0.339E-05
CGA:  14    -0.312282804582E+03   -0.47380E-03   -0.47361E-03  9568   0.930E-02 0.152E-04
CGA:  15    -0.312283023042E+03   -0.21846E-03   -0.21897E-03  9568   0.328E-02-0.214E-05
CGA:  16    -0.312283168738E+03   -0.14570E-03   -0.14581E-03  9568   0.323E-02-0.113E-04
CGA:  17    -0.312283258530E+03   -0.89792E-04   -0.89935E-04  9568   0.194E-02 0.621E-05
CGA:  18    -0.312283305076E+03   -0.46546E-04   -0.46530E-04  9568   0.192E-02-0.547E-06
CGA:  19    -0.312283391600E+03   -0.86525E-04   -0.86466E-04  9568   0.981E-03 0.588E-05
CGA:  20    -0.312283479242E+03   -0.87642E-04   -0.87466E-04  9568   0.835E-03 0.344E-05
CGA:  21    -0.312283492428E+03   -0.13186E-04   -0.13144E-04  9568   0.436E-03-0.669E-06
CGA:  22    -0.312283518453E+03   -0.26024E-04   -0.26013E-04  9568   0.748E-03 0.478E-06
CGA:  23    -0.312283542067E+03   -0.23614E-04   -0.23626E-04  9568   0.390E-03 0.688E-06
CGA:  24    -0.312283561298E+03   -0.19231E-04   -0.19240E-04  9568   0.452E-03-0.102E-05
CGA:  25    -0.312283576013E+03   -0.14714E-04   -0.14721E-04  9568   0.230E-03 0.596E-06
CGA:  26    -0.312283581431E+03   -0.54184E-05   -0.54094E-05  9568   0.236E-03-0.649E-06
  13 F= -.31228358E+03 E0= -.31226028E+03  d E =-.647954E-02  mag=    25.8655
       N       E                     dE             d eps       ncg     rms          ort
SDA:   1    -0.311895356022E+03    0.38822E+00    0.00000E+00  9568   0.168E+01 0.000E+00
CGA:   2    -0.311966248628E+03   -0.70893E-01   -0.70964E-01  9568   0.263E+01-0.121E-01
CGA:   3    -0.312124902809E+03   -0.15865E+00   -0.15613E+00  9568   0.187E+01 0.102E+00
CGA:   4    -0.312174079882E+03   -0.49177E-01   -0.48127E-01  9568   0.666E+00 0.377E-02
CGA:   5    -0.312237482704E+03   -0.63403E-01   -0.62897E-01  9568   0.517E+00 0.919E-02
CGA:   6    -0.312267536652E+03   -0.30054E-01   -0.29883E-01  9568   0.304E+00 0.847E-02
CGA:   7    -0.312273419119E+03   -0.58825E-02   -0.58495E-02  9568   0.128E+00 0.109E-02
CGA:   8    -0.312280401310E+03   -0.69822E-02   -0.69952E-02  9568   0.241E+00-0.755E-03
CGA:   9    -0.312284615541E+03   -0.42142E-02   -0.43477E-02  9568   0.526E-01-0.450E-02
CGA:  10    -0.312287185025E+03   -0.25695E-02   -0.25651E-02  9568   0.264E-01 0.344E-03
CGA:  11    -0.312288051234E+03   -0.86621E-03   -0.86751E-03  9568   0.204E-01 0.410E-04
CGA:  12    -0.312288736102E+03   -0.68487E-03   -0.68472E-03  9568   0.288E-01-0.838E-05
CGA:  13    -0.312289468788E+03   -0.73269E-03   -0.73364E-03  9568   0.702E-02 0.372E-06
CGA:  14    -0.312289880172E+03   -0.41138E-03   -0.41262E-03  9568   0.831E-02-0.533E-04
CGA:  15    -0.312290057523E+03   -0.17735E-03   -0.17889E-03  9568   0.270E-02-0.204E-04
CGA:  16    -0.312290203027E+03   -0.14550E-03   -0.14565E-03  9568   0.604E-02-0.818E-05
CGA:  17    -0.312290333707E+03   -0.13068E-03   -0.13095E-03  9568   0.248E-02-0.236E-06
CGA:  18    -0.312290465655E+03   -0.13195E-03   -0.13185E-03  9568   0.172E-02 0.546E-05
CGA:  19    -0.312290517488E+03   -0.51833E-04   -0.51863E-04  9568   0.719E-03 0.139E-05
CGA:  20    -0.312290549293E+03   -0.31805E-04   -0.31814E-04  9568   0.201E-02-0.213E-05
CGA:  21    -0.312290631005E+03   -0.81712E-04   -0.81706E-04  9568   0.612E-03 0.605E-05
CGA:  22    -0.312290658512E+03   -0.27506E-04   -0.27510E-04  9568   0.752E-03-0.342E-06
CGA:  23    -0.312290680858E+03   -0.22346E-04   -0.22357E-04  9568   0.380E-03-0.675E-07
CGA:  24    -0.312290697841E+03   -0.16984E-04   -0.16986E-04  9568   0.648E-03-0.549E-06
CGA:  25    -0.312290712769E+03   -0.14927E-04   -0.14977E-04  9568   0.325E-03 0.158E-05
CGA:  26    -0.312290726481E+03   -0.13712E-04   -0.13712E-04  9568   0.306E-03-0.298E-08
CGA:  27    -0.312290742148E+03   -0.15667E-04   -0.15652E-04  9568   0.107E-03 0.119E-05
CGA:  28    -0.312290745397E+03   -0.32495E-05   -0.32461E-05  9568   0.177E-03-0.483E-06
  14 F= -.31229075E+03 E0= -.31226734E+03  d E =-.716397E-02  mag=    25.8670
       N       E                     dE             d eps       ncg     rms          ort
SDA:   1    -0.311778177132E+03    0.51257E+00    0.00000E+00  9568   0.185E+01 0.000E+00
CGA:   2    -0.311848345023E+03   -0.70168E-01   -0.70292E-01  9568   0.431E+01 0.415E-01
CGA:   3    -0.312065309753E+03   -0.21696E+00   -0.21702E+00  9568   0.460E+01-0.276E-02
CGA:   4    -0.312163153047E+03   -0.97843E-01   -0.99175E-01  9568   0.956E+00-0.285E-01
CGA:   5    -0.312202568175E+03   -0.39415E-01   -0.39435E-01  9568   0.124E+01-0.405E-02
CGA:   6    -0.312253646900E+03   -0.51079E-01   -0.51120E-01  9568   0.843E+00-0.946E-02
CGA:   7    -0.312268903495E+03   -0.15257E-01   -0.15122E-01  9568   0.440E+00 0.390E-02
CGA:   8    -0.312283699269E+03   -0.14796E-01   -0.14863E-01  9568   0.107E+00 0.573E-02
CGA:   9    -0.312290373111E+03   -0.66738E-02   -0.67009E-02  9568   0.194E+00-0.100E-02
CGA:  10    -0.312295389337E+03   -0.50162E-02   -0.50501E-02  9568   0.569E-01 0.767E-04
CGA:  11    -0.312297095910E+03   -0.17066E-02   -0.17056E-02  9568   0.600E-01-0.299E-04
CGA:  12    -0.312298344651E+03   -0.12487E-02   -0.12656E-02  9568   0.150E-01-0.278E-03
CGA:  13    -0.312299004457E+03   -0.65981E-03   -0.66001E-03  9568   0.176E-01-0.191E-04
CGA:  14    -0.312300082327E+03   -0.10779E-02   -0.10772E-02  9568   0.121E-01 0.265E-04
CGA:  15    -0.312300257637E+03   -0.17531E-03   -0.17516E-03  9568   0.456E-02-0.100E-05
CGA:  16    -0.312300516792E+03   -0.25916E-03   -0.25856E-03  9568   0.229E-02 0.273E-04
CGA:  17    -0.312300647484E+03   -0.13069E-03   -0.13084E-03  9568   0.539E-02-0.737E-05
CGA:  18    -0.312300801807E+03   -0.15432E-03   -0.15445E-03  9568   0.300E-02 0.557E-05
CGA:  19    -0.312300864807E+03   -0.63000E-04   -0.62968E-04  9568   0.126E-02-0.853E-07
CGA:  20    -0.312300913242E+03   -0.48435E-04   -0.48434E-04  9568   0.113E-02 0.241E-05
CGA:  21    -0.312300957588E+03   -0.44346E-04   -0.44344E-04  9568   0.913E-03 0.129E-05
CGA:  22    -0.312301004678E+03   -0.47090E-04   -0.47049E-04  9568   0.198E-02 0.313E-05
CGA:  23    -0.312301046403E+03   -0.41725E-04   -0.41628E-04  9568   0.511E-03 0.863E-06
CGA:  24    -0.312301084942E+03   -0.38539E-04   -0.38450E-04  9568   0.372E-03 0.237E-05
CGA:  25    -0.312301094882E+03   -0.99403E-05   -0.99357E-05  9568   0.466E-03-0.381E-06
CGA:  26    -0.312301115407E+03   -0.20524E-04   -0.20508E-04  9568   0.545E-03 0.314E-05
CGA:  27    -0.312301134323E+03   -0.18916E-04   -0.18925E-04  9568   0.196E-03 0.174E-05
CGA:  28    -0.312301144473E+03   -0.10150E-04   -0.10144E-04  9568   0.379E-03 0.417E-06
CGA:  29    -0.312301153529E+03   -0.90555E-05   -0.90451E-05  9568   0.134E-03-0.766E-06
  15 F= -.31230115E+03 E0= -.31227773E+03  d E =-.104081E-01  mag=    25.8686
       N       E                     dE             d eps       ncg     rms          ort
SDA:   1    -0.291602258953E+03    0.20699E+02    0.00000E+00  9568   0.961E+02 0.000E+00
CGA:   2    -0.294306845630E+03   -0.27046E+01   -0.17167E+01  9568   0.720E+02 0.176E+02
CGA:   3    -0.295861309822E+03   -0.15545E+01   -0.15201E+01  9568   0.218E+03-0.168E+01
CGA:   4    -0.300795162691E+03   -0.49339E+01   -0.54317E+01  9568   0.371E+03 0.162E+02
CGA:   5    -0.303032030999E+03   -0.22369E+01   -0.43936E+01  9568   0.172E+03-0.165E+03
CGA:   6    -0.304181428591E+03   -0.11494E+01   -0.75358E+00  9568   0.123E+03 0.480E+02
CGA:   7    -0.305160159535E+03   -0.97873E+00   -0.11286E+01  9568   0.792E+02-0.881E+02
CGA:   8    -0.306513383568E+03   -0.13532E+01   -0.11900E+01  9568   0.531E+02 0.890E+00
CGA:   9    -0.309552113054E+03   -0.30387E+01   -0.33038E+01  9568   0.974E+02-0.753E+01
CGA:  10    -0.310649313143E+03   -0.10972E+01   -0.13379E+01  9568   0.265E+02-0.802E+01
CGA:  11    -0.311075460505E+03   -0.42615E+00   -0.42655E+00  9568   0.175E+02-0.382E+00
CGA:  12    -0.311439141483E+03   -0.36368E+00   -0.31886E+00  9568   0.592E+01 0.121E+01
CGA:  13    -0.311554513347E+03   -0.11537E+00   -0.10347E+00  9568   0.453E+01 0.312E+00
CGA:  14    -0.311715984750E+03   -0.16147E+00   -0.16133E+00  9568   0.110E+02 0.223E-01
CGA:  15    -0.311895009043E+03   -0.17902E+00   -0.17947E+00  9568   0.534E+01-0.708E-02
CGA:  16    -0.311985153208E+03   -0.90144E-01   -0.94200E-01  9568   0.379E+01-0.555E-01
CGA:  17    -0.312068380016E+03   -0.83227E-01   -0.81044E-01  9568   0.194E+01-0.461E-01
CGA:  18    -0.312099617635E+03   -0.31238E-01   -0.30785E-01  9568   0.139E+01 0.819E-02
CGA:  19    -0.312129747440E+03   -0.30130E-01   -0.30324E-01  9568   0.147E+01 0.777E-02
CGA:  20    -0.312176679108E+03   -0.46932E-01   -0.46581E-01  9568   0.209E+01 0.528E-01
CGA:  21    -0.312210830980E+03   -0.34152E-01   -0.33419E-01  9568   0.955E+00 0.157E-01
CGA:  22    -0.312234709949E+03   -0.23879E-01   -0.23896E-01  9568   0.866E+00 0.335E-02
CGA:  23    -0.312250799874E+03   -0.16090E-01   -0.16485E-01  9568   0.547E+00 0.463E-02
CGA:  24    -0.312263392783E+03   -0.12593E-01   -0.12664E-01  9568   0.458E+00 0.730E-02
CGA:  25    -0.312272961025E+03   -0.95682E-02   -0.96308E-02  9568   0.201E+00 0.275E-02
CGA:  26    -0.312282876071E+03   -0.99150E-02   -0.99536E-02  9568   0.375E+00-0.165E-02
CGA:  27    -0.312291069969E+03   -0.81939E-02   -0.82596E-02  9568   0.143E+00 0.379E-02
CGA:  28    -0.312294388881E+03   -0.33189E-02   -0.33355E-02  9568   0.119E+00 0.145E-02
CGA:  29    -0.312297514810E+03   -0.31259E-02   -0.31243E-02  9568   0.105E+00-0.124E-02
CGA:  30    -0.312301917153E+03   -0.44023E-02   -0.44198E-02  9568   0.143E+00-0.967E-03
CGA:  31    -0.312305653022E+03   -0.37359E-02   -0.37377E-02  9568   0.998E-01 0.852E-03
CGA:  32    -0.312309372562E+03   -0.37195E-02   -0.37131E-02  9568   0.770E-01 0.503E-03
CGA:  33    -0.312311499655E+03   -0.21271E-02   -0.21271E-02  9568   0.647E-01-0.206E-04
CGA:  34    -0.312313068454E+03   -0.15688E-02   -0.15718E-02  9568   0.408E-01 0.309E-03
CGA:  35    -0.312314495058E+03   -0.14266E-02   -0.14181E-02  9568   0.551E-01 0.854E-03
CGA:  36    -0.312316105295E+03   -0.16102E-02   -0.16107E-02  9568   0.294E-01-0.477E-03
CGA:  37    -0.312317481943E+03   -0.13766E-02   -0.13806E-02  9568   0.390E-01-0.188E-03
SDA:  38    -0.312318474753E+03   -0.99281E-03   -0.99425E-03  9568   0.242E-01 0.161E-03
CGA:  39    -0.312319115012E+03   -0.64026E-03   -0.64115E-03  9568   0.178E-01 0.159E-03
CGA:  40    -0.312319509312E+03   -0.39430E-03   -0.39474E-03  9568   0.103E-01 0.154E-04
CGA:  41    -0.312319801486E+03   -0.29217E-03   -0.29218E-03  9568   0.822E-02 0.356E-04
CGA:  42    -0.312320181596E+03   -0.38011E-03   -0.38008E-03  9568   0.818E-02-0.383E-06
CGA:  43    -0.312320515703E+03   -0.33411E-03   -0.33412E-03  9568   0.709E-02-0.931E-06
CGA:  44    -0.312320851602E+03   -0.33590E-03   -0.33506E-03  9568   0.753E-02 0.391E-04
CGA:  45    -0.312320980954E+03   -0.12935E-03   -0.12915E-03  9568   0.409E-02 0.541E-05
CGA:  46    -0.312321288142E+03   -0.30719E-03   -0.30493E-03  9568   0.201E-02 0.560E-04
CGA:  47    -0.312321453850E+03   -0.16571E-03   -0.16681E-03  9568   0.394E-02-0.237E-04
CGA:  48    -0.312321553559E+03   -0.99710E-04   -0.99889E-04  9568   0.335E-02-0.265E-05
CGA:  49    -0.312321692067E+03   -0.13851E-03   -0.13861E-03  9568   0.471E-02-0.112E-04
CGA:  50    -0.312321793712E+03   -0.10165E-03   -0.10181E-03  9568   0.149E-02-0.536E-05
CGA:  51    -0.312321958296E+03   -0.16458E-03   -0.16416E-03  9568   0.118E-02 0.508E-05
CGA:  52    -0.312322042647E+03   -0.84352E-04   -0.84259E-04  9568   0.168E-02 0.225E-05
CGA:  53    -0.312322066406E+03   -0.23758E-04   -0.23781E-04  9568   0.547E-03 0.606E-06
CGA:  54    -0.312322135099E+03   -0.68693E-04   -0.69346E-04  9568   0.741E-03-0.753E-05
CGA:  55    -0.312322161961E+03   -0.26862E-04   -0.26852E-04  9568   0.518E-03-0.235E-05
CGA:  56    -0.312322180050E+03   -0.18088E-04   -0.18098E-04  9568   0.340E-03 0.281E-06
CGA:  57    -0.312322191132E+03   -0.11082E-04   -0.11096E-04  9568   0.373E-03 0.116E-05
CGA:  58    -0.312322203119E+03   -0.11987E-04   -0.12001E-04  9568   0.349E-03 0.108E-05
CGA:  59    -0.312322210502E+03   -0.73836E-05   -0.74394E-05  9568   0.111E-03 0.222E-05
  16 F= -.31232221E+03 E0= -.31229847E+03  d E =-.210570E-01  mag=    25.8863
       N       E                     dE             d eps       ncg     rms          ort
SDA:   1    -0.289089023437E+03    0.23233E+02    0.00000E+00  9568   0.355E+03 0.000E+00
CGA:   2    -0.291871176378E+03   -0.27822E+01   -0.79443E+01  9568   0.242E+03-0.106E+03
CGA:   3    -0.298702541293E+03   -0.68314E+01   -0.61865E+01  9568   0.170E+03-0.743E+02
CGA:   4    -0.304330210642E+03   -0.56277E+01   -0.58777E+01  9568   0.972E+02-0.213E+02
CGA:   5    -0.306721709574E+03   -0.23915E+01   -0.25256E+01  9568   0.430E+02 0.195E+00
CGA:   6    -0.308099312356E+03   -0.13776E+01   -0.12447E+01  9568   0.368E+02-0.297E+01
CGA:   7    -0.310081008927E+03   -0.19817E+01   -0.20591E+01  9568   0.571E+02-0.602E+01
CGA:   8    -0.311220635684E+03   -0.11396E+01   -0.12977E+01  9568   0.190E+02-0.114E+00
CGA:   9    -0.311502658671E+03   -0.28202E+00   -0.29430E+00  9568   0.134E+02-0.945E+00
CGA:  10    -0.311649230750E+03   -0.14657E+00   -0.16555E+00  9568   0.632E+01-0.133E+01
CGA:  11    -0.311754604312E+03   -0.10537E+00   -0.97650E-01  9568   0.915E+01 0.232E+00
CGA:  12    -0.311933362823E+03   -0.17876E+00   -0.16020E+00  9568   0.382E+01 0.599E+00
CGA:  13    -0.312022717129E+03   -0.89354E-01   -0.92877E-01  9568   0.625E+01-0.212E-01
CGA:  14    -0.312094691858E+03   -0.71975E-01   -0.78442E-01  9568   0.246E+01-0.410E+00
CGA:  15    -0.312135530228E+03   -0.40838E-01   -0.40944E-01  9568   0.277E+01-0.755E-02
CGA:  16    -0.312168337882E+03   -0.32808E-01   -0.31258E-01  9568   0.826E+00 0.908E-01
CGA:  17    -0.312187893195E+03   -0.19555E-01   -0.19524E-01  9568   0.150E+01-0.703E-03
CGA:  18    -0.312212583729E+03   -0.24691E-01   -0.26490E-01  9568   0.122E+01-0.374E-01
CGA:  19    -0.312239716319E+03   -0.27133E-01   -0.27277E-01  9568   0.162E+01 0.236E-02
CGA:  20    -0.312258565671E+03   -0.18849E-01   -0.18055E-01  9568   0.518E+00 0.469E-01
CGA:  21    -0.312268364614E+03   -0.97989E-02   -0.96680E-02  9568   0.482E+00 0.110E-02
CGA:  22    -0.312274756592E+03   -0.63920E-02   -0.67292E-02  9568   0.346E+00-0.126E-01
CGA:  23    -0.312284160039E+03   -0.94034E-02   -0.94052E-02  9568   0.524E+00 0.456E-02
CGA:  24    -0.312291699366E+03   -0.75393E-02   -0.77933E-02  9568   0.336E+00-0.749E-02
CGA:  25    -0.312301268172E+03   -0.95688E-02   -0.95634E-02  9568   0.313E+00 0.218E-02
CGA:  26    -0.312305311481E+03   -0.40433E-02   -0.41021E-02  9568   0.156E+00-0.218E-02
CGA:  27    -0.312309457346E+03   -0.41459E-02   -0.41460E-02  9568   0.121E+00 0.957E-03
CGA:  28    -0.312312118621E+03   -0.26613E-02   -0.26787E-02  9568   0.174E+00 0.103E-02
CGA:  29    -0.312317638417E+03   -0.55198E-02   -0.55029E-02  9568   0.126E+00 0.232E-02
CGA:  30    -0.312320123525E+03   -0.24851E-02   -0.24978E-02  9568   0.883E-01 0.273E-03
CGA:  31    -0.312321650070E+03   -0.15265E-02   -0.15416E-02  9568   0.456E-01-0.517E-05
SDA:  32    -0.312323206271E+03   -0.15562E-02   -0.15573E-02  9568   0.557E-01-0.817E-04
CGA:  33    -0.312323869528E+03   -0.66326E-03   -0.66778E-03  9568   0.129E-01-0.187E-03
CGA:  34    -0.312324354104E+03   -0.48458E-03   -0.48431E-03  9568   0.226E-01 0.188E-04
CGA:  35    -0.312325837908E+03   -0.14838E-02   -0.14844E-02  9568   0.258E-01-0.206E-04
CGA:  36    -0.312326587005E+03   -0.74910E-03   -0.74879E-03  9568   0.118E-01 0.199E-03
CGA:  37    -0.312327172827E+03   -0.58582E-03   -0.58673E-03  9568   0.114E-01-0.409E-04
CGA:  38    -0.312327435172E+03   -0.26234E-03   -0.26302E-03  9568   0.121E-01 0.105E-04
CGA:  39    -0.312327987993E+03   -0.55282E-03   -0.55300E-03  9568   0.377E-02-0.129E-04
[...]
CGA:  16    -0.312513252571E+03   -0.77434E-04   -0.77312E-04  9568   0.144E-02 0.457E-05
CGA:  17    -0.312513291648E+03   -0.39077E-04   -0.39090E-04  9568   0.783E-03 0.121E-05
CGA:  18    -0.312513326859E+03   -0.35211E-04   -0.35198E-04  9568   0.703E-03 0.155E-05
CGA:  19    -0.312513344020E+03   -0.17162E-04   -0.17137E-04  9568   0.504E-03-0.152E-05
CGA:  20    -0.312513367767E+03   -0.23747E-04   -0.23719E-04  9568   0.532E-03 0.250E-05
CGA:  21    -0.312513389102E+03   -0.21335E-04   -0.21339E-04  9568   0.199E-03-0.117E-05
CGA:  22    -0.312513395501E+03   -0.63983E-05   -0.64061E-05  9568   0.275E-03 0.139E-05
CGA:  23    -0.312513409520E+03   -0.14020E-04   -0.14026E-04  9568   0.267E-03-0.483E-06
CGA:  24    -0.312513416264E+03   -0.67438E-05   -0.67489E-05  9568   0.151E-03 0.419E-06
  78 F= -.31251342E+03 E0= -.31249162E+03  d E =-.252351E-02  mag=    25.9447
       N       E                     dE             d eps       ncg     rms          ort
SDA:   1    -0.311686407115E+03    0.82700E+00    0.00000E+00  9568   0.348E+01 0.000E+00
CGA:   2    -0.311796818875E+03   -0.11041E+00   -0.11146E+00  9568   0.607E+01 0.578E-01
CGA:   3    -0.312169851677E+03   -0.37303E+00   -0.37623E+00  9568   0.325E+01-0.117E+00
CGA:   4    -0.312275516668E+03   -0.10566E+00   -0.10630E+00  9568   0.187E+01 0.392E-01
CGA:   5    -0.312349362603E+03   -0.73846E-01   -0.73969E-01  9568   0.284E+01-0.864E-01
CGA:   6    -0.312438171544E+03   -0.88809E-01   -0.88811E-01  9568   0.127E+01 0.619E-04
CGA:   7    -0.312472607396E+03   -0.34436E-01   -0.34655E-01  9568   0.524E+00 0.198E-02
CGA:   8    -0.312486500308E+03   -0.13893E-01   -0.13821E-01  9568   0.289E+00-0.497E-03
CGA:   9    -0.312504114423E+03   -0.17614E-01   -0.17678E-01  9568   0.245E+00-0.236E-02
CGA:  10    -0.312508742612E+03   -0.46282E-02   -0.46705E-02  9568   0.116E+00-0.106E-02
CGA:  11    -0.312512778872E+03   -0.40363E-02   -0.40331E-02  9568   0.714E-01-0.596E-03
CGA:  12    -0.312515822749E+03   -0.30439E-02   -0.30468E-02  9568   0.360E-01-0.328E-03
CGA:  13    -0.312516902487E+03   -0.10797E-02   -0.10818E-02  9568   0.328E-01 0.735E-04
CGA:  14    -0.312518121393E+03   -0.12189E-02   -0.12189E-02  9568   0.197E-01 0.207E-03
CGA:  15    -0.312518741024E+03   -0.61963E-03   -0.61884E-03  9568   0.208E-01-0.447E-04
CGA:  16    -0.312519350811E+03   -0.60979E-03   -0.61156E-03  9568   0.623E-02 0.710E-04
CGA:  17    -0.312519626090E+03   -0.27528E-03   -0.27520E-03  9568   0.559E-02 0.645E-05
CGA:  18    -0.312519919783E+03   -0.29369E-03   -0.29370E-03  9568   0.761E-02 0.275E-06
CGA:  19    -0.312520077856E+03   -0.15807E-03   -0.15763E-03  9568   0.246E-02 0.714E-05
CGA:  20    -0.312520190840E+03   -0.11298E-03   -0.11283E-03  9568   0.357E-02 0.135E-04
CGA:  21    -0.312520303306E+03   -0.11247E-03   -0.11240E-03  9568   0.191E-02-0.395E-05
CGA:  22    -0.312520389348E+03   -0.86043E-04   -0.86017E-04  9568   0.127E-02 0.286E-05
CGA:  23    -0.312520445242E+03   -0.55894E-04   -0.55891E-04  9568   0.201E-02-0.257E-07
CGA:  24    -0.312520502597E+03   -0.57354E-04   -0.57413E-04  9568   0.131E-02 0.413E-05
CGA:  25    -0.312520557053E+03   -0.54457E-04   -0.54444E-04  9568   0.629E-03 0.236E-05
CGA:  26    -0.312520584396E+03   -0.27343E-04   -0.27316E-04  9568   0.827E-03 0.387E-05
CGA:  27    -0.312520613407E+03   -0.29011E-04   -0.29007E-04  9568   0.621E-03-0.109E-05
CGA:  28    -0.312520640677E+03   -0.27269E-04   -0.27251E-04  9568   0.735E-03 0.286E-05
CGA:  29    -0.312520656866E+03   -0.16189E-04   -0.16200E-04  9568   0.257E-03 0.487E-06
CGA:  30    -0.312520669019E+03   -0.12153E-04   -0.12141E-04  9568   0.223E-03 0.111E-05
CGA:  31    -0.312520681459E+03   -0.12440E-04   -0.12458E-04  9568   0.222E-03-0.104E-05
SDA:  32    -0.312520686320E+03   -0.48616E-05   -0.48775E-05  9568   0.153E-03 0.763E-06
  79 F= -.31252069E+03 E0= -.31249892E+03  d E =-.727006E-02  mag=    25.9433
       N       E                     dE             d eps       ncg     rms          ort
SDA:   1    -0.311597761962E+03    0.92292E+00    0.00000E+00  9568   0.416E+01 0.000E+00
CGA:   2    -0.311696810180E+03   -0.99048E-01   -0.10163E+00  9568   0.523E+01-0.648E-02
CGA:   3    -0.312139911758E+03   -0.44310E+00   -0.46835E+00  9568   0.687E+01-0.534E+00
CGA:   4    -0.312274193779E+03   -0.13428E+00   -0.14475E+00  9568   0.232E+01-0.997E-01
CGA:   5    -0.312343577559E+03   -0.69384E-01   -0.68791E-01  9568   0.194E+01-0.175E-01
CGA:   6    -0.312421329959E+03   -0.77752E-01   -0.77666E-01  9568   0.152E+01 0.174E-01
CGA:   7    -0.312468626193E+03   -0.47296E-01   -0.46783E-01  9568   0.105E+01-0.183E-01
CGA:   8    -0.312490358115E+03   -0.21732E-01   -0.22366E-01  9568   0.203E+00-0.895E-02
CGA:   9    -0.312506888580E+03   -0.16530E-01   -0.16377E-01  9568   0.228E+00 0.353E-02
CGA:  10    -0.312511714430E+03   -0.48258E-02   -0.48764E-02  9568   0.149E+00-0.973E-03
CGA:  11    -0.312516923148E+03   -0.52087E-02   -0.52016E-02  9568   0.397E-01-0.109E-02
CGA:  12    -0.312519330705E+03   -0.24076E-02   -0.23981E-02  9568   0.612E-01 0.364E-03
CGA:  13    -0.312520705606E+03   -0.13749E-02   -0.13635E-02  9568   0.251E-01 0.174E-03
CGA:  14    -0.312521417699E+03   -0.71209E-03   -0.71126E-03  9568   0.144E-01-0.622E-05
CGA:  15    -0.312522510866E+03   -0.10932E-02   -0.10962E-02  9568   0.133E-01-0.801E-04
CGA:  16    -0.312522750038E+03   -0.23917E-03   -0.24093E-03  9568   0.550E-02-0.440E-04
CGA:  17    -0.312523004482E+03   -0.25444E-03   -0.25473E-03  9568   0.486E-02-0.247E-04
CGA:  18    -0.312523157610E+03   -0.15313E-03   -0.15315E-03  9568   0.464E-02 0.236E-05
CGA:  19    -0.312523363989E+03   -0.20638E-03   -0.20638E-03  9568   0.214E-02 0.601E-06
CGA:  20    -0.312523426681E+03   -0.62692E-04   -0.62770E-04  9568   0.250E-02 0.402E-05
CGA:  21    -0.312523527036E+03   -0.10036E-03   -0.10037E-03  9568   0.126E-02-0.447E-05
CGA:  22    -0.312523593568E+03   -0.66532E-04   -0.66411E-04  9568   0.130E-02 0.763E-05
CGA:  23    -0.312523624118E+03   -0.30550E-04   -0.30524E-04  9568   0.892E-03-0.371E-06
CGA:  24    -0.312523676024E+03   -0.51905E-04   -0.51846E-04  9568   0.116E-02 0.275E-05
CGA:  25    -0.312523715939E+03   -0.39915E-04   -0.39921E-04  9568   0.537E-03 0.575E-06
CGA:  26    -0.312523729618E+03   -0.13679E-04   -0.13712E-04  9568   0.458E-03 0.179E-05
CGA:  27    -0.312523760330E+03   -0.30712E-04   -0.30647E-04  9568   0.610E-03 0.220E-05
CGA:  28    -0.312523773720E+03   -0.13390E-04   -0.13458E-04  9568   0.259E-03 0.288E-05
CGA:  29    -0.312523789296E+03   -0.15576E-04   -0.15577E-04  9568   0.241E-03-0.948E-07
CGA:  30    -0.312523794834E+03   -0.55384E-05   -0.55541E-05  9568   0.182E-03 0.732E-06
  80 F= -.31252379E+03 E0= -.31250202E+03  d E =-.310851E-02  mag=    25.9421
       N       E                     dE             d eps       ncg     rms          ort
SDA:   1    -0.312231278002E+03    0.29251E+00    0.00000E+00  9568   0.114E+02 0.000E+00
CGA:   2    -0.312352743033E+03   -0.12147E+00   -0.11465E+00  9568   0.577E+00 0.326E+00
CGA:   3    -0.312413129734E+03   -0.60387E-01   -0.61709E-01  9568   0.148E+01-0.231E-01
CGA:   4    -0.312443986978E+03   -0.30857E-01   -0.31011E-01  9568   0.107E+01-0.408E-02
CGA:   5    -0.312474386049E+03   -0.30399E-01   -0.31168E-01  9568   0.320E+00 0.785E-02
CGA:   6    -0.312485933049E+03   -0.11547E-01   -0.11530E-01  9568   0.562E+00-0.153E-02
CGA:   7    -0.312503101809E+03   -0.17169E-01   -0.17339E-01  9568   0.379E+00 0.436E-02
CGA:   8    -0.312513990037E+03   -0.10888E-01   -0.10844E-01  9568   0.938E-01-0.518E-03
CGA:   9    -0.312516803050E+03   -0.28130E-02   -0.27986E-02  9568   0.123E+00-0.330E-03
CGA:  10    -0.312520348251E+03   -0.35452E-02   -0.35487E-02  9568   0.441E-01 0.894E-04
CGA:  11    -0.312521638654E+03   -0.12904E-02   -0.12924E-02  9568   0.431E-01 0.517E-04
CGA:  12    -0.312523330425E+03   -0.16918E-02   -0.16921E-02  9568   0.225E-01-0.117E-03
CGA:  13    -0.312523721323E+03   -0.39090E-03   -0.39359E-03  9568   0.125E-01-0.779E-04
CGA:  14    -0.312524313406E+03   -0.59208E-03   -0.59280E-03  9568   0.528E-02-0.474E-04
CGA:  15    -0.312524507175E+03   -0.19377E-03   -0.19377E-03  9568   0.798E-02-0.391E-05
CGA:  16    -0.312524742925E+03   -0.23575E-03   -0.23577E-03  9568   0.655E-02 0.523E-05
CGA:  17    -0.312524952772E+03   -0.20985E-03   -0.20987E-03  9568   0.159E-02 0.150E-05
CGA:  18    -0.312525018072E+03   -0.65300E-04   -0.65316E-04  9568   0.215E-02-0.297E-05
CGA:  19    -0.312525061690E+03   -0.43618E-04   -0.43674E-04  9568   0.106E-02 0.141E-05
CGA:  20    -0.312525166423E+03   -0.10473E-03   -0.10445E-03  9568   0.121E-02 0.475E-05
CGA:  21    -0.312525188100E+03   -0.21677E-04   -0.21644E-04  9568   0.517E-03 0.731E-06
CGA:  22    -0.312525208223E+03   -0.20123E-04   -0.20122E-04  9568   0.649E-03 0.139E-05
CGA:  23    -0.312525228241E+03   -0.20018E-04   -0.20005E-04  9568   0.413E-03-0.134E-05
CGA:  24    -0.312525244906E+03   -0.16665E-04   -0.16661E-04  9568   0.338E-03 0.141E-05
CGA:  25    -0.312525258179E+03   -0.13272E-04   -0.13270E-04  9568   0.460E-03 0.171E-05
CGA:  26    -0.312525269221E+03   -0.11043E-04   -0.11026E-04  9568   0.230E-03-0.110E-05
CGA:  27    -0.312525278413E+03   -0.91921E-05   -0.91936E-05  9568   0.834E-04-0.609E-06
  81 F= -.31252528E+03 E0= -.31250348E+03  d E =-.148358E-02  mag=    25.9428
       N       E                     dE             d eps       ncg     rms          ort
SDA:   1    -0.311801736148E+03    0.72353E+00    0.00000E+00  9568   0.908E+01 0.000E+00
CGA:   2    -0.311910627263E+03   -0.10889E+00   -0.12668E+00  9568   0.298E+01-0.969E+00
CGA:   3    -0.312159244941E+03   -0.24862E+00   -0.24789E+00  9568   0.517E+01 0.240E-01
CGA:   4    -0.312298588778E+03   -0.13934E+00   -0.13934E+00  9568   0.256E+01-0.170E-01
CGA:   5    -0.312369326010E+03   -0.70737E-01   -0.69954E-01  9568   0.130E+01-0.307E-02
CGA:   6    -0.312426896965E+03   -0.57571E-01   -0.57224E-01  9568   0.158E+01 0.409E-01
CGA:   7    -0.312480878676E+03   -0.53982E-01   -0.53701E-01  9568   0.885E+00-0.142E-01
CGA:   8    -0.312501688498E+03   -0.20810E-01   -0.20858E-01  9568   0.263E+00-0.745E-03
CGA:   9    -0.312509545852E+03   -0.78574E-02   -0.78028E-02  9568   0.257E+00-0.142E-02
CGA:  10    -0.312520662330E+03   -0.11116E-01   -0.11099E-01  9568   0.110E+00 0.199E-02
CGA:  11    -0.312523398612E+03   -0.27363E-02   -0.27308E-02  9568   0.827E-01-0.871E-05
CGA:  12    -0.312526555677E+03   -0.31571E-02   -0.31569E-02  9568   0.480E-01 0.120E-03
CGA:  13    -0.312528049845E+03   -0.14942E-02   -0.14935E-02  9568   0.325E-01-0.304E-04
CGA:  14    -0.312528955105E+03   -0.90526E-03   -0.90628E-03  9568   0.173E-01 0.316E-04
CGA:  15    -0.312529547742E+03   -0.59264E-03   -0.59244E-03  9568   0.152E-01-0.385E-04
CGA:  16    -0.312530125318E+03   -0.57758E-03   -0.57734E-03  9568   0.143E-01 0.803E-04
CGA:  17    -0.312530557568E+03   -0.43225E-03   -0.43234E-03  9568   0.508E-02-0.127E-06
CGA:  18    -0.312530704784E+03   -0.14722E-03   -0.14734E-03  9568   0.525E-02 0.837E-05
CGA:  19    -0.312530945469E+03   -0.24069E-03   -0.24085E-03  9568   0.373E-02-0.116E-04
CGA:  20    -0.312531079634E+03   -0.13416E-03   -0.13417E-03  9568   0.377E-02 0.758E-05
CGA:  21    -0.312531188662E+03   -0.10903E-03   -0.10899E-03  9568   0.209E-02-0.348E-05
CGA:  22    -0.312531278463E+03   -0.89801E-04   -0.89737E-04  9568   0.251E-02 0.791E-05
CGA:  23    -0.312531363155E+03   -0.84692E-04   -0.84673E-04  9568   0.164E-02-0.361E-05
CGA:  24    -0.312531413309E+03   -0.50154E-04   -0.50198E-04  9568   0.110E-02 0.535E-05
CGA:  25    -0.312531458561E+03   -0.45253E-04   -0.45262E-04  9568   0.150E-02-0.160E-05
CGA:  26    -0.312531511844E+03   -0.53282E-04   -0.53285E-04  9568   0.649E-03 0.272E-05
CGA:  27    -0.312531533973E+03   -0.22129E-04   -0.22128E-04  9568   0.695E-03-0.510E-06
CGA:  28    -0.312531555016E+03   -0.21043E-04   -0.21063E-04  9568   0.359E-03 0.314E-05
CGA:  29    -0.312531572900E+03   -0.17884E-04   -0.17902E-04  9568   0.524E-03-0.126E-05
CGA:  30    -0.312531587535E+03   -0.14636E-04   -0.14655E-04  9568   0.222E-03 0.204E-05
CGA:  31    -0.312531593906E+03   -0.63708E-05   -0.63678E-05  9568   0.141E-03-0.453E-06
  82 F= -.31253159E+03 E0= -.31250980E+03  d E =-.631549E-02  mag=    25.9417
       N       E                     dE             d eps       ncg     rms          ort
SDA:   1    -0.312127435921E+03    0.40415E+00    0.00000E+00  9568   0.712E+01 0.000E+00
CGA:   2    -0.312207127672E+03   -0.79692E-01   -0.86533E-01  9568   0.136E+01-0.479E+00
CGA:   3    -0.312346086207E+03   -0.13896E+00   -0.13967E+00  9568   0.299E+01-0.119E-01
CGA:   4    -0.312403405773E+03   -0.57320E-01   -0.58948E-01  9568   0.120E+01-0.411E-01
CGA:   5    -0.312447879710E+03   -0.44474E-01   -0.44480E-01  9568   0.633E+00-0.163E-01
CGA:   6    -0.312472384451E+03   -0.24505E-01   -0.24486E-01  9568   0.102E+01 0.565E-02
CGA:   7    -0.312510041362E+03   -0.37657E-01   -0.37642E-01  9568   0.216E+00-0.793E-02
CGA:   8    -0.312514809422E+03   -0.47681E-02   -0.47953E-02  9568   0.157E+00-0.308E-03
CGA:   9    -0.312523680618E+03   -0.88712E-02   -0.88880E-02  9568   0.124E+00-0.703E-03
CGA:  10    -0.312526293634E+03   -0.26130E-02   -0.26261E-02  9568   0.552E-01-0.192E-03
CGA:  11    -0.312528416053E+03   -0.21224E-02   -0.21235E-02  9568   0.351E-01-0.354E-03
CGA:  12    -0.312529364097E+03   -0.94804E-03   -0.94939E-03  9568   0.239E-01 0.262E-04
CGA:  13    -0.312530214756E+03   -0.85066E-03   -0.85048E-03  9568   0.143E-01-0.941E-04
CGA:  14    -0.312530634013E+03   -0.41926E-03   -0.41965E-03  9568   0.108E-01 0.186E-04
CGA:  15    -0.312531085127E+03   -0.45111E-03   -0.45130E-03  9568   0.107E-01-0.236E-04
CGA:  16    -0.312531370383E+03   -0.28526E-03   -0.28542E-03  9568   0.367E-02 0.787E-05
CGA:  17    -0.312531483209E+03   -0.11283E-03   -0.11276E-03  9568   0.359E-02-0.815E-05
CGA:  18    -0.312531646488E+03   -0.16328E-03   -0.16320E-03  9568   0.308E-02 0.660E-05
CGA:  19    -0.312531744509E+03   -0.98021E-04   -0.97989E-04  9568   0.281E-02-0.454E-05
CGA:  20    -0.312531840346E+03   -0.95837E-04   -0.95848E-04  9568   0.121E-02 0.501E-05
CGA:  21    -0.312531880340E+03   -0.39994E-04   -0.39985E-04  9568   0.152E-02-0.264E-05
CGA:  22    -0.312531954427E+03   -0.74088E-04   -0.74000E-04  9568   0.946E-03 0.596E-05
CGA:  23    -0.312531979288E+03   -0.24861E-04   -0.24841E-04  9568   0.779E-03-0.138E-05
CGA:  24    -0.312532020564E+03   -0.41277E-04   -0.41205E-04  9568   0.728E-03 0.410E-05
CGA:  25    -0.312532040440E+03   -0.19875E-04   -0.19858E-04  9568   0.515E-03-0.130E-05
CGA:  26    -0.312532059060E+03   -0.18620E-04   -0.18620E-04  9568   0.259E-03 0.862E-06
CGA:  27    -0.312532067478E+03   -0.84177E-05   -0.84143E-05  9568   0.316E-03-0.934E-06
CGA:  28    -0.312532083236E+03   -0.15758E-04   -0.15718E-04  9568   0.199E-03 0.268E-05
CGA:  29    -0.312532088103E+03   -0.48673E-05   -0.48563E-05  9568   0.128E-03-0.902E-06
  83 F= -.31253209E+03 E0= -.31251032E+03  d E =-.494197E-03  mag=    25.9410
       N       E                     dE             d eps       ncg     rms          ort
SDA:   1    -0.312448984193E+03    0.83099E-01    0.00000E+00  9568   0.389E+00 0.000E+00
CGA:   2    -0.312466227390E+03   -0.17243E-01   -0.17321E-01  9568   0.655E+00-0.648E-02
CGA:   3    -0.312488712144E+03   -0.22485E-01   -0.22521E-01  9568   0.452E+00 0.925E-02
CGA:   4    -0.312502429758E+03   -0.13718E-01   -0.13721E-01  9568   0.333E+00 0.141E-03
CGA:   5    -0.312510402595E+03   -0.79728E-02   -0.80480E-02  9568   0.143E+00-0.463E-05
CGA:   6    -0.312520059555E+03   -0.96570E-02   -0.95727E-02  9568   0.180E+00 0.262E-02
CGA:   7    -0.312526964556E+03   -0.69050E-02   -0.69054E-02  9568   0.543E-01-0.384E-03
CGA:   8    -0.312528320073E+03   -0.13555E-02   -0.13489E-02  9568   0.509E-01-0.105E-04
CGA:   9    -0.312530137927E+03   -0.18179E-02   -0.18178E-02  9568   0.223E-01-0.196E-04
CGA:  10    -0.312531034203E+03   -0.89628E-03   -0.89601E-03  9568   0.246E-01 0.440E-04
CGA:  11    -0.312531710677E+03   -0.67647E-03   -0.67609E-03  9568   0.464E-02-0.117E-04
CGA:  12    -0.312531959034E+03   -0.24836E-03   -0.24838E-03  9568   0.677E-02-0.892E-06
CGA:  13    -0.312532113685E+03   -0.15465E-03   -0.15489E-03  9568   0.372E-02 0.640E-05
CGA:  14    -0.312532250413E+03   -0.13673E-03   -0.13673E-03  9568   0.215E-02-0.957E-05
CGA:  15    -0.312532350942E+03   -0.10053E-03   -0.10056E-03  9568   0.115E-02-0.196E-05
CGA:  16    -0.312532394672E+03   -0.43730E-04   -0.43731E-04  9568   0.142E-02-0.555E-06
CGA:  17    -0.312532427224E+03   -0.32552E-04   -0.32590E-04  9568   0.477E-03 0.282E-05
CGA:  18    -0.312532456529E+03   -0.29305E-04   -0.29364E-04  9568   0.891E-03-0.223E-05
CGA:  19    -0.312532481263E+03   -0.24734E-04   -0.24775E-04  9568   0.320E-03 0.244E-05
CGA:  20    -0.312532496754E+03   -0.15491E-04   -0.15494E-04  9568   0.273E-03-0.142E-06
CGA:  21    -0.312532503118E+03   -0.63639E-05   -0.63793E-05  9568   0.211E-03 0.905E-06
CGA:  22    -0.312532513981E+03   -0.10863E-04   -0.10872E-04  9568   0.222E-03-0.610E-06
CGA:  23    -0.312532523099E+03   -0.91176E-05   -0.91174E-05  9568   0.930E-04 0.716E-07
  84 F= -.31253252E+03 E0= -.31251072E+03  d E =-.434996E-03  mag=    25.9411
       N       E                     dE             d eps       ncg     rms          ort
SDA:   1    -0.312302972514E+03    0.22954E+00    0.00000E+00  9568   0.213E+01 0.000E+00
CGA:   2    -0.312333059041E+03   -0.30087E-01   -0.28578E-01  9568   0.740E+00 0.771E-01
CGA:   3    -0.312423025953E+03   -0.89967E-01   -0.92732E-01  9568   0.255E+01-0.398E-01
CGA:   4    -0.312468082560E+03   -0.45057E-01   -0.47847E-01  9568   0.555E+00-0.748E-01
CGA:   5    -0.312484337683E+03   -0.16255E-01   -0.16305E-01  9568   0.656E+00 0.992E-03
CGA:   6    -0.312502370082E+03   -0.18032E-01   -0.17925E-01  9568   0.384E+00-0.456E-03
CGA:   7    -0.312522580612E+03   -0.20211E-01   -0.20211E-01  9568   0.240E+00-0.816E-04
CGA:   8    -0.312526108112E+03   -0.35275E-02   -0.34655E-02  9568   0.801E-01 0.297E-02
CGA:   9    -0.312529965891E+03   -0.38578E-02   -0.38605E-02  9568   0.806E-01-0.203E-03
CGA:  10    -0.312532793686E+03   -0.28278E-02   -0.28307E-02  9568   0.533E-01 0.328E-03
CGA:  11    -0.312533731958E+03   -0.93827E-03   -0.93683E-03  9568   0.250E-01 0.290E-04
CGA:  12    -0.312534808283E+03   -0.10763E-02   -0.10767E-02  9568   0.109E-01-0.409E-04
CGA:  13    -0.312535233293E+03   -0.42501E-03   -0.42488E-03  9568   0.188E-01 0.612E-04
CGA:  14    -0.312535686616E+03   -0.45332E-03   -0.45131E-03  9568   0.409E-02 0.756E-05
CGA:  15    -0.312535825015E+03   -0.13840E-03   -0.13836E-03  9568   0.553E-02-0.611E-05
CGA:  16    -0.312536120744E+03   -0.29573E-03   -0.29499E-03  9568   0.210E-02 0.366E-04
CGA:  17    -0.312536162950E+03   -0.42207E-04   -0.42153E-04  9568   0.170E-02-0.146E-05
CGA:  18    -0.312536245465E+03   -0.82515E-04   -0.82456E-04  9568   0.877E-03 0.436E-05
CGA:  19    -0.312536298064E+03   -0.52598E-04   -0.52586E-04  9568   0.104E-02 0.178E-06
CGA:  20    -0.312536322628E+03   -0.24564E-04   -0.24534E-04  9568   0.831E-03-0.222E-05
CGA:  21    -0.312536351392E+03   -0.28764E-04   -0.28777E-04  9568   0.538E-03 0.266E-05
CGA:  22    -0.312536374247E+03   -0.22856E-04   -0.22843E-04  9568   0.297E-03 0.228E-05
CGA:  23    -0.312536385373E+03   -0.11126E-04   -0.11125E-04  9568   0.400E-03-0.111E-05
CGA:  24    -0.312536396723E+03   -0.11350E-04   -0.11363E-04  9568   0.251E-03 0.107E-05
CGA:  25    -0.312536406598E+03   -0.98750E-05   -0.98741E-05  9568   0.342E-03 0.175E-06
CGA:  26    -0.312536418146E+03   -0.11548E-04   -0.11549E-04  9568   0.754E-04 0.669E-07
CGA:  27    -0.312536423185E+03   -0.50393E-05   -0.50107E-05  9568   0.241E-03 0.831E-06
  85 F= -.31253642E+03 E0= -.31251463E+03  d E =-.390009E-02  mag=    25.9406
