       N       E                     dE             d eps       ncg     rms          rms(c)
DAV:   1     0.536594858307E+04    0.53659E+04   -0.25600E+05 32776   0.163E+03
DAV:   2     0.237639336877E+03   -0.51283E+04   -0.47452E+04 33376   0.471E+02
DAV:   3    -0.317882830367E+03   -0.55552E+03   -0.53745E+03 32200   0.168E+02
DAV:   4    -0.333293761490E+03   -0.15411E+02   -0.15287E+02 32584   0.284E+01
DAV:   5    -0.334084981178E+03   -0.79122E+00   -0.78663E+00 50584   0.431E+00    0.181E+00
DAV:   6    -0.334964712081E+03   -0.87973E+00   -0.94835E-01 39528   0.231E+00    0.105E+01
DAV:   7    -0.334792280087E+03    0.17243E+00   -0.74892E-01 33400   0.204E+00    0.107E+01
DAV:   8    -0.334747713067E+03    0.44567E-01   -0.20388E-01 34016   0.804E-01    0.413E+00
DAV:   9    -0.334762202901E+03   -0.14490E-01   -0.11967E-01 32992   0.618E-01    0.487E+00
DAV:  10    -0.334758332954E+03    0.38699E-02   -0.69642E-02 32960   0.405E-01    0.332E+00
DAV:  11    -0.334756593491E+03    0.17395E-02   -0.14708E-02 33280   0.281E-01    0.264E+00
DAV:  12    -0.334757738839E+03   -0.11453E-02   -0.23918E-03 34352   0.110E-01    0.316E+00
DAV:  13    -0.334760622967E+03   -0.28841E-02   -0.70200E-03 34576   0.180E-01    0.351E+00
DAV:  14    -0.334760097370E+03    0.52560E-03   -0.44401E-04 31576   0.708E-02    0.345E+00
DAV:  15    -0.334760024955E+03    0.72415E-04   -0.24122E-05 26312   0.147E-02    0.344E+00
DAV:  16    -0.334756321090E+03    0.37039E-02   -0.38868E-03 39592   0.146E-01    0.333E+00
DAV:  17    -0.334757296485E+03   -0.97539E-03   -0.29073E-03 34920   0.123E-01    0.363E+00
DAV:  18    -0.334756448916E+03    0.84757E-03   -0.13761E-03 32080   0.976E-02    0.335E+00
DAV:  19    -0.334754027903E+03    0.24210E-02   -0.74017E-03 33448   0.166E-01    0.234E+00
DAV:  20    -0.334753603461E+03    0.42444E-03   -0.10340E-02 34312   0.300E-01    0.107E+00
DAV:  21    -0.334756379298E+03   -0.27758E-02   -0.23770E-03 31320   0.192E-01    0.124E+00
DAV:  22    -0.334756306534E+03    0.72764E-04   -0.11807E-03 32552   0.774E-02    0.125E+00
DAV:  23    -0.334756507389E+03   -0.20085E-03   -0.56857E-04 29816   0.495E-02    0.145E+00
DAV:  24    -0.334756487071E+03    0.20318E-04   -0.58073E-04 30464   0.564E-02    0.151E+00
DAV:  25    -0.334756475090E+03    0.11981E-04   -0.15238E-03 32728   0.123E-01    0.132E+00
DAV:  26    -0.334756001875E+03    0.47321E-03   -0.37616E-03 33408   0.103E-01    0.804E-01
DAV:  27    -0.334756208316E+03   -0.20644E-03   -0.74183E-04 30760   0.701E-02    0.550E-01
DAV:  28    -0.334756254692E+03   -0.46376E-04   -0.76344E-05 27712   0.233E-02    0.532E-01
DAV:  29    -0.334756286043E+03   -0.31351E-04   -0.34719E-05 17648   0.118E-02    0.568E-01
DAV:  30    -0.334756235241E+03    0.50801E-04   -0.73468E-05 21760   0.261E-02    0.497E-01
DAV:  31    -0.334756223567E+03    0.11674E-04   -0.18894E-04 30112   0.342E-02    0.376E-01
DAV:  32    -0.334756228058E+03   -0.44904E-05   -0.22273E-04 27272   0.328E-02    0.312E-01
DAV:  33    -0.334756210709E+03    0.17349E-04   -0.96164E-05 25624   0.261E-02    0.147E-01
DAV:  34    -0.334756232870E+03   -0.22161E-04   -0.73740E-05 20888   0.177E-02    0.138E-01
DAV:  35    -0.334756244403E+03   -0.11533E-04   -0.17241E-05 17664   0.128E-02    0.154E-01
DAV:  36    -0.334756240068E+03    0.43348E-05   -0.12799E-05 16568   0.954E-03
   1 F= -.33475624E+03 E0= -.33472199E+03  d E =-.334756E+03  mag=    32.0000
