       N       E                     dE             d eps       ncg     rms          rms(c)
DAV:   1     0.666021344893E+04    0.66602E+04   -0.28426E+05 38360   0.152E+03
DAV:   2     0.357276067803E+03   -0.63029E+04   -0.59363E+04 38856   0.468E+02
DAV:   3    -0.385947413199E+03   -0.74322E+03   -0.72952E+03 40816   0.170E+02
DAV:   4    -0.417279348448E+03   -0.31332E+02   -0.30857E+02 50416   0.315E+01
DAV:   5    -0.419927786705E+03   -0.26484E+01   -0.26341E+01 66408   0.689E+00    0.605E+01
DAV:   6    -0.371022506803E+03    0.48905E+02   -0.25980E+02 43448   0.365E+01    0.371E+01
DAV:   7    -0.378952382959E+03   -0.79299E+01   -0.31538E+01 40144   0.151E+01    0.261E+01
DAV:   8    -0.381187149729E+03   -0.22348E+01   -0.36557E+00 46648   0.406E+00    0.149E+01
DAV:   9    -0.383365489196E+03   -0.21783E+01   -0.41217E+00 40992   0.381E+00    0.525E+00
DAV:  10    -0.385039405495E+03   -0.16739E+01   -0.64553E-01 45664   0.165E+00    0.357E+00
DAV:  11    -0.386945181243E+03   -0.19058E+01   -0.91079E-01 40800   0.152E+00    0.244E+00
DAV:  12    -0.388670072145E+03   -0.17249E+01   -0.10788E+00 42512   0.138E+00    0.152E+00
DAV:  13    -0.389471260982E+03   -0.80119E+00   -0.56440E-01 42176   0.989E-01    0.109E+00
DAV:  14    -0.389850471087E+03   -0.37921E+00   -0.33139E-01 41160   0.700E-01    0.626E-01
DAV:  15    -0.389917034786E+03   -0.66564E-01   -0.58574E-02 42272   0.416E-01    0.294E-01
DAV:  16    -0.389918173377E+03   -0.11386E-02   -0.48314E-03 44520   0.156E-01    0.139E-01
DAV:  17    -0.389917931902E+03    0.24148E-03   -0.10567E-03 49744   0.787E-02    0.933E-02
DAV:  18    -0.389917755330E+03    0.17657E-03   -0.21896E-04 40392   0.375E-02    0.513E-02
DAV:  19    -0.389917655204E+03    0.10013E-03   -0.88355E-05 36368   0.258E-02    0.263E-02
DAV:  20    -0.389917623318E+03    0.31886E-04   -0.61191E-05 35968   0.210E-02    0.118E-02
DAV:  21    -0.389917620208E+03    0.31099E-05   -0.12655E-05 30304   0.932E-03
   1 F= -.38991762E+03 E0= -.38991729E+03  d E =-.389918E+03  mag=    48.0001
