       N       E                     dE             d eps       ncg     rms          ort
DAV:   1     0.958399713037E+04    0.95840E+04   -0.30239E+05 24304   0.205E+03
DAV:   2     0.125696849795E+04   -0.83270E+04   -0.76040E+04 24304   0.557E+02
DAV:   3    -0.301511680749E+03   -0.15585E+04   -0.14495E+04 24304   0.253E+02
DAV:   4    -0.399188757143E+03   -0.97677E+02   -0.96623E+02 24304   0.635E+01
DAV:   5    -0.400763193136E+03   -0.15744E+01   -0.15582E+01 24304   0.821E+00
SDA:   6     0.220371510368E+02    0.42280E+03   -0.15582E+01 24304   0.387E+04 0.000E+00
CGA:   7    -0.655723313393E+02   -0.87609E+02   -0.14741E+03 24304   0.456E+04-0.160E+04
CGA:   8    -0.135519685361E+03   -0.69947E+02   -0.93964E+02 24304   0.307E+04 0.107E+04
CGA:   9    -0.110080191632E+03    0.25439E+02   -0.14077E+03 24304   0.470E+04-0.324E+04
CGA:  10    -0.140205781619E+03   -0.30126E+02   -0.15561E+03 24304   0.276E+04-0.248E+04
CGA:  11    -0.261703786113E+03   -0.12150E+03   -0.68606E+02 24304   0.832E+03-0.253E+04
CGA:  12    -0.248737466681E+03    0.12966E+02   -0.27882E+02 24304   0.194E+04-0.928E+03
CGA:  13    -0.172536463992E+03    0.76201E+02   -0.66487E+02 24304   0.529E+04-0.248E+04
CGA:  14    -0.151576181115E+03    0.20960E+02   -0.19375E+03 24304   0.329E+04-0.252E+04
CGA:  15    -0.222709158407E+03   -0.71133E+02   -0.27643E+02 24304   0.183E+04 0.216E+04
CGA:  16    -0.201533257546E+03    0.21176E+02   -0.45296E+02 24304   0.541E+04-0.437E+04
CGA:  17    -0.124211770376E+03    0.77321E+02   -0.22175E+03 24304   0.477E+04-0.265E+04
CGA:  18    -0.214213164496E+03   -0.90001E+02   -0.39060E+02 24304   0.209E+04 0.240E+04
CGA:  19    -0.230927444862E+03   -0.16714E+02   -0.44116E+02 24304   0.577E+04-0.609E+04
CGA:  20    -0.105336201974E+03    0.12559E+03   -0.24076E+03 24304   0.488E+04-0.214E+04
CGA:  21    -0.221468619753E+03   -0.11613E+03   -0.49376E+02 24304   0.518E+04 0.465E+04
CGA:  22    -0.110755786618E+03    0.11071E+03   -0.15327E+03 24304   0.588E+04-0.296E+04
CGA:  23    -0.925727207958E+02    0.18183E+02   -0.18573E+03 24304   0.457E+04-0.370E+04
CGA:  24    -0.280050232789E+03   -0.18748E+03   -0.85162E+02 24304   0.153E+04-0.269E+04
CGA:  25    -0.247273659052E+03    0.32777E+02   -0.37697E+02 24304   0.513E+04-0.241E+04
CGA:  26    -0.139354354636E+03    0.10792E+03   -0.16628E+03 24304   0.511E+04-0.269E+04
CGA:  27    -0.126078311196E+03    0.13276E+02   -0.12872E+03 24304   0.787E+04-0.692E+04
CGA:  28    -0.127191785425E+03   -0.11135E+01   -0.19406E+03 24304   0.620E+04-0.586E+04
CGA:  29    -0.974856514062E+02    0.29706E+02   -0.16111E+03 24304   0.839E+04-0.755E+04
CGA:  30    -0.129100591366E+03   -0.31615E+02   -0.19629E+03 24304   0.682E+04-0.737E+04
CGA:  31    -0.914826681895E+02    0.37618E+02   -0.17652E+03 24304   0.883E+04-0.787E+04
CGA:  32    -0.114824309160E+03   -0.23342E+02   -0.21305E+03 24304   0.746E+04-0.784E+04
CGA:  33    -0.993041155399E+02    0.15520E+02   -0.18718E+03 24304   0.914E+04-0.874E+04
CGA:  34    -0.113619485212E+03   -0.14315E+02   -0.21884E+03 24304   0.780E+04-0.808E+04
CGA:  35    -0.114997361944E+03   -0.13779E+01   -0.18645E+03 24304   0.916E+04-0.921E+04
CGA:  36    -0.123622526479E+03   -0.86252E+01   -0.21277E+03 24304   0.782E+04-0.801E+04
CGA:  37    -0.139128137584E+03   -0.15506E+02   -0.17528E+03 24304   0.893E+04-0.940E+04
CGA:  38    -0.143315742667E+03   -0.41876E+01   -0.19763E+03 24304   0.759E+04-0.771E+04
CGA:  39    -0.166019323175E+03   -0.22704E+02   -0.15905E+03 24304   0.852E+04-0.925E+04
CGA:  40    -0.172871082068E+03   -0.68518E+01   -0.17595E+03 24304   0.745E+04-0.766E+04
CGA:  41    -0.191707924715E+03   -0.18837E+02   -0.14705E+03 24304   0.778E+04-0.843E+04
CGA:  42    -0.206141951643E+03   -0.14434E+02   -0.14897E+03 24304   0.699E+04-0.750E+04
CGA:  43    -0.225951538501E+03   -0.19810E+02   -0.12778E+03 24304   0.631E+04-0.707E+04
CGA:  44    -0.245929225839E+03   -0.19978E+02   -0.10961E+03 24304   0.502E+04-0.586E+04
CGA:  45    -0.268292901596E+03   -0.22364E+02   -0.81049E+02 24304   0.363E+04-0.462E+04
CGA:  46    -0.282899760770E+03   -0.14607E+02   -0.54946E+02 24304   0.192E+04-0.251E+04
CGA:  47    -0.297657498439E+03   -0.14758E+02   -0.24754E+02 24304   0.686E+03-0.131E+04
CGA:  48    -0.301713494020E+03   -0.40560E+01   -0.75547E+01 24304   0.141E+03-0.270E+03
CGA:  49    -0.302944880041E+03   -0.12314E+01   -0.10049E+01 24304   0.106E+02 0.142E+02
CGA:  50    -0.303116162710E+03   -0.17128E+00   -0.17286E+00 24304   0.120E+02-0.832E-01
CGA:  51    -0.303972834678E+03   -0.85667E+00   -0.83916E+00 24304   0.804E+02 0.491E+00
CGA:  52    -0.305102198466E+03   -0.11294E+01   -0.70569E+00 24304   0.659E+02 0.200E+02
CGA:  53    -0.304892987982E+03    0.20921E+00   -0.51561E+00 24304   0.989E+02-0.139E+03
CGA:  54    -0.305598179168E+03   -0.70519E+00   -0.80953E+00 24304   0.912E+01-0.118E+02
CGA:  55    -0.305714227919E+03   -0.11605E+00   -0.12043E+00 24304   0.716E+01-0.193E+00
CGA:  56    -0.306017840719E+03   -0.30361E+00   -0.29681E+00 24304   0.194E+02 0.643E+00
CGA:  57    -0.306537890083E+03   -0.52005E+00   -0.51940E+00 24304   0.110E+02 0.166E+00
CGA:  58    -0.306742192791E+03   -0.20430E+00   -0.21399E+00 24304   0.391E+01-0.938E-01
CGA:  59    -0.306835577552E+03   -0.93385E-01   -0.94676E-01 24304   0.324E+01 0.129E-01
CGA:  60    -0.306939565923E+03   -0.10399E+00   -0.10435E+00 24304   0.449E+01 0.977E-01
CGA:  61    -0.307078123286E+03   -0.13856E+00   -0.13974E+00 24304   0.405E+01 0.134E+00
CGA:  62    -0.307169558685E+03   -0.91435E-01   -0.93615E-01 24304   0.191E+01 0.104E-01
CGA:  63    -0.307217085438E+03   -0.47527E-01   -0.48351E-01 24304   0.110E+01 0.221E-01
CGA:  64    -0.307256909582E+03   -0.39824E-01   -0.39631E-01 24304   0.119E+01 0.385E-01
CGA:  65    -0.307303092525E+03   -0.46183E-01   -0.45699E-01 24304   0.138E+01 0.684E-01
CGA:  66    -0.307347526224E+03   -0.44434E-01   -0.44574E-01 24304   0.107E+01 0.240E-01
CGA:  67    -0.307384556246E+03   -0.37030E-01   -0.36944E-01 24304   0.828E+00 0.414E-01
CGA:  68    -0.307413996486E+03   -0.29440E-01   -0.29402E-01 24304   0.721E+00 0.159E-01
CGA:  69    -0.307447333236E+03   -0.33337E-01   -0.32715E-01 24304   0.783E+00 0.407E-01
CGA:  70    -0.307479367053E+03   -0.32034E-01   -0.31926E-01 24304   0.761E+00 0.134E-01
CGA:  71    -0.307511836667E+03   -0.32470E-01   -0.31933E-01 24304   0.617E+00 0.485E-01
CGA:  72    -0.307539111525E+03   -0.27275E-01   -0.27161E-01 24304   0.586E+00 0.107E-01
CGA:  73    -0.307570587437E+03   -0.31476E-01   -0.30455E-01 24304   0.651E+00 0.494E-01
CGA:  74    -0.307599158523E+03   -0.28571E-01   -0.28587E-01 24304   0.512E+00-0.216E-02
CGA:  75    -0.307625618008E+03   -0.26459E-01   -0.25911E-01 24304   0.478E+00 0.282E-01
CGA:  76    -0.307646719858E+03   -0.21102E-01   -0.20995E-01 24304   0.369E+00 0.125E-01
CGA:  77    -0.307669386148E+03   -0.22666E-01   -0.22520E-01 24304   0.506E+00 0.597E-02
CGA:  78    -0.307700530490E+03   -0.31144E-01   -0.30727E-01 24304   0.590E+00 0.143E-01
CGA:  79    -0.307727397085E+03   -0.26867E-01   -0.26921E-01 24304   0.423E+00-0.578E-02
CGA:  80    -0.307747715681E+03   -0.20319E-01   -0.20468E-01 24304   0.356E+00-0.102E-01
CGA:  81    -0.307766881590E+03   -0.19166E-01   -0.18985E-01 24304   0.479E+00 0.899E-02
CGA:  82    -0.307797441746E+03   -0.30560E-01   -0.31590E-01 24304   0.599E+00-0.335E-01
CGA:  83    -0.307818644262E+03   -0.21203E-01   -0.21179E-01 24304   0.295E+00-0.238E-02
SDA:  84    -0.307840422139E+03   -0.21778E-01   -0.21559E-01 24304   0.433E+00 0.650E-02
CGA:  85    -0.307853327755E+03   -0.12906E-01   -0.12929E-01 24304   0.321E+00 0.211E-03
CGA:  86    -0.307887770107E+03   -0.34442E-01   -0.34800E-01 24304   0.113E+01-0.649E-02
CGA:  87    -0.307970906259E+03   -0.83136E-01   -0.90897E-01 24304   0.278E+01-0.177E+00
CGA:  88    -0.308040829979E+03   -0.69924E-01   -0.61560E-01 24304   0.115E+01 0.158E+00
CGA:  89    -0.308064731116E+03   -0.23901E-01   -0.23861E-01 24304   0.576E+00 0.174E-02
CGA:  90    -0.308087130860E+03   -0.22400E-01   -0.22524E-01 24304   0.994E+00 0.753E-02
CGA:  91    -0.308134048547E+03   -0.46918E-01   -0.46921E-01 24304   0.976E+00-0.484E-03
CGA:  92    -0.308153457299E+03   -0.19409E-01   -0.19392E-01 24304   0.346E+00 0.603E-03
CGA:  93    -0.308165568230E+03   -0.12111E-01   -0.12139E-01 24304   0.477E+00 0.924E-03
CGA:  94    -0.308191825283E+03   -0.26257E-01   -0.26108E-01 24304   0.116E+01 0.898E-02
CGA:  95    -0.308247445425E+03   -0.55620E-01   -0.56841E-01 24304   0.168E+01-0.158E+00
CGA:  96    -0.308275830722E+03   -0.28385E-01   -0.28082E-01 24304   0.112E+01 0.136E-01
CGA:  97    -0.308296558104E+03   -0.20727E-01   -0.21184E-01 24304   0.674E+00-0.173E-01
CGA:  98    -0.308312705862E+03   -0.16148E-01   -0.16365E-01 24304   0.743E+00-0.309E-02
CGA:  99    -0.308342172081E+03   -0.29466E-01   -0.29473E-01 24304   0.152E+01 0.369E-02
CGA: 100    -0.308388841833E+03   -0.46670E-01   -0.46011E-01 24304   0.123E+01-0.119E-01
CGA: 101    -0.308411312754E+03   -0.22471E-01   -0.21640E-01 24304   0.597E+00 0.313E-01
CGA: 102    -0.308424304586E+03   -0.12992E-01   -0.12822E-01 24304   0.527E+00 0.166E-02
CGA: 103    -0.308441437114E+03   -0.17133E-01   -0.17155E-01 24304   0.985E+00 0.416E-03
CGA: 104    -0.308475875180E+03   -0.34438E-01   -0.34090E-01 24304   0.154E+01-0.458E-01
CGA: 105    -0.308506734582E+03   -0.30859E-01   -0.29855E-01 24304   0.130E+01 0.314E-01
CGA: 106    -0.308529527904E+03   -0.22793E-01   -0.23353E-01 24304   0.901E+00-0.158E-01
CGA: 107    -0.308544317424E+03   -0.14790E-01   -0.15012E-01 24304   0.564E+00-0.477E-02
CGA: 108    -0.308555193732E+03   -0.10876E-01   -0.11003E-01 24304   0.515E+00-0.242E-02
CGA: 109    -0.308568485953E+03   -0.13292E-01   -0.13367E-01 24304   0.701E+00 0.166E-02
CGA: 110    -0.308589322818E+03   -0.20837E-01   -0.20863E-01 24304   0.107E+01 0.223E-02
CGA: 111    -0.308616389893E+03   -0.27067E-01   -0.26658E-01 24304   0.996E+00-0.624E-02
CGA: 112    -0.308631741638E+03   -0.15352E-01   -0.14967E-01 24304   0.463E+00 0.161E-01
CGA: 113    -0.308639253267E+03   -0.75116E-02   -0.74818E-02 24304   0.350E+00 0.115E-02
CGA: 114    -0.308648530982E+03   -0.92777E-02   -0.92679E-02 24304   0.590E+00-0.542E-03
SDA: 115    -0.308663200321E+03   -0.14669E-01   -0.14622E-01 24304   0.778E+00-0.193E-02
CGA: 116    -0.308686210954E+03   -0.23011E-01   -0.23024E-01 24304   0.330E+00 0.504E-02
CGA: 117    -0.308704668104E+03   -0.18457E-01   -0.18167E-01 24304   0.336E+00 0.112E-01
CGA: 118    -0.308742869242E+03   -0.38201E-01   -0.37723E-01 24304   0.878E+00 0.664E-02
CGA: 119    -0.308784730417E+03   -0.41861E-01   -0.41670E-01 24304   0.271E+00 0.125E-01
CGA: 120    -0.308793952506E+03   -0.92221E-02   -0.92216E-02 24304   0.182E+00-0.374E-04
CGA: 121    -0.308812781264E+03   -0.18829E-01   -0.18690E-01 24304   0.352E+00 0.218E-02
CGA: 122    -0.308832429793E+03   -0.19649E-01   -0.19650E-01 24304   0.174E+00-0.676E-04
CGA: 123    -0.308838461116E+03   -0.60313E-02   -0.60348E-02 24304   0.450E-01 0.205E-03
CGA: 124    -0.308840788697E+03   -0.23276E-02   -0.23289E-02 24304   0.613E-01-0.761E-04
CGA: 125    -0.308846314335E+03   -0.55256E-02   -0.55564E-02 24304   0.103E+00-0.673E-03
CGA: 126    -0.308851441290E+03   -0.51270E-02   -0.51298E-02 24304   0.551E-01-0.252E-03
CGA: 127    -0.308853552935E+03   -0.21116E-02   -0.21120E-02 24304   0.315E-01 0.158E-04
CGA: 128    -0.308857563765E+03   -0.40108E-02   -0.40758E-02 24304   0.706E-01-0.892E-03
CGA: 129    -0.308860385445E+03   -0.28217E-02   -0.28204E-02 24304   0.325E-01-0.132E-03
CGA: 130    -0.308861516812E+03   -0.11314E-02   -0.11298E-02 24304   0.171E-01-0.313E-04
CGA: 131    -0.308862960723E+03   -0.14439E-02   -0.14474E-02 24304   0.293E-01-0.900E-04
CGA: 132    -0.308865006569E+03   -0.20458E-02   -0.20588E-02 24304   0.327E-01-0.469E-03
CGA: 133    -0.308866271176E+03   -0.12646E-02   -0.12655E-02 24304   0.820E-02 0.666E-04
CGA: 134    -0.308866721637E+03   -0.45046E-03   -0.45059E-03 24304   0.144E-01-0.135E-04
CGA: 135    -0.308868938834E+03   -0.22172E-02   -0.22723E-02 24304   0.274E-01-0.675E-03
CGA: 136    -0.308869570569E+03   -0.63174E-03   -0.62754E-03 24304   0.502E-02 0.124E-03
CGA: 137    -0.308869914416E+03   -0.34385E-03   -0.34338E-03 24304   0.121E-01 0.238E-04
CGA: 138    -0.308871094501E+03   -0.11801E-02   -0.11962E-02 24304   0.168E-01-0.363E-03
CGA: 139    -0.308871710672E+03   -0.61617E-03   -0.61252E-03 24304   0.104E-01 0.240E-04
CGA: 140    -0.308872057409E+03   -0.34674E-03   -0.34746E-03 24304   0.399E-02 0.521E-06
CGA: 141    -0.308872367571E+03   -0.31016E-03   -0.31051E-03 24304   0.116E-01-0.168E-04
CGA: 142    -0.308873216215E+03   -0.84864E-03   -0.85439E-03 24304   0.111E-01-0.259E-03
CGA: 143    -0.308873511244E+03   -0.29503E-03   -0.29499E-03 24304   0.401E-02-0.114E-04
CGA: 144    -0.308873720085E+03   -0.20884E-03   -0.20895E-03 24304   0.510E-02 0.217E-04
CGA: 145    -0.308874069241E+03   -0.34916E-03   -0.34885E-03 24304   0.110E-01 0.209E-04
SDA: 146    -0.308874652069E+03   -0.58283E-03   -0.58226E-03 24304   0.586E-02-0.663E-04
CGA: 147    -0.308874813042E+03   -0.16097E-03   -0.16091E-03 24304   0.261E-02-0.630E-05
CGA: 148    -0.308875229138E+03   -0.41610E-03   -0.42008E-03 24304   0.518E-02-0.389E-04
CGA: 149    -0.308875433941E+03   -0.20480E-03   -0.20482E-03 24304   0.278E-02-0.121E-04
CGA: 150    -0.308875628347E+03   -0.19441E-03   -0.19412E-03 24304   0.356E-02 0.173E-04
CGA: 151    -0.308875904575E+03   -0.27623E-03   -0.27549E-03 24304   0.657E-02 0.341E-04
CGA: 152    -0.308876243453E+03   -0.33888E-03   -0.33963E-03 24304   0.181E-02 0.478E-04
CGA: 153    -0.308876312960E+03   -0.69507E-04   -0.69557E-04 24304   0.145E-02-0.628E-06
CGA: 154    -0.308876467046E+03   -0.15409E-03   -0.15539E-03 24304   0.327E-02-0.273E-04
CGA: 155    -0.308876694152E+03   -0.22711E-03   -0.22738E-03 24304   0.198E-02-0.306E-04
CGA: 156    -0.308876748767E+03   -0.54616E-04   -0.54194E-04 24304   0.739E-03-0.386E-05
CGA: 157    -0.308876845698E+03   -0.96931E-04   -0.97304E-04 24304   0.266E-02-0.610E-05
CGA: 158    -0.308877049908E+03   -0.20421E-03   -0.20429E-03 24304   0.166E-02-0.410E-05
CGA: 159    -0.308877099612E+03   -0.49704E-04   -0.49645E-04 24304   0.969E-03-0.329E-06
CGA: 160    -0.308877202707E+03   -0.10310E-03   -0.10323E-03 24304   0.299E-02-0.428E-05
CGA: 161    -0.308877390480E+03   -0.18777E-03   -0.18763E-03 24304   0.307E-02-0.569E-04
CGA: 162    -0.308877555240E+03   -0.16476E-03   -0.16508E-03 24304   0.105E-02 0.580E-05
CGA: 163    -0.308877597414E+03   -0.42174E-04   -0.42127E-04 24304   0.912E-03 0.233E-05
CGA: 164    -0.308877740262E+03   -0.14285E-03   -0.14057E-03 24304   0.197E-02 0.236E-04
CGA: 165    -0.308877797372E+03   -0.57110E-04   -0.57641E-04 24304   0.535E-03 0.400E-05
CGA: 166    -0.308877825983E+03   -0.28611E-04   -0.28611E-04 24304   0.574E-03-0.284E-07
CGA: 167    -0.308877881591E+03   -0.55608E-04   -0.55728E-04 24304   0.125E-02-0.448E-05
CGA: 168    -0.308877933102E+03   -0.51511E-04   -0.51586E-04 24304   0.404E-03-0.422E-05
CGA: 169    -0.308877949644E+03   -0.16542E-04   -0.16575E-04 24304   0.489E-03-0.249E-07
CGA: 170    -0.308878023370E+03   -0.73726E-04   -0.73527E-04 24304   0.155E-02 0.972E-06
CGA: 171    -0.308878092761E+03   -0.69391E-04   -0.70092E-04 24304   0.715E-03 0.842E-05
CGA: 172    -0.308878121815E+03   -0.29054E-04   -0.29097E-04 24304   0.511E-03 0.882E-06
CGA: 173    -0.308878159606E+03   -0.37792E-04   -0.37835E-04 24304   0.847E-03-0.518E-05
CGA: 174    -0.308878234903E+03   -0.75296E-04   -0.75544E-04 24304   0.793E-03-0.113E-04
CGA: 175    -0.308878257314E+03   -0.22411E-04   -0.22280E-04 24304   0.173E-03-0.373E-05
CGA: 176    -0.308878273051E+03   -0.15737E-04   -0.15710E-04 24304   0.467E-03 0.719E-06
SDA: 177    -0.308878308248E+03   -0.35197E-04   -0.35141E-04 24304   0.365E-03 0.588E-05
CGA: 178    -0.308878317744E+03   -0.94959E-05   -0.94811E-05 24304   0.128E-03-0.293E-06
   1 F= -.30887832E+03 E0= -.30884643E+03  d E =-.308878E+03  mag=    47.8537
       N       E                     dE             d eps       ncg     rms          ort
SDA:   1    -0.308955252162E+03   -0.76944E-01    0.00000E+00 24304   0.901E-01 0.000E+00
CGA:   2    -0.308956975469E+03   -0.17233E-02   -0.17282E-02 24304   0.205E-01-0.192E-03
CGA:   3    -0.308958319716E+03   -0.13442E-02   -0.13447E-02 24304   0.233E-01-0.502E-04
CGA:   4    -0.308960106813E+03   -0.17871E-02   -0.17870E-02 24304   0.350E-01 0.930E-05
CGA:   5    -0.308961321591E+03   -0.12148E-02   -0.12157E-02 24304   0.569E-02-0.474E-05
CGA:   6    -0.308961477831E+03   -0.15624E-03   -0.15603E-03 24304   0.277E-02-0.499E-05
CGA:   7    -0.308961702075E+03   -0.22424E-03   -0.22465E-03 24304   0.362E-02-0.189E-04
CGA:   8    -0.308961858461E+03   -0.15639E-03   -0.15610E-03 24304   0.127E-02-0.157E-04
CGA:   9    -0.308961897892E+03   -0.39430E-04   -0.39375E-04 24304   0.271E-03-0.131E-05
CGA:  10    -0.308961918321E+03   -0.20429E-04   -0.20329E-04 24304   0.499E-03 0.596E-05
CGA:  11    -0.308961945616E+03   -0.27295E-04   -0.27349E-04 24304   0.227E-03 0.101E-04
CGA:  12    -0.308961953339E+03   -0.77231E-05   -0.77676E-05 24304   0.108E-03 0.179E-05
   2 F= -.30896195E+03 E0= -.30893003E+03  d E =-.836356E-01  mag=    47.8536
       N       E                     dE             d eps       ncg     rms          ort
SDA:   1    -0.281014879742E+03    0.27947E+02    0.00000E+00 24304   0.557E+03 0.000E+00
CGA:   2    -0.289727309415E+03   -0.87124E+01   -0.15278E+02 24304   0.146E+03-0.404E+02
CGA:   3    -0.295710049863E+03   -0.59827E+01   -0.59770E+01 24304   0.131E+03-0.395E+00
CGA:   4    -0.303644990245E+03   -0.79349E+01   -0.81142E+01 24304   0.171E+03-0.147E+02
CGA:   5    -0.309223884898E+03   -0.55789E+01   -0.52971E+01 24304   0.468E+02 0.611E+00
CGA:   6    -0.310368651992E+03   -0.11448E+01   -0.10733E+01 24304   0.135E+02 0.203E+01
CGA:   7    -0.311258570717E+03   -0.88992E+00   -0.88850E+00 24304   0.294E+02 0.938E-01
CGA:   8    -0.312246217682E+03   -0.98765E+00   -0.99260E+00 24304   0.156E+02-0.246E-01
CGA:   9    -0.312566274945E+03   -0.32006E+00   -0.33148E+00 24304   0.274E+01-0.373E+00
CGA:  10    -0.312649535609E+03   -0.83261E-01   -0.83276E-01 24304   0.284E+01-0.277E-02
CGA:  11    -0.312813403851E+03   -0.16387E+00   -0.16294E+00 24304   0.301E+01 0.761E-01
CGA:  12    -0.312911417813E+03   -0.98014E-01   -0.98938E-01 24304   0.745E+00 0.155E-02
CGA:  13    -0.312932855504E+03   -0.21438E-01   -0.21833E-01 24304   0.516E+00-0.252E-02
CGA:  14    -0.312962067960E+03   -0.29212E-01   -0.29080E-01 24304   0.816E+00 0.103E-01
CGA:  15    -0.312997681187E+03   -0.35613E-01   -0.35779E-01 24304   0.423E+00 0.118E-01
CGA:  16    -0.313011672573E+03   -0.13991E-01   -0.14076E-01 24304   0.179E+00 0.492E-03
CGA:  17    -0.313024136442E+03   -0.12464E-01   -0.12377E-01 24304   0.275E+00 0.323E-02
CGA:  18    -0.313037153565E+03   -0.13017E-01   -0.13021E-01 24304   0.187E+00 0.854E-03
CGA:  19    -0.313042810182E+03   -0.56566E-02   -0.57090E-02 24304   0.693E-01-0.130E-03
CGA:  20    -0.313046517525E+03   -0.37073E-02   -0.37046E-02 24304   0.860E-01 0.304E-03
CGA:  21    -0.313052598832E+03   -0.60813E-02   -0.60357E-02 24304   0.964E-01 0.170E-02
CGA:  22    -0.313056213652E+03   -0.36148E-02   -0.36206E-02 24304   0.284E-01 0.125E-03
CGA:  23    -0.313057293123E+03   -0.10795E-02   -0.10812E-02 24304   0.189E-01 0.447E-04
CGA:  24    -0.313058537813E+03   -0.12447E-02   -0.12425E-02 24304   0.285E-01 0.975E-04
CGA:  25    -0.313060090814E+03   -0.15530E-02   -0.15525E-02 24304   0.166E-01 0.596E-04
CGA:  26    -0.313060683455E+03   -0.59264E-03   -0.59348E-03 24304   0.842E-02 0.183E-04
CGA:  27    -0.313061143805E+03   -0.46035E-03   -0.46007E-03 24304   0.956E-02 0.344E-04
CGA:  28    -0.313061709310E+03   -0.56550E-03   -0.56594E-03 24304   0.650E-02-0.187E-04
CGA:  29    -0.313061965426E+03   -0.25612E-03   -0.25641E-03 24304   0.344E-02 0.101E-04
CGA:  30    -0.313062145569E+03   -0.18014E-03   -0.18018E-03 24304   0.451E-02-0.964E-05
CGA:  31    -0.313062427602E+03   -0.28203E-03   -0.28232E-03 24304   0.483E-02-0.210E-04
SDA:  32    -0.313062627977E+03   -0.20038E-03   -0.20028E-03 24304   0.186E-02-0.161E-04
CGA:  33    -0.313062673852E+03   -0.45875E-04   -0.45932E-04 24304   0.756E-03 0.972E-06
CGA:  34    -0.313062806345E+03   -0.13249E-03   -0.13102E-03 24304   0.364E-02 0.111E-04
CGA:  35    -0.313062935458E+03   -0.12911E-03   -0.12927E-03 24304   0.940E-03 0.714E-05
CGA:  36    -0.313062991299E+03   -0.55841E-04   -0.55873E-04 24304   0.136E-02-0.572E-05
CGA:  37    -0.313063075292E+03   -0.83993E-04   -0.84140E-04 24304   0.178E-02-0.177E-04
CGA:  38    -0.313063171341E+03   -0.96049E-04   -0.96065E-04 24304   0.103E-02-0.214E-04
CGA:  39    -0.313063206672E+03   -0.35331E-04   -0.35211E-04 24304   0.482E-03-0.527E-05
CGA:  40    -0.313063264287E+03   -0.57615E-04   -0.57211E-04 24304   0.115E-02 0.568E-05
CGA:  41    -0.313063311630E+03   -0.47343E-04   -0.47393E-04 24304   0.628E-03 0.375E-05
CGA:  42    -0.313063337120E+03   -0.25491E-04   -0.25491E-04 24304   0.331E-03-0.454E-07
CGA:  43    -0.313063360893E+03   -0.23773E-04   -0.23844E-04 24304   0.700E-03-0.462E-05
CGA:  44    -0.313063419104E+03   -0.58211E-04   -0.58704E-04 24304   0.453E-03-0.168E-04
CGA:  45    -0.313063432343E+03   -0.13239E-04   -0.13169E-04 24304   0.203E-03-0.318E-05
CGA:  46    -0.313063446605E+03   -0.14261E-04   -0.14274E-04 24304   0.406E-03-0.119E-05
CGA:  47    -0.313063471668E+03   -0.25063E-04   -0.25061E-04 24304   0.426E-03 0.198E-06
CGA:  48    -0.313063492380E+03   -0.20712E-04   -0.20735E-04 24304   0.102E-03 0.249E-05
CGA:  49    -0.313063498221E+03   -0.58418E-05   -0.58411E-05 24304   0.158E-03 0.727E-06
CGA:  50    -0.313063512326E+03   -0.14105E-04   -0.14019E-04 24304   0.246E-03 0.246E-05
CGA:  51    -0.313063520414E+03   -0.80876E-05   -0.81376E-05 24304   0.411E-04 0.165E-05
   3 F= -.31306352E+03 E0= -.31303119E+03  d E =-.410157E+01  mag=    47.8475
       N       E                     dE             d eps       ncg     rms          ort
SDA:   1    -0.156013904806E+03    0.15705E+03    0.00000E+00 24304   0.215E+04 0.000E+00
CGA:   2    -0.219525739055E+03   -0.63512E+02   -0.65212E+02 24304   0.103E+04-0.427E+03
CGA:   3    -0.256432943560E+03   -0.36907E+02   -0.29421E+02 24304   0.498E+03 0.378E+02
CGA:   4    -0.271504100884E+03   -0.15071E+02   -0.14666E+02 24304   0.497E+03-0.262E+02
CGA:   5    -0.282695372235E+03   -0.11191E+02   -0.11615E+02 24304   0.554E+03-0.501E+02
CGA:   6    -0.291885812471E+03   -0.91904E+01   -0.11299E+02 24304   0.624E+03-0.870E+02
CGA:   7    -0.296561374169E+03   -0.46756E+01   -0.77409E+01 24304   0.464E+03-0.231E+03
CGA:   8    -0.300638991677E+03   -0.40776E+01   -0.39174E+01 24304   0.351E+03 0.409E+01
CGA:   9    -0.302816867222E+03   -0.21779E+01   -0.43474E+01 24304   0.329E+03-0.177E+03
CGA:  10    -0.305478624598E+03   -0.26618E+01   -0.46901E+01 24304   0.149E+03-0.127E+03
CGA:  11    -0.307064769905E+03   -0.15861E+01   -0.16594E+01 24304   0.918E+02-0.499E+01
CGA:  12    -0.308907680157E+03   -0.18429E+01   -0.17127E+01 24304   0.484E+02 0.299E+01
CGA:  13    -0.310095516859E+03   -0.11878E+01   -0.12056E+01 24304   0.609E+02-0.445E+00
CGA:  14    -0.311648110374E+03   -0.15526E+01   -0.15896E+01 24304   0.547E+02-0.338E+00
CGA:  15    -0.312562952118E+03   -0.91484E+00   -0.91665E+00 24304   0.280E+02-0.552E+00
CGA:  16    -0.313009212976E+03   -0.44626E+00   -0.45480E+00 24304   0.176E+02-0.483E+00
CGA:  17    -0.313601252754E+03   -0.59204E+00   -0.59467E+00 24304   0.306E+02 0.265E+00
CGA:  18    -0.314548332160E+03   -0.94708E+00   -0.96656E+00 24304   0.269E+02 0.764E+00
CGA:  19    -0.315027916467E+03   -0.47958E+00   -0.52534E+00 24304   0.117E+02-0.123E+01
CGA:  20    -0.315226523042E+03   -0.19861E+00   -0.20756E+00 24304   0.506E+01-0.275E+00
CGA:  21    -0.315422188975E+03   -0.19567E+00   -0.19446E+00 24304   0.448E+01 0.182E+00
CGA:  22    -0.315655809014E+03   -0.23362E+00   -0.22931E+00 24304   0.348E+01 0.234E+00
CGA:  23    -0.315771376555E+03   -0.11557E+00   -0.11652E+00 24304   0.229E+01 0.708E-01
CGA:  24    -0.315840896898E+03   -0.69520E-01   -0.70276E-01 24304   0.176E+01 0.333E-01
CGA:  25    -0.315918365658E+03   -0.77469E-01   -0.76818E-01 24304   0.157E+01 0.575E-01
CGA:  26    -0.315981999935E+03   -0.63634E-01   -0.63395E-01 24304   0.127E+01 0.437E-01
CGA:  27    -0.316023656434E+03   -0.41656E-01   -0.41883E-01 24304   0.855E+00 0.170E-01
CGA:  28    -0.316061927104E+03   -0.38271E-01   -0.38179E-01 24304   0.688E+00 0.694E-02
CGA:  29    -0.316097322928E+03   -0.35396E-01   -0.35114E-01 24304   0.618E+00 0.150E-01
CGA:  30    -0.316123497481E+03   -0.26175E-01   -0.26103E-01 24304   0.492E+00 0.102E-01
CGA:  31    -0.316145988965E+03   -0.22491E-01   -0.22444E-01 24304   0.423E+00 0.414E-02
CGA:  32    -0.316168766450E+03   -0.22777E-01   -0.22672E-01 24304   0.343E+00 0.537E-02
CGA:  33    -0.316185938191E+03   -0.17172E-01   -0.17172E-01 24304   0.254E+00 0.128E-03
CGA:  34    -0.316199021636E+03   -0.13083E-01   -0.13033E-01 24304   0.239E+00 0.318E-02
CGA:  35    -0.316210900369E+03   -0.11879E-01   -0.11905E-01 24304   0.244E+00-0.171E-02
CGA:  36    -0.316222995453E+03   -0.12095E-01   -0.12055E-01 24304   0.216E+00 0.303E-02
CGA:  37    -0.316233827709E+03   -0.10832E-01   -0.10828E-01 24304   0.174E+00 0.503E-03
CGA:  38    -0.316244897258E+03   -0.11070E-01   -0.11087E-01 24304   0.195E+00-0.631E-03
CGA:  39    -0.316255328369E+03   -0.10431E-01   -0.10468E-01 24304   0.163E+00-0.220E-02
SDA:  40    -0.316262410507E+03   -0.70821E-02   -0.70793E-02 24304   0.122E+00 0.134E-02
CGA:  41    -0.316264933442E+03   -0.25229E-02   -0.25262E-02 24304   0.513E-01-0.107E-03
CGA:  42    -0.316280873894E+03   -0.15940E-01   -0.20234E-02 24304   0.187E+00 0.803E-02
CGA:  43    -0.316287478421E+03   -0.66045E-02   -0.66757E-02 24304   0.482E-01-0.172E-02
CGA:  44    -0.316291982031E+03   -0.45036E-02   -0.45187E-02 24304   0.143E+00-0.623E-03
CGA:  45    -0.316304076547E+03   -0.12095E-01   -0.12367E-01 24304   0.110E+00-0.132E-01
CGA:  46    -0.316306543564E+03   -0.24670E-02   -0.24326E-02 24304   0.285E-01 0.115E-02
CGA:  47    -0.316308404549E+03   -0.18610E-02   -0.18612E-02 24304   0.629E-01 0.764E-05
CGA:  48    -0.316312994070E+03   -0.45895E-02   -0.45898E-02 24304   0.683E-01-0.455E-03
CGA:  49    -0.316315641619E+03   -0.26475E-02   -0.25940E-02 24304   0.289E-01 0.700E-03
CGA:  50    -0.316316700045E+03   -0.10584E-02   -0.10689E-02 24304   0.247E-01-0.983E-04
CGA:  51    -0.316318461418E+03   -0.17614E-02   -0.17606E-02 24304   0.480E-01 0.212E-03
CGA:  52    -0.316320865624E+03   -0.24042E-02   -0.23487E-02 24304   0.295E-01-0.672E-04
CGA:  53    -0.316321926689E+03   -0.10611E-02   -0.10736E-02 24304   0.200E-01-0.924E-04
CGA:  54    -0.316322964236E+03   -0.10375E-02   -0.10420E-02 24304   0.270E-01 0.844E-04
CGA:  55    -0.316324831165E+03   -0.18669E-02   -0.18709E-02 24304   0.436E-01-0.713E-03
CGA:  56    -0.316326331042E+03   -0.14999E-02   -0.14683E-02 24304   0.219E-01 0.500E-03
CGA:  57    -0.316327113558E+03   -0.78252E-03   -0.78997E-03 24304   0.175E-01-0.524E-04
CGA:  58    -0.316328302494E+03   -0.11889E-02   -0.11896E-02 24304   0.441E-01-0.669E-04
CGA:  59    -0.316330118439E+03   -0.18159E-02   -0.17318E-02 24304   0.279E-01 0.385E-03
CGA:  60    -0.316330876043E+03   -0.75760E-03   -0.76235E-03 24304   0.194E-01-0.446E-04
CGA:  61    -0.316331670020E+03   -0.79398E-03   -0.80063E-03 24304   0.258E-01 0.492E-04
CGA:  62    -0.316333010590E+03   -0.13406E-02   -0.13370E-02 24304   0.450E-01-0.121E-03
CGA:  63    -0.316334733202E+03   -0.17226E-02   -0.16398E-02 24304   0.462E-01 0.531E-03
CGA:  64    -0.316335896018E+03   -0.11628E-02   -0.11448E-02 24304   0.290E-01 0.610E-03
CGA:  65    -0.316336723671E+03   -0.82765E-03   -0.84241E-03 24304   0.331E-01-0.178E-03
CGA:  66    -0.316338269518E+03   -0.15458E-02   -0.15539E-02 24304   0.590E-01 0.421E-03
CGA:  67    -0.316340053831E+03   -0.17843E-02   -0.16998E-02 24304   0.443E-01 0.156E-02
CGA:  68    -0.316341160363E+03   -0.11065E-02   -0.10916E-02 24304   0.334E-01 0.474E-03
CGA:  69    -0.316342184702E+03   -0.10243E-02   -0.10326E-02 24304   0.444E-01 0.108E-04
CGA:  70    -0.316343865035E+03   -0.16803E-02   -0.16744E-02 24304   0.663E-01 0.514E-04
SDA:  71    -0.316345532353E+03   -0.16673E-02   -0.15903E-02 24304   0.525E-01 0.198E-02
CGA:  72    -0.316347673857E+03   -0.21415E-02   -0.21429E-02 24304   0.553E-01 0.634E-04
CGA:  73    -0.316353952264E+03   -0.62784E-02   -0.63213E-02 24304   0.159E+00-0.757E-03
CGA:  74    -0.316364711587E+03   -0.10759E-01   -0.10657E-01 24304   0.154E+00 0.450E-02
CGA:  75    -0.316370073253E+03   -0.53617E-02   -0.53624E-02 24304   0.423E-01 0.108E-03
CGA:  76    -0.316371805454E+03   -0.17322E-02   -0.17375E-02 24304   0.358E-01 0.121E-03
CGA:  77    -0.316374903204E+03   -0.30977E-02   -0.31012E-02 24304   0.609E-01-0.135E-03
CGA:  78    -0.316378974404E+03   -0.40712E-02   -0.41556E-02 24304   0.643E-01-0.417E-02
CGA:  79    -0.316381724783E+03   -0.27504E-02   -0.27493E-02 24304   0.412E-01-0.114E-05
CGA:  80    -0.316384694588E+03   -0.29698E-02   -0.28835E-02 24304   0.851E-01 0.370E-02
CGA:  81    -0.316389913985E+03   -0.52194E-02   -0.10934E-01 24304   0.423E+00-0.857E-01
CGA:  82    -0.316398969577E+03   -0.90556E-02   -0.90186E-02 24304   0.606E-01 0.118E-02
CGA:  83    -0.316401093754E+03   -0.21242E-02   -0.21251E-02 24304   0.482E-01-0.154E-04
CGA:  84    -0.316406447744E+03   -0.53540E-02   -0.53657E-02 24304   0.991E-01-0.209E-03
CGA:  85    -0.316413839873E+03   -0.73921E-02   -0.73765E-02 24304   0.784E-01 0.646E-03
CGA:  86    -0.316417245148E+03   -0.34053E-02   -0.34089E-02 24304   0.530E-01 0.887E-04
CGA:  87    -0.316427522469E+03   -0.10277E-01   -0.96487E-02 24304   0.310E+00 0.420E-02
CGA:  88    -0.316449086511E+03   -0.21564E-01   -0.21777E-01 24304   0.571E+00-0.770E-01
CGA:  89    -0.316457961496E+03   -0.88750E-02   -0.88717E-02 24304   0.508E+00 0.135E-01
CGA:  90    -0.316466983156E+03   -0.90217E-02   -0.77038E-02 24304   0.270E+00 0.712E-01
CGA:  91    -0.316473733799E+03   -0.67506E-02   -0.64407E-02 24304   0.331E+00 0.760E-02
CGA:  92    -0.316481674877E+03   -0.79411E-02   -0.79538E-02 24304   0.519E+00-0.871E-03
CGA:  93    -0.316491591312E+03   -0.99164E-02   -0.96004E-02 24304   0.550E+00 0.131E-01
CGA:  94    -0.316500286300E+03   -0.86950E-02   -0.88124E-02 24304   0.404E+00-0.108E-01
CGA:  95    -0.316505555933E+03   -0.52696E-02   -0.52554E-02 24304   0.253E+00 0.128E-02
CGA:  96    -0.316509216112E+03   -0.36602E-02   -0.36548E-02 24304   0.207E+00 0.336E-03
CGA:  97    -0.316513064666E+03   -0.38486E-02   -0.38952E-02 24304   0.270E+00-0.169E-02
CGA:  98    -0.316518763622E+03   -0.56990E-02   -0.58322E-02 24304   0.393E+00-0.356E-02
CGA:  99    -0.316526646040E+03   -0.78824E-02   -0.79751E-02 24304   0.427E+00-0.353E-02
CGA: 100    -0.316533922201E+03   -0.72762E-02   -0.72726E-02 24304   0.345E+00-0.753E-03
CGA: 101    -0.316539502258E+03   -0.55801E-02   -0.55813E-02 24304   0.258E+00-0.217E-03
CGA: 102    -0.316543687726E+03   -0.41855E-02   -0.42270E-02 24304   0.198E+00-0.170E-02
CGA: 103    -0.316547322240E+03   -0.36345E-02   -0.36746E-02 24304   0.211E+00-0.123E-02
CGA: 104    -0.316552247646E+03   -0.49254E-02   -0.49632E-02 24304   0.293E+00-0.466E-03
CGA: 105    -0.316558157762E+03   -0.59101E-02   -0.59714E-02 24304   0.259E+00-0.163E-02
CGA: 106    -0.316562632711E+03   -0.44749E-02   -0.45257E-02 24304   0.205E+00-0.180E-02
CGA: 107    -0.316566958755E+03   -0.43260E-02   -0.43492E-02 24304   0.216E+00-0.413E-03
CGA: 108    -0.316571233162E+03   -0.42744E-02   -0.42947E-02 24304   0.174E+00-0.494E-03
CGA: 109    -0.316574565023E+03   -0.33319E-02   -0.33557E-02 24304   0.150E+00-0.622E-03
CGA: 110    -0.316577898038E+03   -0.33330E-02   -0.33463E-02 24304   0.141E+00-0.166E-03
CGA: 111    -0.316580681623E+03   -0.27836E-02   -0.27828E-02 24304   0.110E+00-0.136E-03
SDA: 112    -0.316583343345E+03   -0.26617E-02   -0.26598E-02 24304   0.142E+00-0.113E-03
CGA: 113    -0.316589847435E+03   -0.65041E-02   -0.64920E-02 24304   0.149E+00 0.729E-03
CGA: 114    -0.316597413212E+03   -0.75658E-02   -0.75663E-02 24304   0.125E+00-0.251E-04
CGA: 115    -0.316607968132E+03   -0.10555E-01   -0.10457E-01 24304   0.187E+00 0.212E-02
CGA: 116    -0.316618103206E+03   -0.10135E-01   -0.10123E-01 24304   0.128E+00 0.586E-03
CGA: 117    -0.316624877047E+03   -0.67738E-02   -0.67732E-02 24304   0.814E-01 0.308E-04
CGA: 118    -0.316628032690E+03   -0.31556E-02   -0.31555E-02 24304   0.499E-01 0.715E-04
CGA: 119    -0.316631658941E+03   -0.36263E-02   -0.36291E-02 24304   0.581E-01-0.809E-04
CGA: 120    -0.316634530960E+03   -0.28720E-02   -0.28769E-02 24304   0.233E-01-0.356E-03
CGA: 121    -0.316635547271E+03   -0.10163E-02   -0.10162E-02 24304   0.138E-01 0.173E-04
CGA: 122    -0.316636441196E+03   -0.89393E-03   -0.89304E-03 24304   0.213E-01 0.362E-04
CGA: 123    -0.316638161398E+03   -0.17202E-02   -0.17220E-02 24304   0.191E-01-0.472E-04
CGA: 124    -0.316638862692E+03   -0.70129E-03   -0.70129E-03 24304   0.111E-01 0.139E-04
CGA: 125    -0.316639589907E+03   -0.72721E-03   -0.72808E-03 24304   0.137E-01-0.344E-04
CGA: 126    -0.316640429292E+03   -0.83939E-03   -0.84101E-03 24304   0.113E-01-0.811E-04
CGA: 127    -0.316640916379E+03   -0.48709E-03   -0.48702E-03 24304   0.746E-02-0.275E-04
CGA: 128    -0.316641392731E+03   -0.47635E-03   -0.47674E-03 24304   0.341E-02-0.216E-04
CGA: 129    -0.316641553145E+03   -0.16041E-03   -0.16042E-03 24304   0.396E-02-0.425E-05
CGA: 130    -0.316641877657E+03   -0.32451E-03   -0.32360E-03 24304   0.464E-02 0.242E-04
CGA: 131    -0.316642200380E+03   -0.32272E-03   -0.32201E-03 24304   0.199E-02 0.320E-04
CGA: 132    -0.316642272929E+03   -0.72549E-04   -0.72571E-04 24304   0.106E-02 0.245E-05
CGA: 133    -0.316642428477E+03   -0.15555E-03   -0.15539E-03 24304   0.281E-02 0.170E-05
CGA: 134    -0.316642542308E+03   -0.11383E-03   -0.11382E-03 24304   0.173E-02-0.353E-05
CGA: 135    -0.316642631785E+03   -0.89477E-04   -0.89475E-04 24304   0.142E-02-0.246E-05
CGA: 136    -0.316642702588E+03   -0.70803E-04   -0.70809E-04 24304   0.671E-03 0.212E-05
CGA: 137    -0.316642755567E+03   -0.52979E-04   -0.52811E-04 24304   0.142E-02 0.589E-05
CGA: 138    -0.316642828133E+03   -0.72566E-04   -0.72603E-04 24304   0.911E-03 0.110E-04
CGA: 139    -0.316642883432E+03   -0.55299E-04   -0.55238E-04 24304   0.544E-03 0.831E-05
CGA: 140    -0.316642909056E+03   -0.25624E-04   -0.25637E-04 24304   0.423E-03 0.110E-05
CGA: 141    -0.316642983635E+03   -0.74579E-04   -0.74925E-04 24304   0.124E-02-0.326E-05
CGA: 142    -0.316643026958E+03   -0.43323E-04   -0.43338E-04 24304   0.355E-03-0.121E-05
SDA: 143    -0.316643046129E+03   -0.19171E-04   -0.19172E-04 24304   0.459E-03 0.141E-06
CGA: 144    -0.316643056944E+03   -0.10815E-04   -0.10848E-04 24304   0.167E-03 0.541E-06
CGA: 145    -0.316643072866E+03   -0.15922E-04   -0.15834E-04 24304   0.392E-03 0.207E-05
CGA: 146    -0.316643095815E+03   -0.22949E-04   -0.22951E-04 24304   0.250E-03 0.291E-05
CGA: 147    -0.316643108869E+03   -0.13054E-04   -0.13057E-04 24304   0.206E-03 0.197E-06
CGA: 148    -0.316643122412E+03   -0.13543E-04   -0.13565E-04 24304   0.267E-03-0.316E-05
CGA: 149    -0.316643142611E+03   -0.20199E-04   -0.20338E-04 24304   0.384E-03-0.754E-05
CGA: 150    -0.316643162495E+03   -0.19884E-04   -0.19841E-04 24304   0.271E-03-0.707E-05
CGA: 151    -0.316643178675E+03   -0.16180E-04   -0.16185E-04 24304   0.171E-03-0.331E-05
CGA: 152    -0.316643189855E+03   -0.11180E-04   -0.11170E-04 24304   0.249E-03 0.128E-05
CGA: 153    -0.316643204820E+03   -0.14965E-04   -0.14965E-04 24304   0.251E-03 0.378E-05
CGA: 154    -0.316643219455E+03   -0.14635E-04   -0.14646E-04 24304   0.126E-03 0.444E-05
CGA: 155    -0.316643224899E+03   -0.54433E-05   -0.54468E-05 24304   0.110E-03 0.143E-06
   4 F= -.31664322E+03 E0= -.31661705E+03  d E =-.357970E+01  mag=    44.9934
       N       E                     dE             d eps       ncg     rms          ort
SDA:   1    -0.310906144308E+03    0.57371E+01    0.00000E+00 24304   0.278E+02 0.000E+00
CGA:   2    -0.311907202947E+03   -0.10011E+01   -0.10367E+01 24304   0.286E+02-0.155E+00
CGA:   3    -0.315305911552E+03   -0.33987E+01   -0.34338E+01 24304   0.394E+02-0.646E+00
CGA:   4    -0.316205709233E+03   -0.89980E+00   -0.80019E+00 24304   0.487E+01 0.385E+01
CGA:   5    -0.316503376585E+03   -0.29767E+00   -0.29778E+00 24304   0.985E+01 0.145E-01
CGA:   6    -0.316898683351E+03   -0.39531E+00   -0.39376E+00 24304   0.375E+01-0.328E-02
CGA:   7    -0.317000344414E+03   -0.10166E+00   -0.10045E+00 24304   0.223E+01 0.283E-01
CGA:   8    -0.317084949226E+03   -0.84605E-01   -0.85057E-01 24304   0.149E+01 0.754E-03
CGA:   9    -0.317132926326E+03   -0.47977E-01   -0.48382E-01 24304   0.711E+00-0.297E-02
CGA:  10    -0.317155611553E+03   -0.22685E-01   -0.22806E-01 24304   0.584E+00-0.757E-03
CGA:  11    -0.317186474267E+03   -0.30863E-01   -0.30864E-01 24304   0.327E+00 0.129E-02
CGA:  12    -0.317194457654E+03   -0.79834E-02   -0.80203E-02 24304   0.116E+00-0.724E-03
CGA:  13    -0.317199074818E+03   -0.46172E-02   -0.46276E-02 24304   0.105E+00 0.193E-03
CGA:  14    -0.317205034852E+03   -0.59600E-02   -0.59520E-02 24304   0.116E+00 0.893E-03
CGA:  15    -0.317209544061E+03   -0.45092E-02   -0.45152E-02 24304   0.623E-01 0.779E-04
CGA:  16    -0.317211353864E+03   -0.18098E-02   -0.18121E-02 24304   0.221E-01-0.201E-04
CGA:  17    -0.317212352078E+03   -0.99821E-03   -0.99883E-03 24304   0.229E-01 0.571E-04
CGA:  18    -0.317213525550E+03   -0.11735E-02   -0.11733E-02 24304   0.233E-01 0.664E-04
CGA:  19    -0.317214607095E+03   -0.10815E-02   -0.10819E-02 24304   0.169E-01 0.503E-04
CGA:  20    -0.317215250086E+03   -0.64299E-03   -0.64362E-03 24304   0.966E-02 0.125E-04
CGA:  21    -0.317215594203E+03   -0.34412E-03   -0.34447E-03 24304   0.577E-02 0.137E-06
CGA:  22    -0.317215874543E+03   -0.28034E-03   -0.28034E-03 24304   0.420E-02-0.770E-06
CGA:  23    -0.317216111564E+03   -0.23702E-03   -0.23697E-03 24304   0.594E-02 0.145E-05
CGA:  24    -0.317216357837E+03   -0.24627E-03   -0.24643E-03 24304   0.340E-02 0.851E-05
CGA:  25    -0.317216481839E+03   -0.12400E-03   -0.12412E-03 24304   0.128E-02 0.803E-05
CGA:  26    -0.317216542601E+03   -0.60762E-04   -0.60765E-04 24304   0.153E-02 0.131E-04
CGA:  27    -0.317216634957E+03   -0.92357E-04   -0.92005E-04 24304   0.149E-02 0.286E-04
CGA:  28    -0.317216682725E+03   -0.47768E-04   -0.48009E-04 24304   0.561E-03 0.129E-04
CGA:  29    -0.317216719112E+03   -0.36387E-04   -0.36275E-04 24304   0.822E-03 0.572E-05
CGA:  30    -0.317216755782E+03   -0.36670E-04   -0.36686E-04 24304   0.427E-03 0.291E-05
CGA:  31    -0.317216775960E+03   -0.20178E-04   -0.20178E-04 24304   0.540E-03-0.694E-06
SDA:  32    -0.317216808588E+03   -0.32628E-04   -0.32643E-04 24304   0.354E-03-0.192E-05
CGA:  33    -0.317216818485E+03   -0.98971E-05   -0.99104E-05 24304   0.164E-03-0.110E-06
CGA:  34    -0.317216832869E+03   -0.14384E-04   -0.14314E-04 24304   0.255E-03 0.125E-05
CGA:  35    -0.317216849128E+03   -0.16259E-04   -0.16241E-04 24304   0.299E-03 0.784E-06
CGA:  36    -0.317216863010E+03   -0.13882E-04   -0.13880E-04 24304   0.165E-03-0.789E-06
CGA:  37    -0.317216871765E+03   -0.87553E-05   -0.87638E-05 24304   0.198E-03-0.322E-05
CGA:  38    -0.317216883092E+03   -0.11327E-04   -0.11373E-04 24304   0.157E-03-0.584E-05
CGA:  39    -0.317216892962E+03   -0.98704E-05   -0.99234E-05 24304   0.150E-03-0.400E-05
   5 F= -.31721689E+03 E0= -.31719112E+03  d E =-.573668E+00  mag=    45.0042
       N       E                     dE             d eps       ncg     rms          ort
SDA:   1    -0.257132157401E+03    0.60085E+02    0.00000E+00 24304   0.826E+03 0.000E+00
CGA:   2    -0.274486536772E+03   -0.17354E+02   -0.19051E+02 24304   0.199E+03-0.444E+02
CGA:   3    -0.289522395170E+03   -0.15036E+02   -0.15776E+02 24304   0.435E+03-0.278E+02
CGA:   4    -0.306505641830E+03   -0.16983E+02   -0.15625E+02 24304   0.145E+03-0.270E+02
CGA:   5    -0.309573185759E+03   -0.30675E+01   -0.31949E+01 24304   0.767E+02-0.526E+01
CGA:   6    -0.311874240345E+03   -0.23011E+01   -0.22768E+01 24304   0.779E+02-0.233E+00
CGA:   7    -0.314088241088E+03   -0.22140E+01   -0.22084E+01 24304   0.662E+02-0.160E+00
CGA:   8    -0.315615873569E+03   -0.15276E+01   -0.14326E+01 24304   0.278E+02 0.260E+01
CGA:   9    -0.316355997125E+03   -0.74012E+00   -0.73990E+00 24304   0.192E+02-0.153E+00
CGA:  10    -0.316867829907E+03   -0.51183E+00   -0.53316E+00 24304   0.127E+02-0.197E+00
CGA:  11    -0.317150928724E+03   -0.28310E+00   -0.28874E+00 24304   0.822E+01-0.132E+00
CGA:  12    -0.317385282335E+03   -0.23435E+00   -0.23657E+00 24304   0.583E+01-0.801E-02
CGA:  13    -0.317613157797E+03   -0.22788E+00   -0.22993E+00 24304   0.390E+01 0.225E+00
CGA:  14    -0.317726398780E+03   -0.11324E+00   -0.11510E+00 24304   0.245E+01 0.159E-02
CGA:  15    -0.317792271402E+03   -0.65873E-01   -0.66984E-01 24304   0.119E+01-0.393E-03
CGA:  16    -0.317834328427E+03   -0.42057E-01   -0.42465E-01 24304   0.110E+01 0.254E-01
CGA:  17    -0.317886127665E+03   -0.51799E-01   -0.51377E-01 24304   0.992E+00 0.579E-01
CGA:  18    -0.317923080686E+03   -0.36953E-01   -0.37060E-01 24304   0.403E+00 0.661E-02
CGA:  19    -0.317941157976E+03   -0.18077E-01   -0.18019E-01 24304   0.363E+00 0.105E-01
CGA:  20    -0.317961251876E+03   -0.20094E-01   -0.19877E-01 24304   0.321E+00 0.129E-01
CGA:  21    -0.317973295913E+03   -0.12044E-01   -0.12084E-01 24304   0.186E+00 0.247E-02
CGA:  22    -0.317980282056E+03   -0.69861E-02   -0.70068E-02 24304   0.132E+00 0.192E-02
CGA:  23    -0.317987728392E+03   -0.74463E-02   -0.74033E-02 24304   0.981E-01 0.230E-02
CGA:  24    -0.317993266087E+03   -0.55377E-02   -0.55111E-02 24304   0.773E-01 0.151E-02
CGA:  25    -0.317997172846E+03   -0.39068E-02   -0.39004E-02 24304   0.567E-01 0.609E-03
CGA:  26    -0.317999866291E+03   -0.26934E-02   -0.26908E-02 24304   0.333E-01 0.413E-03
CGA:  27    -0.318001594421E+03   -0.17281E-02   -0.17244E-02 24304   0.230E-01 0.320E-03
CGA:  28    -0.318002893064E+03   -0.12986E-02   -0.12976E-02 24304   0.258E-01 0.740E-04
CGA:  29    -0.318004365576E+03   -0.14725E-02   -0.14692E-02 24304   0.187E-01 0.206E-03
CGA:  30    -0.318005221267E+03   -0.85569E-03   -0.85559E-03 24304   0.129E-01 0.167E-03
CGA:  31    -0.318005921381E+03   -0.70011E-03   -0.70003E-03 24304   0.136E-01 0.176E-04
SDA:  32    -0.318006573425E+03   -0.65204E-03   -0.65174E-03 24304   0.870E-02 0.864E-04
CGA:  33    -0.318006780106E+03   -0.20668E-03   -0.20679E-03 24304   0.295E-02-0.838E-05
CGA:  34    -0.318007028788E+03   -0.24868E-03   -0.24876E-03 24304   0.682E-02-0.373E-05
CGA:  35    -0.318007495901E+03   -0.46711E-03   -0.46823E-03 24304   0.742E-02-0.465E-04
CGA:  36    -0.318007917105E+03   -0.42120E-03   -0.42108E-03 24304   0.464E-02 0.320E-05
CGA:  37    -0.318008100672E+03   -0.18357E-03   -0.18365E-03 24304   0.357E-02 0.877E-06
CGA:  38    -0.318008354306E+03   -0.25363E-03   -0.25383E-03 24304   0.378E-02-0.605E-05
CGA:  39    -0.318008752827E+03   -0.39852E-03   -0.39842E-03 24304   0.832E-02-0.644E-06
CGA:  40    -0.318009070714E+03   -0.31789E-03   -0.31846E-03 24304   0.255E-02 0.177E-04
CGA:  41    -0.318009217653E+03   -0.14694E-03   -0.14693E-03 24304   0.270E-02-0.388E-06
CGA:  42    -0.318009542890E+03   -0.32524E-03   -0.32939E-03 24304   0.417E-02-0.629E-04
CGA:  43    -0.318009700323E+03   -0.15743E-03   -0.15754E-03 24304   0.133E-02-0.738E-05
CGA:  44    -0.318009777104E+03   -0.76780E-04   -0.76743E-04 24304   0.215E-02 0.780E-05
CGA:  45    -0.318009961141E+03   -0.18404E-03   -0.18344E-03 24304   0.200E-02 0.195E-04
CGA:  46    -0.318010022932E+03   -0.61791E-04   -0.62060E-04 24304   0.812E-03 0.655E-05
CGA:  47    -0.318010098768E+03   -0.75836E-04   -0.75669E-04 24304   0.154E-02 0.342E-05
CGA:  48    -0.318010205217E+03   -0.10645E-03   -0.10645E-03 24304   0.170E-02-0.136E-05
CGA:  49    -0.318010280658E+03   -0.75441E-04   -0.75433E-04 24304   0.786E-03-0.977E-06
CGA:  50    -0.318010318663E+03   -0.38004E-04   -0.38049E-04 24304   0.817E-03 0.381E-05
CGA:  51    -0.318010418898E+03   -0.10023E-03   -0.98933E-04 24304   0.136E-02 0.196E-04
CGA:  52    -0.318010478384E+03   -0.59487E-04   -0.59756E-04 24304   0.623E-03 0.121E-04
CGA:  53    -0.318010511097E+03   -0.32712E-04   -0.32747E-04 24304   0.456E-03 0.507E-05
CGA:  54    -0.318010541277E+03   -0.30180E-04   -0.30143E-04 24304   0.732E-03 0.407E-05
CGA:  55    -0.318010583940E+03   -0.42663E-04   -0.42665E-04 24304   0.551E-03 0.320E-05
CGA:  56    -0.318010612129E+03   -0.28190E-04   -0.28212E-04 24304   0.346E-03 0.198E-05
CGA:  57    -0.318010632612E+03   -0.20483E-04   -0.20482E-04 24304   0.202E-03 0.828E-06
CGA:  58    -0.318010656873E+03   -0.24260E-04   -0.24212E-04 24304   0.719E-03 0.487E-06
CGA:  59    -0.318010695519E+03   -0.38646E-04   -0.38631E-04 24304   0.309E-03-0.579E-06
CGA:  60    -0.318010706774E+03   -0.11255E-04   -0.11261E-04 24304   0.169E-03-0.521E-06
CGA:  61    -0.318010721977E+03   -0.15203E-04   -0.15252E-04 24304   0.382E-03-0.179E-05
CGA:  62    -0.318010752243E+03   -0.30266E-04   -0.30371E-04 24304   0.250E-03-0.551E-05
SDA:  63    -0.318010760776E+03   -0.85330E-05   -0.84668E-05 24304   0.119E-03-0.270E-05
   6 F= -.31801076E+03 E0= -.31798714E+03  d E =-.793868E+00  mag=    45.0193
       N       E                     dE             d eps       ncg     rms          ort
SDA:   1    -0.313543974494E+03    0.44668E+01    0.00000E+00 24304   0.175E+02 0.000E+00
CGA:   2    -0.314368343716E+03   -0.82437E+00   -0.82622E+00 24304   0.219E+02 0.213E-01
CGA:   3    -0.316774979908E+03   -0.24066E+01   -0.24359E+01 24304   0.190E+02-0.724E+00
CGA:   4    -0.317341113575E+03   -0.56613E+00   -0.51696E+00 24304   0.563E+01 0.114E+01
CGA:   5    -0.317695000047E+03   -0.35389E+00   -0.35343E+00 24304   0.466E+01-0.224E+00
CGA:   6    -0.317895996153E+03   -0.20100E+00   -0.20238E+00 24304   0.376E+01 0.174E-01
CGA:   7    -0.318053058773E+03   -0.15706E+00   -0.15834E+00 24304   0.103E+01 0.770E-02
CGA:   8    -0.318085494830E+03   -0.32436E-01   -0.32419E-01 24304   0.495E+00 0.482E-03
CGA:   9    -0.318131070949E+03   -0.45576E-01   -0.45391E-01 24304   0.554E+00 0.458E-02
CGA:  10    -0.318146795747E+03   -0.15725E-01   -0.15709E-01 24304   0.103E+00 0.555E-03
CGA:  11    -0.318151448994E+03   -0.46532E-02   -0.46579E-02 24304   0.104E+00 0.858E-04
CGA:  12    -0.318157338724E+03   -0.58897E-02   -0.58897E-02 24304   0.661E-01-0.202E-04
CGA:  13    -0.318160708763E+03   -0.33700E-02   -0.33724E-02 24304   0.566E-01 0.155E-03
CGA:  14    -0.318162746484E+03   -0.20377E-02   -0.20415E-02 24304   0.163E-01-0.191E-04
CGA:  15    -0.318163555694E+03   -0.80921E-03   -0.80958E-03 24304   0.130E-01 0.260E-04
CGA:  16    -0.318164504218E+03   -0.94852E-03   -0.94637E-03 24304   0.146E-01 0.925E-04
CGA:  17    -0.318165380316E+03   -0.87610E-03   -0.87594E-03 24304   0.798E-02 0.316E-04
CGA:  18    -0.318165616272E+03   -0.23596E-03   -0.23666E-03 24304   0.298E-02-0.306E-05
CGA:  19    -0.318165858639E+03   -0.24237E-03   -0.24208E-03 24304   0.543E-02 0.811E-05
CGA:  20    -0.318166174942E+03   -0.31630E-03   -0.31625E-03 24304   0.394E-02 0.181E-04
CGA:  21    -0.318166335207E+03   -0.16026E-03   -0.16052E-03 24304   0.158E-02 0.902E-05
CGA:  22    -0.318166409357E+03   -0.74150E-04   -0.74232E-04 24304   0.139E-02 0.791E-05
CGA:  23    -0.318166525430E+03   -0.11607E-03   -0.11546E-03 24304   0.167E-02 0.208E-04
CGA:  24    -0.318166611840E+03   -0.86410E-04   -0.86499E-04 24304   0.777E-03 0.145E-04
CGA:  25    -0.318166652975E+03   -0.41135E-04   -0.41154E-04 24304   0.560E-03 0.409E-05
CGA:  26    -0.318166689176E+03   -0.36201E-04   -0.36200E-04 24304   0.768E-03-0.505E-06
CGA:  27    -0.318166731530E+03   -0.42355E-04   -0.42355E-04 24304   0.541E-03-0.838E-06
CGA:  28    -0.318166771126E+03   -0.39595E-04   -0.39589E-04 24304   0.530E-03-0.195E-07
CGA:  29    -0.318166790249E+03   -0.19124E-04   -0.19161E-04 24304   0.337E-03 0.106E-05
CGA:  30    -0.318166830351E+03   -0.40101E-04   -0.39657E-04 24304   0.841E-03 0.682E-05
CGA:  31    -0.318166870831E+03   -0.40480E-04   -0.40558E-04 24304   0.365E-03 0.630E-05
SDA:  32    -0.318166896088E+03   -0.25257E-04   -0.25253E-04 24304   0.458E-03 0.963E-07
CGA:  33    -0.318166909058E+03   -0.12970E-04   -0.12934E-04 24304   0.215E-03-0.162E-05
CGA:  34    -0.318166928157E+03   -0.19099E-04   -0.19278E-04 24304   0.373E-03-0.578E-05
CGA:  35    -0.318166951213E+03   -0.23056E-04   -0.23087E-04 24304   0.284E-03-0.704E-05
CGA:  36    -0.318166963441E+03   -0.12228E-04   -0.12204E-04 24304   0.137E-03-0.178E-05
CGA:  37    -0.318166974264E+03   -0.10823E-04   -0.10757E-04 24304   0.210E-03 0.308E-05
CGA:  38    -0.318166983653E+03   -0.93886E-05   -0.94477E-05 24304   0.987E-04 0.360E-05
   7 F= -.31816698E+03 E0= -.31814413E+03  d E =-.156223E+00  mag=    45.0180
       N       E                     dE             d eps       ncg     rms          ort
SDA:   1    -0.273885248183E+03    0.44282E+02    0.00000E+00 24304   0.335E+03 0.000E+00
CGA:   2    -0.282753055392E+03   -0.88678E+01   -0.93201E+01 24304   0.137E+03-0.378E+01
CGA:   3    -0.297078641727E+03   -0.14326E+02   -0.15633E+02 24304   0.447E+03-0.294E+02
CGA:   4    -0.306021355373E+03   -0.89427E+01   -0.80271E+01 24304   0.341E+03 0.575E+01
CGA:   5    -0.309017720017E+03   -0.29964E+01   -0.51680E+01 24304   0.181E+03-0.143E+03
CGA:   6    -0.310623738130E+03   -0.16060E+01   -0.17710E+01 24304   0.154E+03-0.895E+01
CGA:   7    -0.312570573177E+03   -0.19468E+01   -0.18658E+01 24304   0.692E+02-0.498E+00
CGA:   8    -0.313588067234E+03   -0.10175E+01   -0.10058E+01 24304   0.579E+02-0.215E+00
CGA:   9    -0.314622613459E+03   -0.10345E+01   -0.11115E+01 24304   0.678E+02-0.301E+01
CGA:  10    -0.315742936256E+03   -0.11203E+01   -0.11744E+01 24304   0.636E+02-0.258E+01
CGA:  11    -0.316652340498E+03   -0.90940E+00   -0.87691E+00 24304   0.327E+02 0.147E+01
CGA:  12    -0.317032716873E+03   -0.38038E+00   -0.35775E+00 24304   0.139E+02 0.162E+01
CGA:  13    -0.317223928309E+03   -0.19121E+00   -0.18390E+00 24304   0.983E+01 0.415E+00
CGA:  14    -0.317379817403E+03   -0.15589E+00   -0.16803E+00 24304   0.101E+02-0.507E+00
CGA:  15    -0.317553093282E+03   -0.17328E+00   -0.18172E+00 24304   0.132E+02-0.339E+00
CGA:  16    -0.317797038670E+03   -0.24395E+00   -0.25325E+00 24304   0.123E+02-0.317E+00
CGA:  17    -0.317962996534E+03   -0.16596E+00   -0.16612E+00 24304   0.716E+01-0.254E-02
CGA:  18    -0.318066901187E+03   -0.10390E+00   -0.10617E+00 24304   0.474E+01-0.977E-01
CGA:  19    -0.318133105702E+03   -0.66205E-01   -0.73270E-01 24304   0.260E+01-0.263E+00
CGA:  20    -0.318176153996E+03   -0.43048E-01   -0.47322E-01 24304   0.190E+01-0.790E-01
CGA:  21    -0.318218124775E+03   -0.41971E-01   -0.42078E-01 24304   0.165E+01 0.646E-03
CGA:  22    -0.318269067269E+03   -0.50942E-01   -0.50883E-01 24304   0.218E+01-0.684E-02
CGA:  23    -0.318320338475E+03   -0.51271E-01   -0.52902E-01 24304   0.145E+01 0.255E-01
CGA:  24    -0.318352165073E+03   -0.31827E-01   -0.33610E-01 24304   0.716E+00 0.146E-01
CGA:  25    -0.318369875059E+03   -0.17710E-01   -0.17873E-01 24304   0.340E+00 0.371E-02
CGA:  26    -0.318382379350E+03   -0.12504E-01   -0.12495E-01 24304   0.327E+00 0.145E-02
CGA:  27    -0.318394274728E+03   -0.11895E-01   -0.11866E-01 24304   0.334E+00 0.506E-02
CGA:  28    -0.318409164888E+03   -0.14890E-01   -0.14747E-01 24304   0.215E+00 0.984E-02
CGA:  29    -0.318414310158E+03   -0.51453E-02   -0.51694E-02 24304   0.750E-01 0.210E-03
CGA:  30    -0.318417545485E+03   -0.32353E-02   -0.32290E-02 24304   0.797E-01 0.439E-03
CGA:  31    -0.318421614696E+03   -0.40692E-02   -0.40562E-02 24304   0.804E-01 0.608E-03
SDA:  32    -0.318424161444E+03   -0.25467E-02   -0.25495E-02 24304   0.392E-01 0.375E-03
CGA:  33    -0.318425227812E+03   -0.10664E-02   -0.10670E-02 24304   0.154E-01 0.302E-04
CGA:  34    -0.318426216176E+03   -0.98836E-03   -0.98616E-03 24304   0.191E-01 0.669E-04
CGA:  35    -0.318427433445E+03   -0.12173E-02   -0.12110E-02 24304   0.255E-01 0.215E-03
CGA:  36    -0.318429057337E+03   -0.16239E-02   -0.16188E-02 24304   0.109E-01 0.184E-03
CGA:  37    -0.318429463381E+03   -0.40604E-03   -0.40610E-03 24304   0.676E-02 0.309E-04
CGA:  38    -0.318429865926E+03   -0.40254E-03   -0.40132E-03 24304   0.739E-02 0.482E-04
CGA:  39    -0.318430688403E+03   -0.82248E-03   -0.82093E-03 24304   0.171E-01 0.242E-04
CGA:  40    -0.318431360543E+03   -0.67214E-03   -0.67250E-03 24304   0.560E-02 0.461E-04
CGA:  41    -0.318431788571E+03   -0.42803E-03   -0.42468E-03 24304   0.688E-02 0.964E-04
CGA:  42    -0.318432491747E+03   -0.70318E-03   -0.69515E-03 24304   0.704E-02 0.146E-03
CGA:  43    -0.318432804887E+03   -0.31314E-03   -0.31329E-03 24304   0.432E-02 0.401E-04
CGA:  44    -0.318433017373E+03   -0.21249E-03   -0.21240E-03 24304   0.467E-02 0.262E-04
CGA:  45    -0.318433499457E+03   -0.48208E-03   -0.48137E-03 24304   0.676E-02 0.127E-04
CGA:  46    -0.318433745443E+03   -0.24599E-03   -0.24591E-03 24304   0.200E-02-0.432E-05
CGA:  47    -0.318433903193E+03   -0.15775E-03   -0.15753E-03 24304   0.261E-02 0.635E-05
CGA:  48    -0.318434237858E+03   -0.33467E-03   -0.32766E-03 24304   0.486E-02 0.100E-03
CGA:  49    -0.318434428838E+03   -0.19098E-03   -0.19021E-03 24304   0.228E-02 0.399E-05
CGA:  50    -0.318434530615E+03   -0.10178E-03   -0.10170E-03 24304   0.176E-02-0.949E-06
CGA:  51    -0.318434777874E+03   -0.24726E-03   -0.24349E-03 24304   0.343E-02 0.472E-04
CGA:  52    -0.318435008200E+03   -0.23033E-03   -0.23030E-03 24304   0.328E-02 0.248E-06
CGA:  53    -0.318435140525E+03   -0.13232E-03   -0.13158E-03 24304   0.172E-02-0.689E-05
CGA:  54    -0.318435258038E+03   -0.11751E-03   -0.11737E-03 24304   0.210E-02 0.529E-05
CGA:  55    -0.318435429685E+03   -0.17165E-03   -0.17238E-03 24304   0.349E-02-0.282E-04
CGA:  56    -0.318435603808E+03   -0.17412E-03   -0.17419E-03 24304   0.124E-02-0.512E-05
CGA:  57    -0.318435668918E+03   -0.65111E-04   -0.65119E-04 24304   0.112E-02-0.918E-06
CGA:  58    -0.318435784765E+03   -0.11585E-03   -0.11567E-03 24304   0.266E-02 0.220E-05
CGA:  59    -0.318435890777E+03   -0.10601E-03   -0.10560E-03 24304   0.677E-03 0.198E-06
CGA:  60    -0.318435941033E+03   -0.50256E-04   -0.50187E-04 24304   0.839E-03 0.158E-06
CGA:  61    -0.318435999729E+03   -0.58696E-04   -0.58955E-04 24304   0.886E-03-0.214E-04
CGA:  62    -0.318436040346E+03   -0.40617E-04   -0.40481E-04 24304   0.707E-03-0.898E-05
SDA:  63    -0.318436078695E+03   -0.38349E-04   -0.38349E-04 24304   0.366E-03-0.295E-05
CGA:  64    -0.318436092997E+03   -0.14302E-04   -0.14379E-04 24304   0.282E-03 0.267E-05
CGA:  65    -0.318436115172E+03   -0.22175E-04   -0.21969E-04 24304   0.357E-03 0.982E-05
CGA:  66    -0.318436134629E+03   -0.19456E-04   -0.19519E-04 24304   0.293E-03 0.859E-05
CGA:  67    -0.318436149893E+03   -0.15265E-04   -0.15304E-04 24304   0.197E-03 0.396E-05
CGA:  68    -0.318436166881E+03   -0.16987E-04   -0.17014E-04 24304   0.366E-03-0.189E-05
CGA:  69    -0.318436193236E+03   -0.26356E-04   -0.26421E-04 24304   0.267E-03-0.572E-05
CGA:  70    -0.318436204431E+03   -0.11195E-04   -0.11175E-04 24304   0.176E-03-0.215E-05
CGA:  71    -0.318436214939E+03   -0.10508E-04   -0.10507E-04 24304   0.175E-03 0.282E-07
CGA:  72    -0.318436233120E+03   -0.18181E-04   -0.17955E-04 24304   0.269E-03 0.459E-05
CGA:  73    -0.318436246936E+03   -0.13817E-04   -0.13876E-04 24304   0.125E-03 0.404E-05
CGA:  74    -0.318436253306E+03   -0.63696E-05   -0.63794E-05 24304   0.963E-04 0.348E-06
CGA:  75    -0.318436264602E+03   -0.11296E-04   -0.11428E-04 24304   0.216E-03-0.290E-05
CGA:  76    -0.318436276686E+03   -0.12085E-04   -0.12064E-04 24304   0.159E-03-0.407E-05
CGA:  77    -0.318436281435E+03   -0.47485E-05   -0.46820E-05 24304   0.455E-04-0.186E-05
CGA:  78    -0.318436292020E+03   -0.10585E-04   -0.11065E-04 24304   0.218E-03-0.292E-05
CGA:  79    -0.318436302006E+03   -0.99862E-05   -0.98729E-05 24304   0.584E-04-0.278E-05
   8 F= -.31843630E+03 E0= -.31841533E+03  d E =-.269318E+00  mag=    45.0109
       N       E                     dE             d eps       ncg     rms          ort
SDA:   1    -0.310689022271E+03    0.77473E+01    0.00000E+00 24304   0.218E+02 0.000E+00
CGA:   2    -0.312779968766E+03   -0.20909E+01   -0.20913E+01 24304   0.645E+02 0.182E-01
CGA:   3    -0.316479868648E+03   -0.36999E+01   -0.35982E+01 24304   0.283E+02-0.107E+01
CGA:   4    -0.317418412004E+03   -0.93854E+00   -0.97812E+00 24304   0.716E+01-0.396E+00
CGA:   5    -0.317877444337E+03   -0.45903E+00   -0.45817E+00 24304   0.740E+01-0.138E+00
CGA:   6    -0.318180702311E+03   -0.30326E+00   -0.30545E+00 24304   0.476E+01-0.114E-01
CGA:   7    -0.318344342034E+03   -0.16364E+00   -0.16298E+00 24304   0.950E+00 0.102E-01
CGA:   8    -0.318401414965E+03   -0.57073E-01   -0.57069E-01 24304   0.102E+01-0.843E-04
CGA:   9    -0.318453184450E+03   -0.51769E-01   -0.51832E-01 24304   0.587E+00 0.140E-02
CGA:  10    -0.318471742248E+03   -0.18558E-01   -0.18839E-01 24304   0.189E+00-0.392E-02
CGA:  11    -0.318480613441E+03   -0.88712E-02   -0.88882E-02 24304   0.130E+00 0.253E-03
CGA:  12    -0.318488221463E+03   -0.76080E-02   -0.76134E-02 24304   0.104E+00 0.781E-03
CGA:  13    -0.318494672432E+03   -0.64510E-02   -0.64510E-02 24304   0.543E-01-0.388E-05
CGA:  14    -0.318496524229E+03   -0.18518E-02   -0.18614E-02 24304   0.236E-01-0.108E-03
CGA:  15    -0.318497610177E+03   -0.10859E-02   -0.10865E-02 24304   0.205E-01 0.111E-04
CGA:  16    -0.318499334627E+03   -0.17244E-02   -0.17213E-02 24304   0.181E-01 0.102E-03
CGA:  17    -0.318500144875E+03   -0.81025E-03   -0.81117E-03 24304   0.620E-02 0.229E-04
CGA:  18    -0.318500466783E+03   -0.32191E-03   -0.32215E-03 24304   0.688E-02 0.185E-04
CGA:  19    -0.318500937510E+03   -0.47073E-03   -0.47049E-03 24304   0.759E-02 0.239E-04
CGA:  20    -0.318501333420E+03   -0.39591E-03   -0.39620E-03 24304   0.328E-02 0.273E-04
CGA:  21    -0.318501462500E+03   -0.12908E-03   -0.12926E-03 24304   0.177E-02 0.817E-05
CGA:  22    -0.318501618498E+03   -0.15600E-03   -0.15541E-03 24304   0.299E-02 0.187E-04
CGA:  23    -0.318501777825E+03   -0.15933E-03   -0.15945E-03 24304   0.140E-02 0.176E-04
CGA:  24    -0.318501834400E+03   -0.56575E-04   -0.56736E-04 24304   0.832E-03 0.591E-05
CGA:  25    -0.318501878931E+03   -0.44530E-04   -0.44555E-04 24304   0.625E-03 0.422E-05
CGA:  26    -0.318501928635E+03   -0.49705E-04   -0.49553E-04 24304   0.863E-03 0.655E-05
CGA:  27    -0.318501985058E+03   -0.56423E-04   -0.56397E-04 24304   0.424E-03 0.477E-05
CGA:  28    -0.318502002071E+03   -0.17013E-04   -0.17041E-04 24304   0.325E-03 0.730E-06
CGA:  29    -0.318502043340E+03   -0.41269E-04   -0.41290E-04 24304   0.103E-02-0.656E-06
CGA:  30    -0.318502094982E+03   -0.51642E-04   -0.51658E-04 24304   0.467E-03 0.182E-06
CGA:  31    -0.318502121809E+03   -0.26827E-04   -0.26823E-04 24304   0.445E-03-0.553E-06
SDA:  32    -0.318502177934E+03   -0.56125E-04   -0.55829E-04 24304   0.877E-03 0.432E-05
CGA:  33    -0.318502200616E+03   -0.22681E-04   -0.22654E-04 24304   0.306E-03-0.766E-06
CGA:  34    -0.318502218312E+03   -0.17697E-04   -0.17691E-04 24304   0.329E-03-0.147E-05
CGA:  35    -0.318502247206E+03   -0.28893E-04   -0.28969E-04 24304   0.539E-03-0.307E-05
CGA:  36    -0.318502284840E+03   -0.37634E-04   -0.37657E-04 24304   0.264E-03-0.355E-05
CGA:  37    -0.318502293780E+03   -0.89403E-05   -0.89094E-05 24304   0.116E-03-0.118E-05
   9 F= -.31850229E+03 E0= -.31848121E+03  d E =-.659918E-01  mag=    45.0195
       N       E                     dE             d eps       ncg     rms          ort
SDA:   1    -0.311031816098E+03    0.74705E+01    0.00000E+00 24304   0.215E+02 0.000E+00
CGA:   2    -0.313024848742E+03   -0.19930E+01   -0.19867E+01 24304   0.584E+02 0.155E+00
CGA:   3    -0.316449258040E+03   -0.34244E+01   -0.33686E+01 24304   0.317E+02-0.219E+01
CGA:   4    -0.317371290752E+03   -0.92203E+00   -0.91470E+00 24304   0.825E+01 0.375E+00
CGA:   5    -0.317897861513E+03   -0.52657E+00   -0.52674E+00 24304   0.753E+01-0.383E+00
CGA:   6    -0.318194809641E+03   -0.29695E+00   -0.29718E+00 24304   0.422E+01-0.367E-02
CGA:   7    -0.318390417876E+03   -0.19561E+00   -0.19837E+00 24304   0.164E+01 0.396E-01
CGA:   8    -0.318446017496E+03   -0.55600E-01   -0.56392E-01 24304   0.768E+00-0.863E-02
CGA:   9    -0.318490182142E+03   -0.44165E-01   -0.44180E-01 24304   0.698E+00 0.413E-02
CGA:  10    -0.318522429014E+03   -0.32247E-01   -0.32274E-01 24304   0.432E+00 0.596E-03
CGA:  11    -0.318534010367E+03   -0.11581E-01   -0.11753E-01 24304   0.869E-01-0.326E-02
CGA:  12    -0.318540438860E+03   -0.64285E-02   -0.64300E-02 24304   0.136E+00-0.687E-04
CGA:  13    -0.318548328020E+03   -0.78892E-02   -0.78895E-02 24304   0.633E-01 0.509E-03
CGA:  14    -0.318550275122E+03   -0.19471E-02   -0.19555E-02 24304   0.207E-01-0.120E-03
CGA:  15    -0.318551533621E+03   -0.12585E-02   -0.12583E-02 24304   0.209E-01 0.366E-04
CGA:  16    -0.318552863261E+03   -0.13296E-02   -0.13276E-02 24304   0.187E-01 0.203E-03
CGA:  17    -0.318553801882E+03   -0.93862E-03   -0.93889E-03 24304   0.972E-02 0.260E-04
CGA:  18    -0.318554179106E+03   -0.37722E-03   -0.37899E-03 24304   0.515E-02 0.142E-04
CGA:  19    -0.318554513065E+03   -0.33396E-03   -0.33384E-03 24304   0.674E-02 0.122E-04
CGA:  20    -0.318554884029E+03   -0.37096E-03   -0.37103E-03 24304   0.540E-02 0.268E-04
CGA:  21    -0.318555163694E+03   -0.27966E-03   -0.27978E-03 24304   0.177E-02 0.176E-04
CGA:  22    -0.318555255368E+03   -0.91674E-04   -0.91726E-04 24304   0.207E-02 0.929E-05
CGA:  23    -0.318555421945E+03   -0.16658E-03   -0.16587E-03 24304   0.239E-02 0.278E-04
CGA:  24    -0.318555520189E+03   -0.98245E-04   -0.98546E-04 24304   0.719E-03 0.153E-04
CGA:  25    -0.318555565527E+03   -0.45337E-04   -0.45306E-04 24304   0.656E-03 0.413E-05
CGA:  26    -0.318555612151E+03   -0.46624E-04   -0.46598E-04 24304   0.878E-03 0.145E-05
CGA:  27    -0.318555662902E+03   -0.50751E-04   -0.50749E-04 24304   0.597E-03 0.315E-05
CGA:  28    -0.318555694516E+03   -0.31615E-04   -0.31626E-04 24304   0.439E-03 0.198E-05
CGA:  29    -0.318555715394E+03   -0.20878E-04   -0.20902E-04 24304   0.416E-03 0.204E-05
CGA:  30    -0.318555765139E+03   -0.49744E-04   -0.49416E-04 24304   0.915E-03 0.502E-05
CGA:  31    -0.318555813593E+03   -0.48455E-04   -0.48492E-04 24304   0.448E-03 0.392E-05
SDA:  32    -0.318555835980E+03   -0.22387E-04   -0.22373E-04 24304   0.562E-03-0.789E-06
CGA:  33    -0.318555850544E+03   -0.14564E-04   -0.14546E-04 24304   0.244E-03-0.928E-06
CGA:  34    -0.318555881205E+03   -0.30661E-04   -0.31088E-04 24304   0.674E-03-0.633E-05
CGA:  35    -0.318555919128E+03   -0.37922E-04   -0.37900E-04 24304   0.263E-03-0.753E-05
CGA:  36    -0.318555931936E+03   -0.12808E-04   -0.12805E-04 24304   0.225E-03-0.516E-06
CGA:  37    -0.318555944218E+03   -0.12282E-04   -0.12291E-04 24304   0.201E-03 0.145E-05
CGA:  38    -0.318555958259E+03   -0.14041E-04   -0.14020E-04 24304   0.250E-03 0.224E-05
CGA:  39    -0.318555972563E+03   -0.14304E-04   -0.14310E-04 24304   0.169E-03 0.134E-05
CGA:  40    -0.318555986092E+03   -0.13529E-04   -0.13596E-04 24304   0.293E-03-0.341E-05
CGA:  41    -0.318556018053E+03   -0.31960E-04   -0.32752E-04 24304   0.450E-03-0.150E-04
CGA:  42    -0.318556037146E+03   -0.19094E-04   -0.18952E-04 24304   0.159E-03-0.708E-05
CGA:  43    -0.318556047775E+03   -0.10629E-04   -0.10631E-04 24304   0.299E-03-0.718E-06
CGA:  44    -0.318556088565E+03   -0.40790E-04   -0.40867E-04 24304   0.362E-03-0.138E-05
CGA:  45    -0.318556099330E+03   -0.10765E-04   -0.10768E-04 24304   0.141E-03 0.717E-06
CGA:  46    -0.318556110322E+03   -0.10992E-04   -0.10991E-04 24304   0.228E-03-0.806E-07
CGA:  47    -0.318556130232E+03   -0.19909E-04   -0.19892E-04 24304   0.207E-03 0.565E-06
CGA:  48    -0.318556139265E+03   -0.90338E-05   -0.90429E-05 24304   0.624E-04 0.746E-06
  10 F= -.31855614E+03 E0= -.31853497E+03  d E =-.538455E-01  mag=    45.0242
       N       E                     dE             d eps       ncg     rms          ort
SDA:   1    -0.295731940304E+03    0.22824E+02    0.00000E+00 24304   0.602E+02 0.000E+00
CGA:   2    -0.304894155045E+03   -0.91622E+01   -0.88611E+01 24304   0.184E+03 0.340E+01
CGA:   3    -0.312653854929E+03   -0.77597E+01   -0.67988E+01 24304   0.504E+02 0.219E+02
CGA:   4    -0.314998119703E+03   -0.23443E+01   -0.21769E+01 24304   0.297E+02 0.192E+01
CGA:   5    -0.316410428762E+03   -0.14123E+01   -0.13635E+01 24304   0.205E+02 0.192E-01
CGA:   6    -0.317496027233E+03   -0.10856E+01   -0.10938E+01 24304   0.162E+02 0.256E+00
CGA:   7    -0.318013394937E+03   -0.51737E+00   -0.52782E+00 24304   0.726E+01-0.171E+00
CGA:   8    -0.318210743615E+03   -0.19735E+00   -0.18808E+00 24304   0.256E+01 0.236E+00
CGA:   9    -0.318329302228E+03   -0.11856E+00   -0.11886E+00 24304   0.250E+01 0.446E-02
CGA:  10    -0.318429190350E+03   -0.99888E-01   -0.10085E+00 24304   0.185E+01 0.230E-02
CGA:  11    -0.318490121364E+03   -0.60931E-01   -0.61199E-01 24304   0.812E+00-0.172E-02
CGA:  12    -0.318515572866E+03   -0.25452E-01   -0.25734E-01 24304   0.336E+00-0.288E-02
CGA:  13    -0.318528714053E+03   -0.13141E-01   -0.13179E-01 24304   0.302E+00 0.221E-03
CGA:  14    -0.318546985928E+03   -0.18272E-01   -0.18267E-01 24304   0.311E+00 0.575E-03
CGA:  15    -0.318556864838E+03   -0.98789E-02   -0.99530E-02 24304   0.123E+00-0.733E-03
CGA:  16    -0.318561150807E+03   -0.42860E-02   -0.42990E-02 24304   0.638E-01-0.126E-04
CGA:  17    -0.318564086668E+03   -0.29359E-02   -0.29392E-02 24304   0.536E-01 0.199E-03
CGA:  18    -0.318567215765E+03   -0.31291E-02   -0.31258E-02 24304   0.666E-01 0.417E-03
CGA:  19    -0.318569910693E+03   -0.26949E-02   -0.27000E-02 24304   0.349E-01 0.151E-03
CGA:  20    -0.318571210913E+03   -0.13002E-02   -0.13049E-02 24304   0.200E-01 0.711E-04
CGA:  21    -0.318572297137E+03   -0.10862E-02   -0.10859E-02 24304   0.166E-01 0.833E-04
CGA:  22    -0.318573193031E+03   -0.89589E-03   -0.89578E-03 24304   0.197E-01 0.464E-04
CGA:  23    -0.318573982403E+03   -0.78937E-03   -0.79099E-03 24304   0.837E-02 0.482E-04
CGA:  24    -0.318574332492E+03   -0.35009E-03   -0.35062E-03 24304   0.574E-02 0.342E-04
CGA:  25    -0.318574695122E+03   -0.36263E-03   -0.36191E-03 24304   0.690E-02 0.571E-04
CGA:  26    -0.318574985800E+03   -0.29068E-03   -0.29148E-03 24304   0.408E-02 0.592E-04
CGA:  27    -0.318575154209E+03   -0.16841E-03   -0.16878E-03 24304   0.192E-02 0.321E-04
CGA:  28    -0.318575230624E+03   -0.76415E-04   -0.76548E-04 24304   0.139E-02 0.936E-05
CGA:  29    -0.318575326407E+03   -0.95783E-04   -0.95754E-04 24304   0.190E-02 0.126E-05
CGA:  30    -0.318575416167E+03   -0.89760E-04   -0.89777E-04 24304   0.116E-02 0.206E-05
CGA:  31    -0.318575467124E+03   -0.50958E-04   -0.50978E-04 24304   0.791E-03 0.145E-05
SDA:  32    -0.318575500905E+03   -0.33780E-04   -0.33783E-04 24304   0.570E-03 0.724E-06
CGA:  33    -0.318575520566E+03   -0.19661E-04   -0.19673E-04 24304   0.386E-03 0.247E-06
CGA:  34    -0.318575547390E+03   -0.26824E-04   -0.26817E-04 24304   0.580E-03 0.408E-07
CGA:  35    -0.318575602487E+03   -0.55098E-04   -0.55036E-04 24304   0.826E-03 0.113E-05
CGA:  36    -0.318575640325E+03   -0.37837E-04   -0.37838E-04 24304   0.377E-03-0.519E-06
CGA:  37    -0.318575663027E+03   -0.22702E-04   -0.22738E-04 24304   0.510E-03-0.470E-05
CGA:  38    -0.318575697140E+03   -0.34113E-04   -0.34302E-04 24304   0.664E-03-0.122E-04
CGA:  39    -0.318575736495E+03   -0.39355E-04   -0.39462E-04 24304   0.499E-03-0.139E-04
CGA:  40    -0.318575761175E+03   -0.24680E-04   -0.24670E-04 24304   0.348E-03-0.371E-05
CGA:  41    -0.318575800492E+03   -0.39318E-04   -0.39112E-04 24304   0.555E-03 0.324E-05
CGA:  42    -0.318575827543E+03   -0.27051E-04   -0.27091E-04 24304   0.235E-03 0.465E-05
CGA:  43    -0.318575838718E+03   -0.11174E-04   -0.11184E-04 24304   0.164E-03 0.105E-05
CGA:  44    -0.318575854686E+03   -0.15969E-04   -0.15995E-04 24304   0.373E-03-0.788E-06
CGA:  45    -0.318575885891E+03   -0.31205E-04   -0.31278E-04 24304   0.124E-03-0.275E-05
CGA:  46    -0.318575892081E+03   -0.61906E-05   -0.61991E-05 24304   0.886E-04 0.798E-06
CGA:  47    -0.318575903334E+03   -0.11253E-04   -0.10978E-04 24304   0.210E-03 0.415E-05
CGA:  48    -0.318575912458E+03   -0.91241E-05   -0.92080E-05 24304   0.110E-03 0.383E-05
  11 F= -.31857591E+03 E0= -.31855421E+03  d E =-.197732E-01  mag=    45.0266
       N       E                     dE             d eps       ncg     rms          ort
SDA:   1    -0.308982424285E+03    0.95935E+01    0.00000E+00 24304   0.513E+02 0.000E+00
CGA:   2    -0.311229362710E+03   -0.22469E+01   -0.21505E+01 24304   0.426E+02-0.454E+00
CGA:   3    -0.314068025237E+03   -0.28387E+01   -0.28435E+01 24304   0.476E+02-0.338E+00
CGA:   4    -0.316364937188E+03   -0.22969E+01   -0.22800E+01 24304   0.233E+02-0.324E+00
CGA:   5    -0.317103970041E+03   -0.73903E+00   -0.59934E+00 24304   0.714E+01 0.368E+01
CGA:   6    -0.317620139503E+03   -0.51617E+00   -0.51666E+00 24304   0.139E+02-0.561E-01
CGA:   7    -0.318089363277E+03   -0.46922E+00   -0.47512E+00 24304   0.734E+01-0.290E-01
CGA:   8    -0.318280120710E+03   -0.19076E+00   -0.19353E+00 24304   0.275E+01-0.489E-01
CGA:   9    -0.318365114188E+03   -0.84993E-01   -0.85185E-01 24304   0.180E+01-0.139E-02
CGA:  10    -0.318434093103E+03   -0.68979E-01   -0.68987E-01 24304   0.153E+01 0.708E-04
CGA:  11    -0.318500839955E+03   -0.66747E-01   -0.66915E-01 24304   0.118E+01 0.563E-02
CGA:  12    -0.318534020303E+03   -0.33180E-01   -0.33434E-01 24304   0.401E+00-0.346E-02
CGA:  13    -0.318545321569E+03   -0.11301E-01   -0.11306E-01 24304   0.155E+00 0.211E-04
CGA:  14    -0.318553187500E+03   -0.78659E-02   -0.78654E-02 24304   0.249E+00 0.407E-03
CGA:  15    -0.318565628399E+03   -0.12441E-01   -0.12441E-01 24304   0.173E+00 0.607E-03
CGA:  16    -0.318571038498E+03   -0.54101E-02   -0.54334E-02 24304   0.656E-01-0.452E-04
CGA:  17    -0.318572904461E+03   -0.18660E-02   -0.18726E-02 24304   0.288E-01-0.578E-04
CGA:  18    -0.318574649050E+03   -0.17446E-02   -0.17434E-02 24304   0.477E-01 0.664E-04
CGA:  19    -0.318577337260E+03   -0.26882E-02   -0.26871E-02 24304   0.438E-01 0.867E-04
CGA:  20    -0.318578619821E+03   -0.12826E-02   -0.12865E-02 24304   0.124E-01-0.359E-04
CGA:  21    -0.318579054553E+03   -0.43473E-03   -0.43534E-03 24304   0.720E-02 0.178E-04
CGA:  22    -0.318579537132E+03   -0.48258E-03   -0.48137E-03 24304   0.134E-01 0.562E-04
CGA:  23    -0.318580135004E+03   -0.59787E-03   -0.59839E-03 24304   0.705E-02 0.794E-04
CGA:  24    -0.318580413446E+03   -0.27844E-03   -0.27874E-03 24304   0.337E-02 0.195E-04
CGA:  25    -0.318580560262E+03   -0.14682E-03   -0.14683E-03 24304   0.379E-02-0.307E-05
CGA:  26    -0.318580792965E+03   -0.23270E-03   -0.23290E-03 24304   0.344E-02-0.162E-04
CGA:  27    -0.318580919218E+03   -0.12625E-03   -0.12625E-03 24304   0.157E-02-0.705E-05
CGA:  28    -0.318580987206E+03   -0.67988E-04   -0.68013E-04 24304   0.138E-02 0.388E-05
CGA:  29    -0.318581060907E+03   -0.73701E-04   -0.73620E-04 24304   0.156E-02 0.127E-04
CGA:  30    -0.318581146757E+03   -0.85850E-04   -0.85715E-04 24304   0.111E-02 0.187E-04
CGA:  31    -0.318581189152E+03   -0.42395E-04   -0.42474E-04 24304   0.521E-03 0.668E-05
SDA:  32    -0.318581211642E+03   -0.22491E-04   -0.22500E-04 24304   0.523E-03 0.125E-05
CGA:  33    -0.318581229911E+03   -0.18269E-04   -0.18249E-04 24304   0.335E-03-0.222E-05
CGA:  34    -0.318581254952E+03   -0.25041E-04   -0.25197E-04 24304   0.609E-03-0.583E-05
CGA:  35    -0.318581297113E+03   -0.42161E-04   -0.42419E-04 24304   0.396E-03-0.116E-04
CGA:  36    -0.318581319402E+03   -0.22290E-04   -0.22306E-04 24304   0.283E-03-0.240E-05
CGA:  37    -0.318581335250E+03   -0.15847E-04   -0.15832E-04 24304   0.316E-03 0.215E-05
CGA:  38    -0.318581361648E+03   -0.26399E-04   -0.26092E-04 24304   0.322E-03 0.932E-05
CGA:  39    -0.318581378383E+03   -0.16734E-04   -0.16741E-04 24304   0.210E-03 0.459E-05
CGA:  40    -0.318581394326E+03   -0.15944E-04   -0.15943E-04 24304   0.390E-03-0.180E-06
CGA:  41    -0.318581431780E+03   -0.37454E-04   -0.37822E-04 24304   0.602E-03-0.843E-05
CGA:  42    -0.318581456174E+03   -0.24394E-04   -0.24345E-04 24304   0.156E-03-0.494E-05
CGA:  43    -0.318581464010E+03   -0.78360E-05   -0.78340E-05 24304   0.146E-03-0.745E-06
CGA:  44    -0.318581488188E+03   -0.24178E-04   -0.23936E-04 24304   0.403E-03 0.209E-05
CGA:  45    -0.318581506845E+03   -0.18657E-04   -0.18679E-04 24304   0.143E-03 0.168E-05
CGA:  46    -0.318581512144E+03   -0.52989E-05   -0.53112E-05 24304   0.869E-04 0.293E-06
  12 F= -.31858151E+03 E0= -.31856062E+03  d E =-.559969E-02  mag=    45.0485
       N       E                     dE             d eps       ncg     rms          ort
SDA:   1    -0.317388549249E+03    0.11930E+01    0.00000E+00 24304   0.456E+01 0.000E+00
CGA:   2    -0.317822001509E+03   -0.43345E+00   -0.42715E+00 24304   0.657E+01 0.154E+00
CGA:   3    -0.318183022952E+03   -0.36102E+00   -0.36052E+00 24304   0.434E+01-0.213E-01
CGA:   4    -0.318394342822E+03   -0.21132E+00   -0.20910E+00 24304   0.184E+01-0.465E-01
CGA:   5    -0.318492792587E+03   -0.98450E-01   -0.98490E-01 24304   0.142E+01 0.323E-02
CGA:   6    -0.318588407496E+03   -0.95615E-01   -0.95644E-01 24304   0.639E+00-0.221E-02
CGA:   7    -0.318607273093E+03   -0.18866E-01   -0.18868E-01 24304   0.259E+00 0.708E-04
CGA:   8    -0.318623683245E+03   -0.16410E-01   -0.16409E-01 24304   0.235E+00 0.155E-03
CGA:   9    -0.318635353836E+03   -0.11671E-01   -0.11663E-01 24304   0.940E-01-0.297E-03
CGA:  10    -0.318639447742E+03   -0.40939E-02   -0.40954E-02 24304   0.330E-01 0.241E-04
CGA:  11    -0.318641264324E+03   -0.18166E-02   -0.18169E-02 24304   0.295E-01 0.715E-04
CGA:  12    -0.318643105601E+03   -0.18413E-02   -0.18418E-02 24304   0.195E-01-0.510E-04
CGA:  13    -0.318643807440E+03   -0.70184E-03   -0.70199E-03 24304   0.706E-02 0.612E-05
CGA:  14    -0.318644129612E+03   -0.32217E-03   -0.32226E-03 24304   0.538E-02 0.623E-05
CGA:  15    -0.318644558631E+03   -0.42902E-03   -0.42873E-03 24304   0.559E-02 0.118E-04
CGA:  16    -0.318644815879E+03   -0.25725E-03   -0.25725E-03 24304   0.234E-02 0.186E-05
CGA:  17    -0.318644907615E+03   -0.91736E-04   -0.91778E-04 24304   0.106E-02 0.153E-05
CGA:  18    -0.318645019277E+03   -0.11166E-03   -0.11147E-03 24304   0.193E-02 0.382E-05
CGA:  19    -0.318645095783E+03   -0.76506E-04   -0.76566E-04 24304   0.861E-03 0.319E-05
CGA:  20    -0.318645134055E+03   -0.38272E-04   -0.38296E-04 24304   0.365E-03 0.174E-05
CGA:  21    -0.318645162607E+03   -0.28552E-04   -0.28530E-04 24304   0.488E-03 0.989E-06
CGA:  22    -0.318645195740E+03   -0.33133E-04   -0.33110E-04 24304   0.398E-03 0.222E-05
CGA:  23    -0.318645210078E+03   -0.14339E-04   -0.14366E-04 24304   0.154E-03 0.106E-05
CGA:  24    -0.318645217785E+03   -0.77071E-05   -0.77072E-05 24304   0.115E-03 0.580E-08
  13 F= -.31864522E+03 E0= -.31862418E+03  d E =-.637056E-01  mag=    45.0433
       N       E                     dE             d eps       ncg     rms          ort
SDA:   1    -0.318062839951E+03    0.58237E+00    0.00000E+00 24304   0.229E+01 0.000E+00
CGA:   2    -0.318177652363E+03   -0.11481E+00   -0.11513E+00 24304   0.336E+01 0.151E-01
CGA:   3    -0.318426059566E+03   -0.24841E+00   -0.24833E+00 24304   0.250E+01 0.367E-02
CGA:   4    -0.318526245367E+03   -0.10019E+00   -0.99468E-01 24304   0.988E+00-0.103E-02
CGA:   5    -0.318579500942E+03   -0.53256E-01   -0.53238E-01 24304   0.636E+00-0.243E-02
CGA:   6    -0.318617042158E+03   -0.37541E-01   -0.37545E-01 24304   0.511E+00-0.825E-03
CGA:   7    -0.318635888238E+03   -0.18846E-01   -0.18751E-01 24304   0.109E+00 0.347E-03
CGA:   8    -0.318641349561E+03   -0.54613E-02   -0.54633E-02 24304   0.100E+00 0.142E-03
CGA:   9    -0.318647076970E+03   -0.57274E-02   -0.57276E-02 24304   0.671E-01-0.592E-04
CGA:  10    -0.318649568634E+03   -0.24917E-02   -0.24918E-02 24304   0.184E-01 0.130E-04
CGA:  11    -0.318650498129E+03   -0.92949E-03   -0.92962E-03 24304   0.106E-01 0.161E-04
CGA:  12    -0.318651177884E+03   -0.67976E-03   -0.67964E-03 24304   0.127E-01 0.104E-04
CGA:  13    -0.318651745382E+03   -0.56750E-03   -0.56746E-03 24304   0.493E-02-0.108E-06
CGA:  14    -0.318651921866E+03   -0.17648E-03   -0.17655E-03 24304   0.191E-02 0.322E-06
CGA:  15    -0.318652062809E+03   -0.14094E-03   -0.14089E-03 24304   0.264E-02 0.213E-05
CGA:  16    -0.318652233698E+03   -0.17089E-03   -0.17085E-03 24304   0.127E-02 0.308E-05
CGA:  17    -0.318652292714E+03   -0.59016E-04   -0.59011E-04 24304   0.650E-03-0.233E-06
CGA:  18    -0.318652319989E+03   -0.27275E-04   -0.27285E-04 24304   0.560E-03 0.532E-06
CGA:  19    -0.318652378971E+03   -0.58982E-04   -0.58841E-04 24304   0.654E-03 0.262E-05
CGA:  20    -0.318652402402E+03   -0.23431E-04   -0.23463E-04 24304   0.213E-03 0.128E-05
CGA:  21    -0.318652413796E+03   -0.11395E-04   -0.11396E-04 24304   0.206E-03 0.267E-06
CGA:  22    -0.318652430508E+03   -0.16712E-04   -0.16701E-04 24304   0.249E-03 0.346E-06
CGA:  23    -0.318652442352E+03   -0.11844E-04   -0.11846E-04 24304   0.125E-03 0.219E-06
CGA:  24    -0.318652446994E+03   -0.46425E-05   -0.46458E-05 24304   0.541E-04 0.852E-07
  14 F= -.31865245E+03 E0= -.31863127E+03  d E =-.722921E-02  mag=    45.0423
       N       E                     dE             d eps       ncg     rms          ort
SDA:   1    -0.318082416035E+03    0.57003E+00    0.00000E+00 24304   0.149E+01 0.000E+00
CGA:   2    -0.318276154707E+03   -0.19374E+00   -0.19445E+00 24304   0.510E+01-0.116E-01
CGA:   3    -0.318532235701E+03   -0.25608E+00   -0.25614E+00 24304   0.165E+01 0.312E-02
CGA:   4    -0.318579196127E+03   -0.46960E-01   -0.46695E-01 24304   0.545E+00 0.554E-02
CGA:   5    -0.318613526269E+03   -0.34330E-01   -0.34339E-01 24304   0.467E+00-0.987E-03
CGA:   6    -0.318639504368E+03   -0.25978E-01   -0.25978E-01 24304   0.196E+00 0.365E-04
CGA:   7    -0.318646241420E+03   -0.67371E-02   -0.67605E-02 24304   0.723E-01-0.125E-03
CGA:   8    -0.318650712582E+03   -0.44712E-02   -0.44712E-02 24304   0.637E-01 0.206E-04
CGA:   9    -0.318653932173E+03   -0.32196E-02   -0.32201E-02 24304   0.308E-01 0.672E-04
CGA:  10    -0.318655060439E+03   -0.11283E-02   -0.11282E-02 24304   0.124E-01 0.159E-04
CGA:  11    -0.318655662980E+03   -0.60254E-03   -0.60251E-03 24304   0.746E-02-0.784E-06
CGA:  12    -0.318656284218E+03   -0.62124E-03   -0.62143E-03 24304   0.854E-02-0.723E-05
CGA:  13    -0.318656604498E+03   -0.32028E-03   -0.32026E-03 24304   0.150E-02-0.785E-05
CGA:  14    -0.318656700142E+03   -0.95644E-04   -0.95666E-04 24304   0.144E-02-0.236E-05
CGA:  15    -0.318656801339E+03   -0.10120E-03   -0.10117E-03 24304   0.203E-02 0.140E-05
CGA:  16    -0.318656881809E+03   -0.80470E-04   -0.80511E-04 24304   0.596E-03 0.156E-05
CGA:  17    -0.318656906620E+03   -0.24811E-04   -0.24831E-04 24304   0.339E-03 0.129E-05
CGA:  18    -0.318656941607E+03   -0.34987E-04   -0.34862E-04 24304   0.624E-03 0.258E-05
CGA:  19    -0.318656969629E+03   -0.28022E-04   -0.28050E-04 24304   0.290E-03 0.206E-05
CGA:  20    -0.318656983134E+03   -0.13505E-04   -0.13516E-04 24304   0.137E-03 0.991E-06
[...]
CGA:  17    -0.318768955492E+03   -0.10580E-03   -0.10584E-03 24304   0.101E-02 0.174E-05
CGA:  18    -0.318768994862E+03   -0.39370E-04   -0.39385E-04 24304   0.745E-03 0.783E-06
CGA:  19    -0.318769062793E+03   -0.67930E-04   -0.67866E-04 24304   0.122E-02 0.146E-05
CGA:  20    -0.318769122890E+03   -0.60097E-04   -0.60101E-04 24304   0.327E-03 0.762E-06
CGA:  21    -0.318769136424E+03   -0.13534E-04   -0.13539E-04 24304   0.306E-03 0.197E-06
CGA:  22    -0.318769156172E+03   -0.19748E-04   -0.19736E-04 24304   0.392E-03 0.851E-06
CGA:  23    -0.318769177111E+03   -0.20939E-04   -0.20938E-04 24304   0.233E-03 0.128E-05
CGA:  24    -0.318769187529E+03   -0.10418E-04   -0.10424E-04 24304   0.899E-04 0.576E-06
CGA:  25    -0.318769191331E+03   -0.38019E-05   -0.38053E-05 24304   0.858E-04 0.246E-06
  46 F= -.31876919E+03 E0= -.31874592E+03  d E =0.110595E-01  mag=    45.3030
       N       E                     dE             d eps       ncg     rms          ort
SDA:   1    -0.318406776682E+03    0.36241E+00    0.00000E+00 24304   0.143E+01 0.000E+00
CGA:   2    -0.318474357145E+03   -0.67580E-01   -0.67587E-01 24304   0.221E+01 0.305E-03
CGA:   3    -0.318636925260E+03   -0.16257E+00   -0.16250E+00 24304   0.223E+01 0.250E-02
CGA:   4    -0.318714608774E+03   -0.77684E-01   -0.77151E-01 24304   0.484E+00 0.430E-02
CGA:   5    -0.318743149086E+03   -0.28540E-01   -0.28545E-01 24304   0.473E+00-0.412E-03
CGA:   6    -0.318768017040E+03   -0.24868E-01   -0.24868E-01 24304   0.263E+00-0.144E-03
CGA:   7    -0.318778278310E+03   -0.10261E-01   -0.10268E-01 24304   0.932E-01 0.898E-04
CGA:   8    -0.318781764354E+03   -0.34860E-02   -0.34874E-02 24304   0.575E-01 0.137E-04
CGA:   9    -0.318785356435E+03   -0.35921E-02   -0.35919E-02 24304   0.417E-01 0.178E-04
CGA:  10    -0.318787090507E+03   -0.17341E-02   -0.17342E-02 24304   0.202E-01 0.453E-05
CGA:  11    -0.318787695514E+03   -0.60501E-03   -0.60505E-03 24304   0.705E-02-0.164E-05
CGA:  12    -0.318788074870E+03   -0.37936E-03   -0.37936E-03 24304   0.650E-02-0.156E-05
CGA:  13    -0.318788640923E+03   -0.56605E-03   -0.56592E-03 24304   0.312E-02 0.350E-05
CGA:  14    -0.318788744565E+03   -0.10364E-03   -0.10367E-03 24304   0.115E-02 0.391E-06
CGA:  15    -0.318788822878E+03   -0.78313E-04   -0.78296E-04 24304   0.213E-02 0.788E-06
CGA:  16    -0.318788930234E+03   -0.10736E-03   -0.10736E-03 24304   0.116E-02 0.162E-05
CGA:  17    -0.318788980381E+03   -0.50147E-04   -0.50162E-04 24304   0.487E-03 0.160E-05
CGA:  18    -0.318789001937E+03   -0.21556E-04   -0.21569E-04 24304   0.457E-03 0.145E-05
CGA:  19    -0.318789033845E+03   -0.31909E-04   -0.31841E-04 24304   0.533E-03 0.366E-05
CGA:  20    -0.318789066322E+03   -0.32477E-04   -0.32448E-04 24304   0.275E-03 0.354E-05
CGA:  21    -0.318789077473E+03   -0.11151E-04   -0.11159E-04 24304   0.138E-03 0.514E-06
CGA:  22    -0.318789085274E+03   -0.78010E-05   -0.78016E-05 24304   0.189E-03-0.267E-06
CGA:  23    -0.318789097078E+03   -0.11803E-04   -0.11805E-04 24304   0.188E-03-0.282E-06
CGA:  24    -0.318789103810E+03   -0.67319E-05   -0.67297E-05 24304   0.456E-04-0.270E-06
  47 F= -.31878910E+03 E0= -.31876580E+03  d E =-.199125E-01  mag=    45.3078
       N       E                     dE             d eps       ncg     rms          ort
SDA:   1    -0.318637538770E+03    0.15156E+00    0.00000E+00 24304   0.553E+00 0.000E+00
CGA:   2    -0.318662580514E+03   -0.25042E-01   -0.25079E-01 24304   0.763E+00 0.185E-02
CGA:   3    -0.318723509515E+03   -0.60929E-01   -0.60933E-01 24304   0.877E+00-0.132E-03
CGA:   4    -0.318755588937E+03   -0.32079E-01   -0.32119E-01 24304   0.240E+00 0.219E-03
CGA:   5    -0.318764600503E+03   -0.90116E-02   -0.89990E-02 24304   0.155E+00-0.767E-04
CGA:   6    -0.318773888606E+03   -0.92881E-02   -0.92888E-02 24304   0.136E+00-0.628E-04
CGA:   7    -0.318778891469E+03   -0.50029E-02   -0.50030E-02 24304   0.310E-01 0.391E-05
CGA:   8    -0.318780425340E+03   -0.15339E-02   -0.15340E-02 24304   0.181E-01 0.359E-04
CGA:   9    -0.318781619930E+03   -0.11946E-02   -0.11943E-02 24304   0.156E-01 0.169E-04
CGA:  10    -0.318782273905E+03   -0.65397E-03   -0.65399E-03 24304   0.615E-02 0.885E-05
CGA:  11    -0.318782461343E+03   -0.18744E-03   -0.18749E-03 24304   0.253E-02 0.265E-05
CGA:  12    -0.318782594573E+03   -0.13323E-03   -0.13322E-03 24304   0.243E-02 0.175E-05
CGA:  13    -0.318782753332E+03   -0.15876E-03   -0.15876E-03 24304   0.164E-02-0.454E-07
CGA:  14    -0.318782819511E+03   -0.66180E-04   -0.66175E-04 24304   0.506E-03-0.499E-06
CGA:  15    -0.318782837290E+03   -0.17778E-04   -0.17778E-04 24304   0.367E-03-0.498E-07
CGA:  16    -0.318782880113E+03   -0.42823E-04   -0.42800E-04 24304   0.373E-03 0.305E-06
CGA:  17    -0.318782894399E+03   -0.14287E-04   -0.14288E-04 24304   0.162E-03 0.316E-07
CGA:  18    -0.318782900396E+03   -0.59965E-05   -0.59950E-05 24304   0.117E-03-0.130E-06
  48 F= -.31878290E+03 E0= -.31875967E+03  d E =0.620341E-02  mag=    45.3120
       N       E                     dE             d eps       ncg     rms          ort
SDA:   1    -0.317599048972E+03    0.11838E+01    0.00000E+00 24304   0.384E+01 0.000E+00
CGA:   2    -0.317831783119E+03   -0.23273E+00   -0.23315E+00 24304   0.699E+01-0.328E-01
CGA:   3    -0.318378794027E+03   -0.54701E+00   -0.54657E+00 24304   0.678E+01 0.128E-01
CGA:   4    -0.318555590642E+03   -0.17680E+00   -0.17488E+00 24304   0.149E+01 0.366E-01
CGA:   5    -0.318642570576E+03   -0.86980E-01   -0.86951E-01 24304   0.119E+01 0.364E-02
CGA:   6    -0.318701671358E+03   -0.59101E-01   -0.59086E-01 24304   0.776E+00-0.160E-02
CGA:   7    -0.318733239624E+03   -0.31568E-01   -0.31538E-01 24304   0.297E+00-0.444E-03
CGA:   8    -0.318744285473E+03   -0.11046E-01   -0.11069E-01 24304   0.130E+00 0.185E-03
CGA:   9    -0.318752317304E+03   -0.80318E-02   -0.80262E-02 24304   0.119E+00 0.410E-03
CGA:  10    -0.318758449365E+03   -0.61321E-02   -0.61318E-02 24304   0.375E-01-0.731E-04
CGA:  11    -0.318759743508E+03   -0.12941E-02   -0.12940E-02 24304   0.194E-01 0.886E-05
CGA:  12    -0.318760616726E+03   -0.87322E-03   -0.87323E-03 24304   0.201E-01 0.103E-05
CGA:  13    -0.318761998671E+03   -0.13819E-02   -0.13816E-02 24304   0.963E-02 0.148E-04
CGA:  14    -0.318762383391E+03   -0.38472E-03   -0.38474E-03 24304   0.287E-02 0.908E-06
CGA:  15    -0.318762574313E+03   -0.19092E-03   -0.19086E-03 24304   0.391E-02 0.315E-05
CGA:  16    -0.318762803310E+03   -0.22900E-03   -0.22897E-03 24304   0.350E-02 0.243E-05
CGA:  17    -0.318762950323E+03   -0.14701E-03   -0.14703E-03 24304   0.124E-02 0.158E-05
CGA:  18    -0.318763012358E+03   -0.62035E-04   -0.62037E-04 24304   0.844E-03 0.130E-05
CGA:  19    -0.318763073081E+03   -0.60723E-04   -0.60680E-04 24304   0.139E-02 0.186E-05
CGA:  20    -0.318763143812E+03   -0.70731E-04   -0.70735E-04 24304   0.103E-02 0.170E-05
CGA:  21    -0.318763177831E+03   -0.34020E-04   -0.34046E-04 24304   0.277E-03 0.596E-06
CGA:  22    -0.318763197382E+03   -0.19551E-04   -0.19516E-04 24304   0.326E-03 0.171E-05
CGA:  23    -0.318763221837E+03   -0.24456E-04   -0.24388E-04 24304   0.385E-03 0.295E-05
CGA:  24    -0.318763239389E+03   -0.17551E-04   -0.17568E-04 24304   0.106E-03 0.185E-05
CGA:  25    -0.318763243833E+03   -0.44446E-05   -0.44424E-05 24304   0.980E-04-0.333E-06
  49 F= -.31876324E+03 E0= -.31873999E+03  d E =0.196566E-01  mag=    45.3258
       N       E                     dE             d eps       ncg     rms          ort
SDA:   1    -0.317918919014E+03    0.84432E+00    0.00000E+00 24304   0.273E+01 0.000E+00
CGA:   2    -0.318129663066E+03   -0.21074E+00   -0.20942E+00 24304   0.596E+01 0.462E-01
CGA:   3    -0.318441431129E+03   -0.31177E+00   -0.31160E+00 24304   0.411E+01-0.195E-01
CGA:   4    -0.318582192877E+03   -0.14076E+00   -0.13850E+00 24304   0.112E+01 0.164E-01
CGA:   5    -0.318656004581E+03   -0.73812E-01   -0.73961E-01 24304   0.117E+01-0.852E-02
CGA:   6    -0.318711507718E+03   -0.55503E-01   -0.55530E-01 24304   0.683E+00 0.153E-02
CGA:   7    -0.318732068579E+03   -0.20561E-01   -0.20615E-01 24304   0.133E+00-0.616E-03
CGA:   8    -0.318742462519E+03   -0.10394E-01   -0.10390E-01 24304   0.165E+00 0.151E-03
CGA:   9    -0.318749865659E+03   -0.74031E-02   -0.74046E-02 24304   0.865E-01 0.640E-04
CGA:  10    -0.318752344869E+03   -0.24792E-02   -0.24786E-02 24304   0.211E-01 0.283E-04
CGA:  11    -0.318753396941E+03   -0.10521E-02   -0.10521E-02 24304   0.211E-01 0.882E-05
CGA:  12    -0.318754955877E+03   -0.15589E-02   -0.15575E-02 24304   0.138E-01 0.553E-04
CGA:  13    -0.318755402750E+03   -0.44687E-03   -0.44707E-03 24304   0.449E-02 0.982E-06
CGA:  14    -0.318755607418E+03   -0.20467E-03   -0.20468E-03 24304   0.332E-02 0.627E-08
CGA:  15    -0.318755866872E+03   -0.25945E-03   -0.25935E-03 24304   0.430E-02 0.330E-05
CGA:  16    -0.318756038542E+03   -0.17167E-03   -0.17178E-03 24304   0.160E-02 0.409E-05
CGA:  17    -0.318756091515E+03   -0.52973E-04   -0.53022E-04 24304   0.758E-03 0.150E-05
CGA:  18    -0.318756146013E+03   -0.54498E-04   -0.54471E-04 24304   0.115E-02 0.115E-05
CGA:  19    -0.318756216489E+03   -0.70476E-04   -0.70456E-04 24304   0.762E-03 0.196E-05
CGA:  20    -0.318756250716E+03   -0.34226E-04   -0.34245E-04 24304   0.290E-03 0.181E-05
CGA:  21    -0.318756263107E+03   -0.12392E-04   -0.12397E-04 24304   0.293E-03 0.322E-06
CGA:  22    -0.318756289676E+03   -0.26569E-04   -0.26565E-04 24304   0.402E-03 0.638E-08
CGA:  23    -0.318756305666E+03   -0.15990E-04   -0.15992E-04 24304   0.135E-03-0.767E-07
CGA:  24    -0.318756310105E+03   -0.44386E-05   -0.44410E-05 24304   0.724E-04-0.598E-07
  50 F= -.31875631E+03 E0= -.31873318E+03  d E =0.693373E-02  mag=    45.3410
       N       E                     dE             d eps       ncg     rms          ort
SDA:   1    -0.318535880744E+03    0.22042E+00    0.00000E+00 24304   0.100E+01 0.000E+00
CGA:   2    -0.318579409176E+03   -0.43528E-01   -0.43506E-01 24304   0.110E+01-0.421E-03
CGA:   3    -0.318662423527E+03   -0.83014E-01   -0.82963E-01 24304   0.149E+01 0.177E-02
CGA:   4    -0.318714749775E+03   -0.52326E-01   -0.52161E-01 24304   0.364E+00 0.609E-03
CGA:   5    -0.318732265600E+03   -0.17516E-01   -0.17499E-01 24304   0.283E+00-0.120E-02
CGA:   6    -0.318748627005E+03   -0.16361E-01   -0.16364E-01 24304   0.256E+00-0.325E-03
CGA:   7    -0.318757315969E+03   -0.86890E-02   -0.87014E-02 24304   0.543E-01-0.366E-04
CGA:   8    -0.318760018399E+03   -0.27024E-02   -0.27025E-02 24304   0.330E-01 0.158E-04
CGA:   9    -0.318762684043E+03   -0.26656E-02   -0.26672E-02 24304   0.258E-01-0.513E-04
CGA:  10    -0.318763508917E+03   -0.82487E-03   -0.82558E-03 24304   0.964E-02-0.130E-04
CGA:  11    -0.318763854280E+03   -0.34536E-03   -0.34541E-03 24304   0.451E-02-0.841E-06
CGA:  12    -0.318764109102E+03   -0.25482E-03   -0.25483E-03 24304   0.446E-02-0.128E-05
CGA:  13    -0.318764386914E+03   -0.27781E-03   -0.27781E-03 24304   0.239E-02-0.352E-06
CGA:  14    -0.318764471313E+03   -0.84398E-04   -0.84402E-04 24304   0.751E-03-0.657E-07
CGA:  15    -0.318764511636E+03   -0.40323E-04   -0.40322E-04 24304   0.937E-03 0.637E-06
CGA:  16    -0.318764578241E+03   -0.66605E-04   -0.66584E-04 24304   0.821E-03 0.105E-05
CGA:  17    -0.318764606940E+03   -0.28699E-04   -0.28715E-04 24304   0.212E-03 0.794E-06
CGA:  18    -0.318764617583E+03   -0.10643E-04   -0.10644E-04 24304   0.263E-03 0.387E-06
CGA:  19    -0.318764634317E+03   -0.16733E-04   -0.16726E-04 24304   0.281E-03 0.566E-06
CGA:  20    -0.318764649964E+03   -0.15647E-04   -0.15645E-04 24304   0.118E-03 0.628E-06
CGA:  21    -0.318764654742E+03   -0.47783E-05   -0.47855E-05 24304   0.560E-04 0.520E-06
  51 F= -.31876465E+03 E0= -.31874150E+03  d E =-.834464E-02  mag=    45.3365
       N       E                     dE             d eps       ncg     rms          ort
SDA:   1    -0.318375092550E+03    0.38956E+00    0.00000E+00 24304   0.135E+01 0.000E+00
CGA:   2    -0.318429950072E+03   -0.54858E-01   -0.54979E-01 24304   0.205E+01 0.128E-02
CGA:   3    -0.318656536267E+03   -0.22659E+00   -0.22664E+00 24304   0.981E+00-0.123E-02
CGA:   4    -0.318694027768E+03   -0.37492E-01   -0.37439E-01 24304   0.521E+00-0.439E-04
CGA:   5    -0.318719394947E+03   -0.25367E-01   -0.25357E-01 24304   0.349E+00-0.497E-03
CGA:   6    -0.318736215014E+03   -0.16820E-01   -0.16817E-01 24304   0.205E+00-0.145E-03
CGA:   7    -0.318744641845E+03   -0.84268E-02   -0.84257E-02 24304   0.561E-01-0.704E-05
CGA:   8    -0.318747771802E+03   -0.31300E-02   -0.31299E-02 24304   0.450E-01 0.431E-04
CGA:   9    -0.318750425727E+03   -0.26539E-02   -0.26536E-02 24304   0.265E-01 0.526E-04
CGA:  10    -0.318751512004E+03   -0.10863E-02   -0.10863E-02 24304   0.814E-02 0.936E-05
CGA:  11    -0.318751826590E+03   -0.31459E-03   -0.31459E-03 24304   0.598E-02 0.995E-06
CGA:  12    -0.318752255620E+03   -0.42903E-03   -0.42898E-03 24304   0.785E-02 0.180E-05
CGA:  13    -0.318752538053E+03   -0.28243E-03   -0.28256E-03 24304   0.147E-02-0.366E-06
CGA:  14    -0.318752597768E+03   -0.59715E-04   -0.59704E-04 24304   0.130E-02-0.949E-06
CGA:  15    -0.318752676661E+03   -0.78893E-04   -0.78906E-04 24304   0.117E-02-0.193E-05
CGA:  16    -0.318752753499E+03   -0.76838E-04   -0.76825E-04 24304   0.603E-03 0.616E-06
CGA:  17    -0.318752783495E+03   -0.29996E-04   -0.29997E-04 24304   0.278E-03 0.562E-07
CGA:  18    -0.318752800843E+03   -0.17348E-04   -0.17349E-04 24304   0.433E-03-0.339E-06
CGA:  19    -0.318752829319E+03   -0.28476E-04   -0.28478E-04 24304   0.392E-03-0.352E-06
CGA:  20    -0.318752844247E+03   -0.14928E-04   -0.14934E-04 24304   0.133E-03 0.168E-06
CGA:  21    -0.318752849875E+03   -0.56285E-05   -0.56330E-05 24304   0.107E-03 0.212E-06
  52 F= -.31875285E+03 E0= -.31872972E+03  d E =0.118049E-01  mag=    45.3414
       N       E                     dE             d eps       ncg     rms          ort
SDA:   1    -0.317518014942E+03    0.12348E+01    0.00000E+00 24304   0.597E+01 0.000E+00
CGA:   2    -0.317702912705E+03   -0.18490E+00   -0.18897E+00 24304   0.493E+01-0.664E-01
CGA:   3    -0.318238245389E+03   -0.53533E+00   -0.53660E+00 24304   0.789E+01-0.256E-01
CGA:   4    -0.318511360705E+03   -0.27312E+00   -0.27239E+00 24304   0.204E+01 0.777E-02
CGA:   5    -0.318589336970E+03   -0.77976E-01   -0.77509E-01 24304   0.130E+01-0.160E-02
CGA:   6    -0.318659267395E+03   -0.69930E-01   -0.69930E-01 24304   0.103E+01 0.126E-02
CGA:   7    -0.318709899375E+03   -0.50632E-01   -0.50636E-01 24304   0.258E+00 0.366E-03
CGA:   8    -0.318720936023E+03   -0.11037E-01   -0.11044E-01 24304   0.134E+00 0.214E-03
CGA:   9    -0.318731087316E+03   -0.10151E-01   -0.10148E-01 24304   0.128E+00 0.122E-03
CGA:  10    -0.318735921945E+03   -0.48346E-02   -0.48346E-02 24304   0.477E-01 0.399E-04
CGA:  11    -0.318737336323E+03   -0.14144E-02   -0.14148E-02 24304   0.173E-01 0.739E-05
CGA:  12    -0.318738536240E+03   -0.11999E-02   -0.11993E-02 24304   0.236E-01 0.280E-04
CGA:  13    -0.318739725407E+03   -0.11892E-02   -0.11892E-02 24304   0.115E-01 0.103E-04
CGA:  14    -0.318740197048E+03   -0.47164E-03   -0.47157E-03 24304   0.420E-02-0.377E-05
CGA:  15    -0.318740360810E+03   -0.16376E-03   -0.16378E-03 24304   0.312E-02 0.129E-05
CGA:  16    -0.318740655002E+03   -0.29419E-03   -0.29365E-03 24304   0.343E-02 0.121E-04
CGA:  17    -0.318740822227E+03   -0.16723E-03   -0.16725E-03 24304   0.135E-02 0.264E-05
CGA:  18    -0.318740871619E+03   -0.49392E-04   -0.49405E-04 24304   0.926E-03-0.714E-07
CGA:  19    -0.318740929194E+03   -0.57574E-04   -0.57574E-04 24304   0.138E-02-0.446E-06
CGA:  20    -0.318741028447E+03   -0.99253E-04   -0.99248E-04 24304   0.395E-03-0.220E-06
CGA:  21    -0.318741045597E+03   -0.17150E-04   -0.17166E-04 24304   0.352E-03 0.128E-05
CGA:  22    -0.318741070920E+03   -0.25323E-04   -0.25238E-04 24304   0.413E-03 0.443E-05
CGA:  23    -0.318741093366E+03   -0.22446E-04   -0.22449E-04 24304   0.318E-03 0.402E-05
CGA:  24    -0.318741105847E+03   -0.12482E-04   -0.12517E-04 24304   0.825E-04 0.205E-05
CGA:  25    -0.318741110319E+03   -0.44719E-05   -0.44718E-05 24304   0.130E-03 0.112E-07
  53 F= -.31874111E+03 E0= -.31871796E+03  d E =0.117396E-01  mag=    45.3309
       N       E                     dE             d eps       ncg     rms          ort
SDA:   1    -0.318558312069E+03    0.18279E+00    0.00000E+00 24304   0.756E+00 0.000E+00
CGA:   2    -0.318591499422E+03   -0.33187E-01   -0.33183E-01 24304   0.926E+00-0.575E-04
CGA:   3    -0.318663980816E+03   -0.72481E-01   -0.72524E-01 24304   0.116E+01-0.141E-02
CGA:   4    -0.318703006386E+03   -0.39026E-01   -0.39005E-01 24304   0.308E+00 0.281E-05
CGA:   5    -0.318716215733E+03   -0.13209E-01   -0.13214E-01 24304   0.193E+00 0.126E-03
CGA:   6    -0.318731068952E+03   -0.14853E-01   -0.14844E-01 24304   0.145E+00 0.328E-03
CGA:   7    -0.318736393789E+03   -0.53248E-02   -0.53181E-02 24304   0.416E-01 0.670E-05
CGA:   8    -0.318737894361E+03   -0.15006E-02   -0.14991E-02 24304   0.274E-01 0.250E-05
CGA:   9    -0.318740390951E+03   -0.24966E-02   -0.24956E-02 24304   0.138E-01 0.255E-04
CGA:  10    -0.318740846909E+03   -0.45596E-03   -0.45579E-03 24304   0.372E-02 0.632E-06
CGA:  11    -0.318741072778E+03   -0.22587E-03   -0.22587E-03 24304   0.533E-02 0.732E-07
CGA:  12    -0.318741326734E+03   -0.25396E-03   -0.25397E-03 24304   0.343E-02 0.181E-05
CGA:  13    -0.318741455267E+03   -0.12853E-03   -0.12859E-03 24304   0.951E-03 0.170E-05
CGA:  14    -0.318741502887E+03   -0.47620E-04   -0.47622E-04 24304   0.682E-03 0.506E-06
CGA:  15    -0.318741558339E+03   -0.55452E-04   -0.55453E-04 24304   0.101E-02-0.110E-06
CGA:  16    -0.318741598198E+03   -0.39859E-04   -0.39867E-04 24304   0.346E-03 0.251E-06
CGA:  17    -0.318741613467E+03   -0.15269E-04   -0.15273E-04 24304   0.170E-03 0.364E-06
CGA:  18    -0.318741625143E+03   -0.11676E-04   -0.11665E-04 24304   0.266E-03 0.603E-06
CGA:  19    -0.318741642814E+03   -0.17671E-04   -0.17661E-04 24304   0.198E-03 0.774E-06
CGA:  20    -0.318741648740E+03   -0.59252E-05   -0.59308E-05 24304   0.676E-04 0.134E-06
  54 F= -.31874165E+03 E0= -.31871851E+03  d E =-.538420E-03  mag=    45.3382
       N       E                     dE             d eps       ncg     rms          ort
SDA:   1    -0.318643248290E+03    0.98395E-01    0.00000E+00 24304   0.332E+00 0.000E+00
CGA:   2    -0.318659636773E+03   -0.16388E-01   -0.16381E-01 24304   0.514E+00-0.900E-03
CGA:   3    -0.318700342070E+03   -0.40705E-01   -0.40742E-01 24304   0.558E+00-0.115E-02
CGA:   4    -0.318719553706E+03   -0.19212E-01   -0.19252E-01 24304   0.136E+00-0.103E-03
CGA:   5    -0.318724800251E+03   -0.52465E-02   -0.52482E-02 24304   0.880E-01 0.270E-04
CGA:   6    -0.318730618601E+03   -0.58184E-02   -0.58208E-02 24304   0.806E-01-0.128E-03
CGA:   7    -0.318733311321E+03   -0.26927E-02   -0.26924E-02 24304   0.180E-01-0.215E-05
CGA:   8    -0.318734178880E+03   -0.86756E-03   -0.86755E-03 24304   0.114E-01 0.251E-05
CGA:   9    -0.318734957363E+03   -0.77848E-03   -0.77831E-03 24304   0.850E-02 0.110E-04
CGA:  10    -0.318735323312E+03   -0.36595E-03   -0.36606E-03 24304   0.280E-02 0.927E-05
CGA:  11    -0.318735430793E+03   -0.10748E-03   -0.10749E-03 24304   0.161E-02 0.133E-05
CGA:  12    -0.318735509051E+03   -0.78258E-04   -0.78256E-04 24304   0.171E-02-0.805E-06
CGA:  13    -0.318735608692E+03   -0.99641E-04   -0.99648E-04 24304   0.904E-03-0.108E-05
CGA:  14    -0.318735646126E+03   -0.37434E-04   -0.37448E-04 24304   0.235E-03 0.988E-06
CGA:  15    -0.318735658568E+03   -0.12443E-04   -0.12443E-04 24304   0.345E-03-0.163E-06
CGA:  16    -0.318735686441E+03   -0.27873E-04   -0.27899E-04 24304   0.278E-03-0.919E-06
CGA:  17    -0.318735696310E+03   -0.98694E-05   -0.98659E-05 24304   0.729E-04-0.261E-06
  55 F= -.31873570E+03 E0= -.31871256E+03  d E =0.595243E-02  mag=    45.3426
