       N       E                     dE             d eps       ncg     rms          rms(c)
DAV:   1     0.656623109649E+04    0.65662E+04   -0.28266E+05 36128   0.160E+03
DAV:   2     0.334630289201E+03   -0.62316E+04   -0.59128E+04 37392   0.480E+02
DAV:   3    -0.392308548258E+03   -0.72694E+03   -0.71777E+03 39072   0.174E+02
DAV:   4    -0.420608741468E+03   -0.28300E+02   -0.27867E+02 48432   0.312E+01
DAV:   5    -0.422544195265E+03   -0.19355E+01   -0.19304E+01 61520   0.634E+00    0.575E+01
DAV:   6    -0.383305586758E+03    0.39239E+02   -0.27277E+02 47968   0.396E+01    0.501E+01
DAV:   7    -0.395925249977E+03   -0.12620E+02   -0.12186E+02 47424   0.259E+01    0.698E+01
DAV:   8    -0.386855695514E+03    0.90696E+01   -0.12546E+02 45072   0.166E+01    0.467E+01
DAV:   9    -0.391256389141E+03   -0.44007E+01   -0.57405E+01 42912   0.145E+01    0.457E+01
DAV:  10    -0.386153088803E+03    0.51033E+01   -0.37992E+01 40000   0.112E+01    0.496E+01
DAV:  11    -0.384701184463E+03    0.14519E+01   -0.63090E+01 42784   0.102E+01    0.297E+01
DAV:  12    -0.383601462427E+03    0.10997E+01   -0.59204E+00 43344   0.564E+00    0.173E+01
DAV:  13    -0.384234416996E+03   -0.63295E+00   -0.13863E+01 45296   0.544E+00    0.216E+01
DAV:  14    -0.384369888733E+03   -0.13547E+00   -0.63996E+00 42112   0.376E+00    0.136E+01
DAV:  15    -0.384450274287E+03   -0.80386E-01   -0.23247E+00 45312   0.292E+00    0.975E+00
DAV:  16    -0.384337894163E+03    0.11238E+00   -0.87699E-01 46416   0.195E+00    0.555E+00
DAV:  17    -0.384387232911E+03   -0.49339E-01   -0.78320E-01 44336   0.146E+00    0.673E+00
DAV:  18    -0.384464495537E+03   -0.77263E-01   -0.14524E-01 43056   0.743E-01    0.773E+00
DAV:  19    -0.384462983107E+03    0.15124E-02   -0.94668E-03 46224   0.268E-01    0.730E+00
DAV:  20    -0.384437095065E+03    0.25888E-01   -0.82370E-02 47360   0.680E-01    0.404E+00
DAV:  21    -0.384423010029E+03    0.14085E-01   -0.18813E-01 48048   0.112E+00    0.281E+00
DAV:  22    -0.384425715478E+03   -0.27054E-02   -0.79640E-02 41872   0.733E-01    0.262E+00
DAV:  23    -0.384432350118E+03   -0.66346E-02   -0.23742E-02 46368   0.420E-01    0.206E+00
DAV:  24    -0.384432462150E+03   -0.11203E-03   -0.24020E-02 49728   0.425E-01    0.124E+00
DAV:  25    -0.384432859703E+03   -0.39755E-03   -0.13612E-02 50320   0.312E-01    0.538E-01
DAV:  26    -0.384433116227E+03   -0.25652E-03   -0.38920E-03 44688   0.185E-01    0.418E-01
DAV:  27    -0.384433177304E+03   -0.61078E-04   -0.14699E-03 46752   0.120E-01    0.268E-01
DAV:  28    -0.384433159498E+03    0.17806E-04   -0.70899E-04 42272   0.681E-02    0.128E-01
DAV:  29    -0.384433198364E+03   -0.38865E-04   -0.20328E-04 42688   0.333E-02    0.757E-02
DAV:  30    -0.384433208214E+03   -0.98503E-05   -0.68266E-05 36304   0.214E-02
   1 F= -.38443321E+03 E0= -.38442845E+03  d E =-.384433E+03  mag=    46.0651
       N       E                     dE             d eps       ncg     rms          rms(c)
DAV:   1    -0.384457310363E+03   -0.24112E-01   -0.78237E-01 36704   0.251E+00    0.122E+00
DAV:   2    -0.384437174125E+03    0.20136E-01   -0.80716E-02 37984   0.682E-01    0.605E-01
DAV:   3    -0.384436687605E+03    0.48652E-03   -0.88412E-03 45152   0.265E-01    0.807E-01
DAV:   4    -0.384436794932E+03   -0.10733E-03   -0.48843E-03 44304   0.261E-01    0.952E-01
DAV:   5    -0.384435304689E+03    0.14902E-02   -0.20213E-03 44464   0.166E-01    0.218E-01
DAV:   6    -0.384435327106E+03   -0.22417E-04   -0.99923E-04 51616   0.727E-02    0.174E-01
DAV:   7    -0.384435275102E+03    0.52004E-04   -0.42943E-04 47504   0.535E-02    0.111E-01
DAV:   8    -0.384435263112E+03    0.11989E-04   -0.12966E-04 41408   0.304E-02    0.622E-02
DAV:   9    -0.384435260136E+03    0.29767E-05   -0.73989E-05 31968   0.202E-02
   2 F= -.38443526E+03 E0= -.38443049E+03  d E =-.205192E-02  mag=    46.0171
       N       E                     dE             d eps       ncg     rms          rms(c)
DAV:   1    -0.384436249018E+03   -0.98591E-03   -0.31386E-02 36752   0.503E-01    0.245E-01
DAV:   2    -0.384435455227E+03    0.79379E-03   -0.31998E-03 37696   0.138E-01    0.167E-01
DAV:   3    -0.384435645912E+03   -0.19068E-03   -0.60849E-04 45936   0.898E-02    0.416E-01
DAV:   4    -0.384435367207E+03    0.27870E-03   -0.33685E-04 42336   0.769E-02    0.996E-02
DAV:   5    -0.384435378582E+03   -0.11376E-04   -0.18017E-04 37376   0.306E-02    0.946E-02
DAV:   6    -0.384435361030E+03    0.17553E-04   -0.70071E-05 30256   0.205E-02    0.294E-02
DAV:   7    -0.384435357676E+03    0.33537E-05   -0.14753E-05 29520   0.989E-03
   3 F= -.38443536E+03 E0= -.38443060E+03  d E =-.214946E-02  mag=    46.0057
       N       E                     dE             d eps       ncg     rms          rms(c)
DAV:   1    -0.384437119432E+03   -0.17584E-02   -0.54181E-01 38320   0.204E+00    0.491E-01
DAV:   2    -0.384437353916E+03   -0.23448E-03   -0.24841E-02 37040   0.407E-01    0.368E-01
DAV:   3    -0.384437551155E+03   -0.19724E-03   -0.38148E-03 46448   0.171E-01    0.714E-01
DAV:   4    -0.384436803035E+03    0.74812E-03   -0.14486E-03 46416   0.137E-01    0.278E-01
DAV:   5    -0.384436731652E+03    0.71383E-04   -0.11550E-03 45248   0.922E-02    0.261E-01
DAV:   6    -0.384436584880E+03    0.14677E-03   -0.50665E-04 42592   0.599E-02    0.891E-02
DAV:   7    -0.384436576821E+03    0.80591E-05   -0.16783E-04 38368   0.293E-02    0.936E-02
DAV:   8    -0.384436565297E+03    0.11524E-04   -0.10073E-04 31264   0.242E-02    0.520E-02
DAV:   9    -0.384436558192E+03    0.71049E-05   -0.29302E-05 29232   0.152E-02
   4 F= -.38443656E+03 E0= -.38443179E+03  d E =-.120052E-02  mag=    46.0014
       N       E                     dE             d eps       ncg     rms          rms(c)
DAV:   1    -0.384438449922E+03   -0.18846E-02   -0.15097E+00 37952   0.341E+00    0.818E-01
DAV:   2    -0.384439094045E+03   -0.64412E-03   -0.69070E-02 37008   0.679E-01    0.604E-01
DAV:   3    -0.384439505455E+03   -0.41141E-03   -0.10755E-02 46288   0.277E-01    0.114E+00
DAV:   4    -0.384437611799E+03    0.18937E-02   -0.40921E-03 46432   0.223E-01    0.477E-01
DAV:   5    -0.384437396812E+03    0.21499E-03   -0.29697E-03 44384   0.156E-01    0.450E-01
DAV:   6    -0.384436962987E+03    0.43383E-03   -0.13151E-03 42896   0.994E-02    0.142E-01
DAV:   7    -0.384436941185E+03    0.21802E-04   -0.44583E-04 46480   0.460E-02    0.147E-01
DAV:   8    -0.384436913572E+03    0.27614E-04   -0.26012E-04 37776   0.361E-02    0.841E-02
DAV:   9    -0.384436895086E+03    0.18486E-04   -0.81839E-05 32864   0.244E-02    0.528E-02
DAV:  10    -0.384436891300E+03    0.37860E-05   -0.40422E-05 30736   0.160E-02
   5 F= -.38443689E+03 E0= -.38443213E+03  d E =-.153362E-02  mag=    46.0002
       N       E                     dE             d eps       ncg     rms          rms(c)
DAV:   1    -0.384437131772E+03   -0.23669E-03   -0.11590E-01 38304   0.944E-01    0.231E-01
DAV:   2    -0.384437176545E+03   -0.44773E-04   -0.53138E-03 37088   0.189E-01    0.165E-01
DAV:   3    -0.384437172184E+03    0.43613E-05   -0.83298E-04 46208   0.722E-02    0.278E-01
DAV:   4    -0.384437077128E+03    0.95056E-04   -0.36982E-04 44416   0.590E-02    0.155E-01
DAV:   5    -0.384437058890E+03    0.18237E-04   -0.19076E-04 38400   0.465E-02    0.146E-01
DAV:   6    -0.384437016778E+03    0.42112E-04   -0.10154E-04 34144   0.300E-02    0.409E-02
DAV:   7    -0.384437015783E+03    0.99574E-06   -0.40545E-05 28816   0.142E-02
   6 F= -.38443702E+03 E0= -.38443226E+03  d E =-.165811E-02  mag=    46.0001
       N       E                     dE             d eps       ncg     rms          rms(c)
DAV:   1    -0.384437210785E+03   -0.19401E-03   -0.19733E-01 38048   0.123E+00    0.304E-01
DAV:   2    -0.384437236571E+03   -0.25785E-04   -0.90588E-03 36912   0.247E-01    0.229E-01
DAV:   3    -0.384437276116E+03   -0.39545E-04   -0.15445E-03 46000   0.101E-01    0.421E-01
DAV:   4    -0.384437030525E+03    0.24559E-03   -0.62055E-04 46352   0.814E-02    0.184E-01
DAV:   5    -0.384437007576E+03    0.22949E-04   -0.36330E-04 43312   0.596E-02    0.187E-01
DAV:   6    -0.384436934876E+03    0.72700E-04   -0.18320E-04 40176   0.378E-02    0.541E-02
DAV:   7    -0.384436931436E+03    0.34399E-05   -0.47147E-05 32448   0.156E-02
   7 F= -.38443693E+03 E0= -.38443218E+03  d E =-.157376E-02  mag=    46.0000
       N       E                     dE             d eps       ncg     rms          rms(c)
DAV:   1    -0.384434549058E+03    0.23858E-02   -0.53557E-01 40384   0.246E+00    0.342E-01
DAV:   2    -0.384437699628E+03   -0.31506E-02   -0.35555E-02 35648   0.432E-01    0.200E-01
DAV:   3    -0.384437752742E+03   -0.53114E-04   -0.12157E-03 42816   0.905E-02    0.190E-01
DAV:   4    -0.384437783497E+03   -0.30755E-04   -0.43254E-04 45872   0.661E-02    0.271E-01
DAV:   5    -0.384437653238E+03    0.13026E-03   -0.21177E-04 40880   0.583E-02    0.112E-01
DAV:   6    -0.384437636902E+03    0.16336E-04   -0.19421E-04 41296   0.333E-02    0.680E-02
DAV:   7    -0.384437629950E+03    0.69515E-05   -0.55211E-05 31456   0.193E-02
   8 F= -.38443763E+03 E0= -.38443290E+03  d E =-.698514E-03  mag=    46.0000
