       N       E                     dE             d eps       ncg     rms          ort
DAV:   1     0.580139050787E+04    0.58014E+04   -0.23454E+05  7072   0.164E+03
DAV:   2     0.563664264926E+03   -0.52377E+04   -0.49081E+04  7072   0.474E+02
DAV:   3    -0.376993171635E+03   -0.94066E+03   -0.91499E+03  7072   0.205E+02
DAV:   4    -0.418669092530E+03   -0.41676E+02   -0.41028E+02  7072   0.484E+01
DAV:   5    -0.420390459060E+03   -0.17214E+01   -0.16687E+01  7072   0.956E+00
SDA:   6    -0.211423457933E+03    0.20897E+03   -0.16687E+01  7072   0.117E+04 0.000E+00
CGA:   7    -0.254494949617E+03   -0.43071E+02   -0.10280E+03  7072   0.454E+04-0.335E+03
CGA:   8    -0.288020356122E+03   -0.33525E+02   -0.92500E+02  7072   0.251E+03 0.565E+03
CGA:   9    -0.319150828517E+03   -0.31130E+02   -0.23142E+02  7072   0.194E+03 0.540E+02
CGA:  10    -0.330921535501E+03   -0.11771E+02   -0.17680E+02  7072   0.188E+03-0.313E+02
CGA:  11    -0.340533611396E+03   -0.96121E+01   -0.73727E+01  7072   0.744E+02 0.448E+01
CGA:  12    -0.342426016667E+03   -0.18924E+01   -0.40334E+01  7072   0.871E+02-0.887E+01
CGA:  13    -0.345618200210E+03   -0.31922E+01   -0.20462E+01  7072   0.614E+02 0.417E+02
CGA:  14    -0.342101358058E+03    0.35168E+01   -0.33466E+01  7072   0.215E+03-0.827E+02
CGA:  15    -0.347697370220E+03   -0.55960E+01   -0.62055E+01  7072   0.726E+02-0.897E+02
CGA:  16    -0.349906522561E+03   -0.22092E+01   -0.12308E+01  7072   0.293E+02 0.294E+02
CGA:  17    -0.348724528009E+03    0.11820E+01   -0.13991E+01  7072   0.149E+03-0.762E+02
CGA:  18    -0.347053163392E+03    0.16714E+01   -0.72936E+01  7072   0.834E+02-0.537E+02
CGA:  19    -0.348874560852E+03   -0.18214E+01   -0.79524E+00  7072   0.865E+02 0.725E+02
CGA:  20    -0.351584805268E+03   -0.27102E+01   -0.18775E+01  7072   0.308E+02-0.776E+02
CGA:  21    -0.351071169520E+03    0.51364E+00   -0.10987E+01  7072   0.680E+02-0.338E+02
CGA:  22    -0.350591386131E+03    0.47978E+00   -0.19840E+01  7072   0.118E+03-0.861E+02
CGA:  23    -0.348994023345E+03    0.15974E+01   -0.47592E+01  7072   0.930E+02-0.595E+02
CGA:  24    -0.352538390269E+03   -0.35444E+01   -0.18212E+01  7072   0.323E+01 0.608E+00
CGA:  25    -0.352683848614E+03   -0.14546E+00   -0.15647E+00  7072   0.739E+01-0.142E+00
CGA:  26    -0.352918757068E+03   -0.23491E+00   -0.29199E+00  7072   0.117E+02-0.115E+01
CGA:  27    -0.353528748327E+03   -0.60999E+00   -0.38487E+00  7072   0.708E+01 0.208E+01
CGA:  28    -0.353633397065E+03   -0.10465E+00   -0.37318E+00  7072   0.435E+01-0.132E+01
CGA:  29    -0.353741233364E+03   -0.10784E+00   -0.11913E+00  7072   0.261E+01-0.261E+00
CGA:  30    -0.353882425144E+03   -0.14119E+00   -0.12684E+00  7072   0.972E+00 0.193E+00
CGA:  31    -0.353947323873E+03   -0.64899E-01   -0.63953E-01  7072   0.209E+01-0.305E-02
CGA:  32    -0.354078578533E+03   -0.13125E+00   -0.12827E+00  7072   0.273E+01-0.328E-01
CGA:  33    -0.354142701188E+03   -0.64123E-01   -0.76882E-01  7072   0.891E+00-0.444E+00
CGA:  34    -0.354170028999E+03   -0.27328E-01   -0.31428E-01  7072   0.779E+00-0.384E-01
CGA:  35    -0.354198672597E+03   -0.28644E-01   -0.29690E-01  7072   0.380E+00-0.106E-01
CGA:  36    -0.354244137961E+03   -0.45465E-01   -0.46833E-01  7072   0.119E+01-0.267E-01
CGA:  37    -0.354296840533E+03   -0.52703E-01   -0.54255E-01  7072   0.858E+00 0.903E-02
CGA:  38    -0.354334522980E+03   -0.37682E-01   -0.41808E-01  7072   0.844E+00-0.152E-01
CGA:  39    -0.354401298426E+03   -0.66775E-01   -0.94444E-01  7072   0.139E+01-0.673E+00
CGA:  40    -0.354453600657E+03   -0.52302E-01   -0.50532E-01  7072   0.521E+00 0.242E-01
CGA:  41    -0.354510995664E+03   -0.57395E-01   -0.58067E-01  7072   0.469E+00-0.167E-01
CGA:  42    -0.354574792109E+03   -0.63796E-01   -0.67419E-01  7072   0.633E+00-0.509E-01
CGA:  43    -0.354607905033E+03   -0.33113E-01   -0.32005E-01  7072   0.582E+00-0.923E-03
CGA:  44    -0.354643490852E+03   -0.35586E-01   -0.34592E-01  7072   0.402E+00-0.559E-02
CGA:  45    -0.354688563470E+03   -0.45073E-01   -0.44851E-01  7072   0.896E+00 0.392E-02
CGA:  46    -0.354728011693E+03   -0.39448E-01   -0.40286E-01  7072   0.589E+00-0.301E-01
CGA:  47    -0.354757756266E+03   -0.29745E-01   -0.29239E-01  7072   0.219E+00 0.301E-02
CGA:  48    -0.354770936220E+03   -0.13180E-01   -0.12886E-01  7072   0.303E+00-0.240E-02
CGA:  49    -0.354788918450E+03   -0.17982E-01   -0.18244E-01  7072   0.256E+00 0.421E-02
CGA:  50    -0.354800667847E+03   -0.11749E-01   -0.12223E-01  7072   0.167E+00-0.159E-02
CGA:  51    -0.354813899007E+03   -0.13231E-01   -0.13392E-01  7072   0.293E+00-0.153E-01
CGA:  52    -0.354826128578E+03   -0.12230E-01   -0.12069E-01  7072   0.275E+00-0.231E-02
CGA:  53    -0.354833762153E+03   -0.76336E-02   -0.80372E-02  7072   0.129E+00-0.747E-02
CGA:  54    -0.354838732877E+03   -0.49707E-02   -0.50079E-02  7072   0.122E+00 0.398E-04
CGA:  55    -0.354845572536E+03   -0.68397E-02   -0.68202E-02  7072   0.162E+00-0.261E-03
CGA:  56    -0.354853649167E+03   -0.80766E-02   -0.77826E-02  7072   0.209E+00-0.972E-03
CGA:  57    -0.354862516543E+03   -0.88674E-02   -0.86432E-02  7072   0.235E+00 0.973E-03
CGA:  58    -0.354869659539E+03   -0.71430E-02   -0.65374E-02  7072   0.159E+00 0.167E-01
CGA:  59    -0.354874998719E+03   -0.53392E-02   -0.48374E-02  7072   0.170E+00 0.119E-01
CGA:  60    -0.354880272811E+03   -0.52741E-02   -0.50373E-02  7072   0.157E+00 0.533E-02
CGA:  61    -0.354883621407E+03   -0.33486E-02   -0.36496E-02  7072   0.999E-01-0.905E-02
CGA:  62    -0.354886663662E+03   -0.30423E-02   -0.32082E-02  7072   0.142E+00-0.104E-02
CGA:  63    -0.354892591009E+03   -0.59273E-02   -0.58481E-02  7072   0.100E+00-0.355E-03
CGA:  64    -0.354894774840E+03   -0.21838E-02   -0.21255E-02  7072   0.482E-01 0.191E-02
CGA:  65    -0.354897005153E+03   -0.22303E-02   -0.22228E-02  7072   0.979E-01-0.226E-03
CGA:  66    -0.354900812178E+03   -0.38070E-02   -0.37749E-02  7072   0.937E-01-0.129E-03
CGA:  67    -0.354902873079E+03   -0.20609E-02   -0.19578E-02  7072   0.621E-01 0.346E-02
CGA:  68    -0.354905173478E+03   -0.23004E-02   -0.22628E-02  7072   0.107E+00-0.325E-04
CGA:  69    -0.354908212371E+03   -0.30389E-02   -0.30756E-02  7072   0.982E-01-0.511E-03
SDA:  70    -0.354910062364E+03   -0.18500E-02   -0.18742E-02  7072   0.520E-01-0.718E-03
CGA:  71    -0.354913979695E+03   -0.39173E-02   -0.39383E-02  7072   0.334E-01-0.675E-03
CGA:  72    -0.354918091772E+03   -0.41121E-02   -0.41697E-02  7072   0.478E-01-0.855E-03
CGA:  73    -0.354923470349E+03   -0.53786E-02   -0.53851E-02  7072   0.837E-01 0.410E-04
CGA:  74    -0.354927000430E+03   -0.35301E-02   -0.34317E-02  7072   0.361E-01-0.471E-03
CGA:  75    -0.354928856701E+03   -0.18563E-02   -0.18578E-02  7072   0.163E-01 0.111E-03
CGA:  76    -0.354930714948E+03   -0.18582E-02   -0.18782E-02  7072   0.222E-01-0.398E-03
CGA:  77    -0.354931728578E+03   -0.10136E-02   -0.10087E-02  7072   0.196E-01-0.117E-03
CGA:  78    -0.354932867912E+03   -0.11393E-02   -0.11393E-02  7072   0.101E-01-0.419E-03
CGA:  79    -0.354933428697E+03   -0.56079E-03   -0.56036E-03  7072   0.296E-02-0.120E-03
CGA:  80    -0.354933540150E+03   -0.11145E-03   -0.11134E-03  7072   0.294E-02 0.863E-05
CGA:  81    -0.354933932051E+03   -0.39190E-03   -0.39728E-03  7072   0.367E-02-0.914E-04
CGA:  82    -0.354934118393E+03   -0.18634E-03   -0.18622E-03  7072   0.236E-02 0.135E-04
CGA:  83    -0.354934220852E+03   -0.10246E-03   -0.10198E-03  7072   0.204E-02 0.108E-04
CGA:  84    -0.354934338079E+03   -0.11723E-03   -0.11693E-03  7072   0.145E-02-0.447E-04
CGA:  85    -0.354934471335E+03   -0.13326E-03   -0.13568E-03  7072   0.308E-02-0.623E-04
CGA:  86    -0.354934568537E+03   -0.97202E-04   -0.92528E-04  7072   0.137E-02 0.775E-04
CGA:  87    -0.354934615348E+03   -0.46811E-04   -0.46410E-04  7072   0.567E-03 0.257E-05
CGA:  88    -0.354934634599E+03   -0.19250E-04   -0.19135E-04  7072   0.642E-03-0.851E-06
CGA:  89    -0.354934693089E+03   -0.58491E-04   -0.59568E-04  7072   0.127E-02-0.285E-04
CGA:  90    -0.354934726484E+03   -0.33395E-04   -0.32365E-04  7072   0.907E-03 0.217E-04
CGA:  91    -0.354934768562E+03   -0.42078E-04   -0.41540E-04  7072   0.959E-03-0.100E-04
CGA:  92    -0.354934788044E+03   -0.19482E-04   -0.18762E-04  7072   0.393E-03 0.276E-04
CGA:  93    -0.354934800060E+03   -0.12017E-04   -0.11973E-04  7072   0.435E-03 0.232E-05
CGA:  94    -0.354934813381E+03   -0.13321E-04   -0.13353E-04  7072   0.461E-03 0.311E-05
CGA:  95    -0.354934830838E+03   -0.17457E-04   -0.17506E-04  7072   0.799E-03 0.412E-05
CGA:  96    -0.354934854729E+03   -0.23891E-04   -0.23575E-04  7072   0.553E-03 0.113E-04
CGA:  97    -0.354934866018E+03   -0.11289E-04   -0.11163E-04  7072   0.384E-03 0.728E-05
CGA:  98    -0.354934879098E+03   -0.13081E-04   -0.13015E-04  7072   0.478E-03-0.335E-06
CGA:  99    -0.354934888974E+03   -0.98756E-05   -0.98007E-05  7072   0.270E-03 0.581E-06
   1 F= -.35493489E+03 E0= -.35491870E+03  d E =-.354935E+03  mag=     8.0000
       N       E                     dE             d eps       ncg     rms          ort
SDA:   1    -0.354921786054E+03    0.13093E-01    0.00000E+00  7072   0.817E+00 0.000E+00
CGA:   2    -0.354934772839E+03   -0.12987E-01   -0.13140E-01  7072   0.168E-01-0.786E-02
CGA:   3    -0.354935591748E+03   -0.81891E-03   -0.81887E-03  7072   0.264E-02 0.438E-05
CGA:   4    -0.354935686483E+03   -0.94735E-04   -0.94732E-04  7072   0.628E-03 0.358E-06
CGA:   5    -0.354935705197E+03   -0.18714E-04   -0.18705E-04  7072   0.329E-03-0.449E-06
CGA:   6    -0.354935745436E+03   -0.40239E-04   -0.40293E-04  7072   0.207E-03-0.678E-06
CGA:   7    -0.354935753786E+03   -0.83501E-05   -0.83382E-05  7072   0.799E-04-0.160E-05
   2 F= -.35493575E+03 E0= -.35491994E+03  d E =-.864812E-03  mag=     8.0000
       N       E                     dE             d eps       ncg     rms          ort
SDA:   1    -0.354930482381E+03    0.52631E-02    0.00000E+00  7072   0.342E+00 0.000E+00
CGA:   2    -0.354936850542E+03   -0.63682E-02   -0.64141E-02  7072   0.559E-01-0.175E-02
CGA:   3    -0.354942927770E+03   -0.60772E-02   -0.60778E-02  7072   0.975E-01-0.306E-05
CGA:   4    -0.354949447364E+03   -0.65196E-02   -0.65162E-02  7072   0.215E-01 0.146E-03
CGA:   5    -0.354950740464E+03   -0.12931E-02   -0.12920E-02  7072   0.222E-01 0.731E-04
CGA:   6    -0.354952083815E+03   -0.13434E-02   -0.13432E-02  7072   0.192E-01 0.190E-04
CGA:   7    -0.354952631859E+03   -0.54804E-03   -0.54694E-03  7072   0.253E-02 0.212E-04
CGA:   8    -0.354952824678E+03   -0.19282E-03   -0.19261E-03  7072   0.184E-02 0.762E-05
CGA:   9    -0.354952965089E+03   -0.14041E-03   -0.14047E-03  7072   0.132E-02-0.208E-05
CGA:  10    -0.354953016786E+03   -0.51697E-04   -0.51678E-04  7072   0.846E-03-0.207E-05
CGA:  11    -0.354953048388E+03   -0.31601E-04   -0.31562E-04  7072   0.207E-03-0.274E-05
CGA:  12    -0.354953075454E+03   -0.27067E-04   -0.27003E-04  7072   0.264E-03 0.821E-06
CGA:  13    -0.354953087176E+03   -0.11722E-04   -0.11716E-04  7072   0.119E-03-0.511E-06
CGA:  14    -0.354953092575E+03   -0.53991E-05   -0.53966E-05  7072   0.991E-04-0.270E-06
   3 F= -.35495309E+03 E0= -.35493727E+03  d E =-.173388E-01  mag=     8.0000
       N       E                     dE             d eps       ncg     rms          ort
SDA:   1    -0.354836042862E+03    0.11704E+00    0.00000E+00  7072   0.472E+00 0.000E+00
CGA:   2    -0.354915767506E+03   -0.79725E-01   -0.80400E-01  7072   0.141E+01-0.682E-02
CGA:   3    -0.354955742849E+03   -0.39975E-01   -0.40421E-01  7072   0.342E+00-0.848E-02
CGA:   4    -0.354971497829E+03   -0.15755E-01   -0.15792E-01  7072   0.244E+00 0.888E-03
CGA:   5    -0.354992799439E+03   -0.21302E-01   -0.21314E-01  7072   0.982E-01-0.305E-03
CGA:   6    -0.354998188650E+03   -0.53892E-02   -0.53890E-02  7072   0.350E-01-0.278E-04
CGA:   7    -0.355000427021E+03   -0.22384E-02   -0.22390E-02  7072   0.282E-01-0.624E-04
CGA:   8    -0.355001341409E+03   -0.91439E-03   -0.91225E-03  7072   0.154E-01 0.225E-04
CGA:   9    -0.355002557136E+03   -0.12157E-02   -0.12158E-02  7072   0.418E-02-0.241E-05
CGA:  10    -0.355002826333E+03   -0.26920E-03   -0.26921E-03  7072   0.323E-02-0.230E-05
CGA:  11    -0.355003065773E+03   -0.23944E-03   -0.23938E-03  7072   0.220E-02 0.203E-05
CGA:  12    -0.355003160944E+03   -0.95170E-04   -0.95152E-04  7072   0.195E-02-0.983E-06
CGA:  13    -0.355003254067E+03   -0.93123E-04   -0.93123E-04  7072   0.728E-03 0.452E-06
CGA:  14    -0.355003291058E+03   -0.36991E-04   -0.36982E-04  7072   0.371E-03-0.882E-06
CGA:  15    -0.355003353369E+03   -0.62311E-04   -0.62209E-04  7072   0.362E-03 0.925E-06
CGA:  16    -0.355003366657E+03   -0.13288E-04   -0.13284E-04  7072   0.256E-03-0.211E-06
CGA:  17    -0.355003380238E+03   -0.13581E-04   -0.13586E-04  7072   0.187E-03 0.486E-06
CGA:  18    -0.355003396480E+03   -0.16242E-04   -0.16224E-04  7072   0.161E-03 0.716E-06
CGA:  19    -0.355003412127E+03   -0.15647E-04   -0.15649E-04  7072   0.164E-03-0.701E-07
CGA:  20    -0.355003419315E+03   -0.71883E-05   -0.71926E-05  7072   0.792E-04 0.254E-06
   4 F= -.35500342E+03 E0= -.35498762E+03  d E =-.503267E-01  mag=     8.0000
       N       E                     dE             d eps       ncg     rms          ort
SDA:   1    -0.354600306032E+03    0.40311E+00    0.00000E+00  7072   0.173E+01 0.000E+00
CGA:   2    -0.354694511177E+03   -0.94205E-01   -0.94309E-01  7072   0.323E+01 0.407E-02
CGA:   3    -0.354930034019E+03   -0.23552E+00   -0.23617E+00  7072   0.126E+01-0.395E-01
CGA:   4    -0.354983479832E+03   -0.53446E-01   -0.53872E-01  7072   0.612E+00 0.229E-02
CGA:   5    -0.355035900713E+03   -0.52421E-01   -0.52594E-01  7072   0.502E+00-0.558E-02
CGA:   6    -0.355053976720E+03   -0.18076E-01   -0.18092E-01  7072   0.317E+00-0.218E-03
CGA:   7    -0.355067585593E+03   -0.13609E-01   -0.13621E-01  7072   0.594E-01 0.486E-04
CGA:   8    -0.355071635339E+03   -0.40497E-02   -0.40479E-02  7072   0.458E-01 0.161E-03
CGA:   9    -0.355075026331E+03   -0.33910E-02   -0.33942E-02  7072   0.448E-01-0.175E-03
CGA:  10    -0.355076234253E+03   -0.12079E-02   -0.12123E-02  7072   0.100E-01-0.103E-03
CGA:  11    -0.355076985315E+03   -0.75106E-03   -0.75066E-03  7072   0.736E-02 0.200E-04
CGA:  12    -0.355077458356E+03   -0.47304E-03   -0.47295E-03  7072   0.574E-02 0.147E-04
CGA:  13    -0.355077823406E+03   -0.36505E-03   -0.36507E-03  7072   0.498E-02-0.793E-05
CGA:  14    -0.355077972253E+03   -0.14885E-03   -0.14897E-03  7072   0.140E-02-0.453E-05
CGA:  15    -0.355078080632E+03   -0.10838E-03   -0.10837E-03  7072   0.148E-02 0.273E-06
CGA:  16    -0.355078214984E+03   -0.13435E-03   -0.13421E-03  7072   0.108E-02 0.413E-05
CGA:  17    -0.355078268344E+03   -0.53359E-04   -0.53352E-04  7072   0.121E-02-0.113E-05
CGA:  18    -0.355078322630E+03   -0.54286E-04   -0.54322E-04  7072   0.350E-03-0.462E-06
CGA:  19    -0.355078370167E+03   -0.47536E-04   -0.47388E-04  7072   0.825E-03 0.180E-05
CGA:  20    -0.355078419324E+03   -0.49158E-04   -0.49172E-04  7072   0.403E-03 0.221E-05
CGA:  21    -0.355078434377E+03   -0.15053E-04   -0.15057E-04  7072   0.294E-03 0.111E-06
CGA:  22    -0.355078453554E+03   -0.19177E-04   -0.19174E-04  7072   0.187E-03 0.130E-05
CGA:  23    -0.355078471484E+03   -0.17929E-04   -0.17868E-04  7072   0.193E-03 0.176E-05
CGA:  24    -0.355078483015E+03   -0.11532E-04   -0.11541E-04  7072   0.135E-03 0.176E-05
CGA:  25    -0.355078487059E+03   -0.40439E-05   -0.40500E-05  7072   0.502E-04 0.999E-07
   5 F= -.35507849E+03 E0= -.35506273E+03  d E =-.750677E-01  mag=     8.0000
       N       E                     dE             d eps       ncg     rms          ort
SDA:   1    -0.353428016335E+03    0.16505E+01    0.00000E+00  7072   0.586E+01 0.000E+00
CGA:   2    -0.353886285557E+03   -0.45827E+00   -0.45474E+00  7072   0.142E+02 0.211E+00
CGA:   3    -0.354647017644E+03   -0.76073E+00   -0.75028E+00  7072   0.363E+01-0.921E-01
CGA:   4    -0.354871442809E+03   -0.22443E+00   -0.22404E+00  7072   0.304E+01-0.389E-01
CGA:   5    -0.354988906018E+03   -0.11746E+00   -0.10959E+00  7072   0.159E+01 0.911E-01
CGA:   6    -0.355097208931E+03   -0.10830E+00   -0.10826E+00  7072   0.129E+01 0.183E-01
CGA:   7    -0.355148275938E+03   -0.51067E-01   -0.50998E-01  7072   0.216E+00 0.130E-02
CGA:   8    -0.355160413710E+03   -0.12138E-01   -0.12171E-01  7072   0.245E+00 0.174E-02
CGA:   9    -0.355172057459E+03   -0.11644E-01   -0.11621E-01  7072   0.149E+00-0.235E-03
CGA:  10    -0.355178782902E+03   -0.67254E-02   -0.67730E-02  7072   0.509E-01 0.381E-03
CGA:  11    -0.355181984031E+03   -0.32011E-02   -0.32012E-02  7072   0.286E-01-0.304E-04
CGA:  12    -0.355183077024E+03   -0.10930E-02   -0.10977E-02  7072   0.251E-01-0.141E-04
CGA:  13    -0.355185374228E+03   -0.22972E-02   -0.22992E-02  7072   0.110E-01-0.609E-04
CGA:  14    -0.355185827919E+03   -0.45369E-03   -0.45482E-03  7072   0.697E-02 0.382E-05
CGA:  15    -0.355186227943E+03   -0.40002E-03   -0.40003E-03  7072   0.724E-02 0.148E-05
CGA:  16    -0.355186655822E+03   -0.42788E-03   -0.42797E-03  7072   0.512E-02 0.287E-04
CGA:  17    -0.355186998882E+03   -0.34306E-03   -0.34305E-03  7072   0.424E-02 0.929E-06
CGA:  18    -0.355187193818E+03   -0.19494E-03   -0.19521E-03  7072   0.252E-02 0.357E-05
CGA:  19    -0.355187312939E+03   -0.11912E-03   -0.11918E-03  7072   0.225E-02 0.122E-05
CGA:  20    -0.355187579848E+03   -0.26691E-03   -0.26568E-03  7072   0.195E-02 0.209E-04
CGA:  21    -0.355187664270E+03   -0.84421E-04   -0.84415E-04  7072   0.172E-02 0.220E-06
CGA:  22    -0.355187759097E+03   -0.94827E-04   -0.94864E-04  7072   0.736E-03 0.250E-05
CGA:  23    -0.355187817971E+03   -0.58874E-04   -0.58849E-04  7072   0.101E-02 0.119E-05
CGA:  24    -0.355187874731E+03   -0.56760E-04   -0.56789E-04  7072   0.796E-03 0.437E-05
CGA:  25    -0.355187903875E+03   -0.29145E-04   -0.29168E-04  7072   0.216E-03 0.116E-05
CGA:  26    -0.355187923977E+03   -0.20102E-04   -0.20115E-04  7072   0.349E-03-0.518E-06
CGA:  27    -0.355187941030E+03   -0.17052E-04   -0.17040E-04  7072   0.226E-03-0.892E-06
CGA:  28    -0.355187952801E+03   -0.11771E-04   -0.11779E-04  7072   0.169E-03 0.681E-06
CGA:  29    -0.355187961252E+03   -0.84513E-05   -0.84552E-05  7072   0.617E-04 0.282E-06
   6 F= -.35518796E+03 E0= -.35517227E+03  d E =-.109474E+00  mag=     8.0000
       N       E                     dE             d eps       ncg     rms          ort
SDA:   1    -0.352493723285E+03    0.26942E+01    0.00000E+00  7072   0.105E+02 0.000E+00
CGA:   2    -0.353040974282E+03   -0.54725E+00   -0.55389E+00  7072   0.182E+02 0.208E+00
CGA:   3    -0.354434046837E+03   -0.13931E+01   -0.14116E+01  7072   0.682E+01-0.988E+00
CGA:   4    -0.354749811920E+03   -0.31577E+00   -0.31586E+00  7072   0.539E+01-0.259E-02
CGA:   5    -0.354909873996E+03   -0.16006E+00   -0.12743E+00  7072   0.177E+01 0.102E+01
CGA:   6    -0.355054468942E+03   -0.14459E+00   -0.14493E+00  7072   0.433E+01-0.231E-01
CGA:   7    -0.355165709740E+03   -0.11124E+00   -0.11646E+00  7072   0.162E+01-0.102E+00
CGA:   8    -0.355204858390E+03   -0.39149E-01   -0.39873E-01  7072   0.718E+00-0.174E-01
CGA:   9    -0.355219802093E+03   -0.14944E-01   -0.14771E-01  7072   0.241E+00 0.569E-02
CGA:  10    -0.355230459073E+03   -0.10657E-01   -0.10640E-01  7072   0.413E+00-0.388E-03
CGA:  11    -0.355245781564E+03   -0.15322E-01   -0.15430E-01  7072   0.290E+00 0.445E-03
CGA:  12    -0.355253521999E+03   -0.77404E-02   -0.79470E-02  7072   0.121E+00-0.348E-02
CGA:  13    -0.355256396146E+03   -0.28741E-02   -0.28849E-02  7072   0.574E-01-0.274E-03
CGA:  14    -0.355258817102E+03   -0.24210E-02   -0.24238E-02  7072   0.476E-01 0.769E-04
CGA:  15    -0.355260150762E+03   -0.13337E-02   -0.13436E-02  7072   0.350E-01-0.119E-03
CGA:  16    -0.355262649285E+03   -0.24985E-02   -0.24922E-02  7072   0.472E-01 0.235E-03
CGA:  17    -0.355263724369E+03   -0.10751E-02   -0.10736E-02  7072   0.149E-01 0.203E-04
CGA:  18    -0.355264332814E+03   -0.60844E-03   -0.60877E-03  7072   0.107E-01-0.114E-05
CGA:  19    -0.355264695610E+03   -0.36280E-03   -0.36377E-03  7072   0.108E-01 0.101E-04
CGA:  20    -0.355265366058E+03   -0.67045E-03   -0.66895E-03  7072   0.973E-02 0.843E-04
CGA:  21    -0.355265681445E+03   -0.31539E-03   -0.31552E-03  7072   0.893E-02 0.244E-05
CGA:  22    -0.355266151952E+03   -0.47051E-03   -0.47019E-03  7072   0.519E-02 0.365E-04
CGA:  23    -0.355266295819E+03   -0.14387E-03   -0.14405E-03  7072   0.338E-02 0.633E-06
CGA:  24    -0.355266495993E+03   -0.20017E-03   -0.20003E-03  7072   0.492E-02 0.941E-05
CGA:  25    -0.355266774626E+03   -0.27863E-03   -0.27852E-03  7072   0.593E-02 0.101E-04
CGA:  26    -0.355266948590E+03   -0.17396E-03   -0.17446E-03  7072   0.257E-02 0.847E-06
CGA:  27    -0.355267079197E+03   -0.13061E-03   -0.13061E-03  7072   0.236E-02-0.824E-07
CGA:  28    -0.355267155094E+03   -0.75897E-04   -0.75808E-04  7072   0.173E-02-0.261E-05
CGA:  29    -0.355267262601E+03   -0.10751E-03   -0.10751E-03  7072   0.214E-02-0.174E-05
CGA:  30    -0.355267360537E+03   -0.97935E-04   -0.97942E-04  7072   0.254E-02 0.231E-05
CGA:  31    -0.355267445471E+03   -0.84934E-04   -0.84932E-04  7072   0.530E-03 0.688E-06
SDA:  32    -0.355267465602E+03   -0.20131E-04   -0.20127E-04  7072   0.662E-03-0.486E-06
CGA:  33    -0.355267482354E+03   -0.16752E-04   -0.16770E-04  7072   0.316E-03 0.332E-06
CGA:  34    -0.355267524206E+03   -0.41852E-04   -0.41813E-04  7072   0.490E-03 0.240E-06
CGA:  35    -0.355267555448E+03   -0.31242E-04   -0.31204E-04  7072   0.246E-03 0.239E-05
CGA:  36    -0.355267570926E+03   -0.15478E-04   -0.15471E-04  7072   0.147E-03 0.451E-06
CGA:  37    -0.355267579224E+03   -0.82975E-05   -0.82992E-05  7072   0.187E-03-0.382E-06
CGA:  38    -0.355267591564E+03   -0.12341E-04   -0.12377E-04  7072   0.223E-03-0.243E-05
CGA:  39    -0.355267603988E+03   -0.12424E-04   -0.12434E-04  7072   0.571E-04-0.228E-05
CGA:  40    -0.355267609390E+03   -0.54015E-05   -0.53880E-05  7072   0.518E-04 0.204E-06
   7 F= -.35526761E+03 E0= -.35525193E+03  d E =-.796481E-01  mag=     8.0000
       N       E                     dE             d eps       ncg     rms          ort
SDA:   1    -0.351584381801E+03    0.36832E+01    0.00000E+00  7072   0.107E+02 0.000E+00
CGA:   2    -0.352897278360E+03   -0.13129E+01   -0.12591E+01  7072   0.328E+02 0.948E+00
CGA:   3    -0.354351076570E+03   -0.14538E+01   -0.14066E+01  7072   0.687E+01-0.504E-01
CGA:   4    -0.354708334406E+03   -0.35726E+00   -0.35852E+00  7072   0.494E+01 0.978E-01
CGA:   5    -0.354951658426E+03   -0.24332E+00   -0.24023E+00  7072   0.428E+01-0.102E+00
CGA:   6    -0.355157864782E+03   -0.20621E+00   -0.20751E+00  7072   0.200E+01 0.631E-01
CGA:   7    -0.355238996862E+03   -0.81132E-01   -0.81458E-01  7072   0.391E+00 0.365E-02
CGA:   8    -0.355262482139E+03   -0.23485E-01   -0.23520E-01  7072   0.325E+00-0.434E-02
CGA:   9    -0.355285366558E+03   -0.22884E-01   -0.22904E-01  7072   0.362E+00-0.869E-03
CGA:  10    -0.355295637220E+03   -0.10271E-01   -0.10410E-01  7072   0.656E-01-0.224E-02
CGA:  11    -0.355300188998E+03   -0.45518E-02   -0.45503E-02  7072   0.430E-01 0.759E-04
CGA:  12    -0.355303186122E+03   -0.29971E-02   -0.29885E-02  7072   0.399E-01 0.448E-03
CGA:  13    -0.355305368888E+03   -0.21828E-02   -0.21829E-02  7072   0.341E-01 0.119E-04
CGA:  14    -0.355306601336E+03   -0.12324E-02   -0.12364E-02  7072   0.102E-01-0.142E-04
CGA:  15    -0.355307254438E+03   -0.65310E-03   -0.65300E-03  7072   0.927E-02 0.762E-05
CGA:  16    -0.355308136829E+03   -0.88239E-03   -0.87601E-03  7072   0.814E-02 0.151E-03
CGA:  17    -0.355308580997E+03   -0.44417E-03   -0.44419E-03  7072   0.931E-02 0.287E-05
CGA:  18    -0.355309012952E+03   -0.43196E-03   -0.43277E-03  7072   0.385E-02 0.198E-04
CGA:  19    -0.355309321235E+03   -0.30828E-03   -0.30818E-03  7072   0.454E-02 0.364E-05
CGA:  20    -0.355309801988E+03   -0.48075E-03   -0.47901E-03  7072   0.470E-02 0.363E-04
CGA:  21    -0.355309975355E+03   -0.17337E-03   -0.17333E-03  7072   0.235E-02 0.114E-05
CGA:  22    -0.355310097625E+03   -0.12227E-03   -0.12227E-03  7072   0.196E-02 0.826E-07
CGA:  23    -0.355310258217E+03   -0.16059E-03   -0.16064E-03  7072   0.158E-02-0.184E-05
CGA:  24    -0.355310376124E+03   -0.11791E-03   -0.11775E-03  7072   0.952E-03 0.925E-05
CGA:  25    -0.355310412445E+03   -0.36321E-04   -0.36344E-04  7072   0.618E-03 0.724E-06
CGA:  26    -0.355310450946E+03   -0.38501E-04   -0.38498E-04  7072   0.610E-03 0.124E-05
CGA:  27    -0.355310506490E+03   -0.55544E-04   -0.55514E-04  7072   0.320E-03 0.938E-06
CGA:  28    -0.355310523807E+03   -0.17317E-04   -0.17321E-04  7072   0.270E-03 0.390E-06
CGA:  29    -0.355310537758E+03   -0.13951E-04   -0.13950E-04  7072   0.219E-03-0.133E-06
CGA:  30    -0.355310549313E+03   -0.11554E-04   -0.11557E-04  7072   0.163E-03 0.333E-06
CGA:  31    -0.355310565582E+03   -0.16269E-04   -0.16312E-04  7072   0.104E-03-0.112E-05
SDA:  32    -0.355310570362E+03   -0.47802E-05   -0.47783E-05  7072   0.624E-04-0.164E-06
   8 F= -.35531057E+03 E0= -.35529495E+03  d E =-.429610E-01  mag=     8.0000
       N       E                     dE             d eps       ncg     rms          ort
SDA:   1    -0.349775909550E+03    0.55347E+01    0.00000E+00  7072   0.146E+02 0.000E+00
CGA:   2    -0.352744022258E+03   -0.29681E+01   -0.28630E+01  7072   0.318E+02 0.812E+00
CGA:   3    -0.354086347299E+03   -0.13423E+01   -0.13204E+01  7072   0.110E+02 0.545E+00
CGA:   4    -0.354490982497E+03   -0.40464E+00   -0.40804E+00  7072   0.611E+01-0.358E-01
CGA:   5    -0.354974151622E+03   -0.48317E+00   -0.48893E+00  7072   0.517E+01-0.256E+00
CGA:   6    -0.355184509238E+03   -0.21036E+00   -0.21606E+00  7072   0.108E+01 0.232E-01
CGA:   7    -0.355246430074E+03   -0.61921E-01   -0.62185E-01  7072   0.396E+00 0.173E-01
CGA:   8    -0.355292580596E+03   -0.46151E-01   -0.46053E-01  7072   0.610E+00 0.179E-02
CGA:   9    -0.355308681949E+03   -0.16101E-01   -0.16376E-01  7072   0.139E+00-0.672E-02
CGA:  10    -0.355316842956E+03   -0.81610E-02   -0.81641E-02  7072   0.824E-01 0.314E-03
CGA:  11    -0.355322590980E+03   -0.57480E-02   -0.57386E-02  7072   0.560E-01 0.934E-03
CGA:  12    -0.355326432519E+03   -0.38415E-02   -0.38390E-02  7072   0.396E-01 0.351E-03
CGA:  13    -0.355328581222E+03   -0.21487E-02   -0.21487E-02  7072   0.951E-02-0.135E-06
CGA:  14    -0.355329734743E+03   -0.11535E-02   -0.11493E-02  7072   0.179E-01 0.713E-04
CGA:  15    -0.355330431450E+03   -0.69671E-03   -0.69846E-03  7072   0.118E-01-0.332E-05
CGA:  16    -0.355331141495E+03   -0.71005E-03   -0.71008E-03  7072   0.482E-02-0.179E-06
CGA:  17    -0.355331502783E+03   -0.36129E-03   -0.36117E-03  7072   0.374E-02 0.723E-05
CGA:  18    -0.355332006924E+03   -0.50414E-03   -0.50314E-03  7072   0.806E-02 0.145E-04
CGA:  19    -0.355332283970E+03   -0.27705E-03   -0.27793E-03  7072   0.269E-02-0.742E-05
CGA:  20    -0.355332425015E+03   -0.14105E-03   -0.14110E-03  7072   0.202E-02 0.149E-05
CGA:  21    -0.355332575964E+03   -0.15095E-03   -0.15091E-03  7072   0.171E-02 0.255E-05
CGA:  22    -0.355332739644E+03   -0.16368E-03   -0.16358E-03  7072   0.135E-02 0.294E-05
CGA:  23    -0.355332790250E+03   -0.50606E-04   -0.50758E-04  7072   0.712E-03 0.170E-05
CGA:  24    -0.355332824441E+03   -0.34191E-04   -0.34221E-04  7072   0.525E-03 0.141E-05
CGA:  25    -0.355332887728E+03   -0.63287E-04   -0.63120E-04  7072   0.346E-03 0.300E-05
CGA:  26    -0.355332912332E+03   -0.24604E-04   -0.24603E-04  7072   0.383E-03 0.575E-06
CGA:  27    -0.355332927639E+03   -0.15306E-04   -0.15333E-04  7072   0.216E-03 0.800E-06
CGA:  28    -0.355332942111E+03   -0.14473E-04   -0.14473E-04  7072   0.184E-03-0.411E-06
CGA:  29    -0.355332962618E+03   -0.20507E-04   -0.20537E-04  7072   0.147E-03-0.691E-06
CGA:  30    -0.355332968413E+03   -0.57943E-05   -0.57835E-05  7072   0.818E-04-0.397E-06
   9 F= -.35533297E+03 E0= -.35531745E+03  d E =-.223981E-01  mag=     8.0000
       N       E                     dE             d eps       ncg     rms          ort
SDA:   1    -0.354924713908E+03    0.40825E+00    0.00000E+00  7072   0.144E+01 0.000E+00
CGA:   2    -0.355022945505E+03   -0.98232E-01   -0.98193E-01  7072   0.255E+01 0.238E-01
CGA:   3    -0.355193596707E+03   -0.17065E+00   -0.17058E+00  7072   0.188E+01-0.173E-01
CGA:   4    -0.355253593577E+03   -0.59997E-01   -0.60057E-01  7072   0.488E+00 0.583E-05
CGA:   5    -0.355308173243E+03   -0.54580E-01   -0.54534E-01  7072   0.301E+00 0.895E-03
CGA:   6    -0.355326886968E+03   -0.18714E-01   -0.18708E-01  7072   0.125E+00-0.352E-03
CGA:   7    -0.355333783935E+03   -0.68970E-02   -0.68841E-02  7072   0.378E-01-0.271E-03
CGA:   8    -0.355337175034E+03   -0.33911E-02   -0.33908E-02  7072   0.432E-01 0.106E-04
CGA:   9    -0.355339292259E+03   -0.21172E-02   -0.21219E-02  7072   0.163E-01 0.298E-04
CGA:  10    -0.355339820855E+03   -0.52860E-03   -0.52833E-03  7072   0.833E-02-0.109E-05
CGA:  11    -0.355340477891E+03   -0.65704E-03   -0.65693E-03  7072   0.542E-02 0.519E-05
CGA:  12    -0.355340884030E+03   -0.40614E-03   -0.40606E-03  7072   0.320E-02 0.688E-05
CGA:  13    -0.355341069019E+03   -0.18499E-03   -0.18511E-03  7072   0.129E-02 0.748E-05
CGA:  14    -0.355341139122E+03   -0.70103E-04   -0.70075E-04  7072   0.146E-02-0.155E-05
CGA:  15    -0.355341214705E+03   -0.75583E-04   -0.75636E-04  7072   0.896E-03 0.874E-06
CGA:  16    -0.355341272939E+03   -0.58234E-04   -0.58234E-04  7072   0.623E-03 0.223E-05
CGA:  17    -0.355341312482E+03   -0.39543E-04   -0.39547E-04  7072   0.168E-03 0.208E-05
CGA:  18    -0.355341331276E+03   -0.18794E-04   -0.18838E-04  7072   0.509E-03-0.109E-05
CGA:  19    -0.355341356739E+03   -0.25463E-04   -0.25457E-04  7072   0.226E-03-0.957E-06
CGA:  20    -0.355341366176E+03   -0.94372E-05   -0.94316E-05  7072   0.861E-04-0.453E-06
  10 F= -.35534137E+03 E0= -.35532605E+03  d E =-.839776E-02  mag=     8.0000
       N       E                     dE             d eps       ncg     rms          ort
SDA:   1    -0.355317624899E+03    0.23732E-01    0.00000E+00  7072   0.198E+00 0.000E+00
CGA:   2    -0.355324028979E+03   -0.64041E-02   -0.64487E-02  7072   0.739E-01-0.672E-03
CGA:   3    -0.355330443408E+03   -0.64144E-02   -0.64206E-02  7072   0.153E+00-0.204E-03
CGA:   4    -0.355337015719E+03   -0.65723E-02   -0.65882E-02  7072   0.504E-01-0.449E-05
CGA:   5    -0.355340032335E+03   -0.30166E-02   -0.30154E-02  7072   0.213E-01-0.864E-04
CGA:   6    -0.355341478543E+03   -0.14462E-02   -0.14462E-02  7072   0.101E-01 0.107E-04
CGA:   7    -0.355342385740E+03   -0.90720E-03   -0.90623E-03  7072   0.330E-02 0.336E-04
CGA:   8    -0.355342518462E+03   -0.13272E-03   -0.13260E-03  7072   0.229E-02 0.533E-06
CGA:   9    -0.355342635428E+03   -0.11697E-03   -0.11701E-03  7072   0.161E-02 0.700E-06
CGA:  10    -0.355342726422E+03   -0.90994E-04   -0.90988E-04  7072   0.713E-03-0.769E-07
CGA:  11    -0.355342772659E+03   -0.46236E-04   -0.46235E-04  7072   0.291E-03 0.159E-05
CGA:  12    -0.355342790310E+03   -0.17651E-04   -0.17656E-04  7072   0.208E-03 0.119E-05
CGA:  13    -0.355342808543E+03   -0.18233E-04   -0.18196E-04  7072   0.224E-03 0.158E-05
CGA:  14    -0.355342815266E+03   -0.67229E-05   -0.67399E-05  7072   0.731E-04 0.498E-06
  11 F= -.35534282E+03 E0= -.35532747E+03  d E =-.144909E-02  mag=     8.0000
       N       E                     dE             d eps       ncg     rms          ort
SDA:   1    -0.355155358461E+03    0.18745E+00    0.00000E+00  7072   0.477E+00 0.000E+00
CGA:   2    -0.355271539044E+03   -0.11618E+00   -0.11662E+00  7072   0.111E+01-0.300E-02
CGA:   3    -0.355310935264E+03   -0.39396E-01   -0.40201E-01  7072   0.222E+00-0.998E-02
CGA:   4    -0.355323242288E+03   -0.12307E-01   -0.12325E-01  7072   0.273E+00 0.289E-03
CGA:   5    -0.355336702312E+03   -0.13460E-01   -0.13426E-01  7072   0.985E-01-0.106E-03
CGA:   6    -0.355341418963E+03   -0.47167E-02   -0.47058E-02  7072   0.357E-01-0.257E-04
CGA:   7    -0.355343751024E+03   -0.23321E-02   -0.23327E-02  7072   0.158E-01 0.108E-03
CGA:   8    -0.355344431917E+03   -0.68089E-03   -0.68132E-03  7072   0.159E-01 0.351E-05
CGA:   9    -0.355345548232E+03   -0.11163E-02   -0.11164E-02  7072   0.329E-02-0.829E-05
CGA:  10    -0.355345787175E+03   -0.23894E-03   -0.23890E-03  7072   0.298E-02 0.636E-05
CGA:  11    -0.355345907856E+03   -0.12068E-03   -0.12068E-03  7072   0.177E-02 0.130E-05
CGA:  12    -0.355346012786E+03   -0.10493E-03   -0.10495E-03  7072   0.127E-02 0.256E-05
CGA:  13    -0.355346090362E+03   -0.77576E-04   -0.77582E-04  7072   0.380E-03 0.146E-05
CGA:  14    -0.355346107672E+03   -0.17310E-04   -0.17325E-04  7072   0.302E-03 0.635E-06
CGA:  15    -0.355346132478E+03   -0.24806E-04   -0.24802E-04  7072   0.475E-03 0.258E-06
CGA:  16    -0.355346153912E+03   -0.21434E-04   -0.21445E-04  7072   0.107E-03 0.579E-06
CGA:  17    -0.355346162829E+03   -0.89166E-05   -0.89343E-05  7072   0.115E-03-0.918E-06
  12 F= -.35534616E+03 E0= -.35533082E+03  d E =-.334756E-02  mag=     8.0000
       N       E                     dE             d eps       ncg     rms          ort
SDA:   1    -0.354368258873E+03    0.97790E+00    0.00000E+00  7072   0.281E+01 0.000E+00
CGA:   2    -0.354615734477E+03   -0.24748E+00   -0.24614E+00  7072   0.829E+01 0.483E-01
CGA:   3    -0.355115541400E+03   -0.49981E+00   -0.49789E+00  7072   0.228E+01-0.107E+00
CGA:   4    -0.355223132583E+03   -0.10759E+00   -0.11043E+00  7072   0.819E+00 0.281E-01
CGA:   5    -0.355279298823E+03   -0.56166E-01   -0.56172E-01  7072   0.886E+00-0.919E-03
CGA:   6    -0.355319782626E+03   -0.40484E-01   -0.40476E-01  7072   0.456E+00-0.961E-04
CGA:   7    -0.355336101927E+03   -0.16319E-01   -0.16228E-01  7072   0.952E-01 0.105E-02
CGA:   8    -0.355341300398E+03   -0.51985E-02   -0.52033E-02  7072   0.625E-01 0.221E-03
CGA:   9    -0.355347944113E+03   -0.66437E-02   -0.66451E-02  7072   0.413E-01-0.263E-04
CGA:  10    -0.355349203038E+03   -0.12589E-02   -0.12657E-02  7072   0.164E-01-0.106E-03
CGA:  11    -0.355350078654E+03   -0.87562E-03   -0.87515E-03  7072   0.988E-02-0.167E-04
CGA:  12    -0.355350795877E+03   -0.71722E-03   -0.71654E-03  7072   0.598E-02 0.419E-04
CGA:  13    -0.355351249365E+03   -0.45349E-03   -0.45349E-03  7072   0.519E-02-0.942E-06
CGA:  14    -0.355351403198E+03   -0.15383E-03   -0.15422E-03  7072   0.138E-02-0.449E-05
CGA:  15    -0.355351510749E+03   -0.10755E-03   -0.10752E-03  7072   0.154E-02 0.116E-05
CGA:  16    -0.355351634706E+03   -0.12396E-03   -0.12390E-03  7072   0.118E-02 0.177E-05
CGA:  17    -0.355351691633E+03   -0.56927E-04   -0.56908E-04  7072   0.755E-03-0.135E-05
CGA:  18    -0.355351725556E+03   -0.33922E-04   -0.33945E-04  7072   0.463E-03 0.157E-06
CGA:  19    -0.355351756714E+03   -0.31158E-04   -0.31160E-04  7072   0.420E-03-0.655E-06
CGA:  20    -0.355351812589E+03   -0.55875E-04   -0.55801E-04  7072   0.367E-03 0.101E-05
CGA:  21    -0.355351823051E+03   -0.10462E-04   -0.10449E-04  7072   0.141E-03-0.551E-06
CGA:  22    -0.355351837411E+03   -0.14360E-04   -0.14358E-04  7072   0.211E-03-0.841E-07
CGA:  23    -0.355351854158E+03   -0.16747E-04   -0.16742E-04  7072   0.103E-03 0.256E-06
CGA:  24    -0.355351858277E+03   -0.41186E-05   -0.41355E-05  7072   0.683E-04 0.541E-06
  13 F= -.35535186E+03 E0= -.35533656E+03  d E =-.569545E-02  mag=     8.0000
       N       E                     dE             d eps       ncg     rms          ort
SDA:   1    -0.351725602006E+03    0.36263E+01    0.00000E+00  7072   0.992E+01 0.000E+00
CGA:   2    -0.353327044274E+03   -0.16014E+01   -0.16114E+01  7072   0.269E+02-0.208E+00
CGA:   3    -0.354383840954E+03   -0.10568E+01   -0.10715E+01  7072   0.660E+01 0.285E+00
CGA:   4    -0.354665764990E+03   -0.28192E+00   -0.27166E+00  7072   0.586E+01 0.889E-01
CGA:   5    -0.355111857650E+03   -0.44609E+00   -0.44645E+00  7072   0.231E+01-0.278E-01
CGA:   6    -0.355213250524E+03   -0.10139E+00   -0.10508E+00  7072   0.946E+00 0.771E-02
CGA:   7    -0.355247593452E+03   -0.34343E-01   -0.33881E-01  7072   0.630E+00 0.487E-02
CGA:   8    -0.355283455064E+03   -0.35862E-01   -0.35817E-01  7072   0.331E+00-0.190E-02
CGA:   9    -0.355306842739E+03   -0.23388E-01   -0.23398E-01  7072   0.149E+00-0.885E-03
CGA:  10    -0.355313117661E+03   -0.62749E-02   -0.62865E-02  7072   0.128E+00 0.138E-04
CGA:  11    -0.355318925803E+03   -0.58081E-02   -0.58420E-02  7072   0.466E-01 0.235E-03
CGA:  12    -0.355322854491E+03   -0.39287E-02   -0.39098E-02  7072   0.467E-01 0.675E-03
CGA:  13    -0.355325419484E+03   -0.25650E-02   -0.25653E-02  7072   0.176E-01-0.115E-05
CGA:  14    -0.355325997962E+03   -0.57848E-03   -0.57911E-03  7072   0.862E-02-0.191E-04
CGA:  15    -0.355326678486E+03   -0.68052E-03   -0.68004E-03  7072   0.128E-01 0.167E-04
CGA:  16    -0.355327509381E+03   -0.83090E-03   -0.83070E-03  7072   0.389E-02 0.475E-04
CGA:  17    -0.355327828968E+03   -0.31959E-03   -0.31944E-03  7072   0.246E-02 0.456E-05
CGA:  18    -0.355327957364E+03   -0.12840E-03   -0.12846E-03  7072   0.313E-02 0.200E-05
CGA:  19    -0.355328187020E+03   -0.22966E-03   -0.22948E-03  7072   0.315E-02 0.121E-04
CGA:  20    -0.355328394236E+03   -0.20722E-03   -0.20721E-03  7072   0.638E-03 0.103E-05
CGA:  21    -0.355328485602E+03   -0.91365E-04   -0.90950E-04  7072   0.127E-02 0.521E-05
CGA:  22    -0.355328541316E+03   -0.55714E-04   -0.55846E-04  7072   0.887E-03 0.350E-05
CGA:  23    -0.355328588206E+03   -0.46890E-04   -0.46931E-04  7072   0.469E-03 0.235E-05
CGA:  24    -0.355328621362E+03   -0.33156E-04   -0.33139E-04  7072   0.178E-03 0.316E-05
CGA:  25    -0.355328640058E+03   -0.18696E-04   -0.18638E-04  7072   0.275E-03 0.141E-05
CGA:  26    -0.355328657314E+03   -0.17257E-04   -0.17268E-04  7072   0.167E-03 0.195E-05
CGA:  27    -0.355328664587E+03   -0.72730E-05   -0.73063E-05  7072   0.115E-03 0.116E-05
  14 F= -.35532866E+03 E0= -.35531397E+03  d E =0.231937E-01  mag=     8.0000
       N       E                     dE             d eps       ncg     rms          ort
SDA:   1    -0.354825747164E+03    0.50291E+00    0.00000E+00  7072   0.179E+01 0.000E+00
CGA:   2    -0.355063781291E+03   -0.23803E+00   -0.23327E+00  7072   0.194E+01 0.719E-01
CGA:   3    -0.355188832581E+03   -0.12505E+00   -0.12470E+00  7072   0.105E+01-0.174E-01
CGA:   4    -0.355265540169E+03   -0.76708E-01   -0.76747E-01  7072   0.947E+00-0.420E-02
CGA:   5    -0.355310251256E+03   -0.44711E-01   -0.45016E-01  7072   0.673E+00 0.870E-03
CGA:   6    -0.355337002068E+03   -0.26751E-01   -0.26865E-01  7072   0.172E+00-0.394E-03
CGA:   7    -0.355344649587E+03   -0.76475E-02   -0.76486E-02  7072   0.630E-01 0.708E-04
CGA:   8    -0.355352284161E+03   -0.76346E-02   -0.76526E-02  7072   0.291E-01-0.309E-03
CGA:   9    -0.355354646079E+03   -0.23619E-02   -0.23606E-02  7072   0.141E-01 0.714E-04
CGA:  10    -0.355355637717E+03   -0.99164E-03   -0.99170E-03  7072   0.107E-01-0.167E-04
CGA:  11    -0.355356353420E+03   -0.71570E-03   -0.71575E-03  7072   0.127E-01 0.179E-04
CGA:  12    -0.355356790768E+03   -0.43735E-03   -0.43660E-03  7072   0.229E-02 0.232E-04
CGA:  13    -0.355357006071E+03   -0.21530E-03   -0.21479E-03  7072   0.155E-02 0.188E-04
CGA:  14    -0.355357135986E+03   -0.12992E-03   -0.12975E-03  7072   0.156E-02 0.112E-04
CGA:  15    -0.355357233212E+03   -0.97226E-04   -0.97258E-04  7072   0.605E-03 0.497E-05
CGA:  16    -0.355357259646E+03   -0.26434E-04   -0.26442E-04  7072   0.450E-03 0.111E-05
CGA:  17    -0.355357287273E+03   -0.27627E-04   -0.27643E-04  7072   0.433E-03 0.197E-05
CGA:  18    -0.355357316417E+03   -0.29143E-04   -0.29143E-04  7072   0.221E-03-0.793E-06
CGA:  19    -0.355357334351E+03   -0.17934E-04   -0.17975E-04  7072   0.102E-03-0.289E-05
CGA:  20    -0.355357342740E+03   -0.83891E-05   -0.84254E-05  7072   0.232E-03-0.230E-05
CGA:  21    -0.355357354261E+03   -0.11521E-04   -0.11472E-04  7072   0.729E-04-0.273E-05
CGA:  22    -0.355357358485E+03   -0.42244E-05   -0.42086E-05  7072   0.400E-04-0.165E-05
  15 F= -.35535736E+03 E0= -.35534229E+03  d E =-.286939E-01  mag=     8.0000
       N       E                     dE             d eps       ncg     rms          ort
SDA:   1    -0.355349039808E+03    0.83145E-02    0.00000E+00  7072   0.681E-01 0.000E+00
CGA:   2    -0.355351312013E+03   -0.22722E-02   -0.22785E-02  7072   0.251E-01-0.983E-04
CGA:   3    -0.355353903378E+03   -0.25914E-02   -0.25985E-02  7072   0.490E-01-0.160E-03
CGA:   4    -0.355355726629E+03   -0.18233E-02   -0.18242E-02  7072   0.195E-01-0.443E-05
CGA:   5    -0.355356943383E+03   -0.12168E-02   -0.12172E-02  7072   0.496E-02 0.432E-04
CGA:   6    -0.355357549263E+03   -0.60588E-03   -0.60569E-03  7072   0.303E-02 0.446E-05
CGA:   7    -0.355357700072E+03   -0.15081E-03   -0.15094E-03  7072   0.113E-02 0.396E-05
CGA:   8    -0.355357762435E+03   -0.62363E-04   -0.62403E-04  7072   0.927E-03 0.311E-05
CGA:   9    -0.355357797456E+03   -0.35021E-04   -0.35106E-04  7072   0.385E-03 0.194E-05
CGA:  10    -0.355357828742E+03   -0.31286E-04   -0.31300E-04  7072   0.298E-03-0.901E-06
CGA:  11    -0.355357842351E+03   -0.13610E-04   -0.13618E-04  7072   0.708E-04 0.468E-06
CGA:  12    -0.355357851049E+03   -0.86976E-05   -0.85705E-05  7072   0.798E-04 0.235E-05
  16 F= -.35535785E+03 E0= -.35534274E+03  d E =-.492564E-03  mag=     8.0000
       N       E                     dE             d eps       ncg     rms          ort
SDA:   1    -0.355249781941E+03    0.10806E+00    0.00000E+00  7072   0.473E+00 0.000E+00
CGA:   2    -0.355265946018E+03   -0.16164E-01   -0.16213E-01  7072   0.447E+00-0.898E-03
CGA:   3    -0.355334712561E+03   -0.68767E-01   -0.68873E-01  7072   0.170E+00-0.132E-02
CGA:   4    -0.355347205812E+03   -0.12493E-01   -0.12498E-01  7072   0.882E-01-0.904E-03
CGA:   5    -0.355352669569E+03   -0.54638E-02   -0.54658E-02  7072   0.553E-01 0.107E-03
CGA:   6    -0.355356632146E+03   -0.39626E-02   -0.39626E-02  7072   0.193E-01-0.187E-04
CGA:   7    -0.355357396201E+03   -0.76405E-03   -0.76403E-03  7072   0.737E-02 0.592E-05
CGA:   8    -0.355357798781E+03   -0.40258E-03   -0.40246E-03  7072   0.926E-02-0.326E-05
CGA:   9    -0.355358349018E+03   -0.55024E-03   -0.55029E-03  7072   0.212E-02-0.178E-05
CGA:  10    -0.355358485841E+03   -0.13682E-03   -0.13685E-03  7072   0.997E-03 0.540E-05
CGA:  11    -0.355358566207E+03   -0.80366E-04   -0.80305E-04  7072   0.861E-03 0.428E-05
CGA:  12    -0.355358617177E+03   -0.50970E-04   -0.50967E-04  7072   0.697E-03 0.480E-07
CGA:  13    -0.355358639627E+03   -0.22450E-04   -0.22478E-04  7072   0.165E-03-0.130E-06
CGA:  14    -0.355358654182E+03   -0.14555E-04   -0.14547E-04  7072   0.149E-03 0.143E-06
CGA:  15    -0.355358664048E+03   -0.98654E-05   -0.98668E-05  7072   0.118E-03 0.844E-06
  17 F= -.35535866E+03 E0= -.35534353E+03  d E =-.812999E-03  mag=     8.0000
       N       E                     dE             d eps       ncg     rms          ort
SDA:   1    -0.355329593299E+03    0.29061E-01    0.00000E+00  7072   0.271E+00 0.000E+00
CGA:   2    -0.355335477256E+03   -0.58840E-02   -0.58253E-02  7072   0.735E-01 0.194E-02
CGA:   3    -0.355349921100E+03   -0.14444E-01   -0.14477E-01  7072   0.104E+00-0.292E-03
CGA:   4    -0.355355510906E+03   -0.55898E-02   -0.56123E-02  7072   0.329E-01 0.226E-03
CGA:   5    -0.355356741271E+03   -0.12304E-02   -0.12314E-02  7072   0.198E-01-0.171E-04
CGA:   6    -0.355357754386E+03   -0.10131E-02   -0.10128E-02  7072   0.129E-01-0.669E-05
CGA:   7    -0.355358639111E+03   -0.88473E-03   -0.88473E-03  7072   0.435E-02-0.794E-05
CGA:   8    -0.355358817580E+03   -0.17847E-03   -0.17842E-03  7072   0.129E-02-0.507E-06
CGA:   9    -0.355358958290E+03   -0.14071E-03   -0.14044E-03  7072   0.113E-02 0.603E-05
CGA:  10    -0.355359015195E+03   -0.56905E-04   -0.56882E-04  7072   0.104E-02-0.787E-06
CGA:  11    -0.355359053560E+03   -0.38365E-04   -0.38351E-04  7072   0.164E-03-0.963E-06
CGA:  12    -0.355359068965E+03   -0.15405E-04   -0.15424E-04  7072   0.198E-03-0.729E-06
CGA:  13    -0.355359083900E+03   -0.14935E-04   -0.14939E-04  7072   0.429E-04-0.475E-06
CGA:  14    -0.355359087206E+03   -0.33062E-05   -0.33068E-05  7072   0.505E-04-0.138E-06
  18 F= -.35535909E+03 E0= -.35534395E+03  d E =-.423159E-03  mag=     8.0000
       N       E                     dE             d eps       ncg     rms          ort
SDA:   1    -0.354218861545E+03    0.11402E+01    0.00000E+00  7072   0.289E+01 0.000E+00
CGA:   2    -0.354677624457E+03   -0.45876E+00   -0.47503E+00  7072   0.133E+02-0.172E+00
CGA:   3    -0.355114675025E+03   -0.43705E+00   -0.43303E+00  7072   0.206E+01 0.250E-01
CGA:   4    -0.355225424866E+03   -0.11075E+00   -0.11436E+00  7072   0.109E+01 0.551E-01
CGA:   5    -0.355271132903E+03   -0.45708E-01   -0.45588E-01  7072   0.102E+01 0.359E-03
CGA:   6    -0.355328040249E+03   -0.56907E-01   -0.56761E-01  7072   0.362E+00-0.302E-02
CGA:   7    -0.355343620843E+03   -0.15581E-01   -0.15618E-01  7072   0.110E+00-0.122E-03
CGA:   8    -0.355347851032E+03   -0.42302E-02   -0.42250E-02  7072   0.101E+00 0.527E-04
CGA:   9    -0.355354957599E+03   -0.71066E-02   -0.71035E-02  7072   0.441E-01 0.367E-03
CGA:  10    -0.355358028791E+03   -0.30712E-02   -0.30704E-02  7072   0.350E-01 0.108E-03
CGA:  11    -0.355358971617E+03   -0.94283E-03   -0.94299E-03  7072   0.839E-02-0.104E-04
CGA:  12    -0.355359542913E+03   -0.57130E-03   -0.57122E-03  7072   0.101E-01 0.113E-04
CGA:  13    -0.355360224246E+03   -0.68133E-03   -0.68133E-03  7072   0.430E-02-0.169E-05
CGA:  14    -0.355360392629E+03   -0.16838E-03   -0.16845E-03  7072   0.307E-02-0.258E-05
CGA:  15    -0.355360532253E+03   -0.13962E-03   -0.13965E-03  7072   0.115E-02 0.137E-06
CGA:  16    -0.355360611373E+03   -0.79121E-04   -0.79128E-04  7072   0.975E-03-0.180E-05
CGA:  17    -0.355360704016E+03   -0.92642E-04   -0.92621E-04  7072   0.141E-02 0.591E-06
CGA:  18    -0.355360742499E+03   -0.38483E-04   -0.38550E-04  7072   0.244E-03-0.319E-07
CGA:  19    -0.355360770202E+03   -0.27703E-04   -0.27775E-04  7072   0.308E-03-0.161E-05
CGA:  20    -0.355360793687E+03   -0.23485E-04   -0.23481E-04  7072   0.438E-03 0.181E-06
CGA:  21    -0.355360811821E+03   -0.18133E-04   -0.18164E-04  7072   0.195E-03 0.425E-06
CGA:  22    -0.355360820512E+03   -0.86911E-05   -0.86815E-05  7072   0.894E-04-0.695E-06
  19 F= -.35536082E+03 E0= -.35534575E+03  d E =-.173331E-02  mag=     8.0000
       N       E                     dE             d eps       ncg     rms          ort
SDA:   1    -0.353294201229E+03    0.20666E+01    0.00000E+00  7072   0.587E+01 0.000E+00
CGA:   2    -0.354147077868E+03   -0.85288E+00   -0.85175E+00  7072   0.131E+02-0.520E-02
CGA:   3    -0.354807637036E+03   -0.66056E+00   -0.66928E+00  7072   0.387E+01 0.169E+00
CGA:   4    -0.355012748758E+03   -0.20511E+00   -0.20371E+00  7072   0.349E+01-0.231E-02
CGA:   5    -0.355169922061E+03   -0.15717E+00   -0.15648E+00  7072   0.199E+01-0.993E-03
CGA:   6    -0.355270237805E+03   -0.10032E+00   -0.99946E-01  7072   0.688E+00-0.439E-02
CGA:   7    -0.355308906200E+03   -0.38668E-01   -0.38877E-01  7072   0.203E+00 0.882E-02
CGA:   8    -0.355324415468E+03   -0.15509E-01   -0.15496E-01  7072   0.245E+00 0.856E-03
CGA:   9    -0.355332947883E+03   -0.85324E-02   -0.84414E-02  7072   0.117E+00 0.116E-02
CGA:  10    -0.355340332912E+03   -0.73850E-02   -0.73865E-02  7072   0.397E-01 0.123E-02
CGA:  11    -0.355342391613E+03   -0.20587E-02   -0.20631E-02  7072   0.285E-01 0.105E-03
CGA:  12    -0.355344171358E+03   -0.17797E-02   -0.17798E-02  7072   0.355E-01 0.367E-04
CGA:  13    -0.355345659001E+03   -0.14876E-02   -0.14911E-02  7072   0.107E-01 0.351E-05
CGA:  14    -0.355346186093E+03   -0.52709E-03   -0.52764E-03  7072   0.534E-02 0.104E-04
CGA:  15    -0.355346595190E+03   -0.40910E-03   -0.40875E-03  7072   0.386E-02 0.168E-04
CGA:  16    -0.355346843040E+03   -0.24785E-03   -0.24783E-03  7072   0.640E-02 0.638E-05
CGA:  17    -0.355347149200E+03   -0.30616E-03   -0.30611E-03  7072   0.125E-02-0.230E-05
CGA:  18    -0.355347241304E+03   -0.92104E-04   -0.91968E-04  7072   0.117E-02 0.845E-05
CGA:  19    -0.355347369873E+03   -0.12857E-03   -0.12837E-03  7072   0.172E-02 0.378E-05
CGA:  20    -0.355347448852E+03   -0.78978E-04   -0.78977E-04  7072   0.130E-02-0.672E-06
CGA:  21    -0.355347505590E+03   -0.56739E-04   -0.56769E-04  7072   0.437E-03 0.390E-06
CGA:  22    -0.355347538835E+03   -0.33244E-04   -0.33238E-04  7072   0.489E-03 0.274E-06
CGA:  23    -0.355347579007E+03   -0.40173E-04   -0.40137E-04  7072   0.330E-03 0.135E-05
CGA:  24    -0.355347602436E+03   -0.23429E-04   -0.23430E-04  7072   0.374E-03-0.247E-06
CGA:  25    -0.355347613964E+03   -0.11528E-04   -0.11502E-04  7072   0.872E-04-0.518E-06
CGA:  26    -0.355347625254E+03   -0.11289E-04   -0.11245E-04  7072   0.133E-03 0.602E-06
CGA:  27    -0.355347635127E+03   -0.98739E-05   -0.98738E-05  7072   0.652E-04-0.386E-07
  20 F= -.35534764E+03 E0= -.35533241E+03  d E =0.131854E-01  mag=     8.0000
       N       E                     dE             d eps       ncg     rms          ort
SDA:   1    -0.354871792355E+03    0.47583E+00    0.00000E+00  7072   0.162E+01 0.000E+00
CGA:   2    -0.355023624547E+03   -0.15183E+00   -0.15291E+00  7072   0.381E+01-0.297E-01
CGA:   3    -0.355179831441E+03   -0.15621E+00   -0.15613E+00  7072   0.120E+01-0.155E-02
CGA:   4    -0.355253784521E+03   -0.73953E-01   -0.73817E-01  7072   0.895E+00-0.121E-01
CGA:   5    -0.355314920456E+03   -0.61136E-01   -0.61078E-01  7072   0.417E+00 0.109E-01
CGA:   6    -0.355342161363E+03   -0.27241E-01   -0.27248E-01  7072   0.191E+00 0.212E-02
CGA:   7    -0.355351632666E+03   -0.94713E-02   -0.94484E-02  7072   0.583E-01-0.180E-03
CGA:   8    -0.355354571941E+03   -0.29393E-02   -0.29407E-02  7072   0.766E-01 0.424E-04
CGA:   9    -0.355359414804E+03   -0.48429E-02   -0.48427E-02  7072   0.129E-01-0.539E-04
CGA:  10    -0.355360462483E+03   -0.10477E-02   -0.10471E-02  7072   0.107E-01 0.280E-04
CGA:  11    -0.355361298107E+03   -0.83562E-03   -0.83553E-03  7072   0.704E-02 0.729E-05
CGA:  12    -0.355361655886E+03   -0.35778E-03   -0.35795E-03  7072   0.683E-02 0.316E-05
CGA:  13    -0.355361932332E+03   -0.27645E-03   -0.27630E-03  7072   0.112E-02-0.356E-05
CGA:  14    -0.355362068717E+03   -0.13638E-03   -0.13596E-03  7072   0.166E-02 0.716E-05
CGA:  15    -0.355362162866E+03   -0.94149E-04   -0.94166E-04  7072   0.745E-03 0.163E-05
CGA:  16    -0.355362203741E+03   -0.40875E-04   -0.40882E-04  7072   0.478E-03 0.336E-06
CGA:  17    -0.355362221875E+03   -0.18134E-04   -0.18115E-04  7072   0.254E-03-0.531E-06
CGA:  18    -0.355362244500E+03   -0.22625E-04   -0.22618E-04  7072   0.286E-03 0.278E-06
CGA:  19    -0.355362265579E+03   -0.21079E-04   -0.21075E-04  7072   0.130E-03 0.316E-06
CGA:  20    -0.355362274014E+03   -0.84358E-05   -0.84352E-05  7072   0.120E-03-0.428E-06
  21 F= -.35536227E+03 E0= -.35534721E+03  d E =-.146389E-01  mag=     8.0000
       N       E                     dE             d eps       ncg     rms          ort
SDA:   1    -0.355347866421E+03    0.14399E-01    0.00000E+00  7072   0.203E+00 0.000E+00
CGA:   2    -0.355352402039E+03   -0.45356E-02   -0.44194E-02  7072   0.451E-01 0.391E-02
CGA:   3    -0.355355905225E+03   -0.35032E-02   -0.35067E-02  7072   0.463E-01-0.169E-03
CGA:   4    -0.355359964538E+03   -0.40593E-02   -0.40560E-02  7072   0.383E-01 0.101E-03
CGA:   5    -0.355361595168E+03   -0.16306E-02   -0.16308E-02  7072   0.183E-01-0.430E-05
CGA:   6    -0.355362243109E+03   -0.64794E-03   -0.64929E-03  7072   0.894E-02-0.199E-04
CGA:   7    -0.355363006551E+03   -0.76344E-03   -0.76418E-03  7072   0.588E-02-0.274E-04
CGA:   8    -0.355363245388E+03   -0.23884E-03   -0.23855E-03  7072   0.130E-02-0.765E-05
CGA:   9    -0.355363340506E+03   -0.95119E-04   -0.95088E-04  7072   0.156E-02 0.230E-05
CGA:  10    -0.355363393813E+03   -0.53306E-04   -0.53264E-04  7072   0.602E-03-0.468E-06
CGA:  11    -0.355363449365E+03   -0.55552E-04   -0.55659E-04  7072   0.166E-03-0.342E-05
CGA:  12    -0.355363461962E+03   -0.12597E-04   -0.12600E-04  7072   0.168E-03-0.266E-06
CGA:  13    -0.355363473888E+03   -0.11926E-04   -0.11938E-04  7072   0.163E-03-0.143E-05
CGA:  14    -0.355363479526E+03   -0.56381E-05   -0.56190E-05  7072   0.662E-04-0.696E-06
  22 F= -.35536348E+03 E0= -.35534841E+03  d E =-.120551E-02  mag=     8.0000
       N       E                     dE             d eps       ncg     rms          ort
SDA:   1    -0.355251031942E+03    0.11244E+00    0.00000E+00  7072   0.343E+00 0.000E+00
CGA:   2    -0.355285866544E+03   -0.34835E-01   -0.34887E-01  7072   0.704E+00-0.118E-02
CGA:   3    -0.355333752864E+03   -0.47886E-01   -0.47883E-01  7072   0.315E+00 0.411E-03
CGA:   4    -0.355345687157E+03   -0.11934E-01   -0.11913E-01  7072   0.177E+00 0.144E-03
CGA:   5    -0.355353885082E+03   -0.81979E-02   -0.83316E-02  7072   0.745E-01 0.136E-02
CGA:   6    -0.355361001492E+03   -0.71164E-02   -0.71375E-02  7072   0.340E-01-0.555E-03
CGA:   7    -0.355362611598E+03   -0.16101E-02   -0.16100E-02  7072   0.121E-01-0.657E-05
CGA:   8    -0.355363259642E+03   -0.64804E-03   -0.64801E-03  7072   0.122E-01-0.118E-07
CGA:   9    -0.355363789679E+03   -0.53004E-03   -0.53112E-03  7072   0.424E-02 0.828E-05
CGA:  10    -0.355364194643E+03   -0.40496E-03   -0.40537E-03  7072   0.129E-02-0.109E-04
CGA:  11    -0.355364269658E+03   -0.75015E-04   -0.75013E-04  7072   0.145E-02-0.717E-06
CGA:  12    -0.355364348427E+03   -0.78770E-04   -0.78742E-04  7072   0.107E-02-0.287E-05
CGA:  13    -0.355364400985E+03   -0.52558E-04   -0.52548E-04  7072   0.338E-03-0.149E-05
CGA:  14    -0.355364423893E+03   -0.22908E-04   -0.22928E-04  7072   0.193E-03-0.333E-05
CGA:  15    -0.355364434844E+03   -0.10951E-04   -0.10949E-04  7072   0.181E-03-0.366E-06
CGA:  16    -0.355364447148E+03   -0.12304E-04   -0.12307E-04  7072   0.188E-03-0.471E-06
CGA:  17    -0.355364454473E+03   -0.73245E-05   -0.73204E-05  7072   0.441E-04-0.216E-06
  23 F= -.35536445E+03 E0= -.35534938E+03  d E =-.974947E-03  mag=     8.0000
       N       E                     dE             d eps       ncg     rms          ort
SDA:   1    -0.355350457122E+03    0.13990E-01    0.00000E+00  7072   0.967E-01 0.000E+00
CGA:   2    -0.355353363828E+03   -0.29067E-02   -0.28688E-02  7072   0.500E-01 0.695E-03
CGA:   3    -0.355357185190E+03   -0.38214E-02   -0.38222E-02  7072   0.601E-01-0.373E-04
CGA:   4    -0.355361971152E+03   -0.47860E-02   -0.47865E-02  7072   0.268E-01-0.195E-04
CGA:   5    -0.355363326890E+03   -0.13557E-02   -0.13590E-02  7072   0.774E-02 0.781E-04
CGA:   6    -0.355363818283E+03   -0.49139E-03   -0.49140E-03  7072   0.887E-02-0.557E-05
CGA:   7    -0.355364256014E+03   -0.43773E-03   -0.43748E-03  7072   0.435E-02-0.967E-05
CGA:   8    -0.355364399762E+03   -0.14375E-03   -0.14388E-03  7072   0.953E-03 0.173E-06
CGA:   9    -0.355364479817E+03   -0.80054E-04   -0.79996E-04  7072   0.481E-03 0.229E-05
CGA:  10    -0.355364532924E+03   -0.53108E-04   -0.53162E-04  7072   0.352E-03-0.111E-05
CGA:  11    -0.355364550475E+03   -0.17551E-04   -0.17536E-04  7072   0.853E-04-0.943E-06
CGA:  12    -0.355364559386E+03   -0.89109E-05   -0.88907E-05  7072   0.186E-03 0.430E-06
  24 F= -.35536456E+03 E0= -.35534948E+03  d E =-.104913E-03  mag=     8.0000
       N       E                     dE             d eps       ncg     rms          ort
SDA:   1    -0.355249626952E+03    0.11492E+00    0.00000E+00  7072   0.329E+00 0.000E+00
CGA:   2    -0.355280789593E+03   -0.31163E-01   -0.31369E-01  7072   0.913E+00-0.536E-02
CGA:   3    -0.355334164808E+03   -0.53375E-01   -0.53368E-01  7072   0.439E+00-0.459E-03
CGA:   4    -0.355348056638E+03   -0.13892E-01   -0.14061E-01  7072   0.989E-01-0.254E-02
CGA:   5    -0.355357152142E+03   -0.90955E-02   -0.90591E-02  7072   0.771E-01 0.103E-02
CGA:   6    -0.355361787319E+03   -0.46352E-02   -0.46352E-02  7072   0.286E-01 0.138E-05
CGA:   7    -0.355363302848E+03   -0.15155E-02   -0.15140E-02  7072   0.177E-01-0.314E-04
CGA:   8    -0.355363837729E+03   -0.53488E-03   -0.53453E-03  7072   0.547E-02 0.130E-04
CGA:   9    -0.355364544878E+03   -0.70715E-03   -0.70776E-03  7072   0.375E-02-0.916E-05
CGA:  10    -0.355364744854E+03   -0.19998E-03   -0.20007E-03  7072   0.128E-02 0.182E-05
CGA:  11    -0.355364831549E+03   -0.86694E-04   -0.86702E-04  7072   0.817E-03-0.159E-05
CGA:  12    -0.355364895444E+03   -0.63896E-04   -0.63856E-04  7072   0.623E-03 0.314E-05
CGA:  13    -0.355364928135E+03   -0.32691E-04   -0.32722E-04  7072   0.309E-03 0.207E-05
CGA:  14    -0.355364939467E+03   -0.11332E-04   -0.11320E-04  7072   0.173E-03-0.508E-06
CGA:  15    -0.355364951329E+03   -0.11862E-04   -0.11863E-04  7072   0.919E-04-0.283E-06
CGA:  16    -0.355364964359E+03   -0.13030E-04   -0.12916E-04  7072   0.545E-04 0.145E-05
CGA:  17    -0.355364966680E+03   -0.23215E-05   -0.23297E-05  7072   0.352E-04 0.227E-06
  25 F= -.35536497E+03 E0= -.35534989E+03  d E =-.407295E-03  mag=     8.0000
       N       E                     dE             d eps       ncg     rms          ort
SDA:   1    -0.354866076901E+03    0.49889E+00    0.00000E+00  7072   0.148E+01 0.000E+00
CGA:   2    -0.354981734952E+03   -0.11566E+00   -0.11619E+00  7072   0.396E+01-0.288E-01
CGA:   3    -0.355233589902E+03   -0.25185E+00   -0.25184E+00  7072   0.133E+01-0.173E-02
CGA:   4    -0.355292750621E+03   -0.59161E-01   -0.58472E-01  7072   0.412E+00 0.258E-02
CGA:   5    -0.355332677774E+03   -0.39927E-01   -0.39939E-01  7072   0.489E+00-0.348E-03
CGA:   6    -0.355349501273E+03   -0.16823E-01   -0.16837E-01  7072   0.165E+00-0.205E-03
CGA:   7    -0.355355831929E+03   -0.63307E-02   -0.61374E-02  7072   0.541E-01 0.187E-02
CGA:   8    -0.355359099790E+03   -0.32679E-02   -0.32685E-02  7072   0.382E-01 0.643E-04
CGA:   9    -0.355362536638E+03   -0.34368E-02   -0.34343E-02  7072   0.130E-01 0.809E-04
CGA:  10    -0.355363191827E+03   -0.65519E-03   -0.65488E-03  7072   0.123E-01-0.475E-05
CGA:  11    -0.355363723145E+03   -0.53132E-03   -0.53098E-03  7072   0.555E-02-0.780E-07
CGA:  12    -0.355364080826E+03   -0.35768E-03   -0.35769E-03  7072   0.336E-02-0.926E-05
CGA:  13    -0.355364372354E+03   -0.29153E-03   -0.29130E-03  7072   0.734E-03 0.821E-05
CGA:  14    -0.355364421454E+03   -0.49100E-04   -0.49098E-04  7072   0.112E-02 0.704E-06
CGA:  15    -0.355364504874E+03   -0.83420E-04   -0.83411E-04  7072   0.102E-02 0.473E-06
CGA:  16    -0.355364537991E+03   -0.33117E-04   -0.33190E-04  7072   0.244E-03 0.578E-06
CGA:  17    -0.355364559689E+03   -0.21698E-04   -0.21704E-04  7072   0.193E-03-0.525E-06
CGA:  18    -0.355364583212E+03   -0.23523E-04   -0.23544E-04  7072   0.268E-03-0.548E-06
CGA:  19    -0.355364602347E+03   -0.19135E-04   -0.19138E-04  7072   0.675E-04-0.106E-05
CGA:  20    -0.355364609191E+03   -0.68446E-05   -0.68220E-05  7072   0.978E-04 0.553E-06
  26 F= -.35536461E+03 E0= -.35534948E+03  d E =0.357489E-03  mag=     8.0000
       N       E                     dE             d eps       ncg     rms          ort
SDA:   1    -0.348991495633E+03    0.63731E+01    0.00000E+00  7072   0.217E+02 0.000E+00
CGA:   2    -0.350950560812E+03   -0.19591E+01   -0.19243E+01  7072   0.379E+02 0.145E+01
CGA:   3    -0.352688611579E+03   -0.17381E+01   -0.15995E+01  7072   0.140E+02 0.170E+01
CGA:   4    -0.353879180464E+03   -0.11906E+01   -0.12314E+01  7072   0.144E+02-0.190E+01
CGA:   5    -0.354422629898E+03   -0.54345E+00   -0.54950E+00  7072   0.812E+01 0.375E-02
CGA:   6    -0.354762026764E+03   -0.33940E+00   -0.32996E+00  7072   0.548E+01 0.895E-01
CGA:   7    -0.354952901108E+03   -0.19087E+00   -0.18797E+00  7072   0.145E+01 0.497E-01
CGA:   8    -0.355045520622E+03   -0.92620E-01   -0.92210E-01  7072   0.873E+00-0.596E-01
CGA:   9    -0.355101050873E+03   -0.55530E-01   -0.55528E-01  7072   0.722E+00 0.261E-02
CGA:  10    -0.355126088940E+03   -0.25038E-01   -0.27148E-01  7072   0.409E+00-0.161E-01
CGA:  11    -0.355140526281E+03   -0.14437E-01   -0.14509E-01  7072   0.124E+00-0.620E-03
CGA:  12    -0.355155820676E+03   -0.15294E-01   -0.15177E-01  7072   0.883E-01 0.187E-02
CGA:  13    -0.355160853125E+03   -0.50324E-02   -0.50381E-02  7072   0.777E-01 0.200E-03
CGA:  14    -0.355164443697E+03   -0.35906E-02   -0.36675E-02  7072   0.387E-01 0.526E-03
CGA:  15    -0.355166138027E+03   -0.16943E-02   -0.16947E-02  7072   0.204E-01 0.146E-05
CGA:  16    -0.355167939623E+03   -0.18016E-02   -0.17951E-02  7072   0.154E-01 0.206E-03
CGA:  17    -0.355168695707E+03   -0.75608E-03   -0.75670E-03  7072   0.798E-02 0.136E-04
CGA:  18    -0.355169200348E+03   -0.50464E-03   -0.50481E-03  7072   0.789E-02 0.106E-03
CGA:  19    -0.355169569170E+03   -0.36882E-03   -0.36851E-03  7072   0.355E-02-0.274E-05
CGA:  20    -0.355169852877E+03   -0.28371E-03   -0.28352E-03  7072   0.241E-02 0.683E-05
CGA:  21    -0.355169981159E+03   -0.12828E-03   -0.12827E-03  7072   0.194E-02-0.214E-05
CGA:  22    -0.355170096264E+03   -0.11510E-03   -0.11518E-03  7072   0.169E-02 0.763E-05
CGA:  23    -0.355170214847E+03   -0.11858E-03   -0.11856E-03  7072   0.107E-02 0.125E-05
CGA:  24    -0.355170295923E+03   -0.81076E-04   -0.81110E-04  7072   0.822E-03-0.401E-05
CGA:  25    -0.355170326850E+03   -0.30927E-04   -0.30840E-04  7072   0.448E-03-0.321E-05
CGA:  26    -0.355170374372E+03   -0.47522E-04   -0.47508E-04  7072   0.340E-03 0.435E-07
CGA:  27    -0.355170394419E+03   -0.20047E-04   -0.20044E-04  7072   0.276E-03-0.611E-06
CGA:  28    -0.355170409815E+03   -0.15397E-04   -0.15394E-04  7072   0.201E-03-0.524E-06
CGA:  29    -0.355170419749E+03   -0.99332E-05   -0.99228E-05  7072   0.991E-04-0.762E-06
CGA:  30    -0.355170432134E+03   -0.12386E-04   -0.12282E-04  7072   0.112E-03 0.164E-05
CGA:  31    -0.355170436489E+03   -0.43550E-05   -0.43685E-05  7072   0.676E-04 0.449E-06
  27 F= -.35517044E+03 E0= -.35515612E+03  d E =0.194173E+00  mag=     8.0000
       N       E                     dE             d eps       ncg     rms          ort
SDA:   1    -0.354212145315E+03    0.95829E+00    0.00000E+00  7072   0.357E+01 0.000E+00
CGA:   2    -0.354664957126E+03   -0.45281E+00   -0.44586E+00  7072   0.703E+01 0.119E+00
CGA:   3    -0.354917857817E+03   -0.25290E+00   -0.24900E+00  7072   0.233E+01 0.425E-01
CGA:   4    -0.355074251510E+03   -0.15639E+00   -0.15650E+00  7072   0.200E+01 0.408E-01
CGA:   5    -0.355236074783E+03   -0.16182E+00   -0.16241E+00  7072   0.776E+00-0.323E-01
CGA:   6    -0.355275954925E+03   -0.39880E-01   -0.39969E-01  7072   0.320E+00 0.166E-02
CGA:   7    -0.355294598500E+03   -0.18644E-01   -0.18696E-01  7072   0.131E+00 0.198E-02
CGA:   8    -0.355304884222E+03   -0.10286E-01   -0.10317E-01  7072   0.150E+00-0.184E-02
CGA:   9    -0.355309971098E+03   -0.50869E-02   -0.51092E-02  7072   0.490E-01-0.302E-03
CGA:  10    -0.355312870959E+03   -0.28999E-02   -0.28993E-02  7072   0.219E-01-0.204E-04
CGA:  11    -0.355314908035E+03   -0.20371E-02   -0.20364E-02  7072   0.180E-01 0.226E-04
CGA:  12    -0.355316252119E+03   -0.13441E-02   -0.13438E-02  7072   0.914E-02 0.289E-04
CGA:  13    -0.355316565982E+03   -0.31386E-03   -0.31336E-03  7072   0.436E-02 0.526E-05
CGA:  14    -0.355316851935E+03   -0.28595E-03   -0.28596E-03  7072   0.414E-02 0.764E-05
CGA:  15    -0.355317109914E+03   -0.25798E-03   -0.25802E-03  7072   0.212E-02 0.690E-05
CGA:  16    -0.355317268283E+03   -0.15837E-03   -0.15833E-03  7072   0.786E-03 0.380E-05
CGA:  17    -0.355317322777E+03   -0.54495E-04   -0.54490E-04  7072   0.552E-03 0.148E-05
CGA:  18    -0.355317399040E+03   -0.76263E-04   -0.75944E-04  7072   0.620E-03 0.448E-05
CGA:  19    -0.355317419405E+03   -0.20365E-04   -0.20432E-04  7072   0.270E-03 0.125E-05
CGA:  20    -0.355317437801E+03   -0.18395E-04   -0.18395E-04  7072   0.247E-03 0.523E-06
CGA:  21    -0.355317455806E+03   -0.18005E-04   -0.17998E-04  7072   0.161E-03 0.128E-05
CGA:  22    -0.355317468107E+03   -0.12301E-04   -0.12290E-04  7072   0.921E-04 0.140E-05
CGA:  23    -0.355317473975E+03   -0.58679E-05   -0.58674E-05  7072   0.422E-04-0.136E-06
  28 F= -.35531747E+03 E0= -.35530281E+03  d E =-.147037E+00  mag=     8.0000
       N       E                     dE             d eps       ncg     rms          ort
SDA:   1    -0.355150527392E+03    0.16694E+00    0.00000E+00  7072   0.751E+00 0.000E+00
CGA:   2    -0.355196165276E+03   -0.45638E-01   -0.45705E-01  7072   0.134E+01 0.250E-02
CGA:   3    -0.355280394075E+03   -0.84229E-01   -0.84203E-01  7072   0.334E+00-0.115E-02
CGA:   4    -0.355309967284E+03   -0.29573E-01   -0.29716E-01  7072   0.434E+00-0.522E-02
CGA:   5    -0.355335477175E+03   -0.25510E-01   -0.25524E-01  7072   0.162E+00 0.435E-03
CGA:   6    -0.355342054933E+03   -0.65778E-02   -0.66006E-02  7072   0.805E-01-0.179E-03
CGA:   7    -0.355345429866E+03   -0.33749E-02   -0.33392E-02  7072   0.352E-01 0.195E-03
CGA:   8    -0.355347776493E+03   -0.23466E-02   -0.23467E-02  7072   0.214E-01 0.514E-04
CGA:   9    -0.355349225451E+03   -0.14490E-02   -0.14489E-02  7072   0.922E-02 0.481E-04
CGA:  10    -0.355349709660E+03   -0.48421E-03   -0.48402E-03  7072   0.795E-02-0.414E-05
CGA:  11    -0.355350032636E+03   -0.32298E-03   -0.32173E-03  7072   0.286E-02 0.622E-06
CGA:  12    -0.355350424586E+03   -0.39195E-03   -0.39167E-03  7072   0.200E-02 0.411E-05
CGA:  13    -0.355350500088E+03   -0.75502E-04   -0.75495E-04  7072   0.699E-03-0.365E-06
CGA:  14    -0.355350540441E+03   -0.40352E-04   -0.40350E-04  7072   0.905E-03-0.328E-06
CGA:  15    -0.355350610586E+03   -0.70145E-04   -0.70175E-04  7072   0.435E-03-0.248E-05
CGA:  16    -0.355350629072E+03   -0.18486E-04   -0.18526E-04  7072   0.158E-03 0.860E-06
CGA:  17    -0.355350643138E+03   -0.14066E-04   -0.14041E-04  7072   0.173E-03 0.919E-06
CGA:  18    -0.355350650727E+03   -0.75883E-05   -0.76078E-05  7072   0.137E-03 0.652E-06
CGA:  19    -0.355350661871E+03   -0.11144E-04   -0.11139E-04  7072   0.603E-04 0.323E-06
CGA:  20    -0.355350666548E+03   -0.46774E-05   -0.46678E-05  7072   0.508E-04 0.845E-06
  29 F= -.35535067E+03 E0= -.35533584E+03  d E =-.331926E-01  mag=     8.0000
       N       E                     dE             d eps       ncg     rms          ort
SDA:   1    -0.355045951853E+03    0.30471E+00    0.00000E+00  7072   0.109E+01 0.000E+00
CGA:   2    -0.355127851050E+03   -0.81899E-01   -0.81974E-01  7072   0.251E+01-0.480E-02
CGA:   3    -0.355259042347E+03   -0.13119E+00   -0.13126E+00  7072   0.467E+00 0.113E-02
CGA:   4    -0.355314436355E+03   -0.55394E-01   -0.55135E-01  7072   0.631E+00 0.469E-02
CGA:   5    -0.355351680563E+03   -0.37244E-01   -0.37182E-01  7072   0.838E-01-0.201E-02
CGA:   6    -0.355358738613E+03   -0.70580E-02   -0.70534E-02  7072   0.859E-01 0.209E-03
CGA:   7    -0.355363150788E+03   -0.44122E-02   -0.44119E-02  7072   0.274E-01 0.280E-05
CGA:   8    -0.355365089569E+03   -0.19388E-02   -0.19387E-02  7072   0.269E-01 0.127E-04
CGA:   9    -0.355365941278E+03   -0.85171E-03   -0.85098E-03  7072   0.763E-02 0.479E-05
CGA:  10    -0.355366671295E+03   -0.73002E-03   -0.72940E-03  7072   0.786E-02 0.193E-04
CGA:  11    -0.355367179330E+03   -0.50803E-03   -0.50802E-03  7072   0.167E-02-0.331E-05
CGA:  12    -0.355367330576E+03   -0.15125E-03   -0.15132E-03  7072   0.217E-02-0.373E-05
CGA:  13    -0.355367410582E+03   -0.80007E-04   -0.79918E-04  7072   0.108E-02-0.336E-05
CGA:  14    -0.355367490914E+03   -0.80332E-04   -0.80331E-04  7072   0.737E-03-0.526E-07
CGA:  15    -0.355367524299E+03   -0.33385E-04   -0.33369E-04  7072   0.218E-03-0.641E-06
CGA:  16    -0.355367546997E+03   -0.22698E-04   -0.22660E-04  7072   0.298E-03 0.911E-06
CGA:  17    -0.355367564707E+03   -0.17709E-04   -0.17711E-04  7072   0.226E-03 0.171E-06
CGA:  18    -0.355367573202E+03   -0.84951E-05   -0.85231E-05  7072   0.105E-03 0.899E-06
  30 F= -.35536757E+03 E0= -.35535255E+03  d E =-.169067E-01  mag=     8.0000
       N       E                     dE             d eps       ncg     rms          ort
SDA:   1    -0.355309069416E+03    0.58495E-01    0.00000E+00  7072   0.220E+00 0.000E+00
CGA:   2    -0.355322688741E+03   -0.13619E-01   -0.13613E-01  7072   0.320E+00-0.464E-03
CGA:   3    -0.355343551567E+03   -0.20863E-01   -0.20866E-01  7072   0.263E+00 0.125E-02
CGA:   4    -0.355354011876E+03   -0.10460E-01   -0.10315E-01  7072   0.735E-01 0.108E-02
CGA:   5    -0.355360888358E+03   -0.68765E-02   -0.68835E-02  7072   0.767E-01-0.192E-03
CGA:   6    -0.355364835398E+03   -0.39470E-02   -0.39506E-02  7072   0.192E-01 0.333E-04
CGA:   7    -0.355365822133E+03   -0.98673E-03   -0.99072E-03  7072   0.116E-01 0.644E-04
CGA:   8    -0.355366274401E+03   -0.45227E-03   -0.45177E-03  7072   0.722E-02 0.300E-06
CGA:   9    -0.355366861918E+03   -0.58752E-03   -0.58766E-03  7072   0.201E-02-0.763E-05
CGA:  10    -0.355367029854E+03   -0.16794E-03   -0.16803E-03  7072   0.193E-02-0.432E-05
CGA:  11    -0.355367094142E+03   -0.64288E-04   -0.64280E-04  7072   0.843E-03-0.117E-05
CGA:  12    -0.355367169153E+03   -0.75011E-04   -0.75146E-04  7072   0.879E-03-0.520E-05
CGA:  13    -0.355367214928E+03   -0.45774E-04   -0.45763E-04  7072   0.182E-03-0.139E-05
CGA:  14    -0.355367225134E+03   -0.10206E-04   -0.10199E-04  7072   0.206E-03-0.768E-06
CGA:  15    -0.355367237856E+03   -0.12722E-04   -0.12722E-04  7072   0.164E-03-0.287E-06
CGA:  16    -0.355367246412E+03   -0.85554E-05   -0.85483E-05  7072   0.912E-04-0.568E-06
  31 F= -.35536725E+03 E0= -.35535212E+03  d E =0.326790E-03  mag=     8.0000
       N       E                     dE             d eps       ncg     rms          ort
SDA:   1    -0.355284617695E+03    0.82620E-01    0.00000E+00  7072   0.309E+00 0.000E+00
CGA:   2    -0.355302140363E+03   -0.17523E-01   -0.17537E-01  7072   0.485E+00 0.834E-03
CGA:   3    -0.355331410636E+03   -0.29270E-01   -0.29213E-01  7072   0.354E+00-0.845E-02
CGA:   4    -0.355355062018E+03   -0.23651E-01   -0.23582E-01  7072   0.713E-01 0.811E-02
CGA:   5    -0.355359774669E+03   -0.47127E-02   -0.47123E-02  7072   0.697E-01 0.133E-03
CGA:   6    -0.355364367340E+03   -0.45927E-02   -0.45929E-02  7072   0.460E-01-0.325E-04
CGA:   7    -0.355365794980E+03   -0.14276E-02   -0.14309E-02  7072   0.143E-01-0.462E-04
CGA:   8    -0.355366551915E+03   -0.75693E-03   -0.75688E-03  7072   0.597E-02-0.132E-05
CGA:   9    -0.355366901369E+03   -0.34945E-03   -0.34951E-03  7072   0.324E-02 0.942E-05
CGA:  10    -0.355367249474E+03   -0.34810E-03   -0.34857E-03  7072   0.972E-03-0.989E-05
CGA:  11    -0.355367313227E+03   -0.63754E-04   -0.63765E-04  7072   0.103E-02-0.383E-05
CGA:  12    -0.355367355947E+03   -0.42720E-04   -0.42711E-04  7072   0.640E-03-0.262E-06
CGA:  13    -0.355367397180E+03   -0.41233E-04   -0.41232E-04  7072   0.347E-03 0.598E-06
CGA:  14    -0.355367418585E+03   -0.21404E-04   -0.21406E-04  7072   0.130E-03 0.970E-06
CGA:  15    -0.355367427739E+03   -0.91539E-05   -0.91589E-05  7072   0.100E-03-0.678E-06
  32 F= -.35536743E+03 E0= -.35535226E+03  d E =-.181327E-03  mag=     8.0000
       N       E                     dE             d eps       ncg     rms          ort
SDA:   1    -0.355321942614E+03    0.45476E-01    0.00000E+00  7072   0.287E+00 0.000E+00
CGA:   2    -0.355333540981E+03   -0.11598E-01   -0.11655E-01  7072   0.146E+00-0.110E-03
CGA:   3    -0.355346148125E+03   -0.12607E-01   -0.12741E-01  7072   0.256E+00-0.431E-02
CGA:   4    -0.355357497751E+03   -0.11350E-01   -0.11371E-01  7072   0.129E+00 0.139E-03
CGA:   5    -0.355363019421E+03   -0.55217E-02   -0.55389E-02  7072   0.290E-01 0.471E-04
CGA:   6    -0.355365358476E+03   -0.23391E-02   -0.23391E-02  7072   0.257E-01-0.521E-06
CGA:   7    -0.355367038555E+03   -0.16801E-02   -0.16801E-02  7072   0.541E-02-0.189E-04
CGA:   8    -0.355367331892E+03   -0.29334E-03   -0.29340E-03  7072   0.608E-02 0.118E-05
CGA:   9    -0.355367579331E+03   -0.24744E-03   -0.24789E-03  7072   0.162E-02 0.608E-06
CGA:  10    -0.355367717174E+03   -0.13784E-03   -0.13783E-03  7072   0.161E-02 0.427E-06
CGA:  11    -0.355367799865E+03   -0.82691E-04   -0.82643E-04  7072   0.358E-03-0.283E-05
CGA:  12    -0.355367829347E+03   -0.29482E-04   -0.29508E-04  7072   0.429E-03-0.119E-05
CGA:  13    -0.355367852175E+03   -0.22828E-04   -0.22834E-04  7072   0.308E-03 0.411E-06
CGA:  14    -0.355367864093E+03   -0.11917E-04   -0.11920E-04  7072   0.126E-03 0.108E-07
CGA:  15    -0.355367872714E+03   -0.86214E-05   -0.86162E-05  7072   0.439E-04 0.706E-06
  33 F= -.35536787E+03 E0= -.35535272E+03  d E =-.444975E-03  mag=     8.0000
       N       E                     dE             d eps       ncg     rms          ort
SDA:   1    -0.355094792429E+03    0.27307E+00    0.00000E+00  7072   0.885E+00 0.000E+00
CGA:   2    -0.355158905659E+03   -0.64113E-01   -0.64555E-01  7072   0.182E+01-0.409E-01
CGA:   3    -0.355268602967E+03   -0.10970E+00   -0.10969E+00  7072   0.122E+01-0.739E-03
CGA:   4    -0.355315242255E+03   -0.46639E-01   -0.46597E-01  7072   0.384E+00 0.904E-03
CGA:   5    -0.355338616413E+03   -0.23374E-01   -0.23374E-01  7072   0.249E+00 0.724E-04
CGA:   6    -0.355351085350E+03   -0.12469E-01   -0.12482E-01  7072   0.228E+00 0.226E-03
CGA:   7    -0.355359810075E+03   -0.87247E-02   -0.86635E-02  7072   0.482E-01 0.535E-03
CGA:   8    -0.355362518512E+03   -0.27084E-02   -0.27081E-02  7072   0.242E-01-0.152E-04
CGA:   9    -0.355364050423E+03   -0.15319E-02   -0.15318E-02  7072   0.274E-01 0.133E-03
CGA:  10    -0.355365045511E+03   -0.99509E-03   -0.99468E-03  7072   0.106E-01 0.200E-05
CGA:  11    -0.355365767562E+03   -0.72205E-03   -0.72214E-03  7072   0.341E-02-0.118E-04
CGA:  12    -0.355365970104E+03   -0.20254E-03   -0.20256E-03  7072   0.375E-02 0.645E-05
CGA:  13    -0.355366191170E+03   -0.22107E-03   -0.22108E-03  7072   0.317E-02 0.557E-05
CGA:  14    -0.355366303896E+03   -0.11273E-03   -0.11281E-03  7072   0.826E-03 0.413E-05
CGA:  15    -0.355366366108E+03   -0.62213E-04   -0.62193E-04  7072   0.529E-03 0.110E-05
CGA:  16    -0.355366397677E+03   -0.31569E-04   -0.31569E-04  7072   0.428E-03 0.321E-06
CGA:  17    -0.355366421644E+03   -0.23967E-04   -0.23979E-04  7072   0.555E-03 0.242E-05
CGA:  18    -0.355366452535E+03   -0.30891E-04   -0.30903E-04  7072   0.893E-04 0.228E-05
CGA:  19    -0.355366462093E+03   -0.95578E-05   -0.96388E-05  7072   0.171E-03-0.175E-05
CGA:  20    -0.355366473429E+03   -0.11336E-04   -0.11341E-04  7072   0.177E-03-0.107E-05
CGA:  21    -0.355366481271E+03   -0.78421E-05   -0.78303E-05  7072   0.116E-03-0.744E-06
  34 F= -.35536648E+03 E0= -.35535140E+03  d E =0.139144E-02  mag=     8.0000
       N       E                     dE             d eps       ncg     rms          ort
SDA:   1    -0.340112073648E+03    0.15254E+02    0.00000E+00  7072   0.520E+02 0.000E+00
CGA:   2    -0.346624325704E+03   -0.65123E+01   -0.66519E+01  7072   0.482E+02 0.227E+01
CGA:   3    -0.349107612737E+03   -0.24833E+01   -0.22176E+01  7072   0.452E+02 0.559E+00
CGA:   4    -0.351411361906E+03   -0.23037E+01   -0.23970E+01  7072   0.414E+02 0.259E+01
CGA:   5    -0.352388019947E+03   -0.97666E+00   -0.90943E+00  7072   0.232E+02 0.140E+01
CGA:   6    -0.353148089463E+03   -0.76007E+00   -0.60598E+00  7072   0.167E+02 0.426E+01
CGA:   7    -0.353667177659E+03   -0.51909E+00   -0.51735E+00  7072   0.178E+02 0.769E-01
CGA:   8    -0.353999056984E+03   -0.33188E+00   -0.30133E+00  7072   0.110E+02 0.145E+01
CGA:   9    -0.354186483279E+03   -0.18743E+00   -0.17628E+00  7072   0.630E+01 0.589E+00
CGA:  10    -0.354310712147E+03   -0.12423E+00   -0.12093E+00  7072   0.515E+01 0.167E+00
CGA:  11    -0.354384861522E+03   -0.74149E-01   -0.69324E-01  7072   0.255E+01 0.303E+00
CGA:  12    -0.354433930318E+03   -0.49069E-01   -0.53932E-01  7072   0.346E+01-0.160E+00
CGA:  13    -0.354511309924E+03   -0.77380E-01   -0.82299E-01  7072   0.309E+01-0.664E-01
CGA:  14    -0.354552595322E+03   -0.41285E-01   -0.45908E-01  7072   0.120E+01-0.235E+00
CGA:  15    -0.354582024821E+03   -0.29429E-01   -0.29670E-01  7072   0.136E+01-0.303E-02
CGA:  16    -0.354612494418E+03   -0.30470E-01   -0.30276E-01  7072   0.767E+00 0.621E-02
CGA:  17    -0.354629406875E+03   -0.16912E-01   -0.16708E-01  7072   0.564E+00 0.547E-02
CGA:  18    -0.354641841646E+03   -0.12435E-01   -0.12646E-01  7072   0.300E+00-0.421E-02
CGA:  19    -0.354648341156E+03   -0.64995E-02   -0.65932E-02  7072   0.288E+00-0.184E-02
CGA:  20    -0.354660746436E+03   -0.12405E-01   -0.12367E-01  7072   0.441E+00 0.806E-02
CGA:  21    -0.354671208359E+03   -0.10462E-01   -0.10739E-01  7072   0.196E+00-0.262E-02
CGA:  22    -0.354675786948E+03   -0.45786E-02   -0.46740E-02  7072   0.901E-01-0.946E-03
CGA:  23    -0.354678392547E+03   -0.26056E-02   -0.26133E-02  7072   0.772E-01 0.132E-03
CGA:  24    -0.354681206366E+03   -0.28138E-02   -0.28130E-02  7072   0.473E-01-0.148E-03
CGA:  25    -0.354682355315E+03   -0.11489E-02   -0.11512E-02  7072   0.328E-01-0.306E-05
CGA:  26    -0.354684153931E+03   -0.17986E-02   -0.17951E-02  7072   0.475E-01 0.166E-03
CGA:  27    -0.354685535686E+03   -0.13818E-02   -0.13877E-02  7072   0.315E-01 0.127E-03
CGA:  28    -0.354686636701E+03   -0.11010E-02   -0.11020E-02  7072   0.152E-01 0.127E-03
CGA:  29    -0.354686985981E+03   -0.34928E-03   -0.34938E-03  7072   0.762E-02 0.457E-05
CGA:  30    -0.354687385367E+03   -0.39939E-03   -0.39888E-03  7072   0.857E-02 0.286E-04
CGA:  31    -0.354687613352E+03   -0.22798E-03   -0.22837E-03  7072   0.526E-02 0.131E-04
SDA:  32    -0.354687923633E+03   -0.31028E-03   -0.30889E-03  7072   0.773E-02 0.561E-04
CGA:  33    -0.354688101150E+03   -0.17752E-03   -0.17709E-03  7072   0.193E-02-0.316E-05
CGA:  34    -0.354688205544E+03   -0.10439E-03   -0.10440E-03  7072   0.143E-02-0.142E-05
CGA:  35    -0.354688360605E+03   -0.15506E-03   -0.15481E-03  7072   0.259E-02 0.391E-05
CGA:  36    -0.354688571354E+03   -0.21075E-03   -0.20983E-03  7072   0.171E-02 0.232E-04
CGA:  37    -0.354688656399E+03   -0.85045E-04   -0.84979E-04  7072   0.434E-03 0.110E-04
CGA:  38    -0.354688679751E+03   -0.23352E-04   -0.23341E-04  7072   0.643E-03 0.115E-05
CGA:  39    -0.354688729778E+03   -0.50028E-04   -0.49874E-04  7072   0.818E-03 0.466E-05
CGA:  40    -0.354688803212E+03   -0.73433E-04   -0.72980E-04  7072   0.306E-03 0.105E-04
CGA:  41    -0.354688831540E+03   -0.28328E-04   -0.28292E-04  7072   0.155E-03 0.707E-06
CGA:  42    -0.354688851459E+03   -0.19919E-04   -0.20187E-04  7072   0.397E-03-0.340E-05
CGA:  43    -0.354688883725E+03   -0.32266E-04   -0.32463E-04  7072   0.182E-03-0.696E-05
CGA:  44    -0.354688891510E+03   -0.77856E-05   -0.77802E-05  7072   0.896E-04-0.547E-06
  35 F= -.35468889E+03 E0= -.35467301E+03  d E =0.677590E+00  mag=     8.0000
       N       E                     dE             d eps       ncg     rms          ort
SDA:   1    -0.330159653181E+03    0.24529E+02    0.00000E+00  7072   0.102E+03 0.000E+00
CGA:   2    -0.338616971525E+03   -0.84573E+01   -0.84671E+01  7072   0.146E+03-0.170E+00
CGA:   3    -0.344253518371E+03   -0.56365E+01   -0.46268E+01  7072   0.543E+02 0.241E+02
CGA:   4    -0.346861558531E+03   -0.26080E+01   -0.21649E+01  7072   0.817E+02 0.547E+01
CGA:   5    -0.348521042573E+03   -0.16595E+01   -0.23051E+01  7072   0.183E+03-0.313E+02
CGA:   6    -0.349578854805E+03   -0.10578E+01   -0.99416E+00  7072   0.124E+03 0.119E+02
CGA:   7    -0.350513101212E+03   -0.93425E+00   -0.13420E+01  7072   0.117E+03-0.506E+02
CGA:   8    -0.350752570467E+03   -0.23947E+00   -0.48756E+00  7072   0.148E+03-0.368E+02
CGA:   9    -0.350404012535E+03    0.34856E+00   -0.76188E+00  7072   0.201E+03-0.170E+03
CGA:  10    -0.353120226917E+03   -0.27162E+01   -0.29761E+01  7072   0.449E+02-0.277E+02
[...]
CGA:  20    -0.355356702817E+03   -0.96608E-05   -0.96657E-05  7072   0.245E-03 0.872E-06
CGA:  21    -0.355356718114E+03   -0.15297E-04   -0.15297E-04  7072   0.103E-03 0.220E-06
CGA:  22    -0.355356723499E+03   -0.53850E-05   -0.53795E-05  7072   0.618E-04-0.725E-06
  67 F= -.35535672E+03 E0= -.35534091E+03  d E =-.198862E-01  mag=     8.0000
       N       E                     dE             d eps       ncg     rms          ort
SDA:   1    -0.355297285377E+03    0.59433E-01    0.00000E+00  7072   0.291E+00 0.000E+00
CGA:   2    -0.355311625491E+03   -0.14340E-01   -0.14354E-01  7072   0.237E+00 0.294E-03
CGA:   3    -0.355339141432E+03   -0.27516E-01   -0.27595E-01  7072   0.133E+00-0.141E-02
CGA:   4    -0.355347934749E+03   -0.87933E-02   -0.87921E-02  7072   0.907E-01 0.644E-03
CGA:   5    -0.355354493772E+03   -0.65590E-02   -0.65590E-02  7072   0.461E-01-0.528E-05
CGA:   6    -0.355356198029E+03   -0.17043E-02   -0.17053E-02  7072   0.340E-01-0.243E-04
CGA:   7    -0.355357933053E+03   -0.17350E-02   -0.17337E-02  7072   0.722E-02-0.435E-04
CGA:   8    -0.355358465260E+03   -0.53221E-03   -0.53223E-03  7072   0.533E-02-0.128E-05
CGA:   9    -0.355358802336E+03   -0.33708E-03   -0.33707E-03  7072   0.396E-02-0.103E-05
CGA:  10    -0.355358968286E+03   -0.16595E-03   -0.16605E-03  7072   0.201E-02-0.942E-06
CGA:  11    -0.355359045190E+03   -0.76904E-04   -0.76745E-04  7072   0.987E-03-0.197E-05
CGA:  12    -0.355359118446E+03   -0.73256E-04   -0.73204E-04  7072   0.596E-03 0.291E-05
CGA:  13    -0.355359176125E+03   -0.57679E-04   -0.57749E-04  7072   0.417E-03-0.216E-05
CGA:  14    -0.355359191335E+03   -0.15210E-04   -0.15221E-04  7072   0.187E-03-0.473E-07
CGA:  15    -0.355359198937E+03   -0.76017E-05   -0.75888E-05  7072   0.128E-03-0.577E-06
CGA:  16    -0.355359214343E+03   -0.15406E-04   -0.15449E-04  7072   0.811E-04-0.792E-06
CGA:  17    -0.355359219159E+03   -0.48159E-05   -0.48150E-05  7072   0.757E-04-0.227E-06
  68 F= -.35535922E+03 E0= -.35534357E+03  d E =-.249566E-02  mag=     8.0000
       N       E                     dE             d eps       ncg     rms          ort
SDA:   1    -0.355325999732E+03    0.33215E-01    0.00000E+00  7072   0.166E+00 0.000E+00
CGA:   2    -0.355331596593E+03   -0.55969E-02   -0.56317E-02  7072   0.145E+00-0.412E-03
CGA:   3    -0.355346404694E+03   -0.14808E-01   -0.14831E-01  7072   0.153E+00-0.498E-03
CGA:   4    -0.355352647501E+03   -0.62428E-02   -0.62126E-02  7072   0.441E-01 0.111E-03
CGA:   5    -0.355356440122E+03   -0.37926E-02   -0.37828E-02  7072   0.316E-01 0.329E-03
CGA:   6    -0.355358268783E+03   -0.18287E-02   -0.18290E-02  7072   0.153E-01 0.820E-05
CGA:   7    -0.355358875578E+03   -0.60679E-03   -0.60374E-03  7072   0.111E-01-0.233E-05
CGA:   8    -0.355359379245E+03   -0.50367E-03   -0.50360E-03  7072   0.296E-02-0.702E-05
CGA:   9    -0.355359589812E+03   -0.21057E-03   -0.21060E-03  7072   0.183E-02-0.242E-05
CGA:  10    -0.355359757684E+03   -0.16787E-03   -0.16784E-03  7072   0.953E-03 0.885E-06
CGA:  11    -0.355359788058E+03   -0.30374E-04   -0.30289E-04  7072   0.481E-03-0.305E-06
CGA:  12    -0.355359820073E+03   -0.32016E-04   -0.32013E-04  7072   0.507E-03 0.602E-06
CGA:  13    -0.355359848125E+03   -0.28052E-04   -0.28054E-04  7072   0.193E-03 0.254E-06
CGA:  14    -0.355359861571E+03   -0.13446E-04   -0.13454E-04  7072   0.108E-03-0.112E-05
CGA:  15    -0.355359867607E+03   -0.60365E-05   -0.60333E-05  7072   0.687E-04-0.505E-06
  69 F= -.35535987E+03 E0= -.35534427E+03  d E =-.648448E-03  mag=     8.0000
       N       E                     dE             d eps       ncg     rms          ort
SDA:   1    -0.355347532366E+03    0.12329E-01    0.00000E+00  7072   0.310E+00 0.000E+00
CGA:   2    -0.355352979072E+03   -0.54467E-02   -0.56601E-02  7072   0.272E-01-0.930E-02
CGA:   3    -0.355354925878E+03   -0.19468E-02   -0.19492E-02  7072   0.353E-01-0.112E-03
CGA:   4    -0.355357899810E+03   -0.29739E-02   -0.29710E-02  7072   0.263E-01 0.962E-04
CGA:   5    -0.355358790628E+03   -0.89082E-03   -0.88823E-03  7072   0.113E-01 0.294E-04
CGA:   6    -0.355359399104E+03   -0.60848E-03   -0.60873E-03  7072   0.632E-02 0.243E-04
CGA:   7    -0.355359701027E+03   -0.30192E-03   -0.30175E-03  7072   0.300E-02-0.237E-05
CGA:   8    -0.355359916074E+03   -0.21505E-03   -0.21495E-03  7072   0.248E-02 0.639E-05
CGA:   9    -0.355359986877E+03   -0.70802E-04   -0.70802E-04  7072   0.543E-03-0.204E-07
CGA:  10    -0.355360032065E+03   -0.45188E-04   -0.45129E-04  7072   0.467E-03 0.235E-05
CGA:  11    -0.355360054924E+03   -0.22859E-04   -0.22859E-04  7072   0.286E-03 0.228E-06
CGA:  12    -0.355360066464E+03   -0.11540E-04   -0.11550E-04  7072   0.159E-03 0.476E-06
CGA:  13    -0.355360077007E+03   -0.10543E-04   -0.10548E-04  7072   0.611E-04-0.626E-06
CGA:  14    -0.355360080489E+03   -0.34817E-05   -0.34827E-05  7072   0.787E-04 0.961E-06
  70 F= -.35536008E+03 E0= -.35534448E+03  d E =-.212882E-03  mag=     8.0000
       N       E                     dE             d eps       ncg     rms          ort
SDA:   1    -0.355338583693E+03    0.21493E-01    0.00000E+00  7072   0.209E+00 0.000E+00
CGA:   2    -0.355343296790E+03   -0.47131E-02   -0.46756E-02  7072   0.596E-01 0.113E-02
CGA:   3    -0.355349047208E+03   -0.57504E-02   -0.56631E-02  7072   0.111E+00 0.207E-02
CGA:   4    -0.355356346673E+03   -0.72995E-02   -0.73051E-02  7072   0.356E-01-0.610E-03
CGA:   5    -0.355358025642E+03   -0.16790E-02   -0.16773E-02  7072   0.115E-01-0.392E-04
CGA:   6    -0.355358891198E+03   -0.86556E-03   -0.86530E-03  7072   0.203E-01 0.136E-04
CGA:   7    -0.355359604852E+03   -0.71365E-03   -0.71352E-03  7072   0.335E-02 0.797E-06
CGA:   8    -0.355359787658E+03   -0.18281E-03   -0.18282E-03  7072   0.160E-02 0.266E-05
CGA:   9    -0.355359910938E+03   -0.12328E-03   -0.12331E-03  7072   0.794E-03-0.138E-05
CGA:  10    -0.355359962332E+03   -0.51394E-04   -0.51388E-04  7072   0.654E-03 0.929E-06
CGA:  11    -0.355359999100E+03   -0.36768E-04   -0.36768E-04  7072   0.306E-03-0.599E-07
CGA:  12    -0.355360008291E+03   -0.91913E-05   -0.91643E-05  7072   0.143E-03-0.551E-06
CGA:  13    -0.355360021495E+03   -0.13204E-04   -0.13174E-04  7072   0.111E-03 0.861E-06
CGA:  14    -0.355360028579E+03   -0.70839E-05   -0.70799E-05  7072   0.368E-04 0.943E-06
  71 F= -.35536003E+03 E0= -.35534441E+03  d E =0.519095E-04  mag=     8.0000
       N       E                     dE             d eps       ncg     rms          ort
SDA:   1    -0.355286117738E+03    0.73904E-01    0.00000E+00  7072   0.276E+00 0.000E+00
CGA:   2    -0.355301244995E+03   -0.15127E-01   -0.15205E-01  7072   0.351E+00 0.652E-02
CGA:   3    -0.355332031142E+03   -0.30786E-01   -0.30785E-01  7072   0.480E+00 0.805E-04
CGA:   4    -0.355347129837E+03   -0.15099E-01   -0.15146E-01  7072   0.882E-01-0.741E-03
CGA:   5    -0.355352366462E+03   -0.52366E-02   -0.52365E-02  7072   0.507E-01-0.361E-03
CGA:   6    -0.355357679622E+03   -0.53132E-02   -0.53095E-02  7072   0.168E-01 0.789E-04
CGA:   7    -0.355358490607E+03   -0.81098E-03   -0.81179E-03  7072   0.685E-02 0.192E-04
CGA:   8    -0.355359020656E+03   -0.53005E-03   -0.52987E-03  7072   0.534E-02 0.692E-05
CGA:   9    -0.355359286409E+03   -0.26575E-03   -0.26569E-03  7072   0.381E-02-0.346E-05
CGA:  10    -0.355359434568E+03   -0.14816E-03   -0.14838E-03  7072   0.182E-02 0.745E-06
CGA:  11    -0.355359515669E+03   -0.81102E-04   -0.81081E-04  7072   0.576E-03-0.102E-05
CGA:  12    -0.355359592511E+03   -0.76842E-04   -0.76809E-04  7072   0.434E-03 0.473E-06
CGA:  13    -0.355359614188E+03   -0.21677E-04   -0.21680E-04  7072   0.190E-03 0.188E-06
CGA:  14    -0.355359626838E+03   -0.12650E-04   -0.12641E-04  7072   0.178E-03 0.216E-05
CGA:  15    -0.355359634024E+03   -0.71860E-05   -0.71993E-05  7072   0.115E-03 0.611E-06
  72 F= -.35535963E+03 E0= -.35534400E+03  d E =0.394555E-03  mag=     8.0000
       N       E                     dE             d eps       ncg     rms          ort
SDA:   1    -0.355240643630E+03    0.11898E+00    0.00000E+00  7072   0.553E+00 0.000E+00
CGA:   2    -0.355263156192E+03   -0.22513E-01   -0.22626E-01  7072   0.491E+00-0.598E-04
CGA:   3    -0.355302346294E+03   -0.39190E-01   -0.39475E-01  7072   0.878E+00-0.107E-01
CGA:   4    -0.355337077471E+03   -0.34731E-01   -0.35174E-01  7072   0.167E+00-0.479E-04
CGA:   5    -0.355345771957E+03   -0.86945E-02   -0.86994E-02  7072   0.946E-01 0.212E-03
CGA:   6    -0.355353723905E+03   -0.79519E-02   -0.79630E-02  7072   0.957E-01-0.368E-03
CGA:   7    -0.355356254399E+03   -0.25305E-02   -0.25305E-02  7072   0.226E-01-0.168E-04
CGA:   8    -0.355357417659E+03   -0.11633E-02   -0.11618E-02  7072   0.946E-02-0.676E-04
CGA:   9    -0.355358319625E+03   -0.90197E-03   -0.90148E-03  7072   0.595E-02 0.117E-04
CGA:  10    -0.355358657051E+03   -0.33743E-03   -0.33745E-03  7072   0.511E-02 0.323E-05
CGA:  11    -0.355358821848E+03   -0.16480E-03   -0.16430E-03  7072   0.160E-02 0.369E-05
CGA:  12    -0.355358919356E+03   -0.97508E-04   -0.97511E-04  7072   0.147E-02-0.166E-05
CGA:  13    -0.355359031333E+03   -0.11198E-03   -0.11206E-03  7072   0.617E-03-0.479E-05
CGA:  14    -0.355359064104E+03   -0.32771E-04   -0.32771E-04  7072   0.298E-03 0.101E-06
CGA:  15    -0.355359082982E+03   -0.18878E-04   -0.18876E-04  7072   0.338E-03 0.448E-06
CGA:  16    -0.355359095135E+03   -0.12153E-04   -0.12129E-04  7072   0.157E-03-0.656E-06
CGA:  17    -0.355359116806E+03   -0.21671E-04   -0.21704E-04  7072   0.653E-04-0.447E-06
CGA:  18    -0.355359120811E+03   -0.40043E-05   -0.40036E-05  7072   0.618E-04-0.488E-06
  73 F= -.35535912E+03 E0= -.35534349E+03  d E =0.513214E-03  mag=     8.0000
       N       E                     dE             d eps       ncg     rms          ort
SDA:   1    -0.355123105079E+03    0.23601E+00    0.00000E+00  7072   0.742E+00 0.000E+00
CGA:   2    -0.355182518104E+03   -0.59413E-01   -0.59413E-01  7072   0.170E+01 0.302E-03
CGA:   3    -0.355270284685E+03   -0.87767E-01   -0.86520E-01  7072   0.106E+01-0.156E-01
CGA:   4    -0.355317008961E+03   -0.46724E-01   -0.47189E-01  7072   0.271E+00 0.174E-02
CGA:   5    -0.355335637921E+03   -0.18629E-01   -0.18611E-01  7072   0.226E+00 0.237E-02
CGA:   6    -0.355350411302E+03   -0.14773E-01   -0.14773E-01  7072   0.786E-01-0.466E-03
CGA:   7    -0.355353664736E+03   -0.32534E-02   -0.32425E-02  7072   0.507E-01 0.441E-04
CGA:   8    -0.355355608820E+03   -0.19441E-02   -0.19554E-02  7072   0.217E-01-0.464E-04
CGA:   9    -0.355356942840E+03   -0.13340E-02   -0.13340E-02  7072   0.124E-01-0.283E-04
CGA:  10    -0.355357985316E+03   -0.10425E-02   -0.10416E-02  7072   0.456E-02 0.293E-04
CGA:  11    -0.355358216469E+03   -0.23115E-03   -0.23093E-03  7072   0.358E-02-0.665E-05
CGA:  12    -0.355358419693E+03   -0.20322E-03   -0.20327E-03  7072   0.321E-02 0.545E-05
CGA:  13    -0.355358544230E+03   -0.12454E-03   -0.12454E-03  7072   0.139E-02 0.140E-05
CGA:  14    -0.355358655383E+03   -0.11115E-03   -0.11113E-03  7072   0.460E-03 0.108E-05
CGA:  15    -0.355358683847E+03   -0.28465E-04   -0.28465E-04  7072   0.398E-03 0.922E-06
CGA:  16    -0.355358719416E+03   -0.35569E-04   -0.35518E-04  7072   0.672E-03 0.193E-05
CGA:  17    -0.355358741958E+03   -0.22542E-04   -0.22529E-04  7072   0.153E-03 0.257E-06
CGA:  18    -0.355358752259E+03   -0.10301E-04   -0.10296E-04  7072   0.157E-03 0.747E-06
CGA:  19    -0.355358765348E+03   -0.13089E-04   -0.13096E-04  7072   0.116E-03-0.328E-06
CGA:  20    -0.355358775801E+03   -0.10453E-04   -0.10441E-04  7072   0.193E-03 0.369E-06
CGA:  21    -0.355358782569E+03   -0.67676E-05   -0.67503E-05  7072   0.668E-04-0.577E-06
  74 F= -.35535878E+03 E0= -.35534318E+03  d E =0.338242E-03  mag=     8.0000
       N       E                     dE             d eps       ncg     rms          ort
SDA:   1    -0.354734073230E+03    0.62470E+00    0.00000E+00  7072   0.173E+01 0.000E+00
CGA:   2    -0.354946800042E+03   -0.21273E+00   -0.20940E+00  7072   0.506E+01 0.559E-01
CGA:   3    -0.355182892495E+03   -0.23609E+00   -0.23466E+00  7072   0.211E+01-0.319E-02
CGA:   4    -0.355244404014E+03   -0.61512E-01   -0.69018E-01  7072   0.762E+00-0.107E+00
CGA:   5    -0.355315676857E+03   -0.71273E-01   -0.71573E-01  7072   0.490E+00-0.684E-02
CGA:   6    -0.355337524192E+03   -0.21847E-01   -0.21968E-01  7072   0.135E+00 0.429E-03
CGA:   7    -0.355344098419E+03   -0.65742E-02   -0.65192E-02  7072   0.126E+00-0.600E-03
CGA:   8    -0.355349416853E+03   -0.53184E-02   -0.53253E-02  7072   0.551E-01 0.189E-04
CGA:   9    -0.355352989103E+03   -0.35722E-02   -0.35721E-02  7072   0.284E-01 0.457E-04
CGA:  10    -0.355354491198E+03   -0.15021E-02   -0.15033E-02  7072   0.111E-01 0.389E-04
CGA:  11    -0.355355199118E+03   -0.70792E-03   -0.70799E-03  7072   0.136E-01-0.220E-04
CGA:  12    -0.355355781358E+03   -0.58224E-03   -0.58306E-03  7072   0.735E-02 0.982E-05
CGA:  13    -0.355356136491E+03   -0.35513E-03   -0.35499E-03  7072   0.224E-02-0.114E-05
CGA:  14    -0.355356313359E+03   -0.17687E-03   -0.17668E-03  7072   0.159E-02 0.779E-05
CGA:  15    -0.355356401912E+03   -0.88553E-04   -0.88508E-04  7072   0.133E-02-0.395E-05
CGA:  16    -0.355356471022E+03   -0.69110E-04   -0.69150E-04  7072   0.133E-02 0.308E-05
CGA:  17    -0.355356536457E+03   -0.65435E-04   -0.65456E-04  7072   0.353E-03 0.195E-05
CGA:  18    -0.355356561176E+03   -0.24718E-04   -0.24718E-04  7072   0.369E-03-0.148E-06
CGA:  19    -0.355356602511E+03   -0.41335E-04   -0.41414E-04  7072   0.511E-03-0.156E-05
CGA:  20    -0.355356618695E+03   -0.16185E-04   -0.16210E-04  7072   0.224E-03 0.134E-06
CGA:  21    -0.355356635181E+03   -0.16486E-04   -0.16488E-04  7072   0.208E-03-0.153E-06
CGA:  22    -0.355356649364E+03   -0.14182E-04   -0.14177E-04  7072   0.136E-03 0.712E-06
CGA:  23    -0.355356662550E+03   -0.13187E-04   -0.13235E-04  7072   0.145E-03-0.146E-05
CGA:  24    -0.355356667790E+03   -0.52397E-05   -0.52425E-05  7072   0.752E-04 0.240E-07
  75 F= -.35535667E+03 E0= -.35534101E+03  d E =0.211478E-02  mag=     8.0000
       N       E                     dE             d eps       ncg     rms          ort
SDA:   1    -0.354720215305E+03    0.63645E+00    0.00000E+00  7072   0.204E+01 0.000E+00
CGA:   2    -0.354869061464E+03   -0.14885E+00   -0.14928E+00  7072   0.452E+01-0.247E-01
CGA:   3    -0.355139943647E+03   -0.27088E+00   -0.27097E+00  7072   0.241E+01 0.204E-01
CGA:   4    -0.355224889893E+03   -0.84946E-01   -0.78883E-01  7072   0.695E+00 0.895E-01
CGA:   5    -0.355310300015E+03   -0.85410E-01   -0.85311E-01  7072   0.574E+00 0.158E-02
CGA:   6    -0.355332899072E+03   -0.22599E-01   -0.22813E-01  7072   0.219E+00-0.103E-02
CGA:   7    -0.355340115009E+03   -0.72159E-02   -0.71527E-02  7072   0.124E+00 0.847E-03
CGA:   8    -0.355348406004E+03   -0.82910E-02   -0.82911E-02  7072   0.437E-01-0.669E-05
CGA:   9    -0.355352208637E+03   -0.38026E-02   -0.38007E-02  7072   0.371E-01 0.580E-04
CGA:  10    -0.355353709543E+03   -0.15009E-02   -0.15008E-02  7072   0.207E-01-0.317E-05
CGA:  11    -0.355354441286E+03   -0.73174E-03   -0.73793E-03  7072   0.894E-02-0.457E-04
CGA:  12    -0.355355120016E+03   -0.67873E-03   -0.67839E-03  7072   0.103E-01 0.176E-04
CGA:  13    -0.355355707057E+03   -0.58704E-03   -0.58690E-03  7072   0.208E-02-0.153E-04
CGA:  14    -0.355355877120E+03   -0.17006E-03   -0.17016E-03  7072   0.212E-02-0.452E-05
CGA:  15    -0.355355959408E+03   -0.82288E-04   -0.82275E-04  7072   0.154E-02-0.143E-05
CGA:  16    -0.355356048810E+03   -0.89403E-04   -0.89415E-04  7072   0.115E-02 0.311E-05
CGA:  17    -0.355356142821E+03   -0.94010E-04   -0.94003E-04  7072   0.278E-03 0.952E-07
CGA:  18    -0.355356172011E+03   -0.29190E-04   -0.29160E-04  7072   0.414E-03 0.520E-06
CGA:  19    -0.355356200223E+03   -0.28212E-04   -0.28214E-04  7072   0.351E-03-0.579E-06
CGA:  20    -0.355356227048E+03   -0.26825E-04   -0.26820E-04  7072   0.341E-03 0.396E-06
CGA:  21    -0.355356237452E+03   -0.10404E-04   -0.10450E-04  7072   0.121E-03 0.104E-05
CGA:  22    -0.355356245056E+03   -0.76047E-05   -0.76048E-05  7072   0.110E-03 0.524E-06
CGA:  23    -0.355356259135E+03   -0.14079E-04   -0.14043E-04  7072   0.566E-04 0.501E-06
CGA:  24    -0.355356263307E+03   -0.41716E-05   -0.41737E-05  7072   0.373E-04-0.356E-06
  76 F= -.35535626E+03 E0= -.35534053E+03  d E =0.404483E-03  mag=     8.0000
       N       E                     dE             d eps       ncg     rms          ort
SDA:   1    -0.355198721544E+03    0.15754E+00    0.00000E+00  7072   0.654E+00 0.000E+00
CGA:   2    -0.355228298633E+03   -0.29577E-01   -0.29133E-01  7072   0.855E+00 0.475E-03
CGA:   3    -0.355293270279E+03   -0.64972E-01   -0.64937E-01  7072   0.617E+00 0.248E-02
CGA:   4    -0.355317444595E+03   -0.24174E-01   -0.24000E-01  7072   0.220E+00 0.185E-02
CGA:   5    -0.355341689017E+03   -0.24244E-01   -0.24326E-01  7072   0.167E+00-0.167E-02
CGA:   6    -0.355350437216E+03   -0.87482E-02   -0.88014E-02  7072   0.430E-01 0.796E-03
CGA:   7    -0.355353776095E+03   -0.33389E-02   -0.33439E-02  7072   0.300E-01-0.317E-03
CGA:   8    -0.355354780935E+03   -0.10048E-02   -0.10058E-02  7072   0.184E-01-0.751E-05
CGA:   9    -0.355355897997E+03   -0.11171E-02   -0.11171E-02  7072   0.114E-01-0.308E-05
CGA:  10    -0.355356527604E+03   -0.62961E-03   -0.62958E-03  7072   0.322E-02-0.129E-05
CGA:  11    -0.355356713544E+03   -0.18594E-03   -0.18596E-03  7072   0.263E-02 0.232E-05
CGA:  12    -0.355357007284E+03   -0.29374E-03   -0.29381E-03  7072   0.125E-02-0.136E-05
CGA:  13    -0.355357057597E+03   -0.50312E-04   -0.50257E-04  7072   0.104E-02-0.136E-05
CGA:  14    -0.355357104501E+03   -0.46905E-04   -0.46934E-04  7072   0.401E-03-0.109E-07
CGA:  15    -0.355357135011E+03   -0.30509E-04   -0.30507E-04  7072   0.360E-03 0.923E-07
CGA:  16    -0.355357167794E+03   -0.32784E-04   -0.32738E-04  7072   0.165E-03 0.168E-05
CGA:  17    -0.355357175535E+03   -0.77408E-05   -0.77309E-05  7072   0.988E-04-0.490E-06
  77 F= -.35535718E+03 E0= -.35534149E+03  d E =-.912228E-03  mag=     8.0000
       N       E                     dE             d eps       ncg     rms          ort
SDA:   1    -0.355298148354E+03    0.59019E-01    0.00000E+00  7072   0.715E+00 0.000E+00
CGA:   2    -0.355311767297E+03   -0.13619E-01   -0.14063E-01  7072   0.155E+00-0.185E-01
CGA:   3    -0.355337427247E+03   -0.25660E-01   -0.25790E-01  7072   0.241E+00-0.134E-02
CGA:   4    -0.355346229022E+03   -0.88018E-02   -0.90342E-02  7072   0.883E-01-0.239E-02
CGA:   5    -0.355351017930E+03   -0.47889E-02   -0.47813E-02  7072   0.890E-01-0.145E-03
CGA:   6    -0.355354791335E+03   -0.37734E-02   -0.37661E-02  7072   0.304E-01 0.459E-04
CGA:   7    -0.355356614004E+03   -0.18227E-02   -0.18222E-02  7072   0.141E-01-0.289E-04
CGA:   8    -0.355357247545E+03   -0.63354E-03   -0.63514E-03  7072   0.796E-02 0.103E-04
CGA:   9    -0.355357541383E+03   -0.29384E-03   -0.29400E-03  7072   0.415E-02 0.814E-06
CGA:  10    -0.355357892970E+03   -0.35159E-03   -0.35124E-03  7072   0.227E-02 0.142E-04
CGA:  11    -0.355357992493E+03   -0.99523E-04   -0.99207E-04  7072   0.137E-02-0.201E-05
CGA:  12    -0.355358052856E+03   -0.60363E-04   -0.60372E-04  7072   0.890E-03 0.442E-06
CGA:  13    -0.355358108046E+03   -0.55190E-04   -0.55190E-04  7072   0.544E-03 0.215E-06
CGA:  14    -0.355358139790E+03   -0.31744E-04   -0.31749E-04  7072   0.414E-03 0.159E-05
CGA:  15    -0.355358160498E+03   -0.20708E-04   -0.20717E-04  7072   0.247E-03 0.958E-06
CGA:  16    -0.355358168533E+03   -0.80346E-05   -0.80691E-05  7072   0.728E-04 0.107E-05
CGA:  17    -0.355358180375E+03   -0.11842E-04   -0.11834E-04  7072   0.141E-03 0.259E-07
CGA:  18    -0.355358184963E+03   -0.45885E-05   -0.46148E-05  7072   0.563E-04 0.671E-06
  78 F= -.35535818E+03 E0= -.35534245E+03  d E =-.100943E-02  mag=     8.0000
