       N       E                     dE             d eps       ncg     rms          rms(c)
DAV:   1     0.608711741307E+04    0.60871E+04   -0.25262E+05 34344   0.162E+03
DAV:   2     0.361986832874E+03   -0.57251E+04   -0.52254E+04 33656   0.475E+02
DAV:   3    -0.372836038245E+03   -0.73482E+03   -0.72050E+03 33776   0.189E+02
DAV:   4    -0.394866412342E+03   -0.22030E+02   -0.21897E+02 35632   0.345E+01
DAV:   5    -0.395343644301E+03   -0.47723E+00   -0.47471E+00 43832   0.440E+00    0.886E+01
DAV:   6    -0.332782359774E+03    0.62561E+02   -0.34389E+02 41416   0.659E+01    0.870E+01
DAV:   7    -0.337728452787E+03   -0.49461E+01   -0.11593E+02 33984   0.662E+01    0.104E+02
DAV:   8    -0.342632385730E+03   -0.49039E+01   -0.10280E+02 38104   0.418E+01    0.906E+01
DAV:   9    -0.323437083870E+03    0.19195E+02   -0.66309E+01 34488   0.297E+01    0.761E+01
DAV:  10    -0.321928015553E+03    0.15091E+01   -0.96509E+01 34232   0.313E+01    0.657E+01
DAV:  11    -0.339669869730E+03   -0.17742E+02   -0.10492E+02 35000   0.345E+01    0.102E+02
DAV:  12    -0.314051391922E+03    0.25618E+02   -0.76432E+01 34736   0.289E+01    0.661E+01
DAV:  13    -0.307892086878E+03    0.61593E+01   -0.22890E+01 34872   0.218E+01    0.549E+01
DAV:  14    -0.303003747989E+03    0.48883E+01   -0.11294E+01 34040   0.144E+01    0.418E+01
DAV:  15    -0.305095828289E+03   -0.20921E+01   -0.37025E+00 34128   0.590E+00    0.298E+01
DAV:  16    -0.307092646154E+03   -0.19968E+01   -0.94378E+00 34856   0.466E+00    0.341E+01
DAV:  17    -0.310363834693E+03   -0.32712E+01   -0.67609E+00 34912   0.459E+00    0.314E+01
DAV:  18    -0.312356795554E+03   -0.19930E+01   -0.11982E+01 35216   0.497E+00    0.318E+01
DAV:  19    -0.312418063402E+03   -0.61268E-01   -0.28026E+00 33896   0.414E+00    0.265E+01
DAV:  20    -0.311906400810E+03    0.51166E+00   -0.63670E-01 33824   0.211E+00    0.300E+01
DAV:  21    -0.311994792795E+03   -0.88392E-01   -0.17696E+00 33272   0.168E+00    0.257E+01
DAV:  22    -0.312827322874E+03   -0.83253E+00   -0.32838E-01 33912   0.181E+00    0.261E+01
DAV:  23    -0.312320141058E+03    0.50718E+00   -0.15097E-01 33368   0.105E+00    0.271E+01
DAV:  24    -0.312536290386E+03   -0.21615E+00   -0.40736E-02 33760   0.434E-01    0.269E+01
DAV:  25    -0.313443653497E+03   -0.90736E+00   -0.54887E-01 35896   0.160E+00    0.296E+01
DAV:  26    -0.313382855855E+03    0.60798E-01   -0.46125E-01 35408   0.109E+00    0.299E+01
DAV:  27    -0.313327386644E+03    0.55469E-01   -0.15343E-02 33608   0.397E-01    0.302E+01
DAV:  28    -0.315809049676E+03   -0.24817E+01   -0.15211E+00 38168   0.469E+00    0.227E+01
DAV:  29    -0.316972910214E+03   -0.11639E+01   -0.33174E+00 35136   0.646E+00    0.211E+01
DAV:  30    -0.318671499882E+03   -0.16986E+01   -0.66639E-01 34336   0.313E+00    0.186E+01
DAV:  31    -0.319992330863E+03   -0.13208E+01   -0.62493E-01 40144   0.293E+00    0.155E+01
DAV:  32    -0.320126731489E+03   -0.13440E+00   -0.17163E-01 34696   0.128E+00    0.146E+01
DAV:  33    -0.319927475575E+03    0.19926E+00   -0.31325E-01 37600   0.206E+00    0.141E+01
DAV:  34    -0.319238142470E+03    0.68933E+00   -0.36968E-01 38904   0.208E+00    0.150E+01
DAV:  35    -0.318855827698E+03    0.38231E+00   -0.92821E-02 37568   0.946E-01    0.162E+01
DAV:  36    -0.317886042808E+03    0.96978E+00   -0.81609E-02 38736   0.123E+00    0.201E+01
DAV:  37    -0.319084173535E+03   -0.11981E+01   -0.14327E-01 35896   0.149E+00    0.147E+01
DAV:  38    -0.319790521062E+03   -0.70635E+00   -0.32601E-01 38520   0.231E+00    0.903E+00
DAV:  39    -0.319580765573E+03    0.20976E+00   -0.19532E-01 39272   0.191E+00    0.849E+00
DAV:  40    -0.319347773570E+03    0.23299E+00   -0.94268E-02 38032   0.133E+00    0.908E+00
DAV:  41    -0.319237256142E+03    0.11052E+00   -0.70478E-02 36728   0.118E+00    0.935E+00
DAV:  42    -0.319344311200E+03   -0.10706E+00   -0.65102E-02 35720   0.967E-01    0.792E+00
DAV:  43    -0.319347230053E+03   -0.29189E-02   -0.18789E-02 34784   0.333E-01    0.792E+00
DAV:  44    -0.319369393015E+03   -0.22163E-01   -0.26593E-03 36872   0.224E-01    0.750E+00
DAV:  45    -0.319463205302E+03   -0.93812E-01   -0.13293E-01 37448   0.151E+00    0.545E+00
DAV:  46    -0.319524564901E+03   -0.61360E-01   -0.58205E-02 40160   0.879E-01    0.391E+00
DAV:  47    -0.319535548979E+03   -0.10984E-01   -0.12747E-02 33936   0.318E-01    0.348E+00
DAV:  48    -0.319545293808E+03   -0.97448E-02   -0.84525E-03 40872   0.400E-01    0.294E+00
DAV:  49    -0.319549485773E+03   -0.41920E-02   -0.81669E-03 41160   0.356E-01    0.248E+00
DAV:  50    -0.319551941382E+03   -0.24556E-02   -0.63437E-03 36928   0.259E-01    0.219E+00
DAV:  51    -0.319545862562E+03    0.60788E-02   -0.51851E-03 35880   0.341E-01    0.224E+00
DAV:  52    -0.319554645385E+03   -0.87828E-02   -0.32854E-03 35592   0.210E-01    0.170E+00
DAV:  53    -0.319556440913E+03   -0.17955E-02   -0.27004E-03 37056   0.208E-01    0.143E+00
DAV:  54    -0.319559853825E+03   -0.34129E-02   -0.13403E-03 39008   0.138E-01    0.111E+00
DAV:  55    -0.319561772197E+03   -0.19184E-02   -0.87282E-04 39296   0.104E-01    0.863E-01
DAV:  56    -0.319564065176E+03   -0.22930E-02   -0.47139E-03 39568   0.290E-01    0.244E-01
DAV:  57    -0.319564136315E+03   -0.71139E-04   -0.11371E-03 34664   0.104E-01    0.170E-01
DAV:  58    -0.319564185367E+03   -0.49052E-04   -0.21973E-04 33608   0.577E-02    0.952E-02
DAV:  59    -0.319564194843E+03   -0.94759E-05   -0.66409E-05 29256   0.287E-02
   1 F= -.31956419E+03 E0= -.31955927E+03  d E =-.319564E+03  mag=    43.9819
       N       E                     dE             d eps       ncg     rms          rms(c)
DAV:   1    -0.319667952532E+03   -0.10377E+00   -0.23869E+00 33832   0.518E+00    0.272E+00
DAV:   2    -0.319578935085E+03    0.89017E-01   -0.30047E-01 34024   0.196E+00    0.209E+00
DAV:   3    -0.319577088142E+03    0.18469E-02   -0.69899E-02 41040   0.113E+00    0.218E+00
DAV:   4    -0.319570830696E+03    0.62574E-02   -0.54088E-02 37168   0.851E-01    0.130E+00
DAV:   5    -0.319570087532E+03    0.74316E-03   -0.32785E-02 36056   0.530E-01    0.108E+00
DAV:   6    -0.319568523832E+03    0.15637E-02   -0.12048E-02 34352   0.351E-01    0.335E-01
DAV:   7    -0.319568579189E+03   -0.55357E-04   -0.17400E-03 39584   0.169E-01    0.451E-01
DAV:   8    -0.319568306437E+03    0.27275E-03   -0.11552E-03 39056   0.134E-01    0.165E-01
DAV:   9    -0.319568307433E+03   -0.99552E-06   -0.38868E-04 35112   0.697E-02    0.119E-01
DAV:  10    -0.319568293623E+03    0.13810E-04   -0.14491E-04 29352   0.427E-02    0.500E-02
DAV:  11    -0.319568292160E+03    0.14634E-05   -0.22031E-05 22056   0.206E-02
   2 F= -.31956829E+03 E0= -.31956336E+03  d E =-.409732E-02  mag=    43.9969
       N       E                     dE             d eps       ncg     rms          rms(c)
DAV:   1    -0.319569662922E+03   -0.13693E-02   -0.30343E-02 33912   0.584E-01    0.307E-01
DAV:   2    -0.319568528476E+03    0.11344E-02   -0.38552E-03 34080   0.219E-01    0.240E-01
DAV:   3    -0.319568517577E+03    0.10899E-04   -0.10470E-03 41192   0.131E-01    0.266E-01
DAV:   4    -0.319568424903E+03    0.92674E-04   -0.84442E-04 36504   0.100E-01    0.148E-01
DAV:   5    -0.319568415783E+03    0.91204E-05   -0.44866E-04 33400   0.630E-02    0.121E-01
DAV:   6    -0.319568395716E+03    0.20066E-04   -0.13751E-04 27360   0.405E-02    0.390E-02
DAV:   7    -0.319568397103E+03   -0.13864E-05   -0.19609E-05 21176   0.198E-02
   3 F= -.31956840E+03 E0= -.31956347E+03  d E =-.420226E-02  mag=    43.9991
       N       E                     dE             d eps       ncg     rms          rms(c)
DAV:   1    -0.319577382037E+03   -0.89863E-02   -0.16141E+00 32464   0.385E+00    0.101E+00
DAV:   2    -0.319572357571E+03    0.50245E-02   -0.10408E-01 33704   0.103E+00    0.868E-01
DAV:   3    -0.319572285454E+03    0.72117E-04   -0.14542E-02 36832   0.512E-01    0.965E-01
DAV:   4    -0.319570989765E+03    0.12957E-02   -0.77376E-03 36936   0.326E-01    0.419E-01
DAV:   5    -0.319570931654E+03    0.58111E-04   -0.47420E-03 36080   0.220E-01    0.433E-01
DAV:   6    -0.319570649194E+03    0.28246E-03   -0.22232E-03 34792   0.148E-01    0.158E-01
DAV:   7    -0.319570666680E+03   -0.17486E-04   -0.44363E-04 34688   0.783E-02    0.197E-01
DAV:   8    -0.319570617263E+03    0.49417E-04   -0.21323E-04 32504   0.606E-02    0.597E-02
DAV:   9    -0.319570622397E+03   -0.51342E-05   -0.60458E-05 24480   0.273E-02
   4 F= -.31957062E+03 E0= -.31956568E+03  d E =-.222529E-02  mag=    43.9998
       N       E                     dE             d eps       ncg     rms          rms(c)
DAV:   1    -0.319571211430E+03   -0.59417E-03   -0.12004E-01 32568   0.105E+00    0.279E-01
DAV:   2    -0.319570832094E+03    0.37934E-03   -0.78808E-03 33640   0.284E-01    0.264E-01
DAV:   3    -0.319570833815E+03   -0.17210E-05   -0.12822E-03 36456   0.144E-01    0.290E-01
DAV:   4    -0.319570725573E+03    0.10824E-03   -0.67767E-04 35816   0.895E-02    0.124E-01
DAV:   5    -0.319570717015E+03    0.85583E-05   -0.29765E-04 33376   0.618E-02    0.114E-01
DAV:   6    -0.319570697374E+03    0.19641E-04   -0.10240E-04 26808   0.394E-02    0.438E-02
DAV:   7    -0.319570699138E+03   -0.17642E-05   -0.34991E-05 22304   0.208E-02
   5 F= -.31957070E+03 E0= -.31956577E+03  d E =-.230204E-02  mag=    43.9999
       N       E                     dE             d eps       ncg     rms          rms(c)
DAV:   1    -0.319568253438E+03    0.24439E-02   -0.78657E-01 35136   0.315E+00    0.474E-01
DAV:   2    -0.319572697983E+03   -0.44445E-02   -0.63758E-02 32824   0.661E-01    0.396E-01
DAV:   3    -0.319572790414E+03   -0.92431E-04   -0.37365E-03 33584   0.246E-01    0.452E-01
DAV:   4    -0.319572493678E+03    0.29674E-03   -0.15011E-03 35688   0.146E-01    0.198E-01
DAV:   5    -0.319572452359E+03    0.41318E-04   -0.71128E-04 35736   0.976E-02    0.208E-01
DAV:   6    -0.319572368143E+03    0.84216E-04   -0.35882E-04 34120   0.744E-02    0.951E-02
DAV:   7    -0.319572371300E+03   -0.31570E-05   -0.13823E-04 29432   0.430E-02    0.969E-02
DAV:   8    -0.319572360187E+03    0.11113E-04   -0.84374E-05 25296   0.334E-02    0.398E-02
DAV:   9    -0.319572360411E+03   -0.22442E-06   -0.21677E-05 20352   0.164E-02
   6 F= -.31957236E+03 E0= -.31956744E+03  d E =-.166127E-02  mag=    44.0000
       N       E                     dE             d eps       ncg     rms          rms(c)
DAV:   1    -0.319567420163E+03    0.49400E-02   -0.10712E+00 35272   0.367E+00    0.555E-01
DAV:   2    -0.319573523641E+03   -0.61035E-02   -0.87243E-02 32808   0.772E-01    0.482E-01
DAV:   3    -0.319573679914E+03   -0.15627E-03   -0.53221E-03 33840   0.293E-01    0.563E-01
DAV:   4    -0.319573241545E+03    0.43837E-03   -0.21445E-03 35536   0.174E-01    0.246E-01
DAV:   5    -0.319573175487E+03    0.66057E-04   -0.85393E-04 36032   0.112E-01    0.234E-01
DAV:   6    -0.319573066834E+03    0.10865E-03   -0.42454E-04 35696   0.838E-02    0.117E-01
DAV:   7    -0.319573069625E+03   -0.27913E-05   -0.24445E-04 31288   0.529E-02    0.113E-01
DAV:   8    -0.319573053773E+03    0.15852E-04   -0.14533E-04 27096   0.398E-02    0.481E-02
DAV:   9    -0.319573053687E+03    0.85980E-07   -0.31488E-05 22120   0.195E-02
   7 F= -.31957305E+03 E0= -.31956815E+03  d E =-.235455E-02  mag=    44.0000
       N       E                     dE             d eps       ncg     rms          rms(c)
DAV:   1    -0.319570684533E+03    0.23692E-02   -0.38864E-01 36360   0.258E+00    0.394E-01
DAV:   2    -0.319574274664E+03   -0.35901E-02   -0.44096E-02 32264   0.531E-01    0.400E-01
DAV:   3    -0.319574374469E+03   -0.99804E-04   -0.33267E-03 33016   0.221E-01    0.399E-01
DAV:   4    -0.319574155522E+03    0.21895E-03   -0.11353E-03 34080   0.121E-01    0.177E-01
DAV:   5    -0.319574114785E+03    0.40737E-04   -0.39161E-04 33424   0.761E-02    0.170E-01
DAV:   6    -0.319574057697E+03    0.57088E-04   -0.19975E-04 33648   0.593E-02    0.864E-02
DAV:   7    -0.319574054807E+03    0.28903E-05   -0.14553E-04 27952   0.409E-02    0.792E-02
DAV:   8    -0.319574047515E+03    0.72915E-05   -0.85542E-05 23392   0.299E-02
   8 F= -.31957405E+03 E0= -.31956916E+03  d E =-.993828E-03  mag=    44.0000
       N       E                     dE             d eps       ncg     rms          rms(c)
DAV:   1    -0.319572200929E+03    0.18539E-02   -0.23310E-01 36408   0.200E+00    0.305E-01
DAV:   2    -0.319574350025E+03   -0.21491E-02   -0.26480E-02 32312   0.412E-01    0.302E-01
DAV:   3    -0.319574412986E+03   -0.62962E-04   -0.19051E-03 32760   0.169E-01    0.303E-01
DAV:   4    -0.319574284997E+03    0.12799E-03   -0.62384E-04 33504   0.928E-02    0.135E-01
DAV:   5    -0.319574264899E+03    0.20098E-04   -0.24520E-04 31600   0.577E-02    0.148E-01
DAV:   6    -0.319574225282E+03    0.39617E-04   -0.13750E-04 30976   0.478E-02    0.641E-02
DAV:   7    -0.319574223452E+03    0.18301E-05   -0.63246E-05 23672   0.312E-02
   9 F= -.31957422E+03 E0= -.31956936E+03  d E =-.116976E-02  mag=    44.0000
       N       E                     dE             d eps       ncg     rms          rms(c)
DAV:   1    -0.319571871196E+03    0.23541E-02   -0.45465E-01 35976   0.248E+00    0.355E-01
DAV:   2    -0.319574982610E+03   -0.31114E-02   -0.36935E-02 33136   0.506E-01    0.375E-01
DAV:   3    -0.319575055235E+03   -0.72625E-04   -0.27229E-03 33976   0.194E-01    0.364E-01
DAV:   4    -0.319574868649E+03    0.18659E-03   -0.10404E-03 33968   0.107E-01    0.153E-01
DAV:   5    -0.319574827640E+03    0.41009E-04   -0.35208E-04 34232   0.754E-02    0.170E-01
DAV:   6    -0.319574773099E+03    0.54541E-04   -0.19154E-04 34240   0.619E-02    0.830E-02
DAV:   7    -0.319574773781E+03   -0.68227E-06   -0.13032E-04 28048   0.402E-02    0.818E-02
DAV:   8    -0.319574766855E+03    0.69262E-05   -0.75341E-05 24224   0.297E-02
  10 F= -.31957477E+03 E0= -.31956990E+03  d E =-.543403E-03  mag=    44.0000
       N       E                     dE             d eps       ncg     rms          rms(c)
DAV:   1    -0.319574660520E+03    0.11326E-03   -0.17358E-02 36296   0.484E-01    0.722E-02
DAV:   2    -0.319574782051E+03   -0.12153E-03   -0.14246E-03 33040   0.102E-01    0.100E-01
DAV:   3    -0.319574780849E+03    0.12020E-05   -0.13348E-04 29520   0.420E-02    0.698E-02
DAV:   4    -0.319574775139E+03    0.57101E-05   -0.34695E-05 22096   0.201E-02    0.347E-02
DAV:   5    -0.319574773892E+03    0.12471E-05   -0.17876E-05 18728   0.157E-02    0.399E-02
DAV:   6    -0.319574770805E+03    0.30867E-05   -0.84246E-06 17472   0.128E-02
  11 F= -.31957477E+03 E0= -.31956991E+03  d E =-.547353E-03  mag=    44.0000
       N       E                     dE             d eps       ncg     rms          rms(c)
DAV:   1    -0.319573432712E+03    0.13412E-02   -0.36324E-01 35488   0.201E+00    0.248E-01
DAV:   2    -0.319575410774E+03   -0.19781E-02   -0.23341E-02 32648   0.398E-01    0.244E-01
DAV:   3    -0.319575467993E+03   -0.57219E-04   -0.15085E-03 34440   0.146E-01    0.262E-01
DAV:   4    -0.319575376703E+03    0.91290E-04   -0.50631E-04 33864   0.762E-02    0.905E-02
DAV:   5    -0.319575369918E+03    0.67850E-05   -0.13802E-04 28632   0.440E-02    0.874E-02
DAV:   6    -0.319575354407E+03    0.15511E-04   -0.75793E-05 30536   0.350E-02    0.504E-02
DAV:   7    -0.319575354246E+03    0.16090E-06   -0.43339E-05 22856   0.238E-02
  12 F= -.31957535E+03 E0= -.31957048E+03  d E =-.583441E-03  mag=    44.0000
       N       E                     dE             d eps       ncg     rms          rms(c)
DAV:   1    -0.319570036109E+03    0.53183E-02   -0.10772E+00 35576   0.347E+00    0.426E-01
DAV:   2    -0.319575867326E+03   -0.58312E-02   -0.68897E-02 32784   0.683E-01    0.373E-01
DAV:   3    -0.319576022876E+03   -0.15555E-03   -0.38286E-03 34456   0.235E-01    0.406E-01
DAV:   4    -0.319575793076E+03    0.22980E-03   -0.13482E-03 34968   0.125E-01    0.159E-01
DAV:   5    -0.319575771409E+03    0.21667E-04   -0.50125E-04 34688   0.760E-02    0.150E-01
DAV:   6    -0.319575722369E+03    0.49039E-04   -0.27657E-04 34424   0.605E-02    0.760E-02
DAV:   7    -0.319575724365E+03   -0.19954E-05   -0.11333E-04 29928   0.384E-02    0.832E-02
DAV:   8    -0.319575716711E+03    0.76532E-05   -0.45763E-05 22952   0.269E-02
  13 F= -.31957572E+03 E0= -.31957084E+03  d E =-.945906E-03  mag=    44.0000
       N       E                     dE             d eps       ncg     rms          rms(c)
DAV:   1    -0.319574451808E+03    0.12726E-02   -0.26555E-01 36272   0.181E+00    0.212E-01
DAV:   2    -0.319576174409E+03   -0.17226E-02   -0.19140E-02 32128   0.350E-01    0.216E-01
DAV:   3    -0.319576229323E+03   -0.54914E-04   -0.10010E-03 32760   0.124E-01    0.227E-01
DAV:   4    -0.319576170227E+03    0.59096E-04   -0.26979E-04 31296   0.644E-02    0.814E-02
DAV:   5    -0.319576165780E+03    0.44472E-05   -0.81148E-05 25824   0.353E-02    0.795E-02
DAV:   6    -0.319576154916E+03    0.10864E-04   -0.49658E-05 25296   0.291E-02    0.437E-02
DAV:   7    -0.319576154932E+03   -0.16335E-07   -0.32310E-05 22144   0.221E-02
  14 F= -.31957615E+03 E0= -.31957127E+03  d E =-.438220E-03  mag=    44.0000
       N       E                     dE             d eps       ncg     rms          rms(c)
DAV:   1    -0.319570352005E+03    0.58029E-02   -0.91744E-01 36040   0.337E+00    0.392E-01
DAV:   2    -0.319576397388E+03   -0.60454E-02   -0.67175E-02 32008   0.651E-01    0.339E-01
DAV:   3    -0.319576599688E+03   -0.20230E-03   -0.33013E-03 32624   0.214E-01    0.393E-01
DAV:   4    -0.319576406590E+03    0.19310E-03   -0.11946E-03 34120   0.118E-01    0.141E-01
DAV:   5    -0.319576391516E+03    0.15074E-04   -0.41791E-04 33704   0.682E-02    0.132E-01
DAV:   6    -0.319576353826E+03    0.37690E-04   -0.21535E-04 33384   0.538E-02    0.659E-02
DAV:   7    -0.319576355708E+03   -0.18819E-05   -0.61403E-05 28624   0.323E-02
  15 F= -.31957636E+03 E0= -.31957147E+03  d E =-.638997E-03  mag=    44.0000
       N       E                     dE             d eps       ncg     rms          rms(c)
DAV:   1    -0.319576084683E+03    0.26914E-03   -0.47081E-02 36456   0.763E-01    0.895E-02
DAV:   2    -0.319576383466E+03   -0.29878E-03   -0.33386E-03 32224   0.148E-01    0.100E-01
DAV:   3    -0.319576389494E+03   -0.60277E-05   -0.20426E-04 30416   0.554E-02    0.914E-02
DAV:   4    -0.319576379418E+03    0.10076E-04   -0.60554E-05 23712   0.284E-02    0.375E-02
DAV:   5    -0.319576377647E+03    0.17713E-05   -0.18630E-05 19584   0.162E-02    0.259E-02
DAV:   6    -0.319576375857E+03    0.17892E-05   -0.79795E-06 17824   0.114E-02
  16 F= -.31957638E+03 E0= -.31957150E+03  d E =-.659146E-03  mag=    44.0000
       N       E                     dE             d eps       ncg     rms          rms(c)
DAV:   1    -0.319573985689E+03    0.23920E-02   -0.42117E-01 36184   0.238E+00    0.258E-01
DAV:   2    -0.319576886731E+03   -0.29010E-02   -0.31119E-02 31848   0.452E-01    0.198E-01
DAV:   3    -0.319576989337E+03   -0.10261E-03   -0.11941E-03 33416   0.134E-01    0.239E-01
DAV:   4    -0.319576919601E+03    0.69736E-04   -0.36698E-04 32096   0.725E-02    0.771E-02
DAV:   5    -0.319576912761E+03    0.68399E-05   -0.14820E-04 27408   0.414E-02    0.879E-02
DAV:   6    -0.319576896590E+03    0.16171E-04   -0.10237E-04 28032   0.350E-02    0.433E-02
DAV:   7    -0.319576896036E+03    0.55378E-06   -0.28846E-05 22136   0.225E-02
  17 F= -.31957690E+03 E0= -.31957202E+03  d E =-.520179E-03  mag=    44.0000
       N       E                     dE             d eps       ncg     rms          rms(c)
DAV:   1    -0.319550514085E+03    0.26383E-01   -0.37795E+00 36096   0.713E+00    0.770E-01
DAV:   2    -0.319576890507E+03   -0.26376E-01   -0.28135E-01 31904   0.136E+00    0.575E-01
DAV:   3    -0.319577692366E+03   -0.80186E-03   -0.10341E-02 32920   0.388E-01    0.691E-01
DAV:   4    -0.319577129424E+03    0.56294E-03   -0.28187E-03 35008   0.210E-01    0.260E-01
DAV:   5    -0.319577050478E+03    0.78946E-04   -0.87548E-04 35224   0.119E-01    0.270E-01
DAV:   6    -0.319576902198E+03    0.14828E-03   -0.58537E-04 34792   0.996E-02    0.138E-01
DAV:   7    -0.319576899872E+03    0.23269E-05   -0.26999E-04 34208   0.669E-02    0.123E-01
DAV:   8    -0.319576884025E+03    0.15847E-04   -0.15451E-04 30656   0.469E-02    0.498E-02
DAV:   9    -0.319576884950E+03   -0.92473E-06   -0.58552E-05 23520   0.236E-02
  18 F= -.31957688E+03 E0= -.31957204E+03  d E =-.509092E-03  mag=    44.0000
       N       E                     dE             d eps       ncg     rms          rms(c)
DAV:   1    -0.319571361067E+03    0.55230E-02   -0.83575E-01 36024   0.336E+00    0.364E-01
DAV:   2    -0.319577189708E+03   -0.58286E-02   -0.62303E-02 31952   0.639E-01    0.275E-01
DAV:   3    -0.319577371336E+03   -0.18163E-03   -0.24170E-03 32664   0.189E-01    0.335E-01
DAV:   4    -0.319577236576E+03    0.13476E-03   -0.67852E-04 35248   0.994E-02    0.123E-01
DAV:   5    -0.319577219523E+03    0.17053E-04   -0.18852E-04 30560   0.540E-02    0.127E-01
DAV:   6    -0.319577185776E+03    0.33747E-04   -0.12876E-04 32408   0.469E-02    0.647E-02
DAV:   7    -0.319577183314E+03    0.24624E-05   -0.52413E-05 23768   0.317E-02
  19 F= -.31957718E+03 E0= -.31957232E+03  d E =-.807457E-03  mag=    44.0000
       N       E                     dE             d eps       ncg     rms          rms(c)
DAV:   1    -0.319574627090E+03    0.25587E-02   -0.60954E-01 34880   0.244E+00    0.218E-01
DAV:   2    -0.319577698338E+03   -0.30712E-02   -0.31569E-02 32496   0.454E-01    0.179E-01
DAV:   3    -0.319577768637E+03   -0.70300E-04   -0.99341E-04 33832   0.113E-01    0.213E-01
DAV:   4    -0.319577713713E+03    0.54925E-04   -0.30653E-04 31496   0.611E-02    0.842E-02
DAV:   5    -0.319577701985E+03    0.11727E-04   -0.59728E-05 24872   0.338E-02    0.751E-02
DAV:   6    -0.319577686676E+03    0.15310E-04   -0.55848E-05 30288   0.338E-02    0.427E-02
DAV:   7    -0.319577686576E+03    0.99106E-07   -0.26483E-05 22304   0.216E-02
  20 F= -.31957769E+03 E0= -.31957283E+03  d E =-.503262E-03  mag=    44.0000
       N       E                     dE             d eps       ncg     rms          rms(c)
DAV:   1    -0.319550010915E+03    0.27676E-01   -0.54675E+00 34736   0.732E+00    0.656E-01
DAV:   2    -0.319577619458E+03   -0.27609E-01   -0.28386E-01 32560   0.136E+00    0.507E-01
DAV:   3    -0.319578234364E+03   -0.61491E-03   -0.90540E-03 33536   0.331E-01    0.608E-01
DAV:   4    -0.319577753578E+03    0.48079E-03   -0.30617E-03 34744   0.186E-01    0.237E-01
DAV:   5    -0.319577647379E+03    0.10620E-03   -0.71968E-04 34008   0.106E-01    0.223E-01
DAV:   6    -0.319577535460E+03    0.11192E-03   -0.61832E-04 35840   0.103E-01    0.149E-01
DAV:   7    -0.319577532231E+03    0.32283E-05   -0.30306E-04 35688   0.687E-02    0.116E-01
DAV:   8    -0.319577522890E+03    0.93412E-05   -0.15167E-04 30320   0.459E-02    0.550E-02
DAV:   9    -0.319577522994E+03   -0.10405E-06   -0.42389E-05 23080   0.221E-02
  21 F= -.31957752E+03 E0= -.31957269E+03  d E =-.339680E-03  mag=    44.0000
       N       E                     dE             d eps       ncg     rms          rms(c)
DAV:   1    -0.319569954965E+03    0.75679E-02   -0.15923E+00 34848   0.395E+00    0.353E-01
DAV:   2    -0.319577971271E+03   -0.80163E-02   -0.82551E-02 32480   0.732E-01    0.292E-01
DAV:   3    -0.319578152652E+03   -0.18138E-03   -0.27295E-03 33408   0.186E-01    0.350E-01
DAV:   4    -0.319577995961E+03    0.15669E-03   -0.83806E-04 34664   0.102E-01    0.130E-01
DAV:   5    -0.319577967519E+03    0.28442E-04   -0.17426E-04 31848   0.554E-02    0.128E-01
DAV:   6    -0.319577931294E+03    0.36226E-04   -0.18587E-04 33360   0.562E-02    0.862E-02
DAV:   7    -0.319577928039E+03    0.32546E-05   -0.11481E-04 30696   0.396E-02    0.641E-02
DAV:   8    -0.319577925028E+03    0.30106E-05   -0.59263E-05 22536   0.273E-02
  22 F= -.31957793E+03 E0= -.31957308E+03  d E =-.741714E-03  mag=    44.0000
       N       E                     dE             d eps       ncg     rms          rms(c)
DAV:   1    -0.319572041628E+03    0.58864E-02   -0.68242E-01 35352   0.311E+00    0.342E-01
DAV:   2    -0.319578330014E+03   -0.62884E-02   -0.64266E-02 32496   0.593E-01    0.196E-01
DAV:   3    -0.319578466671E+03   -0.13666E-03   -0.15627E-03 32176   0.120E-01    0.168E-01
DAV:   4    -0.319578435999E+03    0.30672E-04   -0.39878E-04 33752   0.663E-02    0.113E-01
DAV:   5    -0.319578401894E+03    0.34105E-04   -0.20158E-04 30720   0.495E-02    0.945E-02
DAV:   6    -0.319578389431E+03    0.12463E-04   -0.16475E-04 30416   0.439E-02    0.753E-02
DAV:   7    -0.319578384822E+03    0.46086E-05   -0.54433E-05 23264   0.297E-02
  23 F= -.31957838E+03 E0= -.31957355E+03  d E =-.459794E-03  mag=    44.0000
       N       E                     dE             d eps       ncg     rms          rms(c)
DAV:   1    -0.319574506144E+03    0.38833E-02   -0.41556E-01 35240   0.242E+00    0.269E-01
DAV:   2    -0.319578350178E+03   -0.38440E-02   -0.39353E-02 32512   0.465E-01    0.158E-01
DAV:   3    -0.319578447367E+03   -0.97189E-04   -0.96240E-04 32224   0.948E-02    0.150E-01
DAV:   4    -0.319578424330E+03    0.23037E-04   -0.20713E-04 31680   0.516E-02    0.859E-02
DAV:   5    -0.319578403518E+03    0.20812E-04   -0.70966E-05 25888   0.342E-02    0.677E-02
DAV:   6    -0.319578401406E+03    0.21116E-05   -0.91934E-05 25656   0.349E-02
  24 F= -.31957840E+03 E0= -.31957358E+03  d E =-.476378E-03  mag=    44.0000
       N       E                     dE             d eps       ncg     rms          rms(c)
DAV:   1    -0.319576441359E+03    0.19622E-02   -0.38038E-01 35504   0.204E+00    0.201E-01
DAV:   2    -0.319578657227E+03   -0.22159E-02   -0.23192E-02 32296   0.387E-01    0.159E-01
DAV:   3    -0.319578720770E+03   -0.63543E-04   -0.83514E-04 32968   0.991E-02    0.211E-01
DAV:   4    -0.319578666516E+03    0.54254E-04   -0.28882E-04 30632   0.566E-02    0.700E-02
DAV:   5    -0.319578655199E+03    0.11316E-04   -0.61082E-05 24056   0.335E-02    0.711E-02
DAV:   6    -0.319578644830E+03    0.10370E-04   -0.57359E-05 25600   0.315E-02    0.450E-02
DAV:   7    -0.319578643900E+03    0.92981E-06   -0.34551E-05 21672   0.214E-02
  25 F= -.31957864E+03 E0= -.31957383E+03  d E =-.242494E-03  mag=    44.0000
       N       E                     dE             d eps       ncg     rms          rms(c)
DAV:   1    -0.319568736194E+03    0.99086E-02   -0.17525E+00 35504   0.438E+00    0.429E-01
DAV:   2    -0.319578913611E+03   -0.10177E-01   -0.10638E-01 32048   0.827E-01    0.285E-01
DAV:   3    -0.319579082147E+03   -0.16854E-03   -0.25453E-03 32552   0.175E-01    0.285E-01
DAV:   4    -0.319578981296E+03    0.10085E-03   -0.67610E-04 35128   0.103E-01    0.163E-01
DAV:   5    -0.319578914524E+03    0.66772E-04   -0.29617E-04 33280   0.675E-02    0.162E-01
DAV:   6    -0.319578874352E+03    0.40172E-04   -0.26791E-04 33280   0.619E-02    0.946E-02
DAV:   7    -0.319578869342E+03    0.50101E-05   -0.12939E-04 30168   0.427E-02    0.640E-02
DAV:   8    -0.319578865279E+03    0.40634E-05   -0.40094E-05 24120   0.253E-02
  26 F= -.31957887E+03 E0= -.31957408E+03  d E =-.463873E-03  mag=    44.0000
       N       E                     dE             d eps       ncg     rms          rms(c)
DAV:   1    -0.319577814070E+03    0.10553E-02   -0.10954E-01 37280   0.149E+00    0.171E-01
DAV:   2    -0.319579223094E+03   -0.14090E-02   -0.13823E-02 32832   0.280E-01    0.185E-01
DAV:   3    -0.319579295535E+03   -0.72441E-04   -0.10754E-03 32600   0.108E-01    0.209E-01
DAV:   4    -0.319579250760E+03    0.44775E-04   -0.30403E-04 29136   0.534E-02    0.579E-02
DAV:   5    -0.319579251399E+03   -0.63979E-06   -0.25629E-05 22504   0.207E-02    0.516E-02
DAV:   6    -0.319579247687E+03    0.37127E-05   -0.32005E-05 22392   0.244E-02
  27 F= -.31957925E+03 E0= -.31957447E+03  d E =-.382408E-03  mag=    44.0000
