       N       E                     dE             d eps       ncg     rms          rms(c)
DAV:   1     0.608592994544E+04    0.60859E+04   -0.25262E+05 34328   0.162E+03
DAV:   2     0.360304885416E+03   -0.57256E+04   -0.52261E+04 33648   0.475E+02
DAV:   3    -0.372943594061E+03   -0.73325E+03   -0.71892E+03 33784   0.188E+02
DAV:   4    -0.394882489288E+03   -0.21939E+02   -0.21808E+02 35648   0.345E+01
DAV:   5    -0.395355816096E+03   -0.47333E+00   -0.47086E+00 43736   0.440E+00    0.886E+01
DAV:   6    -0.332816751659E+03    0.62539E+02   -0.34419E+02 41368   0.659E+01    0.874E+01
DAV:   7    -0.337713305353E+03   -0.48966E+01   -0.11668E+02 34032   0.660E+01    0.110E+02
DAV:   8    -0.343062616813E+03   -0.53493E+01   -0.11534E+02 38080   0.431E+01    0.968E+01
DAV:   9    -0.316008091627E+03    0.27055E+02   -0.50052E+01 34176   0.249E+01    0.579E+01
DAV:  10    -0.352765744088E+03   -0.36758E+02   -0.18456E+02 35208   0.327E+01    0.101E+02
DAV:  11    -0.310495385111E+03    0.42270E+02   -0.30717E+01 34456   0.343E+01    0.606E+01
DAV:  12    -0.325017539040E+03   -0.14522E+02   -0.47775E+01 34688   0.224E+01    0.690E+01
DAV:  13    -0.308967560162E+03    0.16050E+02   -0.13863E+01 33992   0.202E+01    0.388E+01
DAV:  14    -0.315111412748E+03   -0.61439E+01   -0.35351E+01 35280   0.127E+01    0.543E+01
DAV:  15    -0.311123395098E+03    0.39880E+01   -0.44948E+00 34496   0.848E+00    0.331E+01
DAV:  16    -0.312324935227E+03   -0.12015E+01   -0.80701E+00 33776   0.428E+00    0.335E+01
DAV:  17    -0.312984333190E+03   -0.65940E+00   -0.11906E+01 33168   0.262E+00    0.322E+01
DAV:  18    -0.312611837073E+03    0.37250E+00   -0.57182E-01 33096   0.118E+00    0.332E+01
DAV:  19    -0.313057500644E+03   -0.44566E+00   -0.90386E+00 33720   0.224E+00    0.322E+01
DAV:  20    -0.313406911093E+03   -0.34941E+00   -0.63344E-01 32624   0.102E+00    0.300E+01
DAV:  21    -0.313547842880E+03   -0.14093E+00   -0.76309E-02 33856   0.787E-01    0.285E+01
DAV:  22    -0.314242918809E+03   -0.69508E+00   -0.11884E+00 37264   0.125E+00    0.271E+01
DAV:  23    -0.314476115043E+03   -0.23320E+00   -0.45177E-01 32752   0.736E-01    0.265E+01
DAV:  24    -0.314321889545E+03    0.15423E+00   -0.19955E-02 33360   0.409E-01    0.266E+01
DAV:  25    -0.314751540339E+03   -0.42965E+00   -0.74850E-02 35616   0.539E-01    0.264E+01
DAV:  26    -0.314998415577E+03   -0.24688E+00   -0.14176E-01 35264   0.665E-01    0.281E+01
DAV:  27    -0.314946849373E+03    0.51566E-01   -0.26568E-02 33264   0.366E-01    0.287E+01
DAV:  28    -0.315933035161E+03   -0.98619E+00   -0.38821E-01 36264   0.150E+00    0.254E+01
DAV:  29    -0.317390913240E+03   -0.14579E+01   -0.22311E+00 38880   0.477E+00    0.264E+01
DAV:  30    -0.317018145436E+03    0.37277E+00   -0.13369E+00 36608   0.373E+00    0.293E+01
DAV:  31    -0.317544095875E+03   -0.52595E+00   -0.17915E-01 34304   0.148E+00    0.291E+01
DAV:  32    -0.318025685483E+03   -0.48159E+00   -0.74670E-01 38744   0.240E+00    0.295E+01
DAV:  33    -0.318733673702E+03   -0.70799E+00   -0.25322E+00 37264   0.275E+00    0.394E+01
DAV:  34    -0.318550006433E+03    0.18367E+00   -0.10086E-01 33192   0.830E-01    0.395E+01
DAV:  35    -0.318130993219E+03    0.41901E+00   -0.41991E-02 37472   0.664E-01    0.388E+01
DAV:  36    -0.317697188551E+03    0.43380E+00   -0.10554E+00 37192   0.141E+00    0.342E+01
DAV:  37    -0.317486855834E+03    0.21033E+00   -0.12495E-01 34952   0.141E+00    0.344E+01
DAV:  38    -0.317458878975E+03    0.27977E-01   -0.99841E-02 36336   0.618E-01    0.352E+01
DAV:  39    -0.317424439768E+03    0.34439E-01   -0.37388E-01 34184   0.536E-01    0.357E+01
DAV:  40    -0.317378151672E+03    0.46288E-01   -0.38617E-02 33456   0.415E-01    0.360E+01
DAV:  41    -0.317313978177E+03    0.64173E-01   -0.15144E-02 36976   0.335E-01    0.361E+01
DAV:  42    -0.317697706704E+03   -0.38373E+00   -0.52888E-02 37352   0.741E-01    0.356E+01
DAV:  43    -0.317882648543E+03   -0.18494E+00   -0.15563E+00 40432   0.254E+00    0.278E+01
DAV:  44    -0.318029656202E+03   -0.14701E+00   -0.16665E-01 35544   0.128E+00    0.297E+01
DAV:  45    -0.317881238712E+03    0.14842E+00   -0.41436E-02 35088   0.477E-01    0.299E+01
DAV:  46    -0.317791002431E+03    0.90236E-01   -0.13021E-02 36864   0.260E-01    0.300E+01
DAV:  47    -0.317830336880E+03   -0.39334E-01   -0.37771E-02 35320   0.411E-01    0.284E+01
DAV:  48    -0.318157333149E+03   -0.32700E+00   -0.47436E-02 38376   0.945E-01    0.270E+01
DAV:  49    -0.318596696716E+03   -0.43936E+00   -0.37544E-01 40272   0.238E+00    0.247E+01
DAV:  50    -0.318661932787E+03   -0.65236E-01   -0.16248E-01 38920   0.129E+00    0.237E+01
DAV:  51    -0.318792815031E+03   -0.13088E+00   -0.90170E-02 36432   0.111E+00    0.232E+01
DAV:  52    -0.318404260150E+03    0.38855E+00   -0.11293E-01 37856   0.128E+00    0.219E+01
DAV:  53    -0.317923162564E+03    0.48110E+00   -0.22708E-01 40240   0.161E+00    0.161E+01
DAV:  54    -0.317904540856E+03    0.18622E-01   -0.12489E-01 34168   0.707E-01    0.170E+01
DAV:  55    -0.317924423378E+03   -0.19883E-01   -0.10660E-02 33160   0.316E-01    0.180E+01
DAV:  56    -0.315638195461E+03    0.22862E+01   -0.82814E+00 37720   0.537E+00    0.247E+01
DAV:  57    -0.315612132563E+03    0.26063E-01   -0.34170E-01 33568   0.199E+00    0.251E+01
DAV:  58    -0.316012206743E+03   -0.40007E+00   -0.10148E-01 35960   0.105E+00    0.255E+01
DAV:  59    -0.316112846085E+03   -0.10064E+00   -0.30101E-02 34136   0.670E-01    0.247E+01
DAV:  60    -0.316197945358E+03   -0.85099E-01   -0.10602E-02 38552   0.358E-01    0.243E+01
DAV:  61    -0.317210293890E+03   -0.10123E+01   -0.92245E-01 39880   0.383E+00    0.187E+01
DAV:  62    -0.317321302355E+03   -0.11101E+00   -0.15938E-01 33032   0.992E-01    0.186E+01
DAV:  63    -0.317377964172E+03   -0.56662E-01   -0.61380E-02 45200   0.945E-01    0.183E+01
DAV:  64    -0.317312701551E+03    0.65263E-01   -0.65203E-02 39264   0.726E-01    0.184E+01
DAV:  65    -0.317131710343E+03    0.18099E+00   -0.60397E-02 41352   0.957E-01    0.184E+01
DAV:  66    -0.318096316588E+03   -0.96461E+00   -0.26273E+00 39192   0.379E+00    0.159E+01
DAV:  67    -0.318392940342E+03   -0.29662E+00   -0.23737E-01 33600   0.179E+00    0.144E+01
DAV:  68    -0.318417721975E+03   -0.24782E-01   -0.10581E-01 37176   0.937E-01    0.135E+01
DAV:  69    -0.318427576973E+03   -0.98550E-02   -0.12778E-01 41480   0.857E-01    0.138E+01
DAV:  70    -0.318367830774E+03    0.59746E-01   -0.11591E-01 37256   0.687E-01    0.145E+01
DAV:  71    -0.318524594759E+03   -0.15676E+00   -0.12641E-01 40640   0.113E+00    0.144E+01
DAV:  72    -0.318419369938E+03    0.10522E+00   -0.49175E-02 35544   0.611E-01    0.151E+01
DAV:  73    -0.318413152263E+03    0.62177E-02   -0.48374E-03 33504   0.170E-01    0.152E+01
DAV:  74    -0.318427830173E+03   -0.14678E-01   -0.41569E-03 35040   0.184E-01    0.150E+01
DAV:  75    -0.318519255485E+03   -0.91425E-01   -0.19141E-01 40024   0.783E-01    0.134E+01
DAV:  76    -0.318703505729E+03   -0.18425E+00   -0.26509E-01 40896   0.124E+00    0.130E+01
DAV:  77    -0.318801489957E+03   -0.97984E-01   -0.94122E-02 37576   0.121E+00    0.122E+01
DAV:  78    -0.318854407638E+03   -0.52918E-01   -0.62415E-02 40176   0.754E-01    0.121E+01
DAV:  79    -0.318864330871E+03   -0.99232E-02   -0.16072E-02 37256   0.395E-01    0.120E+01
DAV:  80    -0.318825458449E+03    0.38872E-01   -0.12727E-02 44184   0.534E-01    0.120E+01
DAV:  81    -0.321542486765E+03   -0.27170E+01   -0.45765E+00 39872   0.652E+00    0.227E+01
DAV:  82    -0.320980674285E+03    0.56181E+00   -0.27109E-01 33040   0.151E+00    0.207E+01
DAV:  83    -0.320552594432E+03    0.42808E+00   -0.23257E-01 42176   0.983E-01    0.177E+01
DAV:  84    -0.320415483909E+03    0.13711E+00   -0.12930E-01 41592   0.661E-01    0.152E+01
DAV:  85    -0.320170044370E+03    0.24544E+00   -0.14706E-01 41240   0.852E-01    0.127E+01
DAV:  86    -0.319520619239E+03    0.64943E+00   -0.64778E-01 38608   0.197E+00    0.102E+01
DAV:  87    -0.319338196992E+03    0.18242E+00   -0.20652E-01 39488   0.125E+00    0.102E+01
DAV:  88    -0.319269415243E+03    0.68782E-01   -0.23127E-02 33360   0.400E-01    0.103E+01
DAV:  89    -0.319134876859E+03    0.13454E+00   -0.13309E-02 43488   0.464E-01    0.104E+01
DAV:  90    -0.319056662848E+03    0.78214E-01   -0.16884E-02 41536   0.576E-01    0.102E+01
DAV:  91    -0.319087092793E+03   -0.30430E-01   -0.33557E-02 39144   0.732E-01    0.978E+00
DAV:  92    -0.319096230760E+03   -0.91380E-02   -0.23023E-02 34816   0.539E-01    0.922E+00
DAV:  93    -0.319156296700E+03   -0.60066E-01   -0.73043E-03 34928   0.344E-01    0.863E+00
DAV:  94    -0.319208647414E+03   -0.52351E-01   -0.32513E-03 36616   0.173E-01    0.818E+00
DAV:  95    -0.319302256243E+03   -0.93609E-01   -0.46008E-03 38848   0.254E-01    0.730E+00
DAV:  96    -0.319578137083E+03   -0.27588E+00   -0.41342E-01 37120   0.192E+00    0.328E+00
DAV:  97    -0.319571396358E+03    0.67407E-02   -0.46490E-02 34912   0.686E-01    0.278E+00
DAV:  98    -0.319567142410E+03    0.42539E-02   -0.14447E-02 40520   0.417E-01    0.204E+00
DAV:  99    -0.319566698038E+03    0.44437E-03   -0.61659E-03 34752   0.309E-01    0.139E+00
DAV: 100    -0.319566344258E+03    0.35378E-03   -0.33540E-03 41632   0.277E-01    0.780E-01
DAV: 101    -0.319565137792E+03    0.12065E-02   -0.45277E-03 42000   0.290E-01    0.393E-01
DAV: 102    -0.319565299408E+03   -0.16162E-03   -0.15961E-03 32520   0.137E-01    0.297E-01
DAV: 103    -0.319565006511E+03    0.29290E-03   -0.59119E-04 36664   0.104E-01    0.187E-01
DAV: 104    -0.319564828082E+03    0.17843E-03   -0.30803E-04 33936   0.528E-02    0.122E-01
DAV: 105    -0.319564716544E+03    0.11154E-03   -0.88727E-05 32016   0.309E-02    0.112E-01
DAV: 106    -0.319564639474E+03    0.77070E-04   -0.69067E-05 31648   0.291E-02    0.107E-01
DAV: 107    -0.319564619546E+03    0.19928E-04   -0.24074E-05 25352   0.155E-02    0.905E-02
DAV: 108    -0.319564606504E+03    0.13041E-04   -0.10234E-05 19384   0.112E-02    0.888E-02
DAV: 109    -0.319564603677E+03    0.28279E-05   -0.76878E-06 19536   0.877E-03
   1 F= -.31956460E+03 E0= -.31955958E+03  d E =-.319565E+03  mag=    44.0018
       N       E                     dE             d eps       ncg     rms          rms(c)
DAV:   1    -0.319669072334E+03   -0.10447E+00   -0.23217E+00 33896   0.494E+00    0.273E+00
DAV:   2    -0.319578590207E+03    0.90482E-01   -0.28683E-01 34088   0.192E+00    0.215E+00
DAV:   3    -0.319576665299E+03    0.19249E-02   -0.67050E-02 41168   0.111E+00    0.222E+00
DAV:   4    -0.319570559790E+03    0.61055E-02   -0.50246E-02 37536   0.856E-01    0.135E+00
DAV:   5    -0.319569629300E+03    0.93049E-03   -0.28192E-02 36368   0.578E-01    0.106E+00
DAV:   6    -0.319568042565E+03    0.15867E-02   -0.10479E-02 34680   0.367E-01    0.337E-01
DAV:   7    -0.319568070814E+03   -0.28249E-04   -0.19953E-03 39688   0.176E-01    0.424E-01
DAV:   8    -0.319567824701E+03    0.24611E-03   -0.13413E-03 39752   0.137E-01    0.195E-01
DAV:   9    -0.319567811835E+03    0.12866E-04   -0.52622E-04 34144   0.733E-02    0.128E-01
DAV:  10    -0.319567793911E+03    0.17924E-04   -0.14429E-04 28528   0.415E-02    0.460E-02
DAV:  11    -0.319567793311E+03    0.60069E-06   -0.22604E-05 21768   0.213E-02
   2 F= -.31956779E+03 E0= -.31956276E+03  d E =-.318963E-02  mag=    44.0003
       N       E                     dE             d eps       ncg     rms          rms(c)
DAV:   1    -0.319573070419E+03   -0.52765E-02   -0.11332E-01 33888   0.109E+00    0.604E-01
DAV:   2    -0.319568631578E+03    0.44388E-02   -0.14119E-02 34168   0.417E-01    0.483E-01
DAV:   3    -0.319568575297E+03    0.56281E-04   -0.34640E-03 40904   0.251E-01    0.515E-01
DAV:   4    -0.319568256492E+03    0.31881E-03   -0.25126E-03 37520   0.188E-01    0.299E-01
DAV:   5    -0.319568211035E+03    0.45457E-04   -0.12330E-03 35864   0.124E-01    0.231E-01
DAV:   6    -0.319568137292E+03    0.73743E-04   -0.43687E-04 34112   0.792E-02    0.727E-02
DAV:   7    -0.319568143506E+03   -0.62144E-05   -0.11771E-04 27440   0.403E-02    0.106E-01
DAV:   8    -0.319568129626E+03    0.13880E-04   -0.92313E-05 27008   0.326E-02    0.427E-02
DAV:   9    -0.319568129868E+03   -0.24254E-06   -0.26714E-05 20816   0.177E-02
   3 F= -.31956813E+03 E0= -.31956309E+03  d E =-.352619E-02  mag=    44.0001
       N       E                     dE             d eps       ncg     rms          rms(c)
DAV:   1    -0.319576657497E+03   -0.85279E-02   -0.13185E+00 32544   0.366E+00    0.982E-01
DAV:   2    -0.319571448341E+03    0.52092E-02   -0.96909E-02 33792   0.994E-01    0.874E-01
DAV:   3    -0.319571504137E+03   -0.55795E-04   -0.15432E-02 35584   0.529E-01    0.101E+00
DAV:   4    -0.319570182365E+03    0.13218E-02   -0.77236E-03 36736   0.312E-01    0.417E-01
DAV:   5    -0.319570102780E+03    0.79586E-04   -0.37566E-03 36336   0.217E-01    0.420E-01
DAV:   6    -0.319569853194E+03    0.24959E-03   -0.15075E-03 34992   0.138E-01    0.165E-01
DAV:   7    -0.319569864858E+03   -0.11664E-04   -0.36485E-04 35912   0.766E-02    0.192E-01
DAV:   8    -0.319569821218E+03    0.43640E-04   -0.21509E-04 31888   0.596E-02    0.788E-02
DAV:   9    -0.319569821082E+03    0.13599E-06   -0.59844E-05 24624   0.318E-02
   4 F= -.31956982E+03 E0= -.31956481E+03  d E =-.169121E-02  mag=    44.0000
       N       E                     dE             d eps       ncg     rms          rms(c)
DAV:   1    -0.319569842015E+03   -0.20797E-04   -0.30113E-03 32976   0.176E-01    0.567E-02
DAV:   2    -0.319569834082E+03    0.79324E-05   -0.27173E-04 33888   0.568E-02    0.926E-02
DAV:   3    -0.319569827200E+03    0.68820E-05   -0.99970E-05 26720   0.352E-02    0.539E-02
DAV:   4    -0.319569824663E+03    0.25379E-05   -0.29958E-05 20208   0.176E-02    0.272E-02
DAV:   5    -0.319569824020E+03    0.64285E-06   -0.12597E-05 17648   0.136E-02    0.210E-02
DAV:   6    -0.319569823752E+03    0.26776E-06   -0.47912E-06 16984   0.805E-03
   5 F= -.31956982E+03 E0= -.31956481E+03  d E =-.169388E-02  mag=    44.0000
       N       E                     dE             d eps       ncg     rms          rms(c)
DAV:   1    -0.319565368515E+03    0.44555E-02   -0.91769E-01 35408   0.357E+00    0.499E-01
DAV:   2    -0.319571706869E+03   -0.63384E-02   -0.81204E-02 32856   0.734E-01    0.447E-01
DAV:   3    -0.319571845663E+03   -0.13879E-03   -0.44185E-03 33352   0.268E-01    0.453E-01
DAV:   4    -0.319571568030E+03    0.27763E-03   -0.14291E-03 35544   0.147E-01    0.197E-01
DAV:   5    -0.319571536999E+03    0.31032E-04   -0.85442E-04 36552   0.991E-02    0.216E-01
DAV:   6    -0.319571452069E+03    0.84930E-04   -0.43296E-04 35032   0.751E-02    0.106E-01
DAV:   7    -0.319571452518E+03   -0.44902E-06   -0.14001E-04 30824   0.485E-02    0.983E-02
DAV:   8    -0.319571442312E+03    0.10206E-04   -0.64273E-05 25200   0.327E-02    0.429E-02
DAV:   9    -0.319571442123E+03    0.18931E-06   -0.22353E-05 20624   0.171E-02
   6 F= -.31957144E+03 E0= -.31956646E+03  d E =-.161837E-02  mag=    44.0000
       N       E                     dE             d eps       ncg     rms          rms(c)
DAV:   1    -0.319567074438E+03    0.43679E-02   -0.72828E-01 35384   0.318E+00    0.446E-01
DAV:   2    -0.319572100431E+03   -0.50260E-02   -0.64559E-02 32896   0.654E-01    0.409E-01
DAV:   3    -0.319572229393E+03   -0.12896E-03   -0.37672E-03 33544   0.244E-01    0.432E-01
DAV:   4    -0.319571990397E+03    0.23900E-03   -0.13292E-03 35128   0.137E-01    0.184E-01
DAV:   5    -0.319571959006E+03    0.31391E-04   -0.65741E-04 35064   0.904E-02    0.185E-01
DAV:   6    -0.319571894723E+03    0.64283E-04   -0.29899E-04 34392   0.659E-02    0.972E-02
DAV:   7    -0.319571894457E+03    0.26567E-06   -0.11610E-04 29376   0.433E-02    0.892E-02
DAV:   8    -0.319571886288E+03    0.81695E-05   -0.58638E-05 24504   0.299E-02
   7 F= -.31957189E+03 E0= -.31956694E+03  d E =-.206254E-02  mag=    44.0000
       N       E                     dE             d eps       ncg     rms          rms(c)
DAV:   1    -0.319566144104E+03    0.57504E-02   -0.74314E-01 36408   0.366E+00    0.541E-01
DAV:   2    -0.319573234229E+03   -0.70901E-02   -0.87267E-02 32080   0.755E-01    0.562E-01
DAV:   3    -0.319573417285E+03   -0.18306E-03   -0.61390E-03 32744   0.314E-01    0.557E-01
DAV:   4    -0.319572993264E+03    0.42402E-03   -0.20481E-03 33864   0.173E-01    0.223E-01
DAV:   5    -0.319572934713E+03    0.58551E-04   -0.88541E-04 35344   0.109E-01    0.245E-01
DAV:   6    -0.319572823085E+03    0.11163E-03   -0.40313E-04 36440   0.820E-02    0.114E-01
DAV:   7    -0.319572816270E+03    0.68151E-05   -0.21144E-04 32848   0.544E-02    0.101E-01
DAV:   8    -0.319572804700E+03    0.11569E-04   -0.14291E-04 26800   0.386E-02    0.621E-02
DAV:   9    -0.319572801457E+03    0.32436E-05   -0.39653E-05 22504   0.219E-02
   8 F= -.31957280E+03 E0= -.31956788E+03  d E =-.915169E-03  mag=    44.0000
       N       E                     dE             d eps       ncg     rms          rms(c)
DAV:   1    -0.319572249768E+03    0.55493E-03   -0.66657E-02 36472   0.110E+00    0.163E-01
DAV:   2    -0.319572889804E+03   -0.64004E-03   -0.78795E-03 32472   0.228E-01    0.182E-01
DAV:   3    -0.319572903259E+03   -0.13456E-04   -0.62669E-04 32896   0.983E-02    0.169E-01
DAV:   4    -0.319572864264E+03    0.38995E-04   -0.20595E-04 29952   0.518E-02    0.682E-02
DAV:   5    -0.319572857769E+03    0.64947E-05   -0.81976E-05 24656   0.343E-02    0.684E-02
DAV:   6    -0.319572848037E+03    0.97322E-05   -0.35479E-05 22592   0.250E-02
   9 F= -.31957285E+03 E0= -.31956793E+03  d E =-.961750E-03  mag=    44.0000
       N       E                     dE             d eps       ncg     rms          rms(c)
DAV:   1    -0.319570344167E+03    0.25136E-02   -0.74794E-01 34952   0.315E+00    0.576E-01
DAV:   2    -0.319574065303E+03   -0.37211E-02   -0.64931E-02 32536   0.697E-01    0.543E-01
DAV:   3    -0.319574147702E+03   -0.82398E-04   -0.55223E-03 34912   0.321E-01    0.604E-01
DAV:   4    -0.319573625604E+03    0.52210E-03   -0.22298E-03 36776   0.181E-01    0.251E-01
DAV:   5    -0.319573561697E+03    0.63907E-04   -0.10613E-03 35424   0.127E-01    0.258E-01
DAV:   6    -0.319573443886E+03    0.11781E-03   -0.47677E-04 37424   0.858E-02    0.118E-01
DAV:   7    -0.319573441811E+03    0.20755E-05   -0.25401E-04 31984   0.556E-02    0.114E-01
DAV:   8    -0.319573425955E+03    0.15856E-04   -0.12037E-04 26544   0.361E-02    0.504E-02
DAV:   9    -0.319573424853E+03    0.11014E-05   -0.35137E-05 22432   0.221E-02
  10 F= -.31957342E+03 E0= -.31956853E+03  d E =-.576816E-03  mag=    44.0000
       N       E                     dE             d eps       ncg     rms          rms(c)
DAV:   1    -0.319573423912E+03    0.20424E-05   -0.46429E-05 26880   0.256E-02    0.158E-02
DAV:   2    -0.319573425971E+03   -0.20585E-05   -0.15367E-05 17904   0.153E-02    0.404E-02
DAV:   3    -0.319573423958E+03    0.20130E-05   -0.11243E-05 17048   0.126E-02    0.850E-03
DAV:   4    -0.319573424108E+03   -0.15010E-06   -0.13083E-06 16912   0.454E-03    0.813E-03
DAV:   5    -0.319573424034E+03    0.74462E-07   -0.60275E-07 16720   0.325E-03    0.377E-03
DAV:   6    -0.319573424038E+03   -0.43510E-08   -0.20809E-07 16608   0.205E-03
  11 F= -.31957342E+03 E0= -.31956853E+03  d E =-.576001E-03  mag=    44.0000
       N       E                     dE             d eps       ncg     rms          rms(c)
DAV:   1    -0.319571153725E+03    0.22703E-02   -0.49472E-01 35936   0.251E+00    0.323E-01
DAV:   2    -0.319574156385E+03   -0.30027E-02   -0.35998E-02 32712   0.498E-01    0.383E-01
DAV:   3    -0.319574224927E+03   -0.68541E-04   -0.32193E-03 34048   0.204E-01    0.349E-01
DAV:   4    -0.319574067374E+03    0.15755E-03   -0.91038E-04 34944   0.101E-01    0.106E-01
DAV:   5    -0.319574057803E+03    0.95708E-05   -0.22682E-04 33048   0.579E-02    0.101E-01
DAV:   6    -0.319574035579E+03    0.22224E-04   -0.12335E-04 34144   0.416E-02    0.533E-02
DAV:   7    -0.319574037237E+03   -0.16584E-05   -0.59327E-05 23600   0.295E-02
  12 F= -.31957404E+03 E0= -.31956914E+03  d E =-.613199E-03  mag=    44.0000
       N       E                     dE             d eps       ncg     rms          rms(c)
DAV:   1    -0.319558020530E+03    0.16015E-01   -0.27952E+00 35928   0.598E+00    0.763E-01
DAV:   2    -0.319574976756E+03   -0.16956E-01   -0.20287E-01 32720   0.118E+00    0.863E-01
DAV:   3    -0.319575428174E+03   -0.45142E-03   -0.16943E-02 34024   0.467E-01    0.824E-01
DAV:   4    -0.319574534766E+03    0.89341E-03   -0.49918E-03 35608   0.240E-01    0.251E-01
DAV:   5    -0.319574481357E+03    0.53409E-04   -0.12642E-03 35768   0.139E-01    0.240E-01
DAV:   6    -0.319574354843E+03    0.12651E-03   -0.72926E-04 36288   0.100E-01    0.123E-01
DAV:   7    -0.319574368902E+03   -0.14059E-04   -0.39298E-04 34792   0.710E-02    0.162E-01
DAV:   8    -0.319574339878E+03    0.29023E-04   -0.15487E-04 29976   0.472E-02    0.495E-02
DAV:   9    -0.319574341314E+03   -0.14353E-05   -0.30253E-05 23280   0.210E-02
  13 F= -.31957434E+03 E0= -.31956948E+03  d E =-.917276E-03  mag=    44.0000
       N       E                     dE             d eps       ncg     rms          rms(c)
DAV:   1    -0.319572901597E+03    0.14383E-02   -0.25591E-01 35704   0.181E+00    0.235E-01
DAV:   2    -0.319574485041E+03   -0.15834E-02   -0.18969E-02 33032   0.359E-01    0.269E-01
DAV:   3    -0.319574524011E+03   -0.38970E-04   -0.17256E-03 34024   0.145E-01    0.256E-01
DAV:   4    -0.319574437309E+03    0.86702E-04   -0.51883E-04 33504   0.756E-02    0.785E-02
DAV:   5    -0.319574432064E+03    0.52457E-05   -0.11511E-04 27416   0.411E-02    0.759E-02
DAV:   6    -0.319574420315E+03    0.11748E-04   -0.61720E-05 25968   0.311E-02    0.483E-02
DAV:   7    -0.319574419933E+03    0.38190E-06   -0.32628E-05 21808   0.225E-02
  14 F= -.31957442E+03 E0= -.31956955E+03  d E =-.995895E-03  mag=    44.0000
       N       E                     dE             d eps       ncg     rms          rms(c)
DAV:   1    -0.319571808692E+03    0.26116E-02   -0.32864E-01 36320   0.224E+00    0.254E-01
DAV:   2    -0.319574881278E+03   -0.30726E-02   -0.31476E-02 32600   0.430E-01    0.276E-01
DAV:   3    -0.319574978080E+03   -0.96802E-04   -0.17682E-03 33136   0.151E-01    0.267E-01
DAV:   4    -0.319574897585E+03    0.80494E-04   -0.48328E-04 31424   0.758E-02    0.762E-02
DAV:   5    -0.319574892299E+03    0.52866E-05   -0.93592E-05 26016   0.351E-02    0.716E-02
DAV:   6    -0.319574880101E+03    0.12197E-04   -0.61075E-05 26840   0.321E-02    0.409E-02
DAV:   7    -0.319574880768E+03   -0.66709E-06   -0.32967E-05 22416   0.238E-02
  15 F= -.31957488E+03 E0= -.31957001E+03  d E =-.460835E-03  mag=    44.0000
       N       E                     dE             d eps       ncg     rms          rms(c)
DAV:   1    -0.319559145753E+03    0.15734E-01   -0.16844E+00 36120   0.508E+00    0.569E-01
DAV:   2    -0.319574914087E+03   -0.15768E-01   -0.16114E-01 32416   0.969E-01    0.552E-01
DAV:   3    -0.319575478347E+03   -0.56426E-03   -0.75591E-03 32808   0.315E-01    0.604E-01
DAV:   4    -0.319575067898E+03    0.41045E-03   -0.20666E-03 33720   0.169E-01    0.173E-01
DAV:   5    -0.319575040381E+03    0.27517E-04   -0.35606E-04 33872   0.754E-02    0.167E-01
DAV:   6    -0.319574989738E+03    0.50643E-04   -0.28799E-04 34280   0.694E-02    0.119E-01
DAV:   7    -0.319574992277E+03   -0.25392E-05   -0.29234E-04 32240   0.563E-02    0.125E-01
DAV:   8    -0.319574977793E+03    0.14484E-04   -0.11128E-04 26800   0.394E-02    0.406E-02
DAV:   9    -0.319574978773E+03   -0.98060E-06   -0.16948E-05 20856   0.176E-02
  16 F= -.31957498E+03 E0= -.31957014E+03  d E =-.558840E-03  mag=    44.0000
       N       E                     dE             d eps       ncg     rms          rms(c)
DAV:   1    -0.319572699852E+03    0.22779E-02   -0.27334E-01 36152   0.204E+00    0.220E-01
DAV:   2    -0.319575091517E+03   -0.23917E-02   -0.24574E-02 32216   0.385E-01    0.224E-01
DAV:   3    -0.319575170828E+03   -0.79312E-04   -0.12822E-03 32808   0.128E-01    0.232E-01
DAV:   4    -0.319575108189E+03    0.62639E-04   -0.33986E-04 30824   0.673E-02    0.665E-02
DAV:   5    -0.319575102833E+03    0.53557E-05   -0.61957E-05 25000   0.312E-02    0.635E-02
DAV:   6    -0.319575093816E+03    0.90176E-05   -0.43944E-05 24024   0.287E-02
  17 F= -.31957509E+03 E0= -.31957024E+03  d E =-.673882E-03  mag=    44.0000
       N       E                     dE             d eps       ncg     rms          rms(c)
DAV:   1    -0.319573305511E+03    0.17973E-02   -0.18583E-01 36072   0.169E+00    0.190E-01
DAV:   2    -0.319575048942E+03   -0.17434E-02   -0.17667E-02 32704   0.327E-01    0.249E-01
DAV:   3    -0.319575088001E+03   -0.39059E-04   -0.10436E-03 32752   0.123E-01    0.217E-01
DAV:   4    -0.319575041936E+03    0.46065E-04   -0.24363E-04 29528   0.589E-02    0.720E-02
DAV:   5    -0.319575036995E+03    0.49419E-05   -0.42207E-05 24272   0.280E-02    0.527E-02
DAV:   6    -0.319575031241E+03    0.57541E-05   -0.32498E-05 22464   0.234E-02
  18 F= -.31957503E+03 E0= -.31957017E+03  d E =-.611307E-03  mag=    44.0000
       N       E                     dE             d eps       ncg     rms          rms(c)
DAV:   1    -0.319574873914E+03    0.16308E-03   -0.22559E-02 36328   0.582E-01    0.791E-02
DAV:   2    -0.319575095511E+03   -0.22160E-03   -0.22436E-03 32728   0.123E-01    0.184E-01
DAV:   3    -0.319575068923E+03    0.26588E-04   -0.40361E-04 30880   0.659E-02    0.533E-02
DAV:   4    -0.319575069354E+03   -0.43090E-06   -0.20454E-05 22008   0.168E-02    0.201E-02
DAV:   5    -0.319575068962E+03    0.39116E-06   -0.59830E-06 16224   0.937E-03    0.215E-02
DAV:   6    -0.319575068145E+03    0.81732E-06   -0.37425E-06 16048   0.744E-03
  19 F= -.31957507E+03 E0= -.31957021E+03  d E =-.648212E-03  mag=    44.0000
       N       E                     dE             d eps       ncg     rms          rms(c)
DAV:   1    -0.319574897934E+03    0.17103E-03   -0.20400E-02 35984   0.561E-01    0.631E-02
DAV:   2    -0.319575090261E+03   -0.19233E-03   -0.19667E-03 32728   0.107E-01    0.724E-02
DAV:   3    -0.319575095277E+03   -0.50156E-05   -0.11859E-04 27872   0.385E-02    0.646E-02
DAV:   4    -0.319575090577E+03    0.46998E-05   -0.30526E-05 21616   0.193E-02    0.207E-02
DAV:   5    -0.319575090388E+03    0.18858E-06   -0.70805E-06 16504   0.968E-03    0.221E-02
DAV:   6    -0.319575089463E+03    0.92524E-06   -0.44365E-06 16272   0.899E-03
  20 F= -.31957509E+03 E0= -.31957024E+03  d E =-.669530E-03  mag=    44.0000
       N       E                     dE             d eps       ncg     rms          rms(c)
DAV:   1    -0.319572506055E+03    0.25843E-02   -0.33479E-01 35704   0.225E+00    0.223E-01
DAV:   2    -0.319575528062E+03   -0.30220E-02   -0.29803E-02 32632   0.425E-01    0.177E-01
DAV:   3    -0.319575634892E+03   -0.10683E-03   -0.10860E-03 33112   0.116E-01    0.212E-01
DAV:   4    -0.319575585575E+03    0.49318E-04   -0.30073E-04 31176   0.606E-02    0.612E-02
DAV:   5    -0.319575578445E+03    0.71299E-05   -0.43831E-05 22960   0.250E-02    0.553E-02
DAV:   6    -0.319575570547E+03    0.78977E-05   -0.42339E-05 23560   0.273E-02
  21 F= -.31957557E+03 E0= -.31957072E+03  d E =-.481084E-03  mag=    44.0000
