       N       E                     dE             d eps       ncg     rms          ort
DAV:   1     0.696884069809E+04    0.69688E+04   -0.27000E+05  8320   0.167E+03
DAV:   2     0.729029386402E+03   -0.62398E+04   -0.59114E+04  8320   0.500E+02
DAV:   3    -0.364758820324E+03   -0.10938E+04   -0.10713E+04  8320   0.206E+02
DAV:   4    -0.427794084727E+03   -0.63035E+02   -0.61036E+02  8320   0.510E+01
DAV:   5    -0.433361452336E+03   -0.55674E+01   -0.54154E+01  8320   0.121E+01
SDA:   6    -0.180932949584E+03    0.25243E+03   -0.54154E+01  8320   0.171E+04 0.000E+00
CGA:   7    -0.292769920894E+03   -0.11184E+03   -0.96444E+02  8320   0.159E+04-0.312E+03
CGA:   8    -0.349080599797E+03   -0.56311E+02   -0.62473E+02  8320   0.277E+03-0.706E+02
CGA:   9    -0.360264692009E+03   -0.11184E+02   -0.13756E+02  8320   0.247E+03-0.134E+03
CGA:  10    -0.357847647466E+03    0.24170E+01   -0.38762E+01  8320   0.502E+03-0.243E+03
CGA:  11    -0.368077474375E+03   -0.10230E+02   -0.21064E+02  8320   0.908E+02-0.881E+02
CGA:  12    -0.371071475660E+03   -0.29940E+01   -0.15471E+01  8320   0.596E+02 0.704E+02
CGA:  13    -0.373235418725E+03   -0.21639E+01   -0.12510E+01  8320   0.211E+02 0.327E+02
CGA:  14    -0.375059593234E+03   -0.18242E+01   -0.16734E+01  8320   0.453E+02 0.514E+00
CGA:  15    -0.378787580507E+03   -0.37280E+01   -0.36759E+01  8320   0.446E+02-0.104E+01
CGA:  16    -0.379402043066E+03   -0.61446E+00   -0.96278E+00  8320   0.256E+02-0.172E+02
CGA:  17    -0.380026057929E+03   -0.62401E+00   -0.76074E+00  8320   0.562E+02 0.190E+01
CGA:  18    -0.377396714321E+03    0.26293E+01   -0.19508E+01  8320   0.157E+03-0.561E+02
CGA:  19    -0.379805251128E+03   -0.24085E+01   -0.34713E+01  8320   0.122E+03-0.139E+03
CGA:  20    -0.377871495240E+03    0.19338E+01   -0.45824E+01  8320   0.134E+03-0.605E+02
CGA:  21    -0.380221410188E+03   -0.23499E+01   -0.12523E+01  8320   0.998E+02 0.811E+02
CGA:  22    -0.378548937429E+03    0.16725E+01   -0.22061E+01  8320   0.401E+03-0.245E+03
CGA:  23    -0.375154079922E+03    0.33949E+01   -0.15669E+02  8320   0.257E+03-0.135E+03
CGA:  24    -0.378928955595E+03   -0.37749E+01   -0.28722E+01  8320   0.113E+03 0.126E+03
CGA:  25    -0.375690721985E+03    0.32382E+01   -0.27801E+01  8320   0.556E+03-0.578E+03
CGA:  26    -0.376759325395E+03   -0.10686E+01   -0.14049E+02  8320   0.132E+03-0.132E+03
CGA:  27    -0.379883476634E+03   -0.31242E+01   -0.13685E+01  8320   0.149E+03 0.197E+03
CGA:  28    -0.376052236587E+03    0.38312E+01   -0.34694E+01  8320   0.599E+03-0.364E+03
CGA:  29    -0.376104416453E+03   -0.52180E-01   -0.16715E+02  8320   0.151E+03-0.133E+03
CGA:  30    -0.379637365073E+03   -0.35329E+01   -0.17429E+01  8320   0.163E+03 0.221E+03
CGA:  31    -0.375960558145E+03    0.36768E+01   -0.37737E+01  8320   0.591E+03-0.380E+03
CGA:  32    -0.376140700448E+03   -0.18014E+00   -0.16463E+02  8320   0.132E+03-0.120E+03
CGA:  33    -0.381064182106E+03   -0.49235E+01   -0.18131E+01  8320   0.120E+03 0.234E+03
CGA:  34    -0.380309368736E+03    0.75481E+00   -0.23429E+01  8320   0.253E+03-0.197E+03
CGA:  35    -0.377602553755E+03    0.27068E+01   -0.68937E+01  8320   0.132E+03-0.835E+02
CGA:  36    -0.382413003958E+03   -0.48105E+01   -0.15224E+01  8320   0.984E+01 0.471E+02
CGA:  37    -0.382499036492E+03   -0.86033E-01   -0.88757E-01  8320   0.138E+01-0.671E+00
CGA:  38    -0.382553723819E+03   -0.54687E-01   -0.55916E-01  8320   0.231E+01 0.529E-02
CGA:  39    -0.382604303901E+03   -0.50580E-01   -0.62185E-01  8320   0.493E+01-0.235E+00
CGA:  40    -0.382856046400E+03   -0.25174E+00   -0.25025E+00  8320   0.293E+01-0.261E+00
CGA:  41    -0.382938288815E+03   -0.82242E-01   -0.82819E-01  8320   0.195E+01-0.149E-02
CGA:  42    -0.382994871252E+03   -0.56582E-01   -0.56255E-01  8320   0.107E+01 0.148E-01
CGA:  43    -0.383035135191E+03   -0.40264E-01   -0.42032E-01  8320   0.608E+00 0.892E-02
CGA:  44    -0.383059695969E+03   -0.24561E-01   -0.25264E-01  8320   0.106E+01 0.856E-02
CGA:  45    -0.383140242597E+03   -0.80547E-01   -0.92706E-01  8320   0.196E+01-0.356E+00
CGA:  46    -0.383185117338E+03   -0.44875E-01   -0.44450E-01  8320   0.172E+01 0.243E-01
CGA:  47    -0.383222366443E+03   -0.37249E-01   -0.45363E-01  8320   0.459E+00-0.155E+00
CGA:  48    -0.383246423001E+03   -0.24057E-01   -0.23954E-01  8320   0.393E+00 0.146E-01
CGA:  49    -0.383288110118E+03   -0.41687E-01   -0.40340E-01  8320   0.655E+00 0.263E-01
CGA:  50    -0.383323913878E+03   -0.35804E-01   -0.34626E-01  8320   0.957E+00-0.665E-01
CGA:  51    -0.383355905170E+03   -0.31991E-01   -0.32447E-01  8320   0.874E+00 0.742E-02
CGA:  52    -0.383380543567E+03   -0.24638E-01   -0.28150E-01  8320   0.650E+00-0.243E-01
CGA:  53    -0.383408997612E+03   -0.28454E-01   -0.27587E-01  8320   0.529E+00-0.200E-01
CGA:  54    -0.383441402722E+03   -0.32405E-01   -0.32467E-01  8320   0.472E+00-0.564E-02
CGA:  55    -0.383468890619E+03   -0.27488E-01   -0.27421E-01  8320   0.506E+00 0.753E-02
CGA:  56    -0.383484135679E+03   -0.15245E-01   -0.13268E-01  8320   0.396E+00 0.446E-01
CGA:  57    -0.383503244747E+03   -0.19109E-01   -0.19207E-01  8320   0.406E+00 0.474E-02
CGA:  58    -0.383514091442E+03   -0.10847E-01   -0.11385E-01  8320   0.406E+00-0.818E-02
CGA:  59    -0.383536225796E+03   -0.22134E-01   -0.22519E-01  8320   0.506E+00-0.407E-01
CGA:  60    -0.383549740475E+03   -0.13515E-01   -0.12589E-01  8320   0.432E+00 0.153E-01
CGA:  61    -0.383559432837E+03   -0.96924E-02   -0.10220E-01  8320   0.277E+00-0.122E-01
CGA:  62    -0.383572053605E+03   -0.12621E-01   -0.12615E-01  8320   0.358E+00-0.147E-02
CGA:  63    -0.383580573675E+03   -0.85201E-02   -0.80389E-02  8320   0.354E+00 0.121E-01
CGA:  64    -0.383596771103E+03   -0.16197E-01   -0.16160E-01  8320   0.514E+00-0.512E-02
SDA:  65    -0.383605394102E+03   -0.86230E-02   -0.88035E-02  8320   0.289E+00-0.529E-02
CGA:  66    -0.383617463968E+03   -0.12070E-01   -0.12032E-01  8320   0.321E+00-0.373E-02
CGA:  67    -0.383625912209E+03   -0.84482E-02   -0.85953E-02  8320   0.298E+00-0.115E-02
CGA:  68    -0.383657188244E+03   -0.31276E-01   -0.32293E-01  8320   0.368E+00-0.187E-01
CGA:  69    -0.383681875600E+03   -0.24687E-01   -0.24080E-01  8320   0.472E+00 0.217E-01
CGA:  70    -0.383696135240E+03   -0.14260E-01   -0.13063E-01  8320   0.233E+00 0.244E-01
CGA:  71    -0.383701980904E+03   -0.58457E-02   -0.53778E-02  8320   0.159E+00 0.134E-01
CGA:  72    -0.383711071496E+03   -0.90906E-02   -0.91736E-02  8320   0.254E+00-0.683E-02
CGA:  73    -0.383717803611E+03   -0.67321E-02   -0.68017E-02  8320   0.343E+00-0.773E-03
CGA:  74    -0.383731833057E+03   -0.14029E-01   -0.14065E-01  8320   0.201E+00 0.293E-02
CGA:  75    -0.383736189118E+03   -0.43561E-02   -0.43322E-02  8320   0.141E+00 0.702E-03
CGA:  76    -0.383739970195E+03   -0.37811E-02   -0.37957E-02  8320   0.811E-01-0.841E-04
CGA:  77    -0.383743314289E+03   -0.33441E-02   -0.33460E-02  8320   0.141E+00 0.418E-03
CGA:  78    -0.383748005848E+03   -0.46916E-02   -0.46043E-02  8320   0.179E+00-0.107E-02
CGA:  79    -0.383754386315E+03   -0.63805E-02   -0.63164E-02  8320   0.183E+00-0.238E-02
CGA:  80    -0.383757954679E+03   -0.35684E-02   -0.37281E-02  8320   0.118E+00-0.380E-02
CGA:  81    -0.383760937802E+03   -0.29831E-02   -0.29952E-02  8320   0.578E-01 0.588E-04
CGA:  82    -0.383762546992E+03   -0.16092E-02   -0.15995E-02  8320   0.917E-01 0.247E-04
CGA:  83    -0.383768287289E+03   -0.57403E-02   -0.57969E-02  8320   0.253E+00-0.253E-02
CGA:  84    -0.383776367865E+03   -0.80806E-02   -0.83015E-02  8320   0.261E+00 0.105E-01
CGA:  85    -0.383784648648E+03   -0.82808E-02   -0.77558E-02  8320   0.171E+00-0.125E-02
CGA:  86    -0.383788394667E+03   -0.37460E-02   -0.37777E-02  8320   0.889E-01-0.457E-03
CGA:  87    -0.383790654790E+03   -0.22601E-02   -0.22742E-02  8320   0.651E-01 0.551E-04
CGA:  88    -0.383792445697E+03   -0.17909E-02   -0.17591E-02  8320   0.802E-01-0.934E-04
CGA:  89    -0.383796153554E+03   -0.37079E-02   -0.37322E-02  8320   0.175E+00-0.191E-02
CGA:  90    -0.383800209277E+03   -0.40557E-02   -0.41581E-02  8320   0.128E+00 0.172E-03
CGA:  91    -0.383803150105E+03   -0.29408E-02   -0.29369E-02  8320   0.817E-01 0.730E-03
CGA:  92    -0.383805053466E+03   -0.19034E-02   -0.18591E-02  8320   0.572E-01 0.734E-03
CGA:  93    -0.383806450356E+03   -0.13969E-02   -0.14019E-02  8320   0.586E-01 0.168E-03
CGA:  94    -0.383808122337E+03   -0.16720E-02   -0.16761E-02  8320   0.604E-01 0.302E-03
CGA:  95    -0.383809989285E+03   -0.18669E-02   -0.18680E-02  8320   0.922E-01 0.231E-03
SDA:  96    -0.383812972864E+03   -0.29836E-02   -0.29905E-02  8320   0.101E+00 0.123E-02
CGA:  97    -0.383816006353E+03   -0.30335E-02   -0.30290E-02  8320   0.302E-01-0.321E-03
CGA:  98    -0.383817428360E+03   -0.14220E-02   -0.14251E-02  8320   0.493E-01-0.196E-03
CGA:  99    -0.383819487007E+03   -0.20586E-02   -0.20551E-02  8320   0.763E-01 0.325E-03
CGA: 100    -0.383821528222E+03   -0.20412E-02   -0.20206E-02  8320   0.665E-01-0.386E-03
CGA: 101    -0.383824895146E+03   -0.33669E-02   -0.33347E-02  8320   0.544E-01 0.167E-02
CGA: 102    -0.383828686806E+03   -0.37917E-02   -0.38454E-02  8320   0.380E-01-0.176E-02
CGA: 103    -0.383830382682E+03   -0.16959E-02   -0.16940E-02  8320   0.275E-01 0.126E-03
CGA: 104    -0.383831070606E+03   -0.68792E-03   -0.69363E-03  8320   0.209E-01-0.234E-04
CGA: 105    -0.383831787727E+03   -0.71712E-03   -0.71484E-03  8320   0.373E-01-0.301E-03
CGA: 106    -0.383833393096E+03   -0.16054E-02   -0.15948E-02  8320   0.197E-01 0.108E-02
CGA: 107    -0.383834211613E+03   -0.81852E-03   -0.81691E-03  8320   0.140E-01 0.336E-03
CGA: 108    -0.383834394894E+03   -0.18328E-03   -0.17988E-03  8320   0.422E-02 0.210E-03
CGA: 109    -0.383834688950E+03   -0.29406E-03   -0.29584E-03  8320   0.689E-02-0.547E-04
CGA: 110    -0.383835012444E+03   -0.32349E-03   -0.32224E-03  8320   0.145E-01 0.916E-04
CGA: 111    -0.383835313352E+03   -0.30091E-03   -0.29007E-03  8320   0.787E-02 0.270E-03
CGA: 112    -0.383835597562E+03   -0.28421E-03   -0.28430E-03  8320   0.603E-02 0.184E-04
CGA: 113    -0.383835755190E+03   -0.15763E-03   -0.15771E-03  8320   0.380E-02-0.416E-05
CGA: 114    -0.383835828040E+03   -0.72850E-04   -0.72259E-04  8320   0.348E-02 0.138E-04
CGA: 115    -0.383836091071E+03   -0.26303E-03   -0.26381E-03  8320   0.419E-02-0.224E-04
CGA: 116    -0.383836189553E+03   -0.98481E-04   -0.99175E-04  8320   0.588E-02-0.141E-04
CGA: 117    -0.383836383270E+03   -0.19372E-03   -0.19303E-03  8320   0.262E-02-0.702E-04
CGA: 118    -0.383836544453E+03   -0.16118E-03   -0.16454E-03  8320   0.334E-02-0.123E-03
CGA: 119    -0.383836594133E+03   -0.49680E-04   -0.49850E-04  8320   0.213E-02-0.382E-04
CGA: 120    -0.383836712427E+03   -0.11829E-03   -0.11971E-03  8320   0.148E-02-0.697E-04
CGA: 121    -0.383836788457E+03   -0.76030E-04   -0.77089E-04  8320   0.482E-02-0.624E-04
CGA: 122    -0.383836917615E+03   -0.12916E-03   -0.13042E-03  8320   0.420E-02-0.472E-04
CGA: 123    -0.383837047251E+03   -0.12964E-03   -0.12665E-03  8320   0.178E-02-0.133E-03
CGA: 124    -0.383837088045E+03   -0.40794E-04   -0.40401E-04  8320   0.115E-02-0.202E-04
CGA: 125    -0.383837128322E+03   -0.40278E-04   -0.40283E-04  8320   0.270E-02-0.817E-05
CGA: 126    -0.383837246149E+03   -0.11783E-03   -0.11997E-03  8320   0.281E-02-0.205E-03
SDA: 127    -0.383837389456E+03   -0.14331E-03   -0.15231E-03  8320   0.466E-02-0.403E-03
CGA: 128    -0.383837456866E+03   -0.67410E-04   -0.67641E-04  8320   0.140E-02-0.104E-04
CGA: 129    -0.383837495364E+03   -0.38497E-04   -0.38565E-04  8320   0.178E-02 0.660E-05
CGA: 130    -0.383837563294E+03   -0.67930E-04   -0.67920E-04  8320   0.143E-02 0.136E-04
CGA: 131    -0.383837742823E+03   -0.17953E-03   -0.17008E-03  8320   0.179E-02 0.122E-03
CGA: 132    -0.383837827730E+03   -0.84907E-04   -0.84813E-04  8320   0.112E-02 0.306E-04
CGA: 133    -0.383837857692E+03   -0.29961E-04   -0.30106E-04  8320   0.142E-02 0.666E-05
CGA: 134    -0.383837896067E+03   -0.38376E-04   -0.38381E-04  8320   0.854E-03 0.103E-04
CGA: 135    -0.383837958048E+03   -0.61980E-04   -0.60133E-04  8320   0.185E-02 0.566E-04
CGA: 136    -0.383838045327E+03   -0.87279E-04   -0.87371E-04  8320   0.118E-02-0.116E-04
CGA: 137    -0.383838086143E+03   -0.40816E-04   -0.40755E-04  8320   0.101E-02 0.164E-05
CGA: 138    -0.383838102693E+03   -0.16550E-04   -0.16743E-04  8320   0.555E-03-0.584E-05
CGA: 139    -0.383838152623E+03   -0.49931E-04   -0.50191E-04  8320   0.973E-03-0.593E-05
CGA: 140    -0.383838186119E+03   -0.33496E-04   -0.33550E-04  8320   0.702E-03 0.197E-05
CGA: 141    -0.383838248213E+03   -0.62093E-04   -0.63683E-04  8320   0.118E-02-0.356E-04
CGA: 142    -0.383838283482E+03   -0.35269E-04   -0.35745E-04  8320   0.138E-02 0.491E-06
CGA: 143    -0.383838312196E+03   -0.28714E-04   -0.28018E-04  8320   0.668E-03 0.153E-04
CGA: 144    -0.383838343263E+03   -0.31067E-04   -0.31068E-04  8320   0.730E-03-0.250E-05
CGA: 145    -0.383838382552E+03   -0.39289E-04   -0.39697E-04  8320   0.118E-02-0.269E-04
CGA: 146    -0.383838419456E+03   -0.36903E-04   -0.37416E-04  8320   0.156E-02 0.254E-05
CGA: 147    -0.383838459586E+03   -0.40131E-04   -0.38716E-04  8320   0.949E-03 0.144E-04
CGA: 148    -0.383838514230E+03   -0.54643E-04   -0.54263E-04  8320   0.578E-03 0.186E-04
CGA: 149    -0.383838529403E+03   -0.15174E-04   -0.15079E-04  8320   0.809E-03 0.610E-05
CGA: 150    -0.383838568822E+03   -0.39419E-04   -0.39183E-04  8320   0.107E-02 0.301E-04
CGA: 151    -0.383838614883E+03   -0.46061E-04   -0.46070E-04  8320   0.934E-03 0.191E-04
CGA: 152    -0.383838652910E+03   -0.38027E-04   -0.38097E-04  8320   0.395E-03 0.259E-04
CGA: 153    -0.383838662513E+03   -0.96036E-05   -0.96362E-05  8320   0.402E-03 0.586E-05
CGA: 154    -0.383838674647E+03   -0.12134E-04   -0.12240E-04  8320   0.384E-03 0.491E-05
CGA: 155    -0.383838703443E+03   -0.28796E-04   -0.28592E-04  8320   0.428E-03 0.574E-05
CGA: 156    -0.383838721660E+03   -0.18218E-04   -0.18223E-04  8320   0.339E-03 0.981E-05
CGA: 157    -0.383838732777E+03   -0.11117E-04   -0.11091E-04  8320   0.216E-03 0.924E-06
SDA: 158    -0.383838737216E+03   -0.44386E-05   -0.44485E-05  8320   0.179E-03-0.104E-05
   1 F= -.38383874E+03 E0= -.38381016E+03  d E =-.383839E+03  mag=    10.6540
       N       E                     dE             d eps       ncg     rms          ort
SDA:   1    -0.383324194925E+03    0.51454E+00    0.00000E+00  8320   0.491E+02 0.000E+00
CGA:   2    -0.383819757215E+03   -0.49556E+00   -0.50907E+00  8320   0.235E+01-0.693E+01
CGA:   3    -0.383848015441E+03   -0.28258E-01   -0.25826E-01  8320   0.827E-01 0.136E+00
CGA:   4    -0.383849654998E+03   -0.16396E-02   -0.16275E-02  8320   0.713E-02 0.282E-03
CGA:   5    -0.383849865679E+03   -0.21068E-03   -0.21060E-03  8320   0.119E-01-0.218E-05
CGA:   6    -0.383850278053E+03   -0.41237E-03   -0.41241E-03  8320   0.699E-02 0.208E-04
CGA:   7    -0.383850528935E+03   -0.25088E-03   -0.25088E-03  8320   0.590E-02 0.614E-05
CGA:   8    -0.383850702642E+03   -0.17371E-03   -0.17365E-03  8320   0.200E-02-0.662E-05
CGA:   9    -0.383850744979E+03   -0.42337E-04   -0.42217E-04  8320   0.193E-02-0.280E-06
CGA:  10    -0.383850813088E+03   -0.68109E-04   -0.68127E-04  8320   0.858E-03-0.141E-04
CGA:  11    -0.383850865324E+03   -0.52236E-04   -0.52439E-04  8320   0.115E-02-0.744E-05
CGA:  12    -0.383850895764E+03   -0.30440E-04   -0.30382E-04  8320   0.115E-02-0.675E-05
CGA:  13    -0.383850919719E+03   -0.23955E-04   -0.23890E-04  8320   0.298E-03-0.400E-05
CGA:  14    -0.383850929810E+03   -0.10091E-04   -0.10090E-04  8320   0.197E-03-0.756E-06
CGA:  15    -0.383850936605E+03   -0.67950E-05   -0.67954E-05  8320   0.205E-03 0.302E-06
   2 F= -.38385094E+03 E0= -.38382205E+03  d E =-.121994E-01  mag=    10.6418
       N       E                     dE             d eps       ncg     rms          ort
SDA:   1    -0.383747002894E+03    0.10393E+00    0.00000E+00  8320   0.303E+01 0.000E+00
CGA:   2    -0.383782720996E+03   -0.35718E-01   -0.38506E-01  8320   0.140E+01-0.163E+00
CGA:   3    -0.383874640590E+03   -0.91920E-01   -0.91366E-01  8320   0.242E+01 0.175E-01
CGA:   4    -0.383956180836E+03   -0.81540E-01   -0.81471E-01  8320   0.138E+01-0.152E-01
CGA:   5    -0.383983994955E+03   -0.27814E-01   -0.27677E-01  8320   0.704E+00 0.175E-02
CGA:   6    -0.383998903780E+03   -0.14909E-01   -0.15023E-01  8320   0.366E+00-0.109E-02
CGA:   7    -0.384013363172E+03   -0.14459E-01   -0.14463E-01  8320   0.285E+00-0.506E-03
CGA:   8    -0.384027385430E+03   -0.14022E-01   -0.14013E-01  8320   0.551E+00 0.491E-03
CGA:   9    -0.384036338222E+03   -0.89528E-02   -0.88836E-02  8320   0.660E-01 0.224E-02
CGA:  10    -0.384039483354E+03   -0.31451E-02   -0.31137E-02  8320   0.600E-01 0.183E-02
CGA:  11    -0.384040686980E+03   -0.12036E-02   -0.12035E-02  8320   0.383E-01-0.405E-05
CGA:  12    -0.384041887429E+03   -0.12004E-02   -0.12004E-02  8320   0.328E-01-0.231E-04
CGA:  13    -0.384043178023E+03   -0.12906E-02   -0.12910E-02  8320   0.265E-01-0.467E-04
CGA:  14    -0.384043891896E+03   -0.71387E-03   -0.71472E-03  8320   0.158E-01 0.274E-04
CGA:  15    -0.384044142296E+03   -0.25040E-03   -0.25020E-03  8320   0.471E-02 0.127E-04
CGA:  16    -0.384044351241E+03   -0.20895E-03   -0.20886E-03  8320   0.416E-02 0.578E-05
CGA:  17    -0.384044559900E+03   -0.20866E-03   -0.20856E-03  8320   0.124E-01 0.640E-05
CGA:  18    -0.384044913639E+03   -0.35374E-03   -0.35392E-03  8320   0.350E-02 0.137E-04
CGA:  19    -0.384044999458E+03   -0.85819E-04   -0.85787E-04  8320   0.180E-02 0.121E-05
CGA:  20    -0.384045067200E+03   -0.67743E-04   -0.67765E-04  8320   0.286E-02-0.546E-05
CGA:  21    -0.384045151065E+03   -0.83864E-04   -0.83848E-04  8320   0.312E-02-0.379E-05
CGA:  22    -0.384045307864E+03   -0.15680E-03   -0.15681E-03  8320   0.234E-02-0.189E-05
CGA:  23    -0.384045381820E+03   -0.73956E-04   -0.73927E-04  8320   0.227E-02-0.606E-05
CGA:  24    -0.384045421298E+03   -0.39478E-04   -0.39448E-04  8320   0.834E-03-0.246E-05
CGA:  25    -0.384045483424E+03   -0.62126E-04   -0.61853E-04  8320   0.163E-02 0.657E-05
CGA:  26    -0.384045533627E+03   -0.50202E-04   -0.50241E-04  8320   0.170E-02 0.560E-05
CGA:  27    -0.384045577610E+03   -0.43984E-04   -0.44002E-04  8320   0.131E-02 0.577E-05
CGA:  28    -0.384045611874E+03   -0.34264E-04   -0.34323E-04  8320   0.417E-03 0.503E-05
CGA:  29    -0.384045629493E+03   -0.17619E-04   -0.17592E-04  8320   0.547E-03 0.346E-05
CGA:  30    -0.384045642709E+03   -0.13216E-04   -0.13239E-04  8320   0.593E-03 0.124E-05
CGA:  31    -0.384045675828E+03   -0.33119E-04   -0.33226E-04  8320   0.405E-03-0.393E-05
SDA:  32    -0.384045686378E+03   -0.10550E-04   -0.10567E-04  8320   0.307E-03 0.115E-05
CGA:  33    -0.384045689942E+03   -0.35637E-05   -0.35773E-05  8320   0.111E-03 0.670E-06
   3 F= -.38404569E+03 E0= -.38401623E+03  d E =-.194753E+00  mag=    10.6118
       N       E                     dE             d eps       ncg     rms          ort
SDA:   1    -0.378847919485E+03    0.51978E+01    0.00000E+00  8320   0.546E+02 0.000E+00
CGA:   2    -0.379708466902E+03   -0.86055E+00   -0.86439E+00  8320   0.296E+02-0.131E+01
CGA:   3    -0.380944625772E+03   -0.12362E+01   -0.12184E+01  8320   0.489E+02 0.142E+01
CGA:   4    -0.382530468572E+03   -0.15858E+01   -0.15759E+01  8320   0.312E+02-0.100E+01
CGA:   5    -0.383549931887E+03   -0.10195E+01   -0.10180E+01  8320   0.197E+02-0.803E+00
CGA:   6    -0.383832636332E+03   -0.28270E+00   -0.25735E+00  8320   0.448E+01 0.122E+01
CGA:   7    -0.384067047518E+03   -0.23441E+00   -0.23178E+00  8320   0.501E+01 0.144E+00
CGA:   8    -0.384467205388E+03   -0.40016E+00   -0.39936E+00  8320   0.509E+01 0.176E-01
CGA:   9    -0.384531914768E+03   -0.64709E-01   -0.65128E-01  8320   0.157E+01-0.450E-01
CGA:  10    -0.384567357865E+03   -0.35443E-01   -0.36590E-01  8320   0.788E+00 0.753E-02
CGA:  11    -0.384595147536E+03   -0.27790E-01   -0.27779E-01  8320   0.610E+00 0.755E-02
CGA:  12    -0.384629620189E+03   -0.34473E-01   -0.35272E-01  8320   0.682E+00-0.318E-01
CGA:  13    -0.384643261952E+03   -0.13642E-01   -0.13682E-01  8320   0.538E+00-0.573E-03
CGA:  14    -0.384654797285E+03   -0.11535E-01   -0.11528E-01  8320   0.131E+00 0.250E-03
CGA:  15    -0.384658142261E+03   -0.33450E-02   -0.33445E-02  8320   0.708E-01 0.359E-05
CGA:  16    -0.384663899933E+03   -0.57577E-02   -0.56859E-02  8320   0.171E+00 0.160E-02
CGA:  17    -0.384667227646E+03   -0.33277E-02   -0.33360E-02  8320   0.117E+00-0.213E-03
CGA:  18    -0.384671749198E+03   -0.45216E-02   -0.45376E-02  8320   0.665E-01-0.264E-02
CGA:  19    -0.384673308896E+03   -0.15597E-02   -0.15639E-02  8320   0.325E-01 0.206E-05
CGA:  20    -0.384674350177E+03   -0.10413E-02   -0.10411E-02  8320   0.523E-01-0.223E-04
CGA:  21    -0.384675991641E+03   -0.16415E-02   -0.16426E-02  8320   0.404E-01 0.123E-03
CGA:  22    -0.384678535230E+03   -0.25436E-02   -0.25378E-02  8320   0.450E-01 0.190E-03
CGA:  23    -0.384679300697E+03   -0.76547E-03   -0.76624E-03  8320   0.218E-01-0.478E-04
CGA:  24    -0.384679895404E+03   -0.59471E-03   -0.59353E-03  8320   0.138E-01-0.312E-04
CGA:  25    -0.384680634254E+03   -0.73885E-03   -0.73707E-03  8320   0.262E-01 0.844E-04
CGA:  26    -0.384681499577E+03   -0.86532E-03   -0.86539E-03  8320   0.294E-01 0.375E-04
CGA:  27    -0.384682102031E+03   -0.60245E-03   -0.60548E-03  8320   0.118E-01-0.177E-04
CGA:  28    -0.384682528110E+03   -0.42608E-03   -0.42619E-03  8320   0.689E-02-0.375E-04
CGA:  29    -0.384682709797E+03   -0.18169E-03   -0.18182E-03  8320   0.823E-02 0.611E-05
CGA:  30    -0.384682946651E+03   -0.23685E-03   -0.23694E-03  8320   0.601E-02 0.118E-04
CGA:  31    -0.384683339270E+03   -0.39262E-03   -0.39148E-03  8320   0.108E-01 0.364E-04
SDA:  32    -0.384683544767E+03   -0.20550E-03   -0.20427E-03  8320   0.367E-02 0.382E-04
CGA:  33    -0.384683587654E+03   -0.42887E-04   -0.42918E-04  8320   0.139E-02-0.755E-05
CGA:  34    -0.384683667401E+03   -0.79747E-04   -0.80113E-04  8320   0.296E-02-0.146E-04
CGA:  35    -0.384683795357E+03   -0.12796E-03   -0.12797E-03  8320   0.288E-02-0.167E-05
CGA:  36    -0.384683950530E+03   -0.15517E-03   -0.15518E-03  8320   0.117E-02-0.497E-06
CGA:  37    -0.384683980202E+03   -0.29671E-04   -0.29643E-04  8320   0.170E-02-0.349E-05
CGA:  38    -0.384684033900E+03   -0.53698E-04   -0.53510E-04  8320   0.148E-02-0.204E-04
CGA:  39    -0.384684196727E+03   -0.16283E-03   -0.16165E-03  8320   0.246E-02 0.189E-04
CGA:  40    -0.384684277924E+03   -0.81197E-04   -0.81110E-04  8320   0.149E-02-0.749E-05
CGA:  41    -0.384684325131E+03   -0.47207E-04   -0.47236E-04  8320   0.133E-02-0.679E-06
CGA:  42    -0.384684356420E+03   -0.31289E-04   -0.31087E-04  8320   0.154E-02 0.240E-05
CGA:  43    -0.384684418261E+03   -0.61840E-04   -0.61824E-04  8320   0.165E-02 0.345E-05
CGA:  44    -0.384684592906E+03   -0.17465E-03   -0.17571E-03  8320   0.170E-02-0.242E-04
CGA:  45    -0.384684664241E+03   -0.71334E-04   -0.71305E-04  8320   0.117E-02 0.121E-04
CGA:  46    -0.384684687891E+03   -0.23651E-04   -0.23307E-04  8320   0.154E-02 0.619E-05
CGA:  47    -0.384684877026E+03   -0.18913E-03   -0.20407E-03  8320   0.413E-02-0.210E-03
CGA:  48    -0.384684965560E+03   -0.88534E-04   -0.92296E-04  8320   0.371E-02-0.628E-04
CGA:  49    -0.384685027790E+03   -0.62230E-04   -0.60129E-04  8320   0.149E-02 0.717E-04
CGA:  50    -0.384685074149E+03   -0.46359E-04   -0.46370E-04  8320   0.898E-03-0.907E-05
CGA:  51    -0.384685120195E+03   -0.46046E-04   -0.46336E-04  8320   0.173E-02-0.238E-04
CGA:  52    -0.384685242037E+03   -0.12184E-03   -0.12015E-03  8320   0.332E-02 0.485E-04
CGA:  53    -0.384685286545E+03   -0.44508E-04   -0.42207E-04  8320   0.104E-02 0.131E-03
CGA:  54    -0.384685326619E+03   -0.40074E-04   -0.40070E-04  8320   0.708E-03-0.394E-05
CGA:  55    -0.384685346306E+03   -0.19687E-04   -0.19620E-04  8320   0.466E-03-0.405E-05
CGA:  56    -0.384685374688E+03   -0.28382E-04   -0.28681E-04  8320   0.182E-02-0.134E-04
CGA:  57    -0.384685414030E+03   -0.39342E-04   -0.39627E-04  8320   0.122E-02-0.162E-04
CGA:  58    -0.384685447607E+03   -0.33577E-04   -0.33503E-04  8320   0.670E-03-0.365E-05
CGA:  59    -0.384685468445E+03   -0.20838E-04   -0.20755E-04  8320   0.512E-03-0.478E-05
CGA:  60    -0.384685475384E+03   -0.69392E-05   -0.69173E-05  8320   0.281E-03-0.320E-05
CGA:  61    -0.384685503395E+03   -0.28012E-04   -0.28346E-04  8320   0.129E-02-0.554E-05
CGA:  62    -0.384685545917E+03   -0.42522E-04   -0.42399E-04  8320   0.937E-03-0.547E-05
SDA:  63    -0.384685559148E+03   -0.13231E-04   -0.13280E-04  8320   0.487E-03-0.551E-05
CGA:  64    -0.384685567818E+03   -0.86699E-05   -0.86395E-05  8320   0.432E-03-0.930E-06
CGA:  65    -0.384685579549E+03   -0.11731E-04   -0.11702E-04  8320   0.356E-03-0.270E-05
CGA:  66    -0.384685594463E+03   -0.14914E-04   -0.14921E-04  8320   0.471E-03-0.210E-05
CGA:  67    -0.384685631936E+03   -0.37473E-04   -0.37805E-04  8320   0.499E-03-0.792E-05
CGA:  68    -0.384685645477E+03   -0.13541E-04   -0.13518E-04  8320   0.286E-03-0.200E-05
CGA:  69    -0.384685651022E+03   -0.55449E-05   -0.55525E-05  8320   0.313E-03 0.599E-06
CGA:  70    -0.384685666108E+03   -0.15086E-04   -0.15052E-04  8320   0.452E-03 0.360E-05
CGA:  71    -0.384685695651E+03   -0.29542E-04   -0.29443E-04  8320   0.331E-03 0.398E-05
CGA:  72    -0.384685709008E+03   -0.13358E-04   -0.13360E-04  8320   0.281E-03 0.248E-05
CGA:  73    -0.384685713037E+03   -0.40289E-05   -0.40403E-05  8320   0.158E-03 0.482E-06
   4 F= -.38468571E+03 E0= -.38465305E+03  d E =-.640023E+00  mag=    10.2731
       N       E                     dE             d eps       ncg     rms          ort
SDA:   1    -0.378079924581E+03    0.66058E+01    0.00000E+00  8320   0.652E+02 0.000E+00
CGA:   2    -0.379111576796E+03   -0.10317E+01   -0.10009E+01  8320   0.365E+02-0.160E+01
CGA:   3    -0.380535228502E+03   -0.14237E+01   -0.14166E+01  8320   0.460E+02 0.446E+01
CGA:   4    -0.382241549768E+03   -0.17063E+01   -0.16132E+01  8320   0.489E+02-0.263E+01
CGA:   5    -0.383480805666E+03   -0.12393E+01   -0.12272E+01  8320   0.316E+02-0.234E+00
CGA:   6    -0.384057234176E+03   -0.57643E+00   -0.57865E+00  8320   0.776E+01-0.184E+00
CGA:   7    -0.384293885177E+03   -0.23665E+00   -0.24039E+00  8320   0.602E+01 0.194E+00
CGA:   8    -0.384707950593E+03   -0.41407E+00   -0.42007E+00  8320   0.887E+01-0.171E+00
CGA:   9    -0.384851374486E+03   -0.14342E+00   -0.12638E+00  8320   0.455E+01 0.766E+00
CGA:  10    -0.384947148545E+03   -0.95774E-01   -0.10541E+00  8320   0.140E+01-0.136E+00
CGA:  11    -0.384977337785E+03   -0.30189E-01   -0.30005E-01  8320   0.116E+01 0.170E-02
CGA:  12    -0.385001709148E+03   -0.24371E-01   -0.23358E-01  8320   0.110E+01 0.175E-01
CGA:  13    -0.385030872446E+03   -0.29163E-01   -0.29797E-01  8320   0.698E+00 0.161E-01
CGA:  14    -0.385053853748E+03   -0.22981E-01   -0.23051E-01  8320   0.783E+00 0.166E-01
CGA:  15    -0.385066324683E+03   -0.12471E-01   -0.12289E-01  8320   0.397E+00 0.703E-02
CGA:  16    -0.385075099662E+03   -0.87750E-02   -0.87116E-02  8320   0.102E+00 0.225E-03
CGA:  17    -0.385077870392E+03   -0.27707E-02   -0.27791E-02  8320   0.189E+00 0.456E-03
CGA:  18    -0.385082519746E+03   -0.46494E-02   -0.46545E-02  8320   0.127E+00 0.156E-03
CGA:  19    -0.385087629660E+03   -0.51099E-02   -0.51265E-02  8320   0.147E+00-0.144E-02
CGA:  20    -0.385090814705E+03   -0.31850E-02   -0.32057E-02  8320   0.120E+00 0.317E-04
CGA:  21    -0.385092678737E+03   -0.18640E-02   -0.18617E-02  8320   0.410E-01 0.105E-03
CGA:  22    -0.385093905981E+03   -0.12272E-02   -0.12275E-02  8320   0.319E-01 0.111E-03
CGA:  23    -0.385095544391E+03   -0.16384E-02   -0.16367E-02  8320   0.947E-01 0.696E-04
CGA:  24    -0.385097371888E+03   -0.18275E-02   -0.18201E-02  8320   0.527E-01 0.769E-04
CGA:  25    -0.385098908363E+03   -0.15365E-02   -0.15381E-02  8320   0.219E-01 0.300E-03
CGA:  26    -0.385099485691E+03   -0.57733E-03   -0.57728E-03  8320   0.245E-01-0.759E-05
CGA:  27    -0.385099961622E+03   -0.47593E-03   -0.47332E-03  8320   0.188E-01 0.254E-04
CGA:  28    -0.385100678758E+03   -0.71714E-03   -0.71599E-03  8320   0.230E-01 0.115E-03
CGA:  29    -0.385101526225E+03   -0.84747E-03   -0.84669E-03  8320   0.214E-01 0.103E-03
CGA:  30    -0.385101843560E+03   -0.31733E-03   -0.31658E-03  8320   0.127E-01 0.477E-04
CGA:  31    -0.385102236970E+03   -0.39341E-03   -0.39341E-03  8320   0.578E-02 0.791E-05
SDA:  32    -0.385102413108E+03   -0.17614E-03   -0.17613E-03  8320   0.769E-02 0.311E-04
CGA:  33    -0.385102497796E+03   -0.84689E-04   -0.84353E-04  8320   0.279E-02 0.199E-04
CGA:  34    -0.385102610049E+03   -0.11225E-03   -0.11230E-03  8320   0.394E-02-0.459E-05
CGA:  35    -0.385102811018E+03   -0.20097E-03   -0.20049E-03  8320   0.504E-02 0.215E-04
CGA:  36    -0.385103054796E+03   -0.24378E-03   -0.24381E-03  8320   0.243E-02-0.903E-06
CGA:  37    -0.385103123499E+03   -0.68703E-04   -0.68708E-04  8320   0.254E-02 0.319E-06
CGA:  38    -0.385103167255E+03   -0.43756E-04   -0.43774E-04  8320   0.142E-02 0.340E-05
CGA:  39    -0.385103219798E+03   -0.52542E-04   -0.52477E-04  8320   0.129E-02 0.972E-05
CGA:  40    -0.385103327399E+03   -0.10760E-03   -0.10698E-03  8320   0.164E-02 0.118E-04
CGA:  41    -0.385103400694E+03   -0.73295E-04   -0.73237E-04  8320   0.583E-03 0.569E-05
CGA:  42    -0.385103429917E+03   -0.29222E-04   -0.29213E-04  8320   0.161E-02 0.149E-06
CGA:  43    -0.385103459315E+03   -0.29398E-04   -0.29355E-04  8320   0.851E-03 0.104E-05
CGA:  44    -0.385103542464E+03   -0.83149E-04   -0.83142E-04  8320   0.467E-03 0.627E-07
CGA:  45    -0.385103551991E+03   -0.95272E-05   -0.95072E-05  8320   0.205E-03-0.109E-05
CGA:  46    -0.385103576918E+03   -0.24927E-04   -0.24801E-04  8320   0.120E-02 0.128E-05
CGA:  47    -0.385103594463E+03   -0.17546E-04   -0.17606E-04  8320   0.324E-03-0.330E-06
CGA:  48    -0.385103606459E+03   -0.11996E-04   -0.11997E-04  8320   0.263E-03 0.354E-06
CGA:  49    -0.385103615709E+03   -0.92498E-05   -0.92445E-05  8320   0.901E-04-0.157E-05
   5 F= -.38510362E+03 E0= -.38507059E+03  d E =-.417903E+00  mag=    10.1790
       N       E                     dE             d eps       ncg     rms          ort
SDA:   1    -0.368498483829E+03    0.16605E+02    0.00000E+00  8320   0.174E+03 0.000E+00
CGA:   2    -0.371827986060E+03   -0.33295E+01   -0.24570E+01  8320   0.518E+02 0.255E+02
CGA:   3    -0.374712976541E+03   -0.28850E+01   -0.28179E+01  8320   0.104E+03 0.430E+01
CGA:   4    -0.378599496316E+03   -0.38865E+01   -0.37040E+01  8320   0.957E+02-0.877E+01
CGA:   5    -0.380887560096E+03   -0.22881E+01   -0.19983E+01  8320   0.145E+03 0.125E+00
CGA:   6    -0.382487119609E+03   -0.15996E+01   -0.15341E+01  8320   0.587E+02 0.430E+01
CGA:   7    -0.382992100088E+03   -0.50498E+00   -0.55001E+00  8320   0.198E+02-0.262E+01
CGA:   8    -0.383322317350E+03   -0.33022E+00   -0.32621E+00  8320   0.267E+02 0.154E+00
CGA:   9    -0.383795191602E+03   -0.47287E+00   -0.43244E+00  8320   0.258E+02 0.106E+01
CGA:  10    -0.384211335647E+03   -0.41614E+00   -0.46471E+00  8320   0.279E+02-0.109E+01
CGA:  11    -0.384632581398E+03   -0.42125E+00   -0.41271E+00  8320   0.234E+02 0.109E+00
CGA:  12    -0.384899300412E+03   -0.26672E+00   -0.21320E+00  8320   0.988E+01 0.442E+01
CGA:  13    -0.385006088700E+03   -0.10679E+00   -0.99475E-01  8320   0.580E+01 0.606E+00
CGA:  14    -0.385065188023E+03   -0.59099E-01   -0.66135E-01  8320   0.355E+01-0.479E+00
CGA:  15    -0.385096787543E+03   -0.31600E-01   -0.33595E-01  8320   0.310E+01-0.139E+00
CGA:  16    -0.385147736422E+03   -0.50949E-01   -0.50311E-01  8320   0.424E+01 0.802E-02
CGA:  17    -0.385197296245E+03   -0.49560E-01   -0.47910E-01  8320   0.382E+01 0.930E-01
CGA:  18    -0.385246124767E+03   -0.48829E-01   -0.50507E-01  8320   0.370E+01-0.662E-01
CGA:  19    -0.385294507608E+03   -0.48383E-01   -0.50294E-01  8320   0.419E+01-0.600E-01
CGA:  20    -0.385344414714E+03   -0.49907E-01   -0.49115E-01  8320   0.174E+01 0.533E-01
CGA:  21    -0.385358166190E+03   -0.13751E-01   -0.13210E-01  8320   0.637E+00 0.597E-01
CGA:  22    -0.385367401069E+03   -0.92349E-02   -0.90854E-02  8320   0.847E+00 0.355E-02
CGA:  23    -0.385379207780E+03   -0.11807E-01   -0.11831E-01  8320   0.858E+00-0.886E-04
CGA:  24    -0.385388653110E+03   -0.94453E-02   -0.98352E-02  8320   0.744E+00-0.158E-01
CGA:  25    -0.385399474934E+03   -0.10822E-01   -0.11119E-01  8320   0.789E+00 0.307E-02
CGA:  26    -0.385412538570E+03   -0.13064E-01   -0.13015E-01  8320   0.914E+00-0.127E-02
CGA:  27    -0.385424245879E+03   -0.11707E-01   -0.11211E-01  8320   0.623E+00 0.135E-01
CGA:  28    -0.385430870014E+03   -0.66241E-02   -0.66257E-02  8320   0.401E+00-0.152E-03
CGA:  29    -0.385434885301E+03   -0.40153E-02   -0.40745E-02  8320   0.196E+00-0.288E-02
CGA:  30    -0.385436868988E+03   -0.19837E-02   -0.20004E-02  8320   0.156E+00-0.689E-03
CGA:  31    -0.385439776685E+03   -0.29077E-02   -0.29100E-02  8320   0.239E+00 0.168E-02
SDA:  32    -0.385442859724E+03   -0.30830E-02   -0.30978E-02  8320   0.181E+00-0.534E-04
CGA:  33    -0.385446152109E+03   -0.32924E-02   -0.32897E-02  8320   0.419E-01-0.144E-02
CGA:  34    -0.385448373398E+03   -0.22213E-02   -0.21893E-02  8320   0.814E-01 0.107E-02
CGA:  35    -0.385450913845E+03   -0.25404E-02   -0.25450E-02  8320   0.142E+00-0.392E-03
CGA:  36    -0.385454524064E+03   -0.36102E-02   -0.36062E-02  8320   0.733E-01 0.588E-03
CGA:  37    -0.385456197844E+03   -0.16738E-02   -0.16721E-02  8320   0.209E-01 0.695E-03
CGA:  38    -0.385456906231E+03   -0.70839E-03   -0.70904E-03  8320   0.164E-01-0.467E-04
CGA:  39    -0.385457194794E+03   -0.28856E-03   -0.28896E-03  8320   0.168E-01 0.306E-04
CGA:  40    -0.385458385632E+03   -0.11908E-02   -0.11808E-02  8320   0.177E-01 0.214E-03
CGA:  41    -0.385459426888E+03   -0.10413E-02   -0.10279E-02  8320   0.166E-01 0.413E-03
CGA:  42    -0.385459666702E+03   -0.23981E-03   -0.24058E-03  8320   0.958E-02 0.127E-06
CGA:  43    -0.385460033313E+03   -0.36661E-03   -0.36756E-03  8320   0.118E-01-0.607E-04
CGA:  44    -0.385460651715E+03   -0.61840E-03   -0.61571E-03  8320   0.134E-01 0.975E-04
CGA:  45    -0.385461404577E+03   -0.75286E-03   -0.75186E-03  8320   0.690E-02 0.328E-04
CGA:  46    -0.385461510633E+03   -0.10606E-03   -0.10595E-03  8320   0.420E-02 0.185E-05
CGA:  47    -0.385461633976E+03   -0.12334E-03   -0.12331E-03  8320   0.462E-02 0.120E-04
CGA:  48    -0.385461849337E+03   -0.21536E-03   -0.21566E-03  8320   0.511E-02-0.173E-04
CGA:  49    -0.385462147074E+03   -0.29774E-03   -0.29792E-03  8320   0.369E-02-0.759E-05
CGA:  50    -0.385462258845E+03   -0.11177E-03   -0.11177E-03  8320   0.374E-02-0.176E-05
CGA:  51    -0.385462309013E+03   -0.50168E-04   -0.50323E-04  8320   0.893E-03-0.486E-05
CGA:  52    -0.385462371089E+03   -0.62077E-04   -0.61883E-04  8320   0.231E-02 0.430E-05
CGA:  53    -0.385462501595E+03   -0.13051E-03   -0.12995E-03  8320   0.145E-02 0.224E-04
CGA:  54    -0.385462538471E+03   -0.36876E-04   -0.36882E-04  8320   0.169E-02 0.329E-05
CGA:  55    -0.385462568534E+03   -0.30063E-04   -0.30134E-04  8320   0.494E-03 0.413E-06
CGA:  56    -0.385462615971E+03   -0.47437E-04   -0.47684E-04  8320   0.955E-03-0.430E-05
CGA:  57    -0.385462656196E+03   -0.40225E-04   -0.40273E-04  8320   0.784E-03-0.665E-05
CGA:  58    -0.385462674201E+03   -0.18005E-04   -0.17986E-04  8320   0.588E-03-0.165E-05
CGA:  59    -0.385462683886E+03   -0.96850E-05   -0.96670E-05  8320   0.276E-03-0.187E-05
CGA:  60    -0.385462698478E+03   -0.14592E-04   -0.14729E-04  8320   0.274E-03-0.714E-05
CGA:  61    -0.385462717906E+03   -0.19427E-04   -0.19739E-04  8320   0.585E-03-0.817E-05
CGA:  62    -0.385462732862E+03   -0.14956E-04   -0.14871E-04  8320   0.437E-03-0.680E-05
SDA:  63    -0.385462739957E+03   -0.70955E-05   -0.70399E-05  8320   0.223E-03-0.364E-05
   6 F= -.38546274E+03 E0= -.38542976E+03  d E =-.359124E+00  mag=     9.9754
       N       E                     dE             d eps       ncg     rms          ort
SDA:   1    -0.368443496561E+03    0.17019E+02    0.00000E+00  8320   0.104E+03 0.000E+00
CGA:   2    -0.370908098150E+03   -0.24646E+01   -0.22774E+01  8320   0.713E+02-0.230E+01
CGA:   3    -0.376346192208E+03   -0.54381E+01   -0.50750E+01  8320   0.146E+03 0.950E+01
CGA:   4    -0.379365317050E+03   -0.30191E+01   -0.20327E+01  8320   0.517E+02 0.631E+02
CGA:   5    -0.380825894722E+03   -0.14606E+01   -0.12307E+01  8320   0.832E+02 0.683E+01
CGA:   6    -0.381744226296E+03   -0.91833E+00   -0.76227E+00  8320   0.792E+02 0.153E+02
CGA:   7    -0.382295994725E+03   -0.55177E+00   -0.63834E+00  8320   0.541E+02-0.114E+02
CGA:   8    -0.382598939992E+03   -0.30295E+00   -0.43134E+00  8320   0.656E+02-0.109E+02
CGA:   9    -0.383068164065E+03   -0.46922E+00   -0.47719E+00  8320   0.658E+02 0.628E+00
CGA:  10    -0.383801182903E+03   -0.73302E+00   -0.65322E+00  8320   0.717E+02 0.694E+01
CGA:  11    -0.384437211073E+03   -0.63603E+00   -0.44404E+00  8320   0.463E+02 0.322E+02
CGA:  12    -0.384848095393E+03   -0.41088E+00   -0.36186E+00  8320   0.144E+02 0.717E+01
CGA:  13    -0.384959436340E+03   -0.11134E+00   -0.11699E+00  8320   0.938E+01-0.762E+00
CGA:  14    -0.385041646862E+03   -0.82211E-01   -0.88609E-01  8320   0.108E+02-0.447E+00
CGA:  15    -0.385118999953E+03   -0.77353E-01   -0.67046E-01  8320   0.685E+01 0.124E+01
CGA:  16    -0.385171945966E+03   -0.52946E-01   -0.48883E-01  8320   0.633E+01 0.486E+00
CGA:  17    -0.385235670823E+03   -0.63725E-01   -0.64420E-01  8320   0.992E+01-0.707E-01
CGA:  18    -0.385300802853E+03   -0.65132E-01   -0.71266E-01  8320   0.811E+01-0.642E+00
CGA:  19    -0.385345814876E+03   -0.45012E-01   -0.53842E-01  8320   0.671E+01-0.930E+00
CGA:  20    -0.385403623465E+03   -0.57809E-01   -0.60670E-01  8320   0.856E+01-0.149E+00
CGA:  21    -0.385474912595E+03   -0.71289E-01   -0.68961E-01  8320   0.506E+01 0.164E+00
CGA:  22    -0.385507753143E+03   -0.32841E-01   -0.30812E-01  8320   0.265E+01 0.260E+00
CGA:  23    -0.385529890086E+03   -0.22137E-01   -0.21325E-01  8320   0.243E+01 0.676E-01
CGA:  24    -0.385547576278E+03   -0.17686E-01   -0.18320E-01  8320   0.148E+01-0.558E-01
CGA:  25    -0.385555566849E+03   -0.79906E-02   -0.84880E-02  8320   0.667E+00-0.635E-01
CGA:  26    -0.385560975615E+03   -0.54088E-02   -0.55207E-02  8320   0.760E+00-0.603E-02
CGA:  27    -0.385570089712E+03   -0.91141E-02   -0.90882E-02  8320   0.101E+01-0.539E-03
CGA:  28    -0.385578822081E+03   -0.87324E-02   -0.85725E-02  8320   0.913E+00 0.890E-02
CGA:  29    -0.385587581686E+03   -0.87596E-02   -0.88808E-02  8320   0.108E+01-0.196E-02
CGA:  30    -0.385598447706E+03   -0.10866E-01   -0.11341E-01  8320   0.991E+00 0.605E-02
CGA:  31    -0.385608471009E+03   -0.10023E-01   -0.10292E-01  8320   0.833E+00 0.228E-02
SDA:  32    -0.385619407199E+03   -0.10936E-01   -0.10940E-01  8320   0.632E+00 0.740E-03
CGA:  33    -0.385625425272E+03   -0.60181E-02   -0.59497E-02  8320   0.968E-01 0.961E-03
CGA:  34    -0.385627656626E+03   -0.22314E-02   -0.22295E-02  8320   0.678E-01 0.180E-03
CGA:  35    -0.385631645520E+03   -0.39889E-02   -0.39299E-02  8320   0.788E-01 0.167E-02
CGA:  36    -0.385637719023E+03   -0.60735E-02   -0.60986E-02  8320   0.217E+00-0.530E-03
CGA:  37    -0.385640632480E+03   -0.29135E-02   -0.29311E-02  8320   0.484E-01-0.220E-05
CGA:  38    -0.385641554588E+03   -0.92211E-03   -0.92230E-03  8320   0.188E-01 0.107E-03
CGA:  39    -0.385642672510E+03   -0.11179E-02   -0.11171E-02  8320   0.228E-01 0.217E-04
CGA:  40    -0.385643517307E+03   -0.84480E-03   -0.84079E-03  8320   0.552E-01 0.234E-03
CGA:  41    -0.385644850484E+03   -0.13332E-02   -0.13333E-02  8320   0.186E-01-0.679E-04
CGA:  42    -0.385645724621E+03   -0.87414E-03   -0.86491E-03  8320   0.884E-02 0.380E-03
CGA:  43    -0.385645998069E+03   -0.27345E-03   -0.27355E-03  8320   0.933E-02-0.109E-04
CGA:  44    -0.385646500763E+03   -0.50269E-03   -0.49939E-03  8320   0.341E-01 0.115E-03
CGA:  45    -0.385647366847E+03   -0.86608E-03   -0.86608E-03  8320   0.719E-02 0.422E-04
CGA:  46    -0.385647678061E+03   -0.31121E-03   -0.31051E-03  8320   0.595E-02 0.361E-04
CGA:  47    -0.385647829726E+03   -0.15166E-03   -0.15166E-03  8320   0.621E-02-0.369E-05
CGA:  48    -0.385647993702E+03   -0.16398E-03   -0.16398E-03  8320   0.710E-02 0.504E-05
CGA:  49    -0.385648337754E+03   -0.34405E-03   -0.34444E-03  8320   0.700E-02-0.190E-04
CGA:  50    -0.385648636568E+03   -0.29881E-03   -0.29860E-03  8320   0.519E-02 0.833E-05
CGA:  51    -0.385648702853E+03   -0.66285E-04   -0.66040E-04  8320   0.184E-02 0.626E-05
CGA:  52    -0.385648805102E+03   -0.10225E-03   -0.10210E-03  8320   0.248E-02 0.425E-05
CGA:  53    -0.385648921499E+03   -0.11640E-03   -0.11649E-03  8320   0.401E-02-0.538E-05
CGA:  54    -0.385649033232E+03   -0.11173E-03   -0.11175E-03  8320   0.432E-02 0.576E-05
CGA:  55    -0.385649109912E+03   -0.76680E-04   -0.76621E-04  8320   0.844E-03 0.574E-05
CGA:  56    -0.385649157437E+03   -0.47525E-04   -0.47401E-04  8320   0.114E-02 0.407E-05
CGA:  57    -0.385649196694E+03   -0.39257E-04   -0.39249E-04  8320   0.241E-02 0.254E-05
CGA:  58    -0.385649272428E+03   -0.75734E-04   -0.75728E-04  8320   0.163E-02 0.695E-05
CGA:  59    -0.385649317761E+03   -0.45333E-04   -0.45319E-04  8320   0.805E-03-0.286E-05
CGA:  60    -0.385649354051E+03   -0.36291E-04   -0.36335E-04  8320   0.893E-03-0.339E-05
CGA:  61    -0.385649367046E+03   -0.12995E-04   -0.12948E-04  8320   0.460E-03-0.133E-05
CGA:  62    -0.385649418613E+03   -0.51567E-04   -0.53026E-04  8320   0.109E-02-0.174E-04
SDA:  63    -0.385649443734E+03   -0.25121E-04   -0.25019E-04  8320   0.615E-03-0.853E-05
CGA:  64    -0.385649451598E+03   -0.78633E-05   -0.78736E-05  8320   0.318E-03-0.869E-06
CGA:  65    -0.385649461791E+03   -0.10194E-04   -0.10194E-04  8320   0.142E-03-0.124E-06
CGA:  66    -0.385649472662E+03   -0.10870E-04   -0.10836E-04  8320   0.399E-03 0.649E-06
CGA:  67    -0.385649492003E+03   -0.19342E-04   -0.19301E-04  8320   0.157E-03 0.303E-05
CGA:  68    -0.385649500764E+03   -0.87610E-05   -0.87671E-05  8320   0.931E-04-0.431E-06
   7 F= -.38564950E+03 E0= -.38561740E+03  d E =-.186761E+00  mag=     9.7260
       N       E                     dE             d eps       ncg     rms          ort
SDA:   1    -0.367704024068E+03    0.17945E+02    0.00000E+00  8320   0.616E+02 0.000E+00
CGA:   2    -0.370539395233E+03   -0.28354E+01   -0.28946E+01  8320   0.131E+03-0.400E+01
CGA:   3    -0.380864842680E+03   -0.10325E+02   -0.10277E+02  8320   0.744E+02-0.529E+01
CGA:   4    -0.381981147451E+03   -0.11163E+01   -0.76703E+00  8320   0.349E+02 0.182E+02
CGA:   5    -0.382620874737E+03   -0.63973E+00   -0.64640E+00  8320   0.524E+02-0.186E+01
CGA:   6    -0.383068574481E+03   -0.44770E+00   -0.45511E+00  8320   0.382E+02-0.221E+00
CGA:   7    -0.383385149883E+03   -0.31658E+00   -0.36865E+00  8320   0.422E+02-0.472E+01
CGA:   8    -0.383988507917E+03   -0.60336E+00   -0.72114E+00  8320   0.724E+02-0.258E+01
CGA:   9    -0.384597260521E+03   -0.60875E+00   -0.61735E+00  8320   0.330E+02-0.116E+01
CGA:  10    -0.384921508920E+03   -0.32425E+00   -0.26837E+00  8320   0.240E+02 0.484E+01
CGA:  11    -0.385155168152E+03   -0.23366E+00   -0.20409E+00  8320   0.121E+02 0.300E+01
CGA:  12    -0.385238011566E+03   -0.82843E-01   -0.93595E-01  8320   0.569E+01-0.146E+01
CGA:  13    -0.385294860326E+03   -0.56849E-01   -0.53601E-01  8320   0.716E+01 0.291E+00
CGA:  14    -0.385350320346E+03   -0.55460E-01   -0.39072E-01  8320   0.429E+01 0.291E+01
CGA:  15    -0.385387410521E+03   -0.37090E-01   -0.32908E-01  8320   0.219E+01 0.660E+00
CGA:  16    -0.385413619533E+03   -0.26209E-01   -0.26021E-01  8320   0.415E+01 0.776E-02
CGA:  17    -0.385453204446E+03   -0.39585E-01   -0.41483E-01  8320   0.719E+01-0.130E+00
CGA:  18    -0.385504827401E+03   -0.51623E-01   -0.62114E-01  8320   0.721E+01-0.743E+00
CGA:  19    -0.385556184600E+03   -0.51357E-01   -0.54735E-01  8320   0.574E+01-0.267E+00
CGA:  20    -0.385597256980E+03   -0.41072E-01   -0.39967E-01  8320   0.323E+01 0.104E+00
CGA:  21    -0.385619641539E+03   -0.22385E-01   -0.22365E-01  8320   0.193E+01 0.161E-02
CGA:  22    -0.385635856637E+03   -0.16215E-01   -0.16634E-01  8320   0.169E+01-0.282E-01
CGA:  23    -0.385648908808E+03   -0.13052E-01   -0.13745E-01  8320   0.853E+00-0.529E-01
CGA:  24    -0.385654438435E+03   -0.55296E-02   -0.56708E-02  8320   0.425E+00-0.155E-01
CGA:  25    -0.385659183997E+03   -0.47456E-02   -0.47682E-02  8320   0.554E+00-0.510E-03
CGA:  26    -0.385666249856E+03   -0.70659E-02   -0.70110E-02  8320   0.670E+00 0.505E-03
CGA:  27    -0.385673618172E+03   -0.73683E-02   -0.72863E-02  8320   0.768E+00 0.267E-02
CGA:  28    -0.385682414958E+03   -0.87968E-02   -0.89129E-02  8320   0.857E+00-0.112E-02
CGA:  29    -0.385691202378E+03   -0.87874E-02   -0.91687E-02  8320   0.760E+00-0.781E-02
CGA:  30    -0.385701742334E+03   -0.10540E-01   -0.10664E-01  8320   0.799E+00 0.882E-02
CGA:  31    -0.385709504375E+03   -0.77620E-02   -0.77163E-02  8320   0.258E+00 0.207E-02
SDA:  32    -0.385711910805E+03   -0.24064E-02   -0.24012E-02  8320   0.166E+00 0.272E-03
CGA:  33    -0.385715466220E+03   -0.35554E-02   -0.35364E-02  8320   0.128E+00 0.304E-02
CGA:  34    -0.385718007481E+03   -0.25413E-02   -0.25446E-02  8320   0.821E-01-0.904E-03
CGA:  35    -0.385722817133E+03   -0.48097E-02   -0.48000E-02  8320   0.122E+00 0.313E-03
CGA:  36    -0.385726400544E+03   -0.35834E-02   -0.35831E-02  8320   0.464E-01-0.103E-04
CGA:  37    -0.385727213548E+03   -0.81300E-03   -0.81365E-03  8320   0.331E-01 0.781E-04
CGA:  38    -0.385728159440E+03   -0.94589E-03   -0.94669E-03  8320   0.133E-01-0.831E-04
CGA:  39    -0.385729543703E+03   -0.13843E-02   -0.87581E-05  8320   0.770E-01-0.259E-02
CGA:  40    -0.385730296174E+03   -0.75247E-03   -0.74571E-03  8320   0.249E-01 0.434E-03
CGA:  41    -0.385731026819E+03   -0.73064E-03   -0.73032E-03  8320   0.553E-01-0.103E-04
CGA:  42    -0.385731860049E+03   -0.83323E-03   -0.83892E-03  8320   0.123E-01-0.211E-03
CGA:  43    -0.385732017754E+03   -0.15771E-03   -0.15849E-03  8320   0.865E-02-0.365E-04
CGA:  44    -0.385732201787E+03   -0.18403E-03   -0.18428E-03  8320   0.917E-02 0.633E-05
CGA:  45    -0.385732486315E+03   -0.28453E-03   -0.28449E-03  8320   0.224E-01-0.357E-05
CGA:  46    -0.385732924666E+03   -0.43835E-03   -0.43953E-03  8320   0.164E-01 0.896E-05
CGA:  47    -0.385733306752E+03   -0.38209E-03   -0.38300E-03  8320   0.231E-01 0.262E-04
CGA:  48    -0.385733614143E+03   -0.30739E-03   -0.30714E-03  8320   0.496E-02 0.340E-04
CGA:  49    -0.385733704205E+03   -0.90061E-04   -0.89982E-04  8320   0.687E-02 0.417E-05
CGA:  50    -0.385733867616E+03   -0.16341E-03   -0.16350E-03  8320   0.396E-02 0.548E-05
CGA:  51    -0.385733940112E+03   -0.72496E-04   -0.72603E-04  8320   0.600E-02-0.401E-05
CGA:  52    -0.385734186139E+03   -0.24603E-03   -0.24615E-03  8320   0.800E-02-0.110E-04
CGA:  53    -0.385734298837E+03   -0.11270E-03   -0.11228E-03  8320   0.510E-02 0.128E-04
CGA:  54    -0.385734395008E+03   -0.96172E-04   -0.96292E-04  8320   0.310E-02-0.176E-05
CGA:  55    -0.385734461748E+03   -0.66740E-04   -0.66809E-04  8320   0.366E-02-0.127E-05
CGA:  56    -0.385734516283E+03   -0.54535E-04   -0.54504E-04  8320   0.129E-02-0.519E-05
CGA:  57    -0.385734562985E+03   -0.46702E-04   -0.46755E-04  8320   0.491E-02-0.647E-05
CGA:  58    -0.385734729533E+03   -0.16655E-03   -0.16666E-03  8320   0.278E-02-0.179E-04
CGA:  59    -0.385734760532E+03   -0.30999E-04   -0.31031E-04  8320   0.153E-02-0.770E-05
CGA:  60    -0.385734806108E+03   -0.45576E-04   -0.45581E-04  8320   0.132E-02-0.208E-05
CGA:  61    -0.385734823421E+03   -0.17312E-04   -0.17299E-04  8320   0.896E-03 0.265E-06
CGA:  62    -0.385734850791E+03   -0.27371E-04   -0.27373E-04  8320   0.110E-02-0.867E-06
SDA:  63    -0.385734871637E+03   -0.20845E-04   -0.20851E-04  8320   0.127E-02-0.120E-05
CGA:  64    -0.385734888315E+03   -0.16679E-04   -0.16666E-04  8320   0.551E-03 0.363E-06
CGA:  65    -0.385734903696E+03   -0.15381E-04   -0.15380E-04  8320   0.389E-03-0.194E-06
CGA:  66    -0.385734918418E+03   -0.14721E-04   -0.14710E-04  8320   0.344E-03 0.783E-06
CGA:  67    -0.385734949344E+03   -0.30927E-04   -0.30733E-04  8320   0.453E-03 0.294E-05
CGA:  68    -0.385734976830E+03   -0.27486E-04   -0.27348E-04  8320   0.232E-03 0.438E-05
CGA:  69    -0.385734982978E+03   -0.61475E-05   -0.61468E-05  8320   0.168E-03-0.438E-06
   8 F= -.38573498E+03 E0= -.38570398E+03  d E =-.854822E-01  mag=     9.4618
       N       E                     dE             d eps       ncg     rms          ort
SDA:   1    -0.366845009451E+03    0.18890E+02    0.00000E+00  8320   0.835E+02 0.000E+00
CGA:   2    -0.368962901469E+03   -0.21179E+01   -0.18974E+01  8320   0.136E+03-0.588E+01
CGA:   3    -0.376735919615E+03   -0.77730E+01   -0.71626E+01  8320   0.143E+03 0.217E+02
CGA:   4    -0.380785001541E+03   -0.40491E+01   -0.37815E+01  8320   0.818E+02-0.126E+02
CGA:   5    -0.381638634598E+03   -0.85363E+00   -0.10251E+01  8320   0.485E+02-0.171E+02
CGA:   6    -0.382186867519E+03   -0.54823E+00   -0.45415E+00  8320   0.563E+02 0.507E+01
CGA:   7    -0.383049447731E+03   -0.86258E+00   -0.91222E+00  8320   0.395E+02-0.530E+01
CGA:   8    -0.383460896049E+03   -0.41145E+00   -0.52416E+00  8320   0.428E+02-0.363E+01
CGA:   9    -0.384684485670E+03   -0.12236E+01   -0.12440E+01  8320   0.309E+02-0.311E+01
CGA:  10    -0.385010211808E+03   -0.32573E+00   -0.27004E+00  8320   0.123E+02 0.427E+01
CGA:  11    -0.385181481754E+03   -0.17127E+00   -0.16417E+00  8320   0.834E+01 0.264E+00
CGA:  12    -0.385257743713E+03   -0.76262E-01   -0.81414E-01  8320   0.410E+01-0.463E+00
CGA:  13    -0.385327009848E+03   -0.69266E-01   -0.70822E-01  8320   0.764E+01 0.174E-01
CGA:  14    -0.385463198130E+03   -0.13619E+00   -0.13689E+00  8320   0.519E+01-0.801E-02
CGA:  15    -0.385534714892E+03   -0.71517E-01   -0.69671E-01  8320   0.499E+01 0.561E-01
CGA:  16    -0.385619166111E+03   -0.84451E-01   -0.84650E-01  8320   0.296E+01-0.452E-02
CGA:  17    -0.385644988428E+03   -0.25822E-01   -0.27096E-01  8320   0.118E+01-0.981E-01
CGA:  18    -0.385665147006E+03   -0.20159E-01   -0.20255E-01  8320   0.941E+00 0.277E-02
CGA:  19    -0.385675782352E+03   -0.10635E-01   -0.10571E-01  8320   0.529E+00 0.273E-02
CGA:  20    -0.385689704147E+03   -0.13922E-01   -0.13924E-01  8320   0.972E+00-0.433E-03
CGA:  21    -0.385702554722E+03   -0.12851E-01   -0.12956E-01  8320   0.576E+00-0.266E-02
CGA:  22    -0.385716149697E+03   -0.13595E-01   -0.13579E-01  8320   0.938E+00 0.628E-02
CGA:  23    -0.385728875413E+03   -0.12726E-01   -0.12665E-01  8320   0.357E+00 0.727E-03
CGA:  24    -0.385734843058E+03   -0.59676E-02   -0.59618E-02  8320   0.355E+00-0.188E-03
CGA:  25    -0.385739603640E+03   -0.47606E-02   -0.47758E-02  8320   0.146E+00-0.181E-03
CGA:  26    -0.385742365229E+03   -0.27616E-02   -0.27649E-02  8320   0.219E+00 0.568E-03
CGA:  27    -0.385746850431E+03   -0.44852E-02   -0.44862E-02  8320   0.159E+00 0.687E-03
CGA:  28    -0.385749820606E+03   -0.29702E-02   -0.29674E-02  8320   0.245E+00-0.371E-03
CGA:  29    -0.385755716689E+03   -0.58961E-02   -0.58921E-02  8320   0.217E+00 0.850E-03
CGA:  30    -0.385758744410E+03   -0.30277E-02   -0.30483E-02  8320   0.177E+00 0.124E-04
CGA:  31    -0.385761944160E+03   -0.31998E-02   -0.32020E-02  8320   0.864E-01 0.320E-03
SDA:  32    -0.385763091907E+03   -0.11477E-02   -0.11432E-02  8320   0.751E-01 0.463E-04
CGA:  33    -0.385764078028E+03   -0.98612E-03   -0.98807E-03  8320   0.326E-01-0.191E-04
CGA:  34    -0.385765274867E+03   -0.11968E-02   -0.12001E-02  8320   0.628E-01-0.184E-03
CGA:  35    -0.385769889244E+03   -0.46144E-02   -0.46013E-02  8320   0.478E-01 0.308E-03
CGA:  36    -0.385771899250E+03   -0.20100E-02   -0.20023E-02  8320   0.165E-01 0.394E-03
CGA:  37    -0.385772953380E+03   -0.10541E-02   -0.10504E-02  8320   0.286E-01 0.108E-03
CGA:  38    -0.385774098789E+03   -0.11454E-02   -0.11464E-02  8320   0.367E-01-0.582E-04
CGA:  39    -0.385774761544E+03   -0.66275E-03   -0.66381E-03  8320   0.254E-01 0.131E-04
CGA:  40    -0.385776097677E+03   -0.13361E-02   -0.13367E-02  8320   0.110E-01-0.204E-04
CGA:  41    -0.385776727090E+03   -0.62941E-03   -0.62657E-03  8320   0.176E-01 0.971E-04
CGA:  42    -0.385777350133E+03   -0.62304E-03   -0.62358E-03  8320   0.157E-01-0.565E-04
CGA:  43    -0.385777698681E+03   -0.34855E-03   -0.34886E-03  8320   0.187E-01 0.102E-04
CGA:  44    -0.385778495896E+03   -0.79722E-03   -0.79711E-03  8320   0.515E-02 0.650E-05
CGA:  45    -0.385778748178E+03   -0.25228E-03   -0.25192E-03  8320   0.416E-02 0.170E-04
CGA:  46    -0.385778924803E+03   -0.17663E-03   -0.17673E-03  8320   0.130E-01-0.657E-05
CGA:  47    -0.385779385439E+03   -0.46064E-03   -0.46025E-03  8320   0.580E-02 0.595E-04
CGA:  48    -0.385779517562E+03   -0.13212E-03   -0.13197E-03  8320   0.100E-02 0.104E-05
CGA:  49    -0.385779629894E+03   -0.11233E-03   -0.11230E-03  8320   0.134E-02-0.124E-06
CGA:  50    -0.385779702748E+03   -0.72854E-04   -0.73033E-04  8320   0.428E-02-0.799E-05
CGA:  51    -0.385779792889E+03   -0.90141E-04   -0.90582E-04  8320   0.168E-02-0.579E-05
CGA:  52    -0.385779845624E+03   -0.52735E-04   -0.52768E-04  8320   0.106E-02 0.269E-05
CGA:  53    -0.385779903285E+03   -0.57661E-04   -0.57850E-04  8320   0.101E-02-0.861E-05
CGA:  54    -0.385779985246E+03   -0.81961E-04   -0.80689E-04  8320   0.389E-02 0.299E-04
CGA:  55    -0.385780069970E+03   -0.84724E-04   -0.83456E-04  8320   0.258E-02 0.208E-04
CGA:  56    -0.385780151782E+03   -0.81812E-04   -0.81686E-04  8320   0.153E-02-0.958E-05
CGA:  57    -0.385780226387E+03   -0.74605E-04   -0.74504E-04  8320   0.108E-02 0.594E-05
CGA:  58    -0.385780265494E+03   -0.39107E-04   -0.39133E-04  8320   0.254E-02 0.709E-05
CGA:  59    -0.385780350594E+03   -0.85100E-04   -0.84528E-04  8320   0.206E-02-0.413E-04
CGA:  60    -0.385780582717E+03   -0.23212E-03   -0.21202E-03  8320   0.120E-02 0.294E-03
CGA:  61    -0.385780623598E+03   -0.40881E-04   -0.40629E-04  8320   0.219E-02-0.948E-06
CGA:  62    -0.385780683452E+03   -0.59854E-04   -0.60423E-04  8320   0.195E-02 0.660E-05
SDA:  63    -0.385780780702E+03   -0.97250E-04   -0.96252E-04  8320   0.371E-02 0.721E-04
CGA:  64    -0.385780836934E+03   -0.56231E-04   -0.56176E-04  8320   0.192E-02 0.211E-05
CGA:  65    -0.385780879036E+03   -0.42102E-04   -0.42164E-04  8320   0.819E-03-0.980E-06
CGA:  66    -0.385780912404E+03   -0.33369E-04   -0.33366E-04  8320   0.857E-03 0.132E-05
CGA:  67    -0.385781073890E+03   -0.16149E-03   -0.15946E-03  8320   0.105E-02 0.143E-04
CGA:  68    -0.385781101150E+03   -0.27260E-04   -0.27321E-04  8320   0.138E-02 0.115E-05
CGA:  69    -0.385781134795E+03   -0.33645E-04   -0.33547E-04  8320   0.679E-03 0.575E-05
CGA:  70    -0.385781163336E+03   -0.28541E-04   -0.28567E-04  8320   0.773E-03 0.962E-05
CGA:  71    -0.385781296960E+03   -0.13362E-03   -0.13800E-03  8320   0.246E-02-0.535E-04
CGA:  72    -0.385781369402E+03   -0.72442E-04   -0.71249E-04  8320   0.336E-02 0.235E-04
CGA:  73    -0.385781432218E+03   -0.62816E-04   -0.69538E-04  8320   0.103E-02-0.182E-03
CGA:  74    -0.385781501491E+03   -0.69273E-04   -0.69997E-04  8320   0.254E-02-0.256E-04
CGA:  75    -0.385781551359E+03   -0.49867E-04   -0.51531E-04  8320   0.186E-02-0.410E-04
CGA:  76    -0.385781660256E+03   -0.10890E-03   -0.11616E-03  8320   0.357E-02-0.353E-03
CGA:  77    -0.385781715758E+03   -0.55502E-04   -0.58049E-04  8320   0.214E-02-0.455E-04
CGA:  78    -0.385781791258E+03   -0.75500E-04   -0.78338E-04  8320   0.107E-02 0.736E-04
CGA:  79    -0.385781827492E+03   -0.36234E-04   -0.35876E-04  8320   0.104E-02-0.196E-05
CGA:  80    -0.385781852828E+03   -0.25335E-04   -0.25602E-04  8320   0.151E-02-0.470E-05
CGA:  81    -0.385781933001E+03   -0.80173E-04   -0.81965E-04  8320   0.160E-02-0.128E-03
CGA:  82    -0.385781988671E+03   -0.55670E-04   -0.56003E-04  8320   0.648E-03 0.181E-04
CGA:  83    -0.385782005242E+03   -0.16571E-04   -0.16799E-04  8320   0.762E-03-0.272E-05
CGA:  84    -0.385782023971E+03   -0.18729E-04   -0.18648E-04  8320   0.602E-03 0.117E-05
CGA:  85    -0.385782071609E+03   -0.47638E-04   -0.48104E-04  8320   0.115E-02-0.131E-04
CGA:  86    -0.385782117154E+03   -0.45545E-04   -0.45541E-04  8320   0.706E-03-0.370E-09
CGA:  87    -0.385782144397E+03   -0.27242E-04   -0.27253E-04  8320   0.783E-03 0.682E-06
CGA:  88    -0.385782159695E+03   -0.15299E-04   -0.15448E-04  8320   0.544E-03-0.516E-05
CGA:  89    -0.385782177598E+03   -0.17902E-04   -0.17824E-04  8320   0.454E-03-0.243E-05
CGA:  90    -0.385782206873E+03   -0.29275E-04   -0.29267E-04  8320   0.779E-03-0.595E-06
CGA:  91    -0.385782248559E+03   -0.41686E-04   -0.41665E-04  8320   0.811E-03-0.913E-06
CGA:  92    -0.385782267627E+03   -0.19068E-04   -0.19065E-04  8320   0.588E-03-0.341E-05
CGA:  93    -0.385782279070E+03   -0.11443E-04   -0.11299E-04  8320   0.314E-03 0.276E-05
SDA:  94    -0.385782300711E+03   -0.21641E-04   -0.21557E-04  8320   0.637E-03 0.259E-05
CGA:  95    -0.385782322040E+03   -0.21330E-04   -0.21329E-04  8320   0.292E-03 0.346E-06
CGA:  96    -0.385782329945E+03   -0.79043E-05   -0.79201E-05  8320   0.457E-03 0.766E-06
CGA:  97    -0.385782349534E+03   -0.19589E-04   -0.19587E-04  8320   0.767E-03 0.223E-05
CGA:  98    -0.385782387778E+03   -0.38245E-04   -0.38194E-04  8320   0.342E-03 0.566E-05
CGA:  99    -0.385782409102E+03   -0.21323E-04   -0.21291E-04  8320   0.220E-03 0.159E-05
CGA: 100    -0.385782420082E+03   -0.10980E-04   -0.10985E-04  8320   0.660E-03-0.573E-06
CGA: 101    -0.385782435599E+03   -0.15517E-04   -0.15551E-04  8320   0.333E-03-0.956E-06
CGA: 102    -0.385782460062E+03   -0.24463E-04   -0.24326E-04  8320   0.378E-03 0.399E-05
CGA: 103    -0.385782474897E+03   -0.14835E-04   -0.14801E-04  8320   0.169E-03-0.248E-05
CGA: 104    -0.385782478659E+03   -0.37620E-05   -0.37548E-05  8320   0.211E-03-0.768E-06
   9 F= -.38578248E+03 E0= -.38575436E+03  d E =-.474957E-01  mag=     9.4106
       N       E                     dE             d eps       ncg     rms          ort
SDA:   1    -0.384355315330E+03    0.14272E+01    0.00000E+00  8320   0.565E+01 0.000E+00
CGA:   2    -0.384606493459E+03   -0.25118E+00   -0.25265E+00  8320   0.187E+02-0.401E+00
CGA:   3    -0.385062744157E+03   -0.45625E+00   -0.46281E+00  8320   0.116E+02-0.410E-01
CGA:   4    -0.385357623418E+03   -0.29488E+00   -0.31942E+00  8320   0.962E+01 0.407E-02
CGA:   5    -0.385489588008E+03   -0.13196E+00   -0.11863E+00  8320   0.264E+01 0.791E+00
CGA:   6    -0.385562868147E+03   -0.73280E-01   -0.72274E-01  8320   0.250E+01 0.375E-02
CGA:   7    -0.385604592642E+03   -0.41724E-01   -0.42809E-01  8320   0.246E+01-0.456E-01
CGA:   8    -0.385707329683E+03   -0.10274E+00   -0.10272E+00  8320   0.254E+01 0.179E-02
CGA:   9    -0.385740482417E+03   -0.33153E-01   -0.32166E-01  8320   0.127E+01 0.525E-01
CGA:  10    -0.385773634923E+03   -0.33153E-01   -0.33434E-01  8320   0.650E+00 0.259E-02
CGA:  11    -0.385781711345E+03   -0.80764E-02   -0.83495E-02  8320   0.328E+00-0.156E-01
CGA:  12    -0.385789258108E+03   -0.75468E-02   -0.75592E-02  8320   0.179E+00 0.666E-04
CGA:  13    -0.385794147295E+03   -0.48892E-02   -0.48676E-02  8320   0.341E+00-0.668E-03
CGA:  14    -0.385802275722E+03   -0.81284E-02   -0.81335E-02  8320   0.149E+00 0.304E-04
CGA:  15    -0.385805915922E+03   -0.36402E-02   -0.36639E-02  8320   0.216E+00 0.273E-03
CGA:  16    -0.385809587949E+03   -0.36720E-02   -0.36533E-02  8320   0.352E-01 0.523E-03
CGA:  17    -0.385810251010E+03   -0.66306E-03   -0.65752E-03  8320   0.318E-01 0.960E-04
CGA:  18    -0.385810914059E+03   -0.66305E-03   -0.66430E-03  8320   0.260E-01-0.140E-05
CGA:  19    -0.385812115650E+03   -0.12016E-02   -0.12002E-02  8320   0.511E-01 0.766E-04
CGA:  20    -0.385812870005E+03   -0.75436E-03   -0.75298E-03  8320   0.259E-01 0.506E-04
CGA:  21    -0.385813734281E+03   -0.86428E-03   -0.86420E-03  8320   0.194E-01 0.226E-04
CGA:  22    -0.385813981153E+03   -0.24687E-03   -0.24777E-03  8320   0.102E-01-0.443E-04
CGA:  23    -0.385814382734E+03   -0.40158E-03   -0.40153E-03  8320   0.873E-02 0.404E-05
CGA:  24    -0.385814515178E+03   -0.13244E-03   -0.13206E-03  8320   0.749E-02 0.134E-04
CGA:  25    -0.385814932745E+03   -0.41757E-03   -0.41723E-03  8320   0.150E-01 0.129E-04
CGA:  26    -0.385815240646E+03   -0.30790E-03   -0.30869E-03  8320   0.142E-01-0.218E-05
CGA:  27    -0.385815489427E+03   -0.24878E-03   -0.24887E-03  8320   0.394E-02-0.107E-05
CGA:  28    -0.385815598400E+03   -0.10897E-03   -0.10895E-03  8320   0.637E-02-0.123E-05
CGA:  29    -0.385815720670E+03   -0.12227E-03   -0.12253E-03  8320   0.334E-02 0.719E-05
CGA:  30    -0.385815891947E+03   -0.17128E-03   -0.17060E-03  8320   0.102E-01 0.292E-04
CGA:  31    -0.385816070425E+03   -0.17848E-03   -0.17853E-03  8320   0.442E-02 0.145E-04
SDA:  32    -0.385816189405E+03   -0.11898E-03   -0.11900E-03  8320   0.251E-02 0.785E-05
CGA:  33    -0.385816221049E+03   -0.31645E-04   -0.31687E-04  8320   0.117E-02-0.388E-05
CGA:  34    -0.385816283912E+03   -0.62862E-04   -0.62982E-04  8320   0.104E-02-0.488E-05
CGA:  35    -0.385816342155E+03   -0.58244E-04   -0.58274E-04  8320   0.137E-02-0.128E-05
CGA:  36    -0.385816404638E+03   -0.62483E-04   -0.62534E-04  8320   0.969E-03-0.356E-05
CGA:  37    -0.385816423285E+03   -0.18647E-04   -0.18656E-04  8320   0.789E-03-0.506E-06
CGA:  38    -0.385816446501E+03   -0.23216E-04   -0.23217E-04  8320   0.327E-03 0.136E-05
CGA:  39    -0.385816474791E+03   -0.28290E-04   -0.28033E-04  8320   0.459E-03 0.461E-05
CGA:  40    -0.385816494686E+03   -0.19896E-04   -0.19859E-04  8320   0.676E-03 0.413E-05
CGA:  41    -0.385816505538E+03   -0.10852E-04   -0.10907E-04  8320   0.214E-03 0.151E-05
CGA:  42    -0.385816516203E+03   -0.10664E-04   -0.10644E-04  8320   0.185E-03 0.126E-05
CGA:  43    -0.385816535650E+03   -0.19448E-04   -0.19275E-04  8320   0.488E-03 0.249E-05
CGA:  44    -0.385816543506E+03   -0.78555E-05   -0.78621E-05  8320   0.278E-03 0.118E-05
CGA:  45    -0.385816564193E+03   -0.20688E-04   -0.20609E-04  8320   0.118E-03 0.210E-05
CGA:  46    -0.385816569214E+03   -0.50206E-05   -0.50222E-05  8320   0.246E-03-0.453E-06
  10 F= -.38581657E+03 E0= -.38578863E+03  d E =-.340906E-01  mag=     9.4244
       N       E                     dE             d eps       ncg     rms          ort
SDA:   1    -0.385676222516E+03    0.14034E+00    0.00000E+00  8320   0.262E+01 0.000E+00
CGA:   2    -0.385701710803E+03   -0.25488E-01   -0.30096E-01  8320   0.749E+00-0.319E+00
CGA:   3    -0.385725683013E+03   -0.23972E-01   -0.23971E-01  8320   0.746E+00-0.166E-02
CGA:   4    -0.385759538309E+03   -0.33855E-01   -0.33804E-01  8320   0.111E+01 0.417E-02
CGA:   5    -0.385785535844E+03   -0.25998E-01   -0.25425E-01  8320   0.727E+00 0.479E-02
CGA:   6    -0.385804009935E+03   -0.18474E-01   -0.18634E-01  8320   0.147E+00 0.102E-02
CGA:   7    -0.385807614851E+03   -0.36049E-02   -0.35779E-02  8320   0.169E+00-0.425E-04
CGA:   8    -0.385813440376E+03   -0.58255E-02   -0.58251E-02  8320   0.115E+00-0.204E-03
CGA:   9    -0.385817741392E+03   -0.43010E-02   -0.43011E-02  8320   0.106E+00-0.155E-04
CGA:  10    -0.385819817448E+03   -0.20761E-02   -0.20915E-02  8320   0.519E-01-0.286E-03
CGA:  11    -0.385820948715E+03   -0.11313E-02   -0.11236E-02  8320   0.115E-01 0.656E-04
CGA:  12    -0.385821349320E+03   -0.40061E-03   -0.40055E-03  8320   0.163E-01 0.409E-04
CGA:  13    -0.385821707515E+03   -0.35820E-03   -0.35756E-03  8320   0.718E-02-0.449E-07
CGA:  14    -0.385822089844E+03   -0.38233E-03   -0.38219E-03  8320   0.110E-01 0.582E-05
CGA:  15    -0.385822311125E+03   -0.22128E-03   -0.22091E-03  8320   0.480E-02 0.548E-06
CGA:  16    -0.385822409021E+03   -0.97896E-04   -0.98069E-04  8320   0.131E-02-0.616E-05
CGA:  17    -0.385822462941E+03   -0.53919E-04   -0.53952E-04  8320   0.214E-02-0.315E-05
CGA:  18    -0.385822508071E+03   -0.45131E-04   -0.45130E-04  8320   0.980E-03-0.108E-05
CGA:  19    -0.385822563097E+03   -0.55025E-04   -0.55088E-04  8320   0.156E-02-0.260E-05
CGA:  20    -0.385822597888E+03   -0.34791E-04   -0.34801E-04  8320   0.103E-02-0.103E-05
CGA:  21    -0.385822623514E+03   -0.25626E-04   -0.25621E-04  8320   0.412E-03-0.191E-07
CGA:  22    -0.385822637645E+03   -0.14130E-04   -0.14130E-04  8320   0.406E-03-0.173E-06
CGA:  23    -0.385822646811E+03   -0.91660E-05   -0.91626E-05  8320   0.368E-03-0.157E-06
CGA:  24    -0.385822677673E+03   -0.30863E-04   -0.30794E-04  8320   0.627E-03 0.141E-05
CGA:  25    -0.385822689629E+03   -0.11956E-04   -0.11959E-04  8320   0.321E-03 0.554E-06
CGA:  26    -0.385822697502E+03   -0.78728E-05   -0.78832E-05  8320   0.165E-03 0.565E-06
  11 F= -.38582270E+03 E0= -.38579484E+03  d E =-.612829E-02  mag=     9.4324
       N       E                     dE             d eps       ncg     rms          ort
SDA:   1    -0.381588858992E+03    0.42338E+01    0.00000E+00  8320   0.215E+02 0.000E+00
CGA:   2    -0.381969299514E+03   -0.38044E+00   -0.33032E+00  8320   0.173E+02 0.169E+01
CGA:   3    -0.383413847841E+03   -0.14445E+01   -0.14780E+01  8320   0.493E+02-0.869E+00
CGA:   4    -0.384471368925E+03   -0.10575E+01   -0.11378E+01  8320   0.346E+02 0.140E+00
CGA:   5    -0.384942809923E+03   -0.47144E+00   -0.43429E+00  8320   0.869E+01 0.210E+01
CGA:   6    -0.385197051057E+03   -0.25424E+00   -0.25077E+00  8320   0.923E+01-0.116E+00
CGA:   7    -0.385317255725E+03   -0.12020E+00   -0.12511E+00  8320   0.383E+01-0.281E+00
CGA:   8    -0.385551193415E+03   -0.23394E+00   -0.23026E+00  8320   0.106E+02 0.124E+00
CGA:   9    -0.385698280976E+03   -0.14709E+00   -0.14020E+00  8320   0.232E+01 0.344E+00
CGA:  10    -0.385749919761E+03   -0.51639E-01   -0.52720E-01  8320   0.118E+01 0.355E-03
CGA:  11    -0.385768583078E+03   -0.18663E-01   -0.19536E-01  8320   0.665E+00-0.252E-01
CGA:  12    -0.385783961081E+03   -0.15378E-01   -0.15210E-01  8320   0.397E+00-0.264E-02
CGA:  13    -0.385811014520E+03   -0.27053E-01   -0.27544E-01  8320   0.762E+00-0.137E-01
CGA:  14    -0.385820932590E+03   -0.99181E-02   -0.10314E-01  8320   0.326E+00-0.181E-01
CGA:  15    -0.385833805357E+03   -0.12873E-01   -0.12849E-01  8320   0.936E-01 0.206E-02
CGA:  16    -0.385835392962E+03   -0.15876E-02   -0.15717E-02  8320   0.607E-01 0.436E-03
CGA:  17    -0.385837154730E+03   -0.17618E-02   -0.17632E-02  8320   0.742E-01 0.205E-03
CGA:  18    -0.385841746123E+03   -0.45914E-02   -0.45831E-02  8320   0.712E-01 0.261E-03
CGA:  19    -0.385843325583E+03   -0.15795E-02   -0.15786E-02  8320   0.601E-01-0.623E-05
CGA:  20    -0.385844371746E+03   -0.10462E-02   -0.10498E-02  8320   0.140E-01-0.914E-04
CGA:  21    -0.385845033256E+03   -0.66151E-03   -0.66036E-03  8320   0.110E-01 0.625E-04
CGA:  22    -0.385845277625E+03   -0.24437E-03   -0.24420E-03  8320   0.146E-01 0.383E-05
CGA:  23    -0.385845986397E+03   -0.70877E-03   -0.70755E-03  8320   0.153E-01 0.584E-04
CGA:  24    -0.385846486768E+03   -0.50037E-03   -0.50041E-03  8320   0.982E-02 0.548E-04
CGA:  25    -0.385846740726E+03   -0.25396E-03   -0.25381E-03  8320   0.114E-01-0.601E-07
CGA:  26    -0.385846963503E+03   -0.22278E-03   -0.22340E-03  8320   0.213E-02-0.409E-05
CGA:  27    -0.385847165735E+03   -0.20223E-03   -0.20098E-03  8320   0.895E-02 0.211E-04
CGA:  28    -0.385847341265E+03   -0.17553E-03   -0.17535E-03  8320   0.625E-02 0.114E-04
CGA:  29    -0.385847611933E+03   -0.27067E-03   -0.27049E-03  8320   0.286E-02 0.173E-04
CGA:  30    -0.385847686635E+03   -0.74701E-04   -0.74767E-04  8320   0.223E-02 0.188E-05
CGA:  31    -0.385847743194E+03   -0.56560E-04   -0.56554E-04  8320   0.300E-02-0.198E-06
SDA:  32    -0.385847873808E+03   -0.13061E-03   -0.13053E-03  8320   0.150E-02 0.751E-05
CGA:  33    -0.385847950732E+03   -0.76924E-04   -0.76889E-04  8320   0.121E-02 0.167E-05
CGA:  34    -0.385847974605E+03   -0.23872E-04   -0.23878E-04  8320   0.107E-02 0.136E-05
CGA:  35    -0.385848017545E+03   -0.42940E-04   -0.42914E-04  8320   0.117E-02 0.394E-05
CGA:  36    -0.385848092241E+03   -0.74696E-04   -0.74600E-04  8320   0.135E-02 0.304E-05
CGA:  37    -0.385848153597E+03   -0.61356E-04   -0.61322E-04  8320   0.512E-03 0.340E-05
CGA:  38    -0.385848175917E+03   -0.22320E-04   -0.22314E-04  8320   0.809E-03 0.488E-06
CGA:  39    -0.385848189570E+03   -0.13653E-04   -0.13640E-04  8320   0.351E-03 0.385E-06
CGA:  40    -0.385848230675E+03   -0.41105E-04   -0.41112E-04  8320   0.487E-03-0.286E-06
CGA:  41    -0.385848260689E+03   -0.30014E-04   -0.30000E-04  8320   0.321E-03 0.497E-06
CGA:  42    -0.385848270576E+03   -0.98874E-05   -0.98895E-05  8320   0.519E-03-0.665E-08
CGA:  43    -0.385848284199E+03   -0.13623E-04   -0.13650E-04  8320   0.277E-03 0.724E-06
CGA:  44    -0.385848304623E+03   -0.20424E-04   -0.20337E-04  8320   0.513E-03 0.237E-05
CGA:  45    -0.385848326985E+03   -0.22362E-04   -0.22360E-04  8320   0.133E-03 0.149E-05
CGA:  46    -0.385848335866E+03   -0.88813E-05   -0.88530E-05  8320   0.200E-03 0.972E-06
  12 F= -.38584834E+03 E0= -.38582150E+03  d E =-.256384E-01  mag=     9.5225
       N       E                     dE             d eps       ncg     rms          ort
SDA:   1    -0.379879543196E+03    0.59688E+01    0.00000E+00  8320   0.195E+02 0.000E+00
CGA:   2    -0.381051581702E+03   -0.11720E+01   -0.12332E+01  8320   0.108E+03-0.210E+01
CGA:   3    -0.383574780437E+03   -0.25232E+01   -0.25696E+01  8320   0.442E+02-0.519E+00
CGA:   4    -0.384232724641E+03   -0.65794E+00   -0.85716E+00  8320   0.270E+02-0.596E+01
CGA:   5    -0.384595071981E+03   -0.36235E+00   -0.31467E+00  8320   0.878E+01 0.262E+01
CGA:   6    -0.384781995354E+03   -0.18692E+00   -0.16760E+00  8320   0.116E+02 0.601E+00
CGA:   7    -0.385075631322E+03   -0.29364E+00   -0.30065E+00  8320   0.133E+02 0.753E-01
CGA:   8    -0.385335209233E+03   -0.25958E+00   -0.27445E+00  8320   0.174E+02-0.296E+00
CGA:   9    -0.385615179013E+03   -0.27997E+00   -0.26156E+00  8320   0.428E+01 0.887E+00
CGA:  10    -0.385665940353E+03   -0.50761E-01   -0.47860E-01  8320   0.242E+01 0.209E+00
CGA:  11    -0.385724369927E+03   -0.58430E-01   -0.56812E-01  8320   0.205E+01 0.155E-01
CGA:  12    -0.385743213527E+03   -0.18844E-01   -0.20131E-01  8320   0.672E+00-0.108E+00
CGA:  13    -0.385766400149E+03   -0.23187E-01   -0.23111E-01  8320   0.223E+01 0.127E-01
CGA:  14    -0.385817765371E+03   -0.51365E-01   -0.51362E-01  8320   0.639E+00 0.120E-05
CGA:  15    -0.385828098944E+03   -0.10334E-01   -0.10038E-01  8320   0.593E+00 0.980E-02
CGA:  16    -0.385842155458E+03   -0.14057E-01   -0.14067E-01  8320   0.237E+00 0.207E-03
CGA:  17    -0.385845049150E+03   -0.28937E-02   -0.29570E-02  8320   0.138E+00-0.342E-02
CGA:  18    -0.385848998746E+03   -0.39496E-02   -0.39511E-02  8320   0.123E+00 0.628E-03
CGA:  19    -0.385851584755E+03   -0.25860E-02   -0.25804E-02  8320   0.164E+00-0.372E-04
CGA:  20    -0.385856311065E+03   -0.47263E-02   -0.47277E-02  8320   0.149E+00 0.805E-03
CGA:  21    -0.385859916329E+03   -0.36053E-02   -0.36147E-02  8320   0.183E+00 0.448E-03
CGA:  22    -0.385862776321E+03   -0.28600E-02   -0.28740E-02  8320   0.347E-01-0.320E-03
CGA:  23    -0.385863541548E+03   -0.76523E-03   -0.76345E-03  8320   0.506E-01-0.648E-04
CGA:  24    -0.385864723945E+03   -0.11824E-02   -0.11824E-02  8320   0.236E-01 0.220E-04
CGA:  25    -0.385865388098E+03   -0.66415E-03   -0.66415E-03  8320   0.603E-01 0.983E-04
CGA:  26    -0.385868388438E+03   -0.30003E-02   -0.29926E-02  8320   0.472E-01 0.336E-03
CGA:  27    -0.385868953712E+03   -0.56527E-03   -0.56160E-03  8320   0.218E-01 0.227E-03
CGA:  28    -0.385869655185E+03   -0.70147E-03   -0.70221E-03  8320   0.190E-01-0.119E-03
CGA:  29    -0.385869990234E+03   -0.33505E-03   -0.33666E-03  8320   0.203E-01-0.180E-04
CGA:  30    -0.385870872748E+03   -0.88251E-03   -0.88242E-03  8320   0.321E-01 0.195E-05
CGA:  31    -0.385871623570E+03   -0.75082E-03   -0.74945E-03  8320   0.375E-01-0.984E-04
SDA:  32    -0.385872299488E+03   -0.67592E-03   -0.67602E-03  8320   0.119E-01-0.196E-04
CGA:  33    -0.385872642928E+03   -0.34344E-03   -0.34335E-03  8320   0.108E-01 0.585E-04
CGA:  34    -0.385872858057E+03   -0.21513E-03   -0.21483E-03  8320   0.616E-02-0.445E-05
CGA:  35    -0.385873120502E+03   -0.26244E-03   -0.26226E-03  8320   0.600E-02 0.121E-04
CGA:  36    -0.385873546525E+03   -0.42602E-03   -0.42509E-03  8320   0.541E-02 0.232E-04
CGA:  37    -0.385873881599E+03   -0.33507E-03   -0.33480E-03  8320   0.238E-02 0.809E-05
CGA:  38    -0.385873939416E+03   -0.57817E-04   -0.57786E-04  8320   0.321E-02-0.776E-06
CGA:  39    -0.385874066928E+03   -0.12751E-03   -0.12749E-03  8320   0.197E-02 0.115E-05
CGA:  40    -0.385874275640E+03   -0.20871E-03   -0.20941E-03  8320   0.193E-02-0.985E-05
CGA:  41    -0.385874353579E+03   -0.77939E-04   -0.77940E-04  8320   0.166E-02-0.992E-06
CGA:  42    -0.385874393174E+03   -0.39595E-04   -0.39576E-04  8320   0.165E-02-0.165E-05
CGA:  43    -0.385874451927E+03   -0.58753E-04   -0.58753E-04  8320   0.195E-02-0.815E-06
CGA:  44    -0.385874633954E+03   -0.18203E-03   -0.18200E-03  8320   0.909E-03-0.561E-06
CGA:  45    -0.385874671470E+03   -0.37516E-04   -0.37509E-04  8320   0.913E-03 0.154E-05
CGA:  46    -0.385874689437E+03   -0.17967E-04   -0.17962E-04  8320   0.757E-03 0.519E-06
CGA:  47    -0.385874746237E+03   -0.56800E-04   -0.56668E-04  8320   0.532E-03 0.329E-05
CGA:  48    -0.385874790568E+03   -0.44330E-04   -0.44164E-04  8320   0.416E-03 0.357E-05
CGA:  49    -0.385874798785E+03   -0.82176E-05   -0.82456E-05  8320   0.398E-03 0.276E-06
CGA:  50    -0.385874816052E+03   -0.17267E-04   -0.17265E-04  8320   0.133E-03 0.626E-06
CGA:  51    -0.385874834990E+03   -0.18938E-04   -0.18844E-04  8320   0.377E-03 0.687E-06
CGA:  52    -0.385874842996E+03   -0.80058E-05   -0.80163E-05  8320   0.155E-03 0.553E-06
  13 F= -.38587484E+03 E0= -.38584921E+03  d E =-.265071E-01  mag=     9.6440
       N       E                     dE             d eps       ncg     rms          ort
SDA:   1    -0.385253576191E+03    0.62126E+00    0.00000E+00  8320   0.276E+01 0.000E+00
CGA:   2    -0.385355335263E+03   -0.10176E+00   -0.10175E+00  8320   0.528E+01 0.727E-03
CGA:   3    -0.385518423468E+03   -0.16309E+00   -0.16647E+00  8320   0.543E+01 0.425E-01
CGA:   4    -0.385710171350E+03   -0.19175E+00   -0.18981E+00  8320   0.203E+01-0.729E-01
CGA:   5    -0.385775244603E+03   -0.65073E-01   -0.66068E-01  8320   0.537E+00 0.287E-01
CGA:   6    -0.385805198376E+03   -0.29954E-01   -0.30128E-01  8320   0.178E+01-0.926E-02
CGA:   7    -0.385846021042E+03   -0.40823E-01   -0.41716E-01  8320   0.507E+00-0.136E-01
CGA:   8    -0.385866652662E+03   -0.20632E-01   -0.20630E-01  8320   0.187E+00-0.483E-02
CGA:   9    -0.385871373939E+03   -0.47213E-02   -0.47064E-02  8320   0.105E+00 0.104E-03
CGA:  10    -0.385873750896E+03   -0.23770E-02   -0.24019E-02  8320   0.105E+00-0.370E-03
CGA:  11    -0.385877809355E+03   -0.40585E-02   -0.40573E-02  8320   0.534E-01-0.708E-03
CGA:  12    -0.385881165688E+03   -0.33563E-02   -0.33540E-02  8320   0.193E-01 0.823E-04
CGA:  13    -0.385881942052E+03   -0.77636E-03   -0.77639E-03  8320   0.167E-01 0.263E-04
CGA:  14    -0.385882333277E+03   -0.39123E-03   -0.39283E-03  8320   0.133E-01-0.229E-04
CGA:  15    -0.385882676909E+03   -0.34363E-03   -0.34259E-03  8320   0.917E-02-0.481E-06
CGA:  16    -0.385883255345E+03   -0.57844E-03   -0.57847E-03  8320   0.681E-02-0.350E-05
CGA:  17    -0.385883644498E+03   -0.38915E-03   -0.38958E-03  8320   0.485E-02-0.212E-04
CGA:  18    -0.385883724091E+03   -0.79593E-04   -0.79854E-04  8320   0.280E-02-0.105E-04
CGA:  19    -0.385883840846E+03   -0.11676E-03   -0.11677E-03  8320   0.263E-02-0.491E-05
CGA:  20    -0.385884005013E+03   -0.16417E-03   -0.16410E-03  8320   0.405E-02 0.190E-05
CGA:  21    -0.385884215539E+03   -0.21053E-03   -0.21053E-03  8320   0.214E-02 0.363E-06
CGA:  22    -0.385884249584E+03   -0.34045E-04   -0.34163E-04  8320   0.135E-02-0.291E-05
CGA:  23    -0.385884345974E+03   -0.96390E-04   -0.96395E-04  8320   0.137E-02-0.256E-06
CGA:  24    -0.385884425737E+03   -0.79763E-04   -0.79590E-04  8320   0.179E-02 0.903E-05
CGA:  25    -0.385884487254E+03   -0.61517E-04   -0.61549E-04  8320   0.174E-02 0.478E-05
CGA:  26    -0.385884520176E+03   -0.32923E-04   -0.33046E-04  8320   0.782E-03 0.177E-05
CGA:  27    -0.385884547104E+03   -0.26928E-04   -0.26935E-04  8320   0.269E-03 0.110E-05
CGA:  28    -0.385884586204E+03   -0.39100E-04   -0.39013E-04  8320   0.940E-03 0.843E-06
CGA:  29    -0.385884599937E+03   -0.13733E-04   -0.13720E-04  8320   0.249E-03 0.126E-05
CGA:  30    -0.385884608265E+03   -0.83280E-05   -0.83392E-05  8320   0.153E-03 0.946E-06
  14 F= -.38588461E+03 E0= -.38585922E+03  d E =-.976527E-02  mag=     9.6629
       N       E                     dE             d eps       ncg     rms          ort
SDA:   1    -0.385855736011E+03    0.28864E-01    0.00000E+00  8320   0.526E+00 0.000E+00
CGA:   2    -0.385862625969E+03   -0.68900E-02   -0.65502E-02  8320   0.149E+00 0.215E-01
CGA:   3    -0.385866940112E+03   -0.43141E-02   -0.43176E-02  8320   0.102E+00-0.183E-04
CGA:   4    -0.385873906992E+03   -0.69669E-02   -0.69990E-02  8320   0.140E+00-0.106E-02
CGA:   5    -0.385878805935E+03   -0.48989E-02   -0.48862E-02  8320   0.114E+00-0.450E-03
CGA:   6    -0.385880342079E+03   -0.15361E-02   -0.15975E-02  8320   0.255E-01-0.329E-02
CGA:   7    -0.385881969023E+03   -0.16269E-02   -0.16272E-02  8320   0.233E-01-0.781E-05
CGA:   8    -0.385883507252E+03   -0.15382E-02   -0.15371E-02  8320   0.362E-01 0.450E-04
CGA:   9    -0.385884006703E+03   -0.49945E-03   -0.49499E-03  8320   0.578E-02 0.260E-03
CGA:  10    -0.385884167188E+03   -0.16048E-03   -0.16094E-03  8320   0.310E-02-0.930E-06
CGA:  11    -0.385884382687E+03   -0.21550E-03   -0.21565E-03  8320   0.339E-02-0.451E-05
CGA:  12    -0.385884486968E+03   -0.10428E-03   -0.10443E-03  8320   0.410E-02 0.339E-05
CGA:  13    -0.385884567480E+03   -0.80512E-04   -0.80397E-04  8320   0.749E-03 0.581E-05
CGA:  14    -0.385884612458E+03   -0.44978E-04   -0.44900E-04  8320   0.412E-03 0.398E-05
CGA:  15    -0.385884626772E+03   -0.14314E-04   -0.14322E-04  8320   0.846E-03 0.128E-05
CGA:  16    -0.385884656588E+03   -0.29816E-04   -0.29844E-04  8320   0.404E-03 0.401E-05
CGA:  17    -0.385884678846E+03   -0.22258E-04   -0.22228E-04  8320   0.213E-03 0.229E-05
CGA:  18    -0.385884684063E+03   -0.52167E-05   -0.52364E-05  8320   0.140E-03 0.108E-05
  15 F= -.38588468E+03 E0= -.38585936E+03  d E =-.757977E-04  mag=     9.6713
       N       E                     dE             d eps       ncg     rms          ort
SDA:   1    -0.385792333506E+03    0.92345E-01    0.00000E+00  8320   0.255E+01 0.000E+00
CGA:   2    -0.385816604984E+03   -0.24271E-01   -0.20986E-01  8320   0.197E+00 0.342E+00
CGA:   3    -0.385824069183E+03   -0.74642E-02   -0.74331E-02  8320   0.720E+00-0.193E-02
CGA:   4    -0.385850149577E+03   -0.26080E-01   -0.26087E-01  8320   0.122E+01 0.149E-02
CGA:   5    -0.385861405585E+03   -0.11256E-01   -0.11933E-01  8320   0.379E+00-0.579E-01
CGA:   6    -0.385868812952E+03   -0.74074E-02   -0.74918E-02  8320   0.373E+00-0.145E-02
CGA:   7    -0.385872823379E+03   -0.40104E-02   -0.38291E-02  8320   0.827E-01 0.143E-01
CGA:   8    -0.385874255770E+03   -0.14324E-02   -0.14192E-02  8320   0.117E+00 0.435E-03
CGA:   9    -0.385877727882E+03   -0.34721E-02   -0.34723E-02  8320   0.152E+00 0.193E-05
CGA:  10    -0.385879525847E+03   -0.17980E-02   -0.18227E-02  8320   0.916E-01-0.148E-02
[...]
CGA:  13    -0.385480237548E+03   -0.51678E-03   -0.51676E-03  8320   0.142E-01 0.394E-05
CGA:  14    -0.385480846299E+03   -0.60875E-03   -0.60836E-03  8320   0.996E-02-0.159E-04
CGA:  15    -0.385481333716E+03   -0.48742E-03   -0.48734E-03  8320   0.592E-02-0.165E-04
CGA:  16    -0.385481570374E+03   -0.23666E-03   -0.23691E-03  8320   0.365E-02 0.483E-06
CGA:  17    -0.385481707006E+03   -0.13663E-03   -0.13670E-03  8320   0.338E-02 0.199E-05
CGA:  18    -0.385481960545E+03   -0.25354E-03   -0.25361E-03  8320   0.283E-02-0.231E-05
CGA:  19    -0.385482123150E+03   -0.16261E-03   -0.16258E-03  8320   0.489E-02 0.294E-05
CGA:  20    -0.385482327380E+03   -0.20423E-03   -0.20422E-03  8320   0.222E-02 0.355E-05
CGA:  21    -0.385482444766E+03   -0.11739E-03   -0.11739E-03  8320   0.177E-02-0.869E-06
CGA:  22    -0.385482542818E+03   -0.98052E-04   -0.98035E-04  8320   0.293E-02 0.270E-05
CGA:  23    -0.385482690232E+03   -0.14741E-03   -0.14742E-03  8320   0.181E-02 0.187E-05
CGA:  24    -0.385482770963E+03   -0.80730E-04   -0.80745E-04  8320   0.991E-03 0.943E-06
CGA:  25    -0.385482815333E+03   -0.44370E-04   -0.44389E-04  8320   0.907E-03 0.132E-05
CGA:  26    -0.385482852323E+03   -0.36990E-04   -0.37009E-04  8320   0.713E-03 0.185E-05
CGA:  27    -0.385482910488E+03   -0.58165E-04   -0.58167E-04  8320   0.572E-03 0.825E-07
CGA:  28    -0.385482930954E+03   -0.20467E-04   -0.20483E-04  8320   0.380E-03 0.267E-06
CGA:  29    -0.385482944620E+03   -0.13666E-04   -0.13683E-04  8320   0.184E-03 0.842E-06
CGA:  30    -0.385482962081E+03   -0.17461E-04   -0.17465E-04  8320   0.322E-03-0.571E-07
CGA:  31    -0.385482977380E+03   -0.15300E-04   -0.15304E-04  8320   0.320E-03 0.328E-06
SDA:  32    -0.385482989271E+03   -0.11891E-04   -0.11906E-04  8320   0.116E-03 0.836E-06
CGA:  33    -0.385482993061E+03   -0.37902E-05   -0.37850E-05  8320   0.592E-04-0.316E-06
 105 F= -.38548299E+03 E0= -.38546709E+03  d E =-.235389E-01  mag=    10.0430
       N       E                     dE             d eps       ncg     rms          ort
SDA:   1    -0.381135707388E+03    0.43473E+01    0.00000E+00  8320   0.263E+02 0.000E+00
CGA:   2    -0.381941535244E+03   -0.80583E+00   -0.74292E+00  8320   0.197E+02 0.136E+01
CGA:   3    -0.384244623360E+03   -0.23031E+01   -0.22924E+01  8320   0.890E+01 0.875E-01
CGA:   4    -0.384677653021E+03   -0.43303E+00   -0.43954E+00  8320   0.449E+01 0.327E+00
CGA:   5    -0.385006150148E+03   -0.32850E+00   -0.33193E+00  8320   0.875E+01-0.169E+00
CGA:   6    -0.385302494434E+03   -0.29634E+00   -0.29112E+00  8320   0.349E+01 0.771E-01
CGA:   7    -0.385409050268E+03   -0.10656E+00   -0.11098E+00  8320   0.109E+01-0.340E-01
CGA:   8    -0.385449057793E+03   -0.40008E-01   -0.39901E-01  8320   0.593E+00 0.251E-03
CGA:   9    -0.385471040100E+03   -0.21982E-01   -0.22059E-01  8320   0.611E+00 0.386E-03
CGA:  10    -0.385507366730E+03   -0.36327E-01   -0.36237E-01  8320   0.224E+00 0.840E-02
CGA:  11    -0.385516818231E+03   -0.94515E-02   -0.94744E-02  8320   0.138E+00 0.486E-03
CGA:  12    -0.385520750777E+03   -0.39325E-02   -0.39316E-02  8320   0.703E-01-0.426E-05
CGA:  13    -0.385527182904E+03   -0.64321E-02   -0.64238E-02  8320   0.684E-01 0.168E-03
CGA:  14    -0.385531003568E+03   -0.38207E-02   -0.38166E-02  8320   0.654E-01 0.932E-03
CGA:  15    -0.385532723869E+03   -0.17203E-02   -0.17417E-02  8320   0.140E-01-0.416E-03
CGA:  16    -0.385534304466E+03   -0.15806E-02   -0.15800E-02  8320   0.296E-01 0.633E-05
CGA:  17    -0.385536012752E+03   -0.17083E-02   -0.17075E-02  8320   0.218E-01 0.183E-03
CGA:  18    -0.385537175105E+03   -0.11624E-02   -0.11625E-02  8320   0.158E-01 0.398E-04
CGA:  19    -0.385537756997E+03   -0.58189E-03   -0.58282E-03  8320   0.112E-01 0.929E-05
CGA:  20    -0.385538926146E+03   -0.11691E-02   -0.11736E-02  8320   0.159E-01-0.854E-04
CGA:  21    -0.385540145221E+03   -0.12191E-02   -0.12140E-02  8320   0.934E-02 0.189E-03
CGA:  22    -0.385540456040E+03   -0.31082E-03   -0.31126E-03  8320   0.612E-02-0.755E-06
CGA:  23    -0.385540936544E+03   -0.48050E-03   -0.47904E-03  8320   0.668E-02 0.529E-04
CGA:  24    -0.385541503492E+03   -0.56695E-03   -0.56682E-03  8320   0.630E-02 0.519E-05
CGA:  25    -0.385541745610E+03   -0.24212E-03   -0.24207E-03  8320   0.161E-02 0.622E-06
CGA:  26    -0.385541901549E+03   -0.15594E-03   -0.15571E-03  8320   0.383E-02 0.517E-05
CGA:  27    -0.385542076884E+03   -0.17533E-03   -0.17535E-03  8320   0.229E-02 0.359E-05
CGA:  28    -0.385542207665E+03   -0.13078E-03   -0.13079E-03  8320   0.106E-02 0.183E-05
CGA:  29    -0.385542277766E+03   -0.70100E-04   -0.70083E-04  8320   0.617E-03 0.218E-05
CGA:  30    -0.385542337745E+03   -0.59979E-04   -0.60068E-04  8320   0.144E-02-0.205E-05
CGA:  31    -0.385542405403E+03   -0.67658E-04   -0.67748E-04  8320   0.630E-03 0.195E-05
SDA:  32    -0.385542433923E+03   -0.28520E-04   -0.28528E-04  8320   0.465E-03 0.545E-06
CGA:  33    -0.385542447781E+03   -0.13859E-04   -0.13838E-04  8320   0.202E-03-0.123E-05
CGA:  34    -0.385542470165E+03   -0.22384E-04   -0.22481E-04  8320   0.448E-03-0.191E-05
CGA:  35    -0.385542491461E+03   -0.21296E-04   -0.21290E-04  8320   0.372E-03-0.135E-05
CGA:  36    -0.385542519774E+03   -0.28313E-04   -0.28353E-04  8320   0.176E-03-0.238E-05
CGA:  37    -0.385542531644E+03   -0.11870E-04   -0.11869E-04  8320   0.125E-03 0.143E-07
CGA:  38    -0.385542547672E+03   -0.16028E-04   -0.15968E-04  8320   0.197E-03 0.826E-06
CGA:  39    -0.385542568723E+03   -0.21050E-04   -0.20991E-04  8320   0.376E-03 0.151E-05
CGA:  40    -0.385542584887E+03   -0.16164E-04   -0.16221E-04  8320   0.160E-03 0.499E-06
CGA:  41    -0.385542592633E+03   -0.77465E-05   -0.77374E-05  8320   0.130E-03-0.140E-06
 106 F= -.38554259E+03 E0= -.38552679E+03  d E =-.595996E-01  mag=    10.0474
       N       E                     dE             d eps       ncg     rms          ort
SDA:   1    -0.382155948507E+03    0.33866E+01    0.00000E+00  8320   0.125E+02 0.000E+00
CGA:   2    -0.383149585135E+03   -0.99364E+00   -0.98113E+00  8320   0.232E+02 0.536E+00
CGA:   3    -0.384566755131E+03   -0.14172E+01   -0.14219E+01  8320   0.888E+01 0.309E+00
CGA:   4    -0.384851025386E+03   -0.28427E+00   -0.21103E+00  8320   0.290E+01 0.252E+01
CGA:   5    -0.385075753578E+03   -0.22473E+00   -0.22424E+00  8320   0.566E+01-0.725E-01
CGA:   6    -0.385278153174E+03   -0.20240E+00   -0.20338E+00  8320   0.640E+01-0.153E-02
CGA:   7    -0.385441431995E+03   -0.16328E+00   -0.16536E+00  8320   0.220E+01-0.337E-01
CGA:   8    -0.385482407557E+03   -0.40976E-01   -0.39880E-01  8320   0.797E+00 0.538E-01
CGA:   9    -0.385510630699E+03   -0.28223E-01   -0.28237E-01  8320   0.667E+00-0.177E-03
CGA:  10    -0.385525956145E+03   -0.15325E-01   -0.15607E-01  8320   0.363E+00-0.738E-02
CGA:  11    -0.385544848749E+03   -0.18893E-01   -0.18898E-01  8320   0.658E+00 0.102E-02
CGA:  12    -0.385562072798E+03   -0.17224E-01   -0.17174E-01  8320   0.199E+00 0.103E-02
CGA:  13    -0.385566662631E+03   -0.45898E-02   -0.46672E-02  8320   0.923E-01-0.175E-02
CGA:  14    -0.385569411796E+03   -0.27492E-02   -0.28033E-02  8320   0.657E-01-0.440E-03
CGA:  15    -0.385573087896E+03   -0.36761E-02   -0.36749E-02  8320   0.117E+00 0.126E-03
CGA:  16    -0.385577108364E+03   -0.40205E-02   -0.40038E-02  8320   0.656E-01 0.233E-04
CGA:  17    -0.385579183035E+03   -0.20747E-02   -0.20784E-02  8320   0.343E-01 0.142E-05
CGA:  18    -0.385580083628E+03   -0.90059E-03   -0.91262E-03  8320   0.159E-01-0.174E-03
CGA:  19    -0.385580847562E+03   -0.76393E-03   -0.76392E-03  8320   0.214E-01 0.495E-04
CGA:  20    -0.385581887353E+03   -0.10398E-02   -0.10398E-02  8320   0.226E-01 0.515E-04
CGA:  21    -0.385582641105E+03   -0.75375E-03   -0.75596E-03  8320   0.110E-01 0.234E-04
CGA:  22    -0.385583044075E+03   -0.40297E-03   -0.40356E-03  8320   0.798E-02 0.154E-04
CGA:  23    -0.385583356834E+03   -0.31276E-03   -0.31257E-03  8320   0.813E-02-0.634E-05
CGA:  24    -0.385583940181E+03   -0.58335E-03   -0.58226E-03  8320   0.127E-01 0.357E-04
CGA:  25    -0.385584342339E+03   -0.40216E-03   -0.40336E-03  8320   0.716E-02-0.331E-05
CGA:  26    -0.385584643116E+03   -0.30078E-03   -0.30074E-03  8320   0.368E-02-0.429E-05
CGA:  27    -0.385584760834E+03   -0.11772E-03   -0.11765E-03  8320   0.325E-02 0.109E-06
CGA:  28    -0.385585041270E+03   -0.28044E-03   -0.27994E-03  8320   0.672E-02 0.121E-04
CGA:  29    -0.385585334600E+03   -0.29333E-03   -0.29340E-03  8320   0.564E-02 0.496E-05
CGA:  30    -0.385585511752E+03   -0.17715E-03   -0.17698E-03  8320   0.205E-02 0.394E-06
CGA:  31    -0.385585617710E+03   -0.10596E-03   -0.10596E-03  8320   0.283E-02 0.211E-06
SDA:  32    -0.385585722571E+03   -0.10486E-03   -0.10494E-03  8320   0.146E-02 0.343E-05
CGA:  33    -0.385585807611E+03   -0.85040E-04   -0.85042E-04  8320   0.123E-02-0.642E-06
CGA:  34    -0.385585877830E+03   -0.70219E-04   -0.70173E-04  8320   0.104E-02 0.368E-05
CGA:  35    -0.385585985008E+03   -0.10718E-03   -0.10718E-03  8320   0.882E-03-0.528E-07
CGA:  36    -0.385586030228E+03   -0.45220E-04   -0.45219E-04  8320   0.597E-03 0.754E-06
CGA:  37    -0.385586052943E+03   -0.22715E-04   -0.22716E-04  8320   0.275E-03 0.370E-06
CGA:  38    -0.385586073530E+03   -0.20586E-04   -0.20597E-04  8320   0.257E-03-0.623E-06
CGA:  39    -0.385586110920E+03   -0.37391E-04   -0.37463E-04  8320   0.270E-03-0.938E-06
CGA:  40    -0.385586134685E+03   -0.23764E-04   -0.23774E-04  8320   0.144E-03-0.439E-06
CGA:  41    -0.385586144187E+03   -0.95021E-05   -0.95025E-05  8320   0.238E-03-0.456E-07
CGA:  42    -0.385586165095E+03   -0.20909E-04   -0.20874E-04  8320   0.429E-03 0.869E-06
CGA:  43    -0.385586189322E+03   -0.24226E-04   -0.24225E-04  8320   0.956E-04 0.130E-06
CGA:  44    -0.385586197776E+03   -0.84541E-05   -0.84300E-05  8320   0.156E-03 0.779E-06
 107 F= -.38558620E+03 E0= -.38557046E+03  d E =-.436051E-01  mag=    10.0426
       N       E                     dE             d eps       ncg     rms          ort
SDA:   1    -0.384482468271E+03    0.11037E+01    0.00000E+00  8320   0.407E+01 0.000E+00
CGA:   2    -0.384931958100E+03   -0.44949E+00   -0.46712E+00  8320   0.950E+01-0.325E+00
CGA:   3    -0.385251186495E+03   -0.31923E+00   -0.32638E+00  8320   0.159E+01-0.367E-01
CGA:   4    -0.385341528469E+03   -0.90342E-01   -0.90654E-01  8320   0.124E+01 0.244E-01
CGA:   5    -0.385460546224E+03   -0.11902E+00   -0.11959E+00  8320   0.125E+01-0.156E-01
CGA:   6    -0.385501560247E+03   -0.41014E-01   -0.40891E-01  8320   0.413E+00 0.168E-02
CGA:   7    -0.385520653264E+03   -0.19093E-01   -0.19378E-01  8320   0.146E+00 0.365E-02
CGA:   8    -0.385527147073E+03   -0.64938E-02   -0.64717E-02  8320   0.136E+00-0.112E-03
CGA:   9    -0.385537322159E+03   -0.10175E-01   -0.10166E-01  8320   0.471E-01 0.462E-03
CGA:  10    -0.385539855394E+03   -0.25332E-02   -0.25329E-02  8320   0.222E-01-0.672E-05
CGA:  11    -0.385540957507E+03   -0.11021E-02   -0.11014E-02  8320   0.192E-01-0.172E-04
CGA:  12    -0.385542538773E+03   -0.15813E-02   -0.15798E-02  8320   0.152E-01 0.506E-04
CGA:  13    -0.385543360385E+03   -0.82161E-03   -0.82155E-03  8320   0.521E-02-0.139E-05
CGA:  14    -0.385543713727E+03   -0.35334E-03   -0.35298E-03  8320   0.701E-02 0.320E-04
CGA:  15    -0.385544108208E+03   -0.39448E-03   -0.39454E-03  8320   0.633E-02 0.601E-05
CGA:  16    -0.385544698757E+03   -0.59055E-03   -0.59022E-03  8320   0.625E-02 0.798E-05
CGA:  17    -0.385544924877E+03   -0.22612E-03   -0.22507E-03  8320   0.305E-02 0.797E-05
CGA:  18    -0.385545245179E+03   -0.32030E-03   -0.32033E-03  8320   0.393E-02-0.596E-06
CGA:  19    -0.385545606247E+03   -0.36107E-03   -0.36100E-03  8320   0.314E-02 0.196E-05
CGA:  20    -0.385545770418E+03   -0.16417E-03   -0.16419E-03  8320   0.270E-02-0.211E-06
CGA:  21    -0.385545916368E+03   -0.14595E-03   -0.14600E-03  8320   0.110E-02 0.314E-05
CGA:  22    -0.385546011455E+03   -0.95086E-04   -0.94935E-04  8320   0.199E-02 0.594E-05
CGA:  23    -0.385546104259E+03   -0.92804E-04   -0.92795E-04  8320   0.974E-03 0.287E-05
CGA:  24    -0.385546157945E+03   -0.53687E-04   -0.53707E-04  8320   0.402E-03 0.202E-05
CGA:  25    -0.385546185740E+03   -0.27795E-04   -0.27789E-04  8320   0.345E-03 0.123E-05
CGA:  26    -0.385546208747E+03   -0.23007E-04   -0.23007E-04  8320   0.461E-03-0.274E-06
CGA:  27    -0.385546240281E+03   -0.31534E-04   -0.31535E-04  8320   0.169E-03-0.185E-06
CGA:  28    -0.385546248674E+03   -0.83922E-05   -0.83920E-05  8320   0.139E-03-0.929E-07
 108 F= -.38554625E+03 E0= -.38553053E+03  d E =0.399491E-01  mag=    10.0396
       N       E                     dE             d eps       ncg     rms          ort
SDA:   1    -0.383919790468E+03    0.16264E+01    0.00000E+00  8320   0.539E+01 0.000E+00
CGA:   2    -0.384721587890E+03   -0.80180E+00   -0.83889E+00  8320   0.131E+02-0.439E+00
CGA:   3    -0.385069036265E+03   -0.34745E+00   -0.38103E+00  8320   0.231E+01-0.475E+00
CGA:   4    -0.385225481843E+03   -0.15645E+00   -0.15651E+00  8320   0.208E+01-0.856E-02
CGA:   5    -0.385390012354E+03   -0.16453E+00   -0.16436E+00  8320   0.204E+01 0.645E-02
CGA:   6    -0.385448626716E+03   -0.58614E-01   -0.56002E-01  8320   0.387E+00 0.670E-01
CGA:   7    -0.385470910206E+03   -0.22283E-01   -0.22366E-01  8320   0.207E+00 0.361E-02
CGA:   8    -0.385482789022E+03   -0.11879E-01   -0.11874E-01  8320   0.206E+00-0.203E-03
CGA:   9    -0.385493519613E+03   -0.10731E-01   -0.10743E-01  8320   0.809E-01 0.342E-03
CGA:  10    -0.385496601447E+03   -0.30818E-02   -0.30990E-02  8320   0.456E-01-0.855E-04
CGA:  11    -0.385498532864E+03   -0.19314E-02   -0.19303E-02  8320   0.233E-01 0.999E-06
CGA:  12    -0.385500770028E+03   -0.22372E-02   -0.22381E-02  8320   0.216E-01-0.239E-04
CGA:  13    -0.385501956007E+03   -0.11860E-02   -0.11867E-02  8320   0.124E-01 0.336E-04
CGA:  14    -0.385502344119E+03   -0.38811E-03   -0.38680E-03  8320   0.598E-02 0.188E-04
CGA:  15    -0.385503043694E+03   -0.69958E-03   -0.69874E-03  8320   0.804E-02 0.149E-04
CGA:  16    -0.385503414799E+03   -0.37111E-03   -0.37149E-03  8320   0.668E-02 0.382E-05
CGA:  17    -0.385504074982E+03   -0.66018E-03   -0.66053E-03  8320   0.444E-02-0.897E-05
CGA:  18    -0.385504245961E+03   -0.17098E-03   -0.17107E-03  8320   0.430E-02-0.149E-05
CGA:  19    -0.385504664513E+03   -0.41855E-03   -0.41849E-03  8320   0.478E-02 0.257E-05
CGA:  20    -0.385505033672E+03   -0.36916E-03   -0.36909E-03  8320   0.324E-02 0.511E-05
CGA:  21    -0.385505197964E+03   -0.16429E-03   -0.16433E-03  8320   0.189E-02 0.212E-05
CGA:  22    -0.385505295481E+03   -0.97517E-04   -0.97536E-04  8320   0.200E-02 0.356E-05
CGA:  23    -0.385505452333E+03   -0.15685E-03   -0.15674E-03  8320   0.222E-02 0.716E-05
CGA:  24    -0.385505536394E+03   -0.84061E-04   -0.83971E-04  8320   0.765E-03 0.452E-05
CGA:  25    -0.385505582794E+03   -0.46400E-04   -0.46408E-04  8320   0.392E-03 0.237E-05
CGA:  26    -0.385505637171E+03   -0.54377E-04   -0.54299E-04  8320   0.688E-03 0.105E-05
CGA:  27    -0.385505668227E+03   -0.31056E-04   -0.31050E-04  8320   0.477E-03 0.705E-06
CGA:  28    -0.385505686747E+03   -0.18520E-04   -0.18529E-04  8320   0.168E-03 0.320E-06
CGA:  29    -0.385505700398E+03   -0.13650E-04   -0.13648E-04  8320   0.238E-03 0.114E-06
CGA:  30    -0.385505716205E+03   -0.15808E-04   -0.15809E-04  8320   0.237E-03-0.846E-06
CGA:  31    -0.385505733905E+03   -0.17700E-04   -0.17700E-04  8320   0.762E-04 0.709E-08
SDA:  32    -0.385505739016E+03   -0.51108E-05   -0.51102E-05  8320   0.120E-03 0.162E-06
 109 F= -.38550574E+03 E0= -.38549008E+03  d E =0.405097E-01  mag=    10.0339
       N       E                     dE             d eps       ncg     rms          ort
SDA:   1    -0.385306318949E+03    0.19941E+00    0.00000E+00  8320   0.598E+00 0.000E+00
CGA:   2    -0.385377681076E+03   -0.71362E-01   -0.75882E-01  8320   0.170E+01-0.730E-01
CGA:   3    -0.385447085688E+03   -0.69405E-01   -0.70266E-01  8320   0.557E+00 0.382E-02
CGA:   4    -0.385467538694E+03   -0.20453E-01   -0.20713E-01  8320   0.218E+00-0.149E-02
CGA:   5    -0.385481290550E+03   -0.13752E-01   -0.13751E-01  8320   0.287E+00-0.314E-03
CGA:   6    -0.385494121323E+03   -0.12831E-01   -0.12714E-01  8320   0.826E-01-0.146E-03
CGA:   7    -0.385498351386E+03   -0.42301E-02   -0.42353E-02  8320   0.342E-01 0.114E-03
CGA:   8    -0.385499686248E+03   -0.13349E-02   -0.13378E-02  8320   0.174E-01-0.118E-04
CGA:   9    -0.385501152504E+03   -0.14663E-02   -0.14648E-02  8320   0.151E-01 0.519E-04
CGA:  10    -0.385501889728E+03   -0.73722E-03   -0.73632E-03  8320   0.629E-02-0.787E-05
CGA:  11    -0.385502088936E+03   -0.19921E-03   -0.19912E-03  8320   0.259E-02-0.105E-06
CGA:  12    -0.385502293338E+03   -0.20440E-03   -0.20470E-03  8320   0.228E-02-0.125E-04
CGA:  13    -0.385502429126E+03   -0.13579E-03   -0.13579E-03  8320   0.211E-02-0.108E-05
CGA:  14    -0.385502530582E+03   -0.10146E-03   -0.10149E-03  8320   0.627E-03-0.792E-06
CGA:  15    -0.385502564419E+03   -0.33837E-04   -0.33841E-04  8320   0.489E-03 0.169E-06
CGA:  16    -0.385502593143E+03   -0.28724E-04   -0.28725E-04  8320   0.653E-03 0.219E-06
CGA:  17    -0.385502640987E+03   -0.47844E-04   -0.47858E-04  8320   0.452E-03-0.126E-05
CGA:  18    -0.385502665178E+03   -0.24191E-04   -0.24189E-04  8320   0.211E-03-0.283E-06
CGA:  19    -0.385502677960E+03   -0.12782E-04   -0.12782E-04  8320   0.307E-03 0.550E-06
CGA:  20    -0.385502708511E+03   -0.30551E-04   -0.30532E-04  8320   0.252E-03 0.355E-06
CGA:  21    -0.385502718061E+03   -0.95503E-05   -0.95489E-05  8320   0.177E-03-0.651E-07
CGA:  22    -0.385502730571E+03   -0.12510E-04   -0.12500E-04  8320   0.902E-04 0.121E-05
CGA:  23    -0.385502736585E+03   -0.60141E-05   -0.60082E-05  8320   0.946E-04 0.136E-05
 110 F= -.38550274E+03 E0= -.38548711E+03  d E =0.300243E-02  mag=    10.0349
       N       E                     dE             d eps       ncg     rms          ort
SDA:   1    -0.385406904266E+03    0.95826E-01    0.00000E+00  8320   0.644E+00 0.000E+00
CGA:   2    -0.385427786940E+03   -0.20883E-01   -0.20485E-01  8320   0.463E+00 0.624E-02
CGA:   3    -0.385468519458E+03   -0.40733E-01   -0.40550E-01  8320   0.470E+00 0.561E-02
CGA:   4    -0.385490421926E+03   -0.21902E-01   -0.21856E-01  8320   0.123E+00-0.409E-03
CGA:   5    -0.385496954823E+03   -0.65329E-02   -0.65178E-02  8320   0.116E+00-0.622E-03
CGA:   6    -0.385505583364E+03   -0.86285E-02   -0.85970E-02  8320   0.496E-01 0.157E-02
CGA:   7    -0.385509342461E+03   -0.37591E-02   -0.37593E-02  8320   0.989E-02-0.101E-04
CGA:   8    -0.385509920983E+03   -0.57852E-03   -0.57847E-03  8320   0.107E-01-0.816E-05
CGA:   9    -0.385510469496E+03   -0.54851E-03   -0.54829E-03  8320   0.629E-02-0.784E-05
CGA:  10    -0.385510738083E+03   -0.26859E-03   -0.26918E-03  8320   0.331E-02-0.154E-05
CGA:  11    -0.385510897464E+03   -0.15938E-03   -0.15929E-03  8320   0.186E-02-0.345E-05
CGA:  12    -0.385510992662E+03   -0.95198E-04   -0.95264E-04  8320   0.670E-03 0.312E-05
CGA:  13    -0.385511075136E+03   -0.82474E-04   -0.82420E-04  8320   0.684E-03 0.833E-06
CGA:  14    -0.385511121698E+03   -0.46562E-04   -0.46559E-04  8320   0.370E-03 0.707E-06
CGA:  15    -0.385511142828E+03   -0.21130E-04   -0.21140E-04  8320   0.337E-03 0.183E-05
CGA:  16    -0.385511160359E+03   -0.17531E-04   -0.17541E-04  8320   0.327E-03 0.836E-06
CGA:  17    -0.385511187481E+03   -0.27122E-04   -0.27101E-04  8320   0.440E-03 0.111E-05
CGA:  18    -0.385511207844E+03   -0.20362E-04   -0.20384E-04  8320   0.208E-03 0.116E-05
CGA:  19    -0.385511222227E+03   -0.14383E-04   -0.14382E-04  8320   0.129E-03 0.128E-06
CGA:  20    -0.385511242297E+03   -0.20070E-04   -0.20152E-04  8320   0.154E-03-0.897E-06
CGA:  21    -0.385511251515E+03   -0.92185E-05   -0.92175E-05  8320   0.608E-04-0.263E-06
 111 F= -.38551125E+03 E0= -.38549561E+03  d E =-.851493E-02  mag=    10.0347
