       N       E                     dE             d eps       ncg     rms          rms(c)
DAV:   1     0.968921964731E+04    0.96892E+04   -0.29080E+05 30520   0.198E+03
DAV:   2     0.127630574045E+04   -0.84129E+04   -0.76970E+04 29968   0.572E+02
DAV:   3    -0.316673062517E+03   -0.15930E+04   -0.14838E+04 30800   0.259E+02
DAV:   4    -0.417566080858E+03   -0.10089E+03   -0.99780E+02 32840   0.652E+01
DAV:   5    -0.419053993859E+03   -0.14879E+01   -0.14801E+01 35544   0.849E+00    0.925E+01
DAV:   6    -0.383665983916E+03    0.35388E+02   -0.41044E+02 39160   0.850E+01    0.162E+02
DAV:   7    -0.373889920410E+03    0.97761E+01   -0.18127E+02 32784   0.778E+01    0.124E+02
DAV:   8    -0.327633063715E+03    0.46257E+02   -0.91546E+01 31840   0.573E+01    0.786E+01
DAV:   9    -0.411631547492E+03   -0.83998E+02   -0.81874E+01 32488   0.719E+01    0.133E+02
DAV:  10    -0.360992836711E+03    0.50639E+02   -0.86368E+01 32200   0.423E+01    0.128E+02
DAV:  11    -0.336487128902E+03    0.24506E+02   -0.60663E+01 32280   0.312E+01    0.891E+01
DAV:  12    -0.343582040351E+03   -0.70949E+01   -0.56156E+01 32240   0.365E+01    0.883E+01
DAV:  13    -0.319675747479E+03    0.23906E+02   -0.29511E+01 31936   0.327E+01    0.654E+01
DAV:  14    -0.320029045546E+03   -0.35330E+00   -0.48204E+01 32088   0.202E+01    0.592E+01
DAV:  15    -0.319272528614E+03    0.75652E+00   -0.13174E+01 31256   0.132E+01    0.465E+01
DAV:  16    -0.316496836538E+03    0.27757E+01   -0.58632E+00 32136   0.114E+01    0.333E+01
DAV:  17    -0.318697967832E+03   -0.22011E+01   -0.45209E+00 31120   0.882E+00    0.425E+01
DAV:  18    -0.316390401747E+03    0.23076E+01   -0.20971E+00 31816   0.762E+00    0.237E+01
DAV:  19    -0.316678031299E+03   -0.28763E+00   -0.48245E-01 31432   0.246E+00    0.212E+01
DAV:  20    -0.317316469352E+03   -0.63844E+00   -0.75082E-01 30840   0.306E+00    0.253E+01
DAV:  21    -0.317582349802E+03   -0.26588E+00   -0.91630E-01 31984   0.333E+00    0.284E+01
DAV:  22    -0.317744361400E+03   -0.16201E+00   -0.17615E+00 31128   0.437E+00    0.264E+01
DAV:  23    -0.317676432824E+03    0.67929E-01   -0.66003E-01 31984   0.356E+00    0.247E+01
DAV:  24    -0.318300899033E+03   -0.62447E+00   -0.80704E-01 31176   0.407E+00    0.284E+01
DAV:  25    -0.317951444607E+03    0.34945E+00   -0.48604E-01 31384   0.336E+00    0.205E+01
DAV:  26    -0.318062654336E+03   -0.11121E+00   -0.29894E-01 31880   0.233E+00    0.214E+01
DAV:  27    -0.318235416800E+03   -0.17276E+00   -0.41389E-01 31472   0.277E+00    0.210E+01
DAV:  28    -0.318863521572E+03   -0.62810E+00   -0.12536E+00 32424   0.453E+00    0.280E+01
DAV:  29    -0.318672595172E+03    0.19093E+00   -0.95495E-01 33648   0.402E+00    0.241E+01
DAV:  30    -0.318864319356E+03   -0.19172E+00   -0.15870E+00 33960   0.441E+00    0.259E+01
DAV:  31    -0.318652445819E+03    0.21187E+00   -0.11985E+00 33736   0.414E+00    0.243E+01
DAV:  32    -0.318797796569E+03   -0.14535E+00   -0.38637E-01 32448   0.235E+00    0.251E+01
DAV:  33    -0.318770426049E+03    0.27371E-01   -0.17835E-01 31336   0.161E+00    0.238E+01
DAV:  34    -0.318640459295E+03    0.12997E+00   -0.91287E-02 35864   0.152E+00    0.212E+01
DAV:  35    -0.318500070372E+03    0.14039E+00   -0.29244E-01 35552   0.221E+00    0.143E+01
DAV:  36    -0.318621129447E+03   -0.12106E+00   -0.19386E-01 33848   0.160E+00    0.141E+01
DAV:  37    -0.318593713131E+03    0.27416E-01   -0.11328E-01 35048   0.175E+00    0.127E+01
DAV:  38    -0.318615604877E+03   -0.21892E-01   -0.88187E-02 34336   0.128E+00    0.120E+01
DAV:  39    -0.318587781840E+03    0.27823E-01   -0.64195E-02 33920   0.132E+00    0.990E+00
DAV:  40    -0.318587572523E+03    0.20932E-03   -0.34394E-02 34072   0.834E-01    0.879E+00
DAV:  41    -0.318568673774E+03    0.18899E-01   -0.61340E-02 35360   0.111E+00    0.645E+00
DAV:  42    -0.318591150218E+03   -0.22476E-01   -0.85564E-02 33496   0.130E+00    0.783E+00
DAV:  43    -0.318577412015E+03    0.13738E-01   -0.21147E-02 32704   0.714E-01    0.660E+00
DAV:  44    -0.318551715798E+03    0.25696E-01   -0.22340E-02 34832   0.743E-01    0.378E+00
DAV:  45    -0.318552599010E+03   -0.88321E-03   -0.30162E-02 34232   0.764E-01    0.320E+00
DAV:  46    -0.318561837056E+03   -0.92380E-02   -0.18116E-02 35256   0.625E-01    0.314E+00
DAV:  47    -0.318559518518E+03    0.23185E-02   -0.13176E-02 34136   0.543E-01    0.261E+00
DAV:  48    -0.318556900783E+03    0.26177E-02   -0.72408E-03 33744   0.385E-01    0.198E+00
DAV:  49    -0.318555764842E+03    0.11359E-02   -0.47656E-03 34864   0.321E-01    0.197E+00
DAV:  50    -0.318553066551E+03    0.26983E-02   -0.43744E-03 35856   0.340E-01    0.119E+00
DAV:  51    -0.318553373732E+03   -0.30718E-03   -0.56776E-03 35328   0.312E-01    0.123E+00
DAV:  52    -0.318553960482E+03   -0.58675E-03   -0.24854E-03 33912   0.256E-01    0.120E+00
DAV:  53    -0.318553636866E+03    0.32362E-03   -0.19276E-03 34720   0.198E-01    0.798E-01
DAV:  54    -0.318553834941E+03   -0.19807E-03   -0.92880E-04 32520   0.155E-01    0.798E-01
DAV:  55    -0.318553660371E+03    0.17457E-03   -0.55171E-04 33648   0.131E-01    0.735E-01
DAV:  56    -0.318553544394E+03    0.11598E-03   -0.52237E-04 34984   0.138E-01    0.620E-01
DAV:  57    -0.318553531894E+03    0.12499E-04   -0.54584E-04 33984   0.110E-01    0.554E-01
DAV:  58    -0.318553349444E+03    0.18245E-03   -0.47204E-04 29752   0.103E-01    0.321E-01
DAV:  59    -0.318553351659E+03   -0.22146E-05   -0.18693E-04 30464   0.707E-02    0.202E-01
DAV:  60    -0.318553355449E+03   -0.37900E-05   -0.90201E-05 27160   0.458E-02
   1 F= -.31855336E+03 E0= -.31851746E+03  d E =-.318553E+03  mag=    41.8574
       N       E                     dE             d eps       ncg     rms          rms(c)
DAV:   1    -0.318170101259E+03    0.38325E+00   -0.12821E+02 32048   0.403E+01    0.705E+00
DAV:   2    -0.319709815119E+03   -0.15397E+01   -0.13531E+01 31776   0.962E+00    0.218E+01
DAV:   3    -0.319269381953E+03    0.44043E+00   -0.29016E+00 32520   0.796E+00    0.216E+01
DAV:   4    -0.320020696465E+03   -0.75131E+00   -0.20213E+00 33064   0.680E+00    0.322E+01
DAV:   5    -0.318835894289E+03    0.11848E+01   -0.14789E+00 35056   0.515E+00    0.898E+00
DAV:   6    -0.319069216082E+03   -0.23332E+00   -0.99477E-01 35112   0.358E+00    0.159E+01
DAV:   7    -0.318996271037E+03    0.72945E-01   -0.62846E-01 35544   0.347E+00    0.113E+01
DAV:   8    -0.318929019855E+03    0.67251E-01   -0.56762E-01 33976   0.296E+00    0.969E+00
DAV:   9    -0.318894302990E+03    0.34717E-01   -0.29757E-01 34456   0.240E+00    0.636E+00
DAV:  10    -0.318977474577E+03   -0.83172E-01   -0.29009E-01 34616   0.214E+00    0.102E+01
DAV:  11    -0.318858226073E+03    0.11925E+00   -0.17134E-01 35432   0.192E+00    0.293E+00
DAV:  12    -0.318881526151E+03   -0.23300E-01   -0.55591E-02 34384   0.950E-01    0.417E+00
DAV:  13    -0.318870873279E+03    0.10653E-01   -0.25184E-02 34320   0.705E-01    0.249E+00
DAV:  14    -0.318871196688E+03   -0.32341E-03   -0.13341E-02 33448   0.578E-01    0.283E+00
DAV:  15    -0.318872776185E+03   -0.15795E-02   -0.17224E-02 34400   0.559E-01    0.297E+00
DAV:  16    -0.318868220032E+03    0.45562E-02   -0.17853E-02 34312   0.748E-01    0.300E+00
DAV:  17    -0.318866035908E+03    0.21841E-02   -0.24032E-02 36144   0.736E-01    0.312E+00
DAV:  18    -0.318875625929E+03   -0.95900E-02   -0.34016E-02 33696   0.106E+00    0.327E+00
DAV:  19    -0.318858956252E+03    0.16670E-01   -0.29813E-02 35120   0.959E-01    0.216E+00
DAV:  20    -0.318863155201E+03   -0.41989E-02   -0.17612E-02 33880   0.561E-01    0.281E+00
DAV:  21    -0.318859360008E+03    0.37952E-02   -0.74092E-03 33560   0.423E-01    0.209E+00
DAV:  22    -0.318859537429E+03   -0.17742E-03   -0.38785E-03 33752   0.276E-01    0.226E+00
DAV:  23    -0.318858242016E+03    0.12954E-02   -0.15144E-03 34104   0.192E-01    0.199E+00
DAV:  24    -0.318857553836E+03    0.68818E-03   -0.15239E-03 34072   0.202E-01    0.178E+00
DAV:  25    -0.318857537689E+03    0.16147E-04   -0.13478E-03 32912   0.151E-01    0.166E+00
DAV:  26    -0.318856697184E+03    0.84051E-03   -0.74286E-04 33864   0.157E-01    0.131E+00
DAV:  27    -0.318855879069E+03    0.81812E-03   -0.14618E-03 36096   0.211E-01    0.108E+00
DAV:  28    -0.318856418279E+03   -0.53921E-03   -0.33771E-03 34840   0.291E-01    0.857E-01
DAV:  29    -0.318856515129E+03   -0.96850E-04   -0.19668E-03 31840   0.209E-01    0.539E-01
DAV:  30    -0.318856464811E+03    0.50318E-04   -0.62028E-04 31408   0.127E-01    0.460E-01
DAV:  31    -0.318856303894E+03    0.16092E-03   -0.24329E-04 34696   0.944E-02    0.342E-01
DAV:  32    -0.318856191980E+03    0.11191E-03   -0.32920E-04 34200   0.974E-02    0.184E-01
DAV:  33    -0.318856247910E+03   -0.55929E-04   -0.27132E-04 29784   0.585E-02    0.143E-01
DAV:  34    -0.318856264034E+03   -0.16124E-04   -0.79777E-05 25424   0.453E-02    0.983E-02
DAV:  35    -0.318856264220E+03   -0.18679E-06   -0.17102E-05 18552   0.223E-02
   2 F= -.31885626E+03 E0= -.31881996E+03  d E =-.302909E+00  mag=    41.7979
       N       E                     dE             d eps       ncg     rms          rms(c)
DAV:   1    -0.318614729091E+03    0.24153E+00   -0.55043E+01 32040   0.266E+01    0.460E+00
DAV:   2    -0.319227946840E+03   -0.61322E+00   -0.57867E+00 32120   0.623E+00    0.149E+01
DAV:   3    -0.319079113577E+03    0.14883E+00   -0.13978E+00 32576   0.479E+00    0.142E+01
DAV:   4    -0.319381786051E+03   -0.30267E+00   -0.10610E+00 33176   0.452E+00    0.198E+01
DAV:   5    -0.318992007209E+03    0.38978E+00   -0.71820E-01 35024   0.371E+00    0.105E+01
DAV:   6    -0.318923774563E+03    0.68233E-01   -0.44708E-01 34920   0.247E+00    0.673E+00
DAV:   7    -0.319043793882E+03   -0.12002E+00   -0.40321E-01 34472   0.247E+00    0.110E+01
DAV:   8    -0.318976642390E+03    0.67151E-01   -0.41781E-01 34488   0.231E+00    0.815E+00
DAV:   9    -0.318927236577E+03    0.49406E-01   -0.23578E-01 34336   0.198E+00    0.536E+00
DAV:  10    -0.318926706300E+03    0.53028E-03   -0.10676E-01 34688   0.134E+00    0.407E+00
DAV:  11    -0.318929826050E+03   -0.31198E-02   -0.44518E-02 34336   0.105E+00    0.325E+00
DAV:  12    -0.318924215879E+03    0.56102E-02   -0.27751E-02 33680   0.757E-01    0.272E+00
DAV:  13    -0.318923086491E+03    0.11294E-02   -0.11101E-02 34680   0.597E-01    0.226E+00
DAV:  14    -0.318923015988E+03    0.70503E-04   -0.12600E-02 33560   0.473E-01    0.271E+00
DAV:  15    -0.318917253465E+03    0.57625E-02   -0.92356E-03 34744   0.414E-01    0.173E+00
DAV:  16    -0.318922342537E+03   -0.50891E-02   -0.12933E-02 34240   0.576E-01    0.274E+00
DAV:  17    -0.318916074252E+03    0.62683E-02   -0.20401E-02 35656   0.590E-01    0.206E+00
DAV:  18    -0.318916287417E+03   -0.21317E-03   -0.12280E-02 33832   0.617E-01    0.165E+00
DAV:  19    -0.318920996103E+03   -0.47087E-02   -0.19403E-02 34448   0.607E-01    0.289E+00
DAV:  20    -0.318913074565E+03    0.79215E-02   -0.12319E-02 34672   0.510E-01    0.110E+00
DAV:  21    -0.318915471072E+03   -0.23965E-02   -0.37019E-03 34568   0.319E-01    0.153E+00
DAV:  22    -0.318914215829E+03    0.12552E-02   -0.33057E-03 34368   0.270E-01    0.118E+00
DAV:  23    -0.318913848162E+03    0.36767E-03   -0.90216E-04 33888   0.200E-01    0.108E+00
DAV:  24    -0.318914332906E+03   -0.48474E-03   -0.23933E-03 33576   0.211E-01    0.128E+00
DAV:  25    -0.318913059327E+03    0.12736E-02   -0.19952E-03 36000   0.181E-01    0.707E-01
DAV:  26    -0.318913013070E+03    0.46257E-04   -0.61868E-04 34360   0.125E-01    0.439E-01
DAV:  27    -0.318912793417E+03    0.21965E-03   -0.72820E-04 34856   0.130E-01    0.401E-01
DAV:  28    -0.318913023948E+03   -0.23053E-03   -0.95345E-04 32632   0.110E-01    0.371E-01
DAV:  29    -0.318913031229E+03   -0.72809E-05   -0.28950E-04 29808   0.992E-02    0.207E-01
DAV:  30    -0.318913004147E+03    0.27082E-04   -0.96524E-05 30280   0.488E-02    0.153E-01
DAV:  31    -0.318912973842E+03    0.30305E-04   -0.71085E-05 25968   0.481E-02    0.142E-01
DAV:  32    -0.318912971487E+03    0.23542E-05   -0.12848E-04 27248   0.466E-02    0.134E-01
DAV:  33    -0.318912970367E+03    0.11204E-05   -0.63581E-05 23776   0.377E-02
   3 F= -.31891297E+03 E0= -.31887658E+03  d E =-.359615E+00  mag=    41.7445
       N       E                     dE             d eps       ncg     rms          rms(c)
DAV:   1    -0.318468520586E+03    0.44445E+00   -0.48543E+01 35000   0.377E+01    0.628E+00
DAV:   2    -0.319328594130E+03   -0.86007E+00   -0.98783E+00 32144   0.799E+00    0.179E+01
DAV:   3    -0.319397919845E+03   -0.69326E-01   -0.24370E+00 33112   0.640E+00    0.186E+01
DAV:   4    -0.319680419545E+03   -0.28250E+00   -0.13421E+00 35600   0.607E+00    0.214E+01
DAV:   5    -0.319295535559E+03    0.38488E+00   -0.13881E+00 35200   0.485E+00    0.179E+01
DAV:   6    -0.318953502114E+03    0.34203E+00   -0.66696E-01 34752   0.398E+00    0.670E+00
DAV:   7    -0.319278748450E+03   -0.32525E+00   -0.56398E-01 35000   0.332E+00    0.181E+01
DAV:   8    -0.318959158329E+03    0.31959E+00   -0.50684E-01 34704   0.321E+00    0.594E+00
DAV:   9    -0.319029742152E+03   -0.70584E-01   -0.26537E-01 35280   0.243E+00    0.852E+00
DAV:  10    -0.319020940283E+03    0.88019E-02   -0.23494E-01 34864   0.191E+00    0.584E+00
DAV:  11    -0.319001133950E+03    0.19806E-01   -0.90364E-02 34368   0.149E+00    0.374E+00
DAV:  12    -0.318993388001E+03    0.77459E-02   -0.44672E-02 34464   0.869E-01    0.270E+00
DAV:  13    -0.318997444471E+03   -0.40565E-02   -0.19069E-02 34416   0.757E-01    0.287E+00
DAV:  14    -0.318988282416E+03    0.91621E-02   -0.91925E-03 34744   0.497E-01    0.211E+00
DAV:  15    -0.318986462486E+03    0.18199E-02   -0.51625E-03 36216   0.338E-01    0.192E+00
DAV:  16    -0.318996811723E+03   -0.10349E-01   -0.23571E-02 34120   0.757E-01    0.430E+00
DAV:  17    -0.318980300812E+03    0.16511E-01   -0.30473E-02 35000   0.764E-01    0.221E+00
DAV:  18    -0.318984743536E+03   -0.44427E-02   -0.18761E-02 34344   0.801E-01    0.228E+00
DAV:  19    -0.318990630998E+03   -0.58875E-02   -0.46205E-02 34296   0.810E-01    0.353E+00
DAV:  20    -0.318978442056E+03    0.12189E-01   -0.29069E-02 34248   0.707E-01    0.180E+00
DAV:  21    -0.318980626701E+03   -0.21846E-02   -0.49055E-03 33000   0.357E-01    0.187E+00
DAV:  22    -0.318979260189E+03    0.13665E-02   -0.49090E-03 34656   0.284E-01    0.173E+00
DAV:  23    -0.318978905292E+03    0.35490E-03   -0.13624E-03 33664   0.234E-01    0.164E+00
DAV:  24    -0.318977804901E+03    0.11004E-02   -0.16154E-03 35208   0.270E-01    0.140E+00
DAV:  25    -0.318979003566E+03   -0.11987E-02   -0.53603E-03 34072   0.259E-01    0.164E+00
DAV:  26    -0.318976659204E+03    0.23444E-02   -0.47686E-03 34664   0.321E-01    0.464E-01
DAV:  27    -0.318977375787E+03   -0.71658E-03   -0.16721E-03 33224   0.175E-01    0.526E-01
DAV:  28    -0.318977326400E+03    0.49387E-04   -0.10154E-03 34032   0.157E-01    0.297E-01
DAV:  29    -0.318977485545E+03   -0.15914E-03   -0.59431E-04 32104   0.110E-01    0.318E-01
DAV:  30    -0.318977469353E+03    0.16191E-04   -0.26093E-04 29504   0.795E-02    0.282E-01
DAV:  31    -0.318977397265E+03    0.72089E-04   -0.20256E-04 29696   0.808E-02    0.151E-01
DAV:  32    -0.318977419833E+03   -0.22568E-04   -0.13865E-04 27440   0.503E-02    0.124E-01
DAV:  33    -0.318977414079E+03    0.57537E-05   -0.37534E-05 24256   0.361E-02
   4 F= -.31897741E+03 E0= -.31894119E+03  d E =-.644437E-01  mag=    41.9154
       N       E                     dE             d eps       ncg     rms          rms(c)
DAV:   1    -0.318976654930E+03    0.76490E-03   -0.84494E-02 35280   0.158E+00    0.264E-01
DAV:   2    -0.318978486995E+03   -0.18321E-02   -0.17631E-02 32112   0.347E-01    0.107E+00
DAV:   3    -0.318977780277E+03    0.70672E-03   -0.58442E-03 32696   0.268E-01    0.687E-01
DAV:   4    -0.318979338447E+03   -0.15582E-02   -0.48597E-03 34872   0.261E-01    0.126E+00
DAV:   5    -0.318977464750E+03    0.18737E-02   -0.33571E-03 34392   0.233E-01    0.319E-01
DAV:   6    -0.318977583799E+03   -0.11905E-03   -0.56655E-04 31208   0.134E-01    0.313E-01
DAV:   7    -0.318977775698E+03   -0.19190E-03   -0.85401E-04 29336   0.109E-01    0.529E-01
DAV:   8    -0.318977536407E+03    0.23929E-03   -0.57418E-04 29752   0.110E-01    0.333E-01
DAV:   9    -0.318977507293E+03    0.29114E-04   -0.47328E-04 27216   0.827E-02    0.230E-01
DAV:  10    -0.318977636068E+03   -0.12878E-03   -0.41970E-04 27920   0.883E-02    0.358E-01
DAV:  11    -0.318977546839E+03    0.89229E-04   -0.40830E-04 26688   0.806E-02    0.234E-01
DAV:  12    -0.318977516948E+03    0.29890E-04   -0.15813E-04 25920   0.636E-02    0.128E-01
DAV:  13    -0.318977552339E+03   -0.35391E-04   -0.10394E-04 22888   0.411E-02    0.202E-01
DAV:  14    -0.318977515877E+03    0.36462E-04   -0.68291E-05 19720   0.346E-02    0.108E-01
DAV:  15    -0.318977529391E+03   -0.13514E-04   -0.39348E-05 16432   0.259E-02    0.152E-01
DAV:  16    -0.318977523294E+03    0.60976E-05   -0.50549E-05 20408   0.347E-02
   5 F= -.31897752E+03 E0= -.31894139E+03  d E =-.645529E-01  mag=    41.9204
       N       E                     dE             d eps       ncg     rms          rms(c)
DAV:   1    -0.318732404412E+03    0.24512E+00   -0.10089E+01 38376   0.208E+01    0.184E+00
DAV:   2    -0.319103057491E+03   -0.37065E+00   -0.28466E+00 32176   0.352E+00    0.113E+01
DAV:   3    -0.318984051293E+03    0.11901E+00   -0.42132E-01 32480   0.238E+00    0.350E+00
DAV:   4    -0.319088748345E+03   -0.10470E+00   -0.22895E-01 34400   0.181E+00    0.957E+00
DAV:   5    -0.319000182209E+03    0.88566E-01   -0.20237E-01 34504   0.155E+00    0.347E+00
DAV:   6    -0.318996760075E+03    0.34221E-02   -0.37925E-02 34304   0.105E+00    0.176E+00
DAV:   7    -0.319003548682E+03   -0.67886E-02   -0.29425E-02 34608   0.622E-01    0.282E+00
DAV:   8    -0.319004733894E+03   -0.11852E-02   -0.29243E-02 34176   0.670E-01    0.319E+00
DAV:   9    -0.318996233332E+03    0.85006E-02   -0.19717E-02 34760   0.605E-01    0.126E+00
DAV:  10    -0.319002631330E+03   -0.63980E-02   -0.12133E-02 34480   0.534E-01    0.213E+00
DAV:  11    -0.318999229731E+03    0.34016E-02   -0.13364E-02 34472   0.469E-01    0.138E+00
DAV:  12    -0.318997999761E+03    0.12300E-02   -0.36489E-03 35288   0.337E-01    0.853E-01
DAV:  13    -0.318998535697E+03   -0.53594E-03   -0.21407E-03 34272   0.187E-01    0.106E+00
DAV:  14    -0.318997736910E+03    0.79879E-03   -0.17561E-03 32880   0.171E-01    0.651E-01
DAV:  15    -0.318998300414E+03   -0.56350E-03   -0.95123E-04 31496   0.179E-01    0.838E-01
DAV:  16    -0.318998291663E+03    0.87511E-05   -0.22179E-03 32528   0.189E-01    0.908E-01
DAV:  17    -0.318997529884E+03    0.76178E-03   -0.15391E-03 34088   0.210E-01    0.580E-01
DAV:  18    -0.318998798748E+03   -0.12689E-02   -0.41848E-03 34072   0.211E-01    0.127E+00
DAV:  19    -0.318997055285E+03    0.17435E-02   -0.28371E-03 33912   0.245E-01    0.423E-01
DAV:  20    -0.318998230884E+03   -0.11756E-02   -0.26418E-03 34760   0.220E-01    0.106E+00
DAV:  21    -0.318997568640E+03    0.66224E-03   -0.27485E-03 34192   0.229E-01    0.682E-01
DAV:  22    -0.318997328823E+03    0.23982E-03   -0.10592E-03 33512   0.194E-01    0.666E-01
DAV:  23    -0.318997925490E+03   -0.59667E-03   -0.17673E-03 32344   0.186E-01    0.100E+00
DAV:  24    -0.318996986722E+03    0.93877E-03   -0.14280E-03 34008   0.197E-01    0.460E-01
DAV:  25    -0.318997190333E+03   -0.20361E-03   -0.49387E-04 33744   0.128E-01    0.370E-01
DAV:  26    -0.318997121553E+03    0.68779E-04   -0.24125E-04 30032   0.834E-02    0.270E-01
DAV:  27    -0.318997107500E+03    0.14053E-04   -0.53684E-05 26328   0.403E-02    0.261E-01
DAV:  28    -0.318997036078E+03    0.71422E-04   -0.89491E-05 26200   0.581E-02    0.201E-01
DAV:  29    -0.318997022164E+03    0.13914E-04   -0.99498E-05 28120   0.462E-02    0.178E-01
DAV:  30    -0.318997020383E+03    0.17808E-05   -0.75698E-05 26208   0.456E-02
   6 F= -.31899702E+03 E0= -.31896119E+03  d E =-.194971E-01  mag=    41.9474
       N       E                     dE             d eps       ncg     rms          rms(c)
DAV:   1    -0.318930562269E+03    0.66460E-01   -0.26193E+00 38448   0.106E+01    0.932E-01
DAV:   2    -0.319020338562E+03   -0.89776E-01   -0.73117E-01 32392   0.175E+00    0.525E+00
DAV:   3    -0.318997038227E+03    0.23300E-01   -0.10211E-01 33032   0.112E+00    0.190E+00
DAV:   4    -0.319018086499E+03   -0.21048E-01   -0.48074E-02 34216   0.893E-01    0.397E+00
DAV:   5    -0.319000624618E+03    0.17462E-01   -0.41122E-02 34160   0.744E-01    0.176E+00
DAV:   6    -0.318999052925E+03    0.15717E-02   -0.90959E-03 34600   0.468E-01    0.736E-01
DAV:   7    -0.319001413596E+03   -0.23607E-02   -0.70837E-03 34560   0.338E-01    0.146E+00
DAV:   8    -0.319000254479E+03    0.11591E-02   -0.63846E-03 34640   0.329E-01    0.130E+00
DAV:   9    -0.318999262192E+03    0.99229E-03   -0.36712E-03 34616   0.259E-01    0.689E-01
DAV:  10    -0.319000435218E+03   -0.11730E-02   -0.28267E-03 33880   0.252E-01    0.999E-01
DAV:  11    -0.318999766736E+03    0.66848E-03   -0.27608E-03 33496   0.211E-01    0.676E-01
DAV:  12    -0.318999419182E+03    0.34755E-03   -0.76069E-04 32760   0.151E-01    0.386E-01
DAV:  13    -0.318999456622E+03   -0.37441E-04   -0.23782E-04 28816   0.641E-02    0.420E-01
DAV:  14    -0.318999363404E+03    0.93218E-04   -0.13847E-04 25368   0.489E-02    0.329E-01
DAV:  15    -0.318999461571E+03   -0.98167E-04   -0.17460E-04 26696   0.662E-02    0.431E-01
DAV:  16    -0.318999453292E+03    0.82785E-05   -0.36778E-04 27256   0.807E-02    0.395E-01
DAV:  17    -0.318999323068E+03    0.13022E-03   -0.34979E-04 29312   0.105E-01    0.315E-01
DAV:  18    -0.318999565270E+03   -0.24220E-03   -0.82861E-04 29688   0.107E-01    0.563E-01
DAV:  19    -0.318999223455E+03    0.34181E-03   -0.64177E-04 32000   0.129E-01    0.227E-01
DAV:  20    -0.318999378355E+03   -0.15490E-03   -0.36945E-04 32000   0.111E-01    0.357E-01
DAV:  21    -0.318999416712E+03   -0.38357E-04   -0.54559E-04 29600   0.108E-01    0.476E-01
DAV:  22    -0.318999227489E+03    0.18922E-03   -0.34144E-04 29672   0.101E-01    0.359E-01
DAV:  23    -0.318999210081E+03    0.17409E-04   -0.20731E-04 30128   0.888E-02    0.255E-01
DAV:  24    -0.318999230523E+03   -0.20443E-04   -0.17129E-04 30744   0.706E-02    0.210E-01
DAV:  25    -0.318999214719E+03    0.15804E-04   -0.12150E-04 26712   0.524E-02    0.202E-01
DAV:  26    -0.318999192805E+03    0.21914E-04   -0.67275E-05 22376   0.317E-02    0.138E-01
DAV:  27    -0.318999196818E+03   -0.40130E-05   -0.11908E-05 16760   0.213E-02
   7 F= -.31899920E+03 E0= -.31896355E+03  d E =-.216735E-01  mag=    41.9558
       N       E                     dE             d eps       ncg     rms          rms(c)
DAV:   1    -0.318845034145E+03    0.15416E+00   -0.11503E+01 34912   0.169E+01    0.163E+00
DAV:   2    -0.319071088388E+03   -0.22605E+00   -0.19394E+00 32096   0.313E+00    0.834E+00
DAV:   3    -0.319011834246E+03    0.59254E-01   -0.31959E-01 32664   0.193E+00    0.371E+00
DAV:   4    -0.319059089149E+03   -0.47255E-01   -0.12164E-01 34624   0.152E+00    0.622E+00
DAV:   5    -0.319018509600E+03    0.40580E-01   -0.10425E-01 34376   0.126E+00    0.317E+00
DAV:   6    -0.319014872188E+03    0.36374E-02   -0.47186E-02 35040   0.944E-01    0.239E+00
DAV:   7    -0.319020499372E+03   -0.56272E-02   -0.40569E-02 34544   0.755E-01    0.284E+00
DAV:   8    -0.319020021511E+03    0.47786E-03   -0.32753E-02 34872   0.763E-01    0.286E+00
DAV:   9    -0.319012952297E+03    0.70692E-02   -0.25743E-02 34488   0.638E-01    0.147E+00
DAV:  10    -0.319014422916E+03   -0.14706E-02   -0.78021E-03 34520   0.480E-01    0.126E+00
DAV:  11    -0.319014387246E+03    0.35670E-04   -0.58365E-03 34224   0.342E-01    0.147E+00
DAV:  12    -0.319012548591E+03    0.18387E-02   -0.21187E-03 34064   0.217E-01    0.655E-01
DAV:  13    -0.319013100969E+03   -0.55238E-03   -0.92625E-04 31592   0.160E-01    0.855E-01
DAV:  14    -0.319012712787E+03    0.38818E-03   -0.97370E-04 31352   0.134E-01    0.693E-01
DAV:  15    -0.319012770984E+03   -0.58197E-04   -0.75590E-04 31056   0.152E-01    0.727E-01
DAV:  16    -0.319013962588E+03   -0.11916E-02   -0.28989E-03 32352   0.227E-01    0.129E+00
DAV:  17    -0.319011908396E+03    0.20542E-02   -0.29826E-03 34200   0.270E-01    0.543E-01
DAV:  18    -0.319013140424E+03   -0.12320E-02   -0.32020E-03 36152   0.259E-01    0.108E+00
DAV:  19    -0.319012535003E+03    0.60542E-03   -0.35058E-03 34208   0.265E-01    0.689E-01
DAV:  20    -0.319012106095E+03    0.42891E-03   -0.14659E-03 34120   0.218E-01    0.563E-01
DAV:  21    -0.319012562027E+03   -0.45593E-03   -0.13988E-03 32416   0.158E-01    0.944E-01
DAV:  22    -0.319011827530E+03    0.73450E-03   -0.71677E-04 31096   0.149E-01    0.531E-01
DAV:  23    -0.319012062566E+03   -0.23504E-03   -0.11200E-03 30280   0.128E-01    0.682E-01
DAV:  24    -0.319011979062E+03    0.83504E-04   -0.10582E-03 31328   0.161E-01    0.436E-01
DAV:  25    -0.319011771958E+03    0.20710E-03   -0.56202E-04 34384   0.149E-01    0.242E-01
DAV:  26    -0.319011801662E+03   -0.29704E-04   -0.19545E-04 30416   0.644E-02    0.202E-01
DAV:  27    -0.319011768203E+03    0.33460E-04   -0.11490E-04 26952   0.524E-02    0.103E-01
DAV:  28    -0.319011774634E+03   -0.64313E-05   -0.68938E-05 25760   0.418E-02
   8 F= -.31901177E+03 E0= -.31897623E+03  d E =-.125778E-01  mag=    41.9597
       N       E                     dE             d eps       ncg     rms          rms(c)
DAV:   1    -0.318934772283E+03    0.76996E-01   -0.53603E+00 34912   0.116E+01    0.111E+00
DAV:   2    -0.319037301942E+03   -0.10253E+00   -0.89522E-01 31848   0.212E+00    0.542E+00
DAV:   3    -0.319013565422E+03    0.23737E-01   -0.15784E-01 32808   0.132E+00    0.260E+00
DAV:   4    -0.319034927554E+03   -0.21362E-01   -0.65494E-02 34264   0.106E+00    0.418E+00
DAV:   5    -0.319015925158E+03    0.19002E-01   -0.52965E-02 34432   0.881E-01    0.211E+00
DAV:   6    -0.319013843117E+03    0.20820E-02   -0.20134E-02 35048   0.640E-01    0.153E+00
DAV:   7    -0.319016473610E+03   -0.26305E-02   -0.17056E-02 34528   0.487E-01    0.196E+00
DAV:   8    -0.319016845364E+03   -0.37175E-03   -0.15492E-02 34912   0.518E-01    0.205E+00
DAV:   9    -0.319013114132E+03    0.37312E-02   -0.12380E-02 34432   0.450E-01    0.108E+00
DAV:  10    -0.319013416931E+03   -0.30280E-03   -0.40970E-03 34464   0.330E-01    0.901E-01
DAV:  11    -0.319014249930E+03   -0.83300E-03   -0.45337E-03 33976   0.245E-01    0.127E+00
DAV:  12    -0.319012739604E+03    0.15103E-02   -0.18165E-03 33840   0.205E-01    0.507E-01
DAV:  13    -0.319012910613E+03   -0.17101E-03   -0.37089E-04 30104   0.899E-02    0.548E-01
DAV:  14    -0.319012815359E+03    0.95253E-04   -0.22639E-04 27240   0.656E-02    0.462E-01
DAV:  15    -0.319012831689E+03   -0.16330E-04   -0.16790E-04 27824   0.754E-02    0.479E-01
DAV:  16    -0.319013088396E+03   -0.25671E-03   -0.69509E-04 28592   0.111E-01    0.678E-01
DAV:  17    -0.319012589462E+03    0.49893E-03   -0.88830E-04 31880   0.157E-01    0.448E-01
DAV:  18    -0.319013075607E+03   -0.48615E-03   -0.14657E-03 33552   0.170E-01    0.777E-01
DAV:  19    -0.319012726280E+03    0.34933E-03   -0.15043E-03 33928   0.188E-01    0.453E-01
DAV:  20    -0.319012694180E+03    0.32100E-04   -0.89722E-04 33480   0.155E-01    0.550E-01
DAV:  21    -0.319012608898E+03    0.85282E-04   -0.47767E-04 30112   0.977E-02    0.513E-01
DAV:  22    -0.319012511892E+03    0.97006E-04   -0.33310E-04 28912   0.103E-01    0.442E-01
DAV:  23    -0.319012514817E+03   -0.29247E-05   -0.40800E-04 28216   0.817E-02    0.446E-01
DAV:  24    -0.319012547958E+03   -0.33142E-04   -0.48740E-04 30328   0.120E-01    0.327E-01
DAV:  25    -0.319012424434E+03    0.12352E-03   -0.29978E-04 32432   0.109E-01    0.167E-01
DAV:  26    -0.319012446967E+03   -0.22533E-04   -0.99381E-05 28680   0.450E-02    0.159E-01
DAV:  27    -0.319012425995E+03    0.20972E-04   -0.50977E-05 23688   0.365E-02    0.804E-02
DAV:  28    -0.319012425144E+03    0.85091E-06   -0.33228E-05 20968   0.288E-02
   9 F= -.31901243E+03 E0= -.31897691E+03  d E =-.132283E-01  mag=    41.9621
       N       E                     dE             d eps       ncg     rms          rms(c)
DAV:   1    -0.319002932164E+03    0.94938E-02   -0.68953E-01 34856   0.414E+00    0.389E-01
DAV:   2    -0.319015483898E+03   -0.12552E-01   -0.11332E-01 31600   0.750E-01    0.172E+00
DAV:   3    -0.319013549551E+03    0.19343E-02   -0.19515E-02 33336   0.462E-01    0.110E+00
DAV:   4    -0.319015649919E+03   -0.21004E-02   -0.80604E-03 33448   0.396E-01    0.133E+00
DAV:   5    -0.319013684459E+03    0.19655E-02   -0.59020E-03 34216   0.327E-01    0.853E-01
DAV:   6    -0.319013003998E+03    0.68046E-03   -0.19564E-03 33856   0.215E-01    0.372E-01
DAV:   7    -0.319013574648E+03   -0.57065E-03   -0.17235E-03 31224   0.158E-01    0.771E-01
DAV:   8    -0.319013303378E+03    0.27127E-03   -0.14935E-03 33064   0.158E-01    0.543E-01
DAV:   9    -0.319013071113E+03    0.23227E-03   -0.10143E-03 30792   0.142E-01    0.354E-01
DAV:  10    -0.319013044754E+03    0.26359E-04   -0.51237E-04 29344   0.101E-01    0.259E-01
DAV:  11    -0.319013169958E+03   -0.12520E-03   -0.50313E-04 27312   0.822E-02    0.433E-01
DAV:  12    -0.319012966306E+03    0.20365E-03   -0.25724E-04 25936   0.725E-02    0.122E-01
DAV:  13    -0.319012993732E+03   -0.27426E-04   -0.43126E-05 21544   0.370E-02    0.145E-01
DAV:  14    -0.319012991107E+03    0.26248E-05   -0.51219E-05 18840   0.310E-02
  10 F= -.31901299E+03 E0= -.31897746E+03  d E =-.137943E-01  mag=    41.9607
       N       E                     dE             d eps       ncg     rms          rms(c)
DAV:   1    -0.318918101683E+03    0.94892E-01   -0.88233E+00 33472   0.130E+01    0.127E+00
DAV:   2    -0.319107729855E+03   -0.18963E+00   -0.12574E+00 32192   0.273E+00    0.980E+00
DAV:   3    -0.319004646414E+03    0.10308E+00   -0.25452E-01 32208   0.184E+00    0.134E+00
DAV:   4    -0.319054373239E+03   -0.49727E-01   -0.78787E-02 34208   0.116E+00    0.536E+00
DAV:   5    -0.319018932757E+03    0.35440E-01   -0.57234E-02 34416   0.936E-01    0.143E+00
DAV:   6    -0.319024370521E+03   -0.54378E-02   -0.16857E-02 35128   0.576E-01    0.201E+00
DAV:   7    -0.319025302384E+03   -0.93186E-03   -0.14210E-02 35016   0.552E-01    0.168E+00
DAV:   8    -0.319025377571E+03   -0.75187E-04   -0.14075E-02 34968   0.542E-01    0.209E+00
DAV:   9    -0.319021788616E+03    0.35890E-02   -0.92243E-03 34536   0.400E-01    0.849E-01
DAV:  10    -0.319023669982E+03   -0.18814E-02   -0.51883E-03 34440   0.304E-01    0.131E+00
DAV:  11    -0.319022286993E+03    0.13830E-02   -0.43870E-03 34096   0.248E-01    0.715E-01
DAV:  12    -0.319022189023E+03    0.97970E-04   -0.13744E-03 33552   0.204E-01    0.561E-01
DAV:  13    -0.319022591886E+03   -0.40286E-03   -0.13589E-03 31168   0.144E-01    0.884E-01
DAV:  14    -0.319021911487E+03    0.68040E-03   -0.12062E-03 30176   0.136E-01    0.480E-01
DAV:  15    -0.319022427310E+03   -0.51582E-03   -0.84850E-04 31544   0.163E-01    0.770E-01
DAV:  16    -0.319022568765E+03   -0.14146E-03   -0.19245E-03 31144   0.178E-01    0.914E-01
DAV:  17    -0.319021567402E+03    0.10014E-02   -0.11227E-03 34672   0.199E-01    0.373E-01
DAV:  18    -0.319022736495E+03   -0.11691E-02   -0.24972E-03 34624   0.197E-01    0.108E+00
DAV:  19    -0.319021525656E+03    0.12108E-02   -0.24857E-03 34304   0.192E-01    0.341E-01
DAV:  20    -0.319021952827E+03   -0.42717E-03   -0.59908E-04 31248   0.145E-01    0.482E-01
DAV:  21    -0.319021832371E+03    0.12046E-03   -0.89764E-04 29928   0.124E-01    0.507E-01
DAV:  22    -0.319021653537E+03    0.17883E-03   -0.33748E-04 29440   0.871E-02    0.376E-01
DAV:  23    -0.319021669759E+03   -0.16223E-04   -0.21373E-04 27352   0.800E-02    0.364E-01
DAV:  24    -0.319021588775E+03    0.80984E-04   -0.18503E-04 27632   0.606E-02    0.221E-01
DAV:  25    -0.319021579690E+03    0.90857E-05   -0.72341E-05 24496   0.447E-02
  11 F= -.31902158E+03 E0= -.31898610E+03  d E =-.858858E-02  mag=    41.9698
       N       E                     dE             d eps       ncg     rms          rms(c)
DAV:   1    -0.318985577027E+03    0.36012E-01   -0.31669E+00 33456   0.778E+00    0.746E-01
DAV:   2    -0.319046816124E+03   -0.61239E-01   -0.43561E-01 32600   0.162E+00    0.499E+00
DAV:   3    -0.319021109029E+03    0.25707E-01   -0.92457E-02 32192   0.108E+00    0.156E+00
DAV:   4    -0.319030598730E+03   -0.94897E-02   -0.22027E-02 32752   0.765E-01    0.229E+00
DAV:   5    -0.319028419155E+03    0.21796E-02   -0.25945E-02 33960   0.596E-01    0.236E+00
DAV:   6    -0.319022224191E+03    0.61950E-02   -0.11523E-02 34944   0.487E-01    0.791E-01
DAV:   7    -0.319023767857E+03   -0.15437E-02   -0.42537E-03 34712   0.289E-01    0.109E+00
DAV:   8    -0.319023847660E+03   -0.79802E-04   -0.45169E-03 33968   0.261E-01    0.117E+00
DAV:   9    -0.319022634244E+03    0.12134E-02   -0.34787E-03 34328   0.220E-01    0.473E-01
DAV:  10    -0.319023455791E+03   -0.82155E-03   -0.19197E-03 32376   0.173E-01    0.931E-01
DAV:  11    -0.319022645065E+03    0.81073E-03   -0.14747E-03 31768   0.160E-01    0.356E-01
DAV:  12    -0.319022741835E+03   -0.96771E-04   -0.47673E-04 31336   0.130E-01    0.349E-01
DAV:  13    -0.319022938286E+03   -0.19645E-03   -0.90623E-04 29280   0.124E-01    0.595E-01
DAV:  14    -0.319022578320E+03    0.35997E-03   -0.11542E-03 30600   0.132E-01    0.287E-01
DAV:  15    -0.319022971233E+03   -0.39291E-03   -0.12058E-03 30312   0.141E-01    0.603E-01
DAV:  16    -0.319022926717E+03    0.44516E-04   -0.12799E-03 30376   0.147E-01    0.498E-01
DAV:  17    -0.319022638552E+03    0.28816E-03   -0.61706E-04 31328   0.131E-01    0.279E-01
DAV:  18    -0.319022666479E+03   -0.27926E-04   -0.33614E-04 27824   0.768E-02    0.272E-01
DAV:  19    -0.319022647257E+03    0.19221E-04   -0.16618E-04 26624   0.664E-02    0.213E-01
DAV:  20    -0.319022611849E+03    0.35408E-04   -0.89431E-05 23336   0.448E-02    0.160E-01
DAV:  21    -0.319022609629E+03    0.22199E-05   -0.46933E-05 20280   0.348E-02
  12 F= -.31902261E+03 E0= -.31898720E+03  d E =-.961852E-02  mag=    41.9750
       N       E                     dE             d eps       ncg     rms          rms(c)
DAV:   1    -0.318979072849E+03    0.43539E-01   -0.38620E+00 33336   0.864E+00    0.710E-01
DAV:   2    -0.319041332273E+03   -0.62259E-01   -0.51866E-01 31912   0.159E+00    0.415E+00
DAV:   3    -0.319025425568E+03    0.15907E-01   -0.85100E-02 32888   0.990E-01    0.166E+00
DAV:   4    -0.319038970200E+03   -0.13545E-01   -0.35740E-02 33976   0.735E-01    0.343E+00
DAV:   5    -0.319027475764E+03    0.11494E-01   -0.28192E-02 34464   0.606E-01    0.133E+00
DAV:   6    -0.319026147962E+03    0.13278E-02   -0.55013E-03 34704   0.400E-01    0.736E-01
DAV:   7    -0.319026554963E+03   -0.40700E-03   -0.35203E-03 34176   0.214E-01    0.855E-01
DAV:   8    -0.319027236901E+03   -0.68194E-03   -0.37464E-03 34280   0.266E-01    0.108E+00
DAV:   9    -0.319026115885E+03    0.11210E-02   -0.30344E-03 34488   0.251E-01    0.607E-01
DAV:  10    -0.319026225999E+03   -0.11011E-03   -0.15234E-03 33784   0.176E-01    0.583E-01
DAV:  11    -0.319026334920E+03   -0.10892E-03   -0.12722E-03 30656   0.137E-01    0.602E-01
DAV:  12    -0.319025980972E+03    0.35395E-03   -0.54550E-04 30080   0.117E-01    0.267E-01
DAV:  13    -0.319026009625E+03   -0.28653E-04   -0.69705E-05 25272   0.402E-02    0.277E-01
DAV:  14    -0.319025989171E+03    0.20454E-04   -0.13980E-05 16280   0.173E-02    0.270E-01
DAV:  15    -0.319025983639E+03    0.55323E-05   -0.76636E-06 15512   0.132E-02
  13 F= -.31902598E+03 E0= -.31899073E+03  d E =-.337401E-02  mag=    41.9777
       N       E                     dE             d eps       ncg     rms          rms(c)
DAV:   1    -0.319005283438E+03    0.20706E-01   -0.17513E+00 33328   0.582E+00    0.493E-01
DAV:   2    -0.319034815803E+03   -0.29532E-01   -0.23544E-01 32320   0.108E+00    0.314E+00
DAV:   3    -0.319025415253E+03    0.94005E-02   -0.41347E-02 32400   0.687E-01    0.943E-01
DAV:   4    -0.319031049559E+03   -0.56343E-02   -0.10077E-02 34168   0.481E-01    0.198E+00
DAV:   5    -0.319026701611E+03    0.43479E-02   -0.89613E-03 34296   0.383E-01    0.867E-01
DAV:   6    -0.319026450100E+03    0.25151E-03   -0.29101E-03 34408   0.248E-01    0.671E-01
DAV:   7    -0.319026529999E+03   -0.79899E-04   -0.18541E-03 33136   0.181E-01    0.606E-01
DAV:   8    -0.319027030290E+03   -0.50029E-03   -0.21997E-03 34520   0.207E-01    0.825E-01
DAV:   9    -0.319026397202E+03    0.63309E-03   -0.15482E-03 34488   0.176E-01    0.462E-01
DAV:  10    -0.319026343440E+03    0.53761E-04   -0.37617E-04 30296   0.106E-01    0.368E-01
DAV:  11    -0.319026342443E+03    0.99698E-06   -0.14784E-04 27424   0.574E-02    0.361E-01
DAV:  12    -0.319026280763E+03    0.61680E-04   -0.64204E-05 22928   0.354E-02    0.282E-01
DAV:  13    -0.319026286392E+03   -0.56290E-05   -0.10881E-05 16040   0.206E-02
  14 F= -.31902629E+03 E0= -.31899073E+03  d E =-.367676E-02  mag=    41.9799
       N       E                     dE             d eps       ncg     rms          rms(c)
DAV:   1    -0.318995862604E+03    0.30418E-01   -0.24470E+00 34368   0.737E+00    0.835E-01
DAV:   2    -0.319064290198E+03   -0.68428E-01   -0.46734E-01 32376   0.159E+00    0.631E+00
DAV:   3    -0.319021889230E+03    0.42401E-01   -0.15299E-01 32272   0.122E+00    0.107E+00
DAV:   4    -0.319043322493E+03   -0.21433E-01   -0.31074E-02 33984   0.800E-01    0.363E+00
DAV:   5    -0.319029529838E+03    0.13793E-01   -0.31899E-02 34696   0.660E-01    0.156E+00
DAV:   6    -0.319028155492E+03    0.13743E-02   -0.82616E-03 34760   0.447E-01    0.982E-01
DAV:   7    -0.319031201560E+03   -0.30461E-02   -0.10372E-02 34912   0.357E-01    0.190E+00
DAV:   8    -0.319028913165E+03    0.22884E-02   -0.11001E-02 34896   0.378E-01    0.114E+00
DAV:   9    -0.319028741862E+03    0.17130E-03   -0.41435E-03 34632   0.288E-01    0.809E-01
DAV:  10    -0.319029193909E+03   -0.45205E-03   -0.17923E-03 33896   0.212E-01    0.842E-01
DAV:  11    -0.319028752668E+03    0.44124E-03   -0.11371E-03 32656   0.142E-01    0.620E-01
DAV:  12    -0.319028621879E+03    0.13079E-03   -0.31296E-04 29520   0.946E-02    0.512E-01
DAV:  13    -0.319028601540E+03    0.20338E-04   -0.67714E-05 25288   0.361E-02    0.505E-01
DAV:  14    -0.319028567363E+03    0.34177E-04   -0.28284E-05 18072   0.266E-02    0.486E-01
DAV:  15    -0.319028676903E+03   -0.10954E-03   -0.21442E-04 26368   0.634E-02    0.604E-01
DAV:  16    -0.319028684822E+03   -0.79197E-05   -0.58762E-04 29736   0.127E-01    0.555E-01
DAV:  17    -0.319028324016E+03    0.36081E-03   -0.60289E-04 32904   0.154E-01    0.418E-01
DAV:  18    -0.319029105569E+03   -0.78155E-03   -0.22159E-03 34408   0.170E-01    0.979E-01
DAV:  19    -0.319028193520E+03    0.91205E-03   -0.14513E-03 33584   0.179E-01    0.337E-01
DAV:  20    -0.319028483476E+03   -0.28996E-03   -0.63299E-04 30840   0.115E-01    0.522E-01
DAV:  21    -0.319028369595E+03    0.11388E-03   -0.51020E-04 29408   0.978E-02    0.412E-01
DAV:  22    -0.319028265468E+03    0.10413E-03   -0.21523E-04 28224   0.912E-02    0.324E-01
DAV:  23    -0.319028292033E+03   -0.26565E-04   -0.25595E-04 28928   0.879E-02    0.295E-01
DAV:  24    -0.319028252526E+03    0.39507E-04   -0.23438E-04 29720   0.699E-02    0.214E-01
DAV:  25    -0.319028280026E+03   -0.27500E-04   -0.12773E-04 26728   0.645E-02    0.197E-01
DAV:  26    -0.319028223280E+03    0.56746E-04   -0.80558E-05 24792   0.534E-02    0.118E-01
DAV:  27    -0.319028203507E+03    0.19772E-04   -0.47493E-05 23736   0.380E-02    0.771E-02
DAV:  28    -0.319028223204E+03   -0.19697E-04   -0.60566E-05 22056   0.317E-02    0.106E-01
DAV:  29    -0.319028231253E+03   -0.80487E-05   -0.32876E-05 21368   0.343E-02
  15 F= -.31902823E+03 E0= -.31899271E+03  d E =-.194486E-02  mag=    41.9839
       N       E                     dE             d eps       ncg     rms          rms(c)
DAV:   1    -0.319020201118E+03    0.80221E-02   -0.61206E-01 34368   0.369E+00    0.368E-01
DAV:   2    -0.319029807876E+03   -0.96068E-02   -0.93031E-02 31976   0.659E-01    0.120E+00
DAV:   3    -0.319030181943E+03   -0.37407E-03   -0.14477E-02 33088   0.413E-01    0.147E+00
DAV:   4    -0.319031070645E+03   -0.88870E-03   -0.63782E-03 34264   0.364E-01    0.146E+00
DAV:   5    -0.319028917691E+03    0.21530E-02   -0.52406E-03 34128   0.298E-01    0.738E-01
DAV:   6    -0.319028465557E+03    0.45213E-03   -0.13630E-03 33688   0.194E-01    0.309E-01
DAV:   7    -0.319029256290E+03   -0.79073E-03   -0.17802E-03 31480   0.164E-01    0.907E-01
DAV:   8    -0.319028554210E+03    0.70208E-03   -0.16735E-03 33768   0.162E-01    0.378E-01
DAV:   9    -0.319028594492E+03   -0.40281E-04   -0.70293E-04 30072   0.129E-01    0.333E-01
DAV:  10    -0.319028662842E+03   -0.68350E-04   -0.46684E-04 28872   0.954E-02    0.336E-01
DAV:  11    -0.319028589313E+03    0.73529E-04   -0.22494E-04 27552   0.759E-02    0.257E-01
DAV:  12    -0.319028551909E+03    0.37404E-04   -0.71045E-05 22920   0.381E-02    0.173E-01
DAV:  13    -0.319028551543E+03    0.36537E-06   -0.11424E-05 15656   0.175E-02
  16 F= -.31902855E+03 E0= -.31899312E+03  d E =-.226515E-02  mag=    41.9847
       N       E                     dE             d eps       ncg     rms          rms(c)
DAV:   1    -0.319022617484E+03    0.59344E-02   -0.41912E-01 35888   0.354E+00    0.446E-01
DAV:   2    -0.319039603858E+03   -0.16986E-01   -0.10372E-01 32592   0.794E-01    0.338E+00
DAV:   3    -0.319027792262E+03    0.11812E-01   -0.37511E-02 32296   0.623E-01    0.538E-01
DAV:   4    -0.319032396324E+03   -0.46041E-02   -0.67053E-03 34416   0.352E-01    0.165E+00
DAV:   5    -0.319029199912E+03    0.31964E-02   -0.50459E-03 34616   0.286E-01    0.546E-01
DAV:   6    -0.319030016921E+03   -0.81701E-03   -0.26977E-03 34568   0.224E-01    0.920E-01
DAV:   7    -0.319030709771E+03   -0.69285E-03   -0.53054E-03 34496   0.270E-01    0.109E+00
DAV:   8    -0.319029930038E+03    0.77973E-03   -0.37942E-03 34200   0.288E-01    0.842E-01
DAV:   9    -0.319029984998E+03   -0.54960E-04   -0.26843E-03 34400   0.224E-01    0.692E-01
DAV:  10    -0.319030068935E+03   -0.83937E-04   -0.88941E-04 31456   0.170E-01    0.545E-01
DAV:  11    -0.319029876187E+03    0.19275E-03   -0.61312E-04 30112   0.105E-01    0.387E-01
DAV:  12    -0.319029834285E+03    0.41902E-04   -0.18125E-04 27416   0.653E-02    0.325E-01
DAV:  13    -0.319029844216E+03   -0.99308E-05   -0.14393E-04 25776   0.509E-02    0.360E-01
DAV:  14    -0.319029775608E+03    0.68608E-04   -0.82691E-05 25056   0.450E-02    0.274E-01
DAV:  15    -0.319029836373E+03   -0.60766E-04   -0.16808E-04 26080   0.587E-02    0.361E-01
DAV:  16    -0.319029809592E+03    0.26781E-04   -0.35827E-04 27872   0.850E-02    0.313E-01
DAV:  17    -0.319029677275E+03    0.13232E-03   -0.24371E-04 29280   0.933E-02    0.171E-01
DAV:  18    -0.319029809681E+03   -0.13241E-03   -0.30319E-04 29568   0.745E-02    0.366E-01
DAV:  19    -0.319029683155E+03    0.12653E-03   -0.25878E-04 28176   0.652E-02    0.145E-01
DAV:  20    -0.319029711720E+03   -0.28566E-04   -0.64418E-05 23408   0.410E-02    0.184E-01
DAV:  21    -0.319029702913E+03    0.88076E-05   -0.65487E-05 21968   0.386E-02
  17 F= -.31902970E+03 E0= -.31899413E+03  d E =-.115137E-02  mag=    41.9843
       N       E                     dE             d eps       ncg     rms          rms(c)
DAV:   1    -0.318992835083E+03    0.36877E-01   -0.21771E+00 35872   0.807E+00    0.866E-01
DAV:   2    -0.319049415748E+03   -0.56581E-01   -0.44506E-01 31984   0.155E+00    0.461E+00
DAV:   3    -0.319029121174E+03    0.20295E-01   -0.90175E-02 32952   0.104E+00    0.148E+00
DAV:   4    -0.319042263742E+03   -0.13143E-01   -0.27064E-02 34904   0.698E-01    0.332E+00
DAV:   5    -0.319028868107E+03    0.13396E-01   -0.22384E-02 34344   0.593E-01    0.106E+00
DAV:   6    -0.319030972880E+03   -0.21048E-02   -0.66573E-03 35608   0.418E-01    0.143E+00
DAV:   7    -0.319035123118E+03   -0.41502E-02   -0.16339E-02 34752   0.514E-01    0.220E+00
DAV:   8    -0.319030629514E+03    0.44936E-02   -0.13216E-02 34656   0.531E-01    0.153E+00
DAV:   9    -0.319031548512E+03   -0.91900E-03   -0.10062E-02 34688   0.403E-01    0.157E+00
DAV:  10    -0.319031571178E+03   -0.22666E-04   -0.43324E-03 34384   0.323E-01    0.111E+00
DAV:  11    -0.319030983939E+03    0.58724E-03   -0.24921E-03 34664   0.211E-01    0.861E-01
DAV:  12    -0.319030702550E+03    0.28139E-03   -0.53991E-04 31872   0.109E-01    0.724E-01
DAV:  13    -0.319030655579E+03    0.46971E-04   -0.96241E-05 27320   0.410E-02    0.720E-01
DAV:  14    -0.319030622834E+03    0.32745E-04   -0.10791E-04 24456   0.417E-02    0.720E-01
DAV:  15    -0.319030692487E+03   -0.69653E-04   -0.24654E-04 28112   0.836E-02    0.755E-01
DAV:  16    -0.319030727038E+03   -0.34551E-04   -0.89841E-04 30184   0.135E-01    0.795E-01
DAV:  17    -0.319030088355E+03    0.63868E-03   -0.85845E-04 33168   0.171E-01    0.490E-01
DAV:  18    -0.319030919167E+03   -0.83081E-03   -0.22927E-03 33880   0.190E-01    0.101E+00
DAV:  19    -0.319029877473E+03    0.10417E-02   -0.14797E-03 35176   0.176E-01    0.285E-01
DAV:  20    -0.319030179235E+03   -0.30176E-03   -0.59553E-04 29992   0.990E-02    0.487E-01
DAV:  21    -0.319030013980E+03    0.16525E-03   -0.30206E-04 28624   0.812E-02    0.277E-01
DAV:  22    -0.319030018362E+03   -0.43817E-05   -0.15571E-04 28040   0.716E-02    0.289E-01
DAV:  23    -0.319030104949E+03   -0.86588E-04   -0.45589E-04 26840   0.770E-02    0.403E-01
DAV:  24    -0.319029908681E+03    0.19627E-03   -0.35776E-04 28624   0.944E-02    0.168E-01
DAV:  25    -0.319029989758E+03   -0.81078E-04   -0.19736E-04 31064   0.809E-02    0.192E-01
DAV:  26    -0.319029947190E+03    0.42568E-04   -0.14442E-04 30312   0.690E-02    0.167E-01
DAV:  27    -0.319029941230E+03    0.59600E-05   -0.36043E-05 22096   0.324E-02
  18 F= -.31902994E+03 E0= -.31899441E+03  d E =-.138969E-02  mag=    41.9801
       N       E                     dE             d eps       ncg     rms          rms(c)
DAV:   1    -0.319026373591E+03    0.35736E-02   -0.21915E-01 35840   0.255E+00    0.279E-01
DAV:   2    -0.319036060284E+03   -0.96867E-02   -0.52671E-02 33024   0.571E-01    0.268E+00
DAV:   3    -0.319028822837E+03    0.72374E-02   -0.16797E-02 32680   0.449E-01    0.345E-01
DAV:   4    -0.319031761992E+03   -0.29392E-02   -0.40848E-03 32984   0.275E-01    0.126E+00
DAV:   5    -0.319030255307E+03    0.15067E-02   -0.29067E-03 33400   0.222E-01    0.491E-01
DAV:   6    -0.319030272523E+03   -0.17217E-04   -0.11083E-03 31696   0.147E-01    0.419E-01
DAV:   7    -0.319030302458E+03   -0.29935E-04   -0.86017E-04 29896   0.111E-01    0.359E-01
DAV:   8    -0.319030459246E+03   -0.15679E-03   -0.95443E-04 29856   0.119E-01    0.578E-01
DAV:   9    -0.319030150431E+03    0.30881E-03   -0.67009E-04 29768   0.111E-01    0.194E-01
DAV:  10    -0.319030367193E+03   -0.21676E-03   -0.40689E-04 28520   0.894E-02    0.357E-01
DAV:  11    -0.319030266808E+03    0.10039E-03   -0.37218E-04 26152   0.726E-02    0.215E-01
DAV:  12    -0.319030245105E+03    0.21703E-04   -0.74948E-05 25096   0.479E-02    0.148E-01
DAV:  13    -0.319030250927E+03   -0.58223E-05   -0.46089E-05 18248   0.265E-02
  19 F= -.31903025E+03 E0= -.31899465E+03  d E =-.169938E-02  mag=    41.9806
       N       E                     dE             d eps       ncg     rms          rms(c)
DAV:   1    -0.319025626722E+03    0.46184E-02   -0.35837E-01 34560   0.293E+00    0.288E-01
DAV:   2    -0.319033400604E+03   -0.77739E-02   -0.58249E-02 32264   0.572E-01    0.164E+00
DAV:   3    -0.319030699597E+03    0.27010E-02   -0.10153E-02 33152   0.384E-01    0.528E-01
DAV:   4    -0.319032662847E+03   -0.19632E-02   -0.41985E-03 32968   0.259E-01    0.137E+00
DAV:   5    -0.319030711446E+03    0.19514E-02   -0.26479E-03 33096   0.212E-01    0.366E-01
DAV:   6    -0.319030883582E+03   -0.17214E-03   -0.75532E-04 31168   0.142E-01    0.385E-01
DAV:   7    -0.319031007277E+03   -0.12369E-03   -0.84218E-04 29816   0.126E-01    0.423E-01
DAV:   8    -0.319030922990E+03    0.84287E-04   -0.77187E-04 30128   0.139E-01    0.342E-01
DAV:   9    -0.319031112371E+03   -0.18938E-03   -0.94776E-04 30288   0.125E-01    0.504E-01
DAV:  10    -0.319031130321E+03   -0.17950E-04   -0.74651E-04 28560   0.118E-01    0.385E-01
DAV:  11    -0.319030981536E+03    0.14878E-03   -0.23979E-04 28864   0.903E-02    0.210E-01
DAV:  12    -0.319030971108E+03    0.10429E-04   -0.10043E-04 25312   0.425E-02    0.167E-01
DAV:  13    -0.319030963885E+03    0.72225E-05   -0.42546E-05 20800   0.352E-02
  20 F= -.31903096E+03 E0= -.31899537E+03  d E =-.712958E-03  mag=    41.9806
       N       E                     dE             d eps       ncg     rms          rms(c)
DAV:   1    -0.319011998548E+03    0.18973E-01   -0.13077E+00 34520   0.559E+00    0.452E-01
DAV:   2    -0.319040272940E+03   -0.28274E-01   -0.21113E-01 32208   0.103E+00    0.332E+00
DAV:   3    -0.319029626710E+03    0.10646E-01   -0.29837E-02 32600   0.654E-01    0.619E-01
DAV:   4    -0.319036685843E+03   -0.70591E-02   -0.12197E-02 34312   0.443E-01    0.225E+00
DAV:   5    -0.319031112676E+03    0.55732E-02   -0.11003E-02 34280   0.367E-01    0.573E-01
DAV:   6    -0.319031710977E+03   -0.59830E-03   -0.21101E-03 34104   0.215E-01    0.559E-01
DAV:   7    -0.319031817556E+03   -0.10658E-03   -0.13091E-03 32424   0.162E-01    0.508E-01
DAV:   8    -0.319031830174E+03   -0.12618E-04   -0.10709E-03 33704   0.158E-01    0.630E-01
DAV:   9    -0.319031469615E+03    0.36056E-03   -0.96754E-04 31464   0.132E-01    0.302E-01
DAV:  10    -0.319031686012E+03   -0.21640E-03   -0.61052E-04 29616   0.114E-01    0.446E-01
DAV:  11    -0.319031564287E+03    0.12172E-03   -0.56349E-04 28232   0.950E-02    0.322E-01
DAV:  12    -0.319031475729E+03    0.88558E-04   -0.17815E-04 27088   0.710E-02    0.194E-01
DAV:  13    -0.319031479391E+03   -0.36613E-05   -0.53867E-05 22088   0.332E-02
  21 F= -.31903148E+03 E0= -.31899583E+03  d E =-.122846E-02  mag=    41.9788
       N       E                     dE             d eps       ncg     rms          rms(c)
DAV:   1    -0.319029034979E+03    0.24408E-02   -0.32555E-01 33184   0.230E+00    0.363E-01
DAV:   2    -0.319049445433E+03   -0.20410E-01   -0.77699E-02 32688   0.728E-01    0.468E+00
DAV:   3    -0.319027281415E+03    0.22164E-01   -0.37953E-02 31424   0.634E-01    0.588E-01
DAV:   4    -0.319033537811E+03   -0.62564E-02   -0.69697E-03 32144   0.324E-01    0.132E+00
DAV:   5    -0.319032191388E+03    0.13464E-02   -0.54965E-03 33616   0.248E-01    0.576E-01
DAV:   6    -0.319032350421E+03   -0.15903E-03   -0.19167E-03 33896   0.205E-01    0.592E-01
DAV:   7    -0.319032656348E+03   -0.30593E-03   -0.19392E-03 32736   0.180E-01    0.711E-01
DAV:   8    -0.319032159248E+03    0.49710E-03   -0.15021E-03 33160   0.176E-01    0.435E-01
DAV:   9    -0.319032210875E+03   -0.51626E-04   -0.83941E-04 32112   0.130E-01    0.446E-01
DAV:  10    -0.319032334056E+03   -0.12318E-03   -0.84146E-04 29480   0.122E-01    0.431E-01
DAV:  11    -0.319032203811E+03    0.13025E-03   -0.57718E-04 28768   0.981E-02    0.284E-01
DAV:  12    -0.319032146618E+03    0.57193E-04   -0.12230E-04 26264   0.578E-02    0.173E-01
DAV:  13    -0.319032151175E+03   -0.45569E-05   -0.28632E-05 18112   0.251E-02
  22 F= -.31903215E+03 E0= -.31899656E+03  d E =-.671784E-03  mag=    41.9786
