       N       E                     dE             d eps       ncg     rms          rms(c)
DAV:   1     0.371596907939E+04    0.37160E+04   -0.15280E+05 28568   0.153E+03
DAV:   2     0.227666588471E+03   -0.34883E+04   -0.33356E+04 27984   0.470E+02
DAV:   3    -0.217499869756E+03   -0.44517E+03   -0.43368E+03 31088   0.176E+02
DAV:   4    -0.238171905182E+03   -0.20672E+02   -0.20205E+02 37240   0.411E+01
DAV:   5    -0.239431724265E+03   -0.12598E+01   -0.12362E+01 48872   0.761E+00    0.497E+01
DAV:   6    -0.219761897340E+03    0.19670E+02   -0.14507E+02 38680   0.380E+01    0.249E+01
DAV:   7    -0.222659982085E+03   -0.28981E+01   -0.15942E+01 37480   0.143E+01    0.203E+01
DAV:   8    -0.222641335201E+03    0.18647E-01   -0.52139E+00 38520   0.777E+00    0.163E+01
DAV:   9    -0.223338630254E+03   -0.69730E+00   -0.10112E+01 38624   0.731E+00    0.174E+01
DAV:  10    -0.222980226323E+03    0.35840E+00   -0.38059E+00 38264   0.556E+00    0.116E+01
DAV:  11    -0.222970361846E+03    0.98645E-02   -0.23848E+00 38984   0.419E+00    0.133E+01
DAV:  12    -0.222710795791E+03    0.25957E+00   -0.54980E-01 38120   0.342E+00    0.853E+00
DAV:  13    -0.222625077524E+03    0.85718E-01   -0.89217E-01 38216   0.204E+00    0.472E+00
DAV:  14    -0.222606923281E+03    0.18154E-01   -0.15538E-01 38080   0.128E+00    0.342E+00
DAV:  15    -0.222597518806E+03    0.94045E-02   -0.67019E-02 38288   0.767E-01    0.203E+00
DAV:  16    -0.222594122714E+03    0.33961E-02   -0.23011E-02 38320   0.512E-01    0.119E+00
DAV:  17    -0.222595661906E+03   -0.15392E-02   -0.26489E-02 38744   0.588E-01    0.126E+00
DAV:  18    -0.222595327096E+03    0.33481E-03   -0.12623E-02 38112   0.482E-01    0.116E+00
DAV:  19    -0.222594288843E+03    0.10383E-02   -0.15028E-02 38176   0.492E-01    0.636E-01
DAV:  20    -0.222595034617E+03   -0.74577E-03   -0.53984E-03 38288   0.305E-01    0.441E-01
DAV:  21    -0.222595049014E+03   -0.14397E-04   -0.13329E-03 38128   0.186E-01    0.312E-01
DAV:  22    -0.222595190453E+03   -0.14144E-03   -0.12046E-03 37376   0.132E-01    0.287E-01
DAV:  23    -0.222595171458E+03    0.18996E-04   -0.10798E-03 37856   0.118E-01    0.155E-01
DAV:  24    -0.222595171932E+03   -0.47433E-06   -0.20228E-04 32936   0.695E-02    0.658E-02
DAV:  25    -0.222595174026E+03   -0.20937E-05   -0.43274E-05 26000   0.338E-02
   1 F= -.22259517E+03 E0= -.22258408E+03  d E =-.222595E+03  mag=    22.0024
       N       E                     dE             d eps       ncg     rms          rms(c)
DAV:   1    -0.222596142317E+03   -0.97039E-03   -0.37933E-02 31608   0.960E-01    0.800E-02
DAV:   2    -0.222596525562E+03   -0.38324E-03   -0.34845E-03 28856   0.179E-01    0.132E-01
DAV:   3    -0.222596524963E+03    0.59847E-06   -0.30077E-04 29792   0.571E-02    0.105E-01
DAV:   4    -0.222596524303E+03    0.65985E-06   -0.13680E-04 25760   0.377E-02    0.709E-02
DAV:   5    -0.222596518602E+03    0.57012E-05   -0.35171E-05 19760   0.218E-02
   2 F= -.22259652E+03 E0= -.22258545E+03  d E =-.134458E-02  mag=    22.0003
       N       E                     dE             d eps       ncg     rms          rms(c)
DAV:   1    -0.222575926283E+03    0.20598E-01   -0.30301E+00 30896   0.849E+00    0.718E-01
DAV:   2    -0.222605752330E+03   -0.29826E-01   -0.26780E-01 28512   0.158E+00    0.130E+00
DAV:   3    -0.222604850834E+03    0.90150E-03   -0.21750E-02 38000   0.563E-01    0.875E-01
DAV:   4    -0.222604815783E+03    0.35051E-04   -0.77617E-03 39408   0.260E-01    0.521E-01
DAV:   5    -0.222604573728E+03    0.24205E-03   -0.21758E-03 39064   0.167E-01    0.309E-01
DAV:   6    -0.222604646206E+03   -0.72478E-04   -0.60260E-04 38512   0.114E-01    0.286E-01
DAV:   7    -0.222604645823E+03    0.38326E-06   -0.99210E-04 38824   0.135E-01    0.228E-01
DAV:   8    -0.222604610570E+03    0.35253E-04   -0.35976E-04 37808   0.103E-01    0.115E-01
DAV:   9    -0.222604601796E+03    0.87741E-05   -0.95767E-05 28208   0.615E-02
   3 F= -.22260460E+03 E0= -.22259356E+03  d E =-.808319E-02  mag=    22.0000
       N       E                     dE             d eps       ncg     rms          rms(c)
DAV:   1    -0.222572167360E+03    0.32443E-01   -0.42805E+00 30128   0.955E+00    0.742E-01
DAV:   2    -0.222606162382E+03   -0.33995E-01   -0.31178E-01 28160   0.177E+00    0.120E+00
DAV:   3    -0.222606102722E+03    0.59661E-04   -0.16617E-02 38000   0.566E-01    0.927E-01
DAV:   4    -0.222605586676E+03    0.51605E-03   -0.56263E-03 39072   0.264E-01    0.410E-01
DAV:   5    -0.222605713433E+03   -0.12676E-03   -0.25890E-03 39072   0.155E-01    0.434E-01
DAV:   6    -0.222605599344E+03    0.11409E-03   -0.12535E-03 38456   0.142E-01    0.307E-01
DAV:   7    -0.222605559457E+03    0.39887E-04   -0.11437E-03 38200   0.155E-01    0.226E-01
DAV:   8    -0.222605581709E+03   -0.22252E-04   -0.63817E-04 38312   0.120E-01    0.150E-01
DAV:   9    -0.222605573619E+03    0.80894E-05   -0.22818E-04 32200   0.708E-02    0.850E-02
DAV:  10    -0.222605565566E+03    0.80533E-05   -0.49157E-05 23928   0.366E-02
   4 F= -.22260557E+03 E0= -.22259454E+03  d E =-.963770E-03  mag=    22.0000
       N       E                     dE             d eps       ncg     rms          rms(c)
DAV:   1    -0.222601099167E+03    0.44745E-02   -0.63352E-01 28888   0.319E+00    0.222E-01
DAV:   2    -0.222604547167E+03   -0.34480E-02   -0.32938E-02 28200   0.578E-01    0.280E-01
DAV:   3    -0.222604679591E+03   -0.13242E-03   -0.13172E-03 39024   0.163E-01    0.310E-01
DAV:   4    -0.222604584265E+03    0.95325E-04   -0.50802E-04 37240   0.100E-01    0.166E-01
DAV:   5    -0.222604578821E+03    0.54442E-05   -0.22734E-04 27704   0.500E-02    0.130E-01
DAV:   6    -0.222604598397E+03   -0.19576E-04   -0.20178E-04 32336   0.613E-02    0.165E-01
DAV:   7    -0.222604558597E+03    0.39800E-04   -0.19788E-04 31928   0.641E-02    0.813E-02
DAV:   8    -0.222604565201E+03   -0.66045E-05   -0.62599E-05 27024   0.503E-02
   5 F= -.22260457E+03 E0= -.22259352E+03  d E =0.100036E-02  mag=    22.0000
       N       E                     dE             d eps       ncg     rms          rms(c)
DAV:   1    -0.222477226960E+03    0.12733E+00   -0.16191E+01 29808   0.186E+01    0.144E+00
DAV:   2    -0.222599069347E+03   -0.12184E+00   -0.11259E+00 27976   0.335E+00    0.238E+00
DAV:   3    -0.222594534091E+03    0.45353E-02   -0.69192E-02 39216   0.112E+00    0.159E+00
DAV:   4    -0.222595238173E+03   -0.70408E-03   -0.41964E-02 39792   0.552E-01    0.117E+00
DAV:   5    -0.222593256820E+03    0.19814E-02   -0.79771E-03 38856   0.319E-01    0.431E-01
DAV:   6    -0.222593757209E+03   -0.50039E-03   -0.17628E-03 38592   0.244E-01    0.600E-01
DAV:   7    -0.222593285474E+03    0.47173E-03   -0.16545E-03 38496   0.202E-01    0.320E-01
DAV:   8    -0.222593339551E+03   -0.54077E-04   -0.95809E-04 39864   0.156E-01    0.203E-01
DAV:   9    -0.222593338508E+03    0.10432E-05   -0.42650E-04 38640   0.103E-01    0.125E-01
DAV:  10    -0.222593337498E+03    0.10100E-05   -0.11441E-04 28672   0.570E-02    0.728E-02
DAV:  11    -0.222593335964E+03    0.15341E-05   -0.53597E-05 24496   0.360E-02
   6 F= -.22259334E+03 E0= -.22258232E+03  d E =0.112292E-01  mag=    22.0000
       N       E                     dE             d eps       ncg     rms          rms(c)
DAV:   1    -0.216460680479E+03    0.61327E+01   -0.40086E+02 30728   0.105E+02    0.106E+01
DAV:   2    -0.222424482230E+03   -0.59638E+01   -0.55224E+01 28528   0.221E+01    0.133E+01
DAV:   3    -0.222297233812E+03    0.12725E+00   -0.48069E+00 37144   0.690E+00    0.851E+00
DAV:   4    -0.222162249105E+03    0.13498E+00   -0.55888E-01 38176   0.347E+00    0.569E+00
DAV:   5    -0.222185264800E+03   -0.23016E-01   -0.72351E-01 38472   0.235E+00    0.453E+00
DAV:   6    -0.222172019372E+03    0.13245E-01   -0.13970E-01 39000   0.173E+00    0.288E+00
DAV:   7    -0.222173323516E+03   -0.13041E-02   -0.99249E-02 38176   0.112E+00    0.235E+00
DAV:   8    -0.222180233155E+03   -0.69096E-02   -0.14080E-01 38664   0.101E+00    0.254E+00
DAV:   9    -0.222185246860E+03   -0.50137E-02   -0.11757E-01 38368   0.928E-01    0.268E+00
DAV:  10    -0.222175975344E+03    0.92715E-02   -0.76330E-02 38664   0.783E-01    0.134E+00
DAV:  11    -0.222177040218E+03   -0.10649E-02   -0.19508E-02 38952   0.616E-01    0.904E-01
DAV:  12    -0.222176913766E+03    0.12645E-03   -0.38229E-03 38336   0.360E-01    0.504E-01
DAV:  13    -0.222176732108E+03    0.18166E-03   -0.10209E-03 39176   0.163E-01    0.292E-01
DAV:  14    -0.222176691380E+03    0.40728E-04   -0.72972E-04 38656   0.159E-01    0.267E-01
DAV:  15    -0.222176513851E+03    0.17753E-03   -0.41298E-04 38672   0.131E-01    0.132E-01
DAV:  16    -0.222176515514E+03   -0.16630E-05   -0.40862E-04 33688   0.747E-02    0.950E-02
DAV:  17    -0.222176516520E+03   -0.10055E-05   -0.12665E-04 27296   0.468E-02    0.738E-02
DAV:  18    -0.222176506890E+03    0.96295E-05   -0.55787E-05 23176   0.312E-02
   7 F= -.22217651E+03 E0= -.22216545E+03  d E =0.416829E+00  mag=    22.0000
       N       E                     dE             d eps       ncg     rms          rms(c)
DAV:   1    -0.221249972637E+03    0.92654E+00   -0.80288E+01 30816   0.496E+01    0.499E+00
DAV:   2    -0.222567890962E+03   -0.13179E+01   -0.11660E+01 28120   0.952E+00    0.725E+00
DAV:   3    -0.222533257735E+03    0.34633E-01   -0.57141E-01 38592   0.328E+00    0.458E+00
DAV:   4    -0.222539055025E+03   -0.57973E-02   -0.15610E-01 39728   0.144E+00    0.276E+00
DAV:   5    -0.222530718416E+03    0.83366E-02   -0.78600E-02 36808   0.723E-01    0.140E+00
DAV:   6    -0.222538540134E+03   -0.78217E-02   -0.20398E-02 39496   0.719E-01    0.175E+00
DAV:   7    -0.222539464508E+03   -0.92437E-03   -0.25177E-02 38728   0.663E-01    0.160E+00
DAV:   8    -0.222538277407E+03    0.11871E-02   -0.15014E-02 38784   0.592E-01    0.119E+00
DAV:   9    -0.222536707094E+03    0.15703E-02   -0.96508E-03 38496   0.440E-01    0.536E-01
DAV:  10    -0.222536779203E+03   -0.72110E-04   -0.25419E-03 39160   0.264E-01    0.260E-01
DAV:  11    -0.222536936078E+03   -0.15687E-03   -0.68013E-04 38616   0.129E-01    0.126E-01
DAV:  12    -0.222536998482E+03   -0.62404E-04   -0.34491E-04 36184   0.888E-02    0.142E-01
DAV:  13    -0.222536985897E+03    0.12584E-04   -0.13641E-04 27936   0.561E-02    0.105E-01
DAV:  14    -0.222536970752E+03    0.15146E-04   -0.51065E-05 25208   0.368E-02    0.622E-02
DAV:  15    -0.222536962872E+03    0.78798E-05   -0.30546E-05 22552   0.260E-02
   8 F= -.22253696E+03 E0= -.22252566E+03  d E =-.360456E+00  mag=    22.0000
       N       E                     dE             d eps       ncg     rms          rms(c)
DAV:   1    -0.222051071730E+03    0.48590E+00   -0.36395E+01 30976   0.331E+01    0.335E+00
DAV:   2    -0.222636420149E+03   -0.58535E+00   -0.52066E+00 28240   0.628E+00    0.549E+00
DAV:   3    -0.222618549140E+03    0.17871E-01   -0.40606E-01 38472   0.231E+00    0.375E+00
DAV:   4    -0.222627059136E+03   -0.85100E-02   -0.23873E-01 38088   0.133E+00    0.317E+00
DAV:   5    -0.222609443597E+03    0.17616E-01   -0.21173E-02 38344   0.840E-01    0.825E-01
DAV:   6    -0.222613965839E+03   -0.45222E-02   -0.86254E-03 39656   0.421E-01    0.113E+00
DAV:   7    -0.222614002135E+03   -0.36296E-04   -0.22517E-02 38584   0.484E-01    0.854E-01
DAV:   8    -0.222613834913E+03    0.16722E-03   -0.58218E-03 38544   0.356E-01    0.637E-01
DAV:   9    -0.222613411363E+03    0.42355E-03   -0.27553E-03 38624   0.258E-01    0.228E-01
DAV:  10    -0.222613513418E+03   -0.10206E-03   -0.59237E-04 38728   0.145E-01    0.158E-01
DAV:  11    -0.222613510548E+03    0.28700E-05   -0.19501E-04 37424   0.797E-02    0.705E-02
DAV:  12    -0.222613518944E+03   -0.83956E-05   -0.98052E-05 27256   0.416E-02
   9 F= -.22261352E+03 E0= -.22260231E+03  d E =-.765561E-01  mag=    22.0000
       N       E                     dE             d eps       ncg     rms          rms(c)
DAV:   1    -0.222603410071E+03    0.10100E-01   -0.16145E+00 29936   0.614E+00    0.531E-01
DAV:   2    -0.222619764314E+03   -0.16354E-01   -0.14082E-01 30624   0.116E+00    0.129E+00
DAV:   3    -0.222617368308E+03    0.23960E-02   -0.13758E-02 37344   0.454E-01    0.515E-01
DAV:   4    -0.222617995720E+03   -0.62741E-03   -0.45151E-03 39304   0.199E-01    0.470E-01
DAV:   5    -0.222617658658E+03    0.33706E-03   -0.14569E-03 38464   0.148E-01    0.202E-01
DAV:   6    -0.222617726513E+03   -0.67855E-04   -0.35335E-04 35336   0.763E-02    0.219E-01
DAV:   7    -0.222617669527E+03    0.56986E-04   -0.36602E-04 37056   0.819E-02    0.110E-01
DAV:   8    -0.222617717677E+03   -0.48150E-04   -0.22308E-04 35520   0.743E-02    0.139E-01
DAV:   9    -0.222617686523E+03    0.31154E-04   -0.99535E-05 27416   0.525E-02    0.294E-02
DAV:  10    -0.222617690729E+03   -0.42058E-05   -0.14259E-05 17688   0.182E-02
  10 F= -.22261769E+03 E0= -.22260654E+03  d E =-.417179E-02  mag=    22.0000
       N       E                     dE             d eps       ncg     rms          rms(c)
DAV:   1    -0.222591970363E+03    0.25716E-01   -0.44327E+00 30032   0.909E+00    0.655E-01
DAV:   2    -0.222620453040E+03   -0.28483E-01   -0.25995E-01 28608   0.169E+00    0.127E+00
DAV:   3    -0.222619086706E+03    0.13663E-02   -0.14390E-02 37984   0.523E-01    0.736E-01
DAV:   4    -0.222619113091E+03   -0.26385E-04   -0.39730E-03 38872   0.217E-01    0.420E-01
DAV:   5    -0.222619100093E+03    0.12998E-04   -0.21097E-03 38872   0.153E-01    0.398E-01
DAV:   6    -0.222619081245E+03    0.18848E-04   -0.14088E-03 38568   0.139E-01    0.377E-01
DAV:   7    -0.222618887617E+03    0.19363E-03   -0.12932E-03 37560   0.160E-01    0.178E-01
DAV:   8    -0.222619016077E+03   -0.12846E-03   -0.51149E-04 38624   0.105E-01    0.218E-01
DAV:   9    -0.222618930298E+03    0.85778E-04   -0.22317E-04 32368   0.707E-02    0.436E-02
DAV:  10    -0.222618936275E+03   -0.59770E-05   -0.18944E-05 20792   0.185E-02
  11 F= -.22261894E+03 E0= -.22260781E+03  d E =-.124555E-02  mag=    22.0000
       N       E                     dE             d eps       ncg     rms          rms(c)
DAV:   1    -0.222615970286E+03    0.29600E-02   -0.59426E-01 29928   0.294E+00    0.180E-01
DAV:   2    -0.222618521423E+03   -0.25511E-02   -0.24505E-02 28504   0.522E-01    0.288E-01
DAV:   3    -0.222618537793E+03   -0.16370E-04   -0.20356E-03 38360   0.138E-01    0.256E-01
DAV:   4    -0.222618482544E+03    0.55249E-04   -0.53835E-04 34640   0.740E-02    0.123E-01
DAV:   5    -0.222618487493E+03   -0.49496E-05   -0.69160E-05 26608   0.430E-02
  12 F= -.22261849E+03 E0= -.22260733E+03  d E =0.448782E-03  mag=    22.0000
       N       E                     dE             d eps       ncg     rms          rms(c)
DAV:   1    -0.222608100760E+03    0.10382E-01   -0.30423E+00 29416   0.649E+00    0.391E-01
DAV:   2    -0.222619917037E+03   -0.11816E-01   -0.11331E-01 27664   0.112E+00    0.670E-01
DAV:   3    -0.222619720696E+03    0.19634E-03   -0.86542E-03 40704   0.320E-01    0.474E-01
DAV:   4    -0.222619622642E+03    0.98054E-04   -0.32106E-03 39080   0.175E-01    0.365E-01
DAV:   5    -0.222619410064E+03    0.21258E-03   -0.11967E-03 38768   0.108E-01    0.150E-01
DAV:   6    -0.222619418335E+03   -0.82713E-05   -0.30745E-04 37016   0.907E-02    0.201E-01
DAV:   7    -0.222619371550E+03    0.46786E-04   -0.27262E-04 39352   0.927E-02    0.139E-01
DAV:   8    -0.222619371332E+03    0.21836E-06   -0.11896E-04 33736   0.660E-02    0.986E-02
DAV:   9    -0.222619359056E+03    0.12276E-04   -0.52489E-05 24848   0.405E-02    0.304E-02
DAV:  10    -0.222619359719E+03   -0.66377E-06   -0.96887E-06 18416   0.227E-02
  13 F= -.22261936E+03 E0= -.22260817E+03  d E =-.872226E-03  mag=    22.0000
       N       E                     dE             d eps       ncg     rms          rms(c)
DAV:   1    -0.220787212085E+03    0.18321E+01   -0.18560E+02 30416   0.666E+01    0.527E+00
DAV:   2    -0.222420711408E+03   -0.16335E+01   -0.15169E+01 28168   0.123E+01    0.683E+00
DAV:   3    -0.222461777231E+03   -0.41066E-01   -0.93312E-01 38208   0.348E+00    0.556E+00
DAV:   4    -0.222460565510E+03    0.12117E-02   -0.69684E-01 39616   0.184E+00    0.524E+00
DAV:   5    -0.222421953460E+03    0.38612E-01   -0.28558E-01 38680   0.121E+00    0.219E+00
DAV:   6    -0.222433267153E+03   -0.11314E-01   -0.85289E-02 39176   0.884E-01    0.270E+00
DAV:   7    -0.222428200410E+03    0.50667E-02   -0.34764E-02 38272   0.769E-01    0.197E+00
DAV:   8    -0.222431496260E+03   -0.32959E-02   -0.64551E-02 38448   0.869E-01    0.231E+00
DAV:   9    -0.222424053733E+03    0.74425E-02   -0.35703E-02 38728   0.692E-01    0.804E-01
DAV:  10    -0.222424625510E+03   -0.57178E-03   -0.70986E-03 38736   0.390E-01    0.466E-01
DAV:  11    -0.222424602921E+03    0.22589E-04   -0.23546E-03 38472   0.218E-01    0.314E-01
DAV:  12    -0.222424539014E+03    0.63908E-04   -0.10389E-03 38208   0.134E-01    0.239E-01
DAV:  13    -0.222424501064E+03    0.37950E-04   -0.41861E-04 38520   0.102E-01    0.153E-01
DAV:  14    -0.222424497667E+03    0.33971E-05   -0.20731E-04 32000   0.802E-02    0.717E-02
DAV:  15    -0.222424505632E+03   -0.79656E-05   -0.95085E-05 27328   0.375E-02
  14 F= -.22242451E+03 E0= -.22241324E+03  d E =0.194854E+00  mag=    22.0000
       N       E                     dE             d eps       ncg     rms          rms(c)
DAV:   1    -0.221843787904E+03    0.58071E+00   -0.53330E+01 30952   0.408E+01    0.388E+00
DAV:   2    -0.222609500152E+03   -0.76571E+00   -0.69455E+00 28464   0.756E+00    0.593E+00
DAV:   3    -0.222613709239E+03   -0.42091E-02   -0.86505E-01 38632   0.257E+00    0.414E+00
DAV:   4    -0.222607869671E+03    0.58396E-02   -0.13043E-01 38976   0.131E+00    0.284E+00
DAV:   5    -0.222596991284E+03    0.10878E-01   -0.21451E-02 39000   0.819E-01    0.140E+00
DAV:   6    -0.222600738304E+03   -0.37470E-02   -0.29530E-02 38856   0.572E-01    0.135E+00
DAV:   7    -0.222602007278E+03   -0.12690E-02   -0.18506E-02 38824   0.602E-01    0.140E+00
DAV:   8    -0.222599688908E+03    0.23184E-02   -0.12277E-02 38880   0.501E-01    0.771E-01
DAV:   9    -0.222600459251E+03   -0.77034E-03   -0.11268E-02 39104   0.334E-01    0.796E-01
DAV:  10    -0.222599681125E+03    0.77813E-03   -0.42187E-03 38640   0.247E-01    0.316E-01
DAV:  11    -0.222599748396E+03   -0.67271E-04   -0.11111E-03 38992   0.150E-01    0.225E-01
DAV:  12    -0.222599728975E+03    0.19421E-04   -0.44418E-04 38080   0.926E-02    0.177E-01
DAV:  13    -0.222599713285E+03    0.15689E-04   -0.34506E-04 30984   0.733E-02    0.128E-01
DAV:  14    -0.222599692962E+03    0.20323E-04   -0.14808E-04 27440   0.432E-02    0.432E-02
DAV:  15    -0.222599694984E+03   -0.20219E-05   -0.19778E-05 22480   0.271E-02
  15 F= -.22259969E+03 E0= -.22258836E+03  d E =-.175189E+00  mag=    22.0000
       N       E                     dE             d eps       ncg     rms          rms(c)
DAV:   1    -0.222544300964E+03    0.55392E-01   -0.84310E+00 30464   0.144E+01    0.121E+00
DAV:   2    -0.222625813154E+03   -0.81512E-01   -0.73541E-01 28488   0.266E+00    0.233E+00
DAV:   3    -0.222621042669E+03    0.47705E-02   -0.73974E-02 38072   0.945E-01    0.142E+00
DAV:   4    -0.222621397359E+03   -0.35469E-03   -0.21123E-02 39464   0.434E-01    0.879E-01
DAV:   5    -0.222620617487E+03    0.77987E-03   -0.47574E-03 38872   0.307E-01    0.529E-01
DAV:   6    -0.222620897851E+03   -0.28036E-03   -0.21837E-03 39032   0.195E-01    0.556E-01
DAV:   7    -0.222620646140E+03    0.25171E-03   -0.38190E-03 38392   0.245E-01    0.349E-01
DAV:   8    -0.222620761504E+03   -0.11536E-03   -0.14132E-03 39120   0.169E-01    0.329E-01
DAV:   9    -0.222620582094E+03    0.17941E-03   -0.57460E-04 38672   0.120E-01    0.753E-02
DAV:  10    -0.222620595178E+03   -0.13084E-04   -0.70151E-05 28176   0.452E-02    0.652E-02
DAV:  11    -0.222620589147E+03    0.60314E-05   -0.50939E-05 23768   0.321E-02
  16 F= -.22262059E+03 E0= -.22260927E+03  d E =-.208942E-01  mag=    22.0000
       N       E                     dE             d eps       ncg     rms          rms(c)
DAV:   1    -0.222614584111E+03    0.60111E-02   -0.31344E+00 29688   0.638E+00    0.393E-01
DAV:   2    -0.222627060108E+03   -0.12476E-01   -0.11460E-01 30512   0.116E+00    0.961E-01
DAV:   3    -0.222625754339E+03    0.13058E-02   -0.56453E-03 37480   0.337E-01    0.407E-01
DAV:   4    -0.222625899851E+03   -0.14551E-03   -0.13429E-03 39232   0.122E-01    0.325E-01
DAV:   5    -0.222625911462E+03   -0.11611E-04   -0.11118E-03 38648   0.121E-01    0.342E-01
DAV:   6    -0.222625875959E+03    0.35503E-04   -0.77714E-04 38312   0.101E-01    0.329E-01
DAV:   7    -0.222625742489E+03    0.13347E-03   -0.97317E-04 37208   0.133E-01    0.216E-01
DAV:   8    -0.222625746982E+03   -0.44926E-05   -0.41209E-04 38456   0.103E-01    0.152E-01
DAV:   9    -0.222625726096E+03    0.20886E-04   -0.14615E-04 29424   0.580E-02    0.645E-02
DAV:  10    -0.222625724534E+03    0.15620E-05   -0.20184E-05 21880   0.273E-02
  17 F= -.22262572E+03 E0= -.22261440E+03  d E =-.513539E-02  mag=    22.0000
       N       E                     dE             d eps       ncg     rms          rms(c)
DAV:   1    -0.222610742344E+03    0.14984E-01   -0.42979E+00 28864   0.723E+00    0.422E-01
DAV:   2    -0.222626289370E+03   -0.15547E-01   -0.15155E-01 27856   0.128E+00    0.594E-01
DAV:   3    -0.222626492060E+03   -0.20269E-03   -0.53136E-03 39024   0.320E-01    0.572E-01
DAV:   4    -0.222626150917E+03    0.34114E-03   -0.18278E-03 39144   0.174E-01    0.327E-01
DAV:   5    -0.222626125370E+03    0.25547E-04   -0.75118E-04 38744   0.932E-02    0.288E-01
DAV:   6    -0.222626194013E+03   -0.68643E-04   -0.14160E-03 38440   0.127E-01    0.396E-01
DAV:   7    -0.222625933314E+03    0.26070E-03   -0.12538E-03 37352   0.140E-01    0.156E-01
DAV:   8    -0.222625998208E+03   -0.64894E-04   -0.34852E-04 38592   0.948E-02    0.150E-01
DAV:   9    -0.222625967524E+03    0.30684E-04   -0.15818E-04 29056   0.595E-02    0.570E-02
DAV:  10    -0.222625966876E+03    0.64804E-06   -0.22722E-05 21824   0.303E-02
  18 F= -.22262597E+03 E0= -.22261465E+03  d E =-.242343E-03  mag=    22.0000
       N       E                     dE             d eps       ncg     rms          rms(c)
DAV:   1    -0.222622843784E+03    0.31237E-02   -0.57068E-01 29208   0.289E+00    0.186E-01
DAV:   2    -0.222625370567E+03   -0.25268E-02   -0.23470E-02 28456   0.504E-01    0.394E-01
DAV:   3    -0.222625217523E+03    0.15304E-03   -0.24640E-03 38832   0.171E-01    0.217E-01
DAV:   4    -0.222625233740E+03   -0.16216E-04   -0.65598E-04 35688   0.813E-02    0.170E-01
DAV:   5    -0.222625186131E+03    0.47609E-04   -0.20357E-04 26784   0.492E-02    0.586E-02
DAV:   6    -0.222625199274E+03   -0.13143E-04   -0.50718E-05 24864   0.376E-02    0.991E-02
DAV:   7    -0.222625182315E+03    0.16960E-04   -0.73219E-05 29312   0.437E-02    0.439E-02
DAV:   8    -0.222625185005E+03   -0.26906E-05   -0.16282E-05 20080   0.269E-02
  19 F= -.22262519E+03 E0= -.22261388E+03  d E =0.781871E-03  mag=    22.0000
       N       E                     dE             d eps       ncg     rms          rms(c)
DAV:   1    -0.222621185569E+03    0.39967E-02   -0.89498E-01 29336   0.325E+00    0.186E-01
DAV:   2    -0.222624198010E+03   -0.30124E-02   -0.28948E-02 27992   0.562E-01    0.337E-01
DAV:   3    -0.222624128464E+03    0.69547E-04   -0.17200E-03 39024   0.164E-01    0.229E-01
DAV:   4    -0.222624086864E+03    0.41600E-04   -0.44097E-04 35576   0.735E-02    0.141E-01
DAV:   5    -0.222624065179E+03    0.21685E-04   -0.18127E-04 26536   0.465E-02    0.908E-02
DAV:   6    -0.222624070042E+03   -0.48625E-05   -0.11640E-04 29536   0.471E-02    0.121E-01
DAV:   7    -0.222624047879E+03    0.22163E-04   -0.12411E-04 33768   0.560E-02    0.739E-02
DAV:   8    -0.222624048243E+03   -0.36411E-06   -0.44527E-05 26440   0.391E-02
  20 F= -.22262405E+03 E0= -.22261276E+03  d E =0.113676E-02  mag=    22.0000
       N       E                     dE             d eps       ncg     rms          rms(c)
DAV:   1    -0.222621066296E+03    0.29816E-02   -0.74841E-01 29376   0.260E+00    0.134E-01
DAV:   2    -0.222622965795E+03   -0.18995E-02   -0.18889E-02 28464   0.433E-01    0.189E-01
DAV:   3    -0.222622961892E+03    0.39025E-05   -0.59389E-04 39472   0.113E-01    0.162E-01
DAV:   4    -0.222622905438E+03    0.56454E-04   -0.10287E-04 32592   0.475E-02    0.552E-02
DAV:   5    -0.222622900639E+03    0.47988E-05   -0.25806E-05 24096   0.365E-02
  21 F= -.22262290E+03 E0= -.22261158E+03  d E =0.114760E-02  mag=    22.0000
       N       E                     dE             d eps       ncg     rms          rms(c)
DAV:   1    -0.222602152529E+03    0.20753E-01   -0.64835E+00 29352   0.804E+00    0.416E-01
DAV:   2    -0.222619793489E+03   -0.17641E-01   -0.17280E-01 28352   0.134E+00    0.694E-01
DAV:   3    -0.222619414209E+03    0.37928E-03   -0.62612E-03 39544   0.378E-01    0.470E-01
DAV:   4    -0.222619057569E+03    0.35664E-03   -0.10294E-03 40632   0.156E-01    0.243E-01
DAV:   5    -0.222619014331E+03    0.43238E-04   -0.45930E-04 39064   0.990E-02    0.211E-01
DAV:   6    -0.222619026234E+03   -0.11903E-04   -0.11586E-03 37152   0.122E-01    0.332E-01
DAV:   7    -0.222618836314E+03    0.18992E-03   -0.10909E-03 37888   0.119E-01    0.141E-01
DAV:   8    -0.222618861686E+03   -0.25372E-04   -0.33728E-04 37448   0.687E-02    0.125E-01
DAV:   9    -0.222618844239E+03    0.17447E-04   -0.88177E-05 25440   0.441E-02    0.345E-02
DAV:  10    -0.222618846465E+03   -0.22262E-05   -0.14374E-05 19784   0.246E-02
  22 F= -.22261885E+03 E0= -.22260747E+03  d E =0.405417E-02  mag=    22.0000
       N       E                     dE             d eps       ncg     rms          rms(c)
DAV:   1    -0.222594506176E+03    0.24338E-01   -0.81020E+00 29088   0.826E+00    0.416E-01
DAV:   2    -0.222614673956E+03   -0.20168E-01   -0.20070E-01 28968   0.140E+00    0.647E-01
DAV:   3    -0.222614415483E+03    0.25847E-03   -0.61715E-03 40168   0.371E-01    0.501E-01
DAV:   4    -0.222613925081E+03    0.49040E-03   -0.14558E-03 40024   0.150E-01    0.249E-01
DAV:   5    -0.222613954241E+03   -0.29160E-04   -0.11024E-03 39328   0.107E-01    0.311E-01
DAV:   6    -0.222613792108E+03    0.16213E-03   -0.12441E-03 37496   0.131E-01    0.253E-01
DAV:   7    -0.222613692158E+03    0.99950E-04   -0.70337E-04 36864   0.122E-01    0.176E-01
DAV:   8    -0.222613669236E+03    0.22922E-04   -0.24260E-04 38744   0.808E-02    0.968E-02
DAV:   9    -0.222613671043E+03   -0.18067E-05   -0.60176E-05 25616   0.442E-02
  23 F= -.22261367E+03 E0= -.22260226E+03  d E =0.517542E-02  mag=    22.0000
       N       E                     dE             d eps       ncg     rms          rms(c)
DAV:   1    -0.222334986861E+03    0.27868E+00   -0.84646E+01 29376   0.310E+01    0.172E+00
DAV:   2    -0.222607576946E+03   -0.27259E+00   -0.26211E+00 27920   0.527E+00    0.344E+00
DAV:   3    -0.222600846323E+03    0.67306E-02   -0.29552E-01 39184   0.138E+00    0.209E+00
DAV:   4    -0.222596772615E+03    0.40737E-02   -0.44686E-02 39480   0.664E-01    0.158E+00
DAV:   5    -0.222593370437E+03    0.34022E-02   -0.25063E-02 38856   0.373E-01    0.814E-01
DAV:   6    -0.222593775124E+03   -0.40469E-03   -0.12091E-02 37904   0.375E-01    0.106E+00
DAV:   7    -0.222592684003E+03    0.10911E-02   -0.60986E-03 37816   0.415E-01    0.924E-01
DAV:   8    -0.222591633196E+03    0.10508E-02   -0.38744E-03 38920   0.303E-01    0.521E-01
DAV:   9    -0.222591372260E+03    0.26094E-03   -0.20708E-03 38864   0.203E-01    0.163E-01
DAV:  10    -0.222591566706E+03   -0.19445E-03   -0.39095E-04 38200   0.108E-01    0.155E-01
DAV:  11    -0.222591569860E+03   -0.31540E-05   -0.31877E-04 35720   0.869E-02    0.114E-01
DAV:  12    -0.222591562877E+03    0.69832E-05   -0.11061E-04 26968   0.546E-02    0.633E-02
DAV:  13    -0.222591558998E+03    0.38795E-05   -0.25032E-05 23464   0.327E-02
  24 F= -.22259156E+03 E0= -.22257985E+03  d E =0.221120E-01  mag=    22.0000
       N       E                     dE             d eps       ncg     rms          rms(c)
DAV:   1    -0.222448401109E+03    0.14316E+00   -0.36230E+01 29480   0.205E+01    0.115E+00
DAV:   2    -0.222573848036E+03   -0.12545E+00   -0.12098E+00 27824   0.364E+00    0.189E+00
DAV:   3    -0.222571444748E+03    0.24033E-02   -0.36397E-02 38736   0.888E-01    0.131E+00
DAV:   4    -0.222570345979E+03    0.10988E-02   -0.14868E-02 39368   0.419E-01    0.953E-01
DAV:   5    -0.222569758659E+03    0.58732E-03   -0.59366E-03 38640   0.237E-01    0.772E-01
DAV:   6    -0.222570084482E+03   -0.32582E-03   -0.72105E-03 38488   0.321E-01    0.101E+00
DAV:   7    -0.222568465232E+03    0.16192E-02   -0.83063E-03 36696   0.378E-01    0.471E-01
DAV:   8    -0.222568660498E+03   -0.19527E-03   -0.27529E-03 37840   0.266E-01    0.379E-01
DAV:   9    -0.222568605625E+03    0.54873E-04   -0.10528E-03 38208   0.160E-01    0.266E-01
DAV:  10    -0.222568492198E+03    0.11343E-03   -0.39202E-04 38336   0.986E-02    0.118E-01
DAV:  11    -0.222568491302E+03    0.89689E-06   -0.16262E-04 30856   0.560E-02    0.113E-01
DAV:  12    -0.222568466494E+03    0.24807E-04   -0.77660E-05 25704   0.445E-02    0.471E-02
DAV:  13    -0.222568487766E+03   -0.21272E-04   -0.77664E-05 24440   0.283E-02    0.380E-02
DAV:  14    -0.222568489485E+03   -0.17183E-05   -0.89790E-06 18760   0.225E-02
  25 F= -.22256849E+03 E0= -.22255671E+03  d E =0.230695E-01  mag=    22.0000
       N       E                     dE             d eps       ncg     rms          rms(c)
DAV:   1    -0.221255806986E+03    0.13127E+01   -0.23623E+02 29664   0.611E+01    0.425E+00
DAV:   2    -0.222556117787E+03   -0.13003E+01   -0.12453E+01 28144   0.116E+01    0.626E+00
DAV:   3    -0.222523341145E+03    0.32777E-01   -0.44984E-01 37872   0.303E+00    0.419E+00
DAV:   4    -0.222522567770E+03    0.77337E-03   -0.19752E-01 38656   0.158E+00    0.351E+00
DAV:   5    -0.222508869209E+03    0.13699E-01   -0.53248E-02 38328   0.855E-01    0.247E+00
DAV:   6    -0.222514407795E+03   -0.55386E-02   -0.75789E-02 38456   0.826E-01    0.301E+00
DAV:   7    -0.222500516598E+03    0.13891E-01   -0.70502E-02 37912   0.890E-01    0.152E+00
DAV:   8    -0.222505602139E+03   -0.50855E-02   -0.29535E-02 37704   0.731E-01    0.157E+00
DAV:   9    -0.222502551323E+03    0.30508E-02   -0.21639E-02 37800   0.599E-01    0.772E-01
DAV:  10    -0.222502622417E+03   -0.71093E-04   -0.85017E-03 38448   0.313E-01    0.535E-01
DAV:  11    -0.222502242639E+03    0.37978E-03   -0.15204E-03 38072   0.178E-01    0.245E-01
DAV:  12    -0.222502139761E+03    0.10288E-03   -0.34397E-04 37824   0.822E-02    0.203E-01
DAV:  13    -0.222502108136E+03    0.31625E-04   -0.32524E-04 38024   0.990E-02    0.196E-01
DAV:  14    -0.222502036679E+03    0.71457E-04   -0.45740E-04 37352   0.802E-02    0.115E-01
DAV:  15    -0.222502031254E+03    0.54247E-05   -0.11809E-04 32008   0.442E-02    0.531E-02
DAV:  16    -0.222502030584E+03    0.67027E-06   -0.18143E-05 22176   0.237E-02
  26 F= -.22250203E+03 E0= -.22249046E+03  d E =0.664589E-01  mag=    22.0000
       N       E                     dE             d eps       ncg     rms          rms(c)
DAV:   1    -0.222409348216E+03    0.92683E-01   -0.20819E+01 30576   0.214E+01    0.172E+00
DAV:   2    -0.222591222146E+03   -0.18187E+00   -0.15948E+00 29704   0.406E+00    0.365E+00
DAV:   3    -0.222573154822E+03    0.18067E-01   -0.16713E-01 37616   0.129E+00    0.173E+00
DAV:   4    -0.222576600365E+03   -0.34455E-02   -0.34704E-02 39000   0.658E-01    0.150E+00
DAV:   5    -0.222573841684E+03    0.27587E-02   -0.95544E-03 38696   0.471E-01    0.733E-01
DAV:   6    -0.222574739825E+03   -0.89814E-03   -0.65050E-03 38912   0.296E-01    0.903E-01
DAV:   7    -0.222574592912E+03    0.14691E-03   -0.13363E-02 38160   0.347E-01    0.757E-01
DAV:   8    -0.222574261653E+03    0.33126E-03   -0.57104E-03 38192   0.282E-01    0.612E-01
DAV:   9    -0.222573956428E+03    0.30523E-03   -0.35356E-03 38272   0.228E-01    0.264E-01
DAV:  10    -0.222573933427E+03    0.23001E-04   -0.48760E-04 38056   0.114E-01    0.116E-01
DAV:  11    -0.222573933064E+03    0.36340E-06   -0.13631E-04 29432   0.562E-02    0.851E-02
DAV:  12    -0.222573920028E+03    0.13036E-04   -0.39753E-05 24480   0.358E-02    0.455E-02
DAV:  13    -0.222573918233E+03    0.17954E-05   -0.23494E-05 21280   0.248E-02
  27 F= -.22257392E+03 E0= -.22256233E+03  d E =-.718876E-01  mag=    22.0000
       N       E                     dE             d eps       ncg     rms          rms(c)
DAV:   1    -0.222541815284E+03    0.32105E-01   -0.84997E+00 30192   0.126E+01    0.937E-01
DAV:   2    -0.222599828249E+03   -0.58013E-01   -0.50992E-01 29792   0.236E+00    0.212E+00
DAV:   3    -0.222593390062E+03    0.64382E-02   -0.36397E-02 37688   0.741E-01    0.873E-01
DAV:   4    -0.222594819847E+03   -0.14298E-02   -0.85383E-03 38912   0.321E-01    0.748E-01
DAV:   5    -0.222594269514E+03    0.55033E-03   -0.34129E-03 38616   0.262E-01    0.515E-01
DAV:   6    -0.222594533422E+03   -0.26391E-03   -0.27610E-03 38744   0.178E-01    0.609E-01
DAV:   7    -0.222594259954E+03    0.27347E-03   -0.48329E-03 38000   0.230E-01    0.419E-01
DAV:   8    -0.222594191651E+03    0.68303E-04   -0.18689E-03 38144   0.195E-01    0.307E-01
DAV:   9    -0.222594126917E+03    0.64734E-04   -0.80417E-04 38472   0.136E-01    0.132E-01
DAV:  10    -0.222594114405E+03    0.12512E-04   -0.14024E-04 30280   0.597E-02    0.694E-02
DAV:  11    -0.222594108062E+03    0.63426E-05   -0.32058E-05 21904   0.281E-02
  28 F= -.22259411E+03 E0= -.22258249E+03  d E =-.201898E-01  mag=    22.0000
       N       E                     dE             d eps       ncg     rms          rms(c)
DAV:   1    -0.222587295813E+03    0.68186E-02   -0.25253E+00 29328   0.607E+00    0.387E-01
DAV:   2    -0.222598919983E+03   -0.11624E-01   -0.10576E-01 28320   0.111E+00    0.815E-01
DAV:   3    -0.222598097613E+03    0.82237E-03   -0.34080E-03 38080   0.302E-01    0.369E-01
DAV:   4    -0.222598259655E+03   -0.16204E-03   -0.52070E-04 38416   0.130E-01    0.290E-01
DAV:   5    -0.222598261501E+03   -0.18464E-05   -0.47063E-04 38040   0.103E-01    0.288E-01
DAV:   6    -0.222598294673E+03   -0.33172E-04   -0.85375E-04 37560   0.115E-01    0.322E-01
DAV:   7    -0.222598195978E+03    0.98695E-04   -0.15302E-03 38072   0.122E-01    0.230E-01
DAV:   8    -0.222598199514E+03   -0.35358E-05   -0.94343E-04 37520   0.108E-01    0.173E-01
DAV:   9    -0.222598169600E+03    0.29914E-04   -0.20855E-04 28848   0.626E-02    0.729E-02
DAV:  10    -0.222598168779E+03    0.82077E-06   -0.46235E-05 23288   0.350E-02
  29 F= -.22259817E+03 E0= -.22258654E+03  d E =-.406072E-02  mag=    22.0000
       N       E                     dE             d eps       ncg     rms          rms(c)
DAV:   1    -0.222582260460E+03    0.15909E-01   -0.41260E+00 29224   0.728E+00    0.422E-01
DAV:   2    -0.222598278551E+03   -0.16018E-01   -0.14802E-01 28376   0.133E+00    0.918E-01
DAV:   3    -0.222597207849E+03    0.10707E-02   -0.45768E-03 38080   0.313E-01    0.426E-01
DAV:   4    -0.222597516314E+03   -0.30846E-03   -0.14606E-03 39184   0.155E-01    0.475E-01
DAV:   5    -0.222597370826E+03    0.14549E-03   -0.11588E-03 37432   0.107E-01    0.381E-01
DAV:   6    -0.222597510076E+03   -0.13925E-03   -0.12541E-03 38896   0.147E-01    0.474E-01
DAV:   7    -0.222597184268E+03    0.32581E-03   -0.12946E-03 36632   0.160E-01    0.226E-01
DAV:   8    -0.222597220993E+03   -0.36725E-04   -0.50814E-04 38432   0.125E-01    0.172E-01
DAV:   9    -0.222597187476E+03    0.33517E-04   -0.23430E-04 32712   0.689E-02    0.746E-02
DAV:  10    -0.222597187523E+03   -0.46595E-07   -0.44806E-05 23992   0.365E-02
  30 F= -.22259719E+03 E0= -.22258557E+03  d E =0.981256E-03  mag=    22.0000
       N       E                     dE             d eps       ncg     rms          rms(c)
DAV:   1    -0.222581983321E+03    0.15204E-01   -0.35784E+00 29256   0.615E+00    0.330E-01
DAV:   2    -0.222593420358E+03   -0.11437E-01   -0.10803E-01 28848   0.113E+00    0.798E-01
DAV:   3    -0.222592551474E+03    0.86888E-03   -0.43854E-03 38592   0.246E-01    0.360E-01
DAV:   4    -0.222592745354E+03   -0.19388E-03   -0.13929E-03 40000   0.125E-01    0.436E-01
DAV:   5    -0.222592602426E+03    0.14293E-03   -0.83150E-04 36936   0.994E-02    0.338E-01
DAV:   6    -0.222592655299E+03   -0.52873E-04   -0.53644E-04 38528   0.117E-01    0.391E-01
DAV:   7    -0.222592448398E+03    0.20690E-03   -0.77643E-04 37008   0.142E-01    0.232E-01
DAV:   8    -0.222592433990E+03    0.14408E-04   -0.34211E-04 39472   0.109E-01    0.150E-01
DAV:   9    -0.222592411446E+03    0.22545E-04   -0.16094E-04 29224   0.579E-02    0.669E-02
DAV:  10    -0.222592413511E+03   -0.20650E-05   -0.32127E-05 22896   0.316E-02
  31 F= -.22259241E+03 E0= -.22258086E+03  d E =0.477401E-02  mag=    22.0000
       N       E                     dE             d eps       ncg     rms          rms(c)
DAV:   1    -0.221341299645E+03    0.12511E+01   -0.24770E+02 29376   0.588E+01    0.384E+00
DAV:   2    -0.222510705918E+03   -0.11694E+01   -0.11266E+01 28280   0.110E+01    0.583E+00
DAV:   3    -0.222487002965E+03    0.23703E-01   -0.33452E-01 37904   0.271E+00    0.404E+00
DAV:   4    -0.222480132317E+03    0.68706E-02   -0.80402E-02 38984   0.138E+00    0.321E+00
DAV:   5    -0.222473608117E+03    0.65242E-02   -0.38469E-02 38240   0.786E-01    0.273E+00
DAV:   6    -0.222462257021E+03    0.11351E-01   -0.24264E-02 35384   0.775E-01    0.165E+00
DAV:   7    -0.222474844721E+03   -0.12588E-01   -0.83353E-02 37392   0.993E-01    0.295E+00
DAV:   8    -0.222464142345E+03    0.10702E-01   -0.99602E-02 38400   0.762E-01    0.124E+00
DAV:   9    -0.222464365162E+03   -0.22282E-03   -0.17735E-02 38360   0.469E-01    0.857E-01
DAV:  10    -0.222463361360E+03    0.10038E-02   -0.53246E-03 38392   0.281E-01    0.361E-01
DAV:  11    -0.222463358883E+03    0.24771E-05   -0.94070E-04 37808   0.150E-01    0.327E-01
DAV:  12    -0.222463279488E+03    0.79396E-04   -0.71744E-04 38496   0.123E-01    0.295E-01
DAV:  13    -0.222463041932E+03    0.23756E-03   -0.49414E-04 38568   0.997E-02    0.135E-01
DAV:  14    -0.222463046298E+03   -0.43662E-05   -0.50610E-04 37368   0.829E-02    0.997E-02
DAV:  15    -0.222463065410E+03   -0.19112E-04   -0.11652E-04 34560   0.559E-02    0.863E-02
DAV:  16    -0.222463047127E+03    0.18283E-04   -0.36895E-05 24152   0.298E-02    0.332E-02
DAV:  17    -0.222463045080E+03    0.20471E-05   -0.16497E-05 16856   0.179E-02
  32 F= -.22246305E+03 E0= -.22245167E+03  d E =0.129368E+00  mag=    22.0000
       N       E                     dE             d eps       ncg     rms          rms(c)
DAV:   1    -0.222263820569E+03    0.19923E+00   -0.58841E+01 29624   0.311E+01    0.230E+00
DAV:   2    -0.222627957914E+03   -0.36414E+00   -0.33004E+00 30784   0.597E+00    0.464E+00
DAV:   3    -0.222589272854E+03    0.38685E-01   -0.19443E-01 37536   0.176E+00    0.226E+00
DAV:   4    -0.222592168797E+03   -0.28959E-02   -0.59727E-02 38920   0.860E-01    0.198E+00
DAV:   5    -0.222588719301E+03    0.34495E-02   -0.13605E-02 38768   0.525E-01    0.116E+00
DAV:   6    -0.222591790871E+03   -0.30716E-02   -0.23442E-02 38808   0.514E-01    0.171E+00
DAV:   7    -0.222588611736E+03    0.31791E-02   -0.35615E-02 38536   0.530E-01    0.106E+00
DAV:   8    -0.222588522783E+03    0.88953E-04   -0.13832E-02 38264   0.473E-01    0.708E-01
DAV:   9    -0.222588170896E+03    0.35189E-03   -0.44958E-03 38400   0.298E-01    0.375E-01
DAV:  10    -0.222588081179E+03    0.89717E-04   -0.95182E-04 38000   0.152E-01    0.149E-01
DAV:  11    -0.222588070327E+03    0.10853E-04   -0.18446E-04 35184   0.630E-02    0.133E-01
DAV:  12    -0.222588046174E+03    0.24153E-04   -0.15646E-04 28160   0.647E-02    0.108E-01
DAV:  13    -0.222588035966E+03    0.10207E-04   -0.16781E-04 26792   0.483E-02    0.458E-02
DAV:  14    -0.222588044108E+03   -0.81416E-05   -0.29145E-05 24048   0.305E-02
  33 F= -.22258804E+03 E0= -.22257665E+03  d E =-.124999E+00  mag=    22.0000
       N       E                     dE             d eps       ncg     rms          rms(c)
DAV:   1    -0.222557077390E+03    0.30959E-01   -0.11046E+01 29360   0.127E+01    0.823E-01
DAV:   2    -0.222608649570E+03   -0.51572E-01   -0.46939E-01 28536   0.232E+00    0.169E+00
DAV:   3    -0.222604947742E+03    0.37018E-02   -0.15167E-02 37848   0.604E-01    0.779E-01
DAV:   4    -0.222605653280E+03   -0.70554E-03   -0.23390E-03 38632   0.275E-01    0.645E-01
DAV:   5    -0.222605513945E+03    0.13934E-03   -0.16225E-03 38864   0.198E-01    0.577E-01
DAV:   6    -0.222605814245E+03   -0.30030E-03   -0.45604E-03 37784   0.242E-01    0.714E-01
DAV:   7    -0.222605311644E+03    0.50260E-03   -0.68756E-03 38248   0.254E-01    0.486E-01
DAV:   8    -0.222605312315E+03   -0.67125E-06   -0.41364E-03 38736   0.221E-01    0.352E-01
DAV:   9    -0.222605171305E+03    0.14101E-03   -0.83778E-04 38296   0.123E-01    0.130E-01
DAV:  10    -0.222605154758E+03    0.16547E-04   -0.12097E-04 31136   0.592E-02    0.747E-02
DAV:  11    -0.222605147559E+03    0.71991E-05   -0.35403E-05 22528   0.262E-02
  34 F= -.22260515E+03 E0= -.22259375E+03  d E =-.171035E-01  mag=    22.0000
       N       E                     dE             d eps       ncg     rms          rms(c)
DAV:   1    -0.222600937044E+03    0.42177E-02   -0.15878E+00 29216   0.440E+00    0.253E-01
DAV:   2    -0.222606818675E+03   -0.58816E-02   -0.56183E-02 28720   0.796E-01    0.445E-01
DAV:   3    -0.222606686004E+03    0.13267E-03   -0.22607E-03 37272   0.154E-01    0.292E-01
DAV:   4    -0.222606752658E+03   -0.66655E-04   -0.85128E-04 37248   0.100E-01    0.298E-01
DAV:   5    -0.222606723933E+03    0.28726E-04   -0.39699E-04 31960   0.776E-02    0.269E-01
DAV:   6    -0.222606715373E+03    0.85594E-05   -0.21214E-04 36384   0.829E-02    0.263E-01
DAV:   7    -0.222606653915E+03    0.61458E-04   -0.44440E-04 38472   0.103E-01    0.193E-01
DAV:   8    -0.222606624238E+03    0.29677E-04   -0.17203E-04 35112   0.831E-02    0.908E-02
DAV:   9    -0.222606631376E+03   -0.71373E-05   -0.88569E-05 26608   0.450E-02
  35 F= -.22260663E+03 E0= -.22259525E+03  d E =-.148382E-02  mag=    22.0000
       N       E                     dE             d eps       ncg     rms          rms(c)
DAV:   1    -0.222601280389E+03    0.53438E-02   -0.12893E+00 29456   0.410E+00    0.234E-01
DAV:   2    -0.222606371362E+03   -0.50910E-02   -0.48109E-02 28624   0.752E-01    0.550E-01
DAV:   3    -0.222605974496E+03    0.39687E-03   -0.31776E-03 38360   0.175E-01    0.241E-01
DAV:   4    -0.222606054370E+03   -0.79874E-04   -0.54668E-04 36864   0.876E-02    0.239E-01
DAV:   5    -0.222606026749E+03    0.27621E-04   -0.28559E-04 30800   0.680E-02    0.205E-01
DAV:   6    -0.222606010107E+03    0.16642E-04   -0.16517E-04 36064   0.761E-02    0.179E-01
DAV:   7    -0.222605985331E+03    0.24776E-04   -0.26453E-04 37368   0.831E-02    0.130E-01
DAV:   8    -0.222605970729E+03    0.14602E-04   -0.12218E-04 30840   0.571E-02    0.586E-02
DAV:   9    -0.222605975083E+03   -0.43537E-05   -0.31835E-05 22800   0.337E-02
  36 F= -.22260598E+03 E0= -.22259461E+03  d E =0.656293E-03  mag=    22.0000
       N       E                     dE             d eps       ncg     rms          rms(c)
DAV:   1    -0.222603612968E+03    0.23578E-02   -0.74885E-01 28776   0.276E+00    0.154E-01
DAV:   2    -0.222605798662E+03   -0.21857E-02   -0.22114E-02 27864   0.479E-01    0.225E-01
DAV:   3    -0.222605838674E+03   -0.40013E-04   -0.16419E-03 40040   0.134E-01    0.249E-01
DAV:   4    -0.222605750836E+03    0.87838E-04   -0.59758E-04 35568   0.750E-02    0.115E-01
DAV:   5    -0.222605738236E+03    0.12600E-04   -0.10987E-04 26200   0.458E-02    0.723E-02
DAV:   6    -0.222605736670E+03    0.15663E-05   -0.61725E-05 29752   0.430E-02
  37 F= -.22260574E+03 E0= -.22259444E+03  d E =0.238413E-03  mag=    22.0000
       N       E                     dE             d eps       ncg     rms          rms(c)
DAV:   1    -0.222516030283E+03    0.89708E-01   -0.23272E+01 29448   0.174E+01    0.101E+00
DAV:   2    -0.222599282706E+03   -0.83252E-01   -0.82877E-01 27680   0.304E+00    0.117E+00
DAV:   3    -0.222602726323E+03   -0.34436E-02   -0.43591E-02 40104   0.771E-01    0.160E+00
DAV:   4    -0.222598821815E+03    0.39045E-02   -0.22975E-02 39288   0.430E-01    0.655E-01
DAV:   5    -0.222598709176E+03    0.11264E-03   -0.37693E-03 40552   0.218E-01    0.452E-01
DAV:   6    -0.222598417753E+03    0.29142E-03   -0.25763E-03 34992   0.235E-01    0.499E-01
DAV:   7    -0.222598121458E+03    0.29629E-03   -0.18098E-03 38584   0.213E-01    0.310E-01
DAV:   8    -0.222598184742E+03   -0.63285E-04   -0.65534E-04 39104   0.148E-01    0.175E-01
DAV:   9    -0.222598142319E+03    0.42424E-04   -0.15859E-04 38440   0.850E-02    0.500E-02
DAV:  10    -0.222598144208E+03   -0.18897E-05   -0.35538E-05 24336   0.306E-02
  38 F= -.22259814E+03 E0= -.22258700E+03  d E =0.759246E-02  mag=    22.0000
       N       E                     dE             d eps       ncg     rms          rms(c)
DAV:   1    -0.222445628350E+03    0.15251E+00   -0.38030E+01 28984   0.235E+01    0.148E+00
DAV:   2    -0.222608270521E+03   -0.16264E+00   -0.15935E+00 27648   0.409E+00    0.163E+00
DAV:   3    -0.222617271705E+03   -0.90012E-02   -0.10389E-01 39472   0.110E+00    0.229E+00
DAV:   4    -0.222609621741E+03    0.76500E-02   -0.46201E-02 38840   0.612E-01    0.981E-01
DAV:   5    -0.222608910494E+03    0.71125E-03   -0.84148E-03 40128   0.299E-01    0.460E-01
DAV:   6    -0.222609010632E+03   -0.10014E-03   -0.31225E-03 36560   0.285E-01    0.579E-01
DAV:   7    -0.222608579145E+03    0.43149E-03   -0.25293E-03 38112   0.249E-01    0.423E-01
DAV:   8    -0.222608570112E+03    0.90336E-05   -0.12488E-03 39072   0.225E-01    0.314E-01
DAV:   9    -0.222608531429E+03    0.38683E-04   -0.62725E-04 39216   0.125E-01    0.170E-01
DAV:  10    -0.222608499411E+03    0.32018E-04   -0.21811E-04 35232   0.701E-02    0.713E-02
DAV:  11    -0.222608505261E+03   -0.58502E-05   -0.60028E-05 25768   0.368E-02
  39 F= -.22260851E+03 E0= -.22259748E+03  d E =-.103611E-01  mag=    22.0000
       N       E                     dE             d eps       ncg     rms          rms(c)
DAV:   1    -0.222538287982E+03    0.70211E-01   -0.20065E+01 29288   0.165E+01    0.969E-01
DAV:   2    -0.222613771717E+03   -0.75484E-01   -0.74496E-01 27656   0.292E+00    0.114E+00
DAV:   3    -0.222617315309E+03   -0.35436E-02   -0.48662E-02 40080   0.703E-01    0.159E+00
DAV:   4    -0.222613650874E+03    0.36644E-02   -0.22098E-02 39480   0.412E-01    0.688E-01
DAV:   5    -0.222613591068E+03    0.59806E-04   -0.30084E-03 39432   0.199E-01    0.526E-01
DAV:   6    -0.222613413236E+03    0.17783E-03   -0.21211E-03 36968   0.257E-01    0.603E-01
DAV:   7    -0.222613021873E+03    0.39136E-03   -0.27990E-03 38544   0.272E-01    0.377E-01
DAV:   8    -0.222613118325E+03   -0.96453E-04   -0.88672E-04 39880   0.167E-01    0.290E-01
DAV:   9    -0.222612998286E+03    0.12004E-03   -0.49454E-04 38624   0.108E-01    0.920E-02
DAV:  10    -0.222612997830E+03    0.45569E-06   -0.60418E-05 27656   0.480E-02
  40 F= -.22261300E+03 E0= -.22260190E+03  d E =-.449257E-02  mag=    22.0000
       N       E                     dE             d eps       ncg     rms          rms(c)
DAV:   1    -0.222551843368E+03    0.61155E-01   -0.72272E+00 29648   0.127E+01    0.102E+00
DAV:   2    -0.222614021621E+03   -0.62178E-01   -0.55284E-01 27752   0.233E+00    0.221E+00
DAV:   3    -0.222609642773E+03    0.43788E-02   -0.80732E-02 37792   0.805E-01    0.115E+00
DAV:   4    -0.222610740376E+03   -0.10976E-02   -0.17371E-02 40088   0.391E-01    0.900E-01
DAV:   5    -0.222609500693E+03    0.12397E-02   -0.40276E-03 39384   0.241E-01    0.298E-01
DAV:   6    -0.222609802447E+03   -0.30175E-03   -0.13669E-03 39032   0.161E-01    0.369E-01
DAV:   7    -0.222609689766E+03    0.11268E-03   -0.13450E-03 38632   0.157E-01    0.231E-01
DAV:   8    -0.222609736372E+03   -0.46605E-04   -0.53689E-04 38440   0.119E-01    0.189E-01
DAV:   9    -0.222609698075E+03    0.38297E-04   -0.26184E-04 36760   0.836E-02    0.687E-02
DAV:  10    -0.222609703714E+03   -0.56386E-05   -0.47700E-05 26056   0.427E-02
  41 F= -.22260970E+03 E0= -.22259849E+03  d E =0.329412E-02  mag=    22.0000
       N       E                     dE             d eps       ncg     rms          rms(c)
DAV:   1    -0.222597091860E+03    0.12606E-01   -0.46551E+00 29168   0.809E+00    0.509E-01
DAV:   2    -0.222616510538E+03   -0.19419E-01   -0.18062E-01 28360   0.139E+00    0.106E+00
DAV:   3    -0.222615210712E+03    0.12998E-02   -0.14607E-02 39056   0.463E-01    0.575E-01
DAV:   4    -0.222615407622E+03   -0.19691E-03   -0.60214E-03 39392   0.218E-01    0.500E-01
DAV:   5    -0.222614964846E+03    0.44278E-03   -0.13851E-03 38616   0.138E-01    0.149E-01
DAV:   6    -0.222615040001E+03   -0.75155E-04   -0.30985E-04 37128   0.103E-01    0.263E-01
DAV:   7    -0.222614904573E+03    0.13543E-03   -0.29048E-04 37872   0.944E-02    0.887E-02
DAV:   8    -0.222614938072E+03   -0.33500E-04   -0.10610E-04 34856   0.559E-02    0.704E-02
DAV:   9    -0.222614932420E+03    0.56530E-05   -0.45320E-05 23928   0.371E-02
  42 F= -.22261493E+03 E0= -.22260375E+03  d E =-.522871E-02  mag=    22.0000
       N       E                     dE             d eps       ncg     rms          rms(c)
DAV:   1    -0.222613849008E+03    0.10891E-02   -0.92119E-01 28800   0.333E+00    0.198E-01
DAV:   2    -0.222616997632E+03   -0.31486E-02   -0.29665E-02 28040   0.556E-01    0.390E-01
DAV:   3    -0.222616858248E+03    0.13938E-03   -0.20389E-03 39768   0.176E-01    0.236E-01
DAV:   4    -0.222616854822E+03    0.34267E-05   -0.81561E-04 37880   0.892E-02    0.177E-01
DAV:   5    -0.222616803392E+03    0.51430E-04   -0.20477E-04 27888   0.516E-02    0.628E-02
DAV:   6    -0.222616814719E+03   -0.11327E-04   -0.63919E-05 29032   0.442E-02    0.108E-01
DAV:   7    -0.222616793205E+03    0.21514E-04   -0.60870E-05 29392   0.447E-02    0.436E-02
DAV:   8    -0.222616798019E+03   -0.48145E-05   -0.22350E-05 20744   0.291E-02
  43 F= -.22261680E+03 E0= -.22260559E+03  d E =-.186560E-02  mag=    22.0000
       N       E                     dE             d eps       ncg     rms          rms(c)
DAV:   1    -0.222364733888E+03    0.25206E+00   -0.10932E+02 29328   0.288E+01    0.160E+00
DAV:   2    -0.222657746364E+03   -0.29301E+00   -0.28931E+00 29944   0.499E+00    0.385E+00
DAV:   3    -0.222637809080E+03    0.19937E-01   -0.30385E-01 39832   0.141E+00    0.172E+00
DAV:   4    -0.222634870369E+03    0.29387E-02   -0.48404E-02 38592   0.690E-01    0.154E+00
DAV:   5    -0.222630388833E+03    0.44815E-02   -0.20637E-02 38840   0.418E-01    0.704E-01
DAV:   6    -0.222630419292E+03   -0.30459E-04   -0.66975E-03 39248   0.326E-01    0.976E-01
DAV:   7    -0.222628008461E+03    0.24108E-02   -0.75111E-03 36472   0.409E-01    0.689E-01
DAV:   8    -0.222627336345E+03    0.67212E-03   -0.35027E-03 37056   0.287E-01    0.337E-01
DAV:   9    -0.222627405779E+03   -0.69434E-04   -0.14679E-03 38936   0.183E-01    0.253E-01
DAV:  10    -0.222627395678E+03    0.10101E-04   -0.55568E-04 38408   0.123E-01    0.134E-01
DAV:  11    -0.222627424502E+03   -0.28825E-04   -0.22678E-04 32952   0.640E-02    0.965E-02
DAV:  12    -0.222627430646E+03   -0.61433E-05   -0.11368E-04 26504   0.419E-02    0.108E-01
DAV:  13    -0.222627412429E+03    0.18217E-04   -0.10014E-04 25352   0.413E-02    0.415E-02
DAV:  14    -0.222627411730E+03    0.69890E-06   -0.15706E-05 19544   0.199E-02
  44 F= -.22262741E+03 E0= -.22261602E+03  d E =-.106137E-01  mag=    22.0000
       N       E                     dE             d eps       ncg     rms          rms(c)
DAV:   1    -0.222494500831E+03    0.13291E+00   -0.18440E+01 28856   0.185E+01    0.140E+00
DAV:   2    -0.222632561218E+03   -0.13806E+00   -0.12620E+00 28392   0.353E+00    0.229E+00
DAV:   3    -0.222627185074E+03    0.53761E-02   -0.61231E-02 37976   0.987E-01    0.141E+00
DAV:   4    -0.222628744920E+03   -0.15598E-02   -0.33487E-02 39632   0.529E-01    0.125E+00
DAV:   5    -0.222626913135E+03    0.18318E-02   -0.95483E-03 39000   0.314E-01    0.680E-01
DAV:   6    -0.222626748197E+03    0.16494E-03   -0.23599E-03 35640   0.254E-01    0.510E-01
DAV:   7    -0.222627047066E+03   -0.29887E-03   -0.41307E-03 38392   0.309E-01    0.586E-01
DAV:   8    -0.222626835888E+03    0.21118E-03   -0.22856E-03 38344   0.242E-01    0.342E-01
DAV:   9    -0.222626765219E+03    0.70668E-04   -0.88904E-04 38328   0.139E-01    0.196E-01
DAV:  10    -0.222626715092E+03    0.50128E-04   -0.17804E-04 33624   0.744E-02    0.654E-02
DAV:  11    -0.222626713054E+03    0.20377E-05   -0.35223E-05 23968   0.286E-02
  45 F= -.22262671E+03 E0= -.22261524E+03  d E =0.698676E-03  mag=    22.0000
       N       E                     dE             d eps       ncg     rms          rms(c)
DAV:   1    -0.222620615221E+03    0.60999E-02   -0.96614E-01 29856   0.473E+00    0.408E-01
DAV:   2    -0.222630086962E+03   -0.94717E-02   -0.89027E-02 27800   0.847E-01    0.297E-01
DAV:   3    -0.222631155037E+03   -0.10681E-02   -0.59464E-03 38440   0.253E-01    0.600E-01
DAV:   4    -0.222630514823E+03    0.64021E-03   -0.31727E-03 38392   0.164E-01    0.172E-01
DAV:   5    -0.222630554242E+03   -0.39418E-04   -0.34463E-04 31984   0.631E-02    0.128E-01
DAV:   6    -0.222630541408E+03    0.12834E-04   -0.15910E-04 33696   0.537E-02    0.706E-02
DAV:   7    -0.222630575018E+03   -0.33610E-04   -0.12531E-04 33704   0.609E-02    0.123E-01
DAV:   8    -0.222630555056E+03    0.19962E-04   -0.79459E-05 26216   0.457E-02    0.546E-02
DAV:   9    -0.222630553433E+03    0.16230E-05   -0.18247E-05 20928   0.287E-02
  46 F= -.22263055E+03 E0= -.22261913E+03  d E =-.384038E-02  mag=    22.0000
       N       E                     dE             d eps       ncg     rms          rms(c)
DAV:   1    -0.222625319757E+03    0.52353E-02   -0.64115E-01 29912   0.387E+00    0.333E-01
DAV:   2    -0.222631776018E+03   -0.64563E-02   -0.60314E-02 27952   0.708E-01    0.330E-01
DAV:   3    -0.222632515213E+03   -0.73919E-03   -0.63881E-03 37968   0.231E-01    0.583E-01
DAV:   4    -0.222631974940E+03    0.54027E-03   -0.29183E-03 38056   0.149E-01    0.162E-01
DAV:   5    -0.222632005513E+03   -0.30573E-04   -0.24444E-04 31448   0.604E-02    0.110E-01
DAV:   6    -0.222632013706E+03   -0.81926E-05   -0.10184E-04 32632   0.509E-02    0.974E-02
DAV:   7    -0.222632025458E+03   -0.11753E-04   -0.12046E-04 29656   0.577E-02    0.111E-01
DAV:   8    -0.222632016349E+03    0.91092E-05   -0.66491E-05 26712   0.458E-02
  47 F= -.22263202E+03 E0= -.22262061E+03  d E =-.146292E-02  mag=    22.0000
       N       E                     dE             d eps       ncg     rms          rms(c)
DAV:   1    -0.222631622113E+03    0.40335E-03   -0.88739E-02 29960   0.135E+00    0.107E-01
DAV:   2    -0.222632352619E+03   -0.73051E-03   -0.67739E-03 28680   0.256E-01    0.173E-01
DAV:   3    -0.222632356715E+03   -0.40967E-05   -0.72078E-04 34656   0.870E-02    0.142E-01
DAV:   4    -0.222632349640E+03    0.70751E-05   -0.27195E-04 27760   0.529E-02    0.893E-02
DAV:   5    -0.222632341447E+03    0.81938E-05   -0.54277E-05 22400   0.306E-02
  48 F= -.22263234E+03 E0= -.22262094E+03  d E =-.325097E-03  mag=    22.0000
       N       E                     dE             d eps       ncg     rms          rms(c)
DAV:   1    -0.222632124040E+03    0.22560E-03   -0.14918E-01 29376   0.140E+00    0.953E-02
DAV:   2    -0.222632780975E+03   -0.65693E-03   -0.58834E-03 29432   0.263E-01    0.226E-01
DAV:   3    -0.222632705337E+03    0.75637E-04   -0.28563E-04 37032   0.835E-02    0.885E-02
DAV:   4    -0.222632715728E+03   -0.10391E-04   -0.32368E-05 24472   0.342E-02    0.833E-02
DAV:   5    -0.222632711164E+03    0.45646E-05   -0.14713E-05 18480   0.221E-02
  49 F= -.22263271E+03 E0= -.22262130E+03  d E =-.369717E-03  mag=    22.0000
       N       E                     dE             d eps       ncg     rms          rms(c)
DAV:   1    -0.222632292780E+03    0.42295E-03   -0.39357E-01 28776   0.188E+00    0.137E-01
DAV:   2    -0.222633733314E+03   -0.14405E-02   -0.11593E-02 32712   0.378E-01    0.496E-01
DAV:   3    -0.222633271355E+03    0.46196E-03   -0.14816E-03 38704   0.168E-01    0.117E-01
DAV:   4    -0.222633306517E+03   -0.35162E-04   -0.15671E-04 30928   0.477E-02    0.100E-01
DAV:   5    -0.222633299862E+03    0.66550E-05   -0.97715E-05 24048   0.357E-02
  50 F= -.22263330E+03 E0= -.22262186E+03  d E =-.588698E-03  mag=    22.0000
       N       E                     dE             d eps       ncg     rms          rms(c)
DAV:   1    -0.222627600710E+03    0.57058E-02   -0.36381E+00 29200   0.512E+00    0.259E-01
DAV:   2    -0.222635848068E+03   -0.82474E-02   -0.81835E-02 29864   0.843E-01    0.462E-01
DAV:   3    -0.222635620361E+03    0.22771E-03   -0.33156E-03 40968   0.229E-01    0.287E-01
DAV:   4    -0.222635459327E+03    0.16103E-03   -0.83905E-04 39120   0.101E-01    0.197E-01
DAV:   5    -0.222635414292E+03    0.45035E-04   -0.56449E-04 37288   0.706E-02    0.164E-01
DAV:   6    -0.222635370968E+03    0.43324E-04   -0.48901E-04 35952   0.939E-02    0.215E-01
DAV:   7    -0.222635275374E+03    0.95594E-04   -0.41628E-04 35528   0.910E-02    0.516E-02
DAV:   8    -0.222635288037E+03   -0.12663E-04   -0.61602E-05 30496   0.369E-02    0.425E-02
DAV:   9    -0.222635288071E+03   -0.34488E-07   -0.16578E-05 19048   0.246E-02
  51 F= -.22263529E+03 E0= -.22262376E+03  d E =-.198821E-02  mag=    22.0000
       N       E                     dE             d eps       ncg     rms          rms(c)
DAV:   1    -0.222526638146E+03    0.10865E+00   -0.26414E+01 29384   0.178E+01    0.101E+00
DAV:   2    -0.222623823289E+03   -0.97185E-01   -0.90594E-01 28536   0.324E+00    0.216E+00
DAV:   3    -0.222617896679E+03    0.59266E-02   -0.22791E-02 37496   0.718E-01    0.108E+00
DAV:   4    -0.222618769032E+03   -0.87235E-03   -0.73411E-03 38832   0.318E-01    0.107E+00
DAV:   5    -0.222619222840E+03   -0.45381E-03   -0.11463E-02 39320   0.286E-01    0.120E+00
DAV:   6    -0.222618464538E+03    0.75830E-03   -0.81048E-03 37928   0.315E-01    0.104E+00
DAV:   7    -0.222617510144E+03    0.95439E-03   -0.77860E-03 37384   0.387E-01    0.780E-01
DAV:   8    -0.222616877246E+03    0.63290E-03   -0.43484E-03 37808   0.305E-01    0.289E-01
DAV:   9    -0.222616902275E+03   -0.25029E-04   -0.94635E-04 37568   0.142E-01    0.221E-01
DAV:  10    -0.222616827326E+03    0.74950E-04   -0.30032E-04 36640   0.731E-02    0.100E-01
DAV:  11    -0.222616810812E+03    0.16514E-04   -0.52604E-05 25328   0.330E-02    0.772E-02
DAV:  12    -0.222616801832E+03    0.89793E-05   -0.54491E-05 23520   0.384E-02
  52 F= -.22261680E+03 E0= -.22260516E+03  d E =0.184862E-01  mag=    22.0000
       N       E                     dE             d eps       ncg     rms          rms(c)
DAV:   1    -0.222612365383E+03    0.44454E-02   -0.38243E+00 29888   0.766E+00    0.499E-01
DAV:   2    -0.222631547230E+03   -0.19182E-01   -0.17419E-01 28248   0.140E+00    0.103E+00
DAV:   3    -0.222630168466E+03    0.13788E-02   -0.61512E-03 37784   0.376E-01    0.480E-01
DAV:   4    -0.222630415313E+03   -0.24685E-03   -0.17282E-03 38416   0.156E-01    0.390E-01
DAV:   5    -0.222630388604E+03    0.26709E-04   -0.13498E-03 38928   0.117E-01    0.376E-01
DAV:   6    -0.222630378961E+03    0.96429E-05   -0.14639E-03 36648   0.125E-01    0.382E-01
DAV:   7    -0.222630301743E+03    0.77218E-04   -0.22142E-03 38056   0.157E-01    0.301E-01
DAV:   8    -0.222630193713E+03    0.10803E-03   -0.58663E-04 37864   0.115E-01    0.113E-01
DAV:   9    -0.222630194921E+03   -0.12085E-05   -0.11653E-04 29536   0.601E-02    0.693E-02
DAV:  10    -0.222630187382E+03    0.75397E-05   -0.31865E-05 22272   0.311E-02
  53 F= -.22263019E+03 E0= -.22261861E+03  d E =-.133855E-01  mag=    22.0000
       N       E                     dE             d eps       ncg     rms          rms(c)
DAV:   1    -0.222629919624E+03    0.27530E-03   -0.11152E+00 29744   0.379E+00    0.226E-01
DAV:   2    -0.222634441052E+03   -0.45214E-02   -0.41117E-02 28600   0.696E-01    0.512E-01
DAV:   3    -0.222634063700E+03    0.37735E-03   -0.13250E-03 37664   0.169E-01    0.216E-01
DAV:   4    -0.222634131208E+03   -0.67508E-04   -0.15713E-04 34656   0.703E-02    0.203E-01
DAV:   5    -0.222634127349E+03    0.38589E-05   -0.11726E-04 27952   0.498E-02    0.199E-01
DAV:   6    -0.222634110451E+03    0.16897E-04   -0.26451E-04 34616   0.755E-02    0.178E-01
DAV:   7    -0.222634100039E+03    0.10413E-04   -0.56635E-04 36480   0.849E-02    0.162E-01
DAV:   8    -0.222634086133E+03    0.13905E-04   -0.45369E-04 30120   0.628E-02    0.103E-01
DAV:   9    -0.222634074654E+03    0.11480E-04   -0.86590E-05 23608   0.372E-02    0.396E-02
DAV:  10    -0.222634073541E+03    0.11127E-05   -0.10520E-05 17056   0.199E-02
  54 F= -.22263407E+03 E0= -.22262252E+03  d E =-.388616E-02  mag=    22.0000
       N       E                     dE             d eps       ncg     rms          rms(c)
DAV:   1    -0.222633586413E+03    0.48824E-03   -0.73855E-01 28800   0.270E+00    0.147E-01
DAV:   2    -0.222635930883E+03   -0.23445E-02   -0.21746E-02 30160   0.496E-01    0.366E-01
DAV:   3    -0.222635741040E+03    0.18984E-03   -0.56587E-04 36688   0.105E-01    0.176E-01
DAV:   4    -0.222635770216E+03   -0.29175E-04   -0.64319E-05 30264   0.408E-02    0.188E-01
DAV:   5    -0.222635767801E+03    0.24145E-05   -0.10894E-04 24672   0.362E-02    0.188E-01
DAV:   6    -0.222635784183E+03   -0.16382E-04   -0.39958E-04 34880   0.693E-02    0.216E-01
DAV:   7    -0.222635720094E+03    0.64089E-04   -0.37091E-04 35416   0.696E-02    0.112E-01
DAV:   8    -0.222635716816E+03    0.32783E-05   -0.94170E-05 29176   0.501E-02
  55 F= -.22263572E+03 E0= -.22262414E+03  d E =-.164327E-02  mag=    22.0000
       N       E                     dE             d eps       ncg     rms          rms(c)
DAV:   1    -0.222635527060E+03    0.19303E-03   -0.20957E-01 29032   0.136E+00    0.756E-02
DAV:   2    -0.222636134125E+03   -0.60707E-03   -0.58501E-03 30304   0.253E-01    0.159E-01
DAV:   3    -0.222636105752E+03    0.28374E-04   -0.16832E-04 34200   0.597E-02    0.916E-02
DAV:   4    -0.222636110196E+03   -0.44442E-05   -0.28275E-05 23160   0.317E-02
  56 F= -.22263611E+03 E0= -.22262454E+03  d E =-.393380E-03  mag=    22.0000
       N       E                     dE             d eps       ncg     rms          rms(c)
DAV:   1    -0.222635879481E+03    0.22627E-03   -0.13037E-01 28856   0.110E+00    0.115E-01
DAV:   2    -0.222636286867E+03   -0.40739E-03   -0.36941E-03 32880   0.215E-01    0.248E-01
DAV:   3    -0.222636204098E+03    0.82769E-04   -0.41315E-04 36888   0.893E-02    0.124E-01
DAV:   4    -0.222636205041E+03   -0.94311E-06   -0.25788E-05 22336   0.204E-02
  57 F= -.22263621E+03 E0= -.22262461E+03  d E =-.948455E-04  mag=    22.0000
       N       E                     dE             d eps       ncg     rms          rms(c)
DAV:   1    -0.222635794413E+03    0.40969E-03   -0.12234E-01 29456   0.109E+00    0.117E-01
DAV:   2    -0.222636521361E+03   -0.72695E-03   -0.56452E-03 32808   0.254E-01    0.521E-01
DAV:   3    -0.222636028610E+03    0.49275E-03   -0.20511E-03 38504   0.133E-01    0.882E-02
DAV:   4    -0.222636086268E+03   -0.57659E-04   -0.91149E-05 27184   0.441E-02    0.101E-01
DAV:   5    -0.222636073621E+03    0.12647E-04   -0.79360E-05 24496   0.426E-02    0.587E-02
DAV:   6    -0.222636087613E+03   -0.13993E-04   -0.93865E-05 29536   0.495E-02    0.102E-01
DAV:   7    -0.222636072721E+03    0.14892E-04   -0.50337E-05 23760   0.428E-02    0.481E-02
DAV:   8    -0.222636071918E+03    0.80342E-06   -0.17243E-05 18448   0.240E-02
  58 F= -.22263607E+03 E0= -.22262447E+03  d E =0.133124E-03  mag=    22.0000
       N       E                     dE             d eps       ncg     rms          rms(c)
DAV:   1    -0.222623686191E+03    0.12387E-01   -0.42520E+00 28224   0.603E+00    0.308E-01
DAV:   2    -0.222634205584E+03   -0.10519E-01   -0.10572E-01 28672   0.101E+00    0.425E-01
DAV:   3    -0.222634278969E+03   -0.73386E-04   -0.43211E-03 40704   0.259E-01    0.433E-01
DAV:   4    -0.222633932375E+03    0.34659E-03   -0.16115E-03 39488   0.132E-01    0.215E-01
DAV:   5    -0.222633890521E+03    0.41854E-04   -0.54481E-04 37160   0.699E-02    0.150E-01
DAV:   6    -0.222633795871E+03    0.94650E-04   -0.31745E-04 33664   0.896E-02    0.116E-01
DAV:   7    -0.222633786627E+03    0.92435E-05   -0.20344E-04 37016   0.713E-02    0.878E-02
DAV:   8    -0.222633787874E+03   -0.12471E-05   -0.58205E-05 25040   0.439E-02
  59 F= -.22263379E+03 E0= -.22262220E+03  d E =0.228404E-02  mag=    22.0000
       N       E                     dE             d eps       ncg     rms          rms(c)
DAV:   1    -0.222540092079E+03    0.93695E-01   -0.30896E+01 28360   0.174E+01    0.947E-01
DAV:   2    -0.222628987420E+03   -0.88895E-01   -0.85726E-01 28776   0.292E+00    0.180E+00
DAV:   3    -0.222625097916E+03    0.38895E-02   -0.40371E-02 39688   0.807E-01    0.987E-01
DAV:   4    -0.222623524370E+03    0.15735E-02   -0.49452E-03 40080   0.309E-01    0.442E-01
DAV:   5    -0.222623718550E+03   -0.19418E-03   -0.29278E-03 39224   0.202E-01    0.633E-01
DAV:   6    -0.222622865836E+03    0.85271E-03   -0.51544E-03 36368   0.243E-01    0.427E-01
DAV:   7    -0.222622899568E+03   -0.33732E-04   -0.32151E-03 37936   0.208E-01    0.429E-01
DAV:   8    -0.222622663564E+03    0.23600E-03   -0.12573E-03 39464   0.141E-01    0.154E-01
DAV:   9    -0.222622691638E+03   -0.28075E-04   -0.19565E-04 35576   0.714E-02    0.770E-02
DAV:  10    -0.222622702976E+03   -0.11337E-04   -0.94570E-05 26640   0.497E-02    0.844E-02
DAV:  11    -0.222622696882E+03    0.60936E-05   -0.51889E-05 24232   0.373E-02
  60 F= -.22262270E+03 E0= -.22261102E+03  d E =0.110910E-01  mag=    22.0000
       N       E                     dE             d eps       ncg     rms          rms(c)
DAV:   1    -0.222605999989E+03    0.16703E-01   -0.66460E+00 29224   0.921E+00    0.563E-01
DAV:   2    -0.222630910366E+03   -0.24910E-01   -0.23327E-01 28080   0.158E+00    0.108E+00
DAV:   3    -0.222629589901E+03    0.13205E-02   -0.13786E-02 39232   0.475E-01    0.587E-01
DAV:   4    -0.222629526674E+03    0.63227E-04   -0.43863E-03 39440   0.211E-01    0.426E-01
DAV:   5    -0.222629282085E+03    0.24459E-03   -0.15387E-03 39736   0.113E-01    0.219E-01
DAV:   6    -0.222629180145E+03    0.10194E-03   -0.55596E-04 34280   0.118E-01    0.203E-01
DAV:   7    -0.222629165454E+03    0.14691E-04   -0.66723E-04 37872   0.128E-01    0.162E-01
DAV:   8    -0.222629163925E+03    0.15287E-05   -0.22884E-04 38352   0.804E-02    0.682E-02
DAV:   9    -0.222629161788E+03    0.21371E-05   -0.55627E-05 24656   0.404E-02
  61 F= -.22262916E+03 E0= -.22261758E+03  d E =-.646491E-02  mag=    22.0000
       N       E                     dE             d eps       ncg     rms          rms(c)
DAV:   1    -0.222626521132E+03    0.26428E-02   -0.12896E+00 29424   0.396E+00    0.232E-01
DAV:   2    -0.222630873428E+03   -0.43523E-02   -0.42163E-02 27928   0.691E-01    0.370E-01
DAV:   3    -0.222630802937E+03    0.70491E-04   -0.16703E-03 38912   0.177E-01    0.263E-01
DAV:   4    -0.222630718729E+03    0.84208E-04   -0.25339E-04 39456   0.770E-02    0.133E-01
DAV:   5    -0.222630726502E+03   -0.77732E-05   -0.17810E-04 29952   0.619E-02    0.158E-01
DAV:   6    -0.222630752952E+03   -0.26451E-04   -0.66967E-04 36688   0.792E-02    0.210E-01
DAV:   7    -0.222630684700E+03    0.68253E-04   -0.37451E-04 36192   0.732E-02    0.892E-02
DAV:   8    -0.222630685992E+03   -0.12926E-05   -0.88567E-05 28880   0.459E-02
  62 F= -.22263069E+03 E0= -.22261913E+03  d E =-.152420E-02  mag=    22.0000
       N       E                     dE             d eps       ncg     rms          rms(c)
DAV:   1    -0.222628703532E+03    0.19812E-02   -0.41497E-01 29256   0.201E+00    0.111E-01
DAV:   2    -0.222629875756E+03   -0.11722E-02   -0.10947E-02 30264   0.338E-01    0.248E-01
DAV:   3    -0.222629794191E+03    0.81565E-04   -0.56563E-04 39440   0.116E-01    0.109E-01
DAV:   4    -0.222629787537E+03    0.66542E-05   -0.70929E-05 27808   0.450E-02
  63 F= -.22262979E+03 E0= -.22261822E+03  d E =0.898455E-03  mag=    22.0000
       N       E                     dE             d eps       ncg     rms          rms(c)
DAV:   1    -0.222628575235E+03    0.12190E-02   -0.22824E-01 28744   0.133E+00    0.685E-02
DAV:   2    -0.222629100523E+03   -0.52529E-03   -0.51010E-03 29728   0.219E-01    0.159E-01
DAV:   3    -0.222629062507E+03    0.38016E-04   -0.24818E-04 38656   0.647E-02    0.697E-02
DAV:   4    -0.222629055217E+03    0.72899E-05   -0.46264E-05 21376   0.263E-02
  64 F= -.22262906E+03 E0= -.22261748E+03  d E =0.732320E-03  mag=    22.0000
       N       E                     dE             d eps       ncg     rms          rms(c)
DAV:   1    -0.222288516683E+03    0.34055E+00   -0.13768E+02 28800   0.300E+01    0.161E+00
DAV:   2    -0.222638172158E+03   -0.34966E+00   -0.34575E+00 30080   0.510E+00    0.326E+00
DAV:   3    -0.222620208393E+03    0.17964E-01   -0.14552E-01 40304   0.148E+00    0.165E+00
DAV:   4    -0.222611811707E+03    0.83967E-02   -0.18191E-02 38408   0.553E-01    0.653E-01
DAV:   5    -0.222611052291E+03    0.75942E-03   -0.93213E-03 37992   0.446E-01    0.120E+00
DAV:   6    -0.222607639328E+03    0.34130E-02   -0.13174E-02 38104   0.390E-01    0.620E-01
DAV:   7    -0.222607294756E+03    0.34457E-03   -0.62153E-03 38696   0.267E-01    0.490E-01
DAV:   8    -0.222607121078E+03    0.17368E-03   -0.29795E-03 38432   0.221E-01    0.376E-01
DAV:   9    -0.222607086829E+03    0.34249E-04   -0.17223E-03 38784   0.167E-01    0.279E-01
DAV:  10    -0.222607034723E+03    0.52106E-04   -0.73314E-04 38344   0.125E-01    0.131E-01
DAV:  11    -0.222607065713E+03   -0.30991E-04   -0.21766E-04 34040   0.690E-02    0.122E-01
DAV:  12    -0.222607049110E+03    0.16604E-04   -0.12334E-04 26856   0.546E-02    0.639E-02
DAV:  13    -0.222607047598E+03    0.15113E-05   -0.36071E-05 22936   0.313E-02
  65 F= -.22260705E+03 E0= -.22259548E+03  d E =0.220076E-01  mag=    22.0000
       N       E                     dE             d eps       ncg     rms          rms(c)
DAV:   1    -0.222452054419E+03    0.15499E+00   -0.15153E+01 30912   0.195E+01    0.152E+00
DAV:   2    -0.222593592738E+03   -0.14154E+00   -0.13246E+00 28416   0.363E+00    0.203E+00
DAV:   3    -0.222600141199E+03   -0.65485E-02   -0.12816E-01 38552   0.105E+00    0.198E+00
DAV:   4    -0.222595783144E+03    0.43581E-02   -0.24639E-02 38512   0.615E-01    0.105E+00
DAV:   5    -0.222595333414E+03    0.44973E-03   -0.12881E-02 39136   0.349E-01    0.792E-01
DAV:   6    -0.222595062399E+03    0.27101E-03   -0.43870E-03 38496   0.284E-01    0.570E-01
DAV:   7    -0.222595864643E+03   -0.80224E-03   -0.42233E-03 37352   0.310E-01    0.776E-01
DAV:   8    -0.222595034477E+03    0.83017E-03   -0.27901E-03 38200   0.270E-01    0.375E-01
DAV:   9    -0.222595121245E+03   -0.86768E-04   -0.10524E-03 38520   0.164E-01    0.304E-01
DAV:  10    -0.222594996889E+03    0.12436E-03   -0.41796E-04 38248   0.116E-01    0.957E-02
DAV:  11    -0.222595012922E+03   -0.16032E-04   -0.11536E-04 29520   0.525E-02    0.899E-02
DAV:  12    -0.222595000367E+03    0.12554E-04   -0.69713E-05 24944   0.372E-02    0.367E-02
DAV:  13    -0.222594999213E+03    0.11543E-05   -0.98576E-06 18504   0.208E-02
  66 F= -.22259500E+03 E0= -.22258346E+03  d E =0.120484E-01  mag=    22.0000
       N       E                     dE             d eps       ncg     rms          rms(c)
DAV:   1    -0.222582929047E+03    0.12071E-01   -0.14124E+00 31384   0.662E+00    0.584E-01
DAV:   2    -0.222602002051E+03   -0.19073E-01   -0.17755E-01 28472   0.123E+00    0.622E-01
DAV:   3    -0.222603402980E+03   -0.14009E-02   -0.88974E-03 38800   0.400E-01    0.778E-01
DAV:   4    -0.222602531490E+03    0.87149E-03   -0.34204E-03 39000   0.217E-01    0.229E-01
DAV:   5    -0.222602696742E+03   -0.16525E-03   -0.10489E-03 38464   0.113E-01    0.301E-01
DAV:   6    -0.222602643613E+03    0.53129E-04   -0.10808E-03 37656   0.104E-01    0.210E-01
DAV:   7    -0.222602655933E+03   -0.12320E-04   -0.57555E-04 38112   0.105E-01    0.172E-01
DAV:   8    -0.222602650038E+03    0.58947E-05   -0.27871E-04 34616   0.841E-02    0.119E-01
DAV:   9    -0.222602647028E+03    0.30103E-05   -0.92293E-05 26816   0.566E-02
  67 F= -.22260265E+03 E0= -.22259111E+03  d E =-.764782E-02  mag=    22.0000
       N       E                     dE             d eps       ncg     rms          rms(c)
DAV:   1    -0.222602183858E+03    0.46618E-03   -0.18777E-01 31160   0.233E+00    0.202E-01
DAV:   2    -0.222604450444E+03   -0.22666E-02   -0.21029E-02 28680   0.440E-01    0.249E-01
DAV:   3    -0.222604566354E+03   -0.11591E-03   -0.10875E-03 38328   0.152E-01    0.260E-01
DAV:   4    -0.222604492745E+03    0.73609E-04   -0.40985E-04 32080   0.809E-02    0.109E-01
DAV:   5    -0.222604499467E+03   -0.67216E-05   -0.17840E-04 26336   0.440E-02    0.101E-01
DAV:   6    -0.222604494592E+03    0.48746E-05   -0.90993E-05 24544   0.394E-02
  68 F= -.22260449E+03 E0= -.22259295E+03  d E =-.184756E-02  mag=    22.0000
       N       E                     dE             d eps       ncg     rms          rms(c)
DAV:   1    -0.222589223775E+03    0.15276E-01   -0.20542E+00 30616   0.703E+00    0.543E-01
DAV:   2    -0.222607120006E+03   -0.17896E-01   -0.17045E-01 28480   0.129E+00    0.551E-01
DAV:   3    -0.222608264678E+03   -0.11447E-02   -0.74492E-03 38376   0.381E-01    0.670E-01
DAV:   4    -0.222607657441E+03    0.60724E-03   -0.25900E-03 38528   0.206E-01    0.278E-01
DAV:   5    -0.222607767439E+03   -0.11000E-03   -0.11983E-03 38888   0.119E-01    0.318E-01
DAV:   6    -0.222607767596E+03   -0.15645E-06   -0.14072E-03 38184   0.121E-01    0.289E-01
DAV:   7    -0.222607740420E+03    0.27176E-04   -0.91939E-04 38216   0.128E-01    0.221E-01
DAV:   8    -0.222607703621E+03    0.36799E-04   -0.39281E-04 37544   0.109E-01    0.120E-01
DAV:   9    -0.222607707207E+03   -0.35868E-05   -0.13135E-04 28344   0.638E-02    0.988E-02
DAV:  10    -0.222607690193E+03    0.17015E-04   -0.38093E-05 23992   0.416E-02    0.313E-02
DAV:  11    -0.222607690933E+03   -0.74006E-06   -0.17395E-05 16720   0.209E-02
  69 F= -.22260769E+03 E0= -.22259613E+03  d E =-.319634E-02  mag=    22.0000
       N       E                     dE             d eps       ncg     rms          rms(c)
DAV:   1    -0.222607433270E+03    0.25692E-03   -0.29452E-01 28880   0.201E+00    0.121E-01
DAV:   2    -0.222608583533E+03   -0.11503E-02   -0.11311E-02 27952   0.346E-01    0.113E-01
DAV:   3    -0.222608635447E+03   -0.51913E-04   -0.33091E-04 39808   0.847E-02    0.149E-01
DAV:   4    -0.222608597360E+03    0.38087E-04   -0.88134E-05 27056   0.471E-02    0.570E-02
DAV:   5    -0.222608599916E+03   -0.25564E-05   -0.24048E-05 21888   0.322E-02
  70 F= -.22260860E+03 E0= -.22259706E+03  d E =-.908983E-03  mag=    22.0000
       N       E                     dE             d eps       ncg     rms          rms(c)
DAV:   1    -0.222605341215E+03    0.32561E-02   -0.28266E+00 29376   0.459E+00    0.248E-01
DAV:   2    -0.222612263207E+03   -0.69220E-02   -0.66243E-02 29912   0.777E-01    0.597E-01
DAV:   3    -0.222611716485E+03    0.54672E-03   -0.38627E-03 39968   0.235E-01    0.260E-01
DAV:   4    -0.222611690558E+03    0.25927E-04   -0.90072E-04 40592   0.984E-02    0.241E-01
DAV:   5    -0.222611599263E+03    0.91294E-04   -0.47435E-04 35280   0.693E-02    0.136E-01
DAV:   6    -0.222611588958E+03    0.10305E-04   -0.27438E-04 35216   0.882E-02    0.194E-01
DAV:   7    -0.222611529920E+03    0.59039E-04   -0.23918E-04 36704   0.834E-02    0.113E-01
DAV:   8    -0.222611518572E+03    0.11348E-04   -0.73173E-05 32656   0.503E-02    0.565E-02
DAV:   9    -0.222611516884E+03    0.16885E-05   -0.21650E-05 21888   0.285E-02
  71 F= -.22261152E+03 E0= -.22260000E+03  d E =-.291697E-02  mag=    22.0000
       N       E                     dE             d eps       ncg     rms          rms(c)
DAV:   1    -0.222602714155E+03    0.88044E-02   -0.51838E+00 29376   0.682E+00    0.352E-01
DAV:   2    -0.222616271768E+03   -0.13558E-01   -0.13323E-01 28400   0.115E+00    0.584E-01
DAV:   3    -0.222616002241E+03    0.26953E-03   -0.46951E-03 39920   0.285E-01    0.405E-01
DAV:   4    -0.222615760614E+03    0.24163E-03   -0.10174E-03 40512   0.135E-01    0.236E-01
DAV:   5    -0.222615784124E+03   -0.23511E-04   -0.92918E-04 38712   0.992E-02    0.286E-01
DAV:   6    -0.222615679975E+03    0.10415E-03   -0.74364E-04 37696   0.105E-01    0.213E-01
DAV:   7    -0.222615636050E+03    0.43925E-04   -0.52596E-04 36016   0.113E-01    0.212E-01
DAV:   8    -0.222615589278E+03    0.46772E-04   -0.28831E-04 38112   0.915E-02    0.101E-01
DAV:   9    -0.222615586329E+03    0.29490E-05   -0.55790E-05 27104   0.464E-02
  72 F= -.22261559E+03 E0= -.22260411E+03  d E =-.406945E-02  mag=    22.0000
       N       E                     dE             d eps       ncg     rms          rms(c)
DAV:   1    -0.222463817205E+03    0.15177E+00   -0.12706E+01 31376   0.187E+01    0.154E+00
DAV:   2    -0.222599902585E+03   -0.13609E+00   -0.12686E+00 28264   0.339E+00    0.184E+00
DAV:   3    -0.222606370672E+03   -0.64681E-02   -0.70831E-02 38544   0.105E+00    0.201E+00
DAV:   4    -0.222602509514E+03    0.38612E-02   -0.41699E-02 38776   0.586E-01    0.904E-01
DAV:   5    -0.222602185717E+03    0.32380E-03   -0.76517E-03 40384   0.282E-01    0.587E-01
DAV:   6    -0.222602483516E+03   -0.29780E-03   -0.35162E-03 38800   0.236E-01    0.567E-01
DAV:   7    -0.222602711667E+03   -0.22815E-03   -0.46768E-03 38408   0.248E-01    0.625E-01
DAV:   8    -0.222602380646E+03    0.33102E-03   -0.25802E-03 38240   0.245E-01    0.377E-01
DAV:   9    -0.222602354406E+03    0.26240E-04   -0.10064E-03 38352   0.152E-01    0.241E-01
DAV:  10    -0.222602296206E+03    0.58200E-04   -0.48850E-04 38216   0.101E-01    0.769E-02
DAV:  11    -0.222602317033E+03   -0.20826E-04   -0.81498E-05 26976   0.441E-02    0.737E-02
DAV:  12    -0.222602310269E+03    0.67635E-05   -0.37648E-05 24256   0.332E-02
  73 F= -.22260231E+03 E0= -.22259101E+03  d E =0.132761E-01  mag=    22.0000
       N       E                     dE             d eps       ncg     rms          rms(c)
DAV:   1    -0.222570386338E+03    0.31931E-01   -0.27435E+00 31336   0.935E+00    0.863E-01
DAV:   2    -0.222610279593E+03   -0.39893E-01   -0.36512E-01 28120   0.173E+00    0.104E+00
DAV:   3    -0.222612462728E+03   -0.21831E-02   -0.19005E-02 38376   0.614E-01    0.112E+00
DAV:   4    -0.222610974250E+03    0.14885E-02   -0.83001E-03 38640   0.320E-01    0.389E-01
DAV:   5    -0.222611103259E+03   -0.12901E-03   -0.24263E-03 39976   0.141E-01    0.341E-01
DAV:   6    -0.222611113212E+03   -0.99527E-05   -0.11895E-03 38472   0.128E-01    0.241E-01
DAV:   7    -0.222611237476E+03   -0.12426E-03   -0.81196E-04 38360   0.134E-01    0.309E-01
DAV:   8    -0.222611130430E+03    0.10705E-03   -0.40088E-04 37912   0.112E-01    0.123E-01
DAV:   9    -0.222611140304E+03   -0.98736E-05   -0.12654E-04 30088   0.693E-02    0.796E-02
DAV:  10    -0.222611132249E+03    0.80550E-05   -0.52820E-05 24944   0.398E-02
  74 F= -.22261113E+03 E0= -.22259980E+03  d E =-.882198E-02  mag=    22.0000
       N       E                     dE             d eps       ncg     rms          rms(c)
DAV:   1    -0.222605192497E+03    0.59478E-02   -0.54073E-01 31424   0.410E+00    0.367E-01
[...]
DAV:   2    -0.222624661506E+03   -0.32133E-01   -0.27224E-01 29192   0.160E+00    0.195E+00
DAV:   3    -0.222619490066E+03    0.51714E-02   -0.44944E-02 37608   0.613E-01    0.682E-01
DAV:   4    -0.222620838259E+03   -0.13482E-02   -0.68067E-03 39072   0.258E-01    0.616E-01
DAV:   5    -0.222620204133E+03    0.63413E-03   -0.16171E-03 38968   0.173E-01    0.195E-01
DAV:   6    -0.222620380179E+03   -0.17605E-03   -0.62253E-04 38696   0.979E-02    0.270E-01
DAV:   7    -0.222620293965E+03    0.86214E-04   -0.59657E-04 38824   0.976E-02    0.143E-01
DAV:   8    -0.222620312107E+03   -0.18142E-04   -0.12057E-04 35224   0.603E-02    0.648E-02
DAV:   9    -0.222620311736E+03    0.37157E-06   -0.49437E-05 24888   0.413E-02
  83 F= -.22262031E+03 E0= -.22260908E+03  d E =0.266975E-03  mag=    22.0000
       N       E                     dE             d eps       ncg     rms          rms(c)
DAV:   1    -0.222618197327E+03    0.21148E-02   -0.14851E+00 29936   0.402E+00    0.218E-01
DAV:   2    -0.222622750602E+03   -0.45533E-02   -0.43391E-02 28128   0.675E-01    0.395E-01
DAV:   3    -0.222622571244E+03    0.17936E-03   -0.17920E-03 40120   0.177E-01    0.210E-01
DAV:   4    -0.222622512047E+03    0.59197E-04   -0.20812E-04 38056   0.695E-02    0.866E-02
DAV:   5    -0.222622523971E+03   -0.11924E-04   -0.23246E-04 32704   0.532E-02    0.148E-01
DAV:   6    -0.222622482875E+03    0.41096E-04   -0.33480E-04 34288   0.567E-02    0.917E-02
DAV:   7    -0.222622478747E+03    0.41284E-05   -0.10670E-04 31976   0.502E-02    0.580E-02
DAV:   8    -0.222622478623E+03    0.12366E-06   -0.30710E-05 22336   0.304E-02
  84 F= -.22262248E+03 E0= -.22261121E+03  d E =-.216689E-02  mag=    22.0000
       N       E                     dE             d eps       ncg     rms          rms(c)
DAV:   1    -0.222621104302E+03    0.13744E-02   -0.40439E-01 29960   0.276E+00    0.211E-01
DAV:   2    -0.222623894674E+03   -0.27904E-02   -0.24651E-02 29784   0.493E-01    0.522E-01
DAV:   3    -0.222623529115E+03    0.36556E-03   -0.28757E-03 38464   0.191E-01    0.211E-01
DAV:   4    -0.222623634199E+03   -0.10508E-03   -0.81241E-04 37056   0.906E-02    0.199E-01
DAV:   5    -0.222623565622E+03    0.68578E-04   -0.22682E-04 27344   0.574E-02    0.581E-02
DAV:   6    -0.222623579387E+03   -0.13765E-04   -0.42427E-05 23824   0.339E-02    0.780E-02
DAV:   7    -0.222623571365E+03    0.80225E-05   -0.42372E-05 23608   0.343E-02
  85 F= -.22262357E+03 E0= -.22261231E+03  d E =-.109274E-02  mag=    22.0000
       N       E                     dE             d eps       ncg     rms          rms(c)
DAV:   1    -0.222614862663E+03    0.87167E-02   -0.38519E+00 28880   0.662E+00    0.385E-01
DAV:   2    -0.222627705277E+03   -0.12843E-01   -0.11968E-01 29720   0.113E+00    0.882E-01
DAV:   3    -0.222626565928E+03    0.11393E-02   -0.60381E-03 39528   0.361E-01    0.375E-01
DAV:   4    -0.222626682937E+03   -0.11701E-03   -0.22459E-03 39768   0.155E-01    0.321E-01
DAV:   5    -0.222626507460E+03    0.17548E-03   -0.87284E-04 38504   0.980E-02    0.129E-01
DAV:   6    -0.222626537278E+03   -0.29818E-04   -0.32872E-04 36232   0.798E-02    0.201E-01
DAV:   7    -0.222626456741E+03    0.80537E-04   -0.35945E-04 35888   0.818E-02    0.104E-01
DAV:   8    -0.222626462638E+03   -0.58971E-05   -0.13938E-04 36184   0.586E-02    0.759E-02
DAV:   9    -0.222626460062E+03    0.25763E-05   -0.39661E-05 23568   0.356E-02
  86 F= -.22262646E+03 E0= -.22261515E+03  d E =-.288870E-02  mag=    22.0000
       N       E                     dE             d eps       ncg     rms          rms(c)
DAV:   1    -0.222555116864E+03    0.71346E-01   -0.32615E+01 28744   0.169E+01    0.874E-01
DAV:   2    -0.222639774283E+03   -0.84657E-01   -0.83526E-01 28808   0.282E+00    0.155E+00
DAV:   3    -0.222637161657E+03    0.26126E-02   -0.35423E-02 40520   0.781E-01    0.102E+00
DAV:   4    -0.222635630689E+03    0.15310E-02   -0.14180E-02 38680   0.350E-01    0.631E-01
DAV:   5    -0.222635065754E+03    0.56494E-03   -0.41835E-03 40080   0.184E-01    0.333E-01
DAV:   6    -0.222634337649E+03    0.72810E-03   -0.17762E-03 33080   0.177E-01    0.225E-01
DAV:   7    -0.222634418689E+03   -0.81040E-04   -0.11961E-03 36848   0.160E-01    0.233E-01
DAV:   8    -0.222634352782E+03    0.65907E-04   -0.41308E-04 38472   0.989E-02    0.799E-02
DAV:   9    -0.222634373874E+03   -0.21092E-04   -0.85964E-05 29360   0.587E-02    0.688E-02
DAV:  10    -0.222634382659E+03   -0.87850E-05   -0.59422E-05 25032   0.434E-02
  87 F= -.22263438E+03 E0= -.22262282E+03  d E =-.792260E-02  mag=    22.0000
       N       E                     dE             d eps       ncg     rms          rms(c)
DAV:   1    -0.222440896091E+03    0.19348E+00   -0.36361E+01 29384   0.243E+01    0.153E+00
DAV:   2    -0.222615926239E+03   -0.17503E+00   -0.16733E+00 27648   0.426E+00    0.177E+00
DAV:   3    -0.222623867306E+03   -0.79411E-02   -0.84246E-02 39616   0.111E+00    0.204E+00
DAV:   4    -0.222616706381E+03    0.71609E-02   -0.13235E-02 38784   0.592E-01    0.696E-01
DAV:   5    -0.222617182723E+03   -0.47634E-03   -0.59981E-03 39048   0.262E-01    0.699E-01
DAV:   6    -0.222616987259E+03    0.19546E-03   -0.86484E-03 37592   0.277E-01    0.720E-01
DAV:   7    -0.222616919021E+03    0.68238E-04   -0.95361E-03 38080   0.337E-01    0.699E-01
DAV:   8    -0.222616399790E+03    0.51923E-03   -0.29980E-03 38216   0.246E-01    0.353E-01
DAV:   9    -0.222616356577E+03    0.43213E-04   -0.11014E-03 38504   0.155E-01    0.162E-01
DAV:  10    -0.222616344891E+03    0.11686E-04   -0.21209E-04 35728   0.861E-02    0.754E-02
DAV:  11    -0.222616360675E+03   -0.15785E-04   -0.13456E-04 27064   0.477E-02    0.944E-02
DAV:  12    -0.222616349708E+03    0.10967E-04   -0.81287E-05 24432   0.419E-02    0.437E-02
DAV:  13    -0.222616351176E+03   -0.14675E-05   -0.14472E-05 18392   0.207E-02
  88 F= -.22261635E+03 E0= -.22260498E+03  d E =0.180315E-01  mag=    22.0000
       N       E                     dE             d eps       ncg     rms          rms(c)
DAV:   1    -0.222612741271E+03    0.36084E-02   -0.96227E-01 30656   0.503E+00    0.414E-01
DAV:   2    -0.222623039754E+03   -0.10298E-01   -0.96534E-02 28080   0.930E-01    0.331E-01
DAV:   3    -0.222624124325E+03   -0.10846E-02   -0.32937E-03 39016   0.268E-01    0.639E-01
DAV:   4    -0.222623409235E+03    0.71509E-03   -0.86988E-04 38608   0.183E-01    0.136E-01
DAV:   5    -0.222623529178E+03   -0.11994E-03   -0.38476E-04 36704   0.724E-02    0.192E-01
DAV:   6    -0.222623509602E+03    0.19577E-04   -0.62333E-04 35864   0.779E-02    0.158E-01
DAV:   7    -0.222623511417E+03   -0.18157E-05   -0.45328E-04 32928   0.732E-02    0.132E-01
DAV:   8    -0.222623500027E+03    0.11391E-04   -0.12301E-04 27288   0.461E-02    0.557E-02
DAV:   9    -0.222623497711E+03    0.23156E-05   -0.24641E-05 20144   0.247E-02
  89 F= -.22262350E+03 E0= -.22261210E+03  d E =-.714654E-02  mag=    22.0000
       N       E                     dE             d eps       ncg     rms          rms(c)
DAV:   1    -0.222621924599E+03    0.15754E-02   -0.53246E-01 30736   0.360E+00    0.284E-01
DAV:   2    -0.222626791202E+03   -0.48666E-02   -0.45763E-02 28120   0.659E-01    0.247E-01
DAV:   3    -0.222627302514E+03   -0.51131E-03   -0.17392E-03 39376   0.195E-01    0.459E-01
DAV:   4    -0.222626939867E+03    0.36265E-03   -0.59153E-04 38648   0.133E-01    0.925E-02
DAV:   5    -0.222627000321E+03   -0.60454E-04   -0.19206E-04 30312   0.500E-02    0.135E-01
DAV:   6    -0.222626988787E+03    0.11535E-04   -0.31563E-04 30800   0.573E-02    0.105E-01
DAV:   7    -0.222626994395E+03   -0.56088E-05   -0.19987E-04 27920   0.526E-02    0.977E-02
DAV:   8    -0.222626985933E+03    0.84622E-05   -0.68886E-05 23952   0.369E-02
  90 F= -.22262699E+03 E0= -.22261557E+03  d E =-.348822E-02  mag=    22.0000
       N       E                     dE             d eps       ncg     rms          rms(c)
DAV:   1    -0.222621668912E+03    0.53255E-02   -0.12373E+00 30040   0.501E+00    0.354E-01
DAV:   2    -0.222629990680E+03   -0.83218E-02   -0.78179E-02 28016   0.901E-01    0.413E-01
DAV:   3    -0.222630504577E+03   -0.51390E-03   -0.31784E-03 39296   0.263E-01    0.535E-01
DAV:   4    -0.222630076542E+03    0.42803E-03   -0.93491E-04 38864   0.159E-01    0.138E-01
DAV:   5    -0.222630131081E+03   -0.54539E-04   -0.21705E-04 33776   0.592E-02    0.149E-01
DAV:   6    -0.222630126132E+03    0.49489E-05   -0.39860E-04 35136   0.677E-02    0.150E-01
DAV:   7    -0.222630123455E+03    0.26773E-05   -0.45557E-04 34280   0.683E-02    0.135E-01
DAV:   8    -0.222630114309E+03    0.91463E-05   -0.17125E-04 26816   0.501E-02    0.719E-02
DAV:   9    -0.222630108641E+03    0.56678E-05   -0.35189E-05 22616   0.337E-02
  91 F= -.22263011E+03 E0= -.22261867E+03  d E =-.312271E-02  mag=    22.0000
       N       E                     dE             d eps       ncg     rms          rms(c)
DAV:   1    -0.222629761255E+03    0.35305E-03   -0.43626E-01 29864   0.236E+00    0.138E-01
DAV:   2    -0.222631339239E+03   -0.15780E-02   -0.15010E-02 27696   0.406E-01    0.227E-01
DAV:   3    -0.222631318904E+03    0.20335E-04   -0.68309E-04 40104   0.115E-01    0.164E-01
DAV:   4    -0.222631295010E+03    0.23894E-04   -0.17223E-04 32360   0.589E-02    0.884E-02
DAV:   5    -0.222631287453E+03    0.75565E-05   -0.64978E-05 23424   0.279E-02
  92 F= -.22263129E+03 E0= -.22261981E+03  d E =-.117881E-02  mag=    22.0000
       N       E                     dE             d eps       ncg     rms          rms(c)
DAV:   1    -0.222630903210E+03    0.39180E-03   -0.72998E-01 29376   0.253E+00    0.143E-01
DAV:   2    -0.222633036027E+03   -0.21328E-02   -0.19340E-02 30536   0.451E-01    0.517E-01
DAV:   3    -0.222632579840E+03    0.45619E-03   -0.22351E-03 39864   0.157E-01    0.116E-01
DAV:   4    -0.222632637088E+03   -0.57248E-04   -0.24856E-04 33472   0.606E-02    0.137E-01
DAV:   5    -0.222632606348E+03    0.30740E-04   -0.11907E-04 26704   0.464E-02    0.799E-02
DAV:   6    -0.222632604763E+03    0.15855E-05   -0.65453E-05 26832   0.416E-02
  93 F= -.22263260E+03 E0= -.22262109E+03  d E =-.131731E-02  mag=    22.0000
       N       E                     dE             d eps       ncg     rms          rms(c)
DAV:   1    -0.222632845120E+03   -0.23877E-03   -0.79417E-02 29376   0.805E-01    0.836E-02
DAV:   2    -0.222633256970E+03   -0.41185E-03   -0.22387E-03 32264   0.190E-01    0.366E-01
DAV:   3    -0.222632985006E+03    0.27196E-03   -0.45270E-04 38488   0.115E-01    0.501E-02
DAV:   4    -0.222633009914E+03   -0.24908E-04   -0.31438E-05 24600   0.313E-02    0.448E-02
DAV:   5    -0.222633007453E+03    0.24607E-05   -0.17878E-05 17200   0.190E-02
  94 F= -.22263301E+03 E0= -.22262150E+03  d E =-.402691E-03  mag=    22.0000
       N       E                     dE             d eps       ncg     rms          rms(c)
DAV:   1    -0.222633142892E+03   -0.13298E-03   -0.25036E-01 28872   0.145E+00    0.794E-02
DAV:   2    -0.222633790549E+03   -0.64766E-03   -0.62029E-03 29960   0.246E-01    0.204E-01
DAV:   3    -0.222633728382E+03    0.62168E-04   -0.56501E-04 40592   0.845E-02    0.879E-02
DAV:   4    -0.222633727634E+03    0.74781E-06   -0.12447E-04 24760   0.369E-02    0.787E-02
DAV:   5    -0.222633714788E+03    0.12846E-04   -0.39338E-05 19792   0.258E-02    0.305E-02
DAV:   6    -0.222633712520E+03    0.22685E-05   -0.29802E-05 24528   0.281E-02
  95 F= -.22263371E+03 E0= -.22262219E+03  d E =-.705067E-03  mag=    22.0000
       N       E                     dE             d eps       ncg     rms          rms(c)
DAV:   1    -0.222633667912E+03    0.46876E-04   -0.29732E-01 29376   0.165E+00    0.870E-02
DAV:   2    -0.222634443736E+03   -0.77582E-03   -0.75267E-03 29496   0.277E-01    0.179E-01
DAV:   3    -0.222634414181E+03    0.29555E-04   -0.55041E-04 40760   0.862E-02    0.108E-01
DAV:   4    -0.222634402102E+03    0.12079E-04   -0.15597E-04 27008   0.422E-02    0.754E-02
DAV:   5    -0.222634392345E+03    0.97570E-05   -0.50218E-05 20328   0.274E-02
  96 F= -.22263439E+03 E0= -.22262284E+03  d E =-.679825E-03  mag=    22.0000
       N       E                     dE             d eps       ncg     rms          rms(c)
DAV:   1    -0.222207019571E+03    0.42738E+00   -0.13387E+02 29232   0.370E+01    0.206E+00
DAV:   2    -0.222625177268E+03   -0.41816E+00   -0.40969E+00 28056   0.634E+00    0.338E+00
DAV:   3    -0.222618692831E+03    0.64844E-02   -0.26155E-01 39232   0.173E+00    0.235E+00
DAV:   4    -0.222606987289E+03    0.11706E-01   -0.34512E-02 38984   0.738E-01    0.118E+00
DAV:   5    -0.222606693215E+03    0.29407E-03   -0.25940E-02 38928   0.398E-01    0.116E+00
DAV:   6    -0.222603559596E+03    0.31336E-02   -0.15074E-02 36624   0.413E-01    0.884E-01
DAV:   7    -0.222603492375E+03    0.67222E-04   -0.96665E-03 37008   0.463E-01    0.958E-01
DAV:   8    -0.222602331485E+03    0.11609E-02   -0.54034E-03 38800   0.323E-01    0.477E-01
DAV:   9    -0.222602275079E+03    0.56406E-04   -0.15926E-03 38544   0.209E-01    0.235E-01
DAV:  10    -0.222602333234E+03   -0.58154E-04   -0.43728E-04 39424   0.119E-01    0.155E-01
DAV:  11    -0.222602355983E+03   -0.22749E-04   -0.37609E-04 37192   0.933E-02    0.150E-01
DAV:  12    -0.222602341454E+03    0.14529E-04   -0.24369E-04 28664   0.634E-02    0.107E-01
DAV:  13    -0.222602332933E+03    0.85205E-05   -0.74079E-05 26552   0.493E-02
  97 F= -.22260233E+03 E0= -.22259095E+03  d E =0.320594E-01  mag=    22.0000
       N       E                     dE             d eps       ncg     rms          rms(c)
DAV:   1    -0.222552853441E+03    0.49488E-01   -0.12263E+01 28720   0.141E+01    0.953E-01
DAV:   2    -0.222617531095E+03   -0.64678E-01   -0.62232E-01 27648   0.248E+00    0.104E+00
DAV:   3    -0.222622717187E+03   -0.51861E-02   -0.53709E-02 39832   0.709E-01    0.167E+00
DAV:   4    -0.222618136983E+03    0.45802E-02   -0.19828E-02 39056   0.398E-01    0.473E-01
DAV:   5    -0.222618313539E+03   -0.17656E-03   -0.15920E-03 39744   0.170E-01    0.296E-01
DAV:   6    -0.222618153324E+03    0.16022E-03   -0.90249E-04 35248   0.138E-01    0.232E-01
DAV:   7    -0.222618241949E+03   -0.88625E-04   -0.10747E-03 38448   0.164E-01    0.269E-01
DAV:   8    -0.222618212963E+03    0.28986E-04   -0.37380E-04 38448   0.116E-01    0.149E-01
DAV:   9    -0.222618190285E+03    0.22679E-04   -0.12225E-04 33328   0.622E-02    0.689E-02
DAV:  10    -0.222618187342E+03    0.29428E-05   -0.30455E-05 23464   0.335E-02
  98 F= -.22261819E+03 E0= -.22260675E+03  d E =-.158544E-01  mag=    22.0000
       N       E                     dE             d eps       ncg     rms          rms(c)
DAV:   1    -0.222614980362E+03    0.32099E-02   -0.25089E+00 29376   0.521E+00    0.294E-01
DAV:   2    -0.222622562017E+03   -0.75817E-02   -0.73573E-02 28008   0.870E-01    0.469E-01
DAV:   3    -0.222622508144E+03    0.53873E-04   -0.40756E-03 39752   0.255E-01    0.373E-01
DAV:   4    -0.222622352809E+03    0.15534E-03   -0.16021E-03 39248   0.126E-01    0.232E-01
DAV:   5    -0.222622277307E+03    0.75502E-04   -0.45669E-04 35336   0.677E-02    0.103E-01
DAV:   6    -0.222622247108E+03    0.30199E-04   -0.16207E-04 33536   0.631E-02    0.107E-01
DAV:   7    -0.222622242198E+03    0.49102E-05   -0.15167E-04 35624   0.623E-02    0.791E-02
DAV:   8    -0.222622248798E+03   -0.66004E-05   -0.34551E-05 23968   0.406E-02
  99 F= -.22262225E+03 E0= -.22261079E+03  d E =-.406146E-02  mag=    22.0000
       N       E                     dE             d eps       ncg     rms          rms(c)
DAV:   1    -0.222611381696E+03    0.10861E-01   -0.67641E+00 28800   0.773E+00    0.421E-01
DAV:   2    -0.222629037989E+03   -0.17656E-01   -0.17204E-01 29512   0.129E+00    0.797E-01
DAV:   3    -0.222628353052E+03    0.68494E-03   -0.91175E-03 39944   0.384E-01    0.483E-01
DAV:   4    -0.222628106865E+03    0.24619E-03   -0.29177E-03 39400   0.167E-01    0.347E-01
DAV:   5    -0.222627919143E+03    0.18772E-03   -0.10697E-03 38920   0.972E-02    0.168E-01
DAV:   6    -0.222627807044E+03    0.11210E-03   -0.47926E-04 33696   0.105E-01    0.177E-01
DAV:   7    -0.222627781341E+03    0.25703E-04   -0.42075E-04 36888   0.968E-02    0.963E-02
DAV:   8    -0.222627799912E+03   -0.18571E-04   -0.85541E-05 32080   0.524E-02    0.101E-01
DAV:   9    -0.222627783185E+03    0.16727E-04   -0.34215E-05 23480   0.369E-02    0.264E-02
DAV:  10    -0.222627784695E+03   -0.15095E-05   -0.82931E-06 17288   0.189E-02
 100 F= -.22262778E+03 E0= -.22261628E+03  d E =-.553590E-02  mag=    22.0000
       N       E                     dE             d eps       ncg     rms          rms(c)
DAV:   1    -0.222627705425E+03    0.77760E-04   -0.82338E-01 29376   0.254E+00    0.139E-01
DAV:   2    -0.222629713128E+03   -0.20077E-02   -0.19516E-02 29432   0.421E-01    0.279E-01
DAV:   3    -0.222629599592E+03    0.11354E-03   -0.81054E-04 40144   0.121E-01    0.136E-01
DAV:   4    -0.222629561038E+03    0.38554E-04   -0.70775E-05 33264   0.396E-02    0.560E-02
DAV:   5    -0.222629556509E+03    0.45290E-05   -0.74204E-05 30968   0.436E-02
 101 F= -.22262956E+03 E0= -.22261803E+03  d E =-.177181E-02  mag=    22.0000
       N       E                     dE             d eps       ncg     rms          rms(c)
DAV:   1    -0.222629577671E+03   -0.16633E-04   -0.63720E-01 29376   0.226E+00    0.129E-01
DAV:   2    -0.222631177326E+03   -0.15997E-02   -0.15355E-02 29960   0.386E-01    0.319E-01
DAV:   3    -0.222631033080E+03    0.14425E-03   -0.13473E-03 39712   0.130E-01    0.150E-01
DAV:   4    -0.222631023488E+03    0.95922E-05   -0.33396E-04 34032   0.590E-02    0.126E-01
DAV:   5    -0.222630993057E+03    0.30431E-04   -0.10656E-04 24680   0.376E-02    0.531E-02
DAV:   6    -0.222630994340E+03   -0.12830E-05   -0.44174E-05 25664   0.385E-02
 102 F= -.22263099E+03 E0= -.22261946E+03  d E =-.143783E-02  mag=    22.0000
       N       E                     dE             d eps       ncg     rms          rms(c)
DAV:   1    -0.222631276625E+03   -0.28357E-03   -0.25841E-01 29376   0.145E+00    0.110E-01
DAV:   2    -0.222632112084E+03   -0.83546E-03   -0.65300E-03 30944   0.289E-01    0.382E-01
DAV:   3    -0.222631825408E+03    0.28668E-03   -0.58733E-04 38720   0.134E-01    0.828E-02
DAV:   4    -0.222631843232E+03   -0.17824E-04   -0.62362E-05 28104   0.471E-02    0.710E-02
DAV:   5    -0.222631835426E+03    0.78061E-05   -0.44729E-05 21952   0.281E-02
 103 F= -.22263184E+03 E0= -.22262029E+03  d E =-.841086E-03  mag=    22.0000
       N       E                     dE             d eps       ncg     rms          rms(c)
DAV:   1    -0.222631674302E+03    0.16893E-03   -0.22637E-01 28768   0.162E+00    0.110E-01
DAV:   2    -0.222632568499E+03   -0.89420E-03   -0.79361E-03 30824   0.302E-01    0.390E-01
DAV:   3    -0.222632301472E+03    0.26703E-03   -0.14580E-03 38336   0.125E-01    0.898E-02
DAV:   4    -0.222632339849E+03   -0.38378E-04   -0.15897E-04 28616   0.484E-02    0.110E-01
DAV:   5    -0.222632315980E+03    0.23870E-04   -0.58856E-05 23888   0.362E-02    0.412E-02
DAV:   6    -0.222632319855E+03   -0.38753E-05   -0.32311E-05 21976   0.331E-02
 104 F= -.22263232E+03 E0= -.22262077E+03  d E =-.484429E-03  mag=    22.0000
       N       E                     dE             d eps       ncg     rms          rms(c)
DAV:   1    -0.222630298390E+03    0.20176E-02   -0.42531E-01 28984   0.238E+00    0.148E-01
DAV:   2    -0.222631977173E+03   -0.16788E-02   -0.15049E-02 30208   0.412E-01    0.384E-01
DAV:   3    -0.222631777468E+03    0.19970E-03   -0.14682E-03 39664   0.146E-01    0.146E-01
DAV:   4    -0.222631802913E+03   -0.25444E-04   -0.30838E-04 32264   0.637E-02    0.110E-01
DAV:   5    -0.222631784520E+03    0.18393E-04   -0.12117E-04 25200   0.377E-02    0.511E-02
DAV:   6    -0.222631780927E+03    0.35930E-05   -0.20645E-05 19560   0.270E-02
 105 F= -.22263178E+03 E0= -.22262025E+03  d E =0.538928E-03  mag=    22.0000
