       N       E                     dE             d eps       ncg     rms          ort
DAV:   1     0.733335338222E+04    0.73334E+04   -0.35070E+05  9568   0.175E+03
DAV:   2     0.481933833237E+03   -0.68514E+04   -0.64294E+04  9568   0.512E+02
DAV:   3    -0.317921678904E+03   -0.79986E+03   -0.77530E+03  9568   0.195E+02
DAV:   4    -0.351038460812E+03   -0.33117E+02   -0.32689E+02  9568   0.383E+01
DAV:   5    -0.353307225619E+03   -0.22688E+01   -0.22420E+01  9568   0.767E+00
SDA:   6    -0.174911815695E+03    0.17840E+03   -0.22420E+01  9568   0.143E+04 0.000E+00
CGA:   7    -0.266530991291E+03   -0.91619E+02   -0.10914E+03  9568   0.658E+03 0.200E+03
CGA:   8    -0.281073476306E+03   -0.14542E+02   -0.11750E+02  9568   0.754E+03-0.452E+03
CGA:   9    -0.278495377647E+03    0.25781E+01   -0.44781E+02  9568   0.144E+04-0.258E+03
CGA:  10    -0.287509117612E+03   -0.90137E+01   -0.53674E+02  9568   0.213E+04-0.100E+04
CGA:  11    -0.283520971683E+03    0.39881E+01   -0.93565E+02  9568   0.207E+03-0.654E+02
CGA:  12    -0.291204884896E+03   -0.76839E+01   -0.16694E+01  9568   0.111E+04 0.140E+04
CGA:  13    -0.277500479320E+03    0.13704E+02   -0.42263E+02  9568   0.479E+03-0.147E+03
CGA:  14    -0.283667930796E+03   -0.61675E+01   -0.34325E+01  9568   0.552E+03 0.464E+03
CGA:  15    -0.290916590350E+03   -0.72487E+01   -0.54447E+01  9568   0.613E+03 0.301E+03
CGA:  16    -0.288208438126E+03    0.27082E+01   -0.12107E+02  9568   0.311E+03-0.239E+03
CGA:  17    -0.302433421213E+03   -0.14225E+02   -0.19076E+01  9568   0.537E+03 0.950E+03
CGA:  18    -0.289528147146E+03    0.12905E+02   -0.25459E+02  9568   0.339E+03-0.236E+02
CGA:  19    -0.294433154197E+03   -0.49050E+01   -0.36033E+01  9568   0.545E+03 0.337E+03
CGA:  20    -0.290053879124E+03    0.43793E+01   -0.10589E+02  9568   0.629E+03-0.453E+03
CGA:  21    -0.286266021285E+03    0.37879E+01   -0.15388E+02  9568   0.488E+03-0.251E+03
CGA:  22    -0.294064014396E+03   -0.77980E+01   -0.22538E+01  9568   0.353E+03 0.420E+03
CGA:  23    -0.305935103635E+03   -0.11871E+02   -0.36275E+01  9568   0.134E+03 0.216E+03
CGA:  24    -0.305211159339E+03    0.72394E+00   -0.59405E+01  9568   0.611E+02-0.167E+02
CGA:  25    -0.305640336807E+03   -0.42918E+00   -0.59288E+00  9568   0.163E+03-0.220E+01
CGA:  26    -0.292846791089E+03    0.12794E+02   -0.27317E+01  9568   0.618E+03-0.214E+03
CGA:  27    -0.291700791857E+03    0.11460E+01   -0.11491E+02  9568   0.123E+04-0.852E+03
CGA:  28    -0.291232542922E+03    0.46825E+00   -0.29860E+02  9568   0.709E+03-0.251E+03
CGA:  29    -0.303492840140E+03   -0.12260E+02   -0.13382E+02  9568   0.278E+03 0.282E+03
CGA:  30    -0.290004289258E+03    0.13489E+02   -0.89935E+01  9568   0.264E+03-0.902E+02
CGA:  31    -0.299052900064E+03   -0.90486E+01   -0.10326E+01  9568   0.152E+04 0.178E+04
CGA:  32    -0.286660479488E+03    0.12392E+02   -0.49514E+02  9568   0.799E+03-0.892E+02
CGA:  33    -0.301625037699E+03   -0.14965E+02   -0.16248E+02  9568   0.472E+03 0.693E+03
CGA:  34    -0.292131135005E+03    0.94939E+01   -0.12465E+02  9568   0.658E+03-0.111E+03
CGA:  35    -0.286193669654E+03    0.59375E+01   -0.78083E+01  9568   0.313E+03-0.141E+03
CGA:  36    -0.306551253972E+03   -0.20358E+02   -0.25160E+01  9568   0.396E+03-0.808E+03
CGA:  37    -0.299629997691E+03    0.69213E+01   -0.92116E+01  9568   0.236E+03-0.929E+02
CGA:  38    -0.296772949277E+03    0.28570E+01   -0.28790E+01  9568   0.165E+04-0.128E+04
CGA:  39    -0.294626257848E+03    0.21467E+01   -0.42798E+02  9568   0.323E+03-0.203E+03
CGA:  40    -0.296185869677E+03   -0.15596E+01   -0.56669E+01  9568   0.325E+04 0.108E+04
CGA:  41    -0.291400756564E+03    0.47851E+01   -0.83366E+02  9568   0.129E+04-0.284E+03
CGA:  42    -0.293616652322E+03   -0.22159E+01   -0.28414E+02  9568   0.188E+03-0.143E+03
CGA:  43    -0.306090860143E+03   -0.12474E+02   -0.25773E+01  9568   0.467E+03 0.107E+04
CGA:  44    -0.294188064871E+03    0.11903E+02   -0.79882E+01  9568   0.141E+04-0.539E+03
CGA:  45    -0.294810854044E+03   -0.62279E+00   -0.31025E+02  9568   0.207E+03-0.151E+03
CGA:  46    -0.305236238329E+03   -0.10425E+02   -0.27513E+01  9568   0.591E+03 0.825E+03
CGA:  47    -0.294295329320E+03    0.10941E+02   -0.95096E+01  9568   0.118E+04-0.625E+03
CGA:  48    -0.296848634277E+03   -0.25533E+01   -0.23674E+02  9568   0.299E+03-0.201E+03
CGA:  49    -0.305399525091E+03   -0.85509E+01   -0.36794E+01  9568   0.859E+03 0.680E+03
CGA:  50    -0.299400397830E+03    0.59991E+01   -0.13907E+02  9568   0.149E+04-0.663E+03
CGA:  51    -0.297260085081E+03    0.21403E+01   -0.27127E+02  9568   0.258E+03-0.142E+03
CGA:  52    -0.309942160790E+03   -0.12682E+02   -0.29026E+01  9568   0.288E+02-0.926E+01
CGA:  53    -0.310014625822E+03   -0.72465E-01   -0.12081E+00  9568   0.343E+02-0.108E+02
CGA:  54    -0.310077491279E+03   -0.62865E-01   -0.13011E+00  9568   0.524E+02-0.104E+02
CGA:  55    -0.310151743567E+03   -0.74252E-01   -0.75531E-01  9568   0.284E+02-0.253E+01
CGA:  56    -0.310197633738E+03   -0.45890E-01   -0.60676E-01  9568   0.162E+02-0.691E+01
CGA:  57    -0.310224476223E+03   -0.26842E-01   -0.38950E-01  9568   0.219E+02-0.368E+01
CGA:  58    -0.310278034779E+03   -0.53559E-01   -0.50284E-01  9568   0.291E+02 0.922E+00
CGA:  59    -0.310362493714E+03   -0.84459E-01   -0.11145E+00  9568   0.248E+02-0.788E+01
CGA:  60    -0.310321346551E+03    0.41147E-01   -0.94587E-01  9568   0.238E+02-0.224E+02
CGA:  61    -0.310592577792E+03   -0.27123E+00   -0.28588E+00  9568   0.237E+01-0.908E+00
CGA:  62    -0.310613524541E+03   -0.20947E-01   -0.21412E-01  9568   0.186E+01-0.369E-01
CGA:  63    -0.310724829956E+03   -0.11131E+00   -0.12554E+00  9568   0.869E+01-0.412E+00
CGA:  64    -0.310749556382E+03   -0.24726E-01   -0.13179E-01  9568   0.834E+01 0.586E+01
CGA:  65    -0.310848843952E+03   -0.99288E-01   -0.10970E+00  9568   0.127E+01-0.370E+00
CGA:  66    -0.310889440870E+03   -0.40597E-01   -0.40558E-01  9568   0.133E+01 0.365E-02
CGA:  67    -0.310993934415E+03   -0.10449E+00   -0.96180E-01  9568   0.576E+01 0.196E+00
CGA:  68    -0.311047615634E+03   -0.53681E-01   -0.28876E-01  9568   0.358E+01 0.562E+01
CGA:  69    -0.311086235343E+03   -0.38620E-01   -0.40801E-01  9568   0.945E+00-0.122E+00
CGA:  70    -0.311100323706E+03   -0.14088E-01   -0.14189E-01  9568   0.780E+00-0.382E-02
CGA:  71    -0.311141822757E+03   -0.41499E-01   -0.39339E-01  9568   0.160E+01 0.802E-01
CGA:  72    -0.310359624165E+03    0.78220E+00   -0.11738E+00  9568   0.145E+03-0.428E+02
CGA:  73    -0.310862014235E+03   -0.50239E+00   -0.18390E+01  9568   0.378E+02-0.436E+02
CGA:  74    -0.311167303596E+03   -0.30529E+00   -0.28199E+00  9568   0.645E+01 0.122E+01
CGA:  75    -0.311232900397E+03   -0.65597E-01   -0.46941E-01  9568   0.128E+01 0.218E+01
CGA:  76    -0.311246962161E+03   -0.14062E-01   -0.14253E-01  9568   0.543E+00-0.201E-01
CGA:  77    -0.311266909710E+03   -0.19948E-01   -0.19097E-01  9568   0.188E+01 0.540E-01
CGA:  78    -0.311303540719E+03   -0.36631E-01   -0.32760E-01  9568   0.150E+01 0.469E-01
CGA:  79    -0.311324950991E+03   -0.21410E-01   -0.24119E-01  9568   0.131E+01-0.222E-02
CGA:  80    -0.311346395072E+03   -0.21444E-01   -0.23503E-01  9568   0.344E+00 0.679E-01
CGA:  81    -0.311355260046E+03   -0.88650E-02   -0.88710E-02  9568   0.178E+00-0.792E-02
CGA:  82    -0.311365869743E+03   -0.10610E-01   -0.99641E-02  9568   0.128E+00 0.190E-01
CGA:  83    -0.311372977004E+03   -0.71073E-02   -0.70484E-02  9568   0.155E+00 0.187E-02
CGA:  84    -0.311379832671E+03   -0.68557E-02   -0.67541E-02  9568   0.130E+00 0.524E-02
CGA:  85    -0.311386205295E+03   -0.63726E-02   -0.62618E-02  9568   0.799E-01 0.488E-02
CGA:  86    -0.311388805992E+03   -0.26007E-02   -0.25970E-02  9568   0.979E-01 0.110E-03
CGA:  87    -0.311391305527E+03   -0.24995E-02   -0.25072E-02  9568   0.429E-01 0.308E-03
CGA:  88    -0.311392729856E+03   -0.14243E-02   -0.14249E-02  9568   0.296E-01-0.546E-03
CGA:  89    -0.311393895008E+03   -0.11652E-02   -0.11580E-02  9568   0.164E-01 0.245E-03
CGA:  90    -0.311394708496E+03   -0.81349E-03   -0.80471E-03  9568   0.210E-01 0.256E-03
CGA:  91    -0.311395174786E+03   -0.46629E-03   -0.46751E-03  9568   0.129E-01-0.872E-04
CGA:  92    -0.311395869553E+03   -0.69477E-03   -0.68688E-03  9568   0.149E-01 0.269E-03
CGA:  93    -0.311396421544E+03   -0.55199E-03   -0.55155E-03  9568   0.101E-01 0.191E-04
CGA:  94    -0.311396801957E+03   -0.38041E-03   -0.37972E-03  9568   0.994E-02 0.404E-04
CGA:  95    -0.311397050595E+03   -0.24864E-03   -0.24818E-03  9568   0.715E-02-0.504E-04
CGA:  96    -0.311397473238E+03   -0.42264E-03   -0.42219E-03  9568   0.526E-02 0.107E-04
CGA:  97    -0.311397617563E+03   -0.14433E-03   -0.14426E-03  9568   0.276E-02-0.261E-04
CGA:  98    -0.311397713745E+03   -0.96181E-04   -0.96193E-04  9568   0.347E-02-0.228E-04
CGA:  99    -0.311397831368E+03   -0.11762E-03   -0.11774E-03  9568   0.252E-02-0.612E-04
CGA: 100    -0.311397960733E+03   -0.12936E-03   -0.12892E-03  9568   0.186E-02 0.118E-04
CGA: 101    -0.311398013590E+03   -0.52857E-04   -0.52684E-04  9568   0.157E-02-0.247E-04
CGA: 102    -0.311398069039E+03   -0.55448E-04   -0.55473E-04  9568   0.161E-02-0.190E-04
SDA: 103    -0.311398125789E+03   -0.56751E-04   -0.56838E-04  9568   0.827E-03-0.322E-04
CGA: 104    -0.311398139891E+03   -0.14101E-04   -0.14052E-04  9568   0.301E-03-0.279E-05
CGA: 105    -0.311398150056E+03   -0.10165E-04   -0.10163E-04  9568   0.365E-03-0.381E-06
CGA: 106    -0.311398168596E+03   -0.18540E-04   -0.18506E-04  9568   0.536E-03-0.391E-06
CGA: 107    -0.311398206193E+03   -0.37598E-04   -0.38047E-04  9568   0.469E-03-0.140E-04
CGA: 108    -0.311398240767E+03   -0.34574E-04   -0.34355E-04  9568   0.959E-03 0.439E-05
CGA: 109    -0.311398258512E+03   -0.17745E-04   -0.17362E-04  9568   0.317E-03 0.536E-05
CGA: 110    -0.311398272704E+03   -0.14192E-04   -0.14231E-04  9568   0.257E-03-0.669E-05
CGA: 111    -0.311398286862E+03   -0.14158E-04   -0.14361E-04  9568   0.388E-03-0.111E-04
CGA: 112    -0.311398298139E+03   -0.11276E-04   -0.11235E-04  9568   0.236E-03-0.951E-05
CGA: 113    -0.311398303845E+03   -0.57059E-05   -0.56363E-05  9568   0.172E-03-0.514E-05
   1 F= -.31139830E+03 E0= -.31137741E+03  d E =-.311398E+03  mag=    25.8405
       N       E                     dE             d eps       ncg     rms          ort
SDA:   1    -0.311406858342E+03   -0.85602E-02    0.00000E+00  9568   0.115E+00 0.000E+00
CGA:   2    -0.311408151961E+03   -0.12936E-02   -0.12993E-02  9568   0.156E-01-0.430E-03
CGA:   3    -0.311408580974E+03   -0.42901E-03   -0.43075E-03  9568   0.459E-02 0.482E-04
CGA:   4    -0.311408765812E+03   -0.18484E-03   -0.18513E-03  9568   0.505E-02-0.369E-04
CGA:   5    -0.311409061789E+03   -0.29598E-03   -0.29571E-03  9568   0.489E-02 0.107E-04
CGA:   6    -0.311409254245E+03   -0.19246E-03   -0.19246E-03  9568   0.345E-02-0.319E-05
CGA:   7    -0.311409306561E+03   -0.52316E-04   -0.52404E-04  9568   0.943E-03-0.318E-05
CGA:   8    -0.311409372319E+03   -0.65758E-04   -0.66015E-04  9568   0.611E-03-0.735E-05
CGA:   9    -0.311409403184E+03   -0.30864E-04   -0.30902E-04  9568   0.772E-03-0.287E-05
CGA:  10    -0.311409421946E+03   -0.18763E-04   -0.18699E-04  9568   0.395E-03-0.410E-05
CGA:  11    -0.311409432082E+03   -0.10136E-04   -0.10128E-04  9568   0.249E-03-0.743E-06
CGA:  12    -0.311409439059E+03   -0.69765E-05   -0.69706E-05  9568   0.610E-04-0.668E-06
   2 F= -.31140944E+03 E0= -.31138850E+03  d E =-.111352E-01  mag=    25.8392
       N       E                     dE             d eps       ncg     rms          ort
SDA:   1    -0.311356785689E+03    0.52646E-01    0.00000E+00  9568   0.140E+01 0.000E+00
CGA:   2    -0.311377501277E+03   -0.20716E-01   -0.21007E-01  9568   0.800E+00-0.150E-01
CGA:   3    -0.311471699692E+03   -0.94198E-01   -0.92668E-01  9568   0.111E+01 0.224E-01
CGA:   4    -0.311508976462E+03   -0.37277E-01   -0.37181E-01  9568   0.366E+00-0.231E-02
CGA:   5    -0.311519395616E+03   -0.10419E-01   -0.10053E-01  9568   0.259E+00 0.173E-03
CGA:   6    -0.311532517778E+03   -0.13122E-01   -0.13102E-01  9568   0.493E+00 0.142E-02
CGA:   7    -0.311542997996E+03   -0.10480E-01   -0.10516E-01  9568   0.112E+00-0.923E-03
CGA:   8    -0.311548446696E+03   -0.54487E-02   -0.54377E-02  9568   0.366E-01 0.891E-03
CGA:   9    -0.311550012374E+03   -0.15657E-02   -0.15661E-02  9568   0.506E-01-0.119E-03
CGA:  10    -0.311551362224E+03   -0.13498E-02   -0.13560E-02  9568   0.317E-01 0.122E-05
CGA:  11    -0.311552217416E+03   -0.85519E-03   -0.85452E-03  9568   0.191E-01 0.129E-05
CGA:  12    -0.311552781850E+03   -0.56443E-03   -0.56393E-03  9568   0.503E-02-0.489E-05
CGA:  13    -0.311553089928E+03   -0.30808E-03   -0.30781E-03  9568   0.589E-02 0.106E-04
CGA:  14    -0.311553242333E+03   -0.15240E-03   -0.15270E-03  9568   0.631E-02 0.791E-05
CGA:  15    -0.311553489303E+03   -0.24697E-03   -0.24697E-03  9568   0.269E-02 0.250E-05
CGA:  16    -0.311553581534E+03   -0.92230E-04   -0.92296E-04  9568   0.197E-02 0.904E-05
CGA:  17    -0.311553646371E+03   -0.64838E-04   -0.64888E-04  9568   0.117E-02 0.649E-05
CGA:  18    -0.311553693026E+03   -0.46654E-04   -0.46645E-04  9568   0.225E-02 0.789E-05
CGA:  19    -0.311553768940E+03   -0.75915E-04   -0.75924E-04  9568   0.932E-03 0.533E-05
CGA:  20    -0.311553824692E+03   -0.55752E-04   -0.55563E-04  9568   0.669E-03 0.864E-05
CGA:  21    -0.311553842381E+03   -0.17689E-04   -0.17699E-04  9568   0.701E-03 0.100E-05
CGA:  22    -0.311553868817E+03   -0.26436E-04   -0.26440E-04  9568   0.551E-03 0.319E-05
CGA:  23    -0.311553891524E+03   -0.22706E-04   -0.22707E-04  9568   0.644E-03-0.271E-06
CGA:  24    -0.311553921089E+03   -0.29565E-04   -0.29544E-04  9568   0.395E-03 0.259E-05
CGA:  25    -0.311553932782E+03   -0.11694E-04   -0.11687E-04  9568   0.363E-03-0.563E-06
CGA:  26    -0.311553940555E+03   -0.77729E-05   -0.77870E-05  9568   0.125E-03 0.599E-06
CGA:  27    -0.311553957932E+03   -0.17377E-04   -0.17259E-04  9568   0.249E-03 0.104E-05
CGA:  28    -0.311553963770E+03   -0.58379E-05   -0.58682E-05  9568   0.139E-03 0.126E-05
   3 F= -.31155396E+03 E0= -.31153289E+03  d E =-.144525E+00  mag=    25.8391
       N       E                     dE             d eps       ncg     rms          ort
SDA:   1    -0.306000092918E+03    0.55539E+01    0.00000E+00  9568   0.587E+02 0.000E+00
CGA:   2    -0.306852202954E+03   -0.85211E+00   -0.13154E+01  9568   0.419E+02-0.815E+01
CGA:   3    -0.307944151861E+03   -0.10919E+01   -0.11095E+01  9568   0.618E+02 0.439E-02
CGA:   4    -0.309404780277E+03   -0.14606E+01   -0.15519E+01  9568   0.547E+02-0.137E+01
CGA:   5    -0.310285921867E+03   -0.88114E+00   -0.90048E+00  9568   0.243E+02-0.194E+01
CGA:   6    -0.310942291283E+03   -0.65637E+00   -0.45210E+00  9568   0.387E+01 0.547E+01
CGA:   7    -0.311245138690E+03   -0.30285E+00   -0.28683E+00  9568   0.126E+02 0.605E+00
CGA:   8    -0.311701597952E+03   -0.45646E+00   -0.46064E+00  9568   0.604E+01 0.188E+00
CGA:   9    -0.311918914145E+03   -0.21732E+00   -0.21144E+00  9568   0.336E+01-0.690E+00
CGA:  10    -0.311953428162E+03   -0.34514E-01   -0.35772E-01  9568   0.907E+00-0.829E-01
CGA:  11    -0.311988842349E+03   -0.35414E-01   -0.35300E-01  9568   0.146E+01 0.188E-01
CGA:  12    -0.312030998471E+03   -0.42156E-01   -0.42307E-01  9568   0.107E+01 0.398E-02
CGA:  13    -0.312051817313E+03   -0.20819E-01   -0.20589E-01  9568   0.647E+00 0.429E-02
CGA:  14    -0.312065413259E+03   -0.13596E-01   -0.12993E-01  9568   0.159E+00 0.106E-01
CGA:  15    -0.312075418307E+03   -0.10005E-01   -0.99852E-02  9568   0.324E+00 0.643E-03
CGA:  16    -0.312081894239E+03   -0.64759E-02   -0.67087E-02  9568   0.264E+00-0.344E-02
CGA:  17    -0.312091526672E+03   -0.96324E-02   -0.96689E-02  9568   0.210E+00-0.107E-01
CGA:  18    -0.312095665015E+03   -0.41383E-02   -0.43483E-02  9568   0.651E-01-0.132E-02
CGA:  19    -0.312099163315E+03   -0.34983E-02   -0.34404E-02  9568   0.702E-01 0.258E-02
CGA:  20    -0.312100687757E+03   -0.15244E-02   -0.14995E-02  9568   0.676E-01 0.401E-03
CGA:  21    -0.312103680629E+03   -0.29929E-02   -0.29996E-02  9568   0.525E-01-0.531E-03
CGA:  22    -0.312105763785E+03   -0.20832E-02   -0.20565E-02  9568   0.657E-01 0.375E-02
CGA:  23    -0.312107303238E+03   -0.15395E-02   -0.15323E-02  9568   0.331E-01 0.631E-04
CGA:  24    -0.312108036490E+03   -0.73325E-03   -0.73919E-03  9568   0.192E-01-0.606E-05
CGA:  25    -0.312108861376E+03   -0.82489E-03   -0.82472E-03  9568   0.105E-01 0.138E-04
CGA:  26    -0.312109884360E+03   -0.10230E-02   -0.10265E-02  9568   0.260E-01-0.622E-04
CGA:  27    -0.312110381823E+03   -0.49746E-03   -0.50372E-03  9568   0.122E-01-0.130E-03
CGA:  28    -0.312110690546E+03   -0.30872E-03   -0.30743E-03  9568   0.605E-02-0.589E-05
CGA:  29    -0.312110905514E+03   -0.21497E-03   -0.21500E-03  9568   0.433E-02 0.244E-04
CGA:  30    -0.312111219375E+03   -0.31386E-03   -0.31243E-03  9568   0.308E-02 0.407E-04
CGA:  31    -0.312111391095E+03   -0.17172E-03   -0.17166E-03  9568   0.472E-02 0.563E-05
SDA:  32    -0.312111520849E+03   -0.12975E-03   -0.12998E-03  9568   0.386E-02 0.944E-05
CGA:  33    -0.312111571698E+03   -0.50850E-04   -0.50900E-04  9568   0.125E-02-0.894E-05
CGA:  34    -0.312111617021E+03   -0.45323E-04   -0.45324E-04  9568   0.101E-02 0.953E-06
CGA:  35    -0.312111722801E+03   -0.10578E-03   -0.10571E-03  9568   0.166E-02 0.754E-06
CGA:  36    -0.312111773136E+03   -0.50335E-04   -0.50304E-04  9568   0.101E-02-0.173E-05
CGA:  37    -0.312111828647E+03   -0.55511E-04   -0.55484E-04  9568   0.618E-03 0.106E-05
CGA:  38    -0.312111859273E+03   -0.30626E-04   -0.30629E-04  9568   0.867E-03-0.973E-06
CGA:  39    -0.312111873947E+03   -0.14674E-04   -0.14605E-04  9568   0.318E-03-0.136E-05
CGA:  40    -0.312111905425E+03   -0.31478E-04   -0.31510E-04  9568   0.330E-03-0.759E-06
CGA:  41    -0.312111929460E+03   -0.24035E-04   -0.24124E-04  9568   0.298E-03-0.301E-05
CGA:  42    -0.312111938130E+03   -0.86702E-05   -0.86745E-05  9568   0.226E-03-0.386E-07
CGA:  43    -0.312111961579E+03   -0.23449E-04   -0.23492E-04  9568   0.160E-03-0.111E-05
CGA:  44    -0.312111965291E+03   -0.37113E-05   -0.37121E-05  9568   0.175E-03-0.140E-06
   4 F= -.31211197E+03 E0= -.31209038E+03  d E =-.558002E+00  mag=    25.8432
       N       E                     dE             d eps       ncg     rms          ort
SDA:   1    -0.305737106576E+03    0.63749E+01    0.00000E+00  9568   0.104E+03 0.000E+00
CGA:   2    -0.306466484524E+03   -0.72938E+00   -0.22052E+01  9568   0.804E+02-0.286E+02
CGA:   3    -0.307756717124E+03   -0.12902E+01   -0.13872E+01  9568   0.656E+02-0.412E+01
CGA:   4    -0.308951607217E+03   -0.11949E+01   -0.13731E+01  9568   0.497E+02-0.444E+01
CGA:   5    -0.309783345951E+03   -0.83174E+00   -0.84428E+00  9568   0.302E+02-0.152E+01
CGA:   6    -0.310743051226E+03   -0.95971E+00   -0.74841E+00  9568   0.107E+02 0.112E+01
CGA:   7    -0.311270625938E+03   -0.52757E+00   -0.52203E+00  9568   0.225E+02 0.516E+00
CGA:   8    -0.311768203729E+03   -0.49758E+00   -0.47349E+00  9568   0.832E+01 0.445E+00
CGA:   9    -0.312037411067E+03   -0.26921E+00   -0.26648E+00  9568   0.548E+01-0.979E-01
CGA:  10    -0.312139038438E+03   -0.10163E+00   -0.92153E-01  9568   0.207E+01 0.335E+00
CGA:  11    -0.312203076030E+03   -0.64038E-01   -0.65498E-01  9568   0.214E+01 0.437E-01
CGA:  12    -0.312289323807E+03   -0.86248E-01   -0.86235E-01  9568   0.220E+01 0.339E-02
CGA:  13    -0.312335486571E+03   -0.46163E-01   -0.46557E-01  9568   0.114E+01-0.836E-02
CGA:  14    -0.312359253733E+03   -0.23767E-01   -0.21738E-01  9568   0.216E+00 0.513E-01
CGA:  15    -0.312367514079E+03   -0.82603E-02   -0.82534E-02  9568   0.373E+00 0.393E-02
CGA:  16    -0.312378618714E+03   -0.11105E-01   -0.11079E-01  9568   0.361E+00-0.984E-03
CGA:  17    -0.312392813061E+03   -0.14194E-01   -0.14150E-01  9568   0.269E+00 0.688E-02
CGA:  18    -0.312398367342E+03   -0.55543E-02   -0.54494E-02  9568   0.777E-01 0.196E-02
CGA:  19    -0.312399981516E+03   -0.16142E-02   -0.16649E-02  9568   0.718E-01-0.432E-03
CGA:  20    -0.312404591779E+03   -0.46103E-02   -0.48590E-02  9568   0.140E+00-0.739E-02
CGA:  21    -0.312408526100E+03   -0.39343E-02   -0.40087E-02  9568   0.744E-01 0.763E-02
CGA:  22    -0.312409923213E+03   -0.13971E-02   -0.13744E-02  9568   0.307E-01 0.678E-03
CGA:  23    -0.312411018948E+03   -0.10957E-02   -0.10953E-02  9568   0.250E-01 0.369E-03
CGA:  24    -0.312412023483E+03   -0.10045E-02   -0.10060E-02  9568   0.444E-01-0.186E-03
CGA:  25    -0.312413450273E+03   -0.14268E-02   -0.14329E-02  9568   0.207E-01 0.106E-02
CGA:  26    -0.312414167925E+03   -0.71765E-03   -0.71734E-03  9568   0.195E-01-0.146E-03
CGA:  27    -0.312414611681E+03   -0.44376E-03   -0.44537E-03  9568   0.116E-01 0.944E-05
CGA:  28    -0.312415062961E+03   -0.45128E-03   -0.45154E-03  9568   0.728E-02-0.314E-04
CGA:  29    -0.312415242591E+03   -0.17963E-03   -0.18011E-03  9568   0.639E-02 0.143E-04
CGA:  30    -0.312415541877E+03   -0.29929E-03   -0.29969E-03  9568   0.827E-02-0.263E-04
CGA:  31    -0.312415748606E+03   -0.20673E-03   -0.20747E-03  9568   0.419E-02 0.211E-04
SDA:  32    -0.312415913006E+03   -0.16440E-03   -0.16444E-03  9568   0.381E-02-0.162E-05
CGA:  33    -0.312415953695E+03   -0.40689E-04   -0.40779E-04  9568   0.778E-03-0.398E-06
CGA:  34    -0.312416034299E+03   -0.80604E-04   -0.80201E-04  9568   0.240E-02 0.590E-05
CGA:  35    -0.312416121866E+03   -0.87567E-04   -0.87568E-04  9568   0.169E-02 0.183E-05
CGA:  36    -0.312416217232E+03   -0.95367E-04   -0.95358E-04  9568   0.137E-02 0.983E-06
CGA:  37    -0.312416286301E+03   -0.69069E-04   -0.68968E-04  9568   0.992E-03 0.598E-05
CGA:  38    -0.312416307356E+03   -0.21054E-04   -0.21007E-04  9568   0.973E-03-0.185E-05
CGA:  39    -0.312416356741E+03   -0.49385E-04   -0.49411E-04  9568   0.704E-03-0.261E-05
CGA:  40    -0.312416411583E+03   -0.54842E-04   -0.54835E-04  9568   0.902E-03 0.394E-06
CGA:  41    -0.312416435925E+03   -0.24342E-04   -0.24356E-04  9568   0.498E-03 0.558E-07
CGA:  42    -0.312416455696E+03   -0.19770E-04   -0.19771E-04  9568   0.608E-03-0.291E-05
CGA:  43    -0.312416468067E+03   -0.12372E-04   -0.12394E-04  9568   0.383E-03-0.412E-06
CGA:  44    -0.312416499204E+03   -0.31136E-04   -0.31094E-04  9568   0.143E-03 0.810E-06
CGA:  45    -0.312416509382E+03   -0.10178E-04   -0.10168E-04  9568   0.116E-03 0.137E-06
CGA:  46    -0.312416518395E+03   -0.90133E-05   -0.90039E-05  9568   0.261E-03 0.315E-07
   5 F= -.31241652E+03 E0= -.31239452E+03  d E =-.304553E+00  mag=    25.8505
       N       E                     dE             d eps       ncg     rms          ort
SDA:   1    -0.293042418222E+03    0.19374E+02    0.00000E+00  9568   0.715E+03 0.000E+00
CGA:   2    -0.296525890540E+03   -0.34835E+01   -0.14606E+02  9568   0.242E+03-0.111E+03
CGA:   3    -0.300709036332E+03   -0.41831E+01   -0.43440E+01  9568   0.157E+03-0.317E+02
CGA:   4    -0.301499597284E+03   -0.79056E+00   -0.15829E+01  9568   0.237E+03-0.743E+02
CGA:   5    -0.304978473108E+03   -0.34789E+01   -0.20818E+01  9568   0.667E+02 0.371E+02
CGA:   6    -0.306067918602E+03   -0.10894E+01   -0.17753E+01  9568   0.162E+03-0.677E+01
CGA:   7    -0.307891707070E+03   -0.18238E+01   -0.16557E+01  9568   0.666E+02-0.380E+02
CGA:   8    -0.308771240736E+03   -0.87953E+00   -0.94041E+00  9568   0.103E+03-0.303E+01
CGA:   9    -0.309569866143E+03   -0.79863E+00   -0.86268E+00  9568   0.132E+03-0.119E+02
CGA:  10    -0.310662749887E+03   -0.10929E+01   -0.74974E+00  9568   0.703E+02 0.341E+02
CGA:  11    -0.310856884301E+03   -0.19413E+00   -0.49337E+00  9568   0.545E+02-0.561E+02
CGA:  12    -0.311312123837E+03   -0.45524E+00   -0.71039E+00  9568   0.250E+02-0.138E+02
CGA:  13    -0.311482410909E+03   -0.17029E+00   -0.23537E+00  9568   0.822E+01-0.342E+01
CGA:  14    -0.311656114281E+03   -0.17370E+00   -0.17729E+00  9568   0.943E+01 0.255E+00
CGA:  15    -0.311794771975E+03   -0.13866E+00   -0.12348E+00  9568   0.539E+01 0.705E+00
CGA:  16    -0.312000958286E+03   -0.20619E+00   -0.24265E+00  9568   0.143E+02-0.224E+01
CGA:  17    -0.312175656975E+03   -0.17470E+00   -0.18039E+00  9568   0.208E+02 0.125E+00
CGA:  18    -0.312397343039E+03   -0.22169E+00   -0.27383E+00  9568   0.348E+01-0.235E+01
CGA:  19    -0.312420731991E+03   -0.23389E-01   -0.23019E-01  9568   0.857E+00 0.331E-01
CGA:  20    -0.312445746514E+03   -0.25015E-01   -0.25004E-01  9568   0.224E+01 0.303E-02
CGA:  21    -0.312487669507E+03   -0.41923E-01   -0.41879E-01  9568   0.246E+01-0.541E-03
CGA:  22    -0.312534378513E+03   -0.46709E-01   -0.47676E-01  9568   0.268E+01 0.166E-01
CGA:  23    -0.312567301124E+03   -0.32923E-01   -0.33868E-01  9568   0.114E+01-0.427E-01
CGA:  24    -0.312587271046E+03   -0.19970E-01   -0.20021E-01  9568   0.520E+00 0.412E-03
CGA:  25    -0.312592847534E+03   -0.55765E-02   -0.59277E-02  9568   0.220E+00-0.177E-01
CGA:  26    -0.312608303586E+03   -0.15456E-01   -0.15235E-01  9568   0.644E+00 0.541E-02
CGA:  27    -0.312616887512E+03   -0.85839E-02   -0.86966E-02  9568   0.221E+00-0.472E-02
CGA:  28    -0.312623191836E+03   -0.63043E-02   -0.63064E-02  9568   0.184E+00-0.456E-03
CGA:  29    -0.312627509321E+03   -0.43175E-02   -0.43253E-02  9568   0.163E+00 0.109E-02
CGA:  30    -0.312630914905E+03   -0.34056E-02   -0.34091E-02  9568   0.158E+00 0.200E-03
CGA:  31    -0.312640347959E+03   -0.94331E-02   -0.93068E-02  9568   0.149E+00 0.389E-02
CGA:  32    -0.312642667988E+03   -0.23200E-02   -0.23287E-02  9568   0.732E-01-0.160E-03
CGA:  33    -0.312644438186E+03   -0.17702E-02   -0.17694E-02  9568   0.345E-01-0.970E-04
CGA:  34    -0.312646300883E+03   -0.18627E-02   -0.18738E-02  9568   0.592E-01-0.394E-03
CGA:  35    -0.312647914539E+03   -0.16137E-02   -0.16144E-02  9568   0.489E-01 0.687E-03
CGA:  36    -0.312648880229E+03   -0.96569E-03   -0.96777E-03  9568   0.270E-01 0.475E-04
CGA:  37    -0.312649964408E+03   -0.10842E-02   -0.10810E-02  9568   0.116E-01 0.215E-03
CGA:  38    -0.312650909952E+03   -0.94554E-03   -0.93544E-03  9568   0.151E-01 0.219E-03
CGA:  39    -0.312651220016E+03   -0.31006E-03   -0.30933E-03  9568   0.963E-02 0.799E-05
CGA:  40    -0.312651483282E+03   -0.26327E-03   -0.26334E-03  9568   0.868E-02 0.167E-04
CGA:  41    -0.312651802592E+03   -0.31931E-03   -0.31927E-03  9568   0.601E-02 0.109E-04
SDA:  42    -0.312652204766E+03   -0.40217E-03   -0.40287E-03  9568   0.527E-02-0.193E-04
CGA:  43    -0.312652298098E+03   -0.93332E-04   -0.93381E-04  9568   0.321E-02-0.196E-05
CGA:  44    -0.312652389134E+03   -0.91036E-04   -0.90973E-04  9568   0.268E-02-0.136E-04
CGA:  45    -0.312652504068E+03   -0.11493E-03   -0.11504E-03  9568   0.299E-02-0.858E-05
CGA:  46    -0.312652633837E+03   -0.12977E-03   -0.12983E-03  9568   0.182E-02-0.712E-05
CGA:  47    -0.312652732403E+03   -0.98566E-04   -0.98717E-04  9568   0.128E-02-0.707E-05
CGA:  48    -0.312652803767E+03   -0.71364E-04   -0.71368E-04  9568   0.406E-02-0.576E-06
CGA:  49    -0.312652897029E+03   -0.93262E-04   -0.93460E-04  9568   0.119E-02 0.579E-05
CGA:  50    -0.312652978663E+03   -0.81633E-04   -0.81563E-04  9568   0.705E-03 0.182E-05
CGA:  51    -0.312653035865E+03   -0.57202E-04   -0.57127E-04  9568   0.169E-02 0.164E-05
CGA:  52    -0.312653064842E+03   -0.28977E-04   -0.28898E-04  9568   0.692E-03 0.116E-05
CGA:  53    -0.312653091643E+03   -0.26802E-04   -0.26803E-04  9568   0.822E-03-0.147E-05
CGA:  54    -0.312653122076E+03   -0.30432E-04   -0.30431E-04  9568   0.475E-03-0.614E-05
CGA:  55    -0.312653152984E+03   -0.30908E-04   -0.30938E-04  9568   0.194E-03-0.127E-05
CGA:  56    -0.312653157451E+03   -0.44668E-05   -0.44593E-05  9568   0.268E-03-0.626E-06
CGA:  57    -0.312653172539E+03   -0.15089E-04   -0.15075E-04  9568   0.125E-03 0.603E-06
CGA:  58    -0.312653182787E+03   -0.10248E-04   -0.10208E-04  9568   0.654E-04 0.808E-06
CGA:  59    -0.312653185237E+03   -0.24501E-05   -0.24509E-05  9568   0.168E-03 0.982E-07
   6 F= -.31265319E+03 E0= -.31263073E+03  d E =-.236667E+00  mag=    25.8610
       N       E                     dE             d eps       ncg     rms          ort
SDA:   1    -0.299907169816E+03    0.12746E+02    0.00000E+00  9568   0.689E+02 0.000E+00
CGA:   2    -0.302260151969E+03   -0.23530E+01   -0.23703E+01  9568   0.640E+02 0.112E+01
CGA:   3    -0.304255956133E+03   -0.19958E+01   -0.19933E+01  9568   0.143E+03-0.817E+00
CGA:   4    -0.309030750407E+03   -0.47748E+01   -0.48124E+01  9568   0.274E+02 0.290E+01
CGA:   5    -0.310187013444E+03   -0.11563E+01   -0.11914E+01  9568   0.374E+02-0.687E+01
CGA:   6    -0.310859925541E+03   -0.67291E+00   -0.52903E+00  9568   0.303E+02 0.528E+01
CGA:   7    -0.311394876526E+03   -0.53495E+00   -0.70989E+00  9568   0.358E+02-0.322E+01
CGA:   8    -0.311782235393E+03   -0.38736E+00   -0.49079E+00  9568   0.235E+02-0.432E+01
CGA:   9    -0.312246372210E+03   -0.46414E+00   -0.34941E+00  9568   0.489E+01 0.376E+01
CGA:  10    -0.312366835164E+03   -0.12046E+00   -0.11902E+00  9568   0.463E+01 0.160E-03
CGA:  11    -0.312443791035E+03   -0.76956E-01   -0.76294E-01  9568   0.293E+01 0.190E-01
CGA:  12    -0.312514130372E+03   -0.70339E-01   -0.73412E-01  9568   0.322E+01 0.509E-01
CGA:  13    -0.312644950691E+03   -0.13082E+00   -0.13032E+00  9568   0.258E+01 0.547E-01
CGA:  14    -0.312682093898E+03   -0.37143E-01   -0.36619E-01  9568   0.741E+00 0.198E-01
CGA:  15    -0.312696530937E+03   -0.14437E-01   -0.14025E-01  9568   0.460E+00 0.772E-02
CGA:  16    -0.312708970300E+03   -0.12439E-01   -0.12428E-01  9568   0.511E+00-0.584E-03
CGA:  17    -0.312724931147E+03   -0.15961E-01   -0.15945E-01  9568   0.786E+00-0.104E-01
CGA:  18    -0.312741927019E+03   -0.16996E-01   -0.17092E-01  9568   0.592E+00 0.940E-03
CGA:  19    -0.312753770360E+03   -0.11843E-01   -0.12303E-01  9568   0.305E+00-0.103E-03
CGA:  20    -0.312757727821E+03   -0.39575E-02   -0.40084E-02  9568   0.861E-01-0.236E-02
CGA:  21    -0.312759999841E+03   -0.22720E-02   -0.22722E-02  9568   0.109E+00 0.513E-04
CGA:  22    -0.312765174503E+03   -0.51747E-02   -0.52730E-02  9568   0.163E+00-0.472E-02
CGA:  23    -0.312768320684E+03   -0.31462E-02   -0.31501E-02  9568   0.157E+00 0.641E-04
CGA:  24    -0.312772400195E+03   -0.40795E-02   -0.41204E-02  9568   0.753E-01 0.374E-02
CGA:  25    -0.312773706196E+03   -0.13060E-02   -0.13241E-02  9568   0.342E-01-0.268E-03
CGA:  26    -0.312774525155E+03   -0.81896E-03   -0.81976E-03  9568   0.334E-01 0.473E-04
CGA:  27    -0.312775476593E+03   -0.95144E-03   -0.95116E-03  9568   0.251E-01-0.196E-03
CGA:  28    -0.312776357660E+03   -0.88107E-03   -0.88091E-03  9568   0.271E-01 0.162E-04
CGA:  29    -0.312776950991E+03   -0.59333E-03   -0.59423E-03  9568   0.250E-01 0.328E-04
CGA:  30    -0.312777783863E+03   -0.83287E-03   -0.83041E-03  9568   0.175E-01 0.368E-03
CGA:  31    -0.312778210622E+03   -0.42676E-03   -0.42569E-03  9568   0.121E-01-0.484E-04
SDA:  32    -0.312778546107E+03   -0.33548E-03   -0.33544E-03  9568   0.110E-01-0.154E-04
CGA:  33    -0.312778694981E+03   -0.14887E-03   -0.14910E-03  9568   0.344E-02-0.969E-05
CGA:  34    -0.312778801052E+03   -0.10607E-03   -0.10600E-03  9568   0.446E-02 0.163E-04
CGA:  35    -0.312779062804E+03   -0.26175E-03   -0.26294E-03  9568   0.558E-02-0.404E-04
CGA:  36    -0.312779272857E+03   -0.21005E-03   -0.21009E-03  9568   0.213E-02-0.369E-05
CGA:  37    -0.312779411703E+03   -0.13885E-03   -0.13898E-03  9568   0.352E-02-0.442E-05
CGA:  38    -0.312779465877E+03   -0.54173E-04   -0.54308E-04  9568   0.145E-02-0.130E-05
CGA:  39    -0.312779565971E+03   -0.10009E-03   -0.99856E-04  9568   0.118E-02 0.621E-05
CGA:  40    -0.312779674290E+03   -0.10832E-03   -0.10799E-03  9568   0.205E-02 0.561E-05
CGA:  41    -0.312779713014E+03   -0.38724E-04   -0.38758E-04  9568   0.154E-02 0.948E-06
CGA:  42    -0.312779779645E+03   -0.66631E-04   -0.66536E-04  9568   0.833E-03 0.101E-04
CGA:  43    -0.312779817357E+03   -0.37712E-04   -0.37728E-04  9568   0.142E-02-0.681E-06
CGA:  44    -0.312779903507E+03   -0.86150E-04   -0.85919E-04  9568   0.827E-03 0.874E-05
CGA:  45    -0.312779916429E+03   -0.12922E-04   -0.12916E-04  9568   0.507E-03-0.101E-05
CGA:  46    -0.312779954876E+03   -0.38447E-04   -0.38566E-04  9568   0.380E-03-0.311E-05
CGA:  47    -0.312779976076E+03   -0.21201E-04   -0.21293E-04  9568   0.394E-03-0.514E-05
CGA:  48    -0.312779985445E+03   -0.93687E-05   -0.93614E-05  9568   0.244E-03-0.960E-06
   7 F= -.31277999E+03 E0= -.31275771E+03  d E =-.126800E+00  mag=    25.8834
       N       E                     dE             d eps       ncg     rms          ort
SDA:   1    -0.311796570079E+03    0.98341E+00    0.00000E+00  9568   0.286E+01 0.000E+00
CGA:   2    -0.312228046137E+03   -0.43148E+00   -0.44762E+00  9568   0.954E+01-0.185E+00
CGA:   3    -0.312440039106E+03   -0.21199E+00   -0.20357E+00  9568   0.537E+01 0.147E+00
CGA:   4    -0.312547703993E+03   -0.10766E+00   -0.98109E-01  9568   0.169E+01 0.329E+00
CGA:   5    -0.312650905350E+03   -0.10320E+00   -0.10152E+00  9568   0.248E+01 0.855E-01
CGA:   6    -0.312721360258E+03   -0.70455E-01   -0.70262E-01  9568   0.196E+01-0.117E-02
CGA:   7    -0.312753034048E+03   -0.31674E-01   -0.31656E-01  9568   0.659E+00-0.918E-03
CGA:   8    -0.312771725912E+03   -0.18692E-01   -0.18788E-01  9568   0.301E+00 0.747E-03
CGA:   9    -0.312779507162E+03   -0.77812E-02   -0.77574E-02  9568   0.451E+00 0.472E-04
CGA:  10    -0.312793309636E+03   -0.13802E-01   -0.13806E-01  9568   0.240E+00 0.120E-03
CGA:  11    -0.312798594038E+03   -0.52844E-02   -0.54217E-02  9568   0.114E+00-0.170E-02
CGA:  12    -0.312800453929E+03   -0.18599E-02   -0.18801E-02  9568   0.710E-01-0.744E-03
CGA:  13    -0.312802627086E+03   -0.21732E-02   -0.21722E-02  9568   0.382E-01-0.496E-04
CGA:  14    -0.312803932686E+03   -0.13056E-02   -0.13058E-02  9568   0.567E-01 0.355E-04
CGA:  15    -0.312805141982E+03   -0.12093E-02   -0.12086E-02  9568   0.382E-01 0.344E-05
CGA:  16    -0.312806234697E+03   -0.10927E-02   -0.10931E-02  9568   0.118E-01 0.183E-04
CGA:  17    -0.312806501867E+03   -0.26717E-03   -0.26809E-03  9568   0.122E-01 0.272E-05
CGA:  18    -0.312806825140E+03   -0.32327E-03   -0.32316E-03  9568   0.970E-02-0.214E-05
CGA:  19    -0.312807132220E+03   -0.30708E-03   -0.30694E-03  9568   0.430E-02-0.243E-04
CGA:  20    -0.312807275900E+03   -0.14368E-03   -0.14368E-03  9568   0.861E-02 0.265E-05
CGA:  21    -0.312807518925E+03   -0.24303E-03   -0.24304E-03  9568   0.443E-02 0.641E-05
CGA:  22    -0.312807633220E+03   -0.11429E-03   -0.11419E-03  9568   0.170E-02 0.311E-06
CGA:  23    -0.312807681827E+03   -0.48607E-04   -0.48637E-04  9568   0.230E-02 0.480E-05
CGA:  24    -0.312807737643E+03   -0.55817E-04   -0.55773E-04  9568   0.154E-02 0.144E-05
CGA:  25    -0.312807823779E+03   -0.86135E-04   -0.86092E-04  9568   0.200E-02 0.277E-05
CGA:  26    -0.312807879007E+03   -0.55229E-04   -0.55281E-04  9568   0.182E-02 0.711E-05
CGA:  27    -0.312807910418E+03   -0.31411E-04   -0.31435E-04  9568   0.644E-03 0.125E-05
CGA:  28    -0.312807935781E+03   -0.25363E-04   -0.25375E-04  9568   0.570E-03-0.156E-05
CGA:  29    -0.312807960958E+03   -0.25177E-04   -0.25177E-04  9568   0.101E-02-0.293E-06
CGA:  30    -0.312807982096E+03   -0.21139E-04   -0.21105E-04  9568   0.666E-03-0.209E-05
CGA:  31    -0.312808004392E+03   -0.22295E-04   -0.22296E-04  9568   0.315E-03-0.135E-05
SDA:  32    -0.312808017042E+03   -0.12650E-04   -0.12644E-04  9568   0.439E-03 0.595E-06
CGA:  33    -0.312808022441E+03   -0.53995E-05   -0.53801E-05  9568   0.136E-03-0.866E-06
   8 F= -.31280802E+03 E0= -.31278565E+03  d E =-.280370E-01  mag=    25.8885
       N       E                     dE             d eps       ncg     rms          ort
SDA:   1    -0.310685149771E+03    0.21229E+01    0.00000E+00  9568   0.734E+01 0.000E+00
CGA:   2    -0.310991941530E+03   -0.30679E+00   -0.30545E+00  9568   0.165E+02 0.119E+00
CGA:   3    -0.311792112618E+03   -0.80017E+00   -0.79257E+00  9568   0.309E+02 0.445E+00
CGA:   4    -0.312291500271E+03   -0.49939E+00   -0.58882E+00  9568   0.514E+01-0.195E+01
CGA:   5    -0.312415512733E+03   -0.12401E+00   -0.12570E+00  9568   0.622E+01 0.560E-01
CGA:   6    -0.312536966997E+03   -0.12145E+00   -0.11827E+00  9568   0.370E+01 0.299E-01
CGA:   7    -0.312674345047E+03   -0.13738E+00   -0.13726E+00  9568   0.382E+01 0.163E-01
CGA:   8    -0.312735867847E+03   -0.61523E-01   -0.63660E-01  9568   0.225E+01-0.582E-01
CGA:   9    -0.312771977916E+03   -0.36110E-01   -0.35725E-01  9568   0.465E+00 0.606E-02
CGA:  10    -0.312791337577E+03   -0.19360E-01   -0.19191E-01  9568   0.688E+00 0.121E-01
CGA:  11    -0.312808526243E+03   -0.17189E-01   -0.17259E-01  9568   0.715E+00 0.264E-02
CGA:  12    -0.312825788354E+03   -0.17262E-01   -0.17069E-01  9568   0.161E+00-0.560E-02
CGA:  13    -0.312830095862E+03   -0.43075E-02   -0.43113E-02  9568   0.681E-01 0.439E-03
CGA:  14    -0.312833685645E+03   -0.35898E-02   -0.35601E-02  9568   0.114E+00 0.124E-02
CGA:  15    -0.312836138644E+03   -0.24530E-02   -0.24553E-02  9568   0.911E-01-0.403E-05
CGA:  16    -0.312838719955E+03   -0.25813E-02   -0.25841E-02  9568   0.352E-01 0.465E-03
CGA:  17    -0.312839761307E+03   -0.10414E-02   -0.10415E-02  9568   0.155E-01 0.502E-04
CGA:  18    -0.312840435755E+03   -0.67445E-03   -0.67494E-03  9568   0.254E-01-0.274E-04
CGA:  19    -0.312840953216E+03   -0.51746E-03   -0.51981E-03  9568   0.164E-01-0.654E-05
CGA:  20    -0.312841535955E+03   -0.58274E-03   -0.58310E-03  9568   0.929E-02-0.421E-04
CGA:  21    -0.312841857841E+03   -0.32189E-03   -0.32184E-03  9568   0.518E-02 0.126E-04
CGA:  22    -0.312842145757E+03   -0.28792E-03   -0.28543E-03  9568   0.679E-02 0.974E-04
CGA:  23    -0.312842269141E+03   -0.12338E-03   -0.12334E-03  9568   0.372E-02 0.763E-05
CGA:  24    -0.312842385240E+03   -0.11610E-03   -0.11611E-03  9568   0.337E-02 0.191E-04
CGA:  25    -0.312842576752E+03   -0.19151E-03   -0.19115E-03  9568   0.248E-02 0.146E-04
CGA:  26    -0.312842682001E+03   -0.10525E-03   -0.10512E-03  9568   0.172E-02 0.121E-04
CGA:  27    -0.312842744297E+03   -0.62296E-04   -0.62275E-04  9568   0.118E-02 0.502E-05
CGA:  28    -0.312842783351E+03   -0.39054E-04   -0.39053E-04  9568   0.215E-02-0.181E-05
CGA:  29    -0.312842851647E+03   -0.68296E-04   -0.68304E-04  9568   0.123E-02 0.866E-06
CGA:  30    -0.312842891003E+03   -0.39356E-04   -0.39350E-04  9568   0.633E-03-0.312E-05
CGA:  31    -0.312842927998E+03   -0.36995E-04   -0.36946E-04  9568   0.667E-03 0.165E-05
SDA:  32    -0.312842953621E+03   -0.25623E-04   -0.25626E-04  9568   0.549E-03-0.104E-05
CGA:  33    -0.312842960700E+03   -0.70794E-05   -0.70752E-05  9568   0.210E-03-0.563E-06
   9 F= -.31284296E+03 E0= -.31282048E+03  d E =-.349383E-01  mag=    25.8948
       N       E                     dE             d eps       ncg     rms          ort
SDA:   1    -0.306622265125E+03    0.62207E+01    0.00000E+00  9568   0.174E+02 0.000E+00
CGA:   2    -0.309035517112E+03   -0.24133E+01   -0.20555E+01  9568   0.406E+02 0.473E+01
CGA:   3    -0.310301756083E+03   -0.12662E+01   -0.11672E+01  9568   0.334E+02-0.826E-01
CGA:   4    -0.311461196194E+03   -0.11594E+01   -0.11523E+01  9568   0.182E+02-0.869E+00
CGA:   5    -0.311768407907E+03   -0.30721E+00   -0.31694E+00  9568   0.190E+02-0.331E+00
CGA:   6    -0.312247074170E+03   -0.47867E+00   -0.49517E+00  9568   0.672E+01 0.322E+00
CGA:   7    -0.312471615527E+03   -0.22454E+00   -0.22088E+00  9568   0.661E+01-0.382E+00
CGA:   8    -0.312599938332E+03   -0.12832E+00   -0.12374E+00  9568   0.563E+01 0.791E-01
CGA:   9    -0.312690467708E+03   -0.90529E-01   -0.98303E-01  9568   0.288E+01-0.250E+00
CGA:  10    -0.312745556614E+03   -0.55089E-01   -0.56250E-01  9568   0.307E+01-0.159E-01
CGA:  11    -0.312796930620E+03   -0.51374E-01   -0.52403E-01  9568   0.709E+00-0.301E-01
CGA:  12    -0.312818414830E+03   -0.21484E-01   -0.21448E-01  9568   0.127E+01-0.736E-02
CGA:  13    -0.312841204468E+03   -0.22790E-01   -0.22048E-01  9568   0.399E+00 0.176E-01
CGA:  14    -0.312852992673E+03   -0.11788E-01   -0.11805E-01  9568   0.714E+00 0.266E-02
CGA:  15    -0.312864959244E+03   -0.11967E-01   -0.12381E-01  9568   0.188E+00-0.948E-02
CGA:  16    -0.312870283208E+03   -0.53240E-02   -0.53233E-02  9568   0.265E+00-0.118E-03
CGA:  17    -0.312874324971E+03   -0.40418E-02   -0.39267E-02  9568   0.744E-01 0.423E-02
CGA:  18    -0.312877227584E+03   -0.29026E-02   -0.28982E-02  9568   0.161E+00 0.395E-03
CGA:  19    -0.312880067285E+03   -0.28397E-02   -0.28768E-02  9568   0.771E-01-0.586E-03
CGA:  20    -0.312882033395E+03   -0.19661E-02   -0.19681E-02  9568   0.683E-01 0.200E-03
CGA:  21    -0.312883310510E+03   -0.12771E-02   -0.12671E-02  9568   0.478E-01 0.979E-04
CGA:  22    -0.312884180819E+03   -0.87031E-03   -0.86150E-03  9568   0.191E-01 0.997E-04
CGA:  23    -0.312884773799E+03   -0.59298E-03   -0.59247E-03  9568   0.372E-01 0.115E-03
CGA:  24    -0.312885539972E+03   -0.76617E-03   -0.76920E-03  9568   0.172E-01 0.668E-04
CGA:  25    -0.312886196639E+03   -0.65667E-03   -0.65816E-03  9568   0.323E-01-0.114E-03
CGA:  26    -0.312886647648E+03   -0.45101E-03   -0.44946E-03  9568   0.780E-02 0.717E-04
CGA:  27    -0.312886919898E+03   -0.27225E-03   -0.27190E-03  9568   0.141E-01 0.394E-04
CGA:  28    -0.312887141249E+03   -0.22135E-03   -0.22209E-03  9568   0.556E-02 0.797E-05
CGA:  29    -0.312887421571E+03   -0.28032E-03   -0.28019E-03  9568   0.145E-01 0.657E-05
CGA:  30    -0.312887644000E+03   -0.22243E-03   -0.22237E-03  9568   0.540E-02 0.204E-04
CGA:  31    -0.312887805500E+03   -0.16150E-03   -0.16144E-03  9568   0.567E-02 0.275E-04
SDA:  32    -0.312887901583E+03   -0.96083E-04   -0.96259E-04  9568   0.347E-02 0.563E-05
CGA:  33    -0.312887950734E+03   -0.49151E-04   -0.48947E-04  9568   0.126E-02 0.125E-05
CGA:  34    -0.312887990059E+03   -0.39326E-04   -0.39349E-04  9568   0.188E-02-0.472E-05
CGA:  35    -0.312888115543E+03   -0.12548E-03   -0.12575E-03  9568   0.351E-02-0.617E-05
CGA:  36    -0.312888263329E+03   -0.14779E-03   -0.14788E-03  9568   0.702E-03-0.797E-05
CGA:  37    -0.312888304464E+03   -0.41135E-04   -0.40985E-04  9568   0.497E-03 0.504E-05
CGA:  38    -0.312888345387E+03   -0.40923E-04   -0.40139E-04  9568   0.113E-02 0.160E-04
CGA:  39    -0.312888362792E+03   -0.17405E-04   -0.17512E-04  9568   0.439E-03 0.814E-05
CGA:  40    -0.312888401750E+03   -0.38958E-04   -0.38377E-04  9568   0.787E-03 0.108E-04
CGA:  41    -0.312888427564E+03   -0.25813E-04   -0.25821E-04  9568   0.730E-03 0.295E-05
CGA:  42    -0.312888451783E+03   -0.24220E-04   -0.24223E-04  9568   0.738E-03 0.100E-05
CGA:  43    -0.312888464737E+03   -0.12953E-04   -0.12949E-04  9568   0.222E-03 0.864E-06
CGA:  44    -0.312888484070E+03   -0.19334E-04   -0.19581E-04  9568   0.319E-03-0.464E-05
CGA:  45    -0.312888495744E+03   -0.11674E-04   -0.11676E-04  9568   0.597E-03-0.275E-05
CGA:  46    -0.312888508861E+03   -0.13116E-04   -0.13106E-04  9568   0.127E-03-0.310E-05
CGA:  47    -0.312888516534E+03   -0.76736E-05   -0.76531E-05  9568   0.301E-03 0.832E-06
CGA:  48    -0.312888527942E+03   -0.11407E-04   -0.11407E-04  9568   0.179E-03 0.283E-05
CGA:  49    -0.312888530753E+03   -0.28114E-05   -0.28173E-05  9568   0.829E-04 0.825E-06
  10 F= -.31288853E+03 E0= -.31286573E+03  d E =-.455701E-01  mag=    25.9020
       N       E                     dE             d eps       ncg     rms          ort
SDA:   1    -0.287888944016E+03    0.25000E+02    0.00000E+00  9568   0.935E+02 0.000E+00
CGA:   2    -0.291873526234E+03   -0.39846E+01   -0.76877E+01  9568   0.583E+03-0.729E+02
CGA:   3    -0.299167753479E+03   -0.72942E+01   -0.13619E+02  9568   0.384E+02 0.251E+02
CGA:   4    -0.303098804613E+03   -0.39311E+01   -0.34154E+01  9568   0.726E+02-0.596E+01
CGA:   5    -0.305367657594E+03   -0.22689E+01   -0.22062E+01  9568   0.282E+03-0.454E+01
CGA:   6    -0.307009352889E+03   -0.16417E+01   -0.41652E+01  9568   0.365E+03-0.183E+03
CGA:   7    -0.309249950945E+03   -0.22406E+01   -0.71757E+01  9568   0.197E+03-0.764E+02
CGA:   8    -0.310417128842E+03   -0.11672E+01   -0.31277E+01  9568   0.508E+02-0.250E+02
CGA:   9    -0.311614411338E+03   -0.11973E+01   -0.85407E+00  9568   0.134E+02 0.839E+01
CGA:  10    -0.311777778743E+03   -0.16337E+00   -0.11451E+00  9568   0.413E+01 0.585E+01
CGA:  11    -0.311852652185E+03   -0.74873E-01   -0.64750E-01  9568   0.495E+01 0.697E+00
CGA:  12    -0.311941179307E+03   -0.88527E-01   -0.84836E-01  9568   0.109E+02 0.132E+00
CGA:  13    -0.312050348945E+03   -0.10917E+00   -0.12073E+00  9568   0.162E+02-0.859E+00
CGA:  14    -0.312161277686E+03   -0.11093E+00   -0.11422E+00  9568   0.154E+02-0.556E+00
CGA:  15    -0.312257783141E+03   -0.96505E-01   -0.13720E+00  9568   0.148E+02-0.340E+01
CGA:  16    -0.312351354720E+03   -0.93572E-01   -0.10306E+00  9568   0.152E+02-0.836E+00
CGA:  17    -0.312468189859E+03   -0.11684E+00   -0.78314E-01  9568   0.116E+02 0.686E+01
CGA:  18    -0.312574065960E+03   -0.10588E+00   -0.77259E-01  9568   0.409E+01 0.573E+01
CGA:  19    -0.312611618530E+03   -0.37553E-01   -0.37687E-01  9568   0.142E+01-0.355E-01
CGA:  20    -0.312626673788E+03   -0.15055E-01   -0.15242E-01  9568   0.188E+01-0.120E-01
CGA:  21    -0.312650670379E+03   -0.23997E-01   -0.24243E-01  9568   0.275E+01-0.887E-02
CGA:  22    -0.312684770233E+03   -0.34100E-01   -0.34829E-01  9568   0.377E+01-0.263E-01
CGA:  23    -0.312734129471E+03   -0.49359E-01   -0.51364E-01  9568   0.441E+01-0.364E-01
CGA:  24    -0.312779332065E+03   -0.45203E-01   -0.45492E-01  9568   0.216E+01-0.123E-01
CGA:  25    -0.312797973658E+03   -0.18642E-01   -0.18127E-01  9568   0.991E+00 0.408E-01
CGA:  26    -0.312808016479E+03   -0.10043E-01   -0.10105E-01  9568   0.673E+00-0.386E-02
CGA:  27    -0.312816605561E+03   -0.85891E-02   -0.84766E-02  9568   0.736E+00 0.243E-02
CGA:  28    -0.312826514550E+03   -0.99090E-02   -0.97706E-02  9568   0.861E+00 0.111E-02
CGA:  29    -0.312837155726E+03   -0.10641E-01   -0.10580E-01  9568   0.102E+01 0.963E-03
CGA:  30    -0.312850581326E+03   -0.13426E-01   -0.13478E-01  9568   0.122E+01 0.530E-03
CGA:  31    -0.312862455501E+03   -0.11874E-01   -0.12268E-01  9568   0.680E+00-0.165E-01
CGA:  32    -0.312868921918E+03   -0.64664E-02   -0.66792E-02  9568   0.484E+00-0.946E-02
CGA:  33    -0.312875651152E+03   -0.67292E-02   -0.67972E-02  9568   0.434E+00 0.314E-02
CGA:  34    -0.312880872723E+03   -0.52216E-02   -0.52181E-02  9568   0.331E+00 0.681E-04
CGA:  35    -0.312886199646E+03   -0.53269E-02   -0.53536E-02  9568   0.376E+00 0.551E-02
CGA:  36    -0.312891986757E+03   -0.57871E-02   -0.58273E-02  9568   0.271E+00 0.472E-02
SDA:  37    -0.312896377224E+03   -0.43905E-02   -0.43916E-02  9568   0.214E+00 0.183E-03
CGA:  38    -0.312902493479E+03   -0.61163E-02   -0.61317E-02  9568   0.305E+00-0.125E-02
CGA:  39    -0.312908995921E+03   -0.65024E-02   -0.65033E-02  9568   0.103E+00-0.177E-03
CGA:  40    -0.312914701758E+03   -0.57058E-02   -0.58329E-02  9568   0.575E-01-0.395E-02
CGA:  41    -0.312917419988E+03   -0.27182E-02   -0.26964E-02  9568   0.109E+00 0.839E-03
CGA:  42    -0.312920455008E+03   -0.30350E-02   -0.30273E-02  9568   0.597E-01 0.942E-03
CGA:  43    -0.312921324558E+03   -0.86955E-03   -0.86483E-03  9568   0.184E-01-0.465E-05
CGA:  44    -0.312922542586E+03   -0.12180E-02   -0.12163E-02  9568   0.199E-01 0.526E-04
CGA:  45    -0.312923549702E+03   -0.10071E-02   -0.10072E-02  9568   0.152E-01-0.403E-05
CGA:  46    -0.312923900008E+03   -0.35031E-03   -0.35052E-03  9568   0.123E-01 0.272E-04
CGA:  47    -0.312924146273E+03   -0.24626E-03   -0.24604E-03  9568   0.392E-02-0.258E-04
CGA:  48    -0.312924279811E+03   -0.13354E-03   -0.13371E-03  9568   0.446E-02-0.170E-04
CGA:  49    -0.312924543725E+03   -0.26391E-03   -0.26312E-03  9568   0.349E-02 0.247E-04
CGA:  50    -0.312924643804E+03   -0.10008E-03   -0.10008E-03  9568   0.466E-02-0.330E-05
CGA:  51    -0.312924752882E+03   -0.10908E-03   -0.10906E-03  9568   0.205E-02-0.616E-05
CGA:  52    -0.312924921090E+03   -0.16821E-03   -0.16710E-03  9568   0.139E-02 0.220E-04
CGA:  53    -0.312924958469E+03   -0.37380E-04   -0.37370E-04  9568   0.160E-02-0.246E-05
CGA:  54    -0.312925039005E+03   -0.80536E-04   -0.80348E-04  9568   0.395E-02 0.743E-05
CGA:  55    -0.312925140987E+03   -0.10198E-03   -0.10205E-03  9568   0.148E-02 0.506E-05
CGA:  56    -0.312925223027E+03   -0.82040E-04   -0.81909E-04  9568   0.716E-03 0.442E-05
CGA:  57    -0.312925244868E+03   -0.21841E-04   -0.21839E-04  9568   0.130E-02-0.231E-05
CGA:  58    -0.312925297347E+03   -0.52479E-04   -0.52606E-04  9568   0.148E-02-0.127E-04
CGA:  59    -0.312925352901E+03   -0.55554E-04   -0.55563E-04  9568   0.125E-02-0.529E-05
CGA:  60    -0.312925391356E+03   -0.38455E-04   -0.38444E-04  9568   0.296E-03-0.712E-05
CGA:  61    -0.312925404529E+03   -0.13173E-04   -0.13151E-04  9568   0.884E-03 0.102E-05
CGA:  62    -0.312925436155E+03   -0.31626E-04   -0.31638E-04  9568   0.568E-03-0.137E-05
CGA:  63    -0.312925455341E+03   -0.19186E-04   -0.19184E-04  9568   0.421E-03 0.259E-05
CGA:  64    -0.312925473825E+03   -0.18483E-04   -0.18507E-04  9568   0.671E-03-0.129E-05
CGA:  65    -0.312925492180E+03   -0.18356E-04   -0.18433E-04  9568   0.569E-03 0.442E-05
CGA:  66    -0.312925505449E+03   -0.13269E-04   -0.13257E-04  9568   0.241E-03 0.123E-05
CGA:  67    -0.312925528187E+03   -0.22738E-04   -0.22449E-04  9568   0.701E-03 0.562E-05
SDA:  68    -0.312925546204E+03   -0.18017E-04   -0.17766E-04  9568   0.798E-03-0.132E-05
CGA:  69    -0.312925556592E+03   -0.10389E-04   -0.10400E-04  9568   0.345E-03-0.314E-06
CGA:  70    -0.312925568398E+03   -0.11805E-04   -0.11805E-04  9568   0.178E-03 0.228E-05
CGA:  71    -0.312925584650E+03   -0.16252E-04   -0.16182E-04  9568   0.442E-03 0.109E-05
CGA:  72    -0.312925598963E+03   -0.14313E-04   -0.14327E-04  9568   0.329E-03 0.217E-05
CGA:  73    -0.312925611184E+03   -0.12221E-04   -0.12221E-04  9568   0.577E-03 0.813E-06
CGA:  74    -0.312925626373E+03   -0.15189E-04   -0.15247E-04  9568   0.450E-03 0.779E-06
CGA:  75    -0.312925649126E+03   -0.22753E-04   -0.22831E-04  9568   0.278E-03-0.426E-05
CGA:  76    -0.312925669090E+03   -0.19964E-04   -0.19872E-04  9568   0.247E-03 0.248E-05
CGA:  77    -0.312925723513E+03   -0.54424E-04   -0.74143E-06  9568   0.142E-02-0.420E-04
CGA:  78    -0.312925743014E+03   -0.19501E-04   -0.21636E-04  9568   0.340E-03-0.885E-04
CGA:  79    -0.312925760154E+03   -0.17140E-04   -0.17092E-04  9568   0.113E-02 0.604E-06
CGA:  80    -0.312925821027E+03   -0.60873E-04   -0.61256E-04  9568   0.597E-03 0.194E-04
CGA:  81    -0.312925847609E+03   -0.26582E-04   -0.26699E-04  9568   0.116E-02 0.193E-05
CGA:  82    -0.312925882730E+03   -0.35121E-04   -0.30903E-04  9568   0.104E-02 0.111E-03
CGA:  83    -0.312925915708E+03   -0.32978E-04   -0.35907E-04  9568   0.137E-02-0.429E-04
CGA:  84    -0.312925967842E+03   -0.52133E-04   -0.50141E-04  9568   0.648E-03 0.270E-04
CGA:  85    -0.312925995469E+03   -0.27627E-04   -0.27070E-04  9568   0.742E-03-0.301E-06
CGA:  86    -0.312926022105E+03   -0.26636E-04   -0.26724E-04  9568   0.914E-03 0.119E-05
CGA:  87    -0.312926072274E+03   -0.50169E-04   -0.49951E-04  9568   0.101E-02-0.202E-04
CGA:  88    -0.312926092088E+03   -0.19814E-04   -0.21606E-04  9568   0.638E-03-0.476E-04
CGA:  89    -0.312926118836E+03   -0.26748E-04   -0.26021E-04  9568   0.622E-03-0.580E-05
CGA:  90    -0.312926146722E+03   -0.27886E-04   -0.28474E-04  9568   0.800E-03 0.219E-04
CGA:  91    -0.312926167554E+03   -0.20832E-04   -0.19714E-04  9568   0.304E-03 0.381E-04
CGA:  92    -0.312926177728E+03   -0.10174E-04   -0.10424E-04  9568   0.424E-03 0.112E-06
CGA:  93    -0.312926193708E+03   -0.15980E-04   -0.15749E-04  9568   0.410E-03 0.747E-06
CGA:  94    -0.312926215825E+03   -0.22117E-04   -0.22112E-04  9568   0.302E-03 0.167E-05
CGA:  95    -0.312926226449E+03   -0.10624E-04   -0.10644E-04  9568   0.174E-03 0.427E-06
CGA:  96    -0.312926232470E+03   -0.60210E-05   -0.60396E-05  9568   0.177E-03-0.536E-06
CGA:  97    -0.312926245541E+03   -0.13072E-04   -0.13152E-04  9568   0.144E-03-0.302E-05
CGA:  98    -0.312926250137E+03   -0.45959E-05   -0.45930E-05  9568   0.176E-03-0.881E-06
  11 F= -.31292625E+03 E0= -.31290461E+03  d E =-.377194E-01  mag=    25.9179
       N       E                     dE             d eps       ncg     rms          ort
SDA:   1    -0.311700488018E+03    0.12258E+01    0.00000E+00  9568   0.984E+01 0.000E+00
CGA:   2    -0.311868915215E+03   -0.16843E+00   -0.15372E+00  9568   0.511E+01 0.672E+00
CGA:   3    -0.312224636553E+03   -0.35572E+00   -0.36559E+00  9568   0.101E+02-0.406E+00
CGA:   4    -0.312522664122E+03   -0.29803E+00   -0.29513E+00  9568   0.372E+01 0.181E-02
CGA:   5    -0.312615352172E+03   -0.92688E-01   -0.10141E+00  9568   0.226E+01-0.103E+00
CGA:   6    -0.312738498140E+03   -0.12315E+00   -0.12314E+00  9568   0.526E+01 0.906E-03
CGA:   7    -0.312851959586E+03   -0.11346E+00   -0.10896E+00  9568   0.824E+00 0.133E+00
CGA:   8    -0.312885006158E+03   -0.33047E-01   -0.33199E-01  9568   0.529E+00 0.752E-02
CGA:   9    -0.312907869462E+03   -0.22863E-01   -0.22814E-01  9568   0.533E+00-0.720E-02
CGA:  10    -0.312927160042E+03   -0.19291E-01   -0.19427E-01  9568   0.262E+00 0.431E-02
CGA:  11    -0.312935449019E+03   -0.82890E-02   -0.81113E-02  9568   0.112E+00-0.319E-03
CGA:  12    -0.312937708562E+03   -0.22595E-02   -0.22549E-02  9568   0.848E-01 0.133E-03
CGA:  13    -0.312941946463E+03   -0.42379E-02   -0.42378E-02  9568   0.709E-01-0.665E-05
CGA:  14    -0.312945440091E+03   -0.34936E-02   -0.34959E-02  9568   0.435E-01-0.253E-03
CGA:  15    -0.312946423474E+03   -0.98338E-03   -0.98558E-03  9568   0.119E-01-0.470E-04
CGA:  16    -0.312947258973E+03   -0.83550E-03   -0.83785E-03  9568   0.181E-01-0.761E-04
CGA:  17    -0.312948177398E+03   -0.91842E-03   -0.91784E-03  9568   0.155E-01 0.558E-04
CGA:  18    -0.312948516223E+03   -0.33883E-03   -0.33856E-03  9568   0.960E-02 0.115E-04
CGA:  19    -0.312948770804E+03   -0.25458E-03   -0.25446E-03  9568   0.403E-02 0.229E-05
CGA:  20    -0.312948936230E+03   -0.16543E-03   -0.16547E-03  9568   0.502E-02 0.171E-04
CGA:  21    -0.312949205136E+03   -0.26891E-03   -0.26892E-03  9568   0.307E-02 0.113E-05
CGA:  22    -0.312949365150E+03   -0.16001E-03   -0.15975E-03  9568   0.262E-02 0.222E-04
CGA:  23    -0.312949434794E+03   -0.69644E-04   -0.69547E-04  9568   0.193E-02 0.329E-05
CGA:  24    -0.312949486399E+03   -0.51606E-04   -0.51586E-04  9568   0.143E-02 0.288E-05
CGA:  25    -0.312949544125E+03   -0.57726E-04   -0.57732E-04  9568   0.127E-02 0.345E-05
CGA:  26    -0.312949597038E+03   -0.52913E-04   -0.52913E-04  9568   0.104E-02 0.877E-06
CGA:  27    -0.312949657520E+03   -0.60482E-04   -0.60436E-04  9568   0.468E-03 0.221E-05
CGA:  28    -0.312949670040E+03   -0.12519E-04   -0.12496E-04  9568   0.465E-03-0.143E-05
CGA:  29    -0.312949689127E+03   -0.19088E-04   -0.19085E-04  9568   0.655E-03-0.438E-05
CGA:  30    -0.312949710828E+03   -0.21701E-04   -0.21685E-04  9568   0.391E-03-0.288E-05
CGA:  31    -0.312949725000E+03   -0.14172E-04   -0.14159E-04  9568   0.195E-03-0.277E-05
SDA:  32    -0.312949735248E+03   -0.10248E-04   -0.10251E-04  9568   0.203E-03-0.429E-06
CGA:  33    -0.312949739127E+03   -0.38785E-05   -0.38778E-05  9568   0.108E-03-0.260E-06
  12 F= -.31294974E+03 E0= -.31292808E+03  d E =-.234890E-01  mag=    25.9168
       N       E                     dE             d eps       ncg     rms          ort
SDA:   1    -0.312879464779E+03    0.70270E-01    0.00000E+00  9568   0.112E+01 0.000E+00
CGA:   2    -0.312892382827E+03   -0.12918E-01   -0.13334E-01  9568   0.253E+00-0.282E-01
CGA:   3    -0.312907816916E+03   -0.15434E-01   -0.15284E-01  9568   0.482E+00 0.568E-02
CGA:   4    -0.312930227557E+03   -0.22411E-01   -0.22343E-01  9568   0.409E+00 0.765E-02
CGA:   5    -0.312941326370E+03   -0.11099E-01   -0.10928E-01  9568   0.997E-01 0.258E-03
CGA:   6    -0.312944103603E+03   -0.27772E-02   -0.27829E-02  9568   0.123E+00 0.654E-04
CGA:   7    -0.312948883973E+03   -0.47804E-02   -0.47803E-02  9568   0.752E-01 0.672E-03
CGA:   8    -0.312951952071E+03   -0.30681E-02   -0.30697E-02  9568   0.282E-01-0.461E-03
CGA:   9    -0.312952481772E+03   -0.52970E-03   -0.52858E-03  9568   0.161E-01 0.325E-04
CGA:  10    -0.312953181475E+03   -0.69970E-03   -0.69919E-03  9568   0.132E-01 0.615E-04
CGA:  11    -0.312953543523E+03   -0.36205E-03   -0.36110E-03  9568   0.822E-02-0.117E-04
CGA:  12    -0.312953891025E+03   -0.34750E-03   -0.34744E-03  9568   0.449E-02 0.793E-05
CGA:  13    -0.312953968078E+03   -0.77053E-04   -0.77051E-04  9568   0.201E-02-0.239E-05
CGA:  14    -0.312954080218E+03   -0.11214E-03   -0.11214E-03  9568   0.151E-02-0.202E-06
CGA:  15    -0.312954134402E+03   -0.54183E-04   -0.54176E-04  9568   0.161E-02-0.270E-05
CGA:  16    -0.312954173716E+03   -0.39314E-04   -0.39278E-04  9568   0.920E-03-0.623E-06
CGA:  17    -0.312954211707E+03   -0.37991E-04   -0.38005E-04  9568   0.690E-03-0.252E-05
CGA:  18    -0.312954228663E+03   -0.16956E-04   -0.16984E-04  9568   0.295E-03 0.845E-06
CGA:  19    -0.312954240407E+03   -0.11743E-04   -0.11746E-04  9568   0.375E-03-0.844E-06
CGA:  20    -0.312954250832E+03   -0.10426E-04   -0.10427E-04  9568   0.317E-03 0.179E-06
CGA:  21    -0.312954269561E+03   -0.18729E-04   -0.18701E-04  9568   0.164E-03 0.123E-05
CGA:  22    -0.312954274008E+03   -0.44467E-05   -0.44522E-05  9568   0.174E-03 0.532E-06
  13 F= -.31295427E+03 E0= -.31293261E+03  d E =-.453488E-02  mag=    25.9173
       N       E                     dE             d eps       ncg     rms          ort
SDA:   1    -0.312599862567E+03    0.35441E+00    0.00000E+00  9568   0.134E+01 0.000E+00
CGA:   2    -0.312642617605E+03   -0.42755E-01   -0.42521E-01  9568   0.274E+01-0.161E-01
CGA:   3    -0.312806262306E+03   -0.16364E+00   -0.16410E+00  9568   0.226E+01-0.169E-01
CGA:   4    -0.312875991890E+03   -0.69730E-01   -0.69815E-01  9568   0.103E+01 0.340E-02
CGA:   5    -0.312900808954E+03   -0.24817E-01   -0.25271E-01  9568   0.472E+00-0.811E-03
CGA:   6    -0.312922937778E+03   -0.22129E-01   -0.22269E-01  9568   0.970E+00-0.956E-02
CGA:   7    -0.312943188185E+03   -0.20250E-01   -0.20242E-01  9568   0.231E+00-0.702E-04
CGA:   8    -0.312951565085E+03   -0.83769E-02   -0.83780E-02  9568   0.133E+00 0.233E-02
CGA:   9    -0.312954368755E+03   -0.28037E-02   -0.27954E-02  9568   0.935E-01 0.118E-03
CGA:  10    -0.312957169796E+03   -0.28010E-02   -0.27943E-02  9568   0.671E-01-0.349E-03
CGA:  11    -0.312959462135E+03   -0.22923E-02   -0.22933E-02  9568   0.536E-01 0.416E-03
CGA:  12    -0.312960931143E+03   -0.14690E-02   -0.14700E-02  9568   0.260E-01 0.178E-04
CGA:  13    -0.312961313096E+03   -0.38195E-03   -0.38318E-03  9568   0.824E-02-0.542E-04
CGA:  14    -0.312962016642E+03   -0.70355E-03   -0.69797E-03  9568   0.120E-01 0.122E-03
CGA:  15    -0.312962241697E+03   -0.22506E-03   -0.22483E-03  9568   0.671E-02-0.499E-05
CGA:  16    -0.312962469643E+03   -0.22795E-03   -0.22792E-03  9568   0.656E-02-0.820E-05
CGA:  17    -0.312962643643E+03   -0.17400E-03   -0.17449E-03  9568   0.194E-02 0.970E-05
CGA:  18    -0.312962711597E+03   -0.67954E-04   -0.67954E-04  9568   0.249E-02-0.240E-05
CGA:  19    -0.312962765224E+03   -0.53627E-04   -0.53612E-04  9568   0.137E-02 0.138E-05
CGA:  20    -0.312962841581E+03   -0.76357E-04   -0.76131E-04  9568   0.162E-02 0.101E-04
CGA:  21    -0.312962890821E+03   -0.49239E-04   -0.49224E-04  9568   0.145E-02-0.116E-05
CGA:  22    -0.312962922083E+03   -0.31263E-04   -0.31266E-04  9568   0.657E-03 0.142E-05
CGA:  23    -0.312962938580E+03   -0.16497E-04   -0.16514E-04  9568   0.396E-03 0.158E-05
CGA:  24    -0.312962967272E+03   -0.28692E-04   -0.28608E-04  9568   0.803E-03 0.199E-05
CGA:  25    -0.312962984405E+03   -0.17133E-04   -0.17170E-04  9568   0.610E-03 0.214E-05
CGA:  26    -0.312963007790E+03   -0.23385E-04   -0.23378E-04  9568   0.280E-03 0.223E-05
CGA:  27    -0.312963016077E+03   -0.82873E-05   -0.82855E-05  9568   0.264E-03-0.155E-06
  14 F= -.31296302E+03 E0= -.31294146E+03  d E =-.874207E-02  mag=    25.9184
       N       E                     dE             d eps       ncg     rms          ort
SDA:   1    -0.312207439268E+03    0.75557E+00    0.00000E+00  9568   0.866E+01 0.000E+00
CGA:   2    -0.312307941183E+03   -0.10050E+00   -0.10546E+00  9568   0.239E+01-0.337E+00
CGA:   3    -0.312603538078E+03   -0.29560E+00   -0.29034E+00  9568   0.822E+01 0.762E-01
CGA:   4    -0.312796140900E+03   -0.19260E+00   -0.20365E+00  9568   0.172E+01-0.988E-01
CGA:   5    -0.312855081125E+03   -0.58940E-01   -0.58962E-01  9568   0.124E+01 0.311E-02
CGA:   6    -0.312886449591E+03   -0.31368E-01   -0.31055E-01  9568   0.114E+01-0.131E-03
CGA:   7    -0.312933585862E+03   -0.47136E-01   -0.47032E-01  9568   0.535E+00 0.154E-01
CGA:   8    -0.312950046460E+03   -0.16461E-01   -0.16441E-01  9568   0.307E+00-0.663E-03
CGA:   9    -0.312956624652E+03   -0.65782E-02   -0.65299E-02  9568   0.126E+00 0.691E-03
CGA:  10    -0.312961142447E+03   -0.45178E-02   -0.45180E-02  9568   0.160E+00 0.425E-03
CGA:  11    -0.312967179839E+03   -0.60374E-02   -0.60391E-02  9568   0.503E-01-0.614E-03
CGA:  12    -0.312968778182E+03   -0.15983E-02   -0.15984E-02  9568   0.433E-01 0.120E-04
CGA:  13    -0.312969693870E+03   -0.91569E-03   -0.91181E-03  9568   0.179E-01 0.489E-04
CGA:  14    -0.312970593716E+03   -0.89985E-03   -0.89881E-03  9568   0.186E-01 0.571E-04
CGA:  15    -0.312971160870E+03   -0.56715E-03   -0.56749E-03  9568   0.121E-01 0.236E-04
CGA:  16    -0.312971552456E+03   -0.39159E-03   -0.39135E-03  9568   0.950E-02-0.262E-04
CGA:  17    -0.312971772762E+03   -0.22031E-03   -0.21985E-03  9568   0.501E-02-0.159E-05
CGA:  18    -0.312972003464E+03   -0.23070E-03   -0.23024E-03  9568   0.226E-02 0.321E-04
CGA:  19    -0.312972081204E+03   -0.77740E-04   -0.77735E-04  9568   0.318E-02-0.275E-05
CGA:  20    -0.312972204073E+03   -0.12287E-03   -0.12287E-03  9568   0.309E-02 0.152E-05
CGA:  21    -0.312972304384E+03   -0.10031E-03   -0.10034E-03  9568   0.192E-02 0.605E-05
CGA:  22    -0.312972361497E+03   -0.57113E-04   -0.57146E-04  9568   0.827E-03 0.307E-05
CGA:  23    -0.312972402048E+03   -0.40551E-04   -0.40540E-04  9568   0.174E-02 0.850E-06
CGA:  24    -0.312972450275E+03   -0.48227E-04   -0.48269E-04  9568   0.818E-03 0.424E-05
CGA:  25    -0.312972495318E+03   -0.45043E-04   -0.44965E-04  9568   0.968E-03 0.384E-05
CGA:  26    -0.312972523575E+03   -0.28257E-04   -0.28296E-04  9568   0.628E-03 0.405E-05
CGA:  27    -0.312972544769E+03   -0.21194E-04   -0.21195E-04  9568   0.611E-03 0.160E-06
CGA:  28    -0.312972560928E+03   -0.16158E-04   -0.16161E-04  9568   0.326E-03 0.342E-06
CGA:  29    -0.312972577045E+03   -0.16118E-04   -0.16104E-04  9568   0.277E-03 0.808E-06
CGA:  30    -0.312972589727E+03   -0.12682E-04   -0.12682E-04  9568   0.510E-03-0.136E-06
CGA:  31    -0.312972602740E+03   -0.13013E-04   -0.13002E-04  9568   0.129E-03-0.964E-06
SDA:  32    -0.312972606033E+03   -0.32926E-05   -0.32987E-05  9568   0.893E-04 0.344E-06
  15 F= -.31297261E+03 E0= -.31295116E+03  d E =-.958996E-02  mag=    25.9203
       N       E                     dE             d eps       ncg     rms          ort
SDA:   1    -0.282345969110E+03    0.30627E+02    0.00000E+00  9568   0.418E+03 0.000E+00
CGA:   2    -0.285736325843E+03   -0.33904E+01   -0.75755E+01  9568   0.294E+03-0.122E+03
CGA:   3    -0.293378237991E+03   -0.76419E+01   -0.75071E+01  9568   0.166E+03 0.354E+02
CGA:   4    -0.300140923910E+03   -0.67627E+01   -0.66028E+01  9568   0.677E+02 0.533E+02
CGA:   5    -0.301792106620E+03   -0.16512E+01   -0.18209E+01  9568   0.114E+03-0.491E+01
CGA:   6    -0.301967190171E+03   -0.17508E+00   -0.61611E+01  9568   0.649E+03-0.122E+03
CGA:   7    -0.309422957666E+03   -0.74558E+01   -0.13211E+02  9568   0.824E+02-0.288E+02
CGA:   8    -0.310147324407E+03   -0.72437E+00   -0.10718E+01  9568   0.417E+02-0.246E+02
CGA:   9    -0.310943539817E+03   -0.79622E+00   -0.47507E+00  9568   0.118E+02 0.158E+02
CGA:  10    -0.311135738363E+03   -0.19220E+00   -0.16475E+00  9568   0.562E+01 0.194E+01
CGA:  11    -0.311331111860E+03   -0.19537E+00   -0.19494E+00  9568   0.188E+02-0.172E+00
CGA:  12    -0.311686297614E+03   -0.35519E+00   -0.35592E+00  9568   0.340E+02-0.492E-01
CGA:  13    -0.312023069802E+03   -0.33677E+00   -0.33287E+00  9568   0.237E+02 0.309E+00
CGA:  14    -0.312258573285E+03   -0.23550E+00   -0.15914E+00  9568   0.185E+02 0.106E+02
CGA:  15    -0.312427526905E+03   -0.16895E+00   -0.11302E+00  9568   0.120E+02 0.117E+02
CGA:  16    -0.312639895744E+03   -0.21237E+00   -0.21328E+00  9568   0.438E+01-0.156E-01
CGA:  17    -0.312710064160E+03   -0.70168E-01   -0.73595E-01  9568   0.217E+01-0.253E-01
CGA:  18    -0.312759872763E+03   -0.49809E-01   -0.49929E-01  9568   0.123E+01 0.154E-01
CGA:  19    -0.312813063577E+03   -0.53191E-01   -0.53175E-01  9568   0.193E+01 0.152E-02
CGA:  20    -0.312868598744E+03   -0.55535E-01   -0.55561E-01  9568   0.156E+01-0.759E-02
CGA:  21    -0.312894400736E+03   -0.25802E-01   -0.24407E-01  9568   0.402E+00 0.262E-01
CGA:  22    -0.312911258979E+03   -0.16858E-01   -0.16929E-01  9568   0.491E+00-0.401E-02
CGA:  23    -0.312925204874E+03   -0.13946E-01   -0.13911E-01  9568   0.690E+00 0.120E-01
CGA:  24    -0.312953245817E+03   -0.28041E-01   -0.27572E-01  9568   0.410E+00 0.326E-01
CGA:  25    -0.312962870888E+03   -0.96251E-02   -0.95611E-02  9568   0.293E+00-0.306E-02
CGA:  26    -0.312970760317E+03   -0.78894E-02   -0.78930E-02  9568   0.177E+00 0.539E-02
CGA:  27    -0.312975904631E+03   -0.51443E-02   -0.51403E-02  9568   0.187E+00 0.205E-02
CGA:  28    -0.312984105898E+03   -0.82013E-02   -0.80227E-02  9568   0.171E+00 0.101E-01
CGA:  29    -0.312989312860E+03   -0.52070E-02   -0.52086E-02  9568   0.141E+00-0.137E-02
CGA:  30    -0.312991879971E+03   -0.25671E-02   -0.25947E-02  9568   0.373E-01 0.173E-04
CGA:  31    -0.312993717629E+03   -0.18377E-02   -0.18172E-02  9568   0.393E-01 0.899E-03
CGA:  32    -0.312995410814E+03   -0.16932E-02   -0.16795E-02  9568   0.611E-01 0.870E-03
CGA:  33    -0.312997371190E+03   -0.19604E-02   -0.19610E-02  9568   0.381E-01-0.155E-03
CGA:  34    -0.312998240917E+03   -0.86973E-03   -0.87105E-03  9568   0.281E-01 0.574E-04
CGA:  35    -0.312999776302E+03   -0.15354E-02   -0.15229E-02  9568   0.130E-01 0.476E-03
CGA:  36    -0.313000597372E+03   -0.82107E-03   -0.81783E-03  9568   0.226E-01 0.102E-03
CGA:  37    -0.313001081799E+03   -0.48443E-03   -0.48512E-03  9568   0.138E-01-0.184E-06
CGA:  38    -0.313001700939E+03   -0.61914E-03   -0.61664E-03  9568   0.943E-02 0.147E-03
CGA:  39    -0.313002038491E+03   -0.33755E-03   -0.33716E-03  9568   0.885E-02 0.737E-04
CGA:  40    -0.313002342737E+03   -0.30425E-03   -0.30444E-03  9568   0.220E-02-0.600E-04
CGA:  41    -0.313002474873E+03   -0.13214E-03   -0.13185E-03  9568   0.610E-02 0.947E-05
CGA:  42    -0.313002622312E+03   -0.14744E-03   -0.14774E-03  9568   0.201E-02 0.916E-05
CGA:  43    -0.313002779339E+03   -0.15703E-03   -0.15657E-03  9568   0.179E-02 0.979E-05
CGA:  44    -0.313002840846E+03   -0.61507E-04   -0.61514E-04  9568   0.187E-02 0.119E-05
CGA:  45    -0.313002889393E+03   -0.48547E-04   -0.48539E-04  9568   0.118E-02-0.533E-06
SDA:  46    -0.313002957716E+03   -0.68322E-04   -0.68406E-04  9568   0.189E-02-0.401E-05
CGA:  47    -0.313002987596E+03   -0.29880E-04   -0.29859E-04  9568   0.538E-03-0.209E-05
CGA:  48    -0.313003010887E+03   -0.23292E-04   -0.23316E-04  9568   0.853E-03-0.319E-05
CGA:  49    -0.313003037066E+03   -0.26179E-04   -0.26173E-04  9568   0.714E-03-0.284E-05
CGA:  50    -0.313003083472E+03   -0.46406E-04   -0.46728E-04  9568   0.476E-03-0.111E-04
CGA:  51    -0.313003126575E+03   -0.43103E-04   -0.43272E-04  9568   0.407E-03-0.320E-05
CGA:  52    -0.313003149779E+03   -0.23204E-04   -0.23221E-04  9568   0.269E-03-0.122E-05
CGA:  53    -0.313003162609E+03   -0.12830E-04   -0.12821E-04  9568   0.479E-03 0.110E-05
CGA:  54    -0.313003178536E+03   -0.15927E-04   -0.15969E-04  9568   0.438E-03 0.182E-05
CGA:  55    -0.313003194508E+03   -0.15972E-04   -0.15966E-04  9568   0.393E-03-0.376E-07
CGA:  56    -0.313003205675E+03   -0.11167E-04   -0.11175E-04  9568   0.172E-03 0.964E-06
CGA:  57    -0.313003218548E+03   -0.12873E-04   -0.12843E-04  9568   0.125E-03 0.609E-06
CGA:  58    -0.313003228938E+03   -0.10390E-04   -0.10438E-04  9568   0.195E-03-0.130E-05
CGA:  59    -0.313003232840E+03   -0.39012E-05   -0.38802E-05  9568   0.143E-03-0.327E-06
CGA:  60    -0.313003243809E+03   -0.10969E-04   -0.11030E-04  9568   0.867E-04-0.197E-05
CGA:  61    -0.313003245926E+03   -0.21168E-05   -0.21050E-05  9568   0.619E-04-0.810E-06
  16 F= -.31300325E+03 E0= -.31298231E+03  d E =-.306399E-01  mag=    25.9249
       N       E                     dE             d eps       ncg     rms          ort
SDA:   1    -0.293308436143E+03    0.19695E+02    0.00000E+00  9568   0.131E+03 0.000E+00
CGA:   2    -0.295539679584E+03   -0.22312E+01   -0.33603E+01  9568   0.138E+03-0.141E+02
CGA:   3    -0.299802790591E+03   -0.42631E+01   -0.43294E+01  9568   0.264E+03-0.113E+01
CGA:   4    -0.301039231939E+03   -0.12364E+01   -0.50744E+01  9568   0.456E+03-0.126E+03
CGA:   5    -0.306394833796E+03   -0.53556E+01   -0.40182E+01  9568   0.802E+02-0.474E+01
CGA:   6    -0.307410554306E+03   -0.10157E+01   -0.17513E+01  9568   0.787E+02-0.847E+01
CGA:   7    -0.309168873884E+03   -0.17583E+01   -0.15772E+01  9568   0.409E+02 0.754E+01
CGA:   8    -0.309777619879E+03   -0.60875E+00   -0.49425E+00  9568   0.349E+02 0.600E+01
CGA:   9    -0.310789351638E+03   -0.10117E+01   -0.10250E+01  9568   0.636E+02 0.469E+00
CGA:  10    -0.311199060680E+03   -0.40971E+00   -0.55666E+00  9568   0.504E+02-0.174E+02
CGA:  11    -0.311562753486E+03   -0.36369E+00   -0.53125E+00  9568   0.415E+02-0.510E+01
CGA:  12    -0.311865330348E+03   -0.30258E+00   -0.34630E+00  9568   0.150E+02-0.493E+01
CGA:  13    -0.312033758250E+03   -0.16843E+00   -0.16472E+00  9568   0.114E+02 0.636E-01
CGA:  14    -0.312146813062E+03   -0.11305E+00   -0.71561E-01  9568   0.827E+01 0.600E+01
CGA:  15    -0.312328987402E+03   -0.18217E+00   -0.17563E+00  9568   0.348E+01-0.150E-01
CGA:  16    -0.312660428772E+03   -0.33144E+00   -0.34778E+00  9568   0.872E+01-0.295E+00
CGA:  17    -0.312777434203E+03   -0.11701E+00   -0.11235E+00  9568   0.286E+01 0.175E+00
CGA:  18    -0.312853752924E+03   -0.76319E-01   -0.76026E-01  9568   0.104E+01-0.825E-02
CGA:  19    -0.312869699514E+03   -0.15947E-01   -0.15815E-01  9568   0.592E+00 0.441E-02
CGA:  20    -0.312887578277E+03   -0.17879E-01   -0.17931E-01  9568   0.817E+00 0.815E-02
CGA:  21    -0.312946605416E+03   -0.59027E-01   -0.60561E-01  9568   0.622E+00-0.418E-01
CGA:  22    -0.312961785882E+03   -0.15180E-01   -0.15042E-01  9568   0.516E+00-0.258E-02
CGA:  23    -0.312971033212E+03   -0.92473E-02   -0.96444E-02  9568   0.327E+00-0.854E-02
CGA:  24    -0.312982296109E+03   -0.11263E-01   -0.11264E-01  9568   0.246E+00-0.399E-03
CGA:  25    -0.312992036419E+03   -0.97403E-02   -0.96747E-02  9568   0.177E+00 0.730E-02
CGA:  26    -0.312997736139E+03   -0.56997E-02   -0.57131E-02  9568   0.140E+00 0.239E-02
CGA:  27    -0.313005544071E+03   -0.78079E-02   -0.76704E-02  9568   0.144E+00 0.555E-02
CGA:  28    -0.313007724532E+03   -0.21805E-02   -0.21913E-02  9568   0.565E-01-0.464E-03
CGA:  29    -0.313011680011E+03   -0.39555E-02   -0.39024E-02  9568   0.919E-01 0.146E-02
CGA:  30    -0.313015363658E+03   -0.36836E-02   -0.36740E-02  9568   0.485E-01 0.163E-02
CGA:  31    -0.313016631003E+03   -0.12673E-02   -0.12766E-02  9568   0.359E-01 0.135E-03
CGA:  32    -0.313017634952E+03   -0.10039E-02   -0.10059E-02  9568   0.243E-01 0.743E-04
CGA:  33    -0.313018315455E+03   -0.68050E-03   -0.67996E-03  9568   0.208E-01-0.229E-05
CGA:  34    -0.313019807014E+03   -0.14916E-02   -0.14821E-02  9568   0.130E-01 0.263E-03
CGA:  35    -0.313020250998E+03   -0.44398E-03   -0.44443E-03  9568   0.139E-01 0.875E-04
CGA:  36    -0.313020718121E+03   -0.46712E-03   -0.46735E-03  9568   0.152E-01 0.397E-04
CGA:  37    -0.313021245367E+03   -0.52725E-03   -0.52744E-03  9568   0.859E-02 0.580E-04
CGA:  38    -0.313021501606E+03   -0.25624E-03   -0.25643E-03  9568   0.507E-02 0.672E-05
CGA:  39    -0.313021745432E+03   -0.24383E-03   -0.24330E-03  9568   0.461E-02 0.317E-04
CGA:  40    -0.313021962391E+03   -0.21696E-03   -0.21684E-03  9568   0.874E-02 0.678E-05
CGA:  41    -0.313022195412E+03   -0.23302E-03   -0.23403E-03  9568   0.307E-02 0.132E-04
CGA:  42    -0.313022348364E+03   -0.15295E-03   -0.15313E-03  9568   0.491E-02-0.875E-05
CGA:  43    -0.313022576977E+03   -0.22861E-03   -0.22794E-03  9568   0.355E-02 0.511E-04
CGA:  44    -0.313022716064E+03   -0.13909E-03   -0.13907E-03  9568   0.229E-02 0.928E-05
SDA:  45    -0.313022775902E+03   -0.59838E-04   -0.59934E-04  9568   0.198E-02-0.192E-05
CGA:  46    -0.313022808554E+03   -0.32652E-04   -0.32564E-04  9568   0.108E-02-0.418E-07
CGA:  47    -0.313022874232E+03   -0.65678E-04   -0.65937E-04  9568   0.145E-02-0.103E-04
CGA:  48    -0.313022953136E+03   -0.78905E-04   -0.79021E-04  9568   0.956E-03-0.744E-05
CGA:  49    -0.313022981645E+03   -0.28509E-04   -0.28487E-04  9568   0.745E-03-0.395E-05
CGA:  50    -0.313023024197E+03   -0.42552E-04   -0.42567E-04  9568   0.462E-03-0.923E-06
CGA:  51    -0.313023054393E+03   -0.30196E-04   -0.30120E-04  9568   0.597E-03 0.271E-05
CGA:  52    -0.313023069000E+03   -0.14607E-04   -0.14667E-04  9568   0.579E-03 0.994E-06
CGA:  53    -0.313023104420E+03   -0.35420E-04   -0.35442E-04  9568   0.383E-03-0.570E-06
CGA:  54    -0.313023133269E+03   -0.28849E-04   -0.28804E-04  9568   0.445E-03 0.101E-05
CGA:  55    -0.313023150808E+03   -0.17540E-04   -0.17523E-04  9568   0.631E-03-0.396E-05
CGA:  56    -0.313023183128E+03   -0.32319E-04   -0.32257E-04  9568   0.431E-03 0.179E-05
CGA:  57    -0.313023193350E+03   -0.10222E-04   -0.10154E-04  9568   0.376E-03-0.196E-05
CGA:  58    -0.313023213090E+03   -0.19740E-04   -0.19773E-04  9568   0.259E-03-0.324E-05
CGA:  59    -0.313023231108E+03   -0.18018E-04   -0.17978E-04  9568   0.275E-03 0.101E-05
CGA:  60    -0.313023240995E+03   -0.98870E-05   -0.98940E-05  9568   0.223E-03 0.486E-06
  17 F= -.31302324E+03 E0= -.31300249E+03  d E =-.199951E-01  mag=    25.9313
       N       E                     dE             d eps       ncg     rms          ort
SDA:   1    -0.309681658950E+03    0.33416E+01    0.00000E+00  9568   0.106E+02 0.000E+00
CGA:   2    -0.310828717031E+03   -0.11471E+01   -0.12735E+01  9568   0.352E+02-0.181E+01
CGA:   3    -0.311682899129E+03   -0.85418E+00   -0.88444E+00  9568   0.210E+02-0.648E-01
CGA:   4    -0.312118643324E+03   -0.43574E+00   -0.48575E+00  9568   0.887E+01-0.116E+01
CGA:   5    -0.312409525867E+03   -0.29088E+00   -0.29298E+00  9568   0.631E+01 0.516E-01
CGA:   6    -0.312701578978E+03   -0.29205E+00   -0.29323E+00  9568   0.605E+01-0.313E+00
CGA:   7    -0.312853769164E+03   -0.15219E+00   -0.15744E+00  9568   0.322E+01-0.374E-01
CGA:   8    -0.312919887228E+03   -0.66118E-01   -0.70418E-01  9568   0.108E+01-0.924E-01
CGA:   9    -0.312970614028E+03   -0.50727E-01   -0.50744E-01  9568   0.904E+00-0.174E-02
CGA:  10    -0.312997483236E+03   -0.26869E-01   -0.26443E-01  9568   0.727E+00-0.120E-02
CGA:  11    -0.313016787397E+03   -0.19304E-01   -0.19376E-01  9568   0.315E+00-0.394E-03
CGA:  12    -0.313028759669E+03   -0.11972E-01   -0.11978E-01  9568   0.190E+00 0.788E-03
CGA:  13    -0.313035429155E+03   -0.66695E-02   -0.66940E-02  9568   0.119E+00 0.141E-02
CGA:  14    -0.313039403941E+03   -0.39748E-02   -0.39648E-02  9568   0.690E-01-0.339E-03
CGA:  15    -0.313043226904E+03   -0.38230E-02   -0.38200E-02  9568   0.101E+00 0.158E-03
CGA:  16    -0.313045359279E+03   -0.21324E-02   -0.21446E-02  9568   0.383E-01-0.260E-03
CGA:  17    -0.313046597440E+03   -0.12382E-02   -0.12401E-02  9568   0.169E-01 0.734E-04
CGA:  18    -0.313047505604E+03   -0.90816E-03   -0.90652E-03  9568   0.145E-01 0.931E-04
CGA:  19    -0.313048154903E+03   -0.64930E-03   -0.64932E-03  9568   0.206E-01-0.135E-06
CGA:  20    -0.313048670485E+03   -0.51558E-03   -0.51809E-03  9568   0.883E-02-0.128E-04
CGA:  21    -0.313049010637E+03   -0.34015E-03   -0.34028E-03  9568   0.719E-02 0.521E-04
CGA:  22    -0.313049271990E+03   -0.26135E-03   -0.26123E-03  9568   0.485E-02-0.936E-05
CGA:  23    -0.313049448305E+03   -0.17632E-03   -0.17632E-03  9568   0.306E-02 0.452E-05
CGA:  24    -0.313049595960E+03   -0.14765E-03   -0.14753E-03  9568   0.481E-02 0.107E-04
CGA:  25    -0.313049735100E+03   -0.13914E-03   -0.13932E-03  9568   0.347E-02 0.766E-05
CGA:  26    -0.313049886665E+03   -0.15156E-03   -0.15154E-03  9568   0.120E-02 0.603E-05
CGA:  27    -0.313049936355E+03   -0.49690E-04   -0.49690E-04  9568   0.128E-02 0.865E-06
CGA:  28    -0.313049990587E+03   -0.54232E-04   -0.54226E-04  9568   0.205E-02 0.229E-05
CGA:  29    -0.313050068663E+03   -0.78076E-04   -0.78095E-04  9568   0.118E-02 0.773E-05
CGA:  30    -0.313050104567E+03   -0.35904E-04   -0.35917E-04  9568   0.650E-03 0.109E-05
CGA:  31    -0.313050125421E+03   -0.20853E-04   -0.20865E-04  9568   0.394E-03 0.153E-05
SDA:  32    -0.313050154967E+03   -0.29546E-04   -0.29534E-04  9568   0.900E-03 0.316E-06
CGA:  33    -0.313050167134E+03   -0.12168E-04   -0.12191E-04  9568   0.202E-03-0.535E-06
CGA:  34    -0.313050174140E+03   -0.70052E-05   -0.70054E-05  9568   0.161E-03-0.196E-06
  18 F= -.31305017E+03 E0= -.31302960E+03  d E =-.269331E-01  mag=    25.9280
       N       E                     dE             d eps       ncg     rms          ort
SDA:   1    -0.312516756281E+03    0.53341E+00    0.00000E+00  9568   0.328E+01 0.000E+00
CGA:   2    -0.312592389981E+03   -0.75634E-01   -0.87194E-01  9568   0.299E+01-0.332E+00
CGA:   3    -0.312784526619E+03   -0.19214E+00   -0.19210E+00  9568   0.385E+01 0.914E-02
CGA:   4    -0.312867471354E+03   -0.82945E-01   -0.89931E-01  9568   0.265E+01-0.232E+00
CGA:   5    -0.312944952727E+03   -0.77481E-01   -0.82150E-01  9568   0.789E+00-0.657E-01
CGA:   6    -0.312994353513E+03   -0.49401E-01   -0.49334E-01  9568   0.751E+00-0.315E-01
CGA:   7    -0.313027139102E+03   -0.32786E-01   -0.32967E-01  9568   0.720E+00 0.756E-03
CGA:   8    -0.313037884169E+03   -0.10745E-01   -0.11380E-01  9568   0.107E+00-0.337E-01
CGA:   9    -0.313045754296E+03   -0.78701E-02   -0.78753E-02  9568   0.128E+00-0.221E-03
CGA:  10    -0.313048637209E+03   -0.28829E-02   -0.29030E-02  9568   0.822E-01-0.638E-03
CGA:  11    -0.313051831698E+03   -0.31945E-02   -0.32091E-02  9568   0.225E-01-0.161E-04
CGA:  12    -0.313052507461E+03   -0.67576E-03   -0.67331E-03  9568   0.216E-01 0.432E-04
CGA:  13    -0.313053394459E+03   -0.88700E-03   -0.88692E-03  9568   0.168E-01-0.121E-05
CGA:  14    -0.313054036265E+03   -0.64181E-03   -0.64239E-03  9568   0.151E-01-0.518E-05
CGA:  15    -0.313054383497E+03   -0.34723E-03   -0.34877E-03  9568   0.391E-02-0.397E-04
CGA:  16    -0.313054599015E+03   -0.21552E-03   -0.21552E-03  9568   0.469E-02 0.784E-06
CGA:  17    -0.313054720011E+03   -0.12100E-03   -0.12114E-03  9568   0.366E-02-0.235E-05
CGA:  18    -0.313054913662E+03   -0.19365E-03   -0.19365E-03  9568   0.229E-02 0.914E-05
CGA:  19    -0.313055004086E+03   -0.90424E-04   -0.90418E-04  9568   0.222E-02 0.501E-06
CGA:  20    -0.313055056224E+03   -0.52138E-04   -0.52111E-04  9568   0.110E-02 0.154E-05
CGA:  21    -0.313055135086E+03   -0.78863E-04   -0.78714E-04  9568   0.122E-02 0.634E-05
CGA:  22    -0.313055171224E+03   -0.36138E-04   -0.36160E-04  9568   0.123E-02 0.889E-07
CGA:  23    -0.313055230687E+03   -0.59463E-04   -0.59469E-04  9568   0.719E-03 0.166E-05
[...]
CGA:  19    -0.312969016304E+03   -0.11720E-04   -0.11722E-04  9568   0.296E-03-0.673E-06
CGA:  20    -0.312969022665E+03   -0.63606E-05   -0.63676E-05  9568   0.176E-03 0.209E-06
CGA:  21    -0.312969036957E+03   -0.14292E-04   -0.14308E-04  9568   0.241E-03-0.349E-06
CGA:  22    -0.312969042273E+03   -0.53158E-05   -0.53100E-05  9568   0.996E-04-0.358E-06
  77 F= -.31296904E+03 E0= -.31294775E+03  d E =0.396887E-02  mag=    25.9271
       N       E                     dE             d eps       ncg     rms          ort
SDA:   1    -0.312914000077E+03    0.55037E-01    0.00000E+00  9568   0.238E+01 0.000E+00
CGA:   2    -0.312936864476E+03   -0.22864E-01   -0.23253E-01  9568   0.986E-01-0.354E-01
CGA:   3    -0.312942080465E+03   -0.52160E-02   -0.52227E-02  9568   0.236E+00-0.263E-03
CGA:   4    -0.312955045715E+03   -0.12965E-01   -0.12960E-01  9568   0.154E+00 0.252E-03
CGA:   5    -0.312958848471E+03   -0.38028E-02   -0.37816E-02  9568   0.768E-01 0.649E-04
CGA:   6    -0.312960316112E+03   -0.14676E-02   -0.14574E-02  9568   0.317E-01 0.246E-03
CGA:   7    -0.312962701144E+03   -0.23850E-02   -0.23639E-02  9568   0.271E-01 0.559E-03
CGA:   8    -0.312963668173E+03   -0.96703E-03   -0.96648E-03  9568   0.214E-01-0.842E-04
CGA:   9    -0.312964039523E+03   -0.37135E-03   -0.37130E-03  9568   0.660E-02 0.113E-05
CGA:  10    -0.312964388090E+03   -0.34857E-03   -0.34810E-03  9568   0.631E-02 0.238E-04
CGA:  11    -0.312964540683E+03   -0.15259E-03   -0.15248E-03  9568   0.247E-02-0.152E-05
CGA:  12    -0.312964663137E+03   -0.12245E-03   -0.12258E-03  9568   0.272E-02-0.745E-05
CGA:  13    -0.312964710889E+03   -0.47752E-04   -0.47799E-04  9568   0.108E-02 0.162E-05
CGA:  14    -0.312964773527E+03   -0.62638E-04   -0.62683E-04  9568   0.446E-03-0.175E-05
CGA:  15    -0.312964791206E+03   -0.17680E-04   -0.17678E-04  9568   0.601E-03 0.962E-06
CGA:  16    -0.312964808357E+03   -0.17151E-04   -0.17141E-04  9568   0.507E-03-0.322E-06
CGA:  17    -0.312964827466E+03   -0.19108E-04   -0.19108E-04  9568   0.299E-03 0.124E-05
CGA:  18    -0.312964835105E+03   -0.76392E-05   -0.76510E-05  9568   0.131E-03 0.703E-06
  78 F= -.31296484E+03 E0= -.31294353E+03  d E =0.420717E-02  mag=    25.9274
       N       E                     dE             d eps       ncg     rms          ort
SDA:   1    -0.312444917063E+03    0.51991E+00    0.00000E+00  9568   0.136E+01 0.000E+00
CGA:   2    -0.312690012943E+03   -0.24510E+00   -0.23054E+00  9568   0.291E+01 0.130E+00
CGA:   3    -0.312795864957E+03   -0.10585E+00   -0.10132E+00  9568   0.312E+01-0.412E-01
CGA:   4    -0.312855181509E+03   -0.59317E-01   -0.63976E-01  9568   0.760E+00-0.107E+00
CGA:   5    -0.312884438799E+03   -0.29257E-01   -0.29317E-01  9568   0.111E+01 0.122E-01
CGA:   6    -0.312908943610E+03   -0.24505E-01   -0.24631E-01  9568   0.628E+00-0.271E-02
CGA:   7    -0.312926276714E+03   -0.17333E-01   -0.17167E-01  9568   0.370E+00-0.299E-04
CGA:   8    -0.312935357907E+03   -0.90812E-02   -0.91063E-02  9568   0.161E+00-0.268E-03
CGA:   9    -0.312938904728E+03   -0.35468E-02   -0.35137E-02  9568   0.138E+00 0.580E-03
CGA:  10    -0.312942632523E+03   -0.37278E-02   -0.37502E-02  9568   0.626E-01 0.139E-03
CGA:  11    -0.312945538079E+03   -0.29056E-02   -0.29102E-02  9568   0.821E-01-0.373E-03
CGA:  12    -0.312946723928E+03   -0.11858E-02   -0.11743E-02  9568   0.195E-01 0.558E-03
CGA:  13    -0.312947676910E+03   -0.95298E-03   -0.95248E-03  9568   0.178E-01 0.326E-04
CGA:  14    -0.312948001738E+03   -0.32483E-03   -0.32540E-03  9568   0.120E-01-0.537E-05
CGA:  15    -0.312948502893E+03   -0.50116E-03   -0.50104E-03  9568   0.135E-01 0.178E-04
CGA:  16    -0.312948823553E+03   -0.32066E-03   -0.31934E-03  9568   0.506E-02 0.702E-05
CGA:  17    -0.312948955498E+03   -0.13194E-03   -0.13208E-03  9568   0.558E-02 0.366E-05
CGA:  18    -0.312949092676E+03   -0.13718E-03   -0.13724E-03  9568   0.200E-02 0.686E-06
CGA:  19    -0.312949183282E+03   -0.90606E-04   -0.90691E-04  9568   0.291E-02-0.675E-05
CGA:  20    -0.312949240137E+03   -0.56855E-04   -0.56861E-04  9568   0.190E-02 0.131E-05
CGA:  21    -0.312949321302E+03   -0.81165E-04   -0.81095E-04  9568   0.111E-02 0.678E-05
CGA:  22    -0.312949350632E+03   -0.29330E-04   -0.29314E-04  9568   0.137E-02-0.227E-05
CGA:  23    -0.312949391180E+03   -0.40548E-04   -0.40534E-04  9568   0.820E-03-0.198E-05
CGA:  24    -0.312949414833E+03   -0.23653E-04   -0.23669E-04  9568   0.728E-03 0.143E-05
CGA:  25    -0.312949443574E+03   -0.28741E-04   -0.28744E-04  9568   0.950E-03-0.746E-06
CGA:  26    -0.312949461728E+03   -0.18154E-04   -0.18182E-04  9568   0.473E-03-0.247E-07
CGA:  27    -0.312949489855E+03   -0.28128E-04   -0.28098E-04  9568   0.474E-03 0.116E-05
CGA:  28    -0.312949498440E+03   -0.85851E-05   -0.85852E-05  9568   0.360E-03-0.124E-06
CGA:  29    -0.312949516023E+03   -0.17583E-04   -0.17544E-04  9568   0.284E-03 0.253E-05
CGA:  30    -0.312949524682E+03   -0.86589E-05   -0.86682E-05  9568   0.344E-03 0.207E-05
  79 F= -.31294952E+03 E0= -.31292817E+03  d E =0.153104E-01  mag=    25.9279
       N       E                     dE             d eps       ncg     rms          ort
SDA:   1    -0.312527143501E+03    0.42237E+00    0.00000E+00  9568   0.382E+01 0.000E+00
CGA:   2    -0.312591978839E+03   -0.64835E-01   -0.64439E-01  9568   0.160E+01-0.371E-02
CGA:   3    -0.312680895942E+03   -0.88917E-01   -0.92178E-01  9568   0.466E+01-0.124E+00
CGA:   4    -0.312795233021E+03   -0.11434E+00   -0.11316E+00  9568   0.135E+01-0.256E-01
CGA:   5    -0.312840399038E+03   -0.45166E-01   -0.45205E-01  9568   0.635E+00 0.309E-01
CGA:   6    -0.312867399578E+03   -0.27001E-01   -0.26988E-01  9568   0.130E+01 0.121E-02
CGA:   7    -0.312901354300E+03   -0.33955E-01   -0.33755E-01  9568   0.472E+00-0.378E-02
CGA:   8    -0.312918808691E+03   -0.17454E-01   -0.17456E-01  9568   0.203E+00-0.357E-03
CGA:   9    -0.312923050772E+03   -0.42421E-02   -0.42794E-02  9568   0.108E+00-0.331E-03
CGA:  10    -0.312927571310E+03   -0.45205E-02   -0.45423E-02  9568   0.186E+00-0.180E-02
CGA:  11    -0.312931742842E+03   -0.41715E-02   -0.41641E-02  9568   0.488E-01-0.162E-05
CGA:  12    -0.312933987236E+03   -0.22444E-02   -0.22542E-02  9568   0.178E-01-0.604E-03
CGA:  13    -0.312934354851E+03   -0.36761E-03   -0.36702E-03  9568   0.188E-01 0.388E-05
CGA:  14    -0.312935481012E+03   -0.11262E-02   -0.11241E-02  9568   0.115E-01 0.724E-04
CGA:  15    -0.312936031318E+03   -0.55031E-03   -0.55033E-03  9568   0.962E-02-0.489E-06
CGA:  16    -0.312936179362E+03   -0.14804E-03   -0.14823E-03  9568   0.357E-02-0.962E-05
CGA:  17    -0.312936347522E+03   -0.16816E-03   -0.16793E-03  9568   0.376E-02 0.145E-04
CGA:  18    -0.312936553785E+03   -0.20626E-03   -0.20595E-03  9568   0.434E-02 0.154E-04
CGA:  19    -0.312936651088E+03   -0.97303E-04   -0.97099E-04  9568   0.196E-02 0.136E-05
CGA:  20    -0.312936712803E+03   -0.61714E-04   -0.61728E-04  9568   0.275E-02 0.174E-05
CGA:  21    -0.312936813500E+03   -0.10070E-03   -0.10069E-03  9568   0.877E-03 0.378E-05
CGA:  22    -0.312936870386E+03   -0.56886E-04   -0.57006E-04  9568   0.116E-02-0.401E-05
CGA:  23    -0.312936895802E+03   -0.25416E-04   -0.25417E-04  9568   0.116E-02 0.291E-06
CGA:  24    -0.312936967148E+03   -0.71346E-04   -0.71389E-04  9568   0.650E-03-0.133E-05
CGA:  25    -0.312936992459E+03   -0.25311E-04   -0.25315E-04  9568   0.683E-03-0.149E-05
CGA:  26    -0.312937009998E+03   -0.17539E-04   -0.17560E-04  9568   0.351E-03 0.114E-05
CGA:  27    -0.312937020521E+03   -0.10523E-04   -0.10527E-04  9568   0.523E-03 0.762E-06
CGA:  28    -0.312937051948E+03   -0.31427E-04   -0.31346E-04  9568   0.189E-03 0.344E-05
CGA:  29    -0.312937062703E+03   -0.10755E-04   -0.10745E-04  9568   0.266E-03 0.514E-06
CGA:  30    -0.312937067405E+03   -0.47024E-05   -0.46909E-05  9568   0.132E-03-0.444E-06
  80 F= -.31293707E+03 E0= -.31291567E+03  d E =0.124573E-01  mag=    25.9251
       N       E                     dE             d eps       ncg     rms          ort
SDA:   1    -0.312834669589E+03    0.10239E+00    0.00000E+00  9568   0.168E+01 0.000E+00
CGA:   2    -0.312858803586E+03   -0.24134E-01   -0.22159E-01  9568   0.356E+00 0.111E+00
CGA:   3    -0.312873458381E+03   -0.14655E-01   -0.14658E-01  9568   0.745E+00-0.167E-02
CGA:   4    -0.312903458096E+03   -0.30000E-01   -0.29984E-01  9568   0.461E+00 0.320E-02
CGA:   5    -0.312913319604E+03   -0.98615E-02   -0.99676E-02  9568   0.301E+00-0.165E-02
CGA:   6    -0.312919440586E+03   -0.61210E-02   -0.62488E-02  9568   0.156E+00-0.220E-02
CGA:   7    -0.312930094514E+03   -0.10654E-01   -0.10685E-01  9568   0.239E+00-0.923E-03
CGA:   8    -0.312934557178E+03   -0.44627E-02   -0.44347E-02  9568   0.107E+00 0.708E-03
CGA:   9    -0.312937407022E+03   -0.28498E-02   -0.28463E-02  9568   0.561E-01-0.264E-04
CGA:  10    -0.312938555998E+03   -0.11490E-02   -0.11487E-02  9568   0.216E-01-0.121E-04
CGA:  11    -0.312940475528E+03   -0.19195E-02   -0.19204E-02  9568   0.417E-01-0.173E-04
CGA:  12    -0.312941054696E+03   -0.57917E-03   -0.57778E-03  9568   0.708E-02 0.886E-04
CGA:  13    -0.312941291990E+03   -0.23729E-03   -0.23748E-03  9568   0.702E-02 0.234E-04
CGA:  14    -0.312941526819E+03   -0.23483E-03   -0.23477E-03  9568   0.499E-02-0.765E-05
CGA:  15    -0.312941748847E+03   -0.22203E-03   -0.22212E-03  9568   0.472E-02-0.702E-05
CGA:  16    -0.312941841470E+03   -0.92624E-04   -0.92377E-04  9568   0.272E-02 0.749E-05
CGA:  17    -0.312941929321E+03   -0.87850E-04   -0.87888E-04  9568   0.116E-02 0.562E-05
CGA:  18    -0.312941976645E+03   -0.47324E-04   -0.47346E-04  9568   0.156E-02-0.327E-05
CGA:  19    -0.312942023753E+03   -0.47108E-04   -0.47117E-04  9568   0.708E-03 0.176E-06
CGA:  20    -0.312942043310E+03   -0.19558E-04   -0.19573E-04  9568   0.950E-03 0.132E-05
CGA:  21    -0.312942084325E+03   -0.41015E-04   -0.41016E-04  9568   0.462E-03-0.425E-06
CGA:  22    -0.312942101918E+03   -0.17593E-04   -0.17594E-04  9568   0.349E-03-0.502E-06
CGA:  23    -0.312942110075E+03   -0.81571E-05   -0.81736E-05  9568   0.195E-03 0.115E-05
  81 F= -.31294211E+03 E0= -.31292073E+03  d E =-.504267E-02  mag=    25.9266
       N       E                     dE             d eps       ncg     rms          ort
SDA:   1    -0.312506112866E+03    0.43599E+00    0.00000E+00  9568   0.761E+01 0.000E+00
CGA:   2    -0.312595049055E+03   -0.88936E-01   -0.78979E-01  9568   0.103E+01 0.707E+00
CGA:   3    -0.312659833629E+03   -0.64785E-01   -0.61997E-01  9568   0.283E+01 0.118E+00
CGA:   4    -0.312787055419E+03   -0.12722E+00   -0.12653E+00  9568   0.337E+01 0.952E-01
CGA:   5    -0.312843212004E+03   -0.56157E-01   -0.52290E-01  9568   0.842E+00 0.169E+00
CGA:   6    -0.312867071136E+03   -0.23859E-01   -0.23309E-01  9568   0.755E+00-0.109E-01
CGA:   7    -0.312879924462E+03   -0.12853E-01   -0.12722E-01  9568   0.496E+00 0.374E-02
CGA:   8    -0.312902385810E+03   -0.22461E-01   -0.22308E-01  9568   0.775E+00 0.103E-01
CGA:   9    -0.312913312402E+03   -0.10927E-01   -0.11037E-01  9568   0.221E+00-0.534E-02
CGA:  10    -0.312918932073E+03   -0.56197E-02   -0.56015E-02  9568   0.118E+00-0.504E-03
CGA:  11    -0.312920694141E+03   -0.17621E-02   -0.17654E-02  9568   0.646E-01-0.126E-03
CGA:  12    -0.312923717306E+03   -0.30232E-02   -0.30317E-02  9568   0.120E+00-0.448E-03
CGA:  13    -0.312926193953E+03   -0.24766E-02   -0.24678E-02  9568   0.551E-01 0.343E-04
CGA:  14    -0.312927053376E+03   -0.85942E-03   -0.86500E-03  9568   0.191E-01-0.162E-03
CGA:  15    -0.312927649839E+03   -0.59646E-03   -0.59645E-03  9568   0.164E-01 0.579E-04
CGA:  16    -0.312927930806E+03   -0.28097E-03   -0.28041E-03  9568   0.112E-01 0.870E-05
CGA:  17    -0.312928634889E+03   -0.70408E-03   -0.70472E-03  9568   0.150E-01-0.203E-04
CGA:  18    -0.312928817243E+03   -0.18235E-03   -0.18294E-03  9568   0.408E-02-0.237E-04
CGA:  19    -0.312929017660E+03   -0.20042E-03   -0.20060E-03  9568   0.651E-02-0.849E-05
CGA:  20    -0.312929129811E+03   -0.11215E-03   -0.11217E-03  9568   0.318E-02-0.140E-05
CGA:  21    -0.312929215254E+03   -0.85443E-04   -0.85529E-04  9568   0.245E-02 0.945E-05
CGA:  22    -0.312929279564E+03   -0.64309E-04   -0.64294E-04  9568   0.185E-02-0.154E-05
CGA:  23    -0.312929318260E+03   -0.38696E-04   -0.38660E-04  9568   0.157E-02-0.316E-05
CGA:  24    -0.312929385199E+03   -0.66939E-04   -0.66953E-04  9568   0.175E-02-0.118E-05
CGA:  25    -0.312929425555E+03   -0.40355E-04   -0.40371E-04  9568   0.169E-02 0.123E-05
CGA:  26    -0.312929461594E+03   -0.36039E-04   -0.36029E-04  9568   0.394E-03-0.116E-05
CGA:  27    -0.312929473707E+03   -0.12113E-04   -0.12114E-04  9568   0.759E-03-0.137E-05
CGA:  28    -0.312929497911E+03   -0.24204E-04   -0.24203E-04  9568   0.515E-03 0.767E-07
CGA:  29    -0.312929515328E+03   -0.17417E-04   -0.17415E-04  9568   0.782E-03 0.232E-06
CGA:  30    -0.312929533188E+03   -0.17860E-04   -0.17862E-04  9568   0.446E-03-0.136E-06
CGA:  31    -0.312929543099E+03   -0.99109E-05   -0.99337E-05  9568   0.274E-03 0.225E-05
  82 F= -.31292954E+03 E0= -.31290814E+03  d E =0.125670E-01  mag=    25.9260
       N       E                     dE             d eps       ncg     rms          ort
SDA:   1    -0.312679923238E+03    0.24961E+00    0.00000E+00  9568   0.477E+01 0.000E+00
CGA:   2    -0.312730977077E+03   -0.51054E-01   -0.54303E-01  9568   0.905E+00-0.205E+00
CGA:   3    -0.312817877273E+03   -0.86900E-01   -0.85082E-01  9568   0.126E+01 0.314E-01
CGA:   4    -0.312847087292E+03   -0.29210E-01   -0.29061E-01  9568   0.752E+00-0.592E-03
CGA:   5    -0.312867749130E+03   -0.20662E-01   -0.20630E-01  9568   0.371E+00-0.234E-02
CGA:   6    -0.312897869747E+03   -0.30121E-01   -0.29863E-01  9568   0.574E+00 0.591E-02
CGA:   7    -0.312909590978E+03   -0.11721E-01   -0.11757E-01  9568   0.268E+00-0.505E-03
CGA:   8    -0.312917238328E+03   -0.76473E-02   -0.76384E-02  9568   0.997E-01-0.608E-03
CGA:   9    -0.312920803216E+03   -0.35649E-02   -0.35653E-02  9568   0.126E+00-0.750E-04
CGA:  10    -0.312925566669E+03   -0.47635E-02   -0.47516E-02  9568   0.624E-01 0.166E-02
CGA:  11    -0.312926796241E+03   -0.12296E-02   -0.12245E-02  9568   0.292E-01 0.746E-04
CGA:  12    -0.312927827007E+03   -0.10308E-02   -0.10307E-02  9568   0.123E-01 0.261E-04
CGA:  13    -0.312928423724E+03   -0.59672E-03   -0.59591E-03  9568   0.230E-01 0.441E-04
CGA:  14    -0.312928972843E+03   -0.54912E-03   -0.55145E-03  9568   0.827E-02 0.296E-04
CGA:  15    -0.312929281936E+03   -0.30909E-03   -0.30916E-03  9568   0.357E-02-0.909E-05
CGA:  16    -0.312929388666E+03   -0.10673E-03   -0.10676E-03  9568   0.481E-02 0.669E-05
CGA:  17    -0.312929580687E+03   -0.19202E-03   -0.19195E-03  9568   0.257E-02 0.939E-05
CGA:  18    -0.312929708799E+03   -0.12811E-03   -0.12803E-03  9568   0.290E-02 0.534E-05
CGA:  19    -0.312929761366E+03   -0.52567E-04   -0.52520E-04  9568   0.110E-02 0.119E-05
CGA:  20    -0.312929837524E+03   -0.76157E-04   -0.75978E-04  9568   0.127E-02 0.519E-05
CGA:  21    -0.312929873453E+03   -0.35929E-04   -0.35909E-04  9568   0.123E-02-0.113E-05
CGA:  22    -0.312929909917E+03   -0.36464E-04   -0.36459E-04  9568   0.608E-03 0.362E-06
CGA:  23    -0.312929947935E+03   -0.38017E-04   -0.38018E-04  9568   0.810E-03-0.479E-07
CGA:  24    -0.312929963770E+03   -0.15836E-04   -0.15856E-04  9568   0.396E-03 0.274E-06
CGA:  25    -0.312929981747E+03   -0.17976E-04   -0.17998E-04  9568   0.238E-03-0.196E-05
CGA:  26    -0.312929991835E+03   -0.10088E-04   -0.10084E-04  9568   0.453E-03 0.556E-06
CGA:  27    -0.312930005387E+03   -0.13552E-04   -0.13547E-04  9568   0.159E-03-0.855E-06
CGA:  28    -0.312930011727E+03   -0.63395E-05   -0.63415E-05  9568   0.148E-03-0.453E-06
  83 F= -.31293001E+03 E0= -.31290852E+03  d E =-.468628E-03  mag=    25.9280
       N       E                     dE             d eps       ncg     rms          ort
SDA:   1    -0.312849749883E+03    0.80256E-01    0.00000E+00  9568   0.107E+01 0.000E+00
CGA:   2    -0.312865384918E+03   -0.15635E-01   -0.14534E-01  9568   0.353E+00 0.560E-01
CGA:   3    -0.312881596845E+03   -0.16212E-01   -0.16364E-01  9568   0.475E+00-0.113E-01
CGA:   4    -0.312901589370E+03   -0.19993E-01   -0.20046E-01  9568   0.347E+00-0.415E-02
CGA:   5    -0.312908701449E+03   -0.71121E-02   -0.72382E-02  9568   0.119E+00-0.151E-02
CGA:   6    -0.312912996845E+03   -0.42954E-02   -0.42927E-02  9568   0.236E+00 0.852E-03
CGA:   7    -0.312923247376E+03   -0.10251E-01   -0.10263E-01  9568   0.751E-01-0.105E-02
CGA:   8    -0.312926824586E+03   -0.35772E-02   -0.35679E-02  9568   0.343E-01 0.570E-03
CGA:   9    -0.312927820560E+03   -0.99597E-03   -0.99570E-03  9568   0.374E-01-0.622E-05
CGA:  10    -0.312929120004E+03   -0.12994E-02   -0.12995E-02  9568   0.319E-01 0.746E-04
CGA:  11    -0.312930007102E+03   -0.88710E-03   -0.88553E-03  9568   0.122E-01-0.517E-04
CGA:  12    -0.312930294049E+03   -0.28695E-03   -0.28688E-03  9568   0.391E-02 0.261E-05
CGA:  13    -0.312930554849E+03   -0.26080E-03   -0.26089E-03  9568   0.639E-02-0.259E-05
CGA:  14    -0.312930689675E+03   -0.13483E-03   -0.13499E-03  9568   0.405E-02-0.237E-05
CGA:  15    -0.312930846474E+03   -0.15680E-03   -0.15686E-03  9568   0.103E-02-0.125E-04
CGA:  16    -0.312930911693E+03   -0.65218E-04   -0.65230E-04  9568   0.168E-02-0.375E-06
CGA:  17    -0.312930943058E+03   -0.31365E-04   -0.31302E-04  9568   0.755E-03-0.129E-05
CGA:  18    -0.312930984211E+03   -0.41153E-04   -0.41142E-04  9568   0.635E-03 0.479E-06
CGA:  19    -0.312931007348E+03   -0.23137E-04   -0.23137E-04  9568   0.655E-03-0.537E-06
CGA:  20    -0.312931029547E+03   -0.22199E-04   -0.22197E-04  9568   0.431E-03-0.484E-06
CGA:  21    -0.312931039247E+03   -0.97003E-05   -0.96899E-05  9568   0.229E-03-0.675E-06
  84 F= -.31293104E+03 E0= -.31290963E+03  d E =-.102752E-02  mag=    25.9264
       N       E                     dE             d eps       ncg     rms          ort
SDA:   1    -0.312853387507E+03    0.77642E-01    0.00000E+00  9568   0.612E+00 0.000E+00
CGA:   2    -0.312866220740E+03   -0.12833E-01   -0.13365E-01  9568   0.306E+00-0.487E-02
CGA:   3    -0.312877112436E+03   -0.10892E-01   -0.10885E-01  9568   0.471E+00 0.434E-02
CGA:   4    -0.312899414001E+03   -0.22302E-01   -0.22231E-01  9568   0.539E+00 0.461E-02
CGA:   5    -0.312912298455E+03   -0.12884E-01   -0.12755E-01  9568   0.919E-01 0.247E-03
CGA:   6    -0.312917740403E+03   -0.54419E-02   -0.54310E-02  9568   0.621E-01 0.403E-03
CGA:   7    -0.312921529652E+03   -0.37892E-02   -0.37774E-02  9568   0.898E-01 0.441E-03
CGA:   8    -0.312923358018E+03   -0.18284E-02   -0.18464E-02  9568   0.246E-01-0.375E-03
CGA:   9    -0.312923890231E+03   -0.53221E-03   -0.53281E-03  9568   0.167E-01-0.174E-04
CGA:  10    -0.312924569476E+03   -0.67925E-03   -0.67820E-03  9568   0.790E-02 0.138E-03
CGA:  11    -0.312924955812E+03   -0.38634E-03   -0.38678E-03  9568   0.422E-02-0.265E-04
CGA:  12    -0.312925124236E+03   -0.16842E-03   -0.16829E-03  9568   0.410E-02 0.272E-04
CGA:  13    -0.312925248387E+03   -0.12415E-03   -0.12415E-03  9568   0.251E-02-0.150E-06
CGA:  14    -0.312925304514E+03   -0.56127E-04   -0.56170E-04  9568   0.142E-02 0.188E-05
CGA:  15    -0.312925344944E+03   -0.40430E-04   -0.40415E-04  9568   0.703E-03 0.731E-06
CGA:  16    -0.312925408748E+03   -0.63803E-04   -0.63626E-04  9568   0.681E-03 0.325E-05
CGA:  17    -0.312925428981E+03   -0.20233E-04   -0.20247E-04  9568   0.417E-03 0.118E-05
CGA:  18    -0.312925441129E+03   -0.12148E-04   -0.12144E-04  9568   0.240E-03-0.408E-06
CGA:  19    -0.312925447522E+03   -0.63932E-05   -0.63830E-05  9568   0.288E-03-0.964E-06
CGA:  20    -0.312925469236E+03   -0.21714E-04   -0.21699E-04  9568   0.183E-03 0.460E-06
CGA:  21    -0.312925475900E+03   -0.66637E-05   -0.66604E-05  9568   0.130E-03-0.114E-05
  85 F= -.31292548E+03 E0= -.31290404E+03  d E =0.556335E-02  mag=    25.9265
