       N       E                     dE             d eps       ncg     rms          rms(c)
DAV:   1     0.602252098904E+04    0.60225E+04   -0.25192E+05 35128   0.157E+03
DAV:   2     0.352368301337E+03   -0.56702E+04   -0.51848E+04 34264   0.463E+02
DAV:   3    -0.360592239260E+03   -0.71296E+03   -0.69780E+03 34560   0.183E+02
DAV:   4    -0.382546204756E+03   -0.21954E+02   -0.21801E+02 37552   0.334E+01
DAV:   5    -0.382884809191E+03   -0.33860E+00   -0.33596E+00 43328   0.401E+00    0.925E+01
DAV:   6    -0.289301662927E+03    0.93583E+02   -0.36305E+02 40344   0.648E+01    0.755E+01
DAV:   7    -0.306544234344E+03   -0.17243E+02   -0.10087E+02 35584   0.576E+01    0.894E+01
DAV:   8    -0.320107575274E+03   -0.13563E+02   -0.71058E+01 38376   0.348E+01    0.989E+01
DAV:   9    -0.284262885185E+03    0.35845E+02   -0.43460E+01 35592   0.245E+01    0.405E+01
DAV:  10    -0.318569180167E+03   -0.34306E+02   -0.66770E+01 37040   0.259E+01    0.804E+01
DAV:  11    -0.292151572017E+03    0.26418E+02   -0.32994E+01 35560   0.252E+01    0.277E+01
DAV:  12    -0.300572621835E+03   -0.84210E+01   -0.11758E+01 36672   0.123E+01    0.310E+01
DAV:  13    -0.304400594534E+03   -0.38280E+01   -0.42001E+00 35688   0.711E+00    0.173E+01
DAV:  14    -0.309966525005E+03   -0.55659E+01   -0.29835E+00 36696   0.465E+00    0.163E+01
DAV:  15    -0.311999076731E+03   -0.20326E+01   -0.13118E+00 35192   0.369E+00    0.151E+01
DAV:  16    -0.312704665505E+03   -0.70559E+00   -0.98751E-01 34568   0.305E+00    0.130E+01
DAV:  17    -0.313019671226E+03   -0.31501E+00   -0.60547E-01 34304   0.288E+00    0.987E+00
DAV:  18    -0.313165655804E+03   -0.14598E+00   -0.44330E-01 34792   0.195E+00    0.754E+00
DAV:  19    -0.313338125973E+03   -0.17247E+00   -0.20549E-01 35184   0.152E+00    0.619E+00
DAV:  20    -0.313383264931E+03   -0.45139E-01   -0.76701E-02 35656   0.117E+00    0.519E+00
DAV:  21    -0.313400332253E+03   -0.17067E-01   -0.86450E-02 35880   0.108E+00    0.369E+00
DAV:  22    -0.313393876017E+03    0.64562E-02   -0.86943E-02 36520   0.934E-01    0.279E+00
DAV:  23    -0.313395673641E+03   -0.17976E-02   -0.18928E-02 34152   0.408E-01    0.262E+00
DAV:  24    -0.313396985469E+03   -0.13118E-02   -0.39696E-03 34416   0.189E-01    0.268E+00
DAV:  25    -0.313397752149E+03   -0.76668E-03   -0.75266E-04 36144   0.985E-02    0.258E+00
DAV:  26    -0.313397556207E+03    0.19594E-03   -0.65890E-03 35832   0.334E-01    0.220E+00
DAV:  27    -0.313388356370E+03    0.91998E-02   -0.25141E-02 35704   0.693E-01    0.140E+00
DAV:  28    -0.313385655435E+03    0.27009E-02   -0.98594E-03 36664   0.342E-01    0.119E+00
DAV:  29    -0.313386688996E+03   -0.10336E-02   -0.25273E-03 33904   0.183E-01    0.946E-01
DAV:  30    -0.313386778105E+03   -0.89109E-04   -0.20390E-03 34648   0.182E-01    0.713E-01
DAV:  31    -0.313385323449E+03    0.14547E-02   -0.30718E-03 33848   0.230E-01    0.577E-01
DAV:  32    -0.313385008945E+03    0.31450E-03   -0.27497E-03 34776   0.174E-01    0.283E-01
DAV:  33    -0.313385136283E+03   -0.12734E-03   -0.80408E-04 35816   0.853E-02    0.185E-01
DAV:  34    -0.313385056925E+03    0.79358E-04   -0.21344E-04 32760   0.631E-02    0.868E-02
DAV:  35    -0.313385003685E+03    0.53240E-04   -0.76080E-05 31880   0.341E-02    0.572E-02
DAV:  36    -0.313384992553E+03    0.11132E-04   -0.35686E-05 26520   0.245E-02    0.454E-02
DAV:  37    -0.313384979515E+03    0.13038E-04   -0.18951E-05 22432   0.153E-02    0.360E-02
DAV:  38    -0.313384964812E+03    0.14703E-04   -0.15919E-05 22856   0.122E-02    0.291E-02
DAV:  39    -0.313384957734E+03    0.70785E-05   -0.98033E-06 21352   0.986E-03
   1 F= -.31338496E+03 E0= -.31337983E+03  d E =-.313385E+03  mag=    44.0079
       N       E                     dE             d eps       ncg     rms          rms(c)
DAV:   1    -0.313449274444E+03   -0.64310E-01   -0.25221E-02 36640   0.310E-01    0.513E-02
DAV:   2    -0.313449372115E+03   -0.97672E-04   -0.12854E-03 34920   0.665E-02    0.674E-02
DAV:   3    -0.313449369551E+03    0.25643E-05   -0.94952E-05 34312   0.306E-02    0.519E-02
DAV:   4    -0.313449364154E+03    0.53971E-05   -0.19236E-05 23528   0.157E-02
   2 F= -.31344936E+03 E0= -.31344423E+03  d E =-.644064E-01  mag=    44.0046
       N       E                     dE             d eps       ncg     rms          rms(c)
DAV:   1    -0.314766397382E+03   -0.13170E+01   -0.16567E+01 36424   0.795E+00    0.128E+00
DAV:   2    -0.314836675825E+03   -0.70278E-01   -0.86893E-01 35800   0.159E+00    0.114E+00
DAV:   3    -0.314836765298E+03   -0.89473E-04   -0.35747E-02 42512   0.530E-01    0.124E+00
DAV:   4    -0.314833968520E+03    0.27968E-02   -0.11073E-02 38480   0.361E-01    0.678E-01
DAV:   5    -0.314833257428E+03    0.71109E-03   -0.87576E-03 37328   0.291E-01    0.847E-01
DAV:   6    -0.314832313168E+03    0.94426E-03   -0.77485E-03 41240   0.278E-01    0.392E-01
DAV:   7    -0.314832301872E+03    0.11295E-04   -0.15685E-03 36576   0.139E-01    0.154E-01
DAV:   8    -0.314832306152E+03   -0.42796E-05   -0.26301E-04 32944   0.726E-02    0.102E-01
DAV:   9    -0.314832297393E+03    0.87592E-05   -0.83813E-05 30768   0.363E-02
   3 F= -.31483230E+03 E0= -.31482718E+03  d E =-.138293E+01  mag=    44.0010
       N       E                     dE             d eps       ncg     rms          rms(c)
DAV:   1    -0.316194802186E+03   -0.13625E+01   -0.75895E+01 36432   0.191E+01    0.280E+00
DAV:   2    -0.316651225513E+03   -0.45642E+00   -0.49659E+00 35760   0.382E+00    0.237E+00
DAV:   3    -0.316654134502E+03   -0.29090E-02   -0.16010E-01 42128   0.110E+00    0.239E+00
DAV:   4    -0.316644833190E+03    0.93013E-02   -0.37906E-02 38224   0.703E-01    0.130E+00
DAV:   5    -0.316641078375E+03    0.37548E-02   -0.28103E-02 37456   0.523E-01    0.162E+00
DAV:   6    -0.316637084916E+03    0.39935E-02   -0.29840E-02 39696   0.534E-01    0.807E-01
DAV:   7    -0.316636859787E+03    0.22513E-03   -0.80109E-03 37496   0.297E-01    0.379E-01
DAV:   8    -0.316636846266E+03    0.13521E-04   -0.15598E-03 35736   0.167E-01    0.221E-01
DAV:   9    -0.316636809136E+03    0.37130E-04   -0.34211E-04 36912   0.762E-02    0.134E-01
DAV:  10    -0.316636793215E+03    0.15920E-04   -0.12870E-04 32512   0.470E-02    0.676E-02
DAV:  11    -0.316636794546E+03   -0.13302E-05   -0.64428E-05 27872   0.314E-02
   4 F= -.31663679E+03 E0= -.31663169E+03  d E =-.180450E+01  mag=    44.0001
       N       E                     dE             d eps       ncg     rms          rms(c)
DAV:   1    -0.316982538353E+03   -0.34575E+00   -0.97970E+01 37912   0.266E+01    0.342E+00
DAV:   2    -0.317708883285E+03   -0.72634E+00   -0.73063E+00 35488   0.500E+00    0.262E+00
DAV:   3    -0.317720976988E+03   -0.12094E-01   -0.19581E-01 40920   0.130E+00    0.235E+00
DAV:   4    -0.317713602369E+03    0.73746E-02   -0.46421E-02 37728   0.786E-01    0.128E+00
DAV:   5    -0.317709038347E+03    0.45640E-02   -0.16920E-02 35496   0.468E-01    0.115E+00
DAV:   6    -0.317705695006E+03    0.33433E-02   -0.12974E-02 37128   0.452E-01    0.666E-01
DAV:   7    -0.317705561546E+03    0.13346E-03   -0.71808E-03 37696   0.305E-01    0.528E-01
DAV:   8    -0.317705413588E+03    0.14796E-03   -0.30469E-03 36552   0.192E-01    0.260E-01
DAV:   9    -0.317705380540E+03    0.33048E-04   -0.49156E-04 35664   0.877E-02    0.117E-01
DAV:  10    -0.317705373152E+03    0.73882E-05   -0.94699E-05 31744   0.425E-02
   5 F= -.31770537E+03 E0= -.31770031E+03  d E =-.106858E+01  mag=    44.0000
       N       E                     dE             d eps       ncg     rms          rms(c)
DAV:   1    -0.316600975476E+03    0.11044E+01   -0.19416E+02 38400   0.428E+01    0.596E+00
DAV:   2    -0.318501880301E+03   -0.19009E+01   -0.18551E+01 34256   0.809E+00    0.582E+00
DAV:   3    -0.318545662365E+03   -0.43782E-01   -0.70525E-01 38976   0.272E+00    0.407E+00
DAV:   4    -0.318528549883E+03    0.17112E-01   -0.15873E-01 37048   0.145E+00    0.214E+00
DAV:   5    -0.318522518110E+03    0.60318E-02   -0.34931E-02 35848   0.652E-01    0.145E+00
DAV:   6    -0.318516396180E+03    0.61219E-02   -0.13484E-02 36752   0.507E-01    0.819E-01
DAV:   7    -0.318514844673E+03    0.15515E-02   -0.12682E-02 36728   0.440E-01    0.786E-01
DAV:   8    -0.318514548796E+03    0.29588E-03   -0.80621E-03 37856   0.315E-01    0.518E-01
DAV:   9    -0.318514475491E+03    0.73305E-04   -0.20584E-03 36312   0.148E-01    0.270E-01
DAV:  10    -0.318514423801E+03    0.51690E-04   -0.51843E-04 35064   0.918E-02    0.938E-02
DAV:  11    -0.318514435314E+03   -0.11513E-04   -0.11842E-04 32048   0.421E-02    0.107E-01
DAV:  12    -0.318514421365E+03    0.13950E-04   -0.72610E-05 29384   0.336E-02    0.466E-02
DAV:  13    -0.318514420972E+03    0.39279E-06   -0.26741E-05 24904   0.215E-02
   6 F= -.31851442E+03 E0= -.31850949E+03  d E =-.809048E+00  mag=    44.0000
       N       E                     dE             d eps       ncg     rms          rms(c)
DAV:   1    -0.317669037166E+03    0.84538E+00   -0.16007E+02 35992   0.369E+01    0.445E+00
DAV:   2    -0.318877344564E+03   -0.12083E+01   -0.11963E+01 33968   0.713E+00    0.508E+00
DAV:   3    -0.318901517506E+03   -0.24173E-01   -0.50899E-01 40016   0.237E+00    0.461E+00
DAV:   4    -0.318876714801E+03    0.24803E-01   -0.11129E-01 36736   0.128E+00    0.146E+00
DAV:   5    -0.318874438925E+03    0.22759E-02   -0.17935E-02 35464   0.499E-01    0.118E+00
DAV:   6    -0.318869818936E+03    0.46200E-02   -0.13335E-02 36816   0.452E-01    0.711E-01
DAV:   7    -0.318869150429E+03    0.66851E-03   -0.13066E-02 36344   0.390E-01    0.848E-01
DAV:   8    -0.318868561876E+03    0.58855E-03   -0.64772E-03 40472   0.273E-01    0.339E-01
DAV:   9    -0.318868688550E+03   -0.12667E-03   -0.13470E-03 34312   0.123E-01    0.291E-01
DAV:  10    -0.318868612122E+03    0.76428E-04   -0.49933E-04 34376   0.798E-02    0.149E-01
DAV:  11    -0.318868605360E+03    0.67613E-05   -0.74918E-05 29872   0.389E-02
   7 F= -.31886861E+03 E0= -.31886370E+03  d E =-.354184E+00  mag=    44.0000
       N       E                     dE             d eps       ncg     rms          rms(c)
DAV:   1    -0.317550121986E+03    0.13185E+01   -0.26873E+02 35296   0.469E+01    0.512E+00
DAV:   2    -0.319212624411E+03   -0.16625E+01   -0.16744E+01 33792   0.917E+00    0.680E+00
DAV:   3    -0.319227776219E+03   -0.15152E-01   -0.85103E-01 37984   0.309E+00    0.567E+00
DAV:   4    -0.319188626943E+03    0.39149E-01   -0.17871E-01 37256   0.150E+00    0.174E+00
DAV:   5    -0.319186795970E+03    0.18310E-02   -0.30335E-02 36000   0.684E-01    0.176E+00
DAV:   6    -0.319180779023E+03    0.60169E-02   -0.21613E-02 37048   0.602E-01    0.128E+00
DAV:   7    -0.319179721295E+03    0.10577E-02   -0.18770E-02 38056   0.531E-01    0.109E+00
DAV:   8    -0.319178913028E+03    0.80827E-03   -0.10263E-02 36328   0.407E-01    0.444E-01
DAV:   9    -0.319179020041E+03   -0.10701E-03   -0.25433E-03 34128   0.192E-01    0.336E-01
DAV:  10    -0.319178912353E+03    0.10769E-03   -0.65838E-04 36088   0.101E-01    0.154E-01
DAV:  11    -0.319178906258E+03    0.60948E-05   -0.14891E-04 32312   0.535E-02    0.107E-01
DAV:  12    -0.319178890103E+03    0.16155E-04   -0.64689E-05 29488   0.330E-02    0.511E-02
DAV:  13    -0.319178891312E+03   -0.12088E-05   -0.56704E-05 25824   0.274E-02
   8 F= -.31917889E+03 E0= -.31917366E+03  d E =-.310286E+00  mag=    44.0000
       N       E                     dE             d eps       ncg     rms          rms(c)
DAV:   1    -0.317620689554E+03    0.15582E+01   -0.30369E+02 34752   0.493E+01    0.531E+00
DAV:   2    -0.319432751356E+03   -0.18121E+01   -0.18490E+01 34648   0.939E+00    0.529E+00
DAV:   3    -0.319456218143E+03   -0.23467E-01   -0.74866E-01 37528   0.287E+00    0.585E+00
DAV:   4    -0.319409777318E+03    0.46441E-01   -0.17774E-01 36600   0.150E+00    0.178E+00
DAV:   5    -0.319404485035E+03    0.52923E-02   -0.29841E-02 36136   0.657E-01    0.175E+00
DAV:   6    -0.319397964110E+03    0.65209E-02   -0.38064E-02 36152   0.747E-01    0.166E+00
DAV:   7    -0.319395253971E+03    0.27101E-02   -0.26381E-02 36608   0.597E-01    0.117E+00
DAV:   8    -0.319394392019E+03    0.86195E-03   -0.98508E-03 36504   0.409E-01    0.540E-01
DAV:   9    -0.319394426339E+03   -0.34320E-04   -0.40953E-03 35176   0.218E-01    0.410E-01
DAV:  10    -0.319394260797E+03    0.16554E-03   -0.17814E-03 36608   0.142E-01    0.224E-01
DAV:  11    -0.319394214514E+03    0.46283E-04   -0.34830E-04 34616   0.699E-02    0.107E-01
DAV:  12    -0.319394206637E+03    0.78772E-05   -0.13621E-04 31624   0.433E-02    0.819E-02
DAV:  13    -0.319394195808E+03    0.10830E-04   -0.75021E-05 26512   0.298E-02    0.453E-02
DAV:  14    -0.319394191731E+03    0.40772E-05   -0.28034E-05 23992   0.210E-02
   9 F= -.31939419E+03 E0= -.31938872E+03  d E =-.215300E+00  mag=    44.0000
       N       E                     dE             d eps       ncg     rms          rms(c)
DAV:   1    -0.318977667017E+03    0.41653E+00   -0.29133E+01 39712   0.245E+01    0.336E+00
DAV:   2    -0.319464169429E+03   -0.48650E+00   -0.48093E+00 34752   0.447E+00    0.284E+00
DAV:   3    -0.319490902296E+03   -0.26733E-01   -0.22698E-01 34416   0.154E+00    0.260E+00
DAV:   4    -0.319484673772E+03    0.62285E-02   -0.65091E-02 35808   0.879E-01    0.129E+00
DAV:   5    -0.319483259986E+03    0.14138E-02   -0.15432E-02 37536   0.422E-01    0.108E+00
DAV:   6    -0.319481317666E+03    0.19423E-02   -0.10731E-02 35608   0.397E-01    0.760E-01
DAV:   7    -0.319481230067E+03    0.87599E-04   -0.73909E-03 35512   0.349E-01    0.752E-01
DAV:   8    -0.319480696487E+03    0.53358E-03   -0.33565E-03 37600   0.240E-01    0.286E-01
DAV:   9    -0.319480706705E+03   -0.10218E-04   -0.10482E-03 34840   0.112E-01    0.172E-01
DAV:  10    -0.319480669390E+03    0.37315E-04   -0.33362E-04 32976   0.655E-02    0.874E-02
DAV:  11    -0.319480660108E+03    0.92819E-05   -0.79489E-05 30032   0.384E-02
  10 F= -.31948066E+03 E0= -.31947523E+03  d E =-.864684E-01  mag=    44.0000
       N       E                     dE             d eps       ncg     rms          rms(c)
DAV:   1    -0.319475059143E+03    0.56102E-02   -0.19507E+00 41344   0.638E+00    0.874E-01
DAV:   2    -0.319506773523E+03   -0.31714E-01   -0.31096E-01 34680   0.115E+00    0.830E-01
DAV:   3    -0.319508816579E+03   -0.20431E-02   -0.21236E-02 33672   0.481E-01    0.993E-01
DAV:   4    -0.319507837816E+03    0.97876E-03   -0.51602E-03 35224   0.248E-01    0.304E-01
DAV:   5    -0.319507838249E+03   -0.43216E-06   -0.74024E-04 36152   0.101E-01    0.259E-01
DAV:   6    -0.319507730809E+03    0.10744E-03   -0.93165E-04 35704   0.112E-01    0.250E-01
DAV:   7    -0.319507687824E+03    0.42986E-04   -0.68037E-04 36512   0.102E-01    0.185E-01
DAV:   8    -0.319507661020E+03    0.26804E-04   -0.16859E-04 33392   0.561E-02    0.671E-02
DAV:   9    -0.319507661091E+03   -0.71530E-07   -0.60076E-05 28800   0.280E-02
  11 F= -.31950766E+03 E0= -.31950222E+03  d E =-.270010E-01  mag=    44.0000
       N       E                     dE             d eps       ncg     rms          rms(c)
DAV:   1    -0.319492232259E+03    0.15429E-01   -0.51695E+00 36464   0.808E+00    0.937E-01
DAV:   2    -0.319538841435E+03   -0.46609E-01   -0.46753E-01 33656   0.158E+00    0.110E+00
DAV:   3    -0.319540217447E+03   -0.13760E-02   -0.28964E-02 35688   0.578E-01    0.102E+00
DAV:   4    -0.319539066418E+03    0.11510E-02   -0.56113E-03 35024   0.269E-01    0.306E-01
DAV:   5    -0.319539007950E+03    0.58468E-04   -0.10622E-03 37264   0.117E-01    0.299E-01
DAV:   6    -0.319538826114E+03    0.18184E-03   -0.12163E-03 35888   0.121E-01    0.271E-01
DAV:   7    -0.319538749272E+03    0.76843E-04   -0.68534E-04 36344   0.102E-01    0.180E-01
DAV:   8    -0.319538739878E+03    0.93932E-05   -0.21556E-04 34760   0.578E-02    0.105E-01
DAV:   9    -0.319538733077E+03    0.68017E-05   -0.74712E-05 30960   0.331E-02
  12 F= -.31953873E+03 E0= -.31953329E+03  d E =-.310720E-01  mag=    44.0000
       N       E                     dE             d eps       ncg     rms          rms(c)
DAV:   1    -0.319471115234E+03    0.67625E-01   -0.21636E+01 35232   0.137E+01    0.146E+00
DAV:   2    -0.319590648689E+03   -0.11953E+00   -0.12149E+00 33464   0.262E+00    0.194E+00
DAV:   3    -0.319591774975E+03   -0.11263E-02   -0.68450E-02 36832   0.915E-01    0.142E+00
DAV:   4    -0.319589232623E+03    0.25424E-02   -0.11091E-02 35304   0.392E-01    0.443E-01
DAV:   5    -0.319589034809E+03    0.19781E-03   -0.31099E-03 36664   0.201E-01    0.508E-01
DAV:   6    -0.319588626836E+03    0.40797E-03   -0.37932E-03 36576   0.201E-01    0.435E-01
DAV:   7    -0.319588451503E+03    0.17533E-03   -0.16704E-03 37288   0.149E-01    0.243E-01
DAV:   8    -0.319588465528E+03   -0.14025E-04   -0.45412E-04 34576   0.811E-02    0.166E-01
DAV:   9    -0.319588448904E+03    0.16624E-04   -0.14885E-04 33392   0.480E-02    0.793E-02
DAV:  10    -0.319588449346E+03   -0.44199E-06   -0.52048E-05 24608   0.272E-02
  13 F= -.31958845E+03 E0= -.31958303E+03  d E =-.497163E-01  mag=    44.0000
       N       E                     dE             d eps       ncg     rms          rms(c)
DAV:   1    -0.315187715246E+03    0.44007E+01   -0.23612E+02 39672   0.669E+01    0.987E+00
DAV:   2    -0.318997560785E+03   -0.38098E+01   -0.37367E+01 35192   0.129E+01    0.126E+01
DAV:   3    -0.319093542685E+03   -0.95982E-01   -0.19650E+00 35168   0.507E+00    0.656E+00
DAV:   4    -0.319081781228E+03    0.11761E-01   -0.27287E-01 34752   0.222E+00    0.404E+00
DAV:   5    -0.319073356250E+03    0.84250E-02   -0.11650E-01 37320   0.129E+00    0.381E+00
DAV:   6    -0.319059224731E+03    0.14132E-01   -0.11835E-01 36568   0.127E+00    0.254E+00
DAV:   7    -0.319057834949E+03    0.13898E-02   -0.98357E-02 35872   0.109E+00    0.223E+00
DAV:   8    -0.319053837672E+03    0.39973E-02   -0.45263E-02 35616   0.718E-01    0.100E+00
DAV:   9    -0.319053451346E+03    0.38633E-03   -0.83197E-03 34512   0.343E-01    0.552E-01
DAV:  10    -0.319053221293E+03    0.23005E-03   -0.18631E-03 34496   0.171E-01    0.246E-01
DAV:  11    -0.319053158767E+03    0.62526E-04   -0.59313E-04 36896   0.107E-01    0.196E-01
DAV:  12    -0.319053087399E+03    0.71368E-04   -0.27760E-04 34968   0.691E-02    0.117E-01
DAV:  13    -0.319053054544E+03    0.32855E-04   -0.16912E-04 34920   0.519E-02    0.806E-02
DAV:  14    -0.319053031152E+03    0.23391E-04   -0.77369E-05 30704   0.317E-02    0.432E-02
DAV:  15    -0.319053018362E+03    0.12791E-04   -0.35030E-05 23712   0.215E-02    0.386E-02
DAV:  16    -0.319053009661E+03    0.87004E-05   -0.18553E-05 21688   0.150E-02
  14 F= -.31905301E+03 E0= -.31904792E+03  d E =0.535440E+00  mag=    44.0000
       N       E                     dE             d eps       ncg     rms          rms(c)
DAV:   1    -0.317837018442E+03    0.12160E+01   -0.75338E+01 43272   0.389E+01    0.806E+00
DAV:   2    -0.319685857129E+03   -0.18488E+01   -0.17912E+01 35128   0.816E+00    0.114E+01
DAV:   3    -0.319684538681E+03    0.13184E-02   -0.12422E+00 34768   0.417E+00    0.632E+00
DAV:   4    -0.319678081767E+03    0.64569E-02   -0.18908E-01 35512   0.148E+00    0.377E+00
DAV:   5    -0.319674132913E+03    0.39489E-02   -0.11084E-01 37272   0.101E+00    0.318E+00
DAV:   6    -0.319665708808E+03    0.84241E-02   -0.71077E-02 35512   0.964E-01    0.247E+00
DAV:   7    -0.319664515567E+03    0.11932E-02   -0.74358E-02 37104   0.103E+00    0.216E+00
DAV:   8    -0.319659787620E+03    0.47279E-02   -0.31433E-02 35776   0.674E-01    0.819E-01
DAV:   9    -0.319659510884E+03    0.27674E-03   -0.47504E-03 34784   0.287E-01    0.383E-01
DAV:  10    -0.319659341366E+03    0.16952E-03   -0.10400E-03 34280   0.137E-01    0.122E-01
DAV:  11    -0.319659308493E+03    0.32873E-04   -0.23962E-04 35152   0.708E-02    0.107E-01
DAV:  12    -0.319659275902E+03    0.32591E-04   -0.11664E-04 33072   0.473E-02    0.801E-02
DAV:  13    -0.319659254499E+03    0.21404E-04   -0.94964E-05 30936   0.346E-02    0.665E-02
DAV:  14    -0.319659240194E+03    0.14305E-04   -0.39437E-05 25200   0.227E-02    0.273E-02
DAV:  15    -0.319659230685E+03    0.95085E-05   -0.10921E-05 20720   0.140E-02
  15 F= -.31965923E+03 E0= -.31965406E+03  d E =-.606221E+00  mag=    44.0000
       N       E                     dE             d eps       ncg     rms          rms(c)
DAV:   1    -0.319640381850E+03    0.18858E-01   -0.19594E+00 44872   0.737E+00    0.101E+00
DAV:   2    -0.319682567357E+03   -0.42186E-01   -0.41169E-01 34120   0.125E+00    0.714E-01
DAV:   3    -0.319685713992E+03   -0.31466E-02   -0.22494E-02 33312   0.460E-01    0.974E-01
DAV:   4    -0.319684673672E+03    0.10403E-02   -0.57855E-03 35624   0.248E-01    0.302E-01
DAV:   5    -0.319684633761E+03    0.39911E-04   -0.63113E-04 35480   0.101E-01    0.264E-01
DAV:   6    -0.319684506880E+03    0.12688E-03   -0.89416E-04 36176   0.117E-01    0.238E-01
DAV:   7    -0.319684459329E+03    0.47551E-04   -0.61462E-04 34696   0.995E-02    0.180E-01
DAV:   8    -0.319684429978E+03    0.29352E-04   -0.23133E-04 33832   0.616E-02    0.610E-02
DAV:   9    -0.319684428079E+03    0.18983E-05   -0.57853E-05 28264   0.277E-02
  16 F= -.31968443E+03 E0= -.31967923E+03  d E =-.251974E-01  mag=    44.0000
       N       E                     dE             d eps       ncg     rms          rms(c)
DAV:   1    -0.319661609348E+03    0.22821E-01   -0.20593E+00 42112   0.681E+00    0.937E-01
DAV:   2    -0.319698134849E+03   -0.36526E-01   -0.35353E-01 33872   0.119E+00    0.573E-01
DAV:   3    -0.319700329107E+03   -0.21943E-02   -0.14058E-02 33160   0.354E-01    0.609E-01
DAV:   4    -0.319699980524E+03    0.34858E-03   -0.30210E-03 36848   0.183E-01    0.281E-01
DAV:   5    -0.319699895550E+03    0.84974E-04   -0.75769E-04 36704   0.984E-02    0.256E-01
DAV:   6    -0.319699847103E+03    0.48446E-04   -0.11329E-03 37320   0.118E-01    0.264E-01
DAV:   7    -0.319699792452E+03    0.54652E-04   -0.61421E-04 34072   0.942E-02    0.174E-01
DAV:   8    -0.319699770690E+03    0.21761E-04   -0.15479E-04 34296   0.532E-02    0.567E-02
DAV:   9    -0.319699769702E+03    0.98824E-06   -0.39929E-05 26272   0.247E-02
  17 F= -.31969977E+03 E0= -.31969456E+03  d E =-.153416E-01  mag=    44.0000
       N       E                     dE             d eps       ncg     rms          rms(c)
DAV:   1    -0.319697200376E+03    0.25703E-02   -0.13780E+00 37144   0.423E+00    0.507E-01
DAV:   2    -0.319709889774E+03   -0.12689E-01   -0.12429E-01 33800   0.786E-01    0.372E-01
DAV:   3    -0.319710349281E+03   -0.45951E-03   -0.42470E-03 33536   0.228E-01    0.399E-01
DAV:   4    -0.319710204792E+03    0.14449E-03   -0.90570E-04 35992   0.115E-01    0.178E-01
DAV:   5    -0.319710194803E+03    0.99888E-05   -0.33246E-04 34264   0.648E-02    0.188E-01
DAV:   6    -0.319710147230E+03    0.47573E-04   -0.34354E-04 34368   0.718E-02    0.125E-01
DAV:   7    -0.319710147907E+03   -0.67670E-06   -0.20942E-04 34104   0.556E-02    0.100E-01
DAV:   8    -0.319710138138E+03    0.97684E-05   -0.65052E-05 26984   0.329E-02
  18 F= -.31971014E+03 E0= -.31970495E+03  d E =-.103684E-01  mag=    44.0000
       N       E                     dE             d eps       ncg     rms          rms(c)
DAV:   1    -0.319691263230E+03    0.18885E-01   -0.82246E+00 35656   0.817E+00    0.820E-01
DAV:   2    -0.319731694752E+03   -0.40432E-01   -0.40609E-01 33296   0.148E+00    0.655E-01
DAV:   3    -0.319732538006E+03   -0.84325E-03   -0.12109E-02 35728   0.380E-01    0.740E-01
DAV:   4    -0.319731915891E+03    0.62212E-03   -0.36775E-03 36024   0.211E-01    0.302E-01
DAV:   5    -0.319731880548E+03    0.35342E-04   -0.12931E-03 36704   0.125E-01    0.327E-01
DAV:   6    -0.319731718507E+03    0.16204E-03   -0.11865E-03 35152   0.130E-01    0.220E-01
DAV:   7    -0.319731721265E+03   -0.27572E-05   -0.56205E-04 37496   0.927E-02    0.172E-01
DAV:   8    -0.319731699633E+03    0.21631E-04   -0.18025E-04 32712   0.534E-02    0.637E-02
DAV:   9    -0.319731700097E+03   -0.46329E-06   -0.43331E-05 25168   0.270E-02
  19 F= -.31973170E+03 E0= -.31972656E+03  d E =-.215620E-01  mag=    44.0000
       N       E                     dE             d eps       ncg     rms          rms(c)
DAV:   1    -0.319493477539E+03    0.23822E+00   -0.65659E+01 35280   0.222E+01    0.190E+00
DAV:   2    -0.319775103015E+03   -0.28163E+00   -0.28411E+00 33048   0.398E+00    0.143E+00
DAV:   3    -0.319778636370E+03   -0.35334E-02   -0.59227E-02 36256   0.863E-01    0.157E+00
DAV:   4    -0.319775557803E+03    0.30786E-02   -0.15404E-02 37560   0.459E-01    0.627E-01
DAV:   5    -0.319774736662E+03    0.82114E-03   -0.39440E-03 34552   0.255E-01    0.595E-01
DAV:   6    -0.319774027952E+03    0.70871E-03   -0.42000E-03 35856   0.257E-01    0.398E-01
DAV:   7    -0.319773984265E+03    0.43687E-04   -0.17367E-03 34616   0.162E-01    0.240E-01
DAV:   8    -0.319773991049E+03   -0.67836E-05   -0.61541E-04 36088   0.982E-02    0.153E-01
DAV:   9    -0.319773991235E+03   -0.18618E-06   -0.18345E-04 33000   0.501E-02    0.974E-02
DAV:  10    -0.319773985001E+03    0.62334E-05   -0.87404E-05 25872   0.343E-02
  20 F= -.31977399E+03 E0= -.31976901E+03  d E =-.422849E-01  mag=    44.0000
       N       E                     dE             d eps       ncg     rms          rms(c)
DAV:   1    -0.315256134287E+03    0.45179E+01   -0.23357E+02 39904   0.596E+01    0.103E+01
DAV:   2    -0.319427729580E+03   -0.41716E+01   -0.38125E+01 34832   0.129E+01    0.190E+01
DAV:   3    -0.319206435723E+03    0.22129E+00   -0.32159E+00 34520   0.670E+00    0.470E+00
DAV:   4    -0.319251903248E+03   -0.45468E-01   -0.23169E-01 34576   0.161E+00    0.293E+00
DAV:   5    -0.319245232865E+03    0.66704E-02   -0.65229E-02 36120   0.950E-01    0.232E+00
DAV:   6    -0.319235138887E+03    0.10094E-01   -0.30535E-02 34824   0.689E-01    0.145E+00
DAV:   7    -0.319233529728E+03    0.16092E-02   -0.36648E-02 34776   0.721E-01    0.153E+00
DAV:   8    -0.319231148040E+03    0.23817E-02   -0.21405E-02 35528   0.560E-01    0.679E-01
DAV:   9    -0.319230712352E+03    0.43569E-03   -0.49752E-03 37544   0.284E-01    0.365E-01
DAV:  10    -0.319230668839E+03    0.43513E-04   -0.18276E-03 35032   0.141E-01    0.240E-01
DAV:  11    -0.319230597891E+03    0.70948E-04   -0.50446E-04 34896   0.881E-02    0.116E-01
DAV:  12    -0.319230569775E+03    0.28116E-04   -0.18823E-04 33144   0.511E-02    0.122E-01
DAV:  13    -0.319230526808E+03    0.42967E-04   -0.11695E-04 33064   0.436E-02    0.515E-02
DAV:  14    -0.319230505961E+03    0.20847E-04   -0.37515E-05 26704   0.247E-02    0.375E-02
DAV:  15    -0.319230494301E+03    0.11661E-04   -0.19118E-05 23352   0.181E-02    0.229E-02
DAV:  16    -0.319230487744E+03    0.65565E-05   -0.99522E-06 19864   0.106E-02
  21 F= -.31923049E+03 E0= -.31922580E+03  d E =0.543497E+00  mag=    44.0000
       N       E                     dE             d eps       ncg     rms          rms(c)
DAV:   1    -0.318340851392E+03    0.88964E+00   -0.57347E+01 45432   0.356E+01    0.609E+00
DAV:   2    -0.319693940312E+03   -0.13531E+01   -0.12857E+01 35168   0.670E+00    0.799E+00
DAV:   3    -0.319731539654E+03   -0.37599E-01   -0.95636E-01 35312   0.329E+00    0.408E+00
DAV:   4    -0.319725028544E+03    0.65111E-02   -0.11256E-01 35216   0.131E+00    0.152E+00
DAV:   5    -0.319723624785E+03    0.14038E-02   -0.28677E-02 35824   0.564E-01    0.146E+00
DAV:   6    -0.319719287497E+03    0.43373E-02   -0.15661E-02 35240   0.497E-01    0.933E-01
DAV:   7    -0.319718416054E+03    0.87144E-03   -0.12443E-02 35480   0.429E-01    0.795E-01
DAV:   8    -0.319717546060E+03    0.86999E-03   -0.63070E-03 36576   0.317E-01    0.300E-01
DAV:   9    -0.319717570690E+03   -0.24631E-04   -0.12934E-03 35584   0.139E-01    0.262E-01
DAV:  10    -0.319717482801E+03    0.87889E-04   -0.41938E-04 34736   0.826E-02    0.100E-01
DAV:  11    -0.319717458482E+03    0.24319E-04   -0.14836E-04 32160   0.496E-02    0.788E-02
DAV:  12    -0.319717440179E+03    0.18303E-04   -0.99939E-05 31768   0.359E-02    0.762E-02
DAV:  13    -0.319717420933E+03    0.19246E-04   -0.46841E-05 25408   0.271E-02    0.360E-02
DAV:  14    -0.319717413292E+03    0.76413E-05   -0.20048E-05 21944   0.162E-02
  22 F= -.31971741E+03 E0= -.31971260E+03  d E =-.486926E+00  mag=    44.0000
       N       E                     dE             d eps       ncg     rms          rms(c)
DAV:   1    -0.319463338638E+03    0.25408E+00   -0.17044E+01 42584   0.176E+01    0.289E+00
DAV:   2    -0.319783622330E+03   -0.32028E+00   -0.30781E+00 34528   0.300E+00    0.228E+00
DAV:   3    -0.319806066365E+03   -0.22444E-01   -0.16290E-01 34464   0.116E+00    0.200E+00
DAV:   4    -0.319801868844E+03    0.41975E-02   -0.48874E-02 35416   0.715E-01    0.105E+00
DAV:   5    -0.319800914345E+03    0.95450E-03   -0.80976E-03 35792   0.325E-01    0.847E-01
DAV:   6    -0.319799752433E+03    0.11619E-02   -0.51449E-03 35104   0.294E-01    0.489E-01
DAV:   7    -0.319799692022E+03    0.60410E-04   -0.32429E-03 34888   0.225E-01    0.467E-01
DAV:   8    -0.319799459566E+03    0.23246E-03   -0.16091E-03 37448   0.161E-01    0.188E-01
DAV:   9    -0.319799467571E+03   -0.80055E-05   -0.38720E-04 34784   0.785E-02    0.136E-01
DAV:  10    -0.319799436915E+03    0.30656E-04   -0.12485E-04 32392   0.454E-02    0.601E-02
DAV:  11    -0.319799431094E+03    0.58205E-05   -0.32923E-05 25544   0.239E-02
  23 F= -.31979943E+03 E0= -.31979454E+03  d E =-.820178E-01  mag=    44.0000
       N       E                     dE             d eps       ncg     rms          rms(c)
DAV:   1    -0.319800947950E+03   -0.15110E-02   -0.10824E+00 37912   0.368E+00    0.470E-01
DAV:   2    -0.319810308702E+03   -0.93608E-02   -0.92310E-02 34528   0.683E-01    0.353E-01
DAV:   3    -0.319810650035E+03   -0.34133E-03   -0.32080E-03 34952   0.207E-01    0.383E-01
DAV:   4    -0.319810515285E+03    0.13475E-03   -0.53570E-04 37000   0.989E-02    0.165E-01
DAV:   5    -0.319810498461E+03    0.16824E-04   -0.35676E-04 33984   0.656E-02    0.199E-01
DAV:   6    -0.319810481554E+03    0.16907E-04   -0.66367E-04 37032   0.802E-02    0.158E-01
DAV:   7    -0.319810462117E+03    0.19437E-04   -0.26089E-04 32376   0.511E-02    0.703E-02
DAV:   8    -0.319810458861E+03    0.32563E-05   -0.39490E-05 24632   0.277E-02
  24 F= -.31981046E+03 E0= -.31980556E+03  d E =-.110278E-01  mag=    44.0000
       N       E                     dE             d eps       ncg     rms          rms(c)
DAV:   1    -0.319793174948E+03    0.17287E-01   -0.60210E+00 36632   0.758E+00    0.874E-01
DAV:   2    -0.319831724925E+03   -0.38550E-01   -0.38857E-01 34544   0.141E+00    0.732E-01
DAV:   3    -0.319832873566E+03   -0.11486E-02   -0.16245E-02 37624   0.424E-01    0.825E-01
DAV:   4    -0.319832093411E+03    0.78016E-03   -0.45179E-03 36656   0.224E-01    0.332E-01
DAV:   5    -0.319832045084E+03    0.48327E-04   -0.17988E-03 37008   0.144E-01    0.399E-01
DAV:   6    -0.319831752869E+03    0.29221E-03   -0.16955E-03 36280   0.149E-01    0.205E-01
DAV:   7    -0.319831795570E+03   -0.42701E-04   -0.63695E-04 38136   0.912E-02    0.205E-01
DAV:   8    -0.319831746674E+03    0.48896E-04   -0.25499E-04 35584   0.594E-02    0.570E-02
DAV:   9    -0.319831747233E+03   -0.55874E-06   -0.37337E-05 24352   0.260E-02
  25 F= -.31983175E+03 E0= -.31982686E+03  d E =-.212884E-01  mag=    44.0000
       N       E                     dE             d eps       ncg     rms          rms(c)
DAV:   1    -0.319830875706E+03    0.87097E-03   -0.16334E+00 35088   0.364E+00    0.390E-01
DAV:   2    -0.319839485222E+03   -0.86095E-02   -0.87373E-02 34248   0.674E-01    0.336E-01
DAV:   3    -0.319839695859E+03   -0.21064E-03   -0.36189E-03 38168   0.191E-01    0.385E-01
DAV:   4    -0.319839510912E+03    0.18495E-03   -0.11686E-03 35376   0.106E-01    0.151E-01
DAV:   5    -0.319839493467E+03    0.17446E-04   -0.22943E-04 34960   0.581E-02    0.136E-01
DAV:   6    -0.319839456628E+03    0.36839E-04   -0.21185E-04 35256   0.611E-02    0.103E-01
DAV:   7    -0.319839461972E+03   -0.53443E-05   -0.14739E-04 34368   0.419E-02    0.992E-02
DAV:   8    -0.319839450916E+03    0.11056E-04   -0.50914E-05 25344   0.276E-02    0.211E-02
DAV:   9    -0.319839451870E+03   -0.95405E-06   -0.93625E-06 18976   0.107E-02
  26 F= -.31983945E+03 E0= -.31983458E+03  d E =-.770464E-02  mag=    44.0000
       N       E                     dE             d eps       ncg     rms          rms(c)
DAV:   1    -0.319725359128E+03    0.11409E+00   -0.28311E+01 35352   0.152E+01    0.137E+00
DAV:   2    -0.319860049089E+03   -0.13469E+00   -0.13646E+00 33552   0.275E+00    0.105E+00
DAV:   3    -0.319862713070E+03   -0.26640E-02   -0.40282E-02 37808   0.641E-01    0.127E+00
DAV:   4    -0.319860644346E+03    0.20687E-02   -0.12264E-02 36568   0.351E-01    0.461E-01
DAV:   5    -0.319860235740E+03    0.40861E-03   -0.21051E-03 35352   0.186E-01    0.382E-01
DAV:   6    -0.319859872026E+03    0.36371E-03   -0.23785E-03 36440   0.200E-01    0.264E-01
DAV:   7    -0.319859869745E+03    0.22811E-05   -0.84511E-04 37200   0.107E-01    0.150E-01
DAV:   8    -0.319859868238E+03    0.15068E-05   -0.29816E-04 35736   0.609E-02    0.998E-02
DAV:   9    -0.319859861848E+03    0.63899E-05   -0.59783E-05 27760   0.295E-02
  27 F= -.31985986E+03 E0= -.31985506E+03  d E =-.204100E-01  mag=    44.0000
       N       E                     dE             d eps       ncg     rms          rms(c)
DAV:   1    -0.315716811922E+03    0.41431E+01   -0.28068E+02 38464   0.626E+01    0.906E+00
DAV:   2    -0.319501157152E+03   -0.37843E+01   -0.36696E+01 35544   0.126E+01    0.145E+01
DAV:   3    -0.319427067387E+03    0.74090E-01   -0.23353E+00 35608   0.542E+00    0.493E+00
DAV:   4    -0.319445960716E+03   -0.18893E-01   -0.39640E-01 36320   0.211E+00    0.431E+00
DAV:   5    -0.319424178960E+03    0.21782E-01   -0.13994E-01 36168   0.129E+00    0.238E+00
DAV:   6    -0.319410050923E+03    0.14128E-01   -0.38500E-02 36096   0.774E-01    0.141E+00
DAV:   7    -0.319407323734E+03    0.27272E-02   -0.39400E-02 37904   0.728E-01    0.159E+00
DAV:   8    -0.319404466342E+03    0.28574E-02   -0.24422E-02 37680   0.526E-01    0.814E-01
DAV:   9    -0.319404099921E+03    0.36642E-03   -0.63656E-03 37360   0.311E-01    0.439E-01
DAV:  10    -0.319403934360E+03    0.16556E-03   -0.14990E-03 34752   0.148E-01    0.231E-01
DAV:  11    -0.319403797086E+03    0.13727E-03   -0.58230E-04 36720   0.102E-01    0.123E-01
DAV:  12    -0.319403722480E+03    0.74607E-04   -0.29532E-04 34392   0.678E-02    0.128E-01
DAV:  13    -0.319403653968E+03    0.68512E-04   -0.13838E-04 32840   0.499E-02    0.705E-02
DAV:  14    -0.319403624729E+03    0.29239E-04   -0.55779E-05 29000   0.287E-02    0.486E-02
DAV:  15    -0.319403600584E+03    0.24145E-04   -0.28101E-05 24032   0.193E-02    0.265E-02
DAV:  16    -0.319403585829E+03    0.14755E-04   -0.15771E-05 22144   0.132E-02    0.266E-02
DAV:  17    -0.319403575647E+03    0.10182E-04   -0.94404E-06 20112   0.103E-02    0.197E-02
DAV:  18    -0.319403569149E+03    0.64979E-05   -0.71279E-06 20352   0.832E-03
  28 F= -.31940357E+03 E0= -.31939871E+03  d E =0.456293E+00  mag=    44.0000
       N       E                     dE             d eps       ncg     rms          rms(c)
DAV:   1    -0.316162685580E+03    0.32409E+01   -0.15693E+02 42552   0.541E+01    0.112E+01
DAV:   2    -0.319980419065E+03   -0.38177E+01   -0.34816E+01 35328   0.121E+01    0.203E+01
DAV:   3    -0.319723986756E+03    0.25643E+00   -0.38164E+00 35048   0.721E+00    0.688E+00
DAV:   4    -0.319744303483E+03   -0.20317E-01   -0.23378E-01 35640   0.165E+00    0.369E+00
DAV:   5    -0.319736698971E+03    0.76045E-02   -0.64323E-02 36120   0.954E-01    0.327E+00
DAV:   6    -0.319726887514E+03    0.98115E-02   -0.81036E-02 35640   0.987E-01    0.275E+00
DAV:   7    -0.319723078256E+03    0.38093E-02   -0.85874E-02 35664   0.103E+00    0.256E+00
DAV:   8    -0.319717382293E+03    0.56960E-02   -0.46759E-02 35576   0.791E-01    0.107E+00
DAV:   9    -0.319716100229E+03    0.12821E-02   -0.85461E-03 38088   0.389E-01    0.363E-01
DAV:  10    -0.319716118963E+03   -0.18734E-04   -0.17168E-03 35696   0.164E-01    0.276E-01
DAV:  11    -0.319716009409E+03    0.10955E-03   -0.53722E-04 35568   0.922E-02    0.149E-01
DAV:  12    -0.319715918466E+03    0.90943E-04   -0.27768E-04 33864   0.668E-02    0.130E-01
DAV:  13    -0.319715830646E+03    0.87820E-04   -0.23415E-04 33200   0.568E-02    0.851E-02
DAV:  14    -0.319715787069E+03    0.43577E-04   -0.82140E-05 32072   0.329E-02    0.644E-02
DAV:  15    -0.319715757649E+03    0.29420E-04   -0.36664E-05 24720   0.233E-02    0.311E-02
DAV:  16    -0.319715740421E+03    0.17228E-04   -0.14926E-05 22416   0.134E-02    0.275E-02
DAV:  17    -0.319715729363E+03    0.11058E-04   -0.10666E-05 21304   0.122E-02    0.209E-02
DAV:  18    -0.319715720656E+03    0.87063E-05   -0.84379E-06 19832   0.904E-03
  29 F= -.31971572E+03 E0= -.31971121E+03  d E =-.312152E+00  mag=    44.0000
       N       E                     dE             d eps       ncg     rms          rms(c)
DAV:   1    -0.319658497609E+03    0.57232E-01   -0.81639E+00 42592   0.118E+01    0.183E+00
DAV:   2    -0.319790710584E+03   -0.13221E+00   -0.12882E+00 34640   0.198E+00    0.121E+00
DAV:   3    -0.319800743706E+03   -0.10033E-01   -0.67617E-02 34480   0.739E-01    0.134E+00
DAV:   4    -0.319798333487E+03    0.24102E-02   -0.17699E-02 36592   0.430E-01    0.512E-01
DAV:   5    -0.319797877448E+03    0.45604E-03   -0.21309E-03 36264   0.177E-01    0.410E-01
DAV:   6    -0.319797566197E+03    0.31125E-03   -0.24978E-03 37160   0.203E-01    0.364E-01
DAV:   7    -0.319797428951E+03    0.13725E-03   -0.11723E-03 35720   0.138E-01    0.200E-01
DAV:   8    -0.319797396424E+03    0.32527E-04   -0.37342E-04 34728   0.848E-02    0.885E-02
DAV:   9    -0.319797383750E+03    0.12674E-04   -0.80426E-05 32088   0.383E-02    0.630E-02
DAV:  10    -0.319797376901E+03    0.68493E-05   -0.30354E-05 25656   0.237E-02
  30 F= -.31979738E+03 E0= -.31979277E+03  d E =-.816562E-01  mag=    44.0000
       N       E                     dE             d eps       ncg     rms          rms(c)
DAV:   1    -0.319762990214E+03    0.34394E-01   -0.94732E+00 37688   0.977E+00    0.143E+00
DAV:   2    -0.319843824807E+03   -0.80835E-01   -0.79258E-01 35224   0.181E+00    0.111E+00
DAV:   3    -0.319847431660E+03   -0.36069E-02   -0.31820E-02 35280   0.646E-01    0.125E+00
DAV:   4    -0.319845922031E+03    0.15096E-02   -0.54968E-03 36584   0.306E-01    0.515E-01
DAV:   5    -0.319845807301E+03    0.11473E-03   -0.37250E-03 35312   0.208E-01    0.646E-01
DAV:   6    -0.319845445656E+03    0.36164E-03   -0.59123E-03 35696   0.241E-01    0.408E-01
DAV:   7    -0.319845345757E+03    0.99899E-04   -0.18685E-03 35624   0.137E-01    0.185E-01
DAV:   8    -0.319845317352E+03    0.28405E-04   -0.30805E-04 33208   0.768E-02    0.779E-02
DAV:   9    -0.319845307361E+03    0.99902E-05   -0.57822E-05 29152   0.315E-02
  31 F= -.31984531E+03 E0= -.31984065E+03  d E =-.479305E-01  mag=    44.0000
       N       E                     dE             d eps       ncg     rms          rms(c)
DAV:   1    -0.319831567576E+03    0.13750E-01   -0.13111E+01 34512   0.854E+00    0.123E+00
DAV:   2    -0.319882011488E+03   -0.50444E-01   -0.50888E-01 34976   0.160E+00    0.128E+00
DAV:   3    -0.319881674834E+03    0.33665E-03   -0.29718E-02 37888   0.628E-01    0.109E+00
DAV:   4    -0.319880319598E+03    0.13552E-02   -0.80801E-03 35848   0.297E-01    0.594E-01
DAV:   5    -0.319880154079E+03    0.16552E-03   -0.46835E-03 38456   0.233E-01    0.548E-01
DAV:   6    -0.319879744503E+03    0.40958E-03   -0.27713E-03 35864   0.184E-01    0.262E-01
DAV:   7    -0.319879805311E+03   -0.60808E-04   -0.10341E-03 37904   0.111E-01    0.186E-01
DAV:   8    -0.319879767803E+03    0.37508E-04   -0.33002E-04 34616   0.674E-02    0.849E-02
DAV:   9    -0.319879760618E+03    0.71852E-05   -0.49647E-05 25768   0.298E-02
  32 F= -.31987976E+03 E0= -.31987508E+03  d E =-.344533E-01  mag=    44.0000
       N       E                     dE             d eps       ncg     rms          rms(c)
DAV:   1    -0.319849811338E+03    0.29956E-01   -0.57917E+00 36928   0.739E+00    0.958E-01
DAV:   2    -0.319894117245E+03   -0.44306E-01   -0.44031E-01 35112   0.138E+00    0.893E-01
DAV:   3    -0.319896037095E+03   -0.19198E-02   -0.26301E-02 36448   0.490E-01    0.102E+00
DAV:   4    -0.319894704969E+03    0.13321E-02   -0.75160E-03 35720   0.270E-01    0.289E-01
DAV:   5    -0.319894578772E+03    0.12620E-03   -0.81614E-04 37096   0.114E-01    0.277E-01
DAV:   6    -0.319894366730E+03    0.21204E-03   -0.10004E-03 36344   0.124E-01    0.201E-01
DAV:   7    -0.319894365031E+03    0.16990E-05   -0.55380E-04 37912   0.865E-02    0.176E-01
DAV:   8    -0.319894327929E+03    0.37102E-04   -0.22721E-04 36088   0.573E-02    0.496E-02
DAV:   9    -0.319894329990E+03   -0.20611E-05   -0.34173E-05 24944   0.234E-02
  33 F= -.31989433E+03 E0= -.31988966E+03  d E =-.145694E-01  mag=    44.0000
       N       E                     dE             d eps       ncg     rms          rms(c)
DAV:   1    -0.319892346645E+03    0.19813E-02   -0.75136E-01 36712   0.287E+00    0.300E-01
DAV:   2    -0.319897298970E+03   -0.49523E-02   -0.50486E-02 34480   0.528E-01    0.243E-01
DAV:   3    -0.319897501230E+03   -0.20226E-03   -0.24028E-03 36736   0.156E-01    0.302E-01
DAV:   4    -0.319897382616E+03    0.11861E-03   -0.69661E-04 35240   0.842E-02    0.947E-02
DAV:   5    -0.319897372812E+03    0.98049E-05   -0.93437E-05 33072   0.400E-02
  34 F= -.31989737E+03 E0= -.31989269E+03  d E =-.304282E-02  mag=    44.0000
       N       E                     dE             d eps       ncg     rms          rms(c)
DAV:   1    -0.319824248305E+03    0.73134E-01   -0.15021E+01 35584   0.117E+01    0.108E+00
DAV:   2    -0.319904503090E+03   -0.80255E-01   -0.81883E-01 33648   0.216E+00    0.101E+00
DAV:   3    -0.319906430188E+03   -0.19271E-02   -0.35439E-02 36320   0.596E-01    0.115E+00
DAV:   4    -0.319904741322E+03    0.16889E-02   -0.98299E-03 35552   0.316E-01    0.348E-01
DAV:   5    -0.319904661555E+03    0.79766E-04   -0.14660E-03 35576   0.154E-01    0.381E-01
DAV:   6    -0.319904388399E+03    0.27316E-03   -0.14367E-03 36056   0.151E-01    0.230E-01
DAV:   7    -0.319904416904E+03   -0.28505E-04   -0.81729E-04 37352   0.110E-01    0.210E-01
DAV:   8    -0.319904379847E+03    0.37057E-04   -0.27752E-04 35368   0.666E-02    0.639E-02
DAV:   9    -0.319904383600E+03   -0.37528E-05   -0.51460E-05 26472   0.288E-02
  35 F= -.31990438E+03 E0= -.31989972E+03  d E =-.701079E-02  mag=    44.0000
       N       E                     dE             d eps       ncg     rms          rms(c)
DAV:   1    -0.319389105440E+03    0.51527E+00   -0.97922E+01 35176   0.297E+01    0.258E+00
DAV:   2    -0.319894951157E+03   -0.50585E+00   -0.50779E+00 32856   0.541E+00    0.173E+00
DAV:   3    -0.319903719134E+03   -0.87680E-02   -0.10908E-01 34992   0.112E+00    0.187E+00
DAV:   4    -0.319899746409E+03    0.39727E-02   -0.24921E-02 37424   0.565E-01    0.715E-01
DAV:   5    -0.319898361432E+03    0.13850E-02   -0.50488E-03 34744   0.278E-01    0.615E-01
DAV:   6    -0.319897454532E+03    0.90690E-03   -0.47523E-03 35480   0.283E-01    0.495E-01
DAV:   7    -0.319897259760E+03    0.19477E-03   -0.31878E-03 34928   0.227E-01    0.376E-01
DAV:   8    -0.319897201768E+03    0.57993E-04   -0.11487E-03 36840   0.132E-01    0.120E-01
DAV:   9    -0.319897220509E+03   -0.18742E-04   -0.21826E-04 33952   0.560E-02    0.819E-02
DAV:  10    -0.319897215327E+03    0.51818E-05   -0.74409E-05 28688   0.340E-02
  36 F= -.31989722E+03 E0= -.31989266E+03  d E =0.716827E-02  mag=    44.0000
       N       E                     dE             d eps       ncg     rms          rms(c)
DAV:   1    -0.314897049894E+03    0.50002E+01   -0.17158E+02 43496   0.591E+01    0.115E+01
DAV:   2    -0.319163201804E+03   -0.42662E+01   -0.41021E+01 34928   0.122E+01    0.176E+01
DAV:   3    -0.319134375391E+03    0.28826E-01   -0.36654E+00 35416   0.630E+00    0.634E+00
DAV:   4    -0.319182388245E+03   -0.48013E-01   -0.62946E-01 35304   0.251E+00    0.568E+00
DAV:   5    -0.319158974440E+03    0.23414E-01   -0.29085E-01 36928   0.175E+00    0.416E+00
DAV:   6    -0.319142573420E+03    0.16401E-01   -0.12740E-01 35400   0.126E+00    0.246E+00
DAV:   7    -0.319141202151E+03    0.13713E-02   -0.82728E-02 36560   0.110E+00    0.217E+00
DAV:   8    -0.319135975231E+03    0.52269E-02   -0.29920E-02 36672   0.725E-01    0.692E-01
DAV:   9    -0.319136310677E+03   -0.33545E-03   -0.79069E-03 35160   0.310E-01    0.594E-01
DAV:  10    -0.319135937581E+03    0.37310E-03   -0.22647E-03 35136   0.183E-01    0.258E-01
DAV:  11    -0.319135834159E+03    0.10342E-03   -0.62583E-04 35272   0.106E-01    0.150E-01
DAV:  12    -0.319135771360E+03    0.62799E-04   -0.30768E-04 34144   0.735E-02    0.155E-01
DAV:  13    -0.319135691460E+03    0.79900E-04   -0.16314E-04 33104   0.519E-02    0.798E-02
DAV:  14    -0.319135650304E+03    0.41156E-04   -0.69711E-05 30880   0.343E-02    0.444E-02
DAV:  15    -0.319135622971E+03    0.27333E-04   -0.32142E-05 25992   0.200E-02    0.309E-02
DAV:  16    -0.319135605540E+03    0.17431E-04   -0.15396E-05 22520   0.142E-02    0.308E-02
DAV:  17    -0.319135589400E+03    0.16140E-04   -0.13325E-05 20872   0.120E-02    0.199E-02
DAV:  18    -0.319135580144E+03    0.92562E-05   -0.10621E-05 20416   0.101E-02
  37 F= -.31913558E+03 E0= -.31913087E+03  d E =0.761635E+00  mag=    44.0000
       N       E                     dE             d eps       ncg     rms          rms(c)
DAV:   1    -0.318696119004E+03    0.43947E+00   -0.53674E+01 41392   0.281E+01    0.684E+00
DAV:   2    -0.319866052444E+03   -0.11699E+01   -0.11299E+01 34616   0.645E+00    0.956E+00
DAV:   3    -0.319847145029E+03    0.18907E-01   -0.97253E-01 34880   0.347E+00    0.529E+00
DAV:   4    -0.319846008900E+03    0.11361E-02   -0.94994E-02 35456   0.107E+00    0.322E+00
DAV:   5    -0.319849407140E+03   -0.33982E-02   -0.12164E-01 37920   0.107E+00    0.346E+00
DAV:   6    -0.319838595955E+03    0.10811E-01   -0.16846E-01 36392   0.120E+00    0.223E+00
DAV:   7    -0.319836540259E+03    0.20557E-02   -0.61030E-02 37120   0.850E-01    0.155E+00
DAV:   8    -0.319834238356E+03    0.23019E-02   -0.16775E-02 35592   0.525E-01    0.558E-01
DAV:   9    -0.319834096114E+03    0.14224E-03   -0.21228E-03 34824   0.196E-01    0.317E-01
DAV:  10    -0.319833941423E+03    0.15469E-03   -0.59093E-04 35504   0.998E-02    0.970E-02
DAV:  11    -0.319833907088E+03    0.34335E-04   -0.14805E-04 34264   0.550E-02    0.995E-02
DAV:  12    -0.319833874155E+03    0.32933E-04   -0.10429E-04 33568   0.392E-02    0.740E-02
DAV:  13    -0.319833849044E+03    0.25110E-04   -0.49454E-05 27968   0.292E-02    0.401E-02
DAV:  14    -0.319833838253E+03    0.10791E-04   -0.21444E-05 24384   0.190E-02    0.249E-02
DAV:  15    -0.319833829028E+03    0.92255E-05   -0.10948E-05 20560   0.121E-02
  38 F= -.31983383E+03 E0= -.31982932E+03  d E =-.698249E+00  mag=    44.0000
       N       E                     dE             d eps       ncg     rms          rms(c)
DAV:   1    -0.319767642099E+03    0.66196E-01   -0.74208E+00 43536   0.119E+01    0.200E+00
DAV:   2    -0.319899455809E+03   -0.13181E+00   -0.12830E+00 34584   0.209E+00    0.182E+00
DAV:   3    -0.319908824824E+03   -0.93690E-02   -0.86877E-02 34456   0.101E+00    0.187E+00
DAV:   4    -0.319905724112E+03    0.31007E-02   -0.15495E-02 35088   0.474E-01    0.682E-01
DAV:   5    -0.319905491396E+03    0.23272E-03   -0.51358E-03 37352   0.235E-01    0.637E-01
DAV:   6    -0.319904655163E+03    0.83623E-03   -0.65231E-03 35264   0.253E-01    0.408E-01
DAV:   7    -0.319904591960E+03    0.63203E-04   -0.19912E-03 35752   0.169E-01    0.303E-01
DAV:   8    -0.319904486568E+03    0.10539E-03   -0.70923E-04 36056   0.106E-01    0.866E-02
DAV:   9    -0.319904479542E+03    0.70262E-05   -0.12087E-04 32808   0.450E-02    0.787E-02
DAV:  10    -0.319904463690E+03    0.15852E-04   -0.39040E-05 26376   0.277E-02    0.302E-02
DAV:  11    -0.319904455204E+03    0.84860E-05   -0.13968E-05 22096   0.157E-02
  39 F= -.31990446E+03 E0= -.31990003E+03  d E =-.706262E-01  mag=    44.0000
       N       E                     dE             d eps       ncg     rms          rms(c)
DAV:   1    -0.319874865482E+03    0.29598E-01   -0.19371E+00 43712   0.636E+00    0.969E-01
DAV:   2    -0.319909925387E+03   -0.35060E-01   -0.34409E-01 34576   0.108E+00    0.713E-01
DAV:   3    -0.319912970711E+03   -0.30453E-02   -0.22797E-02 34048   0.470E-01    0.930E-01
DAV:   4    -0.319911953241E+03    0.10175E-02   -0.51067E-03 35680   0.245E-01    0.237E-01
DAV:   5    -0.319911878256E+03    0.74985E-04   -0.55316E-04 35960   0.858E-02    0.205E-01
DAV:   6    -0.319911720066E+03    0.15819E-03   -0.67325E-04 35312   0.970E-02    0.166E-01
DAV:   7    -0.319911675427E+03    0.44639E-04   -0.29873E-04 34512   0.687E-02    0.112E-01
DAV:   8    -0.319911661388E+03    0.14039E-04   -0.12953E-04 34400   0.449E-02    0.443E-02
DAV:   9    -0.319911655671E+03    0.57177E-05   -0.30014E-05 25416   0.212E-02
  40 F= -.31991166E+03 E0= -.31990727E+03  d E =-.720047E-02  mag=    44.0000
       N       E                     dE             d eps       ncg     rms          rms(c)
DAV:   1    -0.319912163704E+03   -0.50232E-03   -0.30471E-01 37776   0.168E+00    0.205E-01
DAV:   2    -0.319914071506E+03   -0.19078E-02   -0.18841E-02 34776   0.306E-01    0.187E-01
DAV:   3    -0.319914128099E+03   -0.56593E-04   -0.95675E-04 35576   0.109E-01    0.184E-01
DAV:   4    -0.319914090173E+03    0.37926E-04   -0.22785E-04 33184   0.526E-02    0.784E-02
DAV:   5    -0.319914083886E+03    0.62866E-05   -0.78682E-05 30000   0.302E-02
  41 F= -.31991408E+03 E0= -.31990969E+03  d E =-.242822E-02  mag=    44.0000
       N       E                     dE             d eps       ncg     rms          rms(c)
DAV:   1    -0.319913802391E+03    0.28778E-03   -0.18256E+00 34112   0.311E+00    0.493E-01
DAV:   2    -0.319919573042E+03   -0.57707E-02   -0.58162E-02 34992   0.566E-01    0.540E-01
DAV:   3    -0.319919393110E+03    0.17993E-03   -0.37881E-03 37232   0.242E-01    0.373E-01
DAV:   4    -0.319919250016E+03    0.14309E-03   -0.72601E-04 34816   0.992E-02    0.220E-01
DAV:   5    -0.319919254119E+03   -0.41035E-05   -0.74055E-04 38704   0.930E-02    0.226E-01
DAV:   6    -0.319919210858E+03    0.43261E-04   -0.56936E-04 34344   0.783E-02    0.125E-01
DAV:   7    -0.319919208873E+03    0.19846E-05   -0.14026E-04 32568   0.467E-02    0.676E-02
DAV:   8    -0.319919205038E+03    0.38351E-05   -0.28653E-05 23208   0.234E-02
  42 F= -.31991921E+03 E0= -.31991480E+03  d E =-.512115E-02  mag=    44.0000
       N       E                     dE             d eps       ncg     rms          rms(c)
DAV:   1    -0.319918556388E+03    0.65249E-03   -0.45951E-01 34872   0.186E+00    0.261E-01
DAV:   2    -0.319920741950E+03   -0.21856E-02   -0.21963E-02 34600   0.351E-01    0.271E-01
DAV:   3    -0.319920754433E+03   -0.12483E-04   -0.11671E-03 36080   0.132E-01    0.220E-01
DAV:   4    -0.319920711154E+03    0.43278E-04   -0.15942E-04 33944   0.529E-02    0.106E-01
DAV:   5    -0.319920718558E+03   -0.74036E-05   -0.16650E-04 33208   0.465E-02    0.136E-01
DAV:   6    -0.319920699700E+03    0.18858E-04   -0.14722E-04 32808   0.438E-02    0.606E-02
DAV:   7    -0.319920701477E+03   -0.17765E-05   -0.38063E-05 25224   0.247E-02
  43 F= -.31992070E+03 E0= -.31991628E+03  d E =-.149644E-02  mag=    44.0000
       N       E                     dE             d eps       ncg     rms          rms(c)
DAV:   1    -0.319920112881E+03    0.58682E-03   -0.11737E-01 37032   0.123E+00    0.131E-01
DAV:   2    -0.319921087756E+03   -0.97488E-03   -0.97795E-03 34280   0.231E-01    0.128E-01
DAV:   3    -0.319921126703E+03   -0.38947E-04   -0.50727E-04 34048   0.751E-02    0.137E-01
DAV:   4    -0.319921105624E+03    0.21080E-04   -0.10717E-04 28624   0.361E-02    0.406E-02
DAV:   5    -0.319921104259E+03    0.13646E-05   -0.14484E-05 21560   0.151E-02
  44 F= -.31992110E+03 E0= -.31991669E+03  d E =-.402783E-03  mag=    44.0000
       N       E                     dE             d eps       ncg     rms          rms(c)
DAV:   1    -0.319916381071E+03    0.47246E-02   -0.88791E-01 34968   0.298E+00    0.275E-01
DAV:   2    -0.319921497474E+03   -0.51164E-02   -0.51366E-02 34120   0.552E-01    0.225E-01
DAV:   3    -0.319921627570E+03   -0.13010E-03   -0.15646E-03 35920   0.141E-01    0.247E-01
DAV:   4    -0.319921549757E+03    0.77813E-04   -0.34477E-04 34880   0.716E-02    0.786E-02
DAV:   5    -0.319921536319E+03    0.13437E-04   -0.63004E-05 30576   0.307E-02    0.738E-02
DAV:   6    -0.319921524523E+03    0.11796E-04   -0.92815E-05 32792   0.397E-02    0.658E-02
DAV:   7    -0.319921521648E+03    0.28748E-05   -0.38884E-05 25736   0.257E-02
  45 F= -.31992152E+03 E0= -.31991711E+03  d E =-.417389E-03  mag=    44.0000
       N       E                     dE             d eps       ncg     rms          rms(c)
DAV:   1    -0.319855198660E+03    0.66326E-01   -0.10484E+01 35600   0.108E+01    0.977E-01
DAV:   2    -0.319921093746E+03   -0.65895E-01   -0.65256E-01 32952   0.197E+00    0.648E-01
DAV:   3    -0.319922861285E+03   -0.17675E-02   -0.16171E-02 34584   0.417E-01    0.694E-01
DAV:   4    -0.319922330717E+03    0.53057E-03   -0.30744E-03 36592   0.205E-01    0.248E-01
DAV:   5    -0.319922163094E+03    0.16762E-03   -0.46953E-04 34136   0.878E-02    0.194E-01
DAV:   6    -0.319922071375E+03    0.91719E-04   -0.52549E-04 36440   0.996E-02    0.188E-01
DAV:   7    -0.319922034564E+03    0.36811E-04   -0.39935E-04 37328   0.815E-02    0.901E-02
DAV:   8    -0.319922041965E+03   -0.74004E-05   -0.14991E-04 34392   0.425E-02    0.660E-02
DAV:   9    -0.319922039870E+03    0.20945E-05   -0.33417E-05 23752   0.207E-02
  46 F= -.31992204E+03 E0= -.31991773E+03  d E =-.518222E-03  mag=    44.0000
       N       E                     dE             d eps       ncg     rms          rms(c)
DAV:   1    -0.319002311925E+03    0.91973E+00   -0.39446E+01 41096   0.272E+01    0.427E+00
DAV:   2    -0.319737222531E+03   -0.73491E+00   -0.73955E+00 34608   0.493E+00    0.454E+00
DAV:   3    -0.319771036848E+03   -0.33814E-01   -0.51510E-01 34512   0.215E+00    0.319E+00
DAV:   4    -0.319760550116E+03    0.10487E-01   -0.11148E-01 35632   0.115E+00    0.149E+00
DAV:   5    -0.319758444359E+03    0.21058E-02   -0.22352E-02 37144   0.514E-01    0.123E+00
DAV:   6    -0.319755529249E+03    0.29151E-02   -0.12806E-02 35048   0.443E-01    0.801E-01
DAV:   7    -0.319755118839E+03    0.41041E-03   -0.88736E-03 35504   0.358E-01    0.781E-01
DAV:   8    -0.319754437571E+03    0.68127E-03   -0.35941E-03 35480   0.248E-01    0.186E-01
DAV:   9    -0.319754449484E+03   -0.11913E-04   -0.76663E-04 34536   0.100E-01    0.185E-01
DAV:  10    -0.319754399228E+03    0.50256E-04   -0.27377E-04 34616   0.656E-02    0.705E-02
DAV:  11    -0.319754379203E+03    0.20024E-04   -0.58806E-05 29240   0.364E-02    0.626E-02
DAV:  12    -0.319754362055E+03    0.17148E-04   -0.45312E-05 26768   0.275E-02    0.384E-02
DAV:  13    -0.319754349110E+03    0.12945E-04   -0.23839E-05 22664   0.176E-02    0.270E-02
DAV:  14    -0.319754342800E+03    0.63104E-05   -0.81393E-06 20848   0.109E-02
  47 F= -.31975434E+03 E0= -.31974988E+03  d E =0.167697E+00  mag=    44.0000
       N       E                     dE             d eps       ncg     rms          rms(c)
DAV:   1    -0.319752003047E+03    0.23461E-02   -0.50004E+00 44424   0.955E+00    0.166E+00
DAV:   2    -0.319864784962E+03   -0.11278E+00   -0.11476E+00 34936   0.169E+00    0.147E+00
DAV:   3    -0.319871272782E+03   -0.64878E-02   -0.65952E-02 34064   0.749E-01    0.135E+00
DAV:   4    -0.319869454856E+03    0.18179E-02   -0.12382E-02 35344   0.395E-01    0.567E-01
DAV:   5    -0.319869187147E+03    0.26771E-03   -0.41329E-03 36832   0.207E-01    0.578E-01
DAV:   6    -0.319868706235E+03    0.48091E-03   -0.55440E-03 36832   0.238E-01    0.440E-01
DAV:   7    -0.319868573125E+03    0.13311E-03   -0.21556E-03 35808   0.158E-01    0.275E-01
DAV:   8    -0.319868513868E+03    0.59257E-04   -0.46508E-04 34088   0.924E-02    0.728E-02
DAV:   9    -0.319868507701E+03    0.61673E-05   -0.89786E-05 31760   0.373E-02
  48 F= -.31986851E+03 E0= -.31986414E+03  d E =-.114165E+00  mag=    44.0000
       N       E                     dE             d eps       ncg     rms          rms(c)
DAV:   1    -0.319879649653E+03   -0.11136E-01   -0.81939E-01 44376   0.385E+00    0.635E-01
DAV:   2    -0.319894477420E+03   -0.14828E-01   -0.14988E-01 35080   0.648E-01    0.443E-01
DAV:   3    -0.319895702610E+03   -0.12252E-02   -0.82792E-03 33696   0.271E-01    0.513E-01
DAV:   4    -0.319895380600E+03    0.32201E-03   -0.18218E-03 35704   0.149E-01    0.165E-01
DAV:   5    -0.319895327027E+03    0.53573E-04   -0.43874E-04 35200   0.678E-02    0.173E-01
DAV:   6    -0.319895266589E+03    0.60438E-04   -0.53424E-04 34656   0.778E-02    0.134E-01
DAV:   7    -0.319895244528E+03    0.22061E-04   -0.14874E-04 32416   0.462E-02    0.638E-02
DAV:   8    -0.319895241125E+03    0.34034E-05   -0.40198E-05 26856   0.260E-02
  49 F= -.31989524E+03 E0= -.31989090E+03  d E =-.267334E-01  mag=    44.0000
       N       E                     dE             d eps       ncg     rms          rms(c)
DAV:   1    -0.319845590081E+03    0.49654E-01   -0.32328E+00 44192   0.806E+00    0.127E+00
DAV:   2    -0.319915747820E+03   -0.70158E-01   -0.70986E-01 35040   0.137E+00    0.965E-01
DAV:   3    -0.319920758751E+03   -0.50109E-02   -0.41392E-02 33648   0.586E-01    0.109E+00
DAV:   4    -0.319919332652E+03    0.14261E-02   -0.86504E-03 35376   0.323E-01    0.332E-01
DAV:   5    -0.319919142371E+03    0.19028E-03   -0.13799E-03 36080   0.121E-01    0.298E-01
DAV:   6    -0.319918883426E+03    0.25895E-03   -0.14535E-03 36944   0.133E-01    0.244E-01
DAV:   7    -0.319918781833E+03    0.10159E-03   -0.59875E-04 34984   0.965E-02    0.153E-01
DAV:   8    -0.319918761602E+03    0.20231E-04   -0.21780E-04 33552   0.597E-02    0.623E-02
DAV:   9    -0.319918751618E+03    0.99841E-05   -0.54999E-05 28352   0.281E-02
  50 F= -.31991875E+03 E0= -.31991451E+03  d E =-.235105E-01  mag=    44.0000
       N       E                     dE             d eps       ncg     rms          rms(c)
DAV:   1    -0.319916982707E+03    0.17789E-02   -0.98227E-02 43544   0.161E+00    0.220E-01
DAV:   2    -0.319919053797E+03   -0.20711E-02   -0.20731E-02 35008   0.279E-01    0.147E-01
DAV:   3    -0.319919207570E+03   -0.15377E-03   -0.11609E-03 33728   0.100E-01    0.183E-01
DAV:   4    -0.319919165342E+03    0.42227E-04   -0.23415E-04 33024   0.520E-02    0.543E-02
DAV:   5    -0.319919154770E+03    0.10573E-04   -0.30830E-05 24944   0.194E-02    0.471E-02
DAV:   6    -0.319919147485E+03    0.72849E-05   -0.41434E-05 26296   0.247E-02
  51 F= -.31991915E+03 E0= -.31991492E+03  d E =-.395867E-03  mag=    44.0000
       N       E                     dE             d eps       ncg     rms          rms(c)
DAV:   1    -0.319912463358E+03    0.66914E-02   -0.30362E-01 40296   0.294E+00    0.358E-01
DAV:   2    -0.319918598926E+03   -0.61356E-02   -0.60596E-02 34840   0.530E-01    0.318E-01
DAV:   3    -0.319918966589E+03   -0.36766E-03   -0.39533E-03 33760   0.197E-01    0.379E-01
DAV:   4    -0.319918809394E+03    0.15719E-03   -0.86078E-04 35080   0.101E-01    0.930E-02
DAV:   5    -0.319918806153E+03    0.32416E-05   -0.75745E-05 30096   0.342E-02
  52 F= -.31991881E+03 E0= -.31991460E+03  d E =0.341332E-03  mag=    44.0000
       N       E                     dE             d eps       ncg     rms          rms(c)
DAV:   1    -0.319918451462E+03    0.35793E-03   -0.17925E-01 36320   0.154E+00    0.166E-01
DAV:   2    -0.319919914132E+03   -0.14627E-02   -0.14569E-02 34168   0.290E-01    0.210E-01
DAV:   3    -0.319919944712E+03   -0.30580E-04   -0.74329E-04 35648   0.992E-02    0.159E-01
DAV:   4    -0.319919919230E+03    0.25482E-04   -0.10429E-04 29720   0.430E-02    0.473E-02
DAV:   5    -0.319919916292E+03    0.29383E-05   -0.29512E-05 24568   0.207E-02
  53 F= -.31991992E+03 E0= -.31991571E+03  d E =-.111014E-02  mag=    44.0000
       N       E                     dE             d eps       ncg     rms          rms(c)
DAV:   1    -0.319916304153E+03    0.36151E-02   -0.30045E-01 39984   0.224E+00    0.296E-01
DAV:   2    -0.319920670286E+03   -0.43661E-02   -0.44452E-02 35040   0.397E-01    0.185E-01
DAV:   3    -0.319920926551E+03   -0.25627E-03   -0.17957E-03 33544   0.112E-01    0.187E-01
DAV:   4    -0.319920881725E+03    0.44826E-04   -0.26893E-04 34104   0.598E-02    0.854E-02
DAV:   5    -0.319920856051E+03    0.25674E-04   -0.63060E-05 28872   0.285E-02    0.518E-02
DAV:   6    -0.319920849434E+03    0.66167E-05   -0.59604E-05 29816   0.336E-02
  54 F= -.31992085E+03 E0= -.31991661E+03  d E =-.933142E-03  mag=    44.0000
       N       E                     dE             d eps       ncg     rms          rms(c)
DAV:   1    -0.319920469208E+03    0.38684E-03   -0.59917E-02 35488   0.754E-01    0.695E-02
DAV:   2    -0.319920782016E+03   -0.31281E-03   -0.31405E-03 34288   0.138E-01    0.760E-02
DAV:   3    -0.319920789181E+03   -0.71651E-05   -0.12692E-04 31768   0.401E-02    0.705E-02
DAV:   4    -0.319920783822E+03    0.53588E-05   -0.28289E-05 23232   0.202E-02
  55 F= -.31992078E+03 E0= -.31991655E+03  d E =0.656120E-04  mag=    44.0000
       N       E                     dE             d eps       ncg     rms          rms(c)
DAV:   1    -0.319911960039E+03    0.88291E-02   -0.17480E+00 35352   0.398E+00    0.329E-01
DAV:   2    -0.319920488227E+03   -0.85282E-02   -0.84797E-02 32864   0.708E-01    0.207E-01
DAV:   3    -0.319920636218E+03   -0.14799E-03   -0.15671E-03 34928   0.128E-01    0.200E-01
DAV:   4    -0.319920590679E+03    0.45539E-04   -0.29818E-04 36496   0.640E-02    0.958E-02
DAV:   5    -0.319920561559E+03    0.29120E-04   -0.66598E-05 31448   0.347E-02    0.749E-02
DAV:   6    -0.319920548569E+03    0.12990E-04   -0.84339E-05 33960   0.370E-02    0.596E-02
DAV:   7    -0.319920548233E+03    0.33653E-06   -0.68963E-05 29640   0.284E-02
  56 F= -.31992055E+03 E0= -.31991633E+03  d E =0.235589E-03  mag=    44.0000
       N       E                     dE             d eps       ncg     rms          rms(c)
DAV:   1    -0.319894359345E+03    0.26189E-01   -0.35075E+00 35912   0.650E+00    0.600E-01
DAV:   2    -0.319918937312E+03   -0.24578E-01   -0.24147E-01 33152   0.120E+00    0.339E-01
DAV:   3    -0.319919578095E+03   -0.64078E-03   -0.55378E-03 34800   0.223E-01    0.344E-01
DAV:   4    -0.319919454699E+03    0.12340E-03   -0.10410E-03 37464   0.105E-01    0.147E-01
DAV:   5    -0.319919383574E+03    0.71125E-04   -0.12898E-04 34208   0.496E-02    0.103E-01
DAV:   6    -0.319919365049E+03    0.18525E-04   -0.22337E-04 35600   0.630E-02    0.137E-01
DAV:   7    -0.319919346479E+03    0.18569E-04   -0.16280E-04 35240   0.491E-02    0.426E-02
DAV:   8    -0.319919350357E+03   -0.38771E-05   -0.32758E-05 25616   0.224E-02
  57 F= -.31991935E+03 E0= -.31991516E+03  d E =0.119788E-02  mag=    44.0000
       N       E                     dE             d eps       ncg     rms          rms(c)
DAV:   1    -0.319823985044E+03    0.95361E-01   -0.13490E+01 36656   0.128E+01    0.115E+00
DAV:   2    -0.319915922602E+03   -0.91938E-01   -0.90644E-01 32776   0.230E+00    0.653E-01
DAV:   3    -0.319918333865E+03   -0.24113E-02   -0.21505E-02 34272   0.429E-01    0.602E-01
DAV:   4    -0.319917989990E+03    0.34388E-03   -0.37152E-03 37976   0.207E-01    0.308E-01
DAV:   5    -0.319917708107E+03    0.28188E-03   -0.78247E-04 34104   0.108E-01    0.224E-01
DAV:   6    -0.319917592628E+03    0.11548E-03   -0.84990E-04 37352   0.115E-01    0.232E-01
DAV:   7    -0.319917536477E+03    0.56151E-04   -0.55953E-04 36344   0.972E-02    0.960E-02
DAV:   8    -0.319917548475E+03   -0.11998E-04   -0.15836E-04 34072   0.470E-02    0.614E-02
DAV:   9    -0.319917544189E+03    0.42862E-05   -0.35054E-05 26392   0.249E-02
  58 F= -.31991754E+03 E0= -.31991343E+03  d E =0.180617E-02  mag=    44.0000
       N       E                     dE             d eps       ncg     rms          rms(c)
DAV:   1    -0.319383876976E+03    0.53367E+00   -0.86383E+01 36136   0.303E+01    0.265E+00
DAV:   2    -0.319900459961E+03   -0.51658E+00   -0.51309E+00 32608   0.546E+00    0.146E+00
DAV:   3    -0.319910798985E+03   -0.10339E-01   -0.10124E-01 34320   0.936E-01    0.111E+00
DAV:   4    -0.319909417501E+03    0.13815E-02   -0.15122E-02 38664   0.433E-01    0.757E-01
DAV:   5    -0.319907718236E+03    0.16993E-02   -0.42288E-03 34280   0.265E-01    0.498E-01
DAV:   6    -0.319907018109E+03    0.70013E-03   -0.42071E-03 37392   0.255E-01    0.444E-01
DAV:   7    -0.319906877946E+03    0.14016E-03   -0.32412E-03 37152   0.211E-01    0.255E-01
DAV:   8    -0.319906910611E+03   -0.32666E-04   -0.92523E-04 34384   0.107E-01    0.140E-01
DAV:   9    -0.319906899457E+03    0.11154E-04   -0.16603E-04 33608   0.555E-02    0.548E-02
DAV:  10    -0.319906901163E+03   -0.17058E-05   -0.36317E-05 25680   0.257E-02
  59 F= -.31990690E+03 E0= -.31990291E+03  d E =0.106430E-01  mag=    44.0000
       N       E                     dE             d eps       ncg     rms          rms(c)
DAV:   1    -0.319765767241E+03    0.14113E+00   -0.61098E+00 43888   0.111E+01    0.169E+00
DAV:   2    -0.319895514323E+03   -0.12975E+00   -0.13097E+00 34960   0.193E+00    0.133E+00
DAV:   3    -0.319903639190E+03   -0.81249E-02   -0.71196E-02 33824   0.776E-01    0.127E+00
DAV:   4    -0.319901607517E+03    0.20317E-02   -0.13917E-02 35264   0.419E-01    0.479E-01
DAV:   5    -0.319901209720E+03    0.39780E-03   -0.23038E-03 36536   0.160E-01    0.365E-01
DAV:   6    -0.319900719524E+03    0.49020E-03   -0.19750E-03 35912   0.162E-01    0.282E-01
DAV:   7    -0.319900569135E+03    0.15039E-03   -0.13497E-03 35664   0.133E-01    0.252E-01
DAV:   8    -0.319900502050E+03    0.67085E-04   -0.48857E-04 33712   0.849E-02    0.683E-02
DAV:   9    -0.319900492818E+03    0.92323E-05   -0.87210E-05 32512   0.350E-02
  60 F= -.31990049E+03 E0= -.31989662E+03  d E =0.640835E-02  mag=    44.0000
       N       E                     dE             d eps       ncg     rms          rms(c)
DAV:   1    -0.319880145098E+03    0.20357E-01   -0.14968E+00 44576   0.568E+00    0.814E-01
DAV:   2    -0.319911157470E+03   -0.31012E-01   -0.31460E-01 34712   0.966E-01    0.556E-01
DAV:   3    -0.319913212162E+03   -0.20547E-02   -0.17104E-02 33872   0.357E-01    0.605E-01
DAV:   4    -0.319912761080E+03    0.45108E-03   -0.33587E-03 35880   0.181E-01    0.212E-01
DAV:   5    -0.319912669379E+03    0.91702E-04   -0.39584E-04 35432   0.775E-02    0.173E-01
DAV:   6    -0.319912561474E+03    0.10790E-03   -0.37140E-04 37368   0.811E-02    0.129E-01
DAV:   7    -0.319912536200E+03    0.25274E-04   -0.17114E-04 34184   0.559E-02    0.731E-02
DAV:   8    -0.319912534511E+03    0.16895E-05   -0.83066E-05 30560   0.357E-02
  61 F= -.31991253E+03 E0= -.31990862E+03  d E =-.120417E-01  mag=    44.0000
       N       E                     dE             d eps       ncg     rms          rms(c)
DAV:   1    -0.319875263420E+03    0.37273E-01   -0.57822E+00 36696   0.800E+00    0.703E-01
DAV:   2    -0.319910415718E+03   -0.35152E-01   -0.34530E-01 32888   0.143E+00    0.387E-01
DAV:   3    -0.319911212903E+03   -0.79718E-03   -0.66038E-03 34608   0.244E-01    0.315E-01
DAV:   4    -0.319911110207E+03    0.10270E-03   -0.92743E-04 38632   0.109E-01    0.173E-01
DAV:   5    -0.319910999880E+03    0.11033E-03   -0.18875E-04 34008   0.604E-02    0.123E-01
DAV:   6    -0.319910961431E+03    0.38449E-04   -0.22439E-04 36664   0.664E-02    0.125E-01
DAV:   7    -0.319910948281E+03    0.13150E-04   -0.15203E-04 35448   0.524E-02    0.417E-02
DAV:   8    -0.319910952416E+03   -0.41350E-05   -0.37264E-05 28576   0.222E-02
  62 F= -.31991095E+03 E0= -.31990706E+03  d E =0.158209E-02  mag=    44.0000
       N       E                     dE             d eps       ncg     rms          rms(c)
DAV:   1    -0.318582068453E+03    0.13289E+01   -0.91236E+01 37368   0.434E+01    0.474E+00
DAV:   2    -0.319786607259E+03   -0.12045E+01   -0.11635E+01 34200   0.790E+00    0.336E+00
DAV:   3    -0.319835028470E+03   -0.48421E-01   -0.42323E-01 34744   0.205E+00    0.327E+00
DAV:   4    -0.319824606273E+03    0.10422E-01   -0.87090E-02 36816   0.105E+00    0.133E+00
DAV:   5    -0.319821943282E+03    0.26630E-02   -0.13971E-02 34856   0.442E-01    0.100E+00
DAV:   6    -0.319819492501E+03    0.24508E-02   -0.14384E-02 35616   0.485E-01    0.779E-01
DAV:   7    -0.319818597170E+03    0.89533E-03   -0.84055E-03 37536   0.370E-01    0.432E-01
DAV:   8    -0.319818596856E+03    0.31313E-06   -0.32934E-03 35344   0.207E-01    0.297E-01
DAV:   9    -0.319818520266E+03    0.76590E-04   -0.62518E-04 34760   0.102E-01    0.126E-01
DAV:  10    -0.319818493200E+03    0.27066E-04   -0.13629E-04 33920   0.530E-02    0.824E-02
DAV:  11    -0.319818472207E+03    0.20994E-04   -0.57357E-05 28752   0.336E-02    0.525E-02
DAV:  12    -0.319818455963E+03    0.16244E-04   -0.40049E-05 25144   0.269E-02    0.396E-02
DAV:  13    -0.319818447676E+03    0.82877E-05   -0.19132E-05 22744   0.185E-02
  63 F= -.31981845E+03 E0= -.31981451E+03  d E =0.925047E-01  mag=    44.0000
       N       E                     dE             d eps       ncg     rms          rms(c)
DAV:   1    -0.319030885180E+03    0.78757E+00   -0.33581E+01 45384   0.322E+01    0.433E+00
DAV:   2    -0.319829693278E+03   -0.79881E+00   -0.79138E+00 34920   0.573E+00    0.430E+00
DAV:   3    -0.319869608228E+03   -0.39915E-01   -0.47559E-01 34240   0.235E+00    0.350E+00
DAV:   4    -0.319858813595E+03    0.10795E-01   -0.83411E-02 35592   0.111E+00    0.136E+00
DAV:   5    -0.319856782885E+03    0.20307E-02   -0.16004E-02 36960   0.453E-01    0.107E+00
DAV:   6    -0.319853829164E+03    0.29537E-02   -0.13636E-02 35184   0.437E-01    0.837E-01
DAV:   7    -0.319852838277E+03    0.99089E-03   -0.10111E-02 36448   0.389E-01    0.767E-01
DAV:   8    -0.319852139462E+03    0.69881E-03   -0.40264E-03 36624   0.268E-01    0.160E-01
DAV:   9    -0.319852133638E+03    0.58242E-05   -0.73221E-04 34592   0.995E-02    0.136E-01
DAV:  10    -0.319852096516E+03    0.37122E-04   -0.17893E-04 34800   0.580E-02    0.845E-02
DAV:  11    -0.319852062963E+03    0.33553E-04   -0.62553E-05 29416   0.321E-02    0.537E-02
DAV:  12    -0.319852041940E+03    0.21023E-04   -0.50353E-05 26496   0.270E-02    0.491E-02
DAV:  13    -0.319852024635E+03    0.17305E-04   -0.23403E-05 22496   0.199E-02    0.292E-02
DAV:  14    -0.319852017655E+03    0.69798E-05   -0.99014E-06 21024   0.119E-02
  64 F= -.31985202E+03 E0= -.31984839E+03  d E =-.335700E-01  mag=    44.0000
       N       E                     dE             d eps       ncg     rms          rms(c)
DAV:   1    -0.319772701554E+03    0.79323E-01   -0.48259E+00 45560   0.115E+01    0.154E+00
DAV:   2    -0.319882145646E+03   -0.10944E+00   -0.11038E+00 34832   0.193E+00    0.103E+00
DAV:   3    -0.319889182287E+03   -0.70366E-02   -0.55955E-02 33560   0.653E-01    0.104E+00
DAV:   4    -0.319887892729E+03    0.12896E-02   -0.11275E-02 36344   0.342E-01    0.436E-01
DAV:   5    -0.319887461902E+03    0.43083E-03   -0.14703E-03 36592   0.152E-01    0.340E-01
DAV:   6    -0.319887128085E+03    0.33382E-03   -0.14876E-03 37232   0.159E-01    0.290E-01
DAV:   7    -0.319886985272E+03    0.14281E-03   -0.84406E-04 35544   0.125E-01    0.164E-01
DAV:   8    -0.319886963629E+03    0.21643E-04   -0.30201E-04 34536   0.724E-02    0.722E-02
DAV:   9    -0.319886952595E+03    0.11034E-04   -0.62091E-05 31368   0.324E-02    0.425E-02
DAV:  10    -0.319886948507E+03    0.40880E-05   -0.20013E-05 25328   0.188E-02
  65 F= -.31988695E+03 E0= -.31988323E+03  d E =-.349309E-01  mag=    44.0000
       N       E                     dE             d eps       ncg     rms          rms(c)
DAV:   1    -0.319883873487E+03    0.30791E-02   -0.26923E-01 42856   0.250E+00    0.348E-01
DAV:   2    -0.319889528504E+03   -0.56550E-02   -0.56407E-02 35048   0.446E-01    0.223E-01
DAV:   3    -0.319889842306E+03   -0.31380E-03   -0.22975E-03 34144   0.139E-01    0.219E-01
DAV:   4    -0.319889792735E+03    0.49571E-04   -0.27744E-04 35352   0.626E-02    0.921E-02
DAV:   5    -0.319889764209E+03    0.28525E-04   -0.70657E-05 30200   0.306E-02    0.787E-02
DAV:   6    -0.319889749938E+03    0.14271E-04   -0.10592E-04 32392   0.411E-02    0.798E-02
DAV:   7    -0.319889741538E+03    0.84005E-05   -0.64034E-05 26688   0.309E-02
  66 F= -.31988974E+03 E0= -.31988602E+03  d E =-.279303E-02  mag=    44.0000
       N       E                     dE             d eps       ncg     rms          rms(c)
DAV:   1    -0.319878349960E+03    0.11400E-01   -0.77341E-01 38888   0.431E+00    0.555E-01
DAV:   2    -0.319892340412E+03   -0.13990E-01   -0.13311E-01 34616   0.778E-01    0.411E-01
DAV:   3    -0.319893061242E+03   -0.72083E-03   -0.59995E-03 34200   0.259E-01    0.471E-01
DAV:   4    -0.319892835865E+03    0.22538E-03   -0.13865E-03 35472   0.128E-01    0.152E-01
DAV:   5    -0.319892824623E+03    0.11242E-04   -0.13500E-04 33136   0.473E-02    0.123E-01
DAV:   6    -0.319892786910E+03    0.37713E-04   -0.16958E-04 33968   0.595E-02    0.902E-02
DAV:   7    -0.319892783317E+03    0.35937E-05   -0.90842E-05 33440   0.407E-02
  67 F= -.31989278E+03 E0= -.31988907E+03  d E =-.304178E-02  mag=    44.0000
       N       E                     dE             d eps       ncg     rms          rms(c)
DAV:   1    -0.319884657462E+03    0.81294E-02   -0.63567E-01 37576   0.360E+00    0.448E-01
DAV:   2    -0.319893975935E+03   -0.93185E-02   -0.88791E-02 34480   0.669E-01    0.397E-01
DAV:   3    -0.319894437985E+03   -0.46205E-03   -0.52062E-03 35232   0.236E-01    0.450E-01
DAV:   4    -0.319894222399E+03    0.21559E-03   -0.12331E-03 35104   0.119E-01    0.125E-01
DAV:   5    -0.319894221287E+03    0.11113E-05   -0.10169E-04 32952   0.432E-02    0.102E-01
DAV:   6    -0.319894192614E+03    0.28673E-04   -0.11975E-04 33592   0.509E-02    0.669E-02
DAV:   7    -0.319894190638E+03    0.19766E-05   -0.55990E-05 30488   0.317E-02
  68 F= -.31989419E+03 E0= -.31989048E+03  d E =-.140732E-02  mag=    44.0000
       N       E                     dE             d eps       ncg     rms          rms(c)
DAV:   1    -0.319892783720E+03    0.14089E-02   -0.25886E-01 37824   0.200E+00    0.224E-01
DAV:   2    -0.319895415188E+03   -0.26315E-02   -0.26508E-02 34280   0.370E-01    0.228E-01
DAV:   3    -0.319895528280E+03   -0.11309E-03   -0.15858E-03 35488   0.122E-01    0.230E-01
DAV:   4    -0.319895466191E+03    0.62089E-04   -0.35327E-04 33200   0.628E-02    0.631E-02
DAV:   5    -0.319895461857E+03    0.43338E-05   -0.41482E-05 27152   0.275E-02
  69 F= -.31989546E+03 E0= -.31989173E+03  d E =-.127122E-02  mag=    44.0000
       N       E                     dE             d eps       ncg     rms          rms(c)
DAV:   1    -0.319894497767E+03    0.96842E-03   -0.42210E-01 35944   0.204E+00    0.219E-01
DAV:   2    -0.319896848140E+03   -0.23504E-02   -0.24115E-02 34272   0.383E-01    0.275E-01
DAV:   3    -0.319896863515E+03   -0.15375E-04   -0.12337E-03 36408   0.122E-01    0.178E-01
DAV:   4    -0.319896826304E+03    0.37210E-04   -0.25398E-04 33296   0.561E-02    0.877E-02
DAV:   5    -0.319896824118E+03    0.21866E-05   -0.10005E-04 28904   0.378E-02    0.944E-02
DAV:   6    -0.319896810276E+03    0.13842E-04   -0.83114E-05 32432   0.359E-02    0.427E-02
DAV:   7    -0.319896811865E+03   -0.15890E-05   -0.17768E-05 22936   0.177E-02
  70 F= -.31989681E+03 E0= -.31989301E+03  d E =-.135001E-02  mag=    44.0000
       N       E                     dE             d eps       ncg     rms          rms(c)
DAV:   1    -0.319891762279E+03    0.50480E-02   -0.64233E-01 36896   0.313E+00    0.325E-01
DAV:   2    -0.319897775369E+03   -0.60131E-02   -0.59311E-02 33784   0.579E-01    0.268E-01
DAV:   3    -0.319897993738E+03   -0.21837E-03   -0.23726E-03 35408   0.156E-01    0.293E-01
DAV:   4    -0.319897898048E+03    0.95690E-04   -0.67160E-04 35240   0.845E-02    0.979E-02
DAV:   5    -0.319897890674E+03    0.73736E-05   -0.81998E-05 30152   0.380E-02
  71 F= -.31989789E+03 E0= -.31989404E+03  d E =-.107881E-02  mag=    44.0000
       N       E                     dE             d eps       ncg     rms          rms(c)
DAV:   1    -0.319896975567E+03    0.92248E-03   -0.87861E-02 36448   0.113E+00    0.122E-01
DAV:   2    -0.319897781315E+03   -0.80575E-03   -0.78411E-03 34304   0.216E-01    0.189E-01
DAV:   3    -0.319897783204E+03   -0.18884E-05   -0.57847E-04 34768   0.824E-02    0.108E-01
DAV:   4    -0.319897776068E+03    0.71356E-05   -0.59356E-05 26272   0.291E-02
  72 F= -.31989778E+03 E0= -.31989394E+03  d E =0.114606E-03  mag=    44.0000
       N       E                     dE             d eps       ncg     rms          rms(c)
DAV:   1    -0.319895957617E+03    0.18256E-02   -0.15982E-01 38104   0.162E+00    0.166E-01
DAV:   2    -0.319897619278E+03   -0.16617E-02   -0.16319E-02 33912   0.293E-01    0.170E-01
DAV:   3    -0.319897680974E+03   -0.61696E-04   -0.88564E-04 34744   0.934E-02    0.162E-01
DAV:   4    -0.319897650629E+03    0.30345E-04   -0.17728E-04 30720   0.450E-02    0.488E-02
DAV:   5    -0.319897647920E+03    0.27094E-05   -0.26107E-05 24872   0.202E-02
  73 F= -.31989765E+03 E0= -.31989383E+03  d E =0.128148E-03  mag=    44.0000
       N       E                     dE             d eps       ncg     rms          rms(c)
DAV:   1    -0.319889629042E+03    0.80216E-02   -0.11064E+00 37088   0.366E+00    0.323E-01
DAV:   2    -0.319897048353E+03   -0.74193E-02   -0.72475E-02 32936   0.654E-01    0.258E-01
DAV:   3    -0.319897254899E+03   -0.20655E-03   -0.22273E-03 34680   0.162E-01    0.248E-01
DAV:   4    -0.319897182484E+03    0.72415E-04   -0.39909E-04 35504   0.780E-02    0.781E-02
DAV:   5    -0.319897165494E+03    0.16990E-04   -0.52125E-05 31176   0.309E-02    0.654E-02
DAV:   6    -0.319897158002E+03    0.74924E-05   -0.62370E-05 29944   0.339E-02
  74 F= -.31989716E+03 E0= -.31989339E+03  d E =0.489918E-03  mag=    44.0000
       N       E                     dE             d eps       ncg     rms          rms(c)
DAV:   1    -0.319558150458E+03    0.33902E+00   -0.53947E+01 36928   0.245E+01    0.210E+00
DAV:   2    -0.319883237514E+03   -0.32509E+00   -0.31879E+00 32656   0.439E+00    0.138E+00
DAV:   3    -0.319890277395E+03   -0.70399E-02   -0.71582E-02 34720   0.874E-01    0.126E+00
DAV:   4    -0.319888544549E+03    0.17328E-02   -0.12268E-02 37128   0.410E-01    0.541E-01
DAV:   5    -0.319887617670E+03    0.92688E-03   -0.20323E-03 34192   0.205E-01    0.417E-01
DAV:   6    -0.319887178455E+03    0.43921E-03   -0.21731E-03 37240   0.212E-01    0.367E-01
DAV:   7    -0.319887106041E+03    0.72414E-04   -0.16984E-03 35904   0.170E-01    0.215E-01
DAV:   8    -0.319887115325E+03   -0.92837E-05   -0.53356E-04 34936   0.877E-02    0.105E-01
DAV:   9    -0.319887115000E+03    0.32443E-06   -0.11045E-04 31672   0.424E-02    0.517E-02
DAV:  10    -0.319887115688E+03   -0.68779E-06   -0.30077E-05 23496   0.210E-02
  75 F= -.31988712E+03 E0= -.31988357E+03  d E =0.100423E-01  mag=    44.0000
       N       E                     dE             d eps       ncg     rms          rms(c)
DAV:   1    -0.319724003196E+03    0.16311E+00   -0.16426E+01 37808   0.159E+01    0.153E+00
DAV:   2    -0.319871221418E+03   -0.14722E+00   -0.14489E+00 32952   0.287E+00    0.932E-01
DAV:   3    -0.319876032387E+03   -0.48110E-02   -0.39267E-02 34032   0.600E-01    0.885E-01
DAV:   4    -0.319875363542E+03    0.66885E-03   -0.66622E-03 37216   0.289E-01    0.445E-01
DAV:   5    -0.319874888094E+03    0.47545E-03   -0.18379E-03 34608   0.165E-01    0.356E-01
DAV:   6    -0.319874654494E+03    0.23360E-03   -0.20854E-03 38024   0.169E-01    0.303E-01
DAV:   7    -0.319874586484E+03    0.68009E-04   -0.12078E-03 36176   0.135E-01    0.171E-01
DAV:   8    -0.319874581786E+03    0.46983E-05   -0.34134E-04 34952   0.674E-02    0.729E-02
DAV:   9    -0.319874577062E+03    0.47241E-05   -0.56640E-05 29096   0.332E-02
  76 F= -.31987458E+03 E0= -.31987111E+03  d E =0.125386E-01  mag=    44.0000
       N       E                     dE             d eps       ncg     rms          rms(c)
DAV:   1    -0.319789111133E+03    0.85471E-01   -0.92914E+00 38176   0.123E+01    0.129E+00
DAV:   2    -0.319886580465E+03   -0.97469E-01   -0.96752E-01 34248   0.221E+00    0.809E-01
DAV:   3    -0.319890528757E+03   -0.39483E-02   -0.32042E-02 33584   0.519E-01    0.794E-01
DAV:   4    -0.319889816165E+03    0.71259E-03   -0.59396E-03 37424   0.253E-01    0.335E-01
DAV:   5    -0.319889491406E+03    0.32476E-03   -0.10423E-03 35584   0.121E-01    0.270E-01
DAV:   6    -0.319889269297E+03    0.22211E-03   -0.10556E-03 37176   0.132E-01    0.236E-01
DAV:   7    -0.319889191037E+03    0.78259E-04   -0.61706E-04 36328   0.104E-01    0.117E-01
DAV:   8    -0.319889195570E+03   -0.45328E-05   -0.21401E-04 35024   0.546E-02    0.623E-02
DAV:   9    -0.319889190930E+03    0.46407E-05   -0.40402E-05 27536   0.259E-02
  77 F= -.31988919E+03 E0= -.31988565E+03  d E =-.146139E-01  mag=    44.0000
       N       E                     dE             d eps       ncg     rms          rms(c)
DAV:   1    -0.319852543798E+03    0.36652E-01   -0.54714E+00 37352   0.790E+00    0.671E-01
DAV:   2    -0.319886576907E+03   -0.34033E-01   -0.33445E-01 32464   0.141E+00    0.381E-01
DAV:   3    -0.319887317477E+03   -0.74057E-03   -0.69716E-03 34568   0.240E-01    0.275E-01
DAV:   4    -0.319887226373E+03    0.91105E-04   -0.86620E-04 38352   0.104E-01    0.176E-01
DAV:   5    -0.319887109129E+03    0.11724E-03   -0.21388E-04 35192   0.674E-02    0.120E-01
DAV:   6    -0.319887067431E+03    0.41698E-04   -0.24510E-04 36784   0.735E-02    0.121E-01
DAV:   7    -0.319887059190E+03    0.82402E-05   -0.14492E-04 36160   0.494E-02    0.465E-02
DAV:   8    -0.319887061685E+03   -0.24943E-05   -0.46107E-05 26592   0.246E-02
  78 F= -.31988706E+03 E0= -.31988355E+03  d E =0.212924E-02  mag=    44.0000
       N       E                     dE             d eps       ncg     rms          rms(c)
DAV:   1    -0.317005833089E+03    0.28812E+01   -0.16844E+02 38448   0.557E+01    0.752E+00
DAV:   2    -0.319357033669E+03   -0.23512E+01   -0.23367E+01 34672   0.104E+01    0.861E+00
DAV:   3    -0.319429099865E+03   -0.72066E-01   -0.12962E+00 34544   0.400E+00    0.512E+00
DAV:   4    -0.319409722133E+03    0.19378E-01   -0.24057E-01 35536   0.190E+00    0.280E+00
DAV:   5    -0.319402826313E+03    0.68958E-02   -0.73356E-02 36616   0.995E-01    0.230E+00
DAV:   6    -0.319393812754E+03    0.90136E-02   -0.37936E-02 36880   0.809E-01    0.118E+00
DAV:   7    -0.319393990075E+03   -0.17732E-03   -0.26896E-02 35440   0.619E-01    0.120E+00
DAV:   8    -0.319392763060E+03    0.12270E-02   -0.16284E-02 36648   0.448E-01    0.459E-01
DAV:   9    -0.319392724840E+03    0.38220E-04   -0.18940E-03 33888   0.187E-01    0.252E-01
DAV:  10    -0.319392625741E+03    0.99099E-04   -0.53737E-04 36424   0.104E-01    0.119E-01
DAV:  11    -0.319392581651E+03    0.44090E-04   -0.18458E-04 35488   0.592E-02    0.107E-01
DAV:  12    -0.319392545539E+03    0.36112E-04   -0.11645E-04 33608   0.463E-02    0.507E-02
DAV:  13    -0.319392525401E+03    0.20138E-04   -0.42854E-05 28480   0.249E-02    0.406E-02
DAV:  14    -0.319392518833E+03    0.65685E-05   -0.19073E-05 24624   0.178E-02
  79 F= -.31939252E+03 E0= -.31938878E+03  d E =0.494543E+00  mag=    44.0000
       N       E                     dE             d eps       ncg     rms          rms(c)
DAV:   1    -0.319070314340E+03    0.32221E+00   -0.33294E+01 44560   0.271E+01    0.441E+00
DAV:   2    -0.319787008145E+03   -0.71669E+00   -0.72541E+00 34928   0.506E+00    0.502E+00
DAV:   3    -0.319809794558E+03   -0.22786E-01   -0.49805E-01 34416   0.231E+00    0.322E+00
DAV:   4    -0.319802878791E+03    0.69158E-02   -0.68143E-02 35024   0.943E-01    0.155E+00
DAV:   5    -0.319801475667E+03    0.14031E-02   -0.22991E-02 35992   0.583E-01    0.159E+00
DAV:   6    -0.319798258032E+03    0.32176E-02   -0.20865E-02 37856   0.624E-01    0.981E-01
DAV:   7    -0.319798200968E+03    0.57064E-04   -0.93691E-03 35904   0.404E-01    0.788E-01
DAV:   8    -0.319797522101E+03    0.67887E-03   -0.38048E-03 34864   0.262E-01    0.178E-01
DAV:   9    -0.319797512081E+03    0.10019E-04   -0.47284E-04 34528   0.911E-02    0.144E-01
DAV:  10    -0.319797476093E+03    0.35988E-04   -0.22139E-04 33568   0.583E-02    0.660E-02
DAV:  11    -0.319797459452E+03    0.16641E-04   -0.64617E-05 28520   0.315E-02    0.552E-02
DAV:  12    -0.319797451168E+03    0.82837E-05   -0.41294E-05 26224   0.248E-02
  80 F= -.31979745E+03 E0= -.31979376E+03  d E =-.404932E+00  mag=    44.0000
       N       E                     dE             d eps       ncg     rms          rms(c)
DAV:   1    -0.319798320109E+03   -0.86066E-03   -0.19534E+00 46016   0.696E+00    0.965E-01
DAV:   2    -0.319837382373E+03   -0.39062E-01   -0.39248E-01 34888   0.118E+00    0.640E-01
DAV:   3    -0.319839890972E+03   -0.25086E-02   -0.18156E-02 33544   0.415E-01    0.640E-01
DAV:   4    -0.319839442972E+03    0.44800E-03   -0.31843E-03 36192   0.197E-01    0.249E-01
DAV:   5    -0.319839299094E+03    0.14388E-03   -0.74359E-04 36544   0.103E-01    0.256E-01
DAV:   6    -0.319839184513E+03    0.11458E-03   -0.83548E-04 38296   0.117E-01    0.178E-01
DAV:   7    -0.319839154601E+03    0.29913E-04   -0.27760E-04 35088   0.708E-02    0.848E-02
DAV:   8    -0.319839151173E+03    0.34278E-05   -0.97864E-05 32544   0.408E-02
  81 F= -.31983915E+03 E0= -.31983544E+03  d E =-.417000E-01  mag=    44.0000
       N       E                     dE             d eps       ncg     rms          rms(c)
DAV:   1    -0.319728645278E+03    0.11051E+00   -0.62548E+00 43704   0.126E+01    0.169E+00
DAV:   2    -0.319856789545E+03   -0.12814E+00   -0.12814E+00 35152   0.218E+00    0.118E+00
DAV:   3    -0.319864303212E+03   -0.75137E-02   -0.60824E-02 33432   0.758E-01    0.119E+00
DAV:   4    -0.319862752314E+03    0.15509E-02   -0.11449E-02 35440   0.370E-01    0.462E-01
DAV:   5    -0.319862367227E+03    0.38509E-03   -0.21218E-03 36360   0.177E-01    0.452E-01
DAV:   6    -0.319862006050E+03    0.36118E-03   -0.23257E-03 38672   0.201E-01    0.313E-01
DAV:   7    -0.319861914039E+03    0.92010E-04   -0.90733E-04 36536   0.133E-01    0.164E-01
DAV:   8    -0.319861907140E+03    0.68997E-05   -0.34982E-04 34688   0.749E-02    0.871E-02
DAV:   9    -0.319861891983E+03    0.15157E-04   -0.83138E-05 32024   0.393E-02    0.413E-02
DAV:  10    -0.319861888894E+03    0.30888E-05   -0.25900E-05 25016   0.209E-02
  82 F= -.31986189E+03 E0= -.31985815E+03  d E =-.227377E-01  mag=    44.0000
       N       E                     dE             d eps       ncg     rms          rms(c)
DAV:   1    -0.319862284457E+03   -0.39247E-03   -0.22036E-01 37184   0.185E+00    0.202E-01
DAV:   2    -0.319864479617E+03   -0.21952E-02   -0.21617E-02 34464   0.342E-01    0.158E-01
DAV:   3    -0.319864564644E+03   -0.85027E-04   -0.77849E-04 33872   0.998E-02    0.142E-01
DAV:   4    -0.319864542335E+03    0.22309E-04   -0.13200E-04 32576   0.458E-02    0.549E-02
DAV:   5    -0.319864537345E+03    0.49903E-05   -0.29148E-05 24960   0.214E-02
  83 F= -.31986454E+03 E0= -.31986083E+03  d E =-.264845E-02  mag=    44.0000
       N       E                     dE             d eps       ncg     rms          rms(c)
DAV:   1    -0.319849585433E+03    0.14957E-01   -0.25743E+00 37008   0.591E+00    0.640E-01
DAV:   2    -0.319870961861E+03   -0.21376E-01   -0.21002E-01 34640   0.107E+00    0.499E-01
DAV:   3    -0.319871819785E+03   -0.85792E-03   -0.73284E-03 34896   0.306E-01    0.437E-01
DAV:   4    -0.319871583448E+03    0.23634E-03   -0.13330E-03 36960   0.148E-01    0.172E-01
DAV:   5    -0.319871527512E+03    0.55936E-04   -0.35983E-04 36208   0.729E-02    0.162E-01
DAV:   6    -0.319871484342E+03    0.43170E-04   -0.43108E-04 36272   0.806E-02    0.123E-01
DAV:   7    -0.319871483951E+03    0.39094E-06   -0.18255E-04 35088   0.471E-02    0.757E-02
DAV:   8    -0.319871480382E+03    0.35696E-05   -0.57443E-05 27872   0.284E-02
  84 F= -.31987148E+03 E0= -.31986785E+03  d E =-.694304E-02  mag=    44.0000
       N       E                     dE             d eps       ncg     rms          rms(c)
DAV:   1    -0.319871457272E+03    0.26680E-04   -0.24897E-01 36720   0.162E+00    0.170E-01
DAV:   2    -0.319873050128E+03   -0.15929E-02   -0.15660E-02 34000   0.294E-01    0.120E-01
DAV:   3    -0.319873099481E+03   -0.49354E-04   -0.40068E-04 35608   0.721E-02    0.112E-01
DAV:   4    -0.319873084193E+03    0.15288E-04   -0.75832E-05 29800   0.362E-02    0.446E-02
DAV:   5    -0.319873081523E+03    0.26701E-05   -0.34236E-05 23560   0.208E-02
  85 F= -.31987308E+03 E0= -.31986947E+03  d E =-.160114E-02  mag=    44.0000
       N       E                     dE             d eps       ncg     rms          rms(c)
DAV:   1    -0.319865066985E+03    0.80172E-02   -0.19272E+00 36088   0.430E+00    0.445E-01
DAV:   2    -0.319876355599E+03   -0.11289E-01   -0.11135E-01 34200   0.787E-01    0.409E-01
DAV:   3    -0.319876646885E+03   -0.29129E-03   -0.41179E-03 36600   0.236E-01    0.346E-01
DAV:   4    -0.319876490981E+03    0.15590E-03   -0.86435E-04 36128   0.110E-01    0.122E-01
DAV:   5    -0.319876471951E+03    0.19029E-04   -0.22513E-04 34872   0.573E-02    0.144E-01
DAV:   6    -0.319876437215E+03    0.34736E-04   -0.18266E-04 35416   0.549E-02    0.615E-02
DAV:   7    -0.319876447429E+03   -0.10213E-04   -0.10297E-04 34048   0.365E-02    0.722E-02
DAV:   8    -0.319876442326E+03    0.51027E-05   -0.31529E-05 23424   0.219E-02
  86 F= -.31987644E+03 E0= -.31987289E+03  d E =-.336080E-02  mag=    44.0000
       N       E                     dE             d eps       ncg     rms          rms(c)
DAV:   1    -0.319874900986E+03    0.15464E-02   -0.48764E-01 36552   0.214E+00    0.215E-01
DAV:   2    -0.319877622884E+03   -0.27219E-02   -0.27086E-02 34168   0.395E-01    0.249E-01
DAV:   3    -0.319877670350E+03   -0.47466E-04   -0.14110E-03 35960   0.126E-01    0.183E-01
DAV:   4    -0.319877630262E+03    0.40088E-04   -0.25815E-04 32856   0.551E-02    0.663E-02
DAV:   5    -0.319877627300E+03    0.29619E-05   -0.53190E-05 26912   0.287E-02
  87 F= -.31987763E+03 E0= -.31987410E+03  d E =-.118497E-02  mag=    44.0000
       N       E                     dE             d eps       ncg     rms          rms(c)
DAV:   1    -0.319871162111E+03    0.64682E-02   -0.10010E+00 37056   0.342E+00    0.356E-01
DAV:   2    -0.319877748641E+03   -0.65865E-02   -0.64876E-02 34216   0.618E-01    0.410E-01
DAV:   3    -0.319877932313E+03   -0.18367E-03   -0.35480E-03 35680   0.209E-01    0.297E-01
DAV:   4    -0.319877828966E+03    0.10335E-03   -0.65841E-04 35128   0.931E-02    0.108E-01
DAV:   5    -0.319877822023E+03    0.69428E-05   -0.16818E-04 34688   0.449E-02    0.119E-01
DAV:   6    -0.319877798005E+03    0.24018E-04   -0.16158E-04 33688   0.491E-02    0.665E-02
DAV:   7    -0.319877799531E+03   -0.15261E-05   -0.50347E-05 29072   0.271E-02
  88 F= -.31987780E+03 E0= -.31987434E+03  d E =-.172231E-03  mag=    44.0000
       N       E                     dE             d eps       ncg     rms          rms(c)
DAV:   1    -0.319874054212E+03    0.37438E-02   -0.21427E-01 41432   0.223E+00    0.266E-01
DAV:   2    -0.319877449412E+03   -0.33952E-02   -0.33883E-02 34816   0.384E-01    0.161E-01
DAV:   3    -0.319877643395E+03   -0.19398E-03   -0.12768E-03 33584   0.108E-01    0.154E-01
DAV:   4    -0.319877616211E+03    0.27184E-04   -0.18837E-04 34664   0.522E-02    0.692E-02
DAV:   5    -0.319877602592E+03    0.13619E-04   -0.47670E-05 27360   0.266E-02    0.574E-02
DAV:   6    -0.319877595830E+03    0.67619E-05   -0.59353E-05 29416   0.311E-02
  89 F= -.31987760E+03 E0= -.31987413E+03  d E =0.203701E-03  mag=    44.0000
       N       E                     dE             d eps       ncg     rms          rms(c)
DAV:   1    -0.319876319725E+03    0.12829E-02   -0.12800E-01 36288   0.116E+00    0.114E-01
DAV:   2    -0.319877134431E+03   -0.81471E-03   -0.80946E-03 34296   0.210E-01    0.802E-02
DAV:   3    -0.319877157614E+03   -0.23183E-04   -0.22153E-04 34504   0.482E-02    0.795E-02
DAV:   4    -0.319877150249E+03    0.73650E-05   -0.43698E-05 26008   0.245E-02
  90 F= -.31987715E+03 E0= -.31987368E+03  d E =0.445581E-03  mag=    44.0000
       N       E                     dE             d eps       ncg     rms          rms(c)
DAV:   1    -0.319872348748E+03    0.48089E-02   -0.68023E-01 35176   0.253E+00    0.224E-01
DAV:   2    -0.319875968865E+03   -0.36201E-02   -0.36100E-02 33968   0.463E-01    0.208E-01
DAV:   3    -0.319876040922E+03   -0.72056E-04   -0.11461E-03 36408   0.121E-01    0.189E-01
DAV:   4    -0.319875993318E+03    0.47604E-04   -0.23301E-04 34696   0.592E-02    0.707E-02
DAV:   5    -0.319875981559E+03    0.11759E-04   -0.55735E-05 29624   0.316E-02    0.756E-02
DAV:   6    -0.319875971545E+03    0.10014E-04   -0.57970E-05 31904   0.325E-02    0.408E-02
DAV:   7    -0.319875973370E+03   -0.18255E-05   -0.30090E-05 23744   0.212E-02
  91 F= -.31987597E+03 E0= -.31987249E+03  d E =0.117688E-02  mag=    44.0000
       N       E                     dE             d eps       ncg     rms          rms(c)
DAV:   1    -0.319832921931E+03    0.43050E-01   -0.43027E+00 36432   0.774E+00    0.787E-01
DAV:   2    -0.319871218291E+03   -0.38296E-01   -0.37589E-01 34104   0.142E+00    0.582E-01
DAV:   3    -0.319872715836E+03   -0.14975E-02   -0.14580E-02 34272   0.375E-01    0.693E-01
DAV:   4    -0.319872166249E+03    0.54959E-03   -0.34145E-03 36072   0.196E-01    0.188E-01
DAV:   5    -0.319872112804E+03    0.53446E-04   -0.24931E-04 34712   0.639E-02    0.150E-01
DAV:   6    -0.319872050022E+03    0.62782E-04   -0.25939E-04 35088   0.733E-02    0.136E-01
DAV:   7    -0.319872029620E+03    0.20401E-04   -0.21139E-04 35800   0.646E-02    0.758E-02
DAV:   8    -0.319872030142E+03   -0.52133E-06   -0.88874E-05 33632   0.336E-02
  92 F= -.31987203E+03 E0= -.31986856E+03  d E =0.394323E-02  mag=    44.0000
       N       E                     dE             d eps       ncg     rms          rms(c)
DAV:   1    -0.319847475494E+03    0.24554E-01   -0.26104E+00 36560   0.615E+00    0.602E-01
DAV:   2    -0.319870230332E+03   -0.22755E-01   -0.22257E-01 33304   0.113E+00    0.328E-01
DAV:   3    -0.319870910170E+03   -0.67984E-03   -0.55851E-03 34584   0.218E-01    0.260E-01
DAV:   4    -0.319870848596E+03    0.61575E-04   -0.74584E-04 37440   0.948E-02    0.154E-01
DAV:   5    -0.319870778941E+03    0.69654E-04   -0.16176E-04 33696   0.564E-02    0.124E-01
DAV:   6    -0.319870751849E+03    0.27092E-04   -0.21905E-04 35904   0.635E-02    0.121E-01
DAV:   7    -0.319870740150E+03    0.11699E-04   -0.15362E-04 33824   0.503E-02    0.512E-02
DAV:   8    -0.319870741146E+03   -0.99607E-06   -0.48116E-05 28408   0.245E-02
  93 F= -.31987074E+03 E0= -.31986729E+03  d E =0.128900E-02  mag=    44.0000
       N       E                     dE             d eps       ncg     rms          rms(c)
DAV:   1    -0.319850457028E+03    0.20283E-01   -0.11499E+00 39864   0.485E+00    0.570E-01
DAV:   2    -0.319867782493E+03   -0.17325E-01   -0.17307E-01 34384   0.878E-01    0.372E-01
DAV:   3    -0.319868596505E+03   -0.81401E-03   -0.65820E-03 33520   0.230E-01    0.350E-01
DAV:   4    -0.319868446996E+03    0.14951E-03   -0.12055E-03 36520   0.114E-01    0.155E-01
DAV:   5    -0.319868382335E+03    0.64661E-04   -0.21935E-04 34128   0.560E-02    0.120E-01
DAV:   6    -0.319868345784E+03    0.36550E-04   -0.21251E-04 36352   0.615E-02    0.118E-01
DAV:   7    -0.319868329600E+03    0.16185E-04   -0.15784E-04 33864   0.505E-02    0.628E-02
DAV:   8    -0.319868329004E+03    0.59602E-06   -0.57022E-05 27760   0.266E-02
  94 F= -.31986833E+03 E0= -.31986488E+03  d E =0.241214E-02  mag=    44.0000
       N       E                     dE             d eps       ncg     rms          rms(c)
DAV:   1    -0.319864110444E+03    0.42192E-02   -0.28068E-01 46768   0.279E+00    0.362E-01
DAV:   2    -0.319870319602E+03   -0.62092E-02   -0.62841E-02 34288   0.463E-01    0.222E-01
DAV:   3    -0.319870716508E+03   -0.39691E-03   -0.28129E-03 33008   0.143E-01    0.211E-01
DAV:   4    -0.319870668537E+03    0.47971E-04   -0.46170E-04 35384   0.706E-02    0.108E-01
DAV:   5    -0.319870641089E+03    0.27448E-04   -0.93049E-05 29784   0.370E-02    0.742E-02
DAV:   6    -0.319870624286E+03    0.16803E-04   -0.10236E-04 33928   0.409E-02    0.675E-02
DAV:   7    -0.319870619258E+03    0.50278E-05   -0.58548E-05 27080   0.294E-02
  95 F= -.31987062E+03 E0= -.31986717E+03  d E =-.229025E-02  mag=    44.0000
