       N       E                     dE             d eps       ncg     rms          ort
DAV:   1     0.809808206467E+04    0.80981E+04   -0.30170E+05 36064   0.202E+03
DAV:   2     0.674871862588E+03   -0.74232E+04   -0.69167E+04 36064   0.551E+02
DAV:   3    -0.668154476595E+03   -0.13430E+04   -0.12616E+04 36064   0.236E+02
DAV:   4    -0.760620851677E+03   -0.92466E+02   -0.91751E+02 36064   0.596E+01
DAV:   5    -0.764772179793E+03   -0.41513E+01   -0.41280E+01 36064   0.949E+00
SDA:   6    -0.615748433538E+03    0.14902E+03   -0.41280E+01 36064   0.451E+02 0.000E+00
CGA:   7    -0.622565685563E+03   -0.68173E+01   -0.68473E+01 36064   0.514E+01 0.324E+00
CGA:   8    -0.623415834559E+03   -0.85015E+00   -0.85276E+00 36064   0.194E+01 0.824E-01
CGA:   9    -0.623786361013E+03   -0.37053E+00   -0.37084E+00 36064   0.756E+00 0.402E-01
CGA:  10    -0.623940941767E+03   -0.15458E+00   -0.15450E+00 36064   0.403E+00 0.163E-01
CGA:  11    -0.624023135618E+03   -0.82194E-01   -0.82152E-01 36064   0.159E+00 0.980E-02
CGA:  12    -0.624064449888E+03   -0.41314E-01   -0.40781E-01 36064   0.826E-01 0.935E-02
CGA:  13    -0.624083287301E+03   -0.18837E-01   -0.18704E-01 36064   0.269E-01 0.861E-02
CGA:  14    -0.624090100919E+03   -0.68136E-02   -0.66668E-02 36064   0.101E-01 0.579E-02
CGA:  15    -0.624092708676E+03   -0.26078E-02   -0.25755E-02 36064   0.421E-02 0.352E-02
CGA:  16    -0.624093905466E+03   -0.11968E-02   -0.11794E-02 36064   0.243E-02 0.268E-02
CGA:  17    -0.624094584904E+03   -0.67944E-03   -0.62533E-03 36064   0.119E-02 0.974E-03
CGA:  18    -0.624095102020E+03   -0.51712E-03   -0.44781E-03 36064   0.692E-03 0.108E-02
CGA:  19    -0.624095276509E+03   -0.17449E-03   -0.16179E-03 36064   0.412E-03 0.484E-03
CGA:  20    -0.624095362292E+03   -0.85783E-04   -0.85882E-04 36064   0.316E-03 0.374E-03
CGA:  21    -0.624095424376E+03   -0.62085E-04   -0.63957E-04 36064   0.252E-03 0.295E-03
CGA:  22    -0.624095469508E+03   -0.45132E-04   -0.48702E-04 36064   0.205E-03 0.238E-03
CGA:  23    -0.624095503411E+03   -0.33903E-04   -0.38112E-04 36064   0.169E-03 0.195E-03
CGA:  24    -0.624095529504E+03   -0.26093E-04   -0.30426E-04 36064   0.141E-03 0.162E-03
CGA:  25    -0.624095549968E+03   -0.20464E-04   -0.24668E-04 36064   0.119E-03 0.136E-03
CGA:  26    -0.624095566304E+03   -0.16337E-04   -0.20270E-04 36064   0.102E-03 0.115E-03
CGA:  27    -0.624095579535E+03   -0.13231E-04   -0.16837E-04 36064   0.872E-04 0.987E-04
CGA:  28    -0.624095590413E+03   -0.10878E-04   -0.14127E-04 36064   0.752E-04 0.849E-04
CGA:  29    -0.624095599457E+03   -0.90443E-05   -0.11946E-04 36064   0.652E-04 0.734E-04
CGA:  30    -0.624095607088E+03   -0.76304E-05   -0.10188E-04 36064   0.567E-04 0.638E-04
   1 F= -.62409561E+03 E0= -.62409561E+03  d E =-.624096E+03  mag=    36.0000
