       N       E                     dE             d eps       ncg     rms          ort
DAV:   1     0.595072393820E+04    0.59507E+04   -0.32155E+05 29792   0.191E+03
DAV:   2     0.473183771867E+02   -0.59034E+04   -0.56277E+04 29792   0.552E+02
DAV:   3    -0.545553383239E+03   -0.59287E+03   -0.56552E+03 29792   0.196E+02
DAV:   4    -0.562109752084E+03   -0.16556E+02   -0.16463E+02 29792   0.368E+01
DAV:   5    -0.562354024082E+03   -0.24427E+00   -0.24409E+00 29792   0.447E+00
SDA:   6    -0.404020818282E+03    0.15833E+03   -0.24409E+00 29792   0.575E+03 0.000E+00
CGA:   7    -0.416575370721E+03   -0.12555E+02   -0.26332E+02 29792   0.473E+03-0.112E+03
CGA:   8    -0.424870391397E+03   -0.82950E+01   -0.10281E+02 29792   0.182E+03 0.134E+03
CGA:   9    -0.425462938833E+03   -0.59255E+00   -0.76248E+01 29792   0.321E+03-0.204E+03
CGA:  10    -0.431123186110E+03   -0.56602E+01   -0.70608E+01 29792   0.233E+02 0.694E+02
CGA:  11    -0.431733330740E+03   -0.61014E+00   -0.51660E+00 29792   0.130E+02 0.112E+01
CGA:  12    -0.432167114492E+03   -0.43378E+00   -0.28336E+00 29792   0.181E+02 0.703E+01
CGA:  13    -0.432244007361E+03   -0.76893E-01   -0.82810E+00 29792   0.295E+02-0.954E+01
CGA:  14    -0.432813972637E+03   -0.56997E+00   -0.72992E+00 29792   0.187E+02-0.220E+02
CGA:  15    -0.432762537984E+03    0.51435E-01   -0.74652E+00 29792   0.294E+02-0.130E+02
CGA:  16    -0.433096009910E+03   -0.33347E+00   -0.78624E+00 29792   0.302E+02-0.309E+02
CGA:  17    -0.433065039543E+03    0.30970E-01   -0.10078E+01 29792   0.308E+02-0.202E+02
CGA:  18    -0.433401317707E+03   -0.33628E+00   -0.81183E+00 29792   0.278E+02-0.307E+02
CGA:  19    -0.433287974233E+03    0.11334E+00   -0.96374E+00 29792   0.327E+02-0.212E+02
CGA:  20    -0.433647208013E+03   -0.35923E+00   -0.85092E+00 29792   0.257E+02-0.307E+02
CGA:  21    -0.433525687068E+03    0.12152E+00   -0.89260E+00 29792   0.314E+02-0.210E+02
CGA:  22    -0.433899037563E+03   -0.37335E+00   -0.79458E+00 29792   0.197E+02-0.258E+02
CGA:  23    -0.433921112339E+03   -0.22075E-01   -0.61554E+00 29792   0.192E+02-0.148E+02
CGA:  24    -0.434211197322E+03   -0.29008E+00   -0.42933E+00 29792   0.604E+01-0.906E+01
CGA:  25    -0.434453900229E+03   -0.24270E+00   -0.24957E+00 29792   0.363E+01 0.126E+00
CGA:  26    -0.434578830083E+03   -0.12493E+00   -0.11996E+00 29792   0.188E+01 0.942E-01
CGA:  27    -0.434821287436E+03   -0.24246E+00   -0.23349E+00 29792   0.425E+01 0.241E+00
CGA:  28    -0.435032561913E+03   -0.21127E+00   -0.22774E+00 29792   0.195E+01-0.165E+00
CGA:  29    -0.435105848968E+03   -0.73287E-01   -0.78072E-01 29792   0.613E+00-0.184E-01
CGA:  30    -0.435136623066E+03   -0.30774E-01   -0.31752E-01 29792   0.508E+00 0.514E-03
CGA:  31    -0.435181907612E+03   -0.45285E-01   -0.45265E-01 29792   0.678E+00 0.149E-01
CGA:  32    -0.435222789978E+03   -0.40882E-01   -0.42776E-01 29792   0.354E+00 0.106E-01
CGA:  33    -0.435238192077E+03   -0.15402E-01   -0.15506E-01 29792   0.130E+00 0.691E-02
CGA:  34    -0.435247898001E+03   -0.97059E-02   -0.97927E-02 29792   0.159E+00 0.416E-02
CGA:  35    -0.435261018997E+03   -0.13121E-01   -0.13129E-01 29792   0.142E+00 0.522E-02
CGA:  36    -0.435269175147E+03   -0.81562E-02   -0.85116E-02 29792   0.702E-01 0.505E-02
CGA:  37    -0.435272732126E+03   -0.35570E-02   -0.36736E-02 29792   0.359E-01 0.575E-02
CGA:  38    -0.435275904314E+03   -0.31722E-02   -0.31667E-02 29792   0.400E-01 0.611E-02
CGA:  39    -0.435278884107E+03   -0.29798E-02   -0.30726E-02 29792   0.285E-01 0.703E-02
CGA:  40    -0.435281268423E+03   -0.23843E-02   -0.24255E-02 29792   0.257E-01 0.465E-02
CGA:  41    -0.435283243906E+03   -0.19755E-02   -0.20278E-02 29792   0.187E-01 0.462E-02
CGA:  42    -0.435284919577E+03   -0.16757E-02   -0.16832E-02 29792   0.205E-01 0.248E-02
CGA:  43    -0.435286714093E+03   -0.17945E-02   -0.17994E-02 29792   0.159E-01 0.390E-02
CGA:  44    -0.435288108634E+03   -0.13945E-02   -0.14042E-02 29792   0.185E-01 0.184E-02
CGA:  45    -0.435289971736E+03   -0.18631E-02   -0.18266E-02 29792   0.142E-01 0.381E-02
CGA:  46    -0.435291062362E+03   -0.10906E-02   -0.11071E-02 29792   0.145E-01 0.984E-03
CGA:  47    -0.435292822465E+03   -0.17601E-02   -0.16700E-02 29792   0.146E-01 0.304E-02
CGA:  48    -0.435293971410E+03   -0.11489E-02   -0.11548E-02 29792   0.156E-01 0.357E-03
CGA:  49    -0.435295795499E+03   -0.18241E-02   -0.17566E-02 29792   0.143E-01 0.208E-02
CGA:  50    -0.435296732294E+03   -0.93679E-03   -0.93291E-03 29792   0.121E-01-0.233E-03
CGA:  51    -0.435298136731E+03   -0.14044E-02   -0.13628E-02 29792   0.143E-01 0.116E-02
CGA:  52    -0.435299114187E+03   -0.97746E-03   -0.97292E-03 29792   0.119E-01-0.277E-03
CGA:  53    -0.435300183676E+03   -0.10695E-02   -0.10608E-02 29792   0.109E-01 0.833E-03
SDA:  54    -0.435300995835E+03   -0.81216E-03   -0.80353E-03 29792   0.113E-01-0.771E-03
CGA:  55    -0.435301261225E+03   -0.26539E-03   -0.26824E-03 29792   0.234E-02 0.260E-03
CGA:  56    -0.435301665458E+03   -0.40423E-03    0.10010E-02 29792   0.215E-02 0.204E-02
CGA:  57    -0.435301862856E+03   -0.19740E-03   -0.22042E-03 29792   0.110E-01-0.913E-03
CGA:  58    -0.435302447327E+03   -0.58447E-03   -0.83598E-03 29792   0.622E-01-0.466E-02
CGA:  59    -0.435303164889E+03   -0.71756E-03   -0.54765E-03 29792   0.277E-01-0.184E-02
CGA:  60    -0.435303498083E+03   -0.33319E-03   -0.28791E-03 29792   0.552E-02 0.281E-03
CGA:  61    -0.435303579075E+03   -0.80993E-04   -0.78777E-04 29792   0.343E-02 0.213E-04
CGA:  62    -0.435303701464E+03   -0.12239E-03   -0.12084E-03 29792   0.883E-02-0.583E-04
CGA:  63    -0.435304024116E+03   -0.32265E-03   -0.30967E-03 29792   0.135E-01-0.518E-03
CGA:  64    -0.435304249731E+03   -0.22561E-03   -0.20077E-03 29792   0.637E-02-0.436E-03
CGA:  65    -0.435304368846E+03   -0.11911E-03   -0.11141E-03 29792   0.594E-02-0.204E-03
CGA:  66    -0.435304527506E+03   -0.15866E-03   -0.16426E-03 29792   0.963E-02 0.175E-03
CGA:  67    -0.435304696173E+03   -0.16867E-03   -0.19213E-03 29792   0.504E-02 0.535E-03
CGA:  68    -0.435304753438E+03   -0.57265E-04   -0.69297E-04 29792   0.174E-02 0.303E-03
CGA:  69    -0.435304793326E+03   -0.39887E-04   -0.40446E-04 29792   0.233E-02 0.258E-04
CGA:  70    -0.435304929891E+03   -0.13657E-03   -0.13959E-03 29792   0.977E-02-0.814E-03
CGA:  71    -0.435305067860E+03   -0.13797E-03   -0.91022E-04 29792   0.100E-01-0.114E-02
CGA:  72    -0.435305208483E+03   -0.14062E-03   -0.95297E-04 29792   0.420E-02-0.112E-02
CGA:  73    -0.435305267589E+03   -0.59105E-04   -0.40914E-04 29792   0.256E-02-0.481E-03
CGA:  74    -0.435305313233E+03   -0.45644E-04   -0.38780E-04 29792   0.368E-02-0.230E-03
CGA:  75    -0.435305376353E+03   -0.63121E-04   -0.65783E-04 29792   0.528E-02 0.500E-04
CGA:  76    -0.435305435444E+03   -0.59091E-04   -0.73670E-04 29792   0.319E-02 0.438E-03
CGA:  77    -0.435305458562E+03   -0.23118E-04   -0.37557E-04 29792   0.175E-02 0.458E-03
CGA:  78    -0.435305472562E+03   -0.14000E-04   -0.27046E-04 29792   0.194E-02 0.452E-03
CGA:  79    -0.435305501732E+03   -0.29171E-04   -0.45584E-04 29792   0.305E-02 0.731E-03
CGA:  80    -0.435305556689E+03   -0.54957E-04   -0.76071E-04 29792   0.258E-02 0.981E-03
CGA:  81    -0.435305592170E+03   -0.35481E-04   -0.46985E-04 29792   0.127E-02 0.446E-03
CGA:  82    -0.435305616160E+03   -0.23990E-04   -0.27387E-04 29792   0.162E-02 0.172E-03
CGA:  83    -0.435305662405E+03   -0.46245E-04   -0.50078E-04 29792   0.363E-02 0.392E-03
CGA:  84    -0.435305750902E+03   -0.88496E-04   -0.10300E-03 29792   0.345E-02 0.105E-02
CGA:  85    -0.435305791605E+03   -0.40704E-04   -0.59279E-04 29792   0.104E-02 0.835E-03
CGA:  86    -0.435305800655E+03   -0.90494E-05   -0.17159E-04 29792   0.707E-03 0.382E-03
SDA:  87    -0.435305813787E+03   -0.13132E-04   -0.19300E-04 29792   0.113E-02 0.455E-03
CGA:  88    -0.435305861482E+03   -0.47695E-04   -0.49108E-04 29792   0.114E-02-0.135E-03
CGA:  89    -0.435305926668E+03   -0.65186E-04   -0.53643E-04 29792   0.484E-03 0.576E-03
CGA:  90    -0.435305934589E+03   -0.79210E-05   -0.10185E-04 29792   0.178E-03 0.170E-03
   1 F= -.43530593E+03 E0= -.43529590E+03  d E =-.435306E+03  mag=     6.5778
       N       E                     dE             d eps       ncg     rms          ort
SDA:   1    -0.435267765449E+03    0.38161E-01    0.00000E+00 29792   0.608E+00 0.000E+00
CGA:   2    -0.435281816351E+03   -0.14051E-01   -0.13776E-01 29792   0.766E-01 0.485E-02
CGA:   3    -0.435296672822E+03   -0.14856E-01   -0.32113E-03 29792   0.443E-01-0.864E-02
CGA:   4    -0.435301706828E+03   -0.50340E-02   -0.50262E-02 29792   0.671E-01 0.128E-03
CGA:   5    -0.435303838863E+03   -0.21320E-02   -0.21524E-02 29792   0.119E-01 0.171E-02
CGA:   6    -0.435305498474E+03   -0.16596E-02   -0.16753E-02 29792   0.374E-02-0.212E-03
CGA:   7    -0.435305672712E+03   -0.17424E-03   -0.17919E-03 29792   0.322E-02 0.301E-03
CGA:   8    -0.435305942233E+03   -0.26952E-03   -0.27168E-03 29792   0.110E-02-0.168E-03
CGA:   9    -0.435306001685E+03   -0.59452E-04   -0.60442E-04 29792   0.847E-03 0.131E-03
CGA:  10    -0.435306073397E+03   -0.71713E-04   -0.73435E-04 29792   0.729E-03-0.143E-03
CGA:  11    -0.435306094957E+03   -0.21560E-04   -0.25092E-04 29792   0.296E-03 0.144E-03
CGA:  12    -0.435306116927E+03   -0.21970E-04   -0.22260E-04 29792   0.163E-03 0.143E-03
CGA:  13    -0.435306129749E+03   -0.12822E-04   -0.13108E-04 29792   0.229E-03 0.272E-04
CGA:  14    -0.435306140305E+03   -0.10556E-04   -0.12883E-04 29792   0.185E-03 0.145E-03
CGA:  15    -0.435306145357E+03   -0.50516E-05   -0.63155E-05 29792   0.955E-04 0.434E-04
CGA:  16    -0.435306156940E+03   -0.11583E-04   -0.13282E-04 29792   0.166E-03-0.332E-04
CGA:  17    -0.435306164460E+03   -0.75205E-05   -0.73261E-05 29792   0.257E-03 0.603E-04
CGA:  18    -0.435306188246E+03   -0.23786E-04   -0.23397E-04 29792   0.120E-03 0.177E-03
CGA:  19    -0.435306195872E+03   -0.76257E-05   -0.75728E-05 29792   0.215E-03-0.277E-04
   2 F= -.43530620E+03 E0= -.43529620E+03  d E =-.261283E-03  mag=     6.5724
       N       E                     dE             d eps       ncg     rms          ort
SDA:   1    -0.435298583298E+03    0.76049E-02    0.00000E+00 29792   0.315E+00 0.000E+00
CGA:   2    -0.435304914951E+03   -0.63317E-02   -0.66376E-02 29792   0.822E-02-0.167E-01
CGA:   3    -0.435305414029E+03   -0.49908E-03   -0.49764E-03 29792   0.523E-02 0.569E-03
CGA:   4    -0.435305729073E+03   -0.31504E-03   -0.31359E-03 29792   0.424E-02-0.289E-03
CGA:   5    -0.435306078914E+03   -0.34984E-03   -0.34342E-03 29792   0.207E-02 0.264E-03
CGA:   6    -0.435306213513E+03   -0.13460E-03   -0.13422E-03 29792   0.200E-02-0.318E-03
CGA:   7    -0.435306296371E+03   -0.82858E-04   -0.84541E-04 29792   0.590E-03 0.139E-03
CGA:   8    -0.435306359007E+03   -0.62637E-04   -0.58373E-04 29792   0.184E-03 0.138E-03
CGA:   9    -0.435306374670E+03   -0.15662E-04   -0.16290E-04 29792   0.522E-03-0.739E-04
CGA:  10    -0.435306385184E+03   -0.10514E-04   -0.11299E-04 29792   0.696E-03 0.285E-04
CGA:  11    -0.435306393964E+03   -0.87804E-05   -0.12902E-04 29792   0.144E-03 0.943E-04
   3 F= -.43530639E+03 E0= -.43529638E+03  d E =-.459375E-03  mag=     6.5740
       N       E                     dE             d eps       ncg     rms          ort
SDA:   1    -0.435302060502E+03    0.43247E-02    0.00000E+00 29792   0.983E-01 0.000E+00
CGA:   2    -0.435304155184E+03   -0.20947E-02   -0.20731E-02 29792   0.801E-02 0.361E-02
CGA:   3    -0.435305336487E+03   -0.11813E-02   -0.11474E-02 29792   0.733E-02 0.420E-03
CGA:   4    -0.435305687917E+03   -0.35143E-03   -0.34244E-03 29792   0.678E-02-0.586E-03
CGA:   5    -0.435306191701E+03   -0.50378E-03   -0.50994E-03 29792   0.196E-02-0.276E-03
CGA:   6    -0.435306355986E+03   -0.16428E-03   -0.15739E-03 29792   0.252E-02 0.300E-03
CGA:   7    -0.435306480558E+03   -0.12457E-03   -0.12278E-03 29792   0.615E-03-0.945E-04
CGA:   8    -0.435306512565E+03   -0.32007E-04   -0.32809E-04 29792   0.287E-03 0.146E-03
CGA:   9    -0.435306544903E+03   -0.32338E-04   -0.37264E-04 29792   0.584E-03-0.110E-03
CGA:  10    -0.435306551794E+03   -0.68907E-05   -0.88834E-05 29792   0.289E-03 0.525E-04
   4 F= -.43530655E+03 E0= -.43529654E+03  d E =-.617204E-03  mag=     6.5743
       N       E                     dE             d eps       ncg     rms          ort
SDA:   1    -0.435303197808E+03    0.33471E-02    0.00000E+00 29792   0.690E-01 0.000E+00
CGA:   2    -0.435304839456E+03   -0.16416E-02   -0.16401E-02 29792   0.113E-01 0.193E-02
CGA:   3    -0.435305706505E+03   -0.86705E-03   -0.88193E-03 29792   0.345E-02-0.704E-03
CGA:   4    -0.435306169858E+03   -0.46335E-03   -0.50591E-03 29792   0.874E-02-0.432E-03
CGA:   5    -0.435306370880E+03   -0.20102E-03   -0.20921E-03 29792   0.125E-02 0.287E-03
CGA:   6    -0.435306441071E+03   -0.70191E-04   -0.70976E-04 29792   0.212E-02 0.127E-03
CGA:   7    -0.435306597524E+03   -0.15645E-03   -0.15819E-03 29792   0.442E-03-0.254E-03
CGA:   8    -0.435306624178E+03   -0.26654E-04   -0.26475E-04 29792   0.502E-03 0.264E-04
CGA:   9    -0.435306636127E+03   -0.11949E-04   -0.16271E-04 29792   0.103E-03 0.141E-03
CGA:  10    -0.435306643662E+03   -0.75348E-05   -0.76252E-05 29792   0.156E-03 0.473E-04
CGA:  11    -0.435306662597E+03   -0.18935E-04   -0.24876E-04 29792   0.259E-03-0.121E-03
CGA:  12    -0.435306666323E+03   -0.37264E-05   -0.63569E-05 29792   0.903E-04 0.702E-04
   5 F= -.43530667E+03 E0= -.43529666E+03  d E =-.731734E-03  mag=     6.5739
