       N       E                     dE             d eps       ncg     rms          rms(c)
DAV:   1     0.714812754124E+04    0.71481E+04   -0.25383E+05 33280   0.164E+03
DAV:   2     0.759072169635E+03   -0.63891E+04   -0.60919E+04 33776   0.511E+02
DAV:   3    -0.365648880272E+03   -0.11247E+04   -0.11026E+04 36960   0.208E+02
DAV:   4    -0.430349999606E+03   -0.64701E+02   -0.62639E+02 43896   0.518E+01
DAV:   5    -0.435829241415E+03   -0.54792E+01   -0.52736E+01 58944   0.121E+01    0.627E+01
DAV:   6    -0.391555618213E+03    0.44274E+02   -0.39388E+02 49640   0.550E+01    0.560E+01
DAV:   7    -0.452863570500E+03   -0.61308E+02   -0.41575E+02 49272   0.444E+01    0.623E+01
DAV:   8    -0.444465261088E+03    0.83983E+01   -0.13673E+02 47056   0.292E+01    0.801E+01
DAV:   9    -0.404407440516E+03    0.40058E+02   -0.12342E+02 44112   0.152E+01    0.452E+01
DAV:  10    -0.395815676953E+03    0.85918E+01   -0.33201E+01 48008   0.121E+01    0.345E+01
DAV:  11    -0.392948175628E+03    0.28675E+01   -0.27272E+01 48064   0.896E+00    0.378E+01
DAV:  12    -0.386864561353E+03    0.60836E+01   -0.18851E+01 47736   0.803E+00    0.261E+01
DAV:  13    -0.389566183406E+03   -0.27016E+01   -0.37173E+01 47480   0.823E+00    0.382E+01
DAV:  14    -0.389733697226E+03   -0.16751E+00   -0.38953E+01 48176   0.703E+00    0.341E+01
DAV:  15    -0.390915221859E+03   -0.11815E+01   -0.44590E+01 46896   0.660E+00    0.326E+01
DAV:  16    -0.387752996471E+03    0.31622E+01   -0.19355E+01 47128   0.610E+00    0.188E+01
DAV:  17    -0.387790142557E+03   -0.37146E-01   -0.62693E+00 46328   0.334E+00    0.170E+01
DAV:  18    -0.388110007051E+03   -0.31986E+00   -0.10456E+00 45856   0.218E+00    0.165E+01
DAV:  19    -0.388045652872E+03    0.64354E-01   -0.11146E+00 46192   0.240E+00    0.160E+01
DAV:  20    -0.387801723224E+03    0.24393E+00   -0.99426E-01 47272   0.220E+00    0.124E+01
DAV:  21    -0.387837343047E+03   -0.35620E-01   -0.14852E+00 46480   0.200E+00    0.902E+00
DAV:  22    -0.387898628346E+03   -0.61285E-01   -0.16879E-01 45216   0.992E-01    0.811E+00
DAV:  23    -0.387946964295E+03   -0.48336E-01   -0.10496E-01 46384   0.825E-01    0.713E+00
DAV:  24    -0.388167872287E+03   -0.22091E+00   -0.71934E-01 46792   0.137E+00    0.105E+01
DAV:  25    -0.388147358446E+03    0.20514E-01   -0.64199E-01 46632   0.134E+00    0.861E+00
DAV:  26    -0.388160860577E+03   -0.13502E-01   -0.89881E-02 44768   0.647E-01    0.777E+00
DAV:  27    -0.388167740530E+03   -0.68800E-02   -0.86986E-03 38816   0.206E-01    0.758E+00
DAV:  28    -0.388202292329E+03   -0.34552E-01   -0.57093E-01 48024   0.135E+00    0.589E+00
DAV:  29    -0.388297250479E+03   -0.94958E-01   -0.40884E-01 46032   0.950E-01    0.684E+00
DAV:  30    -0.388285444916E+03    0.11806E-01   -0.39384E-01 47400   0.120E+00    0.589E+00
DAV:  31    -0.388291324550E+03   -0.58796E-02   -0.11978E-01 46744   0.839E-01    0.413E+00
DAV:  32    -0.388323780713E+03   -0.32456E-01   -0.12090E-01 45136   0.730E-01    0.406E+00
DAV:  33    -0.388339845603E+03   -0.16065E-01   -0.15184E-01 45728   0.578E-01    0.387E+00
DAV:  34    -0.388340479133E+03   -0.63353E-03   -0.43634E-03 36472   0.185E-01    0.391E+00
DAV:  35    -0.388339015496E+03    0.14636E-02   -0.23515E-03 44504   0.133E-01    0.367E+00
DAV:  36    -0.388356386213E+03   -0.17371E-01   -0.24286E-02 47248   0.468E-01    0.352E+00
DAV:  37    -0.388362683105E+03   -0.62969E-02   -0.73090E-02 48064   0.643E-01    0.319E+00
DAV:  38    -0.388356173071E+03    0.65100E-02   -0.27458E-02 40368   0.414E-01    0.229E+00
DAV:  39    -0.388356849549E+03   -0.67648E-03   -0.20884E-02 45208   0.290E-01    0.191E+00
DAV:  40    -0.388360255124E+03   -0.34056E-02   -0.17458E-02 44272   0.281E-01    0.164E+00
DAV:  41    -0.388360284251E+03   -0.29127E-04   -0.17013E-02 45352   0.273E-01    0.121E+00
DAV:  42    -0.388364099140E+03   -0.38149E-02   -0.83752E-03 44400   0.171E-01    0.146E+00
DAV:  43    -0.388364286035E+03   -0.18690E-03   -0.34468E-03 44040   0.147E-01    0.126E+00
DAV:  44    -0.388363934849E+03    0.35119E-03   -0.62745E-03 46040   0.183E-01    0.109E+00
DAV:  45    -0.388364314352E+03   -0.37950E-03   -0.30775E-03 43304   0.132E-01    0.940E-01
DAV:  46    -0.388364182330E+03    0.13202E-03   -0.41243E-03 44848   0.187E-01    0.641E-01
DAV:  47    -0.388364680036E+03   -0.49771E-03   -0.20255E-03 40784   0.108E-01    0.650E-01
DAV:  48    -0.388364759041E+03   -0.79005E-04   -0.17082E-03 43640   0.834E-02    0.524E-01
DAV:  49    -0.388365136736E+03   -0.37769E-03   -0.75290E-04 40152   0.623E-02    0.543E-01
DAV:  50    -0.388365060984E+03    0.75752E-04   -0.29453E-04 39552   0.453E-02    0.487E-01
DAV:  51    -0.388365091296E+03   -0.30311E-04   -0.73831E-04 42016   0.709E-02    0.459E-01
DAV:  52    -0.388365230066E+03   -0.13877E-03   -0.84172E-04 45784   0.525E-02    0.455E-01
DAV:  53    -0.388365387261E+03   -0.15720E-03   -0.56147E-04 42040   0.556E-02    0.352E-01
DAV:  54    -0.388365479690E+03   -0.92429E-04   -0.50291E-04 40856   0.512E-02    0.272E-01
DAV:  55    -0.388365583703E+03   -0.10401E-03   -0.19651E-04 37320   0.319E-02    0.285E-01
DAV:  56    -0.388365855032E+03   -0.27133E-03   -0.87758E-04 40896   0.667E-02    0.262E-01
DAV:  57    -0.388365917057E+03   -0.62025E-04   -0.33084E-04 42664   0.421E-02    0.253E-01
DAV:  58    -0.388365931664E+03   -0.14606E-04   -0.12630E-04 32296   0.234E-02    0.223E-01
DAV:  59    -0.388365967652E+03   -0.35989E-04   -0.14147E-04 35544   0.269E-02    0.181E-01
DAV:  60    -0.388366003246E+03   -0.35593E-04   -0.11730E-04 30424   0.255E-02    0.168E-01
DAV:  61    -0.388366033239E+03   -0.29993E-04   -0.13382E-04 33304   0.238E-02    0.169E-01
DAV:  62    -0.388366017848E+03    0.15392E-04   -0.38740E-05 27120   0.176E-02    0.133E-01
DAV:  63    -0.388366016440E+03    0.14072E-05   -0.15762E-05 23152   0.971E-03
   1 F= -.38836602E+03 E0= -.38833848E+03  d E =-.388366E+03  mag=    17.9905
       N       E                     dE             d eps       ncg     rms          rms(c)
DAV:   1    -0.387989090393E+03    0.37693E+00   -0.43121E+01 36808   0.231E+01    0.478E+00
DAV:   2    -0.389280289059E+03   -0.12912E+01   -0.13597E+01 34840   0.591E+00    0.152E+01
DAV:   3    -0.388657663496E+03    0.62263E+00   -0.41397E+00 44576   0.318E+00    0.556E+00
DAV:   4    -0.388851560821E+03   -0.19390E+00   -0.11803E+00 47104   0.218E+00    0.115E+01
DAV:   5    -0.388641818213E+03    0.20974E+00   -0.17449E+00 46656   0.147E+00    0.561E+00
DAV:   6    -0.388609196508E+03    0.32622E-01   -0.58634E-01 47336   0.110E+00    0.415E+00
DAV:   7    -0.388630068116E+03   -0.20872E-01   -0.49193E-01 46584   0.924E-01    0.507E+00
DAV:   8    -0.388591656208E+03    0.38412E-01   -0.19458E-01 46928   0.834E-01    0.256E+00
DAV:   9    -0.388595403312E+03   -0.37471E-02   -0.13067E-01 46912   0.609E-01    0.266E+00
DAV:  10    -0.388591158470E+03    0.42448E-02   -0.10348E-01 47248   0.404E-01    0.230E+00
DAV:  11    -0.388587437776E+03    0.37207E-02   -0.28876E-02 46784   0.318E-01    0.147E+00
DAV:  12    -0.388588281632E+03   -0.84386E-03   -0.18787E-02 47752   0.280E-01    0.160E+00
DAV:  13    -0.388587665914E+03    0.61572E-03   -0.23479E-02 47104   0.297E-01    0.169E+00
DAV:  14    -0.388587421270E+03    0.24464E-03   -0.38434E-02 46976   0.315E-01    0.128E+00
DAV:  15    -0.388589150274E+03   -0.17290E-02   -0.20639E-02 47632   0.278E-01    0.128E+00
DAV:  16    -0.388588920987E+03    0.22929E-03   -0.74030E-03 46792   0.191E-01    0.111E+00
DAV:  17    -0.388588718814E+03    0.20217E-03   -0.11486E-03 43368   0.694E-02    0.106E+00
DAV:  18    -0.388588797914E+03   -0.79100E-04   -0.56252E-04 37632   0.455E-02    0.114E+00
DAV:  19    -0.388588761217E+03    0.36697E-04   -0.72975E-05 32152   0.230E-02    0.115E+00
DAV:  20    -0.388589497093E+03   -0.73588E-03   -0.22942E-03 43512   0.908E-02    0.134E+00
DAV:  21    -0.388588469591E+03    0.10275E-02   -0.40470E-03 46184   0.124E-01    0.107E+00
DAV:  22    -0.388587378214E+03    0.10914E-02   -0.63047E-03 46968   0.197E-01    0.891E-01
DAV:  23    -0.388586894192E+03    0.48402E-03   -0.34549E-03 45992   0.129E-01    0.707E-01
DAV:  24    -0.388586948445E+03   -0.54253E-04   -0.44824E-03 44880   0.968E-02    0.469E-01
DAV:  25    -0.388586995049E+03   -0.46604E-04   -0.61724E-04 42032   0.494E-02    0.373E-01
DAV:  26    -0.388586993701E+03    0.13485E-05   -0.38851E-04 37992   0.430E-02    0.361E-01
DAV:  27    -0.388586896861E+03    0.96840E-04   -0.63531E-04 41312   0.542E-02    0.229E-01
DAV:  28    -0.388586905457E+03   -0.85966E-05   -0.55320E-04 45368   0.556E-02    0.146E-01
DAV:  29    -0.388586958591E+03   -0.53134E-04   -0.23731E-04 34080   0.302E-02    0.141E-01
DAV:  30    -0.388586954589E+03    0.40018E-05   -0.75766E-05 30016   0.199E-02
   2 F= -.38858695E+03 E0= -.38855916E+03  d E =-.220938E+00  mag=    17.9987
       N       E                     dE             d eps       ncg     rms          rms(c)
DAV:   1    -0.387211120212E+03    0.13758E+01   -0.10004E+02 36424   0.349E+01    0.737E+00
DAV:   2    -0.389937292958E+03   -0.27262E+01   -0.28504E+01 34216   0.921E+00    0.201E+01
DAV:   3    -0.388999102347E+03    0.93819E+00   -0.11631E+01 46200   0.488E+00    0.124E+01
DAV:   4    -0.389316422534E+03   -0.31732E+00   -0.62445E+00 45904   0.338E+00    0.133E+01
DAV:   5    -0.388929159099E+03    0.38726E+00   -0.28818E+00 47208   0.266E+00    0.948E+00
DAV:   6    -0.388765423393E+03    0.16374E+00   -0.12914E+00 46248   0.177E+00    0.576E+00
DAV:   7    -0.388716652736E+03    0.48771E-01   -0.57131E-01 46976   0.155E+00    0.436E+00
DAV:   8    -0.388701353622E+03    0.15299E-01   -0.19575E-01 47928   0.996E-01    0.355E+00
DAV:   9    -0.388704851287E+03   -0.34977E-02   -0.40267E-01 47240   0.115E+00    0.444E+00
DAV:  10    -0.388702200717E+03    0.26506E-02   -0.27759E-01 47504   0.984E-01    0.370E+00
DAV:  11    -0.388706187863E+03   -0.39871E-02   -0.10650E-01 46736   0.911E-01    0.333E+00
DAV:  12    -0.388706400002E+03   -0.21214E-03   -0.55393E-02 45784   0.518E-01    0.223E+00
DAV:  13    -0.388714236830E+03   -0.78368E-02   -0.50710E-02 46800   0.529E-01    0.268E+00
DAV:  14    -0.388719659208E+03   -0.54224E-02   -0.87602E-02 47096   0.542E-01    0.290E+00
DAV:  15    -0.388713313571E+03    0.63456E-02   -0.96953E-02 46752   0.481E-01    0.198E+00
DAV:  16    -0.388712374911E+03    0.93866E-03   -0.12825E-02 46344   0.254E-01    0.188E+00
DAV:  17    -0.388709948093E+03    0.24268E-02   -0.86467E-03 46600   0.218E-01    0.158E+00
DAV:  18    -0.388709354390E+03    0.59370E-03   -0.18603E-02 47472   0.359E-01    0.176E+00
DAV:  19    -0.388707642353E+03    0.17120E-02   -0.12825E-02 47912   0.302E-01    0.172E+00
DAV:  20    -0.388705903868E+03    0.17385E-02   -0.14536E-02 46872   0.262E-01    0.165E+00
DAV:  21    -0.388706664342E+03   -0.76047E-03   -0.11043E-02 45032   0.232E-01    0.178E+00
DAV:  22    -0.388706583840E+03    0.80502E-04   -0.65044E-03 46568   0.210E-01    0.167E+00
DAV:  23    -0.388705057552E+03    0.15263E-02   -0.60639E-03 46072   0.210E-01    0.120E+00
DAV:  24    -0.388704369260E+03    0.68829E-03   -0.42931E-03 46480   0.156E-01    0.749E-01
DAV:  25    -0.388704574838E+03   -0.20558E-03   -0.35928E-03 45800   0.139E-01    0.514E-01
DAV:  26    -0.388704493442E+03    0.81396E-04   -0.31555E-03 45136   0.123E-01    0.362E-01
DAV:  27    -0.388704532314E+03   -0.38872E-04   -0.11685E-03 40960   0.722E-02    0.399E-01
DAV:  28    -0.388704364951E+03    0.16736E-03   -0.53529E-04 40136   0.521E-02    0.191E-01
DAV:  29    -0.388704399028E+03   -0.34077E-04   -0.53050E-04 40672   0.463E-02    0.204E-01
DAV:  30    -0.388704419215E+03   -0.20187E-04   -0.46292E-04 38584   0.423E-02    0.124E-01
DAV:  31    -0.388704437446E+03   -0.18231E-04   -0.85751E-05 28592   0.198E-02    0.110E-01
DAV:  32    -0.388704434048E+03    0.33977E-05   -0.14316E-05 25032   0.962E-03
   3 F= -.38870443E+03 E0= -.38867796E+03  d E =-.338418E+00  mag=    17.9998
       N       E                     dE             d eps       ncg     rms          rms(c)
DAV:   1    -0.387994102962E+03    0.71033E+00   -0.94469E+01 35872   0.304E+01    0.490E+00
DAV:   2    -0.389555040481E+03   -0.15609E+01   -0.15147E+01 35200   0.736E+00    0.143E+01
DAV:   3    -0.388893318545E+03    0.66172E+00   -0.29062E+00 44912   0.351E+00    0.758E+00
DAV:   4    -0.389095250099E+03   -0.20193E+00   -0.40523E+00 46664   0.216E+00    0.887E+00
DAV:   5    -0.388845001811E+03    0.25025E+00   -0.40910E-01 48304   0.155E+00    0.424E+00
DAV:   6    -0.388832596958E+03    0.12405E-01   -0.33659E-01 47696   0.109E+00    0.349E+00
DAV:   7    -0.388821998302E+03    0.10599E-01   -0.16947E-01 47248   0.739E-01    0.330E+00
DAV:   8    -0.388814333248E+03    0.76651E-02   -0.27890E-01 46800   0.792E-01    0.420E+00
DAV:   9    -0.388791247261E+03    0.23086E-01   -0.58789E-02 46664   0.631E-01    0.225E+00
DAV:  10    -0.388797610791E+03   -0.63635E-02   -0.14617E-01 47120   0.696E-01    0.249E+00
DAV:  11    -0.388815771797E+03   -0.18161E-01   -0.15415E-01 46528   0.683E-01    0.287E+00
DAV:  12    -0.388822622055E+03   -0.68503E-02   -0.49259E-02 46032   0.479E-01    0.292E+00
DAV:  13    -0.388824958825E+03   -0.23368E-02   -0.22925E-02 45680   0.320E-01    0.230E+00
DAV:  14    -0.388825746798E+03   -0.78797E-03   -0.15490E-02 46424   0.296E-01    0.218E+00
DAV:  15    -0.388826496410E+03   -0.74961E-03   -0.26272E-02 47112   0.307E-01    0.201E+00
DAV:  16    -0.388824359673E+03    0.21367E-02   -0.34573E-02 47192   0.348E-01    0.185E+00
DAV:  17    -0.388825208414E+03   -0.84874E-03   -0.17880E-02 47240   0.334E-01    0.218E+00
DAV:  18    -0.388822252329E+03    0.29561E-02   -0.14677E-02 46336   0.237E-01    0.178E+00
DAV:  19    -0.388823015095E+03   -0.76277E-03   -0.15872E-02 46696   0.255E-01    0.179E+00
DAV:  20    -0.388820620535E+03    0.23946E-02   -0.13859E-02 47544   0.305E-01    0.147E+00
DAV:  21    -0.388821331135E+03   -0.71060E-03   -0.95084E-03 44048   0.237E-01    0.131E+00
DAV:  22    -0.388821735483E+03   -0.40435E-03   -0.52199E-03 44048   0.175E-01    0.131E+00
DAV:  23    -0.388821849083E+03   -0.11360E-03   -0.16733E-03 40944   0.106E-01    0.129E+00
DAV:  24    -0.388821898956E+03   -0.49873E-04   -0.19964E-04 35352   0.337E-02    0.133E+00
DAV:  25    -0.388821882012E+03    0.16944E-04   -0.36239E-04 43016   0.497E-02    0.129E+00
DAV:  26    -0.388820764991E+03    0.11170E-02   -0.49491E-03 45040   0.182E-01    0.702E-01
DAV:  27    -0.388821007434E+03   -0.24244E-03   -0.48610E-03 44280   0.142E-01    0.489E-01
DAV:  28    -0.388820872628E+03    0.13481E-03   -0.15634E-03 43728   0.764E-02    0.281E-01
DAV:  29    -0.388820835851E+03    0.36778E-04   -0.41558E-04 41120   0.508E-02    0.229E-01
DAV:  30    -0.388820790771E+03    0.45079E-04   -0.38526E-04 42744   0.606E-02    0.166E-01
DAV:  31    -0.388820769171E+03    0.21601E-04   -0.21639E-04 37848   0.369E-02    0.135E-01
DAV:  32    -0.388820756366E+03    0.12805E-04   -0.13545E-04 31400   0.290E-02    0.938E-02
DAV:  33    -0.388820753074E+03    0.32920E-05   -0.11751E-04 29576   0.237E-02    0.510E-02
DAV:  34    -0.388820754516E+03   -0.14418E-05   -0.25799E-05 25752   0.131E-02
   4 F= -.38882075E+03 E0= -.38879682E+03  d E =-.116320E+00  mag=    18.0000
       N       E                     dE             d eps       ncg     rms          rms(c)
DAV:   1    -0.388812731445E+03    0.80216E-02   -0.10473E+00 35576   0.322E+00    0.505E-01
DAV:   2    -0.388827026247E+03   -0.14295E-01   -0.15147E-01 34032   0.727E-01    0.224E+00
DAV:   3    -0.388823316941E+03    0.37093E-02   -0.69892E-02 44384   0.299E-01    0.137E+00
DAV:   4    -0.388827241456E+03   -0.39245E-02   -0.48824E-02 46536   0.255E-01    0.182E+00
DAV:   5    -0.388822408387E+03    0.48331E-02   -0.38291E-02 46840   0.231E-01    0.841E-01
DAV:   6    -0.388822246268E+03    0.16212E-03   -0.36217E-03 47240   0.144E-01    0.650E-01
DAV:   7    -0.388822256084E+03   -0.98164E-05   -0.42411E-03 47432   0.128E-01    0.497E-01
DAV:   8    -0.388821940467E+03    0.31562E-03   -0.33120E-03 46576   0.119E-01    0.339E-01
DAV:   9    -0.388822058674E+03   -0.11821E-03   -0.81618E-04 38304   0.569E-02    0.419E-01
DAV:  10    -0.388822049542E+03    0.91328E-05   -0.19618E-04 30424   0.291E-02    0.432E-01
DAV:  11    -0.388822026502E+03    0.23039E-04   -0.44783E-05 25880   0.168E-02    0.422E-01
DAV:  12    -0.388821948887E+03    0.77615E-04   -0.13454E-04 31144   0.254E-02    0.328E-01
DAV:  13    -0.388821966600E+03   -0.17713E-04   -0.77739E-04 42424   0.613E-02    0.241E-01
DAV:  14    -0.388821945452E+03    0.21149E-04   -0.58202E-04 36720   0.532E-02    0.166E-01
DAV:  15    -0.388821979422E+03   -0.33970E-04   -0.71282E-05 27440   0.190E-02    0.198E-01
DAV:  16    -0.388821964765E+03    0.14657E-04   -0.11102E-05 22136   0.969E-03    0.190E-01
DAV:  17    -0.388821959357E+03    0.54080E-05   -0.87498E-06 20632   0.847E-03
   5 F= -.38882196E+03 E0= -.38879826E+03  d E =-.117525E+00  mag=    18.0000
       N       E                     dE             d eps       ncg     rms          rms(c)
DAV:   1    -0.388679057739E+03    0.14291E+00   -0.31600E+01 35128   0.163E+01    0.145E+00
DAV:   2    -0.388894093844E+03   -0.21504E+00   -0.21172E+00 33544   0.314E+00    0.317E+00
DAV:   3    -0.388938718014E+03   -0.44624E-01   -0.65015E-01 46960   0.925E-01    0.733E+00
DAV:   4    -0.388896259302E+03    0.42459E-01   -0.44667E-01 47032   0.621E-01    0.293E+00
DAV:   5    -0.388890439112E+03    0.58202E-02   -0.11382E-01 46288   0.426E-01    0.182E+00
DAV:   6    -0.388887525053E+03    0.29141E-02   -0.29705E-02 49144   0.262E-01    0.120E+00
DAV:   7    -0.388887369679E+03    0.15537E-03   -0.85452E-04 42552   0.644E-02    0.117E+00
DAV:   8    -0.388887350626E+03    0.19053E-04   -0.12433E-04 36320   0.229E-02    0.118E+00
DAV:   9    -0.388887405600E+03   -0.54975E-04   -0.75745E-05 27792   0.175E-02    0.118E+00
DAV:  10    -0.388887475913E+03   -0.70312E-04   -0.78448E-05 28600   0.230E-02    0.118E+00
DAV:  11    -0.388887535749E+03   -0.59837E-04   -0.14764E-03 44728   0.933E-02    0.126E+00
DAV:  12    -0.388887167026E+03    0.36872E-03   -0.95074E-03 45888   0.219E-01    0.149E+00
DAV:  13    -0.388888920899E+03   -0.17539E-02   -0.14397E-02 46104   0.291E-01    0.204E+00
DAV:  14    -0.388891327610E+03   -0.24067E-02   -0.15152E-02 45952   0.263E-01    0.260E+00
DAV:  15    -0.388892004578E+03   -0.67697E-03   -0.17403E-03 39792   0.103E-01    0.277E+00
DAV:  16    -0.388890987868E+03    0.10167E-02   -0.51882E-04 41176   0.619E-02    0.262E+00
DAV:  17    -0.388886868665E+03    0.41192E-02   -0.26785E-02 44280   0.390E-01    0.168E+00
DAV:  18    -0.388887047071E+03   -0.17841E-03   -0.16223E-02 46824   0.330E-01    0.141E+00
DAV:  19    -0.388887017861E+03    0.29210E-04   -0.72776E-03 45728   0.245E-01    0.111E+00
DAV:  20    -0.388886723974E+03    0.29389E-03   -0.39208E-03 44896   0.189E-01    0.810E-01
DAV:  21    -0.388886601089E+03    0.12289E-03   -0.26736E-03 43456   0.131E-01    0.622E-01
DAV:  22    -0.388886546799E+03    0.54290E-04   -0.11489E-03 43824   0.915E-02    0.560E-01
DAV:  23    -0.388886055512E+03    0.49129E-03   -0.17355E-03 41024   0.943E-02    0.355E-01
DAV:  24    -0.388885939905E+03    0.11561E-03   -0.22393E-03 44800   0.102E-01    0.260E-01
DAV:  25    -0.388885969334E+03   -0.29428E-04   -0.75203E-04 41592   0.641E-02    0.124E-01
DAV:  26    -0.388885968524E+03    0.80983E-06   -0.18225E-04 36976   0.320E-02    0.136E-01
DAV:  27    -0.388885961085E+03    0.74389E-05   -0.13538E-04 34152   0.267E-02    0.899E-02
DAV:  28    -0.388885976296E+03   -0.15211E-04   -0.11180E-04 30256   0.243E-02    0.695E-02
DAV:  29    -0.388885978364E+03   -0.20682E-05   -0.34944E-05 26392   0.130E-02
   6 F= -.38888598E+03 E0= -.38886293E+03  d E =-.640190E-01  mag=    18.0000
       N       E                     dE             d eps       ncg     rms          rms(c)
DAV:   1    -0.388476553703E+03    0.40942E+00   -0.67837E+01 35096   0.239E+01    0.211E+00
DAV:   2    -0.388943376074E+03   -0.46682E+00   -0.45628E+00 33584   0.462E+00    0.455E+00
DAV:   3    -0.389030884125E+03   -0.87508E-01   -0.13455E+00 47360   0.137E+00    0.966E+00
DAV:   4    -0.388950631759E+03    0.80252E-01   -0.52906E-01 46520   0.899E-01    0.419E+00
DAV:   5    -0.388933183133E+03    0.17449E-01   -0.30284E-01 47776   0.712E-01    0.268E+00
DAV:   6    -0.388926258073E+03    0.69251E-02   -0.51224E-02 49800   0.348E-01    0.163E+00
DAV:   7    -0.388924892466E+03    0.13656E-02   -0.93636E-03 46088   0.170E-01    0.157E+00
DAV:   8    -0.388923120490E+03    0.17720E-02   -0.11166E-02 45512   0.208E-01    0.163E+00
DAV:   9    -0.388923788209E+03   -0.66772E-03   -0.32290E-02 46816   0.352E-01    0.189E+00
DAV:  10    -0.388922219768E+03    0.15684E-02   -0.51153E-02 46344   0.389E-01    0.171E+00
DAV:  11    -0.388921915281E+03    0.30449E-03   -0.17909E-02 46448   0.325E-01    0.143E+00
DAV:  12    -0.388922069899E+03   -0.15462E-03   -0.19039E-02 46136   0.272E-01    0.104E+00
DAV:  13    -0.388923278098E+03   -0.12082E-02   -0.20540E-02 46856   0.315E-01    0.104E+00
DAV:  14    -0.388924439278E+03   -0.11612E-02   -0.15545E-02 45960   0.281E-01    0.102E+00
DAV:  15    -0.388924422431E+03    0.16846E-04   -0.20039E-03 45112   0.133E-01    0.990E-01
DAV:  16    -0.388924435895E+03   -0.13464E-04   -0.15705E-04 36576   0.340E-02    0.993E-01
DAV:  17    -0.388924608552E+03   -0.17266E-03   -0.68851E-04 43072   0.743E-02    0.102E+00
DAV:  18    -0.388924436909E+03    0.17164E-03   -0.10268E-03 45336   0.880E-02    0.101E+00
DAV:  19    -0.388924388773E+03    0.48136E-04   -0.91547E-04 43880   0.807E-02    0.105E+00
DAV:  20    -0.388924414874E+03   -0.26101E-04   -0.12001E-03 45624   0.947E-02    0.107E+00
DAV:  21    -0.388923916740E+03    0.49813E-03   -0.13102E-03 43808   0.972E-02    0.942E-01
DAV:  22    -0.388923713054E+03    0.20369E-03   -0.20031E-03 44128   0.108E-01    0.891E-01
DAV:  23    -0.388923251793E+03    0.46126E-03   -0.13179E-03 43424   0.101E-01    0.689E-01
DAV:  24    -0.388922930142E+03    0.32165E-03   -0.27840E-03 43776   0.130E-01    0.284E-01
DAV:  25    -0.388922998985E+03   -0.68843E-04   -0.10942E-03 43328   0.874E-02    0.144E-01
DAV:  26    -0.388923025962E+03   -0.26977E-04   -0.33472E-04 38416   0.390E-02    0.861E-02
DAV:  27    -0.388923039795E+03   -0.13833E-04   -0.10885E-04 29664   0.235E-02    0.826E-02
DAV:  28    -0.388923033827E+03    0.59683E-05   -0.10443E-04 29256   0.238E-02    0.485E-02
DAV:  29    -0.388923036306E+03   -0.24794E-05   -0.46068E-05 26168   0.145E-02
   7 F= -.38892304E+03 E0= -.38890101E+03  d E =-.101077E+00  mag=    18.0000
       N       E                     dE             d eps       ncg     rms          rms(c)
DAV:   1    -0.388832794609E+03    0.90239E-01   -0.28528E+01 35120   0.146E+01    0.162E+00
DAV:   2    -0.389001583206E+03   -0.16879E+00   -0.17763E+00 33400   0.291E+00    0.455E+00
DAV:   3    -0.388995943539E+03    0.56397E-02   -0.60978E-01 46672   0.103E+00    0.457E+00
DAV:   4    -0.389008542122E+03   -0.12599E-01   -0.34447E-01 47576   0.685E-01    0.472E+00
DAV:   5    -0.388976424768E+03    0.32117E-01   -0.30283E-01 47376   0.624E-01    0.238E+00
DAV:   6    -0.388971394883E+03    0.50299E-02   -0.34289E-02 47072   0.287E-01    0.104E+00
DAV:   7    -0.388972558202E+03   -0.11633E-02   -0.15292E-02 47192   0.241E-01    0.156E+00
DAV:   8    -0.388969423323E+03    0.31349E-02   -0.59803E-03 47464   0.183E-01    0.124E+00
DAV:   9    -0.388969673188E+03   -0.24987E-03   -0.16413E-02 47808   0.317E-01    0.137E+00
DAV:  10    -0.388969809218E+03   -0.13603E-03   -0.41286E-02 47408   0.390E-01    0.129E+00
DAV:  11    -0.388971252717E+03   -0.14435E-02   -0.14873E-02 46520   0.272E-01    0.109E+00
DAV:  12    -0.388971449882E+03   -0.19716E-03   -0.49290E-03 45592   0.173E-01    0.983E-01
DAV:  13    -0.388970979591E+03    0.47029E-03   -0.22337E-03 45264   0.135E-01    0.778E-01
DAV:  14    -0.388970625424E+03    0.35417E-03   -0.29151E-03 45448   0.131E-01    0.627E-01
DAV:  15    -0.388970048292E+03    0.57713E-03   -0.24100E-03 44424   0.113E-01    0.324E-01
DAV:  16    -0.388970064430E+03   -0.16138E-04   -0.99090E-04 42712   0.787E-02    0.316E-01
DAV:  17    -0.388969993685E+03    0.70745E-04   -0.83135E-04 43456   0.814E-02    0.324E-01
DAV:  18    -0.388969998923E+03   -0.52372E-05   -0.12274E-03 43312   0.912E-02    0.310E-01
DAV:  19    -0.388969846477E+03    0.15245E-03   -0.22410E-03 44864   0.948E-02    0.209E-01
DAV:  20    -0.388970024493E+03   -0.17802E-03   -0.62044E-04 37280   0.383E-02    0.276E-01
DAV:  21    -0.388970011318E+03    0.13175E-04   -0.26727E-05 27088   0.144E-02    0.273E-01
DAV:  22    -0.388970003640E+03    0.76786E-05   -0.58300E-06 20832   0.725E-03
   8 F= -.38897000E+03 E0= -.38894867E+03  d E =-.469673E-01  mag=    18.0000
       N       E                     dE             d eps       ncg     rms          rms(c)
DAV:   1    -0.387840173802E+03    0.11298E+01   -0.23152E+02 35016   0.417E+01    0.531E+00
DAV:   2    -0.389634177376E+03   -0.17940E+01   -0.17153E+01 36704   0.900E+00    0.116E+01
DAV:   3    -0.389189135113E+03    0.44504E+00   -0.46384E+00 42920   0.390E+00    0.889E+00
DAV:   4    -0.389208378839E+03   -0.19244E-01   -0.30654E+00 47560   0.233E+00    0.891E+00
DAV:   5    -0.389020295735E+03    0.18808E+00   -0.10657E+00 47560   0.170E+00    0.512E+00
DAV:   6    -0.389067952089E+03   -0.47656E-01   -0.76756E-01 47560   0.134E+00    0.627E+00
DAV:   7    -0.388997955919E+03    0.69996E-01   -0.33478E-01 48088   0.105E+00    0.270E+00
DAV:   8    -0.389000663770E+03   -0.27079E-02   -0.15136E-01 48888   0.818E-01    0.217E+00
DAV:   9    -0.389011742228E+03   -0.11078E-01   -0.11460E-01 47256   0.624E-01    0.260E+00
DAV:  10    -0.389001336467E+03    0.10406E-01   -0.35007E-02 47216   0.420E-01    0.133E+00
DAV:  11    -0.389003342251E+03   -0.20058E-02   -0.28410E-02 47672   0.328E-01    0.166E+00
DAV:  12    -0.389002363518E+03    0.97873E-03   -0.15262E-02 47296   0.301E-01    0.167E+00
DAV:  13    -0.388996946692E+03    0.54168E-02   -0.27619E-02 47400   0.364E-01    0.935E-01
DAV:  14    -0.388997724500E+03   -0.77781E-03   -0.21799E-02 47336   0.387E-01    0.118E+00
DAV:  15    -0.388997768457E+03   -0.43957E-04   -0.13015E-02 47128   0.281E-01    0.127E+00
DAV:  16    -0.388995905251E+03    0.18632E-02   -0.12115E-02 47080   0.212E-01    0.522E-01
DAV:  17    -0.388996264590E+03   -0.35934E-03   -0.50732E-03 46944   0.139E-01    0.667E-01
DAV:  18    -0.388995759752E+03    0.50484E-03   -0.19403E-03 45288   0.109E-01    0.354E-01
DAV:  19    -0.388995956540E+03   -0.19679E-03   -0.26156E-03 44664   0.104E-01    0.396E-01
DAV:  20    -0.388996091612E+03   -0.13507E-03   -0.35056E-03 45496   0.116E-01    0.524E-01
DAV:  21    -0.388995880390E+03    0.21122E-03   -0.13746E-03 41816   0.689E-02    0.215E-01
DAV:  22    -0.388995887802E+03   -0.74120E-05   -0.53119E-04 36960   0.491E-02    0.177E-01
DAV:  23    -0.388995866723E+03    0.21079E-04   -0.18071E-04 33912   0.317E-02    0.133E-01
DAV:  24    -0.388995875026E+03   -0.83033E-05   -0.45585E-04 33480   0.332E-02    0.149E-01
DAV:  25    -0.388995858306E+03    0.16720E-04   -0.25070E-04 29376   0.238E-02    0.593E-02
DAV:  26    -0.388995858695E+03   -0.38955E-06   -0.40177E-05 26192   0.137E-02
   9 F= -.38899586E+03 E0= -.38897550E+03  d E =-.728224E-01  mag=    18.0000
       N       E                     dE             d eps       ncg     rms          rms(c)
DAV:   1    -0.388864978385E+03    0.13088E+00   -0.30177E+01 34912   0.150E+01    0.158E+00
DAV:   2    -0.389049848567E+03   -0.18487E+00   -0.19088E+00 33488   0.301E+00    0.473E+00
DAV:   3    -0.389033176834E+03    0.16672E-01   -0.81037E-01 45912   0.108E+00    0.413E+00
DAV:   4    -0.389040246357E+03   -0.70695E-02   -0.47759E-01 47336   0.811E-01    0.410E+00
DAV:   5    -0.389013149558E+03    0.27097E-01   -0.12507E-01 47720   0.606E-01    0.219E+00
DAV:   6    -0.389009330800E+03    0.38188E-02   -0.61869E-02 48104   0.462E-01    0.141E+00
DAV:   7    -0.389012330495E+03   -0.29997E-02   -0.32488E-02 48160   0.365E-01    0.167E+00
DAV:   8    -0.389007604686E+03    0.47258E-02   -0.42104E-02 47256   0.321E-01    0.714E-01
DAV:   9    -0.389007116811E+03    0.48787E-03   -0.74626E-03 47248   0.195E-01    0.557E-01
DAV:  10    -0.389006822790E+03    0.29402E-03   -0.10885E-03 47760   0.921E-02    0.441E-01
DAV:  11    -0.389006785974E+03    0.36817E-04   -0.10718E-03 43360   0.802E-02    0.459E-01
DAV:  12    -0.389006805224E+03   -0.19250E-04   -0.30715E-03 44752   0.106E-01    0.543E-01
DAV:  13    -0.389006413473E+03    0.39175E-03   -0.35429E-03 45952   0.131E-01    0.378E-01
DAV:  14    -0.389006501437E+03   -0.87964E-04   -0.22704E-03 45856   0.122E-01    0.303E-01
DAV:  15    -0.389006484290E+03    0.17148E-04   -0.12485E-03 46368   0.898E-02    0.242E-01
DAV:  16    -0.389006463563E+03    0.20726E-04   -0.70555E-04 40632   0.609E-02    0.206E-01
DAV:  17    -0.389006413655E+03    0.49909E-04   -0.41978E-04 33896   0.436E-02    0.160E-01
DAV:  18    -0.389006457542E+03   -0.43887E-04   -0.57365E-04 35640   0.433E-02    0.198E-01
DAV:  19    -0.389006394591E+03    0.62951E-04   -0.39862E-04 34320   0.425E-02    0.888E-02
DAV:  20    -0.389006425889E+03   -0.31298E-04   -0.13344E-04 28648   0.220E-02    0.926E-02
DAV:  21    -0.389006427978E+03   -0.20885E-05   -0.65831E-05 28568   0.216E-02
  10 F= -.38900643E+03 E0= -.38898583E+03  d E =-.833917E-01  mag=    18.0000
       N       E                     dE             d eps       ncg     rms          rms(c)
DAV:   1    -0.388812132736E+03    0.19429E+00   -0.41434E+01 35224   0.174E+01    0.189E+00
DAV:   2    -0.389219571151E+03   -0.40744E+00   -0.35855E+00 36320   0.362E+00    0.753E+00
DAV:   3    -0.389077555297E+03    0.14202E+00   -0.11925E+00 43720   0.160E+00    0.394E+00
DAV:   4    -0.389072282620E+03    0.52727E-02   -0.37609E-01 47312   0.848E-01    0.358E+00
DAV:   5    -0.389056433610E+03    0.15849E-01   -0.12274E-01 47592   0.521E-01    0.178E+00
DAV:   6    -0.389058089250E+03   -0.16556E-02   -0.61670E-02 47768   0.470E-01    0.184E+00
DAV:   7    -0.389056850031E+03    0.12392E-02   -0.76266E-02 47488   0.442E-01    0.150E+00
DAV:   8    -0.389053820525E+03    0.30295E-02   -0.43796E-02 47672   0.421E-01    0.918E-01
DAV:   9    -0.389054983398E+03   -0.11629E-02   -0.11270E-02 46800   0.236E-01    0.769E-01
DAV:  10    -0.389054338776E+03    0.64462E-03   -0.47077E-03 45648   0.173E-01    0.550E-01
DAV:  11    -0.389054363856E+03   -0.25079E-04   -0.29755E-03 44752   0.132E-01    0.587E-01
DAV:  12    -0.389054193436E+03    0.17042E-03   -0.34611E-03 45504   0.142E-01    0.642E-01
DAV:  13    -0.389053909405E+03    0.28403E-03   -0.39046E-03 46672   0.146E-01    0.535E-01
DAV:  14    -0.389053783279E+03    0.12613E-03   -0.81955E-03 46760   0.165E-01    0.607E-01
DAV:  15    -0.389053700403E+03    0.82877E-04   -0.38084E-03 47088   0.136E-01    0.623E-01
DAV:  16    -0.389053455315E+03    0.24509E-03   -0.18398E-03 46240   0.106E-01    0.346E-01
DAV:  17    -0.389053383958E+03    0.71357E-04   -0.89078E-04 43920   0.755E-02    0.218E-01
DAV:  18    -0.389053386559E+03   -0.26012E-05   -0.43666E-04 36200   0.459E-02    0.204E-01
DAV:  19    -0.389053366838E+03    0.19721E-04   -0.39652E-04 31512   0.404E-02    0.219E-01
DAV:  20    -0.389053364711E+03    0.21277E-05   -0.25410E-04 32376   0.344E-02    0.177E-01
DAV:  21    -0.389053353303E+03    0.11407E-04   -0.10353E-04 29800   0.304E-02    0.125E-01
DAV:  22    -0.389053349985E+03    0.33184E-05   -0.37125E-05 27336   0.171E-02
  11 F= -.38905335E+03 E0= -.38903299E+03  d E =-.469220E-01  mag=    18.0000
       N       E                     dE             d eps       ncg     rms          rms(c)
DAV:   1    -0.388785192594E+03    0.26816E+00   -0.49252E+01 35128   0.190E+01    0.219E+00
DAV:   2    -0.389332686789E+03   -0.54749E+00   -0.46936E+00 36832   0.409E+00    0.893E+00
DAV:   3    -0.389116623056E+03    0.21606E+00   -0.19157E+00 43680   0.194E+00    0.509E+00
DAV:   4    -0.389085154689E+03    0.31468E-01   -0.50097E-01 46728   0.102E+00    0.294E+00
DAV:   5    -0.389075810530E+03    0.93442E-02   -0.97454E-02 47208   0.567E-01    0.174E+00
DAV:   6    -0.389075887398E+03   -0.76868E-04   -0.48114E-02 48488   0.458E-01    0.153E+00
DAV:   7    -0.389074093790E+03    0.17936E-02   -0.35932E-02 48096   0.395E-01    0.120E+00
DAV:   8    -0.389074016804E+03    0.76987E-04   -0.35435E-02 47496   0.381E-01    0.109E+00
DAV:   9    -0.389073350032E+03    0.66677E-03   -0.15835E-02 46056   0.225E-01    0.701E-01
DAV:  10    -0.389072715780E+03    0.63425E-03   -0.45311E-03 45752   0.178E-01    0.523E-01
DAV:  11    -0.389073356588E+03   -0.64081E-03   -0.64588E-03 47600   0.177E-01    0.816E-01
DAV:  12    -0.389072596361E+03    0.76023E-03   -0.70897E-03 46480   0.179E-01    0.687E-01
DAV:  13    -0.389072218931E+03    0.37743E-03   -0.66400E-03 46144   0.149E-01    0.474E-01
DAV:  14    -0.389072220515E+03   -0.15845E-05   -0.77689E-03 47184   0.147E-01    0.602E-01
DAV:  15    -0.389072176231E+03    0.44284E-04   -0.23371E-03 46272   0.107E-01    0.436E-01
DAV:  16    -0.389071919878E+03    0.25635E-03   -0.13124E-03 44808   0.897E-02    0.196E-01
DAV:  17    -0.389071975955E+03   -0.56077E-04   -0.59773E-04 43808   0.638E-02    0.176E-01
DAV:  18    -0.389071963698E+03    0.12257E-04   -0.60664E-04 39328   0.543E-02    0.160E-01
DAV:  19    -0.389071983596E+03   -0.19898E-04   -0.20326E-04 28744   0.291E-02    0.188E-01
DAV:  20    -0.389071964551E+03    0.19045E-04   -0.60476E-05 27440   0.202E-02    0.155E-01
DAV:  21    -0.389071952617E+03    0.11934E-04   -0.31588E-05 26952   0.162E-02    0.117E-01
DAV:  22    -0.389071944209E+03    0.84079E-05   -0.34788E-05 25088   0.137E-02
  12 F= -.38907194E+03 E0= -.38905173E+03  d E =-.655162E-01  mag=    18.0000
       N       E                     dE             d eps       ncg     rms          rms(c)
DAV:   1    -0.388971042810E+03    0.10091E+00   -0.35175E+01 34672   0.160E+01    0.233E+00
DAV:   2    -0.389205770634E+03   -0.23473E+00   -0.27397E+00 35840   0.346E+00    0.617E+00
DAV:   3    -0.389155299864E+03    0.50471E-01   -0.10171E+00 43816   0.163E+00    0.531E+00
DAV:   4    -0.389157420774E+03   -0.21209E-02   -0.89015E-01 47144   0.114E+00    0.505E+00
DAV:   5    -0.389106240205E+03    0.51181E-01   -0.31029E-01 47096   0.871E-01    0.191E+00
DAV:   6    -0.389109411663E+03   -0.31715E-02   -0.77728E-02 48112   0.546E-01    0.183E+00
DAV:   7    -0.389110115642E+03   -0.70398E-03   -0.11629E-01 47400   0.511E-01    0.190E+00
DAV:   8    -0.389106302445E+03    0.38132E-02   -0.70845E-02 45752   0.323E-01    0.113E+00
DAV:   9    -0.389106057018E+03    0.24543E-03   -0.99541E-03 47744   0.194E-01    0.716E-01
DAV:  10    -0.389105885618E+03    0.17140E-03   -0.47244E-03 46432   0.142E-01    0.639E-01
DAV:  11    -0.389105827263E+03    0.58355E-04   -0.46459E-03 45896   0.144E-01    0.668E-01
DAV:  12    -0.389105574880E+03    0.25238E-03   -0.29158E-03 47336   0.147E-01    0.704E-01
DAV:  13    -0.389105031780E+03    0.54310E-03   -0.35278E-03 47016   0.150E-01    0.535E-01
DAV:  14    -0.389104839369E+03    0.19241E-03   -0.49223E-03 47128   0.137E-01    0.354E-01
DAV:  15    -0.389104835699E+03    0.36697E-05   -0.17497E-03 46208   0.108E-01    0.339E-01
DAV:  16    -0.389104812462E+03    0.23237E-04   -0.11131E-03 43240   0.732E-02    0.224E-01
DAV:  17    -0.389104752219E+03    0.60243E-04   -0.41589E-04 37392   0.519E-02    0.134E-01
DAV:  18    -0.389104771996E+03   -0.19777E-04   -0.25226E-04 34816   0.353E-02    0.145E-01
DAV:  19    -0.389104741114E+03    0.30882E-04   -0.20109E-04 29768   0.318E-02    0.856E-02
DAV:  20    -0.389104753160E+03   -0.12046E-04   -0.13708E-04 28056   0.219E-02    0.873E-02
DAV:  21    -0.389104754893E+03   -0.17329E-05   -0.52238E-05 27640   0.187E-02
  13 F= -.38910475E+03 E0= -.38908491E+03  d E =-.328107E-01  mag=    18.0000
       N       E                     dE             d eps       ncg     rms          rms(c)
DAV:   1    -0.388981796014E+03    0.12296E+00   -0.35021E+01 34832   0.160E+01    0.230E+00
DAV:   2    -0.389206556097E+03   -0.22476E+00   -0.26865E+00 35544   0.345E+00    0.611E+00
DAV:   3    -0.389159822146E+03    0.46734E-01   -0.10485E+00 44016   0.161E+00    0.508E+00
DAV:   4    -0.389162645556E+03   -0.28234E-02   -0.85034E-01 47664   0.115E+00    0.483E+00
DAV:   5    -0.389113664960E+03    0.48981E-01   -0.29436E-01 47136   0.873E-01    0.179E+00
DAV:   6    -0.389115331588E+03   -0.16666E-02   -0.65102E-02 48392   0.514E-01    0.155E+00
DAV:   7    -0.389115488251E+03   -0.15666E-03   -0.69392E-02 47520   0.461E-01    0.152E+00
DAV:   8    -0.389113588010E+03    0.19002E-02   -0.46232E-02 46520   0.293E-01    0.107E+00
DAV:   9    -0.389112704695E+03    0.88332E-03   -0.97682E-03 48312   0.180E-01    0.596E-01
DAV:  10    -0.389112595365E+03    0.10933E-03   -0.40517E-03 46336   0.137E-01    0.538E-01
DAV:  11    -0.389112673323E+03   -0.77958E-04   -0.51803E-03 46680   0.147E-01    0.638E-01
DAV:  12    -0.389112310146E+03    0.36318E-03   -0.26302E-03 47584   0.145E-01    0.577E-01
DAV:  13    -0.389111902469E+03    0.40768E-03   -0.30915E-03 47328   0.137E-01    0.428E-01
DAV:  14    -0.389111890775E+03    0.11694E-04   -0.46673E-03 47480   0.120E-01    0.346E-01
DAV:  15    -0.389111930492E+03   -0.39716E-04   -0.14745E-03 45792   0.959E-02    0.316E-01
DAV:  16    -0.389111865017E+03    0.65475E-04   -0.77408E-04 42112   0.633E-02    0.192E-01
DAV:  17    -0.389111837922E+03    0.27095E-04   -0.32017E-04 33016   0.428E-02    0.134E-01
DAV:  18    -0.389111853276E+03   -0.15354E-04   -0.22053E-04 33832   0.327E-02    0.137E-01
DAV:  19    -0.389111830642E+03    0.22633E-04   -0.21565E-04 30920   0.330E-02    0.958E-02
DAV:  20    -0.389111840391E+03   -0.97489E-05   -0.18958E-04 28912   0.217E-02    0.100E-01
DAV:  21    -0.389111839345E+03    0.10460E-05   -0.34831E-05 26080   0.160E-02
  14 F= -.38911184E+03 E0= -.38909237E+03  d E =-.398951E-01  mag=    18.0000
       N       E                     dE             d eps       ncg     rms          rms(c)
DAV:   1    -0.388995038341E+03    0.11680E+00   -0.38294E+01 34728   0.152E+01    0.138E+00
DAV:   2    -0.389172679382E+03   -0.17764E+00   -0.17572E+00 34712   0.292E+00    0.391E+00
DAV:   3    -0.389149485175E+03    0.23194E-01   -0.28387E-01 45024   0.942E-01    0.292E+00
DAV:   4    -0.389156444756E+03   -0.69596E-02   -0.28068E-01 47552   0.625E-01    0.324E+00
DAV:   5    -0.389136733596E+03    0.19711E-01   -0.12332E-01 47480   0.503E-01    0.817E-01
DAV:   6    -0.389139679991E+03   -0.29464E-02   -0.23983E-02 50592   0.342E-01    0.123E+00
DAV:   7    -0.389136807420E+03    0.28726E-02   -0.15498E-02 47104   0.277E-01    0.686E-01
DAV:   8    -0.389136674215E+03    0.13320E-03   -0.83093E-03 47480   0.183E-01    0.566E-01
DAV:   9    -0.389136247317E+03    0.42690E-03   -0.26449E-03 46320   0.121E-01    0.333E-01
DAV:  10    -0.389136155565E+03    0.91752E-04   -0.13911E-03 44072   0.784E-02    0.274E-01
DAV:  11    -0.389136118344E+03    0.37222E-04   -0.17168E-03 43360   0.888E-02    0.273E-01
DAV:  12    -0.389136188499E+03   -0.70155E-04   -0.33156E-03 45328   0.947E-02    0.341E-01
DAV:  13    -0.389136071677E+03    0.11682E-03   -0.21214E-03 44560   0.872E-02    0.195E-01
DAV:  14    -0.389136110391E+03   -0.38714E-04   -0.63096E-04 45480   0.683E-02    0.210E-01
DAV:  15    -0.389136081710E+03    0.28680E-04   -0.26033E-04 34536   0.459E-02    0.158E-01
DAV:  16    -0.389136061729E+03    0.19982E-04   -0.22580E-04 29640   0.348E-02    0.975E-02
DAV:  17    -0.389136052031E+03    0.96981E-05   -0.72310E-05 29024   0.234E-02
  15 F= -.38913605E+03 E0= -.38911677E+03  d E =-.242127E-01  mag=    18.0000
       N       E                     dE             d eps       ncg     rms          rms(c)
DAV:   1    -0.388999625667E+03    0.13644E+00   -0.39020E+01 34640   0.154E+01    0.140E+00
DAV:   2    -0.389180670209E+03   -0.18104E+00   -0.18048E+00 34608   0.295E+00    0.390E+00
DAV:   3    -0.389157608992E+03    0.23061E-01   -0.31624E-01 45088   0.981E-01    0.293E+00
DAV:   4    -0.389164482536E+03   -0.68735E-02   -0.28645E-01 48056   0.648E-01    0.323E+00
DAV:   5    -0.389144394301E+03    0.20088E-01   -0.11935E-01 47960   0.511E-01    0.782E-01
DAV:   6    -0.389147504780E+03   -0.31105E-02   -0.23150E-02 50768   0.352E-01    0.124E+00
DAV:   7    -0.389144680642E+03    0.28241E-02   -0.16071E-02 47080   0.287E-01    0.727E-01
DAV:   8    -0.389144337578E+03    0.34306E-03   -0.96020E-03 46824   0.211E-01    0.563E-01
DAV:   9    -0.389143920390E+03    0.41719E-03   -0.26829E-03 46432   0.119E-01    0.315E-01
DAV:  10    -0.389143826214E+03    0.94176E-04   -0.13838E-03 45480   0.775E-02    0.235E-01
DAV:  11    -0.389143840391E+03   -0.14177E-04   -0.15001E-03 43912   0.807E-02    0.259E-01
DAV:  12    -0.389143876120E+03   -0.35729E-04   -0.15816E-03 43624   0.814E-02    0.280E-01
DAV:  13    -0.389143837293E+03    0.38827E-04   -0.28444E-03 43272   0.890E-02    0.234E-01
DAV:  14    -0.389143832169E+03    0.51238E-05   -0.14240E-03 42000   0.657E-02    0.223E-01
DAV:  15    -0.389143789829E+03    0.42340E-04   -0.36133E-04 35392   0.453E-02    0.151E-01
DAV:  16    -0.389143775839E+03    0.13990E-04   -0.29748E-04 29688   0.336E-02    0.978E-02
DAV:  17    -0.389143766878E+03    0.89606E-05   -0.11527E-04 29952   0.262E-02    0.614E-02
DAV:  18    -0.389143782077E+03   -0.15199E-04   -0.12826E-04 28896   0.257E-02    0.886E-02
DAV:  19    -0.389143775507E+03    0.65703E-05   -0.11362E-04 28576   0.239E-02    0.712E-02
DAV:  20    -0.389143776860E+03   -0.13532E-05   -0.33657E-05 24080   0.126E-02
  16 F= -.38914378E+03 E0= -.38912459E+03  d E =-.319375E-01  mag=    18.0000
       N       E                     dE             d eps       ncg     rms          rms(c)
DAV:   1    -0.389089587159E+03    0.54188E-01   -0.17251E+01 34680   0.110E+01    0.966E-01
DAV:   2    -0.389166928618E+03   -0.77341E-01   -0.81929E-01 33752   0.208E+00    0.134E+00
DAV:   3    -0.389172497275E+03   -0.55687E-02   -0.13262E-01 48368   0.616E-01    0.220E+00
DAV:   4    -0.389169982068E+03    0.25152E-02   -0.14132E-01 47416   0.442E-01    0.208E+00
DAV:   5    -0.389163768068E+03    0.62140E-02   -0.51039E-02 48472   0.284E-01    0.588E-01
DAV:   6    -0.389165226263E+03   -0.14582E-02   -0.14954E-02 48080   0.247E-01    0.916E-01
DAV:   7    -0.389163997606E+03    0.12287E-02   -0.18479E-02 47240   0.244E-01    0.830E-01
DAV:   8    -0.389163243781E+03    0.75383E-03   -0.75972E-03 46000   0.156E-01    0.380E-01
DAV:   9    -0.389163599914E+03   -0.35613E-03   -0.33465E-03 45648   0.117E-01    0.449E-01
DAV:  10    -0.389163360385E+03    0.23953E-03   -0.14826E-03 43688   0.759E-02    0.233E-01
DAV:  11    -0.389163370990E+03   -0.10605E-04   -0.19944E-04 34232   0.338E-02    0.234E-01
DAV:  12    -0.389163342298E+03    0.28692E-04   -0.43348E-04 32536   0.445E-02    0.241E-01
DAV:  13    -0.389163304505E+03    0.37793E-04   -0.10729E-03 43760   0.689E-02    0.216E-01
DAV:  14    -0.389163230845E+03    0.73660E-04   -0.69206E-04 41416   0.627E-02    0.117E-01
DAV:  15    -0.389163234687E+03   -0.38420E-05   -0.36397E-04 31608   0.419E-02    0.115E-01
DAV:  16    -0.389163214903E+03    0.19784E-04   -0.18707E-04 31336   0.345E-02    0.637E-02
DAV:  17    -0.389163219980E+03   -0.50769E-05   -0.10954E-04 29328   0.283E-02    0.651E-02
DAV:  18    -0.389163224734E+03   -0.47543E-05   -0.10215E-04 27784   0.254E-02    0.597E-02
DAV:  19    -0.389163221176E+03    0.35584E-05   -0.36138E-05 26008   0.174E-02
  17 F= -.38916322E+03 E0= -.38914390E+03  d E =-.194443E-01  mag=    18.0000
       N       E                     dE             d eps       ncg     rms          rms(c)
DAV:   1    -0.389116162518E+03    0.47062E-01   -0.12065E+01 34608   0.924E+00    0.813E-01
DAV:   2    -0.389170494574E+03   -0.54332E-01   -0.57316E-01 33816   0.174E+00    0.126E+00
DAV:   3    -0.389173991881E+03   -0.34973E-02   -0.99241E-02 47680   0.526E-01    0.187E+00
DAV:   4    -0.389172413266E+03    0.15786E-02   -0.92612E-02 47360   0.381E-01    0.177E+00
DAV:   5    -0.389167870336E+03    0.45429E-02   -0.35633E-02 50072   0.244E-01    0.533E-01
DAV:   6    -0.389169066737E+03   -0.11964E-02   -0.12242E-02 48664   0.204E-01    0.880E-01
DAV:   7    -0.389167942466E+03    0.11243E-02   -0.99525E-03 47264   0.210E-01    0.637E-01
DAV:   8    -0.389167558140E+03    0.38433E-03   -0.49877E-03 46376   0.153E-01    0.371E-01
DAV:   9    -0.389167708080E+03   -0.14994E-03   -0.33730E-03 44832   0.100E-01    0.352E-01
DAV:  10    -0.389167582689E+03    0.12539E-03   -0.11720E-03 40432   0.649E-02    0.206E-01
DAV:  11    -0.389167593866E+03   -0.11177E-04   -0.22540E-04 32888   0.332E-02    0.217E-01
DAV:  12    -0.389167547177E+03    0.46689E-04   -0.14438E-04 29400   0.278E-02    0.180E-01
DAV:  13    -0.389167622100E+03   -0.74923E-04   -0.69996E-04 37888   0.624E-02    0.267E-01
DAV:  14    -0.389167483011E+03    0.13909E-03   -0.10862E-03 41568   0.670E-02    0.117E-01
DAV:  15    -0.389167478890E+03    0.41204E-05   -0.23720E-04 32464   0.392E-02    0.926E-02
DAV:  16    -0.389167470292E+03    0.85984E-05   -0.12126E-04 29112   0.296E-02    0.628E-02
DAV:  17    -0.389167468386E+03    0.19064E-05   -0.77815E-05 27296   0.222E-02
  18 F= -.38916747E+03 E0= -.38914797E+03  d E =-.236915E-01  mag=    18.0000
       N       E                     dE             d eps       ncg     rms          rms(c)
DAV:   1    -0.389134047776E+03    0.33423E-01   -0.16847E+01 34352   0.983E+00    0.760E-01
DAV:   2    -0.389188634431E+03   -0.54587E-01   -0.55085E-01 34072   0.178E+00    0.165E+00
DAV:   3    -0.389189050094E+03   -0.41566E-03   -0.11362E-01 47168   0.585E-01    0.179E+00
DAV:   4    -0.389188223744E+03    0.82635E-03   -0.81980E-02 49184   0.367E-01    0.175E+00
DAV:   5    -0.389183580860E+03    0.46429E-02   -0.38069E-02 49160   0.279E-01    0.663E-01
DAV:   6    -0.389183341154E+03    0.23971E-03   -0.10007E-02 47192   0.192E-01    0.551E-01
DAV:   7    -0.389183226428E+03    0.11473E-03   -0.64658E-03 47208   0.183E-01    0.581E-01
DAV:   8    -0.389182604263E+03    0.62216E-03   -0.53939E-03 47048   0.169E-01    0.369E-01
DAV:   9    -0.389182489120E+03    0.11514E-03   -0.20813E-03 45888   0.863E-02    0.232E-01
DAV:  10    -0.389182498578E+03   -0.94585E-05   -0.79721E-04 37640   0.555E-02    0.186E-01
DAV:  11    -0.389182478102E+03    0.20476E-04   -0.26431E-04 29864   0.346E-02    0.153E-01
DAV:  12    -0.389182464628E+03    0.13474E-04   -0.15867E-04 29216   0.269E-02    0.136E-01
DAV:  13    -0.389182461074E+03    0.35545E-05   -0.29326E-04 30800   0.367E-02    0.146E-01
DAV:  14    -0.389182429421E+03    0.31653E-04   -0.51558E-04 32528   0.514E-02    0.112E-01
DAV:  15    -0.389182437357E+03   -0.79365E-05   -0.27716E-04 36176   0.416E-02    0.986E-02
DAV:  16    -0.389182413136E+03    0.24221E-04   -0.11285E-04 29856   0.303E-02    0.366E-02
DAV:  17    -0.389182418752E+03   -0.56159E-05   -0.43721E-05 26128   0.163E-02
  19 F= -.38918242E+03 E0= -.38916283E+03  d E =-.149504E-01  mag=    18.0000
       N       E                     dE             d eps       ncg     rms          rms(c)
DAV:   1    -0.389070614896E+03    0.11180E+00   -0.41227E+01 34368   0.154E+01    0.119E+00
DAV:   2    -0.389205723276E+03   -0.13511E+00   -0.13598E+00 34072   0.280E+00    0.263E+00
DAV:   3    -0.389206536742E+03   -0.81347E-03   -0.29604E-01 47648   0.913E-01    0.271E+00
DAV:   4    -0.389203795117E+03    0.27416E-02   -0.20572E-01 48784   0.562E-01    0.271E+00
DAV:   5    -0.389193076359E+03    0.10719E-01   -0.10469E-01 49192   0.426E-01    0.107E+00
DAV:   6    -0.389192283806E+03    0.79255E-03   -0.22612E-02 47576   0.309E-01    0.849E-01
DAV:   7    -0.389192105941E+03    0.17787E-03   -0.16285E-02 47088   0.274E-01    0.932E-01
DAV:   8    -0.389190606272E+03    0.14997E-02   -0.13924E-02 47104   0.252E-01    0.606E-01
DAV:   9    -0.389190257031E+03    0.34924E-03   -0.55695E-03 46288   0.133E-01    0.368E-01
DAV:  10    -0.389190294047E+03   -0.37016E-04   -0.22442E-03 44488   0.859E-02    0.311E-01
DAV:  11    -0.389190238104E+03    0.55944E-04   -0.85414E-04 38432   0.540E-02    0.264E-01
DAV:  12    -0.389190180445E+03    0.57659E-04   -0.37664E-04 33120   0.414E-02    0.218E-01
DAV:  13    -0.389190201412E+03   -0.20967E-04   -0.90687E-04 38000   0.640E-02    0.257E-01
DAV:  14    -0.389190075333E+03    0.12608E-03   -0.13144E-03 40592   0.776E-02    0.157E-01
DAV:  15    -0.389190126277E+03   -0.50944E-04   -0.61759E-04 41112   0.602E-02    0.158E-01
DAV:  16    -0.389190071632E+03    0.54646E-04   -0.30108E-04 34608   0.455E-02    0.773E-02
DAV:  17    -0.389190095806E+03   -0.24175E-04   -0.23142E-04 29360   0.301E-02    0.115E-01
DAV:  18    -0.389190069312E+03    0.26494E-04   -0.14569E-04 28784   0.296E-02    0.388E-02
DAV:  19    -0.389190076359E+03   -0.70474E-05   -0.40489E-05 25816   0.146E-02
  20 F= -.38919008E+03 E0= -.38917040E+03  d E =-.226080E-01  mag=    18.0000
       N       E                     dE             d eps       ncg     rms          rms(c)
DAV:   1    -0.389132831004E+03    0.57238E-01   -0.19557E+01 34568   0.114E+01    0.105E+00
DAV:   2    -0.389204105283E+03   -0.71274E-01   -0.80878E-01 33488   0.214E+00    0.103E+00
DAV:   3    -0.389217829875E+03   -0.13725E-01   -0.16009E-01 47616   0.677E-01    0.267E+00
DAV:   4    -0.389204531714E+03    0.13298E-01   -0.10055E-01 47616   0.495E-01    0.141E+00
DAV:   5    -0.389202665384E+03    0.18663E-02   -0.34412E-02 49352   0.245E-01    0.703E-01
DAV:   6    -0.389205211594E+03   -0.25462E-02   -0.35597E-02 48528   0.244E-01    0.143E+00
DAV:   7    -0.389201612237E+03    0.35994E-02   -0.21003E-02 46752   0.219E-01    0.427E-01
DAV:   8    -0.389202009891E+03   -0.39765E-03   -0.49747E-03 47192   0.155E-01    0.461E-01
DAV:   9    -0.389201754630E+03    0.25526E-03   -0.33292E-03 45248   0.106E-01    0.265E-01
DAV:  10    -0.389201697337E+03    0.57293E-04   -0.70115E-04 42536   0.602E-02    0.179E-01
DAV:  11    -0.389201674411E+03    0.22926E-04   -0.19807E-04 31040   0.311E-02    0.155E-01
DAV:  12    -0.389201686326E+03   -0.11915E-04   -0.51839E-04 31992   0.402E-02    0.193E-01
DAV:  13    -0.389201700438E+03   -0.14112E-04   -0.62290E-04 36112   0.563E-02    0.199E-01
DAV:  14    -0.389201649542E+03    0.50896E-04   -0.57747E-04 35504   0.528E-02    0.125E-01
DAV:  15    -0.389201630061E+03    0.19481E-04   -0.15747E-04 29632   0.354E-02    0.688E-02
DAV:  16    -0.389201637583E+03   -0.75218E-05   -0.18016E-04 29696   0.290E-02    0.910E-02
DAV:  17    -0.389201631504E+03    0.60787E-05   -0.10995E-04 28736   0.255E-02    0.570E-02
DAV:  18    -0.389201635501E+03   -0.39972E-05   -0.75854E-05 27432   0.216E-02
  21 F= -.38920164E+03 E0= -.38918211E+03  d E =-.115591E-01  mag=    18.0000
       N       E                     dE             d eps       ncg     rms          rms(c)
DAV:   1    -0.389164474117E+03    0.37157E-01   -0.11002E+01 34632   0.854E+00    0.781E-01
DAV:   2    -0.389205132195E+03   -0.40658E-01   -0.45646E-01 33584   0.160E+00    0.108E+00
DAV:   3    -0.389213463200E+03   -0.83310E-02   -0.13212E-01 46936   0.513E-01    0.229E+00
DAV:   4    -0.389207650525E+03    0.58127E-02   -0.10272E-01 47384   0.390E-01    0.161E+00
DAV:   5    -0.389203431613E+03    0.42189E-02   -0.37202E-02 49200   0.265E-01    0.493E-01
DAV:   6    -0.389204034122E+03   -0.60251E-03   -0.11229E-02 48704   0.166E-01    0.747E-01
DAV:   7    -0.389203452340E+03    0.58178E-03   -0.79282E-03 46928   0.164E-01    0.532E-01
DAV:   8    -0.389203271886E+03    0.18045E-03   -0.49738E-03 46816   0.143E-01    0.444E-01
DAV:   9    -0.389203070004E+03    0.20188E-03   -0.26366E-03 45512   0.976E-02    0.228E-01
DAV:  10    -0.389203022983E+03    0.47021E-04   -0.45645E-04 42320   0.528E-02    0.123E-01
DAV:  11    -0.389203021039E+03    0.19439E-05   -0.12703E-04 29144   0.262E-02    0.110E-01
DAV:  12    -0.389203015546E+03    0.54930E-05   -0.85312E-05 27904   0.196E-02
  22 F= -.38920302E+03 E0= -.38918363E+03  d E =-.129392E-01  mag=    18.0000
       N       E                     dE             d eps       ncg     rms          rms(c)
DAV:   1    -0.389129622199E+03    0.73399E-01   -0.25459E+01 35360   0.127E+01    0.985E-01
DAV:   2    -0.389217863041E+03   -0.88241E-01   -0.91843E-01 33376   0.230E+00    0.123E+00
DAV:   3    -0.389233882322E+03   -0.16019E-01   -0.18449E-01 46816   0.667E-01    0.301E+00
DAV:   4    -0.389218687610E+03    0.15195E-01   -0.15578E-01 48368   0.482E-01    0.145E+00
DAV:   5    -0.389216016014E+03    0.26716E-02   -0.33630E-02 51216   0.285E-01    0.682E-01
DAV:   6    -0.389217134156E+03   -0.11181E-02   -0.16747E-02 47528   0.252E-01    0.101E+00
DAV:   7    -0.389215192625E+03    0.19415E-02   -0.15587E-02 46616   0.240E-01    0.529E-01
DAV:   8    -0.389214895701E+03    0.29692E-03   -0.50642E-03 46824   0.164E-01    0.309E-01
DAV:   9    -0.389215013233E+03   -0.11753E-03   -0.23807E-03 45400   0.861E-02    0.332E-01
DAV:  10    -0.389214852433E+03    0.16080E-03   -0.11280E-03 40984   0.598E-02    0.186E-01
DAV:  11    -0.389214856739E+03   -0.43059E-05   -0.43511E-04 33656   0.449E-02    0.192E-01
DAV:  12    -0.389214823460E+03    0.33278E-04   -0.72755E-04 34872   0.563E-02    0.179E-01
DAV:  13    -0.389214904856E+03   -0.81396E-04   -0.11503E-03 39808   0.661E-02    0.228E-01
DAV:  14    -0.389214812083E+03    0.92774E-04   -0.69613E-04 39760   0.605E-02    0.115E-01
DAV:  15    -0.389214807350E+03    0.47325E-05   -0.21233E-04 29904   0.380E-02    0.906E-02
DAV:  16    -0.389214795664E+03    0.11686E-04   -0.11139E-04 28744   0.273E-02    0.543E-02
DAV:  17    -0.389214802719E+03   -0.70553E-05   -0.11510E-04 28288   0.218E-02    0.694E-02
DAV:  18    -0.389214798548E+03    0.41706E-05   -0.58733E-05 26960   0.185E-02
  23 F= -.38921480E+03 E0= -.38919548E+03  d E =-.117830E-01  mag=    18.0000
       N       E                     dE             d eps       ncg     rms          rms(c)
DAV:   1    -0.389114551806E+03    0.10025E+00   -0.31181E+01 35360   0.140E+01    0.110E+00
DAV:   2    -0.389225161254E+03   -0.11061E+00   -0.11420E+00 33440   0.256E+00    0.179E+00
DAV:   3    -0.389237201862E+03   -0.12041E-01   -0.26151E-01 46224   0.723E-01    0.289E+00
DAV:   4    -0.389228080797E+03    0.91211E-02   -0.20313E-01 47920   0.551E-01    0.208E+00
DAV:   5    -0.389220211246E+03    0.78696E-02   -0.66043E-02 49832   0.394E-01    0.619E-01
DAV:   6    -0.389222592382E+03   -0.23811E-02   -0.18884E-02 48584   0.302E-01    0.118E+00
DAV:   7    -0.389220105741E+03    0.24866E-02   -0.20615E-02 46024   0.278E-01    0.686E-01
DAV:   8    -0.389219430691E+03    0.67505E-03   -0.63469E-03 46424   0.207E-01    0.447E-01
DAV:   9    -0.389219461782E+03   -0.31091E-04   -0.37149E-03 45656   0.115E-01    0.401E-01
DAV:  10    -0.389219235789E+03    0.22599E-03   -0.18203E-03 44800   0.810E-02    0.234E-01
DAV:  11    -0.389219269795E+03   -0.34006E-04   -0.10892E-03 37856   0.518E-02    0.265E-01
DAV:  12    -0.389219143439E+03    0.12636E-03   -0.72338E-04 36360   0.501E-02    0.161E-01
DAV:  13    -0.389219130848E+03    0.12591E-04   -0.38843E-04 41896   0.557E-02    0.167E-01
DAV:  14    -0.389219146008E+03   -0.15160E-04   -0.40511E-04 43384   0.591E-02    0.124E-01
DAV:  15    -0.389219137749E+03    0.82587E-05   -0.25971E-04 35120   0.416E-02    0.907E-02
DAV:  16    -0.389219140394E+03   -0.26446E-05   -0.18196E-04 29328   0.284E-02    0.850E-02
DAV:  17    -0.389219130821E+03    0.95727E-05   -0.62898E-05 26696   0.209E-02
  24 F= -.38921913E+03 E0= -.38919994E+03  d E =-.161153E-01  mag=    18.0000
       N       E                     dE             d eps       ncg     rms          rms(c)
DAV:   1    -0.389167810939E+03    0.51329E-01   -0.21797E+01 34688   0.111E+01    0.850E-01
DAV:   2    -0.389235200054E+03   -0.67389E-01   -0.70240E-01 33344   0.195E+00    0.782E-01
DAV:   3    -0.389241927334E+03   -0.67273E-02   -0.64907E-02 46128   0.499E-01    0.199E+00
DAV:   4    -0.389234787873E+03    0.71395E-02   -0.44541E-02 49304   0.323E-01    0.823E-01
DAV:   5    -0.389235033761E+03   -0.24589E-03   -0.19653E-02 48368   0.193E-01    0.865E-01
DAV:   6    -0.389235707919E+03   -0.67416E-03   -0.23602E-02 46488   0.229E-01    0.103E+00
DAV:   7    -0.389233891675E+03    0.18162E-02   -0.13879E-02 45480   0.233E-01    0.588E-01
DAV:   8    -0.389233686828E+03    0.20485E-03   -0.73074E-03 46264   0.153E-01    0.410E-01
DAV:   9    -0.389233645983E+03    0.40845E-04   -0.15534E-03 45040   0.828E-02    0.254E-01
DAV:  10    -0.389233606964E+03    0.39019E-04   -0.53597E-04 42640   0.665E-02    0.218E-01
DAV:  11    -0.389233566760E+03    0.40203E-04   -0.52578E-04 34544   0.438E-02    0.206E-01
DAV:  12    -0.389233526399E+03    0.40361E-04   -0.10212E-03 34792   0.447E-02    0.183E-01
DAV:  13    -0.389233553764E+03   -0.27365E-04   -0.97254E-04 40800   0.598E-02    0.185E-01
DAV:  14    -0.389233491849E+03    0.61916E-04   -0.50768E-04 40528   0.510E-02    0.102E-01
DAV:  15    -0.389233499048E+03   -0.71990E-05   -0.19698E-04 29904   0.310E-02    0.101E-01
DAV:  16    -0.389233485602E+03    0.13446E-04   -0.15782E-04 30376   0.314E-02    0.553E-02
DAV:  17    -0.389233497097E+03   -0.11495E-04   -0.11519E-04 30584   0.236E-02    0.690E-02
DAV:  18    -0.389233490923E+03    0.61735E-05   -0.56086E-05 27704   0.183E-02
  25 F= -.38923349E+03 E0= -.38921432E+03  d E =-.143601E-01  mag=    18.0000
       N       E                     dE             d eps       ncg     rms          rms(c)
DAV:   1    -0.388589241539E+03    0.64426E+00   -0.19587E+02 34680   0.330E+01    0.270E+00
DAV:   2    -0.389279554197E+03   -0.69031E+00   -0.72906E+00 33392   0.602E+00    0.246E+00
DAV:   3    -0.389336593973E+03   -0.57040E-01   -0.70549E-01 45096   0.165E+00    0.543E+00
DAV:   4    -0.389284328937E+03    0.52265E-01   -0.50969E-01 48416   0.102E+00    0.329E+00
DAV:   5    -0.389267914738E+03    0.16414E-01   -0.23243E-01 49048   0.645E-01    0.193E+00
DAV:   6    -0.389268149005E+03   -0.23427E-03   -0.14776E-01 46368   0.499E-01    0.238E+00
DAV:   7    -0.389261115544E+03    0.70335E-02   -0.10465E-01 42400   0.555E-01    0.159E+00
DAV:   8    -0.389258324637E+03    0.27909E-02   -0.53710E-02 45624   0.423E-01    0.852E-01
DAV:   9    -0.389258994391E+03   -0.66975E-03   -0.18821E-02 47000   0.275E-01    0.935E-01
DAV:  10    -0.389257688301E+03    0.13061E-02   -0.12134E-02 46872   0.234E-01    0.622E-01
DAV:  11    -0.389258041792E+03   -0.35349E-03   -0.93908E-03 46232   0.171E-01    0.702E-01
DAV:  12    -0.389257343205E+03    0.69859E-03   -0.57085E-03 45632   0.164E-01    0.453E-01
DAV:  13    -0.389257537972E+03   -0.19477E-03   -0.73410E-03 45112   0.160E-01    0.541E-01
DAV:  14    -0.389257249834E+03    0.28814E-03   -0.46514E-03 46384   0.140E-01    0.302E-01
DAV:  15    -0.389257221245E+03    0.28589E-04   -0.92937E-04 45728   0.951E-02    0.245E-01
DAV:  16    -0.389257152916E+03    0.68329E-04   -0.10934E-03 44904   0.833E-02    0.164E-01
DAV:  17    -0.389257170650E+03   -0.17734E-04   -0.55660E-04 42848   0.501E-02    0.123E-01
DAV:  18    -0.389257186957E+03   -0.16307E-04   -0.44501E-04 32336   0.452E-02    0.133E-01
DAV:  19    -0.389257187242E+03   -0.28453E-06   -0.30902E-04 35992   0.377E-02    0.918E-02
DAV:  20    -0.389257193769E+03   -0.65270E-05   -0.23465E-04 29272   0.291E-02    0.816E-02
DAV:  21    -0.389257188676E+03    0.50927E-05   -0.41832E-05 28064   0.197E-02
  26 F= -.38925719E+03 E0= -.38923826E+03  d E =-.380579E-01  mag=    18.0000
       N       E                     dE             d eps       ncg     rms          rms(c)
DAV:   1    -0.389205203829E+03    0.51990E-01   -0.20508E+01 34728   0.106E+01    0.828E-01
DAV:   2    -0.389274684956E+03   -0.69481E-01   -0.71552E-01 33336   0.187E+00    0.886E-01
DAV:   3    -0.389283822372E+03   -0.91374E-02   -0.10562E-01 46136   0.571E-01    0.221E+00
DAV:   4    -0.389276406003E+03    0.74164E-02   -0.95345E-02 47472   0.386E-01    0.140E+00
DAV:   5    -0.389273942726E+03    0.24633E-02   -0.23500E-02 49208   0.224E-01    0.548E-01
DAV:   6    -0.389274177091E+03   -0.23436E-03   -0.69153E-03 46944   0.177E-01    0.593E-01
DAV:   7    -0.389273763785E+03    0.41331E-03   -0.63209E-03 45160   0.180E-01    0.536E-01
DAV:   8    -0.389273326220E+03    0.43756E-03   -0.43187E-03 45896   0.135E-01    0.313E-01
DAV:   9    -0.389273433805E+03   -0.10759E-03   -0.27769E-03 44328   0.944E-02    0.316E-01
DAV:  10    -0.389273282901E+03    0.15090E-03   -0.15683E-03 41816   0.735E-02    0.167E-01
DAV:  11    -0.389273276002E+03    0.68991E-05   -0.49190E-04 33640   0.478E-02    0.154E-01
DAV:  12    -0.389273274635E+03    0.13668E-05   -0.58986E-04 35304   0.447E-02    0.170E-01
DAV:  13    -0.389273236016E+03    0.38619E-04   -0.42385E-04 33040   0.496E-02    0.106E-01
DAV:  14    -0.389273293114E+03   -0.57098E-04   -0.50504E-04 37936   0.454E-02    0.152E-01
DAV:  15    -0.389273255226E+03    0.37888E-04   -0.28627E-04 31984   0.367E-02    0.708E-02
DAV:  16    -0.389273259867E+03   -0.46407E-05   -0.83961E-05 26824   0.186E-02
  27 F= -.38927326E+03 E0= -.38925443E+03  d E =-.160712E-01  mag=    18.0000
       N       E                     dE             d eps       ncg     rms          rms(c)
DAV:   1    -0.388601833018E+03    0.67142E+00   -0.18422E+02 34912   0.316E+01    0.271E+00
DAV:   2    -0.389323579707E+03   -0.72175E+00   -0.75658E+00 33304   0.579E+00    0.284E+00
DAV:   3    -0.389422812309E+03   -0.99233E-01   -0.10626E+00 45112   0.198E+00    0.777E+00
DAV:   4    -0.389340064959E+03    0.82747E-01   -0.13999E+00 47344   0.128E+00    0.410E+00
DAV:   5    -0.389309358004E+03    0.30707E-01   -0.24276E-01 49160   0.766E-01    0.174E+00
DAV:   6    -0.389306174459E+03    0.31835E-02   -0.58468E-02 48744   0.447E-01    0.132E+00
DAV:   7    -0.389307880834E+03   -0.17064E-02   -0.54307E-02 44712   0.523E-01    0.204E+00
DAV:   8    -0.389302300287E+03    0.55805E-02   -0.75281E-02 45728   0.451E-01    0.125E+00
DAV:   9    -0.389301903440E+03    0.39685E-03   -0.36846E-02 45976   0.304E-01    0.103E+00
DAV:  10    -0.389300842090E+03    0.10613E-02   -0.23713E-02 48208   0.283E-01    0.749E-01
DAV:  11    -0.389300433911E+03    0.40818E-03   -0.12900E-02 46008   0.203E-01    0.584E-01
DAV:  12    -0.389300413174E+03    0.20736E-04   -0.75022E-03 45736   0.156E-01    0.507E-01
DAV:  13    -0.389300150971E+03    0.26220E-03   -0.30527E-03 45240   0.126E-01    0.406E-01
DAV:  14    -0.389300374147E+03   -0.22318E-03   -0.40921E-03 45816   0.128E-01    0.423E-01
DAV:  15    -0.389300085793E+03    0.28835E-03   -0.14706E-03 45064   0.109E-01    0.181E-01
DAV:  16    -0.389300206786E+03   -0.12099E-03   -0.82216E-04 42816   0.656E-02    0.231E-01
DAV:  17    -0.389300116967E+03    0.89820E-04   -0.80648E-04 37680   0.502E-02    0.947E-02
DAV:  18    -0.389300114589E+03    0.23777E-05   -0.11900E-04 32592   0.270E-02    0.740E-02
DAV:  19    -0.389300103230E+03    0.11359E-04   -0.40194E-05 29416   0.220E-02    0.485E-02
DAV:  20    -0.389300110877E+03   -0.76476E-05   -0.91027E-05 29368   0.228E-02
  28 F= -.38930011E+03 E0= -.38928161E+03  d E =-.429222E-01  mag=    18.0000
       N       E                     dE             d eps       ncg     rms          rms(c)
DAV:   1    -0.389212365300E+03    0.87738E-01   -0.33380E+01 34624   0.128E+01    0.966E-01
DAV:   2    -0.389323691789E+03   -0.11133E+00   -0.11343E+00 33304   0.225E+00    0.107E+00
DAV:   3    -0.389340143239E+03   -0.16451E-01   -0.17503E-01 46408   0.663E-01    0.322E+00
DAV:   4    -0.389325981117E+03    0.14162E-01   -0.18566E-01 46616   0.516E-01    0.149E+00
DAV:   5    -0.389322291723E+03    0.36894E-02   -0.26274E-02 49080   0.250E-01    0.447E-01
DAV:   6    -0.389323004262E+03   -0.71254E-03   -0.10288E-02 48072   0.195E-01    0.826E-01
DAV:   7    -0.389321962954E+03    0.10413E-02   -0.10446E-02 45904   0.192E-01    0.542E-01
DAV:   8    -0.389321749809E+03    0.21315E-03   -0.71149E-03 46376   0.159E-01    0.434E-01
DAV:   9    -0.389321517408E+03    0.23240E-03   -0.28622E-03 44664   0.115E-01    0.279E-01
DAV:  10    -0.389321488374E+03    0.29034E-04   -0.14104E-03 45544   0.736E-02    0.268E-01
DAV:  11    -0.389321396868E+03    0.91506E-04   -0.11345E-03 39616   0.557E-02    0.187E-01
DAV:  12    -0.389321402988E+03   -0.61200E-05   -0.11608E-03 40648   0.539E-02    0.235E-01
DAV:  13    -0.389321378189E+03    0.24799E-04   -0.11537E-03 40152   0.656E-02    0.200E-01
DAV:  14    -0.389321425055E+03   -0.46866E-04   -0.89540E-04 37656   0.485E-02    0.146E-01
DAV:  15    -0.389321410685E+03    0.14370E-04   -0.13221E-04 30568   0.277E-02    0.994E-02
DAV:  16    -0.389321409381E+03    0.13044E-05   -0.77140E-05 28512   0.206E-02
  29 F= -.38932141E+03 E0= -.38930317E+03  d E =-.212985E-01  mag=    18.0000
       N       E                     dE             d eps       ncg     rms          rms(c)
DAV:   1    -0.388860749752E+03    0.46066E+00   -0.13052E+02 34480   0.252E+01    0.203E+00
DAV:   2    -0.389362205588E+03   -0.50146E+00   -0.51398E+00 33352   0.454E+00    0.249E+00
DAV:   3    -0.389418450106E+03   -0.56245E-01   -0.79916E-01 46296   0.149E+00    0.660E+00
DAV:   4    -0.389360443068E+03    0.58007E-01   -0.10856E+00 46584   0.106E+00    0.280E+00
DAV:   5    -0.389347684254E+03    0.12759E-01   -0.76736E-02 48128   0.541E-01    0.131E+00
DAV:   6    -0.389347388949E+03    0.29530E-03   -0.44670E-02 48784   0.382E-01    0.190E+00
DAV:   7    -0.389343478310E+03    0.39106E-02   -0.65198E-02 46944   0.356E-01    0.113E+00
DAV:   8    -0.389342523447E+03    0.95486E-03   -0.26590E-02 45328   0.275E-01    0.931E-01
DAV:   9    -0.389342007212E+03    0.51624E-03   -0.19951E-02 47016   0.250E-01    0.807E-01
DAV:  10    -0.389341445975E+03    0.56124E-03   -0.14773E-02 46144   0.203E-01    0.654E-01
DAV:  11    -0.389340970900E+03    0.47508E-03   -0.80135E-03 45832   0.171E-01    0.501E-01
DAV:  12    -0.389340948735E+03    0.22165E-04   -0.47191E-03 47512   0.161E-01    0.470E-01
DAV:  13    -0.389340790890E+03    0.15784E-03   -0.56267E-03 45752   0.156E-01    0.374E-01
DAV:  14    -0.389340824784E+03   -0.33894E-04   -0.20203E-03 45600   0.945E-02    0.242E-01
DAV:  15    -0.389340817384E+03    0.73996E-05   -0.45308E-04 43984   0.632E-02    0.214E-01
DAV:  16    -0.389340773940E+03    0.43444E-04   -0.10641E-04 31984   0.319E-02    0.167E-01
DAV:  17    -0.389340746620E+03    0.27320E-04   -0.15513E-04 31680   0.308E-02    0.149E-01
DAV:  18    -0.389340736617E+03    0.10003E-04   -0.46834E-04 31144   0.404E-02    0.145E-01
DAV:  19    -0.389340721108E+03    0.15509E-04   -0.33134E-04 32984   0.388E-02    0.940E-02
DAV:  20    -0.389340719088E+03    0.20200E-05   -0.72843E-05 30816   0.299E-02
  30 F= -.38934072E+03 E0= -.38932311E+03  d E =-.406082E-01  mag=    18.0000
       N       E                     dE             d eps       ncg     rms          rms(c)
DAV:   1    -0.389274205414E+03    0.66516E-01   -0.41472E+01 34240   0.141E+01    0.177E+00
DAV:   2    -0.389368184115E+03   -0.93979E-01   -0.14199E+00 33376   0.267E+00    0.159E+00
DAV:   3    -0.389386040802E+03   -0.17857E-01   -0.37198E-01 46368   0.857E-01    0.298E+00
DAV:   4    -0.389395869423E+03   -0.98286E-02   -0.47487E-01 46944   0.840E-01    0.421E+00
DAV:   5    -0.389363710457E+03    0.32159E-01   -0.20615E-01 46352   0.616E-01    0.123E+00
DAV:   6    -0.389364503989E+03   -0.79353E-03   -0.36441E-02 48040   0.381E-01    0.137E+00
DAV:   7    -0.389370541214E+03   -0.60372E-02   -0.10976E-01 48840   0.391E-01    0.300E+00
DAV:   8    -0.389361009124E+03    0.95321E-02   -0.41204E-02 45360   0.334E-01    0.107E+00
DAV:   9    -0.389360268696E+03    0.74043E-03   -0.15493E-02 46584   0.207E-01    0.476E-01
DAV:  10    -0.389360927210E+03   -0.65851E-03   -0.80841E-03 47368   0.159E-01    0.556E-01
DAV:  11    -0.389360585278E+03    0.34193E-03   -0.11813E-03 42208   0.847E-02    0.432E-01
DAV:  12    -0.389360250631E+03    0.33465E-03   -0.12765E-03 38936   0.541E-02    0.274E-01
DAV:  13    -0.389360215807E+03    0.34824E-04   -0.91488E-04 43592   0.487E-02    0.192E-01
DAV:  14    -0.389360336579E+03   -0.12077E-03   -0.11049E-03 38216   0.587E-02    0.265E-01
DAV:  15    -0.389360297323E+03    0.39256E-04   -0.54427E-04 33144   0.469E-02    0.205E-01
DAV:  16    -0.389360252064E+03    0.45259E-04   -0.16605E-04 29568   0.276E-02    0.122E-01
DAV:  17    -0.389360244411E+03    0.76538E-05   -0.59928E-05 28008   0.205E-02
  31 F= -.38936024E+03 E0= -.38934304E+03  d E =-.195253E-01  mag=    18.0000
       N       E                     dE             d eps       ncg     rms          rms(c)
DAV:   1    -0.389284062152E+03    0.76190E-01   -0.39335E+01 34112   0.137E+01    0.173E+00
DAV:   2    -0.389374735708E+03   -0.90674E-01   -0.13597E+00 33368   0.259E+00    0.197E+00
DAV:   3    -0.389383699325E+03   -0.89636E-02   -0.37500E-01 46120   0.802E-01    0.215E+00
DAV:   4    -0.389401403196E+03   -0.17704E-01   -0.35486E-01 46600   0.771E-01    0.393E+00
DAV:   5    -0.389369139229E+03    0.32264E-01   -0.15850E-01 47112   0.561E-01    0.107E+00
DAV:   6    -0.389371264997E+03   -0.21258E-02   -0.34514E-02 49392   0.407E-01    0.158E+00
DAV:   7    -0.389371883102E+03   -0.61811E-03   -0.88951E-02 47648   0.394E-01    0.223E+00
DAV:   8    -0.389366492463E+03    0.53906E-02   -0.25493E-02 45056   0.286E-01    0.935E-01
DAV:   9    -0.389365933637E+03    0.55883E-03   -0.23161E-02 46672   0.203E-01    0.536E-01
DAV:  10    -0.389366162701E+03   -0.22906E-03   -0.20642E-03 42128   0.118E-01    0.531E-01
DAV:  11    -0.389365693389E+03    0.46931E-03   -0.84874E-04 41520   0.637E-02    0.354E-01
DAV:  12    -0.389365574274E+03    0.11912E-03   -0.14577E-03 44200   0.686E-02    0.257E-01
DAV:  13    -0.389365690468E+03   -0.11619E-03   -0.24523E-03 45312   0.944E-02    0.299E-01
DAV:  14    -0.389365680396E+03    0.10072E-04   -0.25160E-03 43776   0.773E-02    0.209E-01
DAV:  15    -0.389365681717E+03   -0.13211E-05   -0.26171E-04 34376   0.390E-02    0.167E-01
DAV:  16    -0.389365646879E+03    0.34838E-04   -0.27600E-04 29776   0.318E-02    0.109E-01
DAV:  17    -0.389365641477E+03    0.54016E-05   -0.51516E-05 29264   0.236E-02
  32 F= -.38936564E+03 E0= -.38934865E+03  d E =-.249224E-01  mag=    18.0000
       N       E                     dE             d eps       ncg     rms          rms(c)
DAV:   1    -0.389255786737E+03    0.10986E+00   -0.46557E+01 34272   0.158E+01    0.166E+00
DAV:   2    -0.389400347791E+03   -0.14456E+00   -0.17665E+00 34512   0.301E+00    0.259E+00
DAV:   3    -0.389402317996E+03   -0.19702E-02   -0.40599E-01 46560   0.103E+00    0.295E+00
DAV:   4    -0.389413912246E+03   -0.11594E-01   -0.51739E-01 47776   0.807E-01    0.378E+00
DAV:   5    -0.389384162491E+03    0.29750E-01   -0.15378E-01 47448   0.605E-01    0.129E+00
DAV:   6    -0.389384979094E+03   -0.81660E-03   -0.48082E-02 49400   0.413E-01    0.132E+00
DAV:   7    -0.389386687723E+03   -0.17086E-02   -0.52545E-02 46912   0.381E-01    0.190E+00
DAV:   8    -0.389381828254E+03    0.48595E-02   -0.25070E-02 44336   0.228E-01    0.611E-01
DAV:   9    -0.389381776669E+03    0.51585E-04   -0.71504E-03 46440   0.178E-01    0.477E-01
DAV:  10    -0.389381603222E+03    0.17345E-03   -0.10490E-03 43840   0.701E-02    0.348E-01
DAV:  11    -0.389381621465E+03   -0.18243E-04   -0.69820E-04 40248   0.584E-02    0.400E-01
DAV:  12    -0.389381540128E+03    0.81338E-04   -0.18641E-03 45120   0.860E-02    0.447E-01
DAV:  13    -0.389381284776E+03    0.25535E-03   -0.31905E-03 45472   0.111E-01    0.380E-01
DAV:  14    -0.389381424893E+03   -0.14012E-03   -0.26937E-03 46528   0.111E-01    0.296E-01
DAV:  15    -0.389381386021E+03    0.38872E-04   -0.94581E-04 44624   0.756E-02    0.248E-01
DAV:  16    -0.389381331083E+03    0.54937E-04   -0.41379E-04 37256   0.434E-02    0.169E-01
DAV:  17    -0.389381313211E+03    0.17873E-04   -0.17682E-04 31096   0.342E-02    0.137E-01
DAV:  18    -0.389381300941E+03    0.12270E-04   -0.42403E-04 32120   0.340E-02    0.105E-01
DAV:  19    -0.389381289133E+03    0.11808E-04   -0.21298E-04 29024   0.268E-02    0.566E-02
DAV:  20    -0.389381289714E+03   -0.58091E-06   -0.21141E-05 26936   0.150E-02
  33 F= -.38938129E+03 E0= -.38936429E+03  d E =-.156482E-01  mag=    18.0000
       N       E                     dE             d eps       ncg     rms          rms(c)
DAV:   1    -0.389348399658E+03    0.32889E-01   -0.13626E+01 34432   0.849E+00    0.895E-01
DAV:   2    -0.389387982453E+03   -0.39583E-01   -0.49319E-01 34136   0.161E+00    0.132E+00
DAV:   3    -0.389388870713E+03   -0.88826E-03   -0.11193E-01 46816   0.523E-01    0.146E+00
DAV:   4    -0.389393382665E+03   -0.45120E-02   -0.12367E-01 47432   0.434E-01    0.234E+00
DAV:   5    -0.389383294858E+03    0.10088E-01   -0.60625E-02 47080   0.311E-01    0.451E-01
DAV:   6    -0.389385686220E+03   -0.23914E-02   -0.16494E-02 49464   0.237E-01    0.104E+00
DAV:   7    -0.389383784922E+03    0.19013E-02   -0.10240E-02 46832   0.205E-01    0.461E-01
DAV:   8    -0.389383596003E+03    0.18892E-03   -0.37375E-03 45624   0.106E-01    0.293E-01
DAV:   9    -0.389383513909E+03    0.82095E-04   -0.12765E-03 44528   0.734E-02    0.200E-01
DAV:  10    -0.389383474456E+03    0.39453E-04   -0.20861E-04 39216   0.373E-02    0.181E-01
DAV:  11    -0.389383452901E+03    0.21555E-04   -0.40436E-04 32128   0.443E-02    0.193E-01
DAV:  12    -0.389383401856E+03    0.51045E-04   -0.95922E-04 38544   0.547E-02    0.183E-01
DAV:  13    -0.389383483345E+03   -0.81489E-04   -0.73313E-04 36488   0.579E-02    0.190E-01
DAV:  14    -0.389383435935E+03    0.47410E-04   -0.29411E-04 31256   0.430E-02    0.107E-01
DAV:  15    -0.389383442130E+03   -0.61951E-05   -0.10326E-04 28832   0.256E-02    0.107E-01
DAV:  16    -0.389383428524E+03    0.13606E-04   -0.52820E-05 26448   0.183E-02    0.744E-02
DAV:  17    -0.389383427709E+03    0.81481E-06   -0.54742E-05 26008   0.153E-02
  34 F= -.38938343E+03 E0= -.38936643E+03  d E =-.177862E-01  mag=    18.0000
       N       E                     dE             d eps       ncg     rms          rms(c)
DAV:   1    -0.389337821609E+03    0.45607E-01   -0.13344E+01 34968   0.969E+00    0.913E-01
DAV:   2    -0.389397067144E+03   -0.59246E-01   -0.65568E-01 33344   0.185E+00    0.129E+00
DAV:   3    -0.389402994221E+03   -0.59271E-02   -0.13345E-01 46752   0.564E-01    0.211E+00
DAV:   4    -0.389404099953E+03   -0.11057E-02   -0.16586E-01 47832   0.472E-01    0.230E+00
DAV:   5    -0.389394083248E+03    0.10017E-01   -0.45190E-02 48232   0.311E-01    0.316E-01
DAV:   6    -0.389397101090E+03   -0.30178E-02   -0.23156E-02 48904   0.221E-01    0.133E+00
DAV:   7    -0.389394581205E+03    0.25199E-02   -0.11028E-02 45880   0.175E-01    0.534E-01
DAV:   8    -0.389394593583E+03   -0.12378E-04   -0.31654E-03 46624   0.114E-01    0.438E-01
DAV:   9    -0.389394379089E+03    0.21449E-03   -0.28985E-03 44704   0.845E-02    0.270E-01
DAV:  10    -0.389394333261E+03    0.45829E-04   -0.34496E-04 37712   0.410E-02    0.188E-01
DAV:  11    -0.389394307413E+03    0.25847E-04   -0.42858E-04 31320   0.454E-02    0.189E-01
DAV:  12    -0.389394329878E+03   -0.22464E-04   -0.11950E-03 40960   0.587E-02    0.270E-01
DAV:  13    -0.389394356211E+03   -0.26334E-04   -0.12645E-03 41568   0.676E-02    0.222E-01
DAV:  14    -0.389394316349E+03    0.39863E-04   -0.62373E-04 34192   0.491E-02    0.120E-01
DAV:  15    -0.389394314258E+03    0.20911E-05   -0.13632E-04 29288   0.277E-02    0.962E-02
DAV:  16    -0.389394317510E+03   -0.32524E-05   -0.94330E-05 28384   0.226E-02
  35 F= -.38939432E+03 E0= -.38937713E+03  d E =-.108898E-01  mag=    18.0000
       N       E                     dE             d eps       ncg     rms          rms(c)
DAV:   1    -0.389229803425E+03    0.16451E+00   -0.38680E+01 34976   0.165E+01    0.158E+00
DAV:   2    -0.389404145630E+03   -0.17434E+00   -0.19248E+00 33288   0.318E+00    0.226E+00
DAV:   3    -0.389417668103E+03   -0.13522E-01   -0.38272E-01 46408   0.986E-01    0.313E+00
DAV:   4    -0.389428849151E+03   -0.11181E-01   -0.54712E-01 47640   0.818E-01    0.387E+00
DAV:   5    -0.389396792212E+03    0.32057E-01   -0.11571E-01 48160   0.575E-01    0.857E-01
DAV:   6    -0.389399306589E+03   -0.25144E-02   -0.32255E-02 50592   0.341E-01    0.120E+00
DAV:   7    -0.389399854353E+03   -0.54776E-03   -0.26533E-02 48256   0.324E-01    0.175E+00
DAV:   8    -0.389396872237E+03    0.29821E-02   -0.19732E-02 44608   0.213E-01    0.851E-01
DAV:   9    -0.389396311784E+03    0.56045E-03   -0.10702E-02 45856   0.196E-01    0.532E-01
DAV:  10    -0.389396331882E+03   -0.20098E-04   -0.34660E-03 46728   0.117E-01    0.518E-01
DAV:  11    -0.389395973912E+03    0.35797E-03   -0.11679E-03 41336   0.675E-02    0.357E-01
DAV:  12    -0.389395959833E+03    0.14079E-04   -0.21996E-03 44264   0.877E-02    0.367E-01
DAV:  13    -0.389395986231E+03   -0.26398E-04   -0.35363E-03 45120   0.108E-01    0.456E-01
DAV:  14    -0.389395962820E+03    0.23411E-04   -0.47203E-03 46392   0.938E-02    0.266E-01
DAV:  15    -0.389395949301E+03    0.13519E-04   -0.76248E-04 43416   0.566E-02    0.188E-01
DAV:  16    -0.389395917077E+03    0.32224E-04   -0.39541E-04 31968   0.336E-02    0.143E-01
DAV:  17    -0.389395925377E+03   -0.82999E-05   -0.24172E-04 31528   0.327E-02    0.147E-01
DAV:  18    -0.389395887079E+03    0.38298E-04   -0.24727E-04 30504   0.322E-02    0.645E-02
DAV:  19    -0.389395894093E+03   -0.70143E-05   -0.58363E-05 28368   0.167E-02
  36 F= -.38939589E+03 E0= -.38937888E+03  d E =-.124664E-01  mag=    18.0000
       N       E                     dE             d eps       ncg     rms          rms(c)
DAV:   1    -0.389369135304E+03    0.26752E-01   -0.66862E+00 34872   0.686E+00    0.627E-01
DAV:   2    -0.389398817652E+03   -0.29682E-01   -0.32639E-01 33376   0.131E+00    0.708E-01
DAV:   3    -0.389400908422E+03   -0.20908E-02   -0.45570E-02 47328   0.348E-01    0.144E+00
DAV:   4    -0.389398695019E+03    0.22134E-02   -0.35887E-02 48880   0.213E-01    0.706E-01
DAV:   5    -0.389398526936E+03    0.16808E-03   -0.11685E-02 47840   0.156E-01    0.602E-01
DAV:   6    -0.389398675461E+03   -0.14852E-03   -0.11986E-02 46784   0.131E-01    0.703E-01
DAV:   7    -0.389398209324E+03    0.46614E-03   -0.73321E-03 46672   0.141E-01    0.464E-01
DAV:   8    -0.389397902990E+03    0.30633E-03   -0.23852E-03 45784   0.966E-02    0.210E-01
DAV:   9    -0.389397922599E+03   -0.19608E-04   -0.35329E-04 38256   0.434E-02    0.180E-01
DAV:  10    -0.389397892677E+03    0.29922E-04   -0.20279E-04 29080   0.301E-02    0.159E-01
DAV:  11    -0.389397860315E+03    0.32362E-04   -0.50177E-05 28808   0.202E-02    0.130E-01
DAV:  12    -0.389397875131E+03   -0.14815E-04   -0.33926E-04 31224   0.457E-02    0.177E-01
DAV:  13    -0.389397865963E+03    0.91679E-05   -0.67259E-04 33152   0.510E-02    0.132E-01
DAV:  14    -0.389397855294E+03    0.10669E-04   -0.20738E-04 30240   0.402E-02    0.817E-02
DAV:  15    -0.389397854860E+03    0.43417E-06   -0.73386E-05 27920   0.223E-02
  37 F= -.38939785E+03 E0= -.38938081E+03  d E =-.144272E-01  mag=    18.0000
       N       E                     dE             d eps       ncg     rms          rms(c)
DAV:   1    -0.389341323634E+03    0.56532E-01   -0.19335E+01 34576   0.113E+01    0.100E+00
DAV:   2    -0.389410586529E+03   -0.69263E-01   -0.78225E-01 33328   0.214E+00    0.106E+00
DAV:   3    -0.389421303837E+03   -0.10717E-01   -0.14141E-01 48120   0.684E-01    0.247E+00
DAV:   4    -0.389414095727E+03    0.72081E-02   -0.17973E-01 47592   0.507E-01    0.203E+00
DAV:   5    -0.389408122761E+03    0.59730E-02   -0.43534E-02 49208   0.289E-01    0.555E-01
DAV:   6    -0.389410486710E+03   -0.23639E-02   -0.23508E-02 48632   0.253E-01    0.139E+00
DAV:   7    -0.389407829691E+03    0.26570E-02   -0.24826E-02 46008   0.197E-01    0.506E-01
DAV:   8    -0.389407810439E+03    0.19253E-04   -0.55190E-03 46344   0.162E-01    0.405E-01
DAV:   9    -0.389407710632E+03    0.99806E-04   -0.26156E-03 46728   0.113E-01    0.301E-01
DAV:  10    -0.389407605697E+03    0.10494E-03   -0.12678E-03 44472   0.793E-02    0.197E-01
DAV:  11    -0.389407549659E+03    0.56037E-04   -0.30729E-04 35256   0.431E-02    0.123E-01
DAV:  12    -0.389407552767E+03   -0.31077E-05   -0.14460E-04 29912   0.338E-02    0.138E-01
DAV:  13    -0.389407517246E+03    0.35521E-04   -0.14089E-04 29592   0.334E-02    0.854E-02
DAV:  14    -0.389407538412E+03   -0.21165E-04   -0.29602E-04 29896   0.335E-02    0.107E-01
DAV:  15    -0.389407532270E+03    0.61413E-05   -0.23200E-04 29320   0.292E-02    0.710E-02
DAV:  16    -0.389407535182E+03   -0.29113E-05   -0.60595E-05 26872   0.194E-02
  38 F= -.38940754E+03 E0= -.38939030E+03  d E =-.968032E-02  mag=    18.0000
       N       E                     dE             d eps       ncg     rms          rms(c)
DAV:   1    -0.389376508632E+03    0.31024E-01   -0.96995E+00 34528   0.801E+00    0.721E-01
DAV:   2    -0.389411317382E+03   -0.34809E-01   -0.39248E-01 33408   0.152E+00    0.825E-01
DAV:   3    -0.389415786148E+03   -0.44688E-02   -0.58525E-02 47552   0.487E-01    0.162E+00
DAV:   4    -0.389411336926E+03    0.44492E-02   -0.32163E-02 49152   0.321E-01    0.103E+00
DAV:   5    -0.389410376485E+03    0.96044E-03   -0.22136E-02 47920   0.188E-01    0.613E-01
DAV:   6    -0.389411186480E+03   -0.80999E-03   -0.15056E-02 47576   0.179E-01    0.954E-01
DAV:   7    -0.389409908072E+03    0.12784E-02   -0.12367E-02 46312   0.144E-01    0.413E-01
DAV:   8    -0.389409806083E+03    0.10199E-03   -0.34502E-03 47432   0.112E-01    0.310E-01
DAV:   9    -0.389409759159E+03    0.46924E-04   -0.13550E-03 44224   0.778E-02    0.211E-01
DAV:  10    -0.389409692950E+03    0.66209E-04   -0.60343E-04 40024   0.565E-02    0.124E-01
DAV:  11    -0.389409677107E+03    0.15843E-04   -0.94504E-05 29416   0.270E-02    0.913E-02
DAV:  12    -0.389409677968E+03   -0.86099E-06   -0.95496E-05 28960   0.241E-02
  39 F= -.38940968E+03 E0= -.38939232E+03  d E =-.118231E-01  mag=    18.0000
       N       E                     dE             d eps       ncg     rms          rms(c)
DAV:   1    -0.389321468656E+03    0.88208E-01   -0.22953E+01 34344   0.128E+01    0.137E+00
DAV:   2    -0.389420764937E+03   -0.99296E-01   -0.11869E+00 33288   0.247E+00    0.142E+00
DAV:   3    -0.389457283741E+03   -0.36519E-01   -0.46634E-01 47160   0.929E-01    0.471E+00
DAV:   4    -0.389422939419E+03    0.34344E-01   -0.48475E-01 46680   0.722E-01    0.203E+00
DAV:   5    -0.389418248362E+03    0.46911E-02   -0.48646E-02 49528   0.441E-01    0.919E-01
DAV:   6    -0.389420682640E+03   -0.24343E-02   -0.31594E-02 49416   0.353E-01    0.155E+00
DAV:   7    -0.389417470743E+03    0.32119E-02   -0.43009E-02 46728   0.264E-01    0.751E-01
DAV:   8    -0.389416869283E+03    0.60146E-03   -0.63722E-03 48480   0.183E-01    0.412E-01
DAV:   9    -0.389416786881E+03    0.82403E-04   -0.14847E-03 45744   0.117E-01    0.325E-01
DAV:  10    -0.389416708831E+03    0.78050E-04   -0.12468E-03 43432   0.765E-02    0.300E-01
DAV:  11    -0.389416622473E+03    0.86358E-04   -0.69898E-04 39520   0.606E-02    0.230E-01
DAV:  12    -0.389416550611E+03    0.71862E-04   -0.18275E-03 44536   0.736E-02    0.254E-01
DAV:  13    -0.389416592665E+03   -0.42054E-04   -0.18737E-03 44432   0.899E-02    0.243E-01
DAV:  14    -0.389416616328E+03   -0.23663E-04   -0.13095E-03 42072   0.689E-02    0.169E-01
DAV:  15    -0.389416585576E+03    0.30752E-04   -0.14192E-04 34048   0.412E-02    0.123E-01
DAV:  16    -0.389416577369E+03    0.82079E-05   -0.99639E-05 29184   0.225E-02
  40 F= -.38941658E+03 E0= -.38939914E+03  d E =-.689940E-02  mag=    18.0000
       N       E                     dE             d eps       ncg     rms          rms(c)
DAV:   1    -0.389414691583E+03    0.18940E-02   -0.46560E-01 34376   0.182E+00    0.214E-01
DAV:   2    -0.389417408660E+03   -0.27171E-02   -0.28081E-02 34312   0.371E-01    0.696E-01
DAV:   3    -0.389416955175E+03    0.45348E-03   -0.12234E-02 45640   0.155E-01    0.509E-01
DAV:   4    -0.389417013009E+03   -0.57834E-04   -0.57312E-03 46056   0.112E-01    0.452E-01
DAV:   5    -0.389416613553E+03    0.39946E-03   -0.19365E-03 44056   0.844E-02    0.137E-01
DAV:   6    -0.389416685783E+03   -0.72230E-04   -0.81203E-04 34640   0.549E-02    0.211E-01
DAV:   7    -0.389416658197E+03    0.27586E-04   -0.82722E-04 34808   0.459E-02    0.162E-01
DAV:   8    -0.389416632726E+03    0.25471E-04   -0.23538E-04 29048   0.272E-02    0.104E-01
DAV:   9    -0.389416630395E+03    0.23314E-05   -0.22180E-05 23744   0.129E-02
  41 F= -.38941663E+03 E0= -.38939928E+03  d E =-.695243E-02  mag=    18.0000
       N       E                     dE             d eps       ncg     rms          rms(c)
DAV:   1    -0.389372702203E+03    0.43931E-01   -0.10784E+01 35112   0.907E+00    0.940E-01
DAV:   2    -0.389427395892E+03   -0.54694E-01   -0.60519E-01 33480   0.175E+00    0.180E+00
DAV:   3    -0.389428555587E+03   -0.11597E-02   -0.11949E-01 46752   0.625E-01    0.207E+00
DAV:   4    -0.389432337228E+03   -0.37816E-02   -0.13903E-01 47248   0.449E-01    0.264E+00
DAV:   5    -0.389421853942E+03    0.10483E-01   -0.11304E-01 47368   0.391E-01    0.869E-01
DAV:   6    -0.389422260235E+03   -0.40629E-03   -0.21890E-02 47656   0.246E-01    0.784E-01
DAV:   7    -0.389421947751E+03    0.31248E-03   -0.12114E-02 47936   0.237E-01    0.704E-01
DAV:   8    -0.389421305587E+03    0.64216E-03   -0.92331E-03 47536   0.187E-01    0.512E-01
DAV:   9    -0.389420886868E+03    0.41872E-03   -0.31990E-03 46480   0.119E-01    0.247E-01
DAV:  10    -0.389420897794E+03   -0.10925E-04   -0.17559E-03 44080   0.642E-02    0.227E-01
DAV:  11    -0.389420806717E+03    0.91077E-04   -0.47277E-04 37224   0.511E-02    0.941E-02
DAV:  12    -0.389420821986E+03   -0.15270E-04   -0.22497E-04 31504   0.401E-02    0.123E-01
DAV:  13    -0.389420811514E+03    0.10472E-04   -0.38758E-04 31632   0.395E-02    0.100E-01
DAV:  14    -0.389420813854E+03   -0.23403E-05   -0.18899E-04 29768   0.323E-02    0.675E-02
DAV:  15    -0.389420814648E+03   -0.79397E-06   -0.43467E-05 27856   0.202E-02
  42 F= -.38942081E+03 E0= -.38940341E+03  d E =-.418425E-02  mag=    18.0000
       N       E                     dE             d eps       ncg     rms          rms(c)
DAV:   1    -0.389415642060E+03    0.51718E-02   -0.12038E+00 34992   0.303E+00    0.321E-01
DAV:   2    -0.389421726322E+03   -0.60843E-02   -0.67506E-02 33712   0.585E-01    0.607E-01
DAV:   3    -0.389421862365E+03   -0.13604E-03   -0.14331E-02 46696   0.212E-01    0.698E-01
DAV:   4    -0.389422276128E+03   -0.41376E-03   -0.14597E-02 46872   0.153E-01    0.847E-01
DAV:   5    -0.389421128387E+03    0.11477E-02   -0.10182E-02 46112   0.132E-01    0.311E-01
DAV:   6    -0.389421126071E+03    0.23164E-05   -0.24154E-03 45608   0.807E-02    0.230E-01
DAV:   7    -0.389421199097E+03   -0.73025E-04   -0.13319E-03 46000   0.775E-02    0.285E-01
DAV:   8    -0.389421056741E+03    0.14236E-03   -0.99359E-04 42176   0.611E-02    0.136E-01
DAV:   9    -0.389421042257E+03    0.14485E-04   -0.18928E-04 29648   0.303E-02    0.943E-02
DAV:  10    -0.389421034384E+03    0.78724E-05   -0.58856E-05 26784   0.144E-02
  43 F= -.38942103E+03 E0= -.38940377E+03  d E =-.440399E-02  mag=    18.0000
       N       E                     dE             d eps       ncg     rms          rms(c)
DAV:   1    -0.389382680547E+03    0.38362E-01   -0.10119E+01 34512   0.837E+00    0.707E-01
DAV:   2    -0.389425103919E+03   -0.42423E-01   -0.44798E-01 33384   0.156E+00    0.817E-01
DAV:   3    -0.389429786076E+03   -0.46822E-02   -0.52049E-02 46200   0.485E-01    0.153E+00
DAV:   4    -0.389425650036E+03    0.41360E-02   -0.42429E-02 48376   0.320E-01    0.100E+00
DAV:   5    -0.389424379049E+03    0.12710E-02   -0.17541E-02 47712   0.178E-01    0.539E-01
DAV:   6    -0.389424738603E+03   -0.35955E-03   -0.71273E-03 50144   0.153E-01    0.628E-01
DAV:   7    -0.389424112249E+03    0.62635E-03   -0.72500E-03 46488   0.157E-01    0.475E-01
DAV:   8    -0.389423826206E+03    0.28604E-03   -0.38443E-03 46224   0.119E-01    0.276E-01
DAV:   9    -0.389423860217E+03   -0.34012E-04   -0.15038E-03 44824   0.766E-02    0.253E-01
DAV:  10    -0.389423761404E+03    0.98814E-04   -0.58023E-04 37520   0.556E-02    0.137E-01
DAV:  11    -0.389423756561E+03    0.48421E-05   -0.92667E-05 29144   0.296E-02
  44 F= -.38942376E+03 E0= -.38940636E+03  d E =-.272218E-02  mag=    18.0000
       N       E                     dE             d eps       ncg     rms          rms(c)
DAV:   1    -0.389423507329E+03    0.25407E-03   -0.59653E-02 34688   0.642E-01    0.124E-01
DAV:   2    -0.389425173041E+03   -0.16657E-02   -0.12521E-02 39896   0.182E-01    0.975E-01
DAV:   3    -0.389423709183E+03    0.14639E-02   -0.10654E-02 43832   0.136E-01    0.247E-01
DAV:   4    -0.389423740504E+03   -0.31322E-04   -0.95348E-04 36936   0.510E-02    0.918E-02
DAV:   5    -0.389423767596E+03   -0.27091E-04   -0.31286E-04 29128   0.299E-02    0.119E-01
DAV:   6    -0.389423749689E+03    0.17907E-04   -0.11536E-04 28232   0.234E-02    0.676E-02
DAV:   7    -0.389423754449E+03   -0.47599E-05   -0.42400E-05 25712   0.146E-02
  45 F= -.38942375E+03 E0= -.38940643E+03  d E =-.272006E-02  mag=    18.0000
       N       E                     dE             d eps       ncg     rms          rms(c)
DAV:   1    -0.389402473685E+03    0.21276E-01   -0.53656E+00 34552   0.609E+00    0.441E-01
DAV:   2    -0.389425780490E+03   -0.23307E-01   -0.23580E-01 33312   0.111E+00    0.566E-01
DAV:   3    -0.389428743740E+03   -0.29633E-02   -0.32501E-02 47584   0.324E-01    0.134E+00
DAV:   4    -0.389426547258E+03    0.21965E-02   -0.28449E-02 48584   0.219E-01    0.755E-01
DAV:   5    -0.389425704163E+03    0.84309E-03   -0.75486E-03 48832   0.132E-01    0.249E-01
DAV:   6    -0.389425774892E+03   -0.70729E-04   -0.14885E-03 46768   0.824E-02    0.284E-01
DAV:   7    -0.389425681072E+03    0.93820E-04   -0.18028E-03 44872   0.922E-02    0.282E-01
DAV:   8    -0.389425567374E+03    0.11370E-03   -0.14346E-03 45144   0.799E-02    0.172E-01
DAV:   9    -0.389425565144E+03    0.22300E-05   -0.48668E-04 42056   0.530E-02    0.138E-01
DAV:  10    -0.389425548171E+03    0.16973E-04   -0.35777E-04 30280   0.393E-02    0.963E-02
DAV:  11    -0.389425536839E+03    0.11331E-04   -0.12675E-04 29288   0.290E-02    0.415E-02
DAV:  12    -0.389425541939E+03   -0.50999E-05   -0.41942E-05 23568   0.158E-02
  46 F= -.38942554E+03 E0= -.38940822E+03  d E =-.178749E-02  mag=    18.0000
       N       E                     dE             d eps       ncg     rms          rms(c)
DAV:   1    -0.389424418442E+03    0.11184E-02   -0.26660E-01 34528   0.136E+00    0.108E-01
DAV:   2    -0.389425608899E+03   -0.11905E-02   -0.11990E-02 33936   0.252E-01    0.168E-01
DAV:   3    -0.389425657943E+03   -0.49044E-04   -0.15683E-03 46256   0.833E-02    0.201E-01
DAV:   4    -0.389425630592E+03    0.27351E-04   -0.97144E-04 37128   0.481E-02    0.205E-01
DAV:   5    -0.389425567588E+03    0.63005E-04   -0.43747E-04 28944   0.278E-02    0.493E-02
DAV:   6    -0.389425587248E+03   -0.19660E-04   -0.10044E-04 28976   0.253E-02    0.899E-02
DAV:   7    -0.389425578325E+03    0.89223E-05   -0.13815E-04 28744   0.249E-02    0.658E-02
DAV:   8    -0.389425576192E+03    0.21331E-05   -0.55169E-05 26464   0.174E-02
  47 F= -.38942558E+03 E0= -.38940821E+03  d E =-.182174E-02  mag=    18.0000
       N       E                     dE             d eps       ncg     rms          rms(c)
DAV:   1    -0.389409893766E+03    0.15685E-01   -0.46003E+00 35320   0.562E+00    0.446E-01
DAV:   2    -0.389427916958E+03   -0.18023E-01   -0.18725E-01 33376   0.104E+00    0.702E-01
DAV:   3    -0.389428926801E+03   -0.10098E-02   -0.26429E-02 47152   0.336E-01    0.947E-01
DAV:   4    -0.389427344271E+03    0.15825E-02   -0.10280E-02 49184   0.185E-01    0.441E-01
DAV:   5    -0.389427181448E+03    0.16282E-03   -0.41368E-03 48096   0.115E-01    0.351E-01
DAV:   6    -0.389427543681E+03   -0.36223E-03   -0.57226E-03 46400   0.987E-02    0.570E-01
DAV:   7    -0.389427171573E+03    0.37211E-03   -0.61725E-03 45856   0.113E-01    0.364E-01
DAV:   8    -0.389427005955E+03    0.16562E-03   -0.14270E-03 46824   0.806E-02    0.184E-01
DAV:   9    -0.389427000459E+03    0.54961E-05   -0.35115E-04 34008   0.432E-02    0.154E-01
DAV:  10    -0.389426987066E+03    0.13394E-04   -0.76613E-05 28208   0.215E-02    0.133E-01
DAV:  11    -0.389426982846E+03    0.42200E-05   -0.86752E-06 21472   0.926E-03
  48 F= -.38942698E+03 E0= -.38940977E+03  d E =-.140665E-02  mag=    18.0000
       N       E                     dE             d eps       ncg     rms          rms(c)
DAV:   1    -0.389425650241E+03    0.13368E-02   -0.37354E-01 35344   0.160E+00    0.172E-01
DAV:   2    -0.389428077048E+03   -0.24268E-02   -0.21259E-02 36792   0.334E-01    0.748E-01
DAV:   3    -0.389427085823E+03    0.99122E-03   -0.84598E-03 43512   0.159E-01    0.338E-01
DAV:   4    -0.389427107389E+03   -0.21566E-04   -0.29921E-03 41952   0.762E-02    0.286E-01
DAV:   5    -0.389427021722E+03    0.85666E-04   -0.10362E-03 37736   0.533E-02    0.166E-01
DAV:   6    -0.389426985082E+03    0.36641E-04   -0.37574E-04 29400   0.374E-02    0.946E-02
DAV:   7    -0.389426993583E+03   -0.85006E-05   -0.18601E-04 29136   0.279E-02    0.112E-01
DAV:   8    -0.389426974709E+03    0.18873E-04   -0.13850E-04 28616   0.216E-02    0.760E-02
DAV:   9    -0.389426970726E+03    0.39837E-05   -0.54510E-05 27696   0.190E-02
  49 F= -.38942697E+03 E0= -.38940952E+03  d E =-.139453E-02  mag=    18.0000
       N       E                     dE             d eps       ncg     rms          rms(c)
DAV:   1    -0.389414317593E+03    0.12657E-01   -0.29514E+00 34728   0.482E+00    0.402E-01
DAV:   2    -0.389429750983E+03   -0.15433E-01   -0.15177E-01 33320   0.929E-01    0.946E-01
DAV:   3    -0.389429105349E+03    0.64563E-03   -0.23773E-02 45848   0.320E-01    0.775E-01
DAV:   4    -0.389429887887E+03   -0.78254E-03   -0.19108E-02 48072   0.197E-01    0.102E+00
DAV:   5    -0.389428142567E+03    0.17453E-02   -0.12079E-02 46888   0.150E-01    0.276E-01
DAV:   6    -0.389428211416E+03   -0.68849E-04   -0.18245E-03 48512   0.869E-02    0.231E-01
DAV:   7    -0.389428193769E+03    0.17647E-04   -0.12157E-03 44704   0.877E-02    0.218E-01
DAV:   8    -0.389428110229E+03    0.83540E-04   -0.10131E-03 44664   0.708E-02    0.176E-01
DAV:   9    -0.389428072032E+03    0.38197E-04   -0.35390E-04 31168   0.381E-02    0.110E-01
DAV:  10    -0.389428075098E+03   -0.30660E-05   -0.28308E-04 29528   0.340E-02    0.137E-01
DAV:  11    -0.389428042428E+03    0.32670E-04   -0.25820E-04 29120   0.342E-02    0.693E-02
DAV:  12    -0.389428068100E+03   -0.25672E-04   -0.20906E-04 29376   0.319E-02    0.981E-02
DAV:  13    -0.389428066583E+03    0.15169E-05   -0.15900E-04 29288   0.284E-02    0.806E-02
DAV:  14    -0.389428062944E+03    0.36393E-05   -0.37001E-05 26248   0.172E-02
  50 F= -.38942806E+03 E0= -.38941064E+03  d E =-.109222E-02  mag=    18.0000
