       N       E                     dE             d eps       ncg     rms          ort
DAV:   1     0.541523859733E+04    0.54152E+04   -0.27059E+05  7904   0.160E+03
DAV:   2     0.170167350317E+03   -0.52451E+04   -0.48866E+04  7904   0.450E+02
DAV:   3    -0.383636898352E+03   -0.55380E+03   -0.54489E+03  7904   0.161E+02
DAV:   4    -0.395874178378E+03   -0.12237E+02   -0.12174E+02  7904   0.254E+01
DAV:   5    -0.396192453474E+03   -0.31828E+00   -0.31797E+00  7904   0.335E+00
SDA:   6    -0.163802881030E+03    0.23239E+03   -0.31797E+00  7904   0.101E+04 0.000E+00
CGA:   7    -0.264290862210E+03   -0.10049E+03   -0.11505E+03  7904   0.781E+03 0.538E+02
CGA:   8    -0.270676885450E+03   -0.63860E+01   -0.21573E+02  7904   0.280E+04-0.100E+04
CGA:   9    -0.251423349148E+03    0.19254E+02   -0.13301E+03  7904   0.286E+04-0.353E+03
CGA:  10    -0.270820876474E+03   -0.19398E+02   -0.80732E+02  7904   0.126E+04 0.189E+03
CGA:  11    -0.295929146999E+03   -0.25108E+02   -0.51637E+02  7904   0.503E+03 0.647E+02
CGA:  12    -0.307147829600E+03   -0.11219E+02   -0.99838E+01  7904   0.563E+03-0.409E+03
CGA:  13    -0.288571006008E+03    0.18577E+02   -0.24343E+02  7904   0.249E+04 0.229E+03
CGA:  14    -0.283127608635E+03    0.54434E+01   -0.17640E+03  7904   0.383E+03-0.218E+03
CGA:  15    -0.294355853228E+03   -0.11228E+02   -0.45173E+01  7904   0.460E+03 0.499E+03
CGA:  16    -0.307915472389E+03   -0.13560E+02   -0.74239E+01  7904   0.453E+03 0.597E+03
CGA:  17    -0.323664469800E+03   -0.15749E+02   -0.89479E+01  7904   0.918E+02-0.112E+03
CGA:  18    -0.327042362979E+03   -0.33779E+01   -0.15632E+01  7904   0.451E+02 0.769E+02
CGA:  19    -0.327648223871E+03   -0.60586E+00   -0.93556E+00  7904   0.701E+02-0.263E+02
CGA:  20    -0.326317100157E+03    0.13311E+01   -0.29650E+01  7904   0.213E+03-0.381E+02
CGA:  21    -0.319626950872E+03    0.66901E+01   -0.67687E+01  7904   0.534E+03-0.235E+03
CGA:  22    -0.312506890425E+03    0.71201E+01   -0.21611E+02  7904   0.276E+03-0.179E+03
CGA:  23    -0.328456927379E+03   -0.15950E+02   -0.44359E+01  7904   0.161E+03-0.201E+03
CGA:  24    -0.317776617641E+03    0.10680E+02   -0.50423E+01  7904   0.884E+03-0.332E+03
CGA:  25    -0.318677253890E+03   -0.90064E+00   -0.27238E+02  7904   0.135E+04-0.503E+03
CGA:  26    -0.306094069078E+03    0.12583E+02   -0.59680E+02  7904   0.481E+03-0.250E+03
CGA:  27    -0.314216959882E+03   -0.81229E+01   -0.94579E+01  7904   0.105E+04-0.190E+03
CGA:  28    -0.286269409202E+03    0.27948E+02   -0.18240E+02  7904   0.672E+03-0.208E+03
CGA:  29    -0.306171056584E+03   -0.19902E+02   -0.75438E+01  7904   0.642E+03 0.841E+03
CGA:  30    -0.328220358538E+03   -0.22049E+02   -0.14665E+02  7904   0.214E+03 0.545E+03
CGA:  31    -0.324026220140E+03    0.41941E+01   -0.57175E+01  7904   0.870E+03-0.409E+03
CGA:  32    -0.324551873225E+03   -0.52565E+00   -0.30240E+02  7904   0.142E+03-0.111E+03
CGA:  33    -0.328908199694E+03   -0.43563E+01   -0.25559E+01  7904   0.111E+03 0.161E+03
CGA:  34    -0.330523246409E+03   -0.16150E+01   -0.18984E+01  7904   0.237E+03-0.308E+03
CGA:  35    -0.327033908090E+03    0.34893E+01   -0.61268E+01  7904   0.169E+03-0.848E+02
CGA:  36    -0.332440699657E+03   -0.54068E+01   -0.20756E+01  7904   0.247E+02-0.356E+02
CGA:  37    -0.332795239785E+03   -0.35454E+00   -0.20991E+00  7904   0.138E+02 0.126E+02
CGA:  38    -0.332923915562E+03   -0.12868E+00   -0.91658E-01  7904   0.305E+01 0.470E+01
CGA:  39    -0.332971772818E+03   -0.47857E-01   -0.36688E-01  7904   0.311E+01 0.111E+01
CGA:  40    -0.333053981736E+03   -0.82209E-01   -0.77264E-01  7904   0.775E+01 0.254E+00
CGA:  41    -0.333119626731E+03   -0.65645E-01   -0.40119E-01  7904   0.913E+01 0.535E+01
CGA:  42    -0.333258276917E+03   -0.13865E+00   -0.18815E+00  7904   0.387E+01-0.149E+01
CGA:  43    -0.333318146307E+03   -0.59869E-01   -0.56366E-01  7904   0.492E+01 0.134E+00
CGA:  44    -0.333699840051E+03   -0.38169E+00   -0.38913E+00  7904   0.127E+02-0.678E+00
CGA:  45    -0.333786547877E+03   -0.86708E-01   -0.49844E-01  7904   0.110E+02 0.776E+01
CGA:  46    -0.333941617267E+03   -0.15507E+00   -0.22555E+00  7904   0.187E+01-0.194E+01
CGA:  47    -0.333990109946E+03   -0.48493E-01   -0.46705E-01  7904   0.374E+01 0.440E-02
CGA:  48    -0.334056776891E+03   -0.66667E-01   -0.62672E-01  7904   0.212E+01 0.193E+00
CGA:  49    -0.334239907695E+03   -0.18313E+00   -0.23982E+00  7904   0.120E+02-0.183E+01
CGA:  50    -0.334357119456E+03   -0.11721E+00   -0.10741E+00  7904   0.245E+01 0.953E+00
CGA:  51    -0.334389830782E+03   -0.32711E-01   -0.27928E-01  7904   0.372E+00 0.385E+00
CGA:  52    -0.334405015693E+03   -0.15185E-01   -0.15052E-01  7904   0.179E+01-0.339E-02
CGA:  53    -0.334447765928E+03   -0.42750E-01   -0.36484E-01  7904   0.390E+01 0.215E+00
CGA:  54    -0.334482101642E+03   -0.34336E-01   -0.21306E-01  7904   0.312E+01 0.270E+01
CGA:  55    -0.334522839441E+03   -0.40738E-01   -0.53789E-01  7904   0.107E+01-0.446E+00
CGA:  56    -0.334536299104E+03   -0.13460E-01   -0.12481E-01  7904   0.669E+00 0.533E-01
CGA:  57    -0.334553190467E+03   -0.16891E-01   -0.16119E-01  7904   0.559E+00 0.922E-02
CGA:  58    -0.334588257412E+03   -0.35067E-01   -0.34151E-01  7904   0.272E+01 0.350E-01
CGA:  59    -0.334654405989E+03   -0.66149E-01   -0.63779E-01  7904   0.318E+01 0.577E-01
CGA:  60    -0.334713465560E+03   -0.59060E-01   -0.39673E-01  7904   0.159E+01 0.142E+01
CGA:  61    -0.334741214267E+03   -0.27749E-01   -0.32706E-01  7904   0.138E+01-0.215E+00
CGA:  62    -0.334773959596E+03   -0.32745E-01   -0.27861E-01  7904   0.159E+01 0.400E-01
CGA:  63    -0.334792570546E+03   -0.18611E-01   -0.16217E-01  7904   0.108E+01 0.200E+00
CGA:  64    -0.334806127972E+03   -0.13557E-01   -0.14983E-01  7904   0.726E+00-0.799E-01
CGA:  65    -0.334815198253E+03   -0.90703E-02   -0.10219E-01  7904   0.864E+00-0.404E-01
CGA:  66    -0.334838353088E+03   -0.23155E-01   -0.23319E-01  7904   0.115E+01 0.234E-01
CGA:  67    -0.334857319266E+03   -0.18966E-01   -0.18278E-01  7904   0.104E+01 0.255E-01
CGA:  68    -0.334878870919E+03   -0.21552E-01   -0.23003E-01  7904   0.794E+00 0.221E-01
CGA:  69    -0.334891942733E+03   -0.13072E-01   -0.14622E-01  7904   0.497E+00-0.180E-01
CGA:  70    -0.334906856757E+03   -0.14914E-01   -0.14964E-01  7904   0.271E+00-0.226E-01
CGA:  71    -0.334922648860E+03   -0.15792E-01   -0.15753E-01  7904   0.348E+00 0.163E-03
CGA:  72    -0.334936953153E+03   -0.14304E-01   -0.14086E-01  7904   0.416E+00 0.167E-01
CGA:  73    -0.334953167389E+03   -0.16214E-01   -0.16219E-01  7904   0.629E+00-0.904E-03
CGA:  74    -0.334978127905E+03   -0.24961E-01   -0.24220E-01  7904   0.277E+00 0.737E-01
CGA:  75    -0.334992502862E+03   -0.14375E-01   -0.14607E-01  7904   0.141E+00-0.131E-01
CGA:  76    -0.335005747978E+03   -0.13245E-01   -0.14174E-01  7904   0.327E+00-0.160E-01
CGA:  77    -0.335024102193E+03   -0.18354E-01   -0.18311E-01  7904   0.221E+00-0.279E-03
CGA:  78    -0.335033934927E+03   -0.98327E-02   -0.98461E-02  7904   0.124E+00-0.148E-02
CGA:  79    -0.335038429838E+03   -0.44949E-02   -0.44910E-02  7904   0.146E+00-0.945E-03
CGA:  80    -0.335042890157E+03   -0.44603E-02   -0.44082E-02  7904   0.180E+00-0.153E-02
CGA:  81    -0.335052029784E+03   -0.91396E-02   -0.89524E-02  7904   0.187E+00 0.112E-01
CGA:  82    -0.335057247959E+03   -0.52182E-02   -0.51552E-02  7904   0.155E+00 0.935E-04
CGA:  83    -0.335063088066E+03   -0.58401E-02   -0.58394E-02  7904   0.132E+00-0.377E-02
CGA:  84    -0.335066583982E+03   -0.34959E-02   -0.35261E-02  7904   0.134E+00 0.458E-03
SDA:  85    -0.335070679650E+03   -0.40957E-02   -0.40281E-02  7904   0.107E+00-0.223E-02
CGA:  86    -0.335073055123E+03   -0.23755E-02   -0.24245E-02  7904   0.532E-01-0.416E-03
CGA:  87    -0.335074670707E+03   -0.16156E-02   -0.16091E-02  7904   0.652E-01-0.345E-03
CGA:  88    -0.335084629729E+03   -0.99590E-02   -0.99167E-02  7904   0.166E+00 0.368E-03
CGA:  89    -0.335092202832E+03   -0.75731E-02   -0.76543E-02  7904   0.300E+00-0.118E-01
CGA:  90    -0.335096499129E+03   -0.42963E-02   -0.43890E-02  7904   0.648E-01-0.349E-02
CGA:  91    -0.335098591355E+03   -0.20922E-02   -0.21025E-02  7904   0.154E+00 0.428E-03
CGA:  92    -0.335103597494E+03   -0.50061E-02   -0.49606E-02  7904   0.561E-01-0.981E-03
CGA:  93    -0.335104496066E+03   -0.89857E-03   -0.87179E-03  7904   0.366E-01 0.130E-02
CGA:  94    -0.335105721788E+03   -0.12257E-02   -0.12229E-02  7904   0.230E-01-0.742E-04
CGA:  95    -0.335106148655E+03   -0.42687E-03   -0.42266E-03  7904   0.214E-01 0.184E-03
CGA:  96    -0.335106762075E+03   -0.61342E-03   -0.60810E-03  7904   0.200E-01-0.566E-04
CGA:  97    -0.335107539048E+03   -0.77697E-03   -0.77734E-03  7904   0.481E-01-0.676E-04
CGA:  98    -0.335108393173E+03   -0.85413E-03   -0.86817E-03  7904   0.133E-01-0.304E-03
CGA:  99    -0.335108950423E+03   -0.55725E-03   -0.55788E-03  7904   0.477E-01-0.666E-04
CGA: 100    -0.335110292001E+03   -0.13416E-02   -0.13113E-02  7904   0.351E-01-0.549E-03
CGA: 101    -0.335110853874E+03   -0.56187E-03   -0.57186E-03  7904   0.325E-01-0.357E-03
CGA: 102    -0.335111773684E+03   -0.91981E-03   -0.92593E-03  7904   0.248E-01 0.269E-03
CGA: 103    -0.335112040900E+03   -0.26722E-03   -0.25992E-03  7904   0.598E-02 0.504E-03
CGA: 104    -0.335112397230E+03   -0.35633E-03   -0.36455E-03  7904   0.431E-01-0.301E-03
CGA: 105    -0.335113711641E+03   -0.13144E-02   -0.13065E-02  7904   0.586E-01-0.120E-02
CGA: 106    -0.335114107995E+03   -0.39635E-03   -0.36165E-03  7904   0.102E-01 0.496E-02
CGA: 107    -0.335114202434E+03   -0.94439E-04   -0.94345E-04  7904   0.789E-02-0.277E-04
CGA: 108    -0.335114451052E+03   -0.24862E-03   -0.24865E-03  7904   0.341E-01 0.211E-04
CGA: 109    -0.335115019591E+03   -0.56854E-03   -0.57616E-03  7904   0.275E-01-0.317E-03
CGA: 110    -0.335115256051E+03   -0.23646E-03   -0.22409E-03  7904   0.127E-01 0.112E-02
CGA: 111    -0.335115419009E+03   -0.16296E-03   -0.15473E-03  7904   0.117E-01 0.433E-03
CGA: 112    -0.335115548918E+03   -0.12991E-03   -0.12260E-03  7904   0.873E-02 0.490E-03
CGA: 113    -0.335115645260E+03   -0.96342E-04   -0.94101E-04  7904   0.904E-02 0.130E-03
CGA: 114    -0.335115777610E+03   -0.13235E-03   -0.13135E-03  7904   0.161E-01 0.117E-04
CGA: 115    -0.335115988070E+03   -0.21046E-03   -0.20639E-03  7904   0.203E-01 0.138E-03
SDA: 116    -0.335116167712E+03   -0.17964E-03   -0.17438E-03  7904   0.149E-01 0.414E-03
CGA: 117    -0.335116488630E+03   -0.32092E-03   -0.32130E-03  7904   0.819E-02 0.474E-04
CGA: 118    -0.335116615929E+03   -0.12730E-03   -0.12747E-03  7904   0.464E-02 0.115E-04
CGA: 119    -0.335116941987E+03   -0.32606E-03   -0.32449E-03  7904   0.115E-01 0.255E-04
CGA: 120    -0.335118367697E+03   -0.14257E-02   -0.15302E-02  7904   0.127E-01-0.328E-02
CGA: 121    -0.335118551108E+03   -0.18341E-03   -0.16854E-03  7904   0.150E-01 0.382E-03
CGA: 122    -0.335119049900E+03   -0.49879E-03   -0.49869E-03  7904   0.132E-01 0.828E-04
CGA: 123    -0.335119238582E+03   -0.18868E-03   -0.20988E-03  7904   0.457E-02-0.508E-03
CGA: 124    -0.335119419849E+03   -0.18127E-03   -0.18308E-03  7904   0.880E-02-0.124E-03
CGA: 125    -0.335119544505E+03   -0.12466E-03   -0.12144E-03  7904   0.232E-02 0.176E-03
CGA: 126    -0.335119609897E+03   -0.65392E-04   -0.65474E-04  7904   0.337E-02 0.115E-04
CGA: 127    -0.335119692126E+03   -0.82229E-04   -0.81683E-04  7904   0.361E-02-0.313E-04
CGA: 128    -0.335119764624E+03   -0.72497E-04   -0.71402E-04  7904   0.269E-02-0.185E-04
CGA: 129    -0.335119826978E+03   -0.62354E-04   -0.62974E-04  7904   0.247E-02 0.621E-05
CGA: 130    -0.335119897517E+03   -0.70539E-04   -0.70497E-04  7904   0.512E-02-0.588E-04
CGA: 131    -0.335120009760E+03   -0.11224E-03   -0.93798E-04  7904   0.428E-02 0.197E-03
CGA: 132    -0.335120067781E+03   -0.58021E-04   -0.52222E-04  7904   0.418E-02 0.319E-03
CGA: 133    -0.335120141758E+03   -0.73977E-04   -0.69181E-04  7904   0.421E-02 0.165E-03
CGA: 134    -0.335120181417E+03   -0.39659E-04   -0.31314E-04  7904   0.283E-02 0.936E-03
CGA: 135    -0.335120217770E+03   -0.36353E-04   -0.32302E-04  7904   0.322E-02 0.279E-03
CGA: 136    -0.335120248879E+03   -0.31109E-04   -0.28537E-04  7904   0.312E-02 0.206E-03
CGA: 137    -0.335120271094E+03   -0.22216E-04   -0.22781E-04  7904   0.218E-02-0.111E-03
CGA: 138    -0.335120287519E+03   -0.16425E-04   -0.17472E-04  7904   0.228E-02-0.123E-03
CGA: 139    -0.335120307940E+03   -0.20421E-04   -0.20678E-04  7904   0.224E-02-0.425E-04
CGA: 140    -0.335120324382E+03   -0.16441E-04   -0.14989E-04  7904   0.156E-02 0.138E-03
CGA: 141    -0.335120337583E+03   -0.13201E-04   -0.12253E-04  7904   0.155E-02 0.772E-04
CGA: 142    -0.335120351339E+03   -0.13756E-04   -0.13012E-04  7904   0.193E-02 0.536E-04
CGA: 143    -0.335120366082E+03   -0.14743E-04   -0.14443E-04  7904   0.215E-02 0.266E-04
CGA: 144    -0.335120380682E+03   -0.14600E-04   -0.15209E-04  7904   0.203E-02-0.554E-04
CGA: 145    -0.335120393062E+03   -0.12380E-04   -0.13188E-04  7904   0.160E-02-0.715E-04
CGA: 146    -0.335120403687E+03   -0.10625E-04   -0.10996E-04  7904   0.149E-02-0.175E-04
SDA: 147    -0.335120416232E+03   -0.12545E-04   -0.12700E-04  7904   0.169E-02 0.908E-05
CGA: 148    -0.335120449788E+03   -0.33557E-04   -0.33553E-04  7904   0.261E-02 0.635E-06
CGA: 149    -0.335120660085E+03   -0.21030E-03   -0.21494E-03  7904   0.660E-02-0.116E-03
CGA: 150    -0.335120816782E+03   -0.15670E-03   -0.15497E-03  7904   0.536E-02 0.303E-03
CGA: 151    -0.335120960140E+03   -0.14336E-03   -0.14280E-03  7904   0.268E-02 0.932E-04
CGA: 152    -0.335121074255E+03   -0.11412E-03   -0.11236E-03  7904   0.198E-02 0.839E-04
CGA: 153    -0.335121114912E+03   -0.40657E-04   -0.40612E-04  7904   0.211E-02-0.896E-05
CGA: 154    -0.335121229616E+03   -0.11470E-03   -0.12099E-03  7904   0.598E-02-0.216E-03
CGA: 155    -0.335121310551E+03   -0.80935E-04   -0.82630E-04  7904   0.137E-02 0.130E-04
CGA: 156    -0.335121333320E+03   -0.22768E-04   -0.22957E-04  7904   0.798E-03 0.534E-05
CGA: 157    -0.335121344910E+03   -0.11590E-04   -0.11621E-04  7904   0.479E-03 0.243E-05
CGA: 158    -0.335121371529E+03   -0.26619E-04   -0.26508E-04  7904   0.102E-02 0.256E-05
CGA: 159    -0.335121384266E+03   -0.12737E-04   -0.12876E-04  7904   0.270E-03-0.184E-05
CGA: 160    -0.335121390987E+03   -0.67215E-05   -0.67234E-05  7904   0.402E-03-0.125E-05
CGA: 161    -0.335121402691E+03   -0.11703E-04   -0.11892E-04  7904   0.496E-03-0.239E-04
CGA: 162    -0.335121415139E+03   -0.12448E-04   -0.12554E-04  7904   0.779E-03-0.239E-04
CGA: 163    -0.335121427614E+03   -0.12475E-04   -0.11918E-04  7904   0.777E-03 0.278E-05
CGA: 164    -0.335121445561E+03   -0.17947E-04   -0.17816E-04  7904   0.158E-02-0.749E-04
CGA: 165    -0.335121453699E+03   -0.81375E-05   -0.53269E-05  7904   0.131E-02 0.710E-03
   1 F= -.33512145E+03 E0= -.33509185E+03  d E =-.335121E+03  mag=    32.0000
       N       E                     dE             d eps       ncg     rms          ort
SDA:   1    -0.297258556695E+03    0.37863E+02    0.00000E+00  7904   0.102E+04 0.000E+00
CGA:   2    -0.315639058968E+03   -0.18381E+02   -0.32955E+02  7904   0.406E+03-0.316E+03
CGA:   3    -0.329303158164E+03   -0.13664E+02    0.33789E+02  7904   0.453E+02 0.525E+02
CGA:   4    -0.332891152784E+03   -0.35880E+01    0.99529E+00  7904   0.178E+03-0.819E+02
CGA:   5    -0.334377472466E+03   -0.14863E+01   -0.13422E+01  7904   0.231E+02-0.272E+01
CGA:   6    -0.334829866407E+03   -0.45239E+00   -0.40889E+00  7904   0.817E+01-0.349E+01
CGA:   7    -0.334915126211E+03   -0.85260E-01   -0.79191E-01  7904   0.788E+01 0.332E+00
CGA:   8    -0.335003640098E+03   -0.88514E-01   -0.55332E-01  7904   0.440E+01 0.457E+01
CGA:   9    -0.335039806964E+03   -0.36167E-01   -0.37710E-01  7904   0.129E+01-0.116E+00
CGA:  10    -0.335059536728E+03   -0.19730E-01   -0.19421E-01  7904   0.377E+00-0.162E-01
CGA:  11    -0.335068339717E+03   -0.88030E-02   -0.89402E-02  7904   0.426E+00-0.207E-01
CGA:  12    -0.335076359935E+03   -0.80202E-02   -0.80243E-02  7904   0.481E+00-0.678E-02
CGA:  13    -0.335098807669E+03   -0.22448E-01   -0.21747E-01  7904   0.446E+00 0.281E-01
CGA:  14    -0.335103930102E+03   -0.51224E-02   -0.51460E-02  7904   0.131E+00-0.988E-03
CGA:  15    -0.335106415315E+03   -0.24852E-02   -0.24912E-02  7904   0.827E-01 0.184E-02
CGA:  16    -0.335110632790E+03   -0.42175E-02   -0.42542E-02  7904   0.198E+00-0.133E-02
CGA:  17    -0.335112757330E+03   -0.21245E-02   -0.21844E-02  7904   0.476E-01-0.253E-02
CGA:  18    -0.335114346699E+03   -0.15894E-02   -0.15505E-02  7904   0.180E-01 0.283E-02
CGA:  19    -0.335114938749E+03   -0.59205E-03   -0.58949E-03  7904   0.308E-01 0.226E-03
CGA:  20    -0.335115782010E+03   -0.84326E-03   -0.84310E-03  7904   0.522E-01 0.255E-04
CGA:  21    -0.335117522634E+03   -0.17406E-02   -0.17317E-02  7904   0.215E-01 0.693E-03
CGA:  22    -0.335117728531E+03   -0.20590E-03   -0.20680E-03  7904   0.541E-02-0.693E-04
CGA:  23    -0.335118443483E+03   -0.71495E-03   -0.19982E-04  7904   0.166E-01-0.423E-03
CGA:  24    -0.335118762183E+03   -0.31870E-03   -0.32155E-03  7904   0.575E-02-0.583E-04
CGA:  25    -0.335118872840E+03   -0.11066E-03   -0.11180E-03  7904   0.734E-02-0.262E-04
CGA:  26    -0.335119340036E+03   -0.46720E-03   -0.46732E-03  7904   0.116E-01-0.389E-05
CGA:  27    -0.335119483386E+03   -0.14335E-03   -0.14521E-03  7904   0.329E-02-0.108E-03
CGA:  28    -0.335119540331E+03   -0.56945E-04   -0.57385E-04  7904   0.183E-02-0.696E-05
CGA:  29    -0.335119781490E+03   -0.24116E-03   -0.23729E-03  7904   0.723E-02 0.449E-04
CGA:  30    -0.335119901027E+03   -0.11954E-03   -0.12031E-03  7904   0.261E-02-0.967E-05
CGA:  31    -0.335119950234E+03   -0.49207E-04   -0.49129E-04  7904   0.122E-02 0.321E-05
CGA:  32    -0.335120031012E+03   -0.80777E-04   -0.80849E-04  7904   0.376E-02-0.224E-05
CGA:  33    -0.335120109350E+03   -0.78338E-04   -0.78547E-04  7904   0.357E-02 0.771E-06
CGA:  34    -0.335120215550E+03   -0.10620E-03   -0.10702E-03  7904   0.224E-02 0.205E-04
CGA:  35    -0.335120274398E+03   -0.58849E-04   -0.59133E-04  7904   0.204E-02 0.671E-05
CGA:  36    -0.335120318668E+03   -0.44270E-04   -0.44575E-04  7904   0.181E-02-0.233E-06
CGA:  37    -0.335120514489E+03   -0.19582E-03   -0.19515E-03  7904   0.355E-02 0.691E-05
CGA:  38    -0.335120581347E+03   -0.66858E-04   -0.67926E-04  7904   0.128E-02-0.173E-04
SDA:  39    -0.335120611603E+03   -0.30256E-04   -0.30442E-04  7904   0.161E-02 0.441E-05
CGA:  40    -0.335120638596E+03   -0.26992E-04   -0.26893E-04  7904   0.115E-02 0.606E-06
CGA:  41    -0.335120682543E+03   -0.43948E-04   -0.43948E-04  7904   0.169E-02 0.418E-06
CGA:  42    -0.335120761520E+03   -0.78977E-04   -0.78957E-04  7904   0.564E-03 0.121E-05
CGA:  43    -0.335120801691E+03   -0.40171E-04   -0.40206E-04  7904   0.174E-02-0.111E-05
CGA:  44    -0.335120834400E+03   -0.32709E-04   -0.32657E-04  7904   0.152E-02 0.441E-05
CGA:  45    -0.335120889953E+03   -0.55553E-04   -0.55515E-04  7904   0.788E-03-0.367E-05
CGA:  46    -0.335120912028E+03   -0.22076E-04   -0.22165E-04  7904   0.626E-03 0.295E-05
CGA:  47    -0.335120922662E+03   -0.10633E-04   -0.10693E-04  7904   0.364E-03 0.182E-05
CGA:  48    -0.335120989843E+03   -0.67182E-04   -0.67280E-04  7904   0.100E-02-0.129E-05
CGA:  49    -0.335121000119E+03   -0.10276E-04   -0.10344E-04  7904   0.323E-03-0.325E-05
CGA:  50    -0.335121063087E+03   -0.62967E-04   -0.61508E-04  7904   0.798E-03 0.960E-05
CGA:  51    -0.335121083695E+03   -0.20608E-04   -0.20694E-04  7904   0.592E-03 0.352E-05
CGA:  52    -0.335121098915E+03   -0.15220E-04   -0.15340E-04  7904   0.716E-03 0.479E-07
CGA:  53    -0.335121138449E+03   -0.39534E-04   -0.39520E-04  7904   0.942E-03 0.338E-05
CGA:  54    -0.335121172854E+03   -0.34405E-04   -0.34485E-04  7904   0.188E-02 0.706E-05
CGA:  55    -0.335121202744E+03   -0.29890E-04   -0.30269E-04  7904   0.219E-03-0.390E-05
CGA:  56    -0.335121217084E+03   -0.14339E-04   -0.14230E-04  7904   0.826E-03 0.515E-05
CGA:  57    -0.335121248803E+03   -0.31720E-04   -0.31808E-04  7904   0.110E-02 0.737E-05
CGA:  58    -0.335121279761E+03   -0.30958E-04   -0.31054E-04  7904   0.156E-03 0.479E-05
CGA:  59    -0.335121283358E+03   -0.35971E-05   -0.36239E-05  7904   0.272E-03 0.103E-05
CGA:  60    -0.335121295765E+03   -0.12408E-04   -0.12403E-04  7904   0.243E-03 0.724E-05
CGA:  61    -0.335121314703E+03   -0.18938E-04   -0.18715E-04  7904   0.251E-03 0.740E-05
CGA:  62    -0.335121320515E+03   -0.58119E-05   -0.58709E-05  7904   0.136E-03 0.142E-05
   2 F= -.33512132E+03 E0= -.33509210E+03  d E =0.133184E-03  mag=    32.0000
       N       E                     dE             d eps       ncg     rms          ort
SDA:   1    -0.335103333977E+03    0.17981E-01    0.00000E+00  7904   0.205E+01 0.000E+00
CGA:   2    -0.335119583300E+03   -0.16249E-01   -0.16615E-01  7904   0.948E-01-0.432E-01
CGA:   3    -0.335120841267E+03   -0.12580E-02   -0.13126E-02  7904   0.720E-02-0.287E-02
CGA:   4    -0.335120941320E+03   -0.10005E-03   -0.99214E-04  7904   0.251E-02 0.350E-04
CGA:   5    -0.335121006680E+03   -0.65360E-04   -0.65058E-04  7904   0.128E-02 0.124E-05
CGA:   6    -0.335121030660E+03   -0.23980E-04   -0.24006E-04  7904   0.122E-02 0.766E-06
CGA:   7    -0.335121090598E+03   -0.59938E-04   -0.59864E-04  7904   0.346E-03 0.598E-05
CGA:   8    -0.335121099314E+03   -0.87159E-05   -0.86826E-05  7904   0.572E-03-0.239E-05
CGA:   9    -0.335121122078E+03   -0.22764E-04   -0.22780E-04  7904   0.670E-03-0.707E-05
CGA:  10    -0.335121138890E+03   -0.16812E-04   -0.16746E-04  7904   0.235E-03-0.594E-05
CGA:  11    -0.335121142238E+03   -0.33475E-05   -0.33055E-05  7904   0.736E-04-0.159E-05
   3 F= -.33512114E+03 E0= -.33509206E+03  d E =0.178277E-03  mag=    32.0000
       N       E                     dE             d eps       ncg     rms          ort
SDA:   1    -0.334197149199E+03    0.92399E+00    0.00000E+00  7904   0.371E+02 0.000E+00
CGA:   2    -0.334483407811E+03   -0.28626E+00   -0.32784E+00  7904   0.402E+01-0.539E+01
CGA:   3    -0.334584256132E+03   -0.10085E+00   -0.10042E+00  7904   0.529E+01-0.158E-01
CGA:   4    -0.334788663857E+03   -0.20441E+00   -0.20379E+00  7904   0.646E+01 0.123E+00
CGA:   5    -0.334919901621E+03   -0.13124E+00   -0.12645E+00  7904   0.224E+01 0.942E-01
CGA:   6    -0.334958342838E+03   -0.38441E-01   -0.37745E-01  7904   0.914E+00 0.238E-01
CGA:   7    -0.334990151480E+03   -0.31809E-01   -0.31799E-01  7904   0.132E+01 0.173E-01
CGA:   8    -0.335031006851E+03   -0.40855E-01   -0.40900E-01  7904   0.130E+01 0.455E-02
CGA:   9    -0.335059832526E+03   -0.28826E-01   -0.28497E-01  7904   0.719E+00 0.123E-02
CGA:  10    -0.335074710300E+03   -0.14878E-01   -0.14937E-01  7904   0.286E+00-0.472E-03
CGA:  11    -0.335080339657E+03   -0.56294E-02   -0.55607E-02  7904   0.164E+00 0.960E-03
CGA:  12    -0.335085336469E+03   -0.49968E-02   -0.49977E-02  7904   0.233E+00 0.215E-03
CGA:  13    -0.335093176009E+03   -0.78395E-02   -0.78356E-02  7904   0.181E+00 0.132E-02
CGA:  14    -0.335096166208E+03   -0.29902E-02   -0.29716E-02  7904   0.406E-01 0.528E-03
CGA:  15    -0.335096906179E+03   -0.73997E-03   -0.73874E-03  7904   0.281E-01 0.221E-04
CGA:  16    -0.335098205301E+03   -0.12991E-02   -0.12976E-02  7904   0.582E-01 0.808E-04
CGA:  17    -0.335099888660E+03   -0.16834E-02   -0.16828E-02  7904   0.381E-01-0.987E-04
CGA:  18    -0.335100523398E+03   -0.63474E-03   -0.63467E-03  7904   0.127E-01-0.100E-05
CGA:  19    -0.335100799779E+03   -0.27638E-03   -0.27660E-03  7904   0.104E-01 0.943E-05
CGA:  20    -0.335101279421E+03   -0.47964E-03   -0.47946E-03  7904   0.198E-01 0.973E-05
CGA:  21    -0.335101768346E+03   -0.48893E-03   -0.48919E-03  7904   0.144E-01 0.160E-04
CGA:  22    -0.335102113621E+03   -0.34527E-03   -0.34548E-03  7904   0.971E-02 0.795E-05
CGA:  23    -0.335102325490E+03   -0.21187E-03   -0.21141E-03  7904   0.486E-02-0.461E-05
CGA:  24    -0.335102464706E+03   -0.13922E-03   -0.13922E-03  7904   0.705E-02 0.296E-05
CGA:  25    -0.335102740787E+03   -0.27608E-03   -0.27592E-03  7904   0.965E-02 0.162E-04
CGA:  26    -0.335102961152E+03   -0.22037E-03   -0.22033E-03  7904   0.454E-02 0.498E-05
CGA:  27    -0.335103050766E+03   -0.89613E-04   -0.89728E-04  7904   0.253E-02 0.774E-05
CGA:  28    -0.335103125677E+03   -0.74911E-04   -0.74911E-04  7904   0.374E-02 0.268E-05
CGA:  29    -0.335103279147E+03   -0.15347E-03   -0.15350E-03  7904   0.378E-02-0.185E-05
CGA:  30    -0.335103341454E+03   -0.62307E-04   -0.62364E-04  7904   0.118E-02-0.237E-07
CGA:  31    -0.335103370010E+03   -0.28556E-04   -0.28574E-04  7904   0.127E-02 0.329E-05
SDA:  32    -0.335103418216E+03   -0.48205E-04   -0.48186E-04  7904   0.162E-02 0.202E-05
CGA:  33    -0.335103432846E+03   -0.14630E-04   -0.14661E-04  7904   0.296E-03-0.633E-06
CGA:  34    -0.335103443859E+03   -0.11013E-04   -0.11027E-04  7904   0.458E-03-0.151E-05
CGA:  35    -0.335103463402E+03   -0.19543E-04   -0.19588E-04  7904   0.912E-03-0.311E-05
CGA:  36    -0.335103497464E+03   -0.34062E-04   -0.34041E-04  7904   0.495E-03 0.231E-05
CGA:  37    -0.335103517901E+03   -0.20437E-04   -0.20407E-04  7904   0.141E-03 0.215E-05
CGA:  38    -0.335103524428E+03   -0.65272E-05   -0.65615E-05  7904   0.293E-03-0.215E-05
   4 F= -.33510352E+03 E0= -.33507440E+03  d E =0.176178E-01  mag=    32.0000
       N       E                     dE             d eps       ncg     rms          ort
SDA:   1    -0.332021536531E+03    0.30820E+01    0.00000E+00  7904   0.351E+03 0.000E+00
CGA:   2    -0.334517942180E+03   -0.24964E+01   -0.38528E+01  7904   0.661E+02-0.150E+03
CGA:   3    -0.335062209139E+03   -0.54427E+00   -0.44927E+00  7904   0.231E+01 0.475E+01
CGA:   4    -0.335080261041E+03   -0.18052E-01   -0.18301E-01  7904   0.187E+00-0.311E-01
CGA:   5    -0.335083025671E+03   -0.27646E-02   -0.28181E-02  7904   0.844E-01-0.132E-02
CGA:   6    -0.335086357802E+03   -0.33321E-02   -0.33538E-02  7904   0.204E+00-0.140E-02
CGA:   7    -0.335092423858E+03   -0.60661E-02   -0.60711E-02  7904   0.310E+00-0.126E-02
CGA:   8    -0.335097258508E+03   -0.48346E-02   -0.48531E-02  7904   0.549E-01-0.420E-03
CGA:   9    -0.335098612221E+03   -0.13537E-02   -0.13562E-02  7904   0.628E-01 0.382E-03
CGA:  10    -0.335099613906E+03   -0.10017E-02   -0.10048E-02  7904   0.285E-01-0.320E-04
CGA:  11    -0.335100518137E+03   -0.90423E-03   -0.90362E-03  7904   0.473E-01 0.861E-04
CGA:  12    -0.335102447077E+03   -0.19289E-02   -0.19340E-02  7904   0.282E-01-0.309E-03
CGA:  13    -0.335102694461E+03   -0.24738E-03   -0.24661E-03  7904   0.300E-02 0.777E-04
CGA:  14    -0.335102778226E+03   -0.83765E-04   -0.83756E-04  7904   0.474E-02 0.594E-05
CGA:  15    -0.335103053482E+03   -0.27526E-03   -0.27571E-03  7904   0.100E-01-0.149E-04
CGA:  16    -0.335103170617E+03   -0.11714E-03   -0.11708E-03  7904   0.177E-02 0.306E-05
CGA:  17    -0.335103199896E+03   -0.29279E-04   -0.29305E-04  7904   0.595E-03 0.104E-05
CGA:  18    -0.335103222842E+03   -0.22946E-04   -0.22979E-04  7904   0.168E-02-0.284E-05
CGA:  19    -0.335103274916E+03   -0.52075E-04   -0.52082E-04  7904   0.186E-02-0.199E-05
CGA:  20    -0.335103302549E+03   -0.27633E-04   -0.27672E-04  7904   0.265E-03 0.857E-07
CGA:  21    -0.335103310424E+03   -0.78747E-05   -0.78753E-05  7904   0.526E-03-0.311E-06
CGA:  22    -0.335103323277E+03   -0.12854E-04   -0.12859E-04  7904   0.415E-03 0.171E-05
CGA:  23    -0.335103332718E+03   -0.94408E-05   -0.94489E-05  7904   0.315E-03 0.171E-05
   5 F= -.33510333E+03 E0= -.33507427E+03  d E =0.191710E-03  mag=    32.0000
       N       E                     dE             d eps       ncg     rms          ort
SDA:   1    -0.335071837643E+03    0.31486E-01    0.00000E+00  7904   0.388E+01 0.000E+00
CGA:   2    -0.335099873167E+03   -0.28036E-01   -0.28119E-01  7904   0.336E-01-0.169E-01
CGA:   3    -0.335100640326E+03   -0.76716E-03   -0.76921E-03  7904   0.147E-01 0.253E-03
CGA:   4    -0.335101990705E+03   -0.13504E-02   -0.13427E-02  7904   0.594E-01 0.139E-03
CGA:   5    -0.335103044410E+03   -0.10537E-02   -0.10518E-02  7904   0.140E-01 0.250E-04
CGA:   6    -0.335103294881E+03   -0.25047E-03   -0.24962E-03  7904   0.109E-01-0.394E-05
CGA:   7    -0.335103588664E+03   -0.29378E-03   -0.29366E-03  7904   0.602E-02-0.617E-04
CGA:   8    -0.335103919869E+03   -0.33120E-03   -0.33069E-03  7904   0.565E-02 0.187E-04
CGA:   9    -0.335104116745E+03   -0.19688E-03   -0.19677E-03  7904   0.417E-02 0.132E-04
CGA:  10    -0.335104163370E+03   -0.46625E-04   -0.46585E-04  7904   0.101E-02-0.185E-05
CGA:  11    -0.335104251048E+03   -0.87679E-04   -0.87909E-04  7904   0.310E-02-0.419E-05
CGA:  12    -0.335104298521E+03   -0.47473E-04   -0.47536E-04  7904   0.224E-03 0.261E-06
CGA:  13    -0.335104306254E+03   -0.77331E-05   -0.77242E-05  7904   0.472E-03 0.237E-05
CGA:  14    -0.335104317716E+03   -0.11461E-04   -0.11483E-04  7904   0.328E-03 0.268E-05
CGA:  15    -0.335104329586E+03   -0.11870E-04   -0.11856E-04  7904   0.180E-03 0.270E-05
CGA:  16    -0.335104335206E+03   -0.56199E-05   -0.56199E-05  7904   0.144E-03-0.285E-06
   6 F= -.33510434E+03 E0= -.33507527E+03  d E =-.100249E-02  mag=    32.0000
       N       E                     dE             d eps       ncg     rms          ort
SDA:   1    -0.310607556085E+03    0.24497E+02    0.00000E+00  7904   0.155E+04 0.000E+00
CGA:   2    -0.322088847020E+03   -0.11481E+02   -0.23290E+02  7904   0.140E+03-0.172E+03
CGA:   3    -0.324641185398E+03   -0.25523E+01   -0.15485E+01  7904   0.670E+02 0.909E+02
CGA:   4    -0.325711458557E+03   -0.10703E+01   -0.61707E+00  7904   0.266E+02 0.356E+02
CGA:   5    -0.327208539843E+03   -0.14971E+01   -0.16471E+01  7904   0.127E+03-0.419E+01
CGA:   6    -0.331184288360E+03   -0.39757E+01   -0.39694E+01  7904   0.119E+03 0.298E+00
CGA:   7    -0.332381834569E+03   -0.11975E+01   -0.17125E+01  7904   0.377E+02-0.227E+02
CGA:   8    -0.332935734302E+03   -0.55390E+00   -0.50461E+00  7904   0.159E+02 0.226E+01
CGA:   9    -0.333343420848E+03   -0.40769E+00   -0.26233E+00  7904   0.126E+02 0.479E+01
CGA:  10    -0.333550219189E+03   -0.20680E+00   -0.18695E+00  7904   0.176E+02 0.103E+01
CGA:  11    -0.333773020592E+03   -0.22280E+00   -0.22894E+00  7904   0.287E+02-0.249E+00
CGA:  12    -0.334035996909E+03   -0.26298E+00   -0.26962E+00  7904   0.355E+02-0.499E+00
CGA:  13    -0.334350521702E+03   -0.31452E+00   -0.32013E+00  7904   0.240E+02 0.248E-01
CGA:  14    -0.334484512959E+03   -0.13399E+00   -0.10858E+00  7904   0.105E+02 0.523E+01
CGA:  15    -0.334555840656E+03   -0.71328E-01   -0.63654E-01  7904   0.493E+01 0.140E+01
CGA:  16    -0.334592971340E+03   -0.37131E-01   -0.36359E-01  7904   0.408E+01 0.102E+00
CGA:  17    -0.334624332341E+03   -0.31361E-01   -0.32330E-01  7904   0.434E+01-0.784E-01
CGA:  18    -0.334656336331E+03   -0.32004E-01   -0.33350E-01  7904   0.453E+01-0.117E+00
CGA:  19    -0.334697336930E+03   -0.41001E-01   -0.41765E-01  7904   0.671E+01-0.405E-01
CGA:  20    -0.334770426031E+03   -0.73089E-01   -0.71627E-01  7904   0.927E+01 0.877E-01
CGA:  21    -0.334829413253E+03   -0.58987E-01   -0.49424E-01  7904   0.501E+01 0.154E+01
CGA:  22    -0.334856544486E+03   -0.27131E-01   -0.24691E-01  7904   0.195E+01 0.495E+00
CGA:  23    -0.334868402439E+03   -0.11858E-01   -0.11555E-01  7904   0.158E+01 0.461E-01
CGA:  24    -0.334880145712E+03   -0.11743E-01   -0.11703E-01  7904   0.214E+01 0.580E-02
CGA:  25    -0.334894925085E+03   -0.14779E-01   -0.16008E-01  7904   0.232E+01-0.907E-01
CGA:  26    -0.334909746019E+03   -0.14821E-01   -0.16531E-01  7904   0.176E+01-0.123E+00
CGA:  27    -0.334922710634E+03   -0.12965E-01   -0.13095E-01  7904   0.152E+01-0.771E-02
CGA:  28    -0.334936958936E+03   -0.14248E-01   -0.14296E-01  7904   0.163E+01-0.131E-02
CGA:  29    -0.334951217166E+03   -0.14258E-01   -0.13831E-01  7904   0.125E+01 0.182E-01
CGA:  30    -0.334959727141E+03   -0.85100E-02   -0.79867E-02  7904   0.780E+00 0.535E-01
CGA:  31    -0.334965564006E+03   -0.58369E-02   -0.55085E-02  7904   0.760E+00 0.279E-01
CGA:  32    -0.334971570787E+03   -0.60068E-02   -0.56222E-02  7904   0.911E+00 0.282E-01
CGA:  33    -0.334976605493E+03   -0.50347E-02   -0.46810E-02  7904   0.690E+00 0.544E-01
CGA:  34    -0.334979763845E+03   -0.31584E-02   -0.31578E-02  7904   0.430E+00 0.546E-03
SDA:  35    -0.334981999911E+03   -0.22361E-02   -0.22708E-02  7904   0.473E+00-0.413E-02
CGA:  36    -0.334992751517E+03   -0.10752E-01   -0.10560E-01  7904   0.323E+00 0.177E-01
CGA:  37    -0.334998167726E+03   -0.54162E-02   -0.53815E-02  7904   0.180E+00 0.768E-02
CGA:  38    -0.335004330576E+03   -0.61628E-02   -0.60547E-02  7904   0.199E+00 0.592E-02
CGA:  39    -0.335009449596E+03   -0.51190E-02   -0.51190E-02  7904   0.139E+00-0.197E-04
CGA:  40    -0.335014156204E+03   -0.47066E-02   -0.47384E-02  7904   0.889E-01-0.178E-02
CGA:  41    -0.335015593635E+03   -0.14374E-02   -0.14378E-02  7904   0.791E-01-0.280E-03
CGA:  42    -0.335021265830E+03   -0.56722E-02   -0.45790E-07  7904   0.198E+00-0.241E-01
CGA:  43    -0.335022784299E+03   -0.15185E-02   -0.15230E-02  7904   0.513E-01-0.247E-03
CGA:  44    -0.335023734657E+03   -0.95036E-03   -0.95680E-03  7904   0.566E-01 0.330E-04
CGA:  45    -0.335024957127E+03   -0.12225E-02   -0.12289E-02  7904   0.542E-01 0.314E-03
CGA:  46    -0.335026268271E+03   -0.13111E-02   -0.13118E-02  7904   0.715E-01 0.103E-03
CGA:  47    -0.335027779576E+03   -0.15113E-02   -0.15175E-02  7904   0.389E-01 0.299E-03
CGA:  48    -0.335028471699E+03   -0.69212E-03   -0.69247E-03  7904   0.382E-01 0.896E-05
CGA:  49    -0.335029252189E+03   -0.78049E-03   -0.77202E-03  7904   0.172E-01-0.306E-03
CGA:  50    -0.335029602392E+03   -0.35020E-03   -0.34984E-03  7904   0.279E-01-0.260E-04
CGA:  51    -0.335030762846E+03   -0.11605E-02   -0.11665E-02  7904   0.478E-01-0.335E-03
CGA:  52    -0.335031293840E+03   -0.53099E-03   -0.53330E-03  7904   0.105E-01-0.989E-04
CGA:  53    -0.335031527084E+03   -0.23324E-03   -0.23345E-03  7904   0.202E-01 0.308E-04
CGA:  54    -0.335032221800E+03   -0.69472E-03   -0.69295E-03  7904   0.251E-01 0.155E-03
CGA:  55    -0.335032649164E+03   -0.42736E-03   -0.42548E-03  7904   0.196E-01 0.122E-04
CGA:  56    -0.335032975703E+03   -0.32654E-03   -0.32649E-03  7904   0.909E-02 0.577E-05
CGA:  57    -0.335033115879E+03   -0.14018E-03   -0.13998E-03  7904   0.647E-02 0.663E-05
CGA:  58    -0.335033263097E+03   -0.14722E-03   -0.14711E-03  7904   0.643E-02-0.274E-04
CGA:  59    -0.335033377358E+03   -0.11426E-03   -0.11405E-03  7904   0.733E-02-0.967E-05
CGA:  60    -0.335033766562E+03   -0.38920E-03   -0.38952E-03  7904   0.218E-01-0.126E-04
CGA:  61    -0.335034007861E+03   -0.24130E-03   -0.24206E-03  7904   0.262E-02-0.388E-04
CGA:  62    -0.335034041417E+03   -0.33555E-04   -0.33666E-04  7904   0.184E-02 0.260E-05
CGA:  63    -0.335034110358E+03   -0.68942E-04   -0.68691E-04  7904   0.426E-02 0.175E-04
CGA:  64    -0.335034189145E+03   -0.78787E-04   -0.78754E-04  7904   0.301E-02 0.315E-05
CGA:  65    -0.335034255631E+03   -0.66486E-04   -0.66447E-04  7904   0.232E-02-0.616E-05
SDA:  66    -0.335034284080E+03   -0.28449E-04   -0.28472E-04  7904   0.107E-02 0.523E-06
CGA:  67    -0.335034320404E+03   -0.36324E-04   -0.36334E-04  7904   0.111E-02-0.157E-05
CGA:  68    -0.335034345218E+03   -0.24813E-04   -0.24810E-04  7904   0.132E-02-0.248E-05
CGA:  69    -0.335034379945E+03   -0.34727E-04   -0.34749E-04  7904   0.382E-03-0.967E-05
CGA:  70    -0.335034395050E+03   -0.15106E-04   -0.15141E-04  7904   0.715E-03-0.239E-05
CGA:  71    -0.335034416675E+03   -0.21625E-04   -0.21603E-04  7904   0.421E-03 0.290E-05
CGA:  72    -0.335034462052E+03   -0.45377E-04   -0.45886E-04  7904   0.253E-03-0.604E-05
CGA:  73    -0.335034468291E+03   -0.62387E-05   -0.62314E-05  7904   0.231E-03-0.151E-05
   7 F= -.33503447E+03 E0= -.33500562E+03  d E =0.698669E-01  mag=    32.0000
       N       E                     dE             d eps       ncg     rms          ort
SDA:   1    -0.329362741279E+03    0.56717E+01    0.00000E+00  7904   0.249E+03 0.000E+00
CGA:   2    -0.331651073489E+03   -0.22883E+01   -0.22701E+01  7904   0.154E+02 0.206E+01
CGA:   3    -0.331963717450E+03   -0.31264E+00   -0.30327E+00  7904   0.210E+02-0.931E-01
CGA:   4    -0.333378111912E+03   -0.14144E+01   -0.12508E+01  7904   0.109E+02 0.468E+01
CGA:   5    -0.333877753645E+03   -0.49964E+00   -0.61020E+00  7904   0.217E+02-0.679E+01
CGA:   6    -0.334134205049E+03   -0.25645E+00   -0.23983E+00  7904   0.439E+01 0.120E+01
CGA:   7    -0.334226973983E+03   -0.92769E-01   -0.92956E-01  7904   0.424E+01 0.322E-02
CGA:   8    -0.334413639528E+03   -0.18667E+00   -0.18013E+00  7904   0.633E+01 0.383E+00
CGA:   9    -0.334688321875E+03   -0.27468E+00   -0.29525E+00  7904   0.536E+01-0.130E+01
CGA:  10    -0.334749126934E+03   -0.60805E-01   -0.62881E-01  7904   0.192E+01-0.723E-01
CGA:  11    -0.334807797240E+03   -0.58670E-01   -0.58441E-01  7904   0.341E+01 0.777E-01
CGA:  12    -0.334918456072E+03   -0.11066E+00   -0.11062E+00  7904   0.239E+01 0.107E-01
CGA:  13    -0.334989311575E+03   -0.70856E-01   -0.70870E-01  7904   0.554E+00-0.750E-01
CGA:  14    -0.334998959323E+03   -0.96477E-02   -0.94130E-02  7904   0.435E+00 0.356E-02
CGA:  15    -0.335010167324E+03   -0.11208E-01   -0.11208E-01  7904   0.411E+00-0.144E-04
CGA:  16    -0.335022423573E+03   -0.12256E-01   -0.12254E-01  7904   0.369E+00 0.968E-03
CGA:  17    -0.335029707498E+03   -0.72839E-02   -0.72162E-02  7904   0.881E-01-0.202E-03
CGA:  18    -0.335032725110E+03   -0.30176E-02   -0.30199E-02  7904   0.219E+00-0.260E-03
CGA:  19    -0.335038364689E+03   -0.56396E-02   -0.56366E-02  7904   0.155E+00-0.454E-03
CGA:  20    -0.335043731619E+03   -0.53669E-02   -0.53586E-02  7904   0.780E-01 0.911E-03
CGA:  21    -0.335044839479E+03   -0.11079E-02   -0.11176E-02  7904   0.319E-01-0.322E-03
CGA:  22    -0.335045960609E+03   -0.11211E-02   -0.11210E-02  7904   0.758E-01 0.123E-04
CGA:  23    -0.335048247723E+03   -0.22871E-02   -0.22891E-02  7904   0.672E-01-0.597E-03
CGA:  24    -0.335050992634E+03   -0.27449E-02   -0.27291E-02  7904   0.325E-01 0.103E-02
CGA:  25    -0.335051402177E+03   -0.40954E-03   -0.40821E-03  7904   0.118E-01 0.672E-04
CGA:  26    -0.335051721646E+03   -0.31947E-03   -0.31940E-03  7904   0.149E-01-0.291E-04
CGA:  27    -0.335052234730E+03   -0.51308E-03   -0.51292E-03  7904   0.194E-01 0.175E-04
CGA:  28    -0.335053030260E+03   -0.79553E-03   -0.79657E-03  7904   0.107E-01-0.696E-04
CGA:  29    -0.335053199400E+03   -0.16914E-03   -0.16924E-03  7904   0.715E-02-0.322E-05
CGA:  30    -0.335053378963E+03   -0.17956E-03   -0.17962E-03  7904   0.671E-02 0.266E-05
CGA:  31    -0.335053649597E+03   -0.27063E-03   -0.27085E-03  7904   0.907E-02-0.177E-04
CGA:  32    -0.335053840618E+03   -0.19102E-03   -0.19111E-03  7904   0.227E-02-0.752E-06
CGA:  33    -0.335053906686E+03   -0.66068E-04   -0.66068E-04  7904   0.405E-02-0.160E-06
CGA:  34    -0.335054007184E+03   -0.10050E-03   -0.10053E-03  7904   0.370E-02 0.663E-05
CGA:  35    -0.335054158844E+03   -0.15166E-03   -0.15156E-03  7904   0.253E-02 0.799E-05
SDA:  36    -0.335054196743E+03   -0.37899E-04   -0.37839E-04  7904   0.674E-03 0.126E-06
CGA:  37    -0.335054210301E+03   -0.13558E-04   -0.13582E-04  7904   0.759E-03 0.182E-05
CGA:  38    -0.335054241115E+03   -0.30814E-04   -0.30810E-04  7904   0.144E-02 0.178E-06
CGA:  39    -0.335054284835E+03   -0.43720E-04   -0.43726E-04  7904   0.137E-02-0.314E-05
CGA:  40    -0.335054309315E+03   -0.24480E-04   -0.24465E-04  7904   0.267E-03-0.160E-05
CGA:  41    -0.335054339682E+03   -0.30367E-04   -0.30456E-04  7904   0.822E-03-0.108E-05
CGA:  42    -0.335054358448E+03   -0.18766E-04   -0.18767E-04  7904   0.617E-03-0.966E-07
CGA:  43    -0.335054367005E+03   -0.85568E-05   -0.85746E-05  7904   0.180E-03 0.464E-06
CGA:  44    -0.335054382504E+03   -0.15499E-04   -0.15539E-04  7904   0.266E-03-0.792E-06
CGA:  45    -0.335054393234E+03   -0.10730E-04   -0.10738E-04  7904   0.386E-03-0.120E-05
CGA:  46    -0.335054400301E+03   -0.70664E-05   -0.70238E-05  7904   0.926E-04-0.202E-05
   8 F= -.33505440E+03 E0= -.33502495E+03  d E =-.199320E-01  mag=    32.0000
       N       E                     dE             d eps       ncg     rms          ort
SDA:   1    -0.333965688924E+03    0.10887E+01    0.00000E+00  7904   0.984E+02 0.000E+00
CGA:   2    -0.334701157185E+03   -0.73547E+00   -0.88750E+00  7904   0.727E+01-0.209E+02
CGA:   3    -0.334771412513E+03   -0.70255E-01   -0.66926E-01  7904   0.107E+01 0.198E+00
CGA:   4    -0.334855536611E+03   -0.84124E-01   -0.80365E-01  7904   0.300E+01 0.937E-01
CGA:   5    -0.334938446817E+03   -0.82910E-01   -0.82693E-01  7904   0.165E+01-0.389E-02
CGA:   6    -0.334974286149E+03   -0.35839E-01   -0.35910E-01  7904   0.106E+01 0.465E-04
CGA:   7    -0.334993177995E+03   -0.18892E-01   -0.18386E-01  7904   0.628E+00 0.141E-01
CGA:   8    -0.335017869810E+03   -0.24692E-01   -0.24961E-01  7904   0.776E+00-0.253E-01
CGA:   9    -0.335046868344E+03   -0.28999E-01   -0.28901E-01  7904   0.712E+00 0.998E-02
CGA:  10    -0.335062317764E+03   -0.15449E-01   -0.15312E-01  7904   0.108E+00 0.759E-03
CGA:  11    -0.335064951156E+03   -0.26334E-02   -0.26405E-02  7904   0.102E+00 0.187E-03
CGA:  12    -0.335070664556E+03   -0.57134E-02   -0.57354E-02  7904   0.281E+00-0.831E-03
CGA:  13    -0.335075506779E+03   -0.48422E-02   -0.48376E-02  7904   0.829E-01 0.143E-03
CGA:  14    -0.335076768148E+03   -0.12614E-02   -0.12746E-02  7904   0.204E-01-0.441E-03
CGA:  15    -0.335077728298E+03   -0.96015E-03   -0.95976E-03  7904   0.397E-01 0.228E-04
CGA:  16    -0.335079071814E+03   -0.13435E-02   -0.13434E-02  7904   0.127E-01 0.521E-04
CGA:  17    -0.335079297681E+03   -0.22587E-03   -0.22534E-03  7904   0.830E-02 0.900E-05
CGA:  18    -0.335079655650E+03   -0.35797E-03   -0.35817E-03  7904   0.246E-01-0.151E-04
CGA:  19    -0.335080362257E+03   -0.70661E-03   -0.70677E-03  7904   0.625E-02 0.214E-04
CGA:  20    -0.335080464445E+03   -0.10219E-03   -0.10202E-03  7904   0.196E-02 0.548E-06
CGA:  21    -0.335080602331E+03   -0.13789E-03   -0.13738E-03  7904   0.566E-02 0.134E-04
CGA:  22    -0.335080817045E+03   -0.21471E-03   -0.21474E-03  7904   0.322E-02-0.456E-05
CGA:  23    -0.335080870016E+03   -0.52970E-04   -0.53043E-04  7904   0.896E-03-0.917E-06
CGA:  24    -0.335080889523E+03   -0.19507E-04   -0.19489E-04  7904   0.126E-02-0.185E-05
CGA:  25    -0.335080971269E+03   -0.81746E-04   -0.81930E-04  7904   0.264E-02-0.554E-05
CGA:  26    -0.335081019429E+03   -0.48160E-04   -0.48156E-04  7904   0.264E-03-0.100E-05
CGA:  27    -0.335081027430E+03   -0.80007E-05   -0.79992E-05  7904   0.394E-03-0.577E-06
CGA:  28    -0.335081054472E+03   -0.27043E-04   -0.26969E-04  7904   0.102E-02 0.204E-05
CGA:  29    -0.335081069535E+03   -0.15063E-04   -0.15107E-04  7904   0.283E-03 0.135E-05
CGA:  30    -0.335081075276E+03   -0.57414E-05   -0.57368E-05  7904   0.175E-03-0.280E-06
   9 F= -.33508108E+03 E0= -.33505183E+03  d E =-.266750E-01  mag=    32.0000
       N       E                     dE             d eps       ncg     rms          ort
SDA:   1    -0.334908026483E+03    0.17304E+00    0.00000E+00  7904   0.555E+01 0.000E+00
CGA:   2    -0.334952549940E+03   -0.44523E-01   -0.48995E-01  7904   0.768E+00-0.432E+00
CGA:   3    -0.334976592098E+03   -0.24042E-01   -0.23928E-01  7904   0.864E+00 0.477E-01
CGA:   4    -0.334999256339E+03   -0.22664E-01   -0.22548E-01  7904   0.881E+00-0.249E-02
CGA:   5    -0.335034745720E+03   -0.35489E-01   -0.35525E-01  7904   0.106E+01-0.305E-02
CGA:   6    -0.335050732096E+03   -0.15986E-01   -0.15823E-01  7904   0.275E+00 0.674E-02
CGA:   7    -0.335057775668E+03   -0.70436E-02   -0.70213E-02  7904   0.205E+00-0.861E-03
CGA:   8    -0.335064645972E+03   -0.68703E-02   -0.68687E-02  7904   0.341E+00 0.429E-03
CGA:   9    -0.335075065984E+03   -0.10420E-01   -0.10420E-01  7904   0.256E+00 0.348E-04
CGA:  10    -0.335078746299E+03   -0.36803E-02   -0.36514E-02  7904   0.380E-01 0.121E-02
CGA:  11    -0.335079752818E+03   -0.10065E-02   -0.10091E-02  7904   0.379E-01 0.221E-03
CGA:  12    -0.335080848505E+03   -0.10957E-02   -0.10957E-02  7904   0.488E-01 0.183E-04
CGA:  13    -0.335082440235E+03   -0.15917E-02   -0.15924E-02  7904   0.492E-01-0.174E-03
CGA:  14    -0.335083422144E+03   -0.98191E-03   -0.98118E-03  7904   0.133E-01 0.486E-05
CGA:  15    -0.335083659387E+03   -0.23724E-03   -0.23680E-03  7904   0.563E-02 0.646E-07
CGA:  16    -0.335083779084E+03   -0.11970E-03   -0.11964E-03  7904   0.532E-02 0.222E-05
CGA:  17    -0.335084083353E+03   -0.30427E-03   -0.30367E-03  7904   0.113E-01 0.211E-04
CGA:  18    -0.335084327867E+03   -0.24451E-03   -0.24444E-03  7904   0.422E-02 0.913E-05
CGA:  19    -0.335084405361E+03   -0.77494E-04   -0.77568E-04  7904   0.248E-02 0.264E-06
CGA:  20    -0.335084468892E+03   -0.63531E-04   -0.63560E-04  7904   0.229E-02 0.450E-05
CGA:  21    -0.335084567162E+03   -0.98271E-04   -0.98376E-04  7904   0.284E-02-0.718E-05
CGA:  22    -0.335084616796E+03   -0.49633E-04   -0.49628E-04  7904   0.109E-02-0.408E-06
CGA:  23    -0.335084642908E+03   -0.26112E-04   -0.26100E-04  7904   0.108E-02-0.257E-05
CGA:  24    -0.335084678388E+03   -0.35480E-04   -0.35502E-04  7904   0.112E-02-0.470E-05
CGA:  25    -0.335084721137E+03   -0.42749E-04   -0.42744E-04  7904   0.154E-02 0.447E-06
CGA:  26    -0.335084746587E+03   -0.25450E-04   -0.25468E-04  7904   0.373E-03 0.180E-05
CGA:  27    -0.335084753893E+03   -0.73057E-05   -0.72986E-05  7904   0.264E-03-0.722E-06
CGA:  28    -0.335084766774E+03   -0.12881E-04   -0.12851E-04  7904   0.533E-03 0.147E-05
CGA:  29    -0.335084782569E+03   -0.15795E-04   -0.15795E-04  7904   0.585E-03-0.417E-06
CGA:  30    -0.335084793483E+03   -0.10914E-04   -0.10916E-04  7904   0.136E-03 0.558E-06
CGA:  31    -0.335084796129E+03   -0.26453E-05   -0.26469E-05  7904   0.929E-04 0.135E-06
  10 F= -.33508480E+03 E0= -.33505555E+03  d E =-.372085E-02  mag=    32.0000
       N       E                     dE             d eps       ncg     rms          ort
SDA:   1    -0.334849892323E+03    0.23490E+00    0.00000E+00  7904   0.175E+02 0.000E+00
CGA:   2    -0.334979226216E+03   -0.12933E+00   -0.12423E+00  7904   0.288E+00 0.447E+00
CGA:   3    -0.334996704849E+03   -0.17479E-01   -0.17748E-01  7904   0.152E+01-0.877E-02
CGA:   4    -0.335039260240E+03   -0.42555E-01   -0.42548E-01  7904   0.134E+01-0.322E-02
CGA:   5    -0.335056780891E+03   -0.17521E-01   -0.18154E-01  7904   0.398E+00-0.269E-01
CGA:   6    -0.335063594818E+03   -0.68139E-02   -0.68629E-02  7904   0.185E+00-0.541E-03
CGA:   7    -0.335066557568E+03   -0.29627E-02   -0.29738E-02  7904   0.173E+00-0.218E-03
CGA:   8    -0.335075275946E+03   -0.87184E-02   -0.86261E-02  7904   0.151E+00 0.386E-02
CGA:   9    -0.335078386888E+03   -0.31109E-02   -0.30974E-02  7904   0.169E+00-0.624E-04
CGA:  10    -0.335081306498E+03   -0.29196E-02   -0.28683E-02  7904   0.299E-01 0.835E-03
CGA:  11    -0.335081962130E+03   -0.65563E-03   -0.65586E-03  7904   0.319E-01 0.396E-05
CGA:  12    -0.335082586159E+03   -0.62403E-03   -0.62351E-03  7904   0.301E-01-0.946E-05
CGA:  13    -0.335083622235E+03   -0.10361E-02   -0.10368E-02  7904   0.263E-01-0.784E-04
CGA:  14    -0.335083948553E+03   -0.32632E-03   -0.32801E-03  7904   0.609E-02-0.751E-04
CGA:  15    -0.335084061504E+03   -0.11295E-03   -0.11310E-03  7904   0.768E-02 0.710E-05
CGA:  16    -0.335084437063E+03   -0.37556E-03   -0.37466E-03  7904   0.670E-02 0.388E-04
CGA:  17    -0.335084539052E+03   -0.10199E-03   -0.10184E-03  7904   0.450E-02 0.455E-05
CGA:  18    -0.335084613287E+03   -0.74235E-04   -0.74141E-04  7904   0.120E-02 0.476E-05
CGA:  19    -0.335084669095E+03   -0.55808E-04   -0.55702E-04  7904   0.381E-02 0.529E-05
CGA:  20    -0.335084736200E+03   -0.67105E-04   -0.67216E-04  7904   0.180E-02 0.263E-05
CGA:  21    -0.335084799565E+03   -0.63366E-04   -0.63372E-04  7904   0.213E-02-0.753E-06
CGA:  22    -0.335084828295E+03   -0.28730E-04   -0.28596E-04  7904   0.458E-03 0.117E-05
CGA:  23    -0.335084835227E+03   -0.69313E-05   -0.69161E-05  7904   0.385E-03-0.986E-06
CGA:  24    -0.335084862709E+03   -0.27482E-04   -0.27279E-04  7904   0.807E-03 0.460E-05
CGA:  25    -0.335084876284E+03   -0.13576E-04   -0.13583E-04  7904   0.628E-03 0.116E-05
CGA:  26    -0.335084887598E+03   -0.11314E-04   -0.11283E-04  7904   0.147E-03-0.132E-05
CGA:  27    -0.335084894595E+03   -0.69970E-05   -0.70105E-05  7904   0.576E-03-0.664E-06
CGA:  28    -0.335084906927E+03   -0.12332E-04   -0.12331E-04  7904   0.241E-03-0.292E-06
CGA:  29    -0.335084912255E+03   -0.53276E-05   -0.53254E-05  7904   0.164E-03-0.391E-06
  11 F= -.33508491E+03 E0= -.33505566E+03  d E =-.116126E-03  mag=    32.0000
       N       E                     dE             d eps       ncg     rms          ort
SDA:   1    -0.334902815406E+03    0.18209E+00    0.00000E+00  7904   0.590E+00 0.000E+00
CGA:   2    -0.334932657235E+03   -0.29842E-01   -0.29386E-01  7904   0.179E+01 0.191E-01
CGA:   3    -0.334985577895E+03   -0.52921E-01   -0.52919E-01  7904   0.240E+01 0.143E-02
CGA:   4    -0.335041369547E+03   -0.55792E-01   -0.55847E-01  7904   0.590E+00 0.324E-02
CGA:   5    -0.335049317921E+03   -0.79484E-02   -0.77268E-02  7904   0.166E+00 0.954E-02
CGA:   6    -0.335067630912E+03   -0.18313E-01   -0.18675E-01  7904   0.480E+00-0.559E-02
CGA:   7    -0.335073352493E+03   -0.57216E-02   -0.57873E-02  7904   0.170E+00-0.361E-02
CGA:   8    -0.335078090194E+03   -0.47377E-02   -0.47560E-02  7904   0.415E-01 0.329E-02
CGA:   9    -0.335079587444E+03   -0.14973E-02   -0.14997E-02  7904   0.601E-01-0.321E-03
CGA:  10    -0.335081030995E+03   -0.14436E-02   -0.14431E-02  7904   0.404E-01-0.295E-04
CGA:  11    -0.335082036053E+03   -0.10051E-02   -0.10059E-02  7904   0.240E-01 0.322E-04
CGA:  12    -0.335082339983E+03   -0.30393E-03   -0.30193E-03  7904   0.658E-02 0.935E-04
CGA:  13    -0.335083138826E+03   -0.79884E-03   -0.79890E-03  7904   0.978E-02-0.154E-05
CGA:  14    -0.335083298054E+03   -0.15923E-03   -0.15996E-03  7904   0.451E-02-0.909E-05
CGA:  15    -0.335083394813E+03   -0.96759E-04   -0.97104E-04  7904   0.215E-02 0.347E-05
CGA:  16    -0.335083444695E+03   -0.49881E-04   -0.49865E-04  7904   0.297E-02-0.289E-06
CGA:  17    -0.335083578412E+03   -0.13372E-03   -0.13383E-03  7904   0.231E-02-0.759E-05
CGA:  18    -0.335083661864E+03   -0.83453E-04   -0.83464E-04  7904   0.876E-03-0.217E-05
CGA:  19    -0.335083673773E+03   -0.11909E-04   -0.11877E-04  7904   0.516E-03-0.368E-06
CGA:  20    -0.335083710696E+03   -0.36923E-04   -0.36853E-04  7904   0.157E-02 0.169E-05
CGA:  21    -0.335083740597E+03   -0.29901E-04   -0.29980E-04  7904   0.533E-03 0.381E-05
CGA:  22    -0.335083755468E+03   -0.14871E-04   -0.14888E-04  7904   0.256E-03 0.295E-05
CGA:  23    -0.335083765538E+03   -0.10070E-04   -0.10068E-04  7904   0.667E-03 0.162E-06
CGA:  24    -0.335083781966E+03   -0.16428E-04   -0.16435E-04  7904   0.373E-03 0.818E-06
CGA:  25    -0.335083794683E+03   -0.12717E-04   -0.12719E-04  7904   0.179E-03-0.131E-05
CGA:  26    -0.335083798424E+03   -0.37409E-05   -0.37352E-05  7904   0.149E-03-0.337E-06
  12 F= -.33508380E+03 E0= -.33505454E+03  d E =0.111383E-02  mag=    32.0000
       N       E                     dE             d eps       ncg     rms          ort
SDA:   1    -0.334804987717E+03    0.27881E+00    0.00000E+00  7904   0.577E+01 0.000E+00
CGA:   2    -0.334854053628E+03   -0.49066E-01   -0.49644E-01  7904   0.933E+00-0.786E-01
CGA:   3    -0.334901587553E+03   -0.47534E-01   -0.45885E-01  7904   0.129E+01 0.756E-01
CGA:   4    -0.335005801822E+03   -0.10421E+00   -0.10861E+00  7904   0.242E+01-0.107E+00
CGA:   5    -0.335029983359E+03   -0.24182E-01   -0.24131E-01  7904   0.649E+00 0.141E-02
CGA:   6    -0.335044491880E+03   -0.14509E-01   -0.15233E-01  7904   0.268E+00 0.726E-02
CGA:   7    -0.335050017229E+03   -0.55253E-02   -0.55400E-02  7904   0.390E+00-0.133E-03
CGA:   8    -0.335061969930E+03   -0.11953E-01   -0.11945E-01  7904   0.370E+00-0.250E-02
CGA:   9    -0.335070590245E+03   -0.86203E-02   -0.86565E-02  7904   0.264E+00 0.621E-03
CGA:  10    -0.335074644171E+03   -0.40539E-02   -0.39730E-02  7904   0.723E-01 0.289E-02
CGA:  11    -0.335075636590E+03   -0.99242E-03   -0.98226E-03  7904   0.400E-01 0.438E-03
CGA:  12    -0.335077433337E+03   -0.17967E-02   -0.17874E-02  7904   0.421E-01 0.524E-03
CGA:  13    -0.335078290406E+03   -0.85707E-03   -0.85615E-03  7904   0.454E-01-0.156E-04
CGA:  14    -0.335079041354E+03   -0.75095E-03   -0.74748E-03  7904   0.759E-02 0.666E-04
CGA:  15    -0.335079368358E+03   -0.32700E-03   -0.32660E-03  7904   0.228E-01 0.257E-04
CGA:  16    -0.335079788663E+03   -0.42030E-03   -0.42136E-03  7904   0.122E-01-0.418E-05
CGA:  17    -0.335080207670E+03   -0.41901E-03   -0.41912E-03  7904   0.521E-02-0.144E-04
CGA:  18    -0.335080265246E+03   -0.57575E-04   -0.57465E-04  7904   0.227E-02 0.655E-05
CGA:  19    -0.335080341754E+03   -0.76508E-04   -0.76583E-04  7904   0.247E-02-0.112E-04
CGA:  20    -0.335080432973E+03   -0.91219E-04   -0.91180E-04  7904   0.520E-02 0.348E-05
CGA:  21    -0.335080538135E+03   -0.10516E-03   -0.10521E-03  7904   0.263E-02 0.229E-07
CGA:  22    -0.335080577497E+03   -0.39362E-04   -0.39292E-04  7904   0.112E-02-0.126E-05
CGA:  23    -0.335080609389E+03   -0.31892E-04   -0.31891E-04  7904   0.867E-03 0.218E-05
CGA:  24    -0.335080634585E+03   -0.25196E-04   -0.25193E-04  7904   0.197E-02 0.423E-05
CGA:  25    -0.335080689175E+03   -0.54590E-04   -0.54592E-04  7904   0.625E-03 0.430E-05
CGA:  26    -0.335080707947E+03   -0.18772E-04   -0.18775E-04  7904   0.684E-03-0.133E-05
CGA:  27    -0.335080717616E+03   -0.96696E-05   -0.96739E-05  7904   0.439E-03 0.370E-06
CGA:  28    -0.335080760024E+03   -0.42408E-04   -0.42114E-04  7904   0.842E-03 0.449E-05
CGA:  29    -0.335080771958E+03   -0.11934E-04   -0.11942E-04  7904   0.507E-03-0.350E-07
CGA:  30    -0.335080781728E+03   -0.97704E-05   -0.97766E-05  7904   0.130E-03 0.648E-06
  13 F= -.33508078E+03 E0= -.33505152E+03  d E =0.301670E-02  mag=    32.0000
       N       E                     dE             d eps       ncg     rms          ort
SDA:   1    -0.334869508572E+03    0.21126E+00    0.00000E+00  7904   0.747E+01 0.000E+00
CGA:   2    -0.334929021524E+03   -0.59513E-01   -0.53979E-01  7904   0.480E+00 0.623E+00
CGA:   3    -0.334945252243E+03   -0.16231E-01   -0.16247E-01  7904   0.139E+01-0.531E-02
CGA:   4    -0.334994351466E+03   -0.49099E-01   -0.49163E-01  7904   0.305E+01-0.709E-02
CGA:   5    -0.335033063435E+03   -0.38712E-01   -0.39295E-01  7904   0.706E+00-0.273E-01
CGA:   6    -0.335042189142E+03   -0.91257E-02   -0.90357E-02  7904   0.413E+00 0.448E-02
CGA:   7    -0.335047990995E+03   -0.58019E-02   -0.54875E-02  7904   0.210E+00 0.137E-01
CGA:   8    -0.335053125875E+03   -0.51349E-02   -0.51189E-02  7904   0.453E+00-0.138E-02
CGA:   9    -0.335060984153E+03   -0.78583E-02   -0.77815E-02  7904   0.311E+00 0.826E-03
CGA:  10    -0.335065470995E+03   -0.44868E-02   -0.45287E-02  7904   0.361E+00-0.116E-02
CGA:  11    -0.335071770211E+03   -0.62992E-02   -0.65205E-02  7904   0.150E+00 0.193E-02
CGA:  12    -0.335072982487E+03   -0.12123E-02   -0.12118E-02  7904   0.285E-01 0.187E-04
CGA:  13    -0.335073502220E+03   -0.51973E-03   -0.51875E-03  7904   0.402E-01-0.302E-04
CGA:  14    -0.335075021472E+03   -0.15193E-02   -0.15211E-02  7904   0.951E-01-0.123E-03
CGA:  15    -0.335076105109E+03   -0.10836E-02   -0.10841E-02  7904   0.196E-01-0.341E-04
CGA:  16    -0.335076385340E+03   -0.28023E-03   -0.28036E-03  7904   0.155E-01-0.523E-05
CGA:  17    -0.335076618684E+03   -0.23334E-03   -0.23300E-03  7904   0.974E-02 0.565E-05
CGA:  18    -0.335076908595E+03   -0.28991E-03   -0.28965E-03  7904   0.222E-01 0.329E-04
CGA:  19    -0.335077236439E+03   -0.32784E-03   -0.32854E-03  7904   0.853E-02 0.454E-05
CGA:  20    -0.335077400293E+03   -0.16385E-03   -0.16391E-03  7904   0.102E-01 0.681E-05
CGA:  21    -0.335077550500E+03   -0.15021E-03   -0.14922E-03  7904   0.390E-02 0.978E-05
CGA:  22    -0.335077604654E+03   -0.54154E-04   -0.53992E-04  7904   0.280E-02-0.412E-05
CGA:  23    -0.335077677347E+03   -0.72694E-04   -0.72748E-04  7904   0.573E-02-0.125E-04
CGA:  24    -0.335077797556E+03   -0.12021E-03   -0.12020E-03  7904   0.446E-02-0.289E-05
CGA:  25    -0.335077865223E+03   -0.67667E-04   -0.67768E-04  7904   0.326E-02 0.495E-05
CGA:  26    -0.335077903773E+03   -0.38550E-04   -0.38566E-04  7904   0.682E-03 0.153E-05
CGA:  27    -0.335077916442E+03   -0.12669E-04   -0.12665E-04  7904   0.131E-02-0.779E-06
CGA:  28    -0.335077980022E+03   -0.63581E-04   -0.63498E-04  7904   0.219E-02 0.300E-05
CGA:  29    -0.335078001290E+03   -0.21268E-04   -0.21332E-04  7904   0.703E-03 0.324E-05
CGA:  30    -0.335078016057E+03   -0.14767E-04   -0.14774E-04  7904   0.847E-03 0.494E-05
CGA:  31    -0.335078031921E+03   -0.15864E-04   -0.15881E-04  7904   0.682E-03 0.284E-05
SDA:  32    -0.335078042593E+03   -0.10672E-04   -0.10671E-04  7904   0.608E-03 0.129E-06
CGA:  33    -0.335078053497E+03   -0.10904E-04   -0.10903E-04  7904   0.342E-03-0.419E-06
CGA:  34    -0.335078062920E+03   -0.94228E-05   -0.94554E-05  7904   0.203E-03-0.474E-05
  14 F= -.33507806E+03 E0= -.33504878E+03  d E =0.271881E-02  mag=    32.0000
       N       E                     dE             d eps       ncg     rms          ort
SDA:   1    -0.334155836200E+03    0.92222E+00    0.00000E+00  7904   0.234E+02 0.000E+00
CGA:   2    -0.334337985429E+03   -0.18215E+00   -0.18678E+00  7904   0.241E+01-0.647E+00
CGA:   3    -0.334546276289E+03   -0.20829E+00   -0.12513E-02  7904   0.219E+02-0.117E+01
CGA:   4    -0.334654964866E+03   -0.10869E+00   -0.10982E+00  7904   0.165E+02-0.850E-01
CGA:   5    -0.334784045028E+03   -0.12908E+00   -0.15870E+00  7904   0.826E+01-0.246E+01
CGA:   6    -0.334868494111E+03   -0.84449E-01   -0.88241E-01  7904   0.323E+01-0.988E-01
CGA:   7    -0.334896415340E+03   -0.27921E-01   -0.24417E-01  7904   0.107E+01 0.398E+00
CGA:   8    -0.334912119840E+03   -0.15705E-01   -0.15225E-01  7904   0.136E+01 0.269E-01
CGA:   9    -0.334953124630E+03   -0.41005E-01   -0.40972E-01  7904   0.479E+01-0.418E-02
CGA:  10    -0.335010931340E+03   -0.57807E-01   -0.61129E-01  7904   0.224E+01-0.159E+00
CGA:  11    -0.335025560682E+03   -0.14629E-01   -0.16482E-01  7904   0.601E+00-0.201E+00
CGA:  12    -0.335033966954E+03   -0.84063E-02   -0.81950E-02  7904   0.583E+00 0.815E-02
CGA:  13    -0.335040631972E+03   -0.66650E-02   -0.58013E-02  7904   0.269E+00 0.685E-01
CGA:  14    -0.335043909977E+03   -0.32780E-02   -0.30675E-02  7904   0.227E+00 0.151E-01
CGA:  15    -0.335047719048E+03   -0.38091E-02   -0.37193E-02  7904   0.364E+00 0.215E-02
CGA:  16    -0.335052172660E+03   -0.44536E-02   -0.46068E-02  7904   0.359E+00-0.666E-02
CGA:  17    -0.335055799441E+03   -0.36268E-02   -0.37227E-02  7904   0.279E+00-0.586E-02
CGA:  18    -0.335059057598E+03   -0.32582E-02   -0.33829E-02  7904   0.232E+00-0.507E-02
CGA:  19    -0.335061144552E+03   -0.20870E-02   -0.20569E-02  7904   0.822E-01 0.251E-02
CGA:  20    -0.335061906325E+03   -0.76177E-03   -0.75289E-03  7904   0.620E-01 0.674E-03
CGA:  21    -0.335063453116E+03   -0.15468E-02   -0.15476E-02  7904   0.203E+00-0.319E-03
CGA:  22    -0.335066562171E+03   -0.31091E-02   -0.30865E-02  7904   0.177E+00 0.112E-03
CGA:  23    -0.335067795292E+03   -0.12331E-02   -0.12520E-02  7904   0.449E-01-0.201E-02
CGA:  24    -0.335068141382E+03   -0.34609E-03   -0.35274E-03  7904   0.216E-01-0.576E-03
CGA:  25    -0.335068412142E+03   -0.27076E-03   -0.27242E-03  7904   0.243E-01-0.256E-04
CGA:  26    -0.335068772504E+03   -0.36036E-03   -0.35985E-03  7904   0.308E-01-0.925E-05
CGA:  27    -0.335069274674E+03   -0.50217E-03   -0.50089E-03  7904   0.516E-01-0.760E-04
CGA:  28    -0.335070050396E+03   -0.77572E-03   -0.77317E-03  7904   0.471E-01-0.726E-04
CGA:  29    -0.335070405058E+03   -0.35466E-03   -0.35516E-03  7904   0.141E-01-0.342E-04
CGA:  30    -0.335070546392E+03   -0.14133E-03   -0.14200E-03  7904   0.126E-01-0.186E-04
CGA:  31    -0.335070734811E+03   -0.18842E-03   -0.18969E-03  7904   0.126E-01 0.833E-04
SDA:  32    -0.335070859529E+03   -0.12472E-03   -0.12525E-03  7904   0.718E-02-0.271E-04
CGA:  33    -0.335071093441E+03   -0.23391E-03   -0.23646E-03  7904   0.989E-02-0.167E-03
CGA:  34    -0.335071248005E+03   -0.15456E-03   -0.15448E-03  7904   0.433E-02-0.139E-04
CGA:  35    -0.335071395039E+03   -0.14703E-03   -0.14665E-03  7904   0.719E-02 0.247E-04
CGA:  36    -0.335071575816E+03   -0.18078E-03   -0.18075E-03  7904   0.199E-02 0.255E-05
CGA:  37    -0.335071634118E+03   -0.58301E-04   -0.58200E-04  7904   0.243E-02 0.951E-05
CGA:  38    -0.335071688626E+03   -0.54508E-04   -0.54496E-04  7904   0.327E-02 0.582E-05
CGA:  39    -0.335071828587E+03   -0.13996E-03   -0.13999E-03  7904   0.551E-03-0.154E-05
CGA:  40    -0.335071846989E+03   -0.18401E-04   -0.18451E-04  7904   0.123E-02-0.414E-05
CGA:  41    -0.335071887380E+03   -0.40392E-04   -0.40413E-04  7904   0.160E-02-0.201E-05
CGA:  42    -0.335071923783E+03   -0.36403E-04   -0.36403E-04  7904   0.131E-02-0.132E-05
CGA:  43    -0.335071954219E+03   -0.30436E-04   -0.30440E-04  7904   0.464E-03-0.601E-05
CGA:  44    -0.335071972569E+03   -0.18349E-04   -0.18486E-04  7904   0.568E-03-0.785E-05
CGA:  45    -0.335071981648E+03   -0.90797E-05   -0.90633E-05  7904   0.540E-03-0.226E-05
CGA:  46    -0.335072030600E+03   -0.48952E-04   -0.48894E-04  7904   0.387E-03 0.118E-05
CGA:  47    -0.335072036780E+03   -0.61792E-05   -0.61720E-05  7904   0.324E-03-0.480E-06
CGA:  48    -0.335072055133E+03   -0.18353E-04   -0.18376E-04  7904   0.106E-02-0.759E-06
CGA:  49    -0.335072074345E+03   -0.19212E-04   -0.19241E-04  7904   0.233E-03 0.296E-05
CGA:  50    -0.335072081026E+03   -0.66809E-05   -0.66781E-05  7904   0.144E-03 0.190E-05
  15 F= -.33507208E+03 E0= -.33504290E+03  d E =0.598189E-02  mag=    32.0000
       N       E                     dE             d eps       ncg     rms          ort
SDA:   1    -0.333292726191E+03    0.17793E+01    0.00000E+00  7904   0.117E+02 0.000E+00
CGA:   2    -0.333473987565E+03   -0.18126E+00   -0.18609E+00  7904   0.932E+01-0.104E+00
CGA:   3    -0.333911044795E+03   -0.43706E+00   -0.41283E+00  7904   0.133E+02 0.110E+01
CGA:   4    -0.334321153341E+03   -0.41011E+00   -0.40997E+00  7904   0.180E+02 0.385E+00
CGA:   5    -0.334696017605E+03   -0.37486E+00   -0.34209E+00  7904   0.216E+01 0.268E+00
CGA:   6    -0.334756872390E+03   -0.60855E-01   -0.60986E-01  7904   0.368E+01-0.797E-01
CGA:   7    -0.334894811959E+03   -0.13794E+00   -0.13649E+00  7904   0.378E+01 0.942E-01
CGA:   8    -0.334963606424E+03   -0.68794E-01   -0.69989E-01  7904   0.221E+01-0.324E-02
CGA:   9    -0.335004535454E+03   -0.40929E-01   -0.39069E-01  7904   0.354E+00 0.905E-02
CGA:  10    -0.335018338807E+03   -0.13803E-01   -0.13770E-01  7904   0.523E+00 0.214E-02
CGA:  11    -0.335030528698E+03   -0.12190E-01   -0.12219E-01  7904   0.489E+00 0.257E-02
CGA:  12    -0.335045353849E+03   -0.14825E-01   -0.14832E-01  7904   0.378E+00-0.122E-02
CGA:  13    -0.335050262373E+03   -0.49085E-02   -0.48222E-02  7904   0.758E-01 0.379E-02
CGA:  14    -0.335053005151E+03   -0.27428E-02   -0.27301E-02  7904   0.510E-01 0.103E-02
CGA:  15    -0.335056249679E+03   -0.32445E-02   -0.32052E-02  7904   0.136E+00 0.118E-02
CGA:  16    -0.335058411315E+03   -0.21616E-02   -0.21614E-02  7904   0.392E-01 0.245E-04
CGA:  17    -0.335059236051E+03   -0.82474E-03   -0.82423E-03  7904   0.278E-01-0.901E-05
CGA:  18    -0.335059899204E+03   -0.66315E-03   -0.66407E-03  7904   0.203E-01 0.937E-04
CGA:  19    -0.335061234509E+03   -0.13353E-02   -0.13430E-02  7904   0.197E-01-0.218E-03
CGA:  20    -0.335061508543E+03   -0.27403E-03   -0.27336E-03  7904   0.107E-01 0.238E-04
CGA:  21    -0.335061785777E+03   -0.27723E-03   -0.27761E-03  7904   0.572E-02 0.577E-04
CGA:  22    -0.335062343887E+03   -0.55811E-03   -0.55815E-03  7904   0.156E-01-0.465E-05
CGA:  23    -0.335062608077E+03   -0.26419E-03   -0.26391E-03  7904   0.819E-02 0.125E-04
CGA:  24    -0.335062787647E+03   -0.17957E-03   -0.17979E-03  7904   0.429E-02 0.377E-05
CGA:  25    -0.335062871353E+03   -0.83706E-04   -0.83854E-04  7904   0.326E-02 0.412E-05
CGA:  26    -0.335063088181E+03   -0.21683E-03   -0.21778E-03  7904   0.420E-02-0.271E-04
CGA:  27    -0.335063209428E+03   -0.12125E-03   -0.12128E-03  7904   0.516E-02 0.703E-05
CGA:  28    -0.335063285416E+03   -0.75988E-04   -0.76268E-04  7904   0.129E-02-0.565E-05
CGA:  29    -0.335063379172E+03   -0.93756E-04   -0.93737E-04  7904   0.251E-02 0.329E-07
CGA:  30    -0.335063446108E+03   -0.66936E-04   -0.66896E-04  7904   0.327E-02-0.143E-05
CGA:  31    -0.335063504825E+03   -0.58717E-04   -0.58790E-04  7904   0.566E-03 0.163E-05
SDA:  32    -0.335063521233E+03   -0.16408E-04   -0.16412E-04  7904   0.776E-03 0.941E-06
CGA:  33    -0.335063530176E+03   -0.89426E-05   -0.89140E-05  7904   0.262E-03-0.674E-06
CGA:  34    -0.335063546348E+03   -0.16172E-04   -0.16286E-04  7904   0.133E-02-0.371E-05
CGA:  35    -0.335063583616E+03   -0.37268E-04   -0.37263E-04  7904   0.307E-03-0.304E-05
CGA:  36    -0.335063598574E+03   -0.14958E-04   -0.14963E-04  7904   0.340E-03-0.317E-06
CGA:  37    -0.335063608853E+03   -0.10278E-04   -0.10276E-04  7904   0.609E-03-0.873E-06
CGA:  38    -0.335063620747E+03   -0.11895E-04   -0.11904E-04  7904   0.199E-03 0.862E-06
CGA:  39    -0.335063625760E+03   -0.50124E-05   -0.50288E-05  7904   0.144E-03 0.204E-05
  16 F= -.33506363E+03 E0= -.33503457E+03  d E =0.845527E-02  mag=    32.0000
       N       E                     dE             d eps       ncg     rms          ort
SDA:   1    -0.330103124356E+03    0.49605E+01    0.00000E+00  7904   0.261E+02 0.000E+00
CGA:   2    -0.330762772103E+03   -0.65965E+00   -0.69522E+00  7904   0.269E+02 0.264E+01
CGA:   3    -0.331547905068E+03   -0.78513E+00   -0.77544E+00  7904   0.477E+02-0.667E+00
CGA:   4    -0.333747771792E+03   -0.21999E+01   -0.21755E+01  7904   0.211E+02 0.130E+01
CGA:   5    -0.334043760824E+03   -0.29599E+00   -0.29575E+00  7904   0.109E+02-0.848E-01
CGA:   6    -0.334274724088E+03   -0.23096E+00   -0.17267E+00  7904   0.481E+01 0.215E+01
CGA:   7    -0.334453450218E+03   -0.17873E+00   -0.18093E+00  7904   0.103E+02-0.873E+00
CGA:   8    -0.334502702764E+03   -0.49253E-01   -0.37039E-01  7904   0.867E+01 0.253E+01
CGA:   9    -0.334576883858E+03   -0.74181E-01   -0.69178E-01  7904   0.925E+01 0.654E+00
CGA:  10    -0.334669642359E+03   -0.92759E-01   -0.94885E-01  7904   0.182E+02-0.148E+00
CGA:  11    -0.334782867706E+03   -0.11323E+00   -0.15424E+00  7904   0.166E+02-0.308E+01
CGA:  12    -0.334844736995E+03   -0.61869E-01   -0.77464E-01  7904   0.503E+01-0.212E+01
CGA:  13    -0.334873879728E+03   -0.29143E-01   -0.29320E-01  7904   0.345E+01-0.180E-01
CGA:  14    -0.334903189500E+03   -0.29310E-01   -0.23547E-01  7904   0.243E+01 0.699E+00
CGA:  15    -0.334921174914E+03   -0.17985E-01   -0.15724E-01  7904   0.111E+01 0.363E+00
CGA:  16    -0.334930416135E+03   -0.92412E-02   -0.84998E-02  7904   0.111E+01 0.905E-01
CGA:  17    -0.334941997651E+03   -0.11582E-01   -0.97356E-02  7904   0.192E+01 0.169E+00
CGA:  18    -0.334954578152E+03   -0.12581E-01   -0.94100E-02  7904   0.195E+01 0.669E+00
CGA:  19    -0.334966659166E+03   -0.12081E-01   -0.10706E-01  7904   0.125E+01 0.300E+00
CGA:  20    -0.334973079923E+03   -0.64208E-02   -0.65808E-02  7904   0.115E+01-0.294E-01
CGA:  21    -0.334979268041E+03   -0.61881E-02   -0.65017E-02  7904   0.179E+01-0.409E-01
CGA:  22    -0.334989427085E+03   -0.10159E-01   -0.11162E-01  7904   0.236E+01-0.105E+00
CGA:  23    -0.334999510888E+03   -0.10084E-01   -0.10931E-01  7904   0.146E+01-0.131E+00
CGA:  24    -0.335005063564E+03   -0.55527E-02   -0.55357E-02  7904   0.816E+00 0.410E-02
CGA:  25    -0.335009158476E+03   -0.40949E-02   -0.39519E-02  7904   0.691E+00 0.235E-01
CGA:  26    -0.335013005424E+03   -0.38469E-02   -0.34973E-02  7904   0.626E+00 0.551E-01
CGA:  27    -0.335016040051E+03   -0.30346E-02   -0.27324E-02  7904   0.487E+00 0.614E-01
CGA:  28    -0.335018331608E+03   -0.22916E-02   -0.22024E-02  7904   0.438E+00 0.175E-01
CGA:  29    -0.335020424627E+03   -0.20930E-02   -0.20914E-02  7904   0.513E+00 0.408E-03
CGA:  30    -0.335022831018E+03   -0.24064E-02   -0.24238E-02  7904   0.607E+00-0.240E-02
CGA:  31    -0.335025500224E+03   -0.26692E-02   -0.26782E-02  7904   0.632E+00-0.111E-02
SDA:  32    -0.335028181511E+03   -0.26813E-02   -0.26864E-02  7904   0.610E+00-0.486E-03
CGA:  33    -0.335035426765E+03   -0.72453E-02   -0.72437E-02  7904   0.993E-01-0.349E-02
CGA:  34    -0.335037783738E+03   -0.23570E-02   -0.23222E-02  7904   0.812E-01 0.299E-02
CGA:  35    -0.335040014944E+03   -0.22312E-02   -0.22154E-02  7904   0.144E+00 0.117E-02
CGA:  36    -0.335046309787E+03   -0.62948E-02   -0.63220E-02  7904   0.500E-01-0.107E-02
CGA:  37    -0.335048069699E+03   -0.17599E-02   -0.17965E-02  7904   0.366E-01-0.188E-02
CGA:  38    -0.335048503079E+03   -0.43338E-03   -0.43250E-03  7904   0.186E-01-0.470E-04
CGA:  39    -0.335049817519E+03   -0.13144E-02   -0.12824E-02  7904   0.407E-01 0.772E-03
CGA:  40    -0.335051585818E+03   -0.17683E-02   -0.17705E-02  7904   0.367E-01-0.107E-03
CGA:  41    -0.335051989095E+03   -0.40328E-03   -0.40503E-03  7904   0.752E-02-0.281E-04
CGA:  42    -0.335052178505E+03   -0.18941E-03   -0.18932E-03  7904   0.122E-01 0.115E-04
CGA:  43    -0.335052743554E+03   -0.56505E-03   -0.56888E-03  7904   0.708E-02-0.152E-03
CGA:  44    -0.335052956022E+03   -0.21247E-03   -0.21241E-03  7904   0.102E-01 0.406E-05
CGA:  45    -0.335053107974E+03   -0.15195E-03   -0.15229E-03  7904   0.467E-02 0.338E-05
CGA:  46    -0.335053390971E+03   -0.28300E-03   -0.28011E-03  7904   0.641E-02 0.835E-04
CGA:  47    -0.335053652559E+03   -0.26159E-03   -0.26200E-03  7904   0.110E-01-0.223E-04
CGA:  48    -0.335053789422E+03   -0.13686E-03   -0.13690E-03  7904   0.183E-02-0.217E-05
CGA:  49    -0.335053829468E+03   -0.40046E-04   -0.40057E-04  7904   0.216E-02 0.616E-05
CGA:  50    -0.335053980183E+03   -0.15072E-03   -0.14999E-03  7904   0.519E-02 0.156E-04
CGA:  51    -0.335054113610E+03   -0.13343E-03   -0.13342E-03  7904   0.578E-02 0.161E-04
CGA:  52    -0.335054189376E+03   -0.75767E-04   -0.76048E-04  7904   0.848E-03 0.580E-05
CGA:  53    -0.335054248232E+03   -0.58856E-04   -0.59124E-04  7904   0.172E-02-0.639E-05
CGA:  54    -0.335054281044E+03   -0.32812E-04   -0.32816E-04  7904   0.235E-02 0.692E-06
CGA:  55    -0.335054394442E+03   -0.11340E-03   -0.11310E-03  7904   0.114E-02 0.137E-04
CGA:  56    -0.335054415193E+03   -0.20751E-04   -0.20788E-04  7904   0.504E-03 0.308E-05
CGA:  57    -0.335054424186E+03   -0.89928E-05   -0.89720E-05  7904   0.346E-03-0.158E-05
CGA:  58    -0.335054435448E+03   -0.11262E-04   -0.11279E-04  7904   0.799E-03-0.270E-05
CGA:  59    -0.335054465813E+03   -0.30366E-04   -0.30417E-04  7904   0.265E-03-0.462E-05
CGA:  60    -0.335054473488E+03   -0.76748E-05   -0.76754E-05  7904   0.374E-03-0.611E-06
  17 F= -.33505447E+03 E0= -.33502493E+03  d E =0.915227E-02  mag=    32.0000
       N       E                     dE             d eps       ncg     rms          ort
SDA:   1    -0.330340801428E+03    0.47137E+01    0.00000E+00  7904   0.592E+03 0.000E+00
CGA:   2    -0.332202546697E+03   -0.18617E+01   -0.77916E+01  7904   0.156E+03-0.189E+03
CGA:   3    -0.334099717100E+03   -0.18972E+01   -0.12041E+01  7904   0.171E+02 0.306E+02
CGA:   4    -0.334252045657E+03   -0.15233E+00   -0.12898E+00  7904   0.371E+01 0.310E+01
CGA:   5    -0.334308284902E+03   -0.56239E-01   -0.53220E-01  7904   0.382E+01 0.132E+00
CGA:   6    -0.334378854752E+03   -0.70570E-01   -0.68946E-01  7904   0.102E+02-0.293E-01
CGA:   7    -0.334571631999E+03   -0.19278E+00   -0.19347E+00  7904   0.227E+02 0.431E-01
CGA:   8    -0.334751236684E+03   -0.17960E+00   -0.18439E+00  7904   0.964E+01-0.451E+00
CGA:   9    -0.334825276089E+03   -0.74039E-01   -0.78007E-01  7904   0.603E+01-0.339E+00
CGA:  10    -0.334876974692E+03   -0.51699E-01   -0.48249E-01  7904   0.252E+01 0.319E+00
CGA:  11    -0.334893638102E+03   -0.16663E-01   -0.16855E-01  7904   0.907E+00-0.239E-01
CGA:  12    -0.334908050367E+03   -0.14412E-01   -0.14548E-01  7904   0.215E+01 0.728E-02
CGA:  13    -0.334965500259E+03   -0.57450E-01   -0.56564E-01  7904   0.341E+01 0.108E+00
CGA:  14    -0.334996782749E+03   -0.31282E-01   -0.30351E-01  7904   0.107E+01 0.696E-01
CGA:  15    -0.335010742540E+03   -0.13960E-01   -0.13677E-01  7904   0.919E+00 0.424E-02
CGA:  16    -0.335022185974E+03   -0.11443E-01   -0.10912E-01  7904   0.751E+00 0.136E-01
CGA:  17    -0.335029615669E+03   -0.74297E-02   -0.70987E-02  7904   0.390E+00 0.206E-01
CGA:  18    -0.335032629276E+03   -0.30136E-02   -0.30249E-02  7904   0.204E+00-0.935E-03
CGA:  19    -0.335035984904E+03   -0.33556E-02   -0.33575E-02  7904   0.493E+00 0.416E-03
CGA:  20    -0.335045636562E+03   -0.96517E-02   -0.96387E-02  7904   0.677E+00 0.524E-02
CGA:  21    -0.335050425093E+03   -0.47885E-02   -0.48185E-02  7904   0.160E+00-0.290E-02
CGA:  22    -0.335051999224E+03   -0.15741E-02   -0.15635E-02  7904   0.141E+00 0.381E-03
CGA:  23    -0.335053903005E+03   -0.19038E-02   -0.18820E-02  7904   0.142E+00-0.116E-02
CGA:  24    -0.335055321158E+03   -0.14182E-02   -0.14126E-02  7904   0.128E+00 0.171E-03
CGA:  25    -0.335056990261E+03   -0.16691E-02   -0.16688E-02  7904   0.158E+00-0.574E-05
CGA:  26    -0.335058639831E+03   -0.16496E-02   -0.16550E-02  7904   0.117E+00-0.591E-04
CGA:  27    -0.335059743158E+03   -0.11033E-02   -0.10982E-02  7904   0.792E-01 0.172E-03
CGA:  28    -0.335060519524E+03   -0.77637E-03   -0.77591E-03  7904   0.650E-01 0.179E-04
CGA:  29    -0.335061289692E+03   -0.77017E-03   -0.77301E-03  7904   0.657E-01 0.169E-03
CGA:  30    -0.335061885428E+03   -0.59574E-03   -0.60136E-03  7904   0.325E-01-0.136E-03
CGA:  31    -0.335062243458E+03   -0.35803E-03   -0.35851E-03  7904   0.437E-01 0.157E-04
SDA:  32    -0.335063454924E+03   -0.12115E-02   -0.12131E-02  7904   0.137E+00-0.125E-03
CGA:  33    -0.335064501726E+03   -0.10468E-02   -0.10399E-02  7904   0.723E-02 0.460E-03
CGA:  34    -0.335064674775E+03   -0.17305E-03   -0.17342E-03  7904   0.103E-01-0.394E-04
CGA:  35    -0.335065353733E+03   -0.67896E-03   -0.68270E-03  7904   0.125E-01-0.873E-04
CGA:  36    -0.335065753823E+03   -0.40009E-03   -0.40014E-03  7904   0.578E-02-0.307E-05
CGA:  37    -0.335065922847E+03   -0.16902E-03   -0.16860E-03  7904   0.110E-01 0.360E-04
CGA:  38    -0.335066165181E+03   -0.24233E-03   -0.24222E-03  7904   0.528E-02 0.377E-04
CGA:  39    -0.335066381859E+03   -0.21668E-03   -0.21643E-03  7904   0.418E-02 0.114E-04
CGA:  40    -0.335066441840E+03   -0.59981E-04   -0.59903E-04  7904   0.796E-03-0.197E-05
CGA:  41    -0.335066499682E+03   -0.57841E-04   -0.57529E-04  7904   0.291E-02 0.635E-05
CGA:  42    -0.335066569978E+03   -0.70296E-04   -0.70291E-04  7904   0.384E-02 0.433E-05
CGA:  43    -0.335066673838E+03   -0.10386E-03   -0.10390E-03  7904   0.492E-03-0.677E-05
CGA:  44    -0.335066722003E+03   -0.48165E-04   -0.47908E-04  7904   0.323E-02 0.338E-05
CGA:  45    -0.335066797234E+03   -0.75231E-04   -0.75274E-04  7904   0.853E-03 0.950E-05
CGA:  46    -0.335066807571E+03   -0.10337E-04   -0.10374E-04  7904   0.406E-03 0.188E-05
CGA:  47    -0.335066876737E+03   -0.69166E-04   -0.39230E-05  7904   0.268E-03 0.406E-05
CGA:  48    -0.335066882011E+03   -0.52735E-05   -0.52871E-05  7904   0.326E-03 0.467E-06
  18 F= -.33506688E+03 E0= -.33503729E+03  d E =-.124085E-01  mag=    32.0000
       N       E                     dE             d eps       ncg     rms          ort
SDA:   1    -0.333911855437E+03    0.11550E+01    0.00000E+00  7904   0.646E+02 0.000E+00
CGA:   2    -0.334425089242E+03   -0.51323E+00   -0.55307E+00  7904   0.466E+01-0.830E+01
CGA:   3    -0.334506121921E+03   -0.81033E-01   -0.82561E-01  7904   0.310E+01-0.427E-01
CGA:   4    -0.334614843519E+03   -0.10872E+00   -0.10800E+00  7904   0.666E+01-0.317E-01
CGA:   5    -0.334879190949E+03   -0.26435E+00   -0.26472E+00  7904   0.515E+01 0.102E+00
CGA:   6    -0.334945967577E+03   -0.66777E-01   -0.65766E-01  7904   0.106E+01 0.528E-01
CGA:   7    -0.334972603773E+03   -0.26636E-01   -0.26099E-01  7904   0.940E+00 0.565E-02
CGA:   8    -0.334994439249E+03   -0.21835E-01   -0.20800E-01  7904   0.751E+00 0.192E-01
CGA:   9    -0.335024290317E+03   -0.29851E-01   -0.29846E-01  7904   0.112E+01 0.832E-02
CGA:  10    -0.335045144395E+03   -0.20854E-01   -0.20714E-01  7904   0.377E+00 0.447E-02
CGA:  11    -0.335052320090E+03   -0.71757E-02   -0.72328E-02  7904   0.143E+00-0.125E-02
CGA:  12    -0.335054588326E+03   -0.22682E-02   -0.22705E-02  7904   0.772E-01-0.989E-04
CGA:  13    -0.335059502634E+03   -0.49143E-02   -0.49547E-02  7904   0.184E+00-0.134E-02
CGA:  14    -0.335061962639E+03   -0.24600E-02   -0.24440E-02  7904   0.304E-01 0.847E-03
CGA:  15    -0.335062776953E+03   -0.81431E-03   -0.81624E-03  7904   0.269E-01 0.401E-04
CGA:  16    -0.335063434427E+03   -0.65747E-03   -0.65797E-03  7904   0.317E-01 0.120E-04
CGA:  17    -0.335064455806E+03   -0.10214E-02   -0.10215E-02  7904   0.217E-01 0.321E-04
CGA:  18    -0.335064901116E+03   -0.44531E-03   -0.44563E-03  7904   0.156E-01 0.643E-05
CGA:  19    -0.335065226617E+03   -0.32550E-03   -0.32495E-03  7904   0.493E-02 0.505E-05
CGA:  20    -0.335065323196E+03   -0.96579E-04   -0.96459E-04  7904   0.537E-02 0.156E-05
CGA:  21    -0.335065738847E+03   -0.41565E-03   -0.41521E-03  7904   0.848E-02 0.986E-05
CGA:  22    -0.335065837667E+03   -0.98820E-04   -0.98798E-04  7904   0.199E-02 0.109E-04
CGA:  23    -0.335065914427E+03   -0.76759E-04   -0.76748E-04  7904   0.243E-02 0.224E-05
CGA:  24    -0.335065977700E+03   -0.63273E-04   -0.63268E-04  7904   0.348E-02 0.210E-05
CGA:  25    -0.335066087233E+03   -0.10953E-03   -0.10952E-03  7904   0.189E-02-0.977E-06
CGA:  26    -0.335066130897E+03   -0.43664E-04   -0.43680E-04  7904   0.187E-02 0.294E-05
CGA:  27    -0.335066173041E+03   -0.42144E-04   -0.42271E-04  7904   0.939E-03 0.434E-05
CGA:  28    -0.335066203912E+03   -0.30870E-04   -0.30869E-04  7904   0.195E-02 0.294E-05
CGA:  29    -0.335066276080E+03   -0.72168E-04   -0.72185E-04  7904   0.808E-03-0.309E-05
CGA:  30    -0.335066286310E+03   -0.10230E-04   -0.10231E-04  7904   0.357E-03 0.100E-05
CGA:  31    -0.335066310202E+03   -0.23892E-04   -0.23725E-04  7904   0.864E-03 0.484E-05
SDA:  32    -0.335066332276E+03   -0.22074E-04   -0.22095E-04  7904   0.967E-03 0.290E-05
CGA:  33    -0.335066340967E+03   -0.86913E-05   -0.86744E-05  7904   0.210E-03-0.151E-05
  19 F= -.33506634E+03 E0= -.33503687E+03  d E =0.541044E-03  mag=    32.0000
       N       E                     dE             d eps       ncg     rms          ort
SDA:   1    -0.334938335245E+03    0.12800E+00    0.00000E+00  7904   0.717E+00 0.000E+00
CGA:   2    -0.334955412665E+03   -0.17077E-01   -0.16528E-01  7904   0.740E+00-0.813E-02
CGA:   3    -0.334973293552E+03   -0.17881E-01   -0.17883E-01  7904   0.115E+01 0.496E-04
CGA:   4    -0.335020436267E+03   -0.47143E-01   -0.46942E-01  7904   0.134E+01 0.149E-01
CGA:   5    -0.335039248869E+03   -0.18813E-01   -0.18291E-01  7904   0.257E+00 0.242E-01
CGA:   6    -0.335043280285E+03   -0.40314E-02   -0.40032E-02  7904   0.225E+00 0.942E-03
CGA:   7    -0.335050857012E+03   -0.75767E-02   -0.75044E-02  7904   0.148E+00 0.123E-01
CGA:   8    -0.335057694692E+03   -0.68377E-02   -0.68603E-02  7904   0.395E+00-0.132E-02
CGA:   9    -0.335063055395E+03   -0.53607E-02   -0.52294E-02  7904   0.786E-01 0.611E-02
[...]
CGA:   5    -0.335218890684E+03   -0.54640E-01   -0.54795E-01  7904   0.474E+00 0.280E-01
CGA:   6    -0.335227422375E+03   -0.85317E-02   -0.86506E-02  7904   0.323E+00-0.261E-02
CGA:   7    -0.335235181286E+03   -0.77589E-02   -0.78472E-02  7904   0.149E+00 0.131E-02
CGA:   8    -0.335242102415E+03   -0.69211E-02   -0.68841E-02  7904   0.299E+00 0.223E-02
CGA:   9    -0.335248913123E+03   -0.68107E-02   -0.67489E-02  7904   0.498E-01 0.155E-03
CGA:  10    -0.335251702287E+03   -0.27892E-02   -0.28079E-02  7904   0.958E-01-0.765E-03
CGA:  11    -0.335252858625E+03   -0.11563E-02   -0.11314E-02  7904   0.111E-01 0.153E-02
CGA:  12    -0.335253340736E+03   -0.48211E-03   -0.48111E-03  7904   0.210E-01 0.810E-04
CGA:  13    -0.335253777773E+03   -0.43704E-03   -0.43798E-03  7904   0.191E-01 0.119E-04
CGA:  14    -0.335254478162E+03   -0.70039E-03   -0.70075E-03  7904   0.448E-02-0.544E-04
CGA:  15    -0.335254541652E+03   -0.63490E-04   -0.63435E-04  7904   0.308E-02-0.376E-06
CGA:  16    -0.335254688431E+03   -0.14678E-03   -0.14657E-03  7904   0.248E-02 0.109E-04
CGA:  17    -0.335254760876E+03   -0.72445E-04   -0.72441E-04  7904   0.385E-02-0.177E-05
CGA:  18    -0.335254847746E+03   -0.86870E-04   -0.86573E-04  7904   0.114E-02-0.977E-05
CGA:  19    -0.335254869697E+03   -0.21950E-04   -0.21934E-04  7904   0.963E-03-0.573E-06
CGA:  20    -0.335254915490E+03   -0.45793E-04   -0.45635E-04  7904   0.947E-03 0.937E-05
CGA:  21    -0.335254929290E+03   -0.13800E-04   -0.13810E-04  7904   0.442E-03 0.257E-06
CGA:  22    -0.335254943497E+03   -0.14207E-04   -0.14208E-04  7904   0.280E-03-0.135E-05
CGA:  23    -0.335254956012E+03   -0.12515E-04   -0.12509E-04  7904   0.587E-03 0.511E-06
CGA:  24    -0.335254964869E+03   -0.88576E-05   -0.88441E-05  7904   0.952E-04-0.193E-06
 179 F= -.33525496E+03 E0= -.33523000E+03  d E =0.905862E-03  mag=    32.0000
       N       E                     dE             d eps       ncg     rms          ort
SDA:   1    -0.335188162527E+03    0.66793E-01    0.00000E+00  7904   0.641E+01 0.000E+00
CGA:   2    -0.335241809242E+03   -0.53647E-01   -0.52286E-01  7904   0.841E-01 0.120E+00
CGA:   3    -0.335244434226E+03   -0.26250E-02   -0.26374E-02  7904   0.772E-01 0.231E-02
CGA:   4    -0.335246308504E+03   -0.18743E-02   -0.18755E-02  7904   0.613E-01 0.163E-04
CGA:   5    -0.335249984799E+03   -0.36763E-02   -0.36798E-02  7904   0.158E+00-0.123E-03
CGA:   6    -0.335252488770E+03   -0.25040E-02   -0.25052E-02  7904   0.154E-01-0.266E-04
CGA:   7    -0.335253175815E+03   -0.68705E-03   -0.68899E-03  7904   0.221E-01-0.128E-03
CGA:   8    -0.335253842294E+03   -0.66648E-03   -0.66678E-03  7904   0.219E-01 0.478E-04
CGA:   9    -0.335254384175E+03   -0.54188E-03   -0.54320E-03  7904   0.102E-01 0.409E-04
CGA:  10    -0.335254557307E+03   -0.17313E-03   -0.17288E-03  7904   0.546E-02 0.697E-05
CGA:  11    -0.335254831754E+03   -0.27445E-03   -0.27522E-03  7904   0.236E-02-0.364E-04
CGA:  12    -0.335254894601E+03   -0.62847E-04   -0.62790E-04  7904   0.232E-02-0.325E-05
CGA:  13    -0.335254960946E+03   -0.66345E-04   -0.66330E-04  7904   0.142E-02-0.176E-05
CGA:  14    -0.335254996236E+03   -0.35290E-04   -0.35323E-04  7904   0.153E-02 0.297E-05
CGA:  15    -0.335255036561E+03   -0.40325E-04   -0.40347E-04  7904   0.252E-03 0.103E-05
CGA:  16    -0.335255050190E+03   -0.13629E-04   -0.13637E-04  7904   0.641E-03-0.351E-06
CGA:  17    -0.335255069396E+03   -0.19206E-04   -0.19198E-04  7904   0.226E-03-0.281E-05
CGA:  18    -0.335255073903E+03   -0.45072E-05   -0.44871E-05  7904   0.138E-03-0.136E-05
 180 F= -.33525507E+03 E0= -.33523007E+03  d E =-.109034E-03  mag=    32.0000
       N       E                     dE             d eps       ncg     rms          ort
SDA:   1    -0.335183184103E+03    0.71885E-01    0.00000E+00  7904   0.173E+01 0.000E+00
CGA:   2    -0.335198850991E+03   -0.15667E-01   -0.14998E-01  7904   0.162E+00 0.613E-01
CGA:   3    -0.335220672989E+03   -0.21822E-01   -0.22151E-01  7904   0.987E+00-0.416E-02
CGA:   4    -0.335235485719E+03   -0.14813E-01   -0.15230E-01  7904   0.218E+00-0.156E-01
CGA:   5    -0.335240117940E+03   -0.46322E-02   -0.46678E-02  7904   0.197E+00-0.203E-03
CGA:   6    -0.335244823101E+03   -0.47052E-02   -0.46790E-02  7904   0.840E-01-0.801E-04
CGA:   7    -0.335247378097E+03   -0.25550E-02   -0.25576E-02  7904   0.132E+00 0.381E-03
CGA:   8    -0.335250152974E+03   -0.27749E-02   -0.28051E-02  7904   0.488E-01-0.130E-03
CGA:   9    -0.335252429363E+03   -0.22764E-02   -0.22959E-02  7904   0.375E-01-0.110E-02
CGA:  10    -0.335253127640E+03   -0.69828E-03   -0.69503E-03  7904   0.284E-01 0.595E-04
CGA:  11    -0.335253735751E+03   -0.60811E-03   -0.60598E-03  7904   0.518E-02-0.183E-05
CGA:  12    -0.335253904678E+03   -0.16893E-03   -0.16893E-03  7904   0.107E-01 0.109E-05
CGA:  13    -0.335254452069E+03   -0.54739E-03   -0.54751E-03  7904   0.752E-02-0.663E-05
CGA:  14    -0.335254533823E+03   -0.81754E-04   -0.81347E-04  7904   0.118E-02 0.161E-04
CGA:  15    -0.335254584838E+03   -0.51015E-04   -0.51014E-04  7904   0.108E-02-0.193E-06
CGA:  16    -0.335254625326E+03   -0.40488E-04   -0.40487E-04  7904   0.264E-02 0.159E-06
CGA:  17    -0.335254695705E+03   -0.70379E-04   -0.70303E-04  7904   0.809E-03-0.596E-05
CGA:  18    -0.335254720673E+03   -0.24969E-04   -0.24974E-04  7904   0.326E-03 0.189E-05
CGA:  19    -0.335254725294E+03   -0.46204E-05   -0.46374E-05  7904   0.186E-03 0.458E-06
CGA:  20    -0.335254742672E+03   -0.17378E-04   -0.17608E-04  7904   0.516E-03-0.365E-05
CGA:  21    -0.335254750210E+03   -0.75385E-05   -0.75025E-05  7904   0.788E-04-0.173E-05
 181 F= -.33525475E+03 E0= -.33522972E+03  d E =0.323693E-03  mag=    32.0000
       N       E                     dE             d eps       ncg     rms          ort
SDA:   1    -0.335213180268E+03    0.41562E-01    0.00000E+00  7904   0.414E+01 0.000E+00
CGA:   2    -0.335248092460E+03   -0.34912E-01   -0.35699E-01  7904   0.537E-01-0.831E-01
CGA:   3    -0.335248862155E+03   -0.76970E-03   -0.76468E-03  7904   0.268E-01 0.192E-03
CGA:   4    -0.335252515437E+03   -0.36533E-02   -0.36635E-02  7904   0.239E-01-0.128E-03
CGA:   5    -0.335253023025E+03   -0.50759E-03   -0.50957E-03  7904   0.236E-01-0.291E-04
CGA:   6    -0.335253693865E+03   -0.67084E-03   -0.67330E-03  7904   0.104E-01 0.834E-04
CGA:   7    -0.335254296949E+03   -0.60308E-03   -0.60318E-03  7904   0.157E-01-0.604E-05
CGA:   8    -0.335254548385E+03   -0.25144E-03   -0.25049E-03  7904   0.379E-02 0.278E-04
CGA:   9    -0.335254715311E+03   -0.16693E-03   -0.16710E-03  7904   0.623E-02-0.174E-04
CGA:  10    -0.335254838814E+03   -0.12350E-03   -0.12368E-03  7904   0.214E-02-0.602E-05
CGA:  11    -0.335254907075E+03   -0.68261E-04   -0.68196E-04  7904   0.972E-03-0.979E-05
CGA:  12    -0.335254948764E+03   -0.41689E-04   -0.41653E-04  7904   0.193E-02 0.424E-05
CGA:  13    -0.335254984872E+03   -0.36108E-04   -0.36142E-04  7904   0.192E-03 0.139E-05
CGA:  14    -0.335254997481E+03   -0.12609E-04   -0.12532E-04  7904   0.694E-03 0.247E-05
CGA:  15    -0.335255014720E+03   -0.17239E-04   -0.17268E-04  7904   0.107E-03 0.247E-05
CGA:  16    -0.335255016879E+03   -0.21588E-05   -0.21670E-05  7904   0.905E-04 0.529E-06
 182 F= -.33525502E+03 E0= -.33523001E+03  d E =-.266669E-03  mag=    32.0000
       N       E                     dE             d eps       ncg     rms          ort
SDA:   1    -0.335176293534E+03    0.78721E-01    0.00000E+00  7904   0.147E+01 0.000E+00
CGA:   2    -0.335194139438E+03   -0.17846E-01   -0.17298E-01  7904   0.306E+00 0.351E-01
CGA:   3    -0.335205942283E+03   -0.11803E-01   -0.11915E-01  7904   0.419E+00-0.182E-01
CGA:   4    -0.335215094778E+03   -0.91525E-02   -0.91162E-02  7904   0.469E+00 0.727E-04
CGA:   5    -0.335237801878E+03   -0.22707E-01   -0.22498E-01  7904   0.315E+00 0.118E-01
CGA:   6    -0.335242338362E+03   -0.45365E-02   -0.44702E-02  7904   0.120E+00 0.322E-02
CGA:   7    -0.335245261896E+03   -0.29235E-02   -0.28868E-02  7904   0.675E-01-0.350E-03
CGA:   8    -0.335247251948E+03   -0.19901E-02   -0.19908E-02  7904   0.116E+00 0.762E-04
CGA:   9    -0.335252227354E+03   -0.49754E-02   -0.49746E-02  7904   0.550E-01 0.325E-04
CGA:  10    -0.335252819729E+03   -0.59237E-03   -0.59208E-03  7904   0.122E-01 0.132E-04
CGA:  11    -0.335253436590E+03   -0.61686E-03   -0.61510E-03  7904   0.150E-01 0.857E-04
CGA:  12    -0.335253728636E+03   -0.29205E-03   -0.29273E-03  7904   0.116E-01 0.602E-05
CGA:  13    -0.335254115804E+03   -0.38717E-03   -0.38707E-03  7904   0.797E-02 0.644E-04
CGA:  14    -0.335254260027E+03   -0.14422E-03   -0.14385E-03  7904   0.470E-02 0.823E-05
CGA:  15    -0.335254412512E+03   -0.15248E-03   -0.15251E-03  7904   0.214E-02-0.164E-04
CGA:  16    -0.335254464901E+03   -0.52389E-04   -0.52463E-04  7904   0.241E-02 0.526E-05
CGA:  17    -0.335254516502E+03   -0.51601E-04   -0.51639E-04  7904   0.802E-03 0.118E-05
CGA:  18    -0.335254559431E+03   -0.42929E-04   -0.42969E-04  7904   0.217E-02-0.175E-05
CGA:  19    -0.335254605549E+03   -0.46117E-04   -0.46193E-04  7904   0.392E-03 0.167E-05
CGA:  20    -0.335254614850E+03   -0.93013E-05   -0.93125E-05  7904   0.508E-03 0.131E-05
CGA:  21    -0.335254631329E+03   -0.16479E-04   -0.16474E-04  7904   0.306E-03 0.369E-05
CGA:  22    -0.335254642731E+03   -0.11402E-04   -0.11403E-04  7904   0.232E-03 0.105E-06
CGA:  23    -0.335254646254E+03   -0.35232E-05   -0.35259E-05  7904   0.948E-04 0.156E-06
 183 F= -.33525465E+03 E0= -.33522967E+03  d E =0.370625E-03  mag=    32.0000
       N       E                     dE             d eps       ncg     rms          ort
SDA:   1    -0.335204560055E+03    0.50083E-01    0.00000E+00  7904   0.328E+01 0.000E+00
CGA:   2    -0.335237213356E+03   -0.32653E-01   -0.34724E-01  7904   0.103E+00-0.141E+00
CGA:   3    -0.335239964779E+03   -0.27514E-02   -0.27515E-02  7904   0.100E+00 0.772E-05
CGA:   4    -0.335243268345E+03   -0.33036E-02   -0.33012E-02  7904   0.161E+00 0.539E-03
CGA:   5    -0.335249496217E+03   -0.62279E-02   -0.62300E-02  7904   0.108E+00-0.200E-03
CGA:   6    -0.335251272041E+03   -0.17758E-02   -0.17692E-02  7904   0.230E-01 0.167E-03
CGA:   7    -0.335252621691E+03   -0.13497E-02   -0.13299E-02  7904   0.289E-01 0.700E-03
CGA:   8    -0.335253502882E+03   -0.88119E-03   -0.88111E-03  7904   0.273E-01-0.117E-04
CGA:   9    -0.335254407201E+03   -0.90432E-03   -0.90456E-03  7904   0.106E-01-0.718E-04
CGA:  10    -0.335254568299E+03   -0.16110E-03   -0.16129E-03  7904   0.549E-02-0.151E-05
CGA:  11    -0.335254847654E+03   -0.27935E-03   -0.28047E-03  7904   0.590E-02-0.495E-04
CGA:  12    -0.335254954603E+03   -0.10695E-03   -0.10716E-03  7904   0.167E-02 0.177E-06
CGA:  13    -0.335255049355E+03   -0.94752E-04   -0.94813E-04  7904   0.198E-02-0.241E-05
CGA:  14    -0.335255100044E+03   -0.50689E-04   -0.50713E-04  7904   0.103E-02 0.449E-06
CGA:  15    -0.335255123783E+03   -0.23739E-04   -0.23678E-04  7904   0.550E-03-0.429E-05
CGA:  16    -0.335255140453E+03   -0.16671E-04   -0.16669E-04  7904   0.792E-03-0.148E-05
CGA:  17    -0.335255163592E+03   -0.23139E-04   -0.23130E-04  7904   0.241E-03-0.387E-05
CGA:  18    -0.335255170463E+03   -0.68707E-05   -0.68647E-05  7904   0.201E-03-0.202E-05
 184 F= -.33525517E+03 E0= -.33523012E+03  d E =-.524209E-03  mag=    32.0000
       N       E                     dE             d eps       ncg     rms          ort
SDA:   1    -0.335163853772E+03    0.91310E-01    0.00000E+00  7904   0.367E+01 0.000E+00
CGA:   2    -0.335197964013E+03   -0.34110E-01   -0.34074E-01  7904   0.219E+00-0.275E-02
CGA:   3    -0.335206246123E+03   -0.82821E-02   -0.82583E-02  7904   0.476E+00 0.218E-02
CGA:   4    -0.335223824498E+03   -0.17578E-01   -0.17735E-01  7904   0.399E+00-0.166E-01
CGA:   5    -0.335241533725E+03   -0.17709E-01   -0.17627E-01  7904   0.134E+00 0.444E-02
CGA:   6    -0.335244255299E+03   -0.27216E-02   -0.27425E-02  7904   0.123E+00-0.745E-04
CGA:   7    -0.335247811834E+03   -0.35565E-02   -0.35608E-02  7904   0.614E-01 0.967E-03
CGA:   8    -0.335250655233E+03   -0.28434E-02   -0.28519E-02  7904   0.628E-01-0.468E-03
CGA:   9    -0.335251858269E+03   -0.12030E-02   -0.12045E-02  7904   0.333E-01-0.105E-04
CGA:  10    -0.335253516488E+03   -0.16582E-02   -0.16617E-02  7904   0.198E-01-0.168E-03
CGA:  11    -0.335253775407E+03   -0.25892E-03   -0.25778E-03  7904   0.619E-02 0.414E-04
CGA:  12    -0.335254024609E+03   -0.24920E-03   -0.24969E-03  7904   0.503E-02-0.418E-04
CGA:  13    -0.335254371424E+03   -0.34681E-03   -0.34638E-03  7904   0.524E-02 0.130E-04
CGA:  14    -0.335254443065E+03   -0.71641E-04   -0.71520E-04  7904   0.108E-02-0.583E-06
CGA:  15    -0.335254509505E+03   -0.66440E-04   -0.66714E-04  7904   0.266E-02-0.919E-05
CGA:  16    -0.335254559553E+03   -0.50048E-04   -0.50090E-04  7904   0.114E-02 0.135E-06
CGA:  17    -0.335254593496E+03   -0.33943E-04   -0.33953E-04  7904   0.239E-03 0.166E-05
CGA:  18    -0.335254616093E+03   -0.22598E-04   -0.22745E-04  7904   0.689E-03-0.245E-05
CGA:  19    -0.335254630148E+03   -0.14055E-04   -0.14036E-04  7904   0.363E-03-0.135E-05
CGA:  20    -0.335254639786E+03   -0.96378E-05   -0.96329E-05  7904   0.119E-03-0.599E-06
 185 F= -.33525464E+03 E0= -.33522961E+03  d E =0.530677E-03  mag=    32.0000
       N       E                     dE             d eps       ncg     rms          ort
SDA:   1    -0.334361218201E+03    0.89341E+00    0.00000E+00  7904   0.117E+03 0.000E+00
CGA:   2    -0.334963077772E+03   -0.60186E+00   -0.15191E+01  7904   0.288E+02-0.490E+02
CGA:   3    -0.335221838811E+03   -0.25876E+00   -0.22783E+00  7904   0.163E+01 0.142E+01
CGA:   4    -0.335238246312E+03   -0.16408E-01   -0.15525E-01  7904   0.103E+00 0.793E-01
CGA:   5    -0.335239640087E+03   -0.13938E-02   -0.13940E-02  7904   0.629E-01-0.954E-05
CGA:   6    -0.335244974289E+03   -0.53342E-02   -0.52195E-02  7904   0.200E+00 0.242E-02
CGA:   7    -0.335247783640E+03   -0.28094E-02   -0.27721E-02  7904   0.670E-01 0.182E-02
CGA:   8    -0.335250252994E+03   -0.24694E-02   -0.24705E-02  7904   0.724E-01-0.145E-03
CGA:   9    -0.335251684989E+03   -0.14320E-02   -0.14410E-02  7904   0.443E-01-0.548E-04
CGA:  10    -0.335252651517E+03   -0.96653E-03   -0.96069E-03  7904   0.295E-01-0.526E-04
CGA:  11    -0.335253192171E+03   -0.54065E-03   -0.53630E-03  7904   0.131E-01 0.494E-04
CGA:  12    -0.335253726252E+03   -0.53408E-03   -0.53432E-03  7904   0.250E-01-0.177E-04
CGA:  13    -0.335254155738E+03   -0.42949E-03   -0.42934E-03  7904   0.111E-01-0.209E-05
CGA:  14    -0.335254500179E+03   -0.34444E-03   -0.34435E-03  7904   0.633E-02 0.432E-04
CGA:  15    -0.335254579574E+03   -0.79396E-04   -0.79673E-04  7904   0.173E-02-0.797E-05
CGA:  16    -0.335254634864E+03   -0.55289E-04   -0.55293E-04  7904   0.326E-02-0.135E-05
CGA:  17    -0.335254753628E+03   -0.11876E-03   -0.11891E-03  7904   0.121E-02-0.159E-04
CGA:  18    -0.335254768634E+03   -0.15007E-04   -0.15053E-04  7904   0.571E-03 0.165E-05
CGA:  19    -0.335254801451E+03   -0.32816E-04   -0.32534E-04  7904   0.113E-02 0.100E-04
CGA:  20    -0.335254824684E+03   -0.23233E-04   -0.23259E-04  7904   0.556E-03 0.348E-05
CGA:  21    -0.335254835013E+03   -0.10329E-04   -0.10351E-04  7904   0.314E-03 0.215E-05
CGA:  22    -0.335254842062E+03   -0.70492E-05   -0.70551E-05  7904   0.236E-03 0.848E-06
CGA:  23    -0.335254852140E+03   -0.10078E-04   -0.10079E-04  7904   0.266E-03-0.555E-07
CGA:  24    -0.335254855415E+03   -0.32752E-05   -0.32932E-05  7904   0.723E-04 0.676E-06
 186 F= -.33525486E+03 E0= -.33522986E+03  d E =-.215629E-03  mag=    32.0000
       N       E                     dE             d eps       ncg     rms          ort
SDA:   1    -0.335056766216E+03    0.19809E+00    0.00000E+00  7904   0.834E+01 0.000E+00
CGA:   2    -0.335125412367E+03   -0.68646E-01   -0.77824E-01  7904   0.531E+00-0.771E+00
CGA:   3    -0.335144243989E+03   -0.18832E-01   -0.18889E-01  7904   0.118E+01-0.423E-02
CGA:   4    -0.335198957599E+03   -0.54714E-01   -0.55214E-01  7904   0.111E+01-0.251E-01
CGA:   5    -0.335221547784E+03   -0.22590E-01   -0.22720E-01  7904   0.462E+00 0.725E-03
CGA:   6    -0.335230884679E+03   -0.93369E-02   -0.94359E-02  7904   0.178E+00 0.577E-03
CGA:   7    -0.335236025951E+03   -0.51413E-02   -0.51411E-02  7904   0.207E+00-0.256E-03
CGA:   8    -0.335245576457E+03   -0.95505E-02   -0.94946E-02  7904   0.207E+00 0.290E-02
CGA:   9    -0.335249552988E+03   -0.39765E-02   -0.39584E-02  7904   0.633E-01 0.100E-03
CGA:  10    -0.335250902501E+03   -0.13495E-02   -0.13497E-02  7904   0.291E-01 0.113E-04
CGA:  11    -0.335251751159E+03   -0.84866E-03   -0.84866E-03  7904   0.277E-01-0.186E-04
CGA:  12    -0.335252697481E+03   -0.94632E-03   -0.94579E-03  7904   0.199E-01 0.767E-04
CGA:  13    -0.335253110421E+03   -0.41294E-03   -0.41290E-03  7904   0.108E-01 0.253E-05
CGA:  14    -0.335253508174E+03   -0.39775E-03   -0.39734E-03  7904   0.115E-01 0.419E-04
CGA:  15    -0.335253753026E+03   -0.24485E-03   -0.24451E-03  7904   0.310E-02-0.709E-05
CGA:  16    -0.335253825680E+03   -0.72654E-04   -0.72673E-04  7904   0.231E-02 0.295E-05
CGA:  17    -0.335253908759E+03   -0.83078E-04   -0.83103E-04  7904   0.281E-02-0.284E-05
CGA:  18    -0.335254001127E+03   -0.92368E-04   -0.92341E-04  7904   0.238E-02 0.696E-05
CGA:  19    -0.335254054899E+03   -0.53772E-04   -0.53818E-04  7904   0.744E-03 0.445E-05
CGA:  20    -0.335254071083E+03   -0.16185E-04   -0.16207E-04  7904   0.523E-03 0.287E-05
CGA:  21    -0.335254093430E+03   -0.22347E-04   -0.22344E-04  7904   0.748E-03 0.275E-06
CGA:  22    -0.335254113333E+03   -0.19903E-04   -0.19912E-04  7904   0.386E-03 0.331E-05
CGA:  23    -0.335254122690E+03   -0.93568E-05   -0.93542E-05  7904   0.213E-03-0.343E-06
 187 F= -.33525412E+03 E0= -.33522907E+03  d E =0.732726E-03  mag=    32.0000
       N       E                     dE             d eps       ncg     rms          ort
SDA:   1    -0.335209552095E+03    0.44561E-01    0.00000E+00  7904   0.112E+01 0.000E+00
CGA:   2    -0.335220423798E+03   -0.10872E-01   -0.11431E-01  7904   0.188E+00-0.393E-01
CGA:   3    -0.335226496449E+03   -0.60727E-02   -0.60383E-02  7904   0.156E+00 0.416E-02
CGA:   4    -0.335238121956E+03   -0.11626E-01   -0.11648E-01  7904   0.493E+00-0.563E-03
CGA:   5    -0.335246457983E+03   -0.83360E-02   -0.82940E-02  7904   0.662E-01 0.881E-03
CGA:   6    -0.335249205989E+03   -0.27480E-02   -0.27228E-02  7904   0.766E-01 0.173E-02
CGA:   7    -0.335250772433E+03   -0.15664E-02   -0.15610E-02  7904   0.358E-01 0.182E-04
CGA:   8    -0.335252554779E+03   -0.17823E-02   -0.17856E-02  7904   0.442E-01-0.148E-03
CGA:   9    -0.335253270749E+03   -0.71597E-03   -0.71458E-03  7904   0.173E-01 0.243E-04
CGA:  10    -0.335254117330E+03   -0.84658E-03   -0.84875E-03  7904   0.102E-01-0.103E-03
CGA:  11    -0.335254288815E+03   -0.17149E-03   -0.17142E-03  7904   0.419E-02-0.243E-05
CGA:  12    -0.335254413328E+03   -0.12451E-03   -0.12450E-03  7904   0.341E-02-0.687E-05
CGA:  13    -0.335254540418E+03   -0.12709E-03   -0.12717E-03  7904   0.542E-02-0.954E-05
CGA:  14    -0.335254675037E+03   -0.13462E-03   -0.13474E-03  7904   0.704E-03 0.786E-05
CGA:  15    -0.335254698820E+03   -0.23783E-04   -0.23795E-04  7904   0.133E-02-0.368E-05
CGA:  16    -0.335254740479E+03   -0.41659E-04   -0.41663E-04  7904   0.589E-03-0.417E-05
CGA:  17    -0.335254758693E+03   -0.18213E-04   -0.18215E-04  7904   0.526E-03-0.367E-05
CGA:  18    -0.335254769208E+03   -0.10516E-04   -0.10485E-04  7904   0.166E-03-0.190E-05
CGA:  19    -0.335254778413E+03   -0.92046E-05   -0.92521E-05  7904   0.461E-03-0.184E-05
CGA:  20    -0.335254788926E+03   -0.10514E-04   -0.10521E-04  7904   0.173E-03 0.769E-06
CGA:  21    -0.335254793617E+03   -0.46901E-05   -0.46922E-05  7904   0.385E-04 0.492E-06
 188 F= -.33525479E+03 E0= -.33522968E+03  d E =-.670927E-03  mag=    32.0000
