       N       E                     dE             d eps       ncg     rms          rms(c)
DAV:   1     0.645327084590E+03    0.64533E+03   -0.33728E+04252045   0.265E+03
DAV:   2    -0.205798862633E+02   -0.66591E+03   -0.63284E+03244359   0.622E+02
DAV:   3    -0.788179491718E+02   -0.58238E+02   -0.56475E+02254490   0.184E+02
DAV:   4    -0.799694888929E+02   -0.11515E+01   -0.11506E+01263718   0.277E+01
DAV:   5    -0.799963987556E+02   -0.26910E-01   -0.26909E-01264354   0.390E+00    0.260E+01
DAV:   6    -0.701393734016E+02    0.98570E+01   -0.45697E+01257658   0.747E+01    0.133E+01
DAV:   7    -0.688393674300E+02    0.13000E+01   -0.59350E+00261513   0.253E+01    0.596E+00
DAV:   8    -0.689150707874E+02   -0.75703E-01   -0.14261E-01259914   0.293E+00    0.244E+00
DAV:   9    -0.688616794524E+02    0.53391E-01   -0.98724E-02259692   0.206E+00    0.869E-01
DAV:  10    -0.688839802587E+02   -0.22301E-01   -0.28350E-02254199   0.147E+00    0.488E-01
DAV:  11    -0.688843478985E+02   -0.36764E-03   -0.63939E-03258222   0.185E+00    0.537E-01
DAV:  12    -0.688853818440E+02   -0.10339E-02   -0.54300E-03262707   0.127E+00    0.102E-01
DAV:  13    -0.688869199217E+02   -0.15381E-02   -0.11034E-03256722   0.542E-01    0.143E-01
DAV:  14    -0.688878024381E+02   -0.88252E-03   -0.42388E-04257619   0.399E-01    0.356E-02
DAV:  15    -0.688880173962E+02   -0.21496E-03   -0.15893E-04257418   0.123E-01    0.301E-02
DAV:  16    -0.688880462755E+02   -0.28879E-04   -0.22577E-05198672   0.944E-02    0.306E-02
DAV:  17    -0.688880312495E+02    0.15026E-04   -0.94892E-06133404   0.812E-02    0.138E-02
DAV:  18    -0.688879529744E+02    0.78275E-04   -0.49229E-06135195   0.351E-02    0.298E-03
DAV:  19    -0.688879592967E+02   -0.63223E-05   -0.15933E-06124758   0.146E-02
   1 F= -.68887959E+02 E0= -.68885955E+02  d E =-.688880E+02  mag=     7.1196
       N       E                     dE             d eps       ncg     rms          rms(c)
DAV:   1    -0.912008126144E+02   -0.22313E+02   -0.18983E+02262008   0.147E+02    0.423E+01
DAV:   2    -0.708489521098E+02    0.20352E+02   -0.83770E+01258828   0.108E+02    0.216E+01
DAV:   3    -0.693450973343E+02    0.15039E+01   -0.71585E+00260796   0.274E+01    0.952E+00
DAV:   4    -0.690648742393E+02    0.28022E+00   -0.30915E-01259245   0.466E+00    0.393E+00
DAV:   5    -0.688687243873E+02    0.19615E+00   -0.17602E-01279804   0.620E+00    0.224E+00
DAV:   6    -0.688810520466E+02   -0.12328E-01   -0.18225E-01253683   0.869E+00    0.230E+00
DAV:   7    -0.688746627253E+02    0.63893E-02   -0.72361E-02273240   0.481E+00    0.422E-01
DAV:   8    -0.688802793240E+02   -0.56166E-02   -0.11701E-02257619   0.152E+00    0.478E-01
DAV:   9    -0.688802254480E+02    0.53876E-04   -0.32373E-03255294   0.135E+00    0.269E-01
DAV:  10    -0.688806905598E+02   -0.46511E-03   -0.56937E-04261960   0.354E-01    0.164E-01
DAV:  11    -0.688801846534E+02    0.50591E-03   -0.20048E-04259647   0.324E-01    0.128E-01
DAV:  12    -0.688795988884E+02    0.58577E-03   -0.13100E-04237408   0.274E-01    0.524E-02
DAV:  13    -0.688790234916E+02    0.57540E-03   -0.62227E-05220395   0.907E-02    0.197E-02
DAV:  14    -0.688787614663E+02    0.26203E-03   -0.15071E-05168039   0.360E-02    0.568E-03
DAV:  15    -0.688787358250E+02    0.25641E-04   -0.15004E-06123474   0.193E-02    0.274E-03
DAV:  16    -0.688787307493E+02    0.50756E-05   -0.44450E-07123348   0.814E-03
   2 F= -.68878731E+02 E0= -.68877103E+02  d E =0.922855E-02  mag=     6.7097
       N       E                     dE             d eps       ncg     rms          rms(c)
DAV:   1    -0.751184761280E+02   -0.62397E+01   -0.50362E+01262002   0.881E+01    0.204E+01
DAV:   2    -0.699560835136E+02    0.51624E+01   -0.28735E+01263148   0.523E+01    0.117E+01
DAV:   3    -0.690856771784E+02    0.87041E+00   -0.25188E+00264312   0.170E+01    0.481E+00
DAV:   4    -0.690270620952E+02    0.58615E-01   -0.14184E-01250071   0.249E+00    0.191E+00
DAV:   5    -0.689791528947E+02    0.47909E-01   -0.47463E-02254358   0.209E+00    0.639E-01
DAV:   6    -0.689766472609E+02    0.25056E-02   -0.12272E-02249924   0.185E+00    0.539E-01
DAV:   7    -0.689762734882E+02    0.37377E-03   -0.36321E-03258786   0.137E+00    0.314E-01
DAV:   8    -0.689789791016E+02   -0.27056E-02   -0.17037E-03262674   0.877E-01    0.317E-01
DAV:   9    -0.689786401609E+02    0.33894E-03   -0.12208E-03257238   0.955E-01    0.153E-01
DAV:  10    -0.689774605318E+02    0.11796E-02   -0.59270E-04267711   0.309E-01    0.596E-02
DAV:  11    -0.689777792136E+02   -0.31868E-03   -0.10674E-04246093   0.156E-01    0.425E-02
DAV:  12    -0.689778184830E+02   -0.39269E-04   -0.31804E-05183144   0.128E-01    0.190E-02
DAV:  13    -0.689778508619E+02   -0.32379E-04   -0.62389E-06124704   0.319E-02    0.874E-03
DAV:  14    -0.689778222587E+02    0.28603E-04   -0.18950E-06123516   0.159E-02    0.443E-03
DAV:  15    -0.689778351053E+02   -0.12847E-04   -0.51572E-07122736   0.915E-03    0.235E-03
DAV:  16    -0.689778432599E+02   -0.81546E-05   -0.16565E-07122658   0.435E-03
   3 F= -.68977843E+02 E0= -.68975885E+02  d E =-.898840E-01  mag=     7.0006
       N       E                     dE             d eps       ncg     rms          rms(c)
DAV:   1    -0.690357819528E+02   -0.57947E-01   -0.46022E-01262512   0.800E+00    0.199E+00
DAV:   2    -0.689826252059E+02    0.53157E-01   -0.23990E-01262191   0.535E+00    0.116E+00
DAV:   3    -0.689770684526E+02    0.55568E-02   -0.23193E-02264123   0.157E+00    0.443E-01
DAV:   4    -0.689780274102E+02   -0.95896E-03   -0.14447E-03250002   0.285E-01    0.176E-01
DAV:   5    -0.689774135866E+02    0.61382E-03   -0.70934E-04263637   0.583E-01    0.198E-01
DAV:   6    -0.689773667521E+02    0.46834E-04   -0.49604E-04252987   0.570E-01    0.476E-02
DAV:   7    -0.689779493673E+02   -0.58262E-03   -0.14756E-04247821   0.171E-01    0.372E-02
DAV:   8    -0.689779491726E+02    0.19468E-06   -0.35517E-05189105   0.150E-01
   4 F= -.68977949E+02 E0= -.68976019E+02  d E =-.899899E-01  mag=     6.9848
       N       E                     dE             d eps       ncg     rms          rms(c)
DAV:   1    -0.690491589621E+02   -0.71210E-01   -0.58999E-01262530   0.907E+00    0.225E+00
DAV:   2    -0.689818548906E+02    0.67304E-01   -0.30414E-01262257   0.604E+00    0.131E+00
DAV:   3    -0.689746645952E+02    0.71903E-02   -0.29223E-02264141   0.182E+00    0.514E-01
DAV:   4    -0.689761000066E+02   -0.14354E-02   -0.40108E-03256194   0.140E+00    0.447E-01
DAV:   5    -0.689754954915E+02    0.60452E-03   -0.29863E-03259740   0.139E+00    0.223E-01
DAV:   6    -0.689749002478E+02    0.59524E-03   -0.73733E-04262551   0.543E-01    0.126E-01
DAV:   7    -0.689749804836E+02   -0.80236E-04   -0.34325E-04253440   0.466E-01    0.632E-02
DAV:   8    -0.689754418552E+02   -0.46137E-03   -0.12318E-04249738   0.179E-01    0.247E-02
DAV:   9    -0.689753702988E+02    0.71556E-04   -0.24472E-05172926   0.772E-02    0.218E-02
DAV:  10    -0.689753762710E+02   -0.59723E-05   -0.97744E-06123990   0.842E-02
   5 F= -.68975376E+02 E0= -.68973448E+02  d E =-.874170E-01  mag=     6.9647
       N       E                     dE             d eps       ncg     rms          rms(c)
DAV:   1    -0.690080566394E+02   -0.32686E-01   -0.25233E-01262464   0.598E+00    0.149E+00
DAV:   2    -0.689854811795E+02    0.22575E-01   -0.13683E-01262377   0.400E+00    0.880E-01
DAV:   3    -0.689796846227E+02    0.57966E-02   -0.13696E-02265041   0.125E+00    0.335E-01
DAV:   4    -0.689780763813E+02    0.16082E-02   -0.17068E-03257112   0.883E-01    0.289E-01
DAV:   5    -0.689777560822E+02    0.32030E-03   -0.12990E-03257751   0.927E-01    0.153E-01
DAV:   6    -0.689775977821E+02    0.15830E-03   -0.30349E-04258705   0.355E-01    0.740E-02
DAV:   7    -0.689775059488E+02    0.91833E-04   -0.11700E-04236529   0.278E-01    0.421E-02
DAV:   8    -0.689772550942E+02    0.25085E-03   -0.45797E-05222231   0.118E-01    0.164E-02
DAV:   9    -0.689773302352E+02   -0.75141E-04   -0.11385E-05133707   0.665E-02    0.200E-02
DAV:  10    -0.689773332892E+02   -0.30540E-05   -0.79235E-06122562   0.712E-02
   6 F= -.68977333E+02 E0= -.68975410E+02  d E =-.893740E-01  mag=     6.9774
       N       E                     dE             d eps       ncg     rms          rms(c)
DAV:   1    -0.689777521311E+02   -0.42190E-03   -0.34930E-03262818   0.703E-01    0.172E-01
DAV:   2    -0.689778367921E+02   -0.84661E-04   -0.18166E-03262425   0.465E-01    0.102E-01
DAV:   3    -0.689776462723E+02    0.19052E-03   -0.20522E-04262455   0.227E-01    0.626E-02
DAV:   4    -0.689775720775E+02    0.74195E-04   -0.12473E-04234240   0.290E-01    0.635E-02
DAV:   5    -0.689774840221E+02    0.88055E-04   -0.34391E-05175428   0.154E-01    0.148E-02
DAV:   6    -0.689774815372E+02    0.24849E-05   -0.11434E-05132297   0.946E-02
   7 F= -.68977482E+02 E0= -.68975556E+02  d E =-.895222E-01  mag=     6.9789
       N       E                     dE             d eps       ncg     rms          rms(c)
DAV:   1    -0.689788488724E+02   -0.13649E-02   -0.10951E-02262368   0.124E+00    0.307E-01
DAV:   2    -0.689784733537E+02    0.37552E-03   -0.57697E-03262419   0.825E-01    0.182E-01
DAV:   3    -0.689780317199E+02    0.44163E-03   -0.57757E-04264621   0.264E-01    0.717E-02
DAV:   4    -0.689777723480E+02    0.25937E-03   -0.12559E-04229590   0.271E-01    0.829E-02
DAV:   5    -0.689777210441E+02    0.51304E-04   -0.80782E-05217008   0.238E-01    0.270E-02
DAV:   6    -0.689777345744E+02   -0.13530E-04   -0.13808E-05152043   0.692E-02    0.183E-02
DAV:   7    -0.689777180123E+02    0.16562E-04   -0.76369E-06123018   0.691E-02    0.888E-03
DAV:   8    -0.689776606375E+02    0.57375E-04   -0.21909E-06122538   0.245E-02    0.375E-03
DAV:   9    -0.689776734087E+02   -0.12771E-04   -0.66120E-07122526   0.147E-02    0.416E-03
DAV:  10    -0.689776727678E+02    0.64090E-06   -0.34006E-07122496   0.145E-02
   8 F= -.68977673E+02 E0= -.68975746E+02  d E =-.897135E-01  mag=     6.9816
       N       E                     dE             d eps       ncg     rms          rms(c)
DAV:   1    -0.689776667539E+02    0.66548E-05   -0.22887E-05157962   0.578E-02    0.137E-02
DAV:   2    -0.689777027647E+02   -0.36011E-04   -0.11674E-05129405   0.388E-02    0.893E-03
DAV:   3    -0.689776922378E+02    0.10527E-04   -0.34009E-06122490   0.467E-02    0.135E-02
DAV:   4    -0.689776871507E+02    0.50871E-05   -0.20852E-06122466   0.392E-02    0.288E-03
DAV:   5    -0.689776801984E+02    0.69523E-05   -0.18283E-07122508   0.870E-03    0.230E-03
DAV:   6    -0.689776793805E+02    0.81790E-06   -0.92021E-08122460   0.825E-03
   9 F= -.68977679E+02 E0= -.68975752E+02  d E =-.897201E-01  mag=     6.9817
       N       E                     dE             d eps       ncg     rms          rms(c)
DAV:   1    -0.689779814710E+02   -0.30127E-03   -0.24668E-03262704   0.589E-01    0.146E-01
DAV:   2    -0.689780946862E+02   -0.11322E-03   -0.13138E-03262455   0.394E-01    0.865E-02
DAV:   3    -0.689779281289E+02    0.16656E-03   -0.13060E-04243456   0.122E-01    0.332E-02
DAV:   4    -0.689777956190E+02    0.13251E-03   -0.16806E-05160152   0.916E-02    0.298E-02
DAV:   5    -0.689777888596E+02    0.67594E-05   -0.13573E-05130095   0.963E-02    0.147E-02
DAV:   6    -0.689778025922E+02   -0.13733E-04   -0.27211E-06122664   0.331E-02    0.636E-03
DAV:   7    -0.689777913635E+02    0.11229E-04   -0.12577E-06122460   0.277E-02    0.473E-03
DAV:   8    -0.689777628715E+02    0.28492E-04   -0.56185E-07122442   0.141E-02    0.178E-03
DAV:   9    -0.689777702810E+02   -0.74095E-05   -0.16868E-07122460   0.586E-03
  10 F= -.68977770E+02 E0= -.68975842E+02  d E =-.898110E-01  mag=     6.9829
       N       E                     dE             d eps       ncg     rms          rms(c)
DAV:   1    -0.689779899666E+02   -0.22710E-03   -0.17634E-03262548   0.498E-01    0.124E-01
DAV:   2    -0.689774898385E+02    0.50013E-03   -0.93883E-04262401   0.335E-01    0.734E-02
DAV:   3    -0.689775669908E+02   -0.77152E-04   -0.96306E-05238470   0.140E-01    0.377E-02
DAV:   4    -0.689776365941E+02   -0.69603E-04   -0.43575E-05197202   0.190E-01    0.464E-02
DAV:   5    -0.689776665752E+02   -0.29981E-04   -0.15551E-05131880   0.119E-01    0.103E-02
DAV:   6    -0.689776650628E+02    0.15125E-05   -0.54970E-06122790   0.599E-02
  11 F= -.68977665E+02 E0= -.68975737E+02  d E =-.897058E-01  mag=     6.9820
       N       E                     dE             d eps       ncg     rms          rms(c)
DAV:   1    -0.689777216999E+02   -0.55125E-04   -0.43568E-04258984   0.253E-01    0.622E-02
DAV:   2    -0.689778615815E+02   -0.13988E-03   -0.23808E-04257715   0.172E-01    0.377E-02
DAV:   3    -0.689777995702E+02    0.62011E-04   -0.38525E-05199128   0.133E-01    0.390E-02
DAV:   4    -0.689777763972E+02    0.23173E-04   -0.24343E-05135864   0.131E-01    0.164E-02
DAV:   5    -0.689777463823E+02    0.30015E-04   -0.29055E-06123726   0.386E-02    0.729E-03
DAV:   6    -0.689777436327E+02    0.27496E-05   -0.13412E-06122400   0.325E-02
  12 F= -.68977744E+02 E0= -.68975815E+02  d E =-.897843E-01  mag=     6.9824
       N       E                     dE             d eps       ncg     rms          rms(c)
DAV:   1    -0.689777512664E+02   -0.48841E-05   -0.11633E-04238878   0.130E-01    0.320E-02
DAV:   2    -0.689776504092E+02    0.10086E-03   -0.63474E-05212868   0.882E-02    0.193E-02
DAV:   3    -0.689776771689E+02   -0.26760E-04   -0.85514E-06122526   0.592E-02    0.169E-02
DAV:   4    -0.689776869849E+02   -0.98161E-05   -0.56022E-06122394   0.635E-02    0.955E-03
DAV:   5    -0.689777015922E+02   -0.14607E-04   -0.83565E-07122448   0.227E-02    0.349E-03
DAV:   6    -0.689777026431E+02   -0.10510E-05   -0.39073E-07122376   0.171E-02
  13 F= -.68977703E+02 E0= -.68975775E+02  d E =-.897433E-01  mag=     6.9822
       N       E                     dE             d eps       ncg     rms          rms(c)
DAV:   1    -0.689777063764E+02   -0.47842E-05   -0.13235E-05122493   0.446E-02    0.105E-02
DAV:   2    -0.689776831377E+02    0.23239E-04   -0.64900E-06122394   0.275E-02    0.625E-03
DAV:   3    -0.689776907048E+02   -0.75671E-05   -0.90692E-07122430   0.206E-02    0.552E-03
DAV:   4    -0.689776942829E+02   -0.35781E-05   -0.61481E-07122382   0.215E-02    0.307E-03
DAV:   5    -0.689776999448E+02   -0.56619E-05   -0.90425E-08122430   0.730E-03    0.103E-03
DAV:   6    -0.689777006660E+02   -0.72118E-06   -0.60851E-08122376   0.630E-03
  14 F= -.68977701E+02 E0= -.68975773E+02  d E =-.897414E-01  mag=     6.9821
       N       E                     dE             d eps       ncg     rms          rms(c)
DAV:   1    -0.689777029233E+02   -0.29785E-05   -0.10732E-05122424   0.396E-02    0.951E-03
DAV:   2    -0.689776790809E+02    0.23842E-04   -0.54879E-06122382   0.250E-02    0.558E-03
DAV:   3    -0.689776862559E+02   -0.71750E-05   -0.55308E-07122412   0.117E-02    0.307E-03
DAV:   4    -0.689776910818E+02   -0.48259E-05   -0.31103E-07122364   0.158E-02    0.342E-03
DAV:   5    -0.689776945896E+02   -0.35078E-05   -0.94435E-08122412   0.901E-03    0.770E-04
DAV:   6    -0.689776948300E+02   -0.24040E-06   -0.22161E-08122364   0.322E-03
  15 F= -.68977695E+02 E0= -.68975767E+02  d E =-.897355E-01  mag=     6.9820
       N       E                     dE             d eps       ncg     rms          rms(c)
DAV:   1    -0.689831015216E+02   -0.54069E-02   -0.94918E-02267873   0.214E+00    0.524E-01
DAV:   2    -0.689789346157E+02    0.41669E-02   -0.44821E-03249192   0.908E-01    0.285E-01
DAV:   3    -0.689779090152E+02    0.10256E-02   -0.17436E-03275496   0.470E-01    0.143E-01
DAV:   4    -0.689778673207E+02    0.41694E-04   -0.34703E-04253050   0.202E-01    0.417E-02
DAV:   5    -0.689778390193E+02    0.28301E-04   -0.10528E-04252447   0.261E-01    0.653E-02
DAV:   6    -0.689778037107E+02    0.35309E-04   -0.40802E-05181488   0.168E-01    0.116E-02
DAV:   7    -0.689778237002E+02   -0.19989E-04   -0.86339E-06130266   0.654E-02    0.197E-02
DAV:   8    -0.689778326288E+02   -0.89286E-05   -0.62548E-06122460   0.589E-02
  16 F= -.68977833E+02 E0= -.68975939E+02  d E =-.137799E-03  mag=     6.9808
