       N       E                     dE             d eps       ncg     rms          rms(c)
DAV:   1     0.627962412252E+04    0.62796E+04   -0.27066E+05 35712   0.155E+03
DAV:   2     0.396978802114E+03   -0.58826E+04   -0.55711E+04 35744   0.469E+02
DAV:   3    -0.349213459460E+03   -0.74619E+03   -0.72494E+03 40432   0.172E+02
DAV:   4    -0.385201442955E+03   -0.35988E+02   -0.35469E+02 47584   0.402E+01
DAV:   5    -0.387905629380E+03   -0.27042E+01   -0.26998E+01 66672   0.814E+00    0.430E-01
DAV:   6    -0.388073539517E+03   -0.16791E+00   -0.59346E-01 50704   0.124E+00    0.458E-01
DAV:   7    -0.388076300981E+03   -0.27615E-02   -0.28277E-02 63136   0.275E-01    0.558E-01
DAV:   8    -0.388076009978E+03    0.29100E-03   -0.92166E-03 52032   0.147E-01    0.353E-01
DAV:   9    -0.388076084292E+03   -0.74314E-04   -0.24339E-03 50112   0.812E-02    0.352E-01
DAV:  10    -0.388075911423E+03    0.17287E-03   -0.86673E-04 45040   0.547E-02    0.135E-01
DAV:  11    -0.388075956391E+03   -0.44968E-04   -0.10127E-04 35984   0.231E-02    0.117E-01
DAV:  12    -0.388075955931E+03    0.45961E-06   -0.38644E-05 30224   0.139E-02
   1 F= -.38807596E+03 E0= -.38806219E+03  d E =-.388076E+03  mag=    34.0000
