       N       E                     dE             d eps       ncg     rms          ort
DAV:   1     0.737795682263E+04    0.73780E+04   -0.35063E+05  9568   0.176E+03
DAV:   2     0.486706024159E+03   -0.68913E+04   -0.64616E+04  9568   0.514E+02
DAV:   3    -0.319314425507E+03   -0.80602E+03   -0.78145E+03  9568   0.196E+02
DAV:   4    -0.352523046394E+03   -0.33209E+02   -0.32783E+02  9568   0.385E+01
DAV:   5    -0.354653859510E+03   -0.21308E+01   -0.21004E+01  9568   0.753E+00
SDA:   6    -0.177742683215E+03    0.17691E+03   -0.21004E+01  9568   0.140E+04 0.000E+00
CGA:   7    -0.269125814601E+03   -0.91383E+02   -0.11897E+03  9568   0.845E+03 0.101E+03
CGA:   8    -0.277861745693E+03   -0.87359E+01   -0.17867E+02  9568   0.161E+04-0.168E+02
CGA:   9    -0.266463017574E+03    0.11399E+02   -0.68871E+02  9568   0.101E+04-0.149E+04
CGA:  10    -0.279120061493E+03   -0.12657E+02   -0.37448E+02  9568   0.379E+04-0.219E+04
CGA:  11    -0.287286611077E+03   -0.81665E+01   -0.20363E+03  9568   0.365E+03-0.191E+03
CGA:  12    -0.294953237567E+03   -0.76666E+01   -0.45600E+01  9568   0.199E+03 0.305E+03
CGA:  13    -0.297492508541E+03   -0.25393E+01   -0.14178E+01  9568   0.124E+03 0.156E+03
CGA:  14    -0.298532827497E+03   -0.10403E+01   -0.53044E+00  9568   0.112E+03 0.122E+03
CGA:  15    -0.299424000497E+03   -0.89117E+00   -0.43885E+00  9568   0.109E+03 0.118E+03
CGA:  16    -0.300349048627E+03   -0.92505E+00   -0.44555E+00  9568   0.109E+03 0.119E+03
CGA:  17    -0.301373410816E+03   -0.10244E+01   -0.49226E+00  9568   0.105E+03 0.118E+03
CGA:  18    -0.302603395012E+03   -0.12300E+01   -0.60565E+00  9568   0.895E+02 0.106E+03
CGA:  19    -0.303885016439E+03   -0.12816E+01   -0.66998E+00  9568   0.618E+02 0.796E+02
CGA:  20    -0.304656684900E+03   -0.77167E+00   -0.41194E+00  9568   0.437E+02 0.536E+02
CGA:  21    -0.305326737899E+03   -0.67005E+00   -0.35721E+00  9568   0.311E+02 0.383E+02
CGA:  22    -0.305764483286E+03   -0.43775E+00   -0.22333E+00  9568   0.256E+02 0.298E+02
CGA:  23    -0.306053443468E+03   -0.28896E+00   -0.14487E+00  9568   0.228E+02 0.254E+02
CGA:  24    -0.306283506685E+03   -0.23006E+00   -0.11498E+00  9568   0.208E+02 0.228E+02
CGA:  25    -0.306504779365E+03   -0.22127E+00   -0.11078E+00  9568   0.188E+02 0.207E+02
CGA:  26    -0.306755885283E+03   -0.25111E+00   -0.12693E+00  9568   0.162E+02 0.182E+02
CGA:  27    -0.307099277635E+03   -0.34339E+00   -0.18051E+00  9568   0.120E+02 0.142E+02
CGA:  28    -0.307799161003E+03   -0.69988E+00   -0.51655E+00  9568   0.193E+02 0.194E+01
CGA:  29    -0.308335672802E+03   -0.53651E+00   -0.30815E+00  9568   0.115E+02 0.165E+02
CGA:  30    -0.308800406618E+03   -0.46473E+00   -0.59598E+00  9568   0.109E+02 0.149E+01
CGA:  31    -0.308882446063E+03   -0.82039E-01   -0.41896E-01  9568   0.101E+02 0.118E+02
CGA:  32    -0.309086852482E+03   -0.20441E+00   -0.11095E+00  9568   0.643E+01 0.812E+01
CGA:  33    -0.309393893015E+03   -0.30704E+00   -0.23646E+00  9568   0.857E+01 0.819E+00
CGA:  34    -0.309820527464E+03   -0.42663E+00   -0.25569E+00  9568   0.776E+01 0.680E+01
CGA:  35    -0.310057049663E+03   -0.23652E+00   -0.20402E+00  9568   0.430E+01 0.910E+00
CGA:  36    -0.310627644794E+03   -0.57060E+00   -0.10013E+01  9568   0.107E+03-0.564E+01
CGA:  37    -0.310414714402E+03    0.21293E+00   -0.28877E+01  9568   0.626E+02-0.282E+02
CGA:  38    -0.311089880019E+03   -0.67517E+00   -0.35011E+00  9568   0.352E+02 0.394E+02
CGA:  39    -0.311419140536E+03   -0.32926E+00   -0.17626E+00  9568   0.194E+02 0.293E+02
CGA:  40    -0.311571869475E+03   -0.15273E+00   -0.80823E-01  9568   0.122E+02 0.168E+02
CGA:  41    -0.311675975559E+03   -0.10411E+00   -0.57153E-01  9568   0.680E+01 0.962E+01
CGA:  42    -0.311753909914E+03   -0.77934E-01   -0.46989E-01  9568   0.288E+01 0.418E+01
CGA:  43    -0.311829948071E+03   -0.76038E-01   -0.63550E-01  9568   0.275E+01 0.358E+00
CGA:  44    -0.312064229696E+03   -0.23428E+00   -0.21804E+00  9568   0.146E+02 0.422E+00
CGA:  45    -0.312145930852E+03   -0.81701E-01   -0.55119E-01  9568   0.149E+02 0.461E+01
CGA:  46    -0.312082968196E+03    0.62963E-01   -0.81666E-01  9568   0.347E+02-0.548E+02
CGA:  47    -0.312288326897E+03   -0.20536E+00   -0.43739E+00  9568   0.154E+02-0.145E+02
CGA:  48    -0.312394361773E+03   -0.10603E+00   -0.10313E+00  9568   0.375E+01 0.164E+00
CGA:  49    -0.312448012242E+03   -0.53650E-01   -0.44290E-01  9568   0.184E+01 0.646E+00
CGA:  50    -0.312519495568E+03   -0.71483E-01   -0.72225E-01  9568   0.457E+01 0.290E-01
CGA:  51    -0.312609688403E+03   -0.90193E-01   -0.58921E-01  9568   0.516E+01 0.228E+01
CGA:  52    -0.312682095147E+03   -0.72407E-01   -0.43703E-01  9568   0.329E+01 0.495E+01
CGA:  53    -0.312725267399E+03   -0.43172E-01   -0.49765E-01  9568   0.157E+01-0.256E+00
CGA:  54    -0.312755967964E+03   -0.30701E-01   -0.30648E-01  9568   0.174E+01 0.292E-03
CGA:  55    -0.312860789284E+03   -0.10482E+00   -0.16330E+00  9568   0.491E+01-0.235E+01
CGA:  56    -0.312929187169E+03   -0.68398E-01   -0.69020E-01  9568   0.146E+01-0.469E-01
CGA:  57    -0.312960382217E+03   -0.31195E-01   -0.31882E-01  9568   0.124E+01-0.126E-01
CGA:  58    -0.313042498542E+03   -0.82116E-01   -0.77646E-01  9568   0.144E+01 0.127E+00
CGA:  59    -0.313078614800E+03   -0.36116E-01   -0.38042E-01  9568   0.119E+01 0.849E-02
CGA:  60    -0.313118143520E+03   -0.39529E-01   -0.38435E-01  9568   0.886E+00-0.472E-01
CGA:  61    -0.313153833380E+03   -0.35690E-01   -0.36144E-01  9568   0.114E+01-0.538E-01
CGA:  62    -0.313173225457E+03   -0.19392E-01   -0.18003E-01  9568   0.460E+00 0.671E-01
CGA:  63    -0.313192526173E+03   -0.19301E-01   -0.19316E-01  9568   0.448E+00-0.177E-02
CGA:  64    -0.313211613134E+03   -0.19087E-01   -0.18915E-01  9568   0.894E+00 0.180E-01
CGA:  65    -0.313230380455E+03   -0.18767E-01   -0.16892E-01  9568   0.144E+00 0.989E-01
CGA:  66    -0.313238410744E+03   -0.80303E-02   -0.78751E-02  9568   0.204E+00 0.713E-02
CGA:  67    -0.313243626234E+03   -0.52155E-02   -0.53678E-02  9568   0.157E+00-0.854E-03
CGA:  68    -0.313248631055E+03   -0.50048E-02   -0.50545E-02  9568   0.699E-01 0.355E-02
CGA:  69    -0.313252725616E+03   -0.40946E-02   -0.39837E-02  9568   0.843E-01 0.401E-02
CGA:  70    -0.313255748450E+03   -0.30228E-02   -0.30449E-02  9568   0.678E-01 0.314E-02
CGA:  71    -0.313258244719E+03   -0.24963E-02   -0.25000E-02  9568   0.482E-01 0.125E-02
CGA:  72    -0.313260778396E+03   -0.25337E-02   -0.25177E-02  9568   0.103E+00 0.759E-03
CGA:  73    -0.313265388429E+03   -0.46100E-02   -0.45695E-02  9568   0.546E-01 0.402E-02
CGA:  74    -0.313267643753E+03   -0.22553E-02   -0.22533E-02  9568   0.347E-01 0.549E-03
CGA:  75    -0.313268747183E+03   -0.11034E-02   -0.11062E-02  9568   0.290E-01 0.117E-03
CGA:  76    -0.313270263401E+03   -0.15162E-02   -0.15050E-02  9568   0.306E-01 0.588E-03
CGA:  77    -0.313271398804E+03   -0.11354E-02   -0.11360E-02  9568   0.223E-01 0.111E-03
CGA:  78    -0.313272384313E+03   -0.98551E-03   -0.98216E-03  9568   0.178E-01 0.342E-03
CGA:  79    -0.313272938056E+03   -0.55374E-03   -0.55463E-03  9568   0.133E-01 0.150E-09
CGA:  80    -0.313273714184E+03   -0.77613E-03   -0.77511E-03  9568   0.119E-01 0.299E-04
CGA:  81    -0.313274083943E+03   -0.36976E-03   -0.37008E-03  9568   0.827E-02-0.173E-04
CGA:  82    -0.313274380476E+03   -0.29653E-03   -0.29658E-03  9568   0.434E-02-0.103E-04
CGA:  83    -0.313274629208E+03   -0.24873E-03   -0.24904E-03  9568   0.798E-02-0.188E-04
CGA:  84    -0.313274930054E+03   -0.30085E-03   -0.30074E-03  9568   0.502E-02-0.480E-04
CGA:  85    -0.313275141811E+03   -0.21176E-03   -0.21181E-03  9568   0.356E-02-0.194E-04
SDA:  86    -0.313275242370E+03   -0.10056E-03   -0.10026E-03  9568   0.192E-02-0.115E-04
CGA:  87    -0.313275273434E+03   -0.31064E-04   -0.31034E-04  9568   0.694E-03 0.162E-05
CGA:  88    -0.313275319402E+03   -0.45968E-04   -0.45762E-04  9568   0.120E-02 0.662E-05
CGA:  89    -0.313275470455E+03   -0.15105E-03   -0.15010E-03  9568   0.171E-02 0.747E-05
CGA:  90    -0.313275567821E+03   -0.97367E-04   -0.96934E-04  9568   0.191E-02 0.276E-04
CGA:  91    -0.313275667926E+03   -0.10010E-03   -0.10100E-03  9568   0.788E-03-0.716E-04
CGA:  92    -0.313275704557E+03   -0.36631E-04   -0.36596E-04  9568   0.331E-03 0.637E-05
CGA:  93    -0.313275714933E+03   -0.10376E-04   -0.10395E-04  9568   0.404E-03 0.135E-05
CGA:  94    -0.313275732260E+03   -0.17327E-04   -0.17333E-04  9568   0.185E-03 0.374E-05
CGA:  95    -0.313275752248E+03   -0.19988E-04   -0.19503E-04  9568   0.164E-03 0.784E-05
CGA:  96    -0.313275759908E+03   -0.76595E-05   -0.76641E-05  9568   0.137E-03 0.220E-05
   1 F= -.31327576E+03 E0= -.31325585E+03  d E =-.313276E+03  mag=    24.0907
       N       E                     dE             d eps       ncg     rms          ort
SDA:   1    -0.313273507665E+03    0.22446E-02    0.00000E+00  9568   0.150E+00 0.000E+00
CGA:   2    -0.313276018676E+03   -0.25110E-02   -0.25247E-02  9568   0.219E-01-0.673E-03
CGA:   3    -0.313276422144E+03   -0.40347E-03   -0.39983E-03  9568   0.483E-02 0.131E-03
CGA:   4    -0.313276559034E+03   -0.13689E-03   -0.13685E-03  9568   0.913E-03-0.574E-06
CGA:   5    -0.313276612547E+03   -0.53512E-04   -0.53528E-04  9568   0.828E-03-0.985E-06
CGA:   6    -0.313276659404E+03   -0.46857E-04   -0.46849E-04  9568   0.115E-02 0.502E-06
CGA:   7    -0.313276682956E+03   -0.23552E-04   -0.23571E-04  9568   0.357E-03-0.776E-06
CGA:   8    -0.313276707053E+03   -0.24097E-04   -0.24054E-04  9568   0.147E-03 0.181E-05
CGA:   9    -0.313276714371E+03   -0.73177E-05   -0.73116E-05  9568   0.175E-03 0.139E-05
   2 F= -.31327671E+03 E0= -.31325686E+03  d E =-.954463E-03  mag=    24.0898
       N       E                     dE             d eps       ncg     rms          ort
SDA:   1    -0.313131610232E+03    0.14510E+00    0.00000E+00  9568   0.175E+01 0.000E+00
CGA:   2    -0.313158031165E+03   -0.26421E-01   -0.25384E-01  9568   0.539E+00 0.480E-01
CGA:   3    -0.313222018072E+03   -0.63987E-01   -0.62786E-01  9568   0.857E+00 0.193E-01
CGA:   4    -0.313258572050E+03   -0.36554E-01   -0.36565E-01  9568   0.754E+00 0.547E-03
CGA:   5    -0.313273233498E+03   -0.14661E-01   -0.14505E-01  9568   0.239E+00 0.447E-02
CGA:   6    -0.313283437629E+03   -0.10204E-01   -0.10191E-01  9568   0.266E+00-0.150E-02
CGA:   7    -0.313296414500E+03   -0.12977E-01   -0.12969E-01  9568   0.209E+00 0.151E-02
CGA:   8    -0.313299556298E+03   -0.31418E-02   -0.31875E-02  9568   0.379E-01-0.233E-02
CGA:   9    -0.313301929368E+03   -0.23731E-02   -0.23709E-02  9568   0.401E-01 0.953E-04
CGA:  10    -0.313303202022E+03   -0.12727E-02   -0.12758E-02  9568   0.372E-01 0.204E-04
CGA:  11    -0.313304101916E+03   -0.89989E-03   -0.89625E-03  9568   0.105E-01 0.591E-04
CGA:  12    -0.313304623072E+03   -0.52116E-03   -0.52086E-03  9568   0.751E-02 0.323E-04
CGA:  13    -0.313304834689E+03   -0.21162E-03   -0.21160E-03  9568   0.563E-02 0.373E-05
CGA:  14    -0.313305003804E+03   -0.16911E-03   -0.16913E-03  9568   0.401E-02 0.270E-05
CGA:  15    -0.313305194716E+03   -0.19091E-03   -0.19098E-03  9568   0.260E-02-0.605E-05
CGA:  16    -0.313305308676E+03   -0.11396E-03   -0.11396E-03  9568   0.228E-02 0.333E-05
CGA:  17    -0.313305348560E+03   -0.39885E-04   -0.39984E-04  9568   0.584E-03-0.184E-06
CGA:  18    -0.313305410536E+03   -0.61976E-04   -0.61683E-04  9568   0.105E-02 0.458E-05
CGA:  19    -0.313305444619E+03   -0.34083E-04   -0.34133E-04  9568   0.811E-03 0.337E-05
CGA:  20    -0.313305466029E+03   -0.21410E-04   -0.21452E-04  9568   0.433E-03 0.145E-05
CGA:  21    -0.313305480840E+03   -0.14810E-04   -0.14821E-04  9568   0.212E-03 0.845E-06
CGA:  22    -0.313305500395E+03   -0.19555E-04   -0.19499E-04  9568   0.421E-03 0.971E-06
CGA:  23    -0.313305509493E+03   -0.90978E-05   -0.91010E-05  9568   0.228E-03-0.130E-06
CGA:  24    -0.313305521992E+03   -0.12499E-04   -0.12499E-04  9568   0.149E-03-0.849E-07
CGA:  25    -0.313305528129E+03   -0.61377E-05   -0.61384E-05  9568   0.102E-03 0.161E-06
   3 F= -.31330553E+03 E0= -.31328569E+03  d E =-.288138E-01  mag=    24.0889
       N       E                     dE             d eps       ncg     rms          ort
SDA:   1    -0.312159866447E+03    0.11457E+01    0.00000E+00  9568   0.501E+01 0.000E+00
CGA:   2    -0.312315213259E+03   -0.15535E+00   -0.15439E+00  9568   0.761E+01-0.251E-01
CGA:   3    -0.312892581176E+03   -0.57737E+00   -0.57913E+00  9568   0.576E+01-0.417E-01
CGA:   4    -0.313064377755E+03   -0.17180E+00   -0.17685E+00  9568   0.238E+01 0.748E-02
CGA:   5    -0.313178963309E+03   -0.11459E+00   -0.11372E+00  9568   0.234E+01 0.144E+00
CGA:   6    -0.313256532953E+03   -0.77570E-01   -0.78351E-01  9568   0.200E+01 0.385E-02
CGA:   7    -0.313321722086E+03   -0.65189E-01   -0.65996E-01  9568   0.436E+00 0.108E-01
CGA:   8    -0.313339801466E+03   -0.18079E-01   -0.18113E-01  9568   0.297E+00 0.774E-02
CGA:   9    -0.313355564341E+03   -0.15763E-01   -0.15770E-01  9568   0.253E+00-0.512E-03
CGA:  10    -0.313364791201E+03   -0.92269E-02   -0.92355E-02  9568   0.841E-01 0.356E-03
CGA:  11    -0.313367387441E+03   -0.25962E-02   -0.25915E-02  9568   0.794E-01-0.323E-04
CGA:  12    -0.313369757809E+03   -0.23704E-02   -0.23648E-02  9568   0.324E-01-0.198E-04
CGA:  13    -0.313371907528E+03   -0.21497E-02   -0.21497E-02  9568   0.334E-01 0.196E-05
CGA:  14    -0.313372995714E+03   -0.10882E-02   -0.10856E-02  9568   0.138E-01-0.270E-04
CGA:  15    -0.313373773675E+03   -0.77796E-03   -0.77644E-03  9568   0.102E-01 0.852E-04
CGA:  16    -0.313373999331E+03   -0.22566E-03   -0.22519E-03  9568   0.657E-02 0.159E-04
CGA:  17    -0.313374450441E+03   -0.45111E-03   -0.45048E-03  9568   0.591E-02 0.226E-04
CGA:  18    -0.313374713566E+03   -0.26312E-03   -0.26311E-03  9568   0.459E-02 0.107E-04
CGA:  19    -0.313374889049E+03   -0.17548E-03   -0.17573E-03  9568   0.130E-02 0.185E-04
CGA:  20    -0.313375021662E+03   -0.13261E-03   -0.13216E-03  9568   0.412E-02 0.826E-05
CGA:  21    -0.313375129529E+03   -0.10787E-03   -0.10798E-03  9568   0.197E-02 0.209E-05
CGA:  22    -0.313375213248E+03   -0.83719E-04   -0.83734E-04  9568   0.126E-02 0.265E-05
CGA:  23    -0.313375257107E+03   -0.43858E-04   -0.43896E-04  9568   0.676E-03 0.550E-06
CGA:  24    -0.313375320276E+03   -0.63170E-04   -0.63011E-04  9568   0.746E-03 0.311E-05
CGA:  25    -0.313375348803E+03   -0.28526E-04   -0.28542E-04  9568   0.965E-03 0.189E-05
CGA:  26    -0.313375380530E+03   -0.31727E-04   -0.31762E-04  9568   0.403E-03 0.225E-05
CGA:  27    -0.313375395634E+03   -0.15104E-04   -0.15111E-04  9568   0.240E-03 0.109E-05
CGA:  28    -0.313375408860E+03   -0.13226E-04   -0.13209E-04  9568   0.249E-03 0.161E-05
CGA:  29    -0.313375425325E+03   -0.16465E-04   -0.16417E-04  9568   0.238E-03 0.222E-05
CGA:  30    -0.313375431997E+03   -0.66723E-05   -0.66786E-05  9568   0.177E-03 0.385E-06
   4 F= -.31337543E+03 E0= -.31335564E+03  d E =-.699039E-01  mag=    24.0877
       N       E                     dE             d eps       ncg     rms          ort
SDA:   1    -0.310757228823E+03    0.26182E+01    0.00000E+00  9568   0.935E+01 0.000E+00
CGA:   2    -0.311427181610E+03   -0.66995E+00   -0.62451E+00  9568   0.138E+02 0.173E+01
CGA:   3    -0.312461358326E+03   -0.10342E+01   -0.10417E+01  9568   0.109E+02-0.190E+00
CGA:   4    -0.312887390666E+03   -0.42603E+00   -0.42357E+00  9568   0.638E+01-0.140E+00
CGA:   5    -0.313030448816E+03   -0.14306E+00   -0.14534E+00  9568   0.378E+01-0.110E+00
CGA:   6    -0.313289793772E+03   -0.25934E+00   -0.26650E+00  9568   0.258E+01-0.239E+00
CGA:   7    -0.313349168923E+03   -0.59375E-01   -0.60359E-01  9568   0.930E+00-0.231E-01
CGA:   8    -0.313380829762E+03   -0.31661E-01   -0.31599E-01  9568   0.922E+00-0.136E-02
CGA:   9    -0.313412672700E+03   -0.31843E-01   -0.31828E-01  9568   0.406E+00-0.323E-03
CGA:  10    -0.313432280173E+03   -0.19607E-01   -0.19535E-01  9568   0.184E+00 0.119E-01
CGA:  11    -0.313438139571E+03   -0.58594E-02   -0.58732E-02  9568   0.165E+00 0.583E-04
CGA:  12    -0.313443898959E+03   -0.57594E-02   -0.57545E-02  9568   0.863E-01-0.111E-03
CGA:  13    -0.313447028832E+03   -0.31299E-02   -0.31296E-02  9568   0.553E-01 0.227E-04
CGA:  14    -0.313450577327E+03   -0.35485E-02   -0.35595E-02  9568   0.436E-01-0.424E-03
CGA:  15    -0.313451541773E+03   -0.96445E-03   -0.96871E-03  9568   0.208E-01-0.763E-04
CGA:  16    -0.313452374638E+03   -0.83286E-03   -0.83246E-03  9568   0.158E-01-0.451E-04
CGA:  17    -0.313453391793E+03   -0.10172E-02   -0.10170E-02  9568   0.164E-01 0.983E-05
CGA:  18    -0.313453910439E+03   -0.51865E-03   -0.52032E-03  9568   0.924E-02 0.209E-04
CGA:  19    -0.313454160984E+03   -0.25055E-03   -0.25092E-03  9568   0.526E-02 0.502E-05
CGA:  20    -0.313454480649E+03   -0.31966E-03   -0.31906E-03  9568   0.563E-02 0.293E-04
CGA:  21    -0.313454754825E+03   -0.27418E-03   -0.27421E-03  9568   0.518E-02-0.295E-05
CGA:  22    -0.313454892532E+03   -0.13771E-03   -0.13790E-03  9568   0.318E-02-0.298E-06
CGA:  23    -0.313455062708E+03   -0.17018E-03   -0.17015E-03  9568   0.215E-02 0.187E-05
CGA:  24    -0.313455146859E+03   -0.84151E-04   -0.84160E-04  9568   0.188E-02 0.116E-05
CGA:  25    -0.313455233884E+03   -0.87025E-04   -0.87004E-04  9568   0.265E-02 0.591E-05
CGA:  26    -0.313455326041E+03   -0.92157E-04   -0.92180E-04  9568   0.992E-03 0.458E-05
CGA:  27    -0.313455373465E+03   -0.47424E-04   -0.47392E-04  9568   0.733E-03 0.535E-05
CGA:  28    -0.313455397662E+03   -0.24197E-04   -0.24220E-04  9568   0.796E-03 0.211E-05
CGA:  29    -0.313455445774E+03   -0.48112E-04   -0.47996E-04  9568   0.795E-03 0.628E-05
CGA:  30    -0.313455471903E+03   -0.26129E-04   -0.26153E-04  9568   0.276E-03 0.209E-05
CGA:  31    -0.313455483296E+03   -0.11393E-04   -0.11395E-04  9568   0.383E-03 0.114E-05
SDA:  32    -0.313455499011E+03   -0.15716E-04   -0.15719E-04  9568   0.277E-03 0.111E-05
CGA:  33    -0.313455504766E+03   -0.57552E-05   -0.57441E-05  9568   0.121E-03-0.371E-06
   5 F= -.31345550E+03 E0= -.31343578E+03  d E =-.800728E-01  mag=    24.0830
       N       E                     dE             d eps       ncg     rms          ort
SDA:   1    -0.309839977078E+03    0.36155E+01    0.00000E+00  9568   0.122E+02 0.000E+00
CGA:   2    -0.310548087552E+03   -0.70811E+00   -0.69320E+00  9568   0.274E+02 0.864E+00
CGA:   3    -0.311938061223E+03   -0.13900E+01   -0.13850E+01  9568   0.328E+02 0.688E+00
CGA:   4    -0.312643369388E+03   -0.70531E+00   -0.74965E+00  9568   0.699E+01-0.150E+01
CGA:   5    -0.313004210239E+03   -0.36084E+00   -0.34922E+00  9568   0.334E+01 0.746E+00
CGA:   6    -0.313306465459E+03   -0.30226E+00   -0.31748E+00  9568   0.272E+01-0.364E+00
CGA:   7    -0.313408162004E+03   -0.10170E+00   -0.10177E+00  9568   0.126E+01 0.134E-01
CGA:   8    -0.313435524850E+03   -0.27363E-01   -0.27521E-01  9568   0.761E+00-0.632E-02
CGA:   9    -0.313466715622E+03   -0.31191E-01   -0.31174E-01  9568   0.518E+00-0.394E-02
CGA:  10    -0.313488219187E+03   -0.21504E-01   -0.21539E-01  9568   0.277E+00 0.138E-01
CGA:  11    -0.313498166851E+03   -0.99477E-02   -0.10032E-01  9568   0.147E+00 0.315E-02
CGA:  12    -0.313502544764E+03   -0.43779E-02   -0.43956E-02  9568   0.137E+00 0.766E-04
CGA:  13    -0.313506993700E+03   -0.44489E-02   -0.44745E-02  9568   0.502E-01 0.624E-03
CGA:  14    -0.313511402738E+03   -0.44090E-02   -0.44228E-02  9568   0.621E-01-0.305E-03
CGA:  15    -0.313512906747E+03   -0.15040E-02   -0.15190E-02  9568   0.281E-01-0.194E-03
CGA:  16    -0.313513620725E+03   -0.71398E-03   -0.71001E-03  9568   0.148E-01 0.506E-04
CGA:  17    -0.313514452874E+03   -0.83215E-03   -0.83428E-03  9568   0.160E-01-0.110E-03
CGA:  18    -0.313515514034E+03   -0.10612E-02   -0.10520E-02  9568   0.972E-02 0.332E-03
CGA:  19    -0.313515792837E+03   -0.27880E-03   -0.27964E-03  9568   0.788E-02 0.411E-05
CGA:  20    -0.313516059683E+03   -0.26685E-03   -0.26679E-03  9568   0.536E-02 0.504E-05
CGA:  21    -0.313516371891E+03   -0.31221E-03   -0.31169E-03  9568   0.399E-02 0.269E-04
CGA:  22    -0.313516630835E+03   -0.25894E-03   -0.25893E-03  9568   0.527E-02 0.126E-05
CGA:  23    -0.313516871432E+03   -0.24060E-03   -0.24053E-03  9568   0.255E-02 0.303E-04
CGA:  24    -0.313516925690E+03   -0.54258E-04   -0.54230E-04  9568   0.151E-02 0.245E-05
CGA:  25    -0.313517054865E+03   -0.12917E-03   -0.12892E-03  9568   0.205E-02 0.582E-05
CGA:  26    -0.313517181690E+03   -0.12682E-03   -0.12655E-03  9568   0.115E-02 0.146E-04
CGA:  27    -0.313517220968E+03   -0.39279E-04   -0.39341E-04  9568   0.480E-03 0.367E-05
CGA:  28    -0.313517274573E+03   -0.53605E-04   -0.53163E-04  9568   0.506E-03 0.674E-05
CGA:  29    -0.313517302818E+03   -0.28245E-04   -0.28220E-04  9568   0.652E-03 0.362E-05
CGA:  30    -0.313517324299E+03   -0.21481E-04   -0.21502E-04  9568   0.497E-03 0.124E-05
CGA:  31    -0.313517339064E+03   -0.14765E-04   -0.14785E-04  9568   0.212E-03 0.421E-06
SDA:  32    -0.313517350183E+03   -0.11119E-04   -0.11122E-04  9568   0.173E-03-0.697E-06
CGA:  33    -0.313517355678E+03   -0.54950E-05   -0.54821E-05  9568   0.945E-04-0.939E-06
   6 F= -.31351736E+03 E0= -.31349772E+03  d E =-.618509E-01  mag=    24.0730
       N       E                     dE             d eps       ncg     rms          ort
SDA:   1    -0.306548641431E+03    0.69687E+01    0.00000E+00  9568   0.203E+02 0.000E+00
CGA:   2    -0.309485039008E+03   -0.29364E+01   -0.25176E+01  9568   0.308E+02 0.547E+01
CGA:   3    -0.310778914341E+03   -0.12939E+01   -0.13531E+01  9568   0.430E+02-0.144E+01
CGA:   4    -0.311767355056E+03   -0.98844E+00   -0.88782E+00  9568   0.258E+02-0.885E+00
CGA:   5    -0.312257514772E+03   -0.49016E+00   -0.47792E+00  9568   0.199E+02-0.396E+00
CGA:   6    -0.312674938706E+03   -0.41742E+00   -0.42711E+00  9568   0.169E+02-0.950E+00
CGA:   7    -0.312867793045E+03   -0.19285E+00   -0.24034E+00  9568   0.163E+02-0.297E+01
CGA:   8    -0.313111612932E+03   -0.24382E+00   -0.27942E+00  9568   0.975E+01-0.118E+01
CGA:   9    -0.313222137804E+03   -0.11052E+00   -0.12667E+00  9568   0.516E+01-0.103E+01
CGA:  10    -0.313316793010E+03   -0.94655E-01   -0.77718E-01  9568   0.401E+01 0.668E+00
CGA:  11    -0.313379350183E+03   -0.62557E-01   -0.73567E-01  9568   0.169E+01-0.475E+00
CGA:  12    -0.313408446061E+03   -0.29096E-01   -0.30674E-01  9568   0.200E+01-0.381E-01
CGA:  13    -0.313465564706E+03   -0.57119E-01   -0.55536E-01  9568   0.134E+01-0.178E-01
CGA:  14    -0.313491431349E+03   -0.25867E-01   -0.25261E-01  9568   0.985E+00 0.144E-01
CGA:  15    -0.313511792161E+03   -0.20361E-01   -0.21271E-01  9568   0.541E+00-0.149E-01
CGA:  16    -0.313522222938E+03   -0.10431E-01   -0.10570E-01  9568   0.413E+00-0.304E-02
CGA:  17    -0.313531011192E+03   -0.87883E-02   -0.86564E-02  9568   0.217E+00 0.174E-02
CGA:  18    -0.313535978078E+03   -0.49669E-02   -0.49802E-02  9568   0.255E+00-0.651E-04
CGA:  19    -0.313543670288E+03   -0.76922E-02   -0.77247E-02  9568   0.195E+00 0.274E-02
CGA:  20    -0.313547722689E+03   -0.40524E-02   -0.40667E-02  9568   0.158E+00-0.136E-03
CGA:  21    -0.313551465922E+03   -0.37432E-02   -0.37808E-02  9568   0.754E-01 0.402E-03
CGA:  22    -0.313552891011E+03   -0.14251E-02   -0.14186E-02  9568   0.543E-01 0.131E-03
CGA:  23    -0.313554438019E+03   -0.15470E-02   -0.15459E-02  9568   0.423E-01-0.107E-03
CGA:  24    -0.313555524605E+03   -0.10866E-02   -0.10904E-02  9568   0.517E-01 0.163E-03
CGA:  25    -0.313557023391E+03   -0.14988E-02   -0.14989E-02  9568   0.373E-01 0.284E-04
CGA:  26    -0.313557908334E+03   -0.88494E-03   -0.88423E-03  9568   0.299E-01-0.182E-05
CGA:  27    -0.313558493604E+03   -0.58527E-03   -0.58911E-03  9568   0.105E-01-0.252E-04
CGA:  28    -0.313558791951E+03   -0.29835E-03   -0.29849E-03  9568   0.150E-01 0.312E-04
CGA:  29    -0.313559241258E+03   -0.44931E-03   -0.44931E-03  9568   0.106E-01 0.120E-04
CGA:  30    -0.313559554631E+03   -0.31337E-03   -0.31340E-03  9568   0.140E-01 0.150E-04
CGA:  31    -0.313559921875E+03   -0.36724E-03   -0.36829E-03  9568   0.706E-02 0.881E-04
SDA:  32    -0.313560102131E+03   -0.18026E-03   -0.18040E-03  9568   0.591E-02 0.162E-04
CGA:  33    -0.313560189395E+03   -0.87264E-04   -0.87374E-04  9568   0.153E-02-0.432E-05
CGA:  34    -0.313560310607E+03   -0.12121E-03   -0.12099E-03  9568   0.286E-02 0.456E-05
CGA:  35    -0.313560656626E+03   -0.34602E-03   -0.34407E-03  9568   0.232E-02 0.239E-04
CGA:  36    -0.313560731484E+03   -0.74858E-04   -0.74914E-04  9568   0.137E-02 0.788E-05
CGA:  37    -0.313560777158E+03   -0.45674E-04   -0.45680E-04  9568   0.112E-02 0.223E-05
CGA:  38    -0.313560819102E+03   -0.41944E-04   -0.41936E-04  9568   0.918E-03 0.459E-05
CGA:  39    -0.313560887074E+03   -0.67972E-04   -0.67671E-04  9568   0.127E-02 0.807E-05
CGA:  40    -0.313561000193E+03   -0.11312E-03   -0.11231E-03  9568   0.486E-03 0.167E-04
CGA:  41    -0.313561017275E+03   -0.17081E-04   -0.17083E-04  9568   0.680E-03 0.533E-06
CGA:  42    -0.313561047801E+03   -0.30526E-04   -0.30507E-04  9568   0.401E-03 0.293E-05
CGA:  43    -0.313561099463E+03   -0.51662E-04   -0.51464E-04  9568   0.238E-03 0.236E-05
CGA:  44    -0.313561108361E+03   -0.88989E-05   -0.89091E-05  9568   0.238E-03 0.135E-05
CGA:  45    -0.313561120863E+03   -0.12501E-04   -0.12485E-04  9568   0.310E-03 0.201E-05
CGA:  46    -0.313561129218E+03   -0.83558E-05   -0.83785E-05  9568   0.126E-03 0.129E-05
   7 F= -.31356113E+03 E0= -.31354158E+03  d E =-.437735E-01  mag=    24.0600
       N       E                     dE             d eps       ncg     rms          ort
SDA:   1    -0.302717448332E+03    0.10844E+02    0.00000E+00  9568   0.363E+02 0.000E+00
CGA:   2    -0.304695648194E+03   -0.19782E+01   -0.19267E+01  9568   0.802E+02 0.458E+01
CGA:   3    -0.309500129864E+03   -0.48045E+01   -0.49743E+01  9568   0.597E+02-0.108E+02
CGA:   4    -0.310777590134E+03   -0.12775E+01   -0.14587E+01  9568   0.239E+02-0.266E+01
CGA:   5    -0.311677511911E+03   -0.89992E+00   -0.83761E+00  9568   0.263E+02-0.219E+01
CGA:   6    -0.312633423916E+03   -0.95591E+00   -0.95449E+00  9568   0.162E+02-0.176E+00
CGA:   7    -0.312983830659E+03   -0.35041E+00   -0.36464E+00  9568   0.760E+01-0.599E+00
CGA:   8    -0.313178881271E+03   -0.19505E+00   -0.20893E+00  9568   0.336E+01-0.270E-01
CGA:   9    -0.313308231700E+03   -0.12935E+00   -0.12842E+00  9568   0.437E+01-0.893E-01
CGA:  10    -0.313441259815E+03   -0.13303E+00   -0.13381E+00  9568   0.137E+01 0.606E-02
CGA:  11    -0.313481013734E+03   -0.39754E-01   -0.39570E-01  9568   0.110E+01-0.202E-02
CGA:  12    -0.313516257741E+03   -0.35244E-01   -0.35606E-01  9568   0.477E+00 0.922E-02
CGA:  13    -0.313533846210E+03   -0.17588E-01   -0.17480E-01  9568   0.541E+00-0.954E-02
CGA:  14    -0.313555818690E+03   -0.21972E-01   -0.21950E-01  9568   0.331E+00 0.132E-01
CGA:  15    -0.313565361497E+03   -0.95428E-02   -0.94410E-02  9568   0.159E+00-0.487E-03
CGA:  16    -0.313570323034E+03   -0.49615E-02   -0.49933E-02  9568   0.103E+00 0.974E-03
CGA:  17    -0.313575797375E+03   -0.54743E-02   -0.55319E-02  9568   0.153E+00-0.311E-02
CGA:  18    -0.313580483657E+03   -0.46863E-02   -0.47339E-02  9568   0.510E-01 0.157E-02
CGA:  19    -0.313582389454E+03   -0.19058E-02   -0.19036E-02  9568   0.419E-01-0.320E-03
CGA:  20    -0.313583807157E+03   -0.14177E-02   -0.14209E-02  9568   0.323E-01 0.237E-03
CGA:  21    -0.313585539711E+03   -0.17326E-02   -0.17422E-02  9568   0.278E-01-0.509E-03
CGA:  22    -0.313586406878E+03   -0.86717E-03   -0.87075E-03  9568   0.228E-01 0.126E-03
CGA:  23    -0.313587463966E+03   -0.10571E-02   -0.10576E-02  9568   0.118E-01-0.451E-04
CGA:  24    -0.313587817321E+03   -0.35336E-03   -0.35397E-03  9568   0.946E-02 0.190E-04
CGA:  25    -0.313588378375E+03   -0.56105E-03   -0.56052E-03  9568   0.109E-01 0.254E-04
CGA:  26    -0.313588779327E+03   -0.40095E-03   -0.40153E-03  9568   0.878E-02 0.695E-04
CGA:  27    -0.313589119337E+03   -0.34001E-03   -0.34001E-03  9568   0.453E-02 0.322E-05
CGA:  28    -0.313589260681E+03   -0.14134E-03   -0.14136E-03  9568   0.332E-02 0.405E-05
CGA:  29    -0.313589445201E+03   -0.18452E-03   -0.18440E-03  9568   0.428E-02 0.696E-05
CGA:  30    -0.313589651339E+03   -0.20614E-03   -0.20595E-03  9568   0.438E-02 0.183E-04
CGA:  31    -0.313589767869E+03   -0.11653E-03   -0.11662E-03  9568   0.109E-02 0.120E-05
SDA:  32    -0.313589826149E+03   -0.58279E-04   -0.58249E-04  9568   0.203E-02 0.208E-05
CGA:  33    -0.313589854734E+03   -0.28586E-04   -0.28588E-04  9568   0.479E-03-0.610E-06
CGA:  34    -0.313589929538E+03   -0.74803E-04   -0.74489E-04  9568   0.171E-02 0.219E-05
CGA:  35    -0.313590005472E+03   -0.75934E-04   -0.75936E-04  9568   0.750E-03 0.162E-05
CGA:  36    -0.313590035545E+03   -0.30073E-04   -0.30079E-04  9568   0.187E-03 0.197E-06
CGA:  37    -0.313590054393E+03   -0.18848E-04   -0.19013E-04  9568   0.333E-03-0.322E-05
CGA:  38    -0.313590067793E+03   -0.13400E-04   -0.13385E-04  9568   0.580E-03-0.236E-05
CGA:  39    -0.313590094587E+03   -0.26794E-04   -0.26789E-04  9568   0.175E-03-0.531E-05
CGA:  40    -0.313590110706E+03   -0.16119E-04   -0.16173E-04  9568   0.190E-03-0.132E-05
CGA:  41    -0.313590117114E+03   -0.64075E-05   -0.64140E-05  9568   0.156E-03 0.162E-06
   8 F= -.31359012E+03 E0= -.31357042E+03  d E =-.289879E-01  mag=    24.0705
       N       E                     dE             d eps       ncg     rms          ort
SDA:   1    -0.312830005509E+03    0.76011E+00    0.00000E+00  9568   0.456E+01 0.000E+00
CGA:   2    -0.312946753928E+03   -0.11675E+00   -0.11617E+00  9568   0.453E+01-0.241E-01
CGA:   3    -0.313254570325E+03   -0.30782E+00   -0.30772E+00  9568   0.232E+01 0.617E-02
CGA:   4    -0.313361944590E+03   -0.10737E+00   -0.10679E+00  9568   0.161E+01-0.805E-01
CGA:   5    -0.313432733671E+03   -0.70789E-01   -0.70734E-01  9568   0.210E+01-0.705E-02
CGA:   6    -0.313516319309E+03   -0.83586E-01   -0.83182E-01  9568   0.131E+01-0.128E-01
CGA:   7    -0.313550406962E+03   -0.34088E-01   -0.34496E-01  9568   0.313E+00-0.712E-02
CGA:   8    -0.313572466092E+03   -0.22059E-01   -0.22284E-01  9568   0.364E+00-0.761E-02
CGA:   9    -0.313582207597E+03   -0.97415E-02   -0.96193E-02  9568   0.202E+00 0.155E-02
CGA:  10    -0.313588252618E+03   -0.60450E-02   -0.60544E-02  9568   0.607E-01-0.648E-04
CGA:  11    -0.313592424927E+03   -0.41723E-02   -0.41830E-02  9568   0.509E-01-0.395E-03
CGA:  12    -0.313593657699E+03   -0.12328E-02   -0.12382E-02  9568   0.344E-01-0.951E-04
CGA:  13    -0.313595572813E+03   -0.19151E-02   -0.19180E-02  9568   0.160E-01-0.197E-03
CGA:  14    -0.313596330440E+03   -0.75763E-03   -0.75756E-03  9568   0.192E-01 0.539E-04
CGA:  15    -0.313596792935E+03   -0.46250E-03   -0.45909E-03  9568   0.500E-02 0.742E-04
CGA:  16    -0.313597229363E+03   -0.43643E-03   -0.43520E-03  9568   0.833E-02 0.299E-04
CGA:  17    -0.313597476153E+03   -0.24679E-03   -0.24670E-03  9568   0.600E-02 0.544E-05
CGA:  18    -0.313597701180E+03   -0.22503E-03   -0.22526E-03  9568   0.157E-02 0.996E-05
CGA:  19    -0.313597794117E+03   -0.92938E-04   -0.92878E-04  9568   0.345E-02 0.381E-05
CGA:  20    -0.313597930592E+03   -0.13647E-03   -0.13656E-03  9568   0.214E-02 0.480E-05
CGA:  21    -0.313598012816E+03   -0.82224E-04   -0.82273E-04  9568   0.108E-02 0.134E-05
CGA:  22    -0.313598056204E+03   -0.43388E-04   -0.43413E-04  9568   0.109E-02 0.200E-05
CGA:  23    -0.313598098413E+03   -0.42209E-04   -0.42215E-04  9568   0.781E-03 0.370E-06
CGA:  24    -0.313598126439E+03   -0.28026E-04   -0.28036E-04  9568   0.584E-03 0.495E-07
CGA:  25    -0.313598167986E+03   -0.41547E-04   -0.41559E-04  9568   0.635E-03-0.611E-06
CGA:  26    -0.313598182115E+03   -0.14129E-04   -0.14142E-04  9568   0.259E-03-0.364E-06
CGA:  27    -0.313598196616E+03   -0.14501E-04   -0.14503E-04  9568   0.192E-03-0.452E-06
CGA:  28    -0.313598206717E+03   -0.10101E-04   -0.10099E-04  9568   0.324E-03 0.131E-06
CGA:  29    -0.313598216717E+03   -0.10000E-04   -0.10002E-04  9568   0.116E-03-0.113E-06
CGA:  30    -0.313598224183E+03   -0.74660E-05   -0.74568E-05  9568   0.105E-03 0.390E-06
   9 F= -.31359822E+03 E0= -.31357859E+03  d E =-.810707E-02  mag=    24.0709
       N       E                     dE             d eps       ncg     rms          ort
SDA:   1    -0.313553585922E+03    0.44631E-01    0.00000E+00  9568   0.309E+00 0.000E+00
CGA:   2    -0.313560654641E+03   -0.70687E-02   -0.70517E-02  9568   0.260E+00 0.258E-03
CGA:   3    -0.313578954654E+03   -0.18300E-01   -0.18310E-01  9568   0.139E+00-0.359E-03
CGA:   4    -0.313584577121E+03   -0.56225E-02   -0.56286E-02  9568   0.837E-01 0.483E-03
CGA:   5    -0.313589073835E+03   -0.44967E-02   -0.44815E-02  9568   0.146E+00 0.120E-02
CGA:   6    -0.313594178365E+03   -0.51045E-02   -0.51049E-02  9568   0.701E-01 0.135E-04
CGA:   7    -0.313596209845E+03   -0.20315E-02   -0.20494E-02  9568   0.271E-01-0.353E-04
CGA:   8    -0.313597753818E+03   -0.15440E-02   -0.15468E-02  9568   0.164E-01-0.156E-03
CGA:   9    -0.313598314782E+03   -0.56096E-03   -0.56152E-03  9568   0.187E-01 0.135E-04
CGA:  10    -0.313598953373E+03   -0.63859E-03   -0.63659E-03  9568   0.297E-02-0.388E-04
CGA:  11    -0.313599119145E+03   -0.16577E-03   -0.16555E-03  9568   0.374E-02 0.134E-04
CGA:  12    -0.313599239268E+03   -0.12012E-03   -0.12004E-03  9568   0.292E-02-0.144E-05
CGA:  13    -0.313599347848E+03   -0.10858E-03   -0.10867E-03  9568   0.101E-02 0.491E-05
CGA:  14    -0.313599390403E+03   -0.42555E-04   -0.42553E-04  9568   0.824E-03 0.211E-06
CGA:  15    -0.313599420790E+03   -0.30388E-04   -0.30388E-04  9568   0.567E-03 0.106E-06
CGA:  16    -0.313599438468E+03   -0.17677E-04   -0.17666E-04  9568   0.437E-03-0.739E-06
CGA:  17    -0.313599466118E+03   -0.27651E-04   -0.27662E-04  9568   0.276E-03-0.484E-06
CGA:  18    -0.313599476266E+03   -0.10147E-04   -0.10147E-04  9568   0.220E-03-0.360E-06
CGA:  19    -0.313599482253E+03   -0.59876E-05   -0.59870E-05  9568   0.119E-03 0.309E-07
CGA:  20    -0.313599492413E+03   -0.10160E-04   -0.10139E-04  9568   0.117E-03 0.519E-06
CGA:  21    -0.313599496441E+03   -0.40274E-05   -0.40299E-05  9568   0.117E-03 0.261E-06
  10 F= -.31359950E+03 E0= -.31357985E+03  d E =-.127226E-02  mag=    24.0705
       N       E                     dE             d eps       ncg     rms          ort
SDA:   1    -0.313542040392E+03    0.57452E-01    0.00000E+00  9568   0.410E+00 0.000E+00
CGA:   2    -0.313550490882E+03   -0.84505E-02   -0.84291E-02  9568   0.242E+00 0.317E-03
CGA:   3    -0.313566902194E+03   -0.16411E-01   -0.16560E-01  9568   0.516E+00-0.497E-02
CGA:   4    -0.313586137281E+03   -0.19235E-01   -0.19263E-01  9568   0.114E+00 0.174E-02
CGA:   5    -0.313592011892E+03   -0.58746E-02   -0.58944E-02  9568   0.777E-01-0.162E-02
CGA:   6    -0.313597766022E+03   -0.57541E-02   -0.57633E-02  9568   0.535E-01-0.261E-03
CGA:   7    -0.313599217395E+03   -0.14514E-02   -0.14455E-02  9568   0.386E-01 0.576E-04
CGA:   8    -0.313600301608E+03   -0.10842E-02   -0.10889E-02  9568   0.849E-02-0.206E-04
CGA:   9    -0.313601002587E+03   -0.70098E-03   -0.70113E-03  9568   0.103E-01-0.311E-05
CGA:  10    -0.313601366945E+03   -0.36436E-03   -0.36433E-03  9568   0.325E-02 0.127E-05
CGA:  11    -0.313601506919E+03   -0.13997E-03   -0.14002E-03  9568   0.128E-02 0.965E-05
CGA:  12    -0.313601651552E+03   -0.14463E-03   -0.14466E-03  9568   0.747E-03-0.475E-06
CGA:  13    -0.313601701354E+03   -0.49802E-04   -0.49787E-04  9568   0.934E-03 0.727E-06
CGA:  14    -0.313601722828E+03   -0.21474E-04   -0.21487E-04  9568   0.430E-03-0.261E-06
CGA:  15    -0.313601739157E+03   -0.16328E-04   -0.16330E-04  9568   0.226E-03-0.170E-06
CGA:  16    -0.313601759072E+03   -0.19915E-04   -0.19860E-04  9568   0.306E-03 0.130E-05
CGA:  17    -0.313601770608E+03   -0.11536E-04   -0.11541E-04  9568   0.136E-03 0.359E-06
CGA:  18    -0.313601778507E+03   -0.78993E-05   -0.78942E-05  9568   0.100E-03 0.528E-06
  11 F= -.31360178E+03 E0= -.31358213E+03  d E =-.228207E-02  mag=    24.0702
       N       E                     dE             d eps       ncg     rms          ort
SDA:   1    -0.313394812284E+03    0.20696E+00    0.00000E+00  9568   0.114E+01 0.000E+00
CGA:   2    -0.313419114963E+03   -0.24303E-01   -0.24111E-01  9568   0.911E+00 0.295E-02
CGA:   3    -0.313525452986E+03   -0.10634E+00   -0.10509E+00  9568   0.979E+00 0.201E-01
CGA:   4    -0.313556631456E+03   -0.31178E-01   -0.31129E-01  9568   0.361E+00-0.441E-03
CGA:   5    -0.313574397490E+03   -0.17766E-01   -0.17768E-01  9568   0.423E+00 0.410E-02
CGA:   6    -0.313586452704E+03   -0.12055E-01   -0.12232E-01  9568   0.310E+00-0.206E-02
CGA:   7    -0.313596761208E+03   -0.10309E-01   -0.10322E-01  9568   0.698E-01-0.211E-04
CGA:   8    -0.313600158359E+03   -0.33972E-02   -0.33943E-02  9568   0.471E-01 0.164E-02
CGA:   9    -0.313601597113E+03   -0.14388E-02   -0.14424E-02  9568   0.495E-01-0.190E-04
CGA:  10    -0.313603571885E+03   -0.19748E-02   -0.19783E-02  9568   0.181E-01 0.166E-03
CGA:  11    -0.313604205764E+03   -0.63388E-03   -0.63556E-03  9568   0.801E-02 0.284E-04
CGA:  12    -0.313604491197E+03   -0.28543E-03   -0.28557E-03  9568   0.748E-02 0.349E-05
CGA:  13    -0.313604740185E+03   -0.24899E-03   -0.24883E-03  9568   0.698E-02-0.302E-05
CGA:  14    -0.313605041873E+03   -0.30169E-03   -0.30168E-03  9568   0.188E-02-0.232E-05
CGA:  15    -0.313605158493E+03   -0.11662E-03   -0.11661E-03  9568   0.224E-02 0.113E-06
CGA:  16    -0.313605204780E+03   -0.46287E-04   -0.46264E-04  9568   0.932E-03-0.937E-06
CGA:  17    -0.313605263493E+03   -0.58713E-04   -0.58676E-04  9568   0.129E-02 0.180E-05
CGA:  18    -0.313605323557E+03   -0.60064E-04   -0.60063E-04  9568   0.595E-03 0.560E-06
CGA:  19    -0.313605347419E+03   -0.23862E-04   -0.23875E-04  9568   0.576E-03 0.155E-05
CGA:  20    -0.313605363446E+03   -0.16028E-04   -0.16046E-04  9568   0.408E-03 0.101E-05
CGA:  21    -0.313605387172E+03   -0.23725E-04   -0.23711E-04  9568   0.330E-03 0.580E-06
CGA:  22    -0.313605415093E+03   -0.27921E-04   -0.27816E-04  9568   0.351E-03 0.258E-05
CGA:  23    -0.313605424088E+03   -0.89957E-05   -0.90073E-05  9568   0.210E-03 0.359E-06
  12 F= -.31360542E+03 E0= -.31358577E+03  d E =-.364558E-02  mag=    24.0687
       N       E                     dE             d eps       ncg     rms          ort
SDA:   1    -0.309661849622E+03    0.39436E+01    0.00000E+00  9568   0.125E+02 0.000E+00
CGA:   2    -0.310546156567E+03   -0.88431E+00   -0.85559E+00  9568   0.291E+02 0.116E+01
CGA:   3    -0.311980155900E+03   -0.14340E+01   -0.14343E+01  9568   0.364E+02 0.102E+00
CGA:   4    -0.312702188426E+03   -0.72203E+00   -0.75075E+00  9568   0.782E+01-0.184E+01
CGA:   5    -0.313061794446E+03   -0.35961E+00   -0.35865E+00  9568   0.416E+01 0.178E+00
CGA:   6    -0.313375293918E+03   -0.31350E+00   -0.32657E+00  9568   0.518E+01-0.375E+00
CGA:   7    -0.313462662052E+03   -0.87368E-01   -0.82577E-01  9568   0.126E+01 0.159E+00
CGA:   8    -0.313520286451E+03   -0.57624E-01   -0.57541E-01  9568   0.994E+00-0.410E-01
CGA:   9    -0.313554688748E+03   -0.34402E-01   -0.33914E-01  9568   0.633E+00-0.103E-01
CGA:  10    -0.313578717908E+03   -0.24029E-01   -0.24163E-01  9568   0.408E+00 0.718E-02
CGA:  11    -0.313588809949E+03   -0.10092E-01   -0.10170E-01  9568   0.235E+00-0.122E-02
CGA:  12    -0.313598981380E+03   -0.10171E-01   -0.10172E-01  9568   0.871E-01 0.178E-02
CGA:  13    -0.313602976341E+03   -0.39950E-02   -0.39957E-02  9568   0.870E-01-0.185E-03
CGA:  14    -0.313606695302E+03   -0.37190E-02   -0.37198E-02  9568   0.749E-01 0.554E-03
CGA:  15    -0.313609342844E+03   -0.26475E-02   -0.26519E-02  9568   0.449E-01 0.149E-03
CGA:  16    -0.313610450042E+03   -0.11072E-02   -0.11022E-02  9568   0.166E-01 0.721E-04
CGA:  17    -0.313611476474E+03   -0.10264E-02   -0.10237E-02  9568   0.146E-01 0.116E-03
CGA:  18    -0.313612085154E+03   -0.60868E-03   -0.60898E-03  9568   0.197E-01 0.817E-04
CGA:  19    -0.313612917570E+03   -0.83242E-03   -0.83269E-03  9568   0.976E-02 0.119E-03
CGA:  20    -0.313613205222E+03   -0.28765E-03   -0.28751E-03  9568   0.582E-02 0.700E-05
CGA:  21    -0.313613508532E+03   -0.30331E-03   -0.30252E-03  9568   0.547E-02 0.576E-04
CGA:  22    -0.313613763589E+03   -0.25506E-03   -0.25488E-03  9568   0.806E-02 0.330E-04
CGA:  23    -0.313614074199E+03   -0.31061E-03   -0.31100E-03  9568   0.334E-02 0.406E-04
CGA:  24    -0.313614247092E+03   -0.17289E-03   -0.17274E-03  9568   0.429E-02 0.146E-04
CGA:  25    -0.313614382687E+03   -0.13559E-03   -0.13589E-03  9568   0.218E-02 0.851E-05
CGA:  26    -0.313614474320E+03   -0.91633E-04   -0.91639E-04  9568   0.204E-02 0.593E-05
CGA:  27    -0.313614574694E+03   -0.10037E-03   -0.10029E-03  9568   0.234E-02 0.948E-05
CGA:  28    -0.313614677572E+03   -0.10288E-03   -0.10287E-03  9568   0.139E-02 0.471E-05
CGA:  29    -0.313614711159E+03   -0.33586E-04   -0.33656E-04  9568   0.627E-03 0.133E-05
CGA:  30    -0.313614753585E+03   -0.42426E-04   -0.42297E-04  9568   0.734E-03 0.476E-05
CGA:  31    -0.313614781907E+03   -0.28322E-04   -0.28339E-04  9568   0.720E-03 0.299E-05
SDA:  32    -0.313614807243E+03   -0.25336E-04   -0.25347E-04  9568   0.324E-03 0.126E-05
CGA:  33    -0.313614815044E+03   -0.78009E-05   -0.77818E-05  9568   0.227E-03-0.799E-06
CGA:  34    -0.313614825255E+03   -0.10211E-04   -0.10218E-04  9568   0.241E-03-0.247E-05
CGA:  35    -0.313614837972E+03   -0.12717E-04   -0.12750E-04  9568   0.218E-03-0.298E-05
CGA:  36    -0.313614849980E+03   -0.12008E-04   -0.12039E-04  9568   0.190E-03-0.240E-05
CGA:  37    -0.313614863199E+03   -0.13219E-04   -0.13249E-04  9568   0.789E-04-0.119E-05
CGA:  38    -0.313614867063E+03   -0.38644E-05   -0.38629E-05  9568   0.775E-04 0.215E-06
  13 F= -.31361487E+03 E0= -.31359519E+03  d E =-.944298E-02  mag=    24.0636
       N       E                     dE             d eps       ncg     rms          ort
SDA:   1    -0.310789159309E+03    0.28257E+01    0.00000E+00  9568   0.818E+01 0.000E+00
CGA:   2    -0.311907462242E+03   -0.11183E+01   -0.11371E+01  9568   0.366E+02-0.134E+00
CGA:   3    -0.312637534545E+03   -0.73007E+00   -0.77263E+00  9568   0.584E+01-0.220E+01
CGA:   4    -0.313019134144E+03   -0.38160E+00   -0.37476E+00  9568   0.859E+01 0.281E+00
CGA:   5    -0.313332985149E+03   -0.31385E+00   -0.32002E+00  9568   0.339E+01 0.566E-01
CGA:   6    -0.313422165593E+03   -0.89180E-01   -0.90723E-01  9568   0.219E+01-0.305E-01
CGA:   7    -0.313504266559E+03   -0.82101E-01   -0.83587E-01  9568   0.878E+00 0.521E-01
CGA:   8    -0.313557280188E+03   -0.53014E-01   -0.52735E-01  9568   0.479E+00 0.163E-01
CGA:   9    -0.313572949112E+03   -0.15669E-01   -0.16013E-01  9568   0.420E+00 0.162E-02
CGA:  10    -0.313584945297E+03   -0.11996E-01   -0.12093E-01  9568   0.174E+00-0.680E-03
CGA:  11    -0.313592667852E+03   -0.77226E-02   -0.77244E-02  9568   0.110E+00 0.966E-03
CGA:  12    -0.313597924514E+03   -0.52567E-02   -0.52533E-02  9568   0.741E-01 0.922E-03
CGA:  13    -0.313600668396E+03   -0.27439E-02   -0.27472E-02  9568   0.653E-01 0.115E-03
CGA:  14    -0.313602485444E+03   -0.18170E-02   -0.18237E-02  9568   0.321E-01-0.401E-04
CGA:  15    -0.313604136516E+03   -0.16511E-02   -0.16517E-02  9568   0.124E-01-0.447E-04
CGA:  16    -0.313605128592E+03   -0.99208E-03   -0.99073E-03  9568   0.253E-01 0.371E-04
CGA:  17    -0.313605735729E+03   -0.60714E-03   -0.60977E-03  9568   0.853E-02-0.441E-04
CGA:  18    -0.313606055733E+03   -0.32000E-03   -0.32010E-03  9568   0.696E-02 0.827E-05
CGA:  19    -0.313606462479E+03   -0.40675E-03   -0.40622E-03  9568   0.513E-02 0.318E-04
CGA:  20    -0.313606763066E+03   -0.30059E-03   -0.30075E-03  9568   0.781E-02-0.698E-05
CGA:  21    -0.313606949873E+03   -0.18681E-03   -0.18704E-03  9568   0.286E-02 0.248E-05
CGA:  22    -0.313607152883E+03   -0.20301E-03   -0.20324E-03  9568   0.263E-02-0.714E-05
CGA:  23    -0.313607290457E+03   -0.13757E-03   -0.13751E-03  9568   0.345E-02 0.864E-05
CGA:  24    -0.313607407629E+03   -0.11717E-03   -0.11705E-03  9568   0.226E-02 0.111E-05
CGA:  25    -0.313607478051E+03   -0.70422E-04   -0.70499E-04  9568   0.136E-02 0.275E-05
CGA:  26    -0.313607571358E+03   -0.93307E-04   -0.93118E-04  9568   0.937E-03 0.791E-05
CGA:  27    -0.313607611524E+03   -0.40166E-04   -0.40167E-04  9568   0.121E-02 0.958E-06
CGA:  28    -0.313607651669E+03   -0.40146E-04   -0.40150E-04  9568   0.778E-03 0.174E-06
CGA:  29    -0.313607689293E+03   -0.37623E-04   -0.37622E-04  9568   0.352E-03 0.702E-06
CGA:  30    -0.313607707068E+03   -0.17775E-04   -0.17779E-04  9568   0.424E-03-0.634E-06
CGA:  31    -0.313607721529E+03   -0.14462E-04   -0.14463E-04  9568   0.336E-03 0.227E-07
SDA:  32    -0.313607734215E+03   -0.12685E-04   -0.12683E-04  9568   0.255E-03-0.250E-06
CGA:  33    -0.313607739519E+03   -0.53040E-05   -0.53037E-05  9568   0.923E-04-0.185E-06
  14 F= -.31360774E+03 E0= -.31358804E+03  d E =0.712754E-02  mag=    24.0678
       N       E                     dE             d eps       ncg     rms          ort
SDA:   1    -0.313433936507E+03    0.17380E+00    0.00000E+00  9568   0.147E+01 0.000E+00
CGA:   2    -0.313464176558E+03   -0.30240E-01   -0.28475E-01  9568   0.748E+00 0.515E-01
CGA:   3    -0.313516834785E+03   -0.52658E-01   -0.52122E-01  9568   0.113E+01 0.190E-01
CGA:   4    -0.313556742762E+03   -0.39908E-01   -0.39731E-01  9568   0.292E+00-0.460E-02
CGA:   5    -0.313577032100E+03   -0.20289E-01   -0.20355E-01  9568   0.310E+00-0.206E-02
CGA:   6    -0.313596725331E+03   -0.19693E-01   -0.19663E-01  9568   0.271E+00 0.133E-02
CGA:   7    -0.313601971390E+03   -0.52461E-02   -0.52625E-02  9568   0.985E-01-0.614E-03
CGA:   8    -0.313606542406E+03   -0.45710E-02   -0.45717E-02  9568   0.497E-01-0.158E-03
CGA:   9    -0.313609549957E+03   -0.30076E-02   -0.30014E-02  9568   0.459E-01 0.294E-03
CGA:  10    -0.313610812216E+03   -0.12623E-02   -0.12669E-02  9568   0.209E-01-0.317E-04
CGA:  11    -0.313611416338E+03   -0.60412E-03   -0.60567E-03  9568   0.118E-01-0.187E-05
CGA:  12    -0.313611882039E+03   -0.46570E-03   -0.46592E-03  9568   0.700E-02 0.209E-04
CGA:  13    -0.313612387248E+03   -0.50521E-03   -0.50480E-03  9568   0.421E-02 0.132E-04
CGA:  14    -0.313612497986E+03   -0.11074E-03   -0.11072E-03  9568   0.370E-02-0.108E-05
CGA:  15    -0.313612685114E+03   -0.18713E-03   -0.18711E-03  9568   0.113E-02 0.123E-05
CGA:  16    -0.313612762292E+03   -0.77178E-04   -0.77220E-04  9568   0.173E-02-0.141E-05
CGA:  17    -0.313612827242E+03   -0.64951E-04   -0.64971E-04  9568   0.178E-02 0.174E-05
CGA:  18    -0.313612880306E+03   -0.53063E-04   -0.53082E-04  9568   0.407E-03 0.244E-06
CGA:  19    -0.313612903813E+03   -0.23507E-04   -0.23501E-04  9568   0.582E-03 0.507E-06
CGA:  20    -0.313612932732E+03   -0.28919E-04   -0.28910E-04  9568   0.542E-03 0.165E-05
CGA:  21    -0.313612950896E+03   -0.18164E-04   -0.18179E-04  9568   0.482E-03 0.982E-06
CGA:  22    -0.313612967623E+03   -0.16728E-04   -0.16734E-04  9568   0.131E-03 0.303E-06
CGA:  23    -0.313612979058E+03   -0.11434E-04   -0.11409E-04  9568   0.226E-03 0.549E-06
CGA:  24    -0.313612986138E+03   -0.70807E-05   -0.70805E-05  9568   0.212E-03-0.132E-07
  15 F= -.31361299E+03 E0= -.31359331E+03  d E =-.524662E-02  mag=    24.0660
       N       E                     dE             d eps       ncg     rms          ort
SDA:   1    -0.313564056358E+03    0.48923E-01    0.00000E+00  9568   0.346E+00 0.000E+00
CGA:   2    -0.313571367610E+03   -0.73113E-02   -0.73623E-02  9568   0.249E+00-0.150E-02
CGA:   3    -0.313588746478E+03   -0.17379E-01   -0.17222E-01  9568   0.271E+00 0.535E-02
CGA:   4    -0.313602131965E+03   -0.13385E-01   -0.13385E-01  9568   0.718E-01 0.110E-03
CGA:   5    -0.313606453678E+03   -0.43217E-02   -0.43385E-02  9568   0.112E+00-0.817E-03
CGA:   6    -0.313610591575E+03   -0.41379E-02   -0.41335E-02  9568   0.789E-01-0.132E-03
CGA:   7    -0.313612469630E+03   -0.18781E-02   -0.18858E-02  9568   0.293E-01-0.140E-03
CGA:   8    -0.313613641045E+03   -0.11714E-02   -0.11701E-02  9568   0.103E-01-0.101E-03
CGA:   9    -0.313614494318E+03   -0.85327E-03   -0.85446E-03  9568   0.808E-02-0.300E-04
CGA:  10    -0.313614768131E+03   -0.27381E-03   -0.27383E-03  9568   0.669E-02 0.171E-05
CGA:  11    -0.313614922045E+03   -0.15391E-03   -0.15359E-03  9568   0.173E-02 0.612E-05
CGA:  12    -0.313615047152E+03   -0.12511E-03   -0.12505E-03  9568   0.206E-02 0.195E-05
CGA:  13    -0.313615134975E+03   -0.87823E-04   -0.87823E-04  9568   0.968E-03-0.754E-06
CGA:  14    -0.313615187556E+03   -0.52582E-04   -0.52552E-04  9568   0.660E-03 0.245E-05
CGA:  15    -0.313615221863E+03   -0.34307E-04   -0.34311E-04  9568   0.624E-03-0.505E-06
CGA:  16    -0.313615235251E+03   -0.13388E-04   -0.13385E-04  9568   0.307E-03-0.582E-06
CGA:  17    -0.313615271572E+03   -0.36321E-04   -0.36300E-04  9568   0.290E-03 0.227E-06
CGA:  18    -0.313615283550E+03   -0.11978E-04   -0.11975E-04  9568   0.176E-03-0.219E-06
CGA:  19    -0.313615294367E+03   -0.10817E-04   -0.10806E-04  9568   0.180E-03 0.895E-06
CGA:  20    -0.313615308449E+03   -0.14081E-04   -0.14050E-04  9568   0.162E-03 0.108E-05
CGA:  21    -0.313615316132E+03   -0.76833E-05   -0.76855E-05  9568   0.186E-03 0.570E-06
  16 F= -.31361532E+03 E0= -.31359565E+03  d E =-.232999E-02  mag=    24.0644
       N       E                     dE             d eps       ncg     rms          ort
SDA:   1    -0.313590592359E+03    0.24716E-01    0.00000E+00  9568   0.166E+00 0.000E+00
CGA:   2    -0.313595057892E+03   -0.44655E-02   -0.44027E-02  9568   0.141E+00 0.960E-03
CGA:   3    -0.313601682625E+03   -0.66247E-02   -0.66281E-02  9568   0.152E+00 0.137E-02
CGA:   4    -0.313609309728E+03   -0.76271E-02   -0.76315E-02  9568   0.571E-01-0.130E-02
CGA:   5    -0.313611451311E+03   -0.21416E-02   -0.21431E-02  9568   0.360E-01 0.442E-04
CGA:   6    -0.313614261361E+03   -0.28100E-02   -0.28209E-02  9568   0.242E-01-0.312E-03
CGA:   7    -0.313615623898E+03   -0.13625E-02   -0.13611E-02  9568   0.855E-02 0.117E-03
CGA:   8    -0.313615865535E+03   -0.24164E-03   -0.24172E-03  9568   0.824E-02-0.120E-05
CGA:   9    -0.313616229689E+03   -0.36415E-03   -0.36413E-03  9568   0.425E-02-0.157E-05
CGA:  10    -0.313616427632E+03   -0.19794E-03   -0.19798E-03  9568   0.205E-02 0.129E-04
CGA:  11    -0.313616492890E+03   -0.65258E-04   -0.65303E-04  9568   0.988E-03-0.570E-08
CGA:  12    -0.313616536938E+03   -0.44047E-04   -0.44045E-04  9568   0.145E-02-0.704E-06
CGA:  13    -0.313616584246E+03   -0.47309E-04   -0.47336E-04  9568   0.496E-03 0.207E-06
CGA:  14    -0.313616618551E+03   -0.34305E-04   -0.34333E-04  9568   0.412E-03-0.119E-05
CGA:  15    -0.313616635064E+03   -0.16513E-04   -0.16514E-04  9568   0.332E-03-0.199E-06
CGA:  16    -0.313616643231E+03   -0.81668E-05   -0.81587E-05  9568   0.174E-03-0.403E-06
CGA:  17    -0.313616660503E+03   -0.17272E-04   -0.17254E-04  9568   0.222E-03 0.319E-06
CGA:  18    -0.313616668353E+03   -0.78506E-05   -0.78570E-05  9568   0.142E-03 0.406E-06
  17 F= -.31361667E+03 E0= -.31359702E+03  d E =-.135222E-02  mag=    24.0630
       N       E                     dE             d eps       ncg     rms          ort
SDA:   1    -0.313550542683E+03    0.66118E-01    0.00000E+00  9568   0.200E+01 0.000E+00
CGA:   2    -0.313574267027E+03   -0.23724E-01   -0.25961E-01  9568   0.176E+00-0.151E+00
CGA:   3    -0.313586118184E+03   -0.11851E-01   -0.11859E-01  9568   0.419E+00-0.173E-03
CGA:   4    -0.313603083992E+03   -0.16966E-01   -0.16965E-01  9568   0.188E+00-0.300E-04
CGA:   5    -0.313607603243E+03   -0.45193E-02   -0.44692E-02  9568   0.739E-01 0.995E-03
CGA:   6    -0.313611677943E+03   -0.40747E-02   -0.40631E-02  9568   0.760E-01 0.885E-03
CGA:   7    -0.313614467857E+03   -0.27899E-02   -0.27852E-02  9568   0.605E-01-0.986E-04
CGA:   8    -0.313616335231E+03   -0.18674E-02   -0.18689E-02  9568   0.157E-01 0.809E-05
CGA:   9    -0.313616911629E+03   -0.57640E-03   -0.57676E-03  9568   0.146E-01 0.144E-04
CGA:  10    -0.313617462858E+03   -0.55123E-03   -0.55149E-03  9568   0.798E-02 0.144E-04
CGA:  11    -0.313617719063E+03   -0.25620E-03   -0.25616E-03  9568   0.445E-02-0.934E-06
CGA:  12    -0.313617911289E+03   -0.19223E-03   -0.19223E-03  9568   0.318E-02 0.481E-05
CGA:  13    -0.313617994064E+03   -0.82774E-04   -0.82804E-04  9568   0.131E-02 0.326E-06
CGA:  14    -0.313618060441E+03   -0.66377E-04   -0.66352E-04  9568   0.119E-02 0.251E-05
CGA:  15    -0.313618102244E+03   -0.41803E-04   -0.41800E-04  9568   0.104E-02-0.635E-06
CGA:  16    -0.313618150573E+03   -0.48329E-04   -0.48324E-04  9568   0.773E-03 0.500E-06
CGA:  17    -0.313618176024E+03   -0.25451E-04   -0.25434E-04  9568   0.345E-03-0.116E-05
CGA:  18    -0.313618187002E+03   -0.10978E-04   -0.10979E-04  9568   0.285E-03 0.117E-06
CGA:  19    -0.313618208029E+03   -0.21028E-04   -0.21016E-04  9568   0.529E-03 0.451E-06
CGA:  20    -0.313618227999E+03   -0.19970E-04   -0.19970E-04  9568   0.255E-03 0.355E-06
CGA:  21    -0.313618235174E+03   -0.71755E-05   -0.71723E-05  9568   0.160E-03-0.847E-07
CGA:  22    -0.313618245419E+03   -0.10245E-04   -0.10230E-04  9568   0.208E-03 0.709E-06
CGA:  23    -0.313618253812E+03   -0.83932E-05   -0.83944E-05  9568   0.207E-03 0.374E-06
  18 F= -.31361825E+03 E0= -.31359861E+03  d E =-.158546E-02  mag=    24.0606
       N       E                     dE             d eps       ncg     rms          ort
SDA:   1    -0.313390127532E+03    0.22812E+00    0.00000E+00  9568   0.222E+01 0.000E+00
CGA:   2    -0.313425150347E+03   -0.35023E-01   -0.35556E-01  9568   0.803E+00-0.337E-01
CGA:   3    -0.313511414619E+03   -0.86264E-01   -0.85640E-01  9568   0.161E+01 0.107E-01
CGA:   4    -0.313560989087E+03   -0.49574E-01   -0.49593E-01  9568   0.351E+00-0.163E-02
CGA:   5    -0.313588555457E+03   -0.27566E-01   -0.27019E-01  9568   0.321E+00 0.153E-01
CGA:   6    -0.313602480751E+03   -0.13925E-01   -0.13919E-01  9568   0.315E+00-0.531E-03
CGA:   7    -0.313609444902E+03   -0.69642E-02   -0.70322E-02  9568   0.106E+00-0.166E-02
CGA:   8    -0.313614699828E+03   -0.52549E-02   -0.52549E-02  9568   0.652E-01 0.615E-05
CGA:   9    -0.313617065001E+03   -0.23652E-02   -0.23647E-02  9568   0.281E-01-0.899E-05
CGA:  10    -0.313618074583E+03   -0.10096E-02   -0.10092E-02  9568   0.313E-01-0.603E-05
CGA:  11    -0.313619099858E+03   -0.10253E-02   -0.10270E-02  9568   0.165E-01 0.246E-04
CGA:  12    -0.313619733921E+03   -0.63406E-03   -0.63406E-03  9568   0.352E-02 0.413E-05
CGA:  13    -0.313619972281E+03   -0.23836E-03   -0.23818E-03  9568   0.752E-02 0.750E-05
CGA:  14    -0.313620194548E+03   -0.22227E-03   -0.22198E-03  9568   0.444E-02-0.160E-05
CGA:  15    -0.313620348465E+03   -0.15392E-03   -0.15394E-03  9568   0.207E-02 0.137E-05
CGA:  16    -0.313620431900E+03   -0.83435E-04   -0.83426E-04  9568   0.819E-03-0.173E-05
CGA:  17    -0.313620496106E+03   -0.64206E-04   -0.64253E-04  9568   0.188E-02-0.148E-05
CGA:  18    -0.313620544784E+03   -0.48678E-04   -0.48737E-04  9568   0.102E-02 0.650E-07
CGA:  19    -0.313620597852E+03   -0.53067E-04   -0.53064E-04  9568   0.607E-03 0.269E-06
CGA:  20    -0.313620623250E+03   -0.25398E-04   -0.25399E-04  9568   0.413E-03 0.679E-06
CGA:  21    -0.313620651935E+03   -0.28685E-04   -0.28655E-04  9568   0.681E-03 0.122E-05
CGA:  22    -0.313620670684E+03   -0.18749E-04   -0.18755E-04  9568   0.490E-03 0.802E-06
CGA:  23    -0.313620694774E+03   -0.24090E-04   -0.24079E-04  9568   0.265E-03 0.219E-05
CGA:  24    -0.313620709150E+03   -0.14376E-04   -0.14372E-04  9568   0.175E-03 0.377E-06
CGA:  25    -0.313620718363E+03   -0.92125E-05   -0.92112E-05  9568   0.221E-03 0.131E-06
  19 F= -.31362072E+03 E0= -.31360111E+03  d E =-.246455E-02  mag=    24.0572
       N       E                     dE             d eps       ncg     rms          ort
SDA:   1    -0.313113424486E+03    0.50728E+00    0.00000E+00  9568   0.438E+01 0.000E+00
CGA:   2    -0.313182413698E+03   -0.68989E-01   -0.75554E-01  9568   0.196E+01-0.300E+00
CGA:   3    -0.313425695487E+03   -0.24328E+00   -0.24954E+00  9568   0.313E+01-0.796E-01
CGA:   4    -0.313493840062E+03   -0.68145E-01   -0.69870E-01  9568   0.105E+01-0.475E-01
CGA:   5    -0.313532415071E+03   -0.38575E-01   -0.38366E-01  9568   0.107E+01-0.546E-02
CGA:   6    -0.313576539244E+03   -0.44124E-01   -0.44029E-01  9568   0.594E+00-0.689E-02
CGA:   7    -0.313602602418E+03   -0.26063E-01   -0.26071E-01  9568   0.212E+00 0.175E-02
CGA:   8    -0.313607787192E+03   -0.51848E-02   -0.52037E-02  9568   0.143E+00-0.354E-03
CGA:   9    -0.313615448008E+03   -0.76608E-02   -0.76744E-02  9568   0.766E-01-0.100E-02
CGA:  10    -0.313618115855E+03   -0.26678E-02   -0.26665E-02  9568   0.620E-01-0.121E-04
CGA:  11    -0.313620345103E+03   -0.22292E-02   -0.22233E-02  9568   0.303E-01-0.156E-03
CGA:  12    -0.313621092062E+03   -0.74696E-03   -0.74733E-03  9568   0.102E-01-0.146E-05
CGA:  13    -0.313621943094E+03   -0.85103E-03   -0.85396E-03  9568   0.197E-01-0.731E-04
CGA:  14    -0.313622421729E+03   -0.47863E-03   -0.47925E-03  9568   0.668E-02-0.835E-05
CGA:  15    -0.313622707064E+03   -0.28534E-03   -0.28529E-03  9568   0.398E-02-0.118E-04
CGA:  16    -0.313622864312E+03   -0.15725E-03   -0.15733E-03  9568   0.359E-02 0.733E-05
CGA:  17    -0.313622985227E+03   -0.12091E-03   -0.12080E-03  9568   0.246E-02-0.188E-05
CGA:  18    -0.313623117894E+03   -0.13267E-03   -0.13253E-03  9568   0.248E-02 0.922E-05
CGA:  19    -0.313623211089E+03   -0.93194E-04   -0.93199E-04  9568   0.166E-02-0.816E-06
CGA:  20    -0.313623267232E+03   -0.56143E-04   -0.56173E-04  9568   0.125E-02 0.129E-05
CGA:  21    -0.313623320834E+03   -0.53602E-04   -0.53605E-04  9568   0.844E-03 0.369E-05
CGA:  22    -0.313623376300E+03   -0.55465E-04   -0.55363E-04  9568   0.166E-02 0.439E-05
CGA:  23    -0.313623427218E+03   -0.50918E-04   -0.50959E-04  9568   0.652E-03 0.228E-05
CGA:  24    -0.313623458446E+03   -0.31228E-04   -0.31222E-04  9568   0.523E-03 0.152E-05
CGA:  25    -0.313623477135E+03   -0.18689E-04   -0.18688E-04  9568   0.511E-03-0.728E-07
CGA:  26    -0.313623503691E+03   -0.26556E-04   -0.26547E-04  9568   0.480E-03 0.816E-06
CGA:  27    -0.313623518593E+03   -0.14902E-04   -0.14908E-04  9568   0.176E-03 0.357E-06
CGA:  28    -0.313623527447E+03   -0.88542E-05   -0.88507E-05  9568   0.284E-03 0.361E-06
  20 F= -.31362353E+03 E0= -.31360393E+03  d E =-.280908E-02  mag=    24.0541
       N       E                     dE             d eps       ncg     rms          ort
SDA:   1    -0.311025850742E+03    0.25977E+01    0.00000E+00  9568   0.996E+01 0.000E+00
CGA:   2    -0.311379870674E+03   -0.35402E+00   -0.35862E+00  9568   0.182E+02 0.159E+00
CGA:   3    -0.312627085085E+03   -0.12472E+01   -0.12855E+01  9568   0.159E+02-0.123E+01
CGA:   4    -0.312967351675E+03   -0.34027E+00   -0.39421E+00  9568   0.498E+01-0.538E+00
CGA:   5    -0.313149819800E+03   -0.18247E+00   -0.18263E+00  9568   0.594E+01 0.648E-02
CGA:   6    -0.313368926961E+03   -0.21911E+00   -0.21950E+00  9568   0.449E+01 0.199E-01
CGA:   7    -0.313488902551E+03   -0.11998E+00   -0.12574E+00  9568   0.873E+00-0.228E-01
CGA:   8    -0.313531898980E+03   -0.42996E-01   -0.43033E-01  9568   0.132E+01-0.297E-02
CGA:   9    -0.313565735875E+03   -0.33837E-01   -0.34083E-01  9568   0.400E+00-0.262E-02
CGA:  10    -0.313588687542E+03   -0.22952E-01   -0.22794E-01  9568   0.266E+00 0.784E-02
CGA:  11    -0.313596755656E+03   -0.80681E-02   -0.80405E-02  9568   0.119E+00-0.190E-03
CGA:  12    -0.313600648257E+03   -0.38926E-02   -0.38757E-02  9568   0.985E-01-0.392E-03
CGA:  13    -0.313604866075E+03   -0.42178E-02   -0.42177E-02  9568   0.925E-01 0.307E-04
CGA:  14    -0.313608908908E+03   -0.40428E-02   -0.40444E-02  9568   0.257E-01-0.358E-03
CGA:  15    -0.313609899944E+03   -0.99104E-03   -0.99096E-03  9568   0.289E-01-0.974E-05
CGA:  16    -0.313610782714E+03   -0.88277E-03   -0.88074E-03  9568   0.167E-01-0.275E-04
CGA:  17    -0.313612056150E+03   -0.12734E-02   -0.12740E-02  9568   0.126E-01-0.144E-04
CGA:  18    -0.313612442717E+03   -0.38657E-03   -0.38722E-03  9568   0.999E-02 0.847E-05
CGA:  19    -0.313612779972E+03   -0.33726E-03   -0.33697E-03  9568   0.590E-02-0.694E-05
CGA:  20    -0.313613197836E+03   -0.41786E-03   -0.41675E-03  9568   0.889E-02 0.348E-04
CGA:  21    -0.313613504489E+03   -0.30665E-03   -0.30688E-03  9568   0.522E-02 0.113E-04
CGA:  22    -0.313613685903E+03   -0.18141E-03   -0.18160E-03  9568   0.488E-02 0.898E-05
CGA:  23    -0.313613925589E+03   -0.23969E-03   -0.23953E-03  9568   0.334E-02 0.161E-04
CGA:  24    -0.313614099482E+03   -0.17389E-03   -0.17394E-03  9568   0.358E-02-0.263E-05
CGA:  25    -0.313614208632E+03   -0.10915E-03   -0.10931E-03  9568   0.305E-02 0.473E-05
CGA:  26    -0.313614386299E+03   -0.17767E-03   -0.17767E-03  9568   0.118E-02 0.124E-05
CGA:  27    -0.313614437068E+03   -0.50769E-04   -0.50769E-04  9568   0.183E-02 0.232E-05
CGA:  28    -0.313614509891E+03   -0.72823E-04   -0.72828E-04  9568   0.110E-02 0.180E-05
CGA:  29    -0.313614572931E+03   -0.63041E-04   -0.63002E-04  9568   0.795E-03 0.267E-05
CGA:  30    -0.313614596677E+03   -0.23746E-04   -0.23746E-04  9568   0.662E-03 0.220E-07
CGA:  31    -0.313614623469E+03   -0.26792E-04   -0.26791E-04  9568   0.292E-03-0.158E-06
SDA:  32    -0.313614642964E+03   -0.19495E-04   -0.19499E-04  9568   0.565E-03-0.376E-06
CGA:  33    -0.313614651311E+03   -0.83465E-05   -0.83406E-05  9568   0.129E-03-0.657E-07
  21 F= -.31361465E+03 E0= -.31359509E+03  d E =0.887614E-02  mag=    24.0551
       N       E                     dE             d eps       ncg     rms          ort
SDA:   1    -0.313312937658E+03    0.30171E+00    0.00000E+00  9568   0.211E+01 0.000E+00
CGA:   2    -0.313363201592E+03   -0.50264E-01   -0.48969E-01  9568   0.135E+01 0.180E-01
CGA:   3    -0.313446089617E+03   -0.82888E-01   -0.82947E-01  9568   0.247E+01-0.158E-02
CGA:   4    -0.313526337391E+03   -0.80248E-01   -0.80145E-01  9568   0.464E+00-0.227E-02
CGA:   5    -0.313558601754E+03   -0.32264E-01   -0.32306E-01  9568   0.803E+00-0.104E-02
CGA:   6    -0.313582867094E+03   -0.24265E-01   -0.24185E-01  9568   0.499E+00-0.401E-03
CGA:   7    -0.313601142773E+03   -0.18276E-01   -0.18204E-01  9568   0.128E+00-0.309E-02
CGA:   8    -0.313605497444E+03   -0.43547E-02   -0.43432E-02  9568   0.107E+00-0.286E-03
CGA:   9    -0.313611248021E+03   -0.57506E-02   -0.57525E-02  9568   0.103E+00-0.115E-03
CGA:  10    -0.313613559033E+03   -0.23110E-02   -0.22826E-02  9568   0.255E-01 0.586E-03
CGA:  11    -0.313614834900E+03   -0.12759E-02   -0.12773E-02  9568   0.175E-01-0.121E-03
CGA:  12    -0.313615524463E+03   -0.68956E-03   -0.68931E-03  9568   0.169E-01-0.388E-04
CGA:  13    -0.313616033922E+03   -0.50946E-03   -0.50891E-03  9568   0.892E-02-0.609E-05
CGA:  14    -0.313616538033E+03   -0.50411E-03   -0.50390E-03  9568   0.534E-02 0.114E-04
CGA:  15    -0.313616673620E+03   -0.13559E-03   -0.13554E-03  9568   0.262E-02 0.308E-05
CGA:  16    -0.313616810645E+03   -0.13702E-03   -0.13704E-03  9568   0.388E-02-0.103E-05
CGA:  17    -0.313616951973E+03   -0.14133E-03   -0.14132E-03  9568   0.177E-02 0.124E-05
CGA:  18    -0.313617047156E+03   -0.95183E-04   -0.95176E-04  9568   0.166E-02 0.897E-06
CGA:  19    -0.313617087650E+03   -0.40494E-04   -0.40519E-04  9568   0.836E-03 0.678E-06
CGA:  20    -0.313617139523E+03   -0.51873E-04   -0.51901E-04  9568   0.689E-03-0.133E-05
CGA:  21    -0.313617171596E+03   -0.32073E-04   -0.32071E-04  9568   0.104E-02 0.674E-06
CGA:  22    -0.313617211024E+03   -0.39428E-04   -0.39428E-04  9568   0.482E-03 0.507E-06
CGA:  23    -0.313617226955E+03   -0.15931E-04   -0.15941E-04  9568   0.299E-03 0.703E-06
CGA:  24    -0.313617242090E+03   -0.15134E-04   -0.15138E-04  9568   0.322E-03-0.606E-06
CGA:  25    -0.313617254986E+03   -0.12896E-04   -0.12896E-04  9568   0.362E-03-0.557E-07
CGA:  26    -0.313617269724E+03   -0.14738E-04   -0.14739E-04  9568   0.156E-03-0.397E-07
CGA:  27    -0.313617276002E+03   -0.62775E-05   -0.62775E-05  9568   0.107E-03-0.260E-07
  22 F= -.31361728E+03 E0= -.31359769E+03  d E =-.262469E-02  mag=    24.0585
       N       E                     dE             d eps       ncg     rms          ort
SDA:   1    -0.313605854148E+03    0.11416E-01    0.00000E+00  9568   0.578E+00 0.000E+00
CGA:   2    -0.313612841701E+03   -0.69876E-02   -0.71126E-02  9568   0.357E-01-0.875E-02
CGA:   3    -0.313614122119E+03   -0.12804E-02   -0.12776E-02  9568   0.169E-01-0.277E-03
CGA:   4    -0.313615429352E+03   -0.13072E-02   -0.13052E-02  9568   0.278E-01 0.564E-04
CGA:   5    -0.313616082554E+03   -0.65320E-03   -0.65280E-03  9568   0.104E-01 0.662E-05
CGA:   6    -0.313616522154E+03   -0.43960E-03   -0.43966E-03  9568   0.747E-02-0.242E-04
CGA:   7    -0.313616849144E+03   -0.32699E-03   -0.32692E-03  9568   0.565E-02 0.150E-04
CGA:   8    -0.313617128069E+03   -0.27892E-03   -0.27903E-03  9568   0.608E-02-0.874E-05
CGA:   9    -0.313617263686E+03   -0.13562E-03   -0.13549E-03  9568   0.145E-02 0.311E-05
CGA:  10    -0.313617346846E+03   -0.83160E-04   -0.83226E-04  9568   0.864E-03-0.326E-05
CGA:  11    -0.313617383370E+03   -0.36524E-04   -0.36523E-04  9568   0.120E-02 0.618E-06
CGA:  12    -0.313617419470E+03   -0.36100E-04   -0.36104E-04  9568   0.271E-03 0.225E-06
CGA:  13    -0.313617436208E+03   -0.16738E-04   -0.16721E-04  9568   0.269E-03 0.830E-06
CGA:  14    -0.313617442800E+03   -0.65917E-05   -0.65892E-05  9568   0.110E-03-0.113E-06
  23 F= -.31361744E+03 E0= -.31359785E+03  d E =-.166798E-03  mag=    24.0576
       N       E                     dE             d eps       ncg     rms          ort
SDA:   1    -0.313589177137E+03    0.28259E-01    0.00000E+00  9568   0.946E+00 0.000E+00
CGA:   2    -0.313601823105E+03   -0.12646E-01   -0.12533E-01  9568   0.823E-01 0.435E-02
CGA:   3    -0.313604642611E+03   -0.28195E-02   -0.28202E-02  9568   0.809E-01 0.415E-04
CGA:   4    -0.313612200344E+03   -0.75577E-02   -0.75566E-02  9568   0.427E-01 0.249E-04
CGA:   5    -0.313614523089E+03   -0.23227E-02   -0.23217E-02  9568   0.237E-01 0.642E-04
CGA:   6    -0.313615780548E+03   -0.12575E-02   -0.12580E-02  9568   0.462E-01-0.375E-04
CGA:   7    -0.313617064528E+03   -0.12840E-02   -0.12837E-02  9568   0.928E-02 0.526E-05
CGA:   8    -0.313617518549E+03   -0.45402E-03   -0.45465E-03  9568   0.392E-02-0.606E-04
CGA:   9    -0.313617795409E+03   -0.27686E-03   -0.27729E-03  9568   0.301E-02-0.133E-04
CGA:  10    -0.313617900629E+03   -0.10522E-03   -0.10522E-03  9568   0.301E-02 0.225E-06
CGA:  11    -0.313617978307E+03   -0.77678E-04   -0.77649E-04  9568   0.551E-03-0.124E-05
CGA:  12    -0.313618020570E+03   -0.42263E-04   -0.42326E-04  9568   0.704E-03-0.172E-05
CGA:  13    -0.313618044842E+03   -0.24272E-04   -0.24271E-04  9568   0.320E-03-0.209E-06
CGA:  14    -0.313618061589E+03   -0.16747E-04   -0.16745E-04  9568   0.519E-03 0.173E-06
CGA:  15    -0.313618074529E+03   -0.12940E-04   -0.12936E-04  9568   0.971E-04-0.191E-06
CGA:  16    -0.313618081735E+03   -0.72065E-05   -0.71906E-05  9568   0.107E-03 0.491E-06
  24 F= -.31361808E+03 E0= -.31359849E+03  d E =-.638936E-03  mag=    24.0568
       N       E                     dE             d eps       ncg     rms          ort
SDA:   1    -0.313584728653E+03    0.33346E-01    0.00000E+00  9568   0.160E+01 0.000E+00
CGA:   2    -0.313603237927E+03   -0.18509E-01   -0.18514E-01  9568   0.548E-01-0.750E-02
CGA:   3    -0.313608847983E+03   -0.56101E-02   -0.56655E-02  9568   0.925E-01-0.991E-03
CGA:   4    -0.313613679226E+03   -0.48312E-02   -0.48339E-02  9568   0.643E-01-0.285E-03
CGA:   5    -0.313615005399E+03   -0.13262E-02   -0.13124E-02  9568   0.261E-01 0.425E-03
CGA:   6    -0.313616464457E+03   -0.14591E-02   -0.14607E-02  9568   0.230E-01-0.116E-03
CGA:   7    -0.313617616389E+03   -0.11519E-02   -0.11521E-02  9568   0.165E-01-0.287E-04
CGA:   8    -0.313618141574E+03   -0.52518E-03   -0.52698E-03  9568   0.635E-02 0.555E-05
CGA:   9    -0.313618303358E+03   -0.16178E-03   -0.16185E-03  9568   0.417E-02 0.956E-06
CGA:  10    -0.313618517709E+03   -0.21435E-03   -0.21437E-03  9568   0.227E-02-0.234E-05
CGA:  11    -0.313618649147E+03   -0.13144E-03   -0.13134E-03  9568   0.137E-02 0.606E-05
CGA:  12    -0.313618675894E+03   -0.26746E-04   -0.26723E-04  9568   0.564E-03 0.429E-06
CGA:  13    -0.313618722231E+03   -0.46338E-04   -0.46354E-04  9568   0.342E-03-0.258E-06
CGA:  14    -0.313618736509E+03   -0.14277E-04   -0.14278E-04  9568   0.486E-03-0.858E-07
CGA:  15    -0.313618756467E+03   -0.19958E-04   -0.19956E-04  9568   0.283E-03-0.487E-06
CGA:  16    -0.313618764140E+03   -0.76733E-05   -0.76631E-05  9568   0.966E-04-0.657E-06
  25 F= -.31361876E+03 E0= -.31359918E+03  d E =-.682405E-03  mag=    24.0552
       N       E                     dE             d eps       ncg     rms          ort
SDA:   1    -0.313498107959E+03    0.12065E+00    0.00000E+00  9568   0.219E+01 0.000E+00
CGA:   2    -0.313526621891E+03   -0.28514E-01   -0.31217E-01  9568   0.425E+00-0.160E+00
CGA:   3    -0.313559209533E+03   -0.32588E-01   -0.32744E-01  9568   0.697E+00-0.377E-02
CGA:   4    -0.313583689870E+03   -0.24480E-01   -0.24510E-01  9568   0.462E+00 0.307E-03
CGA:   5    -0.313595781041E+03   -0.12091E-01   -0.11957E-01  9568   0.141E+00 0.177E-02
CGA:   6    -0.313606431503E+03   -0.10650E-01   -0.10641E-01  9568   0.251E+00 0.341E-03
CGA:   7    -0.313612598005E+03   -0.61665E-02   -0.61482E-02  9568   0.730E-01 0.281E-03
CGA:   8    -0.313616041080E+03   -0.34431E-02   -0.34438E-02  9568   0.425E-01-0.278E-03
CGA:   9    -0.313617171957E+03   -0.11309E-02   -0.11309E-02  9568   0.264E-01-0.149E-05
CGA:  10    -0.313618455213E+03   -0.12833E-02   -0.12831E-02  9568   0.161E-01 0.231E-04
CGA:  11    -0.313619019021E+03   -0.56381E-03   -0.56305E-03  9568   0.119E-01-0.150E-04
CGA:  12    -0.313619376851E+03   -0.35783E-03   -0.35691E-03  9568   0.431E-02 0.104E-06
CGA:  13    -0.313619551993E+03   -0.17514E-03   -0.17513E-03  9568   0.380E-02-0.218E-05
CGA:  14    -0.313619694248E+03   -0.14226E-03   -0.14217E-03  9568   0.260E-02-0.426E-05
CGA:  15    -0.313619800153E+03   -0.10590E-03   -0.10588E-03  9568   0.236E-02-0.477E-05
CGA:  16    -0.313619887954E+03   -0.87801E-04   -0.87790E-04  9568   0.112E-02-0.717E-06
CGA:  17    -0.313619927723E+03   -0.39769E-04   -0.39753E-04  9568   0.884E-03-0.118E-05
CGA:  18    -0.313619960321E+03   -0.32598E-04   -0.32598E-04  9568   0.673E-03 0.181E-06
CGA:  19    -0.313620005765E+03   -0.45444E-04   -0.45420E-04  9568   0.894E-03 0.107E-05
CGA:  20    -0.313620029313E+03   -0.23547E-04   -0.23572E-04  9568   0.428E-03 0.998E-06
CGA:  21    -0.313620054135E+03   -0.24823E-04   -0.24824E-04  9568   0.342E-03 0.217E-07
CGA:  22    -0.313620064204E+03   -0.10069E-04   -0.10075E-04  9568   0.286E-03 0.452E-06
CGA:  23    -0.313620085444E+03   -0.21240E-04   -0.21227E-04  9568   0.345E-03 0.470E-06
CGA:  24    -0.313620096494E+03   -0.11050E-04   -0.11054E-04  9568   0.198E-03 0.341E-06
CGA:  25    -0.313620102451E+03   -0.59574E-05   -0.59575E-05  9568   0.976E-04-0.692E-07
  26 F= -.31362010E+03 E0= -.31360053E+03  d E =-.133831E-02  mag=    24.0539
       N       E                     dE             d eps       ncg     rms          ort
SDA:   1    -0.313235247375E+03    0.38485E+00    0.00000E+00  9568   0.515E+01 0.000E+00
CGA:   2    -0.313306195767E+03   -0.70948E-01   -0.79982E-01  9568   0.153E+01-0.482E+00
CGA:   3    -0.313469046941E+03   -0.16285E+00   -0.16237E+00  9568   0.202E+01 0.837E-02
CGA:   4    -0.313509722507E+03   -0.40676E-01   -0.40951E-01  9568   0.619E+00-0.143E-01
CGA:   5    -0.313550253760E+03   -0.40531E-01   -0.40751E-01  9568   0.978E+00-0.795E-02
CGA:   6    -0.313584556236E+03   -0.34302E-01   -0.34532E-01  9568   0.610E+00 0.438E-02
CGA:   7    -0.313601363087E+03   -0.16807E-01   -0.17259E-01  9568   0.167E+00-0.345E-02
CGA:   8    -0.313607453632E+03   -0.60905E-02   -0.61048E-02  9568   0.167E+00 0.523E-03
CGA:   9    -0.313614528371E+03   -0.70747E-02   -0.70731E-02  9568   0.103E+00-0.294E-03
CGA:  10    -0.313617845377E+03   -0.33170E-02   -0.33361E-02  9568   0.493E-01 0.207E-03
CGA:  11    -0.313619224975E+03   -0.13796E-02   -0.13789E-02  9568   0.203E-01 0.219E-05
CGA:  12    -0.313620132432E+03   -0.90746E-03   -0.90720E-03  9568   0.219E-01 0.853E-04
CGA:  13    -0.313620931090E+03   -0.79866E-03   -0.79863E-03  9568   0.124E-01 0.442E-05
CGA:  14    -0.313621470618E+03   -0.53953E-03   -0.53951E-03  9568   0.112E-01 0.145E-04
CGA:  15    -0.313621779225E+03   -0.30861E-03   -0.30835E-03  9568   0.324E-02-0.416E-06
CGA:  16    -0.313621960494E+03   -0.18127E-03   -0.18122E-03  9568   0.627E-02 0.372E-05
CGA:  17    -0.313622214110E+03   -0.25362E-03   -0.25362E-03  9568   0.291E-02 0.130E-05
CGA:  18    -0.313622336216E+03   -0.12211E-03   -0.12211E-03  9568   0.298E-02 0.132E-05
CGA:  19    -0.313622432211E+03   -0.95995E-04   -0.96002E-04  9568   0.136E-02 0.201E-06
CGA:  20    -0.313622512159E+03   -0.79948E-04   -0.79861E-04  9568   0.229E-02 0.449E-05
CGA:  21    -0.313622595126E+03   -0.82967E-04   -0.82973E-04  9568   0.130E-02 0.116E-05
CGA:  22    -0.313622653172E+03   -0.58047E-04   -0.58044E-04  9568   0.119E-02 0.165E-05
CGA:  23    -0.313622694912E+03   -0.41739E-04   -0.41734E-04  9568   0.810E-03 0.741E-06
CGA:  24    -0.313622728932E+03   -0.34020E-04   -0.34021E-04  9568   0.590E-03 0.184E-05
CGA:  25    -0.313622751233E+03   -0.22302E-04   -0.22302E-04  9568   0.545E-03 0.101E-06
CGA:  26    -0.313622778202E+03   -0.26969E-04   -0.26962E-04  9568   0.467E-03 0.867E-06
CGA:  27    -0.313622792488E+03   -0.14286E-04   -0.14283E-04  9568   0.220E-03-0.640E-07
CGA:  28    -0.313622800357E+03   -0.78684E-05   -0.78674E-05  9568   0.143E-03-0.179E-06
  27 F= -.31362280E+03 E0= -.31360323E+03  d E =-.269791E-02  mag=    24.0487
       N       E                     dE             d eps       ncg     rms          ort
SDA:   1    -0.310038103181E+03    0.35847E+01    0.00000E+00  9568   0.144E+02 0.000E+00
CGA:   2    -0.310735990006E+03   -0.69789E+00   -0.68617E+00  9568   0.246E+02 0.130E+01
CGA:   3    -0.311946784556E+03   -0.12108E+01   -0.12201E+01  9568   0.301E+02-0.152E+01
CGA:   4    -0.312597048971E+03   -0.65026E+00   -0.67681E+00  9568   0.593E+01-0.649E+00
CGA:   5    -0.312975562738E+03   -0.37851E+00   -0.36968E+00  9568   0.598E+01 0.343E+00
CGA:   6    -0.313388420738E+03   -0.41286E+00   -0.41496E+00  9568   0.262E+01-0.774E-01
CGA:   7    -0.313455405250E+03   -0.66985E-01   -0.65535E-01  9568   0.158E+01 0.118E-01
CGA:   8    -0.313518137399E+03   -0.62732E-01   -0.62711E-01  9568   0.137E+01-0.295E-02
CGA:   9    -0.313566694227E+03   -0.48557E-01   -0.48480E-01  9568   0.690E+00-0.350E-02
CGA:  10    -0.313590849489E+03   -0.24155E-01   -0.24351E-01  9568   0.220E+00 0.868E-02
CGA:  11    -0.313598144363E+03   -0.72949E-02   -0.72898E-02  9568   0.255E+00-0.133E-03
CGA:  12    -0.313608546411E+03   -0.10402E-01   -0.10406E-01  9568   0.111E+00 0.351E-02
CGA:  13    -0.313615921891E+03   -0.73755E-02   -0.73177E-02  9568   0.491E-01 0.208E-02
CGA:  14    -0.313618659698E+03   -0.27378E-02   -0.27432E-02  9568   0.640E-01-0.313E-03
CGA:  15    -0.313620306095E+03   -0.16464E-02   -0.16406E-02  9568   0.360E-01 0.558E-04
CGA:  16    -0.313622171141E+03   -0.18650E-02   -0.18666E-02  9568   0.219E-01-0.109E-03
CGA:  17    -0.313623414812E+03   -0.12437E-02   -0.12407E-02  9568   0.211E-01 0.164E-03
CGA:  18    -0.313624197656E+03   -0.78284E-03   -0.78404E-03  9568   0.111E-01 0.672E-04
CGA:  19    -0.313624671164E+03   -0.47351E-03   -0.47353E-03  9568   0.182E-01 0.151E-04
CGA:  20    -0.313625487350E+03   -0.81619E-03   -0.81578E-03  9568   0.917E-02 0.144E-03
CGA:  21    -0.313626031424E+03   -0.54407E-03   -0.54348E-03  9568   0.502E-02 0.321E-04
CGA:  22    -0.313626339097E+03   -0.30767E-03   -0.30706E-03  9568   0.103E-01 0.304E-04
CGA:  23    -0.313626646591E+03   -0.30749E-03   -0.30743E-03  9568   0.497E-02 0.849E-05
CGA:  24    -0.313626977509E+03   -0.33092E-03   -0.33061E-03  9568   0.276E-02 0.132E-04
CGA:  25    -0.313627121985E+03   -0.14448E-03   -0.14450E-03  9568   0.333E-02-0.162E-05
CGA:  26    -0.313627209042E+03   -0.87057E-04   -0.87188E-04  9568   0.198E-02-0.328E-06
CGA:  27    -0.313627370092E+03   -0.16105E-03   -0.16113E-03  9568   0.138E-02-0.201E-05
CGA:  28    -0.313627427835E+03   -0.57743E-04   -0.57740E-04  9568   0.120E-02 0.260E-06
CGA:  29    -0.313627467974E+03   -0.40140E-04   -0.40087E-04  9568   0.905E-03-0.112E-05
CGA:  30    -0.313627501662E+03   -0.33687E-04   -0.33671E-04  9568   0.637E-03-0.862E-06
CGA:  31    -0.313627531695E+03   -0.30033E-04   -0.30037E-04  9568   0.436E-03-0.114E-05
SDA:  32    -0.313627561445E+03   -0.29750E-04   -0.29756E-04  9568   0.475E-03-0.431E-06
CGA:  33    -0.313627568455E+03   -0.70100E-05   -0.70041E-05  9568   0.119E-03-0.460E-06
  28 F= -.31362757E+03 E0= -.31360806E+03  d E =-.476810E-02  mag=    24.0420
       N       E                     dE             d eps       ncg     rms          ort
SDA:   1    -0.312887974638E+03    0.73959E+00    0.00000E+00  9568   0.280E+01 0.000E+00
CGA:   2    -0.313130970853E+03   -0.24300E+00   -0.23977E+00  9568   0.443E+01 0.848E-01
CGA:   3    -0.313351558596E+03   -0.22059E+00   -0.22058E+00  9568   0.253E+01-0.128E+00
CGA:   4    -0.313421941538E+03   -0.70383E-01   -0.64965E-01  9568   0.134E+01 0.733E-01
CGA:   5    -0.313497379586E+03   -0.75438E-01   -0.75248E-01  9568   0.187E+01 0.171E-01
CGA:   6    -0.313576814660E+03   -0.79435E-01   -0.79083E-01  9568   0.361E+00-0.213E-01
CGA:   7    -0.313590973225E+03   -0.14159E-01   -0.14220E-01  9568   0.482E+00 0.257E-02
CGA:   8    -0.313607504445E+03   -0.16531E-01   -0.16300E-01  9568   0.198E+00-0.187E-02
CGA:   9    -0.313617498097E+03   -0.99937E-02   -0.99745E-02  9568   0.895E-01 0.268E-02
CGA:  10    -0.313619695791E+03   -0.21977E-02   -0.21925E-02  9568   0.543E-01 0.987E-04
CGA:  11    -0.313622299720E+03   -0.26039E-02   -0.26020E-02  9568   0.359E-01 0.432E-03
CGA:  12    -0.313624424330E+03   -0.21246E-02   -0.21249E-02  9568   0.358E-01-0.178E-04
CGA:  13    -0.313625159527E+03   -0.73520E-03   -0.73578E-03  9568   0.943E-02-0.988E-05
CGA:  14    -0.313625687556E+03   -0.52803E-03   -0.52752E-03  9568   0.882E-02 0.347E-04
CGA:  15    -0.313626138074E+03   -0.45052E-03   -0.45031E-03  9568   0.125E-01 0.266E-04
CGA:  16    -0.313626498937E+03   -0.36086E-03   -0.36250E-03  9568   0.380E-02-0.364E-05
CGA:  17    -0.313626651057E+03   -0.15212E-03   -0.15211E-03  9568   0.350E-02 0.120E-05
CGA:  18    -0.313626833018E+03   -0.18196E-03   -0.18179E-03  9568   0.284E-02 0.167E-04
CGA:  19    -0.313626918085E+03   -0.85067E-04   -0.85183E-04  9568   0.240E-02 0.132E-05
CGA:  20    -0.313627067986E+03   -0.14990E-03   -0.14974E-03  9568   0.178E-02 0.699E-05
CGA:  21    -0.313627139070E+03   -0.71084E-04   -0.71090E-04  9568   0.135E-02 0.885E-06
CGA:  22    -0.313627176503E+03   -0.37433E-04   -0.37450E-04  9568   0.876E-03-0.457E-06
CGA:  23    -0.313627254200E+03   -0.77696E-04   -0.77748E-04  9568   0.968E-03-0.106E-05
CGA:  24    -0.313627286170E+03   -0.31970E-04   -0.31978E-04  9568   0.896E-03 0.148E-06
CGA:  25    -0.313627317513E+03   -0.31343E-04   -0.31358E-04  9568   0.281E-03 0.116E-05
CGA:  26    -0.313627334106E+03   -0.16593E-04   -0.16586E-04  9568   0.481E-03 0.422E-06
CGA:  27    -0.313627353188E+03   -0.19082E-04   -0.19094E-04  9568   0.419E-03 0.169E-05
CGA:  28    -0.313627369314E+03   -0.16126E-04   -0.16138E-04  9568   0.195E-03 0.137E-05
CGA:  29    -0.313627375589E+03   -0.62756E-05   -0.62823E-05  9568   0.106E-03 0.224E-06
[...]
CGA:  37    -0.313623809710E+03   -0.95483E-05   -0.94814E-05  9568   0.965E-04 0.878E-06
  51 F= -.31362381E+03 E0= -.31360432E+03  d E =-.293186E-01  mag=    24.0327
       N       E                     dE             d eps       ncg     rms          ort
SDA:   1    -0.313553109368E+03    0.70691E-01    0.00000E+00  9568   0.142E+01 0.000E+00
CGA:   2    -0.313571778051E+03   -0.18669E-01   -0.18826E-01  9568   0.204E+00-0.152E-01
CGA:   3    -0.313590663110E+03   -0.18885E-01   -0.18744E-01  9568   0.284E+00 0.310E-02
CGA:   4    -0.313606542614E+03   -0.15880E-01   -0.15866E-01  9568   0.112E+00 0.130E-02
CGA:   5    -0.313610739924E+03   -0.41973E-02   -0.41862E-02  9568   0.153E+00-0.188E-03
CGA:   6    -0.313617103663E+03   -0.63637E-02   -0.63728E-02  9568   0.817E-01 0.514E-03
CGA:   7    -0.313620264750E+03   -0.31611E-02   -0.31565E-02  9568   0.363E-01-0.124E-03
CGA:   8    -0.313621721274E+03   -0.14565E-02   -0.14571E-02  9568   0.165E-01 0.281E-04
CGA:   9    -0.313622595792E+03   -0.87452E-03   -0.87490E-03  9568   0.179E-01-0.361E-04
CGA:  10    -0.313622969625E+03   -0.37383E-03   -0.37537E-03  9568   0.580E-02-0.426E-04
CGA:  11    -0.313623373639E+03   -0.40401E-03   -0.40367E-03  9568   0.215E-02 0.125E-04
CGA:  12    -0.313623484659E+03   -0.11102E-03   -0.11104E-03  9568   0.251E-02-0.162E-05
CGA:  13    -0.313623558389E+03   -0.73730E-04   -0.73648E-04  9568   0.174E-02 0.691E-06
CGA:  14    -0.313623627324E+03   -0.68935E-04   -0.68904E-04  9568   0.818E-03-0.113E-05
CGA:  15    -0.313623669039E+03   -0.41715E-04   -0.41708E-04  9568   0.680E-03 0.120E-05
CGA:  16    -0.313623696019E+03   -0.26980E-04   -0.26991E-04  9568   0.360E-03 0.809E-06
CGA:  17    -0.313623707109E+03   -0.11089E-04   -0.11087E-04  9568   0.383E-03 0.269E-07
CGA:  18    -0.313623729945E+03   -0.22837E-04   -0.22816E-04  9568   0.218E-03 0.134E-05
CGA:  19    -0.313623743405E+03   -0.13460E-04   -0.13458E-04  9568   0.140E-03 0.128E-06
CGA:  20    -0.313623747369E+03   -0.39639E-05   -0.39681E-05  9568   0.135E-03 0.165E-06
  52 F= -.31362375E+03 E0= -.31360426E+03  d E =0.623407E-04  mag=    24.0330
       N       E                     dE             d eps       ncg     rms          ort
SDA:   1    -0.313587047182E+03    0.36696E-01    0.00000E+00  9568   0.669E+00 0.000E+00
CGA:   2    -0.313598014999E+03   -0.10968E-01   -0.10794E-01  9568   0.156E+00 0.668E-02
CGA:   3    -0.313603373219E+03   -0.53582E-02   -0.53999E-02  9568   0.131E+00 0.744E-03
CGA:   4    -0.313612388922E+03   -0.90157E-02   -0.90135E-02  9568   0.111E+00 0.925E-04
CGA:   5    -0.313616501749E+03   -0.41128E-02   -0.41367E-02  9568   0.473E-01 0.789E-03
CGA:   6    -0.313618301406E+03   -0.17997E-02   -0.18011E-02  9568   0.691E-01 0.656E-04
CGA:   7    -0.313620850021E+03   -0.25486E-02   -0.25486E-02  9568   0.290E-01-0.569E-06
CGA:   8    -0.313622643370E+03   -0.17933E-02   -0.17933E-02  9568   0.830E-02 0.326E-05
CGA:   9    -0.313622963657E+03   -0.32029E-03   -0.32034E-03  9568   0.962E-02 0.353E-05
CGA:  10    -0.313623260909E+03   -0.29725E-03   -0.29681E-03  9568   0.551E-02-0.356E-05
CGA:  11    -0.313623479290E+03   -0.21838E-03   -0.21845E-03  9568   0.279E-02 0.741E-05
CGA:  12    -0.313623589286E+03   -0.11000E-03   -0.10997E-03  9568   0.912E-03-0.211E-05
CGA:  13    -0.313623666273E+03   -0.76987E-04   -0.76934E-04  9568   0.680E-03 0.133E-05
CGA:  14    -0.313623698267E+03   -0.31994E-04   -0.31993E-04  9568   0.852E-03 0.319E-06
CGA:  15    -0.313623723306E+03   -0.25040E-04   -0.25025E-04  9568   0.543E-03-0.515E-06
CGA:  16    -0.313623744079E+03   -0.20772E-04   -0.20771E-04  9568   0.163E-03-0.245E-06
CGA:  17    -0.313623752387E+03   -0.83087E-05   -0.83121E-05  9568   0.190E-03-0.439E-06
CGA:  18    -0.313623769689E+03   -0.17301E-04   -0.17274E-04  9568   0.975E-04 0.615E-06
CGA:  19    -0.313623775759E+03   -0.60705E-05   -0.60733E-05  9568   0.774E-04-0.158E-06
  53 F= -.31362378E+03 E0= -.31360430E+03  d E =-.283902E-04  mag=    24.0328
       N       E                     dE             d eps       ncg     rms          ort
SDA:   1    -0.313596642212E+03    0.27127E-01    0.00000E+00  9568   0.674E+00 0.000E+00
CGA:   2    -0.313605091676E+03   -0.84495E-02   -0.85035E-02  9568   0.706E-01-0.475E-02
CGA:   3    -0.313611030767E+03   -0.59391E-02   -0.59792E-02  9568   0.107E+00-0.951E-03
CGA:   4    -0.313617886754E+03   -0.68560E-02   -0.68530E-02  9568   0.603E-01 0.144E-03
CGA:   5    -0.313619286260E+03   -0.13995E-02   -0.13937E-02  9568   0.384E-01 0.136E-03
CGA:   6    -0.313621152821E+03   -0.18666E-02   -0.18671E-02  9568   0.215E-01-0.183E-03
CGA:   7    -0.313622741113E+03   -0.15883E-02   -0.15856E-02  9568   0.124E-01 0.876E-04
CGA:   8    -0.313623016502E+03   -0.27539E-03   -0.27450E-03  9568   0.559E-02 0.210E-04
CGA:   9    -0.313623231470E+03   -0.21497E-03   -0.21499E-03  9568   0.396E-02 0.112E-05
CGA:  10    -0.313623405966E+03   -0.17450E-03   -0.17450E-03  9568   0.282E-02 0.122E-05
CGA:  11    -0.313623534635E+03   -0.12867E-03   -0.12867E-03  9568   0.112E-02 0.432E-06
CGA:  12    -0.313623556735E+03   -0.22100E-04   -0.22075E-04  9568   0.501E-03-0.108E-06
CGA:  13    -0.313623606884E+03   -0.50149E-04   -0.50167E-04  9568   0.399E-03-0.287E-06
CGA:  14    -0.313623623520E+03   -0.16636E-04   -0.16634E-04  9568   0.536E-03-0.247E-06
CGA:  15    -0.313623639026E+03   -0.15507E-04   -0.15511E-04  9568   0.107E-03 0.439E-06
CGA:  16    -0.313623644952E+03   -0.59252E-05   -0.59243E-05  9568   0.155E-03 0.146E-06
  54 F= -.31362364E+03 E0= -.31360419E+03  d E =0.130808E-03  mag=    24.0335
       N       E                     dE             d eps       ncg     rms          ort
SDA:   1    -0.313574756154E+03    0.48883E-01    0.00000E+00  9568   0.153E+01 0.000E+00
CGA:   2    -0.313593330184E+03   -0.18574E-01   -0.19854E-01  9568   0.143E+00-0.868E-01
CGA:   3    -0.313601613303E+03   -0.82831E-02   -0.83573E-02  9568   0.196E+00-0.345E-02
CGA:   4    -0.313609377550E+03   -0.77642E-02   -0.77589E-02  9568   0.192E+00-0.314E-03
CGA:   5    -0.313615220106E+03   -0.58426E-02   -0.57918E-02  9568   0.564E-01 0.697E-04
CGA:   6    -0.313618065754E+03   -0.28456E-02   -0.28453E-02  9568   0.756E-01 0.574E-04
CGA:   7    -0.313620474193E+03   -0.24084E-02   -0.24131E-02  9568   0.370E-01 0.182E-04
CGA:   8    -0.313622032672E+03   -0.15585E-02   -0.15579E-02  9568   0.203E-01-0.811E-04
CGA:   9    -0.313622596483E+03   -0.56381E-03   -0.56471E-03  9568   0.116E-01-0.255E-05
CGA:  10    -0.313623082767E+03   -0.48628E-03   -0.48634E-03  9568   0.624E-02 0.149E-04
CGA:  11    -0.313623261756E+03   -0.17899E-03   -0.17905E-03  9568   0.339E-02-0.141E-05
CGA:  12    -0.313623436213E+03   -0.17446E-03   -0.17446E-03  9568   0.374E-02-0.330E-06
CGA:  13    -0.313623536393E+03   -0.10018E-03   -0.10021E-03  9568   0.975E-03-0.189E-05
CGA:  14    -0.313623579482E+03   -0.43088E-04   -0.43088E-04  9568   0.983E-03-0.128E-06
CGA:  15    -0.313623608864E+03   -0.29383E-04   -0.29369E-04  9568   0.533E-03-0.104E-05
CGA:  16    -0.313623648501E+03   -0.39637E-04   -0.39666E-04  9568   0.724E-03-0.804E-06
CGA:  17    -0.313623664322E+03   -0.15822E-04   -0.15802E-04  9568   0.176E-03-0.490E-06
CGA:  18    -0.313623673171E+03   -0.88489E-05   -0.88529E-05  9568   0.209E-03-0.415E-06
  55 F= -.31362367E+03 E0= -.31360421E+03  d E =-.282199E-04  mag=    24.0330
       N       E                     dE             d eps       ncg     rms          ort
SDA:   1    -0.313543312383E+03    0.80352E-01    0.00000E+00  9568   0.277E+01 0.000E+00
CGA:   2    -0.313576964719E+03   -0.33652E-01   -0.33654E-01  9568   0.186E+00-0.188E-01
CGA:   3    -0.313591344237E+03   -0.14380E-01   -0.14594E-01  9568   0.296E+00-0.552E-02
CGA:   4    -0.313606734184E+03   -0.15390E-01   -0.15336E-01  9568   0.169E+00 0.375E-02
CGA:   5    -0.313610492152E+03   -0.37580E-02   -0.37850E-02  9568   0.864E-01-0.617E-03
CGA:   6    -0.313615834083E+03   -0.53419E-02   -0.53649E-02  9568   0.131E+00-0.958E-03
CGA:   7    -0.313620369191E+03   -0.45351E-02   -0.45493E-02  9568   0.285E-01 0.415E-03
CGA:   8    -0.313621468727E+03   -0.10995E-02   -0.10986E-02  9568   0.333E-01-0.703E-04
CGA:   9    -0.313622477549E+03   -0.10088E-02   -0.10117E-02  9568   0.979E-02 0.203E-04
CGA:  10    -0.313623132943E+03   -0.65539E-03   -0.65899E-03  9568   0.866E-02-0.126E-03
CGA:  11    -0.313623334133E+03   -0.20119E-03   -0.20192E-03  9568   0.430E-02-0.129E-04
CGA:  12    -0.313623510798E+03   -0.17667E-03   -0.17668E-03  9568   0.204E-02 0.354E-05
CGA:  13    -0.313623603669E+03   -0.92870E-04   -0.92862E-04  9568   0.168E-02 0.138E-05
CGA:  14    -0.313623662628E+03   -0.58959E-04   -0.58967E-04  9568   0.146E-02 0.235E-06
CGA:  15    -0.313623719999E+03   -0.57371E-04   -0.57383E-04  9568   0.993E-03 0.210E-05
CGA:  16    -0.313623754850E+03   -0.34851E-04   -0.34854E-04  9568   0.355E-03-0.941E-08
CGA:  17    -0.313623770184E+03   -0.15334E-04   -0.15333E-04  9568   0.379E-03 0.659E-06
CGA:  18    -0.313623784163E+03   -0.13979E-04   -0.13978E-04  9568   0.407E-03-0.123E-06
CGA:  19    -0.313623808869E+03   -0.24706E-04   -0.24710E-04  9568   0.118E-03-0.291E-06
CGA:  20    -0.313623813101E+03   -0.42315E-05   -0.42317E-05  9568   0.169E-03 0.266E-07
  56 F= -.31362381E+03 E0= -.31360435E+03  d E =-.139929E-03  mag=    24.0352
       N       E                     dE             d eps       ncg     rms          ort
SDA:   1    -0.313602703025E+03    0.21106E-01    0.00000E+00  9568   0.325E+00 0.000E+00
CGA:   2    -0.313607451748E+03   -0.47487E-02   -0.48481E-02  9568   0.870E-01-0.508E-02
CGA:   3    -0.313613414439E+03   -0.59627E-02   -0.59597E-02  9568   0.662E-01 0.102E-03
CGA:   4    -0.313617786502E+03   -0.43721E-02   -0.43952E-02  9568   0.605E-01-0.844E-03
CGA:   5    -0.313619369753E+03   -0.15833E-02   -0.15797E-02  9568   0.373E-01 0.265E-04
CGA:   6    -0.313620865218E+03   -0.14955E-02   -0.14940E-02  9568   0.299E-01-0.194E-03
CGA:   7    -0.313622371382E+03   -0.15062E-02   -0.15068E-02  9568   0.209E-01-0.484E-04
CGA:   8    -0.313623135450E+03   -0.76407E-03   -0.76536E-03  9568   0.803E-02 0.636E-04
CGA:   9    -0.313623338097E+03   -0.20265E-03   -0.20206E-03  9568   0.509E-02 0.671E-05
CGA:  10    -0.313623565977E+03   -0.22788E-03   -0.22782E-03  9568   0.290E-02 0.148E-04
CGA:  11    -0.313623737677E+03   -0.17170E-03   -0.17193E-03  9568   0.157E-02-0.102E-04
CGA:  12    -0.313623771984E+03   -0.34307E-04   -0.34321E-04  9568   0.872E-03 0.273E-06
CGA:  13    -0.313623820222E+03   -0.48238E-04   -0.48264E-04  9568   0.385E-03-0.157E-05
CGA:  14    -0.313623842996E+03   -0.22774E-04   -0.22769E-04  9568   0.660E-03 0.322E-06
CGA:  15    -0.313623863236E+03   -0.20240E-04   -0.20241E-04  9568   0.269E-03 0.144E-06
CGA:  16    -0.313623870959E+03   -0.77230E-05   -0.77324E-05  9568   0.131E-03 0.366E-06
  57 F= -.31362387E+03 E0= -.31360440E+03  d E =-.578587E-04  mag=    24.0350
       N       E                     dE             d eps       ncg     rms          ort
SDA:   1    -0.313574753721E+03    0.49110E-01    0.00000E+00  9568   0.886E+00 0.000E+00
CGA:   2    -0.313586773001E+03   -0.12019E-01   -0.11902E-01  9568   0.144E+00 0.504E-02
CGA:   3    -0.313597406571E+03   -0.10634E-01   -0.10727E-01  9568   0.232E+00-0.265E-02
CGA:   4    -0.313611243954E+03   -0.13837E-01   -0.13777E-01  9568   0.127E+00 0.277E-02
CGA:   5    -0.313615985685E+03   -0.47417E-02   -0.47169E-02  9568   0.577E-01-0.970E-03
CGA:   6    -0.313619054255E+03   -0.30686E-02   -0.30654E-02  9568   0.682E-01 0.228E-03
CGA:   7    -0.313620745490E+03   -0.16912E-02   -0.16832E-02  9568   0.353E-01 0.123E-03
CGA:   8    -0.313622383399E+03   -0.16379E-02   -0.16380E-02  9568   0.826E-02-0.149E-04
CGA:   9    -0.313622999522E+03   -0.61612E-03   -0.61683E-03  9568   0.449E-02-0.204E-04
CGA:  10    -0.313623264885E+03   -0.26536E-03   -0.26538E-03  9568   0.555E-02-0.763E-06
CGA:  11    -0.313623379368E+03   -0.11448E-03   -0.11442E-03  9568   0.172E-02 0.241E-05
CGA:  12    -0.313623482030E+03   -0.10266E-03   -0.10262E-03  9568   0.118E-02 0.270E-05
CGA:  13    -0.313623521695E+03   -0.39665E-04   -0.39643E-04  9568   0.520E-03-0.384E-06
CGA:  14    -0.313623562167E+03   -0.40472E-04   -0.40440E-04  9568   0.936E-03 0.937E-06
CGA:  15    -0.313623584183E+03   -0.22016E-04   -0.22026E-04  9568   0.348E-03-0.211E-06
CGA:  16    -0.313623596453E+03   -0.12269E-04   -0.12277E-04  9568   0.135E-03 0.398E-06
CGA:  17    -0.313623607535E+03   -0.11082E-04   -0.11070E-04  9568   0.117E-03 0.286E-06
CGA:  18    -0.313623613102E+03   -0.55675E-05   -0.55673E-05  9568   0.224E-03 0.159E-06
  58 F= -.31362361E+03 E0= -.31360416E+03  d E =0.257857E-03  mag=    24.0340
       N       E                     dE             d eps       ncg     rms          ort
SDA:   1    -0.313544325400E+03    0.79282E-01    0.00000E+00  9568   0.355E+00 0.000E+00
CGA:   2    -0.313556047390E+03   -0.11722E-01   -0.11619E-01  9568   0.481E+00-0.781E-03
CGA:   3    -0.313583672921E+03   -0.27626E-01   -0.27617E-01  9568   0.487E+00 0.512E-03
CGA:   4    -0.313599553484E+03   -0.15881E-01   -0.15762E-01  9568   0.170E+00-0.706E-03
CGA:   5    -0.313609137155E+03   -0.95837E-02   -0.95877E-02  9568   0.127E+00-0.217E-03
CGA:   6    -0.313615353239E+03   -0.62161E-02   -0.62191E-02  9568   0.190E+00-0.512E-03
CGA:   7    -0.313619816855E+03   -0.44636E-02   -0.44326E-02  9568   0.214E-01 0.629E-03
CGA:   8    -0.313621486129E+03   -0.16693E-02   -0.16683E-02  9568   0.168E-01 0.300E-04
CGA:   9    -0.313622210356E+03   -0.72423E-03   -0.72425E-03  9568   0.175E-01 0.446E-05
CGA:  10    -0.313622637175E+03   -0.42682E-03   -0.42713E-03  9568   0.613E-02-0.566E-05
CGA:  11    -0.313622893129E+03   -0.25595E-03   -0.25599E-03  9568   0.233E-02 0.515E-05
CGA:  12    -0.313623041773E+03   -0.14864E-03   -0.14869E-03  9568   0.298E-02-0.194E-05
CGA:  13    -0.313623148410E+03   -0.10664E-03   -0.10661E-03  9568   0.163E-02 0.598E-06
CGA:  14    -0.313623193641E+03   -0.45231E-04   -0.45221E-04  9568   0.117E-02-0.568E-06
CGA:  15    -0.313623245627E+03   -0.51986E-04   -0.51985E-04  9568   0.333E-03-0.140E-05
CGA:  16    -0.313623275304E+03   -0.29677E-04   -0.29678E-04  9568   0.507E-03 0.364E-07
CGA:  17    -0.313623289306E+03   -0.14002E-04   -0.14017E-04  9568   0.418E-03 0.366E-06
CGA:  18    -0.313623308284E+03   -0.18978E-04   -0.18978E-04  9568   0.119E-03-0.121E-06
CGA:  19    -0.313623317816E+03   -0.95320E-05   -0.95150E-05  9568   0.157E-03 0.467E-06
  59 F= -.31362332E+03 E0= -.31360387E+03  d E =0.295286E-03  mag=    24.0324
       N       E                     dE             d eps       ncg     rms          ort
SDA:   1    -0.313567683562E+03    0.55625E-01    0.00000E+00  9568   0.114E+01 0.000E+00
CGA:   2    -0.313582802282E+03   -0.15119E-01   -0.14398E-01  9568   0.146E+00 0.432E-01
CGA:   3    -0.313595218209E+03   -0.12416E-01   -0.12593E-01  9568   0.290E+00-0.445E-02
CGA:   4    -0.313605950382E+03   -0.10732E-01   -0.10766E-01  9568   0.309E+00 0.109E-02
CGA:   5    -0.313612617458E+03   -0.66671E-02   -0.66849E-02  9568   0.724E-01-0.589E-03
CGA:   6    -0.313617285448E+03   -0.46680E-02   -0.46906E-02  9568   0.828E-01-0.930E-03
CGA:   7    -0.313619285053E+03   -0.19996E-02   -0.20056E-02  9568   0.492E-01-0.104E-03
CGA:   8    -0.313621162373E+03   -0.18773E-02   -0.18785E-02  9568   0.369E-01 0.547E-04
CGA:   9    -0.313622436157E+03   -0.12738E-02   -0.12716E-02  9568   0.768E-02-0.398E-04
CGA:  10    -0.313622802072E+03   -0.36591E-03   -0.36575E-03  9568   0.122E-01 0.272E-04
CGA:  11    -0.313623114520E+03   -0.31245E-03   -0.31119E-03  9568   0.416E-02 0.152E-04
CGA:  12    -0.313623332164E+03   -0.21764E-03   -0.21758E-03  9568   0.220E-02 0.439E-05
CGA:  13    -0.313623431203E+03   -0.99039E-04   -0.99041E-04  9568   0.193E-02-0.128E-05
CGA:  14    -0.313623471876E+03   -0.40673E-04   -0.40593E-04  9568   0.834E-03 0.295E-06
CGA:  15    -0.313623531170E+03   -0.59294E-04   -0.59229E-04  9568   0.549E-03 0.209E-05
CGA:  16    -0.313623565238E+03   -0.34068E-04   -0.34058E-04  9568   0.648E-03 0.610E-06
CGA:  17    -0.313623578213E+03   -0.12975E-04   -0.12974E-04  9568   0.243E-03 0.330E-07
CGA:  18    -0.313623591787E+03   -0.13574E-04   -0.13568E-04  9568   0.120E-03 0.423E-06
CGA:  19    -0.313623598750E+03   -0.69630E-05   -0.69567E-05  9568   0.200E-03 0.456E-06
  60 F= -.31362360E+03 E0= -.31360415E+03  d E =-.280934E-03  mag=    24.0312
       N       E                     dE             d eps       ncg     rms          ort
SDA:   1    -0.313592741309E+03    0.30850E-01    0.00000E+00  9568   0.185E+01 0.000E+00
CGA:   2    -0.313614661912E+03   -0.21921E-01   -0.22280E-01  9568   0.567E-01-0.339E-01
CGA:   3    -0.313616563383E+03   -0.19015E-02   -0.18949E-02  9568   0.368E-01-0.145E-03
CGA:   4    -0.313619084870E+03   -0.25215E-02   -0.25297E-02  9568   0.640E-01-0.275E-03
CGA:   5    -0.313620855271E+03   -0.17704E-02   -0.17719E-02  9568   0.234E-01-0.693E-05
CGA:   6    -0.313621550862E+03   -0.69559E-03   -0.69431E-03  9568   0.127E-01-0.132E-05
CGA:   7    -0.313622722393E+03   -0.11715E-02   -0.11670E-02  9568   0.157E-01 0.956E-04
CGA:   8    -0.313623049237E+03   -0.32684E-03   -0.32573E-03  9568   0.544E-02 0.294E-04
CGA:   9    -0.313623276671E+03   -0.22743E-03   -0.22744E-03  9568   0.179E-02 0.153E-05
CGA:  10    -0.313623380342E+03   -0.10367E-03   -0.10370E-03  9568   0.338E-02-0.105E-05
CGA:  11    -0.313623473561E+03   -0.93219E-04   -0.93321E-04  9568   0.780E-03 0.978E-06
CGA:  12    -0.313623511513E+03   -0.37952E-04   -0.37962E-04  9568   0.435E-03-0.120E-05
CGA:  13    -0.313623523124E+03   -0.11610E-04   -0.11612E-04  9568   0.319E-03 0.411E-07
CGA:  14    -0.313623543481E+03   -0.20358E-04   -0.20379E-04  9568   0.346E-03-0.967E-06
CGA:  15    -0.313623553731E+03   -0.10249E-04   -0.10253E-04  9568   0.119E-03 0.948E-07
CGA:  16    -0.313623559268E+03   -0.55374E-05   -0.55388E-05  9568   0.152E-03-0.443E-06
  61 F= -.31362356E+03 E0= -.31360411E+03  d E =0.394823E-04  mag=    24.0315
       N       E                     dE             d eps       ncg     rms          ort
SDA:   1    -0.313590066311E+03    0.33487E-01    0.00000E+00  9568   0.164E+00 0.000E+00
CGA:   2    -0.313594780463E+03   -0.47142E-02   -0.47006E-02  9568   0.193E+00-0.181E-05
CGA:   3    -0.313606673576E+03   -0.11893E-01   -0.11919E-01  9568   0.174E+00-0.109E-02
CGA:   4    -0.313613343803E+03   -0.66702E-02   -0.66645E-02  9568   0.822E-01-0.452E-03
CGA:   5    -0.313617216260E+03   -0.38725E-02   -0.38748E-02  9568   0.564E-01-0.320E-03
CGA:   6    -0.313619837818E+03   -0.26216E-02   -0.26200E-02  9568   0.761E-01 0.257E-03
CGA:   7    -0.313621763274E+03   -0.19255E-02   -0.19136E-02  9568   0.153E-01 0.147E-03
CGA:   8    -0.313622550629E+03   -0.78736E-03   -0.78683E-03  9568   0.800E-02 0.417E-04
CGA:   9    -0.313622885021E+03   -0.33439E-03   -0.33441E-03  9568   0.858E-02 0.735E-05
CGA:  10    -0.313623118826E+03   -0.23381E-03   -0.23399E-03  9568   0.373E-02-0.348E-06
CGA:  11    -0.313623314461E+03   -0.19563E-03   -0.19558E-03  9568   0.131E-02 0.345E-05
CGA:  12    -0.313623361604E+03   -0.47143E-04   -0.47146E-04  9568   0.127E-02 0.303E-06
CGA:  13    -0.313623411264E+03   -0.49660E-04   -0.49661E-04  9568   0.995E-03-0.710E-06
CGA:  14    -0.313623443595E+03   -0.32331E-04   -0.32313E-04  9568   0.518E-03-0.714E-06
CGA:  15    -0.313623475107E+03   -0.31512E-04   -0.31476E-04  9568   0.230E-03 0.168E-05
CGA:  16    -0.313623481080E+03   -0.59732E-05   -0.59807E-05  9568   0.202E-03 0.280E-06
CGA:  17    -0.313623494578E+03   -0.13498E-04   -0.13492E-04  9568   0.117E-03 0.216E-06
CGA:  18    -0.313623501748E+03   -0.71698E-05   -0.71670E-05  9568   0.182E-03 0.119E-06
  62 F= -.31362350E+03 E0= -.31360405E+03  d E =0.575202E-04  mag=    24.0316
