       N       E                     dE             d eps       ncg     rms          ort
DAV:   1     0.513822536528E+04    0.51382E+04   -0.23278E+05 19240   0.170E+03
DAV:   2     0.167477713575E+03   -0.49707E+04   -0.46295E+04 19240   0.481E+02
DAV:   3    -0.589817560407E+03   -0.75730E+03   -0.72071E+03 19240   0.190E+02
DAV:   4    -0.621566732526E+03   -0.31749E+02   -0.31556E+02 19240   0.413E+01
DAV:   5    -0.622502825651E+03   -0.93609E+00   -0.93543E+00 19240   0.767E+00
SDA:   6    -0.496204501936E+03    0.12630E+03   -0.93543E+00 19240   0.339E+02 0.000E+00
CGA:   7    -0.500860061596E+03   -0.46556E+01   -0.46716E+01 19240   0.305E+01-0.205E-02
CGA:   8    -0.501468771283E+03   -0.60871E+00   -0.60874E+00 19240   0.644E+00-0.136E-01
CGA:   9    -0.501617912727E+03   -0.14914E+00   -0.14963E+00 19240   0.181E+00-0.136E-01
CGA:  10    -0.501656578337E+03   -0.38666E-01   -0.38923E-01 19240   0.541E-01-0.122E-01
CGA:  11    -0.501667745844E+03   -0.11168E-01   -0.11311E-01 19240   0.208E-01-0.589E-02
CGA:  12    -0.501673015955E+03   -0.52701E-02   -0.56203E-02 19240   0.111E-01-0.342E-02
CGA:  13    -0.501675830573E+03   -0.28146E-02   -0.31038E-02 19240   0.524E-02-0.225E-02
CGA:  14    -0.501677070073E+03   -0.12395E-02   -0.14067E-02 19240   0.211E-02-0.135E-02
CGA:  15    -0.501677532132E+03   -0.46206E-03   -0.54388E-03 19240   0.903E-03-0.639E-03
CGA:  16    -0.501677691048E+03   -0.15892E-03   -0.15759E-03 19240   0.269E-03 0.534E-04
CGA:  17    -0.501677716530E+03   -0.25482E-04   -0.39338E-04 19240   0.129E-03 0.157E-03
CGA:  18    -0.501677721361E+03   -0.48318E-05   -0.15029E-04 19240   0.775E-04 0.965E-04
   1 F= -.50167772E+03 E0= -.50167772E+03  d E =-.501678E+03  mag=     6.0000
