       N       E                     dE             d eps       ncg     rms          rms(c)
DAV:   1     0.206293675139E+04    0.20629E+04   -0.86466E+04 89120   0.172E+03
DAV:   2     0.326615260153E+02   -0.20303E+04   -0.19058E+04 90900   0.520E+02
DAV:   3    -0.216104591279E+03   -0.24877E+03   -0.24589E+03 97510   0.192E+02
DAV:   4    -0.227035233221E+03   -0.10931E+02   -0.10842E+02130840   0.343E+01
DAV:   5    -0.227419608651E+03   -0.38438E+00   -0.38268E+00137460   0.513E+00    0.355E+01
DAV:   6    -0.187520782475E+03    0.39899E+02   -0.10126E+02103080   0.416E+01    0.358E+01
DAV:   7    -0.190363401378E+03   -0.28426E+01   -0.87171E+00100710   0.140E+01    0.213E+01
DAV:   8    -0.190611842293E+03   -0.24844E+00   -0.91090E-01109590   0.470E+00    0.133E+01
DAV:   9    -0.190869765167E+03   -0.25792E+00   -0.63400E-01 99750   0.423E+00    0.189E+00
DAV:  10    -0.190883608543E+03   -0.13843E-01   -0.16042E-01113380   0.200E+00    0.692E-01
DAV:  11    -0.190886059625E+03   -0.24511E-02   -0.20652E-02117580   0.658E-01    0.275E-01
DAV:  12    -0.190886959810E+03   -0.90018E-03   -0.24656E-03116010   0.278E-01    0.120E-01
DAV:  13    -0.190887786410E+03   -0.82660E-03   -0.13929E-03109080   0.183E-01    0.639E-02
DAV:  14    -0.190887526875E+03    0.25953E-03   -0.28256E-04 99190   0.780E-02    0.424E-02
DAV:  15    -0.190887506537E+03    0.20338E-04   -0.72617E-05 91780   0.315E-02    0.190E-02
DAV:  16    -0.190887356302E+03    0.15024E-03   -0.46390E-05 91180   0.238E-02    0.147E-02
DAV:  17    -0.190887382997E+03   -0.26695E-04   -0.52273E-06 70330   0.158E-02    0.969E-03
DAV:  18    -0.190887409006E+03   -0.26009E-04   -0.10498E-05 67200   0.170E-02    0.502E-03
DAV:  19    -0.190887423567E+03   -0.14561E-04   -0.21569E-06 55650   0.682E-03    0.387E-03
DAV:  20    -0.190887414795E+03    0.87716E-05   -0.86894E-07 51910   0.520E-03
   1 F= -.19088741E+03 E0= -.19088741E+03  d E =-.190887E+03  mag=    20.0001
       N       E                     dE             d eps       ncg     rms          rms(c)
DAV:   1    -0.190880632186E+03    0.67914E-02   -0.39048E-01110740   0.678E+00    0.749E-01
DAV:   2    -0.190888905206E+03   -0.82730E-02   -0.10905E-01 91190   0.140E+00    0.503E-01
DAV:   3    -0.190887949919E+03    0.95529E-03   -0.52106E-03103970   0.397E-01    0.218E-01
DAV:   4    -0.190888120489E+03   -0.17057E-03   -0.74125E-04115020   0.171E-01    0.117E-01
DAV:   5    -0.190888221358E+03   -0.10087E-03   -0.22340E-04123000   0.877E-02    0.658E-02
DAV:   6    -0.190888255959E+03   -0.34601E-04   -0.60482E-05102410   0.431E-02    0.278E-02
DAV:   7    -0.190888206534E+03    0.49425E-04   -0.11627E-05 71260   0.189E-02    0.911E-03
DAV:   8    -0.190888233292E+03   -0.26758E-04   -0.37229E-06 54830   0.896E-03    0.439E-03
DAV:   9    -0.190888210673E+03    0.22619E-04   -0.18976E-06 52100   0.628E-03    0.223E-03
DAV:  10    -0.190888212246E+03   -0.15726E-05   -0.86322E-07 50700   0.361E-03
   2 F= -.19088821E+03 E0= -.19088821E+03  d E =-.797451E-03  mag=    20.0000
       N       E                     dE             d eps       ncg     rms          rms(c)
DAV:   1    -0.190885243097E+03    0.29676E-02   -0.15732E-01110680   0.430E+00    0.475E-01
DAV:   2    -0.190888422053E+03   -0.31790E-02   -0.43872E-02 90900   0.888E-01    0.317E-01
DAV:   3    -0.190887866318E+03    0.55573E-03   -0.20999E-03103890   0.253E-01    0.139E-01
DAV:   4    -0.190888045506E+03   -0.17919E-03   -0.29708E-04112670   0.108E-01    0.745E-02
DAV:   5    -0.190888131477E+03   -0.85971E-04   -0.88791E-05114980   0.551E-02    0.419E-02
DAV:   6    -0.190888155437E+03   -0.23959E-04   -0.22681E-05 80780   0.277E-02    0.178E-02
DAV:   7    -0.190888126763E+03    0.28674E-04   -0.65495E-06 59530   0.134E-02    0.562E-03
DAV:   8    -0.190888145932E+03   -0.19169E-04   -0.25140E-06 51880   0.697E-03    0.307E-03
DAV:   9    -0.190888131875E+03    0.14057E-04   -0.12690E-06 49980   0.467E-03    0.158E-03
DAV:  10    -0.190888132176E+03   -0.30169E-06   -0.68664E-07 48940   0.318E-03
   3 F= -.19088813E+03 E0= -.19088813E+03  d E =-.717381E-03  mag=    20.0000
