       N       E                     dE             d eps       ncg     rms          rms(c)
DAV:   1     0.539719361113E+04    0.53972E+04   -0.23795E+05 30944   0.153E+03
DAV:   2     0.277917001950E+03   -0.51193E+04   -0.48614E+04 30528   0.451E+02
DAV:   3    -0.377913950118E+03   -0.65583E+03   -0.64087E+03 32736   0.173E+02
DAV:   4    -0.403224403034E+03   -0.25310E+02   -0.24887E+02 37248   0.392E+01
DAV:   5    -0.404194722874E+03   -0.97032E+00   -0.96470E+00 43416   0.670E+00    0.917E+01
DAV:   6    -0.299377092587E+03    0.10482E+03   -0.33544E+02 39176   0.624E+01    0.866E+01
DAV:   7    -0.328184031155E+03   -0.28807E+02   -0.30216E+02 38216   0.859E+01    0.827E+01
DAV:   8    -0.345089206884E+03   -0.16905E+02   -0.21068E+02 38976   0.573E+01    0.984E+01
DAV:   9    -0.304760351687E+03    0.40329E+02   -0.10787E+02 38688   0.368E+01    0.689E+01
DAV:  10    -0.280003098484E+03    0.24757E+02   -0.65373E+01 40488   0.234E+01    0.516E+01
DAV:  11    -0.282457463118E+03   -0.24544E+01   -0.80896E+01 40640   0.215E+01    0.595E+01
DAV:  12    -0.279868796716E+03    0.25887E+01   -0.53181E+01 40128   0.164E+01    0.500E+01
DAV:  13    -0.275896653291E+03    0.39721E+01   -0.24984E+01 39928   0.132E+01    0.469E+01
DAV:  14    -0.281131197792E+03   -0.52345E+01   -0.35047E+01 39120   0.889E+00    0.380E+01
DAV:  15    -0.288015064480E+03   -0.68839E+01   -0.13128E+01 36224   0.668E+00    0.355E+01
DAV:  16    -0.293924490438E+03   -0.59094E+01   -0.14560E+01 38200   0.570E+00    0.341E+01
DAV:  17    -0.299461101927E+03   -0.55366E+01   -0.77119E+00 36704   0.494E+00    0.317E+01
DAV:  18    -0.299717549176E+03   -0.25645E+00   -0.29221E-01 30880   0.173E+00    0.304E+01
DAV:  19    -0.305569481512E+03   -0.58519E+01   -0.18114E+00 38216   0.326E+00    0.315E+01
DAV:  20    -0.309264281503E+03   -0.36948E+01   -0.86177E-01 37200   0.293E+00    0.280E+01
DAV:  21    -0.317166978728E+03   -0.79027E+01   -0.30588E+00 37848   0.403E+00    0.249E+01
DAV:  22    -0.325329875575E+03   -0.81629E+01   -0.49510E+00 37640   0.514E+00    0.240E+01
DAV:  23    -0.335011141747E+03   -0.96813E+01   -0.91841E+00 36992   0.587E+00    0.199E+01
DAV:  24    -0.339125608983E+03   -0.41145E+01   -0.47935E+00 37344   0.448E+00    0.187E+01
DAV:  25    -0.340087724153E+03   -0.96212E+00   -0.10122E+00 37448   0.253E+00    0.161E+01
DAV:  26    -0.340724927765E+03   -0.63720E+00   -0.72754E-01 40496   0.230E+00    0.151E+01
DAV:  27    -0.340716666735E+03    0.82610E-02   -0.60900E-01 38592   0.205E+00    0.141E+01
DAV:  28    -0.340720131409E+03   -0.34647E-02   -0.44114E-02 31264   0.711E-01    0.152E+01
DAV:  29    -0.341758258953E+03   -0.10381E+01   -0.86853E-01 37944   0.239E+00    0.169E+01
DAV:  30    -0.342340384279E+03   -0.58213E+00   -0.80840E-01 38520   0.229E+00    0.956E+00
DAV:  31    -0.342965508475E+03   -0.62512E+00   -0.53689E-01 37096   0.176E+00    0.735E+00
DAV:  32    -0.343302119618E+03   -0.33661E+00   -0.21474E-01 36888   0.117E+00    0.834E+00
DAV:  33    -0.343416253265E+03   -0.11413E+00   -0.19801E-01 37328   0.100E+00    0.678E+00
DAV:  34    -0.343481616720E+03   -0.65363E-01   -0.82355E-02 37048   0.766E-01    0.542E+00
DAV:  35    -0.343523577673E+03   -0.41961E-01   -0.83670E-02 39344   0.697E-01    0.442E+00
DAV:  36    -0.343559815775E+03   -0.36238E-01   -0.58912E-02 39648   0.725E-01    0.339E+00
DAV:  37    -0.343581549199E+03   -0.21733E-01   -0.18306E-02 34368   0.368E-01    0.351E+00
DAV:  38    -0.343585917431E+03   -0.43682E-02   -0.60782E-03 37136   0.277E-01    0.325E+00
DAV:  39    -0.343596924684E+03   -0.11007E-01   -0.25897E-02 39536   0.482E-01    0.317E+00
DAV:  40    -0.343610911685E+03   -0.13987E-01   -0.23883E-02 39048   0.461E-01    0.299E+00
DAV:  41    -0.343615196561E+03   -0.42849E-02   -0.17016E-02 38680   0.364E-01    0.231E+00
DAV:  42    -0.343619903073E+03   -0.47065E-02   -0.12882E-02 40808   0.266E-01    0.207E+00
DAV:  43    -0.343620271320E+03   -0.36825E-03   -0.49006E-03 38792   0.237E-01    0.137E+00
DAV:  44    -0.343621490670E+03   -0.12194E-02   -0.79323E-03 38544   0.218E-01    0.101E+00
DAV:  45    -0.343622588614E+03   -0.10979E-02   -0.32321E-03 35048   0.187E-01    0.832E-01
DAV:  46    -0.343622767020E+03   -0.17841E-03   -0.14654E-03 39256   0.134E-01    0.730E-01
DAV:  47    -0.343623012322E+03   -0.24530E-03   -0.26346E-03 38048   0.121E-01    0.837E-01
DAV:  48    -0.343621949346E+03    0.10630E-02   -0.25207E-03 39856   0.142E-01    0.362E-01
DAV:  49    -0.343622185209E+03   -0.23586E-03   -0.89753E-04 35032   0.783E-02    0.420E-01
DAV:  50    -0.343622208229E+03   -0.23019E-04   -0.30632E-04 37512   0.578E-02    0.326E-01
DAV:  51    -0.343622237007E+03   -0.28779E-04   -0.18841E-04 33440   0.387E-02    0.314E-01
DAV:  52    -0.343622085383E+03    0.15162E-03   -0.23492E-04 37368   0.460E-02    0.243E-01
DAV:  53    -0.343622104592E+03   -0.19209E-04   -0.24118E-04 34984   0.460E-02    0.271E-01
DAV:  54    -0.343621994664E+03    0.10993E-03   -0.18840E-04 33784   0.454E-02    0.171E-01
DAV:  55    -0.343622019082E+03   -0.24418E-04   -0.85773E-05 30720   0.278E-02    0.138E-01
DAV:  56    -0.343622079144E+03   -0.60062E-04   -0.16733E-04 26120   0.296E-02    0.167E-01
DAV:  57    -0.343622045555E+03    0.33589E-04   -0.62347E-05 23440   0.218E-02    0.967E-02
DAV:  58    -0.343622031868E+03    0.13687E-04   -0.53577E-05 22264   0.202E-02    0.717E-02
DAV:  59    -0.343622024788E+03    0.70800E-05   -0.30002E-05 19136   0.168E-02
   1 F= -.34362202E+03 E0= -.34360390E+03  d E =-.343622E+03  mag=    20.0142
       N       E                     dE             d eps       ncg     rms          rms(c)
DAV:   1    -0.343623154091E+03   -0.11222E-02   -0.36109E-04 30976   0.615E-02    0.536E-02
DAV:   2    -0.343623415950E+03   -0.26186E-03   -0.79899E-04 32920   0.649E-02    0.431E-01
DAV:   3    -0.343623063954E+03    0.35200E-03   -0.66991E-04 31864   0.622E-02    0.888E-02
DAV:   4    -0.343623145069E+03   -0.81116E-04   -0.46629E-05 22256   0.189E-02    0.309E-02
DAV:   5    -0.343623161558E+03   -0.16488E-04   -0.31725E-05 18528   0.149E-02    0.631E-02
DAV:   6    -0.343623155422E+03    0.61356E-05   -0.38238E-05 17904   0.158E-02
   2 F= -.34362316E+03 E0= -.34360500E+03  d E =-.113063E-02  mag=    20.0088
       N       E                     dE             d eps       ncg     rms          rms(c)
DAV:   1    -0.343650768904E+03   -0.27607E-01   -0.24721E-01 32880   0.159E+00    0.218E-01
DAV:   2    -0.343655097384E+03   -0.43285E-02   -0.27443E-02 34416   0.348E-01    0.166E+00
DAV:   3    -0.343651229637E+03    0.38677E-02   -0.13204E-02 39240   0.208E-01    0.323E-01
DAV:   4    -0.343652648631E+03   -0.14190E-02   -0.28962E-03 35992   0.111E-01    0.424E-01
DAV:   5    -0.343652402898E+03    0.24573E-03   -0.20650E-03 36440   0.875E-02    0.256E-01
DAV:   6    -0.343652356957E+03    0.45942E-04   -0.36672E-04 31792   0.523E-02    0.105E-01
DAV:   7    -0.343652436423E+03   -0.79466E-04   -0.24161E-04 26784   0.401E-02    0.234E-01
DAV:   8    -0.343652330801E+03    0.10562E-03   -0.21650E-04 31568   0.441E-02    0.567E-02
DAV:   9    -0.343652382998E+03   -0.52198E-04   -0.13179E-04 25744   0.315E-02    0.140E-01
DAV:  10    -0.343652360809E+03    0.22189E-04   -0.90937E-05 22232   0.287E-02    0.923E-02
DAV:  11    -0.343652361222E+03   -0.41306E-06   -0.27312E-05 18664   0.172E-02
   3 F= -.34365236E+03 E0= -.34363421E+03  d E =-.292058E-01  mag=    20.0029
       N       E                     dE             d eps       ncg     rms          rms(c)
DAV:   1    -0.343717243448E+03   -0.64883E-01   -0.20554E+00 32800   0.456E+00    0.591E-01
DAV:   2    -0.343749515009E+03   -0.32272E-01   -0.21090E-01 33656   0.953E-01    0.467E+00
DAV:   3    -0.343722323584E+03    0.27191E-01   -0.11393E-01 38656   0.534E-01    0.734E-01
DAV:   4    -0.343733605289E+03   -0.11282E-01   -0.26682E-02 35464   0.313E-01    0.143E+00
DAV:   5    -0.343729902976E+03    0.37023E-02   -0.18215E-02 37816   0.248E-01    0.538E-01
DAV:   6    -0.343730477919E+03   -0.57494E-03   -0.21435E-03 39504   0.131E-01    0.368E-01
DAV:   7    -0.343730925553E+03   -0.44763E-03   -0.18520E-03 40096   0.125E-01    0.641E-01
DAV:   8    -0.343730164288E+03    0.76126E-03   -0.14835E-03 40168   0.119E-01    0.187E-01
DAV:   9    -0.343730549337E+03   -0.38505E-03   -0.80326E-04 38416   0.888E-02    0.384E-01
DAV:  10    -0.343730363395E+03    0.18594E-03   -0.57919E-04 37936   0.726E-02    0.260E-01
DAV:  11    -0.343730357203E+03    0.61919E-05   -0.23871E-04 27920   0.415E-02    0.191E-01
DAV:  12    -0.343730362039E+03   -0.48358E-05   -0.10205E-04 24256   0.302E-02    0.136E-01
DAV:  13    -0.343730356012E+03    0.60269E-05   -0.80195E-05 21336   0.242E-02
   4 F= -.34373036E+03 E0= -.34371227E+03  d E =-.779948E-01  mag=    20.0008
       N       E                     dE             d eps       ncg     rms          rms(c)
DAV:   1    -0.343803512764E+03   -0.73151E-01   -0.55276E+00 32760   0.748E+00    0.936E-01
DAV:   2    -0.343882768574E+03   -0.79256E-01   -0.51761E-01 33328   0.155E+00    0.715E+00
DAV:   3    -0.343820889328E+03    0.61879E-01   -0.26145E-01 38904   0.806E-01    0.117E+00
DAV:   4    -0.343846056917E+03   -0.25168E-01   -0.60614E-02 36080   0.484E-01    0.223E+00
DAV:   5    -0.343838046179E+03    0.80107E-02   -0.46786E-02 37888   0.395E-01    0.100E+00
DAV:   6    -0.343838658551E+03   -0.61237E-03   -0.65711E-03 39680   0.223E-01    0.532E-01
DAV:   7    -0.343839898747E+03   -0.12402E-02   -0.46256E-03 39864   0.204E-01    0.956E-01
DAV:   8    -0.343838148176E+03    0.17506E-02   -0.43134E-03 40472   0.196E-01    0.373E-01
DAV:   9    -0.343838973840E+03   -0.82566E-03   -0.20049E-03 40400   0.145E-01    0.608E-01
DAV:  10    -0.343838569039E+03    0.40480E-03   -0.16354E-03 39632   0.119E-01    0.419E-01
DAV:  11    -0.343838545935E+03    0.23104E-04   -0.63822E-04 36040   0.704E-02    0.306E-01
DAV:  12    -0.343838535552E+03    0.10383E-04   -0.15302E-04 28712   0.448E-02    0.220E-01
DAV:  13    -0.343838534823E+03    0.72920E-06   -0.10129E-04 22520   0.246E-02    0.193E-01
DAV:  14    -0.343838540661E+03   -0.58382E-05   -0.82117E-05 21688   0.239E-02
   5 F= -.34383854E+03 E0= -.34382056E+03  d E =-.108185E+00  mag=    20.0002
       N       E                     dE             d eps       ncg     rms          rms(c)
DAV:   1    -0.343866817713E+03   -0.28283E-01   -0.15825E+01 32392   0.128E+01    0.148E+00
DAV:   2    -0.344049983174E+03   -0.18317E+00   -0.13247E+00 32328   0.258E+00    0.947E+00
DAV:   3    -0.343939579280E+03    0.11040E+00   -0.47803E-01 39512   0.118E+00    0.217E+00
DAV:   4    -0.343983076619E+03   -0.43497E-01   -0.14207E-01 38680   0.758E-01    0.326E+00
DAV:   5    -0.343971101164E+03    0.11975E-01   -0.13967E-01 38928   0.660E-01    0.219E+00
DAV:   6    -0.343966705791E+03    0.43954E-02   -0.36936E-02 39928   0.412E-01    0.755E-01
DAV:   7    -0.343971846504E+03   -0.51407E-02   -0.12897E-02 39576   0.322E-01    0.180E+00
DAV:   8    -0.343966149555E+03    0.56969E-02   -0.11558E-02 39600   0.318E-01    0.601E-01
DAV:   9    -0.343968466832E+03   -0.23173E-02   -0.53660E-03 39552   0.234E-01    0.974E-01
DAV:  10    -0.343967501611E+03    0.96522E-03   -0.36711E-03 40064   0.188E-01    0.634E-01
DAV:  11    -0.343967435944E+03    0.65667E-04   -0.18853E-03 38976   0.125E-01    0.410E-01
DAV:  12    -0.343967476439E+03   -0.40495E-04   -0.67427E-04 38264   0.857E-02    0.291E-01
DAV:  13    -0.343967481745E+03   -0.53059E-05   -0.58950E-04 31888   0.612E-02    0.279E-01
DAV:  14    -0.343967446259E+03    0.35486E-04   -0.27536E-04 32648   0.551E-02    0.165E-01
DAV:  15    -0.343967538798E+03   -0.92540E-04   -0.28278E-04 27904   0.505E-02    0.258E-01
DAV:  16    -0.343967480181E+03    0.58617E-04   -0.24671E-04 30128   0.496E-02    0.209E-01
DAV:  17    -0.343967477148E+03    0.30326E-05   -0.98541E-05 26608   0.332E-02
   6 F= -.34396748E+03 E0= -.34394969E+03  d E =-.128936E+00  mag=    20.0001
       N       E                     dE             d eps       ncg     rms          rms(c)
DAV:   1    -0.343893281907E+03    0.74198E-01   -0.28963E+01 31864   0.168E+01    0.169E+00
DAV:   2    -0.344106136396E+03   -0.21285E+00   -0.19193E+00 30776   0.318E+00    0.684E+00
DAV:   3    -0.344049909161E+03    0.56227E-01   -0.35056E-01 40608   0.111E+00    0.274E+00
DAV:   4    -0.344078463343E+03   -0.28554E-01   -0.14479E-01 39968   0.837E-01    0.373E+00
DAV:   5    -0.344061187510E+03    0.17276E-01   -0.13942E-01 39808   0.708E-01    0.219E+00
DAV:   6    -0.344059211234E+03    0.19763E-02   -0.46531E-02 39432   0.425E-01    0.109E+00
DAV:   7    -0.344065563297E+03   -0.63521E-02   -0.21103E-02 40504   0.397E-01    0.214E+00
DAV:   8    -0.344057125814E+03    0.84375E-02   -0.20075E-02 40352   0.420E-01    0.843E-01
DAV:   9    -0.344062105294E+03   -0.49795E-02   -0.13289E-02 39928   0.343E-01    0.168E+00
DAV:  10    -0.344058249678E+03    0.38556E-02   -0.91222E-03 39496   0.279E-01    0.798E-01
DAV:  11    -0.344058682591E+03   -0.43291E-03   -0.34995E-03 38848   0.162E-01    0.507E-01
DAV:  12    -0.344058826998E+03   -0.14441E-03   -0.20468E-03 38920   0.116E-01    0.343E-01
DAV:  13    -0.344058865807E+03   -0.38809E-04   -0.13050E-03 38192   0.858E-02    0.337E-01
DAV:  14    -0.344058866390E+03   -0.58334E-06   -0.49842E-04 37352   0.763E-02    0.220E-01
DAV:  15    -0.344058936596E+03   -0.70207E-04   -0.43382E-04 32080   0.608E-02    0.286E-01
DAV:  16    -0.344058867118E+03    0.69479E-04   -0.26275E-04 29632   0.466E-02    0.207E-01
DAV:  17    -0.344058883988E+03   -0.16870E-04   -0.11187E-04 25376   0.339E-02    0.205E-01
DAV:  18    -0.344058866992E+03    0.16996E-04   -0.12089E-04 24624   0.353E-02    0.165E-01
DAV:  19    -0.344058909439E+03   -0.42447E-04   -0.23485E-04 25488   0.418E-02    0.208E-01
DAV:  20    -0.344058846629E+03    0.62811E-04   -0.17338E-04 34000   0.476E-02    0.956E-02
DAV:  21    -0.344058865786E+03   -0.19158E-04   -0.86494E-05 26456   0.276E-02    0.800E-02
DAV:  22    -0.344058871375E+03   -0.55882E-05   -0.22046E-05 21608   0.188E-02
   7 F= -.34405887E+03 E0= -.34404159E+03  d E =-.913942E-01  mag=    20.0000
       N       E                     dE             d eps       ncg     rms          rms(c)
DAV:   1    -0.343955085177E+03    0.10378E+00   -0.36412E+01 31496   0.173E+01    0.148E+00
DAV:   2    -0.344122558345E+03   -0.16747E+00   -0.16826E+00 30400   0.308E+00    0.332E+00
DAV:   3    -0.344117363747E+03    0.51946E-02   -0.20067E-01 41264   0.102E+00    0.296E+00
DAV:   4    -0.344116969428E+03    0.39432E-03   -0.11390E-01 39872   0.670E-01    0.266E+00
DAV:   5    -0.344106826779E+03    0.10143E-01   -0.35449E-02 39808   0.450E-01    0.951E-01
DAV:   6    -0.344110971759E+03   -0.41450E-02   -0.11454E-02 40088   0.258E-01    0.159E+00
DAV:   7    -0.344111316569E+03   -0.34481E-03   -0.23555E-02 40240   0.355E-01    0.201E+00
DAV:   8    -0.344106235892E+03    0.50807E-02   -0.18917E-02 39792   0.353E-01    0.983E-01
DAV:   9    -0.344109832324E+03   -0.35964E-02   -0.11239E-02 39312   0.307E-01    0.147E+00
DAV:  10    -0.344106301017E+03    0.35313E-02   -0.70178E-03 39616   0.257E-01    0.376E-01
DAV:  11    -0.344108065747E+03   -0.17647E-02   -0.33310E-03 38896   0.155E-01    0.779E-01
DAV:  12    -0.344107237341E+03    0.82841E-03   -0.22985E-03 39864   0.130E-01    0.309E-01
DAV:  13    -0.344107498170E+03   -0.26083E-03   -0.11033E-03 38184   0.888E-02    0.342E-01
DAV:  14    -0.344107540573E+03   -0.42403E-04   -0.54440E-04 36624   0.669E-02    0.325E-01
DAV:  15    -0.344107454023E+03    0.86551E-04   -0.42422E-04 30440   0.538E-02    0.205E-01
DAV:  16    -0.344107553459E+03   -0.99436E-04   -0.26106E-04 31504   0.512E-02    0.264E-01
DAV:  17    -0.344107542022E+03    0.11437E-04   -0.35395E-04 28168   0.536E-02    0.247E-01
DAV:  18    -0.344107533739E+03    0.82825E-05   -0.29028E-04 34928   0.574E-02    0.220E-01
DAV:  19    -0.344107654164E+03   -0.12042E-03   -0.83981E-04 30224   0.606E-02    0.338E-01
DAV:  20    -0.344107450252E+03    0.20391E-03   -0.68820E-04 37288   0.649E-02    0.967E-02
DAV:  21    -0.344107510507E+03   -0.60256E-04   -0.53295E-05 27184   0.273E-02    0.933E-02
DAV:  22    -0.344107524743E+03   -0.14236E-04   -0.56439E-05 24864   0.248E-02    0.463E-02
DAV:  23    -0.344107533401E+03   -0.86577E-05   -0.24922E-05 24528   0.171E-02
   8 F= -.34410753E+03 E0= -.34409070E+03  d E =-.486620E-01  mag=    20.0000
       N       E                     dE             d eps       ncg     rms          rms(c)
DAV:   1    -0.343905630819E+03    0.20189E+00   -0.58552E+01 31504   0.216E+01    0.167E+00
DAV:   2    -0.344153677183E+03   -0.24805E+00   -0.24618E+00 30024   0.376E+00    0.441E+00
DAV:   3    -0.344138826647E+03    0.14851E-01   -0.32899E-01 41416   0.111E+00    0.313E+00
DAV:   4    -0.344145114650E+03   -0.62880E-02   -0.68045E-02 40160   0.754E-01    0.341E+00
DAV:   5    -0.344127418991E+03    0.17696E-01   -0.49168E-02 39288   0.540E-01    0.101E+00
DAV:   6    -0.344133475979E+03   -0.60570E-02   -0.23989E-02 38936   0.323E-01    0.142E+00
DAV:   7    -0.344132585044E+03    0.89094E-03   -0.38547E-02 39720   0.383E-01    0.156E+00
DAV:   8    -0.344130157275E+03    0.24278E-02   -0.21813E-02 40984   0.335E-01    0.121E+00
DAV:   9    -0.344132698175E+03   -0.25409E-02   -0.14608E-02 39640   0.318E-01    0.147E+00
DAV:  10    -0.344129164205E+03    0.35340E-02   -0.95473E-03 39624   0.273E-01    0.634E-01
DAV:  11    -0.344129943224E+03   -0.77902E-03   -0.28453E-03 38984   0.146E-01    0.607E-01
DAV:  12    -0.344129764038E+03    0.17919E-03   -0.26107E-03 39720   0.126E-01    0.346E-01
DAV:  13    -0.344129876434E+03   -0.11240E-03   -0.11617E-03 39064   0.987E-02    0.307E-01
DAV:  14    -0.344129868749E+03    0.76853E-05   -0.36860E-04 35240   0.689E-02    0.249E-01
DAV:  15    -0.344129915091E+03   -0.46343E-04   -0.48748E-04 29040   0.562E-02    0.268E-01
DAV:  16    -0.344129877515E+03    0.37576E-04   -0.29675E-04 29784   0.492E-02    0.209E-01
DAV:  17    -0.344129905156E+03   -0.27641E-04   -0.16555E-04 25544   0.413E-02    0.236E-01
DAV:  18    -0.344129855892E+03    0.49264E-04   -0.21512E-04 33744   0.492E-02    0.116E-01
DAV:  19    -0.344129974276E+03   -0.11838E-03   -0.37535E-04 35848   0.508E-02    0.305E-01
DAV:  20    -0.344129822658E+03    0.15162E-03   -0.36700E-04 31728   0.471E-02    0.102E-01
DAV:  21    -0.344129893619E+03   -0.70960E-04   -0.53250E-05 26952   0.275E-02    0.105E-01
DAV:  22    -0.344129894528E+03   -0.90949E-06   -0.61380E-05 25520   0.234E-02
   9 F= -.34412989E+03 E0= -.34411346E+03  d E =-.223611E-01  mag=    20.0000
       N       E                     dE             d eps       ncg     rms          rms(c)
DAV:   1    -0.344054900653E+03    0.74993E-01   -0.25712E+01 32080   0.152E+01    0.107E+00
DAV:   2    -0.344165617139E+03   -0.11072E+00   -0.10788E+00 30376   0.258E+00    0.276E+00
DAV:   3    -0.344160080432E+03    0.55367E-02   -0.70399E-02 40792   0.816E-01    0.246E+00
DAV:   4    -0.344161807275E+03   -0.17268E-02   -0.53485E-02 39368   0.496E-01    0.213E+00
DAV:   5    -0.344154917997E+03    0.68893E-02   -0.34216E-02 39448   0.415E-01    0.680E-01
DAV:   6    -0.344156832598E+03   -0.19146E-02   -0.78565E-03 39960   0.218E-01    0.900E-01
DAV:   7    -0.344156462410E+03    0.37019E-03   -0.77820E-03 40192   0.220E-01    0.957E-01
DAV:   8    -0.344155189098E+03    0.12733E-02   -0.68671E-03 39664   0.197E-01    0.404E-01
DAV:   9    -0.344156065685E+03   -0.87659E-03   -0.26039E-03 38808   0.164E-01    0.646E-01
DAV:  10    -0.344155339078E+03    0.72661E-03   -0.17416E-03 39360   0.122E-01    0.247E-01
DAV:  11    -0.344155533484E+03   -0.19441E-03   -0.55252E-04 37560   0.738E-02    0.259E-01
DAV:  12    -0.344155490763E+03    0.42721E-04   -0.33757E-04 32072   0.566E-02    0.158E-01
DAV:  13    -0.344155499501E+03   -0.87373E-05   -0.18657E-04 25552   0.418E-02    0.140E-01
DAV:  14    -0.344155482532E+03    0.16968E-04   -0.84682E-05 22480   0.314E-02    0.783E-02
DAV:  15    -0.344155503054E+03   -0.20522E-04   -0.84828E-05 22224   0.247E-02    0.112E-01
DAV:  16    -0.344155489579E+03    0.13475E-04   -0.55638E-05 21328   0.253E-02    0.742E-02
DAV:  17    -0.344155491820E+03   -0.22409E-05   -0.30889E-05 19968   0.171E-02
  10 F= -.34415549E+03 E0= -.34413921E+03  d E =-.255973E-01  mag=    20.0000
       N       E                     dE             d eps       ncg     rms          rms(c)
DAV:   1    -0.343892226381E+03    0.26326E+00   -0.75029E+01 31608   0.256E+01    0.187E+00
DAV:   2    -0.344215223211E+03   -0.32300E+00   -0.31133E+00 30032   0.435E+00    0.433E+00
DAV:   3    -0.344212915918E+03    0.23073E-02   -0.22190E-01 41752   0.139E+00    0.502E+00
DAV:   4    -0.344188018942E+03    0.24897E-01   -0.14293E-01 39808   0.805E-01    0.227E+00
DAV:   5    -0.344186562601E+03    0.14563E-02   -0.20098E-02 39296   0.443E-01    0.105E+00
DAV:   6    -0.344191657401E+03   -0.50948E-02   -0.17093E-02 39784   0.378E-01    0.198E+00
DAV:   7    -0.344184555266E+03    0.71021E-02   -0.16788E-02 39912   0.354E-01    0.817E-01
DAV:   8    -0.344190534346E+03   -0.59791E-02   -0.32326E-02 39888   0.342E-01    0.189E+00
DAV:   9    -0.344185383167E+03    0.51512E-02   -0.20818E-02 39352   0.326E-01    0.917E-01
DAV:  10    -0.344185479029E+03   -0.95862E-04   -0.45796E-03 39624   0.216E-01    0.518E-01
DAV:  11    -0.344185925976E+03   -0.44695E-03   -0.45728E-03 39616   0.161E-01    0.548E-01
DAV:  12    -0.344185789023E+03    0.13695E-03   -0.24606E-03 39224   0.119E-01    0.427E-01
DAV:  13    -0.344185689810E+03    0.99213E-04   -0.63315E-04 37800   0.908E-02    0.217E-01
DAV:  14    -0.344185765531E+03   -0.75720E-04   -0.55569E-04 32568   0.604E-02    0.264E-01
DAV:  15    -0.344185750405E+03    0.15126E-04   -0.24351E-04 27928   0.438E-02    0.232E-01
DAV:  16    -0.344185708543E+03    0.41862E-04   -0.88275E-05 23416   0.323E-02    0.169E-01
DAV:  17    -0.344185762439E+03   -0.53896E-04   -0.22363E-04 25184   0.351E-02    0.218E-01
DAV:  18    -0.344185691851E+03    0.70588E-04   -0.20737E-04 26640   0.390E-02    0.106E-01
DAV:  19    -0.344185716095E+03   -0.24244E-04   -0.11041E-04 32400   0.312E-02    0.129E-01
DAV:  20    -0.344185724089E+03   -0.79946E-05   -0.18327E-04 25800   0.319E-02    0.150E-01
DAV:  21    -0.344185708508E+03    0.15581E-04   -0.97960E-05 25176   0.277E-02    0.431E-02
DAV:  22    -0.344185723263E+03   -0.14754E-04   -0.14860E-05 20736   0.122E-02    0.344E-02
DAV:  23    -0.344185723935E+03   -0.67245E-06   -0.60640E-06 17288   0.816E-03
  11 F= -.34418572E+03 E0= -.34416976E+03  d E =-.302321E-01  mag=    20.0000
       N       E                     dE             d eps       ncg     rms          rms(c)
DAV:   1    -0.344137567358E+03    0.48156E-01   -0.15315E+01 32128   0.121E+01    0.872E-01
DAV:   2    -0.344207362787E+03   -0.69795E-01   -0.64117E-01 30200   0.206E+00    0.330E+00
DAV:   3    -0.344198249769E+03    0.91130E-02   -0.10677E-01 38936   0.678E-01    0.179E+00
DAV:   4    -0.344201878536E+03   -0.36288E-02   -0.29962E-02 38240   0.400E-01    0.166E+00
DAV:   5    -0.344197133663E+03    0.47449E-02   -0.19280E-02 38856   0.282E-01    0.469E-01
DAV:   6    -0.344199155548E+03   -0.20219E-02   -0.39191E-03 39600   0.179E-01    0.949E-01
DAV:   7    -0.344198082130E+03    0.10734E-02   -0.42552E-03 39552   0.195E-01    0.723E-01
DAV:   8    -0.344197854650E+03    0.22748E-03   -0.34396E-03 39648   0.183E-01    0.475E-01
DAV:   9    -0.344198470440E+03   -0.61579E-03   -0.27173E-03 40256   0.157E-01    0.689E-01
DAV:  10    -0.344197777240E+03    0.69320E-03   -0.13276E-03 38712   0.117E-01    0.359E-01
DAV:  11    -0.344197957281E+03   -0.18004E-03   -0.71742E-04 37040   0.727E-02    0.381E-01
DAV:  12    -0.344197864099E+03    0.93182E-04   -0.45060E-04 33800   0.620E-02    0.227E-01
DAV:  13    -0.344197908118E+03   -0.44019E-04   -0.23089E-04 27632   0.461E-02    0.184E-01
DAV:  14    -0.344197893165E+03    0.14953E-04   -0.12439E-04 24216   0.345E-02    0.128E-01
DAV:  15    -0.344197943378E+03   -0.50213E-04   -0.10427E-04 23616   0.265E-02    0.197E-01
DAV:  16    -0.344197918147E+03    0.25231E-04   -0.86536E-05 21624   0.243E-02    0.180E-01
DAV:  17    -0.344197911666E+03    0.64808E-05   -0.27853E-05 22248   0.164E-02
  12 F= -.34419791E+03 E0= -.34418208E+03  d E =-.121877E-01  mag=    20.0000
       N       E                     dE             d eps       ncg     rms          rms(c)
DAV:   1    -0.344198923046E+03   -0.10049E-02   -0.15871E+00 32112   0.419E+00    0.425E-01
DAV:   2    -0.344215267095E+03   -0.16344E-01   -0.11843E-01 34056   0.828E-01    0.238E+00
DAV:   3    -0.344204958031E+03    0.10309E-01   -0.23027E-02 38064   0.457E-01    0.557E-01
DAV:   4    -0.344207717420E+03   -0.27594E-02   -0.62566E-03 36976   0.188E-01    0.717E-01
DAV:   5    -0.344206963126E+03    0.75429E-03   -0.34298E-03 38088   0.135E-01    0.284E-01
DAV:   6    -0.344207138929E+03   -0.17580E-03   -0.77766E-04 36880   0.757E-02    0.293E-01
DAV:   7    -0.344207314923E+03   -0.17599E-03   -0.10338E-03 39832   0.849E-02    0.439E-01
DAV:   8    -0.344206970517E+03    0.34441E-03   -0.83822E-04 39800   0.860E-02    0.184E-01
DAV:   9    -0.344207122485E+03   -0.15197E-03   -0.51325E-04 37528   0.675E-02    0.260E-01
DAV:  10    -0.344207047033E+03    0.75452E-04   -0.32216E-04 34560   0.563E-02    0.173E-01
DAV:  11    -0.344207041954E+03    0.50791E-05   -0.16222E-04 24184   0.364E-02    0.124E-01
DAV:  12    -0.344207043163E+03   -0.12093E-05   -0.67778E-05 22704   0.273E-02
  13 F= -.34420704E+03 E0= -.34419130E+03  d E =-.913150E-02  mag=    20.0000
       N       E                     dE             d eps       ncg     rms          rms(c)
DAV:   1    -0.344189253867E+03    0.17788E-01   -0.69696E+00 32392   0.814E+00    0.540E-01
DAV:   2    -0.344218052720E+03   -0.28799E-01   -0.28074E-01 30000   0.135E+00    0.126E+00
DAV:   3    -0.344218554790E+03   -0.50207E-03   -0.22363E-02 41480   0.408E-01    0.151E+00
DAV:   4    -0.344216546281E+03    0.20085E-02   -0.90138E-03 38880   0.265E-01    0.712E-01
DAV:   5    -0.344216401844E+03    0.14444E-03   -0.37501E-03 38776   0.161E-01    0.284E-01
DAV:   6    -0.344216835051E+03   -0.43321E-03   -0.19663E-03 39480   0.101E-01    0.486E-01
DAV:   7    -0.344216539762E+03    0.29529E-03   -0.10743E-03 39232   0.105E-01    0.295E-01
DAV:   8    -0.344216537523E+03    0.22391E-05   -0.10641E-03 39872   0.945E-02    0.261E-01
DAV:   9    -0.344216555908E+03   -0.18384E-04   -0.70155E-04 39760   0.807E-02    0.235E-01
DAV:  10    -0.344216530531E+03    0.25377E-04   -0.41568E-04 33776   0.589E-02    0.196E-01
DAV:  11    -0.344216487314E+03    0.43217E-04   -0.20058E-04 26920   0.415E-02    0.871E-02
DAV:  12    -0.344216501467E+03   -0.14153E-04   -0.66796E-05 22184   0.260E-02    0.836E-02
DAV:  13    -0.344216500237E+03    0.12297E-05   -0.39740E-05 19808   0.225E-02
  14 F= -.34421650E+03 E0= -.34420080E+03  d E =-.945707E-02  mag=    20.0000
       N       E                     dE             d eps       ncg     rms          rms(c)
DAV:   1    -0.344153762293E+03    0.62739E-01   -0.20968E+01 31928   0.138E+01    0.913E-01
DAV:   2    -0.344235508357E+03   -0.81746E-01   -0.79272E-01 29952   0.227E+00    0.215E+00
DAV:   3    -0.344238285417E+03   -0.27771E-02   -0.62061E-02 41584   0.675E-01    0.274E+00
DAV:   4    -0.344229519329E+03    0.87661E-02   -0.24021E-02 38360   0.427E-01    0.764E-01
DAV:   5    -0.344231482966E+03   -0.19636E-02   -0.42821E-03 38240   0.178E-01    0.573E-01
DAV:   6    -0.344232063488E+03   -0.58052E-03   -0.60443E-03 39200   0.173E-01    0.767E-01
DAV:   7    -0.344230979961E+03    0.10835E-02   -0.55927E-03 39816   0.170E-01    0.342E-01
DAV:   8    -0.344231857211E+03   -0.87725E-03   -0.28642E-03 40088   0.153E-01    0.690E-01
DAV:   9    -0.344231063071E+03    0.79414E-03   -0.14523E-03 39400   0.131E-01    0.225E-01
DAV:  10    -0.344231211882E+03   -0.14881E-03   -0.66302E-04 37328   0.618E-02    0.168E-01
DAV:  11    -0.344231258477E+03   -0.46595E-04   -0.21659E-04 28392   0.438E-02    0.185E-01
DAV:  12    -0.344231207650E+03    0.50827E-04   -0.17951E-04 23960   0.388E-02    0.840E-02
DAV:  13    -0.344231239013E+03   -0.31363E-04   -0.87966E-05 22672   0.239E-02    0.124E-01
DAV:  14    -0.344231218795E+03    0.20218E-04   -0.96074E-05 21560   0.247E-02    0.680E-02
DAV:  15    -0.344231237002E+03   -0.18207E-04   -0.10815E-04 22856   0.244E-02    0.106E-01
DAV:  16    -0.344231224419E+03    0.12582E-04   -0.58970E-05 21064   0.238E-02    0.531E-02
DAV:  17    -0.344231229497E+03   -0.50780E-05   -0.26482E-05 18528   0.186E-02
  15 F= -.34423123E+03 E0= -.34421550E+03  d E =-.147293E-01  mag=    20.0000
       N       E                     dE             d eps       ncg     rms          rms(c)
DAV:   1    -0.343788138942E+03    0.44309E+00   -0.62188E+01 32456   0.282E+01    0.298E+00
DAV:   2    -0.344588943855E+03   -0.80080E+00   -0.48395E+00 32784   0.565E+00    0.175E+01
DAV:   3    -0.344104464632E+03    0.48448E+00   -0.69244E-01 37864   0.254E+00    0.337E+00
DAV:   4    -0.344244122294E+03   -0.13966E+00   -0.45384E-01 39136   0.146E+00    0.640E+00
DAV:   5    -0.344178903413E+03    0.65219E-01   -0.31834E-01 39296   0.115E+00    0.209E+00
DAV:   6    -0.344194995448E+03   -0.16092E-01   -0.10522E-01 39080   0.699E-01    0.261E+00
DAV:   7    -0.344195691389E+03   -0.69594E-03   -0.65196E-02 40664   0.618E-01    0.275E+00
DAV:   8    -0.344184256579E+03    0.11435E-01   -0.36123E-02 40224   0.562E-01    0.111E+00
DAV:   9    -0.344187951927E+03   -0.36953E-02   -0.13665E-02 39344   0.397E-01    0.148E+00
DAV:  10    -0.344185455867E+03    0.24961E-02   -0.12749E-02 39880   0.304E-01    0.868E-01
DAV:  11    -0.344185896957E+03   -0.44109E-03   -0.87303E-03 39568   0.242E-01    0.840E-01
DAV:  12    -0.344185095410E+03    0.80155E-03   -0.36719E-03 39912   0.172E-01    0.510E-01
DAV:  13    -0.344185600908E+03   -0.50550E-03   -0.28678E-03 40800   0.139E-01    0.661E-01
DAV:  14    -0.344184970783E+03    0.63012E-03   -0.28252E-03 39376   0.136E-01    0.300E-01
DAV:  15    -0.344185728312E+03   -0.75753E-03   -0.25259E-03 39912   0.119E-01    0.600E-01
DAV:  16    -0.344185156773E+03    0.57154E-03   -0.17967E-03 39632   0.105E-01    0.229E-01
DAV:  17    -0.344185463888E+03   -0.30711E-03   -0.62666E-04 37688   0.748E-02    0.344E-01
DAV:  18    -0.344185280900E+03    0.18299E-03   -0.40019E-04 37800   0.645E-02    0.128E-01
DAV:  19    -0.344185350590E+03   -0.69690E-04   -0.15412E-04 25512   0.330E-02    0.183E-01
DAV:  20    -0.344185311748E+03    0.38842E-04   -0.94391E-05 25456   0.325E-02    0.728E-02
DAV:  21    -0.344185320818E+03   -0.90704E-05   -0.52986E-05 27224   0.233E-02
  16 F= -.34418532E+03 E0= -.34416925E+03  d E =0.459087E-01  mag=    20.0000
       N       E                     dE             d eps       ncg     rms          rms(c)
DAV:   1    -0.344177969639E+03    0.73421E-02   -0.78697E+00 32784   0.988E+00    0.140E+00
DAV:   2    -0.344306874721E+03   -0.12891E+00   -0.10148E+00 33760   0.224E+00    0.591E+00
DAV:   3    -0.344249335596E+03    0.57539E-01   -0.15108E-01 38312   0.125E+00    0.259E+00
DAV:   4    -0.344257292157E+03   -0.79566E-02   -0.92249E-02 39192   0.623E-01    0.214E+00
DAV:   5    -0.344251024731E+03    0.62674E-02   -0.41881E-02 38168   0.414E-01    0.110E+00
DAV:   6    -0.344252064803E+03   -0.10401E-02   -0.91193E-03 38912   0.236E-01    0.109E+00
DAV:   7    -0.344253987474E+03   -0.19227E-02   -0.12122E-02 40656   0.293E-01    0.169E+00
DAV:   8    -0.344250481026E+03    0.35064E-02   -0.15344E-02 39576   0.341E-01    0.114E+00
DAV:   9    -0.344252793833E+03   -0.23128E-02   -0.12855E-02 39800   0.325E-01    0.144E+00
DAV:  10    -0.344249425868E+03    0.33680E-02   -0.84513E-03 39608   0.275E-01    0.530E-01
DAV:  11    -0.344250374226E+03   -0.94836E-03   -0.31137E-03 38488   0.158E-01    0.472E-01
DAV:  12    -0.344250339446E+03    0.34779E-04   -0.21594E-03 39880   0.121E-01    0.380E-01
DAV:  13    -0.344250269358E+03    0.70088E-04   -0.67829E-04 37400   0.813E-02    0.286E-01
DAV:  14    -0.344250193675E+03    0.75684E-04   -0.34628E-04 30776   0.508E-02    0.165E-01
DAV:  15    -0.344250208276E+03   -0.14602E-04   -0.62145E-05 22496   0.233E-02    0.159E-01
DAV:  16    -0.344250197266E+03    0.11010E-04   -0.72999E-05 21416   0.238E-02    0.128E-01
DAV:  17    -0.344250238931E+03   -0.41665E-04   -0.12224E-04 24168   0.328E-02    0.186E-01
DAV:  18    -0.344250196889E+03    0.42043E-04   -0.19014E-04 26160   0.389E-02    0.130E-01
DAV:  19    -0.344250232814E+03   -0.35925E-04   -0.17363E-04 23624   0.310E-02    0.172E-01
DAV:  20    -0.344250185728E+03    0.47086E-04   -0.11289E-04 23648   0.299E-02    0.300E-02
DAV:  21    -0.344250206396E+03   -0.20668E-04   -0.12411E-05 17776   0.117E-02    0.270E-02
DAV:  22    -0.344250207884E+03   -0.14882E-05   -0.44856E-06 17072   0.699E-03
  17 F= -.34425021E+03 E0= -.34423420E+03  d E =-.648871E-01  mag=    20.0000
       N       E                     dE             d eps       ncg     rms          rms(c)
DAV:   1    -0.344249372467E+03    0.83393E-03   -0.54186E-01 32928   0.269E+00    0.381E-01
DAV:   2    -0.344260590079E+03   -0.11218E-01   -0.77424E-02 34392   0.614E-01    0.209E+00
DAV:   3    -0.344253490567E+03    0.70995E-02   -0.15054E-02 37960   0.350E-01    0.608E-01
DAV:   4    -0.344255376022E+03   -0.18855E-02   -0.68778E-03 38096   0.181E-01    0.626E-01
DAV:   5    -0.344254745205E+03    0.63082E-03   -0.36457E-03 37944   0.125E-01    0.303E-01
DAV:   6    -0.344254818515E+03   -0.73310E-04   -0.81364E-04 36648   0.706E-02    0.268E-01
DAV:   7    -0.344255053745E+03   -0.23523E-03   -0.11032E-03 39616   0.854E-02    0.488E-01
DAV:   8    -0.344254628711E+03    0.42503E-03   -0.96567E-04 38736   0.919E-02    0.188E-01
DAV:   9    -0.344254817658E+03   -0.18895E-03   -0.63116E-04 36448   0.678E-02    0.292E-01
DAV:  10    -0.344254676862E+03    0.14080E-03   -0.40532E-04 31088   0.570E-02    0.144E-01
DAV:  11    -0.344254696972E+03   -0.20110E-04   -0.99766E-05 23952   0.286E-02    0.798E-02
DAV:  12    -0.344254706429E+03   -0.94562E-05   -0.25427E-05 19480   0.174E-02
  18 F= -.34425471E+03 E0= -.34423871E+03  d E =-.449854E-02  mag=    20.0000
       N       E                     dE             d eps       ncg     rms          rms(c)
DAV:   1    -0.344252965382E+03    0.17316E-02   -0.31529E-01 32656   0.210E+00    0.235E-01
DAV:   2    -0.344257654567E+03   -0.46892E-02   -0.36167E-02 32616   0.433E-01    0.121E+00
DAV:   3    -0.344255361454E+03    0.22931E-02   -0.61234E-03 38360   0.202E-01    0.328E-01
DAV:   4    -0.344256207896E+03   -0.84644E-03   -0.27445E-03 38624   0.112E-01    0.434E-01
DAV:   5    -0.344255856814E+03    0.35108E-03   -0.17342E-03 37752   0.845E-02    0.177E-01
DAV:   6    -0.344255920987E+03   -0.64174E-04   -0.26904E-04 29976   0.444E-02    0.187E-01
DAV:   7    -0.344255967058E+03   -0.46070E-04   -0.39624E-04 35232   0.543E-02    0.272E-01
DAV:   8    -0.344255832245E+03    0.13481E-03   -0.34572E-04 33800   0.531E-02    0.826E-02
DAV:   9    -0.344255910194E+03   -0.77948E-04   -0.14936E-04 25360   0.384E-02    0.195E-01
DAV:  10    -0.344255842290E+03    0.67904E-04   -0.12133E-04 24240   0.353E-02    0.664E-02
DAV:  11    -0.344255863494E+03   -0.21204E-04   -0.38549E-05 19712   0.180E-02    0.683E-02
DAV:  12    -0.344255860310E+03    0.31842E-05   -0.16844E-05 18376   0.148E-02
  19 F= -.34425586E+03 E0= -.34423988E+03  d E =-.115388E-02  mag=    20.0000
       N       E                     dE             d eps       ncg     rms          rms(c)
DAV:   1    -0.344255930391E+03   -0.66897E-04   -0.23264E-01 32184   0.160E+00    0.124E-01
DAV:   2    -0.344257177933E+03   -0.12475E-02   -0.11924E-02 30728   0.282E-01    0.355E-01
DAV:   3    -0.344257099186E+03    0.78746E-04   -0.14509E-03 39696   0.101E-01    0.298E-01
DAV:   4    -0.344257120930E+03   -0.21743E-04   -0.80071E-04 35672   0.610E-02    0.250E-01
DAV:   5    -0.344257015206E+03    0.10572E-03   -0.37280E-04 29040   0.434E-02    0.651E-02
DAV:   6    -0.344257058289E+03   -0.43083E-04   -0.87741E-05 22224   0.237E-02    0.117E-01
DAV:   7    -0.344257045461E+03    0.12828E-04   -0.71633E-05 22512   0.258E-02    0.879E-02
DAV:   8    -0.344257041155E+03    0.43065E-05   -0.75471E-05 21240   0.245E-02
  20 F= -.34425704E+03 E0= -.34424106E+03  d E =-.118085E-02  mag=    20.0000
       N       E                     dE             d eps       ncg     rms          rms(c)
DAV:   1    -0.344256883999E+03    0.16146E-03   -0.51566E-01 32088   0.226E+00    0.183E-01
DAV:   2    -0.344259720616E+03   -0.28366E-02   -0.23340E-02 31488   0.400E-01    0.811E-01
DAV:   3    -0.344258803777E+03    0.91684E-03   -0.34513E-03 38576   0.163E-01    0.318E-01
DAV:   4    -0.344259103067E+03   -0.29929E-03   -0.79224E-04 37216   0.821E-02    0.297E-01
DAV:   5    -0.344258955682E+03    0.14739E-03   -0.35206E-04 31952   0.541E-02    0.123E-01
DAV:   6    -0.344259010053E+03   -0.54372E-04   -0.23870E-04 23456   0.355E-02    0.175E-01
DAV:   7    -0.344259020766E+03   -0.10713E-04   -0.31234E-04 30736   0.489E-02    0.197E-01
DAV:   8    -0.344258997521E+03    0.23245E-04   -0.24059E-04 33104   0.488E-02    0.173E-01
DAV:   9    -0.344258961911E+03    0.35610E-04   -0.12866E-04 28888   0.420E-02    0.768E-02
DAV:  10    -0.344258988376E+03   -0.26465E-04   -0.96020E-05 21680   0.268E-02    0.114E-01
DAV:  11    -0.344258970672E+03    0.17705E-04   -0.44112E-05 19160   0.203E-02    0.529E-02
DAV:  12    -0.344258972423E+03   -0.17510E-05   -0.68124E-06 16872   0.814E-03
  21 F= -.34425897E+03 E0= -.34424302E+03  d E =-.193127E-02  mag=    20.0000
       N       E                     dE             d eps       ncg     rms          rms(c)
DAV:   1    -0.344258441012E+03    0.52966E-03   -0.57146E-01 32352   0.241E+00    0.177E-01
DAV:   2    -0.344261052343E+03   -0.26113E-02   -0.26002E-02 29984   0.413E-01    0.335E-01
DAV:   3    -0.344261228991E+03   -0.17665E-03   -0.21743E-03 41088   0.138E-01    0.452E-01
DAV:   4    -0.344261054076E+03    0.17491E-03   -0.14951E-03 38184   0.852E-02    0.351E-01
DAV:   5    -0.344260910150E+03    0.14393E-03   -0.56571E-04 31024   0.544E-02    0.828E-02
DAV:   6    -0.344261004357E+03   -0.94207E-04   -0.19782E-04 25192   0.379E-02    0.178E-01
DAV:   7    -0.344260963769E+03    0.40588E-04   -0.20165E-04 28920   0.429E-02    0.126E-01
DAV:   8    -0.344260971103E+03   -0.73344E-05   -0.16300E-04 24472   0.346E-02    0.118E-01
DAV:   9    -0.344260969187E+03    0.19161E-05   -0.10584E-04 22480   0.293E-02    0.832E-02
DAV:  10    -0.344260963536E+03    0.56516E-05   -0.78102E-05 19680   0.227E-02
  22 F= -.34426096E+03 E0= -.34424508E+03  d E =-.199111E-02  mag=    20.0000
       N       E                     dE             d eps       ncg     rms          rms(c)
DAV:   1    -0.344245548391E+03    0.15421E-01   -0.48922E+00 31744   0.696E+00    0.470E-01
DAV:   2    -0.344266122037E+03   -0.20574E-01   -0.20927E-01 29968   0.117E+00    0.569E-01
DAV:   3    -0.344269851147E+03   -0.37291E-02   -0.17449E-02 40960   0.334E-01    0.166E+00
DAV:   4    -0.344265303522E+03    0.45476E-02   -0.11392E-02 38696   0.249E-01    0.489E-01
DAV:   5    -0.344266013926E+03   -0.71040E-03   -0.20524E-03 38592   0.118E-01    0.248E-01
DAV:   6    -0.344266470982E+03   -0.45706E-03   -0.18893E-03 39440   0.103E-01    0.540E-01
DAV:   7    -0.344265994188E+03    0.47679E-03   -0.16016E-03 38960   0.103E-01    0.261E-01
DAV:   8    -0.344266134704E+03   -0.14052E-03   -0.12239E-03 39224   0.800E-02    0.261E-01
DAV:   9    -0.344266139151E+03   -0.44472E-05   -0.73492E-04 37640   0.662E-02    0.210E-01
DAV:  10    -0.344266083873E+03    0.55278E-04   -0.26151E-04 27312   0.459E-02    0.999E-02
DAV:  11    -0.344266100204E+03   -0.16331E-04   -0.54234E-05 20880   0.216E-02    0.902E-02
DAV:  12    -0.344266092430E+03    0.77746E-05   -0.14465E-05 17680   0.132E-02
  23 F= -.34426609E+03 E0= -.34425025E+03  d E =-.512889E-02  mag=    20.0000
       N       E                     dE             d eps       ncg     rms          rms(c)
DAV:   1    -0.344158904642E+03    0.10720E+00   -0.26067E+01 32408   0.163E+01    0.112E+00
DAV:   2    -0.344276240354E+03   -0.11734E+00   -0.11719E+00 29952   0.275E+00    0.189E+00
DAV:   3    -0.344287317822E+03   -0.11077E-01   -0.92126E-02 41168   0.840E-01    0.301E+00
DAV:   4    -0.344276494136E+03    0.10824E-01   -0.55837E-02 39320   0.581E-01    0.192E+00
DAV:   5    -0.344272702603E+03    0.37915E-02   -0.20355E-02 39080   0.333E-01    0.476E-01
DAV:   6    -0.344275748848E+03   -0.30462E-02   -0.66390E-03 39248   0.209E-01    0.112E+00
DAV:   7    -0.344273620110E+03    0.21287E-02   -0.50452E-03 38728   0.220E-01    0.546E-01
DAV:   8    -0.344274457133E+03   -0.83702E-03   -0.43567E-03 39776   0.170E-01    0.701E-01
DAV:   9    -0.344274224481E+03    0.23265E-03   -0.28275E-03 38200   0.150E-01    0.511E-01
DAV:  10    -0.344273932489E+03    0.29199E-03   -0.14806E-03 39296   0.102E-01    0.193E-01
DAV:  11    -0.344274122583E+03   -0.19009E-03   -0.56257E-04 36384   0.662E-02    0.275E-01
DAV:  12    -0.344274038493E+03    0.84090E-04   -0.45395E-04 32024   0.570E-02    0.168E-01
DAV:  13    -0.344274059951E+03   -0.21457E-04   -0.22036E-04 26192   0.427E-02    0.157E-01
DAV:  14    -0.344274055968E+03    0.39823E-05   -0.18052E-04 24344   0.404E-02    0.122E-01
DAV:  15    -0.344274074475E+03   -0.18507E-04   -0.12392E-04 23648   0.353E-02    0.145E-01
DAV:  16    -0.344274054976E+03    0.19499E-04   -0.11380E-04 21696   0.283E-02    0.767E-02
DAV:  17    -0.344274072056E+03   -0.17081E-04   -0.87439E-05 20976   0.244E-02    0.109E-01
DAV:  18    -0.344274055623E+03    0.16434E-04   -0.33837E-05 19024   0.203E-02    0.406E-02
DAV:  19    -0.344274065772E+03   -0.10149E-04   -0.39799E-05 18336   0.143E-02    0.724E-02
DAV:  20    -0.344274057849E+03    0.79230E-05   -0.37497E-05 17864   0.146E-02
  24 F= -.34427406E+03 E0= -.34425840E+03  d E =-.796542E-02  mag=    20.0000
       N       E                     dE             d eps       ncg     rms          rms(c)
DAV:   1    -0.344245270445E+03    0.28795E-01   -0.67530E+00 32528   0.886E+00    0.607E-01
DAV:   2    -0.344279324261E+03   -0.34054E-01   -0.33813E-01 29968   0.149E+00    0.115E+00
DAV:   3    -0.344283435137E+03   -0.41109E-02   -0.29862E-02 41472   0.460E-01    0.210E+00
DAV:   4    -0.344277726961E+03    0.57082E-02   -0.15534E-02 38544   0.319E-01    0.787E-01
DAV:   5    -0.344278426439E+03   -0.69948E-03   -0.24806E-03 37584   0.155E-01    0.259E-01
DAV:   6    -0.344279097639E+03   -0.67120E-03   -0.19293E-03 38496   0.991E-02    0.535E-01
DAV:   7    -0.344278621516E+03    0.47612E-03   -0.17410E-03 38792   0.101E-01    0.178E-01
DAV:   8    -0.344279089616E+03   -0.46810E-03   -0.12092E-03 39696   0.103E-01    0.511E-01
DAV:   9    -0.344278703165E+03    0.38645E-03   -0.10395E-03 39200   0.963E-02    0.200E-01
DAV:  10    -0.344278799171E+03   -0.96006E-04   -0.71088E-04 34968   0.647E-02    0.200E-01
DAV:  11    -0.344278749524E+03    0.49647E-04   -0.21931E-04 28304   0.434E-02    0.971E-02
DAV:  12    -0.344278773067E+03   -0.23543E-04   -0.93838E-05 22944   0.289E-02    0.117E-01
DAV:  13    -0.344278752525E+03    0.20542E-04   -0.60628E-05 21072   0.232E-02    0.509E-02
DAV:  14    -0.344278758975E+03   -0.64493E-05   -0.25773E-05 17960   0.135E-02
  25 F= -.34427876E+03 E0= -.34426309E+03  d E =-.470113E-02  mag=    20.0000
       N       E                     dE             d eps       ncg     rms          rms(c)
DAV:   1    -0.344237061858E+03    0.41691E-01   -0.11509E+01 31960   0.104E+01    0.740E-01
DAV:   2    -0.344289363102E+03   -0.52301E-01   -0.48596E-01 29968   0.178E+00    0.229E+00
DAV:   3    -0.344285088575E+03    0.42745E-02   -0.37993E-02 39856   0.585E-01    0.181E+00
DAV:   4    -0.344284405460E+03    0.68311E-03   -0.18039E-02 38480   0.347E-01    0.112E+00
DAV:   5    -0.344282979161E+03    0.14263E-02   -0.74343E-03 38304   0.211E-01    0.403E-01
DAV:   6    -0.344283708845E+03   -0.72968E-03   -0.25288E-03 39296   0.112E-01    0.558E-01
DAV:   7    -0.344283510961E+03    0.19788E-03   -0.25982E-03 39224   0.133E-01    0.515E-01
DAV:   8    -0.344283376800E+03    0.13416E-03   -0.28151E-03 40368   0.138E-01    0.445E-01
DAV:   9    -0.344283821600E+03   -0.44480E-03   -0.30339E-03 39528   0.139E-01    0.592E-01
DAV:  10    -0.344283116074E+03    0.70553E-03   -0.21317E-03 38984   0.117E-01    0.175E-01
DAV:  11    -0.344283333525E+03   -0.21745E-03   -0.42978E-04 34384   0.549E-02    0.210E-01
DAV:  12    -0.344283303706E+03    0.29819E-04   -0.16373E-04 26768   0.395E-02    0.127E-01
DAV:  13    -0.344283292755E+03    0.10951E-04   -0.39308E-05 21248   0.227E-02    0.773E-02
DAV:  14    -0.344283299454E+03   -0.66987E-05   -0.14618E-05 18688   0.142E-02
  26 F= -.34428330E+03 E0= -.34426761E+03  d E =-.454048E-02  mag=    20.0000
       N       E                     dE             d eps       ncg     rms          rms(c)
DAV:   1    -0.344232769168E+03    0.50524E-01   -0.11997E+01 32016   0.110E+01    0.753E-01
DAV:   2    -0.344289776572E+03   -0.57007E-01   -0.55144E-01 29952   0.188E+00    0.193E+00
DAV:   3    -0.344289929344E+03   -0.15277E-03   -0.51893E-02 40456   0.550E-01    0.184E+00
DAV:   4    -0.344288989754E+03    0.93959E-03   -0.21329E-02 38896   0.372E-01    0.145E+00
DAV:   5    -0.344285997904E+03    0.29918E-02   -0.10967E-02 38392   0.251E-01    0.325E-01
DAV:   6    -0.344287302927E+03   -0.13050E-02   -0.33763E-03 38672   0.136E-01    0.613E-01
DAV:   7    -0.344286859880E+03    0.44305E-03   -0.31626E-03 39232   0.133E-01    0.478E-01
DAV:   8    -0.344286768577E+03    0.91303E-04   -0.19604E-03 39568   0.115E-01    0.342E-01
DAV:   9    -0.344286969224E+03   -0.20065E-03   -0.11975E-03 39024   0.966E-02    0.371E-01
DAV:  10    -0.344286744198E+03    0.22503E-03   -0.79815E-04 38632   0.745E-02    0.172E-01
DAV:  11    -0.344286796547E+03   -0.52349E-04   -0.11731E-04 25680   0.311E-02    0.168E-01
DAV:  12    -0.344286775878E+03    0.20669E-04   -0.58892E-05 20832   0.245E-02    0.991E-02
DAV:  13    -0.344286782622E+03   -0.67443E-05   -0.18376E-05 18288   0.162E-02
  27 F= -.34428678E+03 E0= -.34427119E+03  d E =-.348317E-02  mag=    20.0000
       N       E                     dE             d eps       ncg     rms          rms(c)
DAV:   1    -0.344132530916E+03    0.15424E+00   -0.34827E+01 32256   0.191E+01    0.127E+00
DAV:   2    -0.344292291251E+03   -0.15976E+00   -0.15886E+00 29952   0.322E+00    0.218E+00
DAV:   3    -0.344306230331E+03   -0.13939E-01   -0.11901E-01 41720   0.986E-01    0.340E+00
DAV:   4    -0.344291555342E+03    0.14675E-01   -0.58809E-02 39024   0.675E-01    0.198E+00
DAV:   5    -0.344287922355E+03    0.36330E-02   -0.17667E-02 38840   0.347E-01    0.556E-01
DAV:   6    -0.344291030661E+03   -0.31083E-02   -0.63139E-03 39024   0.220E-01    0.109E+00
DAV:   7    -0.344289127903E+03    0.19028E-02   -0.55647E-03 40520   0.223E-01    0.510E-01
DAV:   8    -0.344290207893E+03   -0.10800E-02   -0.65531E-03 40304   0.201E-01    0.799E-01
DAV:   9    -0.344289737045E+03    0.47085E-03   -0.47894E-03 39304   0.183E-01    0.576E-01
DAV:  10    -0.344289631371E+03    0.10567E-03   -0.21731E-03 39048   0.135E-01    0.428E-01
DAV:  11    -0.344289481486E+03    0.14988E-03   -0.84363E-04 39328   0.919E-02    0.174E-01
DAV:  12    -0.344289668013E+03   -0.18653E-03   -0.63231E-04 32824   0.617E-02    0.349E-01
DAV:  13    -0.344289466960E+03    0.20105E-03   -0.46148E-04 33640   0.600E-02    0.123E-01
DAV:  14    -0.344289571669E+03   -0.10471E-03   -0.29628E-04 26184   0.421E-02    0.176E-01
DAV:  15    -0.344289550697E+03    0.20972E-04   -0.24983E-04 24856   0.394E-02    0.127E-01
DAV:  16    -0.344289553574E+03   -0.28773E-05   -0.10466E-04 23408   0.278E-02    0.116E-01
DAV:  17    -0.344289561617E+03   -0.80435E-05   -0.10981E-04 22824   0.260E-02    0.127E-01
DAV:  18    -0.344289544503E+03    0.17115E-04   -0.78228E-05 23144   0.256E-02    0.480E-02
DAV:  19    -0.344289565263E+03   -0.20760E-04   -0.52664E-05 20912   0.186E-02    0.108E-01
DAV:  20    -0.344289544624E+03    0.20639E-04   -0.68215E-05 20168   0.208E-02    0.416E-02
DAV:  21    -0.344289552129E+03   -0.75051E-05   -0.12191E-05 16920   0.111E-02
  28 F= -.34428955E+03 E0= -.34427414E+03  d E =-.276951E-02  mag=    20.0000
       N       E                     dE             d eps       ncg     rms          rms(c)
DAV:   1    -0.344220622659E+03    0.68922E-01   -0.15343E+01 32688   0.129E+01    0.928E-01
DAV:   2    -0.344303564824E+03   -0.82942E-01   -0.75964E-01 29952   0.222E+00    0.304E+00
DAV:   3    -0.344294015956E+03    0.95489E-02   -0.65318E-02 40032   0.733E-01    0.205E+00
DAV:   4    -0.344294310651E+03   -0.29470E-03   -0.25696E-02 38528   0.419E-01    0.124E+00
DAV:   5    -0.344292671531E+03    0.16391E-02   -0.11537E-02 38744   0.259E-01    0.554E-01
DAV:   6    -0.344293364371E+03   -0.69284E-03   -0.40146E-03 39264   0.145E-01    0.657E-01
DAV:   7    -0.344293047066E+03    0.31731E-03   -0.29256E-03 39568   0.156E-01    0.557E-01
DAV:   8    -0.344292792614E+03    0.25445E-03   -0.32385E-03 40064   0.147E-01    0.387E-01
DAV:   9    -0.344293290720E+03   -0.49811E-03   -0.25052E-03 39192   0.136E-01    0.537E-01
DAV:  10    -0.344292719281E+03    0.57144E-03   -0.19946E-03 39336   0.114E-01    0.193E-01
DAV:  11    -0.344292888315E+03   -0.16903E-03   -0.44034E-04 34608   0.586E-02    0.225E-01
DAV:  12    -0.344292844511E+03    0.43803E-04   -0.26446E-04 27792   0.448E-02    0.121E-01
DAV:  13    -0.344292847583E+03   -0.30723E-05   -0.55113E-05 23176   0.282E-02
  29 F= -.34429285E+03 E0= -.34427743E+03  d E =-.329545E-02  mag=    20.0000
       N       E                     dE             d eps       ncg     rms          rms(c)
DAV:   1    -0.344281147510E+03    0.11697E-01   -0.27907E+00 32400   0.560E+00    0.446E-01
DAV:   2    -0.344300307188E+03   -0.19160E-01   -0.15565E-01 31440   0.102E+00    0.234E+00
DAV:   3    -0.344292552720E+03    0.77545E-02   -0.28260E-02 37472   0.408E-01    0.647E-01
DAV:   4    -0.344295592080E+03   -0.30394E-02   -0.63567E-03 37456   0.219E-01    0.770E-01
DAV:   5    -0.344294567987E+03    0.10241E-02   -0.35562E-03 38456   0.159E-01    0.284E-01
DAV:   6    -0.344294921363E+03   -0.35338E-03   -0.19715E-03 38152   0.943E-02    0.448E-01
DAV:   7    -0.344294856733E+03    0.64630E-04   -0.15831E-03 39152   0.112E-01    0.463E-01
DAV:   8    -0.344294611378E+03    0.24536E-03   -0.12884E-03 39744   0.104E-01    0.257E-01
DAV:   9    -0.344294744025E+03   -0.13265E-03   -0.89544E-04 38624   0.805E-02    0.263E-01
DAV:  10    -0.344294665866E+03    0.78159E-04   -0.52655E-04 32024   0.557E-02    0.166E-01
DAV:  11    -0.344294658488E+03    0.73781E-05   -0.76331E-05 24272   0.282E-02
  30 F= -.34429466E+03 E0= -.34427921E+03  d E =-.181090E-02  mag=    20.0000
       N       E                     dE             d eps       ncg     rms          rms(c)
DAV:   1    -0.344293678832E+03    0.98703E-03   -0.40872E-01 32304   0.209E+00    0.198E-01
DAV:   2    -0.344296387053E+03   -0.27082E-02   -0.21942E-02 32008   0.394E-01    0.796E-01
DAV:   3    -0.344295414898E+03    0.97216E-03   -0.41475E-03 37400   0.188E-01    0.345E-01
DAV:   4    -0.344295708979E+03   -0.29408E-03   -0.13143E-03 37096   0.883E-02    0.352E-01
DAV:   5    -0.344295500818E+03    0.20816E-03   -0.44431E-04 33576   0.629E-02    0.129E-01
DAV:   6    -0.344295575641E+03   -0.74823E-04   -0.19437E-04 24632   0.420E-02    0.205E-01
DAV:   7    -0.344295593316E+03   -0.17675E-04   -0.37515E-04 33728   0.568E-02    0.252E-01
DAV:   8    -0.344295520889E+03    0.72426E-04   -0.37956E-04 30872   0.557E-02    0.139E-01
DAV:   9    -0.344295615048E+03   -0.94159E-04   -0.34430E-04 26152   0.470E-02    0.202E-01
DAV:  10    -0.344295559889E+03    0.55159E-04   -0.17291E-04 23832   0.365E-02    0.911E-02
DAV:  11    -0.344295572822E+03   -0.12933E-04   -0.30797E-05 19392   0.178E-02    0.811E-02
DAV:  12    -0.344295570120E+03    0.27019E-05   -0.23927E-05 17472   0.134E-02
  31 F= -.34429557E+03 E0= -.34428011E+03  d E =-.911632E-03  mag=    20.0000
       N       E                     dE             d eps       ncg     rms          rms(c)
DAV:   1    -0.344291328509E+03    0.42443E-02   -0.13676E+00 32072   0.377E+00    0.261E-01
DAV:   2    -0.344297688177E+03   -0.63597E-02   -0.63786E-02 29952   0.645E-01    0.443E-01
DAV:   3    -0.344298303720E+03   -0.61554E-03   -0.53471E-03 41120   0.195E-01    0.784E-01
DAV:   4    -0.344297448525E+03    0.85519E-03   -0.22974E-03 38496   0.129E-01    0.364E-01
DAV:   5    -0.344297465529E+03   -0.17004E-04   -0.65447E-04 36680   0.714E-02    0.107E-01
DAV:   6    -0.344297633535E+03   -0.16801E-03   -0.47181E-04 36904   0.581E-02    0.283E-01
DAV:   7    -0.344297496855E+03    0.13668E-03   -0.54134E-04 35736   0.573E-02    0.140E-01
DAV:   8    -0.344297567537E+03   -0.70682E-04   -0.30932E-04 29656   0.491E-02    0.187E-01
DAV:   9    -0.344297525875E+03    0.41662E-04   -0.28953E-04 24544   0.425E-02    0.103E-01
DAV:  10    -0.344297532229E+03   -0.63540E-05   -0.53681E-05 20864   0.269E-02
  32 F= -.34429753E+03 E0= -.34428213E+03  d E =-.196211E-02  mag=    20.0000
       N       E                     dE             d eps       ncg     rms          rms(c)
DAV:   1    -0.343622081596E+03    0.67544E+00   -0.14407E+02 31904   0.378E+01    0.272E+00
DAV:   2    -0.344345103494E+03   -0.72302E+00   -0.72278E+00 29952   0.668E+00    0.611E+00
DAV:   3    -0.344366286015E+03   -0.21183E-01   -0.11429E+00 40320   0.208E+00    0.588E+00
DAV:   4    -0.344344901988E+03    0.21384E-01   -0.23666E-01 40144   0.132E+00    0.521E+00
DAV:   5    -0.344302391210E+03    0.42511E-01   -0.11251E-01 39568   0.892E-01    0.168E+00
DAV:   6    -0.344317679771E+03   -0.15289E-01   -0.31144E-02 39688   0.515E-01    0.277E+00
DAV:   7    -0.344307581138E+03    0.10099E-01   -0.38332E-02 40256   0.496E-01    0.108E+00
DAV:   8    -0.344312443091E+03   -0.48620E-02   -0.21106E-02 41056   0.412E-01    0.167E+00
DAV:   9    -0.344310517724E+03    0.19254E-02   -0.15069E-02 39160   0.380E-01    0.140E+00
DAV:  10    -0.344308532974E+03    0.19847E-02   -0.94536E-03 40112   0.293E-01    0.886E-01
DAV:  11    -0.344309508312E+03   -0.97534E-03   -0.69360E-03 39888   0.247E-01    0.828E-01
DAV:  12    -0.344309364269E+03    0.14404E-03   -0.13581E-02 39992   0.216E-01    0.655E-01
DAV:  13    -0.344309002456E+03    0.36181E-03   -0.49809E-03 40128   0.170E-01    0.392E-01
DAV:  14    -0.344309095158E+03   -0.92702E-04   -0.14960E-03 40184   0.107E-01    0.418E-01
DAV:  15    -0.344308972678E+03    0.12248E-03   -0.61724E-04 38984   0.787E-02    0.288E-01
DAV:  16    -0.344308981674E+03   -0.89953E-05   -0.25663E-04 30416   0.476E-02    0.274E-01
DAV:  17    -0.344308964108E+03    0.17566E-04   -0.25042E-04 28664   0.464E-02    0.260E-01
DAV:  18    -0.344308927812E+03    0.36296E-04   -0.29589E-04 27872   0.482E-02    0.191E-01
DAV:  19    -0.344308980291E+03   -0.52479E-04   -0.22144E-04 33040   0.478E-02    0.184E-01
DAV:  20    -0.344309029198E+03   -0.48907E-04   -0.47188E-04 27896   0.510E-02    0.236E-01
DAV:  21    -0.344308987071E+03    0.42126E-04   -0.17361E-04 28256   0.399E-02    0.884E-02
DAV:  22    -0.344309003755E+03   -0.16684E-04   -0.36713E-05 23216   0.182E-02    0.506E-02
DAV:  23    -0.344309010490E+03   -0.67349E-05   -0.10434E-05 18512   0.116E-02
  33 F= -.34430901E+03 E0= -.34429380E+03  d E =-.114783E-01  mag=    20.0000
       N       E                     dE             d eps       ncg     rms          rms(c)
DAV:   1    -0.344064990133E+03    0.24401E+00   -0.39159E+01 32688   0.219E+01    0.179E+00
DAV:   2    -0.344342064987E+03   -0.27707E+00   -0.25285E+00 30960   0.400E+00    0.594E+00
DAV:   3    -0.344296321474E+03    0.45744E-01   -0.26123E-01 39464   0.156E+00    0.355E+00
DAV:   4    -0.344305459111E+03   -0.91376E-02   -0.12389E-01 39064   0.832E-01    0.327E+00
DAV:   5    -0.344291609756E+03    0.13849E-01   -0.46158E-02 38880   0.596E-01    0.140E+00
DAV:   6    -0.344294563912E+03   -0.29542E-02   -0.12194E-02 39440   0.323E-01    0.145E+00
DAV:   7    -0.344294541643E+03    0.22269E-04   -0.20868E-02 39960   0.363E-01    0.138E+00
DAV:   8    -0.344293355433E+03    0.11862E-02   -0.30039E-02 40192   0.389E-01    0.127E+00
DAV:   9    -0.344294551681E+03   -0.11962E-02   -0.15690E-02 40600   0.355E-01    0.152E+00
DAV:  10    -0.344291695862E+03    0.28558E-02   -0.10900E-02 39568   0.294E-01    0.707E-01
DAV:  11    -0.344292440245E+03   -0.74438E-03   -0.76219E-03 38488   0.212E-01    0.730E-01
DAV:  12    -0.344291779546E+03    0.66070E-03   -0.27798E-03 39840   0.136E-01    0.312E-01
DAV:  13    -0.344291968971E+03   -0.18942E-03   -0.55492E-04 38208   0.830E-02    0.233E-01
DAV:  14    -0.344292018085E+03   -0.49114E-04   -0.65135E-04 35616   0.702E-02    0.254E-01
DAV:  15    -0.344291989730E+03    0.28354E-04   -0.38462E-04 32136   0.527E-02    0.168E-01
DAV:  16    -0.344292053164E+03   -0.63433E-04   -0.38782E-04 25744   0.442E-02    0.237E-01
DAV:  17    -0.344292005782E+03    0.47382E-04   -0.37118E-04 32552   0.502E-02    0.189E-01
DAV:  18    -0.344292004199E+03    0.15832E-05   -0.18107E-04 26344   0.403E-02    0.167E-01
DAV:  19    -0.344291981696E+03    0.22502E-04   -0.17334E-04 33464   0.394E-02    0.103E-01
DAV:  20    -0.344292039166E+03   -0.57470E-04   -0.23712E-04 25336   0.357E-02    0.219E-01
DAV:  21    -0.344291970739E+03    0.68428E-04   -0.12274E-04 25080   0.340E-02    0.606E-02
DAV:  22    -0.344292001824E+03   -0.31086E-04   -0.32027E-05 24368   0.177E-02    0.433E-02
DAV:  23    -0.344292003849E+03   -0.20243E-05   -0.10434E-05 19064   0.105E-02
  34 F= -.34429200E+03 E0= -.34427674E+03  d E =0.170066E-01  mag=    20.0000
       N       E                     dE             d eps       ncg     rms          rms(c)
DAV:   1    -0.343727789892E+03    0.56421E+00   -0.11732E+02 32152   0.357E+01    0.271E+00
DAV:   2    -0.344474716855E+03   -0.74693E+00   -0.64018E+00 30176   0.640E+00    0.133E+01
DAV:   3    -0.344261794643E+03    0.21292E+00   -0.79823E-01 39432   0.207E+00    0.329E+00
DAV:   4    -0.344337827576E+03   -0.76033E-01   -0.14153E-01 38152   0.115E+00    0.423E+00
DAV:   5    -0.344308758858E+03    0.29069E-01   -0.12349E-01 39024   0.829E-01    0.172E+00
DAV:   6    -0.344319633493E+03   -0.10875E-01   -0.73013E-02 39624   0.559E-01    0.248E+00
DAV:   7    -0.344309321599E+03    0.10312E-01   -0.28905E-02 40144   0.506E-01    0.115E+00
DAV:   8    -0.344313693253E+03   -0.43717E-02   -0.40515E-02 39792   0.415E-01    0.175E+00
DAV:   9    -0.344311151539E+03    0.25417E-02   -0.17937E-02 40112   0.343E-01    0.130E+00
DAV:  10    -0.344309807653E+03    0.13439E-02   -0.62560E-03 39272   0.230E-01    0.783E-01
DAV:  11    -0.344310639729E+03   -0.83208E-03   -0.37206E-03 39584   0.165E-01    0.904E-01
DAV:  12    -0.344309633748E+03    0.10060E-02   -0.28191E-03 39552   0.153E-01    0.317E-01
DAV:  13    -0.344310376578E+03   -0.74283E-03   -0.13324E-03 39416   0.116E-01    0.535E-01
DAV:  14    -0.344310073816E+03    0.30276E-03   -0.13127E-03 39840   0.110E-01    0.299E-01
DAV:  15    -0.344310199794E+03   -0.12598E-03   -0.99527E-04 38440   0.981E-02    0.293E-01
DAV:  16    -0.344310327071E+03   -0.12728E-03   -0.14926E-03 38720   0.801E-02    0.393E-01
DAV:  17    -0.344310163044E+03    0.16403E-03   -0.10262E-03 36416   0.785E-02    0.243E-01
DAV:  18    -0.344310166530E+03   -0.34858E-05   -0.32924E-04 28384   0.475E-02    0.166E-01
DAV:  19    -0.344310201554E+03   -0.35024E-04   -0.20663E-04 25728   0.381E-02    0.167E-01
DAV:  20    -0.344310170066E+03    0.31488E-04   -0.11919E-04 24560   0.342E-02    0.725E-02
DAV:  21    -0.344310183953E+03   -0.13887E-04   -0.41149E-05 21776   0.205E-02    0.564E-02
DAV:  22    -0.344310184029E+03   -0.76136E-07   -0.15832E-05 19560   0.133E-02
  35 F= -.34431018E+03 E0= -.34429482E+03  d E =-.181802E-01  mag=    20.0000
       N       E                     dE             d eps       ncg     rms          rms(c)
DAV:   1    -0.344255304223E+03    0.54880E-01   -0.82006E+00 32296   0.102E+01    0.883E-01
DAV:   2    -0.344320817447E+03   -0.65513E-01   -0.53439E-01 31200   0.190E+00    0.452E+00
DAV:   3    -0.344293330512E+03    0.27487E-01   -0.10392E-01 37672   0.752E-01    0.113E+00
DAV:   4    -0.344303581032E+03   -0.10251E-01   -0.18023E-02 37344   0.400E-01    0.141E+00
DAV:   5    -0.344300269488E+03    0.33115E-02   -0.15439E-02 38312   0.300E-01    0.692E-01
DAV:   6    -0.344301147536E+03   -0.87805E-03   -0.79488E-03 38072   0.186E-01    0.846E-01
DAV:   7    -0.344301287815E+03   -0.14028E-03   -0.52461E-03 41016   0.238E-01    0.916E-01
DAV:   8    -0.344300064091E+03    0.12237E-02   -0.87231E-03 40216   0.222E-01    0.554E-01
DAV:   9    -0.344300568366E+03   -0.50428E-03   -0.32057E-03 40408   0.184E-01    0.684E-01
DAV:  10    -0.344300187050E+03    0.38132E-03   -0.33439E-03 39728   0.156E-01    0.520E-01
DAV:  11    -0.344300142833E+03    0.44217E-04   -0.15671E-03 38832   0.122E-01    0.369E-01
DAV:  12    -0.344300171982E+03   -0.29149E-04   -0.10726E-03 38208   0.890E-02    0.290E-01
DAV:  13    -0.344300175494E+03   -0.35120E-05   -0.45703E-04 32848   0.620E-02    0.236E-01
DAV:  14    -0.344300156613E+03    0.18881E-04   -0.26964E-04 26752   0.478E-02    0.195E-01
DAV:  15    -0.344300231080E+03   -0.74467E-04   -0.21360E-04 28664   0.419E-02    0.241E-01
DAV:  16    -0.344300188690E+03    0.42390E-04   -0.16973E-04 27200   0.404E-02    0.182E-01
DAV:  17    -0.344300207337E+03   -0.18647E-04   -0.15756E-04 29680   0.360E-02    0.175E-01
DAV:  18    -0.344300177295E+03    0.30042E-04   -0.14636E-04 24696   0.293E-02    0.930E-02
DAV:  19    -0.344300205181E+03   -0.27886E-04   -0.82836E-05 23360   0.249E-02    0.122E-01
DAV:  20    -0.344300184646E+03    0.20535E-04   -0.46995E-05 22560   0.251E-02    0.557E-02
DAV:  21    -0.344300195110E+03   -0.10464E-04   -0.14214E-05 17320   0.139E-02    0.570E-02
DAV:  22    -0.344300193086E+03    0.20245E-05   -0.13415E-05 17376   0.113E-02
  36 F= -.34430019E+03 E0= -.34428479E+03  d E =0.999094E-02  mag=    20.0000
       N       E                     dE             d eps       ncg     rms          rms(c)
DAV:   1    -0.344250427076E+03    0.49768E-01   -0.12533E+01 32488   0.121E+01    0.900E-01
DAV:   2    -0.344318750816E+03   -0.68324E-01   -0.65715E-01 30032   0.212E+00    0.260E+00
DAV:   3    -0.344313629674E+03    0.51211E-02   -0.58067E-02 39896   0.696E-01    0.202E+00
DAV:   4    -0.344312761565E+03    0.86811E-03   -0.23656E-02 38968   0.403E-01    0.126E+00
DAV:   5    -0.344311054735E+03    0.17068E-02   -0.98555E-03 38632   0.251E-01    0.519E-01
DAV:   6    -0.344312736818E+03   -0.16821E-02   -0.77452E-03 38912   0.182E-01    0.104E+00
DAV:   7    -0.344311314421E+03    0.14224E-02   -0.49112E-03 40288   0.201E-01    0.640E-01
DAV:   8    -0.344311251236E+03    0.63185E-04   -0.51324E-03 40352   0.176E-01    0.512E-01
DAV:   9    -0.344311336922E+03   -0.85686E-04   -0.20387E-03 39392   0.146E-01    0.396E-01
DAV:  10    -0.344311214168E+03    0.12275E-03   -0.17300E-03 39360   0.114E-01    0.284E-01
DAV:  11    -0.344311238364E+03   -0.24196E-04   -0.93065E-04 37584   0.826E-02    0.279E-01
DAV:  12    -0.344311217910E+03    0.20454E-04   -0.42576E-04 32040   0.553E-02    0.217E-01
DAV:  13    -0.344311194943E+03    0.22967E-04   -0.19694E-04 26776   0.434E-02    0.129E-01
DAV:  14    -0.344311235483E+03   -0.40540E-04   -0.96969E-05 23784   0.319E-02    0.183E-01
DAV:  15    -0.344311206316E+03    0.29167E-04   -0.95941E-05 23904   0.306E-02    0.128E-01
DAV:  16    -0.344311220160E+03   -0.13844E-04   -0.90132E-05 22976   0.269E-02    0.123E-01
DAV:  17    -0.344311234512E+03   -0.14351E-04   -0.11677E-04 27144   0.310E-02    0.135E-01
DAV:  18    -0.344311217080E+03    0.17431E-04   -0.10223E-04 22824   0.264E-02    0.853E-02
DAV:  19    -0.344311220124E+03   -0.30441E-05   -0.35164E-05 22968   0.209E-02
  37 F= -.34431122E+03 E0= -.34429590E+03  d E =-.110270E-01  mag=    20.0000
       N       E                     dE             d eps       ncg     rms          rms(c)
DAV:   1    -0.344310333792E+03    0.88329E-03   -0.50405E-01 32352   0.217E+00    0.163E-01
DAV:   2    -0.344313195390E+03   -0.28616E-02   -0.20874E-02 32544   0.380E-01    0.916E-01
DAV:   3    -0.344311778429E+03    0.14170E-02   -0.31646E-03 37840   0.158E-01    0.177E-01
DAV:   4    -0.344312224229E+03   -0.44580E-03   -0.50433E-04 34504   0.666E-02    0.232E-01
DAV:   5    -0.344312129366E+03    0.94863E-04   -0.27395E-04 29344   0.472E-02    0.887E-02
DAV:   6    -0.344312155639E+03   -0.26273E-04   -0.82730E-05 23352   0.266E-02    0.130E-01
DAV:   7    -0.344312138738E+03    0.16902E-04   -0.11293E-04 22896   0.282E-02    0.113E-01
DAV:   8    -0.344312128156E+03    0.10581E-04   -0.13062E-04 22776   0.303E-02    0.820E-02
DAV:   9    -0.344312143363E+03   -0.15207E-04   -0.87105E-05 21888   0.278E-02    0.103E-01
DAV:  10    -0.344312132577E+03    0.10786E-04   -0.59010E-05 21240   0.257E-02    0.685E-02
DAV:  11    -0.344312140759E+03   -0.81812E-05   -0.32590E-05 18488   0.162E-02
  38 F= -.34431214E+03 E0= -.34429679E+03  d E =-.920634E-03  mag=    20.0000
       N       E                     dE             d eps       ncg     rms          rms(c)
DAV:   1    -0.344303790020E+03    0.83426E-02   -0.27713E+00 32168   0.507E+00    0.295E-01
DAV:   2    -0.344313705294E+03   -0.99153E-02   -0.98271E-02 29952   0.832E-01    0.515E-01
DAV:   3    -0.344314511595E+03   -0.80630E-03   -0.63893E-03 39800   0.244E-01    0.888E-01
DAV:   4    -0.344313347902E+03    0.11637E-02   -0.27264E-03 38056   0.162E-01    0.392E-01
DAV:   5    -0.344313438291E+03   -0.90388E-04   -0.94963E-04 37616   0.801E-02    0.146E-01
DAV:   6    -0.344313528348E+03   -0.90057E-04   -0.38920E-04 31248   0.493E-02    0.207E-01
DAV:   7    -0.344313453984E+03    0.74364E-04   -0.23573E-04 35680   0.533E-02    0.149E-01
DAV:   8    -0.344313479059E+03   -0.25074E-04   -0.36328E-04 32120   0.502E-02    0.185E-01
DAV:   9    -0.344313497323E+03   -0.18264E-04   -0.30823E-04 33576   0.490E-02    0.204E-01
DAV:  10    -0.344313435720E+03    0.61602E-04   -0.15450E-04 24896   0.390E-02    0.626E-02
DAV:  11    -0.344313466295E+03   -0.30575E-04   -0.37699E-05 20320   0.207E-02    0.787E-02
DAV:  12    -0.344313461260E+03    0.50357E-05   -0.17824E-05 17808   0.149E-02
  39 F= -.34431346E+03 E0= -.34429810E+03  d E =-.132050E-02  mag=    20.0000
       N       E                     dE             d eps       ncg     rms          rms(c)
DAV:   1    -0.344237367751E+03    0.76099E-01   -0.22161E+01 32280   0.144E+01    0.837E-01
DAV:   2    -0.344316404742E+03   -0.79037E-01   -0.79456E-01 29952   0.238E+00    0.121E+00
DAV:   3    -0.344325063291E+03   -0.86585E-02   -0.51975E-02 40408   0.652E-01    0.270E+00
DAV:   4    -0.344314957026E+03    0.10106E-01   -0.34270E-02 38816   0.455E-01    0.122E+00
DAV:   5    -0.344315173876E+03   -0.21685E-03   -0.64173E-03 38424   0.231E-01    0.361E-01
DAV:   6    -0.344316368611E+03   -0.11947E-02   -0.42809E-03 38208   0.158E-01    0.717E-01
DAV:   7    -0.344315319810E+03    0.10488E-02   -0.26770E-03 38592   0.158E-01    0.341E-01
DAV:   8    -0.344315903012E+03   -0.58320E-03   -0.24741E-03 40328   0.137E-01    0.621E-01
DAV:   9    -0.344315580628E+03    0.32238E-03   -0.18451E-03 38736   0.124E-01    0.385E-01
DAV:  10    -0.344315503765E+03    0.76863E-04   -0.73076E-04 38888   0.857E-02    0.174E-01
DAV:  11    -0.344315550573E+03   -0.46808E-04   -0.23862E-04 30784   0.491E-02    0.170E-01
DAV:  12    -0.344315534639E+03    0.15934E-04   -0.13793E-04 24664   0.339E-02    0.122E-01
DAV:  13    -0.344315534511E+03    0.12813E-06   -0.12739E-04 23936   0.327E-02    0.128E-01
DAV:  14    -0.344315539815E+03   -0.53047E-05   -0.18169E-04 24120   0.361E-02    0.125E-01
DAV:  15    -0.344315568567E+03   -0.28751E-04   -0.18251E-04 24608   0.390E-02    0.175E-01
DAV:  16    -0.344315538011E+03    0.30556E-04   -0.19221E-04 23904   0.366E-02    0.973E-02
DAV:  17    -0.344315558431E+03   -0.20420E-04   -0.10532E-04 21760   0.267E-02    0.112E-01
DAV:  18    -0.344315539102E+03    0.19328E-04   -0.47157E-05 20320   0.235E-02    0.323E-02
DAV:  19    -0.344315549783E+03   -0.10681E-04   -0.20117E-05 16792   0.112E-02    0.553E-02
DAV:  20    -0.344315544431E+03    0.53527E-05   -0.12873E-05 16728   0.104E-02
  40 F= -.34431554E+03 E0= -.34430017E+03  d E =-.208317E-02  mag=    20.0000
       N       E                     dE             d eps       ncg     rms          rms(c)
DAV:   1    -0.344309466833E+03    0.60830E-02   -0.17633E+00 31896   0.408E+00    0.271E-01
DAV:   2    -0.344317306838E+03   -0.78400E-02   -0.72136E-02 30152   0.704E-01    0.101E+00
DAV:   3    -0.344316012659E+03    0.12942E-02   -0.75066E-03 39416   0.228E-01    0.497E-01
DAV:   4    -0.344316628198E+03   -0.61554E-03   -0.34887E-03 38712   0.138E-01    0.576E-01
DAV:   5    -0.344316036157E+03    0.59204E-03   -0.23441E-03 38584   0.107E-01    0.160E-01
DAV:   6    -0.344316173391E+03   -0.13723E-03   -0.47027E-04 31368   0.505E-02    0.185E-01
DAV:   7    -0.344316181326E+03   -0.79350E-05   -0.35532E-04 37592   0.581E-02    0.255E-01
DAV:   8    -0.344316087778E+03    0.93548E-04   -0.38604E-04 35768   0.503E-02    0.128E-01
DAV:   9    -0.344316137538E+03   -0.49760E-04   -0.17628E-04 28176   0.439E-02    0.151E-01
DAV:  10    -0.344316107293E+03    0.30245E-04   -0.10890E-04 23920   0.343E-02    0.819E-02
DAV:  11    -0.344316107227E+03    0.66124E-07   -0.23548E-05 18888   0.189E-02
  41 F= -.34431611E+03 E0= -.34430076E+03  d E =-.562796E-03  mag=    20.0000
       N       E                     dE             d eps       ncg     rms          rms(c)
DAV:   1    -0.344312529235E+03    0.35781E-02   -0.74663E-01 32344   0.283E+00    0.190E-01
DAV:   2    -0.344315919259E+03   -0.33900E-02   -0.32867E-02 30296   0.487E-01    0.522E-01
DAV:   3    -0.344315769691E+03    0.14957E-03   -0.26760E-03 39960   0.150E-01    0.416E-01
DAV:   4    -0.344315726936E+03    0.42754E-04   -0.10088E-03 38456   0.885E-02    0.274E-01
DAV:   5    -0.344315645755E+03    0.81182E-04   -0.29516E-04 31488   0.565E-02    0.124E-01
DAV:   6    -0.344315747392E+03   -0.10164E-03   -0.26619E-04 26640   0.436E-02    0.265E-01
DAV:   7    -0.344315650015E+03    0.97377E-04   -0.32548E-04 36640   0.562E-02    0.155E-01
DAV:   8    -0.344315672322E+03   -0.22307E-04   -0.25231E-04 29128   0.474E-02    0.135E-01
DAV:   9    -0.344315685164E+03   -0.12843E-04   -0.14546E-04 24656   0.361E-02    0.129E-01
DAV:  10    -0.344315662617E+03    0.22547E-04   -0.88344E-05 20968   0.253E-02    0.595E-02
DAV:  11    -0.344315664765E+03   -0.21479E-05   -0.11081E-05 17112   0.111E-02
  42 F= -.34431566E+03 E0= -.34430031E+03  d E =0.442462E-03  mag=    20.0000
       N       E                     dE             d eps       ncg     rms          rms(c)
DAV:   1    -0.344315657779E+03    0.48387E-05   -0.91028E-02 31872   0.910E-01    0.786E-02
DAV:   2    -0.344316103748E+03   -0.44597E-03   -0.36687E-03 30992   0.163E-01    0.292E-01
DAV:   3    -0.344315970164E+03    0.13358E-03   -0.51687E-04 36832   0.710E-02    0.133E-01
DAV:   4    -0.344316013029E+03   -0.42865E-04   -0.13678E-04 25712   0.371E-02    0.137E-01
DAV:   5    -0.344315979364E+03    0.33665E-04   -0.73526E-05 21728   0.301E-02    0.563E-02
DAV:   6    -0.344316004041E+03   -0.24677E-04   -0.71499E-05 20696   0.217E-02    0.117E-01
DAV:   7    -0.344315992063E+03    0.11978E-04   -0.56545E-05 20760   0.249E-02    0.652E-02
DAV:   8    -0.344315994311E+03   -0.22483E-05   -0.39388E-05 18768   0.200E-02
  43 F= -.34431599E+03 E0= -.34430060E+03  d E =-.329546E-03  mag=    20.0000
       N       E                     dE             d eps       ncg     rms          rms(c)
DAV:   1    -0.344301531957E+03    0.14460E-01   -0.46104E+00 31928   0.656E+00    0.412E-01
DAV:   2    -0.344319306182E+03   -0.17774E-01   -0.17316E-01 29952   0.111E+00    0.102E+00
DAV:   3    -0.344319410310E+03   -0.10413E-03   -0.12621E-02 40160   0.309E-01    0.112E+00
DAV:   4    -0.344318303349E+03    0.11070E-02   -0.55245E-03 38096   0.203E-01    0.542E-01
DAV:   5    -0.344318147513E+03    0.15584E-03   -0.16938E-03 39064   0.116E-01    0.185E-01
DAV:   6    -0.344318444313E+03   -0.29680E-03   -0.92272E-04 36760   0.801E-02    0.430E-01
DAV:   7    -0.344318155337E+03    0.28898E-03   -0.90633E-04 39200   0.839E-02    0.234E-01
DAV:   8    -0.344318259187E+03   -0.10385E-03   -0.59865E-04 39832   0.847E-02    0.277E-01
DAV:   9    -0.344318183418E+03    0.75769E-04   -0.37151E-04 38864   0.647E-02    0.178E-01
DAV:  10    -0.344318213748E+03   -0.30330E-04   -0.31301E-04 28096   0.467E-02    0.179E-01
DAV:  11    -0.344318163869E+03    0.49878E-04   -0.17541E-04 23856   0.366E-02    0.631E-02
DAV:  12    -0.344318172440E+03   -0.85709E-05   -0.44583E-05 19464   0.166E-02
  44 F= -.34431817E+03 E0= -.34430278E+03  d E =-.217813E-02  mag=    20.0000
       N       E                     dE             d eps       ncg     rms          rms(c)
DAV:   1    -0.344246506475E+03    0.71657E-01   -0.14957E+01 32296   0.130E+01    0.942E-01
DAV:   2    -0.344325779039E+03   -0.79273E-01   -0.76939E-01 30088   0.221E+00    0.222E+00
DAV:   3    -0.344323370399E+03    0.24086E-02   -0.60982E-02 38888   0.727E-01    0.183E+00
DAV:   4    -0.344325497800E+03   -0.21274E-02   -0.31363E-02 38552   0.474E-01    0.209E+00
DAV:   5    -0.344319136378E+03    0.63614E-02   -0.16114E-02 38792   0.332E-01    0.441E-01
DAV:   6    -0.344321341315E+03   -0.22049E-02   -0.49253E-03 37464   0.167E-01    0.727E-01
DAV:   7    -0.344321006912E+03    0.33440E-03   -0.53045E-03 39528   0.168E-01    0.635E-01
DAV:   8    -0.344320544489E+03    0.46242E-03   -0.38035E-03 40000   0.145E-01    0.316E-01
DAV:   9    -0.344321195817E+03   -0.65133E-03   -0.15228E-03 38824   0.117E-01    0.639E-01
DAV:  10    -0.344320487111E+03    0.70871E-03   -0.16587E-03 39088   0.103E-01    0.165E-01
DAV:  11    -0.344320753788E+03   -0.26668E-03   -0.39869E-04 35224   0.628E-02    0.256E-01
DAV:  12    -0.344320681559E+03    0.72229E-04   -0.30486E-04 29088   0.524E-02    0.151E-01
DAV:  13    -0.344320701951E+03   -0.20392E-04   -0.14694E-04 25768   0.404E-02    0.126E-01
DAV:  14    -0.344320695651E+03    0.62998E-05   -0.97287E-05 23312   0.339E-02
  45 F= -.34432070E+03 E0= -.34430535E+03  d E =-.252321E-02  mag=    20.0000
       N       E                     dE             d eps       ncg     rms          rms(c)
DAV:   1    -0.344280212549E+03    0.40489E-01   -0.72327E+00 32640   0.934E+00    0.714E-01
DAV:   2    -0.344324493552E+03   -0.44281E-01   -0.41835E-01 29984   0.165E+00    0.207E+00
DAV:   3    -0.344321263069E+03    0.32305E-02   -0.54770E-02 39240   0.582E-01    0.151E+00
DAV:   4    -0.344322439985E+03   -0.11769E-02   -0.17173E-02 39040   0.353E-01    0.147E+00
DAV:   5    -0.344319164100E+03    0.32759E-02   -0.10731E-02 38936   0.264E-01    0.440E-01
DAV:   6    -0.344320047746E+03   -0.88365E-03   -0.34457E-03 37376   0.137E-01    0.485E-01
DAV:   7    -0.344320191093E+03   -0.14335E-03   -0.33815E-03 38960   0.136E-01    0.611E-01
DAV:   8    -0.344319551344E+03    0.63975E-03   -0.26852E-03 40080   0.122E-01    0.229E-01
DAV:   9    -0.344320045873E+03   -0.49453E-03   -0.14465E-03 39544   0.997E-02    0.456E-01
DAV:  10    -0.344319644391E+03    0.40148E-03   -0.12464E-03 38912   0.876E-02    0.163E-01
DAV:  11    -0.344319749198E+03   -0.10481E-03   -0.22780E-04 27240   0.414E-02    0.165E-01
DAV:  12    -0.344319730408E+03    0.18790E-04   -0.11900E-04 23776   0.342E-02    0.968E-02
DAV:  13    -0.344319739882E+03   -0.94736E-05   -0.67260E-05 22072   0.264E-02
  46 F= -.34431974E+03 E0= -.34430437E+03  d E =0.955770E-03  mag=    20.0000
       N       E                     dE             d eps       ncg     rms          rms(c)
DAV:   1    -0.344300262227E+03    0.19468E-01   -0.25578E+00 32992   0.617E+00    0.457E-01
DAV:   2    -0.344317921767E+03   -0.17660E-01   -0.17545E-01 30264   0.108E+00    0.985E-01
DAV:   3    -0.344319032430E+03   -0.11107E-02   -0.16125E-02 39928   0.375E-01    0.130E+00
DAV:   4    -0.344317748825E+03    0.12836E-02   -0.76613E-03 38616   0.251E-01    0.816E-01
DAV:   5    -0.344317050440E+03    0.69838E-03   -0.40404E-03 38240   0.157E-01    0.217E-01
DAV:   6    -0.344317451813E+03   -0.40137E-03   -0.82242E-04 39032   0.884E-02    0.323E-01
DAV:   7    -0.344317356609E+03    0.95204E-04   -0.49814E-04 39592   0.829E-02    0.236E-01
DAV:   8    -0.344317381571E+03   -0.24963E-04   -0.74143E-04 39528   0.800E-02    0.268E-01
DAV:   9    -0.344317341342E+03    0.40229E-04   -0.52523E-04 36168   0.647E-02    0.201E-01
DAV:  10    -0.344317347101E+03   -0.57592E-05   -0.31475E-04 28112   0.504E-02    0.169E-01
DAV:  11    -0.344317314649E+03    0.32452E-04   -0.99124E-05 25352   0.384E-02    0.854E-02
DAV:  12    -0.344317316938E+03   -0.22892E-05   -0.39719E-05 20232   0.189E-02
  47 F= -.34431732E+03 E0= -.34430194E+03  d E =0.242294E-02  mag=    20.0000
       N       E                     dE             d eps       ncg     rms          rms(c)
DAV:   1    -0.344312305755E+03    0.50089E-02   -0.10183E+00 32832   0.386E+00    0.299E-01
DAV:   2    -0.344319830976E+03   -0.75252E-02   -0.72689E-02 30520   0.694E-01    0.839E-01
DAV:   3    -0.344319498168E+03    0.33281E-03   -0.84044E-03 38480   0.254E-01    0.758E-01
DAV:   4    -0.344319511404E+03   -0.13236E-04   -0.50640E-03 38856   0.166E-01    0.576E-01
DAV:   5    -0.344319002865E+03    0.50854E-03   -0.21109E-03 38288   0.120E-01    0.163E-01
DAV:   6    -0.344319157016E+03   -0.15415E-03   -0.37139E-04 31096   0.526E-02    0.198E-01
DAV:   7    -0.344319130376E+03    0.26640E-04   -0.22467E-04 31800   0.485E-02    0.168E-01
DAV:   8    -0.344319105948E+03    0.24428E-04   -0.20926E-04 25096   0.387E-02    0.107E-01
DAV:   9    -0.344319127660E+03   -0.21712E-04   -0.10147E-04 23656   0.306E-02    0.136E-01
DAV:  10    -0.344319096933E+03    0.30727E-04   -0.66996E-05 22280   0.268E-02    0.587E-02
DAV:  11    -0.344319119696E+03   -0.22763E-04   -0.59239E-05 21416   0.211E-02    0.125E-01
DAV:  12    -0.344319095422E+03    0.24274E-04   -0.68338E-05 22512   0.248E-02    0.616E-02
DAV:  13    -0.344319117772E+03   -0.22350E-04   -0.88287E-05 22040   0.257E-02    0.108E-01
DAV:  14    -0.344319102639E+03    0.15133E-04   -0.83003E-05 19776   0.247E-02    0.469E-02
DAV:  15    -0.344319108472E+03   -0.58333E-05   -0.18026E-05 18040   0.151E-02
  48 F= -.34431911E+03 E0= -.34430370E+03  d E =-.179153E-02  mag=    20.0000
       N       E                     dE             d eps       ncg     rms          rms(c)
DAV:   1    -0.344318063844E+03    0.10388E-02   -0.33077E-01 32680   0.194E+00    0.132E-01
DAV:   2    -0.344319675642E+03   -0.16118E-02   -0.16043E-02 30144   0.333E-01    0.302E-01
DAV:   3    -0.344319729291E+03   -0.53649E-04   -0.19704E-03 40136   0.107E-01    0.359E-01
DAV:   4    -0.344319598506E+03    0.13078E-03   -0.58796E-04 35440   0.695E-02    0.182E-01
DAV:   5    -0.344319586106E+03    0.12400E-04   -0.21505E-04 27568   0.409E-02    0.718E-02
DAV:   6    -0.344319607369E+03   -0.21263E-04   -0.62956E-05 22152   0.254E-02    0.111E-01
DAV:   7    -0.344319600021E+03    0.73481E-05   -0.90317E-05 22744   0.279E-02
  49 F= -.34431960E+03 E0= -.34430421E+03  d E =-.491549E-03  mag=    20.0000
       N       E                     dE             d eps       ncg     rms          rms(c)
DAV:   1    -0.344318683668E+03    0.92370E-03   -0.31540E-01 32656   0.170E+00    0.126E-01
DAV:   2    -0.344320601189E+03   -0.19175E-02   -0.13197E-02 32592   0.307E-01    0.830E-01
DAV:   3    -0.344319442586E+03    0.11586E-02   -0.26876E-03 38544   0.143E-01    0.169E-01
DAV:   4    -0.344319794529E+03   -0.35194E-03   -0.41985E-04 34768   0.645E-02    0.218E-01
DAV:   5    -0.344319729618E+03    0.64910E-04   -0.20184E-04 29656   0.466E-02    0.940E-02
DAV:   6    -0.344319738672E+03   -0.90536E-05   -0.38136E-05 20288   0.204E-02
  50 F= -.34431974E+03 E0= -.34430432E+03  d E =-.138651E-03  mag=    20.0000
       N       E                     dE             d eps       ncg     rms          rms(c)
DAV:   1    -0.344318107007E+03    0.16226E-02   -0.29670E-01 32016   0.175E+00    0.136E-01
DAV:   2    -0.344319694833E+03   -0.15878E-02   -0.13379E-02 32096   0.308E-01    0.583E-01
DAV:   3    -0.344319154959E+03    0.53987E-03   -0.18968E-03 37048   0.135E-01    0.222E-01
DAV:   4    -0.344319306116E+03   -0.15116E-03   -0.62777E-04 33992   0.648E-02    0.223E-01
DAV:   5    -0.344319244474E+03    0.61642E-04   -0.20781E-04 29248   0.466E-02    0.971E-02
DAV:   6    -0.344319265634E+03   -0.21159E-04   -0.11078E-04 22616   0.296E-02    0.118E-01
DAV:   7    -0.344319282676E+03   -0.17043E-04   -0.13781E-04 24816   0.365E-02    0.160E-01
DAV:   8    -0.344319250806E+03    0.31870E-04   -0.11616E-04 23272   0.353E-02    0.830E-02
DAV:   9    -0.344319256026E+03   -0.52192E-05   -0.37477E-05 20136   0.222E-02
  51 F= -.34431926E+03 E0= -.34430385E+03  d E =0.482646E-03  mag=    20.0000
       N       E                     dE             d eps       ncg     rms          rms(c)
DAV:   1    -0.344317705221E+03    0.15456E-02   -0.23404E-01 31800   0.160E+00    0.120E-01
DAV:   2    -0.344318953877E+03   -0.12487E-02   -0.11851E-02 30168   0.284E-01    0.328E-01
DAV:   3    -0.344318861021E+03    0.92857E-04   -0.11526E-03 38736   0.972E-02    0.250E-01
DAV:   4    -0.344318885418E+03   -0.24397E-04   -0.71034E-04 33616   0.618E-02    0.229E-01
DAV:   5    -0.344318811715E+03    0.73703E-04   -0.31255E-04 25960   0.431E-02    0.972E-02
DAV:   6    -0.344318826327E+03   -0.14612E-04   -0.70998E-05 21064   0.265E-02    0.968E-02
DAV:   7    -0.344318828785E+03   -0.24578E-05   -0.85286E-05 22536   0.287E-02
  52 F= -.34431883E+03 E0= -.34430347E+03  d E =0.427240E-03  mag=    20.0000
       N       E                     dE             d eps       ncg     rms          rms(c)
DAV:   1    -0.344313270935E+03    0.55554E-02   -0.11067E+00 32032   0.330E+00    0.238E-01
DAV:   2    -0.344319008180E+03   -0.57372E-02   -0.49905E-02 31040   0.587E-01    0.949E-01
DAV:   3    -0.344317553176E+03    0.14550E-02   -0.59052E-03 37744   0.228E-01    0.410E-01
DAV:   4    -0.344318091290E+03   -0.53811E-03   -0.22252E-03 38440   0.127E-01    0.480E-01
DAV:   5    -0.344317733187E+03    0.35810E-03   -0.11102E-03 37656   0.953E-02    0.199E-01
DAV:   6    -0.344317782842E+03   -0.49655E-04   -0.36278E-04 27376   0.473E-02    0.136E-01
DAV:   7    -0.344317842434E+03   -0.59592E-04   -0.24134E-04 29856   0.472E-02    0.232E-01
DAV:   8    -0.344317758982E+03    0.83452E-04   -0.31258E-04 30520   0.497E-02    0.104E-01
DAV:   9    -0.344317776900E+03   -0.17918E-04   -0.10044E-04 27024   0.385E-02    0.913E-02
DAV:  10    -0.344317784101E+03   -0.72009E-05   -0.91858E-05 23496   0.298E-02
  53 F= -.34431778E+03 E0= -.34430241E+03  d E =0.104468E-02  mag=    20.0000
       N       E                     dE             d eps       ncg     rms          rms(c)
DAV:   1    -0.344308494712E+03    0.92822E-02   -0.23978E+00 32072   0.476E+00    0.294E-01
DAV:   2    -0.344317516581E+03   -0.90219E-02   -0.88670E-02 29960   0.784E-01    0.660E-01
DAV:   3    -0.344317635262E+03   -0.11868E-03   -0.70107E-03 40128   0.248E-01    0.729E-01
DAV:   4    -0.344317526468E+03    0.10879E-03   -0.43981E-03 38680   0.156E-01    0.642E-01
DAV:   5    -0.344316954442E+03    0.57203E-03   -0.14049E-03 38152   0.112E-01    0.129E-01
DAV:   6    -0.344317175724E+03   -0.22128E-03   -0.41559E-04 31880   0.541E-02    0.240E-01
DAV:   7    -0.344317114227E+03    0.61497E-04   -0.35733E-04 36752   0.555E-02    0.192E-01
DAV:   8    -0.344317090678E+03    0.23548E-04   -0.32225E-04 31904   0.500E-02    0.101E-01
DAV:   9    -0.344317135638E+03   -0.44959E-04   -0.13373E-04 29280   0.357E-02    0.143E-01
DAV:  10    -0.344317105953E+03    0.29685E-04   -0.11307E-04 22576   0.269E-02    0.656E-02
DAV:  11    -0.344317111558E+03   -0.56050E-05   -0.19578E-05 19184   0.161E-02
  54 F= -.34431711E+03 E0= -.34430167E+03  d E =0.672543E-03  mag=    20.0000
       N       E                     dE             d eps       ncg     rms          rms(c)
DAV:   1    -0.344312904914E+03    0.42010E-02   -0.98800E-01 31928   0.313E+00    0.200E-01
DAV:   2    -0.344316883033E+03   -0.39781E-02   -0.39368E-02 29952   0.526E-01    0.445E-01
DAV:   3    -0.344317093837E+03   -0.21080E-03   -0.30898E-03 40520   0.158E-01    0.591E-01
DAV:   4    -0.344316725400E+03    0.36844E-03   -0.11422E-03 37936   0.103E-01    0.269E-01
DAV:   5    -0.344316726898E+03   -0.14975E-05   -0.30131E-04 32880   0.569E-02    0.116E-01
DAV:   6    -0.344316773199E+03   -0.46301E-04   -0.16787E-04 25592   0.378E-02    0.162E-01
DAV:   7    -0.344316744620E+03    0.28578E-04   -0.17050E-04 31472   0.435E-02    0.119E-01
DAV:   8    -0.344316772468E+03   -0.27848E-04   -0.21970E-04 26776   0.411E-02    0.172E-01
DAV:   9    -0.344316742949E+03    0.29519E-04   -0.15716E-04 26232   0.373E-02    0.926E-02
DAV:  10    -0.344316752083E+03   -0.91343E-05   -0.87600E-05 20784   0.257E-02
  55 F= -.34431675E+03 E0= -.34430131E+03  d E =0.359474E-03  mag=    20.0000
       N       E                     dE             d eps       ncg     rms          rms(c)
DAV:   1    -0.344315368720E+03    0.13742E-02   -0.49681E-01 31912   0.228E+00    0.172E-01
DAV:   2    -0.344318008385E+03   -0.26397E-02   -0.23042E-02 31480   0.410E-01    0.694E-01
DAV:   3    -0.344317312512E+03    0.69587E-03   -0.29246E-03 37496   0.157E-01    0.317E-01
DAV:   4    -0.344317538984E+03   -0.22647E-03   -0.11231E-03 37272   0.886E-02    0.320E-01
DAV:   5    -0.344317388244E+03    0.15074E-03   -0.41879E-04 34328   0.579E-02    0.120E-01
DAV:   6    -0.344317410749E+03   -0.22504E-04   -0.13946E-04 22320   0.278E-02    0.107E-01
DAV:   7    -0.344317431757E+03   -0.21008E-04   -0.15621E-04 25720   0.356E-02    0.169E-01
DAV:   8    -0.344317388431E+03    0.43326E-04   -0.15393E-04 27808   0.379E-02    0.860E-02
DAV:   9    -0.344317424365E+03   -0.35934E-04   -0.10182E-04 23376   0.301E-02    0.139E-01
DAV:  10    -0.344317394158E+03    0.30207E-04   -0.95548E-05 22064   0.299E-02    0.544E-02
DAV:  11    -0.344317406288E+03   -0.12129E-04   -0.25527E-05 18288   0.154E-02    0.715E-02
DAV:  12    -0.344317400990E+03    0.52978E-05   -0.19452E-05 17480   0.133E-02
  56 F= -.34431740E+03 E0= -.34430197E+03  d E =-.648906E-03  mag=    20.0000
       N       E                     dE             d eps       ncg     rms          rms(c)
DAV:   1    -0.344317033527E+03    0.37276E-03   -0.57965E-02 33416   0.910E-01    0.936E-02
DAV:   2    -0.344317627656E+03   -0.59413E-03   -0.50576E-03 31768   0.181E-01    0.373E-01
DAV:   3    -0.344317412758E+03    0.21490E-03   -0.86335E-04 36712   0.918E-02    0.144E-01
DAV:   4    -0.344317488344E+03   -0.75586E-04   -0.28303E-04 29352   0.448E-02    0.178E-01
DAV:   5    -0.344317436670E+03    0.51673E-04   -0.14737E-04 25664   0.350E-02    0.620E-02
DAV:   6    -0.344317449645E+03   -0.12975E-04   -0.30137E-05 18992   0.183E-02    0.635E-02
DAV:   7    -0.344317452393E+03   -0.27479E-05   -0.28456E-05 19272   0.193E-02
  57 F= -.34431745E+03 E0= -.34430200E+03  d E =-.514031E-04  mag=    20.0000
       N       E                     dE             d eps       ncg     rms          rms(c)
DAV:   1    -0.344316604680E+03    0.84496E-03   -0.20670E-01 32152   0.142E+00    0.878E-02
DAV:   2    -0.344317449648E+03   -0.84497E-03   -0.76711E-03 29952   0.235E-01    0.315E-01
DAV:   3    -0.344317311021E+03    0.13863E-03   -0.62931E-04 38768   0.745E-02    0.166E-01
DAV:   4    -0.344317387276E+03   -0.76255E-04   -0.23991E-04 28856   0.483E-02    0.180E-01
DAV:   5    -0.344317332676E+03    0.54600E-04   -0.10917E-04 22248   0.344E-02    0.567E-02
DAV:   6    -0.344317345779E+03   -0.13103E-04   -0.34052E-05 17976   0.152E-02    0.538E-02
DAV:   7    -0.344317345039E+03    0.74004E-06   -0.16477E-05 17528   0.132E-02
  58 F= -.34431735E+03 E0= -.34430190E+03  d E =0.107354E-03  mag=    20.0000
