       N       E                     dE             d eps       ncg     rms          rms(c)
DAV:   1     0.598724437716E+04    0.59872E+04   -0.25426E+05 33728   0.162E+03
DAV:   2     0.314915731371E+03   -0.56723E+04   -0.51905E+04 33504   0.473E+02
DAV:   3    -0.375764455008E+03   -0.69068E+03   -0.67894E+03 33712   0.183E+02
DAV:   4    -0.394801707191E+03   -0.19037E+02   -0.18937E+02 36992   0.319E+01
DAV:   5    -0.395168107062E+03   -0.36640E+00   -0.36493E+00 44656   0.389E+00    0.890E+01
DAV:   6    -0.338449498577E+03    0.56719E+02   -0.39211E+02 40336   0.671E+01    0.108E+02
DAV:   7    -0.368479257069E+03   -0.30030E+02   -0.36790E+02 34512   0.669E+01    0.123E+02
DAV:   8    -0.317386726257E+03    0.51093E+02   -0.10347E+02 35264   0.455E+01    0.614E+01
DAV:   9    -0.364036766819E+03   -0.46650E+02   -0.42151E+02 34928   0.398E+01    0.108E+02
DAV:  10    -0.329322027884E+03    0.34715E+02   -0.57938E+01 34816   0.393E+01    0.856E+01
DAV:  11    -0.319752918798E+03    0.95691E+01   -0.14058E+02 34912   0.302E+01    0.793E+01
DAV:  12    -0.308794860750E+03    0.10958E+02   -0.13081E+02 34944   0.188E+01    0.534E+01
DAV:  13    -0.312158659640E+03   -0.33638E+01   -0.11980E+02 35184   0.221E+01    0.639E+01
DAV:  14    -0.305085913739E+03    0.70727E+01   -0.50942E+01 34672   0.147E+01    0.552E+01
DAV:  15    -0.303207800264E+03    0.18781E+01   -0.72497E+01 34656   0.114E+01    0.344E+01
DAV:  16    -0.305516721053E+03   -0.23089E+01   -0.20686E+01 35824   0.575E+00    0.400E+01
DAV:  17    -0.306475570115E+03   -0.95885E+00   -0.21056E+01 34016   0.429E+00    0.307E+01
DAV:  18    -0.306019017707E+03    0.45655E+00   -0.55518E-01 32864   0.117E+00    0.301E+01
DAV:  19    -0.306121822712E+03   -0.10281E+00   -0.15433E-01 33600   0.556E-01    0.304E+01
DAV:  20    -0.305945695093E+03    0.17613E+00   -0.23817E+00 37088   0.217E+00    0.338E+01
DAV:  21    -0.306058036792E+03   -0.11234E+00   -0.83214E-02 33072   0.714E-01    0.342E+01
DAV:  22    -0.305977295153E+03    0.80742E-01   -0.49470E-02 37664   0.675E-01    0.336E+01
DAV:  23    -0.305983490550E+03   -0.61954E-02   -0.45639E-03 33504   0.157E-01    0.335E+01
DAV:  24    -0.305995677914E+03   -0.12187E-01   -0.12954E-03 36928   0.593E-02    0.334E+01
DAV:  25    -0.306282443541E+03   -0.28677E+00   -0.75174E-02 34928   0.458E-01    0.329E+01
DAV:  26    -0.308275545856E+03   -0.19931E+01   -0.18705E+00 35568   0.241E+00    0.320E+01
DAV:  27    -0.309870114777E+03   -0.15946E+01   -0.30465E+00 37744   0.259E+00    0.283E+01
DAV:  28    -0.311028919341E+03   -0.11588E+01   -0.61426E-01 35184   0.133E+00    0.268E+01
DAV:  29    -0.312013496862E+03   -0.98458E+00   -0.73082E-01 35424   0.106E+00    0.264E+01
DAV:  30    -0.311479008701E+03    0.53449E+00   -0.13098E-01 33216   0.101E+00    0.267E+01
DAV:  31    -0.311519599088E+03   -0.40590E-01   -0.85542E-03 33488   0.251E-01    0.265E+01
DAV:  32    -0.313441432268E+03   -0.19218E+01   -0.14311E+00 38192   0.298E+00    0.241E+01
DAV:  33    -0.315530464325E+03   -0.20890E+01   -0.31499E+00 37376   0.384E+00    0.215E+01
DAV:  34    -0.316104079632E+03   -0.57362E+00   -0.83170E-01 34224   0.307E+00    0.194E+01
DAV:  35    -0.316729305500E+03   -0.62523E+00   -0.12549E+00 35952   0.305E+00    0.201E+01
DAV:  36    -0.316910467571E+03   -0.18116E+00   -0.37045E-01 33808   0.108E+00    0.182E+01
DAV:  37    -0.317114614960E+03   -0.20415E+00   -0.12479E-01 36448   0.644E-01    0.176E+01
DAV:  38    -0.317202757966E+03   -0.88143E-01   -0.12327E-02 38272   0.310E-01    0.175E+01
DAV:  39    -0.317513081608E+03   -0.31032E+00   -0.49066E-02 42496   0.742E-01    0.168E+01
DAV:  40    -0.317834155869E+03   -0.32107E+00   -0.10532E-01 40976   0.867E-01    0.162E+01
DAV:  41    -0.317866484112E+03   -0.32328E-01   -0.28297E-01 38400   0.161E+00    0.157E+01
DAV:  42    -0.317648048986E+03    0.21844E+00   -0.12281E-01 38960   0.120E+00    0.157E+01
DAV:  43    -0.317650477498E+03   -0.24285E-02   -0.10670E-01 35472   0.987E-01    0.157E+01
DAV:  44    -0.317574719759E+03    0.75758E-01   -0.27279E-01 37104   0.178E+00    0.157E+01
DAV:  45    -0.317689866852E+03   -0.11515E+00   -0.16938E-01 39072   0.141E+00    0.154E+01
DAV:  46    -0.317715613607E+03   -0.25747E-01   -0.74862E-02 34608   0.823E-01    0.143E+01
DAV:  47    -0.317961092602E+03   -0.24548E+00   -0.18537E-01 38064   0.166E+00    0.120E+01
DAV:  48    -0.317946344629E+03    0.14748E-01   -0.77566E-02 35328   0.925E-01    0.115E+01
DAV:  49    -0.318142529334E+03   -0.19618E+00   -0.54684E-02 34768   0.732E-01    0.103E+01
DAV:  50    -0.318301594388E+03   -0.15907E+00   -0.76399E-02 37232   0.780E-01    0.924E+00
DAV:  51    -0.318562011571E+03   -0.26042E+00   -0.23784E-01 36672   0.166E+00    0.884E+00
DAV:  52    -0.318525861382E+03    0.36150E-01   -0.81203E-02 34048   0.934E-01    0.825E+00
DAV:  53    -0.318546181963E+03   -0.20321E-01   -0.42998E-02 38064   0.875E-01    0.832E+00
DAV:  54    -0.318556255849E+03   -0.10074E-01   -0.37748E-02 39712   0.833E-01    0.825E+00
DAV:  55    -0.318642456936E+03   -0.86201E-01   -0.47242E-02 37584   0.823E-01    0.792E+00
DAV:  56    -0.318474508625E+03    0.16795E+00   -0.22807E-01 38544   0.189E+00    0.112E+01
DAV:  57    -0.318494682047E+03   -0.20173E-01   -0.40532E-02 33904   0.597E-01    0.106E+01
DAV:  58    -0.318523097605E+03   -0.28416E-01   -0.67120E-03 36816   0.258E-01    0.104E+01
DAV:  59    -0.318525947851E+03   -0.28502E-02   -0.91119E-03 35472   0.345E-01    0.108E+01
DAV:  60    -0.318526441479E+03   -0.49363E-03   -0.66701E-04 34768   0.581E-02    0.108E+01
DAV:  61    -0.318607724491E+03   -0.81283E-01   -0.69135E-01 38368   0.244E+00    0.104E+01
DAV:  62    -0.318683463406E+03   -0.75739E-01   -0.13541E-01 34976   0.116E+00    0.818E+00
DAV:  63    -0.318725301149E+03   -0.41838E-01   -0.71711E-02 37504   0.893E-01    0.572E+00
DAV:  64    -0.318728629413E+03   -0.33283E-02   -0.36092E-02 39712   0.635E-01    0.481E+00
DAV:  65    -0.318754018078E+03   -0.25389E-01   -0.19393E-02 40704   0.445E-01    0.427E+00
DAV:  66    -0.318762116348E+03   -0.80983E-02   -0.48564E-02 38768   0.743E-01    0.440E+00
DAV:  67    -0.318795343776E+03   -0.33227E-01   -0.32354E-02 33408   0.548E-01    0.403E+00
DAV:  68    -0.318813939950E+03   -0.18596E-01   -0.91748E-03 35616   0.370E-01    0.364E+00
DAV:  69    -0.318821832981E+03   -0.78930E-02   -0.10123E-02 41120   0.334E-01    0.324E+00
DAV:  70    -0.318813137267E+03    0.86957E-02   -0.85345E-03 36064   0.276E-01    0.305E+00
DAV:  71    -0.318816778021E+03   -0.36408E-02   -0.11289E-01 36816   0.984E-01    0.337E+00
DAV:  72    -0.318810507272E+03    0.62707E-02   -0.13038E-02 34272   0.386E-01    0.270E+00
DAV:  73    -0.318808512991E+03    0.19943E-02   -0.47932E-03 37248   0.201E-01    0.225E+00
DAV:  74    -0.318806148336E+03    0.23647E-02   -0.31298E-03 37072   0.158E-01    0.193E+00
DAV:  75    -0.318804711560E+03    0.14368E-02   -0.32599E-03 40128   0.198E-01    0.166E+00
DAV:  76    -0.318796430178E+03    0.82814E-02   -0.78869E-02 37760   0.936E-01    0.134E+00
DAV:  77    -0.318796302533E+03    0.12765E-03   -0.11503E-02 33584   0.331E-01    0.861E-01
DAV:  78    -0.318795802480E+03    0.50005E-03   -0.11019E-03 35632   0.127E-01    0.734E-01
DAV:  79    -0.318795309032E+03    0.49345E-03   -0.10280E-03 35520   0.127E-01    0.595E-01
DAV:  80    -0.318795401070E+03   -0.92038E-04   -0.10462E-03 35200   0.995E-02    0.692E-01
DAV:  81    -0.318795091979E+03    0.30909E-03   -0.18309E-03 36416   0.134E-01    0.667E-01
DAV:  82    -0.318795051548E+03    0.40430E-04   -0.19923E-04 35104   0.430E-02    0.657E-01
DAV:  83    -0.318795043441E+03    0.81079E-05   -0.12644E-04 37680   0.409E-02    0.661E-01
DAV:  84    -0.318794929812E+03    0.11363E-03   -0.91751E-05 32384   0.330E-02    0.618E-01
DAV:  85    -0.318794572775E+03    0.35704E-03   -0.63877E-04 39728   0.833E-02    0.399E-01
DAV:  86    -0.318794499458E+03    0.73317E-04   -0.54417E-04 36800   0.781E-02    0.265E-01
DAV:  87    -0.318794483453E+03    0.16005E-04   -0.33373E-04 35216   0.603E-02    0.160E-01
DAV:  88    -0.318794475350E+03    0.81030E-05   -0.86955E-05 32048   0.363E-02
   1 F= -.31879448E+03 E0= -.31878911E+03  d E =-.318794E+03  mag=    44.0118
       N       E                     dE             d eps       ncg     rms          rms(c)
DAV:   1    -0.319017539582E+03   -0.22306E+00   -0.13225E+01 33120   0.124E+01    0.453E+00
DAV:   2    -0.318862126082E+03    0.15541E+00   -0.13488E+00 33920   0.375E+00    0.443E+00
DAV:   3    -0.318857213803E+03    0.49123E-02   -0.42925E-01 37344   0.237E+00    0.520E+00
DAV:   4    -0.318822747690E+03    0.34466E-01   -0.23457E-01 36576   0.143E+00    0.190E+00
DAV:   5    -0.318820972987E+03    0.17747E-02   -0.61302E-02 35840   0.929E-01    0.164E+00
DAV:   6    -0.318818101105E+03    0.28719E-02   -0.28779E-02 36016   0.564E-01    0.808E-01
DAV:   7    -0.318817660679E+03    0.44043E-03   -0.11458E-02 36544   0.319E-01    0.630E-01
DAV:   8    -0.318817137214E+03    0.52347E-03   -0.45576E-03 40832   0.205E-01    0.370E-01
DAV:   9    -0.318816996809E+03    0.14041E-03   -0.14802E-03 38112   0.155E-01    0.206E-01
DAV:  10    -0.318816966467E+03    0.30342E-04   -0.51064E-04 35792   0.758E-02    0.124E-01
DAV:  11    -0.318816960161E+03    0.63056E-05   -0.14448E-04 31776   0.424E-02    0.707E-02
DAV:  12    -0.318816956107E+03    0.40535E-05   -0.46646E-05 24032   0.252E-02
   2 F= -.31881696E+03 E0= -.31881145E+03  d E =-.224808E-01  mag=    44.0019
       N       E                     dE             d eps       ncg     rms          rms(c)
DAV:   1    -0.318817019414E+03   -0.59253E-04   -0.35259E-03 33904   0.204E-01    0.801E-02
DAV:   2    -0.318816979930E+03    0.39485E-04   -0.40383E-04 33648   0.646E-02    0.104E-01
DAV:   3    -0.318816971241E+03    0.86890E-05   -0.16783E-04 32736   0.397E-02    0.784E-02
DAV:   4    -0.318816962741E+03    0.84999E-05   -0.51121E-05 25472   0.224E-02    0.366E-02
DAV:   5    -0.318816961970E+03    0.77108E-06   -0.31385E-05 21248   0.188E-02    0.372E-02
DAV:   6    -0.318816960483E+03    0.14868E-05   -0.16224E-05 18816   0.125E-02
   3 F= -.31881696E+03 E0= -.31881145E+03  d E =-.224851E-01  mag=    44.0008
       N       E                     dE             d eps       ncg     rms          rms(c)
DAV:   1    -0.318781297246E+03    0.35665E-01   -0.12644E+01 34848   0.106E+01    0.155E+00
DAV:   2    -0.318840471826E+03   -0.59175E-01   -0.67734E-01 34160   0.219E+00    0.277E+00
DAV:   3    -0.318833815247E+03    0.66566E-02   -0.76731E-02 34192   0.982E-01    0.124E+00
DAV:   4    -0.318832312027E+03    0.15032E-02   -0.11928E-02 33984   0.357E-01    0.655E-01
DAV:   5    -0.318831782097E+03    0.52993E-03   -0.69158E-03 37312   0.295E-01    0.651E-01
DAV:   6    -0.318831193040E+03    0.58906E-03   -0.51301E-03 37760   0.243E-01    0.450E-01
DAV:   7    -0.318831128499E+03    0.64541E-04   -0.32376E-03 35584   0.182E-01    0.373E-01
DAV:   8    -0.318831046140E+03    0.82359E-04   -0.18713E-03 35232   0.125E-01    0.210E-01
DAV:   9    -0.318831002367E+03    0.43773E-04   -0.45973E-04 33952   0.769E-02    0.882E-02
DAV:  10    -0.318831000308E+03    0.20594E-05   -0.13781E-04 28880   0.358E-02    0.694E-02
DAV:  11    -0.318830998114E+03    0.21941E-05   -0.43470E-05 24080   0.234E-02
   4 F= -.31883100E+03 E0= -.31882547E+03  d E =-.140376E-01  mag=    44.0001
       N       E                     dE             d eps       ncg     rms          rms(c)
DAV:   1    -0.318830495853E+03    0.50445E-03   -0.17849E-01 34912   0.126E+00    0.187E-01
DAV:   2    -0.318831333775E+03   -0.83792E-03   -0.96574E-03 34192   0.261E-01    0.353E-01
DAV:   3    -0.318831238327E+03    0.95448E-04   -0.13132E-03 34176   0.117E-01    0.153E-01
DAV:   4    -0.318831217165E+03    0.21162E-04   -0.15346E-04 32192   0.426E-02    0.762E-02
DAV:   5    -0.318831211106E+03    0.60586E-05   -0.90675E-05 27136   0.350E-02    0.803E-02
DAV:   6    -0.318831203047E+03    0.80596E-05   -0.73481E-05 27488   0.305E-02
   5 F= -.31883120E+03 E0= -.31882566E+03  d E =-.142426E-01  mag=    44.0000
       N       E                     dE             d eps       ncg     rms          rms(c)
DAV:   1    -0.318785673956E+03    0.45537E-01   -0.10361E+01 36352   0.103E+01    0.132E+00
DAV:   2    -0.318847359193E+03   -0.61685E-01   -0.63412E-01 33008   0.200E+00    0.239E+00
DAV:   3    -0.318843360877E+03    0.39983E-02   -0.63813E-02 33952   0.881E-01    0.103E+00
DAV:   4    -0.318842323124E+03    0.10378E-02   -0.94180E-03 34784   0.321E-01    0.552E-01
DAV:   5    -0.318841823281E+03    0.49984E-03   -0.40738E-03 35920   0.219E-01    0.411E-01
DAV:   6    -0.318841417889E+03    0.40539E-03   -0.24885E-03 35120   0.177E-01    0.326E-01
DAV:   7    -0.318841346835E+03    0.71054E-04   -0.15014E-03 35440   0.129E-01    0.247E-01
DAV:   8    -0.318841322037E+03    0.24798E-04   -0.98715E-04 34112   0.910E-02    0.169E-01
DAV:   9    -0.318841295372E+03    0.26664E-04   -0.26323E-04 32496   0.553E-02    0.571E-02
DAV:  10    -0.318841298145E+03   -0.27724E-05   -0.69325E-05 25584   0.276E-02
   6 F= -.31884130E+03 E0= -.31883581E+03  d E =-.100951E-01  mag=    44.0000
       N       E                     dE             d eps       ncg     rms          rms(c)
DAV:   1    -0.318839250527E+03    0.20448E-02   -0.43364E-01 36368   0.211E+00    0.263E-01
DAV:   2    -0.318841783688E+03   -0.25332E-02   -0.26218E-02 33232   0.405E-01    0.468E-01
DAV:   3    -0.318841675537E+03    0.10815E-03   -0.27967E-03 34224   0.175E-01    0.221E-01
DAV:   4    -0.318841627615E+03    0.47921E-04   -0.37965E-04 34080   0.666E-02    0.106E-01
DAV:   5    -0.318841610710E+03    0.16906E-04   -0.15678E-04 31376   0.446E-02    0.888E-02
DAV:   6    -0.318841595550E+03    0.15159E-04   -0.11850E-04 31664   0.377E-02    0.727E-02
DAV:   7    -0.318841591343E+03    0.42070E-05   -0.65550E-05 25440   0.282E-02
   7 F= -.31884159E+03 E0= -.31883612E+03  d E =-.103883E-01  mag=    44.0000
       N       E                     dE             d eps       ncg     rms          rms(c)
DAV:   1    -0.318821960274E+03    0.19635E-01   -0.96988E+00 35520   0.881E+00    0.139E+00
DAV:   2    -0.318857902553E+03   -0.35942E-01   -0.46026E-01 33232   0.182E+00    0.244E+00
DAV:   3    -0.318852987485E+03    0.49151E-02   -0.63937E-02 34272   0.868E-01    0.110E+00
DAV:   4    -0.318851243905E+03    0.17436E-02   -0.11225E-02 33728   0.340E-01    0.601E-01
DAV:   5    -0.318850607885E+03    0.63602E-03   -0.65612E-03 37808   0.269E-01    0.525E-01
DAV:   6    -0.318850094091E+03    0.51379E-03   -0.34168E-03 36656   0.192E-01    0.291E-01
DAV:   7    -0.318850004884E+03    0.89207E-04   -0.12823E-03 35584   0.132E-01    0.204E-01
DAV:   8    -0.318849985939E+03    0.18945E-04   -0.72231E-04 34880   0.819E-02    0.177E-01
DAV:   9    -0.318849952537E+03    0.33401E-04   -0.32162E-04 31248   0.550E-02    0.656E-02
DAV:  10    -0.318849954616E+03   -0.20785E-05   -0.78165E-05 26048   0.307E-02
   8 F= -.31884995E+03 E0= -.31884460E+03  d E =-.836327E-02  mag=    44.0000
       N       E                     dE             d eps       ncg     rms          rms(c)
DAV:   1    -0.318843311267E+03    0.66413E-02   -0.26025E+00 35584   0.456E+00    0.706E-01
DAV:   2    -0.318852746254E+03   -0.94350E-02   -0.12193E-01 33200   0.930E-01    0.120E+00
DAV:   3    -0.318851694526E+03    0.10517E-02   -0.16834E-02 34288   0.438E-01    0.587E-01
DAV:   4    -0.318851190134E+03    0.50439E-03   -0.29871E-03 34064   0.176E-01    0.307E-01
DAV:   5    -0.318851034250E+03    0.15588E-03   -0.17127E-03 36752   0.138E-01    0.276E-01
DAV:   6    -0.318850901142E+03    0.13311E-03   -0.10052E-03 36240   0.101E-01    0.166E-01
DAV:   7    -0.318850874583E+03    0.26559E-04   -0.43281E-04 35760   0.725E-02    0.124E-01
DAV:   8    -0.318850864583E+03    0.10000E-04   -0.22649E-04 30320   0.440E-02    0.873E-02
DAV:   9    -0.318850855839E+03    0.87436E-05   -0.74754E-05 25088   0.300E-02
   9 F= -.31885086E+03 E0= -.31884556E+03  d E =-.926450E-02  mag=    44.0000
       N       E                     dE             d eps       ncg     rms          rms(c)
DAV:   1    -0.318820953768E+03    0.29911E-01   -0.10163E+01 34752   0.921E+00    0.121E+00
DAV:   2    -0.318861235322E+03   -0.40282E-01   -0.48439E-01 33216   0.180E+00    0.208E+00
DAV:   3    -0.318859111298E+03    0.21240E-02   -0.56015E-02 34304   0.792E-01    0.107E+00
DAV:   4    -0.318857671318E+03    0.14400E-02   -0.91113E-03 34352   0.299E-01    0.437E-01
DAV:   5    -0.318857454432E+03    0.21689E-03   -0.43003E-03 36752   0.219E-01    0.502E-01
DAV:   6    -0.318857051694E+03    0.40274E-03   -0.26214E-03 35792   0.168E-01    0.246E-01
DAV:   7    -0.318857050451E+03    0.12432E-05   -0.12526E-03 36832   0.125E-01    0.258E-01
DAV:   8    -0.318856987717E+03    0.62735E-04   -0.63746E-04 34304   0.785E-02    0.111E-01
DAV:   9    -0.318856981431E+03    0.62852E-05   -0.15733E-04 30304   0.455E-02    0.640E-02
DAV:  10    -0.318856980035E+03    0.13968E-05   -0.43567E-05 24656   0.255E-02
  10 F= -.31885698E+03 E0= -.31885179E+03  d E =-.612420E-02  mag=    44.0000
       N       E                     dE             d eps       ncg     rms          rms(c)
DAV:   1    -0.318855980613E+03    0.10008E-02   -0.32530E-01 34848   0.165E+00    0.215E-01
DAV:   2    -0.318857250724E+03   -0.12701E-02   -0.15428E-02 33232   0.320E-01    0.357E-01
DAV:   3    -0.318857196213E+03    0.54511E-04   -0.17843E-03 34272   0.135E-01    0.197E-01
DAV:   4    -0.318857149996E+03    0.46216E-04   -0.28880E-04 33616   0.542E-02    0.802E-02
DAV:   5    -0.318857143411E+03    0.65851E-05   -0.12396E-04 30672   0.400E-02    0.886E-02
DAV:   6    -0.318857132366E+03    0.11045E-04   -0.84412E-05 25872   0.309E-02    0.507E-02
DAV:   7    -0.318857130805E+03    0.15617E-05   -0.45833E-05 23440   0.248E-02
  11 F= -.31885713E+03 E0= -.31885195E+03  d E =-.627497E-02  mag=    44.0000
       N       E                     dE             d eps       ncg     rms          rms(c)
DAV:   1    -0.318834781348E+03    0.22351E-01   -0.11029E+01 32064   0.919E+00    0.130E+00
DAV:   2    -0.318869274272E+03   -0.34493E-01   -0.48360E-01 33104   0.182E+00    0.192E+00
DAV:   3    -0.318867726251E+03    0.15480E-02   -0.63918E-02 34400   0.797E-01    0.128E+00
DAV:   4    -0.318865533947E+03    0.21923E-02   -0.11187E-02 34496   0.336E-01    0.415E-01
DAV:   5    -0.318865436618E+03    0.97328E-04   -0.44604E-03 37456   0.243E-01    0.528E-01
DAV:   6    -0.318865062757E+03    0.37386E-03   -0.27885E-03 35856   0.174E-01    0.244E-01
DAV:   7    -0.318865025655E+03    0.37103E-04   -0.10400E-03 36624   0.115E-01    0.183E-01
DAV:   8    -0.318864996375E+03    0.29280E-04   -0.36846E-04 34544   0.651E-02    0.937E-02
DAV:   9    -0.318864993407E+03    0.29675E-05   -0.10304E-04 30480   0.363E-02    0.574E-02
DAV:  10    -0.318864991733E+03    0.16740E-05   -0.33080E-05 23248   0.223E-02
  12 F= -.31886499E+03 E0= -.31885988E+03  d E =-.786093E-02  mag=    44.0000
       N       E                     dE             d eps       ncg     rms          rms(c)
DAV:   1    -0.318837993223E+03    0.27000E-01   -0.10643E+01 32064   0.903E+00    0.126E+00
DAV:   2    -0.318870993023E+03   -0.33000E-01   -0.46488E-01 33136   0.178E+00    0.180E+00
DAV:   3    -0.318869850836E+03    0.11422E-02   -0.60811E-02 34464   0.769E-01    0.129E+00
DAV:   4    -0.318867614313E+03    0.22365E-02   -0.11431E-02 34480   0.335E-01    0.408E-01
DAV:   5    -0.318867510526E+03    0.10379E-03   -0.41852E-03 37376   0.234E-01    0.504E-01
DAV:   6    -0.318867161912E+03    0.34861E-03   -0.26062E-03 36032   0.168E-01    0.233E-01
DAV:   7    -0.318867129238E+03    0.32674E-04   -0.90524E-04 37184   0.110E-01    0.166E-01
DAV:   8    -0.318867104537E+03    0.24700E-04   -0.33427E-04 35136   0.669E-02    0.901E-02
DAV:   9    -0.318867101411E+03    0.31262E-05   -0.94703E-05 29776   0.341E-02
  13 F= -.31886710E+03 E0= -.31886204E+03  d E =-.997061E-02  mag=    44.0000
       N       E                     dE             d eps       ncg     rms          rms(c)
DAV:   1    -0.318822638479E+03    0.44466E-01   -0.15633E+01 33024   0.104E+01    0.111E+00
DAV:   2    -0.318876239347E+03   -0.53601E-01   -0.58158E-01 32928   0.189E+00    0.180E+00
DAV:   3    -0.318874977162E+03    0.12622E-02   -0.47925E-02 34624   0.715E-01    0.100E+00
DAV:   4    -0.318873631736E+03    0.13454E-02   -0.77711E-03 34192   0.270E-01    0.374E-01
DAV:   5    -0.318873420141E+03    0.21159E-03   -0.28089E-03 37056   0.174E-01    0.416E-01
DAV:   6    -0.318873100000E+03    0.32014E-03   -0.19510E-03 35056   0.150E-01    0.226E-01
DAV:   7    -0.318873071869E+03    0.28131E-04   -0.97757E-04 36592   0.110E-01    0.177E-01
DAV:   8    -0.318873055295E+03    0.16574E-04   -0.45787E-04 34928   0.714E-02    0.108E-01
DAV:   9    -0.318873048191E+03    0.71043E-05   -0.96359E-05 29952   0.341E-02
  14 F= -.31887305E+03 E0= -.31886804E+03  d E =-.594678E-02  mag=    44.0000
       N       E                     dE             d eps       ncg     rms          rms(c)
DAV:   1    -0.318868618370E+03    0.44369E-02   -0.15129E+00 33024   0.325E+00    0.343E-01
DAV:   2    -0.318873738257E+03   -0.51199E-02   -0.55937E-02 33568   0.583E-01    0.507E-01
DAV:   3    -0.318873686290E+03    0.51967E-04   -0.43419E-03 34752   0.210E-01    0.332E-01
DAV:   4    -0.318873542079E+03    0.14421E-03   -0.79315E-04 34576   0.859E-02    0.111E-01
DAV:   5    -0.318873525788E+03    0.16292E-04   -0.24081E-04 35200   0.525E-02    0.127E-01
DAV:   6    -0.318873498040E+03    0.27747E-04   -0.18381E-04 34352   0.455E-02    0.690E-02
DAV:   7    -0.318873497420E+03    0.62055E-06   -0.10164E-04 31856   0.345E-02    0.597E-02
DAV:   8    -0.318873495000E+03    0.24201E-05   -0.45949E-05 23392   0.231E-02
  15 F= -.31887349E+03 E0= -.31886851E+03  d E =-.639359E-02  mag=    44.0000
       N       E                     dE             d eps       ncg     rms          rms(c)
DAV:   1    -0.318816523867E+03    0.56974E-01   -0.16989E+01 33616   0.114E+01    0.112E+00
DAV:   2    -0.318882412155E+03   -0.65888E-01   -0.67519E-01 33440   0.201E+00    0.166E+00
DAV:   3    -0.318881877339E+03    0.53482E-03   -0.43864E-02 34592   0.685E-01    0.964E-01
DAV:   4    -0.318880670083E+03    0.12073E-02   -0.77760E-03 34848   0.289E-01    0.435E-01
DAV:   5    -0.318880397393E+03    0.27269E-03   -0.22794E-03 35792   0.170E-01    0.391E-01
DAV:   6    -0.318880052386E+03    0.34501E-03   -0.23190E-03 34448   0.169E-01    0.292E-01
DAV:   7    -0.318880012924E+03    0.39462E-04   -0.99459E-04 36704   0.114E-01    0.170E-01
DAV:   8    -0.318880001976E+03    0.10948E-04   -0.22740E-04 34432   0.611E-02    0.764E-02
DAV:   9    -0.318880003621E+03   -0.16450E-05   -0.10891E-04 29248   0.323E-02    0.715E-02
DAV:  10    -0.318879998428E+03    0.51933E-05   -0.37264E-05 23504   0.207E-02
  16 F= -.31888000E+03 E0= -.31887515E+03  d E =-.650343E-02  mag=    44.0000
       N       E                     dE             d eps       ncg     rms          rms(c)
DAV:   1    -0.318879083046E+03    0.92057E-03   -0.27630E-01 33888   0.145E+00    0.143E-01
DAV:   2    -0.318880137889E+03   -0.10548E-02   -0.10834E-02 34048   0.257E-01    0.207E-01
DAV:   3    -0.318880134646E+03    0.32430E-05   -0.70749E-04 34800   0.875E-02    0.122E-01
DAV:   4    -0.318880118509E+03    0.16137E-04   -0.13809E-04 30368   0.394E-02    0.589E-02
DAV:   5    -0.318880113805E+03    0.47041E-05   -0.36840E-05 23472   0.228E-02    0.489E-02
DAV:   6    -0.318880109191E+03    0.46143E-05   -0.37480E-05 22912   0.221E-02
  17 F= -.31888011E+03 E0= -.31887529E+03  d E =-.661419E-02  mag=    44.0000
       N       E                     dE             d eps       ncg     rms          rms(c)
DAV:   1    -0.318835228576E+03    0.44885E-01   -0.12967E+01 33184   0.105E+01    0.128E+00
DAV:   2    -0.318886533067E+03   -0.51304E-01   -0.61935E-01 33456   0.195E+00    0.168E+00
DAV:   3    -0.318886536601E+03   -0.35336E-05   -0.56098E-02 34304   0.760E-01    0.126E+00
DAV:   4    -0.318884297564E+03    0.22390E-02   -0.14553E-02 36544   0.369E-01    0.442E-01
DAV:   5    -0.318884138111E+03    0.15945E-03   -0.37156E-03 36352   0.225E-01    0.441E-01
DAV:   6    -0.318883762752E+03    0.37536E-03   -0.21430E-03 36736   0.167E-01    0.227E-01
DAV:   7    -0.318883763506E+03   -0.75429E-06   -0.71981E-04 37520   0.100E-01    0.193E-01
DAV:   8    -0.318883746470E+03    0.17036E-04   -0.38567E-04 35168   0.641E-02    0.113E-01
DAV:   9    -0.318883741556E+03    0.49141E-05   -0.16600E-04 31696   0.411E-02    0.741E-02
DAV:  10    -0.318883738366E+03    0.31900E-05   -0.33787E-05 23520   0.216E-02
  18 F= -.31888374E+03 E0= -.31887904E+03  d E =-.362918E-02  mag=    44.0000
       N       E                     dE             d eps       ncg     rms          rms(c)
DAV:   1    -0.318883097291E+03    0.64427E-03   -0.19714E-01 34032   0.130E+00    0.156E-01
DAV:   2    -0.318883861821E+03   -0.76453E-03   -0.91200E-03 33344   0.240E-01    0.235E-01
DAV:   3    -0.318883844000E+03    0.17821E-04   -0.94368E-04 34352   0.995E-02    0.141E-01
DAV:   4    -0.318883813749E+03    0.30251E-04   -0.17955E-04 30864   0.429E-02    0.550E-02
DAV:   5    -0.318883809950E+03    0.37987E-05   -0.59430E-05 25120   0.282E-02    0.522E-02
DAV:   6    -0.318883803856E+03    0.60939E-05   -0.34210E-05 24880   0.209E-02
  19 F= -.31888380E+03 E0= -.31887909E+03  d E =-.369467E-02  mag=    44.0000
       N       E                     dE             d eps       ncg     rms          rms(c)
DAV:   1    -0.318860680881E+03    0.23129E-01   -0.69794E+00 34960   0.769E+00    0.904E-01
DAV:   2    -0.318889190783E+03   -0.28510E-01   -0.32261E-01 32960   0.143E+00    0.167E+00
DAV:   3    -0.318887625602E+03    0.15652E-02   -0.36459E-02 34304   0.589E-01    0.686E-01
DAV:   4    -0.318886944958E+03    0.68064E-03   -0.42891E-03 34544   0.214E-01    0.296E-01
DAV:   5    -0.318886794309E+03    0.15065E-03   -0.14959E-03 34416   0.144E-01    0.321E-01
DAV:   6    -0.318886608400E+03    0.18591E-03   -0.12567E-03 37232   0.127E-01    0.218E-01
DAV:   7    -0.318886582909E+03    0.25491E-04   -0.58721E-04 37936   0.731E-02    0.150E-01
DAV:   8    -0.318886567702E+03    0.15207E-04   -0.23287E-04 33168   0.492E-02    0.761E-02
DAV:   9    -0.318886565927E+03    0.17754E-05   -0.61635E-05 26400   0.293E-02
  20 F= -.31888657E+03 E0= -.31888187E+03  d E =-.276207E-02  mag=    44.0000
       N       E                     dE             d eps       ncg     rms          rms(c)
DAV:   1    -0.318886248588E+03    0.31911E-03   -0.91289E-02 34976   0.879E-01    0.101E-01
DAV:   2    -0.318886608785E+03   -0.36020E-03   -0.40828E-03 33280   0.161E-01    0.139E-01
DAV:   3    -0.318886609268E+03   -0.48312E-06   -0.35459E-04 33632   0.601E-02    0.926E-02
DAV:   4    -0.318886597325E+03    0.11943E-04   -0.90922E-05 25728   0.288E-02    0.445E-02
DAV:   5    -0.318886595009E+03    0.23164E-05   -0.24446E-05 22032   0.190E-02    0.337E-02
DAV:   6    -0.318886592782E+03    0.22266E-05   -0.17173E-05 19520   0.155E-02
  21 F= -.31888659E+03 E0= -.31888191E+03  d E =-.278893E-02  mag=    44.0000
       N       E                     dE             d eps       ncg     rms          rms(c)
DAV:   1    -0.318862240843E+03    0.24354E-01   -0.63735E+00 33696   0.741E+00    0.816E-01
DAV:   2    -0.318891240712E+03   -0.29000E-01   -0.30499E-01 33408   0.139E+00    0.160E+00
DAV:   3    -0.318889641007E+03    0.15997E-02   -0.31447E-02 34256   0.536E-01    0.593E-01
DAV:   4    -0.318889172415E+03    0.46859E-03   -0.29732E-03 33840   0.188E-01    0.265E-01
DAV:   5    -0.318889003463E+03    0.16895E-03   -0.14049E-03 36352   0.140E-01    0.324E-01
DAV:   6    -0.318888846223E+03    0.15724E-03   -0.14208E-03 37504   0.127E-01    0.246E-01
DAV:   7    -0.318888800768E+03    0.45455E-04   -0.64434E-04 37440   0.746E-02    0.141E-01
DAV:   8    -0.318888785026E+03    0.15743E-04   -0.19126E-04 32240   0.477E-02    0.442E-02
DAV:   9    -0.318888786745E+03   -0.17189E-05   -0.33439E-05 24496   0.215E-02
  22 F= -.31888879E+03 E0= -.31888410E+03  d E =-.219396E-02  mag=    44.0000
       N       E                     dE             d eps       ncg     rms          rms(c)
DAV:   1    -0.318888757608E+03    0.27418E-04   -0.68966E-03 34048   0.245E-01    0.412E-02
DAV:   2    -0.318888801136E+03   -0.43528E-04   -0.44417E-04 33856   0.571E-02    0.127E-01
DAV:   3    -0.318888783876E+03    0.17260E-04   -0.12650E-04 30720   0.343E-02    0.167E-02
DAV:   4    -0.318888784638E+03   -0.76142E-06   -0.42535E-06 19088   0.722E-03    0.142E-02
DAV:   5    -0.318888784261E+03    0.37639E-06   -0.29164E-06 18064   0.630E-03    0.108E-02
DAV:   6    -0.318888783958E+03    0.30311E-06   -0.23874E-06 18032   0.521E-03
  23 F= -.31888878E+03 E0= -.31888410E+03  d E =-.219118E-02  mag=    44.0000
       N       E                     dE             d eps       ncg     rms          rms(c)
DAV:   1    -0.318882541700E+03    0.62426E-02   -0.22306E+00 33888   0.405E+00    0.383E-01
DAV:   2    -0.318890895725E+03   -0.83540E-02   -0.85475E-02 32688   0.728E-01    0.680E-01
DAV:   3    -0.318890688722E+03    0.20700E-03   -0.66328E-03 34176   0.259E-01    0.334E-01
DAV:   4    -0.318890548814E+03    0.13991E-03   -0.81211E-04 34032   0.897E-02    0.124E-01
DAV:   5    -0.318890518512E+03    0.30302E-04   -0.32690E-04 36528   0.608E-02    0.142E-01
DAV:   6    -0.318890469695E+03    0.48817E-04   -0.28141E-04 34672   0.568E-02    0.890E-02
DAV:   7    -0.318890468567E+03    0.11282E-05   -0.16550E-04 33200   0.407E-02    0.753E-02
DAV:   8    -0.318890464162E+03    0.44047E-05   -0.68922E-05 25360   0.253E-02
  24 F= -.31889046E+03 E0= -.31888575E+03  d E =-.168020E-02  mag=    44.0000
       N       E                     dE             d eps       ncg     rms          rms(c)
DAV:   1    -0.318882565267E+03    0.79033E-02   -0.23607E+00 33888   0.417E+00    0.393E-01
DAV:   2    -0.318891368377E+03   -0.88031E-02   -0.90233E-02 32704   0.747E-01    0.663E-01
DAV:   3    -0.318891210616E+03    0.15776E-03   -0.67067E-03 34192   0.265E-01    0.354E-01
DAV:   4    -0.318891053388E+03    0.15723E-03   -0.92110E-04 34192   0.945E-02    0.128E-01
DAV:   5    -0.318891025793E+03    0.27595E-04   -0.37095E-04 36512   0.628E-02    0.152E-01
DAV:   6    -0.318890972054E+03    0.53738E-04   -0.29381E-04 34672   0.585E-02    0.850E-02
DAV:   7    -0.318890974461E+03   -0.24063E-05   -0.17585E-04 33360   0.411E-02    0.822E-02
DAV:   8    -0.318890968479E+03    0.59816E-05   -0.77734E-05 26016   0.265E-02
  25 F= -.31889097E+03 E0= -.31888623E+03  d E =-.218452E-02  mag=    44.0000
       N       E                     dE             d eps       ncg     rms          rms(c)
DAV:   1    -0.318889080019E+03    0.18944E-02   -0.84205E-01 33008   0.244E+00    0.231E-01
DAV:   2    -0.318892041877E+03   -0.29619E-02   -0.31583E-02 33440   0.437E-01    0.275E-01
DAV:   3    -0.318892077161E+03   -0.35285E-04   -0.16699E-03 34496   0.132E-01    0.232E-01
DAV:   4    -0.318891999095E+03    0.78066E-04   -0.46077E-04 32992   0.668E-02    0.764E-02
DAV:   5    -0.318891987743E+03    0.11353E-04   -0.11565E-04 32256   0.356E-02    0.820E-02
DAV:   6    -0.318891972201E+03    0.15542E-04   -0.86574E-05 30944   0.328E-02    0.407E-02
DAV:   7    -0.318891972769E+03   -0.56856E-06   -0.39691E-05 24608   0.223E-02
  26 F= -.31889197E+03 E0= -.31888722E+03  d E =-.100429E-02  mag=    44.0000
       N       E                     dE             d eps       ncg     rms          rms(c)
DAV:   1    -0.318867279672E+03    0.24693E-01   -0.75770E+00 32960   0.733E+00    0.695E-01
DAV:   2    -0.318894075753E+03   -0.26796E-01   -0.28552E-01 33184   0.131E+00    0.846E-01
DAV:   3    -0.318894319028E+03   -0.24327E-03   -0.15462E-02 34256   0.399E-01    0.694E-01
DAV:   4    -0.318893605229E+03    0.71380E-03   -0.41435E-03 34736   0.196E-01    0.225E-01
DAV:   5    -0.318893494773E+03    0.11046E-03   -0.10154E-03 35408   0.108E-01    0.236E-01
DAV:   6    -0.318893347903E+03    0.14687E-03   -0.70287E-04 36480   0.953E-02    0.109E-01
DAV:   7    -0.318893356300E+03   -0.83967E-05   -0.32407E-04 35216   0.626E-02    0.121E-01
DAV:   8    -0.318893347054E+03    0.92454E-05   -0.13931E-04 33264   0.407E-02    0.599E-02
DAV:   9    -0.318893346753E+03    0.30088E-06   -0.37978E-05 23072   0.197E-02
  27 F= -.31889335E+03 E0= -.31888856E+03  d E =-.237827E-02  mag=    44.0000
       N       E                     dE             d eps       ncg     rms          rms(c)
DAV:   1    -0.318889061588E+03    0.42855E-02   -0.10267E+00 36480   0.334E+00    0.318E-01
DAV:   2    -0.318894627647E+03   -0.55661E-02   -0.56076E-02 32592   0.581E-01    0.277E-01
DAV:   3    -0.318894819393E+03   -0.19175E-03   -0.23263E-03 33824   0.167E-01    0.301E-01
DAV:   4    -0.318894710089E+03    0.10930E-03   -0.74641E-04 34704   0.910E-02    0.936E-02
DAV:   5    -0.318894688501E+03    0.21588E-04   -0.17614E-04 32592   0.442E-02    0.985E-02
DAV:   6    -0.318894670197E+03    0.18304E-04   -0.14914E-04 33152   0.417E-02    0.619E-02
DAV:   7    -0.318894667522E+03    0.26752E-05   -0.58460E-05 25072   0.278E-02
  28 F= -.31889467E+03 E0= -.31888985E+03  d E =-.132077E-02  mag=    44.0000
       N       E                     dE             d eps       ncg     rms          rms(c)
DAV:   1    -0.318881097037E+03    0.13573E-01   -0.25982E+00 36464   0.531E+00    0.504E-01
DAV:   2    -0.318895183145E+03   -0.14086E-01   -0.14191E-01 32480   0.923E-01    0.418E-01
DAV:   3    -0.318895657111E+03   -0.47397E-03   -0.55556E-03 33600   0.256E-01    0.469E-01
DAV:   4    -0.318895390782E+03    0.26633E-03   -0.18185E-03 35008   0.140E-01    0.149E-01
DAV:   5    -0.318895328248E+03    0.62534E-04   -0.41316E-04 34896   0.665E-02    0.149E-01
DAV:   6    -0.318895288436E+03    0.39812E-04   -0.36045E-04 35040   0.628E-02    0.979E-02
DAV:   7    -0.318895280804E+03    0.76317E-05   -0.13774E-04 33120   0.431E-02    0.554E-02
DAV:   8    -0.318895279197E+03    0.16067E-05   -0.38805E-05 26688   0.253E-02
  29 F= -.31889528E+03 E0= -.31889043E+03  d E =-.193244E-02  mag=    44.0000
       N       E                     dE             d eps       ncg     rms          rms(c)
DAV:   1    -0.318893095875E+03    0.21849E-02   -0.76682E-01 34768   0.261E+00    0.249E-01
DAV:   2    -0.318896194112E+03   -0.30982E-02   -0.33087E-02 33008   0.457E-01    0.265E-01
DAV:   3    -0.318896246715E+03   -0.52604E-04   -0.15585E-03 33872   0.143E-01    0.237E-01
DAV:   4    -0.318896169113E+03    0.77602E-04   -0.37949E-04 32896   0.712E-02    0.676E-02
DAV:   5    -0.318896158180E+03    0.10933E-04   -0.11757E-04 32112   0.360E-02    0.883E-02
DAV:   6    -0.318896145256E+03    0.12924E-04   -0.11242E-04 29520   0.330E-02    0.469E-02
DAV:   7    -0.318896144256E+03    0.99999E-06   -0.39950E-05 22640   0.230E-02
  30 F= -.31889614E+03 E0= -.31889128E+03  d E =-.865059E-03  mag=    44.0000
       N       E                     dE             d eps       ncg     rms          rms(c)
DAV:   1    -0.318869773809E+03    0.26371E-01   -0.68985E+00 34752   0.781E+00    0.739E-01
DAV:   2    -0.318897820932E+03   -0.28047E-01   -0.29776E-01 32688   0.137E+00    0.836E-01
DAV:   3    -0.318898220746E+03   -0.39981E-03   -0.15501E-02 33920   0.455E-01    0.743E-01
DAV:   4    -0.318897494933E+03    0.72581E-03   -0.42259E-03 33552   0.225E-01    0.233E-01
DAV:   5    -0.318897416593E+03    0.78339E-04   -0.14135E-03 35824   0.120E-01    0.295E-01
DAV:   6    -0.318897246762E+03    0.16983E-03   -0.10690E-03 34752   0.108E-01    0.144E-01
DAV:   7    -0.318897237883E+03    0.88787E-05   -0.35835E-04 35040   0.706E-02    0.115E-01
DAV:   8    -0.318897227763E+03    0.10120E-04   -0.15282E-04 32448   0.424E-02    0.615E-02
DAV:   9    -0.318897226077E+03    0.16865E-05   -0.48455E-05 24224   0.225E-02
  31 F= -.31889723E+03 E0= -.31889233E+03  d E =-.194688E-02  mag=    44.0000
       N       E                     dE             d eps       ncg     rms          rms(c)
DAV:   1    -0.318895064624E+03    0.21631E-02   -0.73989E-01 33248   0.282E+00    0.348E-01
DAV:   2    -0.318898634116E+03   -0.35695E-02   -0.42881E-02 33920   0.522E-01    0.336E-01
DAV:   3    -0.318898722622E+03   -0.88506E-04   -0.29191E-03 34176   0.189E-01    0.341E-01
DAV:   4    -0.318898555852E+03    0.16677E-03   -0.95525E-04 35440   0.107E-01    0.110E-01
DAV:   5    -0.318898543562E+03    0.12290E-04   -0.30946E-04 34080   0.536E-02    0.122E-01
DAV:   6    -0.318898520389E+03    0.23173E-04   -0.20962E-04 32320   0.458E-02    0.627E-02
DAV:   7    -0.318898517752E+03    0.26365E-05   -0.63720E-05 24432   0.289E-02
  32 F= -.31889852E+03 E0= -.31889361E+03  d E =-.129168E-02  mag=    44.0000
       N       E                     dE             d eps       ncg     rms          rms(c)
DAV:   1    -0.318883875141E+03    0.14645E-01   -0.32884E+00 33232   0.595E+00    0.727E-01
DAV:   2    -0.318899734025E+03   -0.15859E-01   -0.18977E-01 33776   0.110E+00    0.653E-01
DAV:   3    -0.318900158097E+03   -0.42407E-03   -0.11807E-02 34160   0.386E-01    0.709E-01
DAV:   4    -0.318899430072E+03    0.72803E-03   -0.40721E-03 35568   0.221E-01    0.220E-01
DAV:   5    -0.318899364026E+03    0.66046E-04   -0.12087E-03 35328   0.110E-01    0.244E-01
DAV:   6    -0.318899275754E+03    0.88271E-04   -0.89977E-04 36400   0.934E-02    0.132E-01
DAV:   7    -0.318899263507E+03    0.12247E-04   -0.29777E-04 34192   0.598E-02    0.102E-01
DAV:   8    -0.318899251194E+03    0.12313E-04   -0.10972E-04 29456   0.384E-02    0.453E-02
DAV:   9    -0.318899250981E+03    0.21309E-06   -0.36568E-05 23744   0.196E-02
  33 F= -.31889925E+03 E0= -.31889435E+03  d E =-.202490E-02  mag=    44.0000
       N       E                     dE             d eps       ncg     rms          rms(c)
DAV:   1    -0.318898497442E+03    0.75375E-03   -0.17625E-01 33264   0.138E+00    0.168E-01
DAV:   2    -0.318899347276E+03   -0.84983E-03   -0.10187E-02 33728   0.253E-01    0.160E-01
DAV:   3    -0.318899372277E+03   -0.25002E-04   -0.69461E-04 34112   0.929E-02    0.172E-01
DAV:   4    -0.318899331093E+03    0.41184E-04   -0.25847E-04 31248   0.544E-02    0.567E-02
DAV:   5    -0.318899328025E+03    0.30685E-05   -0.78240E-05 25056   0.283E-02    0.628E-02
DAV:   6    -0.318899321793E+03    0.62319E-05   -0.46315E-05 22528   0.236E-02
  34 F= -.31889932E+03 E0= -.31889441E+03  d E =-.209572E-02  mag=    44.0000
       N       E                     dE             d eps       ncg     rms          rms(c)
DAV:   1    -0.318895982698E+03    0.33453E-02   -0.79084E-01 35008   0.287E+00    0.260E-01
DAV:   2    -0.318900281251E+03   -0.42986E-02   -0.43475E-02 32320   0.510E-01    0.276E-01
DAV:   3    -0.318900407254E+03   -0.12600E-03   -0.24136E-03 34608   0.153E-01    0.294E-01
DAV:   4    -0.318900307457E+03    0.99796E-04   -0.62373E-04 34016   0.759E-02    0.694E-02
DAV:   5    -0.318900293685E+03    0.13772E-04   -0.73573E-05 31728   0.311E-02    0.638E-02
DAV:   6    -0.318900283820E+03    0.98653E-05   -0.71287E-05 29504   0.337E-02
  35 F= -.31890028E+03 E0= -.31889539E+03  d E =-.962027E-03  mag=    44.0000
       N       E                     dE             d eps       ncg     rms          rms(c)
DAV:   1    -0.318870402610E+03    0.29891E-01   -0.55434E+00 34992   0.760E+00    0.683E-01
DAV:   2    -0.318900565881E+03   -0.30163E-01   -0.30422E-01 32240   0.135E+00    0.668E-01
DAV:   3    -0.318901459186E+03   -0.89331E-03   -0.15416E-02 34384   0.391E-01    0.757E-01
DAV:   4    -0.318900776907E+03    0.68228E-03   -0.43281E-03 35120   0.194E-01    0.195E-01
DAV:   5    -0.318900681361E+03    0.95546E-04   -0.56583E-04 34640   0.864E-02    0.187E-01
DAV:   6    -0.318900604152E+03    0.77209E-04   -0.52314E-04 36720   0.881E-02    0.140E-01
DAV:   7    -0.318900600182E+03    0.39707E-05   -0.40049E-04 36432   0.654E-02    0.129E-01
DAV:   8    -0.318900586713E+03    0.13469E-04   -0.19544E-04 32512   0.449E-02    0.478E-02
DAV:   9    -0.318900587149E+03   -0.43651E-06   -0.28988E-05 23552   0.184E-02
  36 F= -.31890059E+03 E0= -.31889568E+03  d E =-.126536E-02  mag=    44.0000
       N       E                     dE             d eps       ncg     rms          rms(c)
DAV:   1    -0.318896284836E+03    0.43019E-02   -0.84476E-01 34960   0.297E+00    0.266E-01
DAV:   2    -0.318900861637E+03   -0.45768E-02   -0.46343E-02 32272   0.524E-01    0.277E-01
DAV:   3    -0.318900993448E+03   -0.13181E-03   -0.24764E-03 34144   0.157E-01    0.297E-01
DAV:   4    -0.318900887432E+03    0.10602E-03   -0.65021E-04 34144   0.774E-02    0.736E-02
DAV:   5    -0.318900871594E+03    0.15838E-04   -0.84234E-05 32208   0.321E-02    0.699E-02
DAV:   6    -0.318900859293E+03    0.12301E-04   -0.82609E-05 31328   0.343E-02    0.542E-02
DAV:   7    -0.318900857064E+03    0.22287E-05   -0.55167E-05 27568   0.252E-02
  37 F= -.31890086E+03 E0= -.31889595E+03  d E =-.153527E-02  mag=    44.0000
       N       E                     dE             d eps       ncg     rms          rms(c)
DAV:   1    -0.318899068600E+03    0.17907E-02   -0.45748E-01 34592   0.220E+00    0.208E-01
DAV:   2    -0.318901628916E+03   -0.25603E-02   -0.25934E-02 31936   0.391E-01    0.252E-01
DAV:   3    -0.318901689707E+03   -0.60790E-04   -0.17055E-03 34192   0.131E-01    0.229E-01
DAV:   4    -0.318901629392E+03    0.60315E-04   -0.38878E-04 32880   0.595E-02    0.564E-02
DAV:   5    -0.318901622405E+03    0.69868E-05   -0.57877E-05 28352   0.277E-02    0.620E-02
DAV:   6    -0.318901613727E+03    0.86778E-05   -0.53222E-05 28368   0.264E-02
  38 F= -.31890161E+03 E0= -.31889671E+03  d E =-.756663E-03  mag=    44.0000
       N       E                     dE             d eps       ncg     rms          rms(c)
DAV:   1    -0.318879780581E+03    0.21842E-01   -0.41045E+00 34592   0.659E+00    0.613E-01
DAV:   2    -0.318902677213E+03   -0.22897E-01   -0.23169E-01 31968   0.116E+00    0.617E-01
DAV:   3    -0.318903361842E+03   -0.68463E-03   -0.12536E-02 34240   0.357E-01    0.672E-01
DAV:   4    -0.318902821136E+03    0.54071E-03   -0.35552E-03 34608   0.184E-01    0.175E-01
DAV:   5    -0.318902755802E+03    0.65334E-04   -0.50854E-04 34736   0.824E-02    0.178E-01
DAV:   6    -0.318902688704E+03    0.67098E-04   -0.44092E-04 36640   0.774E-02    0.121E-01
DAV:   7    -0.318902687066E+03    0.16377E-05   -0.33367E-04 35136   0.573E-02    0.122E-01
DAV:   8    -0.318902673607E+03    0.13460E-04   -0.14732E-04 32528   0.402E-02    0.398E-02
DAV:   9    -0.318902674596E+03   -0.98946E-06   -0.22816E-05 23632   0.163E-02
  39 F= -.31890267E+03 E0= -.31889779E+03  d E =-.181753E-02  mag=    44.0000
       N       E                     dE             d eps       ncg     rms          rms(c)
DAV:   1    -0.318900393284E+03    0.22803E-02   -0.53169E-01 34800   0.237E+00    0.213E-01
DAV:   2    -0.318903428756E+03   -0.30355E-02   -0.30228E-02 32976   0.415E-01    0.205E-01
DAV:   3    -0.318903527302E+03   -0.98546E-04   -0.15086E-03 34160   0.118E-01    0.227E-01
DAV:   4    -0.318903468910E+03    0.58392E-04   -0.44314E-04 33488   0.609E-02    0.643E-02
DAV:   5    -0.318903460254E+03    0.86561E-05   -0.44835E-05 28656   0.268E-02    0.529E-02
DAV:   6    -0.318903455006E+03    0.52475E-05   -0.48959E-05 24640   0.280E-02
  40 F= -.31890346E+03 E0= -.31889858E+03  d E =-.780410E-03  mag=    44.0000
       N       E                     dE             d eps       ncg     rms          rms(c)
DAV:   1    -0.318875540699E+03    0.27920E-01   -0.47669E+00 34112   0.713E+00    0.653E-01
DAV:   2    -0.318904006129E+03   -0.28465E-01   -0.28277E-01 33056   0.126E+00    0.607E-01
DAV:   3    -0.318904881612E+03   -0.87548E-03   -0.13213E-02 33888   0.362E-01    0.700E-01
DAV:   4    -0.318904329729E+03    0.55188E-03   -0.41266E-03 34560   0.185E-01    0.203E-01
DAV:   5    -0.318904260087E+03    0.69642E-04   -0.53550E-04 34160   0.875E-02    0.190E-01
DAV:   6    -0.318904186201E+03    0.73886E-04   -0.49682E-04 38320   0.795E-02    0.141E-01
DAV:   7    -0.318904177421E+03    0.87800E-05   -0.42602E-04 34656   0.668E-02    0.128E-01
DAV:   8    -0.318904165838E+03    0.11582E-04   -0.15339E-04 32784   0.445E-02    0.469E-02
DAV:   9    -0.318904165542E+03    0.29634E-06   -0.21658E-05 22752   0.180E-02
  41 F= -.31890417E+03 E0= -.31889933E+03  d E =-.149095E-02  mag=    44.0000
       N       E                     dE             d eps       ncg     rms          rms(c)
DAV:   1    -0.318902932857E+03    0.12330E-02   -0.22584E-01 34832   0.155E+00    0.136E-01
DAV:   2    -0.318904220318E+03   -0.12875E-02   -0.12800E-02 32928   0.269E-01    0.147E-01
DAV:   3    -0.318904254473E+03   -0.34155E-04   -0.65604E-04 33968   0.792E-02    0.144E-01
DAV:   4    -0.318904229436E+03    0.25037E-04   -0.16763E-04 31040   0.387E-02    0.395E-02
DAV:   5    -0.318904224617E+03    0.48188E-05   -0.19735E-05 21488   0.172E-02    0.361E-02
DAV:   6    -0.318904221484E+03    0.31333E-05   -0.21561E-05 20432   0.189E-02
  42 F= -.31890422E+03 E0= -.31889937E+03  d E =-.154689E-02  mag=    44.0000
       N       E                     dE             d eps       ncg     rms          rms(c)
DAV:   1    -0.318901250105E+03    0.29745E-02   -0.80645E-01 33456   0.264E+00    0.233E-01
DAV:   2    -0.318904973399E+03   -0.37233E-02   -0.36951E-02 32288   0.463E-01    0.287E-01
DAV:   3    -0.318905045134E+03   -0.71735E-04   -0.21153E-03 34240   0.140E-01    0.251E-01
DAV:   4    -0.318904970944E+03    0.74191E-04   -0.48075E-04 33344   0.649E-02    0.684E-02
DAV:   5    -0.318904958521E+03    0.12423E-04   -0.56704E-05 30832   0.279E-02    0.629E-02
DAV:   6    -0.318904950532E+03    0.79887E-05   -0.62489E-05 28768   0.308E-02
  43 F= -.31890495E+03 E0= -.31890013E+03  d E =-.729048E-03  mag=    44.0000
       N       E                     dE             d eps       ncg     rms          rms(c)
DAV:   1    -0.318871886643E+03    0.33072E-01   -0.72256E+00 33312   0.789E+00    0.698E-01
DAV:   2    -0.318905378687E+03   -0.33492E-01   -0.33262E-01 32528   0.139E+00    0.836E-01
DAV:   3    -0.318906070685E+03   -0.69200E-03   -0.18512E-02 34096   0.424E-01    0.780E-01
DAV:   4    -0.318905370327E+03    0.70036E-03   -0.51164E-03 34064   0.212E-01    0.239E-01
DAV:   5    -0.318905306129E+03    0.64198E-04   -0.80091E-04 36992   0.103E-01    0.255E-01
DAV:   6    -0.318905188472E+03    0.11766E-03   -0.68657E-04 37584   0.878E-02    0.148E-01
DAV:   7    -0.318905191663E+03   -0.31917E-05   -0.51140E-04 34880   0.743E-02    0.140E-01
DAV:   8    -0.318905181537E+03    0.10126E-04   -0.22354E-04 34816   0.486E-02    0.640E-02
DAV:   9    -0.318905179722E+03    0.18147E-05   -0.35274E-05 25616   0.224E-02
  44 F= -.31890518E+03 E0= -.31890039E+03  d E =-.958239E-03  mag=    44.0000
       N       E                     dE             d eps       ncg     rms          rms(c)
DAV:   1    -0.318900032158E+03    0.51494E-02   -0.11779E+00 33296   0.319E+00    0.280E-01
DAV:   2    -0.318905491216E+03   -0.54591E-02   -0.54194E-02 32400   0.561E-01    0.351E-01
DAV:   3    -0.318905591328E+03   -0.10011E-03   -0.31039E-03 34032   0.171E-01    0.305E-01
DAV:   4    -0.318905479117E+03    0.11221E-03   -0.73005E-04 33696   0.832E-02    0.892E-02
DAV:   5    -0.318905464087E+03    0.15030E-04   -0.11570E-04 33056   0.372E-02    0.985E-02
DAV:   6    -0.318905445971E+03    0.18116E-04   -0.13520E-04 32656   0.397E-02    0.668E-02
DAV:   7    -0.318905445184E+03    0.78783E-06   -0.82254E-05 30608   0.292E-02
  45 F= -.31890545E+03 E0= -.31890062E+03  d E =-.122370E-02  mag=    44.0000
       N       E                     dE             d eps       ncg     rms          rms(c)
DAV:   1    -0.318899749429E+03    0.56965E-02   -0.12438E+00 35152   0.356E+00    0.333E-01
DAV:   2    -0.318906447946E+03   -0.66985E-02   -0.67376E-02 31696   0.625E-01    0.472E-01
DAV:   3    -0.318906521853E+03   -0.73907E-04   -0.46969E-03 33456   0.209E-01    0.334E-01
DAV:   4    -0.318906403612E+03    0.11824E-03   -0.92408E-04 33648   0.924E-02    0.101E-01
DAV:   5    -0.318906387648E+03    0.15964E-04   -0.17624E-04 33584   0.444E-02    0.951E-02
DAV:   6    -0.318906367674E+03    0.19974E-04   -0.13928E-04 33232   0.409E-02    0.738E-02
DAV:   7    -0.318906365109E+03    0.25645E-05   -0.10116E-04 30848   0.315E-02    0.626E-02
DAV:   8    -0.318906362044E+03    0.30652E-05   -0.45852E-05 24608   0.217E-02
  46 F= -.31890636E+03 E0= -.31890156E+03  d E =-.916860E-03  mag=    44.0000
       N       E                     dE             d eps       ncg     rms          rms(c)
DAV:   1    -0.318859577438E+03    0.46788E-01   -0.89182E+00 35168   0.952E+00    0.883E-01
DAV:   2    -0.318907508435E+03   -0.47931E-01   -0.48157E-01 31728   0.167E+00    0.110E+00
DAV:   3    -0.318908525861E+03   -0.10174E-02   -0.30426E-02 33680   0.523E-01    0.939E-01
DAV:   4    -0.318907532519E+03    0.99334E-03   -0.73547E-03 33696   0.255E-01    0.274E-01
DAV:   5    -0.318907429553E+03    0.10297E-03   -0.13001E-03 36832   0.117E-01    0.258E-01
DAV:   6    -0.318907298652E+03    0.13090E-03   -0.99871E-04 36384   0.112E-01    0.196E-01
DAV:   7    -0.318907286955E+03    0.11697E-04   -0.70363E-04 35872   0.792E-02    0.170E-01
DAV:   8    -0.318907266104E+03    0.20851E-04   -0.32649E-04 35600   0.579E-02    0.709E-02
DAV:   9    -0.318907266806E+03   -0.70185E-06   -0.53824E-05 29472   0.281E-02
  47 F= -.31890727E+03 E0= -.31890250E+03  d E =-.182162E-02  mag=    44.0000
       N       E                     dE             d eps       ncg     rms          rms(c)
DAV:   1    -0.318897058165E+03    0.10208E-01   -0.24020E+00 34000   0.464E+00    0.400E-01
DAV:   2    -0.318908199755E+03   -0.11142E-01   -0.11163E-01 32176   0.813E-01    0.452E-01
DAV:   3    -0.318908448373E+03   -0.24862E-03   -0.57399E-03 33568   0.231E-01    0.434E-01
DAV:   4    -0.318908233663E+03    0.21471E-03   -0.15516E-03 34128   0.118E-01    0.127E-01
DAV:   5    -0.318908206407E+03    0.27255E-04   -0.21521E-04 34784   0.534E-02    0.109E-01
DAV:   6    -0.318908178162E+03    0.28245E-04   -0.22651E-04 33360   0.534E-02    0.104E-01
DAV:   7    -0.318908171453E+03    0.67090E-05   -0.17217E-04 32976   0.379E-02    0.669E-02
DAV:   8    -0.318908170105E+03    0.13487E-05   -0.59716E-05 25424   0.258E-02
  48 F= -.31890817E+03 E0= -.31890342E+03  d E =-.903299E-03  mag=    44.0000
       N       E                     dE             d eps       ncg     rms          rms(c)
DAV:   1    -0.318892177566E+03    0.15994E-01   -0.35210E+00 34000   0.562E+00    0.483E-01
DAV:   2    -0.318908518964E+03   -0.16341E-01   -0.16360E-01 32176   0.984E-01    0.533E-01
DAV:   3    -0.318908889744E+03   -0.37078E-03   -0.82102E-03 33456   0.277E-01    0.529E-01
DAV:   4    -0.318908566671E+03    0.32307E-03   -0.22672E-03 33904   0.139E-01    0.151E-01
DAV:   5    -0.318908527397E+03    0.39274E-04   -0.32763E-04 35824   0.633E-02    0.136E-01
DAV:   6    -0.318908482442E+03    0.44956E-04   -0.33300E-04 33920   0.637E-02    0.122E-01
DAV:   7    -0.318908474922E+03    0.75201E-05   -0.24757E-04 33792   0.460E-02    0.847E-02
DAV:   8    -0.318908471430E+03    0.34912E-05   -0.98184E-05 30176   0.316E-02
  49 F= -.31890847E+03 E0= -.31890375E+03  d E =-.120462E-02  mag=    44.0000
       N       E                     dE             d eps       ncg     rms          rms(c)
DAV:   1    -0.318896447598E+03    0.12027E-01   -0.30439E+00 33824   0.512E+00    0.427E-01
DAV:   2    -0.318909473877E+03   -0.13026E-01   -0.13211E-01 32320   0.889E-01    0.311E-01
DAV:   3    -0.318909736196E+03   -0.26232E-03   -0.36468E-03 33152   0.206E-01    0.356E-01
DAV:   4    -0.318909583668E+03    0.15253E-03   -0.10677E-03 35872   0.109E-01    0.126E-01
DAV:   5    -0.318909535484E+03    0.48185E-04   -0.26388E-04 33632   0.538E-02    0.125E-01
DAV:   6    -0.318909501677E+03    0.33806E-04   -0.28162E-04 34112   0.580E-02    0.999E-02
DAV:   7    -0.318909491768E+03    0.99092E-05   -0.14382E-04 33152   0.400E-02    0.619E-02
DAV:   8    -0.318909490615E+03    0.11529E-05   -0.58211E-05 25984   0.242E-02
  50 F= -.31890949E+03 E0= -.31890479E+03  d E =-.101918E-02  mag=    44.0000
       N       E                     dE             d eps       ncg     rms          rms(c)
DAV:   1    -0.318899238335E+03    0.10253E-01   -0.24541E+00 33824   0.460E+00    0.384E-01
DAV:   2    -0.318909739667E+03   -0.10501E-01   -0.10648E-01 32352   0.798E-01    0.296E-01
DAV:   3    -0.318909968585E+03   -0.22892E-03   -0.32769E-03 33344   0.191E-01    0.355E-01
DAV:   4    -0.318909822645E+03    0.14594E-03   -0.10551E-03 35280   0.103E-01    0.119E-01
DAV:   5    -0.318909789475E+03    0.33171E-04   -0.25482E-04 33472   0.533E-02    0.126E-01
DAV:   6    -0.318909753353E+03    0.36122E-04   -0.21127E-04 34080   0.522E-02    0.818E-02
DAV:   7    -0.318909745966E+03    0.73871E-05   -0.96686E-05 32496   0.358E-02
  51 F= -.31890975E+03 E0= -.31890508E+03  d E =-.127454E-02  mag=    44.0000
       N       E                     dE             d eps       ncg     rms          rms(c)
DAV:   1    -0.318895803987E+03    0.13949E-01   -0.31832E+00 34976   0.546E+00    0.498E-01
DAV:   2    -0.318910865394E+03   -0.15061E-01   -0.15391E-01 31840   0.952E-01    0.380E-01
DAV:   3    -0.318911226959E+03   -0.36157E-03   -0.53180E-03 32608   0.239E-01    0.439E-01
DAV:   4    -0.318910992353E+03    0.23461E-03   -0.18137E-03 35408   0.136E-01    0.163E-01
DAV:   5    -0.318910938649E+03    0.53705E-04   -0.49290E-04 33744   0.683E-02    0.166E-01
DAV:   6    -0.318910888949E+03    0.49699E-04   -0.37684E-04 35056   0.646E-02    0.103E-01
DAV:   7    -0.318910882809E+03    0.61400E-05   -0.16242E-04 32848   0.447E-02    0.778E-02
DAV:   8    -0.318910877828E+03    0.49813E-05   -0.77681E-05 27440   0.283E-02
  52 F= -.31891088E+03 E0= -.31890618E+03  d E =-.113186E-02  mag=    44.0000
       N       E                     dE             d eps       ncg     rms          rms(c)
DAV:   1    -0.318892047183E+03    0.18836E-01   -0.40396E+00 34976   0.615E+00    0.562E-01
DAV:   2    -0.318911213683E+03   -0.19167E-01   -0.19568E-01 31840   0.107E+00    0.454E-01
DAV:   3    -0.318911672359E+03   -0.45868E-03   -0.70766E-03 32720   0.277E-01    0.506E-01
DAV:   4    -0.318911352115E+03    0.32024E-03   -0.23045E-03 36000   0.154E-01    0.175E-01
DAV:   5    -0.318911284473E+03    0.67642E-04   -0.61293E-04 33808   0.763E-02    0.187E-01
DAV:   6    -0.318911224393E+03    0.60079E-04   -0.48780E-04 35472   0.713E-02    0.117E-01
DAV:   7    -0.318911215133E+03    0.92599E-05   -0.19049E-04 33072   0.493E-02    0.812E-02
DAV:   8    -0.318911211122E+03    0.40114E-05   -0.10124E-04 30000   0.315E-02    0.466E-02
DAV:   9    -0.318911210626E+03    0.49586E-06   -0.26660E-05 22672   0.166E-02
  53 F= -.31891121E+03 E0= -.31890649E+03  d E =-.146466E-02  mag=    44.0000
       N       E                     dE             d eps       ncg     rms          rms(c)
DAV:   1    -0.318895647670E+03    0.15563E-01   -0.31197E+00 35008   0.569E+00    0.499E-01
DAV:   2    -0.318912040806E+03   -0.16393E-01   -0.16442E-01 31776   0.984E-01    0.443E-01
DAV:   3    -0.318912543972E+03   -0.50317E-03   -0.71806E-03 33392   0.261E-01    0.504E-01
DAV:   4    -0.318912240837E+03    0.30313E-03   -0.22152E-03 35472   0.137E-01    0.155E-01
DAV:   5    -0.318912190238E+03    0.50600E-04   -0.35657E-04 34544   0.642E-02    0.144E-01
DAV:   6    -0.318912144079E+03    0.46159E-04   -0.34097E-04 34464   0.657E-02    0.113E-01
DAV:   7    -0.318912137666E+03    0.64125E-05   -0.23500E-04 33344   0.488E-02    0.948E-02
DAV:   8    -0.318912130758E+03    0.69080E-05   -0.92955E-05 28352   0.303E-02
  54 F= -.31891213E+03 E0= -.31890738E+03  d E =-.920132E-03  mag=    44.0000
       N       E                     dE             d eps       ncg     rms          rms(c)
DAV:   1    -0.318900884661E+03    0.11253E-01   -0.21636E+00 35104   0.474E+00    0.416E-01
DAV:   2    -0.318912238211E+03   -0.11354E-01   -0.11392E-01 31840   0.819E-01    0.342E-01
DAV:   3    -0.318912585672E+03   -0.34746E-03   -0.44044E-03 33168   0.210E-01    0.400E-01
DAV:   4    -0.318912399384E+03    0.18629E-03   -0.13925E-03 35216   0.114E-01    0.130E-01
DAV:   5    -0.318912366756E+03    0.32628E-04   -0.28479E-04 33696   0.545E-02    0.130E-01
DAV:   6    -0.318912332129E+03    0.34627E-04   -0.24667E-04 34336   0.551E-02    0.883E-02
DAV:   7    -0.318912328410E+03    0.37194E-05   -0.13794E-04 31984   0.392E-02    0.739E-02
DAV:   8    -0.318912324080E+03    0.43297E-05   -0.63243E-05 25920   0.242E-02
  55 F= -.31891232E+03 E0= -.31890755E+03  d E =-.111345E-02  mag=    44.0000
       N       E                     dE             d eps       ncg     rms          rms(c)
DAV:   1    -0.318902936850E+03    0.93916E-02   -0.20799E+00 33200   0.449E+00    0.409E-01
DAV:   2    -0.318913180193E+03   -0.10243E-01   -0.10397E-01 32944   0.796E-01    0.284E-01
DAV:   3    -0.318913411024E+03   -0.23083E-03   -0.29784E-03 33696   0.176E-01    0.315E-01
DAV:   4    -0.318913292329E+03    0.11870E-03   -0.11020E-03 35904   0.998E-02    0.153E-01
DAV:   5    -0.318913241273E+03    0.51056E-04   -0.28601E-04 33856   0.586E-02    0.124E-01
DAV:   6    -0.318913208887E+03    0.32386E-04   -0.23154E-04 36048   0.589E-02    0.897E-02
DAV:   7    -0.318913207462E+03    0.14249E-05   -0.15351E-04 32416   0.396E-02    0.763E-02
DAV:   8    -0.318913202627E+03    0.48357E-05   -0.54316E-05 25312   0.238E-02
  56 F= -.31891320E+03 E0= -.31890843E+03  d E =-.878547E-03  mag=    44.0000
       N       E                     dE             d eps       ncg     rms          rms(c)
DAV:   1    -0.318902281414E+03    0.10926E-01   -0.22739E+00 33248   0.470E+00    0.429E-01
DAV:   2    -0.318913486729E+03   -0.11205E-01   -0.11371E-01 32944   0.832E-01    0.301E-01
DAV:   3    -0.318913742065E+03   -0.25534E-03   -0.32820E-03 33744   0.183E-01    0.330E-01
DAV:   4    -0.318913609217E+03    0.13285E-03   -0.11883E-03 35936   0.102E-01    0.159E-01
DAV:   5    -0.318913555437E+03    0.53780E-04   -0.33130E-04 34000   0.608E-02    0.133E-01
DAV:   6    -0.318913518341E+03    0.37096E-04   -0.27280E-04 35632   0.609E-02    0.905E-02
DAV:   7    -0.318913517880E+03    0.46103E-06   -0.16174E-04 32848   0.407E-02    0.814E-02
DAV:   8    -0.318913512457E+03    0.54230E-05   -0.62383E-05 26384   0.241E-02
  57 F= -.31891351E+03 E0= -.31890873E+03  d E =-.118838E-02  mag=    44.0000
       N       E                     dE             d eps       ncg     rms          rms(c)
DAV:   1    -0.318905477901E+03    0.80400E-02   -0.22316E+00 32944   0.457E+00    0.530E-01
DAV:   2    -0.318914530253E+03   -0.90524E-02   -0.10927E-01 33024   0.838E-01    0.326E-01
DAV:   3    -0.318914627377E+03   -0.97124E-04   -0.34503E-03 32816   0.208E-01    0.346E-01
DAV:   4    -0.318914454184E+03    0.17319E-03   -0.13282E-03 36960   0.130E-01    0.182E-01
DAV:   5    -0.318914407079E+03    0.47104E-04   -0.62464E-04 35072   0.848E-02    0.170E-01
DAV:   6    -0.318914365626E+03    0.41453E-04   -0.41816E-04 34864   0.677E-02    0.103E-01
DAV:   7    -0.318914361277E+03    0.43492E-05   -0.16965E-04 31280   0.430E-02    0.748E-02
DAV:   8    -0.318914354660E+03    0.66169E-05   -0.44761E-05 24496   0.262E-02
  58 F= -.31891435E+03 E0= -.31890958E+03  d E =-.842203E-03  mag=    44.0000
       N       E                     dE             d eps       ncg     rms          rms(c)
DAV:   1    -0.318911564845E+03    0.27964E-02   -0.70114E-01 32336   0.256E+00    0.304E-01
DAV:   2    -0.318914522522E+03   -0.29577E-02   -0.35447E-02 33360   0.475E-01    0.190E-01
DAV:   3    -0.318914578858E+03   -0.56336E-04   -0.13540E-03 33088   0.128E-01    0.240E-01
DAV:   4    -0.318914504399E+03    0.74460E-04   -0.53344E-04 35856   0.788E-02    0.986E-02
DAV:   5    -0.318914490798E+03    0.13601E-04   -0.21990E-04 32864   0.472E-02    0.104E-01
DAV:   6    -0.318914474704E+03    0.16094E-04   -0.14992E-04 30160   0.403E-02    0.578E-02
DAV:   7    -0.318914473531E+03    0.11730E-05   -0.55248E-05 23872   0.252E-02
  59 F= -.31891447E+03 E0= -.31890971E+03  d E =-.961074E-03  mag=    44.0000
       N       E                     dE             d eps       ncg     rms          rms(c)
DAV:   1    -0.318903294466E+03    0.11180E-01   -0.24935E+00 35216   0.506E+00    0.451E-01
DAV:   2    -0.318915018050E+03   -0.11724E-01   -0.12130E-01 32528   0.873E-01    0.278E-01
DAV:   3    -0.318915233246E+03   -0.21520E-03   -0.26843E-03 32960   0.183E-01    0.234E-01
DAV:   4    -0.318915145936E+03    0.87310E-04   -0.58564E-04 36448   0.879E-02    0.133E-01
DAV:   5    -0.318915097201E+03    0.48735E-04   -0.35867E-04 35712   0.616E-02    0.149E-01
DAV:   6    -0.318915058489E+03    0.38711E-04   -0.29982E-04 34048   0.563E-02    0.797E-02
DAV:   7    -0.318915056614E+03    0.18755E-05   -0.98793E-05 31968   0.335E-02
  60 F= -.31891506E+03 E0= -.31891030E+03  d E =-.583082E-03  mag=    44.0000
       N       E                     dE             d eps       ncg     rms          rms(c)
DAV:   1    -0.318914759059E+03    0.29943E-03   -0.64481E-02 35376   0.812E-01    0.787E-02
DAV:   2    -0.318915067672E+03   -0.30861E-03   -0.31959E-03 33344   0.144E-01    0.104E-01
DAV:   3    -0.318915074189E+03   -0.65170E-05   -0.24407E-04 31760   0.479E-02    0.909E-02
DAV:   4    -0.318915065161E+03    0.90271E-05   -0.61479E-05 24368   0.238E-02    0.216E-02
DAV:   5    -0.318915064434E+03    0.72772E-06   -0.11880E-05 19712   0.121E-02    0.268E-02
DAV:   6    -0.318915063515E+03    0.91906E-06   -0.10513E-05 18272   0.111E-02
  61 F= -.31891506E+03 E0= -.31891030E+03  d E =-.589983E-03  mag=    44.0000
       N       E                     dE             d eps       ncg     rms          rms(c)
DAV:   1    -0.318907520331E+03    0.75441E-02   -0.15017E+00 37184   0.416E+00    0.377E-01
DAV:   2    -0.318915518307E+03   -0.79980E-02   -0.80406E-02 32160   0.709E-01    0.290E-01
DAV:   3    -0.318915729216E+03   -0.21091E-03   -0.26385E-03 33120   0.185E-01    0.276E-01
DAV:   4    -0.318915623551E+03    0.10566E-03   -0.66999E-04 35056   0.925E-02    0.104E-01
DAV:   5    -0.318915592672E+03    0.30879E-04   -0.18322E-04 33104   0.488E-02    0.105E-01
DAV:   6    -0.318915573696E+03    0.18975E-04   -0.19619E-04 34448   0.466E-02    0.778E-02
DAV:   7    -0.318915572270E+03    0.14267E-05   -0.97778E-05 30160   0.307E-02
  62 F= -.31891557E+03 E0= -.31891083E+03  d E =-.508755E-03  mag=    44.0000
