       N       E                     dE             d eps       ncg     rms          ort
DAV:   1     0.579557958545E+04    0.57956E+04   -0.23432E+05  7072   0.164E+03
DAV:   2     0.564885410139E+03   -0.52307E+04   -0.49030E+04  7072   0.473E+02
DAV:   3    -0.376422857002E+03   -0.94131E+03   -0.91548E+03  7072   0.205E+02
DAV:   4    -0.418466322015E+03   -0.42043E+02   -0.41325E+02  7072   0.485E+01
DAV:   5    -0.420191551123E+03   -0.17252E+01   -0.16829E+01  7072   0.954E+00
SDA:   6    -0.203207348160E+03    0.21698E+03   -0.16829E+01  7072   0.188E+04 0.000E+00
CGA:   7    -0.238896994907E+03   -0.35690E+02   -0.18082E+03  7072   0.702E+03 0.486E+02
CGA:   8    -0.224632655805E+03    0.14264E+02   -0.40904E+02  7072   0.127E+04-0.798E+03
CGA:   9    -0.236386498405E+03   -0.11754E+02   -0.10033E+03  7072   0.566E+03-0.267E+03
CGA:  10    -0.290390095971E+03   -0.54004E+02   -0.28062E+02  7072   0.170E+04-0.538E+02
CGA:  11    -0.240578467796E+03    0.49812E+02   -0.81639E+02  7072   0.144E+04-0.784E+03
CGA:  12    -0.298630160024E+03   -0.58052E+02   -0.65501E+02  7072   0.857E+03-0.176E+03
CGA:  13    -0.299833407176E+03   -0.12032E+01   -0.44615E+02  7072   0.618E+03-0.457E+03
CGA:  14    -0.308944813448E+03   -0.91114E+01   -0.38617E+02  7072   0.786E+03-0.513E+03
CGA:  15    -0.305380075737E+03    0.35647E+01   -0.47869E+02  7072   0.700E+03-0.448E+03
CGA:  16    -0.319104996717E+03   -0.13725E+02   -0.33553E+02  7072   0.842E+03-0.980E+03
CGA:  17    -0.317042411020E+03    0.20626E+01   -0.50180E+02  7072   0.467E+03-0.363E+03
CGA:  18    -0.339596843522E+03   -0.22554E+02   -0.74809E+01  7072   0.263E+03 0.521E+03
CGA:  19    -0.341912865148E+03   -0.23160E+01   -0.84806E+01  7072   0.217E+03-0.203E+03
CGA:  20    -0.336687214236E+03    0.52257E+01   -0.85476E+01  7072   0.602E+03-0.356E+03
CGA:  21    -0.333886413182E+03    0.28008E+01   -0.21951E+02  7072   0.525E+03-0.434E+03
CGA:  22    -0.322893400546E+03    0.10993E+02   -0.24164E+02  7072   0.464E+03-0.314E+03
CGA:  23    -0.343486042288E+03   -0.20593E+02   -0.12465E+02  7072   0.259E+03-0.548E+03
CGA:  24    -0.341010262466E+03    0.24758E+01   -0.83820E+01  7072   0.585E+03-0.457E+03
CGA:  25    -0.338378127683E+03    0.26321E+01   -0.18907E+02  7072   0.468E+03-0.389E+03
CGA:  26    -0.329948930769E+03    0.84292E+01   -0.17279E+02  7072   0.633E+03-0.458E+03
CGA:  27    -0.340422404593E+03   -0.10473E+02   -0.16690E+02  7072   0.447E+03-0.642E+03
CGA:  28    -0.334630549876E+03    0.57919E+01   -0.14770E+02  7072   0.769E+03-0.606E+03
CGA:  29    -0.338426808944E+03   -0.37963E+01   -0.21125E+02  7072   0.548E+03-0.620E+03
CGA:  30    -0.332999821192E+03    0.54270E+01   -0.17946E+02  7072   0.718E+03-0.588E+03
CGA:  31    -0.342496160701E+03   -0.94963E+01   -0.17454E+02  7072   0.465E+03-0.676E+03
CGA:  32    -0.340545972043E+03    0.19502E+01   -0.13328E+02  7072   0.723E+03-0.654E+03
CGA:  33    -0.343014510181E+03   -0.24685E+01   -0.18096E+02  7072   0.476E+03-0.540E+03
CGA:  34    -0.342293757279E+03    0.72075E+00   -0.12806E+02  7072   0.675E+03-0.645E+03
CGA:  35    -0.344527718745E+03   -0.22340E+01   -0.16290E+02  7072   0.425E+03-0.486E+03
CGA:  36    -0.346118205026E+03   -0.15905E+01   -0.10269E+02  7072   0.458E+03-0.518E+03
CGA:  37    -0.347395940101E+03   -0.12777E+01   -0.10649E+02  7072   0.287E+03-0.324E+03
CGA:  38    -0.350309856165E+03   -0.29139E+01   -0.56892E+01  7072   0.128E+03-0.218E+03
CGA:  39    -0.351428642755E+03   -0.11188E+01   -0.22367E+01  7072   0.310E+02-0.556E+02
CGA:  40    -0.351900902453E+03   -0.47226E+00   -0.41833E+00  7072   0.174E+01 0.151E+01
CGA:  41    -0.352862951931E+03   -0.96205E+00   -0.15869E+00  7072   0.664E+01 0.400E+00
CGA:  42    -0.353247850898E+03   -0.38490E+00   -0.39162E+00  7072   0.321E+01 0.789E+00
CGA:  43    -0.353378177045E+03   -0.13033E+00   -0.12716E+00  7072   0.205E+01 0.132E+00
CGA:  44    -0.353493320859E+03   -0.11514E+00   -0.11276E+00  7072   0.107E+01 0.406E-01
CGA:  45    -0.353591234398E+03   -0.97914E-01   -0.97354E-01  7072   0.162E+01-0.695E-02
CGA:  46    -0.353677923352E+03   -0.86689E-01   -0.82127E-01  7072   0.127E+01 0.573E-01
CGA:  47    -0.353759515431E+03   -0.81592E-01   -0.82506E-01  7072   0.384E+00-0.416E-02
CGA:  48    -0.353785850289E+03   -0.26335E-01   -0.26963E-01  7072   0.613E+00 0.308E-02
CGA:  49    -0.353814113325E+03   -0.28263E-01   -0.29578E-01  7072   0.353E+00-0.114E-01
CGA:  50    -0.353852167067E+03   -0.38054E-01   -0.38268E-01  7072   0.325E+00-0.971E-02
CGA:  51    -0.353864581978E+03   -0.12415E-01   -0.13184E-01  7072   0.260E+00-0.917E-02
CGA:  52    -0.353881832689E+03   -0.17251E-01   -0.17457E-01  7072   0.169E+00 0.157E-02
CGA:  53    -0.353899765477E+03   -0.17933E-01   -0.17887E-01  7072   0.222E+00 0.202E-02
CGA:  54    -0.353910965684E+03   -0.11200E-01   -0.11181E-01  7072   0.176E+00 0.656E-03
CGA:  55    -0.353924823503E+03   -0.13858E-01   -0.13907E-01  7072   0.766E-01 0.163E-02
CGA:  56    -0.353933303826E+03   -0.84803E-02   -0.84531E-02  7072   0.127E+00 0.875E-03
CGA:  57    -0.353939603739E+03   -0.62999E-02   -0.60859E-02  7072   0.838E-01 0.209E-02
CGA:  58    -0.353946622969E+03   -0.70192E-02   -0.70068E-02  7072   0.600E-01-0.848E-03
CGA:  59    -0.353949926073E+03   -0.33031E-02   -0.33083E-02  7072   0.602E-01 0.826E-06
CGA:  60    -0.353953465743E+03   -0.35397E-02   -0.34829E-02  7072   0.263E-01 0.174E-03
CGA:  61    -0.353956497907E+03   -0.30322E-02   -0.30312E-02  7072   0.623E-01 0.136E-04
CGA:  62    -0.353958819045E+03   -0.23211E-02   -0.21442E-02  7072   0.206E-01 0.362E-02
CGA:  63    -0.353960436334E+03   -0.16173E-02   -0.16108E-02  7072   0.221E-01-0.219E-03
CGA:  64    -0.353961365784E+03   -0.92945E-03   -0.92599E-03  7072   0.239E-01 0.604E-04
CGA:  65    -0.353963038478E+03   -0.16727E-02   -0.16545E-02  7072   0.144E-01-0.428E-03
CGA:  66    -0.353963567908E+03   -0.52943E-03   -0.52427E-03  7072   0.149E-01 0.109E-03
CGA:  67    -0.353964584714E+03   -0.10168E-02   -0.10200E-02  7072   0.977E-02 0.134E-03
CGA:  68    -0.353964936023E+03   -0.35131E-03   -0.33920E-03  7072   0.866E-02 0.263E-03
SDA:  69    -0.353965492377E+03   -0.55635E-03   -0.55112E-03  7072   0.952E-02-0.632E-04
CGA:  70    -0.353965849650E+03   -0.35727E-03   -0.35688E-03  7072   0.595E-02 0.341E-05
CGA:  71    -0.353966197517E+03   -0.34787E-03   -0.34747E-03  7072   0.592E-02-0.283E-05
CGA:  72    -0.353967699278E+03   -0.15018E-02   -0.15189E-02  7072   0.785E-02-0.130E-03
CGA:  73    -0.353968173217E+03   -0.47394E-03   -0.47308E-03  7072   0.872E-02 0.586E-06
CGA:  74    -0.353968462178E+03   -0.28896E-03   -0.29052E-03  7072   0.121E-02-0.219E-04
CGA:  75    -0.353968636480E+03   -0.17430E-03   -0.17634E-03  7072   0.197E-02-0.307E-04
CGA:  76    -0.353968737049E+03   -0.10057E-03   -0.10071E-03  7072   0.194E-02-0.879E-05
CGA:  77    -0.353968824960E+03   -0.87911E-04   -0.87353E-04  7072   0.278E-03-0.183E-05
CGA:  78    -0.353968869366E+03   -0.44406E-04   -0.44566E-04  7072   0.294E-03-0.297E-05
CGA:  79    -0.353968898636E+03   -0.29270E-04   -0.29249E-04  7072   0.446E-03-0.292E-06
CGA:  80    -0.353968911622E+03   -0.12986E-04   -0.12829E-04  7072   0.106E-03 0.431E-05
CGA:  81    -0.353968929063E+03   -0.17441E-04   -0.17339E-04  7072   0.195E-03-0.226E-07
CGA:  82    -0.353968944454E+03   -0.15391E-04   -0.15426E-04  7072   0.330E-03 0.233E-05
CGA:  83    -0.353968958551E+03   -0.14097E-04   -0.13300E-04  7072   0.116E-03 0.135E-04
CGA:  84    -0.353968970264E+03   -0.11713E-04   -0.11782E-04  7072   0.120E-03-0.513E-05
CGA:  85    -0.353968975632E+03   -0.53677E-05   -0.52841E-05  7072   0.150E-03-0.338E-05
CGA:  86    -0.353968987568E+03   -0.11937E-04   -0.11979E-04  7072   0.864E-04-0.238E-04
CGA:  87    -0.353968990905E+03   -0.33371E-05   -0.32172E-05  7072   0.663E-04-0.263E-05
   1 F= -.35396899E+03 E0= -.35395208E+03  d E =-.353969E+03  mag=     8.0000
       N       E                     dE             d eps       ncg     rms          ort
SDA:   1    -0.353970443998E+03   -0.14564E-02    0.00000E+00  7072   0.144E-01 0.000E+00
CGA:   2    -0.353970711965E+03   -0.26797E-03   -0.26808E-03  7072   0.109E-02-0.557E-05
CGA:   3    -0.353970760615E+03   -0.48649E-04   -0.48674E-04  7072   0.219E-03 0.170E-05
CGA:   4    -0.353970778356E+03   -0.17741E-04   -0.17713E-04  7072   0.299E-03 0.367E-05
CGA:   5    -0.353970790544E+03   -0.12188E-04   -0.12270E-04  7072   0.193E-03 0.241E-05
CGA:   6    -0.353970803769E+03   -0.13225E-04   -0.13232E-04  7072   0.527E-04 0.205E-05
CGA:   7    -0.353970808588E+03   -0.48197E-05   -0.48604E-05  7072   0.336E-04-0.205E-05
   2 F= -.35397081E+03 E0= -.35395394E+03  d E =-.181768E-02  mag=     8.0000
       N       E                     dE             d eps       ncg     rms          ort
SDA:   1    -0.353971445721E+03   -0.64195E-03    0.00000E+00  7072   0.402E+00 0.000E+00
CGA:   2    -0.353980635398E+03   -0.91897E-02   -0.89103E-02  7072   0.131E+00 0.983E-02
CGA:   3    -0.354003232244E+03   -0.22597E-01   -0.22577E-01  7072   0.699E-01 0.207E-03
CGA:   4    -0.354006804792E+03   -0.35725E-02   -0.35571E-02  7072   0.739E-01-0.206E-04
CGA:   5    -0.354010012046E+03   -0.32073E-02   -0.31950E-02  7072   0.304E-01 0.598E-04
CGA:   6    -0.354012964597E+03   -0.29526E-02   -0.29541E-02  7072   0.161E-01-0.527E-04
CGA:   7    -0.354013780968E+03   -0.81637E-03   -0.81571E-03  7072   0.898E-02-0.310E-05
CGA:   8    -0.354014055873E+03   -0.27490E-03   -0.27515E-03  7072   0.365E-02-0.523E-05
CGA:   9    -0.354014398521E+03   -0.34265E-03   -0.34272E-03  7072   0.176E-02-0.258E-05
CGA:  10    -0.354014567691E+03   -0.16917E-03   -0.16919E-03  7072   0.810E-03-0.821E-06
CGA:  11    -0.354014599102E+03   -0.31410E-04   -0.31442E-04  7072   0.728E-03 0.144E-05
CGA:  12    -0.354014655957E+03   -0.56855E-04   -0.56844E-04  7072   0.473E-03 0.159E-05
CGA:  13    -0.354014711382E+03   -0.55426E-04   -0.55478E-04  7072   0.213E-03-0.122E-05
CGA:  14    -0.354014728250E+03   -0.16868E-04   -0.16869E-04  7072   0.353E-03-0.242E-06
CGA:  15    -0.354014746143E+03   -0.17893E-04   -0.17894E-04  7072   0.365E-03 0.512E-07
CGA:  16    -0.354014775015E+03   -0.28872E-04   -0.28874E-04  7072   0.109E-03-0.359E-06
CGA:  17    -0.354014788423E+03   -0.13408E-04   -0.13422E-04  7072   0.125E-03-0.312E-06
CGA:  18    -0.354014804731E+03   -0.16308E-04   -0.16177E-04  7072   0.116E-03 0.239E-05
CGA:  19    -0.354014808425E+03   -0.36942E-05   -0.37217E-05  7072   0.650E-04 0.555E-06
   3 F= -.35401481E+03 E0= -.35399790E+03  d E =-.439998E-01  mag=     8.0000
       N       E                     dE             d eps       ncg     rms          ort
SDA:   1    -0.353804057660E+03    0.21075E+00    0.00000E+00  7072   0.109E+01 0.000E+00
CGA:   2    -0.353963499608E+03   -0.15944E+00   -0.15795E+00  7072   0.231E+01 0.214E-01
CGA:   3    -0.354032516942E+03   -0.69017E-01   -0.69044E-01  7072   0.637E+00-0.691E-02
CGA:   4    -0.354074026452E+03   -0.41510E-01   -0.41363E-01  7072   0.307E+00-0.387E-02
CGA:   5    -0.354104567551E+03   -0.30541E-01   -0.30541E-01  7072   0.359E+00-0.515E-04
CGA:   6    -0.354116361945E+03   -0.11794E-01   -0.11980E-01  7072   0.159E+00-0.355E-02
CGA:   7    -0.354123576722E+03   -0.72148E-02   -0.72627E-02  7072   0.308E-01-0.227E-03
CGA:   8    -0.354127213343E+03   -0.36366E-02   -0.36423E-02  7072   0.398E-01-0.110E-03
CGA:   9    -0.354128507078E+03   -0.12937E-02   -0.12846E-02  7072   0.168E-01 0.188E-03
CGA:  10    -0.354129494770E+03   -0.98769E-03   -0.98677E-03  7072   0.475E-02-0.849E-05
CGA:  11    -0.354130072202E+03   -0.57743E-03   -0.57718E-03  7072   0.865E-02 0.545E-05
CGA:  12    -0.354130394493E+03   -0.32229E-03   -0.32299E-03  7072   0.479E-02-0.126E-04
CGA:  13    -0.354130705113E+03   -0.31062E-03   -0.31064E-03  7072   0.213E-02 0.522E-06
CGA:  14    -0.354130896050E+03   -0.19094E-03   -0.19098E-03  7072   0.300E-02-0.204E-05
CGA:  15    -0.354131030670E+03   -0.13462E-03   -0.13457E-03  7072   0.275E-02-0.317E-07
CGA:  16    -0.354131272960E+03   -0.24229E-03   -0.24232E-03  7072   0.928E-03-0.184E-05
CGA:  17    -0.354131359459E+03   -0.86498E-04   -0.86442E-04  7072   0.166E-02 0.289E-05
CGA:  18    -0.354131433258E+03   -0.73799E-04   -0.73887E-04  7072   0.120E-02 0.299E-05
CGA:  19    -0.354131543850E+03   -0.11059E-03   -0.11053E-03  7072   0.304E-03 0.312E-05
CGA:  20    -0.354131564907E+03   -0.21057E-04   -0.21067E-04  7072   0.596E-03 0.197E-05
CGA:  21    -0.354131599028E+03   -0.34120E-04   -0.34182E-04  7072   0.224E-03 0.371E-05
CGA:  22    -0.354131618179E+03   -0.19151E-04   -0.19139E-04  7072   0.164E-03 0.104E-05
CGA:  23    -0.354131623786E+03   -0.56069E-05   -0.56259E-05  7072   0.913E-04 0.595E-06
   4 F= -.35413162E+03 E0= -.35411462E+03  d E =-.116815E+00  mag=     8.0000
       N       E                     dE             d eps       ncg     rms          ort
SDA:   1    -0.353463568094E+03    0.66805E+00    0.00000E+00  7072   0.282E+01 0.000E+00
CGA:   2    -0.353863880051E+03   -0.40031E+00   -0.39462E+00  7072   0.523E+01 0.837E-01
CGA:   3    -0.354029198095E+03   -0.16532E+00   -0.16432E+00  7072   0.184E+01-0.693E-02
CGA:   4    -0.354133978486E+03   -0.10478E+00   -0.10497E+00  7072   0.728E+00 0.195E-02
CGA:   5    -0.354215950701E+03   -0.81972E-01   -0.81912E-01  7072   0.725E+00 0.110E-02
CGA:   6    -0.354245130420E+03   -0.29180E-01   -0.29523E-01  7072   0.468E+00-0.347E-02
CGA:   7    -0.354261842483E+03   -0.16712E-01   -0.16869E-01  7072   0.864E-01-0.223E-02
CGA:   8    -0.354272198239E+03   -0.10356E-01   -0.10391E-01  7072   0.550E-01-0.643E-03
CGA:   9    -0.354276026129E+03   -0.38279E-02   -0.38293E-02  7072   0.560E-01 0.211E-03
CGA:  10    -0.354277685620E+03   -0.16595E-02   -0.16537E-02  7072   0.128E-01 0.142E-03
CGA:  11    -0.354279322910E+03   -0.16373E-02   -0.16384E-02  7072   0.126E-01-0.175E-04
CGA:  12    -0.354280423521E+03   -0.11006E-02   -0.11004E-02  7072   0.163E-01 0.128E-04
CGA:  13    -0.354280941847E+03   -0.51833E-03   -0.51793E-03  7072   0.512E-02 0.130E-04
CGA:  14    -0.354281488475E+03   -0.54663E-03   -0.54686E-03  7072   0.628E-02-0.590E-05
CGA:  15    -0.354282165077E+03   -0.67660E-03   -0.67600E-03  7072   0.744E-02 0.149E-04
CGA:  16    -0.354282389744E+03   -0.22467E-03   -0.22566E-03  7072   0.287E-02-0.215E-04
CGA:  17    -0.354282660760E+03   -0.27102E-03   -0.27074E-03  7072   0.264E-02 0.115E-04
CGA:  18    -0.354282944254E+03   -0.28349E-03   -0.28329E-03  7072   0.466E-02 0.619E-05
CGA:  19    -0.354283078759E+03   -0.13451E-03   -0.13449E-03  7072   0.714E-03 0.662E-05
CGA:  20    -0.354283182111E+03   -0.10335E-03   -0.10292E-03  7072   0.978E-03 0.618E-05
CGA:  21    -0.354283224719E+03   -0.42608E-04   -0.42663E-04  7072   0.828E-03 0.185E-05
CGA:  22    -0.354283271438E+03   -0.46719E-04   -0.46750E-04  7072   0.261E-03 0.171E-05
CGA:  23    -0.354283291055E+03   -0.19617E-04   -0.19617E-04  7072   0.204E-03 0.648E-06
CGA:  24    -0.354283304518E+03   -0.13463E-04   -0.13473E-04  7072   0.330E-03 0.114E-05
CGA:  25    -0.354283322631E+03   -0.18112E-04   -0.18134E-04  7072   0.866E-04 0.115E-05
CGA:  26    -0.354283330084E+03   -0.74537E-05   -0.74559E-05  7072   0.718E-04-0.175E-06
   5 F= -.35428333E+03 E0= -.35426621E+03  d E =-.151706E+00  mag=     8.0000
       N       E                     dE             d eps       ncg     rms          ort
SDA:   1    -0.352174073995E+03    0.21092E+01    0.00000E+00  7072   0.886E+01 0.000E+00
CGA:   2    -0.352951693467E+03   -0.77762E+00   -0.77624E+00  7072   0.201E+02 0.659E-01
CGA:   3    -0.353692507648E+03   -0.74081E+00   -0.76876E+00  7072   0.508E+01-0.313E+00
CGA:   4    -0.354033610411E+03   -0.34110E+00   -0.33926E+00  7072   0.216E+01-0.228E+00
CGA:   5    -0.354171977605E+03   -0.13837E+00   -0.13818E+00  7072   0.358E+01-0.198E-01
CGA:   6    -0.354334217128E+03   -0.16224E+00   -0.16246E+00  7072   0.989E+00-0.844E-03
CGA:   7    -0.354386900105E+03   -0.52683E-01   -0.53007E-01  7072   0.329E+00 0.411E-02
CGA:   8    -0.354404364088E+03   -0.17464E-01   -0.17483E-01  7072   0.390E+00 0.199E-03
CGA:   9    -0.354423903293E+03   -0.19539E-01   -0.19542E-01  7072   0.134E+00 0.107E-04
CGA:  10    -0.354433939258E+03   -0.10036E-01   -0.10013E-01  7072   0.627E-01 0.186E-02
CGA:  11    -0.354436420773E+03   -0.24815E-02   -0.24852E-02  7072   0.524E-01-0.201E-04
CGA:  12    -0.354440638794E+03   -0.42180E-02   -0.42188E-02  7072   0.373E-01-0.327E-04
CGA:  13    -0.354444014966E+03   -0.33762E-02   -0.33751E-02  7072   0.359E-01 0.375E-04
CGA:  14    -0.354445212746E+03   -0.11978E-02   -0.12012E-02  7072   0.175E-01-0.462E-04
CGA:  15    -0.354446863949E+03   -0.16512E-02   -0.16474E-02  7072   0.215E-01 0.108E-03
CGA:  16    -0.354448805751E+03   -0.19418E-02   -0.19416E-02  7072   0.252E-01 0.862E-05
CGA:  17    -0.354449621388E+03   -0.81564E-03   -0.81800E-03  7072   0.894E-02-0.273E-04
CGA:  18    -0.354450453197E+03   -0.83181E-03   -0.83116E-03  7072   0.863E-02 0.223E-04
CGA:  19    -0.354451105483E+03   -0.65229E-03   -0.65233E-03  7072   0.144E-01 0.424E-06
CGA:  20    -0.354451699157E+03   -0.59367E-03   -0.59393E-03  7072   0.225E-02 0.207E-05
CGA:  21    -0.354451938213E+03   -0.23906E-03   -0.23879E-03  7072   0.424E-02 0.681E-05
CGA:  22    -0.354452103359E+03   -0.16515E-03   -0.16529E-03  7072   0.191E-02 0.197E-05
CGA:  23    -0.354452244178E+03   -0.14082E-03   -0.14080E-03  7072   0.104E-02 0.285E-05
CGA:  24    -0.354452302035E+03   -0.57857E-04   -0.57860E-04  7072   0.910E-03 0.412E-06
CGA:  25    -0.354452342717E+03   -0.40682E-04   -0.40697E-04  7072   0.563E-03 0.875E-06
CGA:  26    -0.354452403127E+03   -0.60410E-04   -0.60316E-04  7072   0.442E-03 0.228E-05
CGA:  27    -0.354452422696E+03   -0.19570E-04   -0.19586E-04  7072   0.375E-03 0.637E-06
CGA:  28    -0.354452443983E+03   -0.21287E-04   -0.21292E-04  7072   0.149E-03 0.469E-06
CGA:  29    -0.354452462498E+03   -0.18514E-04   -0.18596E-04  7072   0.378E-03-0.143E-05
CGA:  30    -0.354452476325E+03   -0.13827E-04   -0.13807E-04  7072   0.112E-03-0.392E-06
CGA:  31    -0.354452485235E+03   -0.89093E-05   -0.89069E-05  7072   0.760E-04 0.168E-06
   6 F= -.35445249E+03 E0= -.35443527E+03  d E =-.169155E+00  mag=     8.0000
       N       E                     dE             d eps       ncg     rms          ort
SDA:   1    -0.351872241364E+03    0.25802E+01    0.00000E+00  7072   0.130E+02 0.000E+00
CGA:   2    -0.352409546296E+03   -0.53730E+00   -0.51759E+00  7072   0.153E+02 0.891E-01
CGA:   3    -0.353655940403E+03   -0.12464E+01   -0.12526E+01  7072   0.616E+01-0.317E+00
CGA:   4    -0.354054218423E+03   -0.39828E+00   -0.39754E+00  7072   0.266E+01-0.290E+00
CGA:   5    -0.354200556583E+03   -0.14634E+00   -0.14591E+00  7072   0.421E+01-0.143E-01
CGA:   6    -0.354412835268E+03   -0.21228E+00   -0.21456E+00  7072   0.103E+01 0.320E-01
CGA:   7    -0.354474414272E+03   -0.61579E-01   -0.61467E-01  7072   0.276E+00-0.639E-02
CGA:   8    -0.354500266406E+03   -0.25852E-01   -0.25808E-01  7072   0.476E+00 0.123E-02
CGA:   9    -0.354515248382E+03   -0.14982E-01   -0.15128E-01  7072   0.128E+00-0.244E-02
CGA:  10    -0.354523390800E+03   -0.81424E-02   -0.81458E-02  7072   0.517E-01 0.121E-02
CGA:  11    -0.354527754325E+03   -0.43635E-02   -0.43607E-02  7072   0.673E-01 0.112E-03
CGA:  12    -0.354530403422E+03   -0.26491E-02   -0.26591E-02  7072   0.466E-01-0.467E-04
CGA:  13    -0.354534475630E+03   -0.40722E-02   -0.40671E-02  7072   0.137E-01 0.169E-03
CGA:  14    -0.354536029251E+03   -0.15536E-02   -0.15484E-02  7072   0.404E-01 0.103E-03
CGA:  15    -0.354537898457E+03   -0.18692E-02   -0.18747E-02  7072   0.193E-01 0.209E-04
CGA:  16    -0.354539502522E+03   -0.16041E-02   -0.16028E-02  7072   0.861E-02 0.591E-04
CGA:  17    -0.354540120196E+03   -0.61767E-03   -0.61760E-03  7072   0.169E-01 0.129E-04
CGA:  18    -0.354541174152E+03   -0.10540E-02   -0.10543E-02  7072   0.995E-02 0.326E-04
CGA:  19    -0.354541784739E+03   -0.61059E-03   -0.61064E-03  7072   0.339E-02 0.311E-05
CGA:  20    -0.354541987419E+03   -0.20268E-03   -0.20268E-03  7072   0.523E-02 0.641E-06
CGA:  21    -0.354542290142E+03   -0.30272E-03   -0.30274E-03  7072   0.171E-02-0.354E-06
CGA:  22    -0.354542457090E+03   -0.16695E-03   -0.16696E-03  7072   0.176E-02-0.173E-06
CGA:  23    -0.354542512734E+03   -0.55643E-04   -0.55610E-04  7072   0.735E-03-0.686E-06
CGA:  24    -0.354542583021E+03   -0.70287E-04   -0.70309E-04  7072   0.581E-03-0.809E-06
CGA:  25    -0.354542631006E+03   -0.47986E-04   -0.47966E-04  7072   0.832E-03 0.105E-05
CGA:  26    -0.354542660861E+03   -0.29854E-04   -0.29888E-04  7072   0.239E-03 0.968E-06
CGA:  27    -0.354542682040E+03   -0.21179E-04   -0.21187E-04  7072   0.235E-03-0.469E-06
CGA:  28    -0.354542701158E+03   -0.19118E-04   -0.19127E-04  7072   0.419E-03-0.596E-06
CGA:  29    -0.354542719057E+03   -0.17899E-04   -0.17882E-04  7072   0.110E-03-0.471E-06
CGA:  30    -0.354542728999E+03   -0.99415E-05   -0.99243E-05  7072   0.104E-03 0.634E-06
   7 F= -.35454273E+03 E0= -.35452557E+03  d E =-.902438E-01  mag=     8.0000
       N       E                     dE             d eps       ncg     rms          ort
SDA:   1    -0.350760744984E+03    0.37820E+01    0.00000E+00  7072   0.121E+02 0.000E+00
CGA:   2    -0.351994893104E+03   -0.12341E+01   -0.12685E+01  7072   0.430E+02-0.707E+00
CGA:   3    -0.353472960611E+03   -0.14781E+01   -0.14045E+01  7072   0.634E+01 0.140E+01
CGA:   4    -0.353894110441E+03   -0.42115E+00   -0.41402E+00  7072   0.763E+01-0.673E+00
CGA:   5    -0.354089172393E+03   -0.19506E+00   -0.19465E+00  7072   0.470E+01 0.462E-01
CGA:   6    -0.354290850265E+03   -0.20168E+00   -0.20476E+00  7072   0.668E+01-0.438E-02
CGA:   7    -0.354465919562E+03   -0.17507E+00   -0.16910E+00  7072   0.100E+01 0.187E+00
CGA:   8    -0.354497265832E+03   -0.31346E-01   -0.31250E-01  7072   0.858E+00 0.666E-03
CGA:   9    -0.354527107566E+03   -0.29842E-01   -0.29801E-01  7072   0.384E+00 0.311E-03
CGA:  10    -0.354540424650E+03   -0.13317E-01   -0.13309E-01  7072   0.488E+00 0.102E-03
CGA:  11    -0.354563923293E+03   -0.23499E-01   -0.23558E-01  7072   0.212E+00 0.184E-02
CGA:  12    -0.354568314120E+03   -0.43908E-02   -0.44530E-02  7072   0.885E-01-0.212E-02
CGA:  13    -0.354573014223E+03   -0.47001E-02   -0.47009E-02  7072   0.766E-01 0.136E-03
CGA:  14    -0.354575070153E+03   -0.20559E-02   -0.20516E-02  7072   0.511E-01 0.990E-04
CGA:  15    -0.354578910030E+03   -0.38399E-02   -0.38278E-02  7072   0.682E-01 0.459E-03
CGA:  16    -0.354580617179E+03   -0.17071E-02   -0.17197E-02  7072   0.302E-01-0.277E-03
CGA:  17    -0.354582113288E+03   -0.14961E-02   -0.14972E-02  7072   0.210E-01 0.110E-03
CGA:  18    -0.354582716507E+03   -0.60322E-03   -0.60474E-03  7072   0.160E-01-0.165E-04
CGA:  19    -0.354584175752E+03   -0.14592E-02   -0.14570E-02  7072   0.267E-01 0.527E-04
CGA:  20    -0.354584984917E+03   -0.80917E-03   -0.81145E-03  7072   0.188E-01-0.203E-04
CGA:  21    -0.354586058204E+03   -0.10733E-02   -0.10726E-02  7072   0.116E-01 0.109E-03
CGA:  22    -0.354586365323E+03   -0.30712E-03   -0.30708E-03  7072   0.753E-02 0.686E-05
CGA:  23    -0.354587118051E+03   -0.75273E-03   -0.75230E-03  7072   0.119E-01 0.812E-05
CGA:  24    -0.354587445985E+03   -0.32793E-03   -0.32868E-03  7072   0.687E-02-0.155E-04
CGA:  25    -0.354587881632E+03   -0.43565E-03   -0.43501E-03  7072   0.454E-02 0.409E-04
CGA:  26    -0.354587995166E+03   -0.11353E-03   -0.11339E-03  7072   0.228E-02 0.455E-05
CGA:  27    -0.354588177083E+03   -0.18192E-03   -0.18196E-03  7072   0.255E-02-0.175E-05
CGA:  28    -0.354588257252E+03   -0.80169E-04   -0.80224E-04  7072   0.193E-02-0.285E-06
CGA:  29    -0.354588369290E+03   -0.11204E-03   -0.11199E-03  7072   0.991E-03 0.723E-05
CGA:  30    -0.354588399108E+03   -0.29818E-04   -0.29845E-04  7072   0.741E-03 0.152E-05
CGA:  31    -0.354588443698E+03   -0.44589E-04   -0.44592E-04  7072   0.560E-03-0.273E-06
SDA:  32    -0.354588470315E+03   -0.26618E-04   -0.26614E-04  7072   0.823E-03-0.988E-06
CGA:  33    -0.354588488601E+03   -0.18285E-04   -0.18300E-04  7072   0.200E-03 0.365E-06
CGA:  34    -0.354588503811E+03   -0.15210E-04   -0.15205E-04  7072   0.210E-03 0.124E-06
CGA:  35    -0.354588542052E+03   -0.38241E-04   -0.38397E-04  7072   0.225E-03-0.127E-05
CGA:  36    -0.354588562993E+03   -0.20941E-04   -0.20983E-04  7072   0.104E-03-0.122E-05
CGA:  37    -0.354588570388E+03   -0.73948E-05   -0.73937E-05  7072   0.228E-03 0.524E-07
CGA:  38    -0.354588584359E+03   -0.13972E-04   -0.13971E-04  7072   0.911E-04 0.112E-05
CGA:  39    -0.354588595963E+03   -0.11604E-04   -0.11608E-04  7072   0.392E-04-0.937E-07
CGA:  40    -0.354588600439E+03   -0.44760E-05   -0.44837E-05  7072   0.749E-04-0.172E-06
   8 F= -.35458860E+03 E0= -.35457155E+03  d E =-.458714E-01  mag=     8.0000
       N       E                     dE             d eps       ncg     rms          ort
SDA:   1    -0.346600642556E+03    0.79880E+01    0.00000E+00  7072   0.262E+02 0.000E+00
CGA:   2    -0.348083000354E+03   -0.14824E+01   -0.14217E+01  7072   0.567E+02-0.184E+01
CGA:   3    -0.352383432071E+03   -0.43004E+01   -0.43805E+01  7072   0.224E+02-0.420E+01
CGA:   4    -0.353044334473E+03   -0.66090E+00   -0.44682E+00  7072   0.126E+02 0.836E+01
CGA:   5    -0.353520286949E+03   -0.47595E+00   -0.46685E+00  7072   0.880E+01-0.527E-01
CGA:   6    -0.353738366208E+03   -0.21808E+00   -0.22181E+00  7072   0.104E+02-0.774E-01
CGA:   7    -0.354189247786E+03   -0.45088E+00   -0.45483E+00  7072   0.983E+01 0.430E-01
CGA:   8    -0.354340148092E+03   -0.15090E+00   -0.14409E+00  7072   0.288E+01 0.368E+00
CGA:   9    -0.354416743526E+03   -0.76595E-01   -0.75436E-01  7072   0.240E+01 0.249E-01
CGA:  10    -0.354466308162E+03   -0.49565E-01   -0.53348E-01  7072   0.113E+01-0.111E+00
CGA:  11    -0.354494999175E+03   -0.28691E-01   -0.29243E-01  7072   0.118E+01-0.958E-02
CGA:  12    -0.354541786477E+03   -0.46787E-01   -0.46686E-01  7072   0.127E+01-0.150E-02
CGA:  13    -0.354569954962E+03   -0.28168E-01   -0.29054E-01  7072   0.596E+00-0.225E-01
CGA:  14    -0.354587566269E+03   -0.17611E-01   -0.18431E-01  7072   0.331E+00-0.236E-02
CGA:  15    -0.354594377191E+03   -0.68109E-02   -0.69081E-02  7072   0.119E+00-0.287E-02
CGA:  16    -0.354601166295E+03   -0.67891E-02   -0.68025E-02  7072   0.224E+00-0.937E-03
CGA:  17    -0.354608762723E+03   -0.75964E-02   -0.78169E-02  7072   0.129E+00 0.284E-02
CGA:  18    -0.354613480607E+03   -0.47179E-02   -0.47713E-02  7072   0.881E-01 0.109E-02
CGA:  19    -0.354616201302E+03   -0.27207E-02   -0.27255E-02  7072   0.319E-01-0.713E-05
CGA:  20    -0.354617611535E+03   -0.14102E-02   -0.14108E-02  7072   0.317E-01 0.129E-03
CGA:  21    -0.354618796807E+03   -0.11853E-02   -0.11908E-02  7072   0.169E-01 0.176E-03
CGA:  22    -0.354620135516E+03   -0.13387E-02   -0.13371E-02  7072   0.310E-01 0.383E-04
CGA:  23    -0.354621073917E+03   -0.93840E-03   -0.93956E-03  7072   0.850E-02-0.297E-05
CGA:  24    -0.354621464606E+03   -0.39069E-03   -0.39073E-03  7072   0.555E-02 0.406E-04
CGA:  25    -0.354621667679E+03   -0.20307E-03   -0.20321E-03  7072   0.487E-02 0.411E-05
CGA:  26    -0.354622052057E+03   -0.38438E-03   -0.38400E-03  7072   0.597E-02 0.802E-05
CGA:  27    -0.354622260014E+03   -0.20796E-03   -0.20796E-03  7072   0.354E-02-0.511E-05
CGA:  28    -0.354622428526E+03   -0.16851E-03   -0.16852E-03  7072   0.195E-02-0.777E-05
CGA:  29    -0.354622494143E+03   -0.65617E-04   -0.65600E-04  7072   0.141E-02-0.368E-05
CGA:  30    -0.354622608265E+03   -0.11412E-03   -0.11389E-03  7072   0.183E-02 0.565E-05
CGA:  31    -0.354622691836E+03   -0.83571E-04   -0.83573E-04  7072   0.190E-02-0.145E-06
SDA:  32    -0.354622769058E+03   -0.77223E-04   -0.77253E-04  7072   0.586E-03 0.815E-06
CGA:  33    -0.354622800624E+03   -0.31566E-04   -0.31561E-04  7072   0.678E-03 0.742E-06
CGA:  34    -0.354622836370E+03   -0.35746E-04   -0.35738E-04  7072   0.514E-03 0.155E-05
CGA:  35    -0.354622905919E+03   -0.69549E-04   -0.68876E-04  7072   0.447E-03 0.771E-05
CGA:  36    -0.354622923102E+03   -0.17182E-04   -0.17207E-04  7072   0.329E-03 0.154E-05
CGA:  37    -0.354622942572E+03   -0.19470E-04   -0.19459E-04  7072   0.245E-03 0.126E-05
CGA:  38    -0.354622977515E+03   -0.34943E-04   -0.34971E-04  7072   0.186E-03-0.456E-06
CGA:  39    -0.354622994934E+03   -0.17419E-04   -0.17444E-04  7072   0.207E-03-0.764E-06
CGA:  40    -0.354623001413E+03   -0.64787E-05   -0.64825E-05  7072   0.105E-03-0.179E-07
CGA:  41    -0.354623014678E+03   -0.13265E-04   -0.13137E-04  7072   0.883E-04 0.176E-05
CGA:  42    -0.354623021462E+03   -0.67839E-05   -0.67900E-05  7072   0.862E-04-0.511E-06
   9 F= -.35462302E+03 E0= -.35460622E+03  d E =-.344210E-01  mag=     8.0000
       N       E                     dE             d eps       ncg     rms          ort
SDA:   1    -0.354238410413E+03    0.38460E+00    0.00000E+00  7072   0.130E+01 0.000E+00
CGA:   2    -0.354349320726E+03   -0.11091E+00   -0.11175E+00  7072   0.356E+01-0.253E-01
CGA:   3    -0.354507279196E+03   -0.15796E+00   -0.15859E+00  7072   0.663E+00 0.606E-02
CGA:   4    -0.354563601571E+03   -0.56322E-01   -0.56490E-01  7072   0.704E+00-0.566E-02
CGA:   5    -0.354591595629E+03   -0.27994E-01   -0.27603E-01  7072   0.502E+00 0.939E-03
CGA:   6    -0.354618989061E+03   -0.27393E-01   -0.27397E-01  7072   0.100E+00 0.254E-03
CGA:   7    -0.354624901068E+03   -0.59120E-02   -0.59125E-02  7072   0.836E-01 0.181E-03
CGA:   8    -0.354627926782E+03   -0.30257E-02   -0.30207E-02  7072   0.495E-01 0.468E-04
CGA:   9    -0.354631445676E+03   -0.35189E-02   -0.35194E-02  7072   0.122E-01-0.302E-04
CGA:  10    -0.354632646054E+03   -0.12004E-02   -0.12004E-02  7072   0.821E-02-0.126E-05
CGA:  11    -0.354633025470E+03   -0.37942E-03   -0.37934E-03  7072   0.894E-02 0.956E-06
CGA:  12    -0.354633561233E+03   -0.53576E-03   -0.53577E-03  7072   0.312E-02 0.700E-05
CGA:  13    -0.354633810083E+03   -0.24885E-03   -0.24910E-03  7072   0.224E-02-0.115E-04
CGA:  14    -0.354633889594E+03   -0.79510E-04   -0.79403E-04  7072   0.169E-02-0.344E-06
CGA:  15    -0.354634045043E+03   -0.15545E-03   -0.15543E-03  7072   0.118E-02 0.558E-06
CGA:  16    -0.354634147772E+03   -0.10273E-03   -0.10267E-03  7072   0.499E-03 0.203E-05
CGA:  17    -0.354634203419E+03   -0.55647E-04   -0.55627E-04  7072   0.728E-03 0.315E-06
CGA:  18    -0.354634235705E+03   -0.32286E-04   -0.32310E-04  7072   0.683E-03 0.560E-06
CGA:  19    -0.354634289590E+03   -0.53885E-04   -0.53818E-04  7072   0.260E-03 0.430E-05
CGA:  20    -0.354634316534E+03   -0.26944E-04   -0.26935E-04  7072   0.222E-03 0.213E-06
CGA:  21    -0.354634325703E+03   -0.91685E-05   -0.91765E-05  7072   0.238E-03 0.195E-06
CGA:  22    -0.354634346094E+03   -0.20391E-04   -0.20359E-04  7072   0.910E-04 0.155E-05
CGA:  23    -0.354634353309E+03   -0.72150E-05   -0.72129E-05  7072   0.528E-04 0.148E-06
  10 F= -.35463435E+03 E0= -.35461751E+03  d E =-.113318E-01  mag=     8.0000
       N       E                     dE             d eps       ncg     rms          ort
SDA:   1    -0.354606412287E+03    0.27934E-01    0.00000E+00  7072   0.426E+00 0.000E+00
CGA:   2    -0.354614740732E+03   -0.83284E-02   -0.87194E-02  7072   0.701E-01-0.151E-01
CGA:   3    -0.354626681037E+03   -0.11940E-01   -0.11922E-01  7072   0.910E-01 0.193E-03
CGA:   4    -0.354630817033E+03   -0.41360E-02   -0.41460E-02  7072   0.607E-01-0.138E-04
CGA:   5    -0.354633319151E+03   -0.25021E-02   -0.25024E-02  7072   0.182E-01 0.108E-04
CGA:   6    -0.354635049260E+03   -0.17301E-02   -0.17310E-02  7072   0.174E-01-0.218E-04
CGA:   7    -0.354635600041E+03   -0.55078E-03   -0.55062E-03  7072   0.583E-02 0.106E-04
CGA:   8    -0.354635878743E+03   -0.27870E-03   -0.27852E-03  7072   0.214E-02 0.999E-06
CGA:   9    -0.354636011321E+03   -0.13258E-03   -0.13259E-03  7072   0.281E-02 0.151E-05
CGA:  10    -0.354636136239E+03   -0.12492E-03   -0.12494E-03  7072   0.695E-03 0.146E-05
CGA:  11    -0.354636190843E+03   -0.54604E-04   -0.54602E-04  7072   0.560E-03 0.337E-06
CGA:  12    -0.354636209378E+03   -0.18535E-04   -0.18546E-04  7072   0.232E-03 0.110E-05
CGA:  13    -0.354636237239E+03   -0.27861E-04   -0.27753E-04  7072   0.179E-03 0.195E-05
CGA:  14    -0.354636244994E+03   -0.77551E-05   -0.77671E-05  7072   0.117E-03 0.561E-06
  11 F= -.35463624E+03 E0= -.35461939E+03  d E =-.189169E-02  mag=     8.0000
       N       E                     dE             d eps       ncg     rms          ort
SDA:   1    -0.354441326768E+03    0.19491E+00    0.00000E+00  7072   0.540E+00 0.000E+00
CGA:   2    -0.354520468975E+03   -0.79142E-01   -0.78327E-01  7072   0.183E+01 0.108E-01
CGA:   3    -0.354587963436E+03   -0.67494E-01   -0.66415E-01  7072   0.414E+00 0.136E-01
CGA:   4    -0.354612253006E+03   -0.24290E-01   -0.24188E-01  7072   0.216E+00-0.374E-02
CGA:   5    -0.354623229118E+03   -0.10976E-01   -0.10983E-01  7072   0.228E+00 0.966E-04
CGA:   6    -0.354633982171E+03   -0.10753E-01   -0.10733E-01  7072   0.520E-01-0.886E-04
CGA:   7    -0.354637560915E+03   -0.35787E-02   -0.35779E-02  7072   0.201E-01 0.132E-03
CGA:   8    -0.354638395087E+03   -0.83417E-03   -0.83290E-03  7072   0.174E-01 0.610E-05
CGA:   9    -0.354639653782E+03   -0.12587E-02   -0.12588E-02  7072   0.632E-02-0.108E-04
CGA:  10    -0.354640067223E+03   -0.41344E-03   -0.41343E-03  7072   0.481E-02 0.684E-05
CGA:  11    -0.354640213963E+03   -0.14674E-03   -0.14690E-03  7072   0.170E-02 0.285E-06
CGA:  12    -0.354640394518E+03   -0.18055E-03   -0.18064E-03  7072   0.168E-02-0.174E-05
CGA:  13    -0.354640459090E+03   -0.64572E-04   -0.64541E-04  7072   0.107E-02 0.122E-05
CGA:  14    -0.354640517328E+03   -0.58238E-04   -0.58241E-04  7072   0.271E-03 0.341E-06
CGA:  15    -0.354640544706E+03   -0.27378E-04   -0.27367E-04  7072   0.539E-03 0.285E-06
CGA:  16    -0.354640570299E+03   -0.25592E-04   -0.25593E-04  7072   0.320E-03-0.166E-06
CGA:  17    -0.354640588885E+03   -0.18587E-04   -0.18591E-04  7072   0.110E-03 0.601E-06
CGA:  18    -0.354640597610E+03   -0.87246E-05   -0.87205E-05  7072   0.236E-03 0.275E-06
CGA:  19    -0.354640610805E+03   -0.13195E-04   -0.13199E-04  7072   0.127E-03 0.398E-06
CGA:  20    -0.354640620973E+03   -0.10167E-04   -0.10176E-04  7072   0.110E-03-0.520E-06
CGA:  21    -0.354640624762E+03   -0.37887E-05   -0.37889E-05  7072   0.569E-04-0.190E-08
  12 F= -.35464062E+03 E0= -.35462372E+03  d E =-.437977E-02  mag=     8.0000
       N       E                     dE             d eps       ncg     rms          ort
SDA:   1    -0.353732329717E+03    0.90829E+00    0.00000E+00  7072   0.262E+01 0.000E+00
CGA:   2    -0.353980885976E+03   -0.24856E+00   -0.25208E+00  7072   0.903E+01-0.929E-01
CGA:   3    -0.354429697938E+03   -0.44881E+00   -0.45197E+00  7072   0.120E+01 0.466E-01
CGA:   4    -0.354512724171E+03   -0.83026E-01   -0.83144E-01  7072   0.187E+01-0.225E-01
CGA:   5    -0.354582328229E+03   -0.69604E-01   -0.67859E-01  7072   0.614E+00 0.178E-01
CGA:   6    -0.354622316398E+03   -0.39988E-01   -0.39990E-01  7072   0.254E+00 0.558E-02
CGA:   7    -0.354630043552E+03   -0.77272E-02   -0.78719E-02  7072   0.133E+00-0.256E-02
CGA:   8    -0.354637532614E+03   -0.74891E-02   -0.74954E-02  7072   0.751E-01 0.403E-03
CGA:   9    -0.354643730438E+03   -0.61978E-02   -0.62034E-02  7072   0.526E-01-0.209E-03
CGA:  10    -0.354644979046E+03   -0.12486E-02   -0.12564E-02  7072   0.135E-01-0.230E-03
CGA:  11    -0.354646573073E+03   -0.15940E-02   -0.15881E-02  7072   0.984E-02 0.103E-03
CGA:  12    -0.354647029409E+03   -0.45634E-03   -0.45582E-03  7072   0.106E-01-0.259E-05
CGA:  13    -0.354647534155E+03   -0.50475E-03   -0.50440E-03  7072   0.271E-02-0.803E-05
CGA:  14    -0.354647746869E+03   -0.21271E-03   -0.21261E-03  7072   0.228E-02 0.474E-05
CGA:  15    -0.354647839778E+03   -0.92909E-04   -0.92945E-04  7072   0.206E-02 0.196E-05
CGA:  16    -0.354647988262E+03   -0.14848E-03   -0.14846E-03  7072   0.108E-02 0.159E-05
CGA:  17    -0.354648071836E+03   -0.83574E-04   -0.83589E-04  7072   0.699E-03-0.139E-05
CGA:  18    -0.354648096941E+03   -0.25105E-04   -0.25103E-04  7072   0.583E-03 0.467E-06
CGA:  19    -0.354648166304E+03   -0.69362E-04   -0.69192E-04  7072   0.507E-03 0.291E-05
CGA:  20    -0.354648205487E+03   -0.39183E-04   -0.39190E-04  7072   0.507E-03-0.620E-06
CGA:  21    -0.354648220317E+03   -0.14830E-04   -0.14851E-04  7072   0.179E-03 0.230E-07
CGA:  22    -0.354648245206E+03   -0.24889E-04   -0.24767E-04  7072   0.213E-03 0.159E-05
CGA:  23    -0.354648258194E+03   -0.12988E-04   -0.12990E-04  7072   0.217E-03 0.150E-06
CGA:  24    -0.354648265396E+03   -0.72020E-05   -0.72165E-05  7072   0.682E-04 0.368E-06
  13 F= -.35464827E+03 E0= -.35463125E+03  d E =-.764063E-02  mag=     8.0000
       N       E                     dE             d eps       ncg     rms          ort
SDA:   1    -0.350350125188E+03    0.42981E+01    0.00000E+00  7072   0.123E+02 0.000E+00
CGA:   2    -0.351609569555E+03   -0.12594E+01   -0.12954E+01  7072   0.455E+02-0.788E+00
CGA:   3    -0.353435229387E+03   -0.18257E+01   -0.18099E+01  7072   0.855E+01 0.485E+00
CGA:   4    -0.353832717870E+03   -0.39749E+00   -0.38493E+00  7072   0.822E+01 0.428E-01
CGA:   5    -0.354185767145E+03   -0.35305E+00   -0.35789E+00  7072   0.431E+01-0.103E-01
CGA:   6    -0.354496233255E+03   -0.31047E+00   -0.31191E+00  7072   0.914E+00-0.136E+00
CGA:   7    -0.354529451803E+03   -0.33219E-01   -0.33540E-01  7072   0.866E+00-0.338E-02
CGA:   8    -0.354578818901E+03   -0.49367E-01   -0.49590E-01  7072   0.474E+00 0.114E-01
CGA:   9    -0.354606953841E+03   -0.28135E-01   -0.28154E-01  7072   0.206E+00 0.137E-02
CGA:  10    -0.354612999457E+03   -0.60456E-02   -0.60964E-02  7072   0.103E+00-0.926E-03
CGA:  11    -0.354621600998E+03   -0.86015E-02   -0.85832E-02  7072   0.654E-01 0.640E-03
CGA:  12    -0.354625830115E+03   -0.42291E-02   -0.42287E-02  7072   0.772E-01 0.359E-03
CGA:  13    -0.354628278204E+03   -0.24481E-02   -0.24753E-02  7072   0.157E-01-0.383E-03
CGA:  14    -0.354629706920E+03   -0.14287E-02   -0.14282E-02  7072   0.113E-01 0.858E-05
CGA:  15    -0.354630338492E+03   -0.63157E-03   -0.63267E-03  7072   0.148E-01 0.584E-04
CGA:  16    -0.354631186148E+03   -0.84766E-03   -0.84741E-03  7072   0.489E-02-0.139E-04
CGA:  17    -0.354631466846E+03   -0.28070E-03   -0.28079E-03  7072   0.264E-02 0.739E-05
CGA:  18    -0.354631599171E+03   -0.13232E-03   -0.13237E-03  7072   0.336E-02 0.267E-06
CGA:  19    -0.354631886038E+03   -0.28687E-03   -0.28665E-03  7072   0.209E-02 0.638E-05
CGA:  20    -0.354631994277E+03   -0.10824E-03   -0.10839E-03  7072   0.187E-02 0.570E-05
CGA:  21    -0.354632074808E+03   -0.80531E-04   -0.80544E-04  7072   0.747E-03 0.885E-06
CGA:  22    -0.354632164308E+03   -0.89500E-04   -0.88977E-04  7072   0.769E-03 0.867E-05
CGA:  23    -0.354632199083E+03   -0.34775E-04   -0.34804E-04  7072   0.679E-03 0.658E-06
CGA:  24    -0.354632246715E+03   -0.47632E-04   -0.47587E-04  7072   0.201E-03 0.550E-05
CGA:  25    -0.354632263923E+03   -0.17208E-04   -0.17199E-04  7072   0.299E-03 0.191E-06
CGA:  26    -0.354632277756E+03   -0.13833E-04   -0.13858E-04  7072   0.198E-03 0.104E-05
CGA:  27    -0.354632293487E+03   -0.15731E-04   -0.15695E-04  7072   0.108E-03 0.223E-05
CGA:  28    -0.354632298289E+03   -0.48017E-05   -0.48169E-05  7072   0.953E-04 0.549E-06
  14 F= -.35463230E+03 E0= -.35461526E+03  d E =0.159671E-01  mag=     8.0000
       N       E                     dE             d eps       ncg     rms          ort
SDA:   1    -0.354138385794E+03    0.49391E+00    0.00000E+00  7072   0.192E+01 0.000E+00
CGA:   2    -0.354287004621E+03   -0.14862E+00   -0.14817E+00  7072   0.353E+01 0.231E-01
CGA:   3    -0.354437064209E+03   -0.15006E+00   -0.15278E+00  7072   0.154E+01 0.515E-03
CGA:   4    -0.354550070239E+03   -0.11301E+00   -0.11357E+00  7072   0.737E+00-0.342E-01
CGA:   5    -0.354595831437E+03   -0.45761E-01   -0.45761E-01  7072   0.979E+00-0.105E-02
CGA:   6    -0.354634291129E+03   -0.38460E-01   -0.38535E-01  7072   0.235E+00-0.575E-03
CGA:   7    -0.354647351551E+03   -0.13060E-01   -0.13077E-01  7072   0.675E-01 0.994E-03
CGA:   8    -0.354651090827E+03   -0.37393E-02   -0.37392E-02  7072   0.872E-01 0.147E-04
CGA:   9    -0.354655714873E+03   -0.46240E-02   -0.46223E-02  7072   0.265E-01-0.496E-04
CGA:  10    -0.354657537684E+03   -0.18228E-02   -0.18219E-02  7072   0.177E-01 0.816E-04
CGA:  11    -0.354658104800E+03   -0.56712E-03   -0.56866E-03  7072   0.894E-02-0.144E-04
CGA:  12    -0.354659071704E+03   -0.96690E-03   -0.96600E-03  7072   0.576E-02 0.185E-04
CGA:  13    -0.354659332246E+03   -0.26054E-03   -0.26085E-03  7072   0.475E-02 0.604E-05
CGA:  14    -0.354659543447E+03   -0.21120E-03   -0.21129E-03  7072   0.102E-02 0.740E-05
CGA:  15    -0.354659658565E+03   -0.11512E-03   -0.11488E-03  7072   0.211E-02 0.470E-05
CGA:  16    -0.354659739960E+03   -0.81395E-04   -0.81511E-04  7072   0.865E-03 0.479E-05
CGA:  17    -0.354659787627E+03   -0.47667E-04   -0.47699E-04  7072   0.294E-03 0.363E-05
CGA:  18    -0.354659803625E+03   -0.15998E-04   -0.15999E-04  7072   0.381E-03 0.135E-06
CGA:  19    -0.354659829601E+03   -0.25976E-04   -0.25980E-04  7072   0.259E-03-0.898E-06
CGA:  20    -0.354659849035E+03   -0.19434E-04   -0.19473E-04  7072   0.164E-03-0.287E-05
CGA:  21    -0.354659854617E+03   -0.55823E-05   -0.55640E-05  7072   0.953E-04-0.704E-06
CGA:  22    -0.354659865877E+03   -0.11259E-04   -0.11351E-04  7072   0.820E-04-0.161E-05
CGA:  23    -0.354659869735E+03   -0.38584E-05   -0.38376E-05  7072   0.894E-04-0.131E-05
  15 F= -.35465987E+03 E0= -.35464266E+03  d E =-.275714E-01  mag=     8.0000
       N       E                     dE             d eps       ncg     rms          ort
SDA:   1    -0.354651972850E+03    0.78930E-02    0.00000E+00  7072   0.620E-01 0.000E+00
CGA:   2    -0.354653601799E+03   -0.16289E-02   -0.16162E-02  7072   0.318E-01 0.315E-03
CGA:   3    -0.354657348626E+03   -0.37468E-02   -0.37510E-02  7072   0.290E-01-0.715E-04
CGA:   4    -0.354659207643E+03   -0.18590E-02   -0.18590E-02  7072   0.172E-01 0.117E-04
CGA:   5    -0.354659777135E+03   -0.56949E-03   -0.56922E-03  7072   0.884E-02 0.135E-04
CGA:   6    -0.354660535834E+03   -0.75870E-03   -0.75899E-03  7072   0.411E-02-0.861E-05
CGA:   7    -0.354660798170E+03   -0.26234E-03   -0.26234E-03  7072   0.129E-02-0.297E-05
CGA:   8    -0.354660847145E+03   -0.48974E-04   -0.48968E-04  7072   0.108E-02 0.955E-07
CGA:   9    -0.354660925001E+03   -0.77857E-04   -0.77836E-04  7072   0.397E-03 0.203E-05
CGA:  10    -0.354660950153E+03   -0.25151E-04   -0.25152E-04  7072   0.427E-03 0.223E-06
CGA:  11    -0.354660964286E+03   -0.14133E-04   -0.14128E-04  7072   0.107E-03-0.278E-06
CGA:  12    -0.354660976700E+03   -0.12415E-04   -0.12368E-04  7072   0.100E-03 0.837E-06
CGA:  13    -0.354660982485E+03   -0.57847E-05   -0.57828E-05  7072   0.985E-04-0.277E-06
  16 F= -.35466098E+03 E0= -.35464374E+03  d E =-.111275E-02  mag=     8.0000
       N       E                     dE             d eps       ncg     rms          ort
SDA:   1    -0.354547049604E+03    0.11393E+00    0.00000E+00  7072   0.324E+00 0.000E+00
CGA:   2    -0.354596980331E+03   -0.49931E-01   -0.49484E-01  7072   0.958E+00 0.543E-02
CGA:   3    -0.354629448083E+03   -0.32468E-01   -0.32875E-01  7072   0.329E+00-0.630E-02
CGA:   4    -0.354645556369E+03   -0.16108E-01   -0.16164E-01  7072   0.103E+00 0.646E-03
CGA:   5    -0.354655647477E+03   -0.10091E-01   -0.10106E-01  7072   0.146E+00-0.375E-03
CGA:   6    -0.354659817140E+03   -0.41697E-02   -0.41912E-02  7072   0.318E-01-0.476E-03
CGA:   7    -0.354661963481E+03   -0.21463E-02   -0.21456E-02  7072   0.828E-02 0.116E-03
CGA:   8    -0.354663022644E+03   -0.10592E-02   -0.10603E-02  7072   0.837E-02-0.173E-04
CGA:   9    -0.354663303746E+03   -0.28110E-03   -0.28045E-03  7072   0.415E-02 0.133E-04
CGA:  10    -0.354663527678E+03   -0.22393E-03   -0.22397E-03  7072   0.134E-02 0.273E-05
CGA:  11    -0.354663666608E+03   -0.13893E-03   -0.13889E-03  7072   0.105E-02 0.895E-06
CGA:  12    -0.354663733676E+03   -0.67068E-04   -0.67059E-04  7072   0.116E-02-0.252E-05
CGA:  13    -0.354663771555E+03   -0.37879E-04   -0.37812E-04  7072   0.251E-03-0.108E-05
CGA:  14    -0.354663797630E+03   -0.26075E-04   -0.26075E-04  7072   0.335E-03-0.143E-07
CGA:  15    -0.354663814569E+03   -0.16938E-04   -0.16925E-04  7072   0.375E-03-0.906E-06
CGA:  16    -0.354663834862E+03   -0.20293E-04   -0.20286E-04  7072   0.712E-04-0.784E-06
CGA:  17    -0.354663848983E+03   -0.14122E-04   -0.14105E-04  7072   0.176E-03 0.135E-06
CGA:  18    -0.354663858100E+03   -0.91165E-05   -0.91304E-05  7072   0.152E-03 0.728E-06
  17 F= -.35466386E+03 E0= -.35464656E+03  d E =-.287562E-02  mag=     8.0000
       N       E                     dE             d eps       ncg     rms          ort
SDA:   1    -0.354637818024E+03    0.26031E-01    0.00000E+00  7072   0.106E+00 0.000E+00
CGA:   2    -0.354643194530E+03   -0.53765E-02   -0.53868E-02  7072   0.153E+00 0.830E-04
CGA:   3    -0.354654318353E+03   -0.11124E-01   -0.11122E-01  7072   0.111E+00 0.219E-03
CGA:   4    -0.354660514902E+03   -0.61965E-02   -0.61882E-02  7072   0.286E-01-0.163E-03
CGA:   5    -0.354661972765E+03   -0.14579E-02   -0.14588E-02  7072   0.391E-01 0.399E-05
CGA:   6    -0.354664173507E+03   -0.22007E-02   -0.22005E-02  7072   0.636E-02-0.159E-04
CGA:   7    -0.354664712696E+03   -0.53919E-03   -0.53911E-03  7072   0.302E-02 0.328E-05
CGA:   8    -0.354664831767E+03   -0.11907E-03   -0.11899E-03  7072   0.260E-02 0.197E-06
CGA:   9    -0.354664997797E+03   -0.16603E-03   -0.16603E-03  7072   0.972E-03-0.183E-05
CGA:  10    -0.354665067405E+03   -0.69608E-04   -0.69603E-04  7072   0.727E-03 0.978E-06
CGA:  11    -0.354665089090E+03   -0.21685E-04   -0.21704E-04  7072   0.280E-03 0.872E-06
CGA:  12    -0.354665119108E+03   -0.30018E-04   -0.30083E-04  7072   0.245E-03-0.149E-05
CGA:  13    -0.354665134562E+03   -0.15454E-04   -0.15451E-04  7072   0.130E-03-0.100E-05
CGA:  14    -0.354665138708E+03   -0.41457E-05   -0.41296E-05  7072   0.694E-04-0.509E-06
  18 F= -.35466514E+03 E0= -.35464782E+03  d E =-.128061E-02  mag=     8.0000
       N       E                     dE             d eps       ncg     rms          ort
SDA:   1    -0.353258756582E+03    0.14064E+01    0.00000E+00  7072   0.373E+01 0.000E+00
CGA:   2    -0.353787908751E+03   -0.52915E+00   -0.52566E+00  7072   0.153E+02 0.660E-01
CGA:   3    -0.354367684995E+03   -0.57978E+00   -0.57596E+00  7072   0.150E+01 0.259E-02
CGA:   4    -0.354527590912E+03   -0.15991E+00   -0.16028E+00  7072   0.191E+01-0.925E-02
CGA:   5    -0.354594472929E+03   -0.66882E-01   -0.68526E-01  7072   0.101E+01-0.240E-01
CGA:   6    -0.354638730057E+03   -0.44257E-01   -0.44795E-01  7072   0.172E+00-0.143E-02
CGA:   7    -0.354653482339E+03   -0.14752E-01   -0.14750E-01  7072   0.165E+00 0.116E-03
CGA:   8    -0.354659966122E+03   -0.64838E-02   -0.64744E-02  7072   0.113E+00 0.983E-04
CGA:   9    -0.354665719945E+03   -0.57538E-02   -0.57449E-02  7072   0.296E-01-0.766E-04
CGA:  10    -0.354668035877E+03   -0.23159E-02   -0.23142E-02  7072   0.239E-01 0.111E-03
CGA:  11    -0.354668840947E+03   -0.80507E-03   -0.80601E-03  7072   0.128E-01-0.835E-05
CGA:  12    -0.354669972924E+03   -0.11320E-02   -0.11316E-02  7072   0.626E-02 0.100E-04
CGA:  13    -0.354670363182E+03   -0.39026E-03   -0.39022E-03  7072   0.546E-02-0.433E-05
CGA:  14    -0.354670541971E+03   -0.17879E-03   -0.17870E-03  7072   0.194E-02-0.327E-06
CGA:  15    -0.354670744806E+03   -0.20283E-03   -0.20290E-03  7072   0.220E-02-0.172E-05
CGA:  16    -0.354670870683E+03   -0.12588E-03   -0.12592E-03  7072   0.210E-02 0.160E-05
CGA:  17    -0.354670951641E+03   -0.80958E-04   -0.80960E-04  7072   0.691E-03-0.138E-05
CGA:  18    -0.354671035884E+03   -0.84244E-04   -0.84115E-04  7072   0.775E-03 0.226E-05
CGA:  19    -0.354671075022E+03   -0.39138E-04   -0.39150E-04  7072   0.102E-02 0.791E-07
CGA:  20    -0.354671153977E+03   -0.78956E-04   -0.78925E-04  7072   0.271E-03 0.266E-05
CGA:  21    -0.354671172103E+03   -0.18125E-04   -0.18127E-04  7072   0.447E-03 0.107E-05
CGA:  22    -0.354671195994E+03   -0.23891E-04   -0.23917E-04  7072   0.274E-03 0.153E-05
CGA:  23    -0.354671219091E+03   -0.23097E-04   -0.23067E-04  7072   0.111E-03 0.169E-05
CGA:  24    -0.354671224601E+03   -0.55109E-05   -0.55201E-05  7072   0.130E-03 0.488E-06
  19 F= -.35467122E+03 E0= -.35465383E+03  d E =-.608589E-02  mag=     8.0000
       N       E                     dE             d eps       ncg     rms          ort
SDA:   1    -0.350080787733E+03    0.45904E+01    0.00000E+00  7072   0.161E+02 0.000E+00
CGA:   2    -0.351067035015E+03   -0.98625E+00   -0.98214E+00  7072   0.325E+02-0.284E+00
CGA:   3    -0.352986385418E+03   -0.19194E+01   -0.19049E+01  7072   0.133E+02-0.736E+00
CGA:   4    -0.353691004195E+03   -0.70462E+00   -0.68421E+00  7072   0.740E+01-0.318E+00
CGA:   5    -0.353986455308E+03   -0.29545E+00   -0.29372E+00  7072   0.776E+01-0.288E-02
CGA:   6    -0.354407672675E+03   -0.42122E+00   -0.41127E+00  7072   0.203E+01-0.231E+00
CGA:   7    -0.354478740474E+03   -0.71068E-01   -0.73282E-01  7072   0.157E+01-0.162E-01
CGA:   8    -0.354542533808E+03   -0.63793E-01   -0.63844E-01  7072   0.564E+00 0.398E-04
CGA:   9    -0.354574924791E+03   -0.32391E-01   -0.32503E-01  7072   0.566E+00 0.132E-01
CGA:  10    -0.354595874219E+03   -0.20949E-01   -0.20971E-01  7072   0.244E+00-0.143E-03
CGA:  11    -0.354609286552E+03   -0.13412E-01   -0.13495E-01  7072   0.133E+00 0.747E-02
CGA:  12    -0.354614326057E+03   -0.50395E-02   -0.50496E-02  7072   0.839E-01-0.359E-04
CGA:  13    -0.354619919578E+03   -0.55935E-02   -0.55562E-02  7072   0.538E-01 0.300E-02
CGA:  14    -0.354623285171E+03   -0.33656E-02   -0.33666E-02  7072   0.592E-01-0.346E-03
CGA:  15    -0.354625477617E+03   -0.21924E-02   -0.22620E-02  7072   0.102E-01 0.757E-05
CGA:  16    -0.354626439014E+03   -0.96140E-03   -0.96502E-03  7072   0.218E-01-0.888E-04
CGA:  17    -0.354627440556E+03   -0.10015E-02   -0.10140E-02  7072   0.990E-02 0.252E-03
CGA:  18    -0.354628048112E+03   -0.60756E-03   -0.60764E-03  7072   0.509E-02-0.253E-04
CGA:  19    -0.354628271923E+03   -0.22381E-03   -0.22450E-03  7072   0.436E-02 0.873E-05
CGA:  20    -0.354628571452E+03   -0.29953E-03   -0.29962E-03  7072   0.359E-02-0.784E-05
CGA:  21    -0.354628856096E+03   -0.28464E-03   -0.28443E-03  7072   0.418E-02 0.622E-05
CGA:  22    -0.354629000051E+03   -0.14396E-03   -0.14407E-03  7072   0.132E-02-0.448E-05
CGA:  23    -0.354629122147E+03   -0.12210E-03   -0.12218E-03  7072   0.138E-02-0.335E-05
CGA:  24    -0.354629182988E+03   -0.60841E-04   -0.60829E-04  7072   0.116E-02-0.251E-05
CGA:  25    -0.354629276751E+03   -0.93763E-04   -0.93926E-04  7072   0.572E-03-0.770E-05
CGA:  26    -0.354629303124E+03   -0.26373E-04   -0.26354E-04  7072   0.430E-03-0.174E-05
CGA:  27    -0.354629326078E+03   -0.22954E-04   -0.22945E-04  7072   0.305E-03-0.183E-05
CGA:  28    -0.354629353682E+03   -0.27604E-04   -0.27672E-04  7072   0.316E-03-0.243E-05
CGA:  29    -0.354629365360E+03   -0.11679E-04   -0.11661E-04  7072   0.173E-03-0.922E-06
CGA:  30    -0.354629379263E+03   -0.13903E-04   -0.13901E-04  7072   0.145E-03-0.156E-06
CGA:  31    -0.354629387767E+03   -0.85038E-05   -0.85071E-05  7072   0.181E-03 0.130E-05
SDA:  32    -0.354629397990E+03   -0.10223E-04   -0.10231E-04  7072   0.847E-04 0.155E-05
CGA:  33    -0.354629401187E+03   -0.31967E-05   -0.31981E-05  7072   0.663E-04-0.126E-06
  20 F= -.35462940E+03 E0= -.35461180E+03  d E =0.418234E-01  mag=     8.0000
       N       E                     dE             d eps       ncg     rms          ort
SDA:   1    -0.353139279440E+03    0.14901E+01    0.00000E+00  7072   0.609E+01 0.000E+00
CGA:   2    -0.353562963157E+03   -0.42368E+00   -0.42018E+00  7072   0.107E+02 0.232E+00
CGA:   3    -0.354088127171E+03   -0.52516E+00   -0.51962E+00  7072   0.256E+01-0.834E-01
CGA:   4    -0.354355083905E+03   -0.26696E+00   -0.26904E+00  7072   0.436E+01-0.343E-01
CGA:   5    -0.354500555482E+03   -0.14547E+00   -0.14032E+00  7072   0.144E+01 0.687E-01
CGA:   6    -0.354601782303E+03   -0.10123E+00   -0.10114E+00  7072   0.637E+00 0.604E-02
CGA:   7    -0.354626308908E+03   -0.24527E-01   -0.24637E-01  7072   0.396E+00-0.410E-03
CGA:   8    -0.354645319290E+03   -0.19010E-01   -0.18984E-01  7072   0.147E+00-0.564E-03
CGA:   9    -0.354656932383E+03   -0.11613E-01   -0.11630E-01  7072   0.131E+00-0.604E-03
CGA:  10    -0.354661461133E+03   -0.45287E-02   -0.45291E-02  7072   0.597E-01 0.947E-05
CGA:  11    -0.354665192491E+03   -0.37314E-02   -0.37305E-02  7072   0.256E-01 0.128E-03
CGA:  12    -0.354666965664E+03   -0.17732E-02   -0.17721E-02  7072   0.407E-01 0.664E-04
CGA:  13    -0.354668738692E+03   -0.17730E-02   -0.17720E-02  7072   0.922E-02-0.208E-04
CGA:  14    -0.354669407378E+03   -0.66869E-03   -0.66821E-03  7072   0.888E-02 0.219E-04
CGA:  15    -0.354669726375E+03   -0.31900E-03   -0.31857E-03  7072   0.441E-02-0.746E-06
CGA:  16    -0.354670160135E+03   -0.43376E-03   -0.43446E-03  7072   0.324E-02-0.168E-04
CGA:  17    -0.354670307012E+03   -0.14688E-03   -0.14685E-03  7072   0.290E-02 0.543E-06
CGA:  18    -0.354670472259E+03   -0.16525E-03   -0.16527E-03  7072   0.873E-03 0.635E-05
CGA:  19    -0.354670538336E+03   -0.66077E-04   -0.66006E-04  7072   0.156E-02 0.404E-05
CGA:  20    -0.354670624682E+03   -0.86346E-04   -0.86380E-04  7072   0.915E-03 0.543E-05
CGA:  21    -0.354670679580E+03   -0.54897E-04   -0.54897E-04  7072   0.472E-03 0.603E-05
CGA:  22    -0.354670701823E+03   -0.22243E-04   -0.22285E-04  7072   0.506E-03 0.293E-05
CGA:  23    -0.354670743898E+03   -0.42076E-04   -0.41911E-04  7072   0.242E-03 0.697E-05
CGA:  24    -0.354670757560E+03   -0.13661E-04   -0.13669E-04  7072   0.254E-03 0.177E-05
CGA:  25    -0.354670769355E+03   -0.11796E-04   -0.11815E-04  7072   0.108E-03 0.135E-05
CGA:  26    -0.354670779935E+03   -0.10580E-04   -0.10485E-04  7072   0.103E-03 0.250E-05
CGA:  27    -0.354670783571E+03   -0.36362E-05   -0.36505E-05  7072   0.553E-04 0.457E-06
  21 F= -.35467078E+03 E0= -.35465316E+03  d E =-.413824E-01  mag=     8.0000
       N       E                     dE             d eps       ncg     rms          ort
SDA:   1    -0.354637460205E+03    0.33320E-01    0.00000E+00  7072   0.261E+00 0.000E+00
CGA:   2    -0.354644532939E+03   -0.70727E-02   -0.70861E-02  7072   0.151E+00-0.359E-03
CGA:   3    -0.354662287594E+03   -0.17755E-01   -0.17751E-01  7072   0.606E-01 0.770E-04
CGA:   4    -0.354667819636E+03   -0.55320E-02   -0.55334E-02  7072   0.915E-01-0.342E-04
CGA:   5    -0.354671127164E+03   -0.33075E-02   -0.33019E-02  7072   0.446E-01 0.691E-04
CGA:   6    -0.354674158881E+03   -0.30317E-02   -0.30322E-02  7072   0.710E-02-0.631E-04
CGA:   7    -0.354674721665E+03   -0.56278E-03   -0.56296E-03  7072   0.108E-01-0.661E-05
CGA:   8    -0.354675083074E+03   -0.36141E-03   -0.36182E-03  7072   0.294E-02-0.802E-05
CGA:   9    -0.354675332255E+03   -0.24918E-03   -0.24917E-03  7072   0.139E-02 0.481E-06
CGA:  10    -0.354675402651E+03   -0.70396E-04   -0.70380E-04  7072   0.122E-02-0.115E-05
CGA:  11    -0.354675454728E+03   -0.52077E-04   -0.52011E-04  7072   0.688E-03-0.213E-05
CGA:  12    -0.354675522108E+03   -0.67380E-04   -0.67465E-04  7072   0.260E-03-0.241E-05
CGA:  13    -0.354675534914E+03   -0.12806E-04   -0.12808E-04  7072   0.244E-03 0.881E-07
CGA:  14    -0.354675545514E+03   -0.10599E-04   -0.10599E-04  7072   0.122E-03-0.131E-06
CGA:  15    -0.354675562004E+03   -0.16491E-04   -0.16676E-04  7072   0.914E-04-0.252E-05
CGA:  16    -0.354675564899E+03   -0.28946E-05   -0.28867E-05  7072   0.550E-04-0.271E-06
  22 F= -.35467556E+03 E0= -.35465796E+03  d E =-.478133E-02  mag=     8.0000
       N       E                     dE             d eps       ncg     rms          ort
SDA:   1    -0.354455584236E+03    0.21998E+00    0.00000E+00  7072   0.738E+00 0.000E+00
CGA:   2    -0.354521931038E+03   -0.66347E-01   -0.66153E-01  7072   0.165E+01 0.646E-02
CGA:   3    -0.354591533894E+03   -0.69603E-01   -0.69697E-01  7072   0.799E+00-0.471E-03
CGA:   4    -0.354641938299E+03   -0.50404E-01   -0.50397E-01  7072   0.189E+00-0.177E-02
CGA:   5    -0.354664354327E+03   -0.22416E-01   -0.22441E-01  7072   0.187E+00-0.443E-03
CGA:   6    -0.354671643151E+03   -0.72888E-02   -0.72711E-02  7072   0.105E+00 0.130E-03
CGA:   7    -0.354675238502E+03   -0.35954E-02   -0.36094E-02  7072   0.215E-01-0.185E-03
CGA:   8    -0.354678067031E+03   -0.28285E-02   -0.28328E-02  7072   0.104E-01-0.625E-04
CGA:   9    -0.354678545913E+03   -0.47888E-03   -0.47887E-03  7072   0.111E-01-0.463E-06
CGA:  10    -0.354679071055E+03   -0.52514E-03   -0.52517E-03  7072   0.229E-02-0.309E-05
CGA:  11    -0.354679358244E+03   -0.28719E-03   -0.28779E-03  7072   0.261E-02-0.100E-04
CGA:  12    -0.354679469033E+03   -0.11079E-03   -0.11067E-03  7072   0.196E-02-0.432E-05
CGA:  13    -0.354679551260E+03   -0.82227E-04   -0.82127E-04  7072   0.513E-03-0.399E-05
CGA:  14    -0.354679614421E+03   -0.63161E-04   -0.63479E-04  7072   0.633E-03-0.546E-05
CGA:  15    -0.354679649480E+03   -0.35059E-04   -0.35017E-04  7072   0.695E-03-0.320E-05
CGA:  16    -0.354679677599E+03   -0.28118E-04   -0.28073E-04  7072   0.217E-03-0.172E-05
CGA:  17    -0.354679701565E+03   -0.23967E-04   -0.23917E-04  7072   0.159E-03 0.113E-05
CGA:  18    -0.354679713397E+03   -0.11831E-04   -0.11828E-04  7072   0.376E-03 0.614E-06
CGA:  19    -0.354679736750E+03   -0.23354E-04   -0.23363E-04  7072   0.628E-04 0.115E-05
CGA:  20    -0.354679743191E+03   -0.64406E-05   -0.63895E-05  7072   0.850E-04 0.158E-05
  23 F= -.35467974E+03 E0= -.35466217E+03  d E =-.417829E-02  mag=     8.0000
       N       E                     dE             d eps       ncg     rms          ort
SDA:   1    -0.354663352580E+03    0.16384E-01    0.00000E+00  7072   0.165E+00 0.000E+00
CGA:   2    -0.354667110950E+03   -0.37584E-02   -0.37873E-02  7072   0.539E-01-0.973E-03
CGA:   3    -0.354671719336E+03   -0.46084E-02   -0.46025E-02  7072   0.563E-01 0.239E-03
CGA:   4    -0.354677993703E+03   -0.62744E-02   -0.62803E-02  7072   0.174E-01-0.123E-03
CGA:   5    -0.354678943420E+03   -0.94972E-03   -0.94855E-03  7072   0.121E-01-0.188E-04
CGA:   6    -0.354679395002E+03   -0.45158E-03   -0.45077E-03  7072   0.758E-02 0.125E-04
CGA:   7    -0.354680007587E+03   -0.61259E-03   -0.61245E-03  7072   0.124E-02 0.952E-05
CGA:   8    -0.354680088043E+03   -0.80456E-04   -0.80449E-04  7072   0.137E-02-0.804E-06
CGA:   9    -0.354680135693E+03   -0.47650E-04   -0.47638E-04  7072   0.578E-03 0.159E-06
CGA:  10    -0.354680191784E+03   -0.56091E-04   -0.56090E-04  7072   0.195E-03 0.275E-07
CGA:  11    -0.354680204469E+03   -0.12686E-04   -0.12689E-04  7072   0.202E-03 0.742E-06
CGA:  12    -0.354680211818E+03   -0.73489E-05   -0.73528E-05  7072   0.900E-04-0.363E-09
  24 F= -.35468021E+03 E0= -.35466264E+03  d E =-.468627E-03  mag=     8.0000
       N       E                     dE             d eps       ncg     rms          ort
SDA:   1    -0.354495975752E+03    0.18423E+00    0.00000E+00  7072   0.540E+00 0.000E+00
CGA:   2    -0.354548603221E+03   -0.52627E-01   -0.52179E-01  7072   0.143E+01 0.126E-01
CGA:   3    -0.354617665375E+03   -0.69062E-01   -0.69290E-01  7072   0.769E+00 0.159E-03
CGA:   4    -0.354656049134E+03   -0.38384E-01   -0.38473E-01  7072   0.129E+00 0.815E-03
CGA:   5    -0.354670548086E+03   -0.14499E-01   -0.14519E-01  7072   0.174E+00-0.390E-03
CGA:   6    -0.354675550464E+03   -0.50024E-02   -0.50309E-02  7072   0.563E-01-0.653E-03
CGA:   7    -0.354679045641E+03   -0.34952E-02   -0.34962E-02  7072   0.109E-01 0.928E-04
CGA:   8    -0.354680270306E+03   -0.12247E-02   -0.12253E-02  7072   0.157E-01-0.106E-04
CGA:   9    -0.354680735937E+03   -0.46563E-03   -0.46601E-03  7072   0.570E-02-0.958E-05
CGA:  10    -0.354681128235E+03   -0.39230E-03   -0.39228E-03  7072   0.195E-02 0.709E-05
CGA:  11    -0.354681277018E+03   -0.14878E-03   -0.14877E-03  7072   0.128E-02 0.193E-05
CGA:  12    -0.354681351717E+03   -0.74699E-04   -0.74720E-04  7072   0.173E-02 0.260E-05
CGA:  13    -0.354681427495E+03   -0.75778E-04   -0.75785E-04  7072   0.236E-03 0.867E-06
CGA:  14    -0.354681454142E+03   -0.26647E-04   -0.26646E-04  7072   0.323E-03 0.132E-07
CGA:  15    -0.354681468280E+03   -0.14138E-04   -0.14146E-04  7072   0.301E-03 0.287E-06
CGA:  16    -0.354681485904E+03   -0.17624E-04   -0.17632E-04  7072   0.643E-04 0.839E-06
CGA:  17    -0.354681494064E+03   -0.81601E-05   -0.81467E-05  7072   0.110E-03 0.208E-06
  25 F= -.35468149E+03 E0= -.35466391E+03  d E =-.128225E-02  mag=     8.0000
       N       E                     dE             d eps       ncg     rms          ort
SDA:   1    -0.353906772227E+03    0.77471E+00    0.00000E+00  7072   0.218E+01 0.000E+00
CGA:   2    -0.354121564870E+03   -0.21479E+00   -0.21412E+00  7072   0.719E+01 0.226E-01
CGA:   3    -0.354486601962E+03   -0.36504E+00   -0.36405E+00  7072   0.132E+01-0.409E-02
CGA:   4    -0.354578810209E+03   -0.92208E-01   -0.92216E-01  7072   0.797E+00-0.527E-02
CGA:   5    -0.354641804917E+03   -0.62995E-01   -0.63100E-01  7072   0.732E+00-0.642E-02
CGA:   6    -0.354660945925E+03   -0.19141E-01   -0.19043E-01  7072   0.130E+00 0.229E-02
CGA:   7    -0.354670950081E+03   -0.10004E-01   -0.99999E-02  7072   0.668E-01 0.309E-03
CGA:   8    -0.354677642264E+03   -0.66922E-02   -0.66925E-02  7072   0.628E-01-0.156E-06
CGA:   9    -0.354679257273E+03   -0.16150E-02   -0.16172E-02  7072   0.172E-01-0.659E-04
CGA:  10    -0.354680723880E+03   -0.14666E-02   -0.14657E-02  7072   0.948E-02 0.372E-04
CGA:  11    -0.354681555115E+03   -0.83123E-03   -0.83079E-03  7072   0.648E-02 0.170E-04
CGA:  12    -0.354681862826E+03   -0.30771E-03   -0.30793E-03  7072   0.567E-02 0.287E-05
CGA:  13    -0.354682077286E+03   -0.21446E-03   -0.21432E-03  7072   0.113E-02 0.396E-05
CGA:  14    -0.354682259306E+03   -0.18202E-03   -0.18167E-03  7072   0.154E-02 0.398E-05
CGA:  15    -0.354682317574E+03   -0.58268E-04   -0.58294E-04  7072   0.103E-02-0.514E-06
CGA:  16    -0.354682369001E+03   -0.51427E-04   -0.51483E-04  7072   0.310E-03 0.107E-05
CGA:  17    -0.354682410203E+03   -0.41202E-04   -0.41174E-04  7072   0.470E-03 0.180E-06
CGA:  18    -0.354682437015E+03   -0.26812E-04   -0.26819E-04  7072   0.512E-03 0.701E-07
CGA:  19    -0.354682457323E+03   -0.20308E-04   -0.20297E-04  7072   0.154E-03-0.299E-06
CGA:  20    -0.354682474172E+03   -0.16848E-04   -0.16827E-04  7072   0.104E-03 0.421E-06
CGA:  21    -0.354682480207E+03   -0.60355E-05   -0.60401E-05  7072   0.167E-03 0.223E-06
CGA:  22    -0.354682490428E+03   -0.10221E-04   -0.10225E-04  7072   0.514E-04 0.174E-06
CGA:  23    -0.354682494158E+03   -0.37301E-05   -0.37302E-05  7072   0.257E-04-0.789E-07
  26 F= -.35468249E+03 E0= -.35466489E+03  d E =-.100009E-02  mag=     8.0000
       N       E                     dE             d eps       ncg     rms          ort
SDA:   1    -0.347171901973E+03    0.75106E+01    0.00000E+00  7072   0.231E+02 0.000E+00
CGA:   2    -0.351111538599E+03   -0.39396E+01   -0.39088E+01  7072   0.165E+02 0.309E+00
CGA:   3    -0.352274239930E+03   -0.11627E+01   -0.11540E+01  7072   0.255E+02-0.540E+00
CGA:   4    -0.353231383910E+03   -0.95714E+00   -0.92319E+00  7072   0.116E+02 0.244E+00
CGA:   5    -0.353877191719E+03   -0.64581E+00   -0.66149E+00  7072   0.102E+02 0.197E+00
CGA:   6    -0.354122743126E+03   -0.24555E+00   -0.25061E+00  7072   0.274E+01-0.192E+00
CGA:   7    -0.354267530177E+03   -0.14479E+00   -0.14526E+00  7072   0.171E+01 0.103E-01
CGA:   8    -0.354317893457E+03   -0.50363E-01   -0.49047E-01  7072   0.812E+00 0.302E-01
CGA:   9    -0.354384279685E+03   -0.66386E-01   -0.66687E-01  7072   0.659E+00-0.149E-01
CGA:  10    -0.354404803159E+03   -0.20523E-01   -0.20695E-01  7072   0.388E+00-0.320E-02
CGA:  11    -0.354421984029E+03   -0.17181E-01   -0.17452E-01  7072   0.118E+00 0.608E-03
CGA:  12    -0.354430018011E+03   -0.80340E-02   -0.80297E-02  7072   0.245E+00 0.737E-03
CGA:  13    -0.354440547461E+03   -0.10529E-01   -0.10589E-01  7072   0.461E-01-0.134E-04
CGA:  14    -0.354442843829E+03   -0.22964E-02   -0.22952E-02  7072   0.537E-01-0.117E-04
CGA:  15    -0.354445006600E+03   -0.21628E-02   -0.21694E-02  7072   0.171E-01-0.234E-04
CGA:  16    -0.354446398605E+03   -0.13920E-02   -0.13895E-02  7072   0.307E-01 0.960E-04
CGA:  17    -0.354447511759E+03   -0.11132E-02   -0.11171E-02  7072   0.122E-01-0.248E-04
CGA:  18    -0.354448230470E+03   -0.71871E-03   -0.71870E-03  7072   0.502E-02-0.173E-05
CGA:  19    -0.354448434210E+03   -0.20374E-03   -0.20377E-03  7072   0.513E-02 0.229E-05
CGA:  20    -0.354448854957E+03   -0.42075E-03   -0.42044E-03  7072   0.408E-02 0.117E-04
CGA:  21    -0.354449085819E+03   -0.23086E-03   -0.23094E-03  7072   0.446E-02 0.806E-05
CGA:  22    -0.354449243593E+03   -0.15777E-03   -0.15841E-03  7072   0.100E-02 0.154E-05
CGA:  23    -0.354449354376E+03   -0.11078E-03   -0.11057E-03  7072   0.216E-02 0.407E-05
CGA:  24    -0.354449427640E+03   -0.73263E-04   -0.73375E-04  7072   0.884E-03 0.404E-06
CGA:  25    -0.354449507807E+03   -0.80167E-04   -0.80049E-04  7072   0.748E-03 0.347E-05
CGA:  26    -0.354449530653E+03   -0.22846E-04   -0.22870E-04  7072   0.316E-03-0.640E-06
CGA:  27    -0.354449552195E+03   -0.21541E-04   -0.21528E-04  7072   0.259E-03 0.153E-05
CGA:  28    -0.354449574114E+03   -0.21919E-04   -0.21884E-04  7072   0.468E-03 0.143E-05
CGA:  29    -0.354449590393E+03   -0.16279E-04   -0.16299E-04  7072   0.101E-03 0.369E-06
CGA:  30    -0.354449599615E+03   -0.92224E-05   -0.92141E-05  7072   0.165E-03 0.140E-06
  27 F= -.35444960E+03 E0= -.35443194E+03  d E =0.232895E+00  mag=     8.0000
       N       E                     dE             d eps       ncg     rms          ort
SDA:   1    -0.352941363105E+03    0.15082E+01    0.00000E+00  7072   0.640E+01 0.000E+00
CGA:   2    -0.353539154181E+03   -0.59779E+00   -0.60056E+00  7072   0.134E+02-0.583E-01
CGA:   3    -0.353969370459E+03   -0.43022E+00   -0.44500E+00  7072   0.334E+01-0.200E+00
CGA:   4    -0.354307846800E+03   -0.33848E+00   -0.33556E+00  7072   0.225E+01 0.704E-01
CGA:   5    -0.354538834685E+03   -0.23099E+00   -0.22936E+00  7072   0.152E+01 0.410E-01
CGA:   6    -0.354577493572E+03   -0.38659E-01   -0.40370E-01  7072   0.514E+00-0.448E-01
CGA:   7    -0.354614615264E+03   -0.37122E-01   -0.37142E-01  7072   0.165E+00-0.112E-02
CGA:   8    -0.354629822111E+03   -0.15207E-01   -0.15274E-01  7072   0.175E+00-0.188E-02
CGA:   9    -0.354635935409E+03   -0.61133E-02   -0.60813E-02  7072   0.876E-01 0.455E-03
CGA:  10    -0.354640336051E+03   -0.44006E-02   -0.43935E-02  7072   0.292E-01-0.931E-04
CGA:  11    -0.354643859886E+03   -0.35238E-02   -0.35116E-02  7072   0.375E-01 0.212E-03
CGA:  12    -0.354645006492E+03   -0.11466E-02   -0.11485E-02  7072   0.149E-01-0.133E-04
CGA:  13    -0.354645937395E+03   -0.93090E-03   -0.93103E-03  7072   0.437E-02 0.412E-04
CGA:  14    -0.354646470106E+03   -0.53271E-03   -0.53111E-03  7072   0.949E-02 0.280E-04
CGA:  15    -0.354646773847E+03   -0.30374E-03   -0.30463E-03  7072   0.235E-02-0.130E-05
CGA:  16    -0.354646998645E+03   -0.22480E-03   -0.22435E-03  7072   0.102E-02 0.138E-04
CGA:  17    -0.354647054350E+03   -0.55705E-04   -0.55696E-04  7072   0.141E-02-0.946E-06
CGA:  18    -0.354647148496E+03   -0.94146E-04   -0.94146E-04  7072   0.850E-03-0.984E-06
CGA:  19    -0.354647216753E+03   -0.68257E-04   -0.68254E-04  7072   0.379E-03-0.287E-06
CGA:  20    -0.354647232186E+03   -0.15433E-04   -0.15431E-04  7072   0.342E-03-0.238E-06
CGA:  21    -0.354647259843E+03   -0.27657E-04   -0.27687E-04  7072   0.283E-03-0.211E-05
CGA:  22    -0.354647281280E+03   -0.21437E-04   -0.21472E-04  7072   0.142E-03-0.348E-05
CGA:  23    -0.354647285761E+03   -0.44812E-05   -0.44537E-05  7072   0.791E-04-0.837E-06
  28 F= -.35464729E+03 E0= -.35462964E+03  d E =-.197686E+00  mag=     8.0000
       N       E                     dE             d eps       ncg     rms          ort
SDA:   1    -0.354487030072E+03    0.16025E+00    0.00000E+00  7072   0.709E+00 0.000E+00
CGA:   2    -0.354547004702E+03   -0.59975E-01   -0.59930E-01  7072   0.146E+01 0.207E-02
CGA:   3    -0.354600892052E+03   -0.53887E-01   -0.54021E-01  7072   0.348E+00-0.209E-02
CGA:   4    -0.354636263526E+03   -0.35371E-01   -0.35439E-01  7072   0.271E+00-0.153E-02
CGA:   5    -0.354661090632E+03   -0.24827E-01   -0.24803E-01  7072   0.246E+00 0.784E-03
CGA:   6    -0.354667132614E+03   -0.60420E-02   -0.61054E-02  7072   0.443E-01-0.183E-02
CGA:   7    -0.354670578289E+03   -0.34457E-02   -0.34423E-02  7072   0.268E-01 0.208E-03
CGA:   8    -0.354672686375E+03   -0.21081E-02   -0.21093E-02  7072   0.187E-01-0.699E-04
CGA:   9    -0.354673250809E+03   -0.56443E-03   -0.56295E-03  7072   0.789E-02 0.411E-04
CGA:  10    -0.354673911655E+03   -0.66085E-03   -0.66131E-03  7072   0.346E-02-0.159E-04
CGA:  11    -0.354674239696E+03   -0.32804E-03   -0.32780E-03  7072   0.494E-02 0.868E-05
CGA:  12    -0.354674392927E+03   -0.15323E-03   -0.15334E-03  7072   0.151E-02 0.120E-05
CGA:  13    -0.354674510478E+03   -0.11755E-03   -0.11751E-03  7072   0.521E-03 0.332E-05
CGA:  14    -0.354674553821E+03   -0.43343E-04   -0.43306E-04  7072   0.108E-02 0.242E-05
CGA:  15    -0.354674602183E+03   -0.48362E-04   -0.48421E-04  7072   0.321E-03 0.232E-05
CGA:  16    -0.354674621683E+03   -0.19500E-04   -0.19506E-04  7072   0.123E-03 0.872E-06
CGA:  17    -0.354674631343E+03   -0.96600E-05   -0.96633E-05  7072   0.239E-03-0.284E-06
CGA:  18    -0.354674642541E+03   -0.11198E-04   -0.11192E-04  7072   0.830E-04-0.300E-06
CGA:  19    -0.354674651174E+03   -0.86326E-05   -0.86489E-05  7072   0.591E-04-0.432E-06
  29 F= -.35467465E+03 E0= -.35465702E+03  d E =-.273654E-01  mag=     8.0000
       N       E                     dE             d eps       ncg     rms          ort
SDA:   1    -0.354481237142E+03    0.19341E+00    0.00000E+00  7072   0.881E+00 0.000E+00
CGA:   2    -0.354523417052E+03   -0.42180E-01   -0.42161E-01  7072   0.127E+01-0.423E-03
CGA:   3    -0.354610716633E+03   -0.87300E-01   -0.87291E-01  7072   0.280E+00 0.168E-02
CGA:   4    -0.354652064153E+03   -0.41348E-01   -0.41773E-01  7072   0.416E+00-0.541E-02
CGA:   5    -0.354667470323E+03   -0.15406E-01   -0.15433E-01  7072   0.232E+00-0.311E-03
CGA:   6    -0.354676253094E+03   -0.87828E-02   -0.87886E-02  7072   0.440E-01-0.121E-04
CGA:   7    -0.354680238242E+03   -0.39851E-02   -0.39781E-02  7072   0.285E-01 0.237E-03
CGA:   8    -0.354681793470E+03   -0.15552E-02   -0.15551E-02  7072   0.285E-01-0.909E-06
CGA:   9    -0.354682855877E+03   -0.10624E-02   -0.10610E-02  7072   0.651E-02 0.200E-04
CGA:  10    -0.354683526953E+03   -0.67108E-03   -0.66985E-03  7072   0.418E-02 0.307E-04
CGA:  11    -0.354683753613E+03   -0.22666E-03   -0.22672E-03  7072   0.572E-02 0.314E-05
CGA:  12    -0.354684046738E+03   -0.29313E-03   -0.29326E-03  7072   0.101E-02 0.262E-05
CGA:  13    -0.354684139347E+03   -0.92608E-04   -0.92552E-04  7072   0.765E-03 0.192E-05
CGA:  14    -0.354684177184E+03   -0.37837E-04   -0.37861E-04  7072   0.953E-03 0.131E-05
CGA:  15    -0.354684239350E+03   -0.62167E-04   -0.62168E-04  7072   0.190E-03 0.110E-05
CGA:  16    -0.354684258180E+03   -0.18830E-04   -0.18808E-04  7072   0.256E-03 0.650E-06
CGA:  17    -0.354684266888E+03   -0.87075E-05   -0.87091E-05  7072   0.127E-03-0.616E-07
CGA:  18    -0.354684281346E+03   -0.14458E-04   -0.14479E-04  7072   0.120E-03-0.532E-06
CGA:  19    -0.354684288032E+03   -0.66861E-05   -0.66808E-05  7072   0.703E-04-0.474E-06
  30 F= -.35468429E+03 E0= -.35466668E+03  d E =-.963686E-02  mag=     8.0000
       N       E                     dE             d eps       ncg     rms          ort
SDA:   1    -0.354653794112E+03    0.30487E-01    0.00000E+00  7072   0.109E+00 0.000E+00
CGA:   2    -0.354662355017E+03   -0.85609E-02   -0.85696E-02  7072   0.215E+00-0.439E-03
CGA:   3    -0.354672147053E+03   -0.97920E-02   -0.97927E-02  7072   0.108E+00 0.946E-05
CGA:   4    -0.354678412483E+03   -0.62654E-02   -0.62580E-02  7072   0.332E-01-0.327E-03
CGA:   5    -0.354682610024E+03   -0.41975E-02   -0.42007E-02  7072   0.371E-01-0.487E-04
CGA:   6    -0.354683561808E+03   -0.95178E-03   -0.94941E-03  7072   0.944E-02 0.770E-04
CGA:   7    -0.354684218810E+03   -0.65700E-03   -0.65693E-03  7072   0.313E-02 0.154E-04
CGA:   8    -0.354684606318E+03   -0.38751E-03   -0.38769E-03  7072   0.222E-02-0.267E-05
CGA:   9    -0.354684677311E+03   -0.70993E-04   -0.70987E-04  7072   0.124E-02-0.146E-05
CGA:  10    -0.354684757563E+03   -0.80251E-04   -0.80255E-04  7072   0.531E-03 0.119E-05
CGA:  11    -0.354684806767E+03   -0.49204E-04   -0.49207E-04  7072   0.426E-03-0.223E-06
CGA:  12    -0.354684827394E+03   -0.20628E-04   -0.20612E-04  7072   0.404E-03-0.667E-06
CGA:  13    -0.354684843848E+03   -0.16454E-04   -0.16437E-04  7072   0.796E-04-0.662E-06
CGA:  14    -0.354684854410E+03   -0.10562E-04   -0.10558E-04  7072   0.947E-04 0.695E-07
CGA:  15    -0.354684859793E+03   -0.53835E-05   -0.53845E-05  7072   0.106E-03 0.767E-07
  31 F= -.35468486E+03 E0= -.35466724E+03  d E =-.571762E-03  mag=     8.0000
       N       E                     dE             d eps       ncg     rms          ort
SDA:   1    -0.354598247605E+03    0.86607E-01    0.00000E+00  7072   0.231E+00 0.000E+00
CGA:   2    -0.354647227674E+03   -0.48980E-01   -0.49011E-01  7072   0.547E+00-0.215E-03
CGA:   3    -0.354662859806E+03   -0.15632E-01   -0.15582E-01  7072   0.196E+00 0.830E-03
CGA:   4    -0.354675128585E+03   -0.12269E-01   -0.12271E-01  7072   0.648E-01 0.489E-04
CGA:   5    -0.354682555771E+03   -0.74272E-02   -0.74235E-02  7072   0.407E-01 0.755E-04
CGA:   6    -0.354684230098E+03   -0.16743E-02   -0.16741E-02  7072   0.266E-01 0.452E-05
CGA:   7    -0.354685213972E+03   -0.98387E-03   -0.98548E-03  7072   0.705E-02-0.252E-04
CGA:   8    -0.354685823119E+03   -0.60915E-03   -0.60947E-03  7072   0.375E-02-0.143E-04
CGA:   9    -0.354686143307E+03   -0.32019E-03   -0.32018E-03  7072   0.415E-02 0.104E-05
CGA:  10    -0.354686253572E+03   -0.11027E-03   -0.11013E-03  7072   0.782E-03 0.291E-05
CGA:  11    -0.354686341107E+03   -0.87535E-04   -0.87661E-04  7072   0.629E-03-0.298E-05
CGA:  12    -0.354686393291E+03   -0.52184E-04   -0.52220E-04  7072   0.744E-03-0.317E-05
CGA:  13    -0.354686413836E+03   -0.20546E-04   -0.20495E-04  7072   0.137E-03-0.770E-06
CGA:  14    -0.354686434054E+03   -0.20217E-04   -0.20318E-04  7072   0.144E-03-0.128E-05
CGA:  15    -0.354686443920E+03   -0.98666E-05   -0.98657E-05  7072   0.168E-03-0.170E-06
  32 F= -.35468644E+03 E0= -.35466881E+03  d E =-.158413E-02  mag=     8.0000
       N       E                     dE             d eps       ncg     rms          ort
SDA:   1    -0.354554151352E+03    0.13228E+00    0.00000E+00  7072   0.388E+01 0.000E+00
CGA:   2    -0.354621794231E+03   -0.67643E-01   -0.66899E-01  7072   0.189E+00 0.312E-03
CGA:   3    -0.354649454643E+03   -0.27660E-01   -0.27699E-01  7072   0.341E+00-0.518E-03
CGA:   4    -0.354671457293E+03   -0.22003E-01   -0.22001E-01  7072   0.246E+00-0.543E-04
CGA:   5    -0.354678173097E+03   -0.67158E-02   -0.67200E-02  7072   0.555E-01-0.857E-04
CGA:   6    -0.354684213178E+03   -0.60401E-02   -0.60435E-02  7072   0.292E-01-0.790E-04
CGA:   7    -0.354686404357E+03   -0.21912E-02   -0.21909E-02  7072   0.115E-01 0.589E-04
CGA:   8    -0.354686808560E+03   -0.40420E-03   -0.40454E-03  7072   0.818E-02-0.100E-04
CGA:   9    -0.354687359382E+03   -0.55082E-03   -0.55082E-03  7072   0.234E-02-0.275E-05
CGA:  10    -0.354687609000E+03   -0.24962E-03   -0.24955E-03  7072   0.262E-02 0.203E-05
CGA:  11    -0.354687681364E+03   -0.72364E-04   -0.72391E-04  7072   0.831E-03-0.101E-05
CGA:  12    -0.354687756279E+03   -0.74915E-04   -0.74939E-04  7072   0.442E-03-0.134E-05
CGA:  13    -0.354687795180E+03   -0.38901E-04   -0.38929E-04  7072   0.609E-03-0.157E-05
CGA:  14    -0.354687813888E+03   -0.18708E-04   -0.18696E-04  7072   0.143E-03 0.310E-07
CGA:  15    -0.354687824983E+03   -0.11095E-04   -0.11098E-04  7072   0.108E-03-0.347E-06
CGA:  16    -0.354687838085E+03   -0.13102E-04   -0.13097E-04  7072   0.135E-03 0.121E-06
CGA:  17    -0.354687842199E+03   -0.41139E-05   -0.41069E-05  7072   0.567E-04-0.178E-06
  33 F= -.35468784E+03 E0= -.35467021E+03  d E =-.139828E-02  mag=     8.0000
       N       E                     dE             d eps       ncg     rms          ort
SDA:   1    -0.354348727801E+03    0.33911E+00    0.00000E+00  7072   0.948E+00 0.000E+00
CGA:   2    -0.354442680041E+03   -0.93952E-01   -0.93938E-01  7072   0.316E+01 0.101E-02
CGA:   3    -0.354601344064E+03   -0.15866E+00   -0.15838E+00  7072   0.663E+00-0.153E-02
CGA:   4    -0.354649183599E+03   -0.47840E-01   -0.47846E-01  7072   0.236E+00-0.795E-02
CGA:   5    -0.354671779803E+03   -0.22596E-01   -0.22595E-01  7072   0.333E+00 0.382E-04
CGA:   6    -0.354680644169E+03   -0.88644E-02   -0.89227E-02  7072   0.550E-01-0.159E-02
CGA:   7    -0.354684641218E+03   -0.39970E-02   -0.39967E-02  7072   0.241E-01 0.802E-04
CGA:   8    -0.354686587421E+03   -0.19462E-02   -0.19452E-02  7072   0.199E-01 0.635E-04
CGA:   9    -0.354687396740E+03   -0.80932E-03   -0.80957E-03  7072   0.156E-01 0.858E-06
CGA:  10    -0.354688192305E+03   -0.79556E-03   -0.79640E-03  7072   0.225E-02 0.753E-05
CGA:  11    -0.354688484856E+03   -0.29255E-03   -0.29294E-03  7072   0.416E-02-0.631E-05
CGA:  12    -0.354688612027E+03   -0.12717E-03   -0.12714E-03  7072   0.142E-02 0.421E-06
CGA:  13    -0.354688706428E+03   -0.94400E-04   -0.94402E-04  7072   0.403E-03-0.119E-06
CGA:  14    -0.354688762426E+03   -0.55998E-04   -0.55979E-04  7072   0.825E-03 0.366E-06
CGA:  15    -0.354688787778E+03   -0.25352E-04   -0.25341E-04  7072   0.271E-03-0.588E-06
CGA:  16    -0.354688808702E+03   -0.20924E-04   -0.20918E-04  7072   0.157E-03 0.650E-06
CGA:  17    -0.354688822785E+03   -0.14083E-04   -0.14085E-04  7072   0.189E-03-0.222E-06
CGA:  18    -0.354688830641E+03   -0.78567E-05   -0.78524E-05  7072   0.164E-03-0.229E-06
CGA:  19    -0.354688844912E+03   -0.14270E-04   -0.14268E-04  7072   0.567E-04 0.102E-06
CGA:  20    -0.354688849704E+03   -0.47927E-05   -0.47810E-05  7072   0.544E-04 0.872E-06
  34 F= -.35468885E+03 E0= -.35467119E+03  d E =-.100750E-02  mag=     8.0000
       N       E                     dE             d eps       ncg     rms          ort
SDA:   1    -0.348521845638E+03    0.61670E+01    0.00000E+00  7072   0.218E+02 0.000E+00
CGA:   2    -0.349741888127E+03   -0.12200E+01   -0.12123E+01  7072   0.409E+02-0.344E+00
CGA:   3    -0.352457171145E+03   -0.27153E+01   -0.26963E+01  7072   0.141E+02-0.273E+01
CGA:   4    -0.353320414598E+03   -0.86324E+00   -0.83570E+00  7072   0.995E+01-0.169E+01
CGA:   5    -0.354162095673E+03   -0.84168E+00   -0.84097E+00  7072   0.513E+01 0.185E-01
CGA:   6    -0.354289898861E+03   -0.12780E+00   -0.12456E+00  7072   0.206E+01 0.945E-01
CGA:   7    -0.354392589362E+03   -0.10269E+00   -0.10579E+00  7072   0.176E+01 0.274E-01
CGA:   8    -0.354441015181E+03   -0.48426E-01   -0.50102E-01  7072   0.102E+01-0.408E-01
CGA:   9    -0.354506578859E+03   -0.65564E-01   -0.65545E-01  7072   0.319E+00 0.221E-01
CGA:  10    -0.354530736969E+03   -0.24158E-01   -0.24107E-01  7072   0.162E+00 0.368E-02
CGA:  11    -0.354541219972E+03   -0.10483E-01   -0.10493E-01  7072   0.194E+00 0.244E-02
CGA:  12    -0.354549012608E+03   -0.77926E-02   -0.77612E-02  7072   0.111E+00 0.133E-03
[...]
CGA:  18    -0.354692053492E+03   -0.12914E-04   -0.12927E-04  7072   0.267E-03 0.298E-06
CGA:  19    -0.354692074869E+03   -0.21377E-04   -0.21340E-04  7072   0.148E-03 0.184E-05
CGA:  20    -0.354692088113E+03   -0.13244E-04   -0.13211E-04  7072   0.161E-03 0.116E-05
CGA:  21    -0.354692093253E+03   -0.51403E-05   -0.51706E-05  7072   0.687E-04 0.753E-06
  67 F= -.35469209E+03 E0= -.35467454E+03  d E =-.262859E-01  mag=     8.0000
       N       E                     dE             d eps       ncg     rms          ort
SDA:   1    -0.354599587197E+03    0.92501E-01    0.00000E+00  7072   0.709E+00 0.000E+00
CGA:   2    -0.354616960555E+03   -0.17373E-01   -0.17722E-01  7072   0.321E+00-0.100E-01
CGA:   3    -0.354661868862E+03   -0.44908E-01   -0.44763E-01  7072   0.316E+00 0.194E-02
CGA:   4    -0.354676563459E+03   -0.14695E-01   -0.14587E-01  7072   0.202E+00-0.148E-03
CGA:   5    -0.354684234340E+03   -0.76709E-02   -0.76842E-02  7072   0.994E-01-0.136E-03
CGA:   6    -0.354693883822E+03   -0.96495E-02   -0.96781E-02  7072   0.286E-01-0.747E-03
CGA:   7    -0.354695503212E+03   -0.16194E-02   -0.16196E-02  7072   0.267E-01-0.260E-05
CGA:   8    -0.354696389829E+03   -0.88662E-03   -0.88519E-03  7072   0.772E-02 0.395E-05
CGA:   9    -0.354697210150E+03   -0.82032E-03   -0.81971E-03  7072   0.670E-02 0.130E-04
CGA:  10    -0.354697419511E+03   -0.20936E-03   -0.20945E-03  7072   0.293E-02-0.107E-04
CGA:  11    -0.354697597931E+03   -0.17842E-03   -0.17841E-03  7072   0.132E-02-0.426E-05
CGA:  12    -0.354697732938E+03   -0.13501E-03   -0.13540E-03  7072   0.145E-02-0.102E-04
CGA:  13    -0.354697783924E+03   -0.50986E-04   -0.50905E-04  7072   0.805E-03-0.211E-05
CGA:  14    -0.354697830279E+03   -0.46355E-04   -0.46322E-04  7072   0.221E-03-0.471E-05
CGA:  15    -0.354697846783E+03   -0.16504E-04   -0.16525E-04  7072   0.436E-03-0.206E-05
CGA:  16    -0.354697868325E+03   -0.21542E-04   -0.21490E-04  7072   0.172E-03-0.357E-05
CGA:  17    -0.354697881074E+03   -0.12749E-04   -0.12757E-04  7072   0.643E-04-0.887E-06
CGA:  18    -0.354697884381E+03   -0.33074E-05   -0.33105E-05  7072   0.852E-04 0.133E-06
  68 F= -.35469788E+03 E0= -.35468037E+03  d E =-.579113E-02  mag=     8.0000
       N       E                     dE             d eps       ncg     rms          ort
SDA:   1    -0.354612995732E+03    0.84885E-01    0.00000E+00  7072   0.316E+00 0.000E+00
CGA:   2    -0.354631591098E+03   -0.18595E-01   -0.18617E-01  7072   0.537E+00 0.170E-02
CGA:   3    -0.354664450570E+03   -0.32859E-01   -0.32856E-01  7072   0.356E+00-0.379E-03
CGA:   4    -0.354684417504E+03   -0.19967E-01   -0.19975E-01  7072   0.105E+00 0.392E-03
CGA:   5    -0.354689253555E+03   -0.48361E-02   -0.48384E-02  7072   0.121E+00-0.424E-05
CGA:   6    -0.354697085357E+03   -0.78318E-02   -0.78327E-02  7072   0.220E-01-0.248E-03
CGA:   7    -0.354698802548E+03   -0.17172E-02   -0.17171E-02  7072   0.126E-01 0.143E-05
CGA:   8    -0.354699285713E+03   -0.48316E-03   -0.48256E-03  7072   0.101E-01 0.526E-05
CGA:   9    -0.354699952127E+03   -0.66641E-03   -0.66656E-03  7072   0.324E-02-0.270E-04
CGA:  10    -0.354700145405E+03   -0.19328E-03   -0.19327E-03  7072   0.326E-02-0.183E-05
CGA:  11    -0.354700258366E+03   -0.11296E-03   -0.11287E-03  7072   0.939E-03-0.340E-05
CGA:  12    -0.354700365665E+03   -0.10730E-03   -0.10754E-03  7072   0.880E-03-0.444E-05
CGA:  13    -0.354700409705E+03   -0.44039E-04   -0.43970E-04  7072   0.568E-03-0.476E-05
CGA:  14    -0.354700427923E+03   -0.18219E-04   -0.18154E-04  7072   0.157E-03-0.239E-05
CGA:  15    -0.354700449721E+03   -0.21798E-04   -0.22227E-04  7072   0.307E-03-0.536E-05
CGA:  16    -0.354700459771E+03   -0.10049E-04   -0.10016E-04  7072   0.137E-03-0.112E-05
CGA:  17    -0.354700467558E+03   -0.77871E-05   -0.77834E-05  7072   0.340E-04-0.561E-06
  69 F= -.35470047E+03 E0= -.35468295E+03  d E =-.258318E-02  mag=     8.0000
       N       E                     dE             d eps       ncg     rms          ort
SDA:   1    -0.354677286648E+03    0.23173E-01    0.00000E+00  7072   0.418E+00 0.000E+00
CGA:   2    -0.354685095077E+03   -0.78084E-02   -0.76378E-02  7072   0.446E-01 0.739E-02
CGA:   3    -0.354693225598E+03   -0.81305E-02   -0.81345E-02  7072   0.107E+00-0.381E-04
CGA:   4    -0.354696788857E+03   -0.35633E-02   -0.35659E-02  7072   0.442E-01-0.451E-04
CGA:   5    -0.354698709000E+03   -0.19201E-02   -0.19153E-02  7072   0.131E-01 0.146E-04
CGA:   6    -0.354700174350E+03   -0.14653E-02   -0.14667E-02  7072   0.879E-02-0.300E-04
CGA:   7    -0.354700460354E+03   -0.28600E-03   -0.28590E-03  7072   0.577E-02 0.175E-05
CGA:   8    -0.354700810032E+03   -0.34968E-03   -0.34956E-03  7072   0.104E-02-0.583E-05
CGA:   9    -0.354700899485E+03   -0.89452E-04   -0.89479E-04  7072   0.183E-02-0.119E-05
CGA:  10    -0.354700963459E+03   -0.63975E-04   -0.63863E-04  7072   0.457E-03-0.242E-05
CGA:  11    -0.354700999212E+03   -0.35753E-04   -0.35752E-04  7072   0.168E-03-0.115E-06
CGA:  12    -0.354701016684E+03   -0.17472E-04   -0.17519E-04  7072   0.181E-03-0.128E-05
CGA:  13    -0.354701024695E+03   -0.80115E-05   -0.79700E-05  7072   0.150E-03-0.163E-05
  70 F= -.35470102E+03 E0= -.35468350E+03  d E =-.557138E-03  mag=     8.0000
       N       E                     dE             d eps       ncg     rms          ort
SDA:   1    -0.354655171340E+03    0.45845E-01    0.00000E+00  7072   0.160E+00 0.000E+00
CGA:   2    -0.354664371484E+03   -0.92001E-02   -0.91980E-02  7072   0.288E+00-0.353E-04
CGA:   3    -0.354684048400E+03   -0.19677E-01   -0.19680E-01  7072   0.189E+00-0.807E-03
CGA:   4    -0.354694149064E+03   -0.10101E-01   -0.10134E-01  7072   0.554E-01 0.692E-03
CGA:   5    -0.354696103704E+03   -0.19546E-02   -0.19555E-02  7072   0.401E-01-0.827E-05
CGA:   6    -0.354699473064E+03   -0.33694E-02   -0.33666E-02  7072   0.165E-01 0.104E-03
CGA:   7    -0.354700621488E+03   -0.11484E-02   -0.11487E-02  7072   0.366E-02-0.497E-04
CGA:   8    -0.354700819823E+03   -0.19833E-03   -0.19836E-03  7072   0.507E-02 0.163E-05
CGA:   9    -0.354701113975E+03   -0.29415E-03   -0.29417E-03  7072   0.106E-02 0.136E-05
CGA:  10    -0.354701195858E+03   -0.81882E-04   -0.81895E-04  7072   0.932E-03-0.832E-06
CGA:  11    -0.354701228484E+03   -0.32626E-04   -0.32621E-04  7072   0.538E-03 0.330E-06
CGA:  12    -0.354701263169E+03   -0.34686E-04   -0.34687E-04  7072   0.262E-03-0.211E-05
CGA:  13    -0.354701280439E+03   -0.17270E-04   -0.17270E-04  7072   0.279E-03-0.218E-06
CGA:  14    -0.354701290211E+03   -0.97724E-05   -0.97464E-05  7072   0.743E-04-0.997E-06
  71 F= -.35470129E+03 E0= -.35468374E+03  d E =-.265516E-03  mag=     8.0000
       N       E                     dE             d eps       ncg     rms          ort
SDA:   1    -0.354603355177E+03    0.97925E-01    0.00000E+00  7072   0.388E+00 0.000E+00
CGA:   2    -0.354620630517E+03   -0.17275E-01   -0.17287E-01  7072   0.520E+00 0.940E-04
CGA:   3    -0.354663345371E+03   -0.42715E-01   -0.42756E-01  7072   0.387E+00-0.154E-02
CGA:   4    -0.354685846842E+03   -0.22501E-01   -0.22524E-01  7072   0.177E+00 0.165E-02
CGA:   5    -0.354690846632E+03   -0.49998E-02   -0.50158E-02  7072   0.644E-01-0.334E-03
CGA:   6    -0.354696730508E+03   -0.58839E-02   -0.58769E-02  7072   0.409E-01 0.193E-03
CGA:   7    -0.354699768706E+03   -0.30382E-02   -0.30381E-02  7072   0.108E-01 0.925E-05
CGA:   8    -0.354700238729E+03   -0.47002E-03   -0.46989E-03  7072   0.976E-02 0.145E-05
CGA:   9    -0.354700687573E+03   -0.44884E-03   -0.44890E-03  7072   0.286E-02-0.487E-06
CGA:  10    -0.354700974997E+03   -0.28742E-03   -0.28740E-03  7072   0.444E-02 0.169E-05
CGA:  11    -0.354701095580E+03   -0.12058E-03   -0.12058E-03  7072   0.627E-03-0.190E-05
CGA:  12    -0.354701158182E+03   -0.62602E-04   -0.62451E-04  7072   0.462E-03 0.376E-05
CGA:  13    -0.354701194689E+03   -0.36508E-04   -0.36520E-04  7072   0.634E-03-0.108E-05
CGA:  14    -0.354701215730E+03   -0.21040E-04   -0.21052E-04  7072   0.140E-03 0.185E-06
CGA:  15    -0.354701226062E+03   -0.10332E-04   -0.10334E-04  7072   0.111E-03-0.308E-06
CGA:  16    -0.354701231641E+03   -0.55792E-05   -0.55857E-05  7072   0.127E-03 0.407E-06
  72 F= -.35470123E+03 E0= -.35468367E+03  d E =0.585704E-04  mag=     8.0000
       N       E                     dE             d eps       ncg     rms          ort
SDA:   1    -0.354545735120E+03    0.15549E+00    0.00000E+00  7072   0.445E+00 0.000E+00
CGA:   2    -0.354589001092E+03   -0.43266E-01   -0.43180E-01  7072   0.127E+01 0.236E-02
CGA:   3    -0.354655062175E+03   -0.66061E-01   -0.66098E-01  7072   0.491E+00 0.823E-03
CGA:   4    -0.354680205191E+03   -0.25143E-01   -0.25183E-01  7072   0.112E+00 0.867E-03
CGA:   5    -0.354689405080E+03   -0.91999E-02   -0.92015E-02  7072   0.207E+00-0.374E-04
CGA:   6    -0.354696216601E+03   -0.68115E-02   -0.67954E-02  7072   0.367E-01 0.267E-03
CGA:   7    -0.354698715885E+03   -0.24993E-02   -0.24992E-02  7072   0.928E-02 0.208E-04
CGA:   8    -0.354699827784E+03   -0.11119E-02   -0.11128E-02  7072   0.119E-01-0.138E-04
CGA:   9    -0.354700178049E+03   -0.35026E-03   -0.35025E-03  7072   0.424E-02-0.216E-05
CGA:  10    -0.354700492250E+03   -0.31420E-03   -0.31421E-03  7072   0.160E-02-0.848E-06
CGA:  11    -0.354700577264E+03   -0.85015E-04   -0.85027E-04  7072   0.171E-02 0.798E-06
CGA:  12    -0.354700647294E+03   -0.70030E-04   -0.70142E-04  7072   0.749E-03 0.326E-05
CGA:  13    -0.354700713925E+03   -0.66631E-04   -0.66598E-04  7072   0.242E-03 0.124E-05
CGA:  14    -0.354700731837E+03   -0.17911E-04   -0.17901E-04  7072   0.226E-03 0.102E-05
CGA:  15    -0.354700740985E+03   -0.91479E-05   -0.91480E-05  7072   0.183E-03-0.536E-07
CGA:  16    -0.354700756270E+03   -0.15285E-04   -0.15250E-04  7072   0.640E-04 0.167E-05
CGA:  17    -0.354700759428E+03   -0.31577E-05   -0.31587E-05  7072   0.798E-04 0.173E-07
  73 F= -.35470076E+03 E0= -.35468317E+03  d E =0.472213E-03  mag=     8.0000
       N       E                     dE             d eps       ncg     rms          ort
SDA:   1    -0.354267825592E+03    0.43293E+00    0.00000E+00  7072   0.117E+01 0.000E+00
CGA:   2    -0.354396936700E+03   -0.12911E+00   -0.12943E+00  7072   0.444E+01-0.488E-02
CGA:   3    -0.354594752466E+03   -0.19782E+00   -0.19797E+00  7072   0.815E+00-0.837E-03
CGA:   4    -0.354643683830E+03   -0.48931E-01   -0.48907E-01  7072   0.347E+00-0.221E-02
CGA:   5    -0.354676986071E+03   -0.33302E-01   -0.33292E-01  7072   0.417E+00 0.303E-03
CGA:   6    -0.354688218555E+03   -0.11232E-01   -0.11291E-01  7072   0.809E-01-0.151E-02
CGA:   7    -0.354693179536E+03   -0.49610E-02   -0.49621E-02  7072   0.372E-01 0.220E-03
CGA:   8    -0.354694978916E+03   -0.17994E-02   -0.18004E-02  7072   0.467E-01 0.124E-04
CGA:   9    -0.354697598036E+03   -0.26191E-02   -0.26199E-02  7072   0.872E-02 0.469E-04
CGA:  10    -0.354698359874E+03   -0.76184E-03   -0.76097E-03  7072   0.416E-02 0.288E-04
CGA:  11    -0.354698626290E+03   -0.26642E-03   -0.26642E-03  7072   0.574E-02-0.158E-05
CGA:  12    -0.354698879047E+03   -0.25276E-03   -0.25284E-03  7072   0.188E-02 0.252E-05
CGA:  13    -0.354699007567E+03   -0.12852E-03   -0.12850E-03  7072   0.856E-03 0.284E-05
CGA:  14    -0.354699046150E+03   -0.38583E-04   -0.38631E-04  7072   0.912E-03 0.210E-05
CGA:  15    -0.354699096396E+03   -0.50246E-04   -0.50252E-04  7072   0.428E-03 0.946E-06
CGA:  16    -0.354699141522E+03   -0.45126E-04   -0.45110E-04  7072   0.209E-03 0.230E-06
CGA:  17    -0.354699150252E+03   -0.87296E-05   -0.87395E-05  7072   0.212E-03 0.361E-06
CGA:  18    -0.354699169102E+03   -0.18850E-04   -0.18821E-04  7072   0.150E-03 0.102E-05
CGA:  19    -0.354699183974E+03   -0.14871E-04   -0.14892E-04  7072   0.157E-03-0.684E-06
CGA:  20    -0.354699188952E+03   -0.49788E-05   -0.49881E-05  7072   0.830E-04 0.227E-06
  74 F= -.35469919E+03 E0= -.35468158E+03  d E =0.157048E-02  mag=     8.0000
       N       E                     dE             d eps       ncg     rms          ort
SDA:   1    -0.353525656867E+03    0.11735E+01    0.00000E+00  7072   0.295E+01 0.000E+00
CGA:   2    -0.354202851568E+03   -0.67719E+00   -0.68430E+00  7072   0.655E+01-0.501E-01
CGA:   3    -0.354442466389E+03   -0.23961E+00   -0.23996E+00  7072   0.283E+01-0.281E-01
CGA:   4    -0.354544709664E+03   -0.10224E+00   -0.10170E+00  7072   0.911E+00 0.782E-02
CGA:   5    -0.354647547151E+03   -0.10284E+00   -0.10225E+00  7072   0.782E+00 0.122E-01
CGA:   6    -0.354667475468E+03   -0.19928E-01   -0.20014E-01  7072   0.219E+00-0.306E-02
CGA:   7    -0.354681384692E+03   -0.13909E-01   -0.13913E-01  7072   0.799E-01 0.296E-03
CGA:   8    -0.354687584268E+03   -0.61996E-02   -0.61984E-02  7072   0.136E+00 0.103E-03
CGA:   9    -0.354692863383E+03   -0.52791E-02   -0.52814E-02  7072   0.194E-01-0.104E-04
CGA:  10    -0.354694597325E+03   -0.17339E-02   -0.17343E-02  7072   0.146E-01-0.127E-04
CGA:  11    -0.354695148647E+03   -0.55132E-03   -0.55111E-03  7072   0.108E-01 0.288E-06
CGA:  12    -0.354695944971E+03   -0.79632E-03   -0.79633E-03  7072   0.578E-02-0.246E-05
CGA:  13    -0.354696202680E+03   -0.25771E-03   -0.25780E-03  7072   0.333E-02 0.583E-06
CGA:  14    -0.354696318516E+03   -0.11584E-03   -0.11578E-03  7072   0.131E-02-0.309E-05
CGA:  15    -0.354696514625E+03   -0.19611E-03   -0.19614E-03  7072   0.153E-02-0.287E-06
CGA:  16    -0.354696567539E+03   -0.52914E-04   -0.52912E-04  7072   0.778E-03-0.205E-05
CGA:  17    -0.354696614746E+03   -0.47208E-04   -0.47222E-04  7072   0.359E-03 0.162E-05
CGA:  18    -0.354696654793E+03   -0.40046E-04   -0.40055E-04  7072   0.910E-03-0.145E-06
CGA:  19    -0.354696689175E+03   -0.34382E-04   -0.34418E-04  7072   0.291E-03 0.132E-05
CGA:  20    -0.354696713576E+03   -0.24401E-04   -0.24388E-04  7072   0.248E-03 0.760E-06
CGA:  21    -0.354696722038E+03   -0.84622E-05   -0.84884E-05  7072   0.140E-03 0.647E-06
CGA:  22    -0.354696738205E+03   -0.16166E-04   -0.16053E-04  7072   0.107E-03 0.234E-05
CGA:  23    -0.354696746222E+03   -0.80174E-05   -0.80148E-05  7072   0.114E-03 0.584E-06
  75 F= -.35469675E+03 E0= -.35467913E+03  d E =0.244273E-02  mag=     8.0000
       N       E                     dE             d eps       ncg     rms          ort
SDA:   1    -0.353917118940E+03    0.77962E+00    0.00000E+00  7072   0.206E+01 0.000E+00
CGA:   2    -0.354226807642E+03   -0.30969E+00   -0.30880E+00  7072   0.710E+01 0.146E-01
CGA:   3    -0.354477562842E+03   -0.25076E+00   -0.24402E+00  7072   0.208E+01 0.878E-01
CGA:   4    -0.354587040779E+03   -0.10948E+00   -0.10873E+00  7072   0.591E+00-0.468E-02
CGA:   5    -0.354665157751E+03   -0.78117E-01   -0.77931E-01  7072   0.311E+00 0.286E-02
CGA:   6    -0.354675281144E+03   -0.10123E-01   -0.10129E-01  7072   0.182E+00-0.284E-03
CGA:   7    -0.354684129673E+03   -0.88485E-02   -0.88836E-02  7072   0.585E-01 0.114E-03
CGA:   8    -0.354690726848E+03   -0.65972E-02   -0.65992E-02  7072   0.289E-01-0.326E-04
CGA:   9    -0.354692144798E+03   -0.14179E-02   -0.14189E-02  7072   0.304E-01 0.109E-04
CGA:  10    -0.354693347906E+03   -0.12031E-02   -0.12002E-02  7072   0.723E-02 0.219E-04
CGA:  11    -0.354694077694E+03   -0.72979E-03   -0.73000E-03  7072   0.588E-02-0.653E-05
CGA:  12    -0.354694417880E+03   -0.34019E-03   -0.34008E-03  7072   0.517E-02-0.598E-05
CGA:  13    -0.354694576350E+03   -0.15847E-03   -0.15859E-03  7072   0.115E-02-0.476E-05
CGA:  14    -0.354694721759E+03   -0.14541E-03   -0.14557E-03  7072   0.124E-02-0.264E-05
CGA:  15    -0.354694773865E+03   -0.52107E-04   -0.52086E-04  7072   0.109E-02-0.156E-07
CGA:  16    -0.354694833186E+03   -0.59321E-04   -0.59261E-04  7072   0.296E-03-0.340E-05
CGA:  17    -0.354694865721E+03   -0.32534E-04   -0.32509E-04  7072   0.410E-03 0.582E-06
CGA:  18    -0.354694881782E+03   -0.16061E-04   -0.16059E-04  7072   0.335E-03-0.347E-06
CGA:  19    -0.354694909915E+03   -0.28133E-04   -0.28116E-04  7072   0.151E-03 0.113E-05
CGA:  20    -0.354694920354E+03   -0.10439E-04   -0.10439E-04  7072   0.101E-03 0.129E-06
CGA:  21    -0.354694924777E+03   -0.44226E-05   -0.44366E-05  7072   0.113E-03 0.519E-06
CGA:  22    -0.354694935898E+03   -0.11121E-04   -0.11087E-04  7072   0.400E-04 0.116E-05
CGA:  23    -0.354694938306E+03   -0.24085E-05   -0.24167E-05  7072   0.416E-04 0.795E-06
  76 F= -.35469494E+03 E0= -.35467738E+03  d E =0.180792E-02  mag=     8.0000
       N       E                     dE             d eps       ncg     rms          ort
SDA:   1    -0.354413677221E+03    0.28126E+00    0.00000E+00  7072   0.893E+00 0.000E+00
CGA:   2    -0.354484385719E+03   -0.70708E-01   -0.70540E-01  7072   0.220E+01 0.101E-01
CGA:   3    -0.354605012123E+03   -0.12063E+00   -0.12063E+00  7072   0.808E+00 0.105E-03
CGA:   4    -0.354650825302E+03   -0.45813E-01   -0.45593E-01  7072   0.309E+00-0.583E-02
CGA:   5    -0.354666803139E+03   -0.15978E-01   -0.15949E-01  7072   0.383E+00-0.396E-03
CGA:   6    -0.354686999622E+03   -0.20196E-01   -0.20181E-01  7072   0.772E-01-0.286E-03
CGA:   7    -0.354692249203E+03   -0.52496E-02   -0.52488E-02  7072   0.410E-01 0.193E-03
CGA:   8    -0.354693653082E+03   -0.14039E-02   -0.14073E-02  7072   0.282E-01-0.473E-04
CGA:   9    -0.354695790951E+03   -0.21379E-02   -0.21381E-02  7072   0.882E-02-0.113E-04
CGA:  10    -0.354696387010E+03   -0.59606E-03   -0.59608E-03  7072   0.984E-02-0.449E-05
CGA:  11    -0.354696713656E+03   -0.32665E-03   -0.32758E-03  7072   0.268E-02-0.508E-05
CGA:  12    -0.354696995813E+03   -0.28216E-03   -0.28203E-03  7072   0.258E-02 0.315E-05
CGA:  13    -0.354697097346E+03   -0.10153E-03   -0.10158E-03  7072   0.180E-02 0.224E-05
CGA:  14    -0.354697181996E+03   -0.84650E-04   -0.84617E-04  7072   0.497E-03-0.131E-05
CGA:  15    -0.354697233459E+03   -0.51462E-04   -0.51455E-04  7072   0.729E-03 0.460E-07
CGA:  16    -0.354697263501E+03   -0.30042E-04   -0.30049E-04  7072   0.501E-03-0.348E-07
CGA:  17    -0.354697293918E+03   -0.30417E-04   -0.30421E-04  7072   0.168E-03 0.106E-05
CGA:  18    -0.354697306958E+03   -0.13040E-04   -0.13048E-04  7072   0.327E-03-0.636E-06
CGA:  19    -0.354697321761E+03   -0.14803E-04   -0.14810E-04  7072   0.139E-03 0.322E-06
CGA:  20    -0.354697341418E+03   -0.19657E-04   -0.19708E-04  7072   0.129E-03-0.703E-06
CGA:  21    -0.354697345949E+03   -0.45313E-05   -0.45402E-05  7072   0.863E-04 0.214E-06
  77 F= -.35469735E+03 E0= -.35467977E+03  d E =-.240764E-02  mag=     8.0000
       N       E                     dE             d eps       ncg     rms          ort
SDA:   1    -0.354650373879E+03    0.46968E-01    0.00000E+00  7072   0.172E+00 0.000E+00
CGA:   2    -0.354659526119E+03   -0.91522E-02   -0.91446E-02  7072   0.275E+00-0.117E-03
CGA:   3    -0.354677175917E+03   -0.17650E-01   -0.17651E-01  7072   0.205E+00 0.413E-03
CGA:   4    -0.354690686640E+03   -0.13511E-01   -0.13511E-01  7072   0.361E-01 0.149E-03
CGA:   5    -0.354694537120E+03   -0.38505E-02   -0.38524E-02  7072   0.256E-01-0.403E-04
CGA:   6    -0.354696026925E+03   -0.14898E-02   -0.14909E-02  7072   0.222E-01 0.462E-04
CGA:   7    -0.354696667945E+03   -0.64102E-03   -0.63957E-03  7072   0.370E-02 0.275E-04
CGA:   8    -0.354697017876E+03   -0.34993E-03   -0.34994E-03  7072   0.378E-02 0.150E-06
CGA:   9    -0.354697134285E+03   -0.11641E-03   -0.11638E-03  7072   0.179E-02-0.101E-05
CGA:  10    -0.354697295783E+03   -0.16150E-03   -0.16154E-03  7072   0.335E-03-0.137E-05
CGA:  11    -0.354697334808E+03   -0.39025E-04   -0.39000E-04  7072   0.501E-03 0.527E-06
CGA:  12    -0.354697353818E+03   -0.19010E-04   -0.19024E-04  7072   0.294E-03 0.631E-06
CGA:  13    -0.354697367808E+03   -0.13990E-04   -0.13992E-04  7072   0.684E-04 0.676E-07
CGA:  14    -0.354697372688E+03   -0.48794E-05   -0.48760E-05  7072   0.109E-03 0.613E-06
  78 F= -.35469737E+03 E0= -.35467976E+03  d E =-.267383E-04  mag=     8.0000
