       N       E                     dE             d eps       ncg     rms          ort
DAV:   1     0.559803841393E+04    0.55980E+04   -0.26873E+05  7696   0.164E+03
DAV:   2     0.231312286524E+03   -0.53667E+04   -0.49629E+04  7696   0.462E+02
DAV:   3    -0.380039577268E+03   -0.61135E+03   -0.60108E+03  7696   0.172E+02
DAV:   4    -0.395746944339E+03   -0.15707E+02   -0.15609E+02  7696   0.290E+01
DAV:   5    -0.396204029748E+03   -0.45709E+00   -0.45592E+00  7696   0.417E+00
SDA:   6    -0.163499776056E+03    0.23270E+03   -0.45592E+00  7696   0.105E+04 0.000E+00
CGA:   7    -0.250382310820E+03   -0.86883E+02   -0.11059E+03  7696   0.159E+04-0.359E+02
CGA:   8    -0.283684601221E+03   -0.33302E+02   -0.43721E+02  7696   0.425E+03-0.174E+03
CGA:   9    -0.292257259472E+03   -0.85727E+01   -0.63158E+01  7696   0.300E+03 0.205E+03
CGA:  10    -0.261120756146E+03    0.31137E+02   -0.19000E+02  7696   0.128E+04-0.289E+03
CGA:  11    -0.296762650675E+03   -0.35642E+02   -0.27986E+02  7696   0.122E+04-0.277E+03
CGA:  12    -0.287967858561E+03    0.87948E+01   -0.32525E+02  7696   0.730E+03-0.245E+03
CGA:  13    -0.308779999328E+03   -0.20812E+02   -0.74148E+01  7696   0.566E+03 0.881E+03
CGA:  14    -0.292707663456E+03    0.16072E+02   -0.21959E+02  7696   0.206E+04-0.656E+03
CGA:  15    -0.303914145161E+03   -0.11206E+02   -0.84080E+02  7696   0.396E+03-0.332E+03
CGA:  16    -0.313054552184E+03   -0.91404E+01   -0.83451E+01  7696   0.737E+03-0.386E+03
CGA:  17    -0.295854508317E+03    0.17200E+02   -0.35541E+02  7696   0.858E+03-0.535E+03
CGA:  18    -0.319498959982E+03   -0.23644E+02   -0.12547E+02  7696   0.249E+03 0.309E+03
CGA:  19    -0.295292611744E+03    0.24206E+02   -0.86743E+01  7696   0.190E+04-0.746E+03
CGA:  20    -0.302106531861E+03   -0.68139E+01   -0.53273E+02  7696   0.161E+04-0.535E+03
CGA:  21    -0.308145463708E+03   -0.60389E+01   -0.29742E+02  7696   0.613E+03-0.976E+02
CGA:  22    -0.303837850824E+03    0.43076E+01   -0.12973E+02  7696   0.289E+04-0.531E+03
CGA:  23    -0.308195609542E+03   -0.43578E+01   -0.99403E+02  7696   0.720E+03-0.199E+03
CGA:  24    -0.305264040998E+03    0.29316E+01   -0.19215E+02  7696   0.145E+04-0.104E+04
CGA:  25    -0.281966042482E+03    0.23298E+02   -0.54728E+02  7696   0.136E+04-0.370E+03
CGA:  26    -0.307150403272E+03   -0.25184E+02   -0.14401E+02  7696   0.405E+03 0.517E+03
CGA:  27    -0.323729028504E+03   -0.16579E+02   -0.10079E+02  7696   0.134E+03 0.121E+02
CGA:  28    -0.321968587311E+03    0.17604E+01   -0.21855E+01  7696   0.994E+03 0.141E+03
CGA:  29    -0.302344988961E+03    0.19624E+02   -0.35380E+02  7696   0.677E+03-0.241E+03
CGA:  30    -0.319700352463E+03   -0.17355E+02   -0.12506E+02  7696   0.645E+03-0.921E+03
CGA:  31    -0.293301825977E+03    0.26399E+02   -0.16962E+02  7696   0.223E+04-0.103E+04
CGA:  32    -0.317721025226E+03   -0.24419E+02   -0.46800E+02  7696   0.692E+03-0.843E+03
CGA:  33    -0.326498741906E+03   -0.87777E+01   -0.10035E+02  7696   0.574E+03 0.120E+03
CGA:  34    -0.283702762098E+03    0.42796E+02   -0.15135E+02  7696   0.152E+04-0.427E+03
CGA:  35    -0.315336229096E+03   -0.31633E+02   -0.21712E+02  7696   0.131E+04-0.156E+04
CGA:  36    -0.291883101794E+03    0.23453E+02   -0.33919E+02  7696   0.135E+04-0.657E+03
CGA:  37    -0.316859306545E+03   -0.24976E+02   -0.22391E+02  7696   0.707E+03-0.410E+03
CGA:  38    -0.314590634191E+03    0.22687E+01   -0.12341E+02  7696   0.773E+03-0.665E+03
CGA:  39    -0.307152791586E+03    0.74378E+01   -0.18433E+02  7696   0.125E+04-0.718E+03
CGA:  40    -0.300136332927E+03    0.70165E+01   -0.30779E+02  7696   0.190E+04-0.368E+03
CGA:  41    -0.303026157045E+03   -0.28898E+01   -0.37764E+02  7696   0.207E+04 0.138E+03
CGA:  42    -0.320981959060E+03   -0.17956E+02   -0.64201E+02  7696   0.390E+03 0.402E+02
CGA:  43    -0.324486470696E+03   -0.35045E+01   -0.50426E+01  7696   0.147E+03-0.207E+02
CGA:  44    -0.326864676354E+03   -0.23782E+01   -0.94096E+00  7696   0.168E+03 0.192E+03
CGA:  45    -0.330310414879E+03   -0.34457E+01   -0.16395E+01  7696   0.126E+03 0.174E+03
CGA:  46    -0.331742597680E+03   -0.14322E+01   -0.71464E+00  7696   0.732E+02 0.114E+03
CGA:  47    -0.332478705747E+03   -0.73611E+00   -0.42255E+00  7696   0.364E+02 0.521E+02
CGA:  48    -0.332829637000E+03   -0.35093E+00   -0.17495E+00  7696   0.300E+02 0.366E+02
CGA:  49    -0.333150747524E+03   -0.32111E+00   -0.15674E+00  7696   0.241E+02 0.309E+02
CGA:  50    -0.333449100444E+03   -0.29835E+00   -0.15777E+00  7696   0.133E+02 0.201E+02
CGA:  51    -0.333652830732E+03   -0.20373E+00   -0.13449E+00  7696   0.373E+01 0.574E+01
CGA:  52    -0.333738070076E+03   -0.85239E-01   -0.73780E-01  7696   0.428E+01 0.609E+00
CGA:  53    -0.333851315976E+03   -0.11325E+00   -0.10451E+00  7696   0.118E+02 0.226E+00
CGA:  54    -0.333912481197E+03   -0.61165E-01   -0.33910E-01  7696   0.128E+02 0.994E+01
CGA:  55    -0.334095749700E+03   -0.18327E+00   -0.21698E+00  7696   0.300E+01-0.681E+00
CGA:  56    -0.334184380417E+03   -0.88631E-01   -0.88584E-01  7696   0.459E+01-0.217E-01
CGA:  57    -0.334518379267E+03   -0.33400E+00   -0.32320E+00  7696   0.135E+02 0.299E+00
CGA:  58    -0.334598618573E+03   -0.80239E-01   -0.43956E-01  7696   0.932E+01 0.117E+02
CGA:  59    -0.334688238194E+03   -0.89620E-01   -0.67623E-01  7696   0.140E+01 0.259E+01
CGA:  60    -0.334711654161E+03   -0.23416E-01   -0.21365E-01  7696   0.149E+01 0.121E+00
CGA:  61    -0.334742843320E+03   -0.31189E-01   -0.30238E-01  7696   0.266E+01 0.211E-01
CGA:  62    -0.334774963057E+03   -0.32120E-01   -0.31036E-01  7696   0.358E+01 0.805E-01
CGA:  63    -0.334837951829E+03   -0.62989E-01   -0.61871E-01  7696   0.706E+01 0.962E-01
CGA:  64    -0.334868507903E+03   -0.30556E-01   -0.17273E-01  7696   0.636E+01 0.553E+01
CGA:  65    -0.334944201340E+03   -0.75693E-01   -0.65313E-01  7696   0.127E+01 0.699E+00
CGA:  66    -0.334972923628E+03   -0.28722E-01   -0.29996E-01  7696   0.541E+00 0.800E-01
CGA:  67    -0.335012204929E+03   -0.39281E-01   -0.41164E-01  7696   0.199E+01-0.532E-01
CGA:  68    -0.335031801573E+03   -0.19597E-01   -0.17331E-01  7696   0.111E+01 0.189E+00
CGA:  69    -0.335050149793E+03   -0.18348E-01   -0.17238E-01  7696   0.180E+01 0.390E-01
CGA:  70    -0.335076489603E+03   -0.26340E-01   -0.23273E-01  7696   0.246E+01 0.152E+00
CGA:  71    -0.335098891890E+03   -0.22402E-01   -0.21822E-01  7696   0.225E+01 0.393E-01
CGA:  72    -0.335123630802E+03   -0.24739E-01   -0.22795E-01  7696   0.334E+01 0.188E+00
CGA:  73    -0.335137959822E+03   -0.14329E-01   -0.82632E-02  7696   0.287E+01 0.264E+01
CGA:  74    -0.335164938047E+03   -0.26978E-01   -0.25801E-01  7696   0.440E+00 0.891E-01
CGA:  75    -0.335174480497E+03   -0.95424E-02   -0.96073E-02  7696   0.157E+00 0.222E-01
CGA:  76    -0.335185631927E+03   -0.11151E-01   -0.97301E-02  7696   0.258E+00 0.390E-01
CGA:  77    -0.335190238919E+03   -0.46070E-02   -0.46235E-02  7696   0.175E+00-0.256E-03
CGA:  78    -0.335196479604E+03   -0.62407E-02   -0.61434E-02  7696   0.315E+00 0.613E-02
CGA:  79    -0.335203675711E+03   -0.71961E-02   -0.71827E-02  7696   0.401E+00-0.226E-02
CGA:  80    -0.335217906993E+03   -0.14231E-01   -0.14266E-01  7696   0.252E+00-0.769E-02
CGA:  81    -0.335220924792E+03   -0.30178E-02   -0.30109E-02  7696   0.886E-01 0.376E-03
CGA:  82    -0.335224547961E+03   -0.36232E-02   -0.35700E-02  7696   0.199E+00 0.255E-02
CGA:  83    -0.335227512585E+03   -0.29646E-02   -0.29579E-02  7696   0.504E-01-0.240E-03
CGA:  84    -0.335228716179E+03   -0.12036E-02   -0.12039E-02  7696   0.572E-01 0.151E-05
CGA:  85    -0.335230069536E+03   -0.13534E-02   -0.13531E-02  7696   0.584E-01-0.547E-03
CGA:  86    -0.335231953792E+03   -0.18843E-02   -0.18643E-02  7696   0.106E+00 0.155E-02
CGA:  87    -0.335234252895E+03   -0.22991E-02   -0.23097E-02  7696   0.417E-01 0.893E-03
CGA:  88    -0.335234849363E+03   -0.59647E-03   -0.59982E-03  7696   0.182E-01-0.260E-03
CGA:  89    -0.335235334202E+03   -0.48484E-03   -0.48440E-03  7696   0.272E-01-0.762E-04
CGA:  90    -0.335236044384E+03   -0.71018E-03   -0.71002E-03  7696   0.241E-01-0.930E-04
CGA:  91    -0.335236556332E+03   -0.51195E-03   -0.51242E-03  7696   0.185E-01-0.684E-04
CGA:  92    -0.335236980496E+03   -0.42416E-03   -0.42424E-03  7696   0.171E-01-0.635E-04
CGA:  93    -0.335237347351E+03   -0.36685E-03   -0.36702E-03  7696   0.155E-01-0.825E-04
CGA:  94    -0.335237832637E+03   -0.48529E-03   -0.48429E-03  7696   0.225E-01 0.351E-04
CGA:  95    -0.335238396472E+03   -0.56383E-03   -0.56380E-03  7696   0.182E-01-0.762E-04
CGA:  96    -0.335238720185E+03   -0.32371E-03   -0.32416E-03  7696   0.115E-01-0.972E-04
CGA:  97    -0.335239020775E+03   -0.30059E-03   -0.30073E-03  7696   0.135E-01-0.995E-04
CGA:  98    -0.335239419747E+03   -0.39897E-03   -0.39873E-03  7696   0.162E-01-0.294E-04
CGA:  99    -0.335239800768E+03   -0.38102E-03   -0.38091E-03  7696   0.146E-01-0.152E-03
CGA: 100    -0.335240090230E+03   -0.28946E-03   -0.28902E-03  7696   0.785E-02-0.118E-03
CGA: 101    -0.335240251179E+03   -0.16095E-03   -0.16093E-03  7696   0.626E-02-0.428E-04
CGA: 102    -0.335240484450E+03   -0.23327E-03   -0.23400E-03  7696   0.140E-01-0.563E-04
CGA: 103    -0.335240879529E+03   -0.39508E-03   -0.39512E-03  7696   0.120E-01-0.350E-04
SDA: 104    -0.335241088217E+03   -0.20869E-03   -0.20859E-03  7696   0.579E-02-0.176E-04
CGA: 105    -0.335241145906E+03   -0.57689E-04   -0.57715E-04  7696   0.269E-02 0.357E-05
CGA: 106    -0.335241353708E+03   -0.20780E-03   -0.20295E-03  7696   0.719E-02 0.979E-04
CGA: 107    -0.335241465475E+03   -0.11177E-03   -0.11244E-03  7696   0.257E-02 0.382E-04
CGA: 108    -0.335241661818E+03   -0.19634E-03   -0.18952E-03  7696   0.390E-02 0.144E-03
CGA: 109    -0.335241910775E+03   -0.24896E-03   -0.24164E-03  7696   0.134E-01 0.243E-03
CGA: 110    -0.335242249440E+03   -0.33867E-03   -0.33614E-03  7696   0.564E-02 0.505E-04
CGA: 111    -0.335242385652E+03   -0.13621E-03   -0.13679E-03  7696   0.905E-02 0.834E-04
CGA: 112    -0.335242586730E+03   -0.20108E-03   -0.20100E-03  7696   0.395E-02 0.844E-04
CGA: 113    -0.335242763231E+03   -0.17650E-03   -0.17713E-03  7696   0.886E-02-0.268E-04
CGA: 114    -0.335242953765E+03   -0.19053E-03   -0.19124E-03  7696   0.208E-02 0.707E-04
CGA: 115    -0.335243037850E+03   -0.84084E-04   -0.84124E-04  7696   0.433E-02-0.356E-05
CGA: 116    -0.335243104060E+03   -0.66211E-04   -0.65597E-04  7696   0.253E-02 0.957E-05
CGA: 117    -0.335243263952E+03   -0.15989E-03   -0.16140E-03  7696   0.198E-02-0.460E-04
CGA: 118    -0.335243291870E+03   -0.27918E-04   -0.27614E-04  7696   0.123E-02-0.875E-05
CGA: 119    -0.335243441471E+03   -0.14960E-03   -0.16706E-03  7696   0.116E-01-0.175E-03
CGA: 120    -0.335243545236E+03   -0.10376E-03   -0.98993E-04  7696   0.207E-02 0.222E-03
CGA: 121    -0.335243567563E+03   -0.22327E-04   -0.22056E-04  7696   0.185E-02-0.200E-04
CGA: 122    -0.335243613860E+03   -0.46297E-04   -0.45993E-04  7696   0.203E-02-0.343E-04
CGA: 123    -0.335243631902E+03   -0.18042E-04   -0.17846E-04  7696   0.107E-02-0.226E-04
CGA: 124    -0.335243670596E+03   -0.38694E-04   -0.38864E-04  7696   0.469E-02-0.303E-04
CGA: 125    -0.335243747620E+03   -0.77024E-04   -0.75483E-04  7696   0.327E-02-0.349E-04
CGA: 126    -0.335243779144E+03   -0.31524E-04   -0.31316E-04  7696   0.186E-02-0.374E-04
CGA: 127    -0.335243812474E+03   -0.33331E-04   -0.33276E-04  7696   0.300E-02-0.182E-04
CGA: 128    -0.335243862282E+03   -0.49808E-04   -0.49940E-04  7696   0.270E-02-0.320E-04
CGA: 129    -0.335243896434E+03   -0.34151E-04   -0.34025E-04  7696   0.280E-02-0.241E-04
CGA: 130    -0.335243973758E+03   -0.77324E-04   -0.77333E-04  7696   0.532E-02-0.533E-04
CGA: 131    -0.335244018895E+03   -0.45137E-04   -0.44158E-04  7696   0.123E-02 0.466E-04
CGA: 132    -0.335244033727E+03   -0.14832E-04   -0.14861E-04  7696   0.169E-02-0.390E-05
CGA: 133    -0.335244100393E+03   -0.66665E-04   -0.67095E-04  7696   0.621E-02-0.270E-04
CGA: 134    -0.335244159299E+03   -0.58907E-04   -0.56459E-04  7696   0.300E-02 0.217E-03
SDA: 135    -0.335244196299E+03   -0.37000E-04   -0.37514E-04  7696   0.391E-02-0.147E-04
CGA: 136    -0.335244245226E+03   -0.48927E-04   -0.49089E-04  7696   0.202E-02 0.421E-05
CGA: 137    -0.335244305363E+03   -0.60137E-04   -0.60071E-04  7696   0.150E-02 0.144E-04
CGA: 138    -0.335244449574E+03   -0.14421E-03   -0.13880E-03  7696   0.724E-02 0.808E-04
CGA: 139    -0.335244601298E+03   -0.15172E-03   -0.15153E-03  7696   0.161E-02 0.677E-04
CGA: 140    -0.335244750179E+03   -0.14888E-03   -0.14582E-03  7696   0.462E-02 0.425E-04
CGA: 141    -0.335244859610E+03   -0.10943E-03   -0.11019E-03  7696   0.394E-02 0.634E-04
CGA: 142    -0.335244979254E+03   -0.11964E-03   -0.11970E-03  7696   0.126E-02 0.917E-04
CGA: 143    -0.335244996294E+03   -0.17040E-04   -0.17184E-04  7696   0.676E-03 0.456E-05
CGA: 144    -0.335245040626E+03   -0.44332E-04   -0.44000E-04  7696   0.115E-02 0.922E-05
CGA: 145    -0.335245068368E+03   -0.27742E-04   -0.27736E-04  7696   0.123E-02 0.217E-05
CGA: 146    -0.335245129476E+03   -0.61107E-04   -0.60694E-04  7696   0.543E-03 0.204E-04
CGA: 147    -0.335245146309E+03   -0.16833E-04   -0.16830E-04  7696   0.113E-02-0.298E-05
CGA: 148    -0.335245208723E+03   -0.62414E-04   -0.62791E-04  7696   0.101E-02-0.157E-04
CGA: 149    -0.335245222028E+03   -0.13304E-04   -0.13287E-04  7696   0.454E-03-0.656E-05
CGA: 150    -0.335245257642E+03   -0.35614E-04   -0.36513E-04  7696   0.130E-02-0.194E-04
CGA: 151    -0.335245303702E+03   -0.46060E-04   -0.46085E-04  7696   0.219E-02-0.104E-04
CGA: 152    -0.335245365036E+03   -0.61334E-04   -0.61249E-04  7696   0.463E-03-0.156E-04
CGA: 153    -0.335245387603E+03   -0.22567E-04   -0.22624E-04  7696   0.148E-02-0.445E-05
CGA: 154    -0.335245462172E+03   -0.74569E-04   -0.74761E-04  7696   0.169E-02-0.148E-04
CGA: 155    -0.335245523164E+03   -0.60992E-04   -0.61026E-04  7696   0.114E-02-0.388E-04
CGA: 156    -0.335245542474E+03   -0.19310E-04   -0.19136E-04  7696   0.615E-03-0.323E-05
CGA: 157    -0.335245609083E+03   -0.66609E-04   -0.66446E-04  7696   0.169E-02 0.177E-05
CGA: 158    -0.335245635628E+03   -0.26545E-04   -0.26884E-04  7696   0.662E-03-0.520E-05
CGA: 159    -0.335245661141E+03   -0.25513E-04   -0.25487E-04  7696   0.519E-03 0.168E-04
CGA: 160    -0.335245695988E+03   -0.34847E-04   -0.34199E-04  7696   0.180E-02 0.240E-04
CGA: 161    -0.335245755261E+03   -0.59273E-04   -0.59727E-04  7696   0.101E-02 0.447E-04
CGA: 162    -0.335245798983E+03   -0.43722E-04   -0.43782E-04  7696   0.509E-03 0.331E-05
CGA: 163    -0.335245808138E+03   -0.91551E-05   -0.92732E-05  7696   0.358E-03 0.822E-05
CGA: 164    -0.335245835949E+03   -0.27810E-04   -0.26872E-04  7696   0.676E-03 0.257E-04
CGA: 165    -0.335245851627E+03   -0.15678E-04   -0.15925E-04  7696   0.476E-03 0.147E-04
SDA: 166    -0.335245863808E+03   -0.12182E-04   -0.12289E-04  7696   0.150E-03 0.107E-04
CGA: 167    -0.335245872650E+03   -0.88418E-05   -0.88545E-05  7696   0.463E-03-0.683E-06
CGA: 168    -0.335245885063E+03   -0.12413E-04   -0.12378E-04  7696   0.311E-03-0.320E-05
CGA: 169    -0.335245897502E+03   -0.12439E-04   -0.12450E-04  7696   0.263E-03-0.531E-05
CGA: 170    -0.335245902618E+03   -0.51166E-05   -0.51154E-05  7696   0.214E-03-0.978E-06
CGA: 171    -0.335245920828E+03   -0.18209E-04   -0.18007E-04  7696   0.127E-03 0.438E-05
CGA: 172    -0.335245926677E+03   -0.58492E-05   -0.58457E-05  7696   0.485E-04 0.210E-06
   1 F= -.33524593E+03 E0= -.33522010E+03  d E =-.335246E+03  mag=    32.0000
       N       E                     dE             d eps       ncg     rms          ort
SDA:   1    -0.335226047558E+03    0.19873E-01    0.00000E+00  7696   0.266E+01 0.000E+00
CGA:   2    -0.335247758621E+03   -0.21711E-01   -0.23231E-01  7696   0.157E-01-0.155E+00
CGA:   3    -0.335247948862E+03   -0.19024E-03   -0.18986E-03  7696   0.408E-02 0.176E-04
CGA:   4    -0.335248061562E+03   -0.11270E-03   -0.11228E-03  7696   0.100E-02-0.463E-05
CGA:   5    -0.335248099921E+03   -0.38359E-04   -0.38355E-04  7696   0.204E-02 0.273E-05
CGA:   6    -0.335248161083E+03   -0.61162E-04   -0.61235E-04  7696   0.992E-03 0.791E-05
CGA:   7    -0.335248201031E+03   -0.39948E-04   -0.39932E-04  7696   0.785E-03 0.391E-05
CGA:   8    -0.335248217117E+03   -0.16086E-04   -0.16111E-04  7696   0.645E-03 0.552E-06
CGA:   9    -0.335248252514E+03   -0.35397E-04   -0.35467E-04  7696   0.238E-03-0.359E-05
CGA:  10    -0.335248256525E+03   -0.40110E-05   -0.39971E-05  7696   0.141E-03-0.662E-06
   2 F= -.33524826E+03 E0= -.33522237E+03  d E =-.232985E-02  mag=    32.0000
       N       E                     dE             d eps       ncg     rms          ort
SDA:   1    -0.335105203094E+03    0.14305E+00    0.00000E+00  7696   0.540E+01 0.000E+00
CGA:   2    -0.335153353404E+03   -0.48150E-01   -0.59664E-01  7696   0.770E+00-0.810E+00
CGA:   3    -0.335180308940E+03   -0.26956E-01   -0.27139E-01  7696   0.141E+01-0.187E-01
CGA:   4    -0.335226856155E+03   -0.46547E-01   -0.46575E-01  7696   0.128E+01 0.837E-02
CGA:   5    -0.335257068578E+03   -0.30212E-01   -0.30349E-01  7696   0.572E+00-0.938E-04
CGA:   6    -0.335269484995E+03   -0.12416E-01   -0.12364E-01  7696   0.232E+00 0.501E-03
CGA:   7    -0.335278526030E+03   -0.90410E-02   -0.90337E-02  7696   0.349E+00 0.962E-03
CGA:   8    -0.335292290129E+03   -0.13764E-01   -0.13776E-01  7696   0.239E+00-0.149E-02
CGA:   9    -0.335296440809E+03   -0.41507E-02   -0.41619E-02  7696   0.605E-01-0.332E-03
CGA:  10    -0.335297923152E+03   -0.14823E-02   -0.14826E-02  7696   0.536E-01 0.464E-05
CGA:  11    -0.335300032972E+03   -0.21098E-02   -0.21132E-02  7696   0.641E-01-0.363E-03
CGA:  12    -0.335301741510E+03   -0.17085E-02   -0.17130E-02  7696   0.295E-01 0.171E-03
CGA:  13    -0.335302421430E+03   -0.67992E-03   -0.67778E-03  7696   0.122E-01-0.215E-04
CGA:  14    -0.335302775065E+03   -0.35364E-03   -0.35385E-03  7696   0.107E-01 0.266E-04
CGA:  15    -0.335303172888E+03   -0.39782E-03   -0.39805E-03  7696   0.129E-01-0.301E-04
CGA:  16    -0.335303499160E+03   -0.32627E-03   -0.32639E-03  7696   0.694E-02 0.737E-05
CGA:  17    -0.335303655555E+03   -0.15640E-03   -0.15645E-03  7696   0.372E-02-0.472E-06
CGA:  18    -0.335303785482E+03   -0.12993E-03   -0.12996E-03  7696   0.428E-02-0.950E-05
CGA:  19    -0.335303953630E+03   -0.16815E-03   -0.16817E-03  7696   0.408E-02-0.338E-05
CGA:  20    -0.335304053057E+03   -0.99427E-04   -0.99391E-04  7696   0.174E-02-0.216E-05
CGA:  21    -0.335304096600E+03   -0.43543E-04   -0.43564E-04  7696   0.136E-02 0.190E-05
CGA:  22    -0.335304146524E+03   -0.49924E-04   -0.49892E-04  7696   0.188E-02 0.559E-05
CGA:  23    -0.335304208733E+03   -0.62210E-04   -0.62210E-04  7696   0.152E-02 0.910E-06
CGA:  24    -0.335304245269E+03   -0.36536E-04   -0.36577E-04  7696   0.559E-03 0.373E-05
CGA:  25    -0.335304259177E+03   -0.13907E-04   -0.13898E-04  7696   0.387E-03-0.707E-06
CGA:  26    -0.335304279425E+03   -0.20248E-04   -0.20204E-04  7696   0.800E-03 0.201E-05
CGA:  27    -0.335304303495E+03   -0.24070E-04   -0.24068E-04  7696   0.416E-03-0.101E-05
CGA:  28    -0.335304310789E+03   -0.72938E-05   -0.72964E-05  7696   0.138E-03 0.360E-07
   3 F= -.33530431E+03 E0= -.33527831E+03  d E =-.560543E-01  mag=    32.0000
       N       E                     dE             d eps       ncg     rms          ort
SDA:   1    -0.333784537632E+03    0.15198E+01    0.00000E+00  7696   0.830E+02 0.000E+00
CGA:   2    -0.334287181555E+03   -0.50264E+00   -0.10488E+01  7696   0.186E+02-0.275E+02
CGA:   3    -0.334541007841E+03   -0.25383E+00   -0.23159E+00  7696   0.377E+01 0.246E+00
CGA:   4    -0.334660001140E+03   -0.11899E+00   -0.11900E+00  7696   0.748E+01-0.171E-02
CGA:   5    -0.335151234815E+03   -0.49123E+00   -0.48732E+00  7696   0.525E+01 0.114E+00
CGA:   6    -0.335225474510E+03   -0.74240E-01   -0.72030E-01  7696   0.819E+00 0.110E+00
CGA:   7    -0.335294040331E+03   -0.68566E-01   -0.67421E-01  7696   0.251E+01 0.251E-01
CGA:   8    -0.335357631382E+03   -0.63591E-01   -0.62950E-01  7696   0.942E+00-0.877E-02
CGA:   9    -0.335384244855E+03   -0.26613E-01   -0.26868E-01  7696   0.301E+00 0.216E-01
CGA:  10    -0.335390696227E+03   -0.64514E-02   -0.63995E-02  7696   0.204E+00 0.305E-03
CGA:  11    -0.335401561713E+03   -0.10865E-01   -0.10751E-01  7696   0.264E+00 0.492E-02
CGA:  12    -0.335408096929E+03   -0.65352E-02   -0.65074E-02  7696   0.198E+00-0.420E-03
CGA:  13    -0.335412438345E+03   -0.43414E-02   -0.43260E-02  7696   0.549E-01 0.324E-04
CGA:  14    -0.335413703812E+03   -0.12655E-02   -0.12670E-02  7696   0.513E-01 0.254E-04
CGA:  15    -0.335416560660E+03   -0.28568E-02   -0.28629E-02  7696   0.473E-01-0.243E-03
CGA:  16    -0.335417674791E+03   -0.11141E-02   -0.11166E-02  7696   0.292E-01 0.495E-04
CGA:  17    -0.335418565970E+03   -0.89118E-03   -0.89106E-03  7696   0.173E-01-0.239E-04
CGA:  18    -0.335419410801E+03   -0.84483E-03   -0.84337E-03  7696   0.375E-01 0.744E-04
CGA:  19    -0.335420414783E+03   -0.10040E-02   -0.10025E-02  7696   0.100E-01-0.779E-04
CGA:  20    -0.335420579314E+03   -0.16453E-03   -0.16465E-03  7696   0.565E-02-0.129E-05
CGA:  21    -0.335420931289E+03   -0.35198E-03   -0.35034E-03  7696   0.133E-01 0.540E-04
CGA:  22    -0.335421339224E+03   -0.40793E-03   -0.40796E-03  7696   0.948E-02 0.933E-05
CGA:  23    -0.335421583607E+03   -0.24438E-03   -0.24452E-03  7696   0.257E-02 0.102E-04
CGA:  24    -0.335421655388E+03   -0.71781E-04   -0.71751E-04  7696   0.307E-02-0.281E-05
CGA:  25    -0.335421874437E+03   -0.21905E-03   -0.21852E-03  7696   0.371E-02 0.141E-04
CGA:  26    -0.335421947276E+03   -0.72838E-04   -0.72695E-04  7696   0.149E-02 0.814E-06
CGA:  27    -0.335421991856E+03   -0.44580E-04   -0.44609E-04  7696   0.113E-02 0.397E-05
CGA:  28    -0.335422027759E+03   -0.35904E-04   -0.35903E-04  7696   0.183E-02-0.647E-06
CGA:  29    -0.335422107114E+03   -0.79354E-04   -0.79347E-04  7696   0.124E-02 0.693E-06
CGA:  30    -0.335422125543E+03   -0.18429E-04   -0.18457E-04  7696   0.246E-03 0.209E-06
CGA:  31    -0.335422139754E+03   -0.14211E-04   -0.14225E-04  7696   0.598E-03-0.553E-06
SDA:  32    -0.335422162124E+03   -0.22370E-04   -0.22361E-04  7696   0.543E-03 0.276E-05
CGA:  33    -0.335422169199E+03   -0.70747E-05   -0.70602E-05  7696   0.126E-03-0.348E-07
   4 F= -.33542217E+03 E0= -.33539597E+03  d E =-.117858E+00  mag=    32.0000
       N       E                     dE             d eps       ncg     rms          ort
SDA:   1    -0.333320418479E+03    0.21017E+01    0.00000E+00  7696   0.893E+02 0.000E+00
CGA:   2    -0.333825585384E+03   -0.50517E+00   -0.11867E+01  7696   0.270E+02-0.331E+02
CGA:   3    -0.334223300362E+03   -0.39771E+00   -0.36131E+00  7696   0.642E+01-0.192E-01
CGA:   4    -0.334398856569E+03   -0.17556E+00   -0.17617E+00  7696   0.987E+01 0.511E-01
CGA:   5    -0.335048162560E+03   -0.64931E+00   -0.64247E+00  7696   0.115E+02 0.219E+00
CGA:   6    -0.335239752095E+03   -0.19159E+00   -0.18491E+00  7696   0.179E+01 0.226E+00
CGA:   7    -0.335296293069E+03   -0.56541E-01   -0.56675E-01  7696   0.186E+01 0.579E-01
CGA:   8    -0.335371841536E+03   -0.75548E-01   -0.75786E-01  7696   0.281E+01-0.220E-01
CGA:   9    -0.335455321494E+03   -0.83480E-01   -0.83461E-01  7696   0.141E+01-0.345E-02
CGA:  10    -0.335475696656E+03   -0.20375E-01   -0.21096E-01  7696   0.279E+00-0.276E-01
CGA:  11    -0.335483281689E+03   -0.75850E-02   -0.75523E-02  7696   0.290E+00-0.316E-02
CGA:  12    -0.335495803864E+03   -0.12522E-01   -0.12460E-01  7696   0.320E+00 0.397E-02
CGA:  13    -0.335504665875E+03   -0.88620E-02   -0.88492E-02  7696   0.187E+00-0.926E-03
CGA:  14    -0.335508394775E+03   -0.37289E-02   -0.37838E-02  7696   0.607E-01-0.225E-03
CGA:  15    -0.335509939759E+03   -0.15450E-02   -0.15447E-02  7696   0.651E-01-0.101E-04
CGA:  16    -0.335512885027E+03   -0.29453E-02   -0.29460E-02  7696   0.765E-01-0.360E-04
CGA:  17    -0.335514618643E+03   -0.17336E-02   -0.17351E-02  7696   0.362E-01 0.321E-04
CGA:  18    -0.335515731862E+03   -0.11132E-02   -0.11132E-02  7696   0.247E-01-0.758E-04
CGA:  19    -0.335516438378E+03   -0.70652E-03   -0.70661E-03  7696   0.255E-01 0.150E-04
CGA:  20    -0.335517561047E+03   -0.11227E-02   -0.11221E-02  7696   0.315E-01 0.334E-04
CGA:  21    -0.335518119785E+03   -0.55874E-03   -0.55736E-03  7696   0.796E-02 0.187E-04
CGA:  22    -0.335518361200E+03   -0.24141E-03   -0.24145E-03  7696   0.105E-01 0.345E-04
CGA:  23    -0.335518923123E+03   -0.56192E-03   -0.56236E-03  7696   0.149E-01-0.171E-04
CGA:  24    -0.335519301217E+03   -0.37809E-03   -0.37873E-03  7696   0.667E-02 0.372E-04
CGA:  25    -0.335519448348E+03   -0.14713E-03   -0.14685E-03  7696   0.322E-02 0.388E-06
CGA:  26    -0.335519557791E+03   -0.10944E-03   -0.10942E-03  7696   0.499E-02 0.628E-05
CGA:  27    -0.335519757711E+03   -0.19992E-03   -0.19990E-03  7696   0.499E-02 0.231E-05
CGA:  28    -0.335519865133E+03   -0.10742E-03   -0.10742E-03  7696   0.195E-02 0.106E-05
CGA:  29    -0.335519919089E+03   -0.53956E-04   -0.53975E-04  7696   0.127E-02 0.334E-05
CGA:  30    -0.335519964125E+03   -0.45036E-04   -0.45041E-04  7696   0.173E-02-0.934E-06
CGA:  31    -0.335520036752E+03   -0.72627E-04   -0.72622E-04  7696   0.169E-02 0.213E-06
SDA:  32    -0.335520066586E+03   -0.29834E-04   -0.29883E-04  7696   0.499E-03 0.630E-06
CGA:  33    -0.335520072684E+03   -0.60977E-05   -0.60941E-05  7696   0.203E-03 0.356E-06
CGA:  34    -0.335520086200E+03   -0.13517E-04   -0.13377E-04  7696   0.343E-03 0.394E-05
CGA:  35    -0.335520111969E+03   -0.25769E-04   -0.25705E-04  7696   0.760E-03 0.151E-05
CGA:  36    -0.335520124308E+03   -0.12339E-04   -0.12314E-04  7696   0.176E-03-0.291E-06
CGA:  37    -0.335520134820E+03   -0.10511E-04   -0.10499E-04  7696   0.186E-03 0.460E-06
CGA:  38    -0.335520148784E+03   -0.13964E-04   -0.13957E-04  7696   0.117E-03 0.157E-06
CGA:  39    -0.335520152015E+03   -0.32309E-05   -0.32273E-05  7696   0.153E-03-0.394E-06
   5 F= -.33552015E+03 E0= -.33549380E+03  d E =-.979828E-01  mag=    32.0000
       N       E                     dE             d eps       ncg     rms          ort
SDA:   1    -0.332235509503E+03    0.32846E+01    0.00000E+00  7696   0.700E+02 0.000E+00
CGA:   2    -0.332677109980E+03   -0.44160E+00   -0.97003E+00  7696   0.298E+02-0.253E+02
CGA:   3    -0.333355380735E+03   -0.67827E+00   -0.68295E+00  7696   0.270E+02-0.184E+01
CGA:   4    -0.333897932030E+03   -0.54255E+00   -0.56557E+00  7696   0.175E+02-0.202E+00
CGA:   5    -0.334438745702E+03   -0.54081E+00   -0.54193E+00  7696   0.161E+02 0.158E+00
CGA:   6    -0.334907243697E+03   -0.46850E+00   -0.46447E+00  7696   0.105E+02-0.262E+00
CGA:   7    -0.335169117502E+03   -0.26187E+00   -0.26420E+00  7696   0.556E+01 0.469E-01
CGA:   8    -0.335298533933E+03   -0.12942E+00   -0.12959E+00  7696   0.318E+01-0.411E-02
CGA:   9    -0.335385264998E+03   -0.86731E-01   -0.86215E-01  7696   0.276E+01-0.290E-01
CGA:  10    -0.335469968226E+03   -0.84703E-01   -0.84897E-01  7696   0.205E+01 0.655E-01
CGA:  11    -0.335519374649E+03   -0.49406E-01   -0.48387E-01  7696   0.880E+00-0.116E-01
CGA:  12    -0.335541507552E+03   -0.22133E-01   -0.22323E-01  7696   0.528E+00 0.756E-02
CGA:  13    -0.335556595702E+03   -0.15088E-01   -0.15048E-01  7696   0.458E+00-0.473E-02
CGA:  14    -0.335569821469E+03   -0.13226E-01   -0.13241E-01  7696   0.354E+00 0.293E-02
CGA:  15    -0.335577932818E+03   -0.81113E-02   -0.81178E-02  7696   0.161E+00 0.995E-04
CGA:  16    -0.335581900123E+03   -0.39673E-02   -0.39640E-02  7696   0.968E-01-0.118E-03
CGA:  17    -0.335585096202E+03   -0.31961E-02   -0.31952E-02  7696   0.951E-01 0.206E-03
CGA:  18    -0.335588063249E+03   -0.29670E-02   -0.29671E-02  7696   0.785E-01-0.128E-04
CGA:  19    -0.335590013146E+03   -0.19499E-02   -0.19493E-02  7696   0.477E-01-0.123E-04
CGA:  20    -0.335591182518E+03   -0.11694E-02   -0.11717E-02  7696   0.300E-01 0.126E-03
CGA:  21    -0.335592087708E+03   -0.90519E-03   -0.90520E-03  7696   0.271E-01-0.994E-04
CGA:  22    -0.335593057514E+03   -0.96981E-03   -0.96814E-03  7696   0.266E-01 0.199E-03
CGA:  23    -0.335593790529E+03   -0.73302E-03   -0.73258E-03  7696   0.164E-01-0.561E-04
CGA:  24    -0.335594196679E+03   -0.40615E-03   -0.40667E-03  7696   0.112E-01 0.323E-04
CGA:  25    -0.335594530317E+03   -0.33364E-03   -0.33364E-03  7696   0.111E-01 0.200E-05
CGA:  26    -0.335594903833E+03   -0.37352E-03   -0.37346E-03  7696   0.103E-01 0.124E-04
CGA:  27    -0.335595192571E+03   -0.28874E-03   -0.28878E-03  7696   0.627E-02 0.150E-04
CGA:  28    -0.335595362453E+03   -0.16988E-03   -0.16990E-03  7696   0.437E-02 0.488E-05
CGA:  29    -0.335595497047E+03   -0.13459E-03   -0.13459E-03  7696   0.432E-02 0.528E-05
CGA:  30    -0.335595629099E+03   -0.13205E-03   -0.13204E-03  7696   0.384E-02 0.139E-04
CGA:  31    -0.335595732580E+03   -0.10348E-03   -0.10347E-03  7696   0.238E-02 0.816E-06
SDA:  32    -0.335595796212E+03   -0.63632E-04   -0.63673E-04  7696   0.150E-02 0.874E-05
CGA:  33    -0.335595811931E+03   -0.15719E-04   -0.15666E-04  7696   0.329E-03 0.677E-06
CGA:  34    -0.335595881310E+03   -0.69379E-04   -0.76164E-05  7696   0.293E-02 0.417E-04
CGA:  35    -0.335595950114E+03   -0.68804E-04   -0.68880E-04  7696   0.627E-03-0.370E-05
CGA:  36    -0.335595967114E+03   -0.17000E-04   -0.17016E-04  7696   0.402E-03 0.458E-06
CGA:  37    -0.335595976558E+03   -0.94442E-05   -0.94915E-05  7696   0.248E-03 0.677E-06
CGA:  38    -0.335595990137E+03   -0.13578E-04   -0.13563E-04  7696   0.789E-03 0.226E-05
CGA:  39    -0.335596018943E+03   -0.28807E-04   -0.28839E-04  7696   0.398E-03 0.309E-05
CGA:  40    -0.335596025747E+03   -0.68035E-05   -0.68485E-05  7696   0.126E-03 0.654E-06
   6 F= -.33559603E+03 E0= -.33556969E+03  d E =-.758737E-01  mag=    32.0000
       N       E                     dE             d eps       ncg     rms          ort
SDA:   1    -0.329666174283E+03    0.59298E+01    0.00000E+00  7696   0.111E+03 0.000E+00
CGA:   2    -0.329742835918E+03   -0.76662E-01   -0.21919E+01  7696   0.100E+03-0.517E+02
CGA:   3    -0.331890326498E+03   -0.21475E+01   -0.20657E+01  7696   0.479E+02-0.500E+01
CGA:   4    -0.332800583502E+03   -0.91026E+00   -0.85822E+00  7696   0.179E+02 0.636E+00
CGA:   5    -0.333390172582E+03   -0.58959E+00   -0.60611E+00  7696   0.224E+02 0.389E+00
CGA:   6    -0.334364282956E+03   -0.97411E+00   -0.97398E+00  7696   0.355E+02-0.353E+00
CGA:   7    -0.335162916979E+03   -0.79863E+00   -0.80896E+00  7696   0.122E+02-0.382E+00
CGA:   8    -0.335317005367E+03   -0.15409E+00   -0.20346E+00  7696   0.411E+01-0.195E+01
CGA:   9    -0.335404114988E+03   -0.87110E-01   -0.82696E-01  7696   0.177E+01 0.506E-01
CGA:  10    -0.335459638494E+03   -0.55524E-01   -0.56313E-01  7696   0.201E+01 0.225E-01
CGA:  11    -0.335539383409E+03   -0.79745E-01   -0.79725E-01  7696   0.265E+01-0.487E-01
CGA:  12    -0.335597696127E+03   -0.58313E-01   -0.59866E-01  7696   0.915E+00-0.194E-01
CGA:  13    -0.335611851964E+03   -0.14156E-01   -0.14324E-01  7696   0.198E+00-0.734E-02
CGA:  14    -0.335617442609E+03   -0.55906E-02   -0.55852E-02  7696   0.202E+00-0.793E-04
CGA:  15    -0.335626730753E+03   -0.92881E-02   -0.92593E-02  7696   0.283E+00 0.226E-02
CGA:  16    -0.335634500839E+03   -0.77701E-02   -0.77861E-02  7696   0.188E+00 0.313E-03
CGA:  17    -0.335638730455E+03   -0.42296E-02   -0.42158E-02  7696   0.777E-01 0.187E-03
CGA:  18    -0.335640242903E+03   -0.15124E-02   -0.15245E-02  7696   0.308E-01-0.215E-03
CGA:  19    -0.335641405144E+03   -0.11622E-02   -0.11629E-02  7696   0.495E-01-0.157E-03
CGA:  20    -0.335643774445E+03   -0.23693E-02   -0.23527E-02  7696   0.540E-01 0.101E-02
CGA:  21    -0.335644858543E+03   -0.10841E-02   -0.10786E-02  7696   0.174E-01 0.100E-03
CGA:  22    -0.335645253377E+03   -0.39483E-03   -0.39601E-03  7696   0.117E-01-0.702E-06
CGA:  23    -0.335645697957E+03   -0.44458E-03   -0.44453E-03  7696   0.173E-01 0.123E-04
CGA:  24    -0.335646405745E+03   -0.70779E-03   -0.70746E-03  7696   0.166E-01 0.440E-04
CGA:  25    -0.335646776293E+03   -0.37055E-03   -0.37107E-03  7696   0.616E-02 0.178E-04
CGA:  26    -0.335646945290E+03   -0.16900E-03   -0.16914E-03  7696   0.565E-02 0.125E-04
CGA:  27    -0.335647145633E+03   -0.20034E-03   -0.20033E-03  7696   0.660E-02 0.892E-05
CGA:  28    -0.335647349279E+03   -0.20365E-03   -0.20391E-03  7696   0.562E-02 0.383E-04
CGA:  29    -0.335647506049E+03   -0.15677E-03   -0.15668E-03  7696   0.277E-02-0.195E-05
CGA:  30    -0.335647569809E+03   -0.63760E-04   -0.63886E-04  7696   0.152E-02 0.350E-05
CGA:  31    -0.335647636050E+03   -0.66242E-04   -0.66287E-04  7696   0.279E-02-0.379E-05
SDA:  32    -0.335647728706E+03   -0.92656E-04   -0.92661E-04  7696   0.195E-02 0.653E-05
CGA:  33    -0.335647746956E+03   -0.18250E-04   -0.18234E-04  7696   0.226E-03 0.576E-06
CGA:  34    -0.335647766941E+03   -0.19985E-04   -0.19881E-04  7696   0.642E-03 0.196E-05
CGA:  35    -0.335647813489E+03   -0.46547E-04   -0.46649E-04  7696   0.176E-02-0.282E-05
CGA:  36    -0.335647843189E+03   -0.29700E-04   -0.29749E-04  7696   0.121E-03-0.200E-05
CGA:  37    -0.335647858234E+03   -0.15045E-04   -0.14842E-04  7696   0.625E-03 0.232E-05
CGA:  38    -0.335647869097E+03   -0.10863E-04   -0.10866E-04  7696   0.219E-03 0.433E-06
CGA:  39    -0.335647881616E+03   -0.12518E-04   -0.12549E-04  7696   0.136E-03-0.159E-05
CGA:  40    -0.335647887497E+03   -0.58818E-05   -0.58807E-05  7696   0.363E-03 0.276E-06
CGA:  41    -0.335647899675E+03   -0.12177E-04   -0.12183E-04  7696   0.833E-04 0.643E-06
CGA:  42    -0.335647902416E+03   -0.27408E-05   -0.27391E-05  7696   0.130E-03-0.242E-06
   7 F= -.33564790E+03 E0= -.33562208E+03  d E =-.518767E-01  mag=    32.0000
       N       E                     dE             d eps       ncg     rms          ort
SDA:   1    -0.322783675598E+03    0.12864E+02    0.00000E+00  7696   0.254E+03 0.000E+00
CGA:   2    -0.323649792668E+03   -0.86612E+00   -0.47584E+01  7696   0.145E+03-0.823E+02
CGA:   3    -0.326971745430E+03   -0.33220E+01   -0.22359E+01  7696   0.332E+02 0.110E+02
CGA:   4    -0.328633667975E+03   -0.16619E+01   -0.16907E+01  7696   0.112E+03-0.217E+01
CGA:   5    -0.331895755696E+03   -0.32621E+01   -0.32142E+01  7696   0.163E+03-0.215E+01
CGA:   6    -0.333610531877E+03   -0.17148E+01   -0.25262E+01  7696   0.825E+02-0.314E+02
CGA:   7    -0.334441993788E+03   -0.83146E+00   -0.73567E+00  7696   0.756E+01 0.661E+01
CGA:   8    -0.334564666740E+03   -0.12267E+00   -0.11956E+00  7696   0.792E+01 0.140E+00
CGA:   9    -0.335045581341E+03   -0.48091E+00   -0.44308E+00  7696   0.164E+02 0.140E+01
CGA:  10    -0.335311697041E+03   -0.26612E+00   -0.27975E+00  7696   0.492E+01-0.636E+00
CGA:  11    -0.335476890245E+03   -0.16519E+00   -0.16564E+00  7696   0.366E+01-0.284E+00
CGA:  12    -0.335528360079E+03   -0.51470E-01   -0.44026E-01  7696   0.133E+01 0.462E+00
CGA:  13    -0.335561682373E+03   -0.33322E-01   -0.31774E-01  7696   0.860E+00 0.199E-01
CGA:  14    -0.335573891367E+03   -0.12209E-01   -0.12463E-01  7696   0.703E+00-0.914E-02
CGA:  15    -0.335612099086E+03   -0.38208E-01   -0.37897E-01  7696   0.207E+01 0.122E-01
CGA:  16    -0.335641428529E+03   -0.29329E-01   -0.30196E-01  7696   0.605E+00-0.324E-01
CGA:  17    -0.335653319983E+03   -0.11891E-01   -0.11740E-01  7696   0.286E+00 0.289E-02
CGA:  18    -0.335656963708E+03   -0.36437E-02   -0.35203E-02  7696   0.102E+00 0.692E-02
CGA:  19    -0.335660793806E+03   -0.38301E-02   -0.38522E-02  7696   0.296E+00-0.233E-02
CGA:  20    -0.335667783641E+03   -0.69898E-02   -0.69190E-02  7696   0.256E+00-0.244E-02
CGA:  21    -0.335671326462E+03   -0.35428E-02   -0.36102E-02  7696   0.186E+00-0.275E-02
CGA:  22    -0.335675259392E+03   -0.39329E-02   -0.40123E-02  7696   0.118E+00 0.160E-02
CGA:  23    -0.335676615901E+03   -0.13565E-02   -0.13657E-02  7696   0.399E-01-0.553E-03
CGA:  24    -0.335677784454E+03   -0.11686E-02   -0.11691E-02  7696   0.542E-01-0.238E-03
CGA:  25    -0.335678712240E+03   -0.92779E-03   -0.93407E-03  7696   0.456E-01-0.288E-04
CGA:  26    -0.335680662785E+03   -0.19505E-02   -0.19483E-02  7696   0.704E-01 0.133E-03
CGA:  27    -0.335681445864E+03   -0.78308E-03   -0.78171E-03  7696   0.141E-01 0.153E-03
CGA:  28    -0.335681946380E+03   -0.50052E-03   -0.50032E-03  7696   0.394E-01 0.241E-04
CGA:  29    -0.335682981828E+03   -0.10354E-02   -0.10365E-02  7696   0.239E-01 0.293E-03
CGA:  30    -0.335683402668E+03   -0.42084E-03   -0.42158E-03  7696   0.180E-01 0.166E-04
CGA:  31    -0.335683758458E+03   -0.35579E-03   -0.35399E-03  7696   0.846E-02-0.237E-04
SDA:  32    -0.335683921421E+03   -0.16296E-03   -0.16252E-03  7696   0.994E-02-0.125E-04
CGA:  33    -0.335684100170E+03   -0.17875E-03   -0.17910E-03  7696   0.616E-02 0.347E-06
CGA:  34    -0.335684357127E+03   -0.25696E-03   -0.25709E-03  7696   0.609E-02-0.982E-05
CGA:  35    -0.335684786838E+03   -0.42971E-03   -0.43094E-03  7696   0.310E-02-0.266E-04
CGA:  36    -0.335684863090E+03   -0.76252E-04   -0.76247E-04  7696   0.505E-02-0.290E-05
CGA:  37    -0.335685242730E+03   -0.37964E-03   -0.38147E-03  7696   0.158E-02-0.427E-04
CGA:  38    -0.335685324409E+03   -0.81679E-04   -0.80939E-04  7696   0.274E-02 0.347E-04
CGA:  39    -0.335685392884E+03   -0.68475E-04   -0.68661E-04  7696   0.204E-02 0.207E-04
CGA:  40    -0.335685590806E+03   -0.19792E-03   -0.19295E-03  7696   0.107E-02 0.810E-04
CGA:  41    -0.335685617267E+03   -0.26461E-04   -0.26455E-04  7696   0.950E-03 0.165E-05
CGA:  42    -0.335685647528E+03   -0.30261E-04   -0.30255E-04  7696   0.912E-03-0.262E-05
CGA:  43    -0.335685721745E+03   -0.74216E-04   -0.74936E-04  7696   0.375E-02-0.151E-04
CGA:  44    -0.335685792965E+03   -0.71220E-04   -0.71012E-04  7696   0.264E-03-0.150E-04
CGA:  45    -0.335685824276E+03   -0.31312E-04   -0.31337E-04  7696   0.102E-02-0.160E-06
CGA:  46    -0.335685843937E+03   -0.19660E-04   -0.19631E-04  7696   0.596E-03-0.396E-06
CGA:  47    -0.335685866537E+03   -0.22600E-04   -0.22602E-04  7696   0.300E-03 0.162E-05
CGA:  48    -0.335685872200E+03   -0.56635E-05   -0.56954E-05  7696   0.219E-03 0.135E-05
CGA:  49    -0.335685888839E+03   -0.16639E-04   -0.16419E-04  7696   0.262E-03 0.600E-05
CGA:  50    -0.335685900360E+03   -0.11521E-04   -0.11498E-04  7696   0.237E-03 0.738E-05
CGA:  51    -0.335685903544E+03   -0.31843E-05   -0.32286E-05  7696   0.535E-04 0.152E-05
   8 F= -.33568590E+03 E0= -.33566076E+03  d E =-.380011E-01  mag=    32.0000
       N       E                     dE             d eps       ncg     rms          ort
SDA:   1    -0.330652000751E+03    0.50339E+01    0.00000E+00  7696   0.359E+02 0.000E+00
CGA:   2    -0.331074356005E+03   -0.42236E+00   -0.59480E+00  7696   0.298E+02-0.788E+01
CGA:   3    -0.333938664826E+03   -0.28643E+01   -0.27542E+01  7696   0.407E+02 0.104E+01
CGA:   4    -0.334425314539E+03   -0.48665E+00   -0.67816E+00  7696   0.189E+02-0.920E+01
CGA:   5    -0.334935608914E+03   -0.51029E+00   -0.44938E+00  7696   0.726E+01 0.715E+00
CGA:   6    -0.335075157892E+03   -0.13955E+00   -0.13985E+00  7696   0.417E+01 0.789E-02
CGA:   7    -0.335398124075E+03   -0.32297E+00   -0.32360E+00  7696   0.907E+01-0.203E-01
CGA:   8    -0.335555793626E+03   -0.15767E+00   -0.15588E+00  7696   0.182E+01 0.474E-01
CGA:   9    -0.335600572419E+03   -0.44779E-01   -0.48274E-01  7696   0.766E+00-0.251E-01
CGA:  10    -0.335616235570E+03   -0.15663E-01   -0.15885E-01  7696   0.590E+00-0.551E-02
CGA:  11    -0.335654048719E+03   -0.37813E-01   -0.38313E-01  7696   0.100E+01-0.185E-01
CGA:  12    -0.335671567432E+03   -0.17519E-01   -0.17909E-01  7696   0.259E+00-0.127E-01
CGA:  13    -0.335678102676E+03   -0.65352E-02   -0.65660E-02  7696   0.105E+00-0.147E-03
CGA:  14    -0.335680741082E+03   -0.26384E-02   -0.26539E-02  7696   0.110E+00-0.101E-03
CGA:  15    -0.335688192591E+03   -0.74515E-02   -0.74727E-02  7696   0.176E+00-0.700E-03
CGA:  16    -0.335690933448E+03   -0.27409E-02   -0.27398E-02  7696   0.250E-01 0.221E-04
CGA:  17    -0.335691905502E+03   -0.97205E-03   -0.97222E-03  7696   0.417E-01 0.638E-04
CGA:  18    -0.335693361542E+03   -0.14560E-02   -0.14576E-02  7696   0.315E-01 0.114E-03
CGA:  19    -0.335694312536E+03   -0.95099E-03   -0.95056E-03  7696   0.245E-01-0.564E-05
CGA:  20    -0.335694847486E+03   -0.53495E-03   -0.53676E-03  7696   0.106E-01-0.280E-04
CGA:  21    -0.335695480586E+03   -0.63310E-03   -0.63362E-03  7696   0.305E-01-0.218E-04
CGA:  22    -0.335696380872E+03   -0.90029E-03   -0.90151E-03  7696   0.705E-02 0.354E-04
CGA:  23    -0.335696523475E+03   -0.14260E-03   -0.14253E-03  7696   0.511E-02 0.157E-05
CGA:  24    -0.335696819328E+03   -0.29585E-03   -0.29605E-03  7696   0.906E-02-0.818E-05
CGA:  25    -0.335697112557E+03   -0.29323E-03   -0.29326E-03  7696   0.942E-02 0.572E-05
CGA:  26    -0.335697384030E+03   -0.27147E-03   -0.27163E-03  7696   0.282E-02 0.104E-04
CGA:  27    -0.335697445916E+03   -0.61887E-04   -0.61908E-04  7696   0.239E-02 0.664E-06
CGA:  28    -0.335697601422E+03   -0.15551E-03   -0.15532E-03  7696   0.396E-02 0.626E-05
CGA:  29    -0.335697684026E+03   -0.82604E-04   -0.82647E-04  7696   0.175E-02 0.127E-05
CGA:  30    -0.335697742117E+03   -0.58091E-04   -0.58156E-04  7696   0.103E-02 0.924E-05
CGA:  31    -0.335697767713E+03   -0.25596E-04   -0.25614E-04  7696   0.962E-03 0.169E-05
SDA:  32    -0.335697828215E+03   -0.60502E-04   -0.60412E-04  7696   0.149E-02 0.342E-05
CGA:  33    -0.335697842891E+03   -0.14676E-04   -0.14659E-04  7696   0.183E-03-0.133E-06
CGA:  34    -0.335697853127E+03   -0.10236E-04   -0.10253E-04  7696   0.229E-03-0.101E-05
CGA:  35    -0.335697875697E+03   -0.22570E-04   -0.22921E-04  7696   0.948E-03-0.572E-05
CGA:  36    -0.335697895425E+03   -0.19728E-04   -0.19688E-04  7696   0.297E-03-0.287E-05
CGA:  37    -0.335697908051E+03   -0.12626E-04   -0.12621E-04  7696   0.102E-03 0.123E-05
CGA:  38    -0.335697916826E+03   -0.87751E-05   -0.87721E-05  7696   0.518E-03 0.152E-07
CGA:  39    -0.335697930674E+03   -0.13848E-04   -0.13868E-04  7696   0.464E-04 0.100E-05
CGA:  40    -0.335697935467E+03   -0.47932E-05   -0.47922E-05  7696   0.333E-03-0.146E-07
   9 F= -.33569794E+03 E0= -.33567303E+03  d E =-.120319E-01  mag=    32.0000
       N       E                     dE             d eps       ncg     rms          ort
SDA:   1    -0.333066982049E+03    0.26309E+01    0.00000E+00  7696   0.271E+02 0.000E+00
CGA:   2    -0.333321064196E+03   -0.25408E+00   -0.41482E+00  7696   0.177E+02-0.796E+01
CGA:   3    -0.334104248699E+03   -0.78318E+00   -0.90471E+00  7696   0.342E+02-0.366E+01
CGA:   4    -0.335020788837E+03   -0.91654E+00   -0.92528E+00  7696   0.142E+02 0.770E-01
CGA:   5    -0.335218448080E+03   -0.19766E+00   -0.20297E+00  7696   0.259E+01-0.351E+00
CGA:   6    -0.335332224129E+03   -0.11378E+00   -0.11370E+00  7696   0.548E+01 0.151E-01
CGA:   7    -0.335548457846E+03   -0.21623E+00   -0.21624E+00  7696   0.349E+01 0.740E-03
CGA:   8    -0.335610135505E+03   -0.61678E-01   -0.64227E-01  7696   0.109E+01-0.877E-01
CGA:   9    -0.335639918024E+03   -0.29783E-01   -0.29363E-01  7696   0.670E+00-0.217E-03
CGA:  10    -0.335656325033E+03   -0.16407E-01   -0.16166E-01  7696   0.392E+00 0.319E-02
CGA:  11    -0.335675624142E+03   -0.19299E-01   -0.19332E-01  7696   0.764E+00-0.233E-02
CGA:  12    -0.335695047732E+03   -0.19424E-01   -0.19475E-01  7696   0.168E+00-0.227E-03
CGA:  13    -0.335697981820E+03   -0.29341E-02   -0.29466E-02  7696   0.648E-01-0.426E-03
CGA:  14    -0.335700852038E+03   -0.28702E-02   -0.28735E-02  7696   0.975E-01-0.338E-03
CGA:  15    -0.335704137134E+03   -0.32851E-02   -0.32841E-02  7696   0.996E-01-0.842E-04
CGA:  16    -0.335707240142E+03   -0.31030E-02   -0.31033E-02  7696   0.479E-01 0.228E-04
CGA:  17    -0.335708097898E+03   -0.85776E-03   -0.85347E-03  7696   0.148E-01 0.142E-03
CGA:  18    -0.335708751994E+03   -0.65410E-03   -0.65335E-03  7696   0.244E-01 0.779E-04
CGA:  19    -0.335709550297E+03   -0.79830E-03   -0.79853E-03  7696   0.188E-01 0.283E-04
CGA:  20    -0.335710137593E+03   -0.58730E-03   -0.58748E-03  7696   0.152E-01 0.158E-04
CGA:  21    -0.335710529402E+03   -0.39181E-03   -0.39163E-03  7696   0.916E-02-0.148E-05
CGA:  22    -0.335710911689E+03   -0.38229E-03   -0.38240E-03  7696   0.130E-01-0.114E-04
CGA:  23    -0.335711278664E+03   -0.36698E-03   -0.36689E-03  7696   0.649E-02 0.628E-06
CGA:  24    -0.335711459381E+03   -0.18072E-03   -0.18080E-03  7696   0.497E-02 0.449E-05
CGA:  25    -0.335711595416E+03   -0.13603E-03   -0.13609E-03  7696   0.309E-02 0.175E-05
CGA:  26    -0.335711734552E+03   -0.13914E-03   -0.13905E-03  7696   0.645E-02 0.789E-05
CGA:  27    -0.335711998175E+03   -0.26362E-03   -0.26363E-03  7696   0.304E-02 0.101E-05
CGA:  28    -0.335712045252E+03   -0.47077E-04   -0.47178E-04  7696   0.755E-03 0.116E-05
CGA:  29    -0.335712085359E+03   -0.40107E-04   -0.40056E-04  7696   0.200E-02 0.271E-05
CGA:  30    -0.335712162760E+03   -0.77401E-04   -0.77384E-04  7696   0.123E-02 0.558E-05
CGA:  31    -0.335712191572E+03   -0.28812E-04   -0.28818E-04  7696   0.719E-03 0.133E-06
SDA:  32    -0.335712212176E+03   -0.20604E-04   -0.20590E-04  7696   0.339E-03-0.105E-05
CGA:  33    -0.335712216261E+03   -0.40853E-05   -0.40805E-05  7696   0.126E-03-0.920E-07
CGA:  34    -0.335712233376E+03   -0.17114E-04   -0.17069E-04  7696   0.241E-03 0.481E-06
CGA:  35    -0.335712246146E+03   -0.12770E-04   -0.12797E-04  7696   0.237E-03-0.186E-05
CGA:  36    -0.335712250768E+03   -0.46215E-05   -0.46106E-05  7696   0.145E-03-0.624E-06
CGA:  37    -0.335712262152E+03   -0.11384E-04   -0.11507E-04  7696   0.178E-03-0.304E-05
CGA:  38    -0.335712272115E+03   -0.99635E-05   -0.99476E-05  7696   0.101E-03 0.905E-06
  10 F= -.33571227E+03 E0= -.33568795E+03  d E =-.143366E-01  mag=    32.0000
       N       E                     dE             d eps       ncg     rms          ort
SDA:   1    -0.308514589828E+03    0.27198E+02    0.00000E+00  7696   0.311E+03 0.000E+00
CGA:   2    -0.322517692734E+03   -0.14003E+02   -0.99163E+01  7696   0.472E+03-0.338E+03
CGA:   3    -0.331442586089E+03   -0.89249E+01   -0.83248E+01  7696   0.169E+03 0.656E+02
CGA:   4    -0.332788823247E+03   -0.13462E+01   -0.16598E+01  7696   0.111E+03-0.125E+03
CGA:   5    -0.333793071311E+03   -0.10042E+01   -0.14208E+01  7696   0.231E+02-0.248E+02
CGA:   6    -0.334293531351E+03   -0.50046E+00   -0.41659E+00  7696   0.483E+01 0.106E+01
CGA:   7    -0.334534165590E+03   -0.24063E+00   -0.24190E+00  7696   0.122E+02-0.904E-01
CGA:   8    -0.334782266961E+03   -0.24810E+00   -0.16799E+00  7696   0.714E+01 0.452E+01
CGA:   9    -0.334934650937E+03   -0.15238E+00   -0.15203E+00  7696   0.861E+01 0.442E-01
CGA:  10    -0.335130564367E+03   -0.19591E+00   -0.20071E+00  7696   0.153E+02 0.757E-01
CGA:  11    -0.335352494579E+03   -0.22193E+00   -0.24277E+00  7696   0.801E+01-0.560E+00
CGA:  12    -0.335452654471E+03   -0.10016E+00   -0.10752E+00  7696   0.449E+01-0.322E+00
CGA:  13    -0.335539625230E+03   -0.86971E-01   -0.67134E-01  7696   0.239E+01 0.840E+00
CGA:  14    -0.335563937352E+03   -0.24312E-01   -0.18053E-01  7696   0.856E+00 0.872E+00
CGA:  15    -0.335575264653E+03   -0.11327E-01   -0.10584E-01  7696   0.850E+00 0.642E-01
CGA:  16    -0.335591844919E+03   -0.16580E-01   -0.16473E-01  7696   0.273E+01 0.809E-03
CGA:  17    -0.335622036060E+03   -0.30191E-01   -0.27320E-01  7696   0.341E+01 0.237E+00
CGA:  18    -0.335643561234E+03   -0.21525E-01   -0.18225E-01  7696   0.171E+01 0.638E+00
CGA:  19    -0.335654876550E+03   -0.11315E-01   -0.11769E-01  7696   0.906E+00-0.647E-01
CGA:  20    -0.335661617377E+03   -0.67408E-02   -0.70329E-02  7696   0.972E+00-0.266E-01
CGA:  21    -0.335669072590E+03   -0.74552E-02   -0.80921E-02  7696   0.777E+00-0.519E-01
CGA:  22    -0.335673866394E+03   -0.47938E-02   -0.51681E-02  7696   0.421E+00-0.400E-01
CGA:  23    -0.335677168253E+03   -0.33019E-02   -0.34266E-02  7696   0.373E+00-0.961E-02
CGA:  24    -0.335681156879E+03   -0.39886E-02   -0.39945E-02  7696   0.357E+00 0.507E-04
CGA:  25    -0.335684059958E+03   -0.29031E-02   -0.27746E-02  7696   0.199E+00 0.120E-01
CGA:  26    -0.335685758267E+03   -0.16983E-02   -0.16699E-02  7696   0.170E+00 0.233E-02
CGA:  27    -0.335687982349E+03   -0.22241E-02   -0.22089E-02  7696   0.321E+00 0.832E-04
CGA:  28    -0.335692040337E+03   -0.40580E-02   -0.39703E-02  7696   0.472E+00 0.133E-02
CGA:  29    -0.335695379510E+03   -0.33392E-02   -0.31837E-02  7696   0.253E+00 0.182E-01
CGA:  30    -0.335696758043E+03   -0.13785E-02   -0.13894E-02  7696   0.878E-01-0.155E-02
CGA:  31    -0.335697316288E+03   -0.55825E-03   -0.56337E-03  7696   0.662E-01-0.531E-03
CGA:  32    -0.335698085064E+03   -0.76878E-03   -0.77160E-03  7696   0.132E+00 0.429E-04
CGA:  33    -0.335699840969E+03   -0.17559E-02   -0.17692E-02  7696   0.215E+00 0.850E-03
CGA:  34    -0.335701471192E+03   -0.16302E-02   -0.16429E-02  7696   0.986E-01-0.890E-03
SDA:  35    -0.335702109721E+03   -0.63853E-03   -0.63460E-03  7696   0.572E-01 0.393E-03
CGA:  36    -0.335704173861E+03   -0.20641E-02   -0.21256E-02  7696   0.408E-01-0.315E-02
CGA:  37    -0.335704753130E+03   -0.57927E-03   -0.57826E-03  7696   0.134E-01-0.204E-03
CGA:  38    -0.335705777379E+03   -0.10242E-02   -0.10184E-02  7696   0.303E-01 0.124E-03
CGA:  39    -0.335706308497E+03   -0.53112E-03   -0.53170E-03  7696   0.137E-01 0.856E-04
CGA:  40    -0.335706867601E+03   -0.55910E-03   -0.56144E-03  7696   0.716E-02-0.113E-03
CGA:  41    -0.335707056079E+03   -0.18848E-03   -0.18864E-03  7696   0.885E-02-0.206E-04
CGA:  42    -0.335707344667E+03   -0.28859E-03   -0.28746E-03  7696   0.621E-02 0.853E-04
CGA:  43    -0.335707700756E+03   -0.35609E-03   -0.35748E-03  7696   0.966E-02-0.472E-04
CGA:  44    -0.335707831464E+03   -0.13071E-03   -0.13018E-03  7696   0.158E-02 0.123E-04
CGA:  45    -0.335707941364E+03   -0.10990E-03   -0.10974E-03  7696   0.486E-02 0.350E-05
CGA:  46    -0.335708024232E+03   -0.82868E-04   -0.82919E-04  7696   0.111E-02 0.567E-05
CGA:  47    -0.335708089941E+03   -0.65709E-04   -0.66009E-04  7696   0.250E-02-0.982E-05
CGA:  48    -0.335708129934E+03   -0.39993E-04   -0.39818E-04  7696   0.783E-03 0.180E-05
CGA:  49    -0.335708182811E+03   -0.52876E-04   -0.52819E-04  7696   0.247E-02 0.121E-05
CGA:  50    -0.335708223920E+03   -0.41110E-04   -0.41215E-04  7696   0.504E-03 0.452E-05
CGA:  51    -0.335708242571E+03   -0.18651E-04   -0.18575E-04  7696   0.747E-03 0.763E-05
CGA:  52    -0.335708256707E+03   -0.14135E-04   -0.14165E-04  7696   0.332E-03 0.299E-05
CGA:  53    -0.335708280741E+03   -0.24034E-04   -0.24058E-04  7696   0.959E-03-0.714E-06
CGA:  54    -0.335708297944E+03   -0.17203E-04   -0.17228E-04  7696   0.389E-03 0.177E-05
CGA:  55    -0.335708309998E+03   -0.12054E-04   -0.12048E-04  7696   0.208E-03 0.279E-05
CGA:  56    -0.335708313992E+03   -0.39940E-05   -0.39948E-05  7696   0.191E-03 0.112E-06
CGA:  57    -0.335708328358E+03   -0.14365E-04   -0.14329E-04  7696   0.290E-03 0.863E-06
CGA:  58    -0.335708334170E+03   -0.58124E-05   -0.58092E-05  7696   0.265E-03-0.461E-06
CGA:  59    -0.335708345889E+03   -0.11719E-04   -0.11792E-04  7696   0.966E-04-0.498E-05
CGA:  60    -0.335708347375E+03   -0.14855E-05   -0.14757E-05  7696   0.660E-04-0.604E-06
  11 F= -.33570835E+03 E0= -.33568423E+03  d E =0.392474E-02  mag=    32.0000
       N       E                     dE             d eps       ncg     rms          ort
SDA:   1    -0.335122428589E+03    0.58592E+00    0.00000E+00  7696   0.771E+01 0.000E+00
CGA:   2    -0.335214349620E+03   -0.91921E-01   -0.92920E-01  7696   0.216E+01-0.993E-01
CGA:   3    -0.335365450391E+03   -0.15110E+00   -0.13497E+00  7696   0.274E+01 0.478E+00
CGA:   4    -0.335459365068E+03   -0.93915E-01   -0.95037E-01  7696   0.352E+01 0.527E-01
CGA:   5    -0.335626696814E+03   -0.16733E+00   -0.17398E+00  7696   0.118E+01-0.394E+00
CGA:   6    -0.335644162222E+03   -0.17465E-01   -0.17848E-01  7696   0.585E+00-0.117E-01
CGA:   7    -0.335676040308E+03   -0.31878E-01   -0.31843E-01  7696   0.739E+00 0.808E-03
CGA:   8    -0.335691882113E+03   -0.15842E-01   -0.15838E-01  7696   0.483E+00-0.918E-04
CGA:   9    -0.335710616247E+03   -0.18734E-01   -0.18678E-01  7696   0.876E-01 0.774E-02
CGA:  10    -0.335712771973E+03   -0.21557E-02   -0.21514E-02  7696   0.911E-01-0.399E-04
CGA:  11    -0.335717866040E+03   -0.50941E-02   -0.51080E-02  7696   0.801E-01-0.569E-03
CGA:  12    -0.335720203318E+03   -0.23373E-02   -0.23437E-02  7696   0.570E-01 0.367E-03
CGA:  13    -0.335721154394E+03   -0.95108E-03   -0.95431E-03  7696   0.126E-01-0.836E-04
CGA:  14    -0.335721792142E+03   -0.63775E-03   -0.63597E-03  7696   0.196E-01 0.910E-04
CGA:  15    -0.335722291066E+03   -0.49892E-03   -0.49761E-03  7696   0.133E-01-0.130E-04
CGA:  16    -0.335723077741E+03   -0.78667E-03   -0.78762E-03  7696   0.779E-02-0.345E-04
CGA:  17    -0.335723200051E+03   -0.12231E-03   -0.12195E-03  7696   0.313E-02 0.101E-04
CGA:  18    -0.335723408380E+03   -0.20833E-03   -0.20869E-03  7696   0.562E-02-0.116E-04
CGA:  19    -0.335723522902E+03   -0.11452E-03   -0.11447E-03  7696   0.302E-02-0.289E-05
CGA:  20    -0.335723657064E+03   -0.13416E-03   -0.13395E-03  7696   0.136E-02 0.168E-04
CGA:  21    -0.335723695828E+03   -0.38764E-04   -0.38774E-04  7696   0.182E-02 0.112E-05
CGA:  22    -0.335723809091E+03   -0.11326E-03   -0.11334E-03  7696   0.113E-02-0.271E-05
CGA:  23    -0.335723830643E+03   -0.21552E-04   -0.21562E-04  7696   0.765E-03 0.842E-06
CGA:  24    -0.335723864079E+03   -0.33437E-04   -0.33384E-04  7696   0.552E-03 0.583E-05
CGA:  25    -0.335723882056E+03   -0.17977E-04   -0.17973E-04  7696   0.829E-03-0.537E-06
CGA:  26    -0.335723922304E+03   -0.40248E-04   -0.40258E-04  7696   0.334E-03-0.749E-06
CGA:  27    -0.335723930971E+03   -0.86661E-05   -0.86508E-05  7696   0.289E-03-0.104E-05
  12 F= -.33572393E+03 E0= -.33569975E+03  d E =-.155836E-01  mag=    32.0000
       N       E                     dE             d eps       ncg     rms          ort
SDA:   1    -0.335172326917E+03    0.55160E+00    0.00000E+00  7696   0.229E+01 0.000E+00
CGA:   2    -0.335238524597E+03   -0.66198E-01   -0.65279E-01  7696   0.361E+01-0.298E-01
CGA:   3    -0.335354881543E+03   -0.11636E+00   -0.11470E+00  7696   0.565E+01-0.192E+00
CGA:   4    -0.335512553483E+03   -0.15767E+00   -0.15812E+00  7696   0.737E+01 0.233E-01
CGA:   5    -0.335630072109E+03   -0.11752E+00   -0.12410E+00  7696   0.832E+00-0.175E+00
CGA:   6    -0.335643209729E+03   -0.13138E-01   -0.12801E-01  7696   0.612E+00 0.122E-01
CGA:   7    -0.335694528280E+03   -0.51319E-01   -0.52289E-01  7696   0.112E+01-0.217E-01
CGA:   8    -0.335707724910E+03   -0.13197E-01   -0.13542E-01  7696   0.315E+00-0.203E-01
CGA:   9    -0.335716410970E+03   -0.86861E-02   -0.88302E-02  7696   0.120E+00 0.707E-02
CGA:  10    -0.335718482366E+03   -0.20714E-02   -0.20724E-02  7696   0.100E+00-0.251E-04
CGA:  11    -0.335724898487E+03   -0.64161E-02   -0.64298E-02  7696   0.111E+00-0.450E-03
CGA:  12    -0.335726572715E+03   -0.16742E-02   -0.16643E-02  7696   0.413E-01 0.415E-03
CGA:  13    -0.335727834122E+03   -0.12614E-02   -0.12611E-02  7696   0.298E-01-0.313E-04
CGA:  14    -0.335728364508E+03   -0.53039E-03   -0.53138E-03  7696   0.187E-01-0.928E-05
CGA:  15    -0.335729459923E+03   -0.10954E-02   -0.10941E-02  7696   0.205E-01 0.491E-04
CGA:  16    -0.335729772914E+03   -0.31299E-03   -0.31298E-03  7696   0.107E-01 0.114E-04
CGA:  17    -0.335730147305E+03   -0.37439E-03   -0.37402E-03  7696   0.513E-02 0.126E-03
CGA:  18    -0.335730306372E+03   -0.15907E-03   -0.15906E-03  7696   0.971E-02-0.334E-05
CGA:  19    -0.335730648622E+03   -0.34225E-03   -0.34236E-03  7696   0.313E-02-0.365E-04
CGA:  20    -0.335730689847E+03   -0.41225E-04   -0.41315E-04  7696   0.107E-02-0.250E-05
CGA:  21    -0.335730773959E+03   -0.84111E-04   -0.83545E-04  7696   0.335E-02 0.127E-04
CGA:  22    -0.335730841399E+03   -0.67441E-04   -0.67453E-04  7696   0.212E-02 0.333E-05
CGA:  23    -0.335730916087E+03   -0.74688E-04   -0.74697E-04  7696   0.588E-03-0.315E-05
CGA:  24    -0.335730927188E+03   -0.11101E-04   -0.11098E-04  7696   0.584E-03-0.690E-07
CGA:  25    -0.335730965237E+03   -0.38049E-04   -0.38104E-04  7696   0.898E-03-0.175E-05
CGA:  26    -0.335730983906E+03   -0.18669E-04   -0.18683E-04  7696   0.593E-03 0.673E-06
CGA:  27    -0.335731001277E+03   -0.17371E-04   -0.17376E-04  7696   0.272E-03 0.773E-06
CGA:  28    -0.335731007891E+03   -0.66144E-05   -0.66171E-05  7696   0.408E-03 0.356E-06
CGA:  29    -0.335731036087E+03   -0.28196E-04   -0.28005E-04  7696   0.284E-03 0.543E-05
CGA:  30    -0.335731041555E+03   -0.54686E-05   -0.54685E-05  7696   0.234E-03 0.158E-06
  13 F= -.33573104E+03 E0= -.33570694E+03  d E =-.711058E-02  mag=    32.0000
       N       E                     dE             d eps       ncg     rms          ort
SDA:   1    -0.312917468739E+03    0.22814E+02    0.00000E+00  7696   0.495E+03 0.000E+00
CGA:   2    -0.316177225691E+03   -0.32598E+01   -0.78623E+01  7696   0.143E+03-0.851E+02
CGA:   3    -0.319929653716E+03   -0.37524E+01   -0.35585E+01  7696   0.134E+03-0.243E+02
CGA:   4    -0.324819159883E+03   -0.48895E+01   -0.49854E+01  7696   0.261E+03-0.513E+01
CGA:   5    -0.330384286070E+03   -0.55651E+01   -0.61917E+01  7696   0.907E+02 0.133E+02
CGA:   6    -0.331827059598E+03   -0.14428E+01   -0.90556E+00  7696   0.176E+02 0.388E+02
CGA:   7    -0.332103801883E+03   -0.27674E+00   -0.23491E+00  7696   0.163E+02 0.357E+01
CGA:   8    -0.332513977232E+03   -0.41018E+00   -0.39297E+00  7696   0.542E+02 0.583E-01
CGA:   9    -0.333135120902E+03   -0.62114E+00   -0.62091E+00  7696   0.110E+03 0.180E-01
CGA:  10    -0.334083163208E+03   -0.94804E+00   -0.10693E+01  7696   0.912E+02-0.814E+01
CGA:  11    -0.334493097193E+03   -0.40993E+00   -0.53293E+00  7696   0.323E+02-0.192E+02
CGA:  12    -0.334645768095E+03   -0.15267E+00   -0.15449E+00  7696   0.183E+02-0.997E+00
CGA:  13    -0.334757368343E+03   -0.11160E+00   -0.95892E-01  7696   0.138E+02 0.260E+01
CGA:  14    -0.334876321176E+03   -0.11895E+00   -0.99317E-01  7696   0.115E+02 0.315E+01
CGA:  15    -0.334968936354E+03   -0.92615E-01   -0.77470E-01  7696   0.662E+01 0.250E+01
CGA:  16    -0.335022706889E+03   -0.53771E-01   -0.54254E-01  7696   0.579E+01-0.380E-01
CGA:  17    -0.335070624077E+03   -0.47917E-01   -0.47482E-01  7696   0.760E+01 0.652E-01
CGA:  18    -0.335128820765E+03   -0.58197E-01   -0.57222E-01  7696   0.821E+01 0.112E+00
CGA:  19    -0.335195685236E+03   -0.66864E-01   -0.67882E-01  7696   0.105E+02-0.101E+00
CGA:  20    -0.335276823571E+03   -0.81138E-01   -0.80510E-01  7696   0.108E+02 0.882E-01
CGA:  21    -0.335334394384E+03   -0.57571E-01   -0.57997E-01  7696   0.447E+01 0.605E-01
CGA:  22    -0.335354329078E+03   -0.19935E-01   -0.22130E-01  7696   0.160E+01-0.356E+00
CGA:  23    -0.335366168910E+03   -0.11840E-01   -0.12532E-01  7696   0.205E+01-0.445E-01
CGA:  24    -0.335400342540E+03   -0.34174E-01   -0.34234E-01  7696   0.423E+01 0.403E-01
CGA:  25    -0.335441507709E+03   -0.41165E-01   -0.38823E-01  7696   0.269E+01 0.161E+00
CGA:  26    -0.335462381122E+03   -0.20873E-01   -0.20495E-01  7696   0.168E+01 0.332E-01
CGA:  27    -0.335478424363E+03   -0.16043E-01   -0.15737E-01  7696   0.174E+01 0.134E-01
CGA:  28    -0.335496053904E+03   -0.17630E-01   -0.17014E-01  7696   0.212E+01 0.232E-01
CGA:  29    -0.335513118858E+03   -0.17065E-01   -0.15103E-01  7696   0.182E+01 0.197E+00
CGA:  30    -0.335523899181E+03   -0.10780E-01   -0.97865E-02  7696   0.104E+01 0.164E+00
CGA:  31    -0.335529978274E+03   -0.60791E-02   -0.60229E-02  7696   0.841E+00 0.779E-02
SDA:  32    -0.335536600845E+03   -0.66226E-02   -0.66345E-02  7696   0.150E+01-0.735E-03
CGA:  33    -0.335556764741E+03   -0.20164E-01   -0.20182E-01  7696   0.584E+00 0.949E-02
CGA:  34    -0.335575561131E+03   -0.18796E-01   -0.18018E-01  7696   0.437E+00 0.475E-01
CGA:  35    -0.335586332916E+03   -0.10772E-01   -0.10689E-01  7696   0.443E+00 0.917E-02
CGA:  36    -0.335612920792E+03   -0.26588E-01   -0.26006E-01  7696   0.255E+00 0.149E-01
CGA:  37    -0.335618753903E+03   -0.58331E-02   -0.58126E-02  7696   0.260E+00 0.322E-02
CGA:  38    -0.335632988032E+03   -0.14234E-01   -0.14328E-01  7696   0.355E+00-0.309E-02
CGA:  39    -0.335637791736E+03   -0.48037E-02   -0.48135E-02  7696   0.613E-01 0.728E-04
CGA:  40    -0.335639902380E+03   -0.21106E-02   -0.21137E-02  7696   0.329E-01-0.188E-03
CGA:  41    -0.335640622056E+03   -0.71968E-03   -0.72007E-03  7696   0.279E-01-0.125E-03
CGA:  42    -0.335642625129E+03   -0.20031E-02   -0.20057E-02  7696   0.383E-01-0.728E-04
CGA:  43    -0.335643140829E+03   -0.51570E-03   -0.51894E-03  7696   0.118E-01-0.407E-04
CGA:  44    -0.335643859154E+03   -0.71833E-03   -0.71297E-03  7696   0.193E-01 0.154E-03
CGA:  45    -0.335644379768E+03   -0.52061E-03   -0.52002E-03  7696   0.178E-01 0.149E-03
CGA:  46    -0.335645110074E+03   -0.73031E-03   -0.73577E-03  7696   0.682E-02-0.301E-03
CGA:  47    -0.335645210637E+03   -0.10056E-03   -0.10091E-03  7696   0.342E-02-0.824E-05
CGA:  48    -0.335645482935E+03   -0.27230E-03   -0.27430E-03  7696   0.125E-01-0.415E-04
CGA:  49    -0.335645827394E+03   -0.34446E-03   -0.34443E-03  7696   0.871E-02 0.383E-04
CGA:  50    -0.335646208376E+03   -0.38098E-03   -0.37896E-03  7696   0.369E-02 0.112E-03
CGA:  51    -0.335646288323E+03   -0.79947E-04   -0.79992E-04  7696   0.311E-02 0.794E-05
CGA:  52    -0.335646558760E+03   -0.27044E-03   -0.26910E-03  7696   0.644E-02 0.188E-04
CGA:  53    -0.335646665589E+03   -0.10683E-03   -0.10817E-03  7696   0.256E-02-0.102E-04
CGA:  54    -0.335646788747E+03   -0.12316E-03   -0.12350E-03  7696   0.395E-02-0.148E-04
CGA:  55    -0.335646898000E+03   -0.10925E-03   -0.10947E-03  7696   0.306E-02 0.354E-04
CGA:  56    -0.335647032149E+03   -0.13415E-03   -0.13424E-03  7696   0.151E-02-0.306E-05
CGA:  57    -0.335647057714E+03   -0.25564E-04   -0.25687E-04  7696   0.718E-03 0.221E-06
CGA:  58    -0.335647118762E+03   -0.61049E-04   -0.61392E-04  7696   0.294E-02-0.669E-05
CGA:  59    -0.335647182670E+03   -0.63907E-04   -0.64046E-04  7696   0.744E-03-0.529E-05
CGA:  60    -0.335647205782E+03   -0.23112E-04   -0.23106E-04  7696   0.526E-03-0.314E-05
CGA:  61    -0.335647218089E+03   -0.12307E-04   -0.12281E-04  7696   0.318E-03-0.204E-05
CGA:  62    -0.335647250667E+03   -0.32578E-04   -0.32653E-04  7696   0.782E-03-0.102E-05
SDA:  63    -0.335647263081E+03   -0.12414E-04   -0.12406E-04  7696   0.156E-03-0.653E-06
CGA:  64    -0.335647266707E+03   -0.36259E-05   -0.36255E-05  7696   0.230E-03-0.500E-07
CGA:  65    -0.335647280717E+03   -0.14010E-04   -0.14010E-04  7696   0.956E-04-0.458E-07
CGA:  66    -0.335647284866E+03   -0.41495E-05   -0.41577E-05  7696   0.174E-03-0.100E-05
  14 F= -.33564728E+03 E0= -.33562333E+03  d E =0.837567E-01  mag=    32.0000
       N       E                     dE             d eps       ncg     rms          ort
SDA:   1    -0.330503529439E+03    0.51438E+01    0.00000E+00  7696   0.259E+03 0.000E+00
CGA:   2    -0.332508399450E+03   -0.20049E+01   -0.34712E+01  7696   0.718E+02-0.119E+03
CGA:   3    -0.333484988936E+03   -0.97659E+00   -0.91011E+00  7696   0.952E+01-0.866E+00
CGA:   4    -0.333776994717E+03   -0.29201E+00   -0.29289E+00  7696   0.163E+02 0.122E+00
CGA:   5    -0.334857889037E+03   -0.10809E+01   -0.11015E+01  7696   0.199E+02-0.584E+00
CGA:   6    -0.335140431398E+03   -0.28254E+00   -0.28067E+00  7696   0.325E+01-0.481E-01
CGA:   7    -0.335282822199E+03   -0.14239E+00   -0.14076E+00  7696   0.580E+01 0.128E+00
CGA:   8    -0.335477984451E+03   -0.19516E+00   -0.19520E+00  7696   0.399E+01 0.739E-02
CGA:   9    -0.335577155669E+03   -0.99171E-01   -0.99749E-01  7696   0.227E+01 0.372E-02
CGA:  10    -0.335631327345E+03   -0.54172E-01   -0.53248E-01  7696   0.883E+00-0.153E-02
CGA:  11    -0.335651643947E+03   -0.20317E-01   -0.19957E-01  7696   0.582E+00 0.235E-03
CGA:  12    -0.335676881745E+03   -0.25238E-01   -0.25138E-01  7696   0.744E+00 0.725E-02
CGA:  13    -0.335698241094E+03   -0.21359E-01   -0.21351E-01  7696   0.502E+00-0.519E-03
CGA:  14    -0.335710693548E+03   -0.12452E-01   -0.12545E-01  7696   0.187E+00 0.209E-02
CGA:  15    -0.335714237945E+03   -0.35444E-02   -0.35423E-02  7696   0.773E-01 0.401E-04
CGA:  16    -0.335717887991E+03   -0.36500E-02   -0.36561E-02  7696   0.164E+00-0.329E-03
CGA:  17    -0.335723711716E+03   -0.58237E-02   -0.58232E-02  7696   0.904E-01 0.117E-03
CGA:  18    -0.335725515524E+03   -0.18038E-02   -0.18015E-02  7696   0.413E-01 0.343E-04
CGA:  19    -0.335727107032E+03   -0.15915E-02   -0.15901E-02  7696   0.540E-01 0.156E-03
CGA:  20    -0.335728789976E+03   -0.16829E-02   -0.16831E-02  7696   0.397E-01 0.384E-04
CGA:  21    -0.335729812194E+03   -0.10222E-02   -0.10217E-02  7696   0.195E-01-0.225E-04
CGA:  22    -0.335730313220E+03   -0.50103E-03   -0.50112E-03  7696   0.147E-01-0.255E-06
CGA:  23    -0.335730962868E+03   -0.64965E-03   -0.65049E-03  7696   0.227E-01-0.531E-04
CGA:  24    -0.335731637686E+03   -0.67482E-03   -0.67493E-03  7696   0.158E-01 0.215E-04
CGA:  25    -0.335732093361E+03   -0.45568E-03   -0.45582E-03  7696   0.995E-02 0.244E-04
CGA:  26    -0.335732309407E+03   -0.21605E-03   -0.21614E-03  7696   0.343E-02 0.424E-05
CGA:  27    -0.335732418685E+03   -0.10928E-03   -0.10928E-03  7696   0.464E-02 0.173E-05
CGA:  28    -0.335732675884E+03   -0.25720E-03   -0.25727E-03  7696   0.789E-02-0.322E-05
CGA:  29    -0.335732864374E+03   -0.18849E-03   -0.18846E-03  7696   0.300E-02-0.161E-05
CGA:  30    -0.335732931470E+03   -0.67095E-04   -0.67148E-04  7696   0.129E-02 0.146E-05
CGA:  31    -0.335732968997E+03   -0.37527E-04   -0.37536E-04  7696   0.129E-02 0.236E-05
SDA:  32    -0.335733035812E+03   -0.66815E-04   -0.66766E-04  7696   0.248E-02 0.233E-05
CGA:  33    -0.335733061086E+03   -0.25274E-04   -0.25300E-04  7696   0.418E-03-0.231E-05
CGA:  34    -0.335733082857E+03   -0.21771E-04   -0.21909E-04  7696   0.367E-03-0.624E-05
CGA:  35    -0.335733167705E+03   -0.84848E-04   -0.82162E-05  7696   0.708E-03 0.372E-04
CGA:  36    -0.335733178504E+03   -0.10799E-04   -0.10848E-04  7696   0.169E-03-0.355E-06
CGA:  37    -0.335733188358E+03   -0.98541E-05   -0.98536E-05  7696   0.295E-03 0.460E-06
  15 F= -.33573319E+03 E0= -.33570897E+03  d E =-.859035E-01  mag=    32.0000
       N       E                     dE             d eps       ncg     rms          ort
SDA:   1    -0.271086058792E+03    0.64647E+02    0.00000E+00  7696   0.242E+04 0.000E+00
CGA:   2    -0.318831925715E+03   -0.47746E+02   -0.75386E+02  7696   0.189E+03-0.358E+03
CGA:   3    -0.328911043765E+03   -0.10079E+02   -0.23202E+01  7696   0.230E+03 0.493E+03
CGA:   4    -0.329464624302E+03   -0.55358E+00   -0.41574E+01  7696   0.317E+03-0.205E+03
CGA:   5    -0.328082878752E+03    0.13817E+01   -0.70297E+01  7696   0.338E+03-0.167E+03
CGA:   6    -0.330409817046E+03   -0.23269E+01   -0.53670E+01  7696   0.398E+03-0.457E+03
CGA:   7    -0.330359249672E+03    0.50567E-01   -0.78492E+01  7696   0.260E+03-0.187E+03
CGA:   8    -0.332975715516E+03   -0.26165E+01   -0.17759E+01  7696   0.161E+03 0.517E+02
CGA:   9    -0.333734268748E+03   -0.75855E+00   -0.19391E+01  7696   0.127E+03-0.206E+03
CGA:  10    -0.334228445070E+03   -0.49418E+00   -0.17521E+01  7696   0.588E+02-0.701E+02
CGA:  11    -0.334738018432E+03   -0.50957E+00   -0.41751E+00  7696   0.342E+01 0.104E+02
CGA:  12    -0.334789872900E+03   -0.51854E-01   -0.48814E-01  7696   0.356E+01 0.201E+00
CGA:  13    -0.334930870823E+03   -0.14100E+00   -0.13939E+00  7696   0.147E+02-0.532E+00
CGA:  14    -0.334996400857E+03   -0.65530E-01   -0.43156E-01  7696   0.149E+02 0.627E+01
CGA:  15    -0.335148518925E+03   -0.15212E+00   -0.13770E+00  7696   0.913E+01 0.228E+01
CGA:  16    -0.335234872525E+03   -0.86354E-01   -0.88624E-01  7696   0.101E+02-0.171E+00
CGA:  17    -0.335334522751E+03   -0.99650E-01   -0.12663E+00  7696   0.168E+02-0.131E+01
CGA:  18    -0.335469009012E+03   -0.13449E+00   -0.14335E+00  7696   0.813E+01-0.395E+00
CGA:  19    -0.335514814073E+03   -0.45805E-01   -0.39478E-01  7696   0.219E+01 0.117E+01
CGA:  20    -0.335530700562E+03   -0.15886E-01   -0.15167E-01  7696   0.128E+01 0.103E+00
CGA:  21    -0.335550688126E+03   -0.19988E-01   -0.18459E-01  7696   0.303E+01 0.708E-01
CGA:  22    -0.335569840872E+03   -0.19153E-01   -0.12061E-01  7696   0.305E+01 0.178E+01
CGA:  23    -0.335599565436E+03   -0.29725E-01   -0.31497E-01  7696   0.645E+00-0.121E+00
CGA:  24    -0.335659772883E+03   -0.60207E-01   -0.60544E-01  7696   0.242E+01-0.661E-02
CGA:  25    -0.335698114049E+03   -0.38341E-01   -0.37894E-01  7696   0.672E+00 0.111E-01
CGA:  26    -0.335724508249E+03   -0.26394E-01   -0.25305E-01  7696   0.649E-01 0.912E-01
CGA:  27    -0.335728470486E+03   -0.39622E-02   -0.39750E-02  7696   0.247E+00-0.507E-03
CGA:  28    -0.335734715863E+03   -0.62454E-02   -0.62519E-02  7696   0.120E+00 0.477E-03
CGA:  29    -0.335738310651E+03   -0.35948E-02   -0.35962E-02  7696   0.162E+00 0.109E-02
CGA:  30    -0.335741007686E+03   -0.26970E-02   -0.26655E-02  7696   0.484E-01 0.940E-03
CGA:  31    -0.335742478908E+03   -0.14712E-02   -0.14717E-02  7696   0.849E-01-0.434E-03
CGA:  32    -0.335744749011E+03   -0.22701E-02   -0.22679E-02  7696   0.642E-01-0.311E-03
CGA:  33    -0.335746368757E+03   -0.16197E-02   -0.16238E-02  7696   0.889E-01 0.323E-03
CGA:  34    -0.335748199618E+03   -0.18309E-02   -0.18432E-02  7696   0.132E-01 0.133E-03
CGA:  35    -0.335748473748E+03   -0.27413E-03   -0.27418E-03  7696   0.199E-01 0.543E-06
CGA:  36    -0.335749611511E+03   -0.11378E-02   -0.11388E-02  7696   0.183E-01-0.405E-04
CGA:  37    -0.335749941985E+03   -0.33047E-03   -0.33101E-03  7696   0.163E-01-0.104E-04
CGA:  38    -0.335750336391E+03   -0.39441E-03   -0.39272E-03  7696   0.395E-02-0.888E-04
CGA:  39    -0.335750428747E+03   -0.92356E-04   -0.92338E-04  7696   0.619E-02 0.155E-05
CGA:  40    -0.335750663090E+03   -0.23434E-03   -0.23379E-03  7696   0.548E-02 0.490E-04
CGA:  41    -0.335750815849E+03   -0.15276E-03   -0.15281E-03  7696   0.675E-02 0.198E-04
CGA:  42    -0.335750941417E+03   -0.12557E-03   -0.12537E-03  7696   0.161E-02 0.757E-05
CGA:  43    -0.335750977667E+03   -0.36250E-04   -0.36244E-04  7696   0.220E-02-0.409E-06
CGA:  44    -0.335751081574E+03   -0.10391E-03   -0.10356E-03  7696   0.217E-02 0.169E-04
CGA:  45    -0.335751124972E+03   -0.43398E-04   -0.43387E-04  7696   0.235E-02-0.154E-05
CGA:  46    -0.335751205860E+03   -0.80888E-04   -0.81052E-04  7696   0.955E-03-0.228E-04
CGA:  47    -0.335751224345E+03   -0.18485E-04   -0.18466E-04  7696   0.120E-02-0.230E-05
CGA:  48    -0.335751282759E+03   -0.58414E-04   -0.58388E-04  7696   0.880E-03 0.115E-05
CGA:  49    -0.335751297869E+03   -0.15111E-04   -0.15158E-04  7696   0.613E-03 0.302E-05
CGA:  50    -0.335751310717E+03   -0.12848E-04   -0.12896E-04  7696   0.209E-03 0.405E-05
CGA:  51    -0.335751320319E+03   -0.96024E-05   -0.95646E-05  7696   0.735E-03 0.221E-05
CGA:  52    -0.335751344725E+03   -0.24406E-04   -0.24388E-04  7696   0.269E-03 0.577E-05
SDA:  53    -0.335751349036E+03   -0.43102E-05   -0.43292E-05  7696   0.171E-03 0.113E-05
  16 F= -.33575135E+03 E0= -.33572706E+03  d E =-.181607E-01  mag=    32.0000
       N       E                     dE             d eps       ncg     rms          ort
SDA:   1    -0.335650647576E+03    0.10070E+00    0.00000E+00  7696   0.714E+00 0.000E+00
CGA:   2    -0.335661562254E+03   -0.10915E-01   -0.10944E-01  7696   0.478E+00-0.851E-03
CGA:   3    -0.335696732904E+03   -0.35171E-01   -0.34971E-01  7696   0.704E+00 0.391E-02
CGA:   4    -0.335718449474E+03   -0.21717E-01   -0.21710E-01  7696   0.690E+00 0.681E-02
CGA:   5    -0.335732942865E+03   -0.14493E-01   -0.14158E-01  7696   0.125E+00-0.212E-03
CGA:   6    -0.335743212051E+03   -0.10269E-01   -0.10240E-01  7696   0.207E+00 0.449E-03
CGA:   7    -0.335747544624E+03   -0.43326E-02   -0.43337E-02  7696   0.171E+00-0.121E-04
CGA:   8    -0.335752884293E+03   -0.53397E-02   -0.53398E-02  7696   0.329E-01 0.110E-03
CGA:   9    -0.335753528306E+03   -0.64401E-03   -0.64660E-03  7696   0.257E-01-0.120E-04
CGA:  10    -0.335754914834E+03   -0.13865E-02   -0.13738E-02  7696   0.161E-01 0.517E-03
CGA:  11    -0.335755801014E+03   -0.88618E-03   -0.88728E-03  7696   0.257E-01-0.470E-04
CGA:  12    -0.335756181647E+03   -0.38063E-03   -0.37799E-03  7696   0.264E-02 0.974E-04
CGA:  13    -0.335756293411E+03   -0.11176E-03   -0.11181E-03  7696   0.697E-02-0.323E-05
CGA:  14    -0.335756556937E+03   -0.26353E-03   -0.26334E-03  7696   0.236E-02 0.283E-04
CGA:  15    -0.335756665783E+03   -0.10885E-03   -0.10924E-03  7696   0.186E-02-0.249E-04
CGA:  16    -0.335756701843E+03   -0.36060E-04   -0.36040E-04  7696   0.138E-02-0.222E-05
CGA:  17    -0.335756762499E+03   -0.60656E-04   -0.60615E-04  7696   0.107E-02 0.255E-05
CGA:  18    -0.335756786898E+03   -0.24399E-04   -0.24384E-04  7696   0.964E-03-0.776E-06
CGA:  19    -0.335756821394E+03   -0.34496E-04   -0.34483E-04  7696   0.268E-03 0.336E-05
CGA:  20    -0.335756841766E+03   -0.20373E-04   -0.20321E-04  7696   0.913E-03 0.119E-05
CGA:  21    -0.335756859184E+03   -0.17418E-04   -0.17440E-04  7696   0.271E-03 0.122E-05
CGA:  22    -0.335756870750E+03   -0.11566E-04   -0.11547E-04  7696   0.268E-03 0.231E-05
CGA:  23    -0.335756875316E+03   -0.45662E-05   -0.45680E-05  7696   0.913E-04 0.310E-06
CGA:  24    -0.335756887080E+03   -0.11763E-04   -0.11728E-04  7696   0.149E-03 0.393E-06
CGA:  25    -0.335756889525E+03   -0.24460E-05   -0.24424E-05  7696   0.812E-04-0.203E-06
  17 F= -.33575689E+03 E0= -.33573275E+03  d E =-.554049E-02  mag=    32.0000
       N       E                     dE             d eps       ncg     rms          ort
SDA:   1    -0.335662291002E+03    0.94596E-01    0.00000E+00  7696   0.137E+01 0.000E+00
CGA:   2    -0.335676424711E+03   -0.14134E-01   -0.13655E-01  7696   0.243E+00 0.381E-01
CGA:   3    -0.335722073296E+03   -0.45649E-01   -0.10581E-03  7696   0.110E+01-0.615E-01
CGA:   4    -0.335731335727E+03   -0.92624E-02   -0.10101E-01  7696   0.430E+00-0.602E-01
CGA:   5    -0.335740111800E+03   -0.87761E-02   -0.96383E-02  7696   0.200E+00-0.233E-01
CGA:   6    -0.335742912657E+03   -0.28009E-02   -0.28095E-02  7696   0.148E+00-0.489E-03
CGA:   7    -0.335751238747E+03   -0.83261E-02   -0.83194E-02  7696   0.200E+00-0.883E-03
CGA:   8    -0.335754083263E+03   -0.28445E-02   -0.29142E-02  7696   0.102E+00-0.402E-02
CGA:   9    -0.335756786531E+03   -0.27033E-02   -0.27070E-02  7696   0.348E-01 0.416E-04
CGA:  10    -0.335757302468E+03   -0.51594E-03   -0.50890E-03  7696   0.219E-01 0.381E-03
CGA:  11    -0.335758513812E+03   -0.12113E-02   -0.12115E-02  7696   0.394E-01-0.117E-03
CGA:  12    -0.335759112784E+03   -0.59897E-03   -0.59720E-03  7696   0.146E-01 0.105E-03
CGA:  13    -0.335759559334E+03   -0.44655E-03   -0.44685E-03  7696   0.133E-01 0.694E-05
CGA:  14    -0.335759758692E+03   -0.19936E-03   -0.19954E-03  7696   0.616E-02 0.628E-05
CGA:  15    -0.335760050873E+03   -0.29218E-03   -0.29230E-03  7696   0.878E-02 0.395E-04
CGA:  16    -0.335760180287E+03   -0.12941E-03   -0.12959E-03  7696   0.412E-02 0.413E-06
CGA:  17    -0.335760338659E+03   -0.15837E-03   -0.15794E-03  7696   0.244E-02-0.158E-04
CGA:  18    -0.335760373703E+03   -0.35045E-04   -0.34957E-04  7696   0.163E-02 0.178E-06
CGA:  19    -0.335760519030E+03   -0.14533E-03   -0.14585E-03  7696   0.393E-02-0.118E-04
CGA:  20    -0.335760566152E+03   -0.47121E-04   -0.47087E-04  7696   0.694E-03-0.267E-05
CGA:  21    -0.335760582362E+03   -0.16211E-04   -0.16334E-04  7696   0.498E-03-0.153E-07
CGA:  22    -0.335760592130E+03   -0.97677E-05   -0.97989E-05  7696   0.401E-03 0.107E-05
CGA:  23    -0.335760622307E+03   -0.30178E-04   -0.30068E-04  7696   0.137E-02 0.348E-05
CGA:  24    -0.335760641792E+03   -0.19485E-04   -0.19583E-04  7696   0.127E-03 0.203E-05
CGA:  25    -0.335760646017E+03   -0.42245E-05   -0.42234E-05  7696   0.242E-03-0.132E-06
  18 F= -.33576065E+03 E0= -.33573656E+03  d E =-.375649E-02  mag=    32.0000
       N       E                     dE             d eps       ncg     rms          ort
SDA:   1    -0.335205367472E+03    0.55527E+00    0.00000E+00  7696   0.152E+02 0.000E+00
CGA:   2    -0.335329520777E+03   -0.12415E+00   -0.18665E+00  7696   0.326E+01-0.413E+01
CGA:   3    -0.335406339698E+03   -0.76819E-01   -0.76034E-01  7696   0.292E+01-0.232E-01
CGA:   4    -0.335501515948E+03   -0.95176E-01   -0.95622E-01  7696   0.343E+01 0.167E-01
CGA:   5    -0.335622270999E+03   -0.12076E+00   -0.12071E+00  7696   0.251E+01-0.398E-02
CGA:   6    -0.335677541636E+03   -0.55271E-01   -0.55257E-01  7696   0.794E+00-0.231E-02
CGA:   7    -0.335698421768E+03   -0.20880E-01   -0.20882E-01  7696   0.600E+00-0.172E-03
CGA:   8    -0.335722593067E+03   -0.24171E-01   -0.24157E-01  7696   0.762E+00 0.335E-02
CGA:   9    -0.335742906029E+03   -0.20313E-01   -0.20234E-01  7696   0.353E+00-0.573E-03
CGA:  10    -0.335750134278E+03   -0.72282E-02   -0.73353E-02  7696   0.122E+00-0.198E-02
CGA:  11    -0.335753557649E+03   -0.34234E-02   -0.34114E-02  7696   0.948E-01-0.285E-03
CGA:  12    -0.335757355626E+03   -0.37980E-02   -0.37934E-02  7696   0.104E+00 0.704E-03
CGA:  13    -0.335760106998E+03   -0.27514E-02   -0.27446E-02  7696   0.469E-01-0.756E-04
CGA:  14    -0.335761084712E+03   -0.97771E-03   -0.98049E-03  7696   0.192E-01-0.298E-04
CGA:  15    -0.335761641176E+03   -0.55646E-03   -0.55645E-03  7696   0.168E-01 0.133E-05
CGA:  16    -0.335762311161E+03   -0.66999E-03   -0.66993E-03  7696   0.183E-01 0.958E-05
CGA:  17    -0.335762844144E+03   -0.53298E-03   -0.53306E-03  7696   0.955E-02 0.828E-05
CGA:  18    -0.335763069154E+03   -0.22501E-03   -0.22508E-03  7696   0.476E-02 0.314E-05
CGA:  19    -0.335763214910E+03   -0.14576E-03   -0.14573E-03  7696   0.492E-02-0.322E-05
CGA:  20    -0.335763407926E+03   -0.19302E-03   -0.19296E-03  7696   0.562E-02 0.664E-05
CGA:  21    -0.335763565724E+03   -0.15780E-03   -0.15769E-03  7696   0.277E-02-0.750E-05
CGA:  22    -0.335763635375E+03   -0.69650E-04   -0.69704E-04  7696   0.156E-02 0.246E-05
CGA:  23    -0.335763692074E+03   -0.56699E-04   -0.56707E-04  7696   0.195E-02-0.168E-05
CGA:  24    -0.335763766524E+03   -0.74450E-04   -0.74428E-04  7696   0.212E-02 0.433E-05
CGA:  25    -0.335763821644E+03   -0.55120E-04   -0.55130E-04  7696   0.105E-02 0.111E-05
CGA:  26    -0.335763848332E+03   -0.26688E-04   -0.26699E-04  7696   0.626E-03 0.112E-05
CGA:  27    -0.335763872579E+03   -0.24247E-04   -0.24239E-04  7696   0.792E-03 0.128E-05
CGA:  28    -0.335763902983E+03   -0.30404E-04   -0.30395E-04  7696   0.736E-03 0.168E-05
CGA:  29    -0.335763921007E+03   -0.18024E-04   -0.18028E-04  7696   0.350E-03 0.253E-06
CGA:  30    -0.335763929870E+03   -0.88625E-05   -0.88680E-05  7696   0.240E-03 0.590E-06
  19 F= -.33576393E+03 E0= -.33573995E+03  d E =-.328385E-02  mag=    32.0000
       N       E                     dE             d eps       ncg     rms          ort
SDA:   1    -0.335591845103E+03    0.17208E+00    0.00000E+00  7696   0.229E+01 0.000E+00
CGA:   2    -0.335618825055E+03   -0.26980E-01   -0.25555E-01  7696   0.417E+00 0.967E-01
CGA:   3    -0.335676138249E+03   -0.57313E-01   -0.26599E-03  7696   0.382E+01-0.184E+00
CGA:   4    -0.335696314227E+03   -0.20176E-01   -0.20275E-01  7696   0.204E+01-0.839E-02
CGA:   5    -0.335713159100E+03   -0.16845E-01   -0.21612E-01  7696   0.975E+00-0.387E+00
CGA:   6    -0.335722948746E+03   -0.97896E-02   -0.12982E-01  7696   0.404E+00-0.140E+00
CGA:   7    -0.335727227808E+03   -0.42791E-02   -0.40756E-02  7696   0.279E+00 0.151E-01
[...]
CGA:  12    -0.335747261899E+03   -0.56951E-02   -0.56801E-02  7696   0.986E-01 0.169E-03
CGA:  13    -0.335748843703E+03   -0.15818E-02   -0.16166E-02  7696   0.684E-01-0.122E-02
CGA:  14    -0.335750181023E+03   -0.13373E-02   -0.13826E-02  7696   0.147E-01-0.668E-03
CGA:  15    -0.335750420815E+03   -0.23979E-03   -0.23913E-03  7696   0.130E-01 0.254E-04
CGA:  16    -0.335751226429E+03   -0.80561E-03   -0.80374E-03  7696   0.182E-01 0.638E-04
CGA:  17    -0.335751453342E+03   -0.22691E-03   -0.22737E-03  7696   0.502E-02-0.304E-04
CGA:  18    -0.335751635771E+03   -0.18243E-03   -0.18261E-03  7696   0.518E-02-0.546E-04
CGA:  19    -0.335751719289E+03   -0.83518E-04   -0.83103E-04  7696   0.339E-02 0.436E-05
CGA:  20    -0.335751929737E+03   -0.21045E-03   -0.21057E-03  7696   0.779E-02-0.464E-05
CGA:  21    -0.335752030997E+03   -0.10126E-03   -0.10172E-03  7696   0.139E-02-0.217E-04
CGA:  22    -0.335752079383E+03   -0.48386E-04   -0.48382E-04  7696   0.272E-02 0.323E-05
CGA:  23    -0.335752139989E+03   -0.60606E-04   -0.60486E-04  7696   0.141E-02 0.299E-05
CGA:  24    -0.335752194479E+03   -0.54490E-04   -0.54461E-04  7696   0.268E-02 0.508E-05
CGA:  25    -0.335752238980E+03   -0.44501E-04   -0.44659E-04  7696   0.361E-03 0.271E-05
CGA:  26    -0.335752248046E+03   -0.90655E-05   -0.90730E-05  7696   0.653E-03 0.817E-06
CGA:  27    -0.335752286803E+03   -0.38757E-04   -0.38758E-04  7696   0.658E-03-0.427E-07
CGA:  28    -0.335752295998E+03   -0.91950E-05   -0.91623E-05  7696   0.304E-03-0.103E-05
CGA:  29    -0.335752308045E+03   -0.12047E-04   -0.12078E-04  7696   0.308E-03-0.407E-05
CGA:  30    -0.335752314092E+03   -0.60465E-05   -0.60426E-05  7696   0.323E-03-0.562E-06
CGA:  31    -0.335752332333E+03   -0.18241E-04   -0.18223E-04  7696   0.344E-03 0.675E-06
CGA:  32    -0.335752336453E+03   -0.41201E-05   -0.41188E-05  7696   0.843E-04-0.107E-06
  73 F= -.33575234E+03 E0= -.33572886E+03  d E =0.962464E-02  mag=    32.0000
       N       E                     dE             d eps       ncg     rms          ort
SDA:   1    -0.335622457866E+03    0.12987E+00    0.00000E+00  7696   0.156E+01 0.000E+00
CGA:   2    -0.335640904271E+03   -0.18446E-01   -0.18255E-01  7696   0.384E+00 0.120E-01
CGA:   3    -0.335681074042E+03   -0.40170E-01   -0.43057E-01  7696   0.175E+01-0.459E-01
CGA:   4    -0.335709324312E+03   -0.28250E-01   -0.28952E-01  7696   0.875E+00-0.171E-01
CGA:   5    -0.335733494170E+03   -0.24170E-01   -0.24932E-01  7696   0.369E+00 0.336E-01
CGA:   6    -0.335738047733E+03   -0.45536E-02   -0.43765E-02  7696   0.829E-01 0.117E-01
CGA:   7    -0.335748312641E+03   -0.10265E-01   -0.10301E-01  7696   0.267E+00-0.499E-03
CGA:   8    -0.335751802577E+03   -0.34899E-02   -0.35115E-02  7696   0.438E-01-0.122E-02
CGA:   9    -0.335753239490E+03   -0.14369E-02   -0.14329E-02  7696   0.399E-01-0.390E-03
CGA:  10    -0.335753868601E+03   -0.62911E-03   -0.61898E-03  7696   0.165E-01 0.389E-03
CGA:  11    -0.335755113500E+03   -0.12449E-02   -0.12443E-02  7696   0.388E-01 0.159E-04
CGA:  12    -0.335755577051E+03   -0.46355E-03   -0.46518E-03  7696   0.388E-02-0.114E-03
CGA:  13    -0.335755759557E+03   -0.18251E-03   -0.18228E-03  7696   0.934E-02 0.148E-04
CGA:  14    -0.335755955044E+03   -0.19549E-03   -0.19544E-03  7696   0.343E-02-0.398E-05
CGA:  15    -0.335756084673E+03   -0.12963E-03   -0.12968E-03  7696   0.532E-02-0.196E-04
CGA:  16    -0.335756173602E+03   -0.88929E-04   -0.88621E-04  7696   0.892E-03 0.362E-05
CGA:  17    -0.335756219485E+03   -0.45884E-04   -0.45823E-04  7696   0.323E-02 0.350E-05
CGA:  18    -0.335756303348E+03   -0.83863E-04   -0.83971E-04  7696   0.336E-03 0.458E-05
CGA:  19    -0.335756309868E+03   -0.65194E-05   -0.65194E-05  7696   0.360E-03 0.142E-06
CGA:  20    -0.335756332577E+03   -0.22710E-04   -0.22631E-04  7696   0.495E-03 0.275E-05
CGA:  21    -0.335756342379E+03   -0.98022E-05   -0.98092E-05  7696   0.362E-03 0.361E-06
CGA:  22    -0.335756352841E+03   -0.10462E-04   -0.10452E-04  7696   0.863E-04-0.856E-06
CGA:  23    -0.335756355189E+03   -0.23478E-05   -0.23496E-05  7696   0.165E-03 0.227E-06
  74 F= -.33575636E+03 E0= -.33573291E+03  d E =-.401874E-02  mag=    32.0000
       N       E                     dE             d eps       ncg     rms          ort
SDA:   1    -0.335679889378E+03    0.76463E-01    0.00000E+00  7696   0.178E+01 0.000E+00
CGA:   2    -0.335696874305E+03   -0.16985E-01   -0.17819E-01  7696   0.218E+00-0.688E-01
CGA:   3    -0.335719387135E+03   -0.22513E-01   -0.21803E-01  7696   0.529E+00 0.114E-01
CGA:   4    -0.335732485381E+03   -0.13098E-01   -0.13197E-01  7696   0.448E+00-0.735E-03
CGA:   5    -0.335747746410E+03   -0.15261E-01   -0.15120E-01  7696   0.106E+00-0.158E-01
CGA:   6    -0.335749644367E+03   -0.18980E-02   -0.19046E-02  7696   0.764E-01-0.178E-03
CGA:   7    -0.335755394023E+03   -0.57497E-02   -0.57142E-02  7696   0.767E-01 0.925E-03
CGA:   8    -0.335756781117E+03   -0.13871E-02   -0.13867E-02  7696   0.345E-01-0.227E-05
CGA:   9    -0.335757860684E+03   -0.10796E-02   -0.10757E-02  7696   0.118E-01-0.214E-03
CGA:  10    -0.335758145573E+03   -0.28489E-03   -0.28522E-03  7696   0.132E-01-0.201E-05
CGA:  11    -0.335758950071E+03   -0.80450E-03   -0.80378E-03  7696   0.717E-02 0.252E-04
CGA:  12    -0.335759060974E+03   -0.11090E-03   -0.11112E-03  7696   0.252E-02-0.108E-04
CGA:  13    -0.335759166761E+03   -0.10579E-03   -0.10590E-03  7696   0.197E-02-0.154E-04
CGA:  14    -0.335759216119E+03   -0.49359E-04   -0.49347E-04  7696   0.209E-02-0.183E-05
CGA:  15    -0.335759332582E+03   -0.11646E-03   -0.11644E-03  7696   0.110E-02 0.450E-06
CGA:  16    -0.335759350000E+03   -0.17417E-04   -0.17423E-04  7696   0.439E-03-0.472E-06
CGA:  17    -0.335759374493E+03   -0.24493E-04   -0.24534E-04  7696   0.532E-03-0.195E-05
CGA:  18    -0.335759386070E+03   -0.11577E-04   -0.11590E-04  7696   0.369E-03 0.591E-06
CGA:  19    -0.335759402021E+03   -0.15951E-04   -0.15945E-04  7696   0.170E-03 0.811E-06
CGA:  20    -0.335759405385E+03   -0.33640E-05   -0.33694E-05  7696   0.125E-03 0.225E-06
  75 F= -.33575941E+03 E0= -.33573600E+03  d E =-.305020E-02  mag=    32.0000
       N       E                     dE             d eps       ncg     rms          ort
SDA:   1    -0.335701693749E+03    0.57708E-01    0.00000E+00  7696   0.476E+01 0.000E+00
CGA:   2    -0.335744298837E+03   -0.42605E-01   -0.40193E-01  7696   0.811E-01 0.226E+00
CGA:   3    -0.335746942390E+03   -0.26436E-02   -0.26171E-02  7696   0.114E+00-0.165E-02
CGA:   4    -0.335748799570E+03   -0.18572E-02   -0.18096E-02  7696   0.588E-01 0.173E-02
CGA:   5    -0.335751538590E+03   -0.27390E-02   -0.27364E-02  7696   0.215E+00 0.178E-03
CGA:   6    -0.335755759459E+03   -0.42209E-02   -0.42557E-02  7696   0.355E-01-0.619E-03
CGA:   7    -0.335756172508E+03   -0.41305E-03   -0.41240E-03  7696   0.193E-01 0.356E-04
CGA:   8    -0.335757074628E+03   -0.90212E-03   -0.90394E-03  7696   0.326E-01-0.111E-03
CGA:   9    -0.335757554200E+03   -0.47957E-03   -0.47939E-03  7696   0.191E-01 0.408E-05
CGA:  10    -0.335758187224E+03   -0.63302E-03   -0.63302E-03  7696   0.228E-01 0.660E-05
CGA:  11    -0.335758462361E+03   -0.27514E-03   -0.27726E-03  7696   0.291E-02-0.116E-03
CGA:  12    -0.335758507878E+03   -0.45517E-04   -0.45603E-04  7696   0.257E-02-0.124E-05
CGA:  13    -0.335758646893E+03   -0.13902E-03   -0.13949E-03  7696   0.456E-02-0.192E-04
CGA:  14    -0.335758708776E+03   -0.61883E-04   -0.61759E-04  7696   0.208E-02 0.452E-05
CGA:  15    -0.335758780292E+03   -0.71515E-04   -0.71459E-04  7696   0.167E-02 0.140E-04
CGA:  16    -0.335758797085E+03   -0.16793E-04   -0.16877E-04  7696   0.234E-03-0.119E-05
CGA:  17    -0.335758810107E+03   -0.13022E-04   -0.13048E-04  7696   0.103E-02-0.103E-05
CGA:  18    -0.335758833736E+03   -0.23629E-04   -0.23582E-04  7696   0.389E-03-0.333E-05
CGA:  19    -0.335758843233E+03   -0.94965E-05   -0.94972E-05  7696   0.496E-03-0.624E-07
  76 F= -.33575884E+03 E0= -.33573546E+03  d E =0.562153E-03  mag=    32.0000
       N       E                     dE             d eps       ncg     rms          ort
SDA:   1    -0.335510333875E+03    0.24850E+00    0.00000E+00  7696   0.276E+01 0.000E+00
CGA:   2    -0.335540183346E+03   -0.29849E-01   -0.29507E-01  7696   0.627E+00 0.183E-01
CGA:   3    -0.335671210017E+03   -0.13103E+00   -0.12306E-01  7696   0.259E+01 0.614E-01
CGA:   4    -0.335714008647E+03   -0.42799E-01   -0.40332E-01  7696   0.292E+00 0.147E+00
CGA:   5    -0.335729572871E+03   -0.15564E-01   -0.15532E-01  7696   0.251E+00-0.122E-01
CGA:   6    -0.335736829696E+03   -0.72568E-02   -0.72309E-02  7696   0.363E+00 0.243E-03
CGA:   7    -0.335750528210E+03   -0.13699E-01   -0.13813E-01  7696   0.113E+00 0.172E-02
CGA:   8    -0.335752157193E+03   -0.16290E-02   -0.16665E-02  7696   0.405E-01-0.199E-02
CGA:   9    -0.335753993196E+03   -0.18360E-02   -0.18360E-02  7696   0.212E-01 0.172E-04
CGA:  10    -0.335754879754E+03   -0.88656E-03   -0.88713E-03  7696   0.377E-01 0.407E-04
CGA:  11    -0.335755957224E+03   -0.10775E-02   -0.10687E-02  7696   0.558E-02 0.960E-04
CGA:  12    -0.335756224855E+03   -0.26763E-03   -0.26761E-03  7696   0.145E-01 0.916E-05
CGA:  13    -0.335756643517E+03   -0.41866E-03   -0.41815E-03  7696   0.320E-02 0.192E-05
CGA:  14    -0.335756707329E+03   -0.63811E-04   -0.63737E-04  7696   0.226E-02 0.132E-05
CGA:  15    -0.335756795599E+03   -0.88270E-04   -0.88197E-04  7696   0.111E-02-0.594E-05
CGA:  16    -0.335756862766E+03   -0.67167E-04   -0.67178E-04  7696   0.255E-02-0.595E-06
CGA:  17    -0.335756918805E+03   -0.56039E-04   -0.56140E-04  7696   0.377E-03-0.514E-06
CGA:  18    -0.335756934087E+03   -0.15282E-04   -0.15289E-04  7696   0.487E-03 0.171E-05
CGA:  19    -0.335756944843E+03   -0.10755E-04   -0.10770E-04  7696   0.307E-03 0.375E-06
CGA:  20    -0.335756966167E+03   -0.21324E-04   -0.21338E-04  7696   0.647E-03-0.518E-06
CGA:  21    -0.335756976995E+03   -0.10828E-04   -0.10785E-04  7696   0.678E-04-0.239E-06
CGA:  22    -0.335756981691E+03   -0.46957E-05   -0.46576E-05  7696   0.169E-03 0.145E-05
  77 F= -.33575698E+03 E0= -.33573359E+03  d E =0.186154E-02  mag=    32.0000
       N       E                     dE             d eps       ncg     rms          ort
SDA:   1    -0.335686142288E+03    0.70835E-01    0.00000E+00  7696   0.144E+01 0.000E+00
CGA:   2    -0.335701148894E+03   -0.15007E-01   -0.15207E-01  7696   0.237E+00-0.172E-01
CGA:   3    -0.335718586487E+03   -0.17438E-01   -0.17097E-01  7696   0.473E+00 0.982E-02
CGA:   4    -0.335730727402E+03   -0.12141E-01   -0.12283E-01  7696   0.389E+00-0.177E-02
CGA:   5    -0.335746057208E+03   -0.15330E-01   -0.15243E-01  7696   0.902E-01-0.136E-01
CGA:   6    -0.335748311514E+03   -0.22543E-02   -0.22688E-02  7696   0.111E+00-0.970E-04
CGA:   7    -0.335754162544E+03   -0.58510E-02   -0.58601E-02  7696   0.952E-01-0.570E-03
CGA:   8    -0.335755893303E+03   -0.17308E-02   -0.17354E-02  7696   0.457E-01-0.143E-03
CGA:   9    -0.335757360335E+03   -0.14670E-02   -0.14770E-02  7696   0.130E-01 0.313E-03
CGA:  10    -0.335757679640E+03   -0.31931E-03   -0.31918E-03  7696   0.133E-01-0.604E-06
CGA:  11    -0.335758668904E+03   -0.98926E-03   -0.99033E-03  7696   0.112E-01-0.299E-04
CGA:  12    -0.335758813237E+03   -0.14433E-03   -0.14453E-03  7696   0.173E-02-0.139E-04
CGA:  13    -0.335758900134E+03   -0.86897E-04   -0.86964E-04  7696   0.428E-02-0.492E-05
CGA:  14    -0.335759033980E+03   -0.13385E-03   -0.13391E-03  7696   0.167E-02 0.312E-05
CGA:  15    -0.335759092182E+03   -0.58201E-04   -0.58191E-04  7696   0.147E-02-0.132E-05
CGA:  16    -0.335759124349E+03   -0.32168E-04   -0.32239E-04  7696   0.579E-03-0.114E-05
CGA:  17    -0.335759154266E+03   -0.29917E-04   -0.29966E-04  7696   0.114E-02-0.366E-05
CGA:  18    -0.335759177228E+03   -0.22961E-04   -0.22942E-04  7696   0.249E-03-0.140E-05
CGA:  19    -0.335759185496E+03   -0.82682E-05   -0.82738E-05  7696   0.306E-03 0.958E-06
  78 F= -.33575919E+03 E0= -.33573582E+03  d E =-.220381E-02  mag=    32.0000
       N       E                     dE             d eps       ncg     rms          ort
SDA:   1    -0.335411695723E+03    0.34748E+00    0.00000E+00  7696   0.676E+01 0.000E+00
CGA:   2    -0.335478156802E+03   -0.66461E-01   -0.70500E-01  7696   0.104E+01-0.343E+00
CGA:   3    -0.335572524658E+03   -0.94368E-01   -0.91048E-01  7696   0.309E+01 0.606E-01
CGA:   4    -0.335644907225E+03   -0.72383E-01   -0.74652E-01  7696   0.161E+01-0.313E-01
CGA:   5    -0.335703345702E+03   -0.58438E-01   -0.58076E-01  7696   0.113E+01-0.807E-01
CGA:   6    -0.335720668969E+03   -0.17323E-01   -0.17112E-01  7696   0.267E+00 0.981E-02
CGA:   7    -0.335733704769E+03   -0.13036E-01   -0.12997E-01  7696   0.531E+00 0.258E-02
CGA:   8    -0.335747999125E+03   -0.14294E-01   -0.14298E-01  7696   0.205E+00 0.159E-03
CGA:   9    -0.335756173898E+03   -0.81748E-02   -0.81671E-02  7696   0.136E+00 0.160E-02
CGA:  10    -0.335758543301E+03   -0.23694E-02   -0.23465E-02  7696   0.300E-01 0.760E-03
CGA:  11    -0.335760851716E+03   -0.23084E-02   -0.23150E-02  7696   0.680E-01-0.167E-03
CGA:  12    -0.335762063087E+03   -0.12114E-02   -0.12087E-02  7696   0.132E-01 0.585E-04
CGA:  13    -0.335762497687E+03   -0.43460E-03   -0.43474E-03  7696   0.189E-01 0.956E-05
CGA:  14    -0.335763006887E+03   -0.50920E-03   -0.51062E-03  7696   0.803E-02 0.222E-04
CGA:  15    -0.335763368307E+03   -0.36142E-03   -0.36153E-03  7696   0.108E-01-0.935E-05
CGA:  16    -0.335763589372E+03   -0.22107E-03   -0.22131E-03  7696   0.157E-02-0.151E-05
CGA:  17    -0.335763680518E+03   -0.91146E-04   -0.91332E-04  7696   0.446E-02-0.801E-05
CGA:  18    -0.335763815685E+03   -0.13517E-03   -0.13520E-03  7696   0.178E-02-0.943E-06
CGA:  19    -0.335763863973E+03   -0.48288E-04   -0.48286E-04  7696   0.182E-02-0.517E-06
CGA:  20    -0.335763907410E+03   -0.43437E-04   -0.43500E-04  7696   0.385E-03 0.152E-05
CGA:  21    -0.335763923476E+03   -0.16066E-04   -0.16057E-04  7696   0.885E-03 0.143E-05
CGA:  22    -0.335763978452E+03   -0.54976E-04   -0.54885E-04  7696   0.405E-03 0.359E-05
CGA:  23    -0.335763987782E+03   -0.93304E-05   -0.93409E-05  7696   0.326E-03 0.564E-06
CGA:  24    -0.335764001817E+03   -0.14034E-04   -0.14035E-04  7696   0.282E-03 0.185E-06
CGA:  25    -0.335764009655E+03   -0.78386E-05   -0.78374E-05  7696   0.364E-03-0.405E-07
CGA:  26    -0.335764025068E+03   -0.15413E-04   -0.15404E-04  7696   0.166E-03 0.141E-05
CGA:  27    -0.335764028618E+03   -0.35501E-05   -0.35454E-05  7696   0.119E-03-0.276E-06
  79 F= -.33576403E+03 E0= -.33574072E+03  d E =-.484312E-02  mag=    32.0000
       N       E                     dE             d eps       ncg     rms          ort
SDA:   1    -0.335677924410E+03    0.86101E-01    0.00000E+00  7696   0.357E+01 0.000E+00
CGA:   2    -0.335712078766E+03   -0.34154E-01   -0.38494E-01  7696   0.284E+00-0.319E+00
CGA:   3    -0.335721904942E+03   -0.98262E-02   -0.98401E-02  7696   0.462E+00-0.505E-02
CGA:   4    -0.335734848968E+03   -0.12944E-01   -0.12924E-01  7696   0.329E+00-0.496E-03
CGA:   5    -0.335746732162E+03   -0.11883E-01   -0.11883E-01  7696   0.299E+00 0.179E-02
CGA:   6    -0.335752908391E+03   -0.61762E-02   -0.61608E-02  7696   0.649E-01 0.341E-03
CGA:   7    -0.335756026119E+03   -0.31177E-02   -0.31073E-02  7696   0.122E+00 0.639E-03
CGA:   8    -0.335760374986E+03   -0.43489E-02   -0.43483E-02  7696   0.561E-01-0.319E-03
CGA:   9    -0.335761995438E+03   -0.16205E-02   -0.16202E-02  7696   0.393E-01-0.900E-05
CGA:  10    -0.335762913257E+03   -0.91782E-03   -0.91080E-03  7696   0.117E-01 0.277E-04
CGA:  11    -0.335763215429E+03   -0.30217E-03   -0.30201E-03  7696   0.141E-01-0.183E-05
CGA:  12    -0.335763975191E+03   -0.75976E-03   -0.75902E-03  7696   0.150E-01 0.357E-04
CGA:  13    -0.335764219384E+03   -0.24419E-03   -0.24325E-03  7696   0.183E-02 0.384E-04
CGA:  14    -0.335764290978E+03   -0.71594E-04   -0.71558E-04  7696   0.281E-02 0.634E-05
CGA:  15    -0.335764411060E+03   -0.12008E-03   -0.12008E-03  7696   0.207E-02 0.421E-06
CGA:  16    -0.335764472426E+03   -0.61366E-04   -0.61389E-04  7696   0.147E-02 0.259E-05
CGA:  17    -0.335764506907E+03   -0.34481E-04   -0.34430E-04  7696   0.608E-03-0.342E-06
CGA:  18    -0.335764523869E+03   -0.16962E-04   -0.16975E-04  7696   0.735E-03 0.195E-05
CGA:  19    -0.335764556088E+03   -0.32219E-04   -0.32177E-04  7696   0.507E-03 0.428E-05
CGA:  20    -0.335764565619E+03   -0.95309E-05   -0.95389E-05  7696   0.162E-03 0.582E-06
  80 F= -.33576457E+03 E0= -.33574122E+03  d E =-.537001E-03  mag=    32.0000
       N       E                     dE             d eps       ncg     rms          ort
SDA:   1    -0.335652320040E+03    0.11224E+00    0.00000E+00  7696   0.728E+01 0.000E+00
CGA:   2    -0.335720227630E+03   -0.67908E-01   -0.69975E-01  7696   0.151E+00-0.187E+00
CGA:   3    -0.335725692598E+03   -0.54650E-02   -0.54606E-02  7696   0.372E+00 0.741E-03
CGA:   4    -0.335745383670E+03   -0.19691E-01   -0.19879E-01  7696   0.246E+00-0.854E-02
CGA:   5    -0.335753664409E+03   -0.82807E-02   -0.82847E-02  7696   0.147E+00 0.515E-02
CGA:   6    -0.335756258254E+03   -0.25938E-02   -0.25845E-02  7696   0.422E-01 0.311E-03
CGA:   7    -0.335759054951E+03   -0.27967E-02   -0.27879E-02  7696   0.911E-01 0.268E-03
CGA:   8    -0.335760773555E+03   -0.17186E-02   -0.17104E-02  7696   0.261E-01 0.175E-03
CGA:   9    -0.335761674574E+03   -0.90102E-03   -0.90089E-03  7696   0.258E-01-0.234E-03
CGA:  10    -0.335762214129E+03   -0.53956E-03   -0.53791E-03  7696   0.821E-02 0.196E-04
CGA:  11    -0.335762758910E+03   -0.54478E-03   -0.54267E-03  7696   0.105E-01 0.650E-04
CGA:  12    -0.335762919871E+03   -0.16096E-03   -0.16145E-03  7696   0.163E-02-0.371E-05
CGA:  13    -0.335762991316E+03   -0.71444E-04   -0.71436E-04  7696   0.319E-02 0.160E-05
CGA:  14    -0.335763079788E+03   -0.88473E-04   -0.88428E-04  7696   0.198E-02-0.372E-06
CGA:  15    -0.335763161762E+03   -0.81974E-04   -0.81931E-04  7696   0.142E-02 0.570E-05
CGA:  16    -0.335763184522E+03   -0.22759E-04   -0.22743E-04  7696   0.237E-03 0.812E-06
CGA:  17    -0.335763203107E+03   -0.18585E-04   -0.18518E-04  7696   0.821E-03 0.153E-05
CGA:  18    -0.335763223297E+03   -0.20190E-04   -0.20183E-04  7696   0.280E-03-0.780E-07
CGA:  19    -0.335763230815E+03   -0.75180E-05   -0.75177E-05  7696   0.213E-03 0.189E-07
  81 F= -.33576323E+03 E0= -.33573986E+03  d E =0.133480E-02  mag=    32.0000
       N       E                     dE             d eps       ncg     rms          ort
SDA:   1    -0.335748954409E+03    0.14269E-01    0.00000E+00  7696   0.476E+00 0.000E+00
CGA:   2    -0.335753603987E+03   -0.46496E-02   -0.45836E-02  7696   0.466E-01 0.534E-02
CGA:   3    -0.335756079050E+03   -0.24751E-02   -0.24636E-02  7696   0.426E-01 0.505E-03
CGA:   4    -0.335757813768E+03   -0.17347E-02   -0.17353E-02  7696   0.994E-01-0.624E-04
CGA:   5    -0.335761877876E+03   -0.40641E-02   -0.40627E-02  7696   0.128E-01 0.144E-03
CGA:   6    -0.335762170948E+03   -0.29307E-03   -0.29359E-03  7696   0.174E-01-0.126E-05
CGA:   7    -0.335763155225E+03   -0.98428E-03   -0.98579E-03  7696   0.513E-02-0.633E-04
CGA:   8    -0.335763357670E+03   -0.20245E-03   -0.20272E-03  7696   0.466E-02-0.410E-04
CGA:   9    -0.335763446625E+03   -0.88955E-04   -0.89032E-04  7696   0.244E-02-0.142E-05
CGA:  10    -0.335763626599E+03   -0.17997E-03   -0.17934E-03  7696   0.373E-03 0.167E-04
CGA:  11    -0.335763643718E+03   -0.17119E-04   -0.17138E-04  7696   0.958E-03-0.211E-05
CGA:  12    -0.335763674828E+03   -0.31111E-04   -0.31093E-04  7696   0.314E-03-0.316E-05
CGA:  13    -0.335763689845E+03   -0.15016E-04   -0.14988E-04  7696   0.271E-03 0.232E-05
CGA:  14    -0.335763693691E+03   -0.38463E-05   -0.38464E-05  7696   0.871E-04 0.223E-06
  82 F= -.33576369E+03 E0= -.33574027E+03  d E =-.462876E-03  mag=    32.0000
