       N       E                     dE             d eps       ncg     rms          ort
DAV:   1     0.603428921627E+04    0.60343E+04   -0.26997E+05  8112   0.166E+03
DAV:   2     0.352688073861E+03   -0.56816E+04   -0.51935E+04  8112   0.463E+02
DAV:   3    -0.361675129513E+03   -0.71436E+03   -0.69965E+03  8112   0.183E+02
DAV:   4    -0.383676271165E+03   -0.22001E+02   -0.21850E+02  8112   0.334E+01
DAV:   5    -0.384006729680E+03   -0.33046E+00   -0.32800E+00  8112   0.398E+00
SDA:   6    -0.115345279605E+03    0.26866E+03   -0.32800E+00  8112   0.125E+04 0.000E+00
CGA:   7    -0.254005846789E+03   -0.13866E+03   -0.14553E+03  8112   0.519E+03-0.583E+01
CGA:   8    -0.274825431428E+03   -0.20820E+02   -0.28790E+02  8112   0.190E+03-0.492E+02
CGA:   9    -0.282408696723E+03   -0.75833E+01   -0.12938E+02  8112   0.355E+03-0.405E+02
CGA:  10    -0.293769170559E+03   -0.11360E+02   -0.14772E+02  8112   0.974E+02-0.690E+02
CGA:  11    -0.299307519869E+03   -0.55383E+01   -0.43067E+01  8112   0.812E+02 0.301E+01
CGA:  12    -0.299768926219E+03   -0.46141E+00   -0.50517E+01  8112   0.270E+03-0.562E+02
CGA:  13    -0.301860495856E+03   -0.20916E+01   -0.15417E+02  8112   0.116E+03-0.633E+02
CGA:  14    -0.307311018302E+03   -0.54505E+01   -0.44447E+01  8112   0.791E+02-0.780E+02
CGA:  15    -0.307208608203E+03    0.10241E+00   -0.44491E+01  8112   0.924E+02-0.408E+02
CGA:  16    -0.306625031604E+03    0.58358E+00   -0.40778E+01  8112   0.160E+03-0.102E+03
CGA:  17    -0.306121473070E+03    0.50356E+00   -0.79797E+01  8112   0.102E+03-0.772E+02
CGA:  18    -0.310857294161E+03   -0.47358E+01   -0.21166E+01  8112   0.481E+01 0.168E+02
CGA:  19    -0.311024103159E+03   -0.16681E+00   -0.19487E+00  8112   0.796E+01-0.701E+00
CGA:  20    -0.311809730234E+03   -0.78563E+00   -0.80176E+00  8112   0.181E+02 0.575E+00
CGA:  21    -0.312303080117E+03   -0.49335E+00   -0.51113E+00  8112   0.325E+01-0.114E+01
CGA:  22    -0.312407926746E+03   -0.10485E+00   -0.82077E-01  8112   0.321E+01 0.682E+00
CGA:  23    -0.312543509679E+03   -0.13558E+00   -0.16136E+00  8112   0.430E+01-0.690E+00
CGA:  24    -0.312617561926E+03   -0.74052E-01   -0.13802E+00  8112   0.466E+01-0.736E+00
CGA:  25    -0.312712423126E+03   -0.94861E-01   -0.93360E-01  8112   0.328E+01-0.389E+00
CGA:  26    -0.312762408886E+03   -0.49986E-01   -0.41562E-01  8112   0.197E+01 0.446E+00
CGA:  27    -0.312795149885E+03   -0.32741E-01   -0.41186E-01  8112   0.187E+01-0.445E+00
CGA:  28    -0.312820060956E+03   -0.24911E-01   -0.28700E-01  8112   0.231E+01-0.169E+00
CGA:  29    -0.312848152805E+03   -0.28092E-01   -0.40572E-01  8112   0.196E+01-0.554E+00
CGA:  30    -0.312869723906E+03   -0.21571E-01   -0.40201E-01  8112   0.180E+01-0.449E+00
CGA:  31    -0.312905531870E+03   -0.35808E-01   -0.50105E-01  8112   0.146E+01-0.203E+00
CGA:  32    -0.312964313122E+03   -0.58781E-01   -0.62643E-01  8112   0.684E+00-0.195E-01
CGA:  33    -0.312996629813E+03   -0.32317E-01   -0.33886E-01  8112   0.344E+00-0.441E-02
CGA:  34    -0.313026511617E+03   -0.29882E-01   -0.29782E-01  8112   0.409E+00 0.913E-02
CGA:  35    -0.313061275745E+03   -0.34764E-01   -0.34724E-01  8112   0.244E+00 0.165E-01
CGA:  36    -0.313084271101E+03   -0.22995E-01   -0.22804E-01  8112   0.177E+00 0.132E-01
CGA:  37    -0.313102336075E+03   -0.18065E-01   -0.18059E-01  8112   0.728E-01-0.854E-04
CGA:  38    -0.313109154561E+03   -0.68185E-02   -0.68210E-02  8112   0.463E-01-0.276E-03
CGA:  39    -0.313114080437E+03   -0.49259E-02   -0.49271E-02  8112   0.286E-01-0.968E-04
CGA:  40    -0.313117447636E+03   -0.33672E-02   -0.33550E-02  8112   0.230E-01 0.264E-03
CGA:  41    -0.313119875052E+03   -0.24274E-02   -0.24289E-02  8112   0.122E-01-0.639E-04
CGA:  42    -0.313121328953E+03   -0.14539E-02   -0.14544E-02  8112   0.815E-02-0.407E-05
CGA:  43    -0.313122073871E+03   -0.74492E-03   -0.74477E-03  8112   0.375E-02 0.549E-04
CGA:  44    -0.313122564033E+03   -0.49016E-03   -0.48694E-03  8112   0.358E-02 0.812E-04
CGA:  45    -0.313122968362E+03   -0.40433E-03   -0.40280E-03  8112   0.214E-02 0.839E-04
CGA:  46    -0.313123174661E+03   -0.20630E-03   -0.20618E-03  8112   0.992E-03 0.499E-04
SDA:  47    -0.313123281011E+03   -0.10635E-03   -0.10609E-03  8112   0.737E-03 0.215E-04
CGA:  48    -0.313123362099E+03   -0.81087E-04   -0.81238E-04  8112   0.343E-03-0.738E-05
CGA:  49    -0.313123418949E+03   -0.56850E-04   -0.57323E-04  8112   0.274E-03-0.624E-05
CGA:  50    -0.313123467929E+03   -0.48981E-04   -0.48856E-04  8112   0.116E-03 0.145E-05
CGA:  51    -0.313123483879E+03   -0.15950E-04   -0.15749E-04  8112   0.511E-04 0.613E-05
CGA:  52    -0.313123492665E+03   -0.87854E-05   -0.84146E-05  8112   0.231E-04 0.688E-05
   1 F= -.31312349E+03 E0= -.31311948E+03  d E =-.313123E+03  mag=    44.0000
       N       E                     dE             d eps       ncg     rms          ort
SDA:   1    -0.313199398348E+03   -0.75914E-01    0.00000E+00  8112   0.121E-01 0.000E+00
CGA:   2    -0.313201333125E+03   -0.19348E-02   -0.19349E-02  8112   0.104E-01 0.216E-05
CGA:   3    -0.313202524510E+03   -0.11914E-02   -0.11914E-02  8112   0.252E-02 0.365E-05
CGA:   4    -0.313202937320E+03   -0.41281E-03   -0.41388E-03  8112   0.155E-02-0.198E-04
CGA:   5    -0.313203083965E+03   -0.14664E-03   -0.14659E-03  8112   0.325E-03-0.310E-05
CGA:   6    -0.313203129186E+03   -0.45221E-04   -0.45125E-04  8112   0.144E-03 0.391E-05
CGA:   7    -0.313203150018E+03   -0.20832E-04   -0.20812E-04  8112   0.543E-04 0.726E-06
CGA:   8    -0.313203157870E+03   -0.78527E-05   -0.78796E-05  8112   0.302E-04-0.966E-06
   2 F= -.31320316E+03 E0= -.31319913E+03  d E =-.796652E-01  mag=    44.0000
       N       E                     dE             d eps       ncg     rms          ort
SDA:   1    -0.312470396092E+03    0.73275E+00    0.00000E+00  8112   0.648E+01 0.000E+00
CGA:   2    -0.314278511649E+03   -0.18081E+01   -0.18154E+01  8112   0.222E+01-0.499E-01
CGA:   3    -0.314646139924E+03   -0.36763E+00   -0.36465E+00  8112   0.165E+01 0.547E-01
CGA:   4    -0.314799409435E+03   -0.15327E+00   -0.14871E+00  8112   0.304E+00 0.333E-02
CGA:   5    -0.314847100157E+03   -0.47691E-01   -0.47644E-01  8112   0.141E+00 0.108E-02
CGA:   6    -0.314865298030E+03   -0.18198E-01   -0.18196E-01  8112   0.512E-01-0.418E-03
CGA:   7    -0.314871874880E+03   -0.65769E-02   -0.65775E-02  8112   0.295E-01 0.220E-03
CGA:   8    -0.314876075721E+03   -0.42008E-02   -0.42025E-02  8112   0.149E-01-0.768E-04
CGA:   9    -0.314878261437E+03   -0.21857E-02   -0.21845E-02  8112   0.918E-02 0.540E-04
CGA:  10    -0.314879678983E+03   -0.14175E-02   -0.14174E-02  8112   0.502E-02 0.910E-05
CGA:  11    -0.314880422714E+03   -0.74373E-03   -0.74337E-03  8112   0.309E-02 0.175E-04
CGA:  12    -0.314880879102E+03   -0.45639E-03   -0.45634E-03  8112   0.143E-02 0.531E-05
CGA:  13    -0.314881073392E+03   -0.19429E-03   -0.19428E-03  8112   0.925E-03 0.623E-05
CGA:  14    -0.314881202484E+03   -0.12909E-03   -0.12907E-03  8112   0.373E-03 0.416E-05
CGA:  15    -0.314881263225E+03   -0.60740E-04   -0.60623E-04  8112   0.184E-03 0.419E-05
CGA:  16    -0.314881291935E+03   -0.28711E-04   -0.28678E-04  8112   0.139E-03 0.189E-05
CGA:  17    -0.314881308502E+03   -0.16567E-04   -0.16586E-04  8112   0.508E-04 0.986E-06
CGA:  18    -0.314881318915E+03   -0.10413E-04   -0.10412E-04  8112   0.344E-04 0.159E-07
CGA:  19    -0.314881323343E+03   -0.44273E-05   -0.44219E-05  8112   0.180E-04-0.514E-06
   3 F= -.31488132E+03 E0= -.31487717E+03  d E =-.167817E+01  mag=    44.0000
       N       E                     dE             d eps       ncg     rms          ort
SDA:   1    -0.308005600732E+03    0.68757E+01    0.00000E+00  8112   0.234E+02 0.000E+00
CGA:   2    -0.314403464104E+03   -0.63979E+01   -0.64252E+01  8112   0.122E+02-0.111E+00
CGA:   3    -0.315437471324E+03   -0.10340E+01   -0.10914E+01  8112   0.634E+01-0.333E-01
CGA:   4    -0.316318988970E+03   -0.88152E+00   -0.87875E+00  8112   0.163E+01-0.298E+00
CGA:   5    -0.316488353279E+03   -0.16936E+00   -0.17075E+00  8112   0.708E+00 0.723E-02
CGA:   6    -0.316574126740E+03   -0.85773E-01   -0.85476E-01  8112   0.329E+00-0.487E-02
CGA:   7    -0.316607487544E+03   -0.33361E-01   -0.33891E-01  8112   0.141E+00 0.231E-02
CGA:   8    -0.316626622235E+03   -0.19135E-01   -0.19131E-01  8112   0.762E-01-0.526E-03
CGA:   9    -0.316636679218E+03   -0.10057E-01   -0.10071E-01  8112   0.412E-01 0.113E-02
CGA:  10    -0.316642464365E+03   -0.57851E-02   -0.57851E-02  8112   0.279E-01 0.106E-04
CGA:  11    -0.316645912710E+03   -0.34483E-02   -0.34535E-02  8112   0.135E-01 0.155E-03
CGA:  12    -0.316647903456E+03   -0.19907E-02   -0.19905E-02  8112   0.832E-02 0.209E-04
CGA:  13    -0.316649119517E+03   -0.12161E-02   -0.12154E-02  8112   0.431E-02 0.539E-04
CGA:  14    -0.316649616425E+03   -0.49691E-03   -0.49687E-03  8112   0.259E-02 0.457E-05
CGA:  15    -0.316650030061E+03   -0.41364E-03   -0.41323E-03  8112   0.115E-02 0.147E-04
CGA:  16    -0.316650181552E+03   -0.15149E-03   -0.15152E-03  8112   0.761E-03 0.532E-05
CGA:  17    -0.316650296101E+03   -0.11455E-03   -0.11447E-03  8112   0.451E-03 0.565E-05
CGA:  18    -0.316650351592E+03   -0.55491E-04   -0.55512E-04  8112   0.241E-03 0.142E-05
CGA:  19    -0.316650393563E+03   -0.41971E-04   -0.41961E-04  8112   0.163E-03 0.193E-06
CGA:  20    -0.316650413583E+03   -0.20020E-04   -0.20002E-04  8112   0.798E-04-0.102E-05
CGA:  21    -0.316650425702E+03   -0.12120E-04   -0.12139E-04  8112   0.595E-04-0.134E-05
CGA:  22    -0.316650432995E+03   -0.72926E-05   -0.72776E-05  8112   0.228E-04-0.995E-06
   4 F= -.31665043E+03 E0= -.31664605E+03  d E =-.176911E+01  mag=    44.0000
       N       E                     dE             d eps       ncg     rms          ort
SDA:   1    -0.310032538471E+03    0.66179E+01    0.00000E+00  8112   0.190E+02 0.000E+00
CGA:   2    -0.315561539404E+03   -0.55290E+01   -0.55277E+01  8112   0.881E+01 0.275E-01
CGA:   3    -0.316570568858E+03   -0.10090E+01   -0.10274E+01  8112   0.546E+01 0.139E+00
CGA:   4    -0.317124663801E+03   -0.55409E+00   -0.52817E+00  8112   0.137E+01-0.164E-01
CGA:   5    -0.317303940398E+03   -0.17928E+00   -0.17941E+00  8112   0.465E+00 0.492E-02
CGA:   6    -0.317359272740E+03   -0.55332E-01   -0.55484E-01  8112   0.220E+00 0.206E-02
CGA:   7    -0.317386580244E+03   -0.27308E-01   -0.27318E-01  8112   0.908E-01 0.252E-03
CGA:   8    -0.317396377089E+03   -0.97968E-02   -0.97750E-02  8112   0.557E-01-0.126E-03
CGA:   9    -0.317403693992E+03   -0.73169E-02   -0.73210E-02  8112   0.191E-01 0.271E-03
CGA:  10    -0.317407333645E+03   -0.36397E-02   -0.36378E-02  8112   0.141E-01 0.296E-04
CGA:  11    -0.317408873974E+03   -0.15403E-02   -0.15428E-02  8112   0.824E-02 0.203E-04
CGA:  12    -0.317410008584E+03   -0.11346E-02   -0.11346E-02  8112   0.459E-02 0.873E-05
CGA:  13    -0.317410634394E+03   -0.62581E-03   -0.62587E-03  8112   0.245E-02 0.138E-04
CGA:  14    -0.317410988864E+03   -0.35447E-03   -0.35444E-03  8112   0.123E-02 0.676E-05
CGA:  15    -0.317411153585E+03   -0.16472E-03   -0.16476E-03  8112   0.882E-03 0.680E-05
CGA:  16    -0.317411250264E+03   -0.96679E-04   -0.96819E-04  8112   0.345E-03 0.493E-05
CGA:  17    -0.317411313774E+03   -0.63510E-04   -0.63343E-04  8112   0.220E-03 0.362E-05
CGA:  18    -0.317411344537E+03   -0.30763E-04   -0.30765E-04  8112   0.155E-03 0.130E-05
CGA:  19    -0.317411364616E+03   -0.20079E-04   -0.20081E-04  8112   0.957E-04 0.125E-06
CGA:  20    -0.317411378238E+03   -0.13622E-04   -0.13624E-04  8112   0.542E-04-0.649E-06
CGA:  21    -0.317411386427E+03   -0.81896E-05   -0.81989E-05  8112   0.308E-04-0.727E-06
   5 F= -.31741139E+03 E0= -.31740688E+03  d E =-.760953E+00  mag=    44.0000
       N       E                     dE             d eps       ncg     rms          ort
SDA:   1    -0.305793894654E+03    0.11617E+02    0.00000E+00  8112   0.316E+02 0.000E+00
CGA:   2    -0.314224135938E+03   -0.84302E+01   -0.83562E+01  8112   0.218E+02 0.564E+00
CGA:   3    -0.316293467152E+03   -0.20693E+01   -0.20561E+01  8112   0.993E+01-0.306E+00
CGA:   4    -0.317413111421E+03   -0.11196E+01   -0.10660E+01  8112   0.269E+01-0.154E+00
CGA:   5    -0.317774606626E+03   -0.36150E+00   -0.36141E+00  8112   0.877E+00-0.661E-02
CGA:   6    -0.317866474999E+03   -0.91868E-01   -0.91913E-01  8112   0.476E+00 0.821E-03
CGA:   7    -0.317915051526E+03   -0.48577E-01   -0.49087E-01  8112   0.195E+00 0.247E-02
CGA:   8    -0.317935923473E+03   -0.20872E-01   -0.20836E-01  8112   0.830E-01-0.184E-03
CGA:   9    -0.317947673381E+03   -0.11750E-01   -0.11741E-01  8112   0.401E-01 0.934E-03
CGA:  10    -0.317952431737E+03   -0.47584E-02   -0.47640E-02  8112   0.229E-01 0.105E-03
CGA:  11    -0.317955236907E+03   -0.28052E-02   -0.28094E-02  8112   0.143E-01 0.129E-03
CGA:  12    -0.317957066918E+03   -0.18300E-02   -0.18302E-02  8112   0.562E-02 0.103E-04
CGA:  13    -0.317958070455E+03   -0.10035E-02   -0.10014E-02  8112   0.441E-02 0.388E-04
CGA:  14    -0.317958507752E+03   -0.43730E-03   -0.43789E-03  8112   0.203E-02 0.857E-05
CGA:  15    -0.317958787987E+03   -0.28024E-03   -0.28020E-03  8112   0.965E-03 0.111E-04
CGA:  16    -0.317958936571E+03   -0.14858E-03   -0.14844E-03  8112   0.509E-03 0.774E-05
CGA:  17    -0.317958991093E+03   -0.54522E-04   -0.54624E-04  8112   0.279E-03 0.298E-05
CGA:  18    -0.317959031410E+03   -0.40317E-04   -0.40296E-04  8112   0.162E-03 0.225E-05
CGA:  19    -0.317959053161E+03   -0.21752E-04   -0.21754E-04  8112   0.851E-04 0.108E-05
CGA:  20    -0.317959066710E+03   -0.13548E-04   -0.13539E-04  8112   0.678E-04 0.367E-06
CGA:  21    -0.317959075360E+03   -0.86499E-05   -0.86511E-05  8112   0.409E-04 0.125E-06
   6 F= -.31795908E+03 E0= -.31795449E+03  d E =-.547689E+00  mag=    44.0000
       N       E                     dE             d eps       ncg     rms          ort
SDA:   1    -0.293971585619E+03    0.23987E+02    0.00000E+00  8112   0.653E+02 0.000E+00
CGA:   2    -0.310406795397E+03   -0.16435E+02   -0.16078E+02  8112   0.476E+02 0.213E+01
CGA:   3    -0.314993616798E+03   -0.45868E+01   -0.44438E+01  8112   0.187E+02-0.329E-01
CGA:   4    -0.317213847328E+03   -0.22202E+01   -0.20503E+01  8112   0.590E+01-0.800E+00
CGA:   5    -0.317957480702E+03   -0.74363E+00   -0.74359E+00  8112   0.247E+01-0.503E-02
CGA:   6    -0.318132835361E+03   -0.17535E+00   -0.16941E+00  8112   0.109E+01 0.159E-01
CGA:   7    -0.318257462002E+03   -0.12463E+00   -0.12587E+00  8112   0.516E+00 0.241E-01
CGA:   8    -0.318309280200E+03   -0.51818E-01   -0.51663E-01  8112   0.213E+00-0.614E-03
CGA:   9    -0.318332380553E+03   -0.23100E-01   -0.23495E-01  8112   0.137E+00 0.656E-02
CGA:  10    -0.318346434146E+03   -0.14054E-01   -0.14120E-01  8112   0.603E-01 0.429E-03
CGA:  11    -0.318353960874E+03   -0.75267E-02   -0.75355E-02  8112   0.302E-01 0.116E-02
CGA:  12    -0.318358380442E+03   -0.44196E-02   -0.44169E-02  8112   0.238E-01 0.115E-03
CGA:  13    -0.318360708715E+03   -0.23283E-02   -0.23475E-02  8112   0.913E-02 0.145E-03
CGA:  14    -0.318362223631E+03   -0.15149E-02   -0.15114E-02  8112   0.580E-02 0.736E-04
CGA:  15    -0.318362909497E+03   -0.68587E-03   -0.68649E-03  8112   0.305E-02 0.277E-04
CGA:  16    -0.318363223142E+03   -0.31364E-03   -0.31409E-03  8112   0.133E-02 0.104E-04
CGA:  17    -0.318363440977E+03   -0.21783E-03   -0.21744E-03  8112   0.595E-03 0.104E-04
CGA:  18    -0.318363502481E+03   -0.61504E-04   -0.61596E-04  8112   0.332E-03 0.288E-05
CGA:  19    -0.318363549524E+03   -0.47043E-04   -0.47014E-04  8112   0.181E-03 0.201E-05
CGA:  20    -0.318363573131E+03   -0.23608E-04   -0.23607E-04  8112   0.983E-04 0.808E-06
CGA:  21    -0.318363586916E+03   -0.13784E-04   -0.13779E-04  8112   0.661E-04 0.477E-06
CGA:  22    -0.318363595721E+03   -0.88054E-05   -0.88042E-05  8112   0.449E-04 0.340E-06
   7 F= -.31836360E+03 E0= -.31835882E+03  d E =-.404520E+00  mag=    44.0000
       N       E                     dE             d eps       ncg     rms          ort
SDA:   1    -0.296795286598E+03    0.21568E+02    0.00000E+00  8112   0.560E+02 0.000E+00
CGA:   2    -0.311553277114E+03   -0.14758E+02   -0.14837E+02  8112   0.443E+02-0.425E+00
CGA:   3    -0.315710065408E+03   -0.41568E+01   -0.41087E+01  8112   0.146E+02 0.132E+01
CGA:   4    -0.317657369744E+03   -0.19473E+01   -0.19470E+01  8112   0.516E+01-0.281E-01
CGA:   5    -0.318109111607E+03   -0.45174E+00   -0.44812E+00  8112   0.253E+01-0.325E-01
CGA:   6    -0.318364223935E+03   -0.25511E+00   -0.25558E+00  8112   0.739E+00 0.224E-02
CGA:   7    -0.318457990991E+03   -0.93767E-01   -0.93826E-01  8112   0.304E+00 0.901E-02
CGA:   8    -0.318499192466E+03   -0.41201E-01   -0.41197E-01  8112   0.127E+00 0.635E-03
CGA:   9    -0.318513052717E+03   -0.13860E-01   -0.13880E-01  8112   0.782E-01 0.320E-03
CGA:  10    -0.318521712339E+03   -0.86596E-02   -0.86740E-02  8112   0.359E-01 0.274E-03
CGA:  11    -0.318525957740E+03   -0.42454E-02   -0.42507E-02  8112   0.188E-01 0.233E-03
CGA:  12    -0.318528979657E+03   -0.30219E-02   -0.30159E-02  8112   0.945E-02 0.141E-03
CGA:  13    -0.318530172700E+03   -0.11930E-02   -0.11933E-02  8112   0.737E-02 0.358E-04
CGA:  14    -0.318530971230E+03   -0.79853E-03   -0.79930E-03  8112   0.313E-02 0.190E-04
CGA:  15    -0.318531450807E+03   -0.47958E-03   -0.47924E-03  8112   0.139E-02 0.122E-04
CGA:  16    -0.318531627200E+03   -0.17639E-03   -0.17642E-03  8112   0.904E-03 0.779E-05
CGA:  17    -0.318531725053E+03   -0.97853E-04   -0.97954E-04  8112   0.370E-03 0.446E-05
CGA:  18    -0.318531766543E+03   -0.41490E-04   -0.41523E-04  8112   0.163E-03 0.176E-05
CGA:  19    -0.318531791195E+03   -0.24652E-04   -0.24629E-04  8112   0.799E-04 0.912E-06
CGA:  20    -0.318531800582E+03   -0.93874E-05   -0.93919E-05  8112   0.519E-04 0.362E-06
   8 F= -.31853180E+03 E0= -.31852673E+03  d E =-.168205E+00  mag=    44.0000
       N       E                     dE             d eps       ncg     rms          ort
SDA:   1    -0.287422450804E+03    0.31109E+02    0.00000E+00  8112   0.810E+02 0.000E+00
CGA:   2    -0.307201765159E+03   -0.19779E+02   -0.20002E+02  8112   0.899E+02-0.172E+01
CGA:   3    -0.314247393267E+03   -0.70456E+01   -0.71287E+01  8112   0.212E+02 0.311E+01
CGA:   4    -0.317051705903E+03   -0.28043E+01   -0.28000E+01  8112   0.112E+02-0.640E+00
CGA:   5    -0.317977170303E+03   -0.92546E+00   -0.90148E+00  8112   0.338E+01-0.975E-01
CGA:   6    -0.318341907638E+03   -0.36474E+00   -0.36403E+00  8112   0.138E+01-0.104E-01
CGA:   7    -0.318500039077E+03   -0.15813E+00   -0.15853E+00  8112   0.500E+00 0.142E-01
CGA:   8    -0.318560673484E+03   -0.60634E-01   -0.60610E-01  8112   0.239E+00-0.156E-02
CGA:   9    -0.318587341311E+03   -0.26668E-01   -0.26801E-01  8112   0.127E+00 0.377E-02
CGA:  10    -0.318599331612E+03   -0.11990E-01   -0.12003E-01  8112   0.541E-01 0.578E-04
CGA:  11    -0.318607729581E+03   -0.83980E-02   -0.83842E-02  8112   0.323E-01 0.320E-03
CGA:  12    -0.318611326259E+03   -0.35967E-02   -0.35998E-02  8112   0.166E-01 0.109E-03
CGA:  13    -0.318613748755E+03   -0.24225E-02   -0.24171E-02  8112   0.117E-01 0.185E-03
CGA:  14    -0.318615054331E+03   -0.13056E-02   -0.13069E-02  8112   0.544E-02 0.456E-04
CGA:  15    -0.318615747203E+03   -0.69287E-03   -0.69280E-03  8112   0.298E-02 0.234E-04
CGA:  16    -0.318616153400E+03   -0.40620E-03   -0.40601E-03  8112   0.138E-02 0.146E-04
CGA:  17    -0.318616293602E+03   -0.14020E-03   -0.14046E-03  8112   0.702E-03 0.821E-05
CGA:  18    -0.318616385049E+03   -0.91446E-04   -0.91410E-04  8112   0.263E-03 0.708E-05
CGA:  19    -0.318616417789E+03   -0.32740E-04   -0.32743E-04  8112   0.146E-03 0.234E-05
CGA:  20    -0.318616435082E+03   -0.17294E-04   -0.17299E-04  8112   0.722E-04 0.727E-06
CGA:  21    -0.318616444200E+03   -0.91178E-05   -0.91172E-05  8112   0.379E-04 0.323E-06
   9 F= -.31861644E+03 E0= -.31861131E+03  d E =-.846436E-01  mag=    44.0000
       N       E                     dE             d eps       ncg     rms          ort
SDA:   1    -0.313879842467E+03    0.47366E+01    0.00000E+00  8112   0.125E+02 0.000E+00
CGA:   2    -0.317139559232E+03   -0.32597E+01   -0.32851E+01  8112   0.915E+01-0.206E+00
CGA:   3    -0.318114066974E+03   -0.97451E+00   -0.96972E+00  8112   0.293E+01 0.123E+00
CGA:   4    -0.318520244208E+03   -0.40618E+00   -0.40605E+00  8112   0.101E+01 0.112E-01
CGA:   5    -0.318616444010E+03   -0.96200E-01   -0.96202E-01  8112   0.489E+00-0.166E-02
CGA:   6    -0.318660258898E+03   -0.43815E-01   -0.43656E-01  8112   0.152E+00-0.380E-03
CGA:   7    -0.318680020479E+03   -0.19762E-01   -0.19755E-01  8112   0.502E-01 0.120E-02
CGA:   8    -0.318687043132E+03   -0.70227E-02   -0.70232E-02  8112   0.215E-01-0.301E-04
CGA:   9    -0.318689945236E+03   -0.29021E-02   -0.29003E-02  8112   0.105E-01 0.137E-03
CGA:  10    -0.318691050299E+03   -0.11051E-02   -0.11054E-02  8112   0.679E-02 0.760E-05
CGA:  11    -0.318691833288E+03   -0.78299E-03   -0.78341E-03  8112   0.293E-02 0.200E-04
CGA:  12    -0.318692284956E+03   -0.45167E-03   -0.45108E-03  8112   0.144E-02 0.168E-04
CGA:  13    -0.318692538780E+03   -0.25382E-03   -0.25343E-03  8112   0.111E-02 0.758E-05
CGA:  14    -0.318692642925E+03   -0.10414E-03   -0.10425E-03  8112   0.547E-03 0.236E-05
CGA:  15    -0.318692716860E+03   -0.73935E-04   -0.73910E-04  8112   0.280E-03 0.331E-05
CGA:  16    -0.318692755148E+03   -0.38288E-04   -0.38269E-04  8112   0.101E-03 0.252E-05
CGA:  17    -0.318692769504E+03   -0.14356E-04   -0.14342E-04  8112   0.701E-04 0.110E-05
CGA:  18    -0.318692776217E+03   -0.67130E-05   -0.67301E-05  8112   0.304E-04 0.480E-06
  10 F= -.31869278E+03 E0= -.31868765E+03  d E =-.763320E-01  mag=    44.0000
       N       E                     dE             d eps       ncg     rms          ort
SDA:   1    -0.293505214654E+03    0.25188E+02    0.00000E+00  8112   0.659E+02 0.000E+00
CGA:   2    -0.310630757301E+03   -0.17126E+02   -0.17290E+02  8112   0.521E+02-0.126E+01
CGA:   3    -0.315506069444E+03   -0.48753E+01   -0.48498E+01  8112   0.160E+02 0.139E+01
CGA:   4    -0.317764125178E+03   -0.22581E+01   -0.22580E+01  8112   0.555E+01 0.169E-02
CGA:   5    -0.318306129948E+03   -0.54200E+00   -0.53495E+00  8112   0.289E+01-0.467E-01
CGA:   6    -0.318551037003E+03   -0.24491E+00   -0.24472E+00  8112   0.923E+00-0.191E-01
CGA:   7    -0.318665628305E+03   -0.11459E+00   -0.11465E+00  8112   0.324E+00 0.694E-02
CGA:   8    -0.318706430050E+03   -0.40802E-01   -0.40812E-01  8112   0.160E+00 0.145E-02
CGA:   9    -0.318723429138E+03   -0.16999E-01   -0.16993E-01  8112   0.940E-01-0.899E-04
CGA:  10    -0.318732740721E+03   -0.93116E-02   -0.93485E-02  8112   0.381E-01 0.306E-03
CGA:  11    -0.318738208014E+03   -0.54673E-02   -0.54562E-02  8112   0.216E-01 0.424E-03
CGA:  12    -0.318741145652E+03   -0.29376E-02   -0.29354E-02  8112   0.124E-01 0.184E-03
CGA:  13    -0.318742445559E+03   -0.12999E-02   -0.13012E-02  8112   0.857E-02 0.292E-04
CGA:  14    -0.318743640695E+03   -0.11951E-02   -0.11944E-02  8112   0.320E-02 0.414E-04
CGA:  15    -0.318744105349E+03   -0.46465E-03   -0.46436E-03  8112   0.222E-02 0.139E-04
CGA:  16    -0.318744342796E+03   -0.23745E-03   -0.23775E-03  8112   0.114E-02 0.105E-04
CGA:  17    -0.318744462858E+03   -0.12006E-03   -0.12027E-03  8112   0.412E-03 0.785E-05
CGA:  18    -0.318744524893E+03   -0.62035E-04   -0.61899E-04  8112   0.216E-03 0.554E-05
CGA:  19    -0.318744548617E+03   -0.23724E-04   -0.23763E-04  8112   0.121E-03 0.196E-05
CGA:  20    -0.318744561961E+03   -0.13344E-04   -0.13360E-04  8112   0.578E-04 0.901E-06
CGA:  21    -0.318744571260E+03   -0.92994E-05   -0.92856E-05  8112   0.314E-04 0.387E-06
  11 F= -.31874457E+03 E0= -.31873951E+03  d E =-.517950E-01  mag=    44.0000
       N       E                     dE             d eps       ncg     rms          ort
SDA:   1    -0.313764453008E+03    0.49801E+01    0.00000E+00  8112   0.131E+02 0.000E+00
CGA:   2    -0.316870917285E+03   -0.31065E+01   -0.31621E+01  8112   0.133E+02-0.511E+00
CGA:   3    -0.318155730927E+03   -0.12848E+01   -0.12613E+01  8112   0.292E+01 0.376E+00
CGA:   4    -0.318626445346E+03   -0.47071E+00   -0.47072E+00  8112   0.102E+01-0.173E-03
CGA:   5    -0.318711942687E+03   -0.85497E-01   -0.85100E-01  8112   0.530E+00-0.212E-02
CGA:   6    -0.318766306428E+03   -0.54364E-01   -0.54357E-01  8112   0.134E+00-0.911E-04
CGA:   7    -0.318786212447E+03   -0.19906E-01   -0.19898E-01  8112   0.532E-01 0.274E-03
CGA:   8    -0.318792754952E+03   -0.65425E-02   -0.65462E-02  8112   0.278E-01 0.244E-03
CGA:   9    -0.318795464714E+03   -0.27098E-02   -0.27106E-02  8112   0.131E-01-0.881E-06
CGA:  10    -0.318796905160E+03   -0.14404E-02   -0.14410E-02  8112   0.624E-02 0.135E-04
CGA:  11    -0.318797749147E+03   -0.84399E-03   -0.84332E-03  8112   0.293E-02 0.487E-04
CGA:  12    -0.318798180333E+03   -0.43119E-03   -0.43101E-03  8112   0.199E-02 0.872E-05
CGA:  13    -0.318798388832E+03   -0.20850E-03   -0.20861E-03  8112   0.123E-02 0.372E-05
CGA:  14    -0.318798546771E+03   -0.15794E-03   -0.15792E-03  8112   0.530E-03 0.611E-05
CGA:  15    -0.318798623876E+03   -0.77105E-04   -0.77068E-04  8112   0.310E-03 0.204E-05
CGA:  16    -0.318798659030E+03   -0.35154E-04   -0.35182E-04  8112   0.157E-03 0.178E-05
CGA:  17    -0.318798674525E+03   -0.15496E-04   -0.15534E-04  8112   0.703E-04 0.123E-05
CGA:  18    -0.318798684069E+03   -0.95436E-05   -0.95340E-05  8112   0.255E-04 0.105E-05
  12 F= -.31879868E+03 E0= -.31879357E+03  d E =-.541128E-01  mag=    44.0000
       N       E                     dE             d eps       ncg     rms          ort
SDA:   1    -0.316764043411E+03    0.20346E+01    0.00000E+00  8112   0.528E+01 0.000E+00
CGA:   2    -0.318055971244E+03   -0.12919E+01   -0.13057E+01  8112   0.536E+01-0.122E+00
CGA:   3    -0.318553483404E+03   -0.49751E+00   -0.49796E+00  8112   0.157E+01 0.560E-01
CGA:   4    -0.318701044964E+03   -0.14756E+00   -0.14769E+00  8112   0.884E+00-0.523E-02
CGA:   5    -0.318784144905E+03   -0.83100E-01   -0.83121E-01  8112   0.162E+00-0.917E-04
CGA:   6    -0.318808034051E+03   -0.23889E-01   -0.23889E-01  8112   0.578E-01 0.335E-04
CGA:   7    -0.318816368221E+03   -0.83342E-02   -0.83181E-02  8112   0.194E-01 0.613E-03
CGA:   8    -0.318818948680E+03   -0.25805E-02   -0.25803E-02  8112   0.105E-01 0.202E-04
CGA:   9    -0.318819946602E+03   -0.99792E-03   -0.99822E-03  8112   0.543E-02-0.299E-05
CGA:  10    -0.318820506364E+03   -0.55976E-03   -0.56054E-03  8112   0.223E-02 0.830E-05
CGA:  11    -0.318820864771E+03   -0.35841E-03   -0.35798E-03  8112   0.101E-02 0.102E-04
CGA:  12    -0.318821031485E+03   -0.16671E-03   -0.16641E-03  8112   0.602E-03 0.673E-05
CGA:  13    -0.318821105547E+03   -0.74062E-04   -0.74078E-04  8112   0.529E-03 0.192E-05
CGA:  14    -0.318821159673E+03   -0.54127E-04   -0.54174E-04  8112   0.173E-03 0.156E-05
CGA:  15    -0.318821188031E+03   -0.28358E-04   -0.28318E-04  8112   0.909E-04 0.104E-05
CGA:  16    -0.318821201669E+03   -0.13638E-04   -0.13626E-04  8112   0.378E-04 0.606E-06
CGA:  17    -0.318821205243E+03   -0.35740E-05   -0.35820E-05  8112   0.235E-04 0.214E-06
  13 F= -.31882121E+03 E0= -.31881612E+03  d E =-.225212E-01  mag=    44.0000
       N       E                     dE             d eps       ncg     rms          ort
SDA:   1    -0.310076485974E+03    0.87447E+01    0.00000E+00  8112   0.230E+02 0.000E+00
CGA:   2    -0.315351073509E+03   -0.52746E+01   -0.54259E+01  8112   0.264E+02-0.148E+01
CGA:   3    -0.317745260336E+03   -0.23942E+01   -0.23578E+01  8112   0.501E+01 0.898E+00
CGA:   4    -0.318541049154E+03   -0.79579E+00   -0.79487E+00  8112   0.174E+01 0.274E-01
CGA:   5    -0.318744525660E+03   -0.20348E+00   -0.20324E+00  8112   0.615E+00-0.504E-02
CGA:   6    -0.318807113509E+03   -0.62588E-01   -0.62623E-01  8112   0.265E+00 0.361E-03
CGA:   7    -0.318840051840E+03   -0.32938E-01   -0.32990E-01  8112   0.777E-01 0.381E-02
CGA:   8    -0.318851190874E+03   -0.11139E-01   -0.11139E-01  8112   0.331E-01-0.195E-04
CGA:   9    -0.318855877741E+03   -0.46869E-02   -0.46856E-02  8112   0.140E-01 0.622E-04
CGA:  10    -0.318857707021E+03   -0.18293E-02   -0.18295E-02  8112   0.837E-02 0.150E-03
CGA:  11    -0.318858733933E+03   -0.10269E-02   -0.10273E-02  8112   0.557E-02 0.246E-04
CGA:  12    -0.318859285412E+03   -0.55148E-03   -0.55160E-03  8112   0.250E-02 0.952E-05
CGA:  13    -0.318859714552E+03   -0.42914E-03   -0.42778E-03  8112   0.157E-02 0.255E-04
CGA:  14    -0.318859918678E+03   -0.20413E-03   -0.20414E-03  8112   0.643E-03 0.495E-05
CGA:  15    -0.318860013117E+03   -0.94440E-04   -0.94369E-04  8112   0.469E-03 0.451E-05
CGA:  16    -0.318860056709E+03   -0.43592E-04   -0.43736E-04  8112   0.195E-03 0.328E-05
CGA:  17    -0.318860078808E+03   -0.22099E-04   -0.22139E-04  8112   0.627E-04 0.236E-05
CGA:  18    -0.318860089653E+03   -0.10845E-04   -0.10790E-04  8112   0.366E-04 0.131E-05
CGA:  19    -0.318860093607E+03   -0.39535E-05   -0.39626E-05  8112   0.154E-04 0.343E-06
  14 F= -.31886009E+03 E0= -.31885516E+03  d E =-.388884E-01  mag=    44.0000
       N       E                     dE             d eps       ncg     rms          ort
SDA:   1    -0.292873877865E+03    0.25986E+02    0.00000E+00  8112   0.677E+02 0.000E+00
CGA:   2    -0.308714336960E+03   -0.15840E+02   -0.16313E+02  8112   0.814E+02-0.429E+01
CGA:   3    -0.315290984364E+03   -0.65766E+01   -0.66566E+01  8112   0.184E+02 0.667E+00
CGA:   4    -0.317667500491E+03   -0.23765E+01   -0.23776E+01  8112   0.779E+01 0.126E+00
CGA:   5    -0.318380256153E+03   -0.71276E+00   -0.69499E+00  8112   0.285E+01 0.963E-01
CGA:   6    -0.318676113232E+03   -0.29586E+00   -0.29479E+00  8112   0.945E+00-0.112E-01
CGA:   7    -0.318795488329E+03   -0.11938E+00   -0.11938E+00  8112   0.471E+00 0.673E-03
CGA:   8    -0.318841260930E+03   -0.45773E-01   -0.46278E-01  8112   0.186E+00 0.358E-02
CGA:   9    -0.318861687930E+03   -0.20427E-01   -0.20475E-01  8112   0.956E-01 0.938E-03
CGA:  10    -0.318873399655E+03   -0.11712E-01   -0.11713E-01  8112   0.377E-01 0.149E-03
CGA:  11    -0.318877963742E+03   -0.45641E-02   -0.45644E-02  8112   0.258E-01 0.478E-04
CGA:  12    -0.318881435222E+03   -0.34715E-02   -0.34670E-02  8112   0.116E-01 0.309E-03
CGA:  13    -0.318882898553E+03   -0.14633E-02   -0.14635E-02  8112   0.769E-02 0.101E-03
CGA:  14    -0.318884017291E+03   -0.11187E-02   -0.11172E-02  8112   0.421E-02 0.599E-04
CGA:  15    -0.318884524936E+03   -0.50765E-03   -0.50790E-03  8112   0.201E-02 0.205E-04
CGA:  16    -0.318884768458E+03   -0.24352E-03   -0.24365E-03  8112   0.107E-02 0.155E-04
CGA:  17    -0.318884915634E+03   -0.14718E-03   -0.14705E-03  8112   0.402E-03 0.121E-04
CGA:  18    -0.318884958327E+03   -0.42693E-04   -0.42802E-04  8112   0.187E-03 0.457E-05
CGA:  19    -0.318884985057E+03   -0.26730E-04   -0.26678E-04  8112   0.967E-04 0.321E-05
CGA:  20    -0.318884996336E+03   -0.11278E-04   -0.11294E-04  8112   0.387E-04 0.128E-05
CGA:  21    -0.318885001752E+03   -0.54166E-05   -0.54101E-05  8112   0.268E-04 0.523E-06
  15 F= -.31888500E+03 E0= -.31888048E+03  d E =-.249081E-01  mag=    44.0000
       N       E                     dE             d eps       ncg     rms          ort
SDA:   1    -0.312179711173E+03    0.67053E+01    0.00000E+00  8112   0.170E+02 0.000E+00
CGA:   2    -0.316694047523E+03   -0.45143E+01   -0.45346E+01  8112   0.126E+02-0.111E+00
CGA:   3    -0.317995224208E+03   -0.13012E+01   -0.13145E+01  8112   0.607E+01-0.182E-01
CGA:   4    -0.318600104748E+03   -0.60488E+00   -0.60806E+00  8112   0.155E+01 0.152E-01
CGA:   5    -0.318794136901E+03   -0.19403E+00   -0.19361E+00  8112   0.485E+00-0.262E-01
CGA:   6    -0.318858092266E+03   -0.63955E-01   -0.63923E-01  8112   0.167E+00 0.559E-02
CGA:   7    -0.318879068583E+03   -0.20976E-01   -0.20975E-01  8112   0.848E-01-0.854E-04
CGA:   8    -0.318887720236E+03   -0.86517E-02   -0.86632E-02  8112   0.313E-01 0.969E-04
CGA:   9    -0.318892131434E+03   -0.44112E-02   -0.44099E-02  8112   0.117E-01 0.670E-04
CGA:  10    -0.318894042682E+03   -0.19112E-02   -0.19092E-02  8112   0.628E-02 0.449E-04
CGA:  11    -0.318894820795E+03   -0.77811E-03   -0.77828E-03  8112   0.391E-02 0.122E-04
CGA:  12    -0.318895342408E+03   -0.52161E-03   -0.52158E-03  8112   0.177E-02 0.121E-04
CGA:  13    -0.318895616188E+03   -0.27378E-03   -0.27364E-03  8112   0.950E-03 0.603E-05
CGA:  14    -0.318895769622E+03   -0.15343E-03   -0.15325E-03  8112   0.498E-03 0.590E-05
CGA:  15    -0.318895825895E+03   -0.56273E-04   -0.56304E-04  8112   0.260E-03 0.117E-05
CGA:  16    -0.318895861767E+03   -0.35872E-04   -0.35869E-04  8112   0.925E-04 0.623E-06
CGA:  17    -0.318895875576E+03   -0.13809E-04   -0.13795E-04  8112   0.366E-04 0.852E-06
CGA:  18    -0.318895880380E+03   -0.48031E-05   -0.48050E-05  8112   0.227E-04 0.533E-06
  16 F= -.31889588E+03 E0= -.31889170E+03  d E =-.108786E-01  mag=    44.0000
       N       E                     dE             d eps       ncg     rms          ort
SDA:   1    -0.314705039222E+03    0.41908E+01    0.00000E+00  8112   0.107E+02 0.000E+00
CGA:   2    -0.317499050038E+03   -0.27940E+01   -0.27952E+01  8112   0.888E+01-0.224E-01
CGA:   3    -0.318386237218E+03   -0.88719E+00   -0.89045E+00  8112   0.312E+01 0.491E-01
CGA:   4    -0.318731959047E+03   -0.34572E+00   -0.34081E+00  8112   0.124E+01-0.466E-01
CGA:   5    -0.318850830335E+03   -0.11887E+00   -0.11930E+00  8112   0.323E+00-0.201E-03
CGA:   6    -0.318895517295E+03   -0.44687E-01   -0.44678E-01  8112   0.102E+00 0.112E-02
CGA:   7    -0.318911032942E+03   -0.15516E-01   -0.15522E-01  8112   0.411E-01-0.204E-03
CGA:   8    -0.318915112963E+03   -0.40800E-02   -0.40729E-02  8112   0.226E-01-0.335E-04
CGA:   9    -0.318917817425E+03   -0.27045E-02   -0.27058E-02  8112   0.661E-02 0.386E-04
CGA:  10    -0.318918921071E+03   -0.11036E-02   -0.11028E-02  8112   0.353E-02 0.189E-04
CGA:  11    -0.318919431008E+03   -0.50994E-03   -0.50980E-03  8112   0.215E-02 0.108E-04
CGA:  12    -0.318919672963E+03   -0.24196E-03   -0.24210E-03  8112   0.122E-02 0.440E-05
CGA:  13    -0.318919847055E+03   -0.17409E-03   -0.17403E-03  8112   0.608E-03 0.480E-05
CGA:  14    -0.318919943920E+03   -0.96864E-04   -0.96841E-04  8112   0.259E-03 0.103E-05
CGA:  15    -0.318919981176E+03   -0.37256E-04   -0.37234E-04  8112   0.194E-03 0.262E-05
CGA:  16    -0.318920000310E+03   -0.19134E-04   -0.19209E-04  8112   0.566E-04 0.191E-05
CGA:  17    -0.318920009388E+03   -0.90785E-05   -0.90547E-05  8112   0.245E-04 0.958E-06
  17 F= -.31892001E+03 E0= -.31891554E+03  d E =-.241290E-01  mag=    44.0000
       N       E                     dE             d eps       ncg     rms          ort
SDA:   1    -0.317948181268E+03    0.97182E+00    0.00000E+00  8112   0.251E+01 0.000E+00
CGA:   2    -0.318601832044E+03   -0.65365E+00   -0.65855E+00  8112   0.203E+01-0.390E-01
CGA:   3    -0.318817255947E+03   -0.21542E+00   -0.21848E+00  8112   0.637E+00 0.250E-01
CGA:   4    -0.318890661555E+03   -0.73406E-01   -0.73348E-01  8112   0.297E+00-0.845E-03
CGA:   5    -0.318916962367E+03   -0.26301E-01   -0.26258E-01  8112   0.690E-01 0.454E-05
CGA:   6    -0.318927152666E+03   -0.10190E-01   -0.10190E-01  8112   0.224E-01 0.398E-04
CGA:   7    -0.318930450860E+03   -0.32982E-02   -0.32977E-02  8112   0.832E-02 0.325E-04
CGA:   8    -0.318931506956E+03   -0.10561E-02   -0.10560E-02  8112   0.467E-02-0.640E-05
CGA:   9    -0.318931964418E+03   -0.45746E-03   -0.45750E-03  8112   0.163E-02-0.189E-05
CGA:  10    -0.318932218873E+03   -0.25445E-03   -0.25439E-03  8112   0.768E-03 0.259E-05
CGA:  11    -0.318932337700E+03   -0.11883E-03   -0.11876E-03  8112   0.383E-03 0.303E-05
CGA:  12    -0.318932395456E+03   -0.57756E-04   -0.57755E-04  8112   0.288E-03 0.873E-07
CGA:  13    -0.318932427199E+03   -0.31743E-04   -0.31747E-04  8112   0.131E-03-0.219E-07
CGA:  14    -0.318932448208E+03   -0.21010E-04   -0.20998E-04  8112   0.551E-04 0.449E-06
CGA:  15    -0.318932457614E+03   -0.94051E-05   -0.93832E-05  8112   0.283E-04 0.669E-06
  18 F= -.31893246E+03 E0= -.31892807E+03  d E =-.124482E-01  mag=    44.0000
       N       E                     dE             d eps       ncg     rms          ort
SDA:   1    -0.283675249737E+03    0.35257E+02    0.00000E+00  8112   0.907E+02 0.000E+00
CGA:   2    -0.306125735840E+03   -0.22450E+02   -0.22989E+02  8112   0.107E+03-0.492E+01
CGA:   3    -0.314069215637E+03   -0.79435E+01   -0.82199E+01  8112   0.244E+02-0.456E+00
CGA:   4    -0.317598497562E+03   -0.35293E+01   -0.35289E+01  8112   0.714E+01 0.345E-02
CGA:   5    -0.318427583792E+03   -0.82909E+00   -0.79703E+00  8112   0.310E+01-0.208E+00
CGA:   6    -0.318731099064E+03   -0.30352E+00   -0.30727E+00  8112   0.110E+01 0.258E-01
CGA:   7    -0.318851503222E+03   -0.12040E+00   -0.12269E+00  8112   0.686E+00 0.253E-01
CGA:   8    -0.318914462069E+03   -0.62959E-01   -0.63703E-01  8112   0.187E+00 0.227E-02
CGA:   9    -0.318945231503E+03   -0.30769E-01   -0.30546E-01  8112   0.927E-01 0.501E-02
CGA:  10    -0.318955657916E+03   -0.10426E-01   -0.10513E-01  8112   0.500E-01 0.104E-02
CGA:  11    -0.318962566741E+03   -0.69088E-02   -0.69053E-02  8112   0.286E-01 0.640E-03
CGA:  12    -0.318966553548E+03   -0.39868E-02   -0.39849E-02  8112   0.115E-01 0.305E-03
CGA:  13    -0.318968938026E+03   -0.23845E-02   -0.23506E-02  8112   0.691E-02 0.410E-03
CGA:  14    -0.318969913040E+03   -0.97501E-03   -0.97515E-03  8112   0.316E-02 0.733E-04
CGA:  15    -0.318970401814E+03   -0.48877E-03   -0.48815E-03  8112   0.174E-02 0.299E-04
CGA:  16    -0.318970608612E+03   -0.20680E-03   -0.20727E-03  8112   0.651E-03 0.155E-04
CGA:  17    -0.318970701409E+03   -0.92798E-04   -0.92765E-04  8112   0.249E-03 0.751E-05
CGA:  18    -0.318970747743E+03   -0.46334E-04   -0.46166E-04  8112   0.809E-04 0.360E-05
CGA:  19    -0.318970761494E+03   -0.13751E-04   -0.13726E-04  8112   0.605E-04 0.870E-06
CGA:  20    -0.318970769162E+03   -0.76677E-05   -0.76745E-05  8112   0.267E-04 0.388E-06
  19 F= -.31897077E+03 E0= -.31896680E+03  d E =-.383115E-01  mag=    44.0000
       N       E                     dE             d eps       ncg     rms          ort
SDA:   1    -0.294699669239E+03    0.24271E+02    0.00000E+00  8112   0.746E+02 0.000E+00
CGA:   2    -0.308374559875E+03   -0.13675E+02   -0.13732E+02  8112   0.421E+02-0.132E+01
CGA:   3    -0.314872061827E+03   -0.64975E+01   -0.65114E+01  8112   0.200E+02-0.618E+00
CGA:   4    -0.317019750713E+03   -0.21477E+01   -0.20780E+01  8112   0.739E+01 0.281E-01
CGA:   5    -0.317835305964E+03   -0.81556E+00   -0.79238E+00  8112   0.278E+01-0.554E-01
CGA:   6    -0.318142966291E+03   -0.30766E+00   -0.31188E+00  8112   0.832E+00 0.422E-01
CGA:   7    -0.318275444829E+03   -0.13248E+00   -0.13258E+00  8112   0.256E+00-0.358E-02
CGA:   8    -0.318315718161E+03   -0.40273E-01   -0.40157E-01  8112   0.138E+00 0.411E-02
CGA:   9    -0.318332534875E+03   -0.16817E-01   -0.16828E-01  8112   0.577E-01 0.223E-03
CGA:  10    -0.318340136404E+03   -0.76015E-02   -0.76154E-02  8112   0.360E-01 0.747E-03
CGA:  11    -0.318345075342E+03   -0.49389E-02   -0.49401E-02  8112   0.113E-01 0.145E-03
CGA:  12    -0.318347408400E+03   -0.23331E-02   -0.23267E-02  8112   0.698E-02 0.841E-04
CGA:  13    -0.318348357055E+03   -0.94866E-03   -0.94880E-03  8112   0.338E-02 0.146E-04
CGA:  14    -0.318348862470E+03   -0.50541E-03   -0.50525E-03  8112   0.217E-02 0.158E-04
CGA:  15    -0.318349133664E+03   -0.27119E-03   -0.27124E-03  8112   0.754E-03 0.944E-06
CGA:  16    -0.318349271775E+03   -0.13811E-03   -0.13811E-03  8112   0.339E-03-0.294E-06
CGA:  17    -0.318349323276E+03   -0.51501E-04   -0.51489E-04  8112   0.165E-03 0.151E-05
CGA:  18    -0.318349345765E+03   -0.22489E-04   -0.22503E-04  8112   0.914E-04 0.162E-05
CGA:  19    -0.318349358283E+03   -0.12519E-04   -0.12527E-04  8112   0.425E-04 0.965E-06
CGA:  20    -0.318349365837E+03   -0.75536E-05   -0.75366E-05  8112   0.216E-04 0.529E-06
  20 F= -.31834937E+03 E0= -.31834556E+03  d E =0.621403E+00  mag=    44.0000
       N       E                     dE             d eps       ncg     rms          ort
SDA:   1    -0.315154760519E+03    0.31946E+01    0.00000E+00  8112   0.112E+02 0.000E+00
CGA:   2    -0.317268867230E+03   -0.21141E+01   -0.21140E+01  8112   0.650E+01-0.126E-04
CGA:   3    -0.318151351836E+03   -0.88248E+00   -0.88299E+00  8112   0.402E+01 0.610E-02
CGA:   4    -0.318586950908E+03   -0.43560E+00   -0.43522E+00  8112   0.108E+01 0.626E-03
CGA:   5    -0.318731035693E+03   -0.14408E+00   -0.14379E+00  8112   0.347E+00-0.863E-02
CGA:   6    -0.318777887533E+03   -0.46852E-01   -0.46887E-01  8112   0.117E+00 0.161E-02
CGA:   7    -0.318793995957E+03   -0.16108E-01   -0.16103E-01  8112   0.488E-01-0.268E-03
CGA:   8    -0.318799550534E+03   -0.55546E-02   -0.55635E-02  8112   0.238E-01 0.736E-04
CGA:   9    -0.318802800023E+03   -0.32495E-02   -0.32499E-02  8112   0.691E-02 0.348E-04
CGA:  10    -0.318804113795E+03   -0.13138E-02   -0.13121E-02  8112   0.405E-02 0.314E-04
CGA:  11    -0.318804626236E+03   -0.51244E-03   -0.51275E-03  8112   0.197E-02 0.854E-05
CGA:  12    -0.318804907407E+03   -0.28117E-03   -0.28118E-03  8112   0.106E-02 0.202E-05
CGA:  13    -0.318805059402E+03   -0.15199E-03   -0.15199E-03  8112   0.450E-03-0.381E-06
CGA:  14    -0.318805141256E+03   -0.81854E-04   -0.81774E-04  8112   0.254E-03 0.198E-05
CGA:  15    -0.318805175513E+03   -0.34256E-04   -0.34265E-04  8112   0.134E-03 0.747E-06
CGA:  16    -0.318805193797E+03   -0.18284E-04   -0.18285E-04  8112   0.639E-04 0.595E-07
CGA:  17    -0.318805203693E+03   -0.98961E-05   -0.98976E-05  8112   0.267E-04-0.174E-06
  21 F= -.31880520E+03 E0= -.31880129E+03  d E =-.455838E+00  mag=    44.0000
       N       E                     dE             d eps       ncg     rms          ort
SDA:   1    -0.317402195110E+03    0.14030E+01    0.00000E+00  8112   0.475E+01 0.000E+00
CGA:   2    -0.318273164078E+03   -0.87097E+00   -0.87106E+00  8112   0.317E+01-0.107E-02
CGA:   3    -0.318638871425E+03   -0.36571E+00   -0.36372E+00  8112   0.179E+01-0.177E-01
CGA:   4    -0.318863335796E+03   -0.22446E+00   -0.22492E+00  8112   0.424E+00 0.784E-02
CGA:   5    -0.318925004953E+03   -0.61669E-01   -0.61667E-01  8112   0.145E+00-0.181E-02
CGA:   6    -0.318943699601E+03   -0.18695E-01   -0.18717E-01  8112   0.546E-01 0.540E-03
CGA:   7    -0.318950377697E+03   -0.66781E-02   -0.66739E-02  8112   0.231E-01-0.591E-04
CGA:   8    -0.318953037687E+03   -0.26600E-02   -0.26614E-02  8112   0.937E-02 0.138E-04
CGA:   9    -0.318954493134E+03   -0.14554E-02   -0.14552E-02  8112   0.296E-02 0.157E-04
CGA:  10    -0.318955001728E+03   -0.50859E-03   -0.50823E-03  8112   0.198E-02 0.113E-04
CGA:  11    -0.318955235781E+03   -0.23405E-03   -0.23418E-03  8112   0.841E-03 0.340E-05
CGA:  12    -0.318955361405E+03   -0.12562E-03   -0.12562E-03  8112   0.440E-03-0.265E-06
CGA:  13    -0.318955429082E+03   -0.67677E-04   -0.67688E-04  8112   0.194E-03-0.933E-06
CGA:  14    -0.318955461377E+03   -0.32295E-04   -0.32273E-04  8112   0.126E-03 0.891E-06
CGA:  15    -0.318955477176E+03   -0.15799E-04   -0.15816E-04  8112   0.578E-04 0.821E-06
CGA:  16    -0.318955485574E+03   -0.83978E-05   -0.83977E-05  8112   0.259E-04 0.409E-06
  22 F= -.31895549E+03 E0= -.31895146E+03  d E =-.150282E+00  mag=    44.0000
       N       E                     dE             d eps       ncg     rms          ort
SDA:   1    -0.317984579368E+03    0.97090E+00    0.00000E+00  8112   0.297E+01 0.000E+00
CGA:   2    -0.318580864763E+03   -0.59629E+00   -0.59612E+00  8112   0.177E+01 0.272E-02
CGA:   3    -0.318809250132E+03   -0.22839E+00   -0.22798E+00  8112   0.117E+01-0.801E-02
CGA:   4    -0.318933746377E+03   -0.12450E+00   -0.12517E+00  8112   0.268E+00 0.243E-02
CGA:   5    -0.318973169670E+03   -0.39423E-01   -0.39426E-01  8112   0.815E-01-0.953E-03
CGA:   6    -0.318984472359E+03   -0.11303E-01   -0.11307E-01  8112   0.325E-01 0.330E-03
CGA:   7    -0.318988321425E+03   -0.38491E-02   -0.38441E-02  8112   0.132E-01-0.511E-04
CGA:   8    -0.318989913329E+03   -0.15919E-02   -0.15923E-02  8112   0.594E-02 0.501E-05
CGA:   9    -0.318990747545E+03   -0.83422E-03   -0.83423E-03  8112   0.188E-02 0.688E-05
CGA:  10    -0.318991086466E+03   -0.33892E-03   -0.33863E-03  8112   0.114E-02 0.733E-05
CGA:  11    -0.318991222997E+03   -0.13653E-03   -0.13658E-03  8112   0.551E-03 0.170E-05
CGA:  12    -0.318991303950E+03   -0.80953E-04   -0.80955E-04  8112   0.279E-03-0.641E-06
CGA:  13    -0.318991345394E+03   -0.41444E-04   -0.41449E-04  8112   0.127E-03-0.810E-06
CGA:  14    -0.318991366886E+03   -0.21492E-04   -0.21472E-04  8112   0.780E-04 0.718E-06
CGA:  15    -0.318991376575E+03   -0.96887E-05   -0.97052E-05  8112   0.364E-04 0.793E-06
  23 F= -.31899138E+03 E0= -.31898724E+03  d E =-.358910E-01  mag=    44.0000
       N       E                     dE             d eps       ncg     rms          ort
SDA:   1    -0.318923101634E+03    0.68265E-01    0.00000E+00  8112   0.197E+00 0.000E+00
CGA:   2    -0.318961940258E+03   -0.38839E-01   -0.38826E-01  8112   0.150E+00 0.183E-03
CGA:   3    -0.318976763059E+03   -0.14823E-01   -0.14771E-01  8112   0.634E-01-0.279E-04
CGA:   4    -0.318985995943E+03   -0.92329E-02   -0.92326E-02  8112   0.174E-01 0.493E-04
CGA:   5    -0.318988350941E+03   -0.23550E-02   -0.23547E-02  8112   0.595E-02-0.210E-04
CGA:   6    -0.318989084387E+03   -0.73345E-03   -0.73369E-03  8112   0.216E-02 0.421E-05
CGA:   7    -0.318989352870E+03   -0.26848E-03   -0.26841E-03  8112   0.977E-03-0.225E-05
CGA:   8    -0.318989465894E+03   -0.11302E-03   -0.11299E-03  8112   0.356E-03-0.123E-05
CGA:   9    -0.318989523246E+03   -0.57352E-04   -0.57344E-04  8112   0.144E-03 0.328E-06
CGA:  10    -0.318989545749E+03   -0.22502E-04   -0.22490E-04  8112   0.865E-04 0.798E-06
CGA:  11    -0.318989556845E+03   -0.11096E-04   -0.11099E-04  8112   0.466E-04 0.190E-06
CGA:  12    -0.318989563581E+03   -0.67360E-05   -0.67371E-05  8112   0.204E-04-0.312E-06
  24 F= -.31898956E+03 E0= -.31898541E+03  d E =0.181299E-02  mag=    44.0000
       N       E                     dE             d eps       ncg     rms          ort
SDA:   1    -0.318730016286E+03    0.25954E+00    0.00000E+00  8112   0.709E+00 0.000E+00
CGA:   2    -0.318903500286E+03   -0.17348E+00   -0.17348E+00  8112   0.322E+00 0.669E-04
CGA:   3    -0.318952862426E+03   -0.49362E-01   -0.49348E-01  8112   0.194E+00 0.162E-02
CGA:   4    -0.318971982672E+03   -0.19120E-01   -0.19015E-01  8112   0.552E-01 0.672E-04
CGA:   5    -0.318978726326E+03   -0.67437E-02   -0.67455E-02  8112   0.156E-01 0.153E-04
CGA:   6    -0.318980980247E+03   -0.22539E-02   -0.22539E-02  8112   0.561E-02-0.118E-04
CGA:   7    -0.318981746561E+03   -0.76631E-03   -0.76633E-03  8112   0.230E-02-0.119E-05
CGA:   8    -0.318982012587E+03   -0.26603E-03   -0.26588E-03  8112   0.118E-02-0.216E-05
CGA:   9    -0.318982181118E+03   -0.16853E-03   -0.16853E-03  8112   0.418E-03 0.583E-06
CGA:  10    -0.318982259469E+03   -0.78351E-04   -0.78350E-04  8112   0.260E-03 0.115E-06
CGA:  11    -0.318982294532E+03   -0.35063E-04   -0.35063E-04  8112   0.153E-03-0.105E-06
CGA:  12    -0.318982315871E+03   -0.21339E-04   -0.21337E-04  8112   0.829E-04-0.329E-06
CGA:  13    -0.318982328970E+03   -0.13099E-04   -0.13095E-04  8112   0.324E-04 0.250E-06
CGA:  14    -0.318982334424E+03   -0.54543E-05   -0.54332E-05  8112   0.210E-04 0.960E-06
  25 F= -.31898233E+03 E0= -.31897819E+03  d E =0.722916E-02  mag=    44.0000
       N       E                     dE             d eps       ncg     rms          ort
SDA:   1    -0.318949979336E+03    0.32350E-01    0.00000E+00  8112   0.858E-01 0.000E+00
CGA:   2    -0.318970592779E+03   -0.20613E-01   -0.20607E-01  8112   0.583E-01 0.587E-04
CGA:   3    -0.318976955629E+03   -0.63629E-02   -0.63485E-02  8112   0.303E-01-0.416E-04
CGA:   4    -0.318980438244E+03   -0.34826E-02   -0.34850E-02  8112   0.650E-02 0.183E-04
CGA:   5    -0.318981423462E+03   -0.98522E-03   -0.98525E-03  8112   0.186E-02-0.533E-05
CGA:   6    -0.318981674826E+03   -0.25136E-03   -0.25134E-03  8112   0.948E-03-0.231E-05
CGA:   7    -0.318981774169E+03   -0.99343E-04   -0.99324E-04  8112   0.302E-03-0.104E-06
CGA:   8    -0.318981820059E+03   -0.45891E-04   -0.45884E-04  8112   0.131E-03 0.788E-06
CGA:   9    -0.318981837776E+03   -0.17717E-04   -0.17715E-04  8112   0.580E-04-0.115E-06
CGA:  10    -0.318981846832E+03   -0.90558E-05   -0.90606E-05  8112   0.336E-04-0.379E-06
  26 F= -.31898185E+03 E0= -.31897772E+03  d E =0.487592E-03  mag=    44.0000
       N       E                     dE             d eps       ncg     rms          ort
SDA:   1    -0.318886728278E+03    0.95109E-01    0.00000E+00  8112   0.240E+00 0.000E+00
CGA:   2    -0.318948361357E+03   -0.61633E-01   -0.61660E-01  8112   0.195E+00-0.216E-03
CGA:   3    -0.318966284067E+03   -0.17923E-01   -0.18049E-01  8112   0.764E-01-0.230E-03
CGA:   4    -0.318976341125E+03   -0.10057E-01   -0.10054E-01  8112   0.162E-01-0.762E-04
CGA:   5    -0.318978764903E+03   -0.24238E-02   -0.24238E-02  8112   0.532E-02 0.894E-06
CGA:   6    -0.318979408960E+03   -0.64406E-03   -0.64371E-03  8112   0.252E-02-0.615E-05
CGA:   7    -0.318979693297E+03   -0.28434E-03   -0.28440E-03  8112   0.803E-03-0.626E-08
CGA:   8    -0.318979808101E+03   -0.11480E-03   -0.11480E-03  8112   0.346E-03 0.725E-06
CGA:   9    -0.318979856476E+03   -0.48375E-04   -0.48375E-04  8112   0.146E-03-0.519E-07
CGA:  10    -0.318979878013E+03   -0.21537E-04   -0.21539E-04  8112   0.889E-04-0.410E-06
CGA:  11    -0.318979889408E+03   -0.11394E-04   -0.11391E-04  8112   0.420E-04-0.264E-06
CGA:  12    -0.318979896288E+03   -0.68806E-05   -0.68808E-05  8112   0.220E-04-0.202E-08
  27 F= -.31897990E+03 E0= -.31897578E+03  d E =0.195054E-02  mag=    44.0000
       N       E                     dE             d eps       ncg     rms          ort
SDA:   1    -0.318842571062E+03    0.13732E+00    0.00000E+00  8112   0.345E+00 0.000E+00
CGA:   2    -0.318931093053E+03   -0.88522E-01   -0.88313E-01  8112   0.340E+00 0.173E-02
CGA:   3    -0.318960292705E+03   -0.29200E-01   -0.28842E-01  8112   0.929E-01 0.154E-02
CGA:   4    -0.318974189074E+03   -0.13896E-01   -0.13896E-01  8112   0.235E-01 0.408E-04
CGA:   5    -0.318977298771E+03   -0.31097E-02   -0.31092E-02  8112   0.799E-02-0.108E-04
CGA:   6    -0.318978292214E+03   -0.99344E-03   -0.99390E-03  8112   0.312E-02 0.916E-05
CGA:   7    -0.318978667426E+03   -0.37521E-03   -0.37502E-03  8112   0.132E-02-0.313E-05
CGA:   8    -0.318978819479E+03   -0.15205E-03   -0.15202E-03  8112   0.460E-03-0.132E-05
CGA:   9    -0.318978893226E+03   -0.73747E-04   -0.73747E-04  8112   0.173E-03-0.324E-07
CGA:  10    -0.318978920978E+03   -0.27751E-04   -0.27747E-04  8112   0.113E-03 0.236E-06
CGA:  11    -0.318978934218E+03   -0.13240E-04   -0.13244E-04  8112   0.563E-04 0.185E-06
CGA:  12    -0.318978943966E+03   -0.97482E-05   -0.97440E-05  8112   0.275E-04 0.133E-06
  28 F= -.31897894E+03 E0= -.31897481E+03  d E =0.952322E-03  mag=    44.0000
       N       E                     dE             d eps       ncg     rms          ort
SDA:   1    -0.314621686353E+03    0.43572E+01    0.00000E+00  8112   0.107E+02 0.000E+00
CGA:   2    -0.317689871933E+03   -0.30682E+01   -0.30668E+01  8112   0.815E+01 0.299E-01
CGA:   3    -0.318462014632E+03   -0.77214E+00   -0.76641E+00  8112   0.289E+01 0.120E+00
CGA:   4    -0.318809478778E+03   -0.34746E+00   -0.34274E+00  8112   0.950E+00-0.265E-01
CGA:   5    -0.318913411491E+03   -0.10393E+00   -0.10448E+00  8112   0.263E+00 0.356E-02
CGA:   6    -0.318952499954E+03   -0.39088E-01   -0.39087E-01  8112   0.827E-01 0.425E-03
CGA:   7    -0.318964731088E+03   -0.12231E-01   -0.12231E-01  8112   0.359E-01 0.233E-04
CGA:   8    -0.318968439283E+03   -0.37082E-02   -0.37041E-02  8112   0.172E-01-0.137E-04
CGA:   9    -0.318970616898E+03   -0.21776E-02   -0.21797E-02  8112   0.562E-02 0.434E-04
CGA:  10    -0.318971611318E+03   -0.99442E-03   -0.99389E-03  8112   0.294E-02 0.126E-04
CGA:  11    -0.318972042955E+03   -0.43164E-03   -0.43160E-03  8112   0.171E-02 0.131E-04
CGA:  12    -0.318972282017E+03   -0.23906E-03   -0.23909E-03  8112   0.114E-02 0.504E-05
CGA:  13    -0.318972424203E+03   -0.14219E-03   -0.14229E-03  8112   0.460E-03 0.344E-05
CGA:  14    -0.318972508715E+03   -0.84512E-04   -0.84438E-04  8112   0.200E-03 0.180E-05
CGA:  15    -0.318972538996E+03   -0.30281E-04   -0.30275E-04  8112   0.115E-03 0.112E-05
CGA:  16    -0.318972551132E+03   -0.12136E-04   -0.12168E-04  8112   0.447E-04 0.791E-06
CGA:  17    -0.318972557553E+03   -0.64217E-05   -0.64224E-05  8112   0.168E-04 0.720E-06
  29 F= -.31897256E+03 E0= -.31896839E+03  d E =0.638641E-02  mag=    44.0000
       N       E                     dE             d eps       ncg     rms          ort
SDA:   1    -0.317008048886E+03    0.19645E+01    0.00000E+00  8112   0.539E+01 0.000E+00
CGA:   2    -0.318162693155E+03   -0.11546E+01   -0.11559E+01  8112   0.514E+01-0.153E-02
CGA:   3    -0.318639914822E+03   -0.47722E+00   -0.48083E+00  8112   0.195E+01 0.464E-02
CGA:   4    -0.318882248608E+03   -0.24233E+00   -0.24157E+00  8112   0.620E+00-0.109E-01
CGA:   5    -0.318951303446E+03   -0.69055E-01   -0.69248E-01  8112   0.172E+00 0.190E-02
CGA:   6    -0.318977614102E+03   -0.26311E-01   -0.26308E-01  8112   0.505E-01 0.148E-03
CGA:   7    -0.318984469621E+03   -0.68555E-02   -0.68567E-02  8112   0.321E-01 0.753E-04
CGA:   8    -0.318987522378E+03   -0.30528E-02   -0.30469E-02  8112   0.947E-02-0.100E-05
CGA:   9    -0.318989022121E+03   -0.14997E-02   -0.14992E-02  8112   0.413E-02 0.187E-04
CGA:  10    -0.318989610711E+03   -0.58859E-03   -0.58857E-03  8112   0.189E-02 0.865E-05
CGA:  11    -0.318989895631E+03   -0.28492E-03   -0.28482E-03  8112   0.134E-02 0.741E-05
CGA:  12    -0.318990041354E+03   -0.14572E-03   -0.14580E-03  8112   0.539E-03 0.125E-05
CGA:  13    -0.318990139942E+03   -0.98588E-04   -0.98576E-04  8112   0.302E-03-0.242E-07
CGA:  14    -0.318990185993E+03   -0.46051E-04   -0.46040E-04  8112   0.153E-03 0.920E-06
CGA:  15    -0.318990204862E+03   -0.18869E-04   -0.18889E-04  8112   0.983E-04 0.953E-06
CGA:  16    -0.318990217612E+03   -0.12750E-04   -0.12760E-04  8112   0.304E-04 0.842E-06
CGA:  17    -0.318990222457E+03   -0.48452E-05   -0.48403E-05  8112   0.163E-04 0.282E-06
  30 F= -.31899022E+03 E0= -.31898595E+03  d E =-.176649E-01  mag=    44.0000
       N       E                     dE             d eps       ncg     rms          ort
SDA:   1    -0.318315281111E+03    0.67494E+00    0.00000E+00  8112   0.177E+01 0.000E+00
CGA:   2    -0.318758054094E+03   -0.44277E+00   -0.44265E+00  8112   0.124E+01 0.988E-03
CGA:   3    -0.318907100676E+03   -0.14905E+00   -0.14839E+00  8112   0.574E+00-0.667E-02
CGA:   4    -0.318964835500E+03   -0.57735E-01   -0.58195E-01  8112   0.181E+00 0.730E-03
CGA:   5    -0.318984490943E+03   -0.19655E-01   -0.19627E-01  8112   0.550E-01-0.115E-03
CGA:   6    -0.318992133137E+03   -0.76422E-02   -0.76420E-02  8112   0.160E-01-0.347E-04
CGA:   7    -0.318994614424E+03   -0.24813E-02   -0.24811E-02  8112   0.708E-02 0.120E-04
CGA:   8    -0.318995344605E+03   -0.73018E-03   -0.73129E-03  8112   0.343E-02 0.515E-05
CGA:   9    -0.318995792815E+03   -0.44821E-03   -0.44817E-03  8112   0.112E-02-0.121E-05
CGA:  10    -0.318995978957E+03   -0.18614E-03   -0.18610E-03  8112   0.584E-03 0.114E-05
CGA:  11    -0.318996062566E+03   -0.83609E-04   -0.83608E-04  8112   0.331E-03 0.329E-06
CGA:  12    -0.318996104600E+03   -0.42034E-04   -0.42052E-04  8112   0.190E-03 0.953E-06
CGA:  13    -0.318996131035E+03   -0.26434E-04   -0.26436E-04  8112   0.849E-04 0.950E-06
CGA:  14    -0.318996146051E+03   -0.15017E-04   -0.15003E-04  8112   0.395E-04 0.383E-06
CGA:  15    -0.318996151619E+03   -0.55681E-05   -0.55682E-05  8112   0.261E-04 0.781E-07
  31 F= -.31899615E+03 E0= -.31899191E+03  d E =-.592916E-02  mag=    44.0000
       N       E                     dE             d eps       ncg     rms          ort
SDA:   1    -0.318734735035E+03    0.26141E+00    0.00000E+00  8112   0.671E+00 0.000E+00
CGA:   2    -0.318919327118E+03   -0.18459E+00   -0.18451E+00  8112   0.425E+00 0.646E-03
CGA:   3    -0.318967481310E+03   -0.48154E-01   -0.47909E-01  8112   0.232E+00-0.139E-02
CGA:   4    -0.318990043274E+03   -0.22562E-01   -0.22668E-01  8112   0.491E-01 0.310E-04
CGA:   5    -0.318997399204E+03   -0.73559E-02   -0.73565E-02  8112   0.127E-01-0.450E-04
CGA:   6    -0.318999289995E+03   -0.18908E-02   -0.18906E-02  8112   0.685E-02 0.182E-04
CGA:   7    -0.318999918350E+03   -0.62836E-03   -0.62734E-03  8112   0.221E-02 0.215E-05
CGA:   8    -0.319000268767E+03   -0.35042E-03   -0.35040E-03  8112   0.735E-03 0.102E-05
CGA:   9    -0.319000380194E+03   -0.11143E-03   -0.11143E-03  8112   0.433E-03-0.603E-07
CGA:  10    -0.319000429617E+03   -0.49424E-04   -0.49436E-04  8112   0.215E-03 0.698E-07
CGA:  11    -0.319000461436E+03   -0.31819E-04   -0.31817E-04  8112   0.930E-04 0.239E-06
CGA:  12    -0.319000478659E+03   -0.17223E-04   -0.17195E-04  8112   0.618E-04 0.647E-06
CGA:  13    -0.319000485688E+03   -0.70292E-05   -0.70348E-05  8112   0.327E-04 0.193E-06
  32 F= -.31900049E+03 E0= -.31899626E+03  d E =-.433407E-02  mag=    44.0000
       N       E                     dE             d eps       ncg     rms          ort
SDA:   1    -0.316849168041E+03    0.21513E+01    0.00000E+00  8112   0.532E+01 0.000E+00
CGA:   2    -0.318410067983E+03   -0.15609E+01   -0.15627E+01  8112   0.322E+01-0.116E-01
CGA:   3    -0.318802916443E+03   -0.39285E+00   -0.39528E+00  8112   0.125E+01 0.279E-01
CGA:   4    -0.318941240681E+03   -0.13832E+00   -0.13673E+00  8112   0.437E+00-0.548E-02
CGA:   5    -0.318982447632E+03   -0.41207E-01   -0.41570E-01  8112   0.140E+00-0.108E-03
CGA:   6    -0.319001514992E+03   -0.19067E-01   -0.19067E-01  8112   0.411E-01 0.334E-05
CGA:   7    -0.319007948456E+03   -0.64335E-02   -0.64335E-02  8112   0.155E-01-0.363E-05
CGA:   8    -0.319009805466E+03   -0.18570E-02   -0.18562E-02  8112   0.828E-02-0.120E-04
CGA:   9    -0.319010707761E+03   -0.90230E-03   -0.90344E-03  8112   0.322E-02 0.660E-05
CGA:  10    -0.319011208006E+03   -0.50025E-03   -0.50020E-03  8112   0.142E-02 0.355E-05
CGA:  11    -0.319011444609E+03   -0.23660E-03   -0.23647E-03  8112   0.875E-03 0.476E-05
CGA:  12    -0.319011565209E+03   -0.12060E-03   -0.12060E-03  8112   0.567E-03 0.518E-06
CGA:  13    -0.319011633704E+03   -0.68495E-04   -0.68521E-04  8112   0.272E-03 0.777E-06
CGA:  14    -0.319011678631E+03   -0.44927E-04   -0.44899E-04  8112   0.107E-03 0.120E-05
CGA:  15    -0.319011695731E+03   -0.17100E-04   -0.17087E-04  8112   0.619E-04 0.863E-06
CGA:  16    -0.319011702459E+03   -0.67284E-05   -0.67480E-05  8112   0.269E-04 0.553E-06
  33 F= -.31901170E+03 E0= -.31900746E+03  d E =-.112168E-01  mag=    44.0000
       N       E                     dE             d eps       ncg     rms          ort
SDA:   1    -0.292429535781E+03    0.26582E+02    0.00000E+00  8112   0.778E+02 0.000E+00
CGA:   2    -0.308285479835E+03   -0.15856E+02   -0.15798E+02  8112   0.417E+02 0.706E+00
CGA:   3    -0.314980221900E+03   -0.66947E+01   -0.67187E+01  8112   0.199E+02-0.107E+01
CGA:   4    -0.317281091674E+03   -0.23009E+01   -0.23155E+01  8112   0.666E+01 0.151E+00
CGA:   5    -0.317997007098E+03   -0.71592E+00   -0.69327E+00  8112   0.265E+01 0.198E-01
CGA:   6    -0.318290404105E+03   -0.29340E+00   -0.29642E+00  8112   0.769E+00 0.297E-01
CGA:   7    -0.318416412394E+03   -0.12601E+00   -0.12604E+00  8112   0.245E+00-0.864E-03
CGA:   8    -0.318455223035E+03   -0.38811E-01   -0.38780E-01  8112   0.153E+00 0.113E-02
CGA:   9    -0.318471444764E+03   -0.16222E-01   -0.16285E-01  8112   0.618E-01 0.337E-03
CGA:  10    -0.318480751753E+03   -0.93070E-02   -0.92935E-02  8112   0.325E-01 0.828E-03
CGA:  11    -0.318485669001E+03   -0.49172E-02   -0.49101E-02  8112   0.123E-01 0.490E-03
CGA:  12    -0.318488243509E+03   -0.25745E-02   -0.25667E-02  8112   0.719E-02 0.103E-03
CGA:  13    -0.318489169810E+03   -0.92630E-03   -0.92805E-03  8112   0.421E-02 0.459E-04
CGA:  14    -0.318489769217E+03   -0.59941E-03   -0.59947E-03  8112   0.205E-02 0.159E-04
CGA:  15    -0.318490086939E+03   -0.31772E-03   -0.31770E-03  8112   0.737E-03 0.292E-05
CGA:  16    -0.318490222675E+03   -0.13574E-03   -0.13561E-03  8112   0.370E-03 0.316E-05
CGA:  17    -0.318490277016E+03   -0.54341E-04   -0.54341E-04  8112   0.177E-03 0.309E-05
CGA:  18    -0.318490300969E+03   -0.23953E-04   -0.23972E-04  8112   0.106E-03 0.146E-05
CGA:  19    -0.318490318307E+03   -0.17338E-04   -0.17328E-04  8112   0.447E-04 0.590E-06
CGA:  20    -0.318490327070E+03   -0.87636E-05   -0.87679E-05  8112   0.276E-04-0.103E-06
  34 F= -.31849033E+03 E0= -.31848668E+03  d E =0.521375E+00  mag=    44.0000
       N       E                     dE             d eps       ncg     rms          ort
SDA:   1    -0.312481627721E+03    0.60087E+01    0.00000E+00  8112   0.191E+02 0.000E+00
CGA:   2    -0.316364026849E+03   -0.38824E+01   -0.38842E+01  8112   0.102E+02-0.273E-01
CGA:   3    -0.318046394680E+03   -0.16824E+01   -0.16790E+01  8112   0.494E+01 0.167E+00
CGA:   4    -0.318614677048E+03   -0.56828E+00   -0.54406E+00  8112   0.193E+01 0.819E-02
CGA:   5    -0.318824954128E+03   -0.21028E+00   -0.21111E+00  8112   0.570E+00 0.256E-02
CGA:   6    -0.318903344356E+03   -0.78390E-01   -0.78345E-01  8112   0.195E+00-0.141E-02
CGA:   7    -0.318929769476E+03   -0.26425E-01   -0.26454E-01  8112   0.792E-01 0.975E-03
CGA:   8    -0.318939101745E+03   -0.93323E-02   -0.92985E-02  8112   0.413E-01-0.222E-03
CGA:   9    -0.318944323230E+03   -0.52215E-02   -0.52348E-02  8112   0.128E-01 0.264E-03
CGA:  10    -0.318946646881E+03   -0.23237E-02   -0.23231E-02  8112   0.696E-02 0.178E-04
CGA:  11    -0.318947532353E+03   -0.88547E-03   -0.88670E-03  8112   0.382E-02 0.244E-04
CGA:  12    -0.318948035537E+03   -0.50318E-03   -0.50312E-03  8112   0.173E-02-0.699E-06
CGA:  13    -0.318948320046E+03   -0.28451E-03   -0.28444E-03  8112   0.794E-03 0.287E-05
CGA:  14    -0.318948449829E+03   -0.12978E-03   -0.12976E-03  8112   0.554E-03 0.165E-05
CGA:  15    -0.318948514548E+03   -0.64719E-04   -0.64772E-04  8112   0.219E-03 0.896E-06
CGA:  16    -0.318948549717E+03   -0.35169E-04   -0.35171E-04  8112   0.107E-03-0.136E-06
CGA:  17    -0.318948565346E+03   -0.15629E-04   -0.15629E-04  8112   0.483E-04-0.120E-06
CGA:  18    -0.318948571706E+03   -0.63607E-05   -0.63600E-05  8112   0.292E-04-0.562E-07
  35 F= -.31894857E+03 E0= -.31894454E+03  d E =-.458245E+00  mag=    44.0000
       N       E                     dE             d eps       ncg     rms          ort
SDA:   1    -0.317813949450E+03    0.11346E+01    0.00000E+00  8112   0.346E+01 0.000E+00
CGA:   2    -0.318565906330E+03   -0.75196E+00   -0.75169E+00  8112   0.177E+01 0.336E-02
CGA:   3    -0.318889534183E+03   -0.32363E+00   -0.32358E+00  8112   0.699E+00 0.838E-03
CGA:   4    -0.318983232273E+03   -0.93698E-01   -0.93671E-01  8112   0.257E+00-0.390E-03
CGA:   5    -0.319008552454E+03   -0.25320E-01   -0.25158E-01  8112   0.101E+00 0.796E-04
CGA:   6    -0.319020400537E+03   -0.11848E-01   -0.11888E-01  8112   0.319E-01 0.359E-03
CGA:   7    -0.319024781810E+03   -0.43813E-02   -0.43793E-02  8112   0.115E-01-0.882E-04
CGA:   8    -0.319026585318E+03   -0.18035E-02   -0.18031E-02  8112   0.461E-02 0.241E-04
CGA:   9    -0.319027183654E+03   -0.59834E-03   -0.59824E-03  8112   0.291E-02 0.112E-05
CGA:  10    -0.319027519221E+03   -0.33557E-03   -0.33580E-03  8112   0.108E-02 0.446E-05
CGA:  11    -0.319027700391E+03   -0.18117E-03   -0.18114E-03  8112   0.516E-03 0.129E-05
CGA:  12    -0.319027782228E+03   -0.81837E-04   -0.81838E-04  8112   0.275E-03-0.153E-06
CGA:  13    -0.319027818174E+03   -0.35946E-04   -0.35945E-04  8112   0.177E-03 0.298E-07
CGA:  14    -0.319027841550E+03   -0.23376E-04   -0.23381E-04  8112   0.739E-04 0.323E-06
CGA:  15    -0.319027853126E+03   -0.11576E-04   -0.11574E-04  8112   0.349E-04 0.185E-06
CGA:  16    -0.319027858673E+03   -0.55466E-05   -0.55449E-05  8112   0.166E-04 0.121E-06
  36 F= -.31902786E+03 E0= -.31902371E+03  d E =-.792870E-01  mag=    44.0000
       N       E                     dE             d eps       ncg     rms          ort
SDA:   1    -0.318304547780E+03    0.72331E+00    0.00000E+00  8112   0.205E+01 0.000E+00
CGA:   2    -0.318776017902E+03   -0.47147E+00   -0.47137E+00  8112   0.106E+01 0.113E-02
CGA:   3    -0.318959282864E+03   -0.18326E+00   -0.18318E+00  8112   0.499E+00 0.233E-02
CGA:   4    -0.319008788848E+03   -0.49506E-01   -0.48735E-01  8112   0.215E+00 0.112E-03
CGA:   5    -0.319031726623E+03   -0.22938E-01   -0.23003E-01  8112   0.468E-01 0.234E-03
CGA:   6    -0.319039662566E+03   -0.79359E-02   -0.79367E-02  8112   0.156E-01-0.166E-04
CGA:   7    -0.319041553813E+03   -0.18912E-02   -0.18928E-02  8112   0.952E-02 0.203E-04
CGA:   8    -0.319042592820E+03   -0.10390E-02   -0.10382E-02  8112   0.282E-02-0.180E-05
CGA:   9    -0.319043062590E+03   -0.46977E-03   -0.46959E-03  8112   0.137E-02 0.603E-05
CGA:  10    -0.319043248894E+03   -0.18630E-03   -0.18629E-03  8112   0.788E-03 0.165E-06
CGA:  11    -0.319043344643E+03   -0.95748E-04   -0.95783E-04  8112   0.385E-03 0.994E-06
CGA:  12    -0.319043403048E+03   -0.58405E-04   -0.58401E-04  8112   0.177E-03 0.451E-06
CGA:  13    -0.319043429177E+03   -0.26129E-04   -0.26129E-04  8112   0.110E-03-0.312E-07
CGA:  14    -0.319043444278E+03   -0.15101E-04   -0.15100E-04  8112   0.566E-04-0.308E-07
CGA:  15    -0.319043451013E+03   -0.67358E-05   -0.67394E-05  8112   0.260E-04 0.135E-06
  37 F= -.31904345E+03 E0= -.31903928E+03  d E =-.155923E-01  mag=    44.0000
       N       E                     dE             d eps       ncg     rms          ort
SDA:   1    -0.318975886465E+03    0.67558E-01    0.00000E+00  8112   0.181E+00 0.000E+00
CGA:   2    -0.319021463396E+03   -0.45577E-01   -0.45575E-01  8112   0.944E-01 0.121E-04
CGA:   3    -0.319036153570E+03   -0.14690E-01   -0.14690E-01  8112   0.431E-01 0.551E-05
CGA:   4    -0.319040784043E+03   -0.46305E-02   -0.46176E-02  8112   0.161E-01-0.280E-04
CGA:   5    -0.319042354527E+03   -0.15705E-02   -0.15725E-02  8112   0.500E-02 0.417E-06
CGA:   6    -0.319042994057E+03   -0.63953E-03   -0.63943E-03  8112   0.162E-02-0.229E-05
CGA:   7    -0.319043239324E+03   -0.24527E-03   -0.24524E-03  8112   0.542E-03 0.252E-05
CGA:   8    -0.319043314564E+03   -0.75239E-04   -0.75239E-04  8112   0.354E-03 0.268E-06
CGA:   9    -0.319043350960E+03   -0.36396E-04   -0.36401E-04  8112   0.123E-03-0.161E-06
CGA:  10    -0.319043372665E+03   -0.21705E-04   -0.21727E-04  8112   0.652E-04-0.635E-06
CGA:  11    -0.319043382166E+03   -0.95018E-05   -0.95018E-05  8112   0.340E-04 0.233E-07
  38 F= -.31904338E+03 E0= -.31903922E+03  d E =0.688470E-04  mag=    44.0000
       N       E                     dE             d eps       ncg     rms          ort
SDA:   1    -0.318698377979E+03    0.34499E+00    0.00000E+00  8112   0.897E+00 0.000E+00
CGA:   2    -0.318934332124E+03   -0.23595E+00   -0.23597E+00  8112   0.441E+00-0.110E-03
CGA:   3    -0.319003564038E+03   -0.69232E-01   -0.69213E-01  8112   0.188E+00 0.134E-02
CGA:   4    -0.319025919903E+03   -0.22356E-01   -0.22389E-01  8112   0.638E-01 0.262E-03
CGA:   5    -0.319031870602E+03   -0.59507E-02   -0.59073E-02  8112   0.227E-01 0.771E-04
CGA:   6    -0.319034723682E+03   -0.28531E-02   -0.28546E-02  8112   0.755E-02 0.261E-04
CGA:   7    -0.319035803966E+03   -0.10803E-02   -0.10803E-02  8112   0.236E-02 0.122E-05
CGA:   8    -0.319036190136E+03   -0.38617E-03   -0.38615E-03  8112   0.123E-02 0.696E-06
CGA:   9    -0.319036325591E+03   -0.13545E-03   -0.13539E-03  8112   0.692E-03-0.688E-06
CGA:  10    -0.319036419536E+03   -0.93945E-04   -0.93945E-04  8112   0.296E-03-0.343E-06
CGA:  11    -0.319036471071E+03   -0.51535E-04   -0.51533E-04  8112   0.154E-03 0.110E-06
CGA:  12    -0.319036496557E+03   -0.25486E-04   -0.25466E-04  8112   0.104E-03 0.992E-06
CGA:  13    -0.319036508672E+03   -0.12115E-04   -0.12125E-04  8112   0.530E-04 0.404E-06
CGA:  14    -0.319036515975E+03   -0.73030E-05   -0.73037E-05  8112   0.250E-04 0.959E-07
  39 F= -.31903652E+03 E0= -.31903237E+03  d E =0.686619E-02  mag=    44.0000
       N       E                     dE             d eps       ncg     rms          ort
SDA:   1    -0.319009062052E+03    0.27447E-01    0.00000E+00  8112   0.710E-01 0.000E+00
CGA:   2    -0.319025502357E+03   -0.16440E-01   -0.16441E-01  8112   0.413E-01-0.318E-05
CGA:   3    -0.319030403140E+03   -0.49008E-02   -0.49063E-02  8112   0.252E-01 0.395E-04
CGA:   4    -0.319033023628E+03   -0.26205E-02   -0.26151E-02  8112   0.685E-02-0.154E-04
CGA:   5    -0.319033891604E+03   -0.86798E-03   -0.86811E-03  8112   0.191E-02 0.105E-05
CGA:   6    -0.319034151666E+03   -0.26006E-03   -0.26003E-03  8112   0.745E-03-0.297E-05
CGA:   7    -0.319034241777E+03   -0.90110E-04   -0.90111E-04  8112   0.353E-03-0.480E-06
CGA:   8    -0.319034279521E+03   -0.37744E-04   -0.37727E-04  8112   0.139E-03-0.301E-06
CGA:   9    -0.319034300438E+03   -0.20918E-04   -0.20918E-04  8112   0.562E-04-0.684E-07
CGA:  10    -0.319034309546E+03   -0.91075E-05   -0.91036E-05  8112   0.325E-04 0.184E-06
  40 F= -.31903431E+03 E0= -.31903014E+03  d E =0.220643E-02  mag=    44.0000
       N       E                     dE             d eps       ncg     rms          ort
SDA:   1    -0.318842368241E+03    0.19193E+00    0.00000E+00  8112   0.510E+00 0.000E+00
CGA:   2    -0.318959959114E+03   -0.11759E+00   -0.11718E+00  8112   0.396E+00 0.408E-02
CGA:   3    -0.318994557912E+03   -0.34599E-01   -0.33634E-01  8112   0.155E+00 0.342E-02
CGA:   4    -0.319018671310E+03   -0.24113E-01   -0.24112E-01  8112   0.357E-01 0.627E-04
CGA:   5    -0.319023598402E+03   -0.49271E-02   -0.49271E-02  8112   0.120E-01 0.178E-05
CGA:   6    -0.319025032000E+03   -0.14336E-02   -0.14341E-02  8112   0.545E-02 0.510E-05
CGA:   7    -0.319025617787E+03   -0.58579E-03   -0.58491E-03  8112   0.222E-02-0.675E-05
CGA:   8    -0.319025886696E+03   -0.26891E-03   -0.26896E-03  8112   0.754E-03-0.313E-07
CGA:   9    -0.319026022229E+03   -0.13553E-03   -0.13554E-03  8112   0.354E-03-0.969E-07
CGA:  10    -0.319026067323E+03   -0.45095E-04   -0.45104E-04  8112   0.258E-03 0.443E-06
CGA:  11    -0.319026100752E+03   -0.33428E-04   -0.33428E-04  8112   0.112E-03 0.270E-07
CGA:  12    -0.319026120282E+03   -0.19531E-04   -0.19539E-04  8112   0.644E-04-0.257E-06
CGA:  13    -0.319026130112E+03   -0.98296E-05   -0.98289E-05  8112   0.402E-04 0.626E-07
  41 F= -.31902613E+03 E0= -.31902192E+03  d E =0.817943E-02  mag=    44.0000
       N       E                     dE             d eps       ncg     rms          ort
SDA:   1    -0.318884407200E+03    0.14171E+00    0.00000E+00  8112   0.368E+00 0.000E+00
CGA:   2    -0.318975955026E+03   -0.91548E-01   -0.91555E-01  8112   0.221E+00-0.643E-04
CGA:   3    -0.319002545744E+03   -0.26591E-01   -0.26644E-01  8112   0.124E+00 0.608E-03
CGA:   4    -0.319015089254E+03   -0.12544E-01   -0.12466E-01  8112   0.361E-01-0.874E-04
CGA:   5    -0.319019170863E+03   -0.40816E-02   -0.40865E-02  8112   0.103E-01 0.449E-04
CGA:   6    -0.319020617369E+03   -0.14465E-02   -0.14465E-02  8112   0.331E-02-0.203E-05
CGA:   7    -0.319021078889E+03   -0.46152E-03   -0.46153E-03  8112   0.178E-02 0.172E-05
CGA:   8    -0.319021247044E+03   -0.16815E-03   -0.16800E-03  8112   0.649E-03 0.170E-06
CGA:   9    -0.319021349056E+03   -0.10201E-03   -0.10201E-03  8112   0.251E-03 0.225E-06
CGA:  10    -0.319021389196E+03   -0.40140E-04   -0.40150E-04  8112   0.154E-03-0.422E-06
CGA:  11    -0.319021408637E+03   -0.19440E-04   -0.19443E-04  8112   0.924E-04 0.108E-06
CGA:  12    -0.319021420444E+03   -0.11807E-04   -0.11810E-04  8112   0.456E-04 0.258E-06
CGA:  13    -0.319021428174E+03   -0.77299E-05   -0.77241E-05  8112   0.225E-04 0.194E-06
  42 F= -.31902143E+03 E0= -.31901722E+03  d E =0.470194E-02  mag=    44.0000
       N       E                     dE             d eps       ncg     rms          ort
SDA:   1    -0.318786842701E+03    0.23458E+00    0.00000E+00  8112   0.631E+00 0.000E+00
CGA:   2    -0.318912488288E+03   -0.12565E+00   -0.12592E+00  8112   0.784E+00-0.336E-02
CGA:   3    -0.318977159283E+03   -0.64671E-01   -0.66053E-01  8112   0.195E+00-0.614E-02
CGA:   4    -0.319007253138E+03   -0.30094E-01   -0.30102E-01  8112   0.555E-01-0.349E-03
CGA:   5    -0.319014189525E+03   -0.69364E-02   -0.69382E-02  8112   0.170E-01 0.495E-04
CGA:   6    -0.319016399955E+03   -0.22104E-02   -0.22101E-02  8112   0.689E-02-0.532E-05
CGA:   7    -0.319017119652E+03   -0.71970E-03   -0.72012E-03  8112   0.341E-02 0.222E-05
CGA:   8    -0.319017513319E+03   -0.39367E-03   -0.39346E-03  8112   0.959E-03-0.398E-05
CGA:   9    -0.319017682333E+03   -0.16901E-03   -0.16900E-03  8112   0.407E-03 0.124E-06
CGA:  10    -0.319017739232E+03   -0.56899E-04   -0.56899E-04  8112   0.288E-03 0.218E-06
CGA:  11    -0.319017771542E+03   -0.32310E-04   -0.32330E-04  8112   0.129E-03 0.607E-06
CGA:  12    -0.319017792075E+03   -0.20533E-04   -0.20527E-04  8112   0.712E-04 0.323E-06
CGA:  13    -0.319017803666E+03   -0.11591E-04   -0.11595E-04  8112   0.371E-04-0.193E-06
CGA:  14    -0.319017808843E+03   -0.51769E-05   -0.51768E-05  8112   0.260E-04-0.104E-06
  43 F= -.31901781E+03 E0= -.31901357E+03  d E =0.361933E-02  mag=    44.0000
       N       E                     dE             d eps       ncg     rms          ort
SDA:   1    -0.318824935666E+03    0.19287E+00    0.00000E+00  8112   0.484E+00 0.000E+00
CGA:   2    -0.318951141105E+03   -0.12621E+00   -0.12631E+00  8112   0.461E+00-0.774E-03
CGA:   3    -0.318988251549E+03   -0.37110E-01   -0.38040E-01  8112   0.168E+00-0.439E-02
CGA:   4    -0.319009829699E+03   -0.21578E-01   -0.21564E-01  8112   0.331E-01-0.444E-03
CGA:   5    -0.319014878464E+03   -0.50488E-02   -0.50472E-02  8112   0.124E-01 0.850E-04
CGA:   6    -0.319016106073E+03   -0.12276E-02   -0.12227E-02  8112   0.580E-02-0.404E-05
CGA:   7    -0.319016812891E+03   -0.70682E-03   -0.70688E-03  8112   0.175E-02 0.107E-05
CGA:   8    -0.319017051640E+03   -0.23875E-03   -0.23875E-03  8112   0.812E-03-0.674E-06
CGA:   9    -0.319017157330E+03   -0.10569E-03   -0.10569E-03  8112   0.363E-03-0.364E-06
CGA:  10    -0.319017197499E+03   -0.40169E-04   -0.40150E-04  8112   0.198E-03-0.219E-06
CGA:  11    -0.319017228567E+03   -0.31068E-04   -0.31056E-04  8112   0.760E-04 0.515E-06
CGA:  12    -0.319017241180E+03   -0.12613E-04   -0.12603E-04  8112   0.636E-04 0.375E-06
CGA:  13    -0.319017248438E+03   -0.72579E-05   -0.72642E-05  8112   0.288E-04 0.224E-06
  44 F= -.31901725E+03 E0= -.31901299E+03  d E =0.560405E-03  mag=    44.0000
       N       E                     dE             d eps       ncg     rms          ort
SDA:   1    -0.318928961215E+03    0.88280E-01    0.00000E+00  8112   0.232E+00 0.000E+00
CGA:   2    -0.318982923808E+03   -0.53963E-01   -0.54073E-01  8112   0.269E+00-0.103E-02
CGA:   3    -0.319004314963E+03   -0.21391E-01   -0.21753E-01  8112   0.757E-01-0.170E-02
CGA:   4    -0.319014952801E+03   -0.10638E-01   -0.10638E-01  8112   0.196E-01-0.134E-03
CGA:   5    -0.319017403773E+03   -0.24510E-02   -0.24521E-02  8112   0.674E-02 0.295E-04
CGA:   6    -0.319018240569E+03   -0.83680E-03   -0.83642E-03  8112   0.271E-02-0.957E-05
CGA:   7    -0.319018517068E+03   -0.27650E-03   -0.27669E-03  8112   0.127E-02 0.861E-06
CGA:   8    -0.319018674856E+03   -0.15779E-03   -0.15779E-03  8112   0.335E-03 0.539E-06
CGA:   9    -0.319018734977E+03   -0.60121E-04   -0.60132E-04  8112   0.171E-03-0.271E-06
CGA:  10    -0.319018753376E+03   -0.18399E-04   -0.18388E-04  8112   0.957E-04-0.258E-06
CGA:  11    -0.319018766655E+03   -0.13279E-04   -0.13279E-04  8112   0.463E-04-0.887E-07
CGA:  12    -0.319018773459E+03   -0.68037E-05   -0.68019E-05  8112   0.225E-04 0.183E-06
  45 F= -.31901877E+03 E0= -.31901452E+03  d E =-.152502E-02  mag=    44.0000
       N       E                     dE             d eps       ncg     rms          ort
SDA:   1    -0.318102345725E+03    0.91642E+00    0.00000E+00  8112   0.222E+01 0.000E+00
CGA:   2    -0.318786427231E+03   -0.68408E+00   -0.68406E+00  8112   0.120E+01 0.241E-03
CGA:   3    -0.318935986958E+03   -0.14956E+00   -0.14997E+00  8112   0.630E+00 0.557E-02
CGA:   4    -0.318991015745E+03   -0.55029E-01   -0.53655E-01  8112   0.150E+00 0.468E-02
CGA:   5    -0.319011554820E+03   -0.20539E-01   -0.20549E-01  8112   0.419E-01 0.599E-03
CGA:   6    -0.319017633826E+03   -0.60790E-02   -0.60796E-02  8112   0.192E-01-0.217E-03
CGA:   7    -0.319019684745E+03   -0.20509E-02   -0.20559E-02  8112   0.791E-02 0.242E-04
CGA:   8    -0.319020537769E+03   -0.85302E-03   -0.85256E-03  8112   0.325E-02-0.386E-05
CGA:   9    -0.319021003186E+03   -0.46542E-03   -0.46541E-03  8112   0.108E-02 0.494E-06
CGA:  10    -0.319021182483E+03   -0.17930E-03   -0.17930E-03  8112   0.789E-03 0.206E-06
CGA:  11    -0.319021265593E+03   -0.83109E-04   -0.83206E-04  8112   0.381E-03 0.133E-05
CGA:  12    -0.319021327523E+03   -0.61930E-04   -0.61913E-04  8112   0.195E-03 0.844E-06
CGA:  13    -0.319021360922E+03   -0.33399E-04   -0.33381E-04  8112   0.115E-03 0.532E-06
CGA:  14    -0.319021373477E+03   -0.12555E-04   -0.12562E-04  8112   0.649E-04 0.282E-06
CGA:  15    -0.319021382574E+03   -0.90972E-05   -0.90974E-05  8112   0.224E-04 0.494E-06
  46 F= -.31902138E+03 E0= -.31901713E+03  d E =-.260912E-02  mag=    44.0000
       N       E                     dE             d eps       ncg     rms          ort
SDA:   1    -0.304948194407E+03    0.14073E+02    0.00000E+00  8112   0.356E+02 0.000E+00
CGA:   2    -0.314088550093E+03   -0.91404E+01   -0.89366E+01  8112   0.268E+02 0.197E+01
CGA:   3    -0.316912887948E+03   -0.28243E+01   -0.24953E+01  8112   0.116E+02-0.693E+00
CGA:   4    -0.318486856912E+03   -0.15740E+01   -0.15696E+01  8112   0.250E+01-0.468E+00
CGA:   5    -0.318842683839E+03   -0.35583E+00   -0.35569E+00  8112   0.710E+00 0.123E-01
CGA:   6    -0.318936716464E+03   -0.94033E-01   -0.93978E-01  8112   0.377E+00-0.163E-02
CGA:   7    -0.318971744397E+03   -0.35028E-01   -0.36413E-01  8112   0.189E+00 0.163E-02
CGA:   8    -0.318988067025E+03   -0.16323E-01   -0.16371E-01  8112   0.651E-01-0.823E-04
CGA:   9    -0.318998256639E+03   -0.10190E-01   -0.10168E-01  8112   0.212E-01 0.695E-03
CGA:  10    -0.319001857065E+03   -0.36004E-02   -0.35932E-02  8112   0.155E-01 0.171E-03
CGA:  11    -0.319003491745E+03   -0.16347E-02   -0.16503E-02  8112   0.845E-02 0.984E-04
CGA:  12    -0.319004581273E+03   -0.10895E-02   -0.10899E-02  8112   0.417E-02 0.211E-04
CGA:  13    -0.319005285970E+03   -0.70470E-03   -0.70203E-03  8112   0.207E-02 0.625E-04
CGA:  14    -0.319005590864E+03   -0.30489E-03   -0.30485E-03  8112   0.118E-02 0.656E-05
CGA:  15    -0.319005728473E+03   -0.13761E-03   -0.13791E-03  8112   0.700E-03 0.668E-05
CGA:  16    -0.319005812549E+03   -0.84075E-04   -0.84161E-04  8112   0.188E-03 0.392E-05
CGA:  17    -0.319005844771E+03   -0.32222E-04   -0.32147E-04  8112   0.103E-03 0.228E-05
CGA:  18    -0.319005857729E+03   -0.12958E-04   -0.12973E-04  8112   0.503E-04 0.104E-05
CGA:  19    -0.319005863306E+03   -0.55772E-05   -0.55940E-05  8112   0.241E-04 0.525E-06
  47 F= -.31900586E+03 E0= -.31900165E+03  d E =0.155193E-01  mag=    44.0000
       N       E                     dE             d eps       ncg     rms          ort
SDA:   1    -0.306654087114E+03    0.12352E+02    0.00000E+00  8112   0.325E+02 0.000E+00
CGA:   2    -0.313936095347E+03   -0.72820E+01   -0.69537E+01  8112   0.259E+02 0.353E+01
[...]
  67 F= -.31906977E+03 E0= -.31906548E+03  d E =0.261607E-02  mag=    44.0000
       N       E                     dE             d eps       ncg     rms          ort
SDA:   1    -0.318657414939E+03    0.41234E+00    0.00000E+00  8112   0.104E+01 0.000E+00
CGA:   2    -0.318932580352E+03   -0.27517E+00   -0.27528E+00  8112   0.747E+00-0.922E-03
CGA:   3    -0.319011691697E+03   -0.79111E-01   -0.79868E-01  8112   0.414E+00 0.462E-02
CGA:   4    -0.319049472852E+03   -0.37781E-01   -0.37325E-01  8112   0.105E+00 0.106E-03
CGA:   5    -0.319062019528E+03   -0.12547E-01   -0.12562E-01  8112   0.318E-01 0.394E-03
CGA:   6    -0.319066358532E+03   -0.43390E-02   -0.43395E-02  8112   0.114E-01-0.105E-03
CGA:   7    -0.319067673209E+03   -0.13147E-02   -0.13158E-02  8112   0.695E-02 0.209E-04
CGA:   8    -0.319068320808E+03   -0.64760E-03   -0.64669E-03  8112   0.196E-02-0.909E-06
CGA:   9    -0.319068644590E+03   -0.32378E-03   -0.32371E-03  8112   0.802E-03 0.190E-05
CGA:  10    -0.319068746223E+03   -0.10163E-03   -0.10163E-03  8112   0.515E-03 0.186E-06
CGA:  11    -0.319068803897E+03   -0.57674E-04   -0.57694E-04  8112   0.270E-03 0.497E-06
CGA:  12    -0.319068838773E+03   -0.34876E-04   -0.34876E-04  8112   0.117E-03 0.297E-06
CGA:  13    -0.319068858865E+03   -0.20092E-04   -0.20058E-04  8112   0.751E-04 0.813E-06
CGA:  14    -0.319068867362E+03   -0.84973E-05   -0.85030E-05  8112   0.457E-04 0.293E-06
  68 F= -.31906887E+03 E0= -.31906459E+03  d E =0.898693E-03  mag=    44.0000
       N       E                     dE             d eps       ncg     rms          ort
SDA:   1    -0.318892237027E+03    0.17662E+00    0.00000E+00  8112   0.494E+00 0.000E+00
CGA:   2    -0.319009059470E+03   -0.11682E+00   -0.11685E+00  8112   0.275E+00-0.257E-03
CGA:   3    -0.319052785496E+03   -0.43726E-01   -0.43684E-01  8112   0.132E+00 0.120E-02
CGA:   4    -0.319065041724E+03   -0.12256E-01   -0.12184E-01  8112   0.559E-01-0.931E-05
CGA:   5    -0.319070347593E+03   -0.53059E-02   -0.53231E-02  8112   0.159E-01 0.308E-04
CGA:   6    -0.319072444213E+03   -0.20966E-02   -0.20965E-02  8112   0.542E-02-0.385E-04
CGA:   7    -0.319073187721E+03   -0.74351E-03   -0.74344E-03  8112   0.211E-02 0.918E-05
CGA:   8    -0.319073424301E+03   -0.23658E-03   -0.23645E-03  8112   0.137E-02-0.129E-05
CGA:   9    -0.319073563224E+03   -0.13892E-03   -0.13896E-03  8112   0.395E-03 0.638E-06
CGA:  10    -0.319073630775E+03   -0.67551E-04   -0.67538E-04  8112   0.213E-03 0.328E-06
CGA:  11    -0.319073659376E+03   -0.28601E-04   -0.28601E-04  8112   0.129E-03 0.209E-06
CGA:  12    -0.319073673548E+03   -0.14172E-04   -0.14175E-04  8112   0.742E-04 0.236E-06
CGA:  13    -0.319073683335E+03   -0.97876E-05   -0.97875E-05  8112   0.327E-04 0.368E-06
  69 F= -.31907368E+03 E0= -.31906938E+03  d E =-.481597E-02  mag=    44.0000
       N       E                     dE             d eps       ncg     rms          ort
SDA:   1    -0.318909628144E+03    0.16405E+00    0.00000E+00  8112   0.428E+00 0.000E+00
CGA:   2    -0.319000930936E+03   -0.91303E-01   -0.91632E-01  8112   0.605E+00-0.342E-02
CGA:   3    -0.319047351315E+03   -0.46420E-01   -0.47525E-01  8112   0.151E+00-0.545E-02
CGA:   4    -0.319065936853E+03   -0.18586E-01   -0.18565E-01  8112   0.490E-01-0.832E-03
CGA:   5    -0.319071840873E+03   -0.59040E-02   -0.59070E-02  8112   0.113E-01 0.926E-04
CGA:   6    -0.319073559410E+03   -0.17185E-02   -0.17187E-02  8112   0.505E-02-0.493E-05
CGA:   7    -0.319074034158E+03   -0.47475E-03   -0.47535E-03  8112   0.264E-02 0.552E-06
CGA:   8    -0.319074320996E+03   -0.28684E-03   -0.28672E-03  8112   0.722E-03-0.167E-05
CGA:   9    -0.319074441067E+03   -0.12007E-03   -0.12006E-03  8112   0.273E-03 0.323E-06
CGA:  10    -0.319074479995E+03   -0.38928E-04   -0.38927E-04  8112   0.204E-03 0.140E-06
CGA:  11    -0.319074499981E+03   -0.19986E-04   -0.19999E-04  8112   0.877E-04 0.217E-06
CGA:  12    -0.319074512880E+03   -0.12899E-04   -0.12895E-04  8112   0.457E-04 0.238E-06
CGA:  13    -0.319074520603E+03   -0.77236E-05   -0.77164E-05  8112   0.255E-04 0.199E-06
  70 F= -.31907452E+03 E0= -.31907021E+03  d E =-.837268E-03  mag=    44.0000
       N       E                     dE             d eps       ncg     rms          ort
SDA:   1    -0.317720197189E+03    0.13543E+01    0.00000E+00  8112   0.348E+01 0.000E+00
CGA:   2    -0.318454038362E+03   -0.73384E+00   -0.73536E+00  8112   0.530E+01 0.884E-02
CGA:   3    -0.318863893002E+03   -0.40985E+00   -0.41879E+00  8112   0.115E+01-0.116E+00
CGA:   4    -0.319010712211E+03   -0.14682E+00   -0.14665E+00  8112   0.373E+00-0.189E-01
CGA:   5    -0.319053475161E+03   -0.42763E-01   -0.42869E-01  8112   0.102E+00 0.207E-02
CGA:   6    -0.319065236442E+03   -0.11761E-01   -0.11743E-01  8112   0.595E-01-0.322E-03
CGA:   7    -0.319070550192E+03   -0.53137E-02   -0.53370E-02  8112   0.186E-01 0.164E-04
CGA:   8    -0.319073217534E+03   -0.26673E-02   -0.26676E-02  8112   0.562E-02-0.114E-04
CGA:   9    -0.319074063044E+03   -0.84551E-03   -0.84507E-03  8112   0.346E-02 0.140E-04
CGA:  10    -0.319074360922E+03   -0.29788E-03   -0.29767E-03  8112   0.142E-02 0.419E-06
CGA:  11    -0.319074593246E+03   -0.23232E-03   -0.23220E-03  8112   0.622E-03 0.311E-05
CGA:  12    -0.319074686276E+03   -0.93030E-04   -0.92999E-04  8112   0.429E-03 0.170E-05
CGA:  13    -0.319074738066E+03   -0.51790E-04   -0.51818E-04  8112   0.286E-03 0.167E-05
CGA:  14    -0.319074772384E+03   -0.34318E-04   -0.34330E-04  8112   0.117E-03 0.860E-06
CGA:  15    -0.319074791407E+03   -0.19023E-04   -0.19009E-04  8112   0.560E-04 0.443E-06
CGA:  16    -0.319074798403E+03   -0.69962E-05   -0.70007E-05  8112   0.378E-04 0.551E-06
  71 F= -.31907480E+03 E0= -.31907049E+03  d E =-.277800E-03  mag=    44.0000
       N       E                     dE             d eps       ncg     rms          ort
SDA:   1    -0.306755266084E+03    0.12320E+02    0.00000E+00  8112   0.308E+02 0.000E+00
CGA:   2    -0.314615797272E+03   -0.78605E+01   -0.76141E+01  8112   0.247E+02 0.246E+01
CGA:   3    -0.317312087699E+03   -0.26963E+01   -0.22870E+01  8112   0.964E+01-0.667E+00
CGA:   4    -0.318505868136E+03   -0.11938E+01   -0.11807E+01  8112   0.412E+01-0.716E+00
CGA:   5    -0.318855858087E+03   -0.34999E+00   -0.33797E+00  8112   0.997E+00 0.877E-01
CGA:   6    -0.318966041487E+03   -0.11018E+00   -0.11143E+00  8112   0.658E+00 0.179E-01
CGA:   7    -0.319016411086E+03   -0.50370E-01   -0.48985E-01  8112   0.215E+00 0.544E-02
CGA:   8    -0.319045840062E+03   -0.29429E-01   -0.29409E-01  8112   0.698E-01 0.134E-02
CGA:   9    -0.319055350934E+03   -0.95109E-02   -0.94938E-02  8112   0.406E-01 0.125E-02
CGA:  10    -0.319058830901E+03   -0.34800E-02   -0.34903E-02  8112   0.210E-01-0.284E-05
CGA:  11    -0.319061356646E+03   -0.25257E-02   -0.25277E-02  8112   0.981E-02 0.180E-03
CGA:  12    -0.319062848429E+03   -0.14918E-02   -0.14890E-02  8112   0.405E-02 0.791E-04
CGA:  13    -0.319063691812E+03   -0.84338E-03   -0.83642E-03  8112   0.243E-02 0.795E-04
CGA:  14    -0.319063988855E+03   -0.29704E-03   -0.29743E-03  8112   0.184E-02 0.171E-04
CGA:  15    -0.319064173418E+03   -0.18456E-03   -0.18471E-03  8112   0.761E-03 0.387E-05
CGA:  16    -0.319064291969E+03   -0.11855E-03   -0.11830E-03  8112   0.286E-03 0.821E-05
CGA:  17    -0.319064334273E+03   -0.42304E-04   -0.42242E-04  8112   0.116E-03 0.370E-05
CGA:  18    -0.319064352651E+03   -0.18378E-04   -0.18335E-04  8112   0.416E-04 0.169E-05
CGA:  19    -0.319064358941E+03   -0.62907E-05   -0.62827E-05  8112   0.231E-04 0.445E-06
  72 F= -.31906436E+03 E0= -.31906005E+03  d E =0.104395E-01  mag=    44.0000
       N       E                     dE             d eps       ncg     rms          ort
SDA:   1    -0.306712839321E+03    0.12352E+02    0.00000E+00  8112   0.313E+02 0.000E+00
CGA:   2    -0.314692210361E+03   -0.79794E+01   -0.79576E+01  8112   0.271E+02 0.458E+00
CGA:   3    -0.317300994433E+03   -0.26088E+01   -0.24661E+01  8112   0.103E+02-0.150E+00
CGA:   4    -0.318431476492E+03   -0.11305E+01   -0.10962E+01  8112   0.456E+01-0.379E+00
CGA:   5    -0.318819116442E+03   -0.38764E+00   -0.38442E+00  8112   0.112E+01 0.384E-01
CGA:   6    -0.318959447365E+03   -0.14033E+00   -0.14057E+00  8112   0.686E+00 0.161E-01
CGA:   7    -0.319010387347E+03   -0.50940E-01   -0.49727E-01  8112   0.232E+00 0.459E-02
CGA:   8    -0.319039927572E+03   -0.29540E-01   -0.29548E-01  8112   0.945E-01 0.227E-02
CGA:   9    -0.319051531698E+03   -0.11604E-01   -0.11617E-01  8112   0.389E-01 0.935E-03
CGA:  10    -0.319055662143E+03   -0.41304E-02   -0.41362E-02  8112   0.288E-01 0.804E-04
CGA:  11    -0.319058617872E+03   -0.29557E-02   -0.29682E-02  8112   0.988E-02 0.155E-03
CGA:  12    -0.319060138946E+03   -0.15211E-02   -0.15192E-02  8112   0.532E-02 0.507E-04
CGA:  13    -0.319061113522E+03   -0.97458E-03   -0.96554E-03  8112   0.232E-02 0.136E-03
CGA:  14    -0.319061444121E+03   -0.33060E-03   -0.33027E-03  8112   0.233E-02 0.224E-04
CGA:  15    -0.319061683359E+03   -0.23924E-03   -0.23941E-03  8112   0.829E-03 0.494E-05
CGA:  16    -0.319061798172E+03   -0.11481E-03   -0.11469E-03  8112   0.340E-03 0.880E-05
CGA:  17    -0.319061857861E+03   -0.59688E-04   -0.59550E-04  8112   0.131E-03 0.295E-05
CGA:  18    -0.319061876894E+03   -0.19033E-04   -0.19016E-04  8112   0.525E-04 0.126E-05
CGA:  19    -0.319061883828E+03   -0.69340E-05   -0.69345E-05  8112   0.418E-04 0.493E-06
  73 F= -.31906188E+03 E0= -.31905754E+03  d E =0.247511E-02  mag=    44.0000
       N       E                     dE             d eps       ncg     rms          ort
SDA:   1    -0.304584192433E+03    0.14478E+02    0.00000E+00  8112   0.366E+02 0.000E+00
CGA:   2    -0.313621125343E+03   -0.90369E+01   -0.90117E+01  8112   0.408E+02-0.626E+00
CGA:   3    -0.317145065671E+03   -0.35239E+01   -0.34396E+01  8112   0.108E+02-0.146E+01
CGA:   4    -0.318427792511E+03   -0.12827E+01   -0.12834E+01  8112   0.440E+01 0.149E-01
CGA:   5    -0.318817793516E+03   -0.39000E+00   -0.38762E+00  8112   0.122E+01-0.146E-01
CGA:   6    -0.318986347672E+03   -0.16855E+00   -0.16856E+00  8112   0.395E+00-0.263E-03
CGA:   7    -0.319036892987E+03   -0.50545E-01   -0.50556E-01  8112   0.277E+00 0.177E-02
CGA:   8    -0.319056478591E+03   -0.19586E-01   -0.20303E-01  8112   0.903E-01-0.426E-02
CGA:   9    -0.319068363609E+03   -0.11885E-01   -0.11879E-01  8112   0.352E-01 0.598E-03
CGA:  10    -0.319072982935E+03   -0.46193E-02   -0.46168E-02  8112   0.208E-01 0.581E-03
CGA:  11    -0.319075225257E+03   -0.22423E-02   -0.22484E-02  8112   0.131E-01 0.947E-04
CGA:  12    -0.319076649455E+03   -0.14242E-02   -0.14290E-02  8112   0.557E-02 0.966E-04
CGA:  13    -0.319077647717E+03   -0.99826E-03   -0.99516E-03  8112   0.309E-02 0.502E-04
CGA:  14    -0.319078039135E+03   -0.39142E-03   -0.39162E-03  8112   0.244E-02 0.346E-04
CGA:  15    -0.319078294998E+03   -0.25586E-03   -0.25630E-03  8112   0.849E-03 0.930E-05
CGA:  16    -0.319078429003E+03   -0.13401E-03   -0.13361E-03  8112   0.387E-03 0.112E-04
CGA:  17    -0.319078476575E+03   -0.47572E-04   -0.47609E-04  8112   0.218E-03 0.445E-05
CGA:  18    -0.319078498058E+03   -0.21483E-04   -0.21574E-04  8112   0.804E-04 0.239E-05
CGA:  19    -0.319078508749E+03   -0.10691E-04   -0.10686E-04  8112   0.321E-04 0.964E-06
CGA:  20    -0.319078513397E+03   -0.46476E-05   -0.46419E-05  8112   0.172E-04 0.343E-06
  74 F= -.31907851E+03 E0= -.31907418E+03  d E =-.166296E-01  mag=    44.0000
       N       E                     dE             d eps       ncg     rms          ort
SDA:   1    -0.302109683972E+03    0.16969E+02    0.00000E+00  8112   0.424E+02 0.000E+00
CGA:   2    -0.313677556970E+03   -0.11568E+02   -0.11687E+02  8112   0.315E+02-0.819E+00
CGA:   3    -0.317136874702E+03   -0.34593E+01   -0.33796E+01  8112   0.102E+02 0.166E+00
CGA:   4    -0.318484723032E+03   -0.13478E+01   -0.13477E+01  8112   0.288E+01-0.296E-01
CGA:   5    -0.318758252243E+03   -0.27353E+00   -0.26591E+00  8112   0.178E+01-0.435E-01
CGA:   6    -0.318924759271E+03   -0.16651E+00   -0.16772E+00  8112   0.416E+00 0.249E-02
CGA:   7    -0.318988740889E+03   -0.63982E-01   -0.63750E-01  8112   0.178E+00 0.640E-02
CGA:   8    -0.319009865595E+03   -0.21125E-01   -0.21170E-01  8112   0.708E-01 0.133E-02
CGA:   9    -0.319019656966E+03   -0.97914E-02   -0.97879E-02  8112   0.431E-01 0.261E-03
CGA:  10    -0.319023364251E+03   -0.37073E-02   -0.37441E-02  8112   0.196E-01 0.146E-04
CGA:  11    -0.319026388620E+03   -0.30244E-02   -0.30155E-02  8112   0.835E-02 0.237E-03
CGA:  12    -0.319027783484E+03   -0.13949E-02   -0.13904E-02  8112   0.624E-02 0.928E-04
CGA:  13    -0.319028381256E+03   -0.59777E-03   -0.59799E-03  8112   0.338E-02 0.605E-05
CGA:  14    -0.319028900998E+03   -0.51974E-03   -0.51897E-03  8112   0.133E-02 0.240E-04
CGA:  15    -0.319029091350E+03   -0.19035E-03   -0.19024E-03  8112   0.888E-03 0.848E-05
CGA:  16    -0.319029180706E+03   -0.89357E-04   -0.89578E-04  8112   0.412E-03 0.540E-05
CGA:  17    -0.319029230710E+03   -0.50004E-04   -0.50042E-04  8112   0.140E-03 0.411E-05
CGA:  18    -0.319029250144E+03   -0.19434E-04   -0.19419E-04  8112   0.778E-04 0.162E-05
CGA:  19    -0.319029258747E+03   -0.86026E-05   -0.86148E-05  8112   0.417E-04 0.594E-06
  75 F= -.31902926E+03 E0= -.31902495E+03  d E =0.492547E-01  mag=    44.0000
       N       E                     dE             d eps       ncg     rms          ort
SDA:   1    -0.303361524247E+03    0.15668E+02    0.00000E+00  8112   0.391E+02 0.000E+00
CGA:   2    -0.313845961143E+03   -0.10484E+02   -0.10354E+02  8112   0.291E+02 0.153E+01
CGA:   3    -0.317006421502E+03   -0.31605E+01   -0.28721E+01  8112   0.128E+02-0.164E+01
CGA:   4    -0.318385404529E+03   -0.13790E+01   -0.13395E+01  8112   0.509E+01-0.599E+00
CGA:   5    -0.318784227284E+03   -0.39882E+00   -0.36451E+00  8112   0.135E+01 0.317E+00
CGA:   6    -0.318939792575E+03   -0.15557E+00   -0.15704E+00  8112   0.923E+00 0.270E-01
CGA:   7    -0.319011296730E+03   -0.71504E-01   -0.69263E-01  8112   0.295E+00 0.749E-02
CGA:   8    -0.319050961674E+03   -0.39665E-01   -0.39642E-01  8112   0.110E+00 0.154E-02
CGA:   9    -0.319063344801E+03   -0.12383E-01   -0.12440E-01  8112   0.725E-01 0.165E-02
CGA:  10    -0.319069266770E+03   -0.59220E-02   -0.59201E-02  8112   0.280E-01-0.966E-06
CGA:  11    -0.319073491744E+03   -0.42250E-02   -0.42128E-02  8112   0.128E-01 0.302E-03
CGA:  12    -0.319075379598E+03   -0.18879E-02   -0.18820E-02  8112   0.701E-02 0.183E-03
CGA:  13    -0.319076359323E+03   -0.97973E-03   -0.97859E-03  8112   0.607E-02 0.594E-04
CGA:  14    -0.319076913869E+03   -0.55455E-03   -0.55823E-03  8112   0.230E-02 0.226E-04
CGA:  15    -0.319077315326E+03   -0.40146E-03   -0.40080E-03  8112   0.954E-03 0.119E-04
CGA:  16    -0.319077495740E+03   -0.18041E-03   -0.17967E-03  8112   0.328E-03 0.113E-04
CGA:  17    -0.319077558150E+03   -0.62410E-04   -0.62164E-04  8112   0.139E-03 0.410E-05
CGA:  18    -0.319077577052E+03   -0.18902E-04   -0.18898E-04  8112   0.698E-04 0.132E-05
CGA:  19    -0.319077584986E+03   -0.79335E-05   -0.79430E-05  8112   0.409E-04 0.433E-06
  76 F= -.31907758E+03 E0= -.31907327E+03  d E =-.483262E-01  mag=    44.0000
       N       E                     dE             d eps       ncg     rms          ort
SDA:   1    -0.317183021820E+03    0.18946E+01    0.00000E+00  8112   0.513E+01 0.000E+00
CGA:   2    -0.318373134132E+03   -0.11901E+01   -0.11883E+01  8112   0.340E+01 0.111E-01
CGA:   3    -0.318822476902E+03   -0.44934E+00   -0.44939E+00  8112   0.128E+01 0.812E-02
CGA:   4    -0.318985798871E+03   -0.16332E+00   -0.16331E+00  8112   0.436E+00-0.496E-03
CGA:   5    -0.319028225132E+03   -0.42426E-01   -0.41950E-01  8112   0.216E+00-0.148E-02
CGA:   6    -0.319048875103E+03   -0.20650E-01   -0.20767E-01  8112   0.588E-01 0.385E-03
CGA:   7    -0.319057577958E+03   -0.87029E-02   -0.87105E-02  8112   0.190E-01-0.273E-03
CGA:   8    -0.319060423406E+03   -0.28454E-02   -0.28430E-02  8112   0.942E-02 0.855E-04
CGA:   9    -0.319061412897E+03   -0.98949E-03   -0.98795E-03  8112   0.538E-02-0.122E-04
CGA:  10    -0.319062011378E+03   -0.59848E-03   -0.59881E-03  8112   0.222E-02 0.643E-05
CGA:  11    -0.319062346640E+03   -0.33526E-03   -0.33518E-03  8112   0.996E-03 0.347E-05
CGA:  12    -0.319062513917E+03   -0.16728E-03   -0.16714E-03  8112   0.604E-03 0.360E-05
CGA:  13    -0.319062577110E+03   -0.63193E-04   -0.63204E-04  8112   0.392E-03 0.935E-06
CGA:  14    -0.319062628095E+03   -0.50986E-04   -0.50987E-04  8112   0.145E-03 0.945E-06
CGA:  15    -0.319062652553E+03   -0.24457E-04   -0.24453E-04  8112   0.718E-04 0.126E-06
CGA:  16    -0.319062661626E+03   -0.90732E-05   -0.90749E-05  8112   0.422E-04 0.226E-06
  77 F= -.31906266E+03 E0= -.31905837E+03  d E =0.149234E-01  mag=    44.0000
       N       E                     dE             d eps       ncg     rms          ort
SDA:   1    -0.316596806198E+03    0.24658E+01    0.00000E+00  8112   0.643E+01 0.000E+00
CGA:   2    -0.318194766943E+03   -0.15980E+01   -0.16134E+01  8112   0.509E+01-0.108E+00
CGA:   3    -0.318749040898E+03   -0.55427E+00   -0.55247E+00  8112   0.202E+01-0.372E-02
CGA:   4    -0.318956197548E+03   -0.20716E+00   -0.20985E+00  8112   0.816E+00 0.144E-01
CGA:   5    -0.319030289018E+03   -0.74091E-01   -0.72647E-01  8112   0.219E+00-0.225E-03
CGA:   6    -0.319062338300E+03   -0.32049E-01   -0.32041E-01  8112   0.723E-01 0.373E-03
CGA:   7    -0.319070776943E+03   -0.84386E-02   -0.84305E-02  8112   0.438E-01-0.179E-03
CGA:   8    -0.319074899030E+03   -0.41221E-02   -0.41391E-02  8112   0.138E-01 0.499E-04
CGA:   9    -0.319076854858E+03   -0.19558E-02   -0.19561E-02  8112   0.589E-02-0.109E-04
CGA:  10    -0.319077626560E+03   -0.77170E-03   -0.77168E-03  8112   0.364E-02 0.190E-04
CGA:  11    -0.319077999413E+03   -0.37285E-03   -0.37276E-03  8112   0.161E-02 0.134E-05
CGA:  12    -0.319078242075E+03   -0.24266E-03   -0.24260E-03  8112   0.899E-03 0.247E-05
CGA:  13    -0.319078361887E+03   -0.11981E-03   -0.11981E-03  8112   0.504E-03 0.702E-06
CGA:  14    -0.319078423774E+03   -0.61887E-04   -0.61902E-04  8112   0.339E-03 0.153E-05
CGA:  15    -0.319078464970E+03   -0.41196E-04   -0.41209E-04  8112   0.118E-03 0.144E-05
CGA:  16    -0.319078483178E+03   -0.18208E-04   -0.18180E-04  8112   0.742E-04 0.115E-05
CGA:  17    -0.319078490813E+03   -0.76345E-05   -0.76474E-05  8112   0.329E-04 0.469E-06
  78 F= -.31907849E+03 E0= -.31907419E+03  d E =-.158292E-01  mag=    44.0000
       N       E                     dE             d eps       ncg     rms          ort
SDA:   1    -0.318683547872E+03    0.39494E+00    0.00000E+00  8112   0.964E+00 0.000E+00
CGA:   2    -0.318947041600E+03   -0.26349E+00   -0.26371E+00  8112   0.989E+00-0.151E-02
CGA:   3    -0.319021054637E+03   -0.74013E-01   -0.76792E-01  8112   0.350E+00-0.143E-01
CGA:   4    -0.319059151584E+03   -0.38097E-01   -0.37932E-01  8112   0.985E-01-0.203E-02
CGA:   5    -0.319070819963E+03   -0.11668E-01   -0.11678E-01  8112   0.258E-01 0.320E-03
CGA:   6    -0.319074506615E+03   -0.36867E-02   -0.36869E-02  8112   0.113E-01-0.155E-04
CGA:   7    -0.319075621572E+03   -0.11150E-02   -0.11164E-02  8112   0.584E-02 0.685E-05
CGA:   8    -0.319076221582E+03   -0.60001E-03   -0.59959E-03  8112   0.167E-02-0.339E-05
CGA:   9    -0.319076479030E+03   -0.25745E-03   -0.25740E-03  8112   0.666E-03 0.144E-05
CGA:  10    -0.319076568872E+03   -0.89841E-04   -0.89844E-04  8112   0.432E-03-0.244E-06
CGA:  11    -0.319076613610E+03   -0.44739E-04   -0.44759E-04  8112   0.212E-03 0.397E-06
CGA:  12    -0.319076641905E+03   -0.28295E-04   -0.28293E-04  8112   0.108E-03 0.439E-06
CGA:  13    -0.319076659598E+03   -0.17693E-04   -0.17675E-04  8112   0.580E-04 0.510E-06
CGA:  14    -0.319076667480E+03   -0.78823E-05   -0.78818E-05  8112   0.422E-04 0.138E-06
  79 F= -.31907667E+03 E0= -.31907236E+03  d E =0.182333E-02  mag=    44.0000
