       N       E                     dE             d eps       ncg     rms          rms(c)
DAV:   1     0.236078793655E+04    0.23608E+04   -0.98893E+04125408   0.170E+03
DAV:   2     0.404353166630E+02   -0.23204E+04   -0.21765E+04127104   0.515E+02
DAV:   3    -0.250223091115E+03   -0.29066E+03   -0.28726E+03132340   0.194E+02
DAV:   4    -0.263763939057E+03   -0.13541E+02   -0.13361E+02177832   0.351E+01
DAV:   5    -0.264571997105E+03   -0.80806E+00   -0.80037E+00205288   0.637E+00    0.361E+01
DAV:   6    -0.216544921331E+03    0.48027E+02   -0.10795E+02151464   0.409E+01    0.394E+01
DAV:   7    -0.218936641388E+03   -0.23917E+01   -0.11142E+01139792   0.155E+01    0.230E+01
DAV:   8    -0.219077316758E+03   -0.14068E+00   -0.12931E+00156616   0.566E+00    0.138E+01
DAV:   9    -0.219288009446E+03   -0.21069E+00   -0.74533E-01137600   0.447E+00    0.258E+00
DAV:  10    -0.219285205489E+03    0.28040E-02   -0.15956E-01144836   0.190E+00    0.102E+00
DAV:  11    -0.219291000935E+03   -0.57954E-02   -0.27642E-02164552   0.729E-01    0.401E-01
DAV:  12    -0.219292459653E+03   -0.14587E-02   -0.35664E-03151960   0.246E-01    0.188E-01
DAV:  13    -0.219294254008E+03   -0.17944E-02   -0.10860E-03137040   0.139E-01    0.102E-01
DAV:  14    -0.219293957494E+03    0.29651E-03   -0.20527E-04147464   0.682E-02    0.455E-02
DAV:  15    -0.219294054498E+03   -0.97004E-04   -0.85485E-05124216   0.367E-02    0.167E-02
DAV:  16    -0.219293882978E+03    0.17152E-03   -0.15283E-05 97008   0.164E-02    0.824E-03
DAV:  17    -0.219293876130E+03    0.68480E-05   -0.26193E-06 82760   0.738E-03
   1 F= -.21929388E+03 E0= -.21929388E+03  d E =-.219294E+03  mag=    20.0000
       N       E                     dE             d eps       ncg     rms          rms(c)
DAV:   1    -0.219305932486E+03   -0.12050E-01   -0.46680E-01133808   0.410E+00    0.960E-01
DAV:   2    -0.219291609854E+03    0.14323E-01   -0.65101E-02129488   0.110E+00    0.431E-01
DAV:   3    -0.219294184053E+03   -0.25742E-02   -0.69441E-03142860   0.498E-01    0.318E-01
DAV:   4    -0.219294657061E+03   -0.47301E-03   -0.65433E-04151176   0.116E-01    0.164E-01
DAV:   5    -0.219294543187E+03    0.11387E-03   -0.11749E-04166376   0.496E-02    0.928E-02
DAV:   6    -0.219294404426E+03    0.13876E-03   -0.74531E-05163448   0.384E-02    0.228E-02
DAV:   7    -0.219294401019E+03    0.34074E-05   -0.11011E-05 87532   0.171E-02
   2 F= -.21929440E+03 E0= -.21929440E+03  d E =-.524889E-03  mag=    20.0000
