       N       E                     dE             d eps       ncg     rms          ort
DAV:   1     0.580738390432E+04    0.58074E+04   -0.23457E+05  7072   0.164E+03
DAV:   2     0.570132252733E+03   -0.52373E+04   -0.49086E+04  7072   0.473E+02
DAV:   3    -0.369239999381E+03   -0.93937E+03   -0.91300E+03  7072   0.205E+02
DAV:   4    -0.412856957928E+03   -0.43617E+02   -0.42279E+02  7072   0.487E+01
DAV:   5    -0.414805462973E+03   -0.19485E+01   -0.19034E+01  7072   0.955E+00
SDA:   6    -0.154005295128E+03    0.26080E+03   -0.19034E+01  7072   0.316E+04 0.000E+00
CGA:   7    -0.196987580101E+03   -0.42982E+02   -0.29615E+03  7072   0.218E+04-0.147E+03
CGA:   8    -0.261374969818E+03   -0.64387E+02   -0.15883E+03  7072   0.632E+03-0.436E+03
CGA:   9    -0.292353358425E+03   -0.30978E+02   -0.24698E+02  7072   0.444E+03 0.322E+03
CGA:  10    -0.299867860369E+03   -0.75145E+01   -0.21639E+02  7072   0.172E+04-0.101E+04
CGA:  11    -0.280849600265E+03    0.19018E+02   -0.14038E+03  7072   0.733E+03-0.146E+03
CGA:  12    -0.313327888916E+03   -0.32478E+02   -0.31201E+02  7072   0.845E+03-0.839E+03
CGA:  13    -0.249370397285E+03    0.63957E+02   -0.43667E+02  7072   0.109E+04-0.464E+03
CGA:  14    -0.251408073218E+03   -0.20377E+01   -0.74566E+02  7072   0.310E+03-0.209E+03
CGA:  15    -0.308052547357E+03   -0.56644E+02   -0.10457E+02  7072   0.631E+03-0.296E+03
CGA:  16    -0.295362019548E+03    0.12691E+02   -0.30551E+02  7072   0.687E+03-0.481E+03
CGA:  17    -0.296572137149E+03   -0.12101E+01   -0.27360E+02  7072   0.975E+03-0.901E+03
CGA:  18    -0.265012134974E+03    0.31560E+02   -0.47874E+02  7072   0.154E+04-0.616E+03
CGA:  19    -0.264916028364E+03    0.96107E-01   -0.83896E+02  7072   0.129E+04-0.491E+03
CGA:  20    -0.287090848927E+03   -0.22175E+02   -0.47117E+02  7072   0.141E+04-0.117E+04
CGA:  21    -0.240236027295E+03    0.46855E+02   -0.65130E+02  7072   0.259E+04-0.182E+04
CGA:  22    -0.235974888237E+03    0.42611E+01   -0.14584E+03  7072   0.122E+04-0.841E+03
CGA:  23    -0.256710098317E+03   -0.20735E+02   -0.50771E+02  7072   0.801E+03-0.469E+03
CGA:  24    -0.279862206737E+03   -0.23152E+02   -0.22775E+02  7072   0.159E+04 0.797E+03
CGA:  25    -0.296553796112E+03   -0.16692E+02   -0.72120E+02  7072   0.515E+03-0.343E+03
CGA:  26    -0.332718496994E+03   -0.36165E+02   -0.11509E+02  7072   0.548E+03 0.436E+03
CGA:  27    -0.318202009686E+03    0.14516E+02   -0.19388E+02  7072   0.144E+04-0.648E+03
CGA:  28    -0.281131455455E+03    0.37071E+02   -0.58210E+02  7072   0.122E+04-0.472E+03
CGA:  29    -0.291380938323E+03   -0.10249E+02   -0.36020E+02  7072   0.116E+04 0.567E+02
CGA:  30    -0.300906839581E+03   -0.95259E+01   -0.53584E+02  7072   0.899E+03-0.390E+03
CGA:  31    -0.280354293147E+03    0.20553E+02   -0.20307E+02  7072   0.184E+04-0.154E+04
CGA:  32    -0.252514855738E+03    0.27839E+02   -0.67560E+02  7072   0.179E+04-0.123E+04
CGA:  33    -0.266993386193E+03   -0.14479E+02   -0.76761E+02  7072   0.304E+03-0.235E+03
CGA:  34    -0.310251130115E+03   -0.43258E+02   -0.53174E+01  7072   0.135E+04 0.180E+04
CGA:  35    -0.284496488590E+03    0.25755E+02   -0.38365E+02  7072   0.188E+04-0.150E+04
CGA:  36    -0.275760605853E+03    0.87359E+01   -0.65126E+02  7072   0.560E+03-0.408E+03
CGA:  37    -0.333756550694E+03   -0.57996E+02   -0.92318E+01  7072   0.660E+03 0.758E+03
CGA:  38    -0.323509347093E+03    0.10247E+02   -0.17629E+02  7072   0.162E+04-0.818E+03
CGA:  39    -0.287388958727E+03    0.36120E+02   -0.41669E+02  7072   0.348E+04-0.158E+04
CGA:  40    -0.256055219676E+03    0.31334E+02   -0.10679E+03  7072   0.185E+04-0.963E+03
CGA:  41    -0.266932605493E+03   -0.10877E+02   -0.46551E+02  7072   0.365E+03-0.207E+03
CGA:  42    -0.314440769607E+03   -0.47508E+02   -0.49797E+01  7072   0.199E+04 0.329E+04
CGA:  43    -0.252409348643E+03    0.62031E+02   -0.45807E+02  7072   0.396E+04-0.223E+04
CGA:  44    -0.266789429649E+03   -0.14380E+02   -0.12120E+03  7072   0.443E+03-0.285E+03
CGA:  45    -0.295200612480E+03   -0.28411E+02   -0.67137E+01  7072   0.230E+04 0.275E+04
CGA:  46    -0.260165209389E+03    0.35035E+02   -0.51568E+02  7072   0.462E+04-0.320E+04
CGA:  47    -0.266534062672E+03   -0.63689E+01   -0.12796E+03  7072   0.638E+03-0.257E+03
CGA:  48    -0.314592559585E+03   -0.48058E+02   -0.10350E+02  7072   0.191E+04 0.164E+03
CGA:  49    -0.252089767936E+03    0.62503E+02   -0.43676E+02  7072   0.261E+04-0.193E+04
CGA:  50    -0.335159708112E+03   -0.83070E+02   -0.87037E+02  7072   0.334E+03 0.892E+02
CGA:  51    -0.342528951204E+03   -0.73692E+01   -0.46009E+01  7072   0.418E+02 0.392E+02
CGA:  52    -0.344022438002E+03   -0.14935E+01   -0.11285E+01  7072   0.406E+02 0.125E+02
CGA:  53    -0.344463688408E+03   -0.44125E+00   -0.68896E+00  7072   0.170E+02-0.212E+02
CGA:  54    -0.344881826244E+03   -0.41814E+00   -0.50704E+00  7072   0.468E+01 0.247E+00
CGA:  55    -0.344988730081E+03   -0.10690E+00   -0.10567E+00  7072   0.435E+01 0.313E-01
CGA:  56    -0.345191579311E+03   -0.20285E+00   -0.20530E+00  7072   0.161E+01-0.413E+00
CGA:  57    -0.345358690911E+03   -0.16711E+00   -0.15666E+00  7072   0.392E+01 0.197E+00
CGA:  58    -0.345473180028E+03   -0.11449E+00   -0.95287E-01  7072   0.395E+01 0.539E+00
CGA:  59    -0.345666235113E+03   -0.19306E+00   -0.19279E+00  7072   0.863E+01-0.415E-01
CGA:  60    -0.345826796966E+03   -0.16056E+00   -0.20218E+00  7072   0.316E+01-0.451E+00
CGA:  61    -0.345890986575E+03   -0.64190E-01   -0.71371E-01  7072   0.219E+01-0.123E+00
CGA:  62    -0.345973442057E+03   -0.82455E-01   -0.82133E-01  7072   0.141E+01-0.285E-01
CGA:  63    -0.346062679315E+03   -0.89237E-01   -0.88337E-01  7072   0.204E+01 0.338E-01
CGA:  64    -0.346134742014E+03   -0.72063E-01   -0.74858E-01  7072   0.103E+01 0.971E-01
CGA:  65    -0.346239640933E+03   -0.10490E+00   -0.10054E+00  7072   0.772E+00 0.793E-01
CGA:  66    -0.346277376628E+03   -0.37736E-01   -0.37718E-01  7072   0.726E+00-0.913E-02
CGA:  67    -0.346320805670E+03   -0.43429E-01   -0.43847E-01  7072   0.434E+00-0.199E-01
CGA:  68    -0.346351653854E+03   -0.30848E-01   -0.30469E-01  7072   0.784E+00 0.120E-01
CGA:  69    -0.346394849722E+03   -0.43196E-01   -0.44833E-01  7072   0.891E+00-0.145E+00
CGA:  70    -0.346419518653E+03   -0.24669E-01   -0.24039E-01  7072   0.882E+00 0.342E-02
CGA:  71    -0.346441448973E+03   -0.21930E-01   -0.23668E-01  7072   0.310E+00-0.202E-01
CGA:  72    -0.346453771812E+03   -0.12323E-01   -0.12400E-01  7072   0.378E+00 0.462E-02
CGA:  73    -0.346475029150E+03   -0.21257E-01   -0.21570E-01  7072   0.325E+00-0.220E-01
CGA:  74    -0.346488835823E+03   -0.13807E-01   -0.13785E-01  7072   0.403E+00-0.567E-02
CGA:  75    -0.346503717924E+03   -0.14882E-01   -0.14878E-01  7072   0.218E+00-0.276E-03
CGA:  76    -0.346511883507E+03   -0.81656E-02   -0.80989E-02  7072   0.224E+00-0.197E-02
CGA:  77    -0.346520798376E+03   -0.89149E-02   -0.88650E-02  7072   0.205E+00-0.318E-02
CGA:  78    -0.346527521846E+03   -0.67235E-02   -0.68906E-02  7072   0.174E+00 0.237E-02
CGA:  79    -0.346536163867E+03   -0.86420E-02   -0.85735E-02  7072   0.190E+00 0.108E-01
CGA:  80    -0.346548094708E+03   -0.11931E-01   -0.12482E-01  7072   0.162E+00-0.266E-01
CGA:  81    -0.346552376619E+03   -0.42819E-02   -0.41742E-02  7072   0.137E+00 0.316E-03
CGA:  82    -0.346558316208E+03   -0.59396E-02   -0.59344E-02  7072   0.148E+00-0.102E-02
CGA:  83    -0.346562034794E+03   -0.37186E-02   -0.36981E-02  7072   0.757E-01 0.444E-03
SDA:  84    -0.346565026886E+03   -0.29921E-02   -0.29947E-02  7072   0.104E+00 0.285E-03
CGA:  85    -0.346567909133E+03   -0.28822E-02   -0.28789E-02  7072   0.483E-01 0.312E-04
CGA:  86    -0.346573585920E+03   -0.56768E-02   -0.56725E-02  7072   0.480E-01 0.193E-04
CGA:  87    -0.346580800328E+03   -0.72144E-02   -0.73583E-02  7072   0.103E+00-0.185E-02
CGA:  88    -0.346585391726E+03   -0.45914E-02   -0.45548E-02  7072   0.675E-01-0.199E-02
CGA:  89    -0.346588535716E+03   -0.31440E-02   -0.31342E-02  7072   0.202E-01-0.801E-03
CGA:  90    -0.346590754814E+03   -0.22191E-02   -0.22682E-02  7072   0.308E-01-0.861E-03
CGA:  91    -0.346591887434E+03   -0.11326E-02   -0.11312E-02  7072   0.231E-01 0.140E-04
CGA:  92    -0.346593576723E+03   -0.16893E-02   -0.17120E-02  7072   0.178E-01-0.893E-03
CGA:  93    -0.346594286765E+03   -0.71004E-03   -0.70774E-03  7072   0.941E-02-0.325E-04
CGA:  94    -0.346594622301E+03   -0.33554E-03   -0.33439E-03  7072   0.399E-02-0.139E-04
CGA:  95    -0.346595112792E+03   -0.49049E-03   -0.50480E-03  7072   0.651E-02-0.212E-03
CGA:  96    -0.346595314341E+03   -0.20155E-03   -0.19880E-03  7072   0.473E-02 0.638E-05
CGA:  97    -0.346595557861E+03   -0.24352E-03   -0.24328E-03  7072   0.161E-02-0.404E-04
CGA:  98    -0.346595644534E+03   -0.86673E-04   -0.86647E-04  7072   0.229E-02-0.208E-04
CGA:  99    -0.346595755659E+03   -0.11113E-03   -0.11058E-03  7072   0.312E-02-0.505E-04
CGA: 100    -0.346596018255E+03   -0.26260E-03   -0.27122E-03  7072   0.390E-02-0.252E-03
CGA: 101    -0.346596098647E+03   -0.80392E-04   -0.75922E-04  7072   0.116E-02 0.115E-03
CGA: 102    -0.346596143949E+03   -0.45302E-04   -0.44937E-04  7072   0.127E-02-0.701E-05
CGA: 103    -0.346596185216E+03   -0.41267E-04   -0.41111E-04  7072   0.949E-03-0.608E-06
CGA: 104    -0.346596226454E+03   -0.41238E-04   -0.41254E-04  7072   0.151E-02 0.115E-05
CGA: 105    -0.346596279776E+03   -0.53322E-04   -0.52509E-04  7072   0.115E-02 0.796E-05
CGA: 106    -0.346596318531E+03   -0.38755E-04   -0.38193E-04  7072   0.139E-02 0.718E-05
CGA: 107    -0.346596356753E+03   -0.38222E-04   -0.37043E-04  7072   0.656E-03 0.295E-04
CGA: 108    -0.346596368475E+03   -0.11722E-04   -0.11707E-04  7072   0.324E-03 0.424E-05
CGA: 109    -0.346596381457E+03   -0.12982E-04   -0.13013E-04  7072   0.648E-03 0.157E-05
CGA: 110    -0.346596403557E+03   -0.22100E-04   -0.22171E-04  7072   0.745E-03 0.540E-05
CGA: 111    -0.346596424764E+03   -0.21207E-04   -0.20985E-04  7072   0.842E-03 0.900E-05
CGA: 112    -0.346596447518E+03   -0.22754E-04   -0.22090E-04  7072   0.689E-03 0.171E-04
CGA: 113    -0.346596460175E+03   -0.12656E-04   -0.12596E-04  7072   0.405E-03 0.110E-04
CGA: 114    -0.346596470706E+03   -0.10532E-04   -0.10593E-04  7072   0.496E-03 0.275E-05
SDA: 115    -0.346596482286E+03   -0.11580E-04   -0.11477E-04  7072   0.362E-03 0.733E-05
CGA: 116    -0.346596499881E+03   -0.17594E-04   -0.17583E-04  7072   0.535E-03-0.776E-07
CGA: 117    -0.346596538203E+03   -0.38322E-04   -0.37984E-04  7072   0.670E-03 0.981E-05
CGA: 118    -0.346596582156E+03   -0.43954E-04   -0.43921E-04  7072   0.130E-02 0.720E-06
CGA: 119    -0.346596632663E+03   -0.50507E-04   -0.50615E-04  7072   0.254E-03 0.757E-05
CGA: 120    -0.346596651123E+03   -0.18460E-04   -0.18454E-04  7072   0.156E-03-0.105E-05
CGA: 121    -0.346596661164E+03   -0.10041E-04   -0.10060E-04  7072   0.218E-03-0.199E-05
CGA: 122    -0.346596667602E+03   -0.64389E-05   -0.64488E-05  7072   0.124E-03-0.156E-05
CGA: 123    -0.346596678920E+03   -0.11317E-04   -0.11496E-04  7072   0.529E-04-0.496E-05
CGA: 124    -0.346596682471E+03   -0.35514E-05   -0.35265E-05  7072   0.488E-04 0.185E-06
   1 F= -.34659668E+03 E0= -.34657853E+03  d E =-.346597E+03  mag=     8.0000
       N       E                     dE             d eps       ncg     rms          ort
SDA:   1    -0.346704916191E+03   -0.10824E+00    0.00000E+00  7072   0.257E+00 0.000E+00
CGA:   2    -0.346708647519E+03   -0.37313E-02   -0.38005E-02  7072   0.229E-01-0.368E-02
CGA:   3    -0.346710377300E+03   -0.17298E-02   -0.17284E-02  7072   0.265E-01 0.457E-04
CGA:   4    -0.346711924005E+03   -0.15467E-02   -0.15463E-02  7072   0.272E-01 0.326E-04
CGA:   5    -0.346712772731E+03   -0.84873E-03   -0.84758E-03  7072   0.518E-02 0.605E-05
CGA:   6    -0.346713016487E+03   -0.24376E-03   -0.24377E-03  7072   0.770E-02 0.502E-05
CGA:   7    -0.346713407035E+03   -0.39055E-03   -0.39058E-03  7072   0.357E-02-0.998E-05
CGA:   8    -0.346713598501E+03   -0.19147E-03   -0.19148E-03  7072   0.160E-02-0.291E-05
CGA:   9    -0.346713673603E+03   -0.75103E-04   -0.75098E-04  7072   0.171E-02-0.285E-05
CGA:  10    -0.346713722905E+03   -0.49302E-04   -0.49281E-04  7072   0.320E-03-0.107E-05
CGA:  11    -0.346713754308E+03   -0.31403E-04   -0.31640E-04  7072   0.541E-03-0.456E-05
CGA:  12    -0.346713770593E+03   -0.16285E-04   -0.16254E-04  7072   0.213E-03-0.183E-05
CGA:  13    -0.346713783527E+03   -0.12934E-04   -0.12952E-04  7072   0.208E-03-0.144E-05
CGA:  14    -0.346713789417E+03   -0.58902E-05   -0.58874E-05  7072   0.868E-04-0.211E-06
   2 F= -.34671379E+03 E0= -.34669559E+03  d E =-.117107E+00  mag=     8.0000
       N       E                     dE             d eps       ncg     rms          ort
SDA:   1    -0.345668534581E+03    0.10452E+01    0.00000E+00  7072   0.113E+02 0.000E+00
CGA:   2    -0.346952333510E+03   -0.12838E+01   -0.13119E+01  7072   0.391E+02-0.390E+00
CGA:   3    -0.347925893686E+03   -0.97356E+00   -0.99629E+00  7072   0.945E+01-0.720E+00
CGA:   4    -0.348316228201E+03   -0.39033E+00   -0.38220E+00  7072   0.310E+01-0.160E+00
CGA:   5    -0.348635212178E+03   -0.31898E+00   -0.33696E+00  7072   0.377E+01-0.340E+00
CGA:   6    -0.348774857043E+03   -0.13964E+00   -0.13686E+00  7072   0.309E+01-0.382E-01
CGA:   7    -0.348886522312E+03   -0.11167E+00   -0.11566E+00  7072   0.739E+00 0.239E-01
CGA:   8    -0.348910493770E+03   -0.23971E-01   -0.24026E-01  7072   0.515E+00-0.856E-03
CGA:   9    -0.348933965566E+03   -0.23472E-01   -0.23456E-01  7072   0.355E+00-0.108E-02
CGA:  10    -0.348956448056E+03   -0.22482E-01   -0.22487E-01  7072   0.267E+00-0.321E-03
CGA:  11    -0.348965667441E+03   -0.92194E-02   -0.92958E-02  7072   0.171E+00-0.656E-04
CGA:  12    -0.348972087929E+03   -0.64205E-02   -0.64427E-02  7072   0.598E-01 0.236E-03
CGA:  13    -0.348975331875E+03   -0.32439E-02   -0.32448E-02  7072   0.896E-01-0.134E-03
CGA:  14    -0.348979538335E+03   -0.42065E-02   -0.42051E-02  7072   0.675E-01-0.164E-03
CGA:  15    -0.348983649187E+03   -0.41109E-02   -0.41125E-02  7072   0.417E-01-0.109E-03
CGA:  16    -0.348985162491E+03   -0.15133E-02   -0.15100E-02  7072   0.328E-01-0.124E-04
CGA:  17    -0.348986494280E+03   -0.13318E-02   -0.13331E-02  7072   0.168E-01 0.478E-04
CGA:  18    -0.348988093016E+03   -0.15987E-02   -0.16003E-02  7072   0.428E-01-0.329E-04
CGA:  19    -0.348989659966E+03   -0.15670E-02   -0.15674E-02  7072   0.157E-01 0.228E-04
CGA:  20    -0.348990298435E+03   -0.63847E-03   -0.63895E-03  7072   0.822E-02 0.214E-04
CGA:  21    -0.348990670200E+03   -0.37176E-03   -0.37202E-03  7072   0.102E-01 0.261E-04
CGA:  22    -0.348991233831E+03   -0.56363E-03   -0.56349E-03  7072   0.663E-02 0.250E-04
CGA:  23    -0.348991718531E+03   -0.48470E-03   -0.48419E-03  7072   0.915E-02 0.224E-04
CGA:  24    -0.348991969614E+03   -0.25108E-03   -0.25096E-03  7072   0.254E-02 0.163E-04
CGA:  25    -0.348992095647E+03   -0.12603E-03   -0.12604E-03  7072   0.186E-02 0.977E-05
CGA:  26    -0.348992200326E+03   -0.10468E-03   -0.10464E-03  7072   0.308E-02 0.742E-05
CGA:  27    -0.348992363628E+03   -0.16330E-03   -0.16327E-03  7072   0.124E-02 0.161E-04
CGA:  28    -0.348992408000E+03   -0.44372E-04   -0.44417E-04  7072   0.801E-03 0.282E-05
CGA:  29    -0.348992441084E+03   -0.33083E-04   -0.33109E-04  7072   0.660E-03 0.239E-05
CGA:  30    -0.348992491987E+03   -0.50904E-04   -0.50839E-04  7072   0.539E-03 0.234E-05
CGA:  31    -0.348992512319E+03   -0.20331E-04   -0.20353E-04  7072   0.549E-03 0.135E-05
SDA:  32    -0.348992541496E+03   -0.29177E-04   -0.29176E-04  7072   0.194E-03 0.545E-06
CGA:  33    -0.348992547635E+03   -0.61388E-05   -0.61235E-05  7072   0.146E-03-0.987E-06
   3 F= -.34899255E+03 E0= -.34897401E+03  d E =-.227876E+01  mag=     8.0000
       N       E                     dE             d eps       ncg     rms          ort
SDA:   1    -0.340826529770E+03    0.81660E+01    0.00000E+00  7072   0.394E+02 0.000E+00
CGA:   2    -0.344010939716E+03   -0.31844E+01   -0.30670E+01  7072   0.833E+02 0.391E+01
CGA:   3    -0.347147081233E+03   -0.31361E+01   -0.31410E+01  7072   0.354E+02-0.904E+00
CGA:   4    -0.348665596426E+03   -0.15185E+01   -0.14787E+01  7072   0.357E+02-0.135E+01
CGA:   5    -0.349424597382E+03   -0.75900E+00   -0.67682E+00  7072   0.111E+02-0.126E+01
CGA:   6    -0.349688878456E+03   -0.26428E+00   -0.28470E+00  7072   0.131E+02-0.248E+00
CGA:   7    -0.350235659239E+03   -0.54678E+00   -0.55124E+00  7072   0.162E+02 0.460E+00
CGA:   8    -0.350597047690E+03   -0.36139E+00   -0.29643E+00  7072   0.483E+01 0.261E+01
CGA:   9    -0.350706073606E+03   -0.10903E+00   -0.10525E+00  7072   0.333E+01 0.103E+00
CGA:  10    -0.350806946512E+03   -0.10087E+00   -0.10245E+00  7072   0.298E+01-0.391E-02
CGA:  11    -0.350857255976E+03   -0.50309E-01   -0.51393E-01  7072   0.172E+01-0.458E-01
CGA:  12    -0.350929898441E+03   -0.72642E-01   -0.72552E-01  7072   0.230E+01 0.463E-01
CGA:  13    -0.350968345712E+03   -0.38447E-01   -0.39563E-01  7072   0.615E+00-0.472E-01
CGA:  14    -0.350993954985E+03   -0.25609E-01   -0.25601E-01  7072   0.928E+00 0.247E-02
CGA:  15    -0.351012830630E+03   -0.18876E-01   -0.18939E-01  7072   0.258E+00-0.191E-02
CGA:  16    -0.351024301736E+03   -0.11471E-01   -0.11457E-01  7072   0.490E+00 0.177E-02
CGA:  17    -0.351039229624E+03   -0.14928E-01   -0.15113E-01  7072   0.311E+00 0.420E-02
CGA:  18    -0.351051714857E+03   -0.12485E-01   -0.12482E-01  7072   0.283E+00 0.841E-02
CGA:  19    -0.351059635770E+03   -0.79209E-02   -0.79408E-02  7072   0.133E+00-0.378E-05
CGA:  20    -0.351063225124E+03   -0.35894E-02   -0.35971E-02  7072   0.848E-01 0.197E-04
CGA:  21    -0.351068509594E+03   -0.52845E-02   -0.52077E-02  7072   0.127E+00 0.285E-02
CGA:  22    -0.351072660552E+03   -0.41510E-02   -0.41593E-02  7072   0.107E+00 0.318E-03
CGA:  23    -0.351077067694E+03   -0.44071E-02   -0.44070E-02  7072   0.458E-01 0.555E-04
CGA:  24    -0.351078580463E+03   -0.15128E-02   -0.15168E-02  7072   0.383E-01 0.234E-03
CGA:  25    -0.351080203177E+03   -0.16227E-02   -0.16223E-02  7072   0.395E-01 0.958E-04
CGA:  26    -0.351081653254E+03   -0.14501E-02   -0.14503E-02  7072   0.265E-01 0.730E-04
CGA:  27    -0.351083104311E+03   -0.14511E-02   -0.14464E-02  7072   0.264E-01 0.250E-03
CGA:  28    -0.351083750601E+03   -0.64629E-03   -0.64584E-03  7072   0.122E-01 0.379E-04
CGA:  29    -0.351084364452E+03   -0.61385E-03   -0.61349E-03  7072   0.957E-02 0.329E-04
CGA:  30    -0.351084723524E+03   -0.35907E-03   -0.35922E-03  7072   0.862E-02 0.434E-04
CGA:  31    -0.351085108255E+03   -0.38473E-03   -0.38460E-03  7072   0.971E-02 0.233E-04
SDA:  32    -0.351085440952E+03   -0.33270E-03   -0.33287E-03  7072   0.427E-02 0.242E-04
CGA:  33    -0.351085559202E+03   -0.11825E-03   -0.11840E-03  7072   0.164E-02 0.358E-05
CGA:  34    -0.351085651464E+03   -0.92262E-04   -0.92238E-04  7072   0.199E-02 0.164E-05
CGA:  35    -0.351085915926E+03   -0.26446E-03   -0.26409E-03  7072   0.455E-02 0.437E-05
CGA:  36    -0.351086024106E+03   -0.10818E-03   -0.10802E-03  7072   0.154E-02-0.893E-06
CGA:  37    -0.351086112872E+03   -0.88766E-04   -0.88911E-04  7072   0.579E-03-0.908E-05
CGA:  38    -0.351086204915E+03   -0.92043E-04   -0.92187E-04  7072   0.898E-03-0.137E-05
CGA:  39    -0.351086238246E+03   -0.33331E-04   -0.33342E-04  7072   0.743E-03 0.112E-06
CGA:  40    -0.351086268608E+03   -0.30362E-04   -0.30352E-04  7072   0.440E-03-0.101E-05
CGA:  41    -0.351086289789E+03   -0.21181E-04   -0.21181E-04  7072   0.452E-03-0.681E-06
CGA:  42    -0.351086308628E+03   -0.18840E-04   -0.18832E-04  7072   0.255E-03-0.932E-06
CGA:  43    -0.351086340243E+03   -0.31615E-04   -0.31409E-04  7072   0.130E-03 0.271E-05
CGA:  44    -0.351086346555E+03   -0.63112E-05   -0.63111E-05  7072   0.180E-03-0.804E-07
   4 F= -.35108635E+03 E0= -.35106759E+03  d E =-.209380E+01  mag=     8.0000
       N       E                     dE             d eps       ncg     rms          ort
SDA:   1    -0.342559144472E+03    0.85272E+01    0.00000E+00  7072   0.421E+02 0.000E+00
CGA:   2    -0.345113595446E+03   -0.25545E+01   -0.25268E+01  7072   0.514E+02 0.244E+01
CGA:   3    -0.347495900659E+03   -0.23823E+01   -0.23582E+01  7072   0.408E+02-0.102E+01
CGA:   4    -0.349901994024E+03   -0.24061E+01   -0.27050E+01  7072   0.509E+02-0.147E+02
CGA:   5    -0.350361503501E+03   -0.45951E+00   -0.47597E+00  7072   0.191E+02-0.309E+00
CGA:   6    -0.350680651334E+03   -0.31915E+00   -0.35623E+00  7072   0.157E+02-0.175E+01
CGA:   7    -0.350978022146E+03   -0.29737E+00   -0.30401E+00  7072   0.109E+02-0.349E+00
CGA:   8    -0.351180505921E+03   -0.20248E+00   -0.18903E+00  7072   0.964E+01 0.432E+00
CGA:   9    -0.351444578549E+03   -0.26407E+00   -0.26712E+00  7072   0.122E+02-0.337E-01
CGA:  10    -0.351643969008E+03   -0.19939E+00   -0.21256E+00  7072   0.543E+01-0.519E+00
CGA:  11    -0.351736212246E+03   -0.92243E-01   -0.94085E-01  7072   0.401E+01-0.697E-01
CGA:  12    -0.351816616871E+03   -0.80405E-01   -0.76778E-01  7072   0.183E+01 0.105E+00
CGA:  13    -0.351841146936E+03   -0.24530E-01   -0.25153E-01  7072   0.791E+00-0.349E-01
CGA:  14    -0.351869906170E+03   -0.28759E-01   -0.28856E-01  7072   0.163E+01 0.165E-01
CGA:  15    -0.351908284370E+03   -0.38378E-01   -0.39324E-01  7072   0.916E+00-0.114E-01
CGA:  16    -0.351937933782E+03   -0.29649E-01   -0.30012E-01  7072   0.113E+01 0.205E-01
CGA:  17    -0.351964803097E+03   -0.26869E-01   -0.26871E-01  7072   0.299E+00-0.722E-07
CGA:  18    -0.351971179420E+03   -0.63763E-02   -0.63615E-02  7072   0.212E+00 0.280E-03
CGA:  19    -0.351981701181E+03   -0.10522E-01   -0.10463E-01  7072   0.278E+00 0.353E-02
CGA:  20    -0.351989226400E+03   -0.75252E-02   -0.76748E-02  7072   0.241E+00 0.183E-02
CGA:  21    -0.352001830967E+03   -0.12605E-01   -0.12469E-01  7072   0.143E+00 0.685E-02
CGA:  22    -0.352004625986E+03   -0.27950E-02   -0.27996E-02  7072   0.515E-01-0.131E-03
CGA:  23    -0.352007904556E+03   -0.32786E-02   -0.32647E-02  7072   0.568E-01 0.467E-03
CGA:  24    -0.352009756107E+03   -0.18516E-02   -0.18601E-02  7072   0.565E-01 0.500E-03
CGA:  25    -0.352013003189E+03   -0.32471E-02   -0.32161E-02  7072   0.421E-01 0.134E-02
CGA:  26    -0.352014248132E+03   -0.12449E-02   -0.12444E-02  7072   0.259E-01 0.433E-05
CGA:  27    -0.352015739504E+03   -0.14914E-02   -0.14903E-02  7072   0.196E-01 0.478E-04
CGA:  28    -0.352016286912E+03   -0.54741E-03   -0.54814E-03  7072   0.144E-01 0.249E-04
CGA:  29    -0.352017370280E+03   -0.10834E-02   -0.10769E-02  7072   0.131E-01 0.173E-03
CGA:  30    -0.352017974070E+03   -0.60379E-03   -0.60347E-03  7072   0.181E-01 0.533E-04
CGA:  31    -0.352018613234E+03   -0.63916E-03   -0.63959E-03  7072   0.512E-02 0.474E-04
SDA:  32    -0.352018859292E+03   -0.24606E-03   -0.24584E-03  7072   0.676E-02 0.244E-04
CGA:  33    -0.352019002184E+03   -0.14289E-03   -0.14285E-03  7072   0.188E-02-0.178E-06
CGA:  34    -0.352019325739E+03   -0.32356E-03   -0.32388E-03  7072   0.664E-02-0.131E-05
CGA:  35    -0.352019530606E+03   -0.20487E-03   -0.20495E-03  7072   0.339E-02-0.238E-05
CGA:  36    -0.352019693553E+03   -0.16295E-03   -0.16295E-03  7072   0.123E-02-0.175E-05
CGA:  37    -0.352019828829E+03   -0.13528E-03   -0.13522E-03  7072   0.783E-03 0.854E-06
CGA:  38    -0.352019945963E+03   -0.11713E-03   -0.11686E-03  7072   0.272E-02 0.261E-05
CGA:  39    -0.352020040321E+03   -0.94359E-04   -0.94476E-04  7072   0.695E-03 0.298E-05
CGA:  40    -0.352020102595E+03   -0.62274E-04   -0.62292E-04  7072   0.947E-03-0.689E-06
CGA:  41    -0.352020138927E+03   -0.36332E-04   -0.36367E-04  7072   0.976E-03 0.726E-06
CGA:  42    -0.352020194498E+03   -0.55570E-04   -0.55566E-04  7072   0.503E-03 0.170E-05
CGA:  43    -0.352020233536E+03   -0.39038E-04   -0.38997E-04  7072   0.288E-03 0.173E-05
CGA:  44    -0.352020250602E+03   -0.17066E-04   -0.17064E-04  7072   0.304E-03 0.652E-06
CGA:  45    -0.352020263059E+03   -0.12457E-04   -0.12468E-04  7072   0.185E-03 0.629E-06
CGA:  46    -0.352020289013E+03   -0.25954E-04   -0.25652E-04  7072   0.210E-03 0.355E-05
CGA:  47    -0.352020293727E+03   -0.47144E-05   -0.47495E-05  7072   0.696E-04 0.487E-06
   5 F= -.35202029E+03 E0= -.35200212E+03  d E =-.933947E+00  mag=     8.0000
       N       E                     dE             d eps       ncg     rms          ort
SDA:   1    -0.332536838512E+03    0.19483E+02    0.00000E+00  7072   0.107E+03 0.000E+00
CGA:   2    -0.337633026057E+03   -0.50962E+01   -0.44993E+01  7072   0.949E+02-0.773E+01
CGA:   3    -0.342620055125E+03   -0.49870E+01   -0.49812E+01  7072   0.943E+02-0.655E+01
CGA:   4    -0.346956413898E+03   -0.43364E+01   -0.44552E+01  7072   0.101E+03 0.859E+01
CGA:   5    -0.348812093510E+03   -0.18557E+01   -0.17495E+01  7072   0.578E+02-0.554E+01
CGA:   6    -0.349873624754E+03   -0.10615E+01   -0.84974E+00  7072   0.434E+02 0.111E+02
CGA:   7    -0.350503399626E+03   -0.62977E+00   -0.72046E+00  7072   0.202E+02-0.741E+01
CGA:   8    -0.350772891017E+03   -0.26949E+00   -0.26697E+00  7072   0.244E+02 0.383E-01
CGA:   9    -0.351387089767E+03   -0.61420E+00   -0.58543E+00  7072   0.308E+02 0.860E-01
CGA:  10    -0.351736159868E+03   -0.34907E+00   -0.40880E+00  7072   0.162E+02-0.402E+01
CGA:  11    -0.351954246686E+03   -0.21809E+00   -0.23321E+00  7072   0.155E+02-0.695E+00
CGA:  12    -0.352163489721E+03   -0.20924E+00   -0.21175E+00  7072   0.935E+01-0.674E+00
CGA:  13    -0.352305978655E+03   -0.14249E+00   -0.14989E+00  7072   0.733E+01-0.320E+00
CGA:  14    -0.352385507159E+03   -0.79529E-01   -0.70902E-01  7072   0.332E+01 0.671E+00
CGA:  15    -0.352429345825E+03   -0.43839E-01   -0.45481E-01  7072   0.262E+01-0.123E+00
CGA:  16    -0.352470534913E+03   -0.41189E-01   -0.42982E-01  7072   0.344E+01-0.714E-01
CGA:  17    -0.352531544793E+03   -0.61010E-01   -0.64121E-01  7072   0.411E+01-0.760E-01
CGA:  18    -0.352586305029E+03   -0.54760E-01   -0.55442E-01  7072   0.271E+01-0.517E-01
CGA:  19    -0.352637041557E+03   -0.50737E-01   -0.53422E-01  7072   0.354E+01-0.560E-01
CGA:  20    -0.352692759602E+03   -0.55718E-01   -0.59233E-01  7072   0.153E+01-0.105E+00
CGA:  21    -0.352713502413E+03   -0.20743E-01   -0.21685E-01  7072   0.830E+00-0.409E-01
CGA:  22    -0.352729012907E+03   -0.15510E-01   -0.16117E-01  7072   0.542E+00-0.627E-02
CGA:  23    -0.352741605990E+03   -0.12593E-01   -0.12971E-01  7072   0.556E+00 0.834E-02
CGA:  24    -0.352760584739E+03   -0.18979E-01   -0.18946E-01  7072   0.408E+00 0.108E-01
CGA:  25    -0.352772392369E+03   -0.11808E-01   -0.11835E-01  7072   0.433E+00 0.286E-02
CGA:  26    -0.352787823235E+03   -0.15431E-01   -0.15344E-01  7072   0.248E+00 0.152E-01
CGA:  27    -0.352793685961E+03   -0.58627E-02   -0.59455E-02  7072   0.132E+00 0.122E-02
CGA:  28    -0.352798640893E+03   -0.49549E-02   -0.49341E-02  7072   0.874E-01 0.236E-02
CGA:  29    -0.352802187090E+03   -0.35462E-02   -0.35287E-02  7072   0.875E-01 0.156E-02
CGA:  30    -0.352805349517E+03   -0.31624E-02   -0.31591E-02  7072   0.651E-01 0.605E-03
CGA:  31    -0.352808641974E+03   -0.32925E-02   -0.32778E-02  7072   0.598E-01 0.701E-03
SDA:  32    -0.352810629172E+03   -0.19872E-02   -0.19874E-02  7072   0.328E-01 0.258E-03
CGA:  33    -0.352811587196E+03   -0.95802E-03   -0.95807E-03  7072   0.149E-01 0.127E-04
CGA:  34    -0.352812222098E+03   -0.63490E-03   -0.63438E-03  7072   0.138E-01 0.488E-04
CGA:  35    -0.352814141301E+03   -0.19192E-02   -0.19013E-02  7072   0.115E-01 0.189E-03
CGA:  36    -0.352814924432E+03   -0.78313E-03   -0.78158E-03  7072   0.847E-02 0.519E-04
CGA:  37    -0.352815357172E+03   -0.43274E-03   -0.43235E-03  7072   0.984E-02 0.281E-04
CGA:  38    -0.352816253850E+03   -0.89668E-03   -0.89418E-03  7072   0.948E-02 0.516E-04
CGA:  39    -0.352816965046E+03   -0.71120E-03   -0.70877E-03  7072   0.430E-02 0.721E-04
CGA:  40    -0.352817395601E+03   -0.43056E-03   -0.43000E-03  7072   0.383E-02 0.102E-04
CGA:  41    -0.352817641097E+03   -0.24550E-03   -0.24547E-03  7072   0.707E-02 0.277E-05
CGA:  42    -0.352818130531E+03   -0.48943E-03   -0.48866E-03  7072   0.207E-02 0.321E-04
CGA:  43    -0.352818202837E+03   -0.72306E-04   -0.72351E-04  7072   0.133E-02 0.201E-05
CGA:  44    -0.352818272513E+03   -0.69676E-04   -0.69652E-04  7072   0.130E-02 0.477E-05
CGA:  45    -0.352818435088E+03   -0.16257E-03   -0.16207E-03  7072   0.809E-03 0.684E-05
CGA:  46    -0.352818512868E+03   -0.77780E-04   -0.77782E-04  7072   0.304E-03-0.237E-06
CGA:  47    -0.352818538467E+03   -0.25600E-04   -0.25666E-04  7072   0.567E-03-0.227E-05
CGA:  48    -0.352818559124E+03   -0.20657E-04   -0.20649E-04  7072   0.293E-03-0.162E-05
CGA:  49    -0.352818585960E+03   -0.26836E-04   -0.26940E-04  7072   0.264E-03-0.285E-05
CGA:  50    -0.352818594800E+03   -0.88402E-05   -0.88209E-05  7072   0.138E-03-0.737E-06
CGA:  51    -0.352818606869E+03   -0.12069E-04   -0.12075E-04  7072   0.197E-03-0.283E-06
CGA:  52    -0.352818627147E+03   -0.20278E-04   -0.20241E-04  7072   0.684E-04 0.723E-06
CGA:  53    -0.352818632125E+03   -0.49780E-05   -0.49600E-05  7072   0.102E-03 0.134E-05
   6 F= -.35281863E+03 E0= -.35280162E+03  d E =-.798338E+00  mag=     8.0000
       N       E                     dE             d eps       ncg     rms          ort
SDA:   1    -0.331864415560E+03    0.20954E+02    0.00000E+00  7072   0.109E+03 0.000E+00
CGA:   2    -0.337045941922E+03   -0.51815E+01   -0.47993E+01  7072   0.910E+02-0.495E+01
CGA:   3    -0.342777291631E+03   -0.57313E+01   -0.60043E+01  7072   0.141E+03-0.177E+02
CGA:   4    -0.348254008399E+03   -0.54767E+01   -0.55432E+01  7072   0.747E+02 0.381E+01
CGA:   5    -0.349362685870E+03   -0.11087E+01   -0.11070E+01  7072   0.585E+02-0.573E+01
CGA:   6    -0.350410666393E+03   -0.10480E+01   -0.11860E+01  7072   0.433E+02-0.769E+01
CGA:   7    -0.350802790832E+03   -0.39212E+00   -0.53227E+00  7072   0.239E+02-0.770E+01
CGA:   8    -0.351455786409E+03   -0.65300E+00   -0.62791E+00  7072   0.280E+02 0.576E-01
CGA:   9    -0.352091939386E+03   -0.63615E+00   -0.65484E+00  7072   0.197E+02-0.110E+01
CGA:  10    -0.352342853655E+03   -0.25091E+00   -0.26992E+00  7072   0.913E+01-0.109E+01
CGA:  11    -0.352563247203E+03   -0.22039E+00   -0.22002E+00  7072   0.766E+01 0.527E-02
CGA:  12    -0.352683436298E+03   -0.12019E+00   -0.12825E+00  7072   0.529E+01-0.364E+00
CGA:  13    -0.352807695364E+03   -0.12426E+00   -0.12473E+00  7072   0.251E+01 0.914E-02
CGA:  14    -0.352863241775E+03   -0.55546E-01   -0.58018E-01  7072   0.372E+01-0.521E-01
CGA:  15    -0.353003405852E+03   -0.14016E+00   -0.14131E+00  7072   0.270E+01 0.874E-01
CGA:  16    -0.353070790670E+03   -0.67385E-01   -0.69136E-01  7072   0.201E+01-0.287E-01
CGA:  17    -0.353113650290E+03   -0.42860E-01   -0.44398E-01  7072   0.957E+00-0.261E-01
CGA:  18    -0.353146700944E+03   -0.33051E-01   -0.33284E-01  7072   0.700E+00 0.121E-01
CGA:  19    -0.353166501769E+03   -0.19801E-01   -0.20951E-01  7072   0.526E+00 0.126E-01
CGA:  20    -0.353196095286E+03   -0.29594E-01   -0.29227E-01  7072   0.473E+00 0.190E-01
CGA:  21    -0.353212694076E+03   -0.16599E-01   -0.16803E-01  7072   0.183E+00 0.897E-02
CGA:  22    -0.353221459825E+03   -0.87657E-02   -0.87200E-02  7072   0.119E+00 0.483E-02
CGA:  23    -0.353228245173E+03   -0.67853E-02   -0.67501E-02  7072   0.102E+00 0.189E-02
CGA:  24    -0.353232298954E+03   -0.40538E-02   -0.40630E-02  7072   0.647E-01 0.156E-02
CGA:  25    -0.353236467322E+03   -0.41684E-02   -0.41545E-02  7072   0.505E-01 0.533E-03
CGA:  26    -0.353238817121E+03   -0.23498E-02   -0.23467E-02  7072   0.230E-01 0.545E-03
CGA:  27    -0.353240052994E+03   -0.12359E-02   -0.12334E-02  7072   0.194E-01 0.168E-03
CGA:  28    -0.353241267516E+03   -0.12145E-02   -0.12084E-02  7072   0.137E-01 0.267E-03
CGA:  29    -0.353242244377E+03   -0.97686E-03   -0.97592E-03  7072   0.148E-01 0.312E-04
CGA:  30    -0.353242881259E+03   -0.63688E-03   -0.63725E-03  7072   0.813E-02 0.648E-04
CGA:  31    -0.353243287717E+03   -0.40646E-03   -0.40621E-03  7072   0.591E-02 0.396E-04
SDA:  32    -0.353243711820E+03   -0.42410E-03   -0.42327E-03  7072   0.641E-02 0.299E-04
CGA:  33    -0.353243912336E+03   -0.20052E-03   -0.20056E-03  7072   0.295E-02 0.342E-05
CGA:  34    -0.353244095860E+03   -0.18352E-03   -0.18341E-03  7072   0.313E-02 0.626E-05
CGA:  35    -0.353244483889E+03   -0.38803E-03   -0.38722E-03  7072   0.533E-02 0.110E-04
CGA:  36    -0.353244711976E+03   -0.22809E-03   -0.22826E-03  7072   0.381E-02 0.803E-05
CGA:  37    -0.353244903905E+03   -0.19193E-03   -0.19193E-03  7072   0.130E-02 0.453E-05
CGA:  38    -0.353245097464E+03   -0.19356E-03   -0.19299E-03  7072   0.203E-02 0.478E-05
CGA:  39    -0.353245394521E+03   -0.29706E-03   -0.29554E-03  7072   0.288E-02 0.174E-04
CGA:  40    -0.353245481446E+03   -0.86925E-04   -0.86964E-04  7072   0.104E-02 0.191E-05
CGA:  41    -0.353245553419E+03   -0.71973E-04   -0.71973E-04  7072   0.106E-02 0.174E-07
CGA:  42    -0.353245652883E+03   -0.99464E-04   -0.99341E-04  7072   0.130E-02 0.303E-05
CGA:  43    -0.353245695811E+03   -0.42928E-04   -0.42919E-04  7072   0.452E-03 0.936E-06
CGA:  44    -0.353245734830E+03   -0.39020E-04   -0.38932E-04  7072   0.210E-03 0.297E-05
CGA:  45    -0.353245757698E+03   -0.22867E-04   -0.22789E-04  7072   0.370E-03 0.154E-05
CGA:  46    -0.353245770755E+03   -0.13057E-04   -0.13091E-04  7072   0.181E-03 0.117E-05
CGA:  47    -0.353245783627E+03   -0.12872E-04   -0.12853E-04  7072   0.702E-04 0.200E-05
CGA:  48    -0.353245788461E+03   -0.48344E-05   -0.48318E-05  7072   0.664E-04 0.314E-06
   7 F= -.35324579E+03 E0= -.35322921E+03  d E =-.427156E+00  mag=     8.0000
       N       E                     dE             d eps       ncg     rms          ort
SDA:   1    -0.333267040112E+03    0.19979E+02    0.00000E+00  7072   0.604E+02 0.000E+00
CGA:   2    -0.340431043724E+03   -0.71640E+01   -0.74743E+01  7072   0.154E+03-0.552E+01
CGA:   3    -0.348116014165E+03   -0.76850E+01   -0.69298E+01  7072   0.659E+02 0.297E+01
CGA:   4    -0.350206214793E+03   -0.20902E+01   -0.17017E+01  7072   0.157E+02 0.910E+01
CGA:   5    -0.351341945548E+03   -0.11357E+01   -0.11353E+01  7072   0.295E+02-0.368E+00
CGA:   6    -0.352138215235E+03   -0.79627E+00   -0.74718E+00  7072   0.203E+02 0.836E+00
CGA:   7    -0.352602681978E+03   -0.46447E+00   -0.45554E+00  7072   0.150E+02 0.327E+00
CGA:   8    -0.352940872780E+03   -0.33819E+00   -0.34949E+00  7072   0.765E+01-0.372E+00
CGA:   9    -0.353088957778E+03   -0.14808E+00   -0.15916E+00  7072   0.361E+01-0.373E+00
CGA:  10    -0.353188468289E+03   -0.99511E-01   -0.10188E+00  7072   0.308E+01-0.362E-01
CGA:  11    -0.353261275084E+03   -0.72807E-01   -0.74243E-01  7072   0.166E+01-0.372E-01
CGA:  12    -0.353327776293E+03   -0.66501E-01   -0.67543E-01  7072   0.199E+01 0.180E-01
CGA:  13    -0.353382065645E+03   -0.54289E-01   -0.55443E-01  7072   0.901E+00-0.174E-01
CGA:  14    -0.353414277393E+03   -0.32212E-01   -0.31981E-01  7072   0.505E+00-0.370E-03
CGA:  15    -0.353425502185E+03   -0.11225E-01   -0.11396E-01  7072   0.210E+00-0.437E-02
CGA:  16    -0.353436394611E+03   -0.10892E-01   -0.10881E-01  7072   0.237E+00 0.227E-02
CGA:  17    -0.353444746023E+03   -0.83514E-02   -0.83654E-02  7072   0.235E+00 0.839E-04
CGA:  18    -0.353456142718E+03   -0.11397E-01   -0.11399E-01  7072   0.108E+00 0.293E-02
CGA:  19    -0.353458749519E+03   -0.26068E-02   -0.26600E-02  7072   0.526E-01-0.108E-02
CGA:  20    -0.353461409250E+03   -0.26597E-02   -0.26598E-02  7072   0.406E-01-0.847E-05
CGA:  21    -0.353463252824E+03   -0.18436E-02   -0.18434E-02  7072   0.492E-01-0.256E-04
CGA:  22    -0.353465507416E+03   -0.22546E-02   -0.22575E-02  7072   0.291E-01 0.759E-03
CGA:  23    -0.353466677878E+03   -0.11705E-02   -0.11730E-02  7072   0.220E-01 0.106E-03
CGA:  24    -0.353467588568E+03   -0.91069E-03   -0.91083E-03  7072   0.135E-01 0.808E-05
CGA:  25    -0.353468256444E+03   -0.66788E-03   -0.66752E-03  7072   0.123E-01 0.786E-04
CGA:  26    -0.353468728465E+03   -0.47202E-03   -0.47282E-03  7072   0.935E-02 0.264E-04
CGA:  27    -0.353469533796E+03   -0.80533E-03   -0.80429E-03  7072   0.102E-01 0.249E-04
CGA:  28    -0.353469792000E+03   -0.25820E-03   -0.25873E-03  7072   0.373E-02-0.599E-05
CGA:  29    -0.353470080781E+03   -0.28878E-03   -0.28849E-03  7072   0.440E-02 0.799E-05
CGA:  30    -0.353470291378E+03   -0.21060E-03   -0.21061E-03  7072   0.532E-02 0.506E-05
CGA:  31    -0.353470552804E+03   -0.26143E-03   -0.26142E-03  7072   0.319E-02 0.235E-04
SDA:  32    -0.353470710551E+03   -0.15775E-03   -0.15774E-03  7072   0.213E-02 0.151E-04
CGA:  33    -0.353470769966E+03   -0.59416E-04   -0.59319E-04  7072   0.110E-02-0.113E-05
CGA:  34    -0.353470890470E+03   -0.12050E-03   -0.12080E-03  7072   0.164E-02-0.493E-05
CGA:  35    -0.353471016438E+03   -0.12597E-03   -0.12594E-03  7072   0.215E-02 0.714E-06
CGA:  36    -0.353471099245E+03   -0.82807E-04   -0.82813E-04  7072   0.894E-03 0.184E-05
CGA:  37    -0.353471170360E+03   -0.71115E-04   -0.71087E-04  7072   0.662E-03 0.882E-06
CGA:  38    -0.353471250867E+03   -0.80508E-04   -0.80634E-04  7072   0.643E-03-0.195E-05
CGA:  39    -0.353471311568E+03   -0.60701E-04   -0.60687E-04  7072   0.723E-03 0.454E-06
CGA:  40    -0.353471332928E+03   -0.21360E-04   -0.21369E-04  7072   0.246E-03 0.921E-06
CGA:  41    -0.353471355555E+03   -0.22626E-04   -0.22617E-04  7072   0.300E-03 0.236E-06
CGA:  42    -0.353471378801E+03   -0.23246E-04   -0.23238E-04  7072   0.481E-03 0.447E-06
CGA:  43    -0.353471398089E+03   -0.19288E-04   -0.19285E-04  7072   0.922E-04 0.754E-07
CGA:  44    -0.353471406511E+03   -0.84225E-05   -0.84125E-05  7072   0.864E-04 0.278E-06
CGA:  45    -0.353471418726E+03   -0.12215E-04   -0.12232E-04  7072   0.125E-03-0.245E-06
CGA:  46    -0.353471423279E+03   -0.45530E-05   -0.45531E-05  7072   0.920E-04-0.445E-07
   8 F= -.35347142E+03 E0= -.35345433E+03  d E =-.225635E+00  mag=     8.0000
       N       E                     dE             d eps       ncg     rms          ort
SDA:   1    -0.300587546857E+03    0.52884E+02    0.00000E+00  7072   0.182E+03 0.000E+00
CGA:   2    -0.316652348410E+03   -0.16065E+02   -0.15610E+02  7072   0.377E+03 0.830E+01
CGA:   3    -0.335599929523E+03   -0.18948E+02   -0.13188E+02  7072   0.584E+02 0.115E+03
CGA:   4    -0.342354830727E+03   -0.67549E+01   -0.79691E+01  7072   0.175E+03-0.334E+02
CGA:   5    -0.345651241110E+03   -0.32964E+01   -0.38745E+01  7072   0.972E+02-0.318E+02
CGA:   6    -0.347448916156E+03   -0.17977E+01   -0.20774E+01  7072   0.261E+02-0.121E+02
CGA:   7    -0.349085026395E+03   -0.16361E+01   -0.16532E+01  7072   0.599E+02-0.975E+00
CGA:   8    -0.351124428992E+03   -0.20394E+01   -0.15889E+01  7072   0.157E+02 0.125E+02
CGA:   9    -0.351764483209E+03   -0.64005E+00   -0.67811E+00  7072   0.214E+02-0.258E+00
CGA:  10    -0.352293422403E+03   -0.52894E+00   -0.54219E+00  7072   0.118E+02-0.432E+00
CGA:  11    -0.352704138555E+03   -0.41072E+00   -0.41235E+00  7072   0.151E+02-0.283E-01
CGA:  12    -0.353033307179E+03   -0.32917E+00   -0.35313E+00  7072   0.398E+01-0.681E+00
CGA:  13    -0.353171515056E+03   -0.13821E+00   -0.13646E+00  7072   0.214E+01 0.567E-02
CGA:  14    -0.353216535789E+03   -0.45021E-01   -0.45572E-01  7072   0.825E+00-0.165E-01
CGA:  15    -0.353253905156E+03   -0.37369E-01   -0.37602E-01  7072   0.921E+00 0.150E-01
CGA:  16    -0.353283636497E+03   -0.29731E-01   -0.29835E-01  7072   0.661E+00 0.357E-03
CGA:  17    -0.353329325230E+03   -0.45689E-01   -0.45415E-01  7072   0.379E+00 0.111E-01
CGA:  18    -0.353340485668E+03   -0.11160E-01   -0.11603E-01  7072   0.322E+00-0.393E-02
CGA:  19    -0.353356769029E+03   -0.16283E-01   -0.16269E-01  7072   0.149E+00 0.872E-02
CGA:  20    -0.353366832388E+03   -0.10063E-01   -0.10035E-01  7072   0.271E+00 0.137E-02
CGA:  21    -0.353377725898E+03   -0.10894E-01   -0.10956E-01  7072   0.937E-01 0.138E-02
CGA:  22    -0.353384987967E+03   -0.72621E-02   -0.71825E-02  7072   0.665E-01 0.257E-02
CGA:  23    -0.353387570111E+03   -0.25821E-02   -0.25956E-02  7072   0.675E-01 0.152E-03
CGA:  24    -0.353391349266E+03   -0.37792E-02   -0.37733E-02  7072   0.441E-01 0.729E-03
CGA:  25    -0.353394755870E+03   -0.34066E-02   -0.33982E-02  7072   0.424E-01 0.277E-03
CGA:  26    -0.353396091338E+03   -0.13355E-02   -0.13330E-02  7072   0.213E-01 0.172E-04
CGA:  27    -0.353397594046E+03   -0.15027E-02   -0.15007E-02  7072   0.143E-01 0.771E-04
CGA:  28    -0.353398394943E+03   -0.80090E-03   -0.80057E-03  7072   0.200E-01 0.528E-04
CGA:  29    -0.353399194400E+03   -0.79946E-03   -0.80004E-03  7072   0.678E-02-0.150E-05
CGA:  30    -0.353399810116E+03   -0.61572E-03   -0.61635E-03  7072   0.592E-02-0.176E-04
CGA:  31    -0.353400185812E+03   -0.37570E-03   -0.37549E-03  7072   0.991E-02 0.121E-04
CGA:  32    -0.353400612072E+03   -0.42626E-03   -0.42608E-03  7072   0.500E-02-0.888E-05
CGA:  33    -0.353400965479E+03   -0.35341E-03   -0.35352E-03  7072   0.237E-02-0.690E-05
CGA:  34    -0.353401104944E+03   -0.13946E-03   -0.13948E-03  7072   0.326E-02-0.191E-05
SDA:  35    -0.353401243216E+03   -0.13827E-03   -0.13816E-03  7072   0.150E-02-0.231E-05
CGA:  36    -0.353401303308E+03   -0.60092E-04   -0.60097E-04  7072   0.665E-03 0.164E-05
CGA:  37    -0.353401330487E+03   -0.27179E-04   -0.27179E-04  7072   0.704E-03 0.601E-06
CGA:  38    -0.353401453670E+03   -0.12318E-03   -0.12259E-03  7072   0.111E-02 0.448E-05
CGA:  39    -0.353401506778E+03   -0.53108E-04   -0.53096E-04  7072   0.818E-03-0.162E-06
CGA:  40    -0.353401535405E+03   -0.28627E-04   -0.28609E-04  7072   0.345E-03 0.394E-07
CGA:  41    -0.353401577044E+03   -0.41639E-04   -0.41531E-04  7072   0.323E-03 0.163E-05
CGA:  42    -0.353401604720E+03   -0.27676E-04   -0.27623E-04  7072   0.157E-03 0.216E-05
CGA:  43    -0.353401622227E+03   -0.17507E-04   -0.17521E-04  7072   0.224E-03-0.320E-06
CGA:  44    -0.353401629196E+03   -0.69691E-05   -0.69769E-05  7072   0.139E-03 0.304E-06
CGA:  45    -0.353401645282E+03   -0.16086E-04   -0.16013E-04  7072   0.770E-04 0.134E-05
CGA:  46    -0.353401650878E+03   -0.55968E-05   -0.55882E-05  7072   0.901E-04 0.126E-05
   9 F= -.35340165E+03 E0= -.35338384E+03  d E =0.697724E-01  mag=     8.0000
       N       E                     dE             d eps       ncg     rms          ort
SDA:   1    -0.326199462414E+03    0.27202E+02    0.00000E+00  7072   0.115E+03 0.000E+00
CGA:   2    -0.333333666524E+03   -0.71342E+01   -0.71774E+01  7072   0.179E+03 0.884E+01
CGA:   3    -0.342686479875E+03   -0.93528E+01   -0.75483E+01  7072   0.725E+02 0.165E+02
CGA:   4    -0.347489004048E+03   -0.48025E+01   -0.47670E+01  7072   0.877E+02-0.606E+01
CGA:   5    -0.348714962940E+03   -0.12260E+01   -0.10760E+01  7072   0.353E+02 0.113E+02
CGA:   6    -0.349862428055E+03   -0.11475E+01   -0.91410E+00  7072   0.461E+02 0.853E+01
CGA:   7    -0.350775867286E+03   -0.91344E+00   -0.10703E+01  7072   0.429E+02-0.135E+02
CGA:   8    -0.351081077815E+03   -0.30521E+00   -0.42022E+00  7072   0.476E+02-0.674E+01
CGA:   9    -0.351579990484E+03   -0.49891E+00   -0.56841E+00  7072   0.417E+02-0.364E+01
CGA:  10    -0.352178049379E+03   -0.59806E+00   -0.60089E+00  7072   0.411E+02-0.165E-01
CGA:  11    -0.352700033483E+03   -0.52198E+00   -0.53811E+00  7072   0.177E+02-0.370E+01
CGA:  12    -0.352828765180E+03   -0.12873E+00   -0.14067E+00  7072   0.748E+01-0.142E+01
CGA:  13    -0.352916097665E+03   -0.87332E-01   -0.85094E-01  7072   0.755E+01 0.133E+00
CGA:  14    -0.353016364652E+03   -0.10027E+00   -0.10432E+00  7072   0.518E+01-0.268E+00
CGA:  15    -0.353070989262E+03   -0.54625E-01   -0.60759E-01  7072   0.442E+01-0.438E+00
CGA:  16    -0.353161821563E+03   -0.90832E-01   -0.94891E-01  7072   0.859E+01-0.781E-01
CGA:  17    -0.353294401521E+03   -0.13258E+00   -0.14662E+00  7072   0.481E+01-0.436E+00
CGA:  18    -0.353360200439E+03   -0.65799E-01   -0.64499E-01  7072   0.341E+01 0.721E-01
CGA:  19    -0.353429472738E+03   -0.69272E-01   -0.69431E-01  7072   0.287E+01-0.137E-01
CGA:  20    -0.353463978256E+03   -0.34506E-01   -0.38386E-01  7072   0.923E+00-0.200E+00
CGA:  21    -0.353482239586E+03   -0.18261E-01   -0.19021E-01  7072   0.120E+01-0.810E-02
CGA:  22    -0.353524792945E+03   -0.42553E-01   -0.42558E-01  7072   0.108E+01 0.308E-01
CGA:  23    -0.353551598482E+03   -0.26806E-01   -0.26815E-01  7072   0.101E+01 0.322E-03
CGA:  24    -0.353581282701E+03   -0.29684E-01   -0.29712E-01  7072   0.692E+00 0.114E-02
CGA:  25    -0.353594402735E+03   -0.13120E-01   -0.13582E-01  7072   0.362E+00-0.812E-02
CGA:  26    -0.353606656842E+03   -0.12254E-01   -0.12253E-01  7072   0.294E+00 0.722E-02
CGA:  27    -0.353614012343E+03   -0.73555E-02   -0.73298E-02  7072   0.211E+00-0.333E-03
CGA:  28    -0.353624520727E+03   -0.10508E-01   -0.10460E-01  7072   0.298E+00 0.243E-02
CGA:  29    -0.353631662668E+03   -0.71419E-02   -0.72329E-02  7072   0.128E+00 0.722E-03
CGA:  30    -0.353637362324E+03   -0.56997E-02   -0.56817E-02  7072   0.139E+00 0.128E-02
CGA:  31    -0.353640775085E+03   -0.34128E-02   -0.34127E-02  7072   0.536E-01 0.514E-05
SDA:  32    -0.353643766804E+03   -0.29917E-02   -0.29868E-02  7072   0.113E+00 0.209E-03
CGA:  33    -0.353645913768E+03   -0.21470E-02   -0.21630E-02  7072   0.206E-01-0.323E-03
CGA:  34    -0.353648625858E+03   -0.27121E-02   -0.26991E-02  7072   0.475E-01 0.149E-03
CGA:  35    -0.353652955125E+03   -0.43293E-02   -0.43226E-02  7072   0.222E-01 0.132E-03
CGA:  36    -0.353653645263E+03   -0.69014E-03   -0.69039E-03  7072   0.138E-01 0.143E-04
CGA:  37    -0.353654933324E+03   -0.12881E-02   -0.12852E-02  7072   0.141E-01 0.581E-04
CGA:  38    -0.353656229980E+03   -0.12967E-02   -0.12895E-02  7072   0.569E-02 0.153E-03
CGA:  39    -0.353656720796E+03   -0.49082E-03   -0.49030E-03  7072   0.876E-02 0.125E-04
CGA:  40    -0.353657006974E+03   -0.28618E-03   -0.28606E-03  7072   0.342E-02-0.349E-05
CGA:  41    -0.353657473991E+03   -0.46702E-03   -0.46569E-03  7072   0.432E-02 0.166E-04
CGA:  42    -0.353657693629E+03   -0.21964E-03   -0.21964E-03  7072   0.289E-02 0.372E-05
CGA:  43    -0.353657795190E+03   -0.10156E-03   -0.10161E-03  7072   0.173E-02 0.259E-05
CGA:  44    -0.353657988229E+03   -0.19304E-03   -0.19244E-03  7072   0.985E-03 0.100E-04
CGA:  45    -0.353658107511E+03   -0.11928E-03   -0.11863E-03  7072   0.968E-03 0.984E-05
CGA:  46    -0.353658157478E+03   -0.49967E-04   -0.49992E-04  7072   0.541E-03 0.342E-05
CGA:  47    -0.353658176938E+03   -0.19460E-04   -0.19474E-04  7072   0.365E-03 0.561E-06
CGA:  48    -0.353658225376E+03   -0.48438E-04   -0.48408E-04  7072   0.221E-03 0.361E-06
CGA:  49    -0.353658243557E+03   -0.18182E-04   -0.18109E-04  7072   0.219E-03 0.316E-05
CGA:  50    -0.353658254069E+03   -0.10512E-04   -0.10533E-04  7072   0.267E-03 0.154E-05
CGA:  51    -0.353658276221E+03   -0.22152E-04   -0.22100E-04  7072   0.201E-03 0.231E-05
CGA:  52    -0.353658291760E+03   -0.15539E-04   -0.15494E-04  7072   0.174E-03 0.287E-05
CGA:  53    -0.353658298494E+03   -0.67342E-05   -0.67746E-05  7072   0.125E-03 0.179E-05
  10 F= -.35365830E+03 E0= -.35364056E+03  d E =-.256648E+00  mag=     8.0000
       N       E                     dE             d eps       ncg     rms          ort
SDA:   1    -0.352971243601E+03    0.68705E+00    0.00000E+00  7072   0.235E+01 0.000E+00
CGA:   2    -0.353408381742E+03   -0.43714E+00   -0.43748E+00  7072   0.341E+01-0.261E-02
CGA:   3    -0.353513323430E+03   -0.10494E+00   -0.10343E+00  7072   0.125E+01 0.202E-01
CGA:   4    -0.353578298146E+03   -0.64975E-01   -0.65315E-01  7072   0.951E+00 0.642E-02
CGA:   5    -0.353669148090E+03   -0.90850E-01   -0.90935E-01  7072   0.315E+00-0.258E-02
CGA:   6    -0.353682875311E+03   -0.13727E-01   -0.13729E-01  7072   0.273E+00-0.520E-05
CGA:   7    -0.353694938820E+03   -0.12064E-01   -0.12063E-01  7072   0.110E+00 0.363E-04
CGA:   8    -0.353703915306E+03   -0.89765E-02   -0.89726E-02  7072   0.641E-01 0.170E-03
CGA:   9    -0.353706113507E+03   -0.21982E-02   -0.22101E-02  7072   0.393E-01-0.141E-03
CGA:  10    -0.353708203985E+03   -0.20905E-02   -0.20890E-02  7072   0.159E-01-0.463E-04
CGA:  11    -0.353709545614E+03   -0.13416E-02   -0.13412E-02  7072   0.187E-01 0.170E-04
CGA:  12    -0.353710361285E+03   -0.81567E-03   -0.81642E-03  7072   0.139E-01 0.150E-04
CGA:  13    -0.353711034353E+03   -0.67307E-03   -0.67371E-03  7072   0.381E-02 0.245E-04
CGA:  14    -0.353711489038E+03   -0.45468E-03   -0.45374E-03  7072   0.819E-02 0.164E-04
CGA:  15    -0.353711895479E+03   -0.40644E-03   -0.40663E-03  7072   0.688E-02 0.137E-04
CGA:  16    -0.353712227365E+03   -0.33189E-03   -0.33209E-03  7072   0.200E-02 0.106E-04
CGA:  17    -0.353712455235E+03   -0.22787E-03   -0.22772E-03  7072   0.377E-02 0.298E-05
CGA:  18    -0.353712627448E+03   -0.17221E-03   -0.17217E-03  7072   0.305E-02-0.337E-05
CGA:  19    -0.353712797836E+03   -0.17039E-03   -0.17032E-03  7072   0.130E-02-0.720E-05
CGA:  20    -0.353712907171E+03   -0.10934E-03   -0.10946E-03  7072   0.144E-02-0.613E-05
CGA:  21    -0.353712950026E+03   -0.42855E-04   -0.42831E-04  7072   0.531E-03-0.300E-05
CGA:  22    -0.353713014545E+03   -0.64519E-04   -0.64851E-04  7072   0.616E-03-0.560E-05
CGA:  23    -0.353713039149E+03   -0.24604E-04   -0.24544E-04  7072   0.326E-03-0.214E-05
CGA:  24    -0.353713052290E+03   -0.13141E-04   -0.13109E-04  7072   0.161E-03-0.139E-05
CGA:  25    -0.353713067037E+03   -0.14747E-04   -0.14788E-04  7072   0.116E-03-0.148E-05
CGA:  26    -0.353713073801E+03   -0.67636E-05   -0.67587E-05  7072   0.160E-03-0.728E-06
  11 F= -.35371307E+03 E0= -.35369527E+03  d E =-.547753E-01  mag=     8.0000
       N       E                     dE             d eps       ncg     rms          ort
SDA:   1    -0.352215008726E+03    0.14981E+01    0.00000E+00  7072   0.538E+01 0.000E+00
CGA:   2    -0.352723933878E+03   -0.50893E+00   -0.52286E+00  7072   0.111E+02-0.356E+00
CGA:   3    -0.353231107055E+03   -0.50717E+00   -0.50583E+00  7072   0.638E+01-0.165E-01
CGA:   4    -0.353447796724E+03   -0.21669E+00   -0.20973E+00  7072   0.123E+01 0.987E-01
CGA:   5    -0.353621488444E+03   -0.17369E+00   -0.17087E+00  7072   0.171E+01 0.407E-01
CGA:   6    -0.353678294671E+03   -0.56806E-01   -0.56778E-01  7072   0.773E+00-0.697E-03
CGA:   7    -0.353708451761E+03   -0.30157E-01   -0.30186E-01  7072   0.185E+00-0.557E-03
CGA:   8    -0.353725268482E+03   -0.16817E-01   -0.16767E-01  7072   0.202E+00 0.149E-02
CGA:   9    -0.353734342670E+03   -0.90742E-02   -0.90619E-02  7072   0.125E+00-0.651E-05
CGA:  10    -0.353738233831E+03   -0.38912E-02   -0.39240E-02  7072   0.361E-01-0.541E-03
CGA:  11    -0.353741523898E+03   -0.32901E-02   -0.32992E-02  7072   0.245E-01-0.257E-03
CGA:  12    -0.353743095291E+03   -0.15714E-02   -0.15714E-02  7072   0.391E-01 0.403E-04
CGA:  13    -0.353744742044E+03   -0.16468E-02   -0.16496E-02  7072   0.107E-01 0.234E-04
CGA:  14    -0.353745457041E+03   -0.71500E-03   -0.71476E-03  7072   0.793E-02 0.394E-04
CGA:  15    -0.353746272846E+03   -0.81581E-03   -0.81484E-03  7072   0.166E-01 0.239E-04
CGA:  16    -0.353746914731E+03   -0.64188E-03   -0.64196E-03  7072   0.813E-02 0.100E-04
CGA:  17    -0.353747364585E+03   -0.44985E-03   -0.45027E-03  7072   0.301E-02 0.225E-04
CGA:  18    -0.353747730286E+03   -0.36570E-03   -0.36581E-03  7072   0.909E-02-0.159E-05
CGA:  19    -0.353748085642E+03   -0.35536E-03   -0.35544E-03  7072   0.324E-02-0.505E-05
CGA:  20    -0.353748273129E+03   -0.18749E-03   -0.18748E-03  7072   0.158E-02-0.265E-05
CGA:  21    -0.353748422183E+03   -0.14905E-03   -0.14919E-03  7072   0.150E-02-0.455E-05
CGA:  22    -0.353748476698E+03   -0.54515E-04   -0.54427E-04  7072   0.108E-02-0.192E-05
CGA:  23    -0.353748551689E+03   -0.74990E-04   -0.75011E-04  7072   0.649E-03-0.392E-05
CGA:  24    -0.353748593793E+03   -0.42105E-04   -0.42105E-04  7072   0.327E-03-0.399E-06
CGA:  25    -0.353748606771E+03   -0.12978E-04   -0.12964E-04  7072   0.298E-03-0.378E-06
CGA:  26    -0.353748628106E+03   -0.21334E-04   -0.21344E-04  7072   0.215E-03-0.121E-05
CGA:  27    -0.353748645238E+03   -0.17132E-04   -0.17159E-04  7072   0.115E-03-0.167E-05
CGA:  28    -0.353748650522E+03   -0.52848E-05   -0.52898E-05  7072   0.122E-03 0.254E-06
  12 F= -.35374865E+03 E0= -.35373067E+03  d E =-.355767E-01  mag=     8.0000
       N       E                     dE             d eps       ncg     rms          ort
SDA:   1    -0.348734544487E+03    0.50141E+01    0.00000E+00  7072   0.151E+02 0.000E+00
CGA:   2    -0.350338256174E+03   -0.16037E+01   -0.15791E+01  7072   0.386E+02 0.499E+00
CGA:   3    -0.352287416141E+03   -0.19492E+01   -0.19119E+01  7072   0.167E+02-0.106E+00
CGA:   4    -0.352929504213E+03   -0.64209E+00   -0.61617E+00  7072   0.467E+01 0.213E+00
CGA:   5    -0.353251667161E+03   -0.32216E+00   -0.32142E+00  7072   0.801E+01 0.935E-01
CGA:   6    -0.353577892472E+03   -0.32623E+00   -0.32570E+00  7072   0.210E+01-0.565E-03
CGA:   7    -0.353663341763E+03   -0.85449E-01   -0.87424E-01  7072   0.137E+01-0.242E-02
CGA:   8    -0.353703050776E+03   -0.39709E-01   -0.40467E-01  7072   0.411E+00-0.143E-01
CGA:   9    -0.353734957799E+03   -0.31907E-01   -0.31833E-01  7072   0.637E+00 0.306E-02
CGA:  10    -0.353756458102E+03   -0.21500E-01   -0.21674E-01  7072   0.178E+00-0.190E-02
CGA:  11    -0.353765234862E+03   -0.87768E-02   -0.87398E-02  7072   0.102E+00-0.108E-02
CGA:  12    -0.353768777779E+03   -0.35429E-02   -0.35720E-02  7072   0.625E-01-0.206E-03
CGA:  13    -0.353773235403E+03   -0.44576E-02   -0.44533E-02  7072   0.695E-01 0.224E-03
CGA:  14    -0.353776360240E+03   -0.31248E-02   -0.31308E-02  7072   0.409E-01 0.118E-03
CGA:  15    -0.353777779423E+03   -0.14192E-02   -0.14281E-02  7072   0.117E-01-0.389E-04
CGA:  16    -0.353778792927E+03   -0.10135E-02   -0.10144E-02  7072   0.275E-01-0.238E-04
CGA:  17    -0.353780176457E+03   -0.13835E-02   -0.13863E-02  7072   0.131E-01 0.135E-03
CGA:  18    -0.353780908909E+03   -0.73245E-03   -0.73254E-03  7072   0.114E-01 0.254E-04
CGA:  19    -0.353781323883E+03   -0.41497E-03   -0.41506E-03  7072   0.564E-02 0.477E-05
CGA:  20    -0.353781924634E+03   -0.60075E-03   -0.59965E-03  7072   0.105E-01 0.221E-04
CGA:  21    -0.353782324314E+03   -0.39968E-03   -0.39969E-03  7072   0.530E-02-0.786E-06
CGA:  22    -0.353782683647E+03   -0.35933E-03   -0.35919E-03  7072   0.337E-02 0.107E-04
CGA:  23    -0.353782802975E+03   -0.11933E-03   -0.11926E-03  7072   0.215E-02 0.231E-05
CGA:  24    -0.353782978508E+03   -0.17553E-03   -0.17555E-03  7072   0.255E-02-0.360E-06
CGA:  25    -0.353783092054E+03   -0.11355E-03   -0.11359E-03  7072   0.151E-02 0.148E-05
CGA:  26    -0.353783150694E+03   -0.58641E-04   -0.58633E-04  7072   0.626E-03 0.447E-06
CGA:  27    -0.353783200789E+03   -0.50095E-04   -0.50056E-04  7072   0.880E-03 0.164E-05
CGA:  28    -0.353783234983E+03   -0.34194E-04   -0.34201E-04  7072   0.422E-03 0.821E-06
CGA:  29    -0.353783267591E+03   -0.32608E-04   -0.32612E-04  7072   0.474E-03-0.134E-06
CGA:  30    -0.353783284917E+03   -0.17326E-04   -0.17339E-04  7072   0.262E-03 0.433E-06
CGA:  31    -0.353783303864E+03   -0.18947E-04   -0.18938E-04  7072   0.216E-03 0.517E-06
SDA:  32    -0.353783313592E+03   -0.97288E-05   -0.97334E-05  7072   0.218E-03 0.353E-06
  13 F= -.35378331E+03 E0= -.35376515E+03  d E =-.346631E-01  mag=     8.0000
       N       E                     dE             d eps       ncg     rms          ort
SDA:   1    -0.283013416449E+03    0.70770E+02    0.00000E+00  7072   0.398E+03 0.000E+00
CGA:   2    -0.296846435649E+03   -0.13833E+02   -0.12352E+02  7072   0.295E+03-0.214E+02
CGA:   3    -0.309087820157E+03   -0.12241E+02   -0.42066E+02  7072   0.999E+03-0.163E+03
CGA:   4    -0.322528005974E+03   -0.13440E+02   -0.25976E+02  7072   0.698E+03-0.635E+03
CGA:   5    -0.337171763088E+03   -0.14644E+02   -0.78326E+01  7072   0.120E+03 0.350E+03
CGA:   6    -0.339297157186E+03   -0.21254E+01   -0.21548E+01  7072   0.813E+02-0.444E+01
CGA:   7    -0.345690166694E+03   -0.63930E+01   -0.62504E+01  7072   0.251E+02 0.380E+01
CGA:   8    -0.347715137283E+03   -0.20250E+01   -0.20158E+01  7072   0.638E+02 0.749E+00
CGA:   9    -0.348868362765E+03   -0.11532E+01   -0.10592E+01  7072   0.202E+02 0.148E+01
CGA:  10    -0.349393928920E+03   -0.52557E+00   -0.55697E+00  7072   0.379E+02-0.640E+00
CGA:  11    -0.350938053067E+03   -0.15441E+01   -0.15403E+01  7072   0.205E+02-0.508E+00
CGA:  12    -0.351383933756E+03   -0.44588E+00   -0.45026E+00  7072   0.169E+02-0.450E-01
CGA:  13    -0.351845893885E+03   -0.46196E+00   -0.48097E+00  7072   0.990E+01-0.311E+00
CGA:  14    -0.352045189237E+03   -0.19930E+00   -0.21552E+00  7072   0.712E+01-0.450E+00
CGA:  15    -0.352251959412E+03   -0.20677E+00   -0.21431E+00  7072   0.294E+01 0.161E-01
CGA:  16    -0.352331974622E+03   -0.80015E-01   -0.82164E-01  7072   0.333E+01-0.178E-01
CGA:  17    -0.352473840911E+03   -0.14187E+00   -0.14185E+00  7072   0.134E+01-0.203E-02
CGA:  18    -0.352525215028E+03   -0.51374E-01   -0.51585E-01  7072   0.159E+01 0.865E-02
CGA:  19    -0.352596504307E+03   -0.71289E-01   -0.71425E-01  7072   0.918E+00 0.665E-01
CGA:  20    -0.352624577852E+03   -0.28074E-01   -0.28203E-01  7072   0.498E+00 0.221E-03
CGA:  21    -0.352665304673E+03   -0.40727E-01   -0.37528E-01  7072   0.839E+00 0.898E-01
CGA:  22    -0.352715292380E+03   -0.49988E-01   -0.50397E-01  7072   0.462E+00-0.519E-01
CGA:  23    -0.352737040299E+03   -0.21748E-01   -0.21559E-01  7072   0.208E+00 0.330E-01
CGA:  24    -0.352752967758E+03   -0.15927E-01   -0.16199E-01  7072   0.264E+00-0.923E-02
CGA:  25    -0.352766495694E+03   -0.13528E-01   -0.13368E-01  7072   0.178E+00 0.185E-01
CGA:  26    -0.352776105744E+03   -0.96100E-02   -0.96017E-02  7072   0.175E+00 0.206E-02
CGA:  27    -0.352786984849E+03   -0.10879E-01   -0.11050E-01  7072   0.144E+00-0.957E-02
CGA:  28    -0.352793827309E+03   -0.68425E-02   -0.68323E-02  7072   0.662E-01 0.443E-02
CGA:  29    -0.352800567955E+03   -0.67406E-02   -0.67273E-02  7072   0.603E-01-0.127E-03
CGA:  30    -0.352804719205E+03   -0.41512E-02   -0.42658E-02  7072   0.855E-01-0.464E-02
CGA:  31    -0.352808638408E+03   -0.39192E-02   -0.39350E-02  7072   0.548E-01 0.266E-02
CGA:  32    -0.352811528177E+03   -0.28898E-02   -0.28900E-02  7072   0.308E-01 0.852E-04
CGA:  33    -0.352812798874E+03   -0.12707E-02   -0.12576E-02  7072   0.246E-01-0.244E-03
CGA:  34    -0.352814667007E+03   -0.18681E-02   -0.18670E-02  7072   0.237E-01 0.295E-04
CGA:  35    -0.352815938797E+03   -0.12718E-02   -0.12717E-02  7072   0.314E-01 0.957E-04
SDA:  36    -0.352817405148E+03   -0.14664E-02   -0.14534E-02  7072   0.163E-01-0.651E-03
CGA:  37    -0.352818132429E+03   -0.72728E-03   -0.72694E-03  7072   0.567E-02-0.206E-04
CGA:  38    -0.352818758558E+03   -0.62613E-03   -0.63012E-03  7072   0.186E-01-0.704E-04
CGA:  39    -0.352819753184E+03   -0.99463E-03   -0.99450E-03  7072   0.903E-02-0.761E-04
CGA:  40    -0.352820516555E+03   -0.76337E-03   -0.76733E-03  7072   0.764E-02-0.119E-03
CGA:  41    -0.352820783313E+03   -0.26676E-03   -0.26578E-03  7072   0.511E-02 0.513E-05
CGA:  42    -0.352821090857E+03   -0.30754E-03   -0.30786E-03  7072   0.411E-02-0.382E-04
CGA:  43    -0.352821588630E+03   -0.49777E-03   -0.50251E-03  7072   0.157E-02-0.783E-04
CGA:  44    -0.352821710576E+03   -0.12195E-03   -0.12238E-03  7072   0.232E-02-0.157E-04
CGA:  45    -0.352821813171E+03   -0.10260E-03   -0.10299E-03  7072   0.241E-02 0.485E-05
CGA:  46    -0.352822002822E+03   -0.18965E-03   -0.19238E-03  7072   0.773E-03-0.106E-03
CGA:  47    -0.352822032294E+03   -0.29472E-04   -0.29421E-04  7072   0.700E-03-0.138E-05
CGA:  48    -0.352822080752E+03   -0.48459E-04   -0.48448E-04  7072   0.920E-03 0.412E-06
CGA:  49    -0.352822156141E+03   -0.75388E-04   -0.76299E-04  7072   0.504E-03-0.317E-04
CGA:  50    -0.352822198220E+03   -0.42080E-04   -0.42069E-04  7072   0.646E-03 0.357E-06
CGA:  51    -0.352822218320E+03   -0.20099E-04   -0.20012E-04  7072   0.228E-03 0.435E-05
CGA:  52    -0.352822243597E+03   -0.25278E-04   -0.25034E-04  7072   0.368E-03 0.449E-05
CGA:  53    -0.352822274401E+03   -0.30804E-04   -0.30836E-04  7072   0.294E-03-0.911E-07
CGA:  54    -0.352822286923E+03   -0.12521E-04   -0.12545E-04  7072   0.292E-03 0.188E-05
CGA:  55    -0.352822303279E+03   -0.16357E-04   -0.16364E-04  7072   0.147E-03 0.149E-05
CGA:  56    -0.352822315836E+03   -0.12557E-04   -0.12523E-04  7072   0.238E-03 0.146E-05
CGA:  57    -0.352822326708E+03   -0.10872E-04   -0.10919E-04  7072   0.207E-03 0.143E-05
CGA:  58    -0.352822339147E+03   -0.12439E-04   -0.12440E-04  7072   0.958E-04 0.285E-06
CGA:  59    -0.352822345720E+03   -0.65727E-05   -0.65719E-05  7072   0.590E-04-0.236E-06
  14 F= -.35282235E+03 E0= -.35280445E+03  d E =0.960968E+00  mag=     8.0000
       N       E                     dE             d eps       ncg     rms          ort
SDA:   1    -0.330292120048E+03    0.22530E+02    0.00000E+00  7072   0.109E+03 0.000E+00
CGA:   2    -0.335142415827E+03   -0.48503E+01   -0.41953E+01  7072   0.137E+03-0.760E+01
CGA:   3    -0.342417550350E+03   -0.72751E+01   -0.73618E+01  7072   0.105E+03 0.780E+01
CGA:   4    -0.344928501878E+03   -0.25110E+01   -0.22075E+01  7072   0.961E+02 0.106E+02
CGA:   5    -0.347907074922E+03   -0.29786E+01   -0.29472E+01  7072   0.701E+02-0.618E+01
CGA:   6    -0.348872615300E+03   -0.96554E+00   -0.11454E+01  7072   0.674E+02-0.817E+01
CGA:   7    -0.350273410715E+03   -0.14008E+01   -0.13222E+01  7072   0.852E+02-0.150E+01
CGA:   8    -0.351147257809E+03   -0.87385E+00   -0.11209E+01  7072   0.277E+02-0.283E+02
CGA:   9    -0.351503264146E+03   -0.35601E+00   -0.35100E+00  7072   0.471E+02 0.141E+00
CGA:  10    -0.352649005932E+03   -0.11457E+01   -0.10719E+01  7072   0.147E+02 0.114E+01
CGA:  11    -0.352816648186E+03   -0.16764E+00   -0.17632E+00  7072   0.558E+01-0.731E+00
CGA:  12    -0.352975466023E+03   -0.15882E+00   -0.15981E+00  7072   0.707E+01-0.156E-01
CGA:  13    -0.353131115448E+03   -0.15565E+00   -0.15269E+00  7072   0.469E+01 0.860E-01
CGA:  14    -0.353220553282E+03   -0.89438E-01   -0.92703E-01  7072   0.443E+01-0.101E+00
CGA:  15    -0.353385933443E+03   -0.16538E+00   -0.16676E+00  7072   0.488E+01 0.731E-01
CGA:  16    -0.353470472830E+03   -0.84539E-01   -0.84947E-01  7072   0.248E+01 0.109E-02
CGA:  17    -0.353529285243E+03   -0.58812E-01   -0.60769E-01  7072   0.119E+01-0.265E-01
CGA:  18    -0.353555309748E+03   -0.26025E-01   -0.27717E-01  7072   0.126E+01-0.265E-01
CGA:  19    -0.353615232069E+03   -0.59922E-01   -0.59481E-01  7072   0.632E+00 0.396E-01
CGA:  20    -0.353647887835E+03   -0.32656E-01   -0.32639E-01  7072   0.126E+01 0.114E-02
CGA:  21    -0.353682120540E+03   -0.34233E-01   -0.36415E-01  7072   0.343E+00 0.152E-01
CGA:  22    -0.353692981106E+03   -0.10861E-01   -0.11205E-01  7072   0.309E+00 0.891E-02
CGA:  23    -0.353705460424E+03   -0.12479E-01   -0.12490E-01  7072   0.153E+00 0.335E-02
CGA:  24    -0.353717393509E+03   -0.11933E-01   -0.11876E-01  7072   0.125E+00 0.145E-02
CGA:  25    -0.353723549827E+03   -0.61563E-02   -0.61272E-02  7072   0.136E+00 0.308E-02
CGA:  26    -0.353729053592E+03   -0.55038E-02   -0.55090E-02  7072   0.356E-01 0.586E-03
CGA:  27    -0.353732162097E+03   -0.31085E-02   -0.30895E-02  7072   0.309E-01 0.428E-03
CGA:  28    -0.353734555553E+03   -0.23935E-02   -0.23873E-02  7072   0.505E-01 0.169E-03
CGA:  29    -0.353736326443E+03   -0.17709E-02   -0.17745E-02  7072   0.179E-01 0.151E-04
CGA:  30    -0.353737549148E+03   -0.12227E-02   -0.12223E-02  7072   0.780E-02 0.554E-05
CGA:  31    -0.353738149624E+03   -0.60048E-03   -0.60026E-03  7072   0.132E-01 0.391E-05
SDA:  32    -0.353738789503E+03   -0.63988E-03   -0.63988E-03  7072   0.108E-01-0.412E-04
CGA:  33    -0.353739128564E+03   -0.33906E-03   -0.33887E-03  7072   0.474E-02 0.686E-06
CGA:  34    -0.353739335746E+03   -0.20718E-03   -0.20721E-03  7072   0.320E-02 0.372E-05
CGA:  35    -0.353739692720E+03   -0.35697E-03   -0.35616E-03  7072   0.374E-02 0.130E-04
CGA:  36    -0.353740126577E+03   -0.43386E-03   -0.43412E-03  7072   0.495E-02-0.506E-05
CGA:  37    -0.353740246601E+03   -0.12002E-03   -0.11996E-03  7072   0.115E-02 0.501E-05
CGA:  38    -0.353740384886E+03   -0.13829E-03   -0.13865E-03  7072   0.178E-02-0.658E-05
CGA:  39    -0.353740641420E+03   -0.25653E-03   -0.25578E-03  7072   0.108E-02 0.733E-05
CGA:  40    -0.353740725655E+03   -0.84234E-04   -0.84176E-04  7072   0.131E-02 0.342E-05
CGA:  41    -0.353740779962E+03   -0.54307E-04   -0.54349E-04  7072   0.115E-02 0.147E-05
CGA:  42    -0.353740872643E+03   -0.92682E-04   -0.92895E-04  7072   0.526E-03-0.804E-05
CGA:  43    -0.353740931747E+03   -0.59104E-04   -0.59140E-04  7072   0.757E-03-0.964E-06
CGA:  44    -0.353740952132E+03   -0.20385E-04   -0.20377E-04  7072   0.258E-03-0.152E-06
CGA:  45    -0.353740976056E+03   -0.23924E-04   -0.23936E-04  7072   0.313E-03-0.506E-06
CGA:  46    -0.353741012825E+03   -0.36769E-04   -0.36872E-04  7072   0.192E-03-0.217E-05
CGA:  47    -0.353741020537E+03   -0.77116E-05   -0.76710E-05  7072   0.142E-03-0.147E-05
  15 F= -.35374102E+03 E0= -.35372249E+03  d E =-.918675E+00  mag=     8.0000
       N       E                     dE             d eps       ncg     rms          ort
SDA:   1    -0.353386576266E+03    0.35444E+00    0.00000E+00  7072   0.182E+01 0.000E+00
CGA:   2    -0.353513616672E+03   -0.12704E+00   -0.12710E+00  7072   0.259E+01-0.616E-02
CGA:   3    -0.353631404710E+03   -0.11779E+00   -0.11724E+00  7072   0.189E+01-0.330E-02
CGA:   4    -0.353726473674E+03   -0.95069E-01   -0.94945E-01  7072   0.384E+00-0.222E-02
CGA:   5    -0.353762969065E+03   -0.36495E-01   -0.36298E-01  7072   0.377E+00 0.523E-02
CGA:   6    -0.353793195595E+03   -0.30227E-01   -0.30284E-01  7072   0.185E+00-0.265E-02
CGA:   7    -0.353797936180E+03   -0.47406E-02   -0.47737E-02  7072   0.766E-01-0.851E-03
CGA:   8    -0.353803240856E+03   -0.53047E-02   -0.53037E-02  7072   0.368E-01 0.961E-04
CGA:   9    -0.353806285476E+03   -0.30446E-02   -0.30448E-02  7072   0.320E-01-0.443E-05
CGA:  10    -0.353807245272E+03   -0.95980E-03   -0.95866E-03  7072   0.142E-01 0.173E-04
CGA:  11    -0.353808082817E+03   -0.83755E-03   -0.83755E-03  7072   0.671E-02 0.480E-07
CGA:  12    -0.353808756636E+03   -0.67382E-03   -0.67365E-03  7072   0.667E-02 0.431E-05
CGA:  13    -0.353809195215E+03   -0.43858E-03   -0.43855E-03  7072   0.653E-02 0.155E-04
CGA:  14    -0.353809377713E+03   -0.18250E-03   -0.18237E-03  7072   0.200E-02 0.973E-05
CGA:  15    -0.353809789610E+03   -0.41190E-03   -0.41053E-03  7072   0.233E-02 0.101E-04
CGA:  16    -0.353809914957E+03   -0.12535E-03   -0.12539E-03  7072   0.251E-02 0.185E-05
CGA:  17    -0.353810020592E+03   -0.10563E-03   -0.10566E-03  7072   0.152E-02 0.174E-05
CGA:  18    -0.353810151833E+03   -0.13124E-03   -0.13123E-03  7072   0.912E-03 0.740E-06
CGA:  19    -0.353810230996E+03   -0.79163E-04   -0.79179E-04  7072   0.148E-02-0.107E-05
CGA:  20    -0.353810281026E+03   -0.50031E-04   -0.49938E-04  7072   0.622E-03-0.148E-05
CGA:  21    -0.353810316981E+03   -0.35954E-04   -0.35937E-04  7072   0.229E-03-0.168E-05
CGA:  22    -0.353810344891E+03   -0.27910E-04   -0.27898E-04  7072   0.322E-03 0.233E-06
CGA:  23    -0.353810358203E+03   -0.13312E-04   -0.13292E-04  7072   0.242E-03-0.633E-06
CGA:  24    -0.353810368204E+03   -0.10001E-04   -0.99683E-05  7072   0.718E-04-0.125E-05
CGA:  25    -0.353810375273E+03   -0.70688E-05   -0.70927E-05  7072   0.809E-04-0.740E-06
  16 F= -.35381038E+03 E0= -.35379174E+03  d E =-.693547E-01  mag=     8.0000
       N       E                     dE             d eps       ncg     rms          ort
SDA:   1    -0.349800887142E+03    0.40095E+01    0.00000E+00  7072   0.178E+02 0.000E+00
CGA:   2    -0.350788218603E+03   -0.98733E+00   -0.98142E+00  7072   0.273E+02-0.152E+00
CGA:   3    -0.352206485828E+03   -0.14183E+01   -0.14229E+01  7072   0.193E+02 0.908E-01
CGA:   4    -0.353016058528E+03   -0.80957E+00   -0.81238E+00  7072   0.675E+01 0.900E-01
CGA:   5    -0.353204359465E+03   -0.18830E+00   -0.19369E+00  7072   0.472E+01-0.149E+00
CGA:   6    -0.353577822546E+03   -0.37346E+00   -0.37099E+00  7072   0.370E+01 0.101E+00
CGA:   7    -0.353712996417E+03   -0.13517E+00   -0.13196E+00  7072   0.240E+01 0.319E-01
CGA:   8    -0.353797024474E+03   -0.84028E-01   -0.84042E-01  7072   0.514E+00-0.219E-02
CGA:   9    -0.353827524449E+03   -0.30500E-01   -0.30516E-01  7072   0.845E+00 0.414E-02
CGA:  10    -0.353857444202E+03   -0.29920E-01   -0.30211E-01  7072   0.286E+00-0.214E-02
CGA:  11    -0.353875186715E+03   -0.17743E-01   -0.17741E-01  7072   0.179E+00 0.234E-03
CGA:  12    -0.353880071062E+03   -0.48843E-02   -0.48452E-02  7072   0.900E-01 0.811E-03
CGA:  13    -0.353885992803E+03   -0.59217E-02   -0.59163E-02  7072   0.865E-01 0.456E-03
CGA:  14    -0.353891402200E+03   -0.54094E-02   -0.54063E-02  7072   0.112E+00 0.525E-03
CGA:  15    -0.353894902350E+03   -0.35001E-02   -0.35040E-02  7072   0.259E-01-0.485E-04
CGA:  16    -0.353897112237E+03   -0.22099E-02   -0.22110E-02  7072   0.494E-01-0.311E-04
CGA:  17    -0.353898940764E+03   -0.18285E-02   -0.18357E-02  7072   0.345E-01-0.114E-04
CGA:  18    -0.353901859317E+03   -0.29186E-02   -0.29155E-02  7072   0.220E-01 0.954E-04
CGA:  19    -0.353902668483E+03   -0.80917E-03   -0.81324E-03  7072   0.202E-01-0.837E-05
CGA:  20    -0.353903887268E+03   -0.12188E-02   -0.12185E-02  7072   0.124E-01 0.732E-04
CGA:  21    -0.353904724380E+03   -0.83711E-03   -0.83722E-03  7072   0.203E-01-0.817E-05
CGA:  22    -0.353905537040E+03   -0.81266E-03   -0.81305E-03  7072   0.819E-02-0.176E-05
CGA:  23    -0.353905981489E+03   -0.44445E-03   -0.44450E-03  7072   0.424E-02 0.641E-05
CGA:  24    -0.353906160185E+03   -0.17870E-03   -0.17857E-03  7072   0.488E-02-0.195E-05
CGA:  25    -0.353906467821E+03   -0.30764E-03   -0.30764E-03  7072   0.193E-02-0.103E-05
CGA:  26    -0.353906590889E+03   -0.12307E-03   -0.12308E-03  7072   0.282E-02-0.131E-05
CGA:  27    -0.353906691712E+03   -0.10082E-03   -0.10086E-03  7072   0.833E-03 0.329E-06
CGA:  28    -0.353906747805E+03   -0.56093E-04   -0.56114E-04  7072   0.865E-03-0.190E-05
CGA:  29    -0.353906780381E+03   -0.32576E-04   -0.32544E-04  7072   0.715E-03-0.931E-06
CGA:  30    -0.353906842975E+03   -0.62594E-04   -0.62552E-04  7072   0.444E-03 0.124E-05
CGA:  31    -0.353906861626E+03   -0.18651E-04   -0.18643E-04  7072   0.369E-03-0.241E-06
SDA:  32    -0.353906877295E+03   -0.15669E-04   -0.15659E-04  7072   0.265E-03-0.618E-06
CGA:  33    -0.353906887006E+03   -0.97114E-05   -0.97173E-05  7072   0.168E-03 0.210E-06
  17 F= -.35390689E+03 E0= -.35388811E+03  d E =-.965117E-01  mag=     8.0000
       N       E                     dE             d eps       ncg     rms          ort
SDA:   1    -0.353674698767E+03    0.23218E+00    0.00000E+00  7072   0.154E+01 0.000E+00
CGA:   2    -0.353720261605E+03   -0.45563E-01   -0.44571E-01  7072   0.100E+01 0.132E-01
CGA:   3    -0.353796427161E+03   -0.76166E-01   -0.75956E-01  7072   0.116E+01 0.765E-02
CGA:   4    -0.353872686526E+03   -0.76259E-01   -0.76172E-01  7072   0.198E+00 0.538E-02
CGA:   5    -0.353889012054E+03   -0.16326E-01   -0.16280E-01  7072   0.322E+00 0.147E-02
CGA:   6    -0.353900462213E+03   -0.11450E-01   -0.11470E-01  7072   0.169E+00-0.887E-04
CGA:   7    -0.353909622303E+03   -0.91601E-02   -0.91574E-02  7072   0.231E-01-0.109E-02
CGA:   8    -0.353911988208E+03   -0.23659E-02   -0.23608E-02  7072   0.204E-01 0.106E-03
CGA:   9    -0.353912738700E+03   -0.75049E-03   -0.74955E-03  7072   0.166E-01-0.162E-05
CGA:  10    -0.353913678071E+03   -0.93937E-03   -0.93937E-03  7072   0.440E-02-0.373E-04
CGA:  11    -0.353913988795E+03   -0.31072E-03   -0.31057E-03  7072   0.303E-02 0.804E-05
CGA:  12    -0.353914161458E+03   -0.17266E-03   -0.17266E-03  7072   0.443E-02 0.300E-06
CGA:  13    -0.353914371653E+03   -0.21019E-03   -0.21026E-03  7072   0.169E-02 0.207E-05
CGA:  14    -0.353914500074E+03   -0.12842E-03   -0.12849E-03  7072   0.906E-03-0.367E-05
CGA:  15    -0.353914599524E+03   -0.99450E-04   -0.99312E-04  7072   0.188E-02 0.268E-05
CGA:  16    -0.353914662776E+03   -0.63252E-04   -0.63287E-04  7072   0.932E-03 0.184E-05
CGA:  17    -0.353914750266E+03   -0.87490E-04   -0.87463E-04  7072   0.621E-03 0.615E-06
CGA:  18    -0.353914797118E+03   -0.46852E-04   -0.46867E-04  7072   0.572E-03-0.108E-05
CGA:  19    -0.353914822618E+03   -0.25500E-04   -0.25491E-04  7072   0.641E-03-0.481E-06
CGA:  20    -0.353914866380E+03   -0.43762E-04   -0.43761E-04  7072   0.217E-03 0.748E-07
CGA:  21    -0.353914888044E+03   -0.21664E-04   -0.21703E-04  7072   0.188E-03-0.104E-05
CGA:  22    -0.353914893764E+03   -0.57207E-05   -0.57233E-05  7072   0.110E-03 0.186E-07
  18 F= -.35391489E+03 E0= -.35389613E+03  d E =-.800676E-02  mag=     8.0000
       N       E                     dE             d eps       ncg     rms          ort
SDA:   1    -0.346713414306E+03    0.72015E+01    0.00000E+00  7072   0.242E+02 0.000E+00
CGA:   2    -0.348319437839E+03   -0.16060E+01   -0.15911E+01  7072   0.414E+02 0.262E+01
CGA:   3    -0.351432578812E+03   -0.31131E+01   -0.31897E+01  7072   0.387E+02-0.703E+01
CGA:   4    -0.352654911346E+03   -0.12223E+01   -0.11594E+01  7072   0.876E+01 0.455E+00
CGA:   5    -0.353019520234E+03   -0.36461E+00   -0.34048E+00  7072   0.847E+01 0.609E-01
CGA:   6    -0.353479715717E+03   -0.46020E+00   -0.45879E+00  7072   0.637E+01-0.754E-01
CGA:   7    -0.353735463118E+03   -0.25575E+00   -0.26353E+00  7072   0.221E+01-0.100E-01
CGA:   8    -0.353790000592E+03   -0.54537E-01   -0.52903E-01  7072   0.955E+00 0.418E-01
CGA:   9    -0.353837687223E+03   -0.47687E-01   -0.48264E-01  7072   0.888E+00 0.251E-01
CGA:  10    -0.353874927584E+03   -0.37240E-01   -0.37597E-01  7072   0.675E+00 0.280E-02
CGA:  11    -0.353900373739E+03   -0.25446E-01   -0.25741E-01  7072   0.307E+00 0.620E-03
CGA:  12    -0.353917722272E+03   -0.17349E-01   -0.17335E-01  7072   0.124E+00 0.708E-02
CGA:  13    -0.353921478074E+03   -0.37558E-02   -0.37173E-02  7072   0.909E-01 0.572E-03
CGA:  14    -0.353931452983E+03   -0.99749E-02   -0.96333E-02  7072   0.815E-01 0.614E-02
CGA:  15    -0.353933779923E+03   -0.23269E-02   -0.23560E-02  7072   0.344E-01-0.572E-03
CGA:  16    -0.353935922907E+03   -0.21430E-02   -0.21368E-02  7072   0.225E-01 0.522E-03
CGA:  17    -0.353937417259E+03   -0.14944E-02   -0.14887E-02  7072   0.182E-01 0.384E-03
CGA:  18    -0.353938386975E+03   -0.96972E-03   -0.96885E-03  7072   0.236E-01-0.994E-04
CGA:  19    -0.353939729990E+03   -0.13430E-02   -0.13419E-02  7072   0.696E-02 0.465E-03
CGA:  20    -0.353940190900E+03   -0.46091E-03   -0.46073E-03  7072   0.905E-02 0.155E-04
CGA:  21    -0.353940553160E+03   -0.36226E-03   -0.36317E-03  7072   0.685E-02 0.117E-04
CGA:  22    -0.353941360135E+03   -0.80697E-03   -0.80463E-03  7072   0.344E-02 0.384E-04
CGA:  23    -0.353941489258E+03   -0.12912E-03   -0.12925E-03  7072   0.283E-02 0.232E-05
CGA:  24    -0.353941671883E+03   -0.18263E-03   -0.18249E-03  7072   0.216E-02 0.154E-04
CGA:  25    -0.353941842598E+03   -0.17072E-03   -0.17047E-03  7072   0.173E-02 0.108E-04
CGA:  26    -0.353941924076E+03   -0.81478E-04   -0.81532E-04  7072   0.169E-02 0.315E-05
CGA:  27    -0.353941990066E+03   -0.65990E-04   -0.66060E-04  7072   0.379E-03 0.242E-05
CGA:  28    -0.353942039608E+03   -0.49542E-04   -0.49228E-04  7072   0.109E-02 0.426E-05
CGA:  29    -0.353942080457E+03   -0.40848E-04   -0.40917E-04  7072   0.432E-03 0.253E-05
CGA:  30    -0.353942107529E+03   -0.27073E-04   -0.27075E-04  7072   0.195E-03-0.971E-06
CGA:  31    -0.353942124992E+03   -0.17463E-04   -0.17461E-04  7072   0.443E-03 0.480E-07
SDA:  32    -0.353942144973E+03   -0.19981E-04   -0.19985E-04  7072   0.227E-03 0.556E-06
CGA:  33    -0.353942152188E+03   -0.72143E-05   -0.72110E-05  7072   0.109E-03-0.172E-06
  19 F= -.35394215E+03 E0= -.35392351E+03  d E =-.272584E-01  mag=     8.0000
       N       E                     dE             d eps       ncg     rms          ort
SDA:   1    -0.279731944504E+03    0.74210E+02    0.00000E+00  7072   0.411E+03 0.000E+00
CGA:   2    -0.296990170211E+03   -0.17258E+02   -0.13835E+02  7072   0.223E+03 0.540E+02
CGA:   3    -0.321974500045E+03   -0.24984E+02   -0.24496E+02  7072   0.279E+03-0.488E+01
CGA:   4    -0.335043359911E+03   -0.13069E+02   -0.12346E+02  7072   0.236E+03-0.212E+02
CGA:   5    -0.338755252968E+03   -0.37119E+01   -0.55460E+01  7072   0.193E+03-0.449E+02
CGA:   6    -0.343115299872E+03   -0.43600E+01   -0.39992E+01  7072   0.595E+02-0.327E+02
CGA:   7    -0.345244379332E+03   -0.21291E+01   -0.21658E+01  7072   0.125E+03 0.615E+00
CGA:   8    -0.348231319249E+03   -0.29869E+01   -0.30551E+01  7072   0.716E+02-0.329E+01
CGA:   9    -0.349584475843E+03   -0.13532E+01   -0.98916E+00  7072   0.221E+02 0.209E+02
CGA:  10    -0.350061125412E+03   -0.47665E+00   -0.49272E+00  7072   0.167E+02-0.118E+01
CGA:  11    -0.350498853728E+03   -0.43773E+00   -0.46243E+00  7072   0.303E+02-0.279E+00
CGA:  12    -0.351200059514E+03   -0.70121E+00   -0.59668E+00  7072   0.201E+02 0.357E+01
CGA:  13    -0.351549541605E+03   -0.34948E+00   -0.34319E+00  7072   0.122E+02 0.221E+00
CGA:  14    -0.351801326110E+03   -0.25178E+00   -0.22837E+00  7072   0.139E+02 0.999E+00
CGA:  15    -0.351986591207E+03   -0.18527E+00   -0.14952E+00  7072   0.741E+01 0.264E+01
CGA:  16    -0.352090100185E+03   -0.10351E+00   -0.10500E+00  7072   0.781E+01-0.169E+00
CGA:  17    -0.352181210899E+03   -0.91111E-01   -0.10821E+00  7072   0.883E+01-0.880E+00
CGA:  18    -0.352280356310E+03   -0.99145E-01   -0.12061E+00  7072   0.107E+02-0.899E+00
CGA:  19    -0.352430833510E+03   -0.15048E+00   -0.15980E+00  7072   0.913E+01-0.375E+00
CGA:  20    -0.352552003728E+03   -0.12117E+00   -0.13056E+00  7072   0.552E+01-0.470E+00
CGA:  21    -0.352632081560E+03   -0.80078E-01   -0.92514E-01  7072   0.426E+01-0.315E+00
CGA:  22    -0.352720873636E+03   -0.88792E-01   -0.93416E-01  7072   0.197E+01 0.152E-01
CGA:  23    -0.352763029178E+03   -0.42156E-01   -0.43786E-01  7072   0.133E+01-0.757E-02
CGA:  24    -0.352823229646E+03   -0.60200E-01   -0.59228E-01  7072   0.163E+01 0.645E-01
CGA:  25    -0.352895133221E+03   -0.71904E-01   -0.71127E-01  7072   0.147E+01 0.718E-01
CGA:  26    -0.352947379475E+03   -0.52246E-01   -0.52321E-01  7072   0.694E+00 0.391E-01
CGA:  27    -0.352976165969E+03   -0.28786E-01   -0.28624E-01  7072   0.382E+00 0.193E-01
CGA:  28    -0.352999135264E+03   -0.22969E-01   -0.22626E-01  7072   0.323E+00 0.134E-01
CGA:  29    -0.353013603644E+03   -0.14468E-01   -0.14415E-01  7072   0.325E+00 0.505E-02
CGA:  30    -0.353033734079E+03   -0.20130E-01   -0.20214E-01  7072   0.232E+00-0.317E-02
CGA:  31    -0.353046148941E+03   -0.12415E-01   -0.12329E-01  7072   0.150E+00 0.423E-02
SDA:  32    -0.353054629881E+03   -0.84809E-02   -0.84461E-02  7072   0.831E-01 0.164E-02
CGA:  33    -0.353058604652E+03   -0.39748E-02   -0.39694E-02  7072   0.832E-01 0.426E-03
CGA:  34    -0.353063024638E+03   -0.44200E-02   -0.44276E-02  7072   0.916E-01-0.442E-03
CGA:  35    -0.353070426228E+03   -0.74016E-02   -0.74228E-02  7072   0.409E-01-0.542E-03
CGA:  36    -0.353072881460E+03   -0.24552E-02   -0.24516E-02  7072   0.322E-01 0.162E-03
CGA:  37    -0.353074346029E+03   -0.14646E-02   -0.14656E-02  7072   0.230E-01-0.284E-03
CGA:  38    -0.353076486347E+03   -0.21403E-02   -0.21448E-02  7072   0.250E-01-0.103E-03
CGA:  39    -0.353078061301E+03   -0.15750E-02   -0.15754E-02  7072   0.173E-01-0.508E-05
CGA:  40    -0.353079237131E+03   -0.11758E-02   -0.11883E-02  7072   0.315E-01-0.497E-03
[...]
CGA:   4    -0.354428792164E+03   -0.45450E-01   -0.46300E-01  7072   0.283E+00-0.400E-01
CGA:   5    -0.354443938654E+03   -0.15146E-01   -0.15147E-01  7072   0.207E+00 0.101E-03
CGA:   6    -0.354451615194E+03   -0.76765E-02   -0.76265E-02  7072   0.114E+00 0.220E-03
CGA:   7    -0.354459314805E+03   -0.76996E-02   -0.76795E-02  7072   0.223E-01 0.140E-02
CGA:   8    -0.354460555730E+03   -0.12409E-02   -0.12401E-02  7072   0.251E-01-0.104E-03
CGA:   9    -0.354461703261E+03   -0.11475E-02   -0.11473E-02  7072   0.120E-01-0.370E-05
CGA:  10    -0.354462413677E+03   -0.71042E-03   -0.71040E-03  7072   0.479E-02 0.116E-04
CGA:  11    -0.354462723009E+03   -0.30933E-03   -0.30917E-03  7072   0.318E-02 0.176E-04
CGA:  12    -0.354462840082E+03   -0.11707E-03   -0.11707E-03  7072   0.217E-02 0.119E-05
CGA:  13    -0.354463039044E+03   -0.19896E-03   -0.19879E-03  7072   0.995E-03 0.514E-05
CGA:  14    -0.354463093879E+03   -0.54835E-04   -0.54852E-04  7072   0.840E-03 0.480E-05
CGA:  15    -0.354463126794E+03   -0.32915E-04   -0.33003E-04  7072   0.384E-03 0.404E-05
CGA:  16    -0.354463157530E+03   -0.30737E-04   -0.30715E-04  7072   0.332E-03 0.961E-06
CGA:  17    -0.354463179396E+03   -0.21866E-04   -0.21857E-04  7072   0.277E-03 0.110E-05
CGA:  18    -0.354463188681E+03   -0.92845E-05   -0.92886E-05  7072   0.106E-03 0.242E-06
  69 F= -.35446319E+03 E0= -.35444605E+03  d E =-.494912E-02  mag=     8.0000
       N       E                     dE             d eps       ncg     rms          ort
SDA:   1    -0.354432478431E+03    0.30701E-01    0.00000E+00  7072   0.157E+00 0.000E+00
CGA:   2    -0.354438177993E+03   -0.56996E-02   -0.57238E-02  7072   0.142E+00-0.111E-03
CGA:   3    -0.354448748318E+03   -0.10570E-01   -0.10582E-01  7072   0.133E+00-0.507E-03
CGA:   4    -0.354459158650E+03   -0.10410E-01   -0.10420E-01  7072   0.353E-01-0.362E-03
CGA:   5    -0.354461110888E+03   -0.19522E-02   -0.19523E-02  7072   0.264E-01 0.383E-05
CGA:   6    -0.354462264532E+03   -0.11536E-02   -0.11539E-02  7072   0.185E-01-0.206E-05
CGA:   7    -0.354463493057E+03   -0.12285E-02   -0.12286E-02  7072   0.351E-02-0.924E-05
CGA:   8    -0.354463617280E+03   -0.12422E-03   -0.12431E-03  7072   0.271E-02 0.378E-06
CGA:   9    -0.354463809130E+03   -0.19185E-03   -0.19188E-03  7072   0.134E-02-0.174E-05
CGA:  10    -0.354463905148E+03   -0.96019E-04   -0.95977E-04  7072   0.660E-03 0.292E-05
CGA:  11    -0.354463933642E+03   -0.28494E-04   -0.28507E-04  7072   0.479E-03 0.120E-05
CGA:  12    -0.354463956432E+03   -0.22790E-04   -0.22811E-04  7072   0.212E-03 0.168E-05
CGA:  13    -0.354463976035E+03   -0.19603E-04   -0.19672E-04  7072   0.277E-03-0.198E-05
CGA:  14    -0.354463984692E+03   -0.86566E-05   -0.86379E-05  7072   0.799E-04-0.655E-06
  70 F= -.35446398E+03 E0= -.35444686E+03  d E =-.796011E-03  mag=     8.0000
       N       E                     dE             d eps       ncg     rms          ort
SDA:   1    -0.354358000627E+03    0.10598E+00    0.00000E+00  7072   0.398E+00 0.000E+00
CGA:   2    -0.354378102588E+03   -0.20102E-01   -0.20067E-01  7072   0.614E+00-0.133E-02
CGA:   3    -0.354423843162E+03   -0.45741E-01   -0.45557E-01  7072   0.439E+00 0.826E-02
CGA:   4    -0.354449888547E+03   -0.26045E-01   -0.26035E-01  7072   0.115E+00-0.527E-02
CGA:   5    -0.354455405822E+03   -0.55173E-02   -0.55167E-02  7072   0.106E+00-0.171E-04
CGA:   6    -0.354460718701E+03   -0.53129E-02   -0.53103E-02  7072   0.440E-01-0.103E-03
CGA:   7    -0.354464104200E+03   -0.33855E-02   -0.33855E-02  7072   0.108E-01-0.535E-05
CGA:   8    -0.354464795499E+03   -0.69130E-03   -0.69143E-03  7072   0.680E-02-0.155E-04
CGA:   9    -0.354465060306E+03   -0.26481E-03   -0.26473E-03  7072   0.524E-02 0.131E-05
CGA:  10    -0.354465456624E+03   -0.39632E-03   -0.39617E-03  7072   0.221E-02 0.808E-05
CGA:  11    -0.354465544715E+03   -0.88091E-04   -0.88088E-04  7072   0.148E-02 0.698E-06
CGA:  12    -0.354465611742E+03   -0.67027E-04   -0.67077E-04  7072   0.483E-03 0.878E-06
CGA:  13    -0.354465669326E+03   -0.57585E-04   -0.58058E-04  7072   0.453E-03-0.766E-05
CGA:  14    -0.354465695667E+03   -0.26341E-04   -0.26336E-04  7072   0.244E-03-0.285E-05
CGA:  15    -0.354465703945E+03   -0.82779E-05   -0.82539E-05  7072   0.117E-03-0.886E-06
CGA:  16    -0.354465718720E+03   -0.14775E-04   -0.14834E-04  7072   0.117E-03-0.925E-06
CGA:  17    -0.354465723986E+03   -0.52661E-05   -0.52557E-05  7072   0.127E-03-0.618E-06
  71 F= -.35446572E+03 E0= -.35444859E+03  d E =-.173929E-02  mag=     8.0000
       N       E                     dE             d eps       ncg     rms          ort
SDA:   1    -0.354127001551E+03    0.33872E+00    0.00000E+00  7072   0.882E+00 0.000E+00
CGA:   2    -0.354298348870E+03   -0.17135E+00   -0.17073E+00  7072   0.237E+01 0.567E-02
CGA:   3    -0.354385592356E+03   -0.87243E-01   -0.88025E-01  7072   0.975E+00-0.110E-01
CGA:   4    -0.354423317314E+03   -0.37725E-01   -0.36770E-01  7072   0.262E+00 0.105E-01
CGA:   5    -0.354445518596E+03   -0.22201E-01   -0.22196E-01  7072   0.385E+00 0.256E-03
CGA:   6    -0.354458226772E+03   -0.12708E-01   -0.12713E-01  7072   0.908E-01-0.173E-03
CGA:   7    -0.354463783051E+03   -0.55563E-02   -0.55571E-02  7072   0.219E-01 0.830E-04
CGA:   8    -0.354466258976E+03   -0.24759E-02   -0.24742E-02  7072   0.171E-01 0.356E-04
CGA:   9    -0.354467306634E+03   -0.10477E-02   -0.10476E-02  7072   0.151E-01 0.512E-05
CGA:  10    -0.354467829023E+03   -0.52239E-03   -0.52334E-03  7072   0.367E-02-0.833E-05
CGA:  11    -0.354468115301E+03   -0.28628E-03   -0.28639E-03  7072   0.214E-02-0.763E-05
CGA:  12    -0.354468263124E+03   -0.14782E-03   -0.14784E-03  7072   0.309E-02-0.448E-05
CGA:  13    -0.354468375821E+03   -0.11270E-03   -0.11248E-03  7072   0.846E-03-0.604E-05
CGA:  14    -0.354468434557E+03   -0.58736E-04   -0.58748E-04  7072   0.346E-03-0.228E-05
CGA:  15    -0.354468464379E+03   -0.29822E-04   -0.29863E-04  7072   0.586E-03-0.188E-05
CGA:  16    -0.354468489570E+03   -0.25191E-04   -0.25172E-04  7072   0.266E-03-0.980E-06
CGA:  17    -0.354468515153E+03   -0.25583E-04   -0.25543E-04  7072   0.129E-03 0.124E-05
CGA:  18    -0.354468525650E+03   -0.10497E-04   -0.10500E-04  7072   0.228E-03-0.209E-06
CGA:  19    -0.354468535612E+03   -0.99621E-05   -0.99552E-05  7072   0.155E-03-0.104E-06
CGA:  20    -0.354468549580E+03   -0.13968E-04   -0.13906E-04  7072   0.881E-04 0.256E-05
CGA:  21    -0.354468554948E+03   -0.53675E-05   -0.53741E-05  7072   0.667E-04 0.930E-06
  72 F= -.35446855E+03 E0= -.35445148E+03  d E =-.283096E-02  mag=     8.0000
       N       E                     dE             d eps       ncg     rms          ort
SDA:   1    -0.354100705106E+03    0.36784E+00    0.00000E+00  7072   0.110E+01 0.000E+00
CGA:   2    -0.354197545348E+03   -0.96840E-01   -0.96666E-01  7072   0.272E+01 0.604E-02
CGA:   3    -0.354360253002E+03   -0.16271E+00   -0.16270E+00  7072   0.124E+01-0.309E-03
CGA:   4    -0.354421537458E+03   -0.61284E-01   -0.61411E-01  7072   0.269E+00 0.193E-02
CGA:   5    -0.354452296960E+03   -0.30760E-01   -0.30836E-01  7072   0.226E+00-0.145E-02
CGA:   6    -0.354460734856E+03   -0.84379E-02   -0.84086E-02  7072   0.143E+00 0.298E-03
CGA:   7    -0.354466265543E+03   -0.55307E-02   -0.55802E-02  7072   0.255E-01-0.330E-03
CGA:   8    -0.354468949495E+03   -0.26840E-02   -0.26888E-02  7072   0.236E-01-0.104E-03
CGA:   9    -0.354469927110E+03   -0.97762E-03   -0.97813E-03  7072   0.162E-01 0.194E-05
CGA:  10    -0.354470756860E+03   -0.82975E-03   -0.82926E-03  7072   0.492E-02-0.620E-05
CGA:  11    -0.354471116388E+03   -0.35953E-03   -0.35941E-03  7072   0.302E-02 0.913E-05
CGA:  12    -0.354471254831E+03   -0.13844E-03   -0.13844E-03  7072   0.327E-02 0.947E-07
CGA:  13    -0.354471442440E+03   -0.18761E-03   -0.18765E-03  7072   0.814E-03 0.324E-05
CGA:  14    -0.354471507506E+03   -0.65066E-04   -0.65104E-04  7072   0.535E-03-0.230E-05
CGA:  15    -0.354471539744E+03   -0.32238E-04   -0.32240E-04  7072   0.693E-03 0.217E-06
CGA:  16    -0.354471575019E+03   -0.35275E-04   -0.35285E-04  7072   0.282E-03 0.349E-06
CGA:  17    -0.354471600490E+03   -0.25471E-04   -0.25458E-04  7072   0.270E-03 0.334E-06
CGA:  18    -0.354471609183E+03   -0.86933E-05   -0.86987E-05  7072   0.144E-03 0.466E-07
CGA:  19    -0.354471626241E+03   -0.17058E-04   -0.16933E-04  7072   0.161E-03 0.218E-05
CGA:  20    -0.354471641102E+03   -0.14862E-04   -0.14862E-04  7072   0.108E-03-0.131E-06
CGA:  21    -0.354471645622E+03   -0.45194E-05   -0.45199E-05  7072   0.779E-04-0.724E-07
  73 F= -.35447165E+03 E0= -.35445458E+03  d E =-.309067E-02  mag=     8.0000
       N       E                     dE             d eps       ncg     rms          ort
SDA:   1    -0.353751461101E+03    0.72018E+00    0.00000E+00  7072   0.190E+01 0.000E+00
CGA:   2    -0.354015226951E+03   -0.26377E+00   -0.26436E+00  7072   0.769E+01-0.551E-02
CGA:   3    -0.354301377476E+03   -0.28615E+00   -0.29026E+00  7072   0.140E+01-0.560E-01
CGA:   4    -0.354384798903E+03   -0.83421E-01   -0.83478E-01  7072   0.625E+00 0.297E-02
CGA:   5    -0.354426847493E+03   -0.42049E-01   -0.42047E-01  7072   0.780E+00-0.139E-02
CGA:   6    -0.354456684267E+03   -0.29837E-01   -0.29481E-01  7072   0.127E+00 0.316E-02
CGA:   7    -0.354465728492E+03   -0.90442E-02   -0.90280E-02  7072   0.597E-01 0.189E-02
CGA:   8    -0.354468957706E+03   -0.32292E-02   -0.32326E-02  7072   0.701E-01 0.775E-04
CGA:   9    -0.354472048816E+03   -0.30911E-02   -0.30773E-02  7072   0.253E-01 0.441E-05
CGA:  10    -0.354473814886E+03   -0.17661E-02   -0.17652E-02  7072   0.101E-01 0.979E-04
CGA:  11    -0.354474237782E+03   -0.42290E-03   -0.42292E-03  7072   0.816E-02 0.104E-05
CGA:  12    -0.354474770616E+03   -0.53283E-03   -0.53280E-03  7072   0.323E-02 0.104E-04
CGA:  13    -0.354475099473E+03   -0.32886E-03   -0.32890E-03  7072   0.187E-02-0.120E-05
CGA:  14    -0.354475186827E+03   -0.87354E-04   -0.87354E-04  7072   0.122E-02-0.127E-05
CGA:  15    -0.354475245100E+03   -0.58272E-04   -0.58262E-04  7072   0.807E-03-0.975E-06
CGA:  16    -0.354475328140E+03   -0.83040E-04   -0.82943E-04  7072   0.497E-03 0.231E-05
CGA:  17    -0.354475355795E+03   -0.27655E-04   -0.27655E-04  7072   0.619E-03-0.131E-06
CGA:  18    -0.354475383260E+03   -0.27465E-04   -0.27482E-04  7072   0.208E-03 0.525E-06
CGA:  19    -0.354475408451E+03   -0.25191E-04   -0.25075E-04  7072   0.486E-03 0.205E-05
CGA:  20    -0.354475428593E+03   -0.20142E-04   -0.20176E-04  7072   0.207E-03 0.119E-05
CGA:  21    -0.354475443368E+03   -0.14774E-04   -0.14777E-04  7072   0.855E-04-0.534E-06
CGA:  22    -0.354475453148E+03   -0.97801E-05   -0.97941E-05  7072   0.176E-03-0.325E-06
  74 F= -.35447545E+03 E0= -.35445845E+03  d E =-.380753E-02  mag=     8.0000
       N       E                     dE             d eps       ncg     rms          ort
SDA:   1    -0.352355642205E+03    0.21198E+01    0.00000E+00  7072   0.600E+01 0.000E+00
CGA:   2    -0.352911016357E+03   -0.55537E+00   -0.54967E+00  7072   0.178E+02 0.202E+00
CGA:   3    -0.353982266963E+03   -0.10713E+01   -0.10675E+01  7072   0.403E+01-0.882E-01
CGA:   4    -0.354166977137E+03   -0.18471E+00   -0.17982E+00  7072   0.284E+01-0.202E-02
CGA:   5    -0.354304522762E+03   -0.13755E+00   -0.13929E+00  7072   0.189E+01 0.118E-01
CGA:   6    -0.354420756348E+03   -0.11623E+00   -0.11599E+00  7072   0.489E+00-0.210E-01
CGA:   7    -0.354441075999E+03   -0.20320E-01   -0.20622E-01  7072   0.390E+00-0.577E-03
CGA:   8    -0.354458572934E+03   -0.17497E-01   -0.17434E-01  7072   0.121E+00-0.178E-03
CGA:   9    -0.354467551425E+03   -0.89785E-02   -0.89755E-02  7072   0.167E+00 0.197E-03
CGA:  10    -0.354473861321E+03   -0.63099E-02   -0.63141E-02  7072   0.394E-01 0.355E-04
CGA:  11    -0.354476291275E+03   -0.24300E-02   -0.24301E-02  7072   0.248E-01 0.559E-04
CGA:  12    -0.354477494112E+03   -0.12028E-02   -0.12052E-02  7072   0.212E-01 0.405E-04
CGA:  13    -0.354478614369E+03   -0.11203E-02   -0.11212E-02  7072   0.939E-02 0.403E-04
CGA:  14    -0.354479177309E+03   -0.56294E-03   -0.56291E-03  7072   0.841E-02-0.101E-04
CGA:  15    -0.354479477430E+03   -0.30012E-03   -0.30067E-03  7072   0.236E-02-0.561E-05
CGA:  16    -0.354479728316E+03   -0.25089E-03   -0.25056E-03  7072   0.334E-02 0.567E-05
CGA:  17    -0.354479857292E+03   -0.12898E-03   -0.12918E-03  7072   0.176E-02-0.659E-06
CGA:  18    -0.354479997574E+03   -0.14028E-03   -0.14007E-03  7072   0.115E-02 0.892E-05
CGA:  19    -0.354480043285E+03   -0.45711E-04   -0.45757E-04  7072   0.839E-03 0.128E-05
CGA:  20    -0.354480113634E+03   -0.70349E-04   -0.70229E-04  7072   0.912E-03 0.415E-05
CGA:  21    -0.354480182962E+03   -0.69328E-04   -0.69333E-04  7072   0.912E-03-0.498E-06
CGA:  22    -0.354480215504E+03   -0.32541E-04   -0.32578E-04  7072   0.286E-03-0.806E-06
CGA:  23    -0.354480241947E+03   -0.26443E-04   -0.26384E-04  7072   0.386E-03 0.171E-05
CGA:  24    -0.354480261476E+03   -0.19529E-04   -0.19538E-04  7072   0.368E-03 0.764E-07
CGA:  25    -0.354480284507E+03   -0.23031E-04   -0.23031E-04  7072   0.130E-03-0.535E-06
CGA:  26    -0.354480291055E+03   -0.65477E-05   -0.65530E-05  7072   0.141E-03 0.236E-06
CGA:  27    -0.354480301586E+03   -0.10531E-04   -0.10507E-04  7072   0.113E-03 0.184E-05
CGA:  28    -0.354480309698E+03   -0.81125E-05   -0.81012E-05  7072   0.927E-04 0.123E-05
  75 F= -.35448031E+03 E0= -.35446345E+03  d E =-.485655E-02  mag=     8.0000
       N       E                     dE             d eps       ncg     rms          ort
SDA:   1    -0.352331125044E+03    0.21492E+01    0.00000E+00  7072   0.551E+01 0.000E+00
CGA:   2    -0.353321723019E+03   -0.99060E+00   -0.98410E+00  7072   0.217E+02 0.793E-01
CGA:   3    -0.354006478537E+03   -0.68476E+00   -0.69422E+00  7072   0.312E+01-0.412E+00
CGA:   4    -0.354213921846E+03   -0.20744E+00   -0.20761E+00  7072   0.288E+01-0.417E-01
CGA:   5    -0.354337896900E+03   -0.12398E+00   -0.12471E+00  7072   0.186E+01-0.257E-02
CGA:   6    -0.354431257456E+03   -0.93361E-01   -0.93333E-01  7072   0.337E+00-0.129E-02
CGA:   7    -0.354452546396E+03   -0.21289E-01   -0.21295E-01  7072   0.285E+00 0.329E-02
CGA:   8    -0.354464486305E+03   -0.11940E-01   -0.11893E-01  7072   0.166E+00 0.955E-04
CGA:   9    -0.354475583093E+03   -0.11097E-01   -0.11092E-01  7072   0.864E-01 0.656E-03
CGA:  10    -0.354478961347E+03   -0.33783E-02   -0.33661E-02  7072   0.512E-01 0.690E-04
CGA:  11    -0.354481332053E+03   -0.23707E-02   -0.23719E-02  7072   0.190E-01 0.220E-04
CGA:  12    -0.354483093851E+03   -0.17618E-02   -0.17595E-02  7072   0.220E-01 0.639E-04
CGA:  13    -0.354483860658E+03   -0.76681E-03   -0.76745E-03  7072   0.753E-02 0.116E-05
CGA:  14    -0.354484449415E+03   -0.58876E-03   -0.58866E-03  7072   0.378E-02 0.491E-05
CGA:  15    -0.354484620556E+03   -0.17114E-03   -0.17119E-03  7072   0.380E-02 0.696E-06
CGA:  16    -0.354484910216E+03   -0.28966E-03   -0.28961E-03  7072   0.266E-02 0.221E-05
CGA:  17    -0.354485038804E+03   -0.12859E-03   -0.12873E-03  7072   0.188E-02 0.506E-05
CGA:  18    -0.354485124317E+03   -0.85512E-04   -0.85574E-04  7072   0.963E-03 0.233E-05
CGA:  19    -0.354485225698E+03   -0.10138E-03   -0.10132E-03  7072   0.119E-02 0.126E-05
CGA:  20    -0.354485287146E+03   -0.61449E-04   -0.61466E-04  7072   0.119E-02 0.992E-06
CGA:  21    -0.354485372193E+03   -0.85047E-04   -0.85006E-04  7072   0.421E-03 0.401E-05
CGA:  22    -0.354485392976E+03   -0.20783E-04   -0.20777E-04  7072   0.544E-03-0.646E-06
CGA:  23    -0.354485440602E+03   -0.47626E-04   -0.47682E-04  7072   0.427E-03-0.210E-05
CGA:  24    -0.354485464637E+03   -0.24036E-04   -0.24038E-04  7072   0.346E-03 0.190E-06
CGA:  25    -0.354485478806E+03   -0.14168E-04   -0.14190E-04  7072   0.133E-03 0.928E-06
CGA:  26    -0.354485494517E+03   -0.15711E-04   -0.15631E-04  7072   0.201E-03 0.144E-05
CGA:  27    -0.354485504861E+03   -0.10344E-04   -0.10358E-04  7072   0.163E-03 0.106E-05
CGA:  28    -0.354485513370E+03   -0.85083E-05   -0.85194E-05  7072   0.645E-04 0.810E-06
  76 F= -.35448551E+03 E0= -.35446880E+03  d E =-.520367E-02  mag=     8.0000
       N       E                     dE             d eps       ncg     rms          ort
SDA:   1    -0.354250082516E+03    0.23542E+00    0.00000E+00  7072   0.127E+01 0.000E+00
CGA:   2    -0.354286596909E+03   -0.36514E-01   -0.37707E-01  7072   0.924E+00-0.243E-01
CGA:   3    -0.354421805636E+03   -0.13521E+00   -0.13566E+00  7072   0.529E+00-0.574E-02
CGA:   4    -0.354448606390E+03   -0.26801E-01   -0.26827E-01  7072   0.307E+00 0.443E-03
CGA:   5    -0.354463099007E+03   -0.14493E-01   -0.14489E-01  7072   0.273E+00-0.455E-04
CGA:   6    -0.354479633403E+03   -0.16534E-01   -0.16535E-01  7072   0.578E-01 0.526E-04
CGA:   7    -0.354482332143E+03   -0.26987E-02   -0.26889E-02  7072   0.497E-01-0.632E-04
CGA:   8    -0.354484431016E+03   -0.20989E-02   -0.21007E-02  7072   0.173E-01 0.544E-05
CGA:   9    -0.354486100358E+03   -0.16693E-02   -0.16689E-02  7072   0.974E-02 0.119E-04
CGA:  10    -0.354486508135E+03   -0.40778E-03   -0.40836E-03  7072   0.660E-02 0.275E-05
CGA:  11    -0.354486811657E+03   -0.30352E-03   -0.30339E-03  7072   0.259E-02-0.853E-06
CGA:  12    -0.354487070051E+03   -0.25839E-03   -0.25851E-03  7072   0.356E-02-0.363E-05
CGA:  13    -0.354487180934E+03   -0.11088E-03   -0.11069E-03  7072   0.106E-02-0.574E-05
CGA:  14    -0.354487262328E+03   -0.81394E-04   -0.81485E-04  7072   0.547E-03-0.709E-05
CGA:  15    -0.354487303700E+03   -0.41372E-04   -0.41422E-04  7072   0.803E-03-0.431E-05
CGA:  16    -0.354487342154E+03   -0.38454E-04   -0.38416E-04  7072   0.506E-03-0.311E-05
CGA:  17    -0.354487375180E+03   -0.33026E-04   -0.33030E-04  7072   0.202E-03-0.207E-05
CGA:  18    -0.354487385288E+03   -0.10108E-04   -0.10114E-04  7072   0.274E-03 0.698E-07
CGA:  19    -0.354487410131E+03   -0.24843E-04   -0.24806E-04  7072   0.161E-03 0.114E-05
CGA:  20    -0.354487425885E+03   -0.15753E-04   -0.15646E-04  7072   0.199E-03 0.316E-05
CGA:  21    -0.354487433085E+03   -0.71998E-05   -0.72314E-05  7072   0.865E-04 0.921E-06
  77 F= -.35448743E+03 E0= -.35447078E+03  d E =-.191972E-02  mag=     8.0000
       N       E                     dE             d eps       ncg     rms          ort
SDA:   1    -0.354349676690E+03    0.13775E+00    0.00000E+00  7072   0.439E+00 0.000E+00
CGA:   2    -0.354383277196E+03   -0.33601E-01   -0.33494E-01  7072   0.987E+00 0.608E-02
CGA:   3    -0.354438666560E+03   -0.55389E-01   -0.55294E-01  7072   0.559E+00-0.301E-02
CGA:   4    -0.354469046010E+03   -0.30379E-01   -0.30457E-01  7072   0.119E+00 0.250E-02
CGA:   5    -0.354481902796E+03   -0.12857E-01   -0.12863E-01  7072   0.800E-01-0.128E-03
CGA:   6    -0.354484858284E+03   -0.29555E-02   -0.29668E-02  7072   0.564E-01-0.107E-03
CGA:   7    -0.354487870934E+03   -0.30126E-02   -0.30108E-02  7072   0.123E-01-0.377E-04
CGA:   8    -0.354488662900E+03   -0.79197E-03   -0.79197E-03  7072   0.104E-01 0.728E-05
CGA:   9    -0.354489090815E+03   -0.42792E-03   -0.42785E-03  7072   0.653E-02-0.111E-05
CGA:  10    -0.354489520822E+03   -0.43001E-03   -0.43002E-03  7072   0.222E-02-0.403E-05
CGA:  11    -0.354489686522E+03   -0.16570E-03   -0.16565E-03  7072   0.187E-02 0.363E-05
CGA:  12    -0.354489742304E+03   -0.55782E-04   -0.55908E-04  7072   0.701E-03 0.837E-06
CGA:  13    -0.354489827966E+03   -0.85662E-04   -0.85599E-04  7072   0.348E-03 0.105E-05
CGA:  14    -0.354489845655E+03   -0.17689E-04   -0.17698E-04  7072   0.320E-03 0.441E-06
CGA:  15    -0.354489860133E+03   -0.14478E-04   -0.14482E-04  7072   0.145E-03 0.186E-06
CGA:  16    -0.354489872116E+03   -0.11983E-04   -0.11958E-04  7072   0.126E-03 0.129E-05
CGA:  17    -0.354489879356E+03   -0.72393E-05   -0.72409E-05  7072   0.141E-03 0.194E-06
  78 F= -.35448988E+03 E0= -.35447324E+03  d E =-.244627E-02  mag=     8.0000
